{
	 "smiles": "NC1=CC=C(SC2=NC3=C(N2)C=CC=C3)C=C1", 
	 "Tm": 498.15, 
	 "num_atms": 28, 
	 "gaussian": { 
		 "optdone": 1, 
		 "sigma_profile": "yes", 
		 "theory": "DFT", 
		 "functional": "B3LYP", 
		 "basiset": "6-31G**", 
		 "properties": { 
			 "R2extent": 5646.9019, 
			 "electric_dipole_moment_norm": 7.60184273252, 
			 "electric_quadrupole_moment_norm": 15.9678839453, 
			 "total_energy": -1064.46620269, 
			 "HOMO_LUMO_gap": 0.18086, 
			 "cosmo_polarized_energy": -18.99, 
			 "cosmo_cavitation_energy": 34.2, 
			 "cosmo_dispersion_energy": -25.32, 
			 "cosmo_repulsion_energy": 1.92, 
			 "cosmo_total_nonelectrostatic_energy": 10.8, 
			 "SMD_solvation_energy": 2.83 
		},
		"coords": [
			{
				"x": 1.6373665179,
				"y": -5.0308869787,
				"z": -1.6245315753,
				"element": "N" 
			},
			{
				"x": 1.7260611084,
				"y": -3.7003414897,
				"z": -1.249679819,
				"element": "C" 
			},
			{
				"x": 1.8137326172,
				"y": -3.3393858937,
				"z": 0.1091385174,
				"element": "C" 
			},
			{
				"x": 1.9606214394,
				"y": -2.007812557,
				"z": 0.4803505206,
				"element": "C" 
			},
			{
				"x": 2.0156108184,
				"y": -0.9934830959,
				"z": -0.4882682237,
				"element": "C" 
			},
			{
				"x": 2.2727040384,
				"y": 0.7146828981,
				"z": -0.0089691874,
				"element": "S" 
			},
			{
				"x": 0.6072545446,
				"y": 1.2917517973,
				"z": 0.1813943382,
				"element": "C" 
			},
			{
				"x": 0.327855972,
				"y": 2.5209578168,
				"z": 0.53257903,
				"element": "N" 
			},
			{
				"x": -1.0611091788,
				"y": 2.5674259417,
				"z": 0.5697819966,
				"element": "C" 
			},
			{
				"x": -1.6090077882,
				"y": 1.3072001077,
				"z": 0.2242060083,
				"element": "C" 
			},
			{
				"x": -0.5047903069,
				"y": 0.5035361741,
				"z": -0.0215421838,
				"element": "N" 
			},
			{
				"x": -2.9823512526,
				"y": 1.0699745733,
				"z": 0.1814756272,
				"element": "C" 
			},
			{
				"x": -3.8146832723,
				"y": 2.1434699453,
				"z": 0.4987118651,
				"element": "C" 
			},
			{
				"x": -3.2887636153,
				"y": 3.402781866,
				"z": 0.8443416024,
				"element": "C" 
			},
			{
				"x": -1.9151183299,
				"y": 3.6307579294,
				"z": 0.8844007162,
				"element": "C" 
			},
			{
				"x": 1.933035211,
				"y": -1.3513523833,
				"z": -1.8429410318,
				"element": "C" 
			},
			{
				"x": 1.7864277544,
				"y": -2.6812414504,
				"z": -2.2202814269,
				"element": "C" 
			},
			{
				"x": 1.2859496217,
				"y": -5.22108528,
				"z": -2.5513202238,
				"element": "H" 
			},
			{
				"x": 1.3047390263,
				"y": -5.6799715825,
				"z": -0.9269281992,
				"element": "H" 
			},
			{
				"x": 1.7778759882,
				"y": -4.1125707931,
				"z": 0.8723571681,
				"element": "H" 
			},
			{
				"x": 2.0351347712,
				"y": -1.7470284662,
				"z": 1.5314876591,
				"element": "H" 
			},
			{
				"x": -0.4911613671,
				"y": -0.4666525529,
				"z": -0.2943027205,
				"element": "H" 
			},
			{
				"x": -3.3900786951,
				"y": 0.0992367073,
				"z": -0.0849287461,
				"element": "H" 
			},
			{
				"x": -4.8914741352,
				"y": 2.0033965148,
				"z": 0.4782484787,
				"element": "H" 
			},
			{
				"x": -3.9719595475,
				"y": 4.2122406746,
				"z": 1.0845243297,
				"element": "H" 
			},
			{
				"x": -1.5046981733,
				"y": 4.5994804199,
				"z": 1.1502319048,
				"element": "H" 
			},
			{
				"x": 1.9857618553,
				"y": -0.578641728,
				"z": -2.603577374,
				"element": "H" 
			},
			{
				"x": 1.7290643776,
				"y": -2.940939115,
				"z": -3.2742590509,
				"element": "H" 
			}
		],
		 "valence_orbital": [ 
			{
				"type": "occ",
				"energy": -0.2646,
				"method": "rhf"
			},
			{
				"type": "occ",
				"energy": -0.26386,
				"method": "rhf"
			},
			{
				"type": "occ",
				"energy": -0.22386,
				"method": "rhf"
			},
			{
				"type": "occ",
				"energy": -0.21849,
				"method": "rhf"
			},
			{
				"type": "occ",
				"energy": -0.20041,
				"method": "rhf"
			},
			{
				"type": "unocc",
				"energy": -0.01955,
				"method": "rhf"
			},
			{
				"type": "unocc",
				"energy": -0.01855,
				"method": "rhf"
			},
			{
				"type": "unocc",
				"energy": -0.00237,
				"method": "rhf"
			},
			{
				"type": "unocc",
				"energy": 0.03074,
				"method": "rhf"
			},
			{
				"type": "unocc",
				"energy": 0.03991,
				"method": "rhf"
			}
		],
		"cosmo_sigma_profile": { 
			"-0.025": 0.0,
			"-0.024": 0.0,
			"-0.023": 0.0,
			"-0.022": 0.0,
			"-0.021": 0.0,
			"-0.02": 0.0,
			"-0.019": 0.0,
			"-0.018": 0.0,
			"-0.017": 0.0,
			"-0.016": 0.0,
			"-0.015": 0.289971514007,
			"-0.014": 0.841768301758,
			"-0.013": 2.59418530262,
			"-0.012": 4.0858047864,
			"-0.011": 3.01375321458,
			"-0.01": 4.79580177484,
			"-0.009": 4.07271415986,
			"-0.008": 3.89315327709,
			"-0.007": 6.84138669095,
			"-0.006": 13.767494271,
			"-0.005": 16.2417174794,
			"-0.004": 17.3285950663,
			"-0.003": 15.8683414087,
			"-0.002": 15.407363241,
			"-0.001": 15.5130391449,
			"0.0": 14.5195293816,
			"0.001": 18.4699725774,
			"0.002": 18.8764286313,
			"0.003": 20.2699577552,
			"0.004": 21.7785580714,
			"0.005": 22.3225563808,
			"0.006": 14.1327647113,
			"0.007": 5.71858706094,
			"0.008": 2.99085578631,
			"0.009": 2.35601190929,
			"0.01": 0.841441234983,
			"0.011": 1.99730884413,
			"0.012": 2.3059336991,
			"0.013": 1.6257678102,
			"0.014": 0.804102321082,
			"0.015": 0.575713753391,
			"0.016": 1.21620276652,
			"0.017": 0.700618191621,
			"0.018": 0.0634724559584,
			"0.019": 0.0,
			"0.02": 0.0,
			"0.021": 0.0,
			"0.022": 0.0,
			"0.023": 0.0,
			"0.024": 0.0,
			"0.025": 0.0
		}
	}
}
