{
	 "smiles": "CC1=NN(CCO)C(N)=C1", 
	 "Tm": 323.15, 
	 "num_atms": 21, 
	 "gaussian": { 
		 "optdone": 1, 
		 "sigma_profile": "yes", 
		 "theory": "DFT", 
		 "functional": "B3LYP", 
		 "basiset": "6-31G**", 
		 "properties": { 
			 "R2extent": 1645.5578, 
			 "electric_dipole_moment_norm": 4.55415836681, 
			 "electric_quadrupole_moment_norm": 8.63308494166, 
			 "total_energy": -474.726921952, 
			 "HOMO_LUMO_gap": 0.24394, 
			 "cosmo_polarized_energy": -13.02, 
			 "cosmo_cavitation_energy": 23.83, 
			 "cosmo_dispersion_energy": -17.78, 
			 "cosmo_repulsion_energy": 1.49, 
			 "cosmo_total_nonelectrostatic_energy": 7.53, 
			 "SMD_solvation_energy": 3.48 
		},
		"coords": [
			{
				"x": -2.6964127344,
				"y": 0.8532376597,
				"z": 0.0110736201,
				"element": "C" 
			},
			{
				"x": -1.4327907712,
				"y": 0.0934010375,
				"z": -0.2550635178,
				"element": "C" 
			},
			{
				"x": -0.2493534071,
				"y": 0.6991349653,
				"z": -0.1654496485,
				"element": "N" 
			},
			{
				"x": 0.6782006711,
				"y": -0.2652895499,
				"z": -0.4494242605,
				"element": "N" 
			},
			{
				"x": 2.1020530268,
				"y": 0.0453175014,
				"z": -0.4057772175,
				"element": "C" 
			},
			{
				"x": 2.4408657684,
				"y": 0.9984395707,
				"z": 0.7471630229,
				"element": "C" 
			},
			{
				"x": 1.9222306217,
				"y": 2.2929866803,
				"z": 0.5529482991,
				"element": "O" 
			},
			{
				"x": 0.085758403,
				"y": -1.4535494852,
				"z": -0.7497588035,
				"element": "C" 
			},
			{
				"x": 0.8511570301,
				"y": -2.5916417735,
				"z": -1.0325011833,
				"element": "N" 
			},
			{
				"x": -1.2831392,
				"y": -1.2630614383,
				"z": -0.6276419473,
				"element": "C" 
			},
			{
				"x": -3.2503101776,
				"y": 0.4240005974,
				"z": 0.8535173159,
				"element": "H" 
			},
			{
				"x": -3.3629083662,
				"y": 0.8391058064,
				"z": -0.8584946801,
				"element": "H" 
			},
			{
				"x": -2.4630926654,
				"y": 1.8938080943,
				"z": 0.2478709973,
				"element": "H" 
			},
			{
				"x": 2.6317588286,
				"y": -0.9048093407,
				"z": -0.2828800556,
				"element": "H" 
			},
			{
				"x": 2.4167116551,
				"y": 0.5056669214,
				"z": -1.3515481695,
				"element": "H" 
			},
			{
				"x": 3.531760702,
				"y": 1.0889293512,
				"z": 0.8043621849,
				"element": "H" 
			},
			{
				"x": 2.0953205664,
				"y": 0.5448583663,
				"z": 1.6909697091,
				"element": "H" 
			},
			{
				"x": 0.9660627141,
				"y": 2.1608397578,
				"z": 0.408719754,
				"element": "H" 
			},
			{
				"x": 0.2667613117,
				"y": -3.4086363843,
				"z": -1.1584825724,
				"element": "H" 
			},
			{
				"x": 1.4544684843,
				"y": -2.4835635106,
				"z": -1.8417575484,
				"element": "H" 
			},
			{
				"x": -2.0587024614,
				"y": -1.9954748273,
				"z": -0.798445299,
				"element": "H" 
			}
		],
		 "valence_orbital": [ 
			{
				"type": "occ",
				"energy": -0.31431,
				"method": "rhf"
			},
			{
				"type": "occ",
				"energy": -0.27818,
				"method": "rhf"
			},
			{
				"type": "occ",
				"energy": -0.24943,
				"method": "rhf"
			},
			{
				"type": "occ",
				"energy": -0.23279,
				"method": "rhf"
			},
			{
				"type": "occ",
				"energy": -0.21481,
				"method": "rhf"
			},
			{
				"type": "unocc",
				"energy": 0.02913,
				"method": "rhf"
			},
			{
				"type": "unocc",
				"energy": 0.06582,
				"method": "rhf"
			},
			{
				"type": "unocc",
				"energy": 0.07454,
				"method": "rhf"
			},
			{
				"type": "unocc",
				"energy": 0.11281,
				"method": "rhf"
			},
			{
				"type": "unocc",
				"energy": 0.11578,
				"method": "rhf"
			}
		],
		"cosmo_sigma_profile": { 
			"-0.025": 0.0,
			"-0.024": 0.0,
			"-0.023": 0.0,
			"-0.022": 0.0,
			"-0.021": 0.0,
			"-0.02": 0.0,
			"-0.019": 0.0,
			"-0.018": 0.0,
			"-0.017": 0.0,
			"-0.016": 0.0,
			"-0.015": 0.0,
			"-0.014": 0.0,
			"-0.013": 1.37346750131,
			"-0.012": 3.28310025253,
			"-0.011": 2.58290548938,
			"-0.01": 3.03236737359,
			"-0.009": 3.07013970765,
			"-0.008": 2.93539086537,
			"-0.007": 2.07206701203,
			"-0.006": 5.67053023893,
			"-0.005": 11.1031937899,
			"-0.004": 16.8485594843,
			"-0.003": 17.8697323518,
			"-0.002": 13.2437898488,
			"-0.001": 14.2440999263,
			"0.0": 14.6701086013,
			"0.001": 9.74433585637,
			"0.002": 7.61384437657,
			"0.003": 7.02029854678,
			"0.004": 7.99645393666,
			"0.005": 8.69989702232,
			"0.006": 9.00746675517,
			"0.007": 5.61191569164,
			"0.008": 3.18337090319,
			"0.009": 2.75683421628,
			"0.01": 1.92800533536,
			"0.011": 1.6568663852,
			"0.012": 2.67634185402,
			"0.013": 1.78620236542,
			"0.014": 2.43607551137,
			"0.015": 2.4736893041,
			"0.016": 0.154390450208,
			"0.017": 0.0,
			"0.018": 0.0,
			"0.019": 0.0,
			"0.02": 0.0,
			"0.021": 0.0,
			"0.022": 0.0,
			"0.023": 0.0,
			"0.024": 0.0,
			"0.025": 0.0
		}
	}
}
