{
	 "smiles": "ClC1=CC(Cl)=CC(Cl)=C1", 
	 "Tm": 337.35, 
	 "num_atms": 12, 
	 "gaussian": { 
		 "optdone": 1, 
		 "sigma_profile": "yes", 
		 "theory": "DFT", 
		 "functional": "B3LYP", 
		 "basiset": "6-31G**", 
		 "properties": { 
			 "R2extent": 2871.7372, 
			 "electric_dipole_moment_norm": 0.0, 
			 "electric_quadrupole_moment_norm": 0.918231773574, 
			 "total_energy": -1611.02224273, 
			 "HOMO_LUMO_gap": 0.22724, 
			 "cosmo_polarized_energy": -3.3, 
			 "cosmo_cavitation_energy": 22.05, 
			 "cosmo_dispersion_energy": -16.81, 
			 "cosmo_repulsion_energy": 1.39, 
			 "cosmo_total_nonelectrostatic_energy": 6.63, 
			 "SMD_solvation_energy": 2.96 
		},
		"coords": [
			{
				"x": -3.1662146981,
				"y": 2.7275343803,
				"z": 0.571299913,
				"element": "Cl" 
			},
			{
				"x": -1.7738489163,
				"y": 1.8249391001,
				"z": 0.0082532544,
				"element": "C" 
			},
			{
				"x": -0.4965319621,
				"y": 2.2816071297,
				"z": 0.331161611,
				"element": "C" 
			},
			{
				"x": 0.5965077542,
				"y": 1.5473668045,
				"z": -0.1276450105,
				"element": "C" 
			},
			{
				"x": 2.2136638338,
				"y": 2.0975293426,
				"z": 0.2628635907,
				"element": "Cl" 
			},
			{
				"x": 0.4418176919,
				"y": 0.3886410844,
				"z": -0.8877613295,
				"element": "C" 
			},
			{
				"x": -0.8542565124,
				"y": -0.0301810788,
				"z": -1.1862960254,
				"element": "C" 
			},
			{
				"x": -1.0790340876,
				"y": -1.482934179,
				"z": -2.1399036925,
				"element": "Cl" 
			},
			{
				"x": -1.9768917489,
				"y": 0.6718776207,
				"z": -0.7490908942,
				"element": "C" 
			},
			{
				"x": -0.3576692144,
				"y": 3.1790385387,
				"z": 0.9202179866,
				"element": "H" 
			},
			{
				"x": 1.3019325696,
				"y": -0.1689241849,
				"z": -1.2355841237,
				"element": "H" 
			},
			{
				"x": -2.9758747098,
				"y": 0.3320054417,
				"z": -0.99031528,
				"element": "H" 
			}
		],
		 "valence_orbital": [ 
			{
				"type": "occ",
				"energy": -0.33485,
				"method": "rhf"
			},
			{
				"type": "occ",
				"energy": -0.32314,
				"method": "rhf"
			},
			{
				"type": "occ",
				"energy": -0.31885,
				"method": "rhf"
			},
			{
				"type": "occ",
				"energy": -0.26624,
				"method": "rhf"
			},
			{
				"type": "occ",
				"energy": -0.26624,
				"method": "rhf"
			},
			{
				"type": "unocc",
				"energy": -0.039,
				"method": "rhf"
			},
			{
				"type": "unocc",
				"energy": -0.039,
				"method": "rhf"
			},
			{
				"type": "unocc",
				"energy": -0.01893,
				"method": "rhf"
			},
			{
				"type": "unocc",
				"energy": 0.03893,
				"method": "rhf"
			},
			{
				"type": "unocc",
				"energy": 0.03893,
				"method": "rhf"
			}
		],
		"cosmo_sigma_profile": { 
			"-0.025": 0.0,
			"-0.024": 0.0,
			"-0.023": 0.0,
			"-0.022": 0.0,
			"-0.021": 0.0,
			"-0.02": 0.0,
			"-0.019": 0.0,
			"-0.018": 0.0,
			"-0.017": 0.0,
			"-0.016": 0.0,
			"-0.015": 0.0,
			"-0.014": 0.0,
			"-0.013": 0.0,
			"-0.012": 0.0,
			"-0.011": 0.0,
			"-0.01": 0.0,
			"-0.009": 2.32917669686,
			"-0.008": 4.48437069812,
			"-0.007": 3.84208183851,
			"-0.006": 5.14237909627,
			"-0.005": 4.8744124975,
			"-0.004": 5.79233465645,
			"-0.003": 8.12771696975,
			"-0.002": 11.9694022433,
			"-0.001": 17.5297000818,
			"0.0": 33.1681821189,
			"0.001": 22.9574600655,
			"0.002": 17.7375854799,
			"0.003": 22.4984707628,
			"0.004": 23.5283269987,
			"0.005": 0.855814865744,
			"0.006": 0.0,
			"0.007": 0.0,
			"0.008": 0.0,
			"0.009": 0.0,
			"0.01": 0.0,
			"0.011": 0.0,
			"0.012": 0.0,
			"0.013": 0.0,
			"0.014": 0.0,
			"0.015": 0.0,
			"0.016": 0.0,
			"0.017": 0.0,
			"0.018": 0.0,
			"0.019": 0.0,
			"0.02": 0.0,
			"0.021": 0.0,
			"0.022": 0.0,
			"0.023": 0.0,
			"0.024": 0.0,
			"0.025": 0.0
		}
	}
}
