{
	 "smiles": "CC1=CC2=C(C=C1)N=C(S2)C1=CC=C(C=C1)N1C(=O)C=CC1=O", 
	 "Tm": 533.15, 
	 "num_atms": 35, 
	 "gaussian": { 
		 "optdone": 1, 
		 "sigma_profile": "yes", 
		 "theory": "DFT", 
		 "functional": "B3LYP", 
		 "basiset": "6-31G**", 
		 "properties": { 
			 "R2extent": 12810.6021, 
			 "electric_dipole_moment_norm": 1.2825157192, 
			 "electric_quadrupole_moment_norm": 32.6671582691, 
			 "total_energy": -1351.30769106, 
			 "HOMO_LUMO_gap": 0.10943, 
			 "cosmo_polarized_energy": -13.98, 
			 "cosmo_cavitation_energy": 42.09, 
			 "cosmo_dispersion_energy": -31.13, 
			 "cosmo_repulsion_energy": 2.26, 
			 "cosmo_total_nonelectrostatic_energy": 13.21, 
			 "SMD_solvation_energy": 6.65 
		},
		"coords": [
			{
				"x": -4.2181755748,
				"y": -1.6657158574,
				"z": 5.9638725414,
				"element": "C" 
			},
			{
				"x": -3.2285199738,
				"y": -1.5823663622,
				"z": 4.8253733599,
				"element": "C" 
			},
			{
				"x": -2.9689507425,
				"y": -0.3656685445,
				"z": 4.1918660143,
				"element": "C" 
			},
			{
				"x": -2.0464520194,
				"y": -0.3289451408,
				"z": 3.1432800993,
				"element": "C" 
			},
			{
				"x": -1.3704337921,
				"y": -1.4937214093,
				"z": 2.7092265376,
				"element": "C" 
			},
			{
				"x": -1.6361151359,
				"y": -2.7145471774,
				"z": 3.3505438893,
				"element": "C" 
			},
			{
				"x": -2.5524917663,
				"y": -2.74510979,
				"z": 4.3904991165,
				"element": "C" 
			},
			{
				"x": -0.4868841168,
				"y": -1.3142327764,
				"z": 1.6639748422,
				"element": "N" 
			},
			{
				"x": -0.4468683488,
				"y": -0.0763711757,
				"z": 1.2711466569,
				"element": "C" 
			},
			{
				"x": -1.5245914884,
				"y": 1.0323312137,
				"z": 2.1750641025,
				"element": "S" 
			},
			{
				"x": 0.4039385543,
				"y": 0.4071395452,
				"z": 0.1776807164,
				"element": "C" 
			},
			{
				"x": 0.4116626785,
				"y": 1.748978126,
				"z": -0.2321127857,
				"element": "C" 
			},
			{
				"x": 1.2250085006,
				"y": 2.1763130745,
				"z": -1.2759283075,
				"element": "C" 
			},
			{
				"x": 2.0633477384,
				"y": 1.2608107218,
				"z": -1.9242602779,
				"element": "C" 
			},
			{
				"x": 2.0720512012,
				"y": -0.0826799143,
				"z": -1.5222671014,
				"element": "C" 
			},
			{
				"x": 1.2454405785,
				"y": -0.5011843062,
				"z": -0.4881743071,
				"element": "C" 
			},
			{
				"x": 2.9058944698,
				"y": 1.6941924678,
				"z": -2.9884897199,
				"element": "N" 
			},
			{
				"x": 3.2226126646,
				"y": 0.9362012664,
				"z": -4.1398967424,
				"element": "C" 
			},
			{
				"x": 2.8318748307,
				"y": -0.1815528426,
				"z": -4.3970804835,
				"element": "O" 
			},
			{
				"x": 4.1318399713,
				"y": 1.7916313716,
				"z": -4.9692177291,
				"element": "C" 
			},
			{
				"x": 4.3269253009,
				"y": 2.9531996172,
				"z": -4.3415914504,
				"element": "C" 
			},
			{
				"x": 3.5559314761,
				"y": 2.9482352627,
				"z": -3.0564494548,
				"element": "C" 
			},
			{
				"x": 3.4952996623,
				"y": 3.8371329744,
				"z": -2.2349305685,
				"element": "O" 
			},
			{
				"x": -3.7411936173,
				"y": -2.0338571268,
				"z": 6.8797089811,
				"element": "H" 
			},
			{
				"x": -5.0371249974,
				"y": -2.3557309317,
				"z": 5.7295209009,
				"element": "H" 
			},
			{
				"x": -4.6575169128,
				"y": -0.6895022826,
				"z": 6.1858091813,
				"element": "H" 
			},
			{
				"x": -3.4803788731,
				"y": 0.5363660368,
				"z": 4.5145803353,
				"element": "H" 
			},
			{
				"x": -1.1204488578,
				"y": -3.6105854135,
				"z": 3.0209719495,
				"element": "H" 
			},
			{
				"x": -2.7604556042,
				"y": -3.688406819,
				"z": 4.8890557078,
				"element": "H" 
			},
			{
				"x": -0.2280715155,
				"y": 2.4759082949,
				"z": 0.2596526335,
				"element": "H" 
			},
			{
				"x": 1.2215498073,
				"y": 3.2158121493,
				"z": -1.5755601017,
				"element": "H" 
			},
			{
				"x": 2.7113156334,
				"y": -0.7948992642,
				"z": -2.0271624707,
				"element": "H" 
			},
			{
				"x": 1.2430999226,
				"y": -1.5383860054,
				"z": -0.1732203596,
				"element": "H" 
			},
			{
				"x": 4.522739712,
				"y": 1.4438887135,
				"z": -5.9162298315,
				"element": "H" 
			},
			{
				"x": 4.9226406343,
				"y": 3.8066223042,
				"z": -4.637155874,
				"element": "H" 
			}
		],
		 "valence_orbital": [ 
			{
				"type": "occ",
				"energy": -0.27335,
				"method": "rhf"
			},
			{
				"type": "occ",
				"energy": -0.26066,
				"method": "rhf"
			},
			{
				"type": "occ",
				"energy": -0.258,
				"method": "rhf"
			},
			{
				"type": "occ",
				"energy": -0.23252,
				"method": "rhf"
			},
			{
				"type": "occ",
				"energy": -0.21459,
				"method": "rhf"
			},
			{
				"type": "unocc",
				"energy": -0.10516,
				"method": "rhf"
			},
			{
				"type": "unocc",
				"energy": -0.05967,
				"method": "rhf"
			},
			{
				"type": "unocc",
				"energy": -0.01064,
				"method": "rhf"
			},
			{
				"type": "unocc",
				"energy": -0.00365,
				"method": "rhf"
			},
			{
				"type": "unocc",
				"energy": 0.00577,
				"method": "rhf"
			}
		],
		"cosmo_sigma_profile": { 
			"-0.025": 0.0,
			"-0.024": 0.0,
			"-0.023": 0.0,
			"-0.022": 0.0,
			"-0.021": 0.0,
			"-0.02": 0.0,
			"-0.019": 0.0,
			"-0.018": 0.0,
			"-0.017": 0.0,
			"-0.016": 0.0,
			"-0.015": 0.0,
			"-0.014": 0.0,
			"-0.013": 0.0,
			"-0.012": 0.0,
			"-0.011": 0.093632239274,
			"-0.01": 3.05712774882,
			"-0.009": 2.98979378394,
			"-0.008": 3.68305965848,
			"-0.007": 8.05545143479,
			"-0.006": 18.496698001,
			"-0.005": 23.8740850894,
			"-0.004": 27.2927997027,
			"-0.003": 25.2010292706,
			"-0.002": 25.0132783455,
			"-0.001": 24.3133276412,
			"0.0": 27.0861312811,
			"0.001": 25.2856613472,
			"0.002": 27.4637631151,
			"0.003": 31.144980299,
			"0.004": 22.9835365532,
			"0.005": 9.77103880984,
			"0.006": 4.71726342332,
			"0.007": 5.13192666565,
			"0.008": 5.34981087934,
			"0.009": 5.72714726837,
			"0.01": 9.30798921046,
			"0.011": 5.5259149608,
			"0.012": 0.413771653018,
			"0.013": 0.0,
			"0.014": 0.0,
			"0.015": 0.0,
			"0.016": 0.0,
			"0.017": 0.0,
			"0.018": 0.0,
			"0.019": 0.0,
			"0.02": 0.0,
			"0.021": 0.0,
			"0.022": 0.0,
			"0.023": 0.0,
			"0.024": 0.0,
			"0.025": 0.0
		}
	}
}
