{
	 "smiles": "NS(=O)(=O)C1=CC=C(C=C1)C(=O)CBr", 
	 "Tm": 423.15, 
	 "num_atms": 22, 
	 "gaussian": { 
		 "optdone": 1, 
		 "sigma_profile": "yes", 
		 "theory": "DFT", 
		 "functional": "B3LYP", 
		 "basiset": "6-31G**", 
		 "properties": { 
			 "R2extent": 8029.8629, 
			 "electric_dipole_moment_norm": 4.06819143478, 
			 "electric_quadrupole_moment_norm": 30.6148784817, 
			 "total_energy": -3559.60921259, 
			 "HOMO_LUMO_gap": 0.18837, 
			 "cosmo_polarized_energy": -25.67, 
			 "cosmo_cavitation_energy": 30.72, 
			 "cosmo_dispersion_energy": -23.32, 
			 "cosmo_repulsion_energy": 1.79, 
			 "cosmo_total_nonelectrostatic_energy": 9.2, 
			 "SMD_solvation_energy": 4.23 
		},
		"coords": [
			{
				"x": 1.4597940589,
				"y": 1.4225973859,
				"z": 2.8680200873,
				"element": "N" 
			},
			{
				"x": 0.39256802,
				"y": 2.1646298276,
				"z": 1.8097372905,
				"element": "S" 
			},
			{
				"x": -0.8362481209,
				"y": 2.3801745932,
				"z": 2.569826689,
				"element": "O" 
			},
			{
				"x": 1.1466669966,
				"y": 3.2435072747,
				"z": 1.1769842015,
				"element": "O" 
			},
			{
				"x": 0.0157907748,
				"y": 0.9548649825,
				"z": 0.5248804718,
				"element": "C" 
			},
			{
				"x": 0.8438428777,
				"y": 0.8641638368,
				"z": -0.5982936251,
				"element": "C" 
			},
			{
				"x": 0.5611503409,
				"y": -0.0871688589,
				"z": -1.5718899724,
				"element": "C" 
			},
			{
				"x": -0.5453738675,
				"y": -0.9414635105,
				"z": -1.4368274817,
				"element": "C" 
			},
			{
				"x": -1.3739132769,
				"y": -0.8221555699,
				"z": -0.3103037139,
				"element": "C" 
			},
			{
				"x": -1.097012029,
				"y": 0.1259162874,
				"z": 0.6735632816,
				"element": "C" 
			},
			{
				"x": -0.78090692,
				"y": -1.9440176957,
				"z": -2.5346487664,
				"element": "C" 
			},
			{
				"x": -0.0205810533,
				"y": -2.0255958535,
				"z": -3.4777875961,
				"element": "O" 
			},
			{
				"x": -2.0145148215,
				"y": -2.8366628219,
				"z": -2.3939466203,
				"element": "C" 
			},
			{
				"x": -2.2200276382,
				"y": -4.1071168411,
				"z": -3.8574068693,
				"element": "Br" 
			},
			{
				"x": 2.3657305122,
				"y": 1.2196607269,
				"z": 2.4591827975,
				"element": "H" 
			},
			{
				"x": 1.0544804988,
				"y": 0.6466732598,
				"z": 3.3805399798,
				"element": "H" 
			},
			{
				"x": 1.6792599622,
				"y": 1.5471599445,
				"z": -0.7104372261,
				"element": "H" 
			},
			{
				"x": 1.1808280226,
				"y": -0.1847015212,
				"z": -2.4565861266,
				"element": "H" 
			},
			{
				"x": -2.244299885,
				"y": -1.4584628221,
				"z": -0.189718963,
				"element": "H" 
			},
			{
				"x": -1.7440748486,
				"y": 0.242144649,
				"z": 1.5361790488,
				"element": "H" 
			},
			{
				"x": -1.9627839928,
				"y": -3.4188798761,
				"z": -1.4717542454,
				"element": "H" 
			},
			{
				"x": -2.9219756109,
				"y": -2.2297673973,
				"z": -2.3671126415,
				"element": "H" 
			}
		],
		 "valence_orbital": [ 
			{
				"type": "occ",
				"energy": -0.29344,
				"method": "rhf"
			},
			{
				"type": "occ",
				"energy": -0.28811,
				"method": "rhf"
			},
			{
				"type": "occ",
				"energy": -0.28455,
				"method": "rhf"
			},
			{
				"type": "occ",
				"energy": -0.28178,
				"method": "rhf"
			},
			{
				"type": "occ",
				"energy": -0.28094,
				"method": "rhf"
			},
			{
				"type": "unocc",
				"energy": -0.09257,
				"method": "rhf"
			},
			{
				"type": "unocc",
				"energy": -0.04267,
				"method": "rhf"
			},
			{
				"type": "unocc",
				"energy": -0.01058,
				"method": "rhf"
			},
			{
				"type": "unocc",
				"energy": -0.00553,
				"method": "rhf"
			},
			{
				"type": "unocc",
				"energy": 0.03945,
				"method": "rhf"
			}
		],
		"cosmo_sigma_profile": { 
			"-0.025": 0.0,
			"-0.024": 0.0,
			"-0.023": 0.0,
			"-0.022": 0.0,
			"-0.021": 0.0,
			"-0.02": 0.0,
			"-0.019": 0.0,
			"-0.018": 0.0,
			"-0.017": 0.0,
			"-0.016": 0.587207039694,
			"-0.015": 2.79390834348,
			"-0.014": 2.49737679355,
			"-0.013": 2.90212562456,
			"-0.012": 3.15890781994,
			"-0.011": 2.87640842126,
			"-0.01": 7.49041248072,
			"-0.009": 9.8162174584,
			"-0.008": 8.88028654334,
			"-0.007": 11.4057650869,
			"-0.006": 10.4758737763,
			"-0.005": 8.46669002673,
			"-0.004": 8.30510807669,
			"-0.003": 10.4661329643,
			"-0.002": 10.4878480923,
			"-0.001": 11.9186077929,
			"0.0": 16.784400242,
			"0.001": 19.486874675,
			"0.002": 9.45288987195,
			"0.003": 8.68099073394,
			"0.004": 8.71562367907,
			"0.005": 12.3306299972,
			"0.006": 10.1530304804,
			"0.007": 7.27161559217,
			"0.008": 7.1821266861,
			"0.009": 6.2716191967,
			"0.01": 12.6798950706,
			"0.011": 13.0327261613,
			"0.012": 4.20470771508,
			"0.013": 0.145982784519,
			"0.014": 0.0,
			"0.015": 0.0,
			"0.016": 0.0,
			"0.017": 0.0,
			"0.018": 0.0,
			"0.019": 0.0,
			"0.02": 0.0,
			"0.021": 0.0,
			"0.022": 0.0,
			"0.023": 0.0,
			"0.024": 0.0,
			"0.025": 0.0
		}
	}
}
