{
	 "smiles": "ICC1=CC=CC=C1", 
	 "Tm": 297.65, 
	 "num_atms": 15, 
	 "gaussian": { 
		 "optdone": 1, 
		 "sigma_profile": "no", 
		 "theory": "DFT", 
		 "functional": "B3LYP", 
		 "basiset": "6-31G**", 
		 "properties": { 
			 "R2extent": 1360.518, 
			 "electric_dipole_moment_norm": 2.53300042242, 
			 "electric_quadrupole_moment_norm": 8.51922311012, 
			 "total_energy": -282.358994645, 
			 "HOMO_LUMO_gap": 0.18295, 
			 "cosmo_polarized_energy": -102031.03, 
			 "cosmo_cavitation_energy": 21.84, 
			 "cosmo_dispersion_energy": -17.32, 
			 "cosmo_repulsion_energy": 1.41, 
			 "cosmo_total_nonelectrostatic_energy": 5.93, 
			 "SMD_solvation_energy": 2.75 
		},
		"coords": [
			{
				"x": -0.4409364416,
				"y": 2.2271679307,
				"z": -3.1368063808,
				"element": "I" 
			},
			{
				"x": -1.0497302897,
				"y": 0.5545444995,
				"z": -1.7935576587,
				"element": "C" 
			},
			{
				"x": 0.1000496742,
				"y": -0.1118409245,
				"z": -1.1216935333,
				"element": "C" 
			},
			{
				"x": 0.550731833,
				"y": 0.3336480027,
				"z": 0.1300331207,
				"element": "C" 
			},
			{
				"x": 1.6094062658,
				"y": -0.306548655,
				"z": 0.771588583,
				"element": "C" 
			},
			{
				"x": 2.2349103732,
				"y": -1.4004887942,
				"z": 0.1688970546,
				"element": "C" 
			},
			{
				"x": 1.7943874837,
				"y": -1.8518599342,
				"z": -1.0774817502,
				"element": "C" 
			},
			{
				"x": 0.7356256688,
				"y": -1.2111568053,
				"z": -1.7183353913,
				"element": "C" 
			},
			{
				"x": -1.5978972237,
				"y": -0.1052356086,
				"z": -2.4625926761,
				"element": "H" 
			},
			{
				"x": -1.7320478829,
				"y": 1.0388524446,
				"z": -1.0983475152,
				"element": "H" 
			},
			{
				"x": 0.0684111811,
				"y": 1.1873400891,
				"z": 0.5992936344,
				"element": "H" 
			},
			{
				"x": 1.9457516167,
				"y": 0.046977726,
				"z": 1.7418831174,
				"element": "H" 
			},
			{
				"x": 3.0601053502,
				"y": -1.8995089323,
				"z": 0.668489896,
				"element": "H" 
			},
			{
				"x": 2.2750811523,
				"y": -2.7037317017,
				"z": -1.5495326484,
				"element": "H" 
			},
			{
				"x": 0.3975512392,
				"y": -1.5617593367,
				"z": -2.6901378522,
				"element": "H" 
			}
		],
		 "valence_orbital": [ 
			{
				"type": "occ",
				"energy": -0.34447,
				"method": "rhf"
			},
			{
				"type": "occ",
				"energy": -0.26176,
				"method": "rhf"
			},
			{
				"type": "occ",
				"energy": -0.26042,
				"method": "rhf"
			},
			{
				"type": "occ",
				"energy": -0.25276,
				"method": "rhf"
			},
			{
				"type": "occ",
				"energy": -0.24526,
				"method": "rhf"
			},
			{
				"type": "unocc",
				"energy": -0.06231,
				"method": "rhf"
			},
			{
				"type": "unocc",
				"energy": -0.01038,
				"method": "rhf"
			},
			{
				"type": "unocc",
				"energy": 0.00398,
				"method": "rhf"
			},
			{
				"type": "unocc",
				"energy": 0.04427,
				"method": "rhf"
			},
			{
				"type": "unocc",
				"energy": 0.05156,
				"method": "rhf"
			}
		],
		"cosmo_sigma_profile": { 
			"0.0": 0.0,
			"0.0": 0.0,
			"0.0": 0.0,
			"0.0": 0.0,
			"0.0": 0.0,
			"0.0": 0.0,
			"0.0": 0.0,
			"0.0": 0.0,
			"0.0": 0.0,
			"0.0": 0.0,
			"0.0": 0.0,
			"0.0": 0.0,
			"0.0": 0.0,
			"0.0": 0.0,
			"0.0": 0.0,
			"0.0": 0.0,
			"0.0": 0.0,
			"0.0": 0.0,
			"0.0": 0.0,
			"0.0": 0.0,
			"0.0": 0.0,
			"0.0": 0.0,
			"0.0": 0.0,
			"0.0": 0.0,
			"0.0": 0.0,
			"0.0": 0.0,
			"0.0": 0.0,
			"0.0": 0.0,
			"0.0": 0.0,
			"0.0": 0.0,
			"0.0": 0.0,
			"0.0": 0.0,
			"0.0": 0.0,
			"0.0": 0.0,
			"0.0": 0.0,
			"0.0": 0.0,
			"0.0": 0.0,
			"0.0": 0.0,
			"0.0": 0.0,
			"0.0": 0.0,
			"0.0": 0.0,
			"0.0": 0.0,
			"0.0": 0.0,
			"0.0": 0.0,
			"0.0": 0.0,
			"0.0": 0.0,
			"0.0": 0.0,
			"0.0": 0.0,
			"0.0": 0.0,
			"0.0": 0.0,
			"0.0": 0.0
		}
	}
}
