{
	 "smiles": "CCCCN(C(=O)CCl)C1=C(N)N(CCC)C(=O)NC1=O", 
	 "Tm": 503.15, 
	 "num_atms": 42, 
	 "gaussian": { 
		 "optdone": 1, 
		 "sigma_profile": "yes", 
		 "theory": "DFT", 
		 "functional": "B3LYP", 
		 "basiset": "6-31G**", 
		 "properties": { 
			 "R2extent": 7877.0622, 
			 "electric_dipole_moment_norm": 3.41609540558, 
			 "electric_quadrupole_moment_norm": 11.4422971055, 
			 "total_energy": -1412.97519473, 
			 "HOMO_LUMO_gap": 0.19151, 
			 "cosmo_polarized_energy": -22.31, 
			 "cosmo_cavitation_energy": 43.97, 
			 "cosmo_dispersion_energy": -29.21, 
			 "cosmo_repulsion_energy": 2.27, 
			 "cosmo_total_nonelectrostatic_energy": 17.04, 
			 "SMD_solvation_energy": 8.65 
		},
		"coords": [
			{
				"x": -2.8526786393,
				"y": 1.751705744,
				"z": 1.4915136768,
				"element": "C" 
			},
			{
				"x": -1.7085106168,
				"y": 1.4911939454,
				"z": 2.4782690184,
				"element": "C" 
			},
			{
				"x": -0.7120233783,
				"y": 2.6548428281,
				"z": 2.6179916584,
				"element": "C" 
			},
			{
				"x": 0.0646003778,
				"y": 3.0712355217,
				"z": 1.3573875377,
				"element": "C" 
			},
			{
				"x": 1.079770448,
				"y": 2.0975837626,
				"z": 0.8937118415,
				"element": "N" 
			},
			{
				"x": 2.4458081104,
				"y": 2.2915400469,
				"z": 0.9699017408,
				"element": "C" 
			},
			{
				"x": 3.2496134342,
				"y": 1.4757622344,
				"z": 0.5326656081,
				"element": "O" 
			},
			{
				"x": 2.9879175361,
				"y": 3.5551898814,
				"z": 1.6422150137,
				"element": "C" 
			},
			{
				"x": 2.7931486188,
				"y": 3.5250699647,
				"z": 3.4501974461,
				"element": "Cl" 
			},
			{
				"x": 0.6286898627,
				"y": 1.0293704692,
				"z": 0.0549585693,
				"element": "C" 
			},
			{
				"x": 0.8257279099,
				"y": -0.2907731689,
				"z": 0.4051342136,
				"element": "C" 
			},
			{
				"x": 1.3137485405,
				"y": -0.6485786228,
				"z": 1.6366065293,
				"element": "N" 
			},
			{
				"x": 0.4727846907,
				"y": -1.3249577118,
				"z": -0.4498944015,
				"element": "N" 
			},
			{
				"x": 0.6318305128,
				"y": -2.7414966843,
				"z": -0.0643332266,
				"element": "C" 
			},
			{
				"x": 2.044101574,
				"y": -3.3097158909,
				"z": -0.2844681968,
				"element": "C" 
			},
			{
				"x": 2.5160629338,
				"y": -3.2802962023,
				"z": -1.7414033519,
				"element": "C" 
			},
			{
				"x": -0.1266053699,
				"y": -1.0803692566,
				"z": -1.6993024465,
				"element": "C" 
			},
			{
				"x": -0.467524883,
				"y": -1.9801317988,
				"z": -2.451592311,
				"element": "O" 
			},
			{
				"x": -0.3042182285,
				"y": 0.2499551325,
				"z": -1.9970474929,
				"element": "N" 
			},
			{
				"x": 0.0659151923,
				"y": 1.3697900349,
				"z": -1.2290228932,
				"element": "C" 
			},
			{
				"x": -0.119254436,
				"y": 2.5004280359,
				"z": -1.670371833,
				"element": "O" 
			},
			{
				"x": -3.4134868318,
				"y": 2.6527603138,
				"z": 1.7664743786,
				"element": "H" 
			},
			{
				"x": -2.4918850362,
				"y": 1.8888587646,
				"z": 0.4672225798,
				"element": "H" 
			},
			{
				"x": -3.5581253002,
				"y": 0.9144229124,
				"z": 1.4803526375,
				"element": "H" 
			},
			{
				"x": -1.1775228777,
				"y": 0.5740050851,
				"z": 2.2011102689,
				"element": "H" 
			},
			{
				"x": -2.1335897196,
				"y": 1.2992453396,
				"z": 3.4718782793,
				"element": "H" 
			},
			{
				"x": 0.0070257919,
				"y": 2.4320804251,
				"z": 3.4143767513,
				"element": "H" 
			},
			{
				"x": -1.2638705458,
				"y": 3.5466310011,
				"z": 2.9474826707,
				"element": "H" 
			},
			{
				"x": 0.5673197396,
				"y": 4.0158035479,
				"z": 1.5642809579,
				"element": "H" 
			},
			{
				"x": -0.6032621981,
				"y": 3.2595283132,
				"z": 0.5139419037,
				"element": "H" 
			},
			{
				"x": 2.5264630146,
				"y": 4.4757534073,
				"z": 1.284791923,
				"element": "H" 
			},
			{
				"x": 4.05705012,
				"y": 3.5707686405,
				"z": 1.4450851389,
				"element": "H" 
			},
			{
				"x": 1.8809028376,
				"y": -1.4822984722,
				"z": 1.6797634133,
				"element": "H" 
			},
			{
				"x": 1.7239187126,
				"y": 0.1226506068,
				"z": 2.14397144,
				"element": "H" 
			},
			{
				"x": -0.0818165826,
				"y": -3.2910743712,
				"z": -0.6782060493,
				"element": "H" 
			},
			{
				"x": 0.3252863219,
				"y": -2.8395100137,
				"z": 0.9811173654,
				"element": "H" 
			},
			{
				"x": 2.0246052859,
				"y": -4.3442486579,
				"z": 0.0816026921,
				"element": "H" 
			},
			{
				"x": 2.7781274444,
				"y": -2.7826793126,
				"z": 0.3410601706,
				"element": "H" 
			},
			{
				"x": 1.8107962319,
				"y": -3.798823568,
				"z": -2.3966570685,
				"element": "H" 
			},
			{
				"x": 2.6144595714,
				"y": -2.2540516749,
				"z": -2.1072190262,
				"element": "H" 
			},
			{
				"x": 3.4949090868,
				"y": -3.7601209743,
				"z": -1.8360080685,
				"element": "H" 
			},
			{
				"x": -0.7119092569,
				"y": 0.4441504224,
				"z": -2.9031390591,
				"element": "H" 
			}
		],
		 "valence_orbital": [ 
			{
				"type": "occ",
				"energy": -0.2812,
				"method": "rhf"
			},
			{
				"type": "occ",
				"energy": -0.27036,
				"method": "rhf"
			},
			{
				"type": "occ",
				"energy": -0.26211,
				"method": "rhf"
			},
			{
				"type": "occ",
				"energy": -0.25432,
				"method": "rhf"
			},
			{
				"type": "occ",
				"energy": -0.22076,
				"method": "rhf"
			},
			{
				"type": "unocc",
				"energy": -0.02925,
				"method": "rhf"
			},
			{
				"type": "unocc",
				"energy": -0.02062,
				"method": "rhf"
			},
			{
				"type": "unocc",
				"energy": 0.01257,
				"method": "rhf"
			},
			{
				"type": "unocc",
				"energy": 0.04537,
				"method": "rhf"
			},
			{
				"type": "unocc",
				"energy": 0.05396,
				"method": "rhf"
			}
		],
		"cosmo_sigma_profile": { 
			"-0.025": 0.0,
			"-0.024": 0.0,
			"-0.023": 0.0,
			"-0.022": 0.0,
			"-0.021": 0.0,
			"-0.02": 0.0,
			"-0.019": 0.0,
			"-0.018": 0.0,
			"-0.017": 0.0,
			"-0.016": 0.2793374659,
			"-0.015": 0.714812358321,
			"-0.014": 1.8914037707,
			"-0.013": 2.69307687969,
			"-0.012": 3.18010108217,
			"-0.011": 2.48289590986,
			"-0.01": 4.32722535173,
			"-0.009": 5.42773554984,
			"-0.008": 6.29711715994,
			"-0.007": 7.3663661204,
			"-0.006": 8.73409589433,
			"-0.005": 11.8550490133,
			"-0.004": 20.5274218265,
			"-0.003": 30.8419420107,
			"-0.002": 34.7485496013,
			"-0.001": 40.2486424951,
			"0.0": 33.9410285923,
			"0.001": 28.4359557312,
			"0.002": 17.8756718724,
			"0.003": 10.8455426158,
			"0.004": 10.4041687649,
			"0.005": 10.3972953449,
			"0.006": 7.72084565604,
			"0.007": 4.46904003347,
			"0.008": 5.18756732252,
			"0.009": 3.84215915254,
			"0.01": 4.21381696548,
			"0.011": 5.20955202661,
			"0.012": 8.19704560425,
			"0.013": 10.6956429189,
			"0.014": 3.57856902695,
			"0.015": 0.0446531708966,
			"0.016": 0.0,
			"0.017": 0.0,
			"0.018": 0.0,
			"0.019": 0.0,
			"0.02": 0.0,
			"0.021": 0.0,
			"0.022": 0.0,
			"0.023": 0.0,
			"0.024": 0.0,
			"0.025": 0.0
		}
	}
}
