{
	 "smiles": "CC1=CC(C=CC2=CC=C(C=C2)C2=CC=C(C=CC3=C(C)C=CC(C)=C3)C=C2)=C(C)C=C1", 
	 "Tm": 471.15, 
	 "num_atms": 62, 
	 "gaussian": { 
		 "optdone": 1, 
		 "sigma_profile": "yes", 
		 "theory": "DFT", 
		 "functional": "B3LYP", 
		 "basiset": "6-31G**", 
		 "properties": { 
			 "R2extent": 39794.9889, 
			 "electric_dipole_moment_norm": 0.0223338308402, 
			 "electric_quadrupole_moment_norm": 13.2410729437, 
			 "total_energy": -1237.51565213, 
			 "HOMO_LUMO_gap": 0.12911, 
			 "cosmo_polarized_energy": -11.75, 
			 "cosmo_cavitation_energy": 65.43, 
			 "cosmo_dispersion_energy": -45.99, 
			 "cosmo_repulsion_energy": 3.39, 
			 "cosmo_total_nonelectrostatic_energy": 22.83, 
			 "SMD_solvation_energy": 10.37 
		},
		"coords": [
			{
				"x": -6.105838471,
				"y": 5.3621069904,
				"z": 5.5050090425,
				"element": "C" 
			},
			{
				"x": -6.4892790587,
				"y": 4.1283661257,
				"z": 4.7212681006,
				"element": "C" 
			},
			{
				"x": -5.5631021201,
				"y": 3.4706499511,
				"z": 3.9115783852,
				"element": "C" 
			},
			{
				"x": -5.8820160352,
				"y": 2.3075932671,
				"z": 3.1847496701,
				"element": "C" 
			},
			{
				"x": -4.8744346423,
				"y": 1.637871442,
				"z": 2.3524136047,
				"element": "C" 
			},
			{
				"x": -3.5364420378,
				"y": 1.7077116413,
				"z": 2.5191927386,
				"element": "C" 
			},
			{
				"x": -2.5119741956,
				"y": 1.0734638959,
				"z": 1.6876122207,
				"element": "C" 
			},
			{
				"x": -1.1737406773,
				"y": 1.081233391,
				"z": 2.1242160663,
				"element": "C" 
			},
			{
				"x": -0.1611177387,
				"y": 0.4851760607,
				"z": 1.3812860463,
				"element": "C" 
			},
			{
				"x": -0.4352206427,
				"y": -0.1480341755,
				"z": 0.1567183605,
				"element": "C" 
			},
			{
				"x": -1.7721054639,
				"y": -0.1492437131,
				"z": -0.2870283156,
				"element": "C" 
			},
			{
				"x": -2.7826259816,
				"y": 0.4474483398,
				"z": 0.4543748965,
				"element": "C" 
			},
			{
				"x": 0.6396382871,
				"y": -0.7834276196,
				"z": -0.6384503319,
				"element": "C" 
			},
			{
				"x": 1.7203852508,
				"y": -1.4336120813,
				"z": -0.0180520579,
				"element": "C" 
			},
			{
				"x": 2.7272006958,
				"y": -2.0294891534,
				"z": -0.7689890349,
				"element": "C" 
			},
			{
				"x": 2.7113889329,
				"y": -2.0046467375,
				"z": -2.1763558218,
				"element": "C" 
			},
			{
				"x": 3.806014702,
				"y": -2.6395173359,
				"z": -2.9126075545,
				"element": "C" 
			},
			{
				"x": 4.0479620326,
				"y": -2.5555800784,
				"z": -4.2382603847,
				"element": "C" 
			},
			{
				"x": 5.1378369059,
				"y": -3.2258475337,
				"z": -4.9589552351,
				"element": "C" 
			},
			{
				"x": 5.6057380455,
				"y": -2.7069236528,
				"z": -6.1916688712,
				"element": "C" 
			},
			{
				"x": 5.0228967318,
				"y": -1.4526804641,
				"z": -6.8025928701,
				"element": "C" 
			},
			{
				"x": 6.6486238901,
				"y": -3.3747332929,
				"z": -6.8423915954,
				"element": "C" 
			},
			{
				"x": 7.2272495061,
				"y": -4.5262164304,
				"z": -6.3137851651,
				"element": "C" 
			},
			{
				"x": 6.7706731148,
				"y": -5.0585389357,
				"z": -5.1006709049,
				"element": "C" 
			},
			{
				"x": 7.3933880873,
				"y": -6.3050252295,
				"z": -4.5159599774,
				"element": "C" 
			},
			{
				"x": 5.7267394351,
				"y": -4.3997847066,
				"z": -4.4510410672,
				"element": "C" 
			},
			{
				"x": 1.621227955,
				"y": -1.36165417,
				"z": -2.7961427757,
				"element": "C" 
			},
			{
				"x": 0.616517825,
				"y": -0.7651342753,
				"z": -2.0467469106,
				"element": "C" 
			},
			{
				"x": -7.2027457138,
				"y": 1.7992558111,
				"z": 3.2571576613,
				"element": "C" 
			},
			{
				"x": -7.6223699049,
				"y": 0.557049075,
				"z": 2.5042290172,
				"element": "C" 
			},
			{
				"x": -8.1295262263,
				"y": 2.4660711559,
				"z": 4.0654010733,
				"element": "C" 
			},
			{
				"x": -7.787941059,
				"y": 3.6066144543,
				"z": 4.7884694809,
				"element": "C" 
			},
			{
				"x": -5.1731352275,
				"y": 5.7974598041,
				"z": 5.1350253344,
				"element": "H" 
			},
			{
				"x": -6.883225883,
				"y": 6.1312903736,
				"z": 5.4474922691,
				"element": "H" 
			},
			{
				"x": -5.9613762203,
				"y": 5.1295739443,
				"z": 6.567504756,
				"element": "H" 
			},
			{
				"x": -4.564198764,
				"y": 3.8877175906,
				"z": 3.8166183736,
				"element": "H" 
			},
			{
				"x": -5.2619953254,
				"y": 1.0177778498,
				"z": 1.5480125657,
				"element": "H" 
			},
			{
				"x": -3.1480675175,
				"y": 2.2646542206,
				"z": 3.3706267676,
				"element": "H" 
			},
			{
				"x": -0.9285055069,
				"y": 1.5700894232,
				"z": 3.0639419735,
				"element": "H" 
			},
			{
				"x": 0.8624408729,
				"y": 0.5352059758,
				"z": 1.7405449326,
				"element": "H" 
			},
			{
				"x": -2.0231092379,
				"y": -0.6455144707,
				"z": -1.2198129246,
				"element": "H" 
			},
			{
				"x": -3.7971664033,
				"y": 0.4294262906,
				"z": 0.0681137082,
				"element": "H" 
			},
			{
				"x": 1.7562260523,
				"y": -1.4970308281,
				"z": 1.0654227572,
				"element": "H" 
			},
			{
				"x": 3.5460908131,
				"y": -2.5316704954,
				"z": -0.2596354374,
				"element": "H" 
			},
			{
				"x": 4.4972986874,
				"y": -3.2099797282,
				"z": -2.2940184049,
				"element": "H" 
			},
			{
				"x": 3.4016389763,
				"y": -1.9225520668,
				"z": -4.8410211481,
				"element": "H" 
			},
			{
				"x": 5.0956058122,
				"y": -0.5954159242,
				"z": -6.1240296485,
				"element": "H" 
			},
			{
				"x": 3.9617474467,
				"y": -1.5723807349,
				"z": -7.0549074672,
				"element": "H" 
			},
			{
				"x": 5.5488376757,
				"y": -1.192455731,
				"z": -7.7249930875,
				"element": "H" 
			},
			{
				"x": 7.0155247168,
				"y": -2.9803933477,
				"z": -7.7870148529,
				"element": "H" 
			},
			{
				"x": 8.0321236693,
				"y": -5.0207045263,
				"z": -6.8524272772,
				"element": "H" 
			},
			{
				"x": 8.3745943857,
				"y": -6.0901836575,
				"z": -4.0745718103,
				"element": "H" 
			},
			{
				"x": 6.766571075,
				"y": -6.734220022,
				"z": -3.729081105,
				"element": "H" 
			},
			{
				"x": 7.5470152056,
				"y": -7.0732649538,
				"z": -5.2812355524,
				"element": "H" 
			},
			{
				"x": 5.3343875536,
				"y": -4.8243645284,
				"z": -3.530963644,
				"element": "H" 
			},
			{
				"x": 1.5565907326,
				"y": -1.3300148171,
				"z": -3.8794866432,
				"element": "H" 
			},
			{
				"x": -0.1939492711,
				"y": -0.2555785107,
				"z": -2.5594554327,
				"element": "H" 
			},
			{
				"x": -7.5451998982,
				"y": 0.688500995,
				"z": 1.4175864782,
				"element": "H" 
			},
			{
				"x": -8.6619270812,
				"y": 0.3031305129,
				"z": 2.727811177,
				"element": "H" 
			},
			{
				"x": -7.0037831293,
				"y": -0.3085360319,
				"z": 2.7664336443,
				"element": "H" 
			},
			{
				"x": -9.1440775889,
				"y": 2.0799159796,
				"z": 4.1287635207,
				"element": "H" 
			},
			{
				"x": -8.5381780496,
				"y": 4.1008953992,
				"z": 5.4010786873,
				"element": "H" 
			}
		],
		 "valence_orbital": [ 
			{
				"type": "occ",
				"energy": -0.24574,
				"method": "rhf"
			},
			{
				"type": "occ",
				"energy": -0.23317,
				"method": "rhf"
			},
			{
				"type": "occ",
				"energy": -0.23147,
				"method": "rhf"
			},
			{
				"type": "occ",
				"energy": -0.20843,
				"method": "rhf"
			},
			{
				"type": "occ",
				"energy": -0.18996,
				"method": "rhf"
			},
			{
				"type": "unocc",
				"energy": -0.06085,
				"method": "rhf"
			},
			{
				"type": "unocc",
				"energy": -0.03894,
				"method": "rhf"
			},
			{
				"type": "unocc",
				"energy": -0.00418,
				"method": "rhf"
			},
			{
				"type": "unocc",
				"energy": 0.00201,
				"method": "rhf"
			},
			{
				"type": "unocc",
				"energy": 0.00396,
				"method": "rhf"
			}
		],
		"cosmo_sigma_profile": { 
			"-0.025": 0.0,
			"-0.024": 0.0,
			"-0.023": 0.0,
			"-0.022": 0.0,
			"-0.021": 0.0,
			"-0.02": 0.0,
			"-0.019": 0.0,
			"-0.018": 0.0,
			"-0.017": 0.0,
			"-0.016": 0.0,
			"-0.015": 0.0,
			"-0.014": 0.0,
			"-0.013": 0.0,
			"-0.012": 0.0,
			"-0.011": 0.0,
			"-0.01": 0.0,
			"-0.009": 0.0,
			"-0.008": 0.0535496617061,
			"-0.007": 2.14293825006,
			"-0.006": 14.0874005728,
			"-0.005": 37.5009219439,
			"-0.004": 52.7699312534,
			"-0.003": 50.826743035,
			"-0.002": 46.7517700708,
			"-0.001": 43.0996183454,
			"0.0": 49.7798795539,
			"0.001": 40.5150613189,
			"0.002": 31.537687368,
			"0.003": 34.5069532091,
			"0.004": 44.3865270276,
			"0.005": 46.7955078309,
			"0.006": 21.9117199314,
			"0.007": 4.08197111515,
			"0.008": 0.0,
			"0.009": 0.0,
			"0.01": 0.0,
			"0.011": 0.0,
			"0.012": 0.0,
			"0.013": 0.0,
			"0.014": 0.0,
			"0.015": 0.0,
			"0.016": 0.0,
			"0.017": 0.0,
			"0.018": 0.0,
			"0.019": 0.0,
			"0.02": 0.0,
			"0.021": 0.0,
			"0.022": 0.0,
			"0.023": 0.0,
			"0.024": 0.0,
			"0.025": 0.0
		}
	}
}
