{
	 "smiles": "FC(F)(F)C(F)(F)C(F)(F)C(F)(F)C(F)(F)C(F)(F)C(F)(F)C(F)(F)Br", 
	 "Tm": 298.15, 
	 "num_atms": 26, 
	 "gaussian": { 
		 "optdone": 1, 
		 "sigma_profile": "yes", 
		 "theory": "DFT", 
		 "functional": "B3LYP", 
		 "basiset": "6-31G**", 
		 "properties": { 
			 "R2extent": 10393.0882, 
			 "electric_dipole_moment_norm": 0.345665430727, 
			 "electric_quadrupole_moment_norm": 3.14620049584, 
			 "total_energy": -4573.45476195, 
			 "HOMO_LUMO_gap": 0.27596, 
			 "cosmo_polarized_energy": -1.38, 
			 "cosmo_cavitation_energy": 36.99, 
			 "cosmo_dispersion_energy": -25.14, 
			 "cosmo_repulsion_energy": 1.59, 
			 "cosmo_total_nonelectrostatic_energy": 13.44, 
			 "SMD_solvation_energy": 10.26 
		},
		"coords": [
			{
				"x": -0.5857975714,
				"y": 3.728787318,
				"z": 1.7518912807,
				"element": "F" 
			},
			{
				"x": -0.331746078,
				"y": 4.1316290412,
				"z": 0.4997221005,
				"element": "C" 
			},
			{
				"x": 0.7923132274,
				"y": 4.8536252209,
				"z": 0.4887813048,
				"element": "F" 
			},
			{
				"x": -1.3425853445,
				"y": 4.9001358056,
				"z": 0.0783311008,
				"element": "F" 
			},
			{
				"x": -0.2066775526,
				"y": 2.9080573115,
				"z": -0.4495006132,
				"element": "C" 
			},
			{
				"x": -1.4436027643,
				"y": 2.3888310534,
				"z": -0.6097867551,
				"element": "F" 
			},
			{
				"x": 0.2470274623,
				"y": 3.3605524477,
				"z": -1.6397375352,
				"element": "F" 
			},
			{
				"x": 0.7380665836,
				"y": 1.7957242217,
				"z": 0.0830020179,
				"element": "C" 
			},
			{
				"x": 0.1205801321,
				"y": 1.1524530511,
				"z": 1.0971058046,
				"element": "F" 
			},
			{
				"x": 1.8545396902,
				"y": 2.3970316045,
				"z": 0.5661529068,
				"element": "F" 
			},
			{
				"x": 1.2571568142,
				"y": 0.7358037718,
				"z": -0.9385442198,
				"element": "C" 
			},
			{
				"x": 2.019924944,
				"y": 1.384817797,
				"z": -1.8470805749,
				"element": "F" 
			},
			{
				"x": 2.0510041047,
				"y": -0.1042025903,
				"z": -0.2339563084,
				"element": "F" 
			},
			{
				"x": 0.2500914104,
				"y": -0.1177885328,
				"z": -1.7638279585,
				"element": "C" 
			},
			{
				"x": -0.4845147578,
				"y": 0.7421327676,
				"z": -2.5109330267,
				"element": "F" 
			},
			{
				"x": 0.9934884588,
				"y": -0.8818571206,
				"z": -2.5989993169,
				"element": "F" 
			},
			{
				"x": -0.7739418493,
				"y": -1.0581856997,
				"z": -1.0616998428,
				"element": "C" 
			},
			{
				"x": -1.4993319039,
				"y": -1.6121112748,
				"z": -2.059862624,
				"element": "F" 
			},
			{
				"x": -1.600161081,
				"y": -0.29067423,
				"z": -0.3119229058,
				"element": "F" 
			},
			{
				"x": -0.2941293822,
				"y": -2.2037132835,
				"z": -0.1183052922,
				"element": "C" 
			},
			{
				"x": -1.4128159782,
				"y": -2.8639123134,
				"z": 0.2538325652,
				"element": "F" 
			},
			{
				"x": 0.254499178,
				"y": -1.6285087426,
				"z": 0.9795734919,
				"element": "F" 
			},
			{
				"x": 0.727895161,
				"y": -3.2686541143,
				"z": -0.612763278,
				"element": "C" 
			},
			{
				"x": 0.9178322128,
				"y": -4.1152660515,
				"z": 0.4116975857,
				"element": "F" 
			},
			{
				"x": 1.8985458701,
				"y": -2.6821694382,
				"z": -0.8982480744,
				"element": "F" 
			},
			{
				"x": 0.1094390135,
				"y": -4.2908380202,
				"z": -2.1575218329,
				"element": "Br" 
			}
		],
		 "valence_orbital": [ 
			{
				"type": "occ",
				"energy": -0.38281,
				"method": "rhf"
			},
			{
				"type": "occ",
				"energy": -0.36808,
				"method": "rhf"
			},
			{
				"type": "occ",
				"energy": -0.35646,
				"method": "rhf"
			},
			{
				"type": "occ",
				"energy": -0.32013,
				"method": "rhf"
			},
			{
				"type": "occ",
				"energy": -0.31906,
				"method": "rhf"
			},
			{
				"type": "unocc",
				"energy": -0.0431,
				"method": "rhf"
			},
			{
				"type": "unocc",
				"energy": 0.00697,
				"method": "rhf"
			},
			{
				"type": "unocc",
				"energy": 0.00773,
				"method": "rhf"
			},
			{
				"type": "unocc",
				"energy": 0.03605,
				"method": "rhf"
			},
			{
				"type": "unocc",
				"energy": 0.04068,
				"method": "rhf"
			}
		],
		"cosmo_sigma_profile": { 
			"-0.025": 0.0,
			"-0.024": 0.0,
			"-0.023": 0.0,
			"-0.022": 0.0,
			"-0.021": 0.0,
			"-0.02": 0.0,
			"-0.019": 0.0,
			"-0.018": 0.0,
			"-0.017": 0.0,
			"-0.016": 0.0,
			"-0.015": 0.0,
			"-0.014": 0.0,
			"-0.013": 0.0,
			"-0.012": 0.0,
			"-0.011": 0.0,
			"-0.01": 0.0,
			"-0.009": 0.0,
			"-0.008": 0.0695258915801,
			"-0.007": 1.29824407367,
			"-0.006": 1.26384083227,
			"-0.005": 2.11796041423,
			"-0.004": 3.20032252902,
			"-0.003": 9.17298444782,
			"-0.002": 18.9032274586,
			"-0.001": 37.3273939995,
			"0.0": 92.7046789775,
			"0.001": 124.985966353,
			"0.002": 9.80286738217,
			"0.003": 0.0,
			"0.004": 0.0,
			"0.005": 0.0,
			"0.006": 0.0,
			"0.007": 0.0,
			"0.008": 0.0,
			"0.009": 0.0,
			"0.01": 0.0,
			"0.011": 0.0,
			"0.012": 0.0,
			"0.013": 0.0,
			"0.014": 0.0,
			"0.015": 0.0,
			"0.016": 0.0,
			"0.017": 0.0,
			"0.018": 0.0,
			"0.019": 0.0,
			"0.02": 0.0,
			"0.021": 0.0,
			"0.022": 0.0,
			"0.023": 0.0,
			"0.024": 0.0,
			"0.025": 0.0
		}
	}
}
