{
	 "smiles": "CCC1=NC(=NN1)C1=CC=C(C=C1)C(O)=O", 
	 "Tm": 503.15, 
	 "num_atms": 27, 
	 "gaussian": { 
		 "optdone": 1, 
		 "sigma_profile": "yes", 
		 "theory": "DFT", 
		 "functional": "B3LYP", 
		 "basiset": "6-31G**", 
		 "properties": { 
			 "R2extent": 5692.2923, 
			 "electric_dipole_moment_norm": 8.17350930262, 
			 "electric_quadrupole_moment_norm": 21.1035514985, 
			 "total_energy": -740.521216265, 
			 "HOMO_LUMO_gap": 0.18079, 
			 "cosmo_polarized_energy": -21.77, 
			 "cosmo_cavitation_energy": 32.12, 
			 "cosmo_dispersion_energy": -23.65, 
			 "cosmo_repulsion_energy": 1.86, 
			 "cosmo_total_nonelectrostatic_energy": 10.33, 
			 "SMD_solvation_energy": 4.27 
		},
		"coords": [
			{
				"x": -2.5565625792,
				"y": 4.386092819,
				"z": -0.5103802996,
				"element": "C" 
			},
			{
				"x": -1.5241784025,
				"y": 4.1778457195,
				"z": -1.6287698765,
				"element": "C" 
			},
			{
				"x": -0.8877700583,
				"y": 2.8226252546,
				"z": -1.5800218103,
				"element": "C" 
			},
			{
				"x": -0.3161166141,
				"y": 2.2519119221,
				"z": -0.5327844773,
				"element": "N" 
			},
			{
				"x": 0.1084231143,
				"y": 1.0403922547,
				"z": -1.0126290724,
				"element": "C" 
			},
			{
				"x": -0.1702185799,
				"y": 0.8305910853,
				"z": -2.2978812545,
				"element": "N" 
			},
			{
				"x": -0.8051162344,
				"y": 1.9771795909,
				"z": -2.6378297978,
				"element": "N" 
			},
			{
				"x": 0.8117549117,
				"y": 0.0531606032,
				"z": -0.1835320735,
				"element": "C" 
			},
			{
				"x": 1.079495146,
				"y": 0.3373386122,
				"z": 1.1631473458,
				"element": "C" 
			},
			{
				"x": 1.7386369182,
				"y": -0.5953501638,
				"z": 1.9582816798,
				"element": "C" 
			},
			{
				"x": 2.1446599921,
				"y": -1.8277814696,
				"z": 1.4254809525,
				"element": "C" 
			},
			{
				"x": 1.8963237869,
				"y": -2.098779691,
				"z": 0.0714504802,
				"element": "C" 
			},
			{
				"x": 1.2304035935,
				"y": -1.1751567643,
				"z": -0.7227157099,
				"element": "C" 
			},
			{
				"x": 2.8679232474,
				"y": -2.8680797152,
				"z": 2.2238835079,
				"element": "C" 
			},
			{
				"x": 2.7527175647,
				"y": -2.7904707171,
				"z": 3.5785110461,
				"element": "O" 
			},
			{
				"x": 3.5289735994,
				"y": -3.7498348136,
				"z": 1.7265169556,
				"element": "O" 
			},
			{
				"x": -3.3918013029,
				"y": 3.6862434724,
				"z": -0.6092020703,
				"element": "H" 
			},
			{
				"x": -2.9561129684,
				"y": 5.403760809,
				"z": -0.5432342443,
				"element": "H" 
			},
			{
				"x": -2.0944573382,
				"y": 4.2233880631,
				"z": 0.4661087848,
				"element": "H" 
			},
			{
				"x": -1.9880432953,
				"y": 4.3238490226,
				"z": -2.6115589795,
				"element": "H" 
			},
			{
				"x": -0.7342271547,
				"y": 4.9341053043,
				"z": -1.5424601824,
				"element": "H" 
			},
			{
				"x": -1.1407935115,
				"y": 2.1041400473,
				"z": -3.5814093278,
				"element": "H" 
			},
			{
				"x": 0.771474657,
				"y": 1.2946611414,
				"z": 1.5685724028,
				"element": "H" 
			},
			{
				"x": 1.9674693104,
				"y": -0.3310076194,
				"z": 2.9883068154,
				"element": "H" 
			},
			{
				"x": 2.2349481386,
				"y": -3.0456565824,
				"z": -0.3349307571,
				"element": "H" 
			},
			{
				"x": 1.0289911557,
				"y": -1.3898391457,
				"z": -1.766681756,
				"element": "H" 
			},
			{
				"x": 2.0727029036,
				"y": -2.1454290397,
				"z": 3.8166617184,
				"element": "H" 
			}
		],
		 "valence_orbital": [ 
			{
				"type": "occ",
				"energy": -0.28645,
				"method": "rhf"
			},
			{
				"type": "occ",
				"energy": -0.28471,
				"method": "rhf"
			},
			{
				"type": "occ",
				"energy": -0.26779,
				"method": "rhf"
			},
			{
				"type": "occ",
				"energy": -0.2622,
				"method": "rhf"
			},
			{
				"type": "occ",
				"energy": -0.23786,
				"method": "rhf"
			},
			{
				"type": "unocc",
				"energy": -0.05707,
				"method": "rhf"
			},
			{
				"type": "unocc",
				"energy": -0.01489,
				"method": "rhf"
			},
			{
				"type": "unocc",
				"energy": 0.00391,
				"method": "rhf"
			},
			{
				"type": "unocc",
				"energy": 0.0299,
				"method": "rhf"
			},
			{
				"type": "unocc",
				"energy": 0.05961,
				"method": "rhf"
			}
		],
		"cosmo_sigma_profile": { 
			"-0.025": 0.0,
			"-0.024": 0.0,
			"-0.023": 0.0,
			"-0.022": 0.0,
			"-0.021": 0.0,
			"-0.02": 0.0,
			"-0.019": 0.106736156774,
			"-0.018": 1.23028475367,
			"-0.017": 2.51747587166,
			"-0.016": 2.29358391612,
			"-0.015": 2.22449529965,
			"-0.014": 2.097034573,
			"-0.013": 1.86962118224,
			"-0.012": 2.46821471774,
			"-0.011": 2.82045972148,
			"-0.01": 1.93035426766,
			"-0.009": 1.85812065412,
			"-0.008": 3.9083310126,
			"-0.007": 3.69450407424,
			"-0.006": 7.37033904031,
			"-0.005": 12.1716777886,
			"-0.004": 14.7168084168,
			"-0.003": 19.3535993997,
			"-0.002": 18.9329602354,
			"-0.001": 16.3594414544,
			"0.0": 18.994346707,
			"0.001": 19.3337655517,
			"0.002": 22.3333220265,
			"0.003": 17.7271596208,
			"0.004": 6.50017806823,
			"0.005": 7.0084956289,
			"0.006": 5.86781302421,
			"0.007": 4.69298608436,
			"0.008": 5.44281660926,
			"0.009": 6.34700907175,
			"0.01": 6.99504053218,
			"0.011": 7.08644218567,
			"0.012": 6.73501729005,
			"0.013": 3.02061026272,
			"0.014": 0.256158090388,
			"0.015": 0.0,
			"0.016": 0.0,
			"0.017": 0.0,
			"0.018": 0.0,
			"0.019": 0.0,
			"0.02": 0.0,
			"0.021": 0.0,
			"0.022": 0.0,
			"0.023": 0.0,
			"0.024": 0.0,
			"0.025": 0.0
		}
	}
}
