{
	 "smiles": "FC1=CC=C(C=C1)C1=CC=C(Br)C=C1", 
	 "Tm": 368.65, 
	 "num_atms": 22, 
	 "gaussian": { 
		 "optdone": 1, 
		 "sigma_profile": "yes", 
		 "theory": "DFT", 
		 "functional": "B3LYP", 
		 "basiset": "6-31G**", 
		 "properties": { 
			 "R2extent": 7058.4102, 
			 "electric_dipole_moment_norm": 0.645658075145, 
			 "electric_quadrupole_moment_norm": 14.3969377143, 
			 "total_energy": -3133.34479572, 
			 "HOMO_LUMO_gap": 0.18859, 
			 "cosmo_polarized_energy": -5.63, 
			 "cosmo_cavitation_energy": 29.24, 
			 "cosmo_dispersion_energy": -21.74, 
			 "cosmo_repulsion_energy": 1.66, 
			 "cosmo_total_nonelectrostatic_energy": 9.17, 
			 "SMD_solvation_energy": 4.12 
		},
		"coords": [
			{
				"x": 0.8468796875,
				"y": 4.7346048921,
				"z": -0.3032183618,
				"element": "F" 
			},
			{
				"x": 0.4483625346,
				"y": 3.4596661503,
				"z": -0.1154171,
				"element": "C" 
			},
			{
				"x": 0.7032431706,
				"y": 2.8439323806,
				"z": 1.1046091091,
				"element": "C" 
			},
			{
				"x": 0.2873606338,
				"y": 1.5271933613,
				"z": 1.2906049365,
				"element": "C" 
			},
			{
				"x": -0.3768092457,
				"y": 0.8195786732,
				"z": 0.2734651983,
				"element": "C" 
			},
			{
				"x": -0.6136171569,
				"y": 1.4794773551,
				"z": -0.9450911419,
				"element": "C" 
			},
			{
				"x": -0.2062780783,
				"y": 2.7965400351,
				"z": -1.1470531107,
				"element": "C" 
			},
			{
				"x": -0.8151636641,
				"y": -0.583430738,
				"z": 0.4801104229,
				"element": "C" 
			},
			{
				"x": -2.0359204479,
				"y": -1.0458055886,
				"z": -0.0398310985,
				"element": "C" 
			},
			{
				"x": -2.4537297206,
				"y": -2.361859085,
				"z": 0.1486658101,
				"element": "C" 
			},
			{
				"x": -1.6439859296,
				"y": -3.2362855553,
				"z": 0.871021722,
				"element": "C" 
			},
			{
				"x": -2.2084021108,
				"y": -5.0427205966,
				"z": 1.1374982454,
				"element": "Br" 
			},
			{
				"x": -0.4278813418,
				"y": -2.8101379487,
				"z": 1.4016645693,
				"element": "C" 
			},
			{
				"x": -0.0226265489,
				"y": -1.49182529,
				"z": 1.201975328,
				"element": "C" 
			},
			{
				"x": 1.2074830723,
				"y": 3.3971942976,
				"z": 1.8895050546,
				"element": "H" 
			},
			{
				"x": 0.4586585256,
				"y": 1.0500856922,
				"z": 2.250624248,
				"element": "H" 
			},
			{
				"x": -1.1004102663,
				"y": 0.9471498403,
				"z": -1.7564295904,
				"element": "H" 
			},
			{
				"x": -0.3781583669,
				"y": 3.3068229783,
				"z": -2.0885932122,
				"element": "H" 
			},
			{
				"x": -2.683535733,
				"y": -0.3607298419,
				"z": -0.5785931104,
				"element": "H" 
			},
			{
				"x": -3.4022389583,
				"y": -2.701296106,
				"z": -0.2518614891,
				"element": "H" 
			},
			{
				"x": 0.1986613621,
				"y": -3.5012494873,
				"z": 1.9540313923,
				"element": "H" 
			},
			{
				"x": 0.9388085828,
				"y": -1.1725054185,
				"z": 1.5927121786,
				"element": "H" 
			}
		],
		 "valence_orbital": [ 
			{
				"type": "occ",
				"energy": -0.28828,
				"method": "rhf"
			},
			{
				"type": "occ",
				"energy": -0.26713,
				"method": "rhf"
			},
			{
				"type": "occ",
				"energy": -0.26658,
				"method": "rhf"
			},
			{
				"type": "occ",
				"energy": -0.26546,
				"method": "rhf"
			},
			{
				"type": "occ",
				"energy": -0.22592,
				"method": "rhf"
			},
			{
				"type": "unocc",
				"energy": -0.03733,
				"method": "rhf"
			},
			{
				"type": "unocc",
				"energy": -0.02021,
				"method": "rhf"
			},
			{
				"type": "unocc",
				"energy": -0.01632,
				"method": "rhf"
			},
			{
				"type": "unocc",
				"energy": 0.00698,
				"method": "rhf"
			},
			{
				"type": "unocc",
				"energy": 0.01968,
				"method": "rhf"
			}
		],
		"cosmo_sigma_profile": { 
			"-0.025": 0.0,
			"-0.024": 0.0,
			"-0.023": 0.0,
			"-0.022": 0.0,
			"-0.021": 0.0,
			"-0.02": 0.0,
			"-0.019": 0.0,
			"-0.018": 0.0,
			"-0.017": 0.0,
			"-0.016": 0.0,
			"-0.015": 0.0,
			"-0.014": 0.0,
			"-0.013": 0.0,
			"-0.012": 0.0,
			"-0.011": 0.0,
			"-0.01": 0.0,
			"-0.009": 0.0,
			"-0.008": 0.360097989032,
			"-0.007": 7.71220444192,
			"-0.006": 17.4506256684,
			"-0.005": 16.2107977264,
			"-0.004": 14.2337449033,
			"-0.003": 12.9916523476,
			"-0.002": 12.4191242812,
			"-0.001": 12.2892652637,
			"0.0": 15.9586545673,
			"0.001": 23.2973755651,
			"0.002": 27.5939890247,
			"0.003": 31.5279769007,
			"0.004": 35.9320534954,
			"0.005": 11.0088084483,
			"0.006": 0.0,
			"0.007": 0.0,
			"0.008": 0.0,
			"0.009": 0.0,
			"0.01": 0.0,
			"0.011": 0.0,
			"0.012": 0.0,
			"0.013": 0.0,
			"0.014": 0.0,
			"0.015": 0.0,
			"0.016": 0.0,
			"0.017": 0.0,
			"0.018": 0.0,
			"0.019": 0.0,
			"0.02": 0.0,
			"0.021": 0.0,
			"0.022": 0.0,
			"0.023": 0.0,
			"0.024": 0.0,
			"0.025": 0.0
		}
	}
}
