{
	 "smiles": "CCOC(=O)C1=C(SC2=C1CCCC2)N=C=S", 
	 "Tm": 318.65, 
	 "num_atms": 30, 
	 "gaussian": { 
		 "optdone": 1, 
		 "sigma_profile": "yes", 
		 "theory": "DFT", 
		 "functional": "B3LYP", 
		 "basiset": "6-31G**", 
		 "properties": { 
			 "R2extent": 6029.9997, 
			 "electric_dipole_moment_norm": 2.75977274064, 
			 "electric_quadrupole_moment_norm": 14.8656256232, 
			 "total_energy": -1466.69969838, 
			 "HOMO_LUMO_gap": 0.14774, 
			 "cosmo_polarized_energy": -7.01, 
			 "cosmo_cavitation_energy": 37.17, 
			 "cosmo_dispersion_energy": -26.96, 
			 "cosmo_repulsion_energy": 2.05, 
			 "cosmo_total_nonelectrostatic_energy": 12.25, 
			 "SMD_solvation_energy": 6.56 
		},
		"coords": [
			{
				"x": -4.6946580517,
				"y": -1.3666612848,
				"z": 0.6905626279,
				"element": "C" 
			},
			{
				"x": -3.831874654,
				"y": -1.5245310833,
				"z": -0.552130882,
				"element": "C" 
			},
			{
				"x": -2.6516859947,
				"y": -0.6861898808,
				"z": -0.4843392228,
				"element": "O" 
			},
			{
				"x": -1.5854605244,
				"y": -1.1930304502,
				"z": 0.169984866,
				"element": "C" 
			},
			{
				"x": -1.5710647802,
				"y": -2.3028663609,
				"z": 0.6738504102,
				"element": "O" 
			},
			{
				"x": -0.4375016594,
				"y": -0.2569406721,
				"z": 0.2038386418,
				"element": "C" 
			},
			{
				"x": -0.4646235807,
				"y": 1.0607235993,
				"z": -0.241319807,
				"element": "C" 
			},
			{
				"x": 1.0782008326,
				"y": 1.856693376,
				"z": 0.0021003156,
				"element": "S" 
			},
			{
				"x": 1.7585476219,
				"y": 0.4086939658,
				"z": 0.6980533667,
				"element": "C" 
			},
			{
				"x": 0.8540436416,
				"y": -0.6216296329,
				"z": 0.7371761319,
				"element": "C" 
			},
			{
				"x": 1.2347150034,
				"y": -1.9747879703,
				"z": 1.2972478463,
				"element": "C" 
			},
			{
				"x": 2.7573873955,
				"y": -2.1208457848,
				"z": 1.4564324465,
				"element": "C" 
			},
			{
				"x": 3.3897809217,
				"y": -0.8718209243,
				"z": 2.0835346508,
				"element": "C" 
			},
			{
				"x": 3.1835975058,
				"y": 0.3558531319,
				"z": 1.1789626769,
				"element": "C" 
			},
			{
				"x": -1.4740116848,
				"y": 1.7569540215,
				"z": -0.7890059306,
				"element": "N" 
			},
			{
				"x": -2.3689483497,
				"y": 2.3734259718,
				"z": -1.2708561312,
				"element": "C" 
			},
			{
				"x": -3.5654161508,
				"y": 3.1983804056,
				"z": -1.9153904523,
				"element": "S" 
			},
			{
				"x": -4.9684360703,
				"y": -0.3187456668,
				"z": 0.8433495675,
				"element": "H" 
			},
			{
				"x": -5.6150604875,
				"y": -1.9492611176,
				"z": 0.5778231569,
				"element": "H" 
			},
			{
				"x": -4.1659406762,
				"y": -1.7295616258,
				"z": 1.5753148893,
				"element": "H" 
			},
			{
				"x": -4.3522724001,
				"y": -1.1790839744,
				"z": -1.4480186887,
				"element": "H" 
			},
			{
				"x": -3.5184531728,
				"y": -2.5620512542,
				"z": -0.6880059396,
				"element": "H" 
			},
			{
				"x": 0.8346493829,
				"y": -2.7661866476,
				"z": 0.6588996645,
				"element": "H" 
			},
			{
				"x": 0.7356071545,
				"y": -2.1127335365,
				"z": 2.2652571281,
				"element": "H" 
			},
			{
				"x": 3.2126365561,
				"y": -2.2961977072,
				"z": 0.4723599797,
				"element": "H" 
			},
			{
				"x": 2.9756334022,
				"y": -3.005510608,
				"z": 2.0642627297,
				"element": "H" 
			},
			{
				"x": 4.4608821751,
				"y": -1.0227455752,
				"z": 2.2561222662,
				"element": "H" 
			},
			{
				"x": 2.9316469755,
				"y": -0.6821822409,
				"z": 3.0627113452,
				"element": "H" 
			},
			{
				"x": 3.4436158477,
				"y": 1.2759289982,
				"z": 1.7160824597,
				"element": "H" 
			},
			{
				"x": 3.8644638203,
				"y": 0.3009105287,
				"z": 0.3173398866,
				"element": "H" 
			}
		],
		 "valence_orbital": [ 
			{
				"type": "occ",
				"energy": -0.28426,
				"method": "rhf"
			},
			{
				"type": "occ",
				"energy": -0.27632,
				"method": "rhf"
			},
			{
				"type": "occ",
				"energy": -0.26237,
				"method": "rhf"
			},
			{
				"type": "occ",
				"energy": -0.25689,
				"method": "rhf"
			},
			{
				"type": "occ",
				"energy": -0.21851,
				"method": "rhf"
			},
			{
				"type": "unocc",
				"energy": -0.07077,
				"method": "rhf"
			},
			{
				"type": "unocc",
				"energy": -0.01721,
				"method": "rhf"
			},
			{
				"type": "unocc",
				"energy": 0.00451,
				"method": "rhf"
			},
			{
				"type": "unocc",
				"energy": 0.01195,
				"method": "rhf"
			},
			{
				"type": "unocc",
				"energy": 0.03565,
				"method": "rhf"
			}
		],
		"cosmo_sigma_profile": { 
			"-0.025": 0.0,
			"-0.024": 0.0,
			"-0.023": 0.0,
			"-0.022": 0.0,
			"-0.021": 0.0,
			"-0.02": 0.0,
			"-0.019": 0.0,
			"-0.018": 0.0,
			"-0.017": 0.0,
			"-0.016": 0.0,
			"-0.015": 0.0,
			"-0.014": 0.0,
			"-0.013": 0.0,
			"-0.012": 0.0,
			"-0.011": 0.0,
			"-0.01": 0.0,
			"-0.009": 0.0,
			"-0.008": 0.0,
			"-0.007": 0.0,
			"-0.006": 2.09508310615,
			"-0.005": 9.49219762679,
			"-0.004": 20.4674526644,
			"-0.003": 33.7939706094,
			"-0.002": 45.7961340003,
			"-0.001": 43.3667353232,
			"0.0": 39.6005087494,
			"0.001": 25.2348598763,
			"0.002": 21.5414692028,
			"0.003": 14.9215753216,
			"0.004": 11.5087194385,
			"0.005": 15.7980471021,
			"0.006": 5.74739426502,
			"0.007": 1.21337807424,
			"0.008": 1.82075175341,
			"0.009": 1.66078106485,
			"0.01": 1.6884753964,
			"0.011": 2.2125232147,
			"0.012": 2.22297734308,
			"0.013": 0.0691639174022,
			"0.014": 0.0,
			"0.015": 0.0,
			"0.016": 0.0,
			"0.017": 0.0,
			"0.018": 0.0,
			"0.019": 0.0,
			"0.02": 0.0,
			"0.021": 0.0,
			"0.022": 0.0,
			"0.023": 0.0,
			"0.024": 0.0,
			"0.025": 0.0
		}
	}
}
