{
	 "smiles": "NC1CCN(C1=O)C1=CC(Cl)=C(Cl)C=C1", 
	 "Tm": 378.15, 
	 "num_atms": 25, 
	 "gaussian": { 
		 "optdone": 1, 
		 "sigma_profile": "yes", 
		 "theory": "DFT", 
		 "functional": "B3LYP", 
		 "basiset": "6-31G**", 
		 "properties": { 
			 "R2extent": 7188.1507, 
			 "electric_dipole_moment_norm": 4.99131299059, 
			 "electric_quadrupole_moment_norm": 9.75120177568, 
			 "total_energy": -1492.2126248, 
			 "HOMO_LUMO_gap": 0.19606, 
			 "cosmo_polarized_energy": -12.27, 
			 "cosmo_cavitation_energy": 31.63, 
			 "cosmo_dispersion_energy": -23.62, 
			 "cosmo_repulsion_energy": 1.85, 
			 "cosmo_total_nonelectrostatic_energy": 9.86, 
			 "SMD_solvation_energy": 3.76 
		},
		"coords": [
			{
				"x": 2.4807633789,
				"y": 0.912514169,
				"z": -2.0355551025,
				"element": "N" 
			},
			{
				"x": 1.288065873,
				"y": 1.3969891734,
				"z": -1.3292286048,
				"element": "C" 
			},
			{
				"x": 1.4375623986,
				"y": 1.2318925292,
				"z": 0.1859534602,
				"element": "C" 
			},
			{
				"x": 0.9717174266,
				"y": -0.208620316,
				"z": 0.4483203771,
				"element": "C" 
			},
			{
				"x": -0.004401483,
				"y": -0.4580819908,
				"z": -0.6233205693,
				"element": "N" 
			},
			{
				"x": 0.15192731,
				"y": 0.4261734745,
				"z": -1.6800357094,
				"element": "C" 
			},
			{
				"x": -0.456954665,
				"y": 0.4277410489,
				"z": -2.737691302,
				"element": "O" 
			},
			{
				"x": -0.8426005082,
				"y": -1.5933560639,
				"z": -0.6144362985,
				"element": "C" 
			},
			{
				"x": -0.660027877,
				"y": -2.5734762498,
				"z": 0.3728357123,
				"element": "C" 
			},
			{
				"x": -1.4855020767,
				"y": -3.6971618803,
				"z": 0.4242522612,
				"element": "C" 
			},
			{
				"x": -1.1967167406,
				"y": -4.8749652625,
				"z": 1.6845552648,
				"element": "Cl" 
			},
			{
				"x": -2.5086119396,
				"y": -3.866218115,
				"z": -0.512859135,
				"element": "C" 
			},
			{
				"x": -3.5676086012,
				"y": -5.2550826548,
				"z": -0.4855101464,
				"element": "Cl" 
			},
			{
				"x": -2.6839675944,
				"y": -2.8918826496,
				"z": -1.4986109151,
				"element": "C" 
			},
			{
				"x": -1.8714080924,
				"y": -1.7671641025,
				"z": -1.559455058,
				"element": "C" 
			},
			{
				"x": 3.2381041002,
				"y": 1.5837452493,
				"z": -1.9316524622,
				"element": "H" 
			},
			{
				"x": 2.2756960118,
				"y": 0.8520340698,
				"z": -3.0308022295,
				"element": "H" 
			},
			{
				"x": 0.9774991822,
				"y": 2.414026272,
				"z": -1.6111700505,
				"element": "H" 
			},
			{
				"x": 0.7788536709,
				"y": 1.9368721594,
				"z": 0.7030902537,
				"element": "H" 
			},
			{
				"x": 2.4603527689,
				"y": 1.4005936944,
				"z": 0.5320328152,
				"element": "H" 
			},
			{
				"x": 0.4978653963,
				"y": -0.3206320914,
				"z": 1.427477273,
				"element": "H" 
			},
			{
				"x": 1.8025389618,
				"y": -0.9206193126,
				"z": 0.3765972252,
				"element": "H" 
			},
			{
				"x": 0.1280011614,
				"y": -2.490497608,
				"z": 1.1089085457,
				"element": "H" 
			},
			{
				"x": -3.476256912,
				"y": -3.0223275422,
				"z": -2.2275678739,
				"element": "H" 
			},
			{
				"x": -2.0150911506,
				"y": -1.0302960005,
				"z": -2.3356277318,
				"element": "H" 
			}
		],
		 "valence_orbital": [ 
			{
				"type": "occ",
				"energy": -0.2912,
				"method": "rhf"
			},
			{
				"type": "occ",
				"energy": -0.26541,
				"method": "rhf"
			},
			{
				"type": "occ",
				"energy": -0.25754,
				"method": "rhf"
			},
			{
				"type": "occ",
				"energy": -0.25313,
				"method": "rhf"
			},
			{
				"type": "occ",
				"energy": -0.22616,
				"method": "rhf"
			},
			{
				"type": "unocc",
				"energy": -0.0301,
				"method": "rhf"
			},
			{
				"type": "unocc",
				"energy": -0.02085,
				"method": "rhf"
			},
			{
				"type": "unocc",
				"energy": 0.0049,
				"method": "rhf"
			},
			{
				"type": "unocc",
				"energy": 0.02298,
				"method": "rhf"
			},
			{
				"type": "unocc",
				"energy": 0.06472,
				"method": "rhf"
			}
		],
		"cosmo_sigma_profile": { 
			"-0.025": 0.0,
			"-0.024": 0.0,
			"-0.023": 0.0,
			"-0.022": 0.0,
			"-0.021": 0.0,
			"-0.02": 0.0,
			"-0.019": 0.0,
			"-0.018": 0.0,
			"-0.017": 0.0,
			"-0.016": 0.0,
			"-0.015": 0.0,
			"-0.014": 0.0,
			"-0.013": 0.0,
			"-0.012": 0.0,
			"-0.011": 0.496269978477,
			"-0.01": 2.2845805091,
			"-0.009": 2.4971947057,
			"-0.008": 5.63278701762,
			"-0.007": 7.75567114635,
			"-0.006": 10.3252006434,
			"-0.005": 17.8954194993,
			"-0.004": 21.8289135307,
			"-0.003": 18.9895673941,
			"-0.002": 12.7199073876,
			"-0.001": 15.2918409562,
			"0.0": 20.4960924047,
			"0.001": 24.1350974653,
			"0.002": 24.0304269985,
			"0.003": 19.297764583,
			"0.004": 20.4937967545,
			"0.005": 8.28223122307,
			"0.006": 3.49029631237,
			"0.007": 2.39589452643,
			"0.008": 2.02190957084,
			"0.009": 2.81436597759,
			"0.01": 1.65622456031,
			"0.011": 2.516389241,
			"0.012": 3.36590056381,
			"0.013": 2.86474952532,
			"0.014": 0.685966513381,
			"0.015": 0.591800063529,
			"0.016": 0.341785495662,
			"0.017": 0.342020275577,
			"0.018": 0.0882290984231,
			"0.019": 0.0,
			"0.02": 0.0,
			"0.021": 0.0,
			"0.022": 0.0,
			"0.023": 0.0,
			"0.024": 0.0,
			"0.025": 0.0
		}
	}
}
