{
	 "smiles": "CC1=CC=C(C=C1)N1C(N)=NC2=C1C=CC(Br)=C2", 
	 "Tm": 468.15, 
	 "num_atms": 30, 
	 "gaussian": { 
		 "optdone": 1, 
		 "sigma_profile": "yes", 
		 "theory": "DFT", 
		 "functional": "B3LYP", 
		 "basiset": "6-31G**", 
		 "properties": { 
			 "R2extent": 12833.0767, 
			 "electric_dipole_moment_norm": 7.13589830435, 
			 "electric_quadrupole_moment_norm": 27.7282580246, 
			 "total_energy": -3276.40821444, 
			 "HOMO_LUMO_gap": 0.17782, 
			 "cosmo_polarized_energy": -13.98, 
			 "cosmo_cavitation_energy": 36.25, 
			 "cosmo_dispersion_energy": -26.64, 
			 "cosmo_repulsion_energy": 2.05, 
			 "cosmo_total_nonelectrostatic_energy": 11.66, 
			 "SMD_solvation_energy": 2.9 
		},
		"coords": [
			{
				"x": 3.2724342947,
				"y": -1.7735093902,
				"z": -2.2458951382,
				"element": "C" 
			},
			{
				"x": 2.4792056495,
				"y": -1.1772633992,
				"z": -1.1074845236,
				"element": "C" 
			},
			{
				"x": 3.0389989838,
				"y": -0.2041551524,
				"z": -0.2685969243,
				"element": "C" 
			},
			{
				"x": 2.3094791693,
				"y": 0.362906854,
				"z": 0.7750922549,
				"element": "C" 
			},
			{
				"x": 0.9809819052,
				"y": -0.0255850729,
				"z": 0.9874637014,
				"element": "C" 
			},
			{
				"x": 0.4027546915,
				"y": -0.9915330415,
				"z": 0.1550255252,
				"element": "C" 
			},
			{
				"x": 1.1527019041,
				"y": -1.563455971,
				"z": -0.8706310941,
				"element": "C" 
			},
			{
				"x": 0.2233943405,
				"y": 0.5473728979,
				"z": 2.0474080341,
				"element": "N" 
			},
			{
				"x": 0.0041405033,
				"y": 1.9003559207,
				"z": 2.2930805173,
				"element": "C" 
			},
			{
				"x": 0.6038317181,
				"y": 2.8736908292,
				"z": 1.5262186218,
				"element": "N" 
			},
			{
				"x": -0.7676206383,
				"y": 2.1402313096,
				"z": 3.3255996857,
				"element": "N" 
			},
			{
				"x": -1.0937784321,
				"y": 0.8859028402,
				"z": 3.8195112587,
				"element": "C" 
			},
			{
				"x": -0.4995467277,
				"y": -0.1327009777,
				"z": 3.0373109064,
				"element": "C" 
			},
			{
				"x": -0.6562864449,
				"y": -1.4838597984,
				"z": 3.3259827015,
				"element": "C" 
			},
			{
				"x": -1.4477737644,
				"y": -1.8170963793,
				"z": 4.4283682797,
				"element": "C" 
			},
			{
				"x": -2.0445881229,
				"y": -0.8087309347,
				"z": 5.1977314588,
				"element": "C" 
			},
			{
				"x": -3.1247633742,
				"y": -1.324555548,
				"z": 6.6971155424,
				"element": "Br" 
			},
			{
				"x": -1.8839732813,
				"y": 0.5462662901,
				"z": 4.9212866723,
				"element": "C" 
			},
			{
				"x": 2.9536806293,
				"y": -2.7972052319,
				"z": -2.4628790067,
				"element": "H" 
			},
			{
				"x": 3.143302143,
				"y": -1.1904610756,
				"z": -3.1664114424,
				"element": "H" 
			},
			{
				"x": 4.342844719,
				"y": -1.7919207531,
				"z": -2.0208794624,
				"element": "H" 
			},
			{
				"x": 4.0699090651,
				"y": 0.1046194724,
				"z": -0.4217715721,
				"element": "H" 
			},
			{
				"x": 2.7637979723,
				"y": 1.0976204752,
				"z": 1.431431728,
				"element": "H" 
			},
			{
				"x": -0.6292651268,
				"y": -1.2870507061,
				"z": 0.3137672,
				"element": "H" 
			},
			{
				"x": 0.6939009545,
				"y": -2.3177005241,
				"z": -1.5047628765,
				"element": "H" 
			},
			{
				"x": 0.1847053395,
				"y": 3.7817143191,
				"z": 1.6753398125,
				"element": "H" 
			},
			{
				"x": 0.7508628308,
				"y": 2.6449956071,
				"z": 0.552070033,
				"element": "H" 
			},
			{
				"x": -0.1830878681,
				"y": -2.2575608117,
				"z": 2.7307913609,
				"element": "H" 
			},
			{
				"x": -1.6004458679,
				"y": -2.8564512568,
				"z": 4.6932888256,
				"element": "H" 
			},
			{
				"x": -2.3459971647,
				"y": 1.3119192093,
				"z": 5.53232792,
				"element": "H" 
			}
		],
		 "valence_orbital": [ 
			{
				"type": "occ",
				"energy": -0.27207,
				"method": "rhf"
			},
			{
				"type": "occ",
				"energy": -0.27037,
				"method": "rhf"
			},
			{
				"type": "occ",
				"energy": -0.25262,
				"method": "rhf"
			},
			{
				"type": "occ",
				"energy": -0.21635,
				"method": "rhf"
			},
			{
				"type": "occ",
				"energy": -0.20343,
				"method": "rhf"
			},
			{
				"type": "unocc",
				"energy": -0.02561,
				"method": "rhf"
			},
			{
				"type": "unocc",
				"energy": -0.02295,
				"method": "rhf"
			},
			{
				"type": "unocc",
				"energy": -0.00632,
				"method": "rhf"
			},
			{
				"type": "unocc",
				"energy": 0.02044,
				"method": "rhf"
			},
			{
				"type": "unocc",
				"energy": 0.02166,
				"method": "rhf"
			}
		],
		"cosmo_sigma_profile": { 
			"-0.025": 0.0,
			"-0.024": 0.0,
			"-0.023": 0.0,
			"-0.022": 0.0,
			"-0.021": 0.0,
			"-0.02": 0.0,
			"-0.019": 0.0,
			"-0.018": 0.0,
			"-0.017": 0.0,
			"-0.016": 0.0,
			"-0.015": 0.0,
			"-0.014": 0.979879792773,
			"-0.013": 2.20095008942,
			"-0.012": 1.72938743573,
			"-0.011": 3.0121294616,
			"-0.01": 1.98439946628,
			"-0.009": 1.91667796192,
			"-0.008": 1.68300257362,
			"-0.007": 3.73352007855,
			"-0.006": 11.6934510775,
			"-0.005": 17.7312545111,
			"-0.004": 23.8553487395,
			"-0.003": 20.9277169679,
			"-0.002": 20.2269825446,
			"-0.001": 23.6832908753,
			"0.0": 22.9346297084,
			"0.001": 20.0636601948,
			"0.002": 19.1316982002,
			"0.003": 23.2712869039,
			"0.004": 32.5579639767,
			"0.005": 20.7529401375,
			"0.006": 4.68104727433,
			"0.007": 2.1682120252,
			"0.008": 1.65849050471,
			"0.009": 2.12568002588,
			"0.01": 1.69866124662,
			"0.011": 1.02472888638,
			"0.012": 0.860951490706,
			"0.013": 1.79083639326,
			"0.014": 0.674717340866,
			"0.015": 0.528366275002,
			"0.016": 1.197409382,
			"0.017": 0.79684561581,
			"0.018": 0.0,
			"0.019": 0.0,
			"0.02": 0.0,
			"0.021": 0.0,
			"0.022": 0.0,
			"0.023": 0.0,
			"0.024": 0.0,
			"0.025": 0.0
		}
	}
}
