{
	 "smiles": "CC1=C(SC2=C1C(C)=C(S2)C(O)=O)C(O)=O", 
	 "Tm": 633.15, 
	 "num_atms": 24, 
	 "gaussian": { 
		 "optdone": 1, 
		 "sigma_profile": "yes", 
		 "theory": "DFT", 
		 "functional": "B3LYP", 
		 "basiset": "6-31G**", 
		 "properties": { 
			 "R2extent": 5831.6011, 
			 "electric_dipole_moment_norm": 4.14359446133, 
			 "electric_quadrupole_moment_norm": 28.6370181018, 
			 "total_energy": -1483.17085801, 
			 "HOMO_LUMO_gap": 0.17449, 
			 "cosmo_polarized_energy": -19.14, 
			 "cosmo_cavitation_energy": 31.25, 
			 "cosmo_dispersion_energy": -24.04, 
			 "cosmo_repulsion_energy": 1.75, 
			 "cosmo_total_nonelectrostatic_energy": 8.96, 
			 "SMD_solvation_energy": 6.78 
		},
		"coords": [
			{
				"x": 2.4220974442,
				"y": -0.1926958352,
				"z": 0.0348404597,
				"element": "C" 
			},
			{
				"x": 1.3034068201,
				"y": -1.0520903343,
				"z": 0.5592122979,
				"element": "C" 
			},
			{
				"x": 1.4296913459,
				"y": -1.9547031012,
				"z": 1.5982179401,
				"element": "C" 
			},
			{
				"x": -0.0721360004,
				"y": -2.8178676329,
				"z": 1.9701754239,
				"element": "S" 
			},
			{
				"x": -0.8702618641,
				"y": -1.9510137506,
				"z": 0.714328912,
				"element": "C" 
			},
			{
				"x": -0.041619177,
				"y": -1.0482259171,
				"z": 0.0412138649,
				"element": "C" 
			},
			{
				"x": -0.7464025796,
				"y": -0.3467031476,
				"z": -1.0044329357,
				"element": "C" 
			},
			{
				"x": -0.1243841485,
				"y": 0.7401078623,
				"z": -1.8477110075,
				"element": "C" 
			},
			{
				"x": -2.0592987504,
				"y": -0.7676062871,
				"z": -1.0861874167,
				"element": "C" 
			},
			{
				"x": -2.4908941683,
				"y": -1.9730966992,
				"z": 0.1313857958,
				"element": "S" 
			},
			{
				"x": -3.1860061862,
				"y": -0.3672175884,
				"z": -1.960754239,
				"element": "C" 
			},
			{
				"x": -2.8802426613,
				"y": 0.216257538,
				"z": -3.1523639883,
				"element": "O" 
			},
			{
				"x": -4.342502128,
				"y": -0.5574612704,
				"z": -1.6594891898,
				"element": "O" 
			},
			{
				"x": 2.6295627995,
				"y": -2.2658938419,
				"z": 2.3853564087,
				"element": "C" 
			},
			{
				"x": 2.3802336832,
				"y": -3.2207250801,
				"z": 3.3192560675,
				"element": "O" 
			},
			{
				"x": 3.7312716267,
				"y": -1.7628819159,
				"z": 2.2589938767,
				"element": "O" 
			},
			{
				"x": 2.4984765612,
				"y": -0.276338908,
				"z": -1.053833553,
				"element": "H" 
			},
			{
				"x": 3.3710896706,
				"y": -0.4791924164,
				"z": 0.4833132198,
				"element": "H" 
			},
			{
				"x": 2.2415033345,
				"y": 0.8630524348,
				"z": 0.2701387912,
				"element": "H" 
			},
			{
				"x": 0.4973177489,
				"y": 0.3275315844,
				"z": -2.6529533104,
				"element": "H" 
			},
			{
				"x": -0.8781591978,
				"y": 1.3944446567,
				"z": -2.2901942505,
				"element": "H" 
			},
			{
				"x": 0.5270251183,
				"y": 1.3718584845,
				"z": -1.2407274953,
				"element": "H" 
			},
			{
				"x": -1.9402806223,
				"y": 0.1070197246,
				"z": -3.3488918217,
				"element": "H" 
			},
			{
				"x": 3.2166113308,
				"y": -3.3640585593,
				"z": 3.7914061497,
				"element": "H" 
			}
		],
		 "valence_orbital": [ 
			{
				"type": "occ",
				"energy": -0.29499,
				"method": "rhf"
			},
			{
				"type": "occ",
				"energy": -0.28857,
				"method": "rhf"
			},
			{
				"type": "occ",
				"energy": -0.28426,
				"method": "rhf"
			},
			{
				"type": "occ",
				"energy": -0.24632,
				"method": "rhf"
			},
			{
				"type": "occ",
				"energy": -0.23985,
				"method": "rhf"
			},
			{
				"type": "unocc",
				"energy": -0.06536,
				"method": "rhf"
			},
			{
				"type": "unocc",
				"energy": -0.06117,
				"method": "rhf"
			},
			{
				"type": "unocc",
				"energy": -0.00436,
				"method": "rhf"
			},
			{
				"type": "unocc",
				"energy": 0.01573,
				"method": "rhf"
			},
			{
				"type": "unocc",
				"energy": 0.02951,
				"method": "rhf"
			}
		],
		"cosmo_sigma_profile": { 
			"-0.025": 0.0,
			"-0.024": 0.0,
			"-0.023": 0.0,
			"-0.022": 0.0,
			"-0.021": 0.0,
			"-0.02": 0.0,
			"-0.019": 0.186829690941,
			"-0.018": 1.26622348572,
			"-0.017": 1.76624981491,
			"-0.016": 1.64937595216,
			"-0.015": 1.42581451938,
			"-0.014": 1.94460741822,
			"-0.013": 1.65287783368,
			"-0.012": 1.37380416267,
			"-0.011": 1.61855969131,
			"-0.01": 1.56488335528,
			"-0.009": 1.83335096086,
			"-0.008": 3.17666218696,
			"-0.007": 6.40283701033,
			"-0.006": 12.2475926235,
			"-0.005": 12.5100031186,
			"-0.004": 12.0214472309,
			"-0.003": 14.5595619599,
			"-0.002": 16.635757492,
			"-0.001": 18.4538447528,
			"0.0": 27.8466583878,
			"0.001": 27.4334494241,
			"0.002": 15.4637781308,
			"0.003": 14.267155428,
			"0.004": 7.14616620846,
			"0.005": 6.4717244328,
			"0.006": 5.79794976067,
			"0.007": 5.45215132812,
			"0.008": 4.20675494849,
			"0.009": 6.022486166,
			"0.01": 7.15913711175,
			"0.011": 9.13973969429,
			"0.012": 4.92509131716,
			"0.013": 0.777324259513,
			"0.014": 0.0,
			"0.015": 0.0,
			"0.016": 0.0,
			"0.017": 0.0,
			"0.018": 0.0,
			"0.019": 0.0,
			"0.02": 0.0,
			"0.021": 0.0,
			"0.022": 0.0,
			"0.023": 0.0,
			"0.024": 0.0,
			"0.025": 0.0
		}
	}
}
