{
	 "smiles": "CC1=C(C=CC(N)=C1)S(C)(=O)=O", 
	 "Tm": 418.15, 
	 "num_atms": 23, 
	 "gaussian": { 
		 "optdone": 1, 
		 "sigma_profile": "yes", 
		 "theory": "DFT", 
		 "functional": "B3LYP", 
		 "basiset": "6-31G**", 
		 "properties": { 
			 "R2extent": 2712.6175, 
			 "electric_dipole_moment_norm": 6.05367171228, 
			 "electric_quadrupole_moment_norm": 17.5828422441, 
			 "total_energy": -914.809945598, 
			 "HOMO_LUMO_gap": 0.20335, 
			 "cosmo_polarized_energy": -20.88, 
			 "cosmo_cavitation_energy": 27.18, 
			 "cosmo_dispersion_energy": -20.44, 
			 "cosmo_repulsion_energy": 1.56, 
			 "cosmo_total_nonelectrostatic_energy": 8.3, 
			 "SMD_solvation_energy": 4.38 
		},
		"coords": [
			{
				"x": -0.8851558055,
				"y": -0.7115003139,
				"z": -1.5733083752,
				"element": "C" 
			},
			{
				"x": -0.5093835379,
				"y": 0.1442159511,
				"z": -0.3865733526,
				"element": "C" 
			},
			{
				"x": 0.8313501546,
				"y": 0.4771078833,
				"z": -0.0843021499,
				"element": "C" 
			},
			{
				"x": 1.1259300265,
				"y": 1.2694964449,
				"z": 1.0281969947,
				"element": "C" 
			},
			{
				"x": 0.1156998406,
				"y": 1.7455111617,
				"z": 1.8556344231,
				"element": "C" 
			},
			{
				"x": -1.2241739913,
				"y": 1.4313223217,
				"z": 1.5782926901,
				"element": "C" 
			},
			{
				"x": -2.252152315,
				"y": 1.9368742376,
				"z": 2.3592487334,
				"element": "N" 
			},
			{
				"x": -1.5064596461,
				"y": 0.6315116808,
				"z": 0.4552623367,
				"element": "C" 
			},
			{
				"x": 2.1300958974,
				"y": -0.1535659873,
				"z": -1.1557187737,
				"element": "S" 
			},
			{
				"x": 3.6800415756,
				"y": 0.4984657416,
				"z": -0.4882277045,
				"element": "C" 
			},
			{
				"x": 1.9670355706,
				"y": 0.4338217591,
				"z": -2.4983619882,
				"element": "O" 
			},
			{
				"x": 2.19106319,
				"y": -1.6206975934,
				"z": -1.0186205979,
				"element": "O" 
			},
			{
				"x": -1.9669190177,
				"y": -0.8582083489,
				"z": -1.6154826472,
				"element": "H" 
			},
			{
				"x": -0.5543628241,
				"y": -0.2473819323,
				"z": -2.5069582819,
				"element": "H" 
			},
			{
				"x": -0.3982025443,
				"y": -1.6896178269,
				"z": -1.5177133307,
				"element": "H" 
			},
			{
				"x": 2.1501154335,
				"y": 1.5276865673,
				"z": 1.2703676522,
				"element": "H" 
			},
			{
				"x": 0.3636771755,
				"y": 2.3638143173,
				"z": 2.7138343586,
				"element": "H" 
			},
			{
				"x": -3.133934846,
				"y": 1.4473356371,
				"z": 2.3127704097,
				"element": "H" 
			},
			{
				"x": -2.0064737974,
				"y": 2.2232227231,
				"z": 3.2956807583,
				"element": "H" 
			},
			{
				"x": -2.542053857,
				"y": 0.385766266,
				"z": 0.2318523159,
				"element": "H" 
			},
			{
				"x": 4.439625584,
				"y": 0.1053264015,
				"z": -1.1665203065,
				"element": "H" 
			},
			{
				"x": 3.8519857361,
				"y": 0.1202494677,
				"z": 0.5197592921,
				"element": "H" 
			},
			{
				"x": 3.6811519978,
				"y": 1.5882434407,
				"z": -0.5220124564,
				"element": "H" 
			}
		],
		 "valence_orbital": [ 
			{
				"type": "occ",
				"energy": -0.29744,
				"method": "rhf"
			},
			{
				"type": "occ",
				"energy": -0.28136,
				"method": "rhf"
			},
			{
				"type": "occ",
				"energy": -0.27604,
				"method": "rhf"
			},
			{
				"type": "occ",
				"energy": -0.25622,
				"method": "rhf"
			},
			{
				"type": "occ",
				"energy": -0.21711,
				"method": "rhf"
			},
			{
				"type": "unocc",
				"energy": -0.01376,
				"method": "rhf"
			},
			{
				"type": "unocc",
				"energy": -0.01124,
				"method": "rhf"
			},
			{
				"type": "unocc",
				"energy": 0.06146,
				"method": "rhf"
			},
			{
				"type": "unocc",
				"energy": 0.07045,
				"method": "rhf"
			},
			{
				"type": "unocc",
				"energy": 0.07564,
				"method": "rhf"
			}
		],
		"cosmo_sigma_profile": { 
			"-0.025": 0.0,
			"-0.024": 0.0,
			"-0.023": 0.0,
			"-0.022": 0.0,
			"-0.021": 0.0,
			"-0.02": 0.0,
			"-0.019": 0.0,
			"-0.018": 0.0,
			"-0.017": 0.0,
			"-0.016": 0.0,
			"-0.015": 0.0,
			"-0.014": 0.103116000352,
			"-0.013": 2.01499467282,
			"-0.012": 3.1308500476,
			"-0.011": 2.95488196167,
			"-0.01": 3.09244888132,
			"-0.009": 6.50096432856,
			"-0.008": 12.8495101263,
			"-0.007": 9.38518702098,
			"-0.006": 12.449564954,
			"-0.005": 11.8275635958,
			"-0.004": 10.7129322918,
			"-0.003": 12.363970304,
			"-0.002": 10.1493216727,
			"-0.001": 11.0926175906,
			"0.0": 12.6260115276,
			"0.001": 8.47356783709,
			"0.002": 7.66479179053,
			"0.003": 9.45709309879,
			"0.004": 15.9891185322,
			"0.005": 9.70576812065,
			"0.006": 3.94366261829,
			"0.007": 3.14506459358,
			"0.008": 4.12778951944,
			"0.009": 3.30188312265,
			"0.01": 3.37691556228,
			"0.011": 8.31236110064,
			"0.012": 11.4912677595,
			"0.013": 4.56254124592,
			"0.014": 0.0531850454132,
			"0.015": 0.0,
			"0.016": 0.0,
			"0.017": 0.0,
			"0.018": 0.0,
			"0.019": 0.0,
			"0.02": 0.0,
			"0.021": 0.0,
			"0.022": 0.0,
			"0.023": 0.0,
			"0.024": 0.0,
			"0.025": 0.0
		}
	}
}
