{
	 "smiles": "BrC1=CC(=CC=C1)C1=NC=CN1", 
	 "Tm": 403.15, 
	 "num_atms": 19, 
	 "gaussian": { 
		 "optdone": 1, 
		 "sigma_profile": "yes", 
		 "theory": "DFT", 
		 "functional": "B3LYP", 
		 "basiset": "6-31G**", 
		 "properties": { 
			 "R2extent": 4278.496, 
			 "electric_dipole_moment_norm": 2.03363753162, 
			 "electric_quadrupole_moment_norm": 17.9139888576, 
			 "total_energy": -3028.08548966, 
			 "HOMO_LUMO_gap": 0.17578, 
			 "cosmo_polarized_energy": -12.57, 
			 "cosmo_cavitation_energy": 25.78, 
			 "cosmo_dispersion_energy": -19.71, 
			 "cosmo_repulsion_energy": 1.55, 
			 "cosmo_total_nonelectrostatic_energy": 7.62, 
			 "SMD_solvation_energy": 2.06 
		},
		"coords": [
			{
				"x": 3.9404835411,
				"y": -0.6182181861,
				"z": -0.209156434,
				"element": "Br" 
			},
			{
				"x": 2.0927402784,
				"y": -0.1668928086,
				"z": 0.0028556929,
				"element": "C" 
			},
			{
				"x": 1.1650754192,
				"y": -0.6888374399,
				"z": -0.8936494506,
				"element": "C" 
			},
			{
				"x": -0.1949193923,
				"y": -0.3683863161,
				"z": -0.7536668139,
				"element": "C" 
			},
			{
				"x": -0.5901002386,
				"y": 0.4783014981,
				"z": 0.2964875023,
				"element": "C" 
			},
			{
				"x": 0.3545053517,
				"y": 0.9882853038,
				"z": 1.1806670979,
				"element": "C" 
			},
			{
				"x": 1.709373964,
				"y": 0.6725819018,
				"z": 1.0459525595,
				"element": "C" 
			},
			{
				"x": -1.2169595161,
				"y": -0.8872229734,
				"z": -1.6662909014,
				"element": "C" 
			},
			{
				"x": -2.5127526471,
				"y": -0.6209564163,
				"z": -1.5867246881,
				"element": "N" 
			},
			{
				"x": -3.1029819704,
				"y": -1.2990783577,
				"z": -2.6205977996,
				"element": "C" 
			},
			{
				"x": -2.1625859418,
				"y": -1.991442172,
				"z": -3.3461485274,
				"element": "C" 
			},
			{
				"x": -0.9622478684,
				"y": -1.7213290333,
				"z": -2.7283466278,
				"element": "N" 
			},
			{
				"x": 1.5168629449,
				"y": -1.3377187294,
				"z": -1.6881743248,
				"element": "H" 
			},
			{
				"x": -1.6422366374,
				"y": 0.7191069726,
				"z": 0.3951922807,
				"element": "H" 
			},
			{
				"x": 0.0388048154,
				"y": 1.6416481618,
				"z": 1.9887664697,
				"element": "H" 
			},
			{
				"x": 2.4486413201,
				"y": 1.0677793878,
				"z": 1.7326472113,
				"element": "H" 
			},
			{
				"x": -4.1698551221,
				"y": -1.2548292431,
				"z": -2.789394727,
				"element": "H" 
			},
			{
				"x": -2.2321897119,
				"y": -2.6288185283,
				"z": -4.2139328228,
				"element": "H" 
			},
			{
				"x": -0.0637585888,
				"y": -2.0778730215,
				"z": -3.013585697,
				"element": "H" 
			}
		],
		 "valence_orbital": [ 
			{
				"type": "occ",
				"energy": -0.289,
				"method": "rhf"
			},
			{
				"type": "occ",
				"energy": -0.27969,
				"method": "rhf"
			},
			{
				"type": "occ",
				"energy": -0.27252,
				"method": "rhf"
			},
			{
				"type": "occ",
				"energy": -0.24785,
				"method": "rhf"
			},
			{
				"type": "occ",
				"energy": -0.21464,
				"method": "rhf"
			},
			{
				"type": "unocc",
				"energy": -0.03886,
				"method": "rhf"
			},
			{
				"type": "unocc",
				"energy": -0.01507,
				"method": "rhf"
			},
			{
				"type": "unocc",
				"energy": 0.00362,
				"method": "rhf"
			},
			{
				"type": "unocc",
				"energy": 0.04598,
				"method": "rhf"
			},
			{
				"type": "unocc",
				"energy": 0.05875,
				"method": "rhf"
			}
		],
		"cosmo_sigma_profile": { 
			"-0.025": 0.0,
			"-0.024": 0.0,
			"-0.023": 0.0,
			"-0.022": 0.0,
			"-0.021": 0.0,
			"-0.02": 0.0,
			"-0.019": 0.0,
			"-0.018": 0.0,
			"-0.017": 0.908420309749,
			"-0.016": 1.50546938026,
			"-0.015": 1.63340248818,
			"-0.014": 1.47722098678,
			"-0.013": 1.27095030377,
			"-0.012": 1.56685362158,
			"-0.011": 1.29774484353,
			"-0.01": 0.751502951217,
			"-0.009": 2.63207804698,
			"-0.008": 4.30016140129,
			"-0.007": 5.880917421,
			"-0.006": 8.75291243246,
			"-0.005": 9.87156576031,
			"-0.004": 10.8604618096,
			"-0.003": 11.0805343749,
			"-0.002": 9.82219773335,
			"-0.001": 10.3507164295,
			"0.0": 12.183532908,
			"0.001": 14.9749626346,
			"0.002": 22.5483684881,
			"0.003": 27.9015545119,
			"0.004": 21.1282257986,
			"0.005": 11.7601627434,
			"0.006": 3.42364317695,
			"0.007": 2.62185936153,
			"0.008": 1.05928824044,
			"0.009": 2.41617561522,
			"0.01": 1.61036296538,
			"0.011": 0.959799221136,
			"0.012": 0.988936696798,
			"0.013": 0.860106851364,
			"0.014": 1.13987351846,
			"0.015": 1.11173729615,
			"0.016": 0.501802219449,
			"0.017": 0.0,
			"0.018": 0.0,
			"0.019": 0.0,
			"0.02": 0.0,
			"0.021": 0.0,
			"0.022": 0.0,
			"0.023": 0.0,
			"0.024": 0.0,
			"0.025": 0.0
		}
	}
}
