{
	 "smiles": "CC(C=CC=C(/C)C=CC1C(C)=CCCC1(C)C)=CC=CC=C(/C)C=CC=C(/C)C=CC1=C(C)CCCC1(C)C", 
	 "Tm": 461.15, 
	 "num_atms": 96, 
	 "gaussian": { 
		 "optdone": 1, 
		 "sigma_profile": "yes", 
		 "theory": "DFT", 
		 "functional": "B3LYP", 
		 "basiset": "6-31G**", 
		 "properties": { 
			 "R2extent": 61171.9405, 
			 "electric_dipole_moment_norm": 1.15242806283, 
			 "electric_quadrupole_moment_norm": 16.1932740945, 
			 "total_energy": -1557.9181331, 
			 "HOMO_LUMO_gap": 0.09235, 
			 "cosmo_polarized_energy": -9.73, 
			 "cosmo_cavitation_energy": 92.72, 
			 "cosmo_dispersion_energy": -60.08, 
			 "cosmo_repulsion_energy": 4.6, 
			 "cosmo_total_nonelectrostatic_energy": 37.23, 
			 "SMD_solvation_energy": 15.26 
		},
		"coords": [
			{
				"x": -5.5039514876,
				"y": -0.6332429361,
				"z": -5.6696320132,
				"element": "C" 
			},
			{
				"x": -4.4904313258,
				"y": -0.5006038331,
				"z": -4.5525213632,
				"element": "C" 
			},
			{
				"x": -5.0627655057,
				"y": -0.274054878,
				"z": -3.2310045168,
				"element": "C" 
			},
			{
				"x": -4.5428898845,
				"y": 0.4661707966,
				"z": -2.2158814078,
				"element": "C" 
			},
			{
				"x": -5.2106297464,
				"y": 0.6459479902,
				"z": -0.9509274763,
				"element": "C" 
			},
			{
				"x": -4.7816599663,
				"y": 1.3737368604,
				"z": 0.1172528876,
				"element": "C" 
			},
			{
				"x": -3.4473769536,
				"y": 2.0812373107,
				"z": 0.1723161616,
				"element": "C" 
			},
			{
				"x": -5.5973937432,
				"y": 1.5071408723,
				"z": 1.333336949,
				"element": "C" 
			},
			{
				"x": -6.9407186796,
				"y": 1.4830781228,
				"z": 1.4007623345,
				"element": "C" 
			},
			{
				"x": -7.7783977881,
				"y": 1.6144160744,
				"z": 2.6615045388,
				"element": "C" 
			},
			{
				"x": -7.0078972925,
				"y": 1.2103766464,
				"z": 3.9129033983,
				"element": "C" 
			},
			{
				"x": -6.7831914018,
				"y": -0.2692586601,
				"z": 4.1051225017,
				"element": "C" 
			},
			{
				"x": -6.5603647877,
				"y": 2.1151733835,
				"z": 4.7949599094,
				"element": "C" 
			},
			{
				"x": -6.7952640571,
				"y": 3.5986253145,
				"z": 4.6923006098,
				"element": "C" 
			},
			{
				"x": -7.3753361381,
				"y": 4.0125262295,
				"z": 3.3324431847,
				"element": "C" 
			},
			{
				"x": -8.4476175171,
				"y": 3.0311730744,
				"z": 2.8122852393,
				"element": "C" 
			},
			{
				"x": -8.9932349035,
				"y": 3.5413132385,
				"z": 1.4663465809,
				"element": "C" 
			},
			{
				"x": -9.6281404391,
				"y": 2.9286057191,
				"z": 3.8001511319,
				"element": "C" 
			},
			{
				"x": -3.1574440367,
				"y": -0.6175200644,
				"z": -4.8367042634,
				"element": "C" 
			},
			{
				"x": -2.0546050094,
				"y": -0.6905057028,
				"z": -3.9164455525,
				"element": "C" 
			},
			{
				"x": -0.7519370981,
				"y": -0.6942250199,
				"z": -4.329718994,
				"element": "C" 
			},
			{
				"x": 0.4602870684,
				"y": -0.8062989388,
				"z": -3.5581574056,
				"element": "C" 
			},
			{
				"x": 0.6672346412,
				"y": -1.2843613989,
				"z": -2.2897132866,
				"element": "C" 
			},
			{
				"x": -0.4237959094,
				"y": -1.9290917335,
				"z": -1.465048083,
				"element": "C" 
			},
			{
				"x": 1.9845788745,
				"y": -1.2407636653,
				"z": -1.6732387245,
				"element": "C" 
			},
			{
				"x": 3.0190381999,
				"y": -0.4122594295,
				"z": -1.9877085232,
				"element": "C" 
			},
			{
				"x": 4.3001573,
				"y": -0.473871373,
				"z": -1.33911578,
				"element": "C" 
			},
			{
				"x": 5.3850738654,
				"y": 0.3246228345,
				"z": -1.5609498725,
				"element": "C" 
			},
			{
				"x": 5.3766377085,
				"y": 1.4979038974,
				"z": -2.5145173991,
				"element": "C" 
			},
			{
				"x": 6.6567749711,
				"y": 0.0977766671,
				"z": -0.8708438568,
				"element": "C" 
			},
			{
				"x": 7.1148700701,
				"y": -1.0831268609,
				"z": -0.3951710998,
				"element": "C" 
			},
			{
				"x": 8.3902534243,
				"y": -1.3241315565,
				"z": 0.3035081465,
				"element": "C" 
			},
			{
				"x": 8.8395078656,
				"y": -0.5466723668,
				"z": 1.3227059144,
				"element": "C" 
			},
			{
				"x": 8.0922854141,
				"y": 0.640020738,
				"z": 1.8859680799,
				"element": "C" 
			},
			{
				"x": 10.1627617876,
				"y": -0.7980621149,
				"z": 2.022005948,
				"element": "C" 
			},
			{
				"x": 10.7466606971,
				"y": -2.1904707815,
				"z": 1.7813515898,
				"element": "C" 
			},
			{
				"x": 10.6237401796,
				"y": -2.552288741,
				"z": 0.3038327481,
				"element": "C" 
			},
			{
				"x": 9.1587973689,
				"y": -2.5750889579,
				"z": -0.1894876033,
				"element": "C" 
			},
			{
				"x": 8.4532051036,
				"y": -3.8558219918,
				"z": 0.3209550975,
				"element": "C" 
			},
			{
				"x": 9.1909461961,
				"y": -2.6136903194,
				"z": -1.7345511732,
				"element": "C" 
			},
			{
				"x": -6.2049383406,
				"y": -1.4533388393,
				"z": -5.4646260592,
				"element": "H" 
			},
			{
				"x": -6.1094496938,
				"y": 0.2761232643,
				"z": -5.7723705609,
				"element": "H" 
			},
			{
				"x": -5.0245949197,
				"y": -0.8347004976,
				"z": -6.6311143662,
				"element": "H" 
			},
			{
				"x": -6.0599026912,
				"y": -0.6934918952,
				"z": -3.0790608868,
				"element": "H" 
			},
			{
				"x": -3.5991733201,
				"y": 0.9781269032,
				"z": -2.3781482298,
				"element": "H" 
			},
			{
				"x": -6.1601769949,
				"y": 0.1221523135,
				"z": -0.8475311068,
				"element": "H" 
			},
			{
				"x": -3.5839390117,
				"y": 3.1682082797,
				"z": 0.2381106596,
				"element": "H" 
			},
			{
				"x": -2.8116031097,
				"y": 1.8748410442,
				"z": -0.6896459377,
				"element": "H" 
			},
			{
				"x": -2.8965168743,
				"y": 1.7825364812,
				"z": 1.0730429104,
				"element": "H" 
			},
			{
				"x": -5.0434902685,
				"y": 1.6705348818,
				"z": 2.2584183318,
				"element": "H" 
			},
			{
				"x": -7.5050844571,
				"y": 1.3785700176,
				"z": 0.4755794632,
				"element": "H" 
			},
			{
				"x": -8.6076843506,
				"y": 0.8975238663,
				"z": 2.5427756099,
				"element": "H" 
			},
			{
				"x": -6.2836750135,
				"y": -0.7120841563,
				"z": 3.235740027,
				"element": "H" 
			},
			{
				"x": -7.7386398327,
				"y": -0.7982111347,
				"z": 4.222286073,
				"element": "H" 
			},
			{
				"x": -6.1745132575,
				"y": -0.4732811453,
				"z": 4.990787428,
				"element": "H" 
			},
			{
				"x": -6.0218759856,
				"y": 1.7667976624,
				"z": 5.6765166537,
				"element": "H" 
			},
			{
				"x": -5.8585068225,
				"y": 4.1406121693,
				"z": 4.880122842,
				"element": "H" 
			},
			{
				"x": -7.4710777971,
				"y": 3.9062191209,
				"z": 5.5050779169,
				"element": "H" 
			},
			{
				"x": -7.7982707275,
				"y": 5.0229628231,
				"z": 3.3959391544,
				"element": "H" 
			},
			{
				"x": -6.5667592701,
				"y": 4.0567761526,
				"z": 2.5925727947,
				"element": "H" 
			},
			{
				"x": -9.5332553173,
				"y": 4.4837591026,
				"z": 1.6116972635,
				"element": "H" 
			},
			{
				"x": -9.6948354861,
				"y": 2.8255188197,
				"z": 1.0210906073,
				"element": "H" 
			},
			{
				"x": -8.19274485,
				"y": 3.7244700604,
				"z": 0.7435278782,
				"element": "H" 
			},
			{
				"x": -9.3282536365,
				"y": 2.4964701917,
				"z": 4.7583370652,
				"element": "H" 
			},
			{
				"x": -10.0581671116,
				"y": 3.9183018974,
				"z": 3.9925819429,
				"element": "H" 
			},
			{
				"x": -10.4235392143,
				"y": 2.2983228734,
				"z": 3.3857824681,
				"element": "H" 
			},
			{
				"x": -2.8908356007,
				"y": -0.7200702411,
				"z": -5.8890538021,
				"element": "H" 
			},
			{
				"x": -2.2884521934,
				"y": -0.7485704694,
				"z": -2.8601202549,
				"element": "H" 
			},
			{
				"x": -0.5882936192,
				"y": -0.5569752644,
				"z": -5.3998150608,
				"element": "H" 
			},
			{
				"x": 1.3530018226,
				"y": -0.4999250156,
				"z": -4.1003247403,
				"element": "H" 
			},
			{
				"x": -1.1445845144,
				"y": -2.4632438269,
				"z": -2.0909539201,
				"element": "H" 
			},
			{
				"x": 0.0028326683,
				"y": -2.6376301991,
				"z": -0.7475899349,
				"element": "H" 
			},
			{
				"x": -0.9847130497,
				"y": -1.1881426859,
				"z": -0.8805780556,
				"element": "H" 
			},
			{
				"x": 2.1404628162,
				"y": -1.9381333142,
				"z": -0.8488661124,
				"element": "H" 
			},
			{
				"x": 2.8682729568,
				"y": 0.3383647353,
				"z": -2.7594481471,
				"element": "H" 
			},
			{
				"x": 4.399589047,
				"y": -1.2453886631,
				"z": -0.576452961,
				"element": "H" 
			},
			{
				"x": 5.7911561362,
				"y": 2.3877863612,
				"z": -2.0250026684,
				"element": "H" 
			},
			{
				"x": 4.3784171723,
				"y": 1.7535932302,
				"z": -2.8727155898,
				"element": "H" 
			},
			{
				"x": 6.0094055367,
				"y": 1.3000940253,
				"z": -3.3893771951,
				"element": "H" 
			},
			{
				"x": 7.3066384079,
				"y": 0.9685430743,
				"z": -0.7898113303,
				"element": "H" 
			},
			{
				"x": 6.5205885586,
				"y": -1.9707485391,
				"z": -0.6117598028,
				"element": "H" 
			},
			{
				"x": 8.1164888723,
				"y": 0.6120992632,
				"z": 2.9826813957,
				"element": "H" 
			},
			{
				"x": 7.0518517469,
				"y": 0.6804832475,
				"z": 1.5633308542,
				"element": "H" 
			},
			{
				"x": 8.5691311312,
				"y": 1.5863968903,
				"z": 1.5943435892,
				"element": "H" 
			},
			{
				"x": 10.8809404947,
				"y": -0.0315783729,
				"z": 1.6871652358,
				"element": "H" 
			},
			{
				"x": 10.037122421,
				"y": -0.6195846411,
				"z": 3.0981972208,
				"element": "H" 
			},
			{
				"x": 10.2123188868,
				"y": -2.9254575624,
				"z": 2.3954960361,
				"element": "H" 
			},
			{
				"x": 11.7947042595,
				"y": -2.222900514,
				"z": 2.1012830087,
				"element": "H" 
			},
			{
				"x": 11.1835858825,
				"y": -1.814126996,
				"z": -0.2870436951,
				"element": "H" 
			},
			{
				"x": 11.0835567555,
				"y": -3.5274418949,
				"z": 0.0990766436,
				"element": "H" 
			},
			{
				"x": 8.9653378662,
				"y": -4.7488107043,
				"z": -0.0564577474,
				"element": "H" 
			},
			{
				"x": 8.4435441306,
				"y": -3.9046356186,
				"z": 1.4136476667,
				"element": "H" 
			},
			{
				"x": 7.4140807896,
				"y": -3.9085528566,
				"z": -0.0189393107,
				"element": "H" 
			},
			{
				"x": 8.1927828159,
				"y": -2.7223011127,
				"z": -2.1678985297,
				"element": "H" 
			},
			{
				"x": 9.6318859475,
				"y": -1.6973479361,
				"z": -2.1409291792,
				"element": "H" 
			},
			{
				"x": 9.7968831447,
				"y": -3.4611491026,
				"z": -2.0759481126,
				"element": "H" 
			}
		],
		 "valence_orbital": [ 
			{
				"type": "occ",
				"energy": -0.23297,
				"method": "rhf"
			},
			{
				"type": "occ",
				"energy": -0.23081,
				"method": "rhf"
			},
			{
				"type": "occ",
				"energy": -0.21354,
				"method": "rhf"
			},
			{
				"type": "occ",
				"energy": -0.19249,
				"method": "rhf"
			},
			{
				"type": "occ",
				"energy": -0.16399,
				"method": "rhf"
			},
			{
				"type": "unocc",
				"energy": -0.07164,
				"method": "rhf"
			},
			{
				"type": "unocc",
				"energy": -0.04254,
				"method": "rhf"
			},
			{
				"type": "unocc",
				"energy": -0.0138,
				"method": "rhf"
			},
			{
				"type": "unocc",
				"energy": 0.01814,
				"method": "rhf"
			},
			{
				"type": "unocc",
				"energy": 0.03171,
				"method": "rhf"
			}
		],
		"cosmo_sigma_profile": { 
			"-0.025": 0.0,
			"-0.024": 0.0,
			"-0.023": 0.0,
			"-0.022": 0.0,
			"-0.021": 0.0,
			"-0.02": 0.0,
			"-0.019": 0.0,
			"-0.018": 0.0,
			"-0.017": 0.0,
			"-0.016": 0.0,
			"-0.015": 0.0,
			"-0.014": 0.0,
			"-0.013": 0.0,
			"-0.012": 0.0,
			"-0.011": 0.0,
			"-0.01": 0.0,
			"-0.009": 0.0,
			"-0.008": 0.0,
			"-0.007": 0.0,
			"-0.006": 1.93549267693,
			"-0.005": 10.3132363694,
			"-0.004": 46.3175700597,
			"-0.003": 70.0169311443,
			"-0.002": 102.251965801,
			"-0.001": 103.150120722,
			"0.0": 111.496425992,
			"0.001": 96.7618740866,
			"0.002": 58.6296493043,
			"0.003": 29.5889168449,
			"0.004": 31.9371574959,
			"0.005": 33.3584706505,
			"0.006": 24.4076090285,
			"0.007": 2.00448456711,
			"0.008": 0.0,
			"0.009": 0.0,
			"0.01": 0.0,
			"0.011": 0.0,
			"0.012": 0.0,
			"0.013": 0.0,
			"0.014": 0.0,
			"0.015": 0.0,
			"0.016": 0.0,
			"0.017": 0.0,
			"0.018": 0.0,
			"0.019": 0.0,
			"0.02": 0.0,
			"0.021": 0.0,
			"0.022": 0.0,
			"0.023": 0.0,
			"0.024": 0.0,
			"0.025": 0.0
		}
	}
}
