{
	 "smiles": "NC(=O)N1CCCC1", 
	 "Tm": 496.15, 
	 "num_atms": 18, 
	 "gaussian": { 
		 "optdone": 1, 
		 "sigma_profile": "yes", 
		 "theory": "DFT", 
		 "functional": "B3LYP", 
		 "basiset": "6-31G**", 
		 "properties": { 
			 "R2extent": 1509.3764, 
			 "electric_dipole_moment_norm": 3.99246821027, 
			 "electric_quadrupole_moment_norm": 15.4852966736, 
			 "total_energy": -381.312045454, 
			 "HOMO_LUMO_gap": 0.2873, 
			 "cosmo_polarized_energy": -13.01, 
			 "cosmo_cavitation_energy": 20.11, 
			 "cosmo_dispersion_energy": -15.37, 
			 "cosmo_repulsion_energy": 1.3, 
			 "cosmo_total_nonelectrostatic_energy": 6.04, 
			 "SMD_solvation_energy": 3.16 
		},
		"coords": [
			{
				"x": 0.5538681571,
				"y": -1.1888971791,
				"z": 2.4231512733,
				"element": "N" 
			},
			{
				"x": 1.6262513389,
				"y": -0.4729565019,
				"z": 1.886106635,
				"element": "C" 
			},
			{
				"x": 2.6643921213,
				"y": -0.2824504019,
				"z": 2.5127530417,
				"element": "O" 
			},
			{
				"x": 1.4182553776,
				"y": 0.032132314,
				"z": 0.6280015471,
				"element": "N" 
			},
			{
				"x": 2.4460262448,
				"y": 0.8740680985,
				"z": 0.0047267362,
				"element": "C" 
			},
			{
				"x": 1.8439070646,
				"y": 1.195479295,
				"z": -1.3698478192,
				"element": "C" 
			},
			{
				"x": 0.3303584055,
				"y": 1.2244390062,
				"z": -1.0936101927,
				"element": "C" 
			},
			{
				"x": 0.1341091178,
				"y": 0.0853189561,
				"z": -0.0779111207,
				"element": "C" 
			},
			{
				"x": 0.829958879,
				"y": -1.6961853836,
				"z": 3.2524479772,
				"element": "H" 
			},
			{
				"x": -0.0204233789,
				"y": -1.7264438914,
				"z": 1.7881911699,
				"element": "H" 
			},
			{
				"x": 2.6140940748,
				"y": 1.7816936059,
				"z": 0.5998732045,
				"element": "H" 
			},
			{
				"x": 3.3993817122,
				"y": 0.3415307101,
				"z": -0.0492867495,
				"element": "H" 
			},
			{
				"x": 2.0812964375,
				"y": 0.3963933158,
				"z": -2.0817896209,
				"element": "H" 
			},
			{
				"x": 2.2228241062,
				"y": 2.1340888907,
				"z": -1.7827984989,
				"element": "H" 
			},
			{
				"x": 0.0516268779,
				"y": 2.1795168145,
				"z": -0.6344645212,
				"element": "H" 
			},
			{
				"x": -0.2797693772,
				"y": 1.0939151955,
				"z": -1.9915215244,
				"element": "H" 
			},
			{
				"x": -0.6891370596,
				"y": 0.2785913164,
				"z": 0.618576242,
				"element": "H" 
			},
			{
				"x": -0.0776200995,
				"y": -0.8652341608,
				"z": -0.5933977794,
				"element": "H" 
			}
		],
		 "valence_orbital": [ 
			{
				"type": "occ",
				"energy": -0.35165,
				"method": "rhf"
			},
			{
				"type": "occ",
				"energy": -0.3376,
				"method": "rhf"
			},
			{
				"type": "occ",
				"energy": -0.2625,
				"method": "rhf"
			},
			{
				"type": "occ",
				"energy": -0.2397,
				"method": "rhf"
			},
			{
				"type": "occ",
				"energy": -0.22591,
				"method": "rhf"
			},
			{
				"type": "unocc",
				"energy": 0.06139,
				"method": "rhf"
			},
			{
				"type": "unocc",
				"energy": 0.07565,
				"method": "rhf"
			},
			{
				"type": "unocc",
				"energy": 0.09003,
				"method": "rhf"
			},
			{
				"type": "unocc",
				"energy": 0.11816,
				"method": "rhf"
			},
			{
				"type": "unocc",
				"energy": 0.13168,
				"method": "rhf"
			}
		],
		"cosmo_sigma_profile": { 
			"-0.025": 0.0,
			"-0.024": 0.0,
			"-0.023": 0.0,
			"-0.022": 0.0,
			"-0.021": 0.0,
			"-0.02": 0.0,
			"-0.019": 0.0,
			"-0.018": 0.0,
			"-0.017": 0.0,
			"-0.016": 0.0,
			"-0.015": 0.0,
			"-0.014": 0.0,
			"-0.013": 0.70249119379,
			"-0.012": 2.27013979464,
			"-0.011": 2.30193161517,
			"-0.01": 2.59848611943,
			"-0.009": 2.60324810266,
			"-0.008": 2.54001045062,
			"-0.007": 1.73866723996,
			"-0.006": 1.7889083081,
			"-0.005": 3.24567637995,
			"-0.004": 13.4534826837,
			"-0.003": 23.3835469483,
			"-0.002": 24.7153069338,
			"-0.001": 16.8109469663,
			"0.0": 12.6954046742,
			"0.001": 4.9231709145,
			"0.002": 4.27653872391,
			"0.003": 3.84288418196,
			"0.004": 3.30547054587,
			"0.005": 2.2340142699,
			"0.006": 1.62089041546,
			"0.007": 2.20511072027,
			"0.008": 2.68581035577,
			"0.009": 1.84020864027,
			"0.01": 1.98706264838,
			"0.011": 1.68356959926,
			"0.012": 1.71980205563,
			"0.013": 1.86613381435,
			"0.014": 3.26895734757,
			"0.015": 6.45950372259,
			"0.016": 1.40225644073,
			"0.017": 0.0,
			"0.018": 0.0,
			"0.019": 0.0,
			"0.02": 0.0,
			"0.021": 0.0,
			"0.022": 0.0,
			"0.023": 0.0,
			"0.024": 0.0,
			"0.025": 0.0
		}
	}
}
