{
	 "smiles": "CCC1=C(C(N)=NN1)C1=CC2=C(OCO2)C=C1", 
	 "Tm": 371.15, 
	 "num_atms": 30, 
	 "gaussian": { 
		 "optdone": 1, 
		 "sigma_profile": "yes", 
		 "theory": "DFT", 
		 "functional": "B3LYP", 
		 "basiset": "6-31G**", 
		 "properties": { 
			 "R2extent": 5020.1644, 
			 "electric_dipole_moment_norm": 1.85506041411, 
			 "electric_quadrupole_moment_norm": 17.3152465683, 
			 "total_energy": -779.782006013, 
			 "HOMO_LUMO_gap": 0.18619, 
			 "cosmo_polarized_energy": -15.43, 
			 "cosmo_cavitation_energy": 33.19, 
			 "cosmo_dispersion_energy": -24.3, 
			 "cosmo_repulsion_energy": 1.91, 
			 "cosmo_total_nonelectrostatic_energy": 10.81, 
			 "SMD_solvation_energy": 5.08 
		},
		"coords": [
			{
				"x": 2.3942444936,
				"y": -0.8907371,
				"z": 1.9047059471,
				"element": "C" 
			},
			{
				"x": 0.9955186566,
				"y": -1.0511507198,
				"z": 2.5261008926,
				"element": "C" 
			},
			{
				"x": 0.0862173442,
				"y": -1.9422021169,
				"z": 1.7280308388,
				"element": "C" 
			},
			{
				"x": -0.4533369949,
				"y": -1.8470392819,
				"z": 0.4425677642,
				"element": "C" 
			},
			{
				"x": -1.1478152894,
				"y": -3.0862504577,
				"z": 0.2685475442,
				"element": "C" 
			},
			{
				"x": -1.8213705631,
				"y": -3.5171427275,
				"z": -0.8773031481,
				"element": "N" 
			},
			{
				"x": -1.0649319502,
				"y": -3.8703423352,
				"z": 1.3388955415,
				"element": "N" 
			},
			{
				"x": -0.2989468037,
				"y": -3.1522885368,
				"z": 2.2040116491,
				"element": "N" 
			},
			{
				"x": -0.3414862066,
				"y": -0.7498442666,
				"z": -0.5352337401,
				"element": "C" 
			},
			{
				"x": -0.153711127,
				"y": -1.0558576033,
				"z": -1.9092498238,
				"element": "C" 
			},
			{
				"x": -0.0506103984,
				"y": -0.001232513,
				"z": -2.7913334637,
				"element": "C" 
			},
			{
				"x": -0.1188558075,
				"y": 1.3270283279,
				"z": -2.3781907073,
				"element": "C" 
			},
			{
				"x": -0.0072469396,
				"y": 2.1598557145,
				"z": -3.4684143438,
				"element": "O" 
			},
			{
				"x": 0.3238116273,
				"y": 1.3048395463,
				"z": -4.5682161407,
				"element": "C" 
			},
			{
				"x": 0.1112217355,
				"y": -0.0496746365,
				"z": -4.1576471135,
				"element": "O" 
			},
			{
				"x": -0.3060785711,
				"y": 1.658492694,
				"z": -1.0514566018,
				"element": "C" 
			},
			{
				"x": -0.4239705729,
				"y": 0.5958008642,
				"z": -0.1385900624,
				"element": "C" 
			},
			{
				"x": 3.0222493177,
				"y": -0.2475523666,
				"z": 2.5296604425,
				"element": "H" 
			},
			{
				"x": 2.3276877883,
				"y": -0.4413662936,
				"z": 0.9105292671,
				"element": "H" 
			},
			{
				"x": 2.8901242668,
				"y": -1.8609380555,
				"z": 1.803985516,
				"element": "H" 
			},
			{
				"x": 0.5404106731,
				"y": -0.0628716174,
				"z": 2.6538698693,
				"element": "H" 
			},
			{
				"x": 1.0893040947,
				"y": -1.4673912459,
				"z": 3.5374524614,
				"element": "H" 
			},
			{
				"x": -2.3395659778,
				"y": -2.7774349664,
				"z": -1.336394924,
				"element": "H" 
			},
			{
				"x": -2.4182797762,
				"y": -4.3112328338,
				"z": -0.6768960105,
				"element": "H" 
			},
			{
				"x": -0.0711012493,
				"y": -3.5519040277,
				"z": 3.100190007,
				"element": "H" 
			},
			{
				"x": -0.0862269653,
				"y": -2.0834335416,
				"z": -2.2470738745,
				"element": "H" 
			},
			{
				"x": 1.3812167432,
				"y": 1.445365443,
				"z": -4.8378133336,
				"element": "H" 
			},
			{
				"x": -0.3267887216,
				"y": 1.5353418936,
				"z": -5.4173887942,
				"element": "H" 
			},
			{
				"x": -0.3749085578,
				"y": 2.6924629868,
				"z": -0.7321530309,
				"element": "H" 
			},
			{
				"x": -0.6067742686,
				"y": 0.8272997733,
				"z": 0.9051073719,
				"element": "H" 
			}
		],
		 "valence_orbital": [ 
			{
				"type": "occ",
				"energy": -0.27746,
				"method": "rhf"
			},
			{
				"type": "occ",
				"energy": -0.25179,
				"method": "rhf"
			},
			{
				"type": "occ",
				"energy": -0.22723,
				"method": "rhf"
			},
			{
				"type": "occ",
				"energy": -0.20429,
				"method": "rhf"
			},
			{
				"type": "occ",
				"energy": -0.18756,
				"method": "rhf"
			},
			{
				"type": "unocc",
				"energy": -0.00137,
				"method": "rhf"
			},
			{
				"type": "unocc",
				"energy": 0.00502,
				"method": "rhf"
			},
			{
				"type": "unocc",
				"energy": 0.0409,
				"method": "rhf"
			},
			{
				"type": "unocc",
				"energy": 0.08001,
				"method": "rhf"
			},
			{
				"type": "unocc",
				"energy": 0.08764,
				"method": "rhf"
			}
		],
		"cosmo_sigma_profile": { 
			"-0.025": 0.0,
			"-0.024": 0.0,
			"-0.023": 0.0,
			"-0.022": 0.0,
			"-0.021": 0.0,
			"-0.02": 0.0,
			"-0.019": 0.0,
			"-0.018": 0.0,
			"-0.017": 0.0,
			"-0.016": 0.22688869869,
			"-0.015": 1.30459592772,
			"-0.014": 1.16797892588,
			"-0.013": 1.15166097059,
			"-0.012": 2.3057305768,
			"-0.011": 3.00990197576,
			"-0.01": 2.17564698952,
			"-0.009": 4.36545906567,
			"-0.008": 5.87582630168,
			"-0.007": 9.55394690021,
			"-0.006": 13.5781234399,
			"-0.005": 13.3942148084,
			"-0.004": 13.107781916,
			"-0.003": 16.1315083553,
			"-0.002": 18.7964011925,
			"-0.001": 19.7220100774,
			"0.0": 18.0777860098,
			"0.001": 18.0690563048,
			"0.002": 14.7342650187,
			"0.003": 16.9579256922,
			"0.004": 17.8171994427,
			"0.005": 13.5853400842,
			"0.006": 7.48428820807,
			"0.007": 4.52932158892,
			"0.008": 5.51120376721,
			"0.009": 5.93015704499,
			"0.01": 5.40337712414,
			"0.011": 1.46746117981,
			"0.012": 1.76251548374,
			"0.013": 1.47840194952,
			"0.014": 1.56354829063,
			"0.015": 1.56363668274,
			"0.016": 0.849570831464,
			"0.017": 0.576207220283,
			"0.018": 0.0,
			"0.019": 0.0,
			"0.02": 0.0,
			"0.021": 0.0,
			"0.022": 0.0,
			"0.023": 0.0,
			"0.024": 0.0,
			"0.025": 0.0
		}
	}
}
