{
	 "smiles": "CC1=NNC(=N1)C1=CC=C(N)C=C1", 
	 "Tm": 453.15, 
	 "num_atms": 23, 
	 "gaussian": { 
		 "optdone": 1, 
		 "sigma_profile": "yes", 
		 "theory": "DFT", 
		 "functional": "B3LYP", 
		 "basiset": "6-31G**", 
		 "properties": { 
			 "R2extent": 3890.2472, 
			 "electric_dipole_moment_norm": 4.50599954838, 
			 "electric_quadrupole_moment_norm": 19.9578523852, 
			 "total_energy": -567.998695513, 
			 "HOMO_LUMO_gap": 0.17554, 
			 "cosmo_polarized_energy": -17.58, 
			 "cosmo_cavitation_energy": 27.33, 
			 "cosmo_dispersion_energy": -20.53, 
			 "cosmo_repulsion_energy": 1.63, 
			 "cosmo_total_nonelectrostatic_energy": 8.42, 
			 "SMD_solvation_energy": 2.09 
		},
		"coords": [
			{
				"x": -2.3790914447,
				"y": -0.3292126002,
				"z": -2.322103617,
				"element": "C" 
			},
			{
				"x": -1.4827426149,
				"y": 0.117522774,
				"z": -1.2092391238,
				"element": "C" 
			},
			{
				"x": -1.9508390249,
				"y": 0.557824834,
				"z": -0.0456386243,
				"element": "N" 
			},
			{
				"x": -0.804841931,
				"y": 0.8391194594,
				"z": 0.6316971758,
				"element": "N" 
			},
			{
				"x": 0.2884702704,
				"y": 0.567802338,
				"z": -0.1261893609,
				"element": "C" 
			},
			{
				"x": -0.1217064883,
				"y": 0.1054754524,
				"z": -1.3058005071,
				"element": "N" 
			},
			{
				"x": 1.6780540469,
				"y": 0.7546120662,
				"z": 0.2872945816,
				"element": "C" 
			},
			{
				"x": 2.0397058251,
				"y": 1.1792886457,
				"z": 1.5757244661,
				"element": "C" 
			},
			{
				"x": 3.3723262696,
				"y": 1.3441726763,
				"z": 1.9319639157,
				"element": "C" 
			},
			{
				"x": 4.3987647031,
				"y": 1.0872677967,
				"z": 1.0048964093,
				"element": "C" 
			},
			{
				"x": 5.7310632541,
				"y": 1.3023827875,
				"z": 1.3388929524,
				"element": "N" 
			},
			{
				"x": 4.0387600745,
				"y": 0.6592919552,
				"z": -0.2873601454,
				"element": "C" 
			},
			{
				"x": 2.7063417058,
				"y": 0.4972876234,
				"z": -0.6357248236,
				"element": "C" 
			},
			{
				"x": -1.7722211937,
				"y": -0.6449187296,
				"z": -3.1721287597,
				"element": "H" 
			},
			{
				"x": -3.0101533224,
				"y": -1.1668528969,
				"z": -2.0089384937,
				"element": "H" 
			},
			{
				"x": -3.0425788742,
				"y": 0.4797404746,
				"z": -2.6435506136,
				"element": "H" 
			},
			{
				"x": -0.8626006185,
				"y": 1.2141674951,
				"z": 1.5653003203,
				"element": "H" 
			},
			{
				"x": 1.2792114225,
				"y": 1.380055277,
				"z": 2.3262336963,
				"element": "H" 
			},
			{
				"x": 3.6264517281,
				"y": 1.6764585161,
				"z": 2.9352475629,
				"element": "H" 
			},
			{
				"x": 5.9496992251,
				"y": 1.2803701088,
				"z": 2.3247529386,
				"element": "H" 
			},
			{
				"x": 6.4112062329,
				"y": 0.8083893634,
				"z": 0.7788403529,
				"element": "H" 
			},
			{
				"x": 4.8168826092,
				"y": 0.4581898237,
				"z": -1.0195594151,
				"element": "H" 
			},
			{
				"x": 2.4340381451,
				"y": 0.1649647592,
				"z": -1.6316108877,
				"element": "H" 
			}
		],
		 "valence_orbital": [ 
			{
				"type": "occ",
				"energy": -0.27906,
				"method": "rhf"
			},
			{
				"type": "occ",
				"energy": -0.25972,
				"method": "rhf"
			},
			{
				"type": "occ",
				"energy": -0.25573,
				"method": "rhf"
			},
			{
				"type": "occ",
				"energy": -0.25251,
				"method": "rhf"
			},
			{
				"type": "occ",
				"energy": -0.19863,
				"method": "rhf"
			},
			{
				"type": "unocc",
				"energy": -0.02309,
				"method": "rhf"
			},
			{
				"type": "unocc",
				"energy": -0.00486,
				"method": "rhf"
			},
			{
				"type": "unocc",
				"energy": 0.04797,
				"method": "rhf"
			},
			{
				"type": "unocc",
				"energy": 0.06644,
				"method": "rhf"
			},
			{
				"type": "unocc",
				"energy": 0.0713,
				"method": "rhf"
			}
		],
		"cosmo_sigma_profile": { 
			"-0.025": 0.0,
			"-0.024": 0.0,
			"-0.023": 0.0,
			"-0.022": 0.0,
			"-0.021": 0.0,
			"-0.02": 0.0,
			"-0.019": 0.0,
			"-0.018": 0.0,
			"-0.017": 0.632269205959,
			"-0.016": 1.31300346775,
			"-0.015": 1.48975968445,
			"-0.014": 0.867208430862,
			"-0.013": 2.56787353712,
			"-0.012": 4.41116609599,
			"-0.011": 3.64198460631,
			"-0.01": 4.54069605732,
			"-0.009": 5.05819437135,
			"-0.008": 2.89224445948,
			"-0.007": 5.05252745552,
			"-0.006": 6.50292612345,
			"-0.005": 11.1328984949,
			"-0.004": 11.7090132224,
			"-0.003": 11.9602845463,
			"-0.002": 12.1828719853,
			"-0.001": 13.6606194415,
			"0.0": 13.7841677475,
			"0.001": 12.3814577964,
			"0.002": 11.9673311277,
			"0.003": 14.4848204502,
			"0.004": 12.9842176331,
			"0.005": 17.1568806241,
			"0.006": 8.0378992824,
			"0.007": 4.36188486585,
			"0.008": 4.1935816276,
			"0.009": 2.55335832783,
			"0.01": 2.45469291372,
			"0.011": 3.00978643723,
			"0.012": 3.48439293699,
			"0.013": 2.1741994598,
			"0.014": 2.63973642594,
			"0.015": 1.74613854756,
			"0.016": 0.551255700133,
			"0.017": 0.0,
			"0.018": 0.0,
			"0.019": 0.0,
			"0.02": 0.0,
			"0.021": 0.0,
			"0.022": 0.0,
			"0.023": 0.0,
			"0.024": 0.0,
			"0.025": 0.0
		}
	}
}
