{
	 "smiles": "CC1=CC=C(C=C1)C1=NOC(CCC(O)=O)=N1", 
	 "Tm": 417.15, 
	 "num_atms": 29, 
	 "gaussian": { 
		 "optdone": 1, 
		 "sigma_profile": "yes", 
		 "theory": "DFT", 
		 "functional": "B3LYP", 
		 "basiset": "6-31G**", 
		 "properties": { 
			 "R2extent": 6527.2083, 
			 "electric_dipole_moment_norm": 2.46475212953, 
			 "electric_quadrupole_moment_norm": 23.8585895834, 
			 "total_energy": -799.677381582, 
			 "HOMO_LUMO_gap": 0.19164, 
			 "cosmo_polarized_energy": -15.41, 
			 "cosmo_cavitation_energy": 34.69, 
			 "cosmo_dispersion_energy": -24.5, 
			 "cosmo_repulsion_energy": 1.93, 
			 "cosmo_total_nonelectrostatic_energy": 12.13, 
			 "SMD_solvation_energy": 5.36 
		},
		"coords": [
			{
				"x": 5.7014571999,
				"y": 2.5493221874,
				"z": 1.1059532999,
				"element": "C" 
			},
			{
				"x": 4.2136413694,
				"y": 2.3471021848,
				"z": 0.9481916025,
				"element": "C" 
			},
			{
				"x": 3.6895855726,
				"y": 1.1150656025,
				"z": 0.536866169,
				"element": "C" 
			},
			{
				"x": 2.3187831465,
				"y": 0.9348347498,
				"z": 0.3648269836,
				"element": "C" 
			},
			{
				"x": 1.4336970497,
				"y": 1.9935102362,
				"z": 0.6055593551,
				"element": "C" 
			},
			{
				"x": 1.946889816,
				"y": 3.2325502559,
				"z": 1.0215135575,
				"element": "C" 
			},
			{
				"x": 3.3164082104,
				"y": 3.3998805419,
				"z": 1.189509334,
				"element": "C" 
			},
			{
				"x": -0.0093830688,
				"y": 1.7964069871,
				"z": 0.426336885,
				"element": "C" 
			},
			{
				"x": -0.8952119947,
				"y": 2.7429970477,
				"z": 0.6509164779,
				"element": "N" 
			},
			{
				"x": -2.1194376434,
				"y": 2.119888899,
				"z": 0.3574675449,
				"element": "O" 
			},
			{
				"x": -1.831219945,
				"y": 0.858685442,
				"z": -0.0115387134,
				"element": "C" 
			},
			{
				"x": -2.9626981971,
				"y": -0.0303910788,
				"z": -0.4108966135,
				"element": "C" 
			},
			{
				"x": -3.4728273613,
				"y": 0.2539052735,
				"z": -1.8433057341,
				"element": "C" 
			},
			{
				"x": -2.457113647,
				"y": -0.0686707049,
				"z": -2.9221924586,
				"element": "C" 
			},
			{
				"x": -2.0289834769,
				"y": -1.3515600388,
				"z": -2.8348455412,
				"element": "O" 
			},
			{
				"x": -2.0713521414,
				"y": 0.6963368665,
				"z": -3.7755330282,
				"element": "O" 
			},
			{
				"x": -0.5592445059,
				"y": 0.5955499588,
				"z": 0.0084753059,
				"element": "N" 
			},
			{
				"x": 5.9302046361,
				"y": 3.1819286273,
				"z": 1.9695193742,
				"element": "H" 
			},
			{
				"x": 6.1284346,
				"y": 3.0418014373,
				"z": 0.2232002264,
				"element": "H" 
			},
			{
				"x": 6.2240317173,
				"y": 1.5971149441,
				"z": 1.2339866752,
				"element": "H" 
			},
			{
				"x": 4.3645139221,
				"y": 0.2837120696,
				"z": 0.3495587744,
				"element": "H" 
			},
			{
				"x": 1.9216949528,
				"y": -0.0233419761,
				"z": 0.0475664764,
				"element": "H" 
			},
			{
				"x": 1.2651357536,
				"y": 4.0548395018,
				"z": 1.2125578929,
				"element": "H" 
			},
			{
				"x": 3.6998284396,
				"y": 4.363806258,
				"z": 1.5148504896,
				"element": "H" 
			},
			{
				"x": -3.7888459982,
				"y": 0.114612361,
				"z": 0.2920024313,
				"element": "H" 
			},
			{
				"x": -2.6211818353,
				"y": -1.0640945138,
				"z": -0.3354106849,
				"element": "H" 
			},
			{
				"x": -3.7557444428,
				"y": 1.3015265758,
				"z": -1.9591195659,
				"element": "H" 
			},
			{
				"x": -4.3604627297,
				"y": -0.364015325,
				"z": -2.0208470812,
				"element": "H" 
			},
			{
				"x": -1.3715993986,
				"y": -1.4684043707,
				"z": -3.5410694348,
				"element": "H" 
			}
		],
		 "valence_orbital": [ 
			{
				"type": "occ",
				"energy": -0.29408,
				"method": "rhf"
			},
			{
				"type": "occ",
				"energy": -0.29314,
				"method": "rhf"
			},
			{
				"type": "occ",
				"energy": -0.27905,
				"method": "rhf"
			},
			{
				"type": "occ",
				"energy": -0.25292,
				"method": "rhf"
			},
			{
				"type": "occ",
				"energy": -0.23381,
				"method": "rhf"
			},
			{
				"type": "unocc",
				"energy": -0.04217,
				"method": "rhf"
			},
			{
				"type": "unocc",
				"energy": -0.00946,
				"method": "rhf"
			},
			{
				"type": "unocc",
				"energy": -0.00093,
				"method": "rhf"
			},
			{
				"type": "unocc",
				"energy": 0.00184,
				"method": "rhf"
			},
			{
				"type": "unocc",
				"energy": 0.06691,
				"method": "rhf"
			}
		],
		"cosmo_sigma_profile": { 
			"-0.025": 0.0,
			"-0.024": 0.0,
			"-0.023": 0.0,
			"-0.022": 0.0,
			"-0.021": 0.0,
			"-0.02": 0.0,
			"-0.019": 0.176527025573,
			"-0.018": 0.859064318274,
			"-0.017": 1.32776109763,
			"-0.016": 0.385086699518,
			"-0.015": 0.646114667368,
			"-0.014": 0.402768024099,
			"-0.013": 0.523644682093,
			"-0.012": 0.965759139089,
			"-0.011": 1.11193259331,
			"-0.01": 0.582173908987,
			"-0.009": 0.354573951025,
			"-0.008": 2.92973925732,
			"-0.007": 8.67596390023,
			"-0.006": 13.3676825234,
			"-0.005": 20.6577372219,
			"-0.004": 26.7545075546,
			"-0.003": 19.2967775846,
			"-0.002": 18.5951344872,
			"-0.001": 18.8326338798,
			"0.0": 18.763146831,
			"0.001": 18.7989133585,
			"0.002": 17.5881272318,
			"0.003": 14.0773079931,
			"0.004": 17.0605980102,
			"0.005": 12.6327378836,
			"0.006": 7.14725404286,
			"0.007": 6.99449527165,
			"0.008": 5.34122051557,
			"0.009": 4.33536379467,
			"0.01": 4.41292086879,
			"0.011": 6.95782412475,
			"0.012": 4.86699117481,
			"0.013": 0.708869698642,
			"0.014": 0.0,
			"0.015": 0.0,
			"0.016": 0.0,
			"0.017": 0.0,
			"0.018": 0.0,
			"0.019": 0.0,
			"0.02": 0.0,
			"0.021": 0.0,
			"0.022": 0.0,
			"0.023": 0.0,
			"0.024": 0.0,
			"0.025": 0.0
		}
	}
}
