{
	 "smiles": "C1=CC=C(C=C1)C1=NC2=C(C=CC=C2)N=C1C1=CC=CC2=C1C=CC=C2", 
	 "Tm": 411.15, 
	 "num_atms": 42, 
	 "gaussian": { 
		 "optdone": 1, 
		 "sigma_profile": "yes", 
		 "theory": "DFT", 
		 "functional": "B3LYP", 
		 "basiset": "6-31G**", 
		 "properties": { 
			 "R2extent": 8820.837, 
			 "electric_dipole_moment_norm": 0.421253189899, 
			 "electric_quadrupole_moment_norm": 12.8843733942, 
			 "total_energy": -1033.71969101, 
			 "HOMO_LUMO_gap": 0.14175, 
			 "cosmo_polarized_energy": -11.29, 
			 "cosmo_cavitation_energy": 45.47, 
			 "cosmo_dispersion_energy": -31.31, 
			 "cosmo_repulsion_energy": 2.35, 
			 "cosmo_total_nonelectrostatic_energy": 16.51, 
			 "SMD_solvation_energy": 4.42 
		},
		"coords": [
			{
				"x": -1.123547949,
				"y": -4.3808093575,
				"z": -1.3130558121,
				"element": "C" 
			},
			{
				"x": -0.9790672352,
				"y": -3.1758551913,
				"z": -2.0016615051,
				"element": "C" 
			},
			{
				"x": -0.3211745356,
				"y": -2.0990469985,
				"z": -1.4075943431,
				"element": "C" 
			},
			{
				"x": 0.2103173376,
				"y": -2.2146626121,
				"z": -0.1134233409,
				"element": "C" 
			},
			{
				"x": 0.0766214429,
				"y": -3.4395892238,
				"z": 0.5626573023,
				"element": "C" 
			},
			{
				"x": -0.5914702903,
				"y": -4.5089906112,
				"z": -0.0275911519,
				"element": "C" 
			},
			{
				"x": 0.9752451631,
				"y": -1.1150042595,
				"z": 0.5401105274,
				"element": "C" 
			},
			{
				"x": 2.0065164584,
				"y": -1.4986472185,
				"z": 1.2763203339,
				"element": "N" 
			},
			{
				"x": 2.8020016255,
				"y": -0.5501752809,
				"z": 1.8357211127,
				"element": "C" 
			},
			{
				"x": 2.55047901,
				"y": 0.8329109846,
				"z": 1.6031315998,
				"element": "C" 
			},
			{
				"x": 3.4264075628,
				"y": 1.8059850631,
				"z": 2.1477690755,
				"element": "C" 
			},
			{
				"x": 4.5034919841,
				"y": 1.4068655802,
				"z": 2.9084805396,
				"element": "C" 
			},
			{
				"x": 4.7454605654,
				"y": 0.0301343475,
				"z": 3.1537147542,
				"element": "C" 
			},
			{
				"x": 3.9137031378,
				"y": -0.9345597439,
				"z": 2.6292913433,
				"element": "C" 
			},
			{
				"x": 1.4583732431,
				"y": 1.2244050831,
				"z": 0.8920409345,
				"element": "N" 
			},
			{
				"x": 0.6610696293,
				"y": 0.2954912559,
				"z": 0.3939533135,
				"element": "C" 
			},
			{
				"x": -0.5475144171,
				"y": 0.8154172959,
				"z": -0.3194157565,
				"element": "C" 
			},
			{
				"x": -0.3522007566,
				"y": 1.6601589005,
				"z": -1.3981749231,
				"element": "C" 
			},
			{
				"x": -1.4419391284,
				"y": 2.1979480685,
				"z": -2.1187090672,
				"element": "C" 
			},
			{
				"x": -2.7310128257,
				"y": 1.9017697804,
				"z": -1.7417823359,
				"element": "C" 
			},
			{
				"x": -2.9839858551,
				"y": 1.0745671542,
				"z": -0.6153645107,
				"element": "C" 
			},
			{
				"x": -1.8812328202,
				"y": 0.5234928853,
				"z": 0.1201454554,
				"element": "C" 
			},
			{
				"x": -2.1671458003,
				"y": -0.2578525826,
				"z": 1.2735965005,
				"element": "C" 
			},
			{
				"x": -3.4644562643,
				"y": -0.5028836008,
				"z": 1.6642695485,
				"element": "C" 
			},
			{
				"x": -4.5499853914,
				"y": 0.021784448,
				"z": 0.9233241792,
				"element": "C" 
			},
			{
				"x": -4.3108425772,
				"y": 0.7951981888,
				"z": -0.1886867359,
				"element": "C" 
			},
			{
				"x": -1.6428716682,
				"y": -5.2153869892,
				"z": -1.7754978165,
				"element": "H" 
			},
			{
				"x": -1.3766068337,
				"y": -3.0713348374,
				"z": -3.0070685735,
				"element": "H" 
			},
			{
				"x": -0.2098204144,
				"y": -1.1728357545,
				"z": -1.9590234115,
				"element": "H" 
			},
			{
				"x": 0.510001551,
				"y": -3.5376728389,
				"z": 1.5520684632,
				"element": "H" 
			},
			{
				"x": -0.6951472483,
				"y": -5.4447713498,
				"z": 0.5144042079,
				"element": "H" 
			},
			{
				"x": 3.2123831991,
				"y": 2.8520783744,
				"z": 1.9535723312,
				"element": "H" 
			},
			{
				"x": 5.1748787973,
				"y": 2.1490413576,
				"z": 3.3303043722,
				"element": "H" 
			},
			{
				"x": 5.5992049793,
				"y": -0.2606769534,
				"z": 3.7588493425,
				"element": "H" 
			},
			{
				"x": 4.0831021372,
				"y": -1.9939077675,
				"z": 2.7934283623,
				"element": "H" 
			},
			{
				"x": 0.6629116988,
				"y": 1.9035493222,
				"z": -1.6958344169,
				"element": "H" 
			},
			{
				"x": -1.2529845348,
				"y": 2.8440112707,
				"z": -2.9709833935,
				"element": "H" 
			},
			{
				"x": -3.575909846,
				"y": 2.3073052607,
				"z": -2.2924363703,
				"element": "H" 
			},
			{
				"x": -1.3478760289,
				"y": -0.6591688722,
				"z": 1.8596286369,
				"element": "H" 
			},
			{
				"x": -3.6570669095,
				"y": -1.1011032343,
				"z": 2.5500851022,
				"element": "H" 
			},
			{
				"x": -5.5687897728,
				"y": -0.1813629959,
				"z": 1.240244176,
				"element": "H" 
			},
			{
				"x": -5.1372204195,
				"y": 1.2142836519,
				"z": -0.7572080502,
				"element": "H" 
			}
		],
		 "valence_orbital": [ 
			{
				"type": "occ",
				"energy": -0.24599,
				"method": "rhf"
			},
			{
				"type": "occ",
				"energy": -0.24194,
				"method": "rhf"
			},
			{
				"type": "occ",
				"energy": -0.23947,
				"method": "rhf"
			},
			{
				"type": "occ",
				"energy": -0.22854,
				"method": "rhf"
			},
			{
				"type": "occ",
				"energy": -0.21203,
				"method": "rhf"
			},
			{
				"type": "unocc",
				"energy": -0.07028,
				"method": "rhf"
			},
			{
				"type": "unocc",
				"energy": -0.04531,
				"method": "rhf"
			},
			{
				"type": "unocc",
				"energy": -0.02971,
				"method": "rhf"
			},
			{
				"type": "unocc",
				"energy": -0.01029,
				"method": "rhf"
			},
			{
				"type": "unocc",
				"energy": 0.00354,
				"method": "rhf"
			}
		],
		"cosmo_sigma_profile": { 
			"-0.025": 0.0,
			"-0.024": 0.0,
			"-0.023": 0.0,
			"-0.022": 0.0,
			"-0.021": 0.0,
			"-0.02": 0.0,
			"-0.019": 0.0,
			"-0.018": 0.0,
			"-0.017": 0.0,
			"-0.016": 0.0,
			"-0.015": 0.0,
			"-0.014": 0.0,
			"-0.013": 0.0,
			"-0.012": 0.0,
			"-0.011": 0.0,
			"-0.01": 0.0,
			"-0.009": 0.0,
			"-0.008": 0.0,
			"-0.007": 2.91460903167,
			"-0.006": 24.0215198756,
			"-0.005": 30.3618863229,
			"-0.004": 36.6615352893,
			"-0.003": 29.6877396778,
			"-0.002": 24.7358324853,
			"-0.001": 22.8939328991,
			"0.0": 23.1148973449,
			"0.001": 26.41938073,
			"0.002": 31.0771176217,
			"0.003": 35.7034594931,
			"0.004": 33.3328876026,
			"0.005": 25.9960436979,
			"0.006": 6.34556520738,
			"0.007": 2.55093312949,
			"0.008": 2.16600863553,
			"0.009": 2.59972250244,
			"0.01": 1.87804768015,
			"0.011": 1.53432313996,
			"0.012": 1.25807262711,
			"0.013": 0.905628458849,
			"0.014": 0.631769739062,
			"0.015": 0.0,
			"0.016": 0.0,
			"0.017": 0.0,
			"0.018": 0.0,
			"0.019": 0.0,
			"0.02": 0.0,
			"0.021": 0.0,
			"0.022": 0.0,
			"0.023": 0.0,
			"0.024": 0.0,
			"0.025": 0.0
		}
	}
}
