{
	 "smiles": "CC1=CC2=C(C=CC=C2)C(=O)N1", 
	 "Tm": 473.15, 
	 "num_atms": 21, 
	 "gaussian": { 
		 "optdone": 1, 
		 "sigma_profile": "yes", 
		 "theory": "DFT", 
		 "functional": "B3LYP", 
		 "basiset": "6-31G**", 
		 "properties": { 
			 "R2extent": 2205.2361, 
			 "electric_dipole_moment_norm": 3.75948308814, 
			 "electric_quadrupole_moment_norm": 12.8251167523, 
			 "total_energy": -516.499886992, 
			 "HOMO_LUMO_gap": 0.17421, 
			 "cosmo_polarized_energy": -12.29, 
			 "cosmo_cavitation_energy": 24.66, 
			 "cosmo_dispersion_energy": -18.49, 
			 "cosmo_repulsion_energy": 1.45, 
			 "cosmo_total_nonelectrostatic_energy": 7.62, 
			 "SMD_solvation_energy": 4.74 
		},
		"coords": [
			{
				"x": -2.3496207191,
				"y": -2.5334671853,
				"z": -1.3533055046,
				"element": "C" 
			},
			{
				"x": -1.6857004115,
				"y": -1.3535731548,
				"z": -0.705285686,
				"element": "C" 
			},
			{
				"x": -1.0338425419,
				"y": -1.3900611053,
				"z": 0.4857134963,
				"element": "C" 
			},
			{
				"x": -0.4284660261,
				"y": -0.1980286069,
				"z": 1.0234573611,
				"element": "C" 
			},
			{
				"x": -0.5185077719,
				"y": 1.0174196148,
				"z": 0.2973320175,
				"element": "C" 
			},
			{
				"x": 0.0621719018,
				"y": 2.1928177483,
				"z": 0.7986643352,
				"element": "C" 
			},
			{
				"x": 0.7319744161,
				"y": 2.1779267371,
				"z": 2.0126242587,
				"element": "C" 
			},
			{
				"x": 0.8274351265,
				"y": 0.9788942333,
				"z": 2.7408034436,
				"element": "C" 
			},
			{
				"x": 0.2583506057,
				"y": -0.1889588155,
				"z": 2.256978635,
				"element": "C" 
			},
			{
				"x": -1.2226883064,
				"y": 1.066126598,
				"z": -0.9949018149,
				"element": "C" 
			},
			{
				"x": -1.3574568501,
				"y": 2.0633226649,
				"z": -1.6983339948,
				"element": "O" 
			},
			{
				"x": -1.7618090565,
				"y": -0.1573959554,
				"z": -1.3975306913,
				"element": "N" 
			},
			{
				"x": -3.4215532693,
				"y": -2.3530589352,
				"z": -1.500427008,
				"element": "H" 
			},
			{
				"x": -1.9133872849,
				"y": -2.741744769,
				"z": -2.3379656267,
				"element": "H" 
			},
			{
				"x": -2.2364320508,
				"y": -3.4258801033,
				"z": -0.735337773,
				"element": "H" 
			},
			{
				"x": -0.9695284523,
				"y": -2.3228109529,
				"z": 1.034589082,
				"element": "H" 
			},
			{
				"x": -0.0323630911,
				"y": 3.0981987097,
				"z": 0.208195288,
				"element": "H" 
			},
			{
				"x": 1.181466042,
				"y": 3.0867337306,
				"z": 2.4010680304,
				"element": "H" 
			},
			{
				"x": 1.3521376865,
				"y": 0.9664176515,
				"z": 3.6922323548,
				"element": "H" 
			},
			{
				"x": 0.3359543257,
				"y": -1.1121535237,
				"z": 2.8252292652,
				"element": "H" 
			},
			{
				"x": -2.2455342724,
				"y": -0.1198245809,
				"z": -2.2860994688,
				"element": "H" 
			}
		],
		 "valence_orbital": [ 
			{
				"type": "occ",
				"energy": -0.32756,
				"method": "rhf"
			},
			{
				"type": "occ",
				"energy": -0.27606,
				"method": "rhf"
			},
			{
				"type": "occ",
				"energy": -0.25263,
				"method": "rhf"
			},
			{
				"type": "occ",
				"energy": -0.24936,
				"method": "rhf"
			},
			{
				"type": "occ",
				"energy": -0.20586,
				"method": "rhf"
			},
			{
				"type": "unocc",
				"energy": -0.03165,
				"method": "rhf"
			},
			{
				"type": "unocc",
				"energy": -0.02544,
				"method": "rhf"
			},
			{
				"type": "unocc",
				"energy": 0.0447,
				"method": "rhf"
			},
			{
				"type": "unocc",
				"energy": 0.07585,
				"method": "rhf"
			},
			{
				"type": "unocc",
				"energy": 0.08179,
				"method": "rhf"
			}
		],
		"cosmo_sigma_profile": { 
			"-0.025": 0.0,
			"-0.024": 0.0,
			"-0.023": 0.0,
			"-0.022": 0.0,
			"-0.021": 0.0,
			"-0.02": 0.0,
			"-0.019": 0.0,
			"-0.018": 0.0,
			"-0.017": 0.0,
			"-0.016": 0.0,
			"-0.015": 0.498853035219,
			"-0.014": 1.20726175365,
			"-0.013": 0.567468539133,
			"-0.012": 0.607758617065,
			"-0.011": 1.59485725949,
			"-0.01": 1.39250452196,
			"-0.009": 1.08570968061,
			"-0.008": 1.52193427212,
			"-0.007": 1.61639057685,
			"-0.006": 13.5876530593,
			"-0.005": 17.0900140832,
			"-0.004": 15.9404284311,
			"-0.003": 13.6487499354,
			"-0.002": 12.7990109736,
			"-0.001": 14.1424180453,
			"0.0": 14.5788328984,
			"0.001": 13.1306342276,
			"0.002": 11.9574641466,
			"0.003": 16.6631920579,
			"0.004": 16.3408421294,
			"0.005": 7.28735209552,
			"0.006": 1.43305534022,
			"0.007": 0.88174041444,
			"0.008": 1.93939307179,
			"0.009": 1.28595662402,
			"0.01": 1.16124735955,
			"0.011": 1.18762812264,
			"0.012": 1.87854726963,
			"0.013": 3.04589523238,
			"0.014": 6.02119146851,
			"0.015": 0.78886057626,
			"0.016": 0.0,
			"0.017": 0.0,
			"0.018": 0.0,
			"0.019": 0.0,
			"0.02": 0.0,
			"0.021": 0.0,
			"0.022": 0.0,
			"0.023": 0.0,
			"0.024": 0.0,
			"0.025": 0.0
		}
	}
}
