{
	 "smiles": "CC1=C(C=NN1C1=C(Cl)C=CC=C1)C(O)=O", 
	 "Tm": 423.15, 
	 "num_atms": 25, 
	 "gaussian": { 
		 "optdone": 1, 
		 "sigma_profile": "yes", 
		 "theory": "DFT", 
		 "functional": "B3LYP", 
		 "basiset": "6-31G**", 
		 "properties": { 
			 "R2extent": 4383.5005, 
			 "electric_dipole_moment_norm": 7.13904128998, 
			 "electric_quadrupole_moment_norm": 18.2848412681, 
			 "total_energy": -1144.72486383, 
			 "HOMO_LUMO_gap": 0.20914, 
			 "cosmo_polarized_energy": -18.16, 
			 "cosmo_cavitation_energy": 31.38, 
			 "cosmo_dispersion_energy": -22.23, 
			 "cosmo_repulsion_energy": 1.71, 
			 "cosmo_total_nonelectrostatic_energy": 10.86, 
			 "SMD_solvation_energy": 5.61 
		},
		"coords": [
			{
				"x": 2.1766210979,
				"y": 0.7408118213,
				"z": -0.8274501196,
				"element": "C" 
			},
			{
				"x": 0.7258781616,
				"y": 0.6314873522,
				"z": -1.1829540531,
				"element": "C" 
			},
			{
				"x": 0.0548633589,
				"y": 0.8112911722,
				"z": -2.3929844927,
				"element": "C" 
			},
			{
				"x": -1.2906498334,
				"y": 0.4517747409,
				"z": -2.1219823175,
				"element": "C" 
			},
			{
				"x": -1.4687789619,
				"y": 0.0982100854,
				"z": -0.8622417667,
				"element": "N" 
			},
			{
				"x": -0.2281897313,
				"y": 0.2207068435,
				"z": -0.2933391312,
				"element": "N" 
			},
			{
				"x": -0.0629528446,
				"y": -0.1792113001,
				"z": 1.0633518097,
				"element": "C" 
			},
			{
				"x": 0.3016697202,
				"y": 0.7233926238,
				"z": 2.0733772944,
				"element": "C" 
			},
			{
				"x": 0.5441471802,
				"y": 2.4233018901,
				"z": 1.7219087592,
				"element": "Cl" 
			},
			{
				"x": 0.4434956039,
				"y": 0.2873546473,
				"z": 3.3918565903,
				"element": "C" 
			},
			{
				"x": 0.1992499962,
				"y": -1.0471663215,
				"z": 3.7107823939,
				"element": "C" 
			},
			{
				"x": -0.1903431819,
				"y": -1.9476731035,
				"z": 2.7173306333,
				"element": "C" 
			},
			{
				"x": -0.3176019471,
				"y": -1.5130253407,
				"z": 1.4013108793,
				"element": "C" 
			},
			{
				"x": 0.5470403403,
				"y": 1.2078941396,
				"z": -3.7261245555,
				"element": "C" 
			},
			{
				"x": 1.75339195,
				"y": 1.8503015576,
				"z": -3.7772069709,
				"element": "O" 
			},
			{
				"x": -0.0583648387,
				"y": 0.9889483422,
				"z": -4.749389678,
				"element": "O" 
			},
			{
				"x": 2.4402602028,
				"y": 0.0334754551,
				"z": -0.0367537277,
				"element": "H" 
			},
			{
				"x": 2.7969773175,
				"y": 0.5143486794,
				"z": -1.698346608,
				"element": "H" 
			},
			{
				"x": 2.4364984713,
				"y": 1.7407503655,
				"z": -0.4602256004,
				"element": "H" 
			},
			{
				"x": -2.1172890607,
				"y": 0.4537791027,
				"z": -2.8186764065,
				"element": "H" 
			},
			{
				"x": 0.7277941427,
				"y": 1.0001510581,
				"z": 4.1576907129,
				"element": "H" 
			},
			{
				"x": 0.3060505411,
				"y": -1.3776377609,
				"z": 4.7392784332,
				"element": "H" 
			},
			{
				"x": -0.3908885779,
				"y": -2.9850054058,
				"z": 2.9647994512,
				"element": "H" 
			},
			{
				"x": -0.6232862636,
				"y": -2.1903892514,
				"z": 0.6115132054,
				"element": "H" 
			},
			{
				"x": 2.0178071567,
				"y": 2.1332286069,
				"z": -2.8917247349,
				"element": "H" 
			}
		],
		 "valence_orbital": [ 
			{
				"type": "occ",
				"energy": -0.29461,
				"method": "rhf"
			},
			{
				"type": "occ",
				"energy": -0.27273,
				"method": "rhf"
			},
			{
				"type": "occ",
				"energy": -0.26822,
				"method": "rhf"
			},
			{
				"type": "occ",
				"energy": -0.26262,
				"method": "rhf"
			},
			{
				"type": "occ",
				"energy": -0.25529,
				"method": "rhf"
			},
			{
				"type": "unocc",
				"energy": -0.04615,
				"method": "rhf"
			},
			{
				"type": "unocc",
				"energy": -0.03561,
				"method": "rhf"
			},
			{
				"type": "unocc",
				"energy": -0.01824,
				"method": "rhf"
			},
			{
				"type": "unocc",
				"energy": 0.00685,
				"method": "rhf"
			},
			{
				"type": "unocc",
				"energy": 0.01264,
				"method": "rhf"
			}
		],
		"cosmo_sigma_profile": { 
			"-0.025": 0.0,
			"-0.024": 0.0,
			"-0.023": 0.0,
			"-0.022": 0.0,
			"-0.021": 0.0,
			"-0.02": 0.0,
			"-0.019": 0.0,
			"-0.018": 0.0201429532015,
			"-0.017": 0.714545806442,
			"-0.016": 1.13672108462,
			"-0.015": 0.499517497788,
			"-0.014": 1.15421562677,
			"-0.013": 1.12808333284,
			"-0.012": 0.866715637425,
			"-0.011": 0.731370038558,
			"-0.01": 1.56361419548,
			"-0.009": 1.12702215278,
			"-0.008": 4.11305298184,
			"-0.007": 12.5946981092,
			"-0.006": 16.1189110306,
			"-0.005": 16.2474532957,
			"-0.004": 14.9354025304,
			"-0.003": 16.6478316959,
			"-0.002": 17.7228100105,
			"-0.001": 14.0733382927,
			"0.0": 18.5958788963,
			"0.001": 19.5936993369,
			"0.002": 22.9949269371,
			"0.003": 17.912481386,
			"0.004": 10.1600658506,
			"0.005": 4.12237086839,
			"0.006": 3.5941426267,
			"0.007": 3.76832102865,
			"0.008": 4.06028991078,
			"0.009": 4.3175923031,
			"0.01": 5.88035435094,
			"0.011": 5.98722673836,
			"0.012": 6.94134402562,
			"0.013": 3.24570670982,
			"0.014": 1.12372835644,
			"0.015": 0.221842308535,
			"0.016": 0.0,
			"0.017": 0.0,
			"0.018": 0.0,
			"0.019": 0.0,
			"0.02": 0.0,
			"0.021": 0.0,
			"0.022": 0.0,
			"0.023": 0.0,
			"0.024": 0.0,
			"0.025": 0.0
		}
	}
}
