{
	 "smiles": "CNC(=O)C1=CN=C(C)NC1=O", 
	 "Tm": 593.15, 
	 "num_atms": 21, 
	 "gaussian": { 
		 "optdone": 1, 
		 "sigma_profile": "yes", 
		 "theory": "DFT", 
		 "functional": "B3LYP", 
		 "basiset": "6-31G**", 
		 "properties": { 
			 "R2extent": 2904.2348, 
			 "electric_dipole_moment_norm": 5.10142646424, 
			 "electric_quadrupole_moment_norm": 24.4997631221, 
			 "total_energy": -586.896825098, 
			 "HOMO_LUMO_gap": 0.18277, 
			 "cosmo_polarized_energy": -24.69, 
			 "cosmo_cavitation_energy": 25.94, 
			 "cosmo_dispersion_energy": -18.92, 
			 "cosmo_repulsion_energy": 1.54, 
			 "cosmo_total_nonelectrostatic_energy": 8.56, 
			 "SMD_solvation_energy": 4.47 
		},
		"coords": [
			{
				"x": 2.4480715757,
				"y": 1.1864825722,
				"z": 3.5017220312,
				"element": "C" 
			},
			{
				"x": 1.5555915879,
				"y": 0.7083910098,
				"z": 2.4600360367,
				"element": "N" 
			},
			{
				"x": 1.726705339,
				"y": -0.5167428782,
				"z": 1.867406103,
				"element": "C" 
			},
			{
				"x": 2.6583427005,
				"y": -1.2669951497,
				"z": 2.1195227928,
				"element": "O" 
			},
			{
				"x": 0.69935369,
				"y": -0.8442506861,
				"z": 0.8186184855,
				"element": "C" 
			},
			{
				"x": 0.4260788586,
				"y": 0.011047467,
				"z": -0.2151817344,
				"element": "C" 
			},
			{
				"x": -0.4158006488,
				"y": -0.2446154674,
				"z": -1.268191091,
				"element": "N" 
			},
			{
				"x": -0.9964790385,
				"y": -1.4155879938,
				"z": -1.2739686703,
				"element": "C" 
			},
			{
				"x": -1.9255553632,
				"y": -1.7981947013,
				"z": -2.3903653537,
				"element": "C" 
			},
			{
				"x": -0.7916051327,
				"y": -2.3317768124,
				"z": -0.2860867069,
				"element": "N" 
			},
			{
				"x": 0.043761749,
				"y": -2.1486878184,
				"z": 0.8477952708,
				"element": "C" 
			},
			{
				"x": 0.1120974456,
				"y": -3.0208255248,
				"z": 1.6962265625,
				"element": "O" 
			},
			{
				"x": 3.3363941289,
				"y": 0.5544717586,
				"z": 3.4855241764,
				"element": "H" 
			},
			{
				"x": 1.9884689094,
				"y": 1.1176046927,
				"z": 4.4950939611,
				"element": "H" 
			},
			{
				"x": 2.736940432,
				"y": 2.2261607905,
				"z": 3.316950828,
				"element": "H" 
			},
			{
				"x": 0.6784958344,
				"y": 1.1847155438,
				"z": 2.3142300761,
				"element": "H" 
			},
			{
				"x": 0.916627405,
				"y": 0.9818257678,
				"z": -0.2509909279,
				"element": "H" 
			},
			{
				"x": -2.9234029544,
				"y": -2.0391083302,
				"z": -2.0069721651,
				"element": "H" 
			},
			{
				"x": -1.5517929775,
				"y": -2.679026735,
				"z": -2.9245128028,
				"element": "H" 
			},
			{
				"x": -2.0012718287,
				"y": -0.9645354614,
				"z": -3.0874983473,
				"element": "H" 
			},
			{
				"x": -1.2630217121,
				"y": -3.2294520437,
				"z": -0.3114585249,
				"element": "H" 
			}
		],
		 "valence_orbital": [ 
			{
				"type": "occ",
				"energy": -0.28994,
				"method": "rhf"
			},
			{
				"type": "occ",
				"energy": -0.26739,
				"method": "rhf"
			},
			{
				"type": "occ",
				"energy": -0.25048,
				"method": "rhf"
			},
			{
				"type": "occ",
				"energy": -0.24917,
				"method": "rhf"
			},
			{
				"type": "occ",
				"energy": -0.23932,
				"method": "rhf"
			},
			{
				"type": "unocc",
				"energy": -0.05655,
				"method": "rhf"
			},
			{
				"type": "unocc",
				"energy": -0.00576,
				"method": "rhf"
			},
			{
				"type": "unocc",
				"energy": 0.03378,
				"method": "rhf"
			},
			{
				"type": "unocc",
				"energy": 0.06862,
				"method": "rhf"
			},
			{
				"type": "unocc",
				"energy": 0.08761,
				"method": "rhf"
			}
		],
		"cosmo_sigma_profile": { 
			"-0.025": 0.0,
			"-0.024": 0.0,
			"-0.023": 0.0,
			"-0.022": 0.0,
			"-0.021": 0.0,
			"-0.02": 0.0,
			"-0.019": 0.0,
			"-0.018": 0.0,
			"-0.017": 0.148306769746,
			"-0.016": 1.10818559398,
			"-0.015": 1.25380555469,
			"-0.014": 1.60962290777,
			"-0.013": 2.43554156712,
			"-0.012": 2.94861690759,
			"-0.011": 2.59255958796,
			"-0.01": 2.24531529871,
			"-0.009": 3.20874832577,
			"-0.008": 4.16361855409,
			"-0.007": 8.02270955612,
			"-0.006": 8.78730315314,
			"-0.005": 13.4900543894,
			"-0.004": 17.8743450081,
			"-0.003": 20.2146100103,
			"-0.002": 21.6884355334,
			"-0.001": 12.5611386552,
			"0.0": 8.43416501993,
			"0.001": 6.74090741131,
			"0.002": 6.80774813596,
			"0.003": 4.05041389773,
			"0.004": 3.91859306607,
			"0.005": 3.31007029088,
			"0.006": 4.12785792151,
			"0.007": 2.88591191809,
			"0.008": 3.40027342462,
			"0.009": 3.59958123357,
			"0.01": 2.46944349459,
			"0.011": 4.35041329892,
			"0.012": 6.90247986355,
			"0.013": 10.5744401972,
			"0.014": 6.76983732483,
			"0.015": 3.09555369802,
			"0.016": 0.118062977128,
			"0.017": 0.0,
			"0.018": 0.0,
			"0.019": 0.0,
			"0.02": 0.0,
			"0.021": 0.0,
			"0.022": 0.0,
			"0.023": 0.0,
			"0.024": 0.0,
			"0.025": 0.0
		}
	}
}
