{
	 "smiles": "OC1=C(C=CC=C1)C1=NCCN1", 
	 "Tm": 473.15, 
	 "num_atms": 22, 
	 "gaussian": { 
		 "optdone": 1, 
		 "sigma_profile": "yes", 
		 "theory": "DFT", 
		 "functional": "B3LYP", 
		 "basiset": "6-31G**", 
		 "properties": { 
			 "R2extent": 2420.0545, 
			 "electric_dipole_moment_norm": 2.43589653721, 
			 "electric_quadrupole_moment_norm": 11.4788071275, 
			 "total_energy": -533.693416758, 
			 "HOMO_LUMO_gap": 0.18533, 
			 "cosmo_polarized_energy": -16.7, 
			 "cosmo_cavitation_energy": 25.27, 
			 "cosmo_dispersion_energy": -19.15, 
			 "cosmo_repulsion_energy": 1.54, 
			 "cosmo_total_nonelectrostatic_energy": 7.66, 
			 "SMD_solvation_energy": 0.66 
		},
		"coords": [
			{
				"x": -0.5836817166,
				"y": -2.5607447734,
				"z": -0.7382811162,
				"element": "O" 
			},
			{
				"x": -1.2510976226,
				"y": -1.9445688244,
				"z": 0.2718103313,
				"element": "C" 
			},
			{
				"x": -0.7255894184,
				"y": -0.7489817791,
				"z": 0.8112926727,
				"element": "C" 
			},
			{
				"x": -1.4487568377,
				"y": -0.1065184901,
				"z": 1.8291448422,
				"element": "C" 
			},
			{
				"x": -2.6475274707,
				"y": -0.6196149923,
				"z": 2.3196070153,
				"element": "C" 
			},
			{
				"x": -3.1513930137,
				"y": -1.8033987983,
				"z": 1.7805324735,
				"element": "C" 
			},
			{
				"x": -2.4585198885,
				"y": -2.4569062706,
				"z": 0.7641334431,
				"element": "C" 
			},
			{
				"x": 0.5454056535,
				"y": -0.152574267,
				"z": 0.3438863357,
				"element": "C" 
			},
			{
				"x": 1.5780161292,
				"y": -0.8051805822,
				"z": -0.0527990744,
				"element": "N" 
			},
			{
				"x": 2.6191854266,
				"y": 0.1916049815,
				"z": -0.3408792338,
				"element": "C" 
			},
			{
				"x": 1.9066536305,
				"y": 1.5710518168,
				"z": -0.3351598677,
				"element": "C" 
			},
			{
				"x": 0.6824147047,
				"y": 1.2491193197,
				"z": 0.4137216052,
				"element": "N" 
			},
			{
				"x": -1.0781316291,
				"y": -3.3485514205,
				"z": -1.0003957153,
				"element": "H" 
			},
			{
				"x": -1.0345123987,
				"y": 0.802538306,
				"z": 2.2536792152,
				"element": "H" 
			},
			{
				"x": -3.1767940478,
				"y": -0.1053948427,
				"z": 3.1153508254,
				"element": "H" 
			},
			{
				"x": -4.0838633222,
				"y": -2.2227227268,
				"z": 2.1472721127,
				"element": "H" 
			},
			{
				"x": -2.8548686616,
				"y": -3.3765867445,
				"z": 0.3376867814,
				"element": "H" 
			},
			{
				"x": 3.116634241,
				"y": -0.0280266259,
				"z": -1.2912655346,
				"element": "H" 
			},
			{
				"x": 3.3859253991,
				"y": 0.1400967586,
				"z": 0.4445041458,
				"element": "H" 
			},
			{
				"x": 2.487266692,
				"y": 2.3546115268,
				"z": 0.1608743697,
				"element": "H" 
			},
			{
				"x": 1.6749370883,
				"y": 1.9087007509,
				"z": -1.3556692174,
				"element": "H" 
			},
			{
				"x": -0.1469029375,
				"y": 1.7804476775,
				"z": 0.1766535903,
				"element": "H" 
			}
		],
		 "valence_orbital": [ 
			{
				"type": "occ",
				"energy": -0.32486,
				"method": "rhf"
			},
			{
				"type": "occ",
				"energy": -0.25192,
				"method": "rhf"
			},
			{
				"type": "occ",
				"energy": -0.24479,
				"method": "rhf"
			},
			{
				"type": "occ",
				"energy": -0.22353,
				"method": "rhf"
			},
			{
				"type": "occ",
				"energy": -0.20724,
				"method": "rhf"
			},
			{
				"type": "unocc",
				"energy": -0.02191,
				"method": "rhf"
			},
			{
				"type": "unocc",
				"energy": 0.00852,
				"method": "rhf"
			},
			{
				"type": "unocc",
				"energy": 0.06216,
				"method": "rhf"
			},
			{
				"type": "unocc",
				"energy": 0.0724,
				"method": "rhf"
			},
			{
				"type": "unocc",
				"energy": 0.09174,
				"method": "rhf"
			}
		],
		"cosmo_sigma_profile": { 
			"-0.025": 0.0,
			"-0.024": 0.0,
			"-0.023": 0.0,
			"-0.022": 0.0,
			"-0.021": 0.0,
			"-0.02": 0.0,
			"-0.019": 0.0,
			"-0.018": 0.414028151996,
			"-0.017": 1.30570500899,
			"-0.016": 0.898382117137,
			"-0.015": 1.20494039784,
			"-0.014": 1.13020320813,
			"-0.013": 1.11997281343,
			"-0.012": 1.83617232192,
			"-0.011": 2.34263686131,
			"-0.01": 1.93030469121,
			"-0.009": 2.46491483824,
			"-0.008": 2.39632816302,
			"-0.007": 3.04577211239,
			"-0.006": 6.47787719699,
			"-0.005": 10.697276587,
			"-0.004": 19.1887386086,
			"-0.003": 20.0179984642,
			"-0.002": 17.4611010709,
			"-0.001": 13.6922818908,
			"0.0": 8.49038868416,
			"0.001": 8.62544979744,
			"0.002": 10.0300824638,
			"0.003": 12.7103021582,
			"0.004": 12.1289384161,
			"0.005": 12.2107426101,
			"0.006": 4.1757581754,
			"0.007": 2.71372198335,
			"0.008": 2.59403136309,
			"0.009": 2.75317424912,
			"0.01": 1.94451391551,
			"0.011": 1.63047172186,
			"0.012": 2.2666138619,
			"0.013": 1.90412672885,
			"0.014": 1.23277022598,
			"0.015": 1.32774680608,
			"0.016": 1.27808828676,
			"0.017": 1.31017712259,
			"0.018": 1.30045995216,
			"0.019": 1.29072387144,
			"0.02": 0.821051517479,
			"0.021": 0.00683670664522,
			"0.022": 0.0,
			"0.023": 0.0,
			"0.024": 0.0,
			"0.025": 0.0
		}
	}
}
