{
	 "smiles": "COC1=C(C)C(=CC=C1)C(=O)NN(C(=O)C1=CC(C)=CC(C)=C1)C(C)(C)C", 
	 "Tm": 477.15, 
	 "num_atms": 55, 
	 "gaussian": { 
		 "optdone": 1, 
		 "sigma_profile": "yes", 
		 "theory": "DFT", 
		 "functional": "B3LYP", 
		 "basiset": "6-31G**", 
		 "properties": { 
			 "R2extent": 11774.1523, 
			 "electric_dipole_moment_norm": 1.81406071839, 
			 "electric_quadrupole_moment_norm": 24.987528913, 
			 "total_energy": -1190.3938161, 
			 "HOMO_LUMO_gap": 0.18454, 
			 "cosmo_polarized_energy": -16.5, 
			 "cosmo_cavitation_energy": 54.45, 
			 "cosmo_dispersion_energy": -35.53, 
			 "cosmo_repulsion_energy": 2.7, 
			 "cosmo_total_nonelectrostatic_energy": 21.62, 
			 "SMD_solvation_energy": 11.59 
		},
		"coords": [
			{
				"x": -2.2344866905,
				"y": -1.1635574171,
				"z": 6.241419397,
				"element": "C" 
			},
			{
				"x": -1.0531911332,
				"y": -1.3511258378,
				"z": 5.4798953166,
				"element": "O" 
			},
			{
				"x": -0.9826390695,
				"y": -0.7963561762,
				"z": 4.2319971462,
				"element": "C" 
			},
			{
				"x": 0.2272633712,
				"y": -1.03698228,
				"z": 3.5394737145,
				"element": "C" 
			},
			{
				"x": 1.2781746511,
				"y": -1.8722022305,
				"z": 4.2317050343,
				"element": "C" 
			},
			{
				"x": 0.3621010877,
				"y": -0.4966956314,
				"z": 2.2446730295,
				"element": "C" 
			},
			{
				"x": -0.679126283,
				"y": 0.2596045613,
				"z": 1.6744880722,
				"element": "C" 
			},
			{
				"x": -1.8489067063,
				"y": 0.4896768102,
				"z": 2.3853145095,
				"element": "C" 
			},
			{
				"x": -2.0113456037,
				"y": -0.0400470825,
				"z": 3.6661233405,
				"element": "C" 
			},
			{
				"x": 1.6772218224,
				"y": -0.6469207032,
				"z": 1.5276181977,
				"element": "C" 
			},
			{
				"x": 2.7532657495,
				"y": -0.5051812441,
				"z": 2.0984268345,
				"element": "O" 
			},
			{
				"x": 1.708587962,
				"y": -0.94527422,
				"z": 0.1748444831,
				"element": "N" 
			},
			{
				"x": 0.6454242822,
				"y": -1.2151135132,
				"z": -0.6731258431,
				"element": "N" 
			},
			{
				"x": 0.4222165316,
				"y": -0.330165163,
				"z": -1.7313701,
				"element": "C" 
			},
			{
				"x": -0.3751194635,
				"y": -0.6184120918,
				"z": -2.6193684599,
				"element": "O" 
			},
			{
				"x": 1.2026902736,
				"y": 0.9638417859,
				"z": -1.8533500663,
				"element": "C" 
			},
			{
				"x": 1.4494916663,
				"y": 1.357176288,
				"z": -3.1804425528,
				"element": "C" 
			},
			{
				"x": 2.1239086043,
				"y": 2.541527842,
				"z": -3.4768927648,
				"element": "C" 
			},
			{
				"x": 2.4265808515,
				"y": 2.9259785061,
				"z": -4.9067200304,
				"element": "C" 
			},
			{
				"x": 2.5281432996,
				"y": 3.3619337873,
				"z": -2.4151092695,
				"element": "C" 
			},
			{
				"x": 2.2723259721,
				"y": 3.0177975993,
				"z": -1.0855069369,
				"element": "C" 
			},
			{
				"x": 2.6716966524,
				"y": 3.935559116,
				"z": 0.0472891008,
				"element": "C" 
			},
			{
				"x": 1.6183517746,
				"y": 1.8083255805,
				"z": -0.8147632578,
				"element": "C" 
			},
			{
				"x": 0.1528658165,
				"y": -2.6586933285,
				"z": -0.7802803507,
				"element": "C" 
			},
			{
				"x": 0.6427362392,
				"y": -3.455421313,
				"z": 0.4380193195,
				"element": "C" 
			},
			{
				"x": 0.7226535649,
				"y": -3.3099595393,
				"z": -2.0561774586,
				"element": "C" 
			},
			{
				"x": -1.3871060383,
				"y": -2.6686572523,
				"z": -0.7837695621,
				"element": "C" 
			},
			{
				"x": -2.0714868289,
				"y": -1.6902638731,
				"z": 7.1829811971,
				"element": "H" 
			},
			{
				"x": -3.1136551745,
				"y": -1.5872552507,
				"z": 5.7388725811,
				"element": "H" 
			},
			{
				"x": -2.41841028,
				"y": -0.1018051731,
				"z": 6.4503040668,
				"element": "H" 
			},
			{
				"x": 0.8112994746,
				"y": -2.7305239247,
				"z": 4.7222246045,
				"element": "H" 
			},
			{
				"x": 1.7743477575,
				"y": -1.2904324421,
				"z": 5.0168699346,
				"element": "H" 
			},
			{
				"x": 2.0512912147,
				"y": -2.2130841721,
				"z": 3.5469733779,
				"element": "H" 
			},
			{
				"x": -0.5701328666,
				"y": 0.6793342203,
				"z": 0.6840439765,
				"element": "H" 
			},
			{
				"x": -2.6434977322,
				"y": 1.0841821399,
				"z": 1.9447923909,
				"element": "H" 
			},
			{
				"x": -2.9303569037,
				"y": 0.1424636683,
				"z": 4.2098451011,
				"element": "H" 
			},
			{
				"x": 2.6525277028,
				"y": -1.0304080263,
				"z": -0.1897863279,
				"element": "H" 
			},
			{
				"x": 1.0939327085,
				"y": 0.7166109272,
				"z": -3.9801838528,
				"element": "H" 
			},
			{
				"x": 1.7973597662,
				"y": 2.3730540525,
				"z": -5.6094919035,
				"element": "H" 
			},
			{
				"x": 3.4720777186,
				"y": 2.7128906464,
				"z": -5.162180629,
				"element": "H" 
			},
			{
				"x": 2.2653117007,
				"y": 3.9956421862,
				"z": -5.0758654423,
				"element": "H" 
			},
			{
				"x": 3.0495807353,
				"y": 4.292690271,
				"z": -2.6309357696,
				"element": "H" 
			},
			{
				"x": 2.969387478,
				"y": 3.368202277,
				"z": 0.9341878348,
				"element": "H" 
			},
			{
				"x": 1.839274471,
				"y": 4.5870453558,
				"z": 0.3415286794,
				"element": "H" 
			},
			{
				"x": 3.5063174897,
				"y": 4.5824696579,
				"z": -0.2383820063,
				"element": "H" 
			},
			{
				"x": 1.4290235817,
				"y": 1.5580197659,
				"z": 0.2197897292,
				"element": "H" 
			},
			{
				"x": 0.2592430957,
				"y": -3.0476271163,
				"z": 1.3757193058,
				"element": "H" 
			},
			{
				"x": 0.2668547971,
				"y": -4.4780568774,
				"z": 0.3420422282,
				"element": "H" 
			},
			{
				"x": 1.7328523732,
				"y": -3.506190477,
				"z": 0.4960238921,
				"element": "H" 
			},
			{
				"x": 1.8186177897,
				"y": -3.3057602151,
				"z": -2.036976998,
				"element": "H" 
			},
			{
				"x": 0.3813080985,
				"y": -2.7934920392,
				"z": -2.9529419303,
				"element": "H" 
			},
			{
				"x": 0.3961535689,
				"y": -4.3535015763,
				"z": -2.1116397172,
				"element": "H" 
			},
			{
				"x": -1.7840474143,
				"y": -2.1545171696,
				"z": -1.6572816526,
				"element": "H" 
			},
			{
				"x": -1.7403502428,
				"y": -3.7054022678,
				"z": -0.7922167674,
				"element": "H" 
			},
			{
				"x": -1.7713032643,
				"y": -2.1839414203,
				"z": 0.1184732541,
				"element": "H" 
			}
		],
		 "valence_orbital": [ 
			{
				"type": "occ",
				"energy": -0.25351,
				"method": "rhf"
			},
			{
				"type": "occ",
				"energy": -0.24056,
				"method": "rhf"
			},
			{
				"type": "occ",
				"energy": -0.23616,
				"method": "rhf"
			},
			{
				"type": "occ",
				"energy": -0.23546,
				"method": "rhf"
			},
			{
				"type": "occ",
				"energy": -0.22089,
				"method": "rhf"
			},
			{
				"type": "unocc",
				"energy": -0.03635,
				"method": "rhf"
			},
			{
				"type": "unocc",
				"energy": -0.0267,
				"method": "rhf"
			},
			{
				"type": "unocc",
				"energy": 0.00102,
				"method": "rhf"
			},
			{
				"type": "unocc",
				"energy": 0.00292,
				"method": "rhf"
			},
			{
				"type": "unocc",
				"energy": 0.04092,
				"method": "rhf"
			}
		],
		"cosmo_sigma_profile": { 
			"-0.025": 0.0,
			"-0.024": 0.0,
			"-0.023": 0.0,
			"-0.022": 0.0,
			"-0.021": 0.0,
			"-0.02": 0.0,
			"-0.019": 0.0,
			"-0.018": 0.0,
			"-0.017": 0.0,
			"-0.016": 0.0,
			"-0.015": 0.00139830958857,
			"-0.014": 0.493937661226,
			"-0.013": 0.866218546368,
			"-0.012": 0.985439560677,
			"-0.011": 0.780357836913,
			"-0.01": 0.778617254666,
			"-0.009": 1.43786139012,
			"-0.008": 1.42631898741,
			"-0.007": 2.35858012647,
			"-0.006": 10.161319805,
			"-0.005": 22.0195631312,
			"-0.004": 43.4543568539,
			"-0.003": 42.2089963308,
			"-0.002": 40.607936766,
			"-0.001": 46.6987174741,
			"0.0": 52.0110215377,
			"0.001": 43.5150687011,
			"0.002": 25.5551677367,
			"0.003": 18.1670382914,
			"0.004": 19.4878050682,
			"0.005": 16.0174009293,
			"0.006": 6.29718769986,
			"0.007": 5.91328091646,
			"0.008": 3.56175296551,
			"0.009": 4.06991933285,
			"0.01": 2.99242563312,
			"0.011": 3.61864924392,
			"0.012": 4.49298948418,
			"0.013": 7.00383225912,
			"0.014": 1.26950617306,
			"0.015": 0.0,
			"0.016": 0.0,
			"0.017": 0.0,
			"0.018": 0.0,
			"0.019": 0.0,
			"0.02": 0.0,
			"0.021": 0.0,
			"0.022": 0.0,
			"0.023": 0.0,
			"0.024": 0.0,
			"0.025": 0.0
		}
	}
}
