{
	 "smiles": "OC(=O)C1=C(NC(=O)C2=C(Br)C=CC=C2)C=CC=C1", 
	 "Tm": 475.15, 
	 "num_atms": 29, 
	 "gaussian": { 
		 "optdone": 1, 
		 "sigma_profile": "yes", 
		 "theory": "DFT", 
		 "functional": "B3LYP", 
		 "basiset": "6-31G**", 
		 "properties": { 
			 "R2extent": 7255.6734, 
			 "electric_dipole_moment_norm": 5.4005015119, 
			 "electric_quadrupole_moment_norm": 11.9220466674, 
			 "total_energy": -3391.37260295, 
			 "HOMO_LUMO_gap": 0.16945, 
			 "cosmo_polarized_energy": -16.4, 
			 "cosmo_cavitation_energy": 36.27, 
			 "cosmo_dispersion_energy": -25.58, 
			 "cosmo_repulsion_energy": 1.98, 
			 "cosmo_total_nonelectrostatic_energy": 12.66, 
			 "SMD_solvation_energy": 6.58 
		},
		"coords": [
			{
				"x": -2.3931552697,
				"y": -2.5824399807,
				"z": -3.7461785706,
				"element": "O" 
			},
			{
				"x": -1.4911973111,
				"y": -2.1729209314,
				"z": -2.8240091782,
				"element": "C" 
			},
			{
				"x": -1.1609522718,
				"y": -2.9150965542,
				"z": -1.9070628033,
				"element": "O" 
			},
			{
				"x": -0.9799085345,
				"y": -0.8062706958,
				"z": -3.0631139393,
				"element": "C" 
			},
			{
				"x": -0.130613801,
				"y": -0.1605685483,
				"z": -2.1184748228,
				"element": "C" 
			},
			{
				"x": 0.1996521062,
				"y": -0.813380272,
				"z": -0.9295830571,
				"element": "N" 
			},
			{
				"x": 0.6873833977,
				"y": -0.3520317898,
				"z": 0.283520172,
				"element": "C" 
			},
			{
				"x": 1.1078571598,
				"y": -1.1437825646,
				"z": 1.1109455528,
				"element": "O" 
			},
			{
				"x": 0.5568613159,
				"y": 1.1119400834,
				"z": 0.622018486,
				"element": "C" 
			},
			{
				"x": 1.6517276082,
				"y": 1.9092376263,
				"z": 0.9783242018,
				"element": "C" 
			},
			{
				"x": 3.437287421,
				"y": 1.2508102843,
				"z": 0.8089767504,
				"element": "Br" 
			},
			{
				"x": 1.4750863297,
				"y": 3.2210683525,
				"z": 1.4175390878,
				"element": "C" 
			},
			{
				"x": 0.187528146,
				"y": 3.7474068028,
				"z": 1.5221960756,
				"element": "C" 
			},
			{
				"x": -0.9172728372,
				"y": 2.9689645681,
				"z": 1.1749065388,
				"element": "C" 
			},
			{
				"x": -0.728274255,
				"y": 1.6646793072,
				"z": 0.7234061286,
				"element": "C" 
			},
			{
				"x": 0.3866499396,
				"y": 1.1065202628,
				"z": -2.4449862072,
				"element": "C" 
			},
			{
				"x": 0.0361899533,
				"y": 1.7355333405,
				"z": -3.6329247115,
				"element": "C" 
			},
			{
				"x": -0.8236297522,
				"y": 1.1191883274,
				"z": -4.5473678386,
				"element": "C" 
			},
			{
				"x": -1.3126230577,
				"y": -0.1465974716,
				"z": -4.260143964,
				"element": "C" 
			},
			{
				"x": -2.6292412524,
				"y": -3.4906354883,
				"z": -3.4950671573,
				"element": "H" 
			},
			{
				"x": 0.0301067473,
				"y": -1.8194591218,
				"z": -0.9379870564,
				"element": "H" 
			},
			{
				"x": 2.3411499631,
				"y": 3.8202537352,
				"z": 1.6744448572,
				"element": "H" 
			},
			{
				"x": 0.0537645846,
				"y": 4.7664616083,
				"z": 1.872535249,
				"element": "H" 
			},
			{
				"x": -1.9211074644,
				"y": 3.3742639919,
				"z": 1.2547156984,
				"element": "H" 
			},
			{
				"x": -1.5834324941,
				"y": 1.0532495381,
				"z": 0.4513304905,
				"element": "H" 
			},
			{
				"x": 1.0833049799,
				"y": 1.5872640547,
				"z": -1.7720826244,
				"element": "H" 
			},
			{
				"x": 0.4559430699,
				"y": 2.7128332057,
				"z": -3.8534579773,
				"element": "H" 
			},
			{
				"x": -1.0902341376,
				"y": 1.6126094991,
				"z": -5.476093646,
				"element": "H" 
			},
			{
				"x": -1.9606502834,
				"y": -0.6550011698,
				"z": -4.963825735,
				"element": "H" 
			}
		],
		 "valence_orbital": [ 
			{
				"type": "occ",
				"energy": -0.27652,
				"method": "rhf"
			},
			{
				"type": "occ",
				"energy": -0.26895,
				"method": "rhf"
			},
			{
				"type": "occ",
				"energy": -0.25606,
				"method": "rhf"
			},
			{
				"type": "occ",
				"energy": -0.24647,
				"method": "rhf"
			},
			{
				"type": "occ",
				"energy": -0.23069,
				"method": "rhf"
			},
			{
				"type": "unocc",
				"energy": -0.06124,
				"method": "rhf"
			},
			{
				"type": "unocc",
				"energy": -0.03647,
				"method": "rhf"
			},
			{
				"type": "unocc",
				"energy": -0.0223,
				"method": "rhf"
			},
			{
				"type": "unocc",
				"energy": -0.01743,
				"method": "rhf"
			},
			{
				"type": "unocc",
				"energy": 0.00471,
				"method": "rhf"
			}
		],
		"cosmo_sigma_profile": { 
			"-0.025": 0.0,
			"-0.024": 0.0,
			"-0.023": 0.0,
			"-0.022": 0.0,
			"-0.021": 0.0,
			"-0.02": 0.0,
			"-0.019": 0.258738850275,
			"-0.018": 0.760304179612,
			"-0.017": 0.904901208012,
			"-0.016": 0.959457533935,
			"-0.015": 0.737920316978,
			"-0.014": 0.662165683686,
			"-0.013": 0.690603908516,
			"-0.012": 0.624559145128,
			"-0.011": 0.702533077467,
			"-0.01": 0.462705266064,
			"-0.009": 0.435300441614,
			"-0.008": 1.76170583479,
			"-0.007": 11.0730020068,
			"-0.006": 16.837894721,
			"-0.005": 20.5295065077,
			"-0.004": 18.2706936229,
			"-0.003": 19.3746097569,
			"-0.002": 20.8292213336,
			"-0.001": 19.8517928932,
			"0.0": 19.4553530014,
			"0.001": 25.540806106,
			"0.002": 27.8501305861,
			"0.003": 28.9369493315,
			"0.004": 16.5641390869,
			"0.005": 7.24475749944,
			"0.006": 4.97953670353,
			"0.007": 3.93009076278,
			"0.008": 3.71622386551,
			"0.009": 3.22972250313,
			"0.01": 4.48405946269,
			"0.011": 4.67063366803,
			"0.012": 5.64167130708,
			"0.013": 2.68316389689,
			"0.014": 0.10528698389,
			"0.015": 0.0,
			"0.016": 0.0,
			"0.017": 0.0,
			"0.018": 0.0,
			"0.019": 0.0,
			"0.02": 0.0,
			"0.021": 0.0,
			"0.022": 0.0,
			"0.023": 0.0,
			"0.024": 0.0,
			"0.025": 0.0
		}
	}
}
