{
	 "smiles": "NC1=C(C=C(Cl)C=C1[N+]([O-])=O)[N+]([O-])=O", 
	 "Tm": 420.15, 
	 "num_atms": 18, 
	 "gaussian": { 
		 "optdone": 1, 
		 "sigma_profile": "yes", 
		 "theory": "DFT", 
		 "functional": "B3LYP", 
		 "basiset": "6-31G**", 
		 "properties": { 
			 "R2extent": 3674.0679, 
			 "electric_dipole_moment_norm": 0.0542575340391, 
			 "electric_quadrupole_moment_norm": 13.7161009868, 
			 "total_energy": -1156.19464037, 
			 "HOMO_LUMO_gap": 0.12835, 
			 "cosmo_polarized_energy": -10.83, 
			 "cosmo_cavitation_energy": 25.42, 
			 "cosmo_dispersion_energy": -19.48, 
			 "cosmo_repulsion_energy": 1.52, 
			 "cosmo_total_nonelectrostatic_energy": 7.45, 
			 "SMD_solvation_energy": 8.02 
		},
		"coords": [
			{
				"x": -1.0718179103,
				"y": 1.0437338504,
				"z": 1.2274024322,
				"element": "N" 
			},
			{
				"x": -0.7934160777,
				"y": -0.0128984079,
				"z": 0.4558440143,
				"element": "C" 
			},
			{
				"x": -1.3365866568,
				"y": -0.1803943811,
				"z": -0.8648150362,
				"element": "C" 
			},
			{
				"x": -1.0431801198,
				"y": -1.2830652013,
				"z": -1.6632013334,
				"element": "C" 
			},
			{
				"x": -0.1962874025,
				"y": -2.2806609057,
				"z": -1.199730461,
				"element": "C" 
			},
			{
				"x": 0.1670471705,
				"y": -3.6620654823,
				"z": -2.2079191278,
				"element": "Cl" 
			},
			{
				"x": 0.3609134069,
				"y": -2.1768894702,
				"z": 0.0675476085,
				"element": "C" 
			},
			{
				"x": 0.0751886565,
				"y": -1.0790807226,
				"z": 0.8753780643,
				"element": "C" 
			},
			{
				"x": 0.7169726679,
				"y": -1.0760405867,
				"z": 2.186945015,
				"element": "N" 
			},
			{
				"x": 1.4470759794,
				"y": -2.0202353706,
				"z": 2.4773317811,
				"element": "O" 
			},
			{
				"x": 0.5037428537,
				"y": -0.125191369,
				"z": 2.9582643607,
				"element": "O" 
			},
			{
				"x": -2.2380411732,
				"y": 0.8048796586,
				"z": -1.4553551155,
				"element": "N" 
			},
			{
				"x": -2.5416742787,
				"y": 1.8133605011,
				"z": -0.7955869631,
				"element": "O" 
			},
			{
				"x": -2.6628804916,
				"y": 0.5960117765,
				"z": -2.588833516,
				"element": "O" 
			},
			{
				"x": -0.6442497947,
				"y": 1.0792890091,
				"z": 2.1432476661,
				"element": "H" 
			},
			{
				"x": -1.6932184522,
				"y": 1.7469841704,
				"z": 0.8503652807,
				"element": "H" 
			},
			{
				"x": -1.4921829038,
				"y": -1.3360112996,
				"z": -2.64626732,
				"element": "H" 
			},
			{
				"x": 1.0245945266,
				"y": -2.9381257691,
				"z": 0.4559826501,
				"element": "H" 
			}
		],
		 "valence_orbital": [ 
			{
				"type": "occ",
				"energy": -0.32564,
				"method": "rhf"
			},
			{
				"type": "occ",
				"energy": -0.31984,
				"method": "rhf"
			},
			{
				"type": "occ",
				"energy": -0.31727,
				"method": "rhf"
			},
			{
				"type": "occ",
				"energy": -0.30878,
				"method": "rhf"
			},
			{
				"type": "occ",
				"energy": -0.25196,
				"method": "rhf"
			},
			{
				"type": "unocc",
				"energy": -0.12361,
				"method": "rhf"
			},
			{
				"type": "unocc",
				"energy": -0.09612,
				"method": "rhf"
			},
			{
				"type": "unocc",
				"energy": -0.03103,
				"method": "rhf"
			},
			{
				"type": "unocc",
				"energy": -0.01504,
				"method": "rhf"
			},
			{
				"type": "unocc",
				"energy": 0.00103,
				"method": "rhf"
			}
		],
		"cosmo_sigma_profile": { 
			"-0.025": 0.0,
			"-0.024": 0.0,
			"-0.023": 0.0,
			"-0.022": 0.0,
			"-0.021": 0.0,
			"-0.02": 0.0,
			"-0.019": 0.0,
			"-0.018": 0.0,
			"-0.017": 0.0,
			"-0.016": 0.0,
			"-0.015": 0.0,
			"-0.014": 0.0,
			"-0.013": 0.0,
			"-0.012": 0.772999824783,
			"-0.011": 1.67701321668,
			"-0.01": 1.94401841382,
			"-0.009": 2.20725539923,
			"-0.008": 4.63814196046,
			"-0.007": 8.50314882633,
			"-0.006": 8.57281228982,
			"-0.005": 10.9149717371,
			"-0.004": 16.7875948275,
			"-0.003": 20.4249322303,
			"-0.002": 19.1498131212,
			"-0.001": 13.0183439936,
			"0.0": 10.3385843124,
			"0.001": 9.67739301026,
			"0.002": 10.1751896654,
			"0.003": 12.1888075742,
			"0.004": 11.205255821,
			"0.005": 5.98472371385,
			"0.006": 7.59149068908,
			"0.007": 11.7889872922,
			"0.008": 8.76795730384,
			"0.009": 8.12119751737,
			"0.01": 3.2334450396,
			"0.011": 0.0,
			"0.012": 0.0,
			"0.013": 0.0,
			"0.014": 0.0,
			"0.015": 0.0,
			"0.016": 0.0,
			"0.017": 0.0,
			"0.018": 0.0,
			"0.019": 0.0,
			"0.02": 0.0,
			"0.021": 0.0,
			"0.022": 0.0,
			"0.023": 0.0,
			"0.024": 0.0,
			"0.025": 0.0
		}
	}
}
