{
	 "smiles": "OC1=CC2=C(C=C1)C(=O)C(=CO2)C1=CC=CC=C1", 
	 "Tm": 475.15, 
	 "num_atms": 28, 
	 "gaussian": { 
		 "optdone": 1, 
		 "sigma_profile": "yes", 
		 "theory": "DFT", 
		 "functional": "B3LYP", 
		 "basiset": "6-31G**", 
		 "properties": { 
			 "R2extent": 5919.8358, 
			 "electric_dipole_moment_norm": 4.19773816597, 
			 "electric_quadrupole_moment_norm": 14.4434339193, 
			 "total_energy": -803.287736096, 
			 "HOMO_LUMO_gap": 0.17142, 
			 "cosmo_polarized_energy": -16.0, 
			 "cosmo_cavitation_energy": 32.67, 
			 "cosmo_dispersion_energy": -24.31, 
			 "cosmo_repulsion_energy": 1.82, 
			 "cosmo_total_nonelectrostatic_energy": 10.18, 
			 "SMD_solvation_energy": 6.84 
		},
		"coords": [
			{
				"x": 3.294686362,
				"y": -4.4459436852,
				"z": 2.6924311914,
				"element": "O" 
			},
			{
				"x": 2.629897359,
				"y": -3.3953025867,
				"z": 2.1426469925,
				"element": "C" 
			},
			{
				"x": 2.5671774066,
				"y": -3.1836318587,
				"z": 0.767403914,
				"element": "C" 
			},
			{
				"x": 1.8609623409,
				"y": -2.0746318207,
				"z": 0.2942597757,
				"element": "C" 
			},
			{
				"x": 1.2166274466,
				"y": -1.1775498713,
				"z": 1.1540639833,
				"element": "C" 
			},
			{
				"x": 1.2985381238,
				"y": -1.4223109097,
				"z": 2.5390706479,
				"element": "C" 
			},
			{
				"x": 1.9916952415,
				"y": -2.5084336889,
				"z": 3.0351672705,
				"element": "C" 
			},
			{
				"x": 0.4753960508,
				"y": -0.0166527988,
				"z": 0.6258734762,
				"element": "C" 
			},
			{
				"x": -0.1255698742,
				"y": 0.7641123748,
				"z": 1.3639507066,
				"element": "O" 
			},
			{
				"x": 0.5233404435,
				"y": 0.1191958318,
				"z": -0.8496615008,
				"element": "C" 
			},
			{
				"x": 1.1627994513,
				"y": -0.8364000853,
				"z": -1.569056205,
				"element": "C" 
			},
			{
				"x": 1.8210693061,
				"y": -1.9080243421,
				"z": -1.0634283137,
				"element": "O" 
			},
			{
				"x": -0.109551494,
				"y": 1.2645930642,
				"z": -1.5475944021,
				"element": "C" 
			},
			{
				"x": 0.5107666305,
				"y": 1.8456542393,
				"z": -2.6674363033,
				"element": "C" 
			},
			{
				"x": -0.0953643661,
				"y": 2.892525266,
				"z": -3.360414512,
				"element": "C" 
			},
			{
				"x": -1.3289342402,
				"y": 3.3894911068,
				"z": -2.9373156527,
				"element": "C" 
			},
			{
				"x": -1.945627328,
				"y": 2.8339748974,
				"z": -1.8143696748,
				"element": "C" 
			},
			{
				"x": -1.3449026276,
				"y": 1.7838750571,
				"z": -1.1219286557,
				"element": "C" 
			},
			{
				"x": 3.689902692,
				"y": -4.9827784987,
				"z": 1.992855706,
				"element": "H" 
			},
			{
				"x": 3.0478609497,
				"y": -3.8520201464,
				"z": 0.0592061721,
				"element": "H" 
			},
			{
				"x": 0.7957710556,
				"y": -0.7232401241,
				"z": 3.198965765,
				"element": "H" 
			},
			{
				"x": 2.0613734976,
				"y": -2.7043278987,
				"z": 4.0994695613,
				"element": "H" 
			},
			{
				"x": 1.2025486146,
				"y": -0.8439913586,
				"z": -2.6519702747,
				"element": "H" 
			},
			{
				"x": 1.4885972176,
				"y": 1.4913882297,
				"z": -2.9820635652,
				"element": "H" 
			},
			{
				"x": 0.4037753626,
				"y": 3.3283297214,
				"z": -4.2213266167,
				"element": "H" 
			},
			{
				"x": -1.8001467412,
				"y": 4.2099221821,
				"z": -3.471017729,
				"element": "H" 
			},
			{
				"x": -2.9016794743,
				"y": 3.2206812375,
				"z": -1.4728369658,
				"element": "H" 
			},
			{
				"x": -1.8204094067,
				"y": 1.3675964658,
				"z": -0.2431447908,
				"element": "H" 
			}
		],
		 "valence_orbital": [ 
			{
				"type": "occ",
				"energy": -0.26039,
				"method": "rhf"
			},
			{
				"type": "occ",
				"energy": -0.24866,
				"method": "rhf"
			},
			{
				"type": "occ",
				"energy": -0.23879,
				"method": "rhf"
			},
			{
				"type": "occ",
				"energy": -0.2387,
				"method": "rhf"
			},
			{
				"type": "occ",
				"energy": -0.22313,
				"method": "rhf"
			},
			{
				"type": "unocc",
				"energy": -0.05171,
				"method": "rhf"
			},
			{
				"type": "unocc",
				"energy": -0.02823,
				"method": "rhf"
			},
			{
				"type": "unocc",
				"energy": -0.00558,
				"method": "rhf"
			},
			{
				"type": "unocc",
				"energy": 0.00332,
				"method": "rhf"
			},
			{
				"type": "unocc",
				"energy": 0.01898,
				"method": "rhf"
			}
		],
		"cosmo_sigma_profile": { 
			"-0.025": 0.0,
			"-0.024": 0.0,
			"-0.023": 0.0,
			"-0.022": 0.0,
			"-0.021": 0.0,
			"-0.02": 0.0,
			"-0.019": 0.296316574882,
			"-0.018": 1.22097843724,
			"-0.017": 1.36345470673,
			"-0.016": 1.18033844235,
			"-0.015": 1.05929814708,
			"-0.014": 0.949581946256,
			"-0.013": 0.688218342982,
			"-0.012": 0.770021728022,
			"-0.011": 1.47624729815,
			"-0.01": 2.14112444313,
			"-0.009": 2.44204248781,
			"-0.008": 4.00299233738,
			"-0.007": 5.00608865785,
			"-0.006": 10.7318899545,
			"-0.005": 14.7989751865,
			"-0.004": 16.5435911627,
			"-0.003": 17.3156211799,
			"-0.002": 15.7945817992,
			"-0.001": 18.6937902575,
			"0.0": 19.5395386175,
			"0.001": 23.9263977951,
			"0.002": 23.5583140692,
			"0.003": 17.9646248585,
			"0.004": 15.5734862013,
			"0.005": 12.1404510583,
			"0.006": 9.90143172878,
			"0.007": 4.28971705251,
			"0.008": 3.2263766801,
			"0.009": 2.60770222017,
			"0.01": 3.66848189907,
			"0.011": 2.90260460674,
			"0.012": 2.53987550635,
			"0.013": 3.97356443506,
			"0.014": 0.788532044146,
			"0.015": 0.0,
			"0.016": 0.0,
			"0.017": 0.0,
			"0.018": 0.0,
			"0.019": 0.0,
			"0.02": 0.0,
			"0.021": 0.0,
			"0.022": 0.0,
			"0.023": 0.0,
			"0.024": 0.0,
			"0.025": 0.0
		}
	}
}
