{
	 "smiles": "OC1=C(Br)C=C(F)C=C1", 
	 "Tm": 317.15, 
	 "num_atms": 13, 
	 "gaussian": { 
		 "optdone": 1, 
		 "sigma_profile": "yes", 
		 "theory": "DFT", 
		 "functional": "B3LYP", 
		 "basiset": "6-31G**", 
		 "properties": { 
			 "R2extent": 3692.9182, 
			 "electric_dipole_moment_norm": 0.501673090767, 
			 "electric_quadrupole_moment_norm": 4.43735615316, 
			 "total_energy": -2977.50540056, 
			 "HOMO_LUMO_gap": 0.20225, 
			 "cosmo_polarized_energy": -5.15, 
			 "cosmo_cavitation_energy": 19.99, 
			 "cosmo_dispersion_energy": -15.44, 
			 "cosmo_repulsion_energy": 1.23, 
			 "cosmo_total_nonelectrostatic_energy": 5.78, 
			 "SMD_solvation_energy": 3.26 
		},
		"coords": [
			{
				"x": -1.2367931564,
				"y": 1.7378841362,
				"z": 4.3114772377,
				"element": "O" 
			},
			{
				"x": -0.9567346038,
				"y": 0.7088570632,
				"z": 3.4735351926,
				"element": "C" 
			},
			{
				"x": -0.6309904159,
				"y": 0.8723967353,
				"z": 2.1189682338,
				"element": "C" 
			},
			{
				"x": -0.5758359891,
				"y": 2.6483303304,
				"z": 1.4021932245,
				"element": "Br" 
			},
			{
				"x": -0.3502092158,
				"y": -0.2145605132,
				"z": 1.2943171241,
				"element": "C" 
			},
			{
				"x": -0.3991039621,
				"y": -1.4876232503,
				"z": 1.8463382499,
				"element": "C" 
			},
			{
				"x": -0.1290866859,
				"y": -2.549408159,
				"z": 1.0578349639,
				"element": "F" 
			},
			{
				"x": -0.7179658104,
				"y": -1.6929671142,
				"z": 3.1850529126,
				"element": "C" 
			},
			{
				"x": -0.9949185742,
				"y": -0.5930494613,
				"z": 3.990691584,
				"element": "C" 
			},
			{
				"x": -1.1711140413,
				"y": 2.5697641094,
				"z": 3.8157653342,
				"element": "H" 
			},
			{
				"x": -0.0994680582,
				"y": -0.0802308477,
				"z": 0.249444509,
				"element": "H" 
			},
			{
				"x": -0.7464166073,
				"y": -2.7017732586,
				"z": 3.5812584309,
				"element": "H" 
			},
			{
				"x": -1.2470628795,
				"y": -0.7166197701,
				"z": 5.0384230028,
				"element": "H" 
			}
		],
		 "valence_orbital": [ 
			{
				"type": "occ",
				"energy": -0.35001,
				"method": "rhf"
			},
			{
				"type": "occ",
				"energy": -0.32219,
				"method": "rhf"
			},
			{
				"type": "occ",
				"energy": -0.31243,
				"method": "rhf"
			},
			{
				"type": "occ",
				"energy": -0.26243,
				"method": "rhf"
			},
			{
				"type": "occ",
				"energy": -0.22822,
				"method": "rhf"
			},
			{
				"type": "unocc",
				"energy": -0.02597,
				"method": "rhf"
			},
			{
				"type": "unocc",
				"energy": -0.01113,
				"method": "rhf"
			},
			{
				"type": "unocc",
				"energy": 0.00291,
				"method": "rhf"
			},
			{
				"type": "unocc",
				"energy": 0.0858,
				"method": "rhf"
			},
			{
				"type": "unocc",
				"energy": 0.10299,
				"method": "rhf"
			}
		],
		"cosmo_sigma_profile": { 
			"-0.025": 0.0,
			"-0.024": 0.0,
			"-0.023": 0.0,
			"-0.022": 0.0,
			"-0.021": 0.0,
			"-0.02": 0.0,
			"-0.019": 0.0,
			"-0.018": 0.0,
			"-0.017": 0.0,
			"-0.016": 0.0,
			"-0.015": 0.0407214228766,
			"-0.014": 0.80599385491,
			"-0.013": 0.581776831084,
			"-0.012": 0.262502002902,
			"-0.011": 0.78817636412,
			"-0.01": 0.934012479851,
			"-0.009": 1.6974835176,
			"-0.008": 3.34585560486,
			"-0.007": 5.5638478452,
			"-0.006": 6.78267271627,
			"-0.005": 7.78850832878,
			"-0.004": 6.77750512496,
			"-0.003": 7.17539141416,
			"-0.002": 7.93571196177,
			"-0.001": 10.1862913932,
			"0.0": 14.6512341187,
			"0.001": 20.2579707383,
			"0.002": 23.3391610744,
			"0.003": 16.6334603913,
			"0.004": 16.1911266844,
			"0.005": 3.87558579397,
			"0.006": 1.45256873108,
			"0.007": 1.63800692025,
			"0.008": 1.2129963228,
			"0.009": 1.40073190061,
			"0.01": 2.04229200201,
			"0.011": 0.76557326958,
			"0.012": 0.0,
			"0.013": 0.0,
			"0.014": 0.0,
			"0.015": 0.0,
			"0.016": 0.0,
			"0.017": 0.0,
			"0.018": 0.0,
			"0.019": 0.0,
			"0.02": 0.0,
			"0.021": 0.0,
			"0.022": 0.0,
			"0.023": 0.0,
			"0.024": 0.0,
			"0.025": 0.0
		}
	}
}
