{
	 "smiles": "CCC(C)C#CC", 
	 "Tm": 165.15, 
	 "num_atms": 19, 
	 "gaussian": { 
		 "optdone": 1, 
		 "sigma_profile": "yes", 
		 "theory": "DFT", 
		 "functional": "B3LYP", 
		 "basiset": "6-31G**", 
		 "properties": { 
			 "R2extent": 1418.0544, 
			 "electric_dipole_moment_norm": 0.184448637837, 
			 "electric_quadrupole_moment_norm": 4.01889696683, 
			 "total_energy": -273.931752645, 
			 "HOMO_LUMO_gap": 0.30141, 
			 "cosmo_polarized_energy": -3.09, 
			 "cosmo_cavitation_energy": 22.06, 
			 "cosmo_dispersion_energy": -15.62, 
			 "cosmo_repulsion_energy": 1.38, 
			 "cosmo_total_nonelectrostatic_energy": 7.83, 
			 "SMD_solvation_energy": 4.51 
		},
		"coords": [
			{
				"x": 0.8065420396,
				"y": -2.2862627664,
				"z": 0.4366670622,
				"element": "C" 
			},
			{
				"x": -0.1762829465,
				"y": -1.1178601095,
				"z": 0.5379561347,
				"element": "C" 
			},
			{
				"x": -0.8041599123,
				"y": -0.7035670063,
				"z": -0.8153514872,
				"element": "C" 
			},
			{
				"x": -1.874813404,
				"y": 0.3899750755,
				"z": -0.6210745435,
				"element": "C" 
			},
			{
				"x": 0.217420239,
				"y": -0.270330209,
				"z": -1.7794741904,
				"element": "C" 
			},
			{
				"x": 1.0571572175,
				"y": 0.104837504,
				"z": -2.5665311684,
				"element": "C" 
			},
			{
				"x": 2.0664170125,
				"y": 0.5551672514,
				"z": -3.5219175702,
				"element": "C" 
			},
			{
				"x": 1.2217811175,
				"y": -2.5373952419,
				"z": 1.4180601406,
				"element": "H" 
			},
			{
				"x": 0.3155252266,
				"y": -3.1840416026,
				"z": 0.0433878278,
				"element": "H" 
			},
			{
				"x": 1.6374576481,
				"y": -2.0412888651,
				"z": -0.2317220653,
				"element": "H" 
			},
			{
				"x": 0.3262913024,
				"y": -0.2435433434,
				"z": 0.9706734085,
				"element": "H" 
			},
			{
				"x": -0.9944941155,
				"y": -1.3793444252,
				"z": 1.221444003,
				"element": "H" 
			},
			{
				"x": -1.3037629438,
				"y": -1.5923814811,
				"z": -1.2309962809,
				"element": "H" 
			},
			{
				"x": -2.3371425387,
				"y": 0.6618024792,
				"z": -1.5740399322,
				"element": "H" 
			},
			{
				"x": -1.4294534379,
				"y": 1.2935612387,
				"z": -0.1924455709,
				"element": "H" 
			},
			{
				"x": -2.6604090946,
				"y": 0.0396406604,
				"z": 0.0569345748,
				"element": "H" 
			},
			{
				"x": 2.2967008546,
				"y": 1.618441547,
				"z": -3.3882857709,
				"element": "H" 
			},
			{
				"x": 1.7263611279,
				"y": 0.4182020039,
				"z": -4.5549210613,
				"element": "H" 
			},
			{
				"x": 3.0028646078,
				"y": -0.0025127098,
				"z": -3.4061635103,
				"element": "H" 
			}
		],
		 "valence_orbital": [ 
			{
				"type": "occ",
				"energy": -0.34084,
				"method": "rhf"
			},
			{
				"type": "occ",
				"energy": -0.33293,
				"method": "rhf"
			},
			{
				"type": "occ",
				"energy": -0.3286,
				"method": "rhf"
			},
			{
				"type": "occ",
				"energy": -0.24023,
				"method": "rhf"
			},
			{
				"type": "occ",
				"energy": -0.23955,
				"method": "rhf"
			},
			{
				"type": "unocc",
				"energy": 0.06186,
				"method": "rhf"
			},
			{
				"type": "unocc",
				"energy": 0.06569,
				"method": "rhf"
			},
			{
				"type": "unocc",
				"energy": 0.10753,
				"method": "rhf"
			},
			{
				"type": "unocc",
				"energy": 0.11548,
				"method": "rhf"
			},
			{
				"type": "unocc",
				"energy": 0.13254,
				"method": "rhf"
			}
		],
		"cosmo_sigma_profile": { 
			"-0.025": 0.0,
			"-0.024": 0.0,
			"-0.023": 0.0,
			"-0.022": 0.0,
			"-0.021": 0.0,
			"-0.02": 0.0,
			"-0.019": 0.0,
			"-0.018": 0.0,
			"-0.017": 0.0,
			"-0.016": 0.0,
			"-0.015": 0.0,
			"-0.014": 0.0,
			"-0.013": 0.0,
			"-0.012": 0.0,
			"-0.011": 0.0,
			"-0.01": 0.0,
			"-0.009": 0.0,
			"-0.008": 0.0,
			"-0.007": 0.0,
			"-0.006": 0.966431964895,
			"-0.005": 5.49211974493,
			"-0.004": 7.06322043051,
			"-0.003": 19.855859766,
			"-0.002": 26.6918836246,
			"-0.001": 28.0145885843,
			"0.0": 22.0996537461,
			"0.001": 22.5804856893,
			"0.002": 10.5587821397,
			"0.003": 4.86055134201,
			"0.004": 5.07918494252,
			"0.005": 5.01242636219,
			"0.006": 3.75113979144,
			"0.007": 5.17843108321,
			"0.008": 5.08699484097,
			"0.009": 0.00527539135214,
			"0.01": 0.0,
			"0.011": 0.0,
			"0.012": 0.0,
			"0.013": 0.0,
			"0.014": 0.0,
			"0.015": 0.0,
			"0.016": 0.0,
			"0.017": 0.0,
			"0.018": 0.0,
			"0.019": 0.0,
			"0.02": 0.0,
			"0.021": 0.0,
			"0.022": 0.0,
			"0.023": 0.0,
			"0.024": 0.0,
			"0.025": 0.0
		}
	}
}
