{
	 "smiles": "CCC1(O)CC[C@@]2(C)[C@@H](CCC3C4CCC(=O)[C@@]4(C)CCC23)C1", 
	 "Tm": 387.15, 
	 "num_atms": 57, 
	 "gaussian": { 
		 "optdone": 1, 
		 "sigma_profile": "yes", 
		 "theory": "DFT", 
		 "functional": "B3LYP", 
		 "basiset": "6-31G**", 
		 "properties": { 
			 "R2extent": 9016.5912, 
			 "electric_dipole_moment_norm": 2.10973292386, 
			 "electric_quadrupole_moment_norm": 24.3495175178, 
			 "total_energy": -971.198638153, 
			 "HOMO_LUMO_gap": 0.21916, 
			 "cosmo_polarized_energy": -12.44, 
			 "cosmo_cavitation_energy": 47.01, 
			 "cosmo_dispersion_energy": -32.92, 
			 "cosmo_repulsion_energy": 2.4, 
			 "cosmo_total_nonelectrostatic_energy": 16.49, 
			 "SMD_solvation_energy": 6.86 
		},
		"coords": [
			{
				"x": -2.6259278601,
				"y": -2.5208254794,
				"z": 2.3907911045,
				"element": "C" 
			},
			{
				"x": -3.482489832,
				"y": -1.2604187165,
				"z": 2.5423938055,
				"element": "C" 
			},
			{
				"x": -2.9993513477,
				"y": 0.0818838167,
				"z": 1.9425733279,
				"element": "C" 
			},
			{
				"x": -4.10348469,
				"y": 0.9436360616,
				"z": 2.2871623657,
				"element": "O" 
			},
			{
				"x": -2.8545280628,
				"y": 0.057941122,
				"z": 0.4002705458,
				"element": "C" 
			},
			{
				"x": -1.4915552921,
				"y": -0.4006407628,
				"z": -0.1506914866,
				"element": "C" 
			},
			{
				"x": -0.2808343407,
				"y": 0.3501288212,
				"z": 0.4666865668,
				"element": "C" 
			},
			{
				"x": -0.3731110172,
				"y": 1.8447028796,
				"z": 0.0808313021,
				"element": "C" 
			},
			{
				"x": -0.3814238957,
				"y": 0.1456381157,
				"z": 2.011095726,
				"element": "C" 
			},
			{
				"x": 0.8347044691,
				"y": 0.7269681845,
				"z": 2.7435841857,
				"element": "C" 
			},
			{
				"x": 2.1167793072,
				"y": 0.0117499975,
				"z": 2.3000748688,
				"element": "C" 
			},
			{
				"x": 2.3480152639,
				"y": 0.0427713079,
				"z": 0.771853806,
				"element": "C" 
			},
			{
				"x": 3.0666061641,
				"y": 1.3412015431,
				"z": 0.3043674975,
				"element": "C" 
			},
			{
				"x": 4.5583182583,
				"y": 1.3416622626,
				"z": 0.7636527295,
				"element": "C" 
			},
			{
				"x": 5.3260097759,
				"y": 0.5745300129,
				"z": -0.3275646646,
				"element": "C" 
			},
			{
				"x": 4.449803924,
				"y": 0.6711178928,
				"z": -1.5774796771,
				"element": "C" 
			},
			{
				"x": 4.7186475178,
				"y": 0.205384028,
				"z": -2.6647811391,
				"element": "O" 
			},
			{
				"x": 3.1732131492,
				"y": 1.4720032141,
				"z": -1.2447068021,
				"element": "C" 
			},
			{
				"x": 3.4802583191,
				"y": 2.9355304039,
				"z": -1.655951258,
				"element": "C" 
			},
			{
				"x": 1.9666089307,
				"y": 0.9726066882,
				"z": -2.0536064678,
				"element": "C" 
			},
			{
				"x": 1.3526176255,
				"y": -0.3284715068,
				"z": -1.52078718,
				"element": "C" 
			},
			{
				"x": 1.0501741597,
				"y": -0.3431458388,
				"z": -0.0055761778,
				"element": "C" 
			},
			{
				"x": -1.7134318341,
				"y": 0.6367375075,
				"z": 2.605532676,
				"element": "C" 
			},
			{
				"x": -3.1399983974,
				"y": -3.3666232744,
				"z": 2.8597586143,
				"element": "H" 
			},
			{
				"x": -1.6509177692,
				"y": -2.4296472008,
				"z": 2.8784096684,
				"element": "H" 
			},
			{
				"x": -2.4566491436,
				"y": -2.7897470467,
				"z": 1.3439978216,
				"element": "H" 
			},
			{
				"x": -4.469668573,
				"y": -1.4453978274,
				"z": 2.102426828,
				"element": "H" 
			},
			{
				"x": -3.6605951489,
				"y": -1.0721962128,
				"z": 3.6079234518,
				"element": "H" 
			},
			{
				"x": -3.8983875551,
				"y": 1.8281042128,
				"z": 1.9559118903,
				"element": "H" 
			},
			{
				"x": -3.0486218938,
				"y": 1.0777051558,
				"z": 0.0420270797,
				"element": "H" 
			},
			{
				"x": -3.6565846809,
				"y": -0.5572397796,
				"z": -0.0249428694,
				"element": "H" 
			},
			{
				"x": -1.5040613579,
				"y": -0.2700680655,
				"z": -1.2391050231,
				"element": "H" 
			},
			{
				"x": -1.3592989359,
				"y": -1.4746927271,
				"z": 0.0241440824,
				"element": "H" 
			},
			{
				"x": 0.5173517377,
				"y": 2.4115304521,
				"z": 0.35650886,
				"element": "H" 
			},
			{
				"x": -1.2225002613,
				"y": 2.33578386,
				"z": 0.5624344693,
				"element": "H" 
			},
			{
				"x": -0.5172477991,
				"y": 1.9586545227,
				"z": -0.9968943611,
				"element": "H" 
			},
			{
				"x": -0.3369230545,
				"y": -0.9415159199,
				"z": 2.1652356976,
				"element": "H" 
			},
			{
				"x": 0.9065838554,
				"y": 1.8083104451,
				"z": 2.5664793321,
				"element": "H" 
			},
			{
				"x": 0.7079929062,
				"y": 0.6067536346,
				"z": 3.8271222625,
				"element": "H" 
			},
			{
				"x": 2.0437609259,
				"y": -1.0376790968,
				"z": 2.6164755748,
				"element": "H" 
			},
			{
				"x": 2.9825646561,
				"y": 0.4248868865,
				"z": 2.8293712037,
				"element": "H" 
			},
			{
				"x": 3.048822823,
				"y": -0.7759861159,
				"z": 0.5462245119,
				"element": "H" 
			},
			{
				"x": 2.5541075498,
				"y": 2.2144098692,
				"z": 0.7224967199,
				"element": "H" 
			},
			{
				"x": 4.9264073585,
				"y": 2.3699553756,
				"z": 0.8348702478,
				"element": "H" 
			},
			{
				"x": 4.6893295158,
				"y": 0.8965924968,
				"z": 1.7527725036,
				"element": "H" 
			},
			{
				"x": 6.329269492,
				"y": 0.9603962897,
				"z": -0.5336784639,
				"element": "H" 
			},
			{
				"x": 5.4490858627,
				"y": -0.4881048526,
				"z": -0.0868327111,
				"element": "H" 
			},
			{
				"x": 4.3851130186,
				"y": 3.3292038356,
				"z": -1.1825115171,
				"element": "H" 
			},
			{
				"x": 2.6449786292,
				"y": 3.5854275142,
				"z": -1.3735524319,
				"element": "H" 
			},
			{
				"x": 3.6160763014,
				"y": 3.0002193404,
				"z": -2.7399230208,
				"element": "H" 
			},
			{
				"x": 1.2143402125,
				"y": 1.7651598854,
				"z": -2.0930603412,
				"element": "H" 
			},
			{
				"x": 2.3076236159,
				"y": 0.8136755721,
				"z": -3.083307034,
				"element": "H" 
			},
			{
				"x": 2.0608119266,
				"y": -1.1442598311,
				"z": -1.7191153461,
				"element": "H" 
			},
			{
				"x": 0.4559015796,
				"y": -0.5717892943,
				"z": -2.1003821545,
				"element": "H" 
			},
			{
				"x": 0.884287369,
				"y": -1.400602185,
				"z": 0.2512132068,
				"element": "H" 
			},
			{
				"x": -1.7515184655,
				"y": 1.7331512563,
				"z": 2.5405039966,
				"element": "H" 
			},
			{
				"x": -1.7412549921,
				"y": 0.4098372694,
				"z": 3.6787715963,
				"element": "H" 
			}
		],
		 "valence_orbital": [ 
			{
				"type": "occ",
				"energy": -0.28916,
				"method": "rhf"
			},
			{
				"type": "occ",
				"energy": -0.27998,
				"method": "rhf"
			},
			{
				"type": "occ",
				"energy": -0.27603,
				"method": "rhf"
			},
			{
				"type": "occ",
				"energy": -0.2518,
				"method": "rhf"
			},
			{
				"type": "occ",
				"energy": -0.2338,
				"method": "rhf"
			},
			{
				"type": "unocc",
				"energy": -0.01464,
				"method": "rhf"
			},
			{
				"type": "unocc",
				"energy": 0.05708,
				"method": "rhf"
			},
			{
				"type": "unocc",
				"energy": 0.06694,
				"method": "rhf"
			},
			{
				"type": "unocc",
				"energy": 0.07576,
				"method": "rhf"
			},
			{
				"type": "unocc",
				"energy": 0.08469,
				"method": "rhf"
			}
		],
		"cosmo_sigma_profile": { 
			"-0.025": 0.0,
			"-0.024": 0.0,
			"-0.023": 0.0,
			"-0.022": 0.0,
			"-0.021": 0.0,
			"-0.02": 0.0,
			"-0.019": 0.0,
			"-0.018": 0.0,
			"-0.017": 0.0,
			"-0.016": 0.0,
			"-0.015": 0.0,
			"-0.014": 0.418107696078,
			"-0.013": 0.690652828039,
			"-0.012": 0.90292828456,
			"-0.011": 0.924575100521,
			"-0.01": 1.5650171021,
			"-0.009": 1.41401224568,
			"-0.008": 1.14168579483,
			"-0.007": 1.34118597062,
			"-0.006": 1.74782281279,
			"-0.005": 7.81014662154,
			"-0.004": 15.0622362294,
			"-0.003": 30.3025655553,
			"-0.002": 57.3439476352,
			"-0.001": 70.87512569,
			"0.0": 58.8202173203,
			"0.001": 46.6135621304,
			"0.002": 17.8399449788,
			"0.003": 4.81318347688,
			"0.004": 3.06928536095,
			"0.005": 2.69121677372,
			"0.006": 4.13013878567,
			"0.007": 2.74698115432,
			"0.008": 3.01766765333,
			"0.009": 3.06543053253,
			"0.01": 2.74674514278,
			"0.011": 3.89438155992,
			"0.012": 5.76718868533,
			"0.013": 4.33032658211,
			"0.014": 2.06077657285,
			"0.015": 1.71061831944,
			"0.016": 0.0,
			"0.017": 0.0,
			"0.018": 0.0,
			"0.019": 0.0,
			"0.02": 0.0,
			"0.021": 0.0,
			"0.022": 0.0,
			"0.023": 0.0,
			"0.024": 0.0,
			"0.025": 0.0
		}
	}
}
