{
	 "smiles": "BrC1=CC(=CC=C1)N1C=NN=N1", 
	 "Tm": 364.15, 
	 "num_atms": 17, 
	 "gaussian": { 
		 "optdone": 1, 
		 "sigma_profile": "yes", 
		 "theory": "DFT", 
		 "functional": "B3LYP", 
		 "basiset": "6-31G**", 
		 "properties": { 
			 "R2extent": 4183.2119, 
			 "electric_dipole_moment_norm": 4.53476014911, 
			 "electric_quadrupole_moment_norm": 18.3186698868, 
			 "total_energy": -3060.10310706, 
			 "HOMO_LUMO_gap": 0.19739, 
			 "cosmo_polarized_energy": -13.6, 
			 "cosmo_cavitation_energy": 24.58, 
			 "cosmo_dispersion_energy": -18.69, 
			 "cosmo_repulsion_energy": 1.45, 
			 "cosmo_total_nonelectrostatic_energy": 7.35, 
			 "SMD_solvation_energy": 1.82 
		},
		"coords": [
			{
				"x": 3.565767554,
				"y": 0.3509361416,
				"z": -1.9292213371,
				"element": "Br" 
			},
			{
				"x": 1.7889081192,
				"y": 0.5699999832,
				"z": -1.2709629364,
				"element": "C" 
			},
			{
				"x": 1.5600753192,
				"y": 0.4480809138,
				"z": 0.0975460573,
				"element": "C" 
			},
			{
				"x": 0.2564527896,
				"y": 0.6094937845,
				"z": 0.576025256,
				"element": "C" 
			},
			{
				"x": -0.8003617636,
				"y": 0.8877727529,
				"z": -0.2962600709,
				"element": "C" 
			},
			{
				"x": -0.5381603434,
				"y": 1.0034534034,
				"z": -1.6592149235,
				"element": "C" 
			},
			{
				"x": 0.754401722,
				"y": 0.8467204644,
				"z": -2.1621715939,
				"element": "C" 
			},
			{
				"x": -0.0043847883,
				"y": 0.4898569142,
				"z": 1.9703470574,
				"element": "N" 
			},
			{
				"x": 0.8160951083,
				"y": 0.2305835426,
				"z": 3.0178861385,
				"element": "C" 
			},
			{
				"x": 0.1112576954,
				"y": 0.2179371648,
				"z": 4.127005259,
				"element": "N" 
			},
			{
				"x": -1.1734239178,
				"y": 0.4770649354,
				"z": 3.7489681451,
				"element": "N" 
			},
			{
				"x": -1.2614027861,
				"y": 0.6404180471,
				"z": 2.4735268826,
				"element": "N" 
			},
			{
				"x": 2.3875949274,
				"y": 0.2325082903,
				"z": 0.7610376718,
				"element": "H" 
			},
			{
				"x": -1.8007358362,
				"y": 1.0083772966,
				"z": 0.0988709593,
				"element": "H" 
			},
			{
				"x": -1.3541035575,
				"y": 1.2193544791,
				"z": -2.3416983565,
				"element": "H" 
			},
			{
				"x": 0.9556363287,
				"y": 0.937240392,
				"z": -3.2229368347,
				"element": "H" 
			},
			{
				"x": 1.8781834291,
				"y": 0.0619014942,
				"z": 2.9454526259,
				"element": "H" 
			}
		],
		 "valence_orbital": [ 
			{
				"type": "occ",
				"energy": -0.30771,
				"method": "rhf"
			},
			{
				"type": "occ",
				"energy": -0.30593,
				"method": "rhf"
			},
			{
				"type": "occ",
				"energy": -0.29416,
				"method": "rhf"
			},
			{
				"type": "occ",
				"energy": -0.27795,
				"method": "rhf"
			},
			{
				"type": "occ",
				"energy": -0.26223,
				"method": "rhf"
			},
			{
				"type": "unocc",
				"energy": -0.06484,
				"method": "rhf"
			},
			{
				"type": "unocc",
				"energy": -0.04143,
				"method": "rhf"
			},
			{
				"type": "unocc",
				"energy": -0.01458,
				"method": "rhf"
			},
			{
				"type": "unocc",
				"energy": 0.00111,
				"method": "rhf"
			},
			{
				"type": "unocc",
				"energy": 0.01664,
				"method": "rhf"
			}
		],
		"cosmo_sigma_profile": { 
			"-0.025": 0.0,
			"-0.024": 0.0,
			"-0.023": 0.0,
			"-0.022": 0.0,
			"-0.021": 0.0,
			"-0.02": 0.0,
			"-0.019": 0.0,
			"-0.018": 0.0,
			"-0.017": 0.0,
			"-0.016": 0.0,
			"-0.015": 0.0452491868149,
			"-0.014": 1.67004137562,
			"-0.013": 2.19372351427,
			"-0.012": 1.72729707645,
			"-0.011": 2.07873846971,
			"-0.01": 1.8230040352,
			"-0.009": 1.8214314593,
			"-0.008": 4.59501884574,
			"-0.007": 7.96762820654,
			"-0.006": 9.50580603702,
			"-0.005": 11.6928638215,
			"-0.004": 10.3227336918,
			"-0.003": 11.3080335571,
			"-0.002": 10.1708333434,
			"-0.001": 13.7620781675,
			"0.0": 15.4011180594,
			"0.001": 22.0572546039,
			"0.002": 15.0052643758,
			"0.003": 12.4008918778,
			"0.004": 12.8596679886,
			"0.005": 3.59632674937,
			"0.006": 3.96398096592,
			"0.007": 4.38891739069,
			"0.008": 5.17120097144,
			"0.009": 4.13914020396,
			"0.01": 3.90602310393,
			"0.011": 2.86345477212,
			"0.012": 2.51387609182,
			"0.013": 2.39648892059,
			"0.014": 1.24355038589,
			"0.015": 0.184392226824,
			"0.016": 0.0,
			"0.017": 0.0,
			"0.018": 0.0,
			"0.019": 0.0,
			"0.02": 0.0,
			"0.021": 0.0,
			"0.022": 0.0,
			"0.023": 0.0,
			"0.024": 0.0,
			"0.025": 0.0
		}
	}
}
