{
	 "smiles": "O=CC1=CC(=CC=C1)C1=CC=NC=C1", 
	 "Tm": 321.15, 
	 "num_atms": 23, 
	 "gaussian": { 
		 "optdone": 1, 
		 "sigma_profile": "yes", 
		 "theory": "DFT", 
		 "functional": "B3LYP", 
		 "basiset": "6-31G**", 
		 "properties": { 
			 "R2extent": 3335.2213, 
			 "electric_dipole_moment_norm": 3.95377831194, 
			 "electric_quadrupole_moment_norm": 13.0918086016, 
			 "total_energy": -592.667879007, 
			 "HOMO_LUMO_gap": 0.18369, 
			 "cosmo_polarized_energy": -11.65, 
			 "cosmo_cavitation_energy": 27.97, 
			 "cosmo_dispersion_energy": -20.23, 
			 "cosmo_repulsion_energy": 1.56, 
			 "cosmo_total_nonelectrostatic_energy": 9.3, 
			 "SMD_solvation_energy": 4.29 
		},
		"coords": [
			{
				"x": 0.9612432271,
				"y": 1.5677686797,
				"z": 3.4486728107,
				"element": "O" 
			},
			{
				"x": 0.0603679192,
				"y": 2.2112666662,
				"z": 2.9459565234,
				"element": "C" 
			},
			{
				"x": -0.4902519128,
				"y": 1.9704297266,
				"z": 1.5909028971,
				"element": "C" 
			},
			{
				"x": 0.0291099765,
				"y": 0.9383768104,
				"z": 0.7988072619,
				"element": "C" 
			},
			{
				"x": -0.4810449746,
				"y": 0.6912209456,
				"z": -0.4800602044,
				"element": "C" 
			},
			{
				"x": -1.5284713495,
				"y": 1.5080515536,
				"z": -0.9495472709,
				"element": "C" 
			},
			{
				"x": -2.0487821674,
				"y": 2.5369452936,
				"z": -0.1659110812,
				"element": "C" 
			},
			{
				"x": -1.5317389381,
				"y": 2.7713821422,
				"z": 1.1074708644,
				"element": "C" 
			},
			{
				"x": 0.0660398698,
				"y": -0.402494418,
				"z": -1.3221798546,
				"element": "C" 
			},
			{
				"x": -0.7560839234,
				"y": -1.1648883661,
				"z": -2.1654000287,
				"element": "C" 
			},
			{
				"x": -0.1906708893,
				"y": -2.1795296914,
				"z": -2.9360685958,
				"element": "C" 
			},
			{
				"x": 1.1123575712,
				"y": -2.4872615511,
				"z": -2.9285912017,
				"element": "N" 
			},
			{
				"x": 1.8951068444,
				"y": -1.7598001169,
				"z": -2.1213831295,
				"element": "C" 
			},
			{
				"x": 1.4315274472,
				"y": -0.7238396566,
				"z": -1.3121611962,
				"element": "C" 
			},
			{
				"x": -0.4187644215,
				"y": 3.0508590723,
				"z": 3.4972108634,
				"element": "H" 
			},
			{
				"x": 0.8212489789,
				"y": 0.3248650515,
				"z": 1.2161272537,
				"element": "H" 
			},
			{
				"x": -1.9208022862,
				"y": 1.3474667751,
				"z": -1.9492594422,
				"element": "H" 
			},
			{
				"x": -2.8506002426,
				"y": 3.1578860557,
				"z": -0.5537275532,
				"element": "H" 
			},
			{
				"x": -1.92975856,
				"y": 3.5713470465,
				"z": 1.7271983562,
				"element": "H" 
			},
			{
				"x": -1.8268125791,
				"y": -0.9906557513,
				"z": -2.2040615372,
				"element": "H" 
			},
			{
				"x": -0.8213144681,
				"y": -2.7803729408,
				"z": -3.589320142,
				"element": "H" 
			},
			{
				"x": 2.9538116168,
				"y": -2.013472068,
				"z": -2.1243773631,
				"element": "H" 
			},
			{
				"x": 2.1294832614,
				"y": -0.1615512586,
				"z": -0.7000982301,
				"element": "H" 
			}
		],
		 "valence_orbital": [ 
			{
				"type": "occ",
				"energy": -0.27308,
				"method": "rhf"
			},
			{
				"type": "occ",
				"energy": -0.26689,
				"method": "rhf"
			},
			{
				"type": "occ",
				"energy": -0.26216,
				"method": "rhf"
			},
			{
				"type": "occ",
				"energy": -0.25724,
				"method": "rhf"
			},
			{
				"type": "occ",
				"energy": -0.25557,
				"method": "rhf"
			},
			{
				"type": "unocc",
				"energy": -0.07188,
				"method": "rhf"
			},
			{
				"type": "unocc",
				"energy": -0.05207,
				"method": "rhf"
			},
			{
				"type": "unocc",
				"energy": -0.01644,
				"method": "rhf"
			},
			{
				"type": "unocc",
				"energy": 4e-05,
				"method": "rhf"
			},
			{
				"type": "unocc",
				"energy": 0.03569,
				"method": "rhf"
			}
		],
		"cosmo_sigma_profile": { 
			"-0.025": 0.0,
			"-0.024": 0.0,
			"-0.023": 0.0,
			"-0.022": 0.0,
			"-0.021": 0.0,
			"-0.02": 0.0,
			"-0.019": 0.0,
			"-0.018": 0.0,
			"-0.017": 0.0,
			"-0.016": 0.0,
			"-0.015": 0.0,
			"-0.014": 0.0,
			"-0.013": 0.0,
			"-0.012": 0.0,
			"-0.011": 0.0,
			"-0.01": 0.0,
			"-0.009": 0.066784569133,
			"-0.008": 1.85357288019,
			"-0.007": 13.0863864041,
			"-0.006": 20.3258930017,
			"-0.005": 18.7822144376,
			"-0.004": 14.7867093487,
			"-0.003": 13.0084706116,
			"-0.002": 13.014067848,
			"-0.001": 12.9665614776,
			"0.0": 15.3940590215,
			"0.001": 19.8708535765,
			"0.002": 28.6428606492,
			"0.003": 16.2912613897,
			"0.004": 4.71911075163,
			"0.005": 3.60201420351,
			"0.006": 2.57872412782,
			"0.007": 2.67056315198,
			"0.008": 2.97506326021,
			"0.009": 3.85393655345,
			"0.01": 3.25981946472,
			"0.011": 5.53847144669,
			"0.012": 3.74521195127,
			"0.013": 1.39468914878,
			"0.014": 0.730151003171,
			"0.015": 0.70753840685,
			"0.016": 1.2114167128,
			"0.017": 0.31284474933,
			"0.018": 0.0,
			"0.019": 0.0,
			"0.02": 0.0,
			"0.021": 0.0,
			"0.022": 0.0,
			"0.023": 0.0,
			"0.024": 0.0,
			"0.025": 0.0
		}
	}
}
