{
	 "smiles": "CC1=CC(=S)C=C(C)O1", 
	 "Tm": 415.15, 
	 "num_atms": 17, 
	 "gaussian": { 
		 "optdone": 1, 
		 "sigma_profile": "yes", 
		 "theory": "DFT", 
		 "functional": "B3LYP", 
		 "basiset": "6-31G**", 
		 "properties": { 
			 "R2extent": 1870.4568, 
			 "electric_dipole_moment_norm": 6.01664596682, 
			 "electric_quadrupole_moment_norm": 16.2665869939, 
			 "total_energy": -744.968137487, 
			 "HOMO_LUMO_gap": 0.12947, 
			 "cosmo_polarized_energy": -14.31, 
			 "cosmo_cavitation_energy": 22.69, 
			 "cosmo_dispersion_energy": -17.15, 
			 "cosmo_repulsion_energy": 1.37, 
			 "cosmo_total_nonelectrostatic_energy": 6.91, 
			 "SMD_solvation_energy": 3.66 
		},
		"coords": [
			{
				"x": -0.7996297856,
				"y": 2.2467257928,
				"z": -0.6507289633,
				"element": "C" 
			},
			{
				"x": -0.6566744824,
				"y": 0.7622114532,
				"z": -0.5705736069,
				"element": "C" 
			},
			{
				"x": -0.7995857545,
				"y": -0.1223250489,
				"z": -1.5863016454,
				"element": "C" 
			},
			{
				"x": -0.6366667083,
				"y": -1.5450924772,
				"z": -1.3885610763,
				"element": "C" 
			},
			{
				"x": -0.8056608362,
				"y": -2.6635457657,
				"z": -2.6180957906,
				"element": "S" 
			},
			{
				"x": -0.3136323969,
				"y": -1.9094757429,
				"z": -0.0274013888,
				"element": "C" 
			},
			{
				"x": -0.1826758482,
				"y": -0.9810008235,
				"z": 0.949999494,
				"element": "C" 
			},
			{
				"x": 0.1465066347,
				"y": -1.2332433984,
				"z": 2.3848011257,
				"element": "C" 
			},
			{
				"x": -0.3502444004,
				"y": 0.3506216491,
				"z": 0.6954479951,
				"element": "O" 
			},
			{
				"x": -1.0438509023,
				"y": 2.5516337842,
				"z": -1.6694103491,
				"element": "H" 
			},
			{
				"x": 0.1297102754,
				"y": 2.7405523152,
				"z": -0.3461387658,
				"element": "H" 
			},
			{
				"x": -1.5906241273,
				"y": 2.5948129449,
				"z": 0.0226778733,
				"element": "H" 
			},
			{
				"x": -1.0430369076,
				"y": 0.2426890991,
				"z": -2.5770458801,
				"element": "H" 
			},
			{
				"x": -0.1731433138,
				"y": -2.9565105029,
				"z": 0.2135533317,
				"element": "H" 
			},
			{
				"x": -0.6516361716,
				"y": -0.85856764,
				"z": 3.0351096539,
				"element": "H" 
			},
			{
				"x": 0.275491615,
				"y": -2.3016728869,
				"z": 2.5640984804,
				"element": "H" 
			},
			{
				"x": 1.0686531099,
				"y": -0.7128127522,
				"z": 2.6660695122,
				"element": "H" 
			}
		],
		 "valence_orbital": [ 
			{
				"type": "occ",
				"energy": -0.34336,
				"method": "rhf"
			},
			{
				"type": "occ",
				"energy": -0.33953,
				"method": "rhf"
			},
			{
				"type": "occ",
				"energy": -0.28111,
				"method": "rhf"
			},
			{
				"type": "occ",
				"energy": -0.21444,
				"method": "rhf"
			},
			{
				"type": "occ",
				"energy": -0.19485,
				"method": "rhf"
			},
			{
				"type": "unocc",
				"energy": -0.06538,
				"method": "rhf"
			},
			{
				"type": "unocc",
				"energy": -0.01613,
				"method": "rhf"
			},
			{
				"type": "unocc",
				"energy": 0.07462,
				"method": "rhf"
			},
			{
				"type": "unocc",
				"energy": 0.09726,
				"method": "rhf"
			},
			{
				"type": "unocc",
				"energy": 0.10111,
				"method": "rhf"
			}
		],
		"cosmo_sigma_profile": { 
			"-0.025": 0.0,
			"-0.024": 0.0,
			"-0.023": 0.0,
			"-0.022": 0.0,
			"-0.021": 0.0,
			"-0.02": 0.0,
			"-0.019": 0.0,
			"-0.018": 0.0,
			"-0.017": 0.0,
			"-0.016": 0.0,
			"-0.015": 0.0,
			"-0.014": 0.0,
			"-0.013": 0.0,
			"-0.012": 0.0,
			"-0.011": 0.0,
			"-0.01": 0.0,
			"-0.009": 0.0,
			"-0.008": 1.77304063851,
			"-0.007": 8.57660478948,
			"-0.006": 15.4266584291,
			"-0.005": 12.8748540402,
			"-0.004": 17.5468181581,
			"-0.003": 20.9520684679,
			"-0.002": 22.8594868846,
			"-0.001": 11.2037061787,
			"0.0": 6.79334488675,
			"0.001": 8.2382822093,
			"0.002": 6.68951481154,
			"0.003": 4.64922920336,
			"0.004": 4.18079827706,
			"0.005": 5.34270522647,
			"0.006": 4.06095132541,
			"0.007": 3.49997404489,
			"0.008": 5.50624024385,
			"0.009": 6.9590274019,
			"0.01": 5.06778283966,
			"0.011": 4.3510809474,
			"0.012": 3.36427125615,
			"0.013": 2.7650320762,
			"0.014": 0.690638344364,
			"0.015": 0.0,
			"0.016": 0.0,
			"0.017": 0.0,
			"0.018": 0.0,
			"0.019": 0.0,
			"0.02": 0.0,
			"0.021": 0.0,
			"0.022": 0.0,
			"0.023": 0.0,
			"0.024": 0.0,
			"0.025": 0.0
		}
	}
}
