{
	 "smiles": "OC(=O)CC1=CC(=O)NC(=O)N1", 
	 "Tm": 598.15, 
	 "num_atms": 18, 
	 "gaussian": { 
		 "optdone": 1, 
		 "sigma_profile": "yes", 
		 "theory": "DFT", 
		 "functional": "B3LYP", 
		 "basiset": "6-31G**", 
		 "properties": { 
			 "R2extent": 3320.7769, 
			 "electric_dipole_moment_norm": 5.98852609329, 
			 "electric_quadrupole_moment_norm": 16.1404588807, 
			 "total_energy": -642.697337734, 
			 "HOMO_LUMO_gap": 0.20257, 
			 "cosmo_polarized_energy": -27.3, 
			 "cosmo_cavitation_energy": 23.47, 
			 "cosmo_dispersion_energy": -17.51, 
			 "cosmo_repulsion_energy": 1.42, 
			 "cosmo_total_nonelectrostatic_energy": 7.38, 
			 "SMD_solvation_energy": 6.85 
		},
		"coords": [
			{
				"x": 0.4424352723,
				"y": -1.8365822819,
				"z": 1.3961379861,
				"element": "O" 
			},
			{
				"x": 0.0279255998,
				"y": -1.1561052147,
				"z": 0.3098721321,
				"element": "C" 
			},
			{
				"x": -0.3722636102,
				"y": -1.7516272595,
				"z": -0.663658894,
				"element": "O" 
			},
			{
				"x": 0.1614627237,
				"y": 0.3690432206,
				"z": 0.3589101577,
				"element": "C" 
			},
			{
				"x": -1.0043152463,
				"y": 1.1298982834,
				"z": -0.2345782429,
				"element": "C" 
			},
			{
				"x": -1.490961938,
				"y": 2.2598411304,
				"z": 0.3346971621,
				"element": "C" 
			},
			{
				"x": -2.5650518614,
				"y": 3.0089357913,
				"z": -0.3072819227,
				"element": "C" 
			},
			{
				"x": -3.0706829527,
				"y": 4.0375315252,
				"z": 0.1133264163,
				"element": "O" 
			},
			{
				"x": -3.0032503693,
				"y": 2.434730347,
				"z": -1.5169190366,
				"element": "N" 
			},
			{
				"x": -2.5569002202,
				"y": 1.2674971484,
				"z": -2.117146553,
				"element": "C" 
			},
			{
				"x": -3.0202057748,
				"y": 0.8096606433,
				"z": -3.1442070219,
				"element": "O" 
			},
			{
				"x": -1.5067793803,
				"y": 0.662644618,
				"z": -1.4264875549,
				"element": "N" 
			},
			{
				"x": 0.7133746096,
				"y": -1.2363569108,
				"z": 2.1046125227,
				"element": "H" 
			},
			{
				"x": 1.0652429841,
				"y": 0.6019789276,
				"z": -0.2225888481,
				"element": "H" 
			},
			{
				"x": 0.3333532119,
				"y": 0.7350081451,
				"z": 1.3742372111,
				"element": "H" 
			},
			{
				"x": -1.0963254854,
				"y": 2.6495737853,
				"z": 1.2631577947,
				"element": "H" 
			},
			{
				"x": -3.7585665918,
				"y": 2.9117975544,
				"z": -1.9941446626,
				"element": "H" 
			},
			{
				"x": -1.2240909708,
				"y": -0.2601694531,
				"z": -1.7458386462,
				"element": "H" 
			}
		],
		 "valence_orbital": [ 
			{
				"type": "occ",
				"energy": -0.3156,
				"method": "rhf"
			},
			{
				"type": "occ",
				"energy": -0.29089,
				"method": "rhf"
			},
			{
				"type": "occ",
				"energy": -0.2826,
				"method": "rhf"
			},
			{
				"type": "occ",
				"energy": -0.26125,
				"method": "rhf"
			},
			{
				"type": "occ",
				"energy": -0.24938,
				"method": "rhf"
			},
			{
				"type": "unocc",
				"energy": -0.04681,
				"method": "rhf"
			},
			{
				"type": "unocc",
				"energy": -0.02815,
				"method": "rhf"
			},
			{
				"type": "unocc",
				"energy": 0.01203,
				"method": "rhf"
			},
			{
				"type": "unocc",
				"energy": 0.01945,
				"method": "rhf"
			},
			{
				"type": "unocc",
				"energy": 0.07697,
				"method": "rhf"
			}
		],
		"cosmo_sigma_profile": { 
			"-0.025": 0.0,
			"-0.024": 0.0,
			"-0.023": 0.0,
			"-0.022": 0.0,
			"-0.021": 0.166601456935,
			"-0.02": 1.19413827826,
			"-0.019": 1.42343511054,
			"-0.018": 1.05860471027,
			"-0.017": 1.61118969039,
			"-0.016": 1.32874592628,
			"-0.015": 2.6355557349,
			"-0.014": 1.01098003149,
			"-0.013": 1.82501289231,
			"-0.012": 2.02432519635,
			"-0.011": 2.05549811659,
			"-0.01": 6.11546311228,
			"-0.009": 7.86322352278,
			"-0.008": 7.43181709207,
			"-0.007": 7.10561694048,
			"-0.006": 6.4170541991,
			"-0.005": 7.3134996187,
			"-0.004": 8.30363057415,
			"-0.003": 10.1068603943,
			"-0.002": 10.0449498513,
			"-0.001": 9.71495876119,
			"0.0": 8.29344136505,
			"0.001": 7.4732833275,
			"0.002": 5.84555707275,
			"0.003": 3.30493343015,
			"0.004": 4.68963478298,
			"0.005": 3.90896683275,
			"0.006": 4.53414897954,
			"0.007": 5.83146109736,
			"0.008": 5.67647713109,
			"0.009": 6.30431008451,
			"0.01": 6.08384179651,
			"0.011": 6.46167033921,
			"0.012": 9.07618522251,
			"0.013": 10.4404643345,
			"0.014": 2.45159435288,
			"0.015": 0.0862399500634,
			"0.016": 0.0,
			"0.017": 0.0,
			"0.018": 0.0,
			"0.019": 0.0,
			"0.02": 0.0,
			"0.021": 0.0,
			"0.022": 0.0,
			"0.023": 0.0,
			"0.024": 0.0,
			"0.025": 0.0
		}
	}
}
