{
	 "smiles": "CC1=CC=C(C=C1)C(=O)C1=NN(C2C1C(=O)N(C2=O)C1=CC(=CC=C1)[N+]([O-])=O)C1=CC=CC=C1", 
	 "Tm": 449.15, 
	 "num_atms": 52, 
	 "gaussian": { 
		 "optdone": 1, 
		 "sigma_profile": "yes", 
		 "theory": "DFT", 
		 "functional": "B3LYP", 
		 "basiset": "6-31G**", 
		 "properties": { 
			 "R2extent": 19879.4419, 
			 "electric_dipole_moment_norm": 5.5628659556, 
			 "electric_quadrupole_moment_norm": 26.203564992, 
			 "total_energy": -1558.52947383, 
			 "HOMO_LUMO_gap": 0.12356, 
			 "cosmo_polarized_energy": -23.65, 
			 "cosmo_cavitation_energy": 58.09, 
			 "cosmo_dispersion_energy": -39.98, 
			 "cosmo_repulsion_energy": 2.95, 
			 "cosmo_total_nonelectrostatic_energy": 21.06, 
			 "SMD_solvation_energy": 12.47 
		},
		"coords": [
			{
				"x": 6.4396261159,
				"y": -0.5049945158,
				"z": -3.7201617908,
				"element": "C" 
			},
			{
				"x": 5.4558135192,
				"y": -0.5086041278,
				"z": -2.5759508995,
				"element": "C" 
			},
			{
				"x": 5.8779686459,
				"y": -0.7991492452,
				"z": -1.2679170136,
				"element": "C" 
			},
			{
				"x": 4.974449702,
				"y": -0.8237543084,
				"z": -0.2144477232,
				"element": "C" 
			},
			{
				"x": 3.6094067924,
				"y": -0.567567878,
				"z": -0.434050605,
				"element": "C" 
			},
			{
				"x": 3.1818880185,
				"y": -0.2674147679,
				"z": -1.7365209031,
				"element": "C" 
			},
			{
				"x": 4.0977291954,
				"y": -0.238831864,
				"z": -2.7867659322,
				"element": "C" 
			},
			{
				"x": 2.7171996744,
				"y": -0.5860583716,
				"z": 0.7599101099,
				"element": "C" 
			},
			{
				"x": 3.1737705816,
				"y": -0.612885672,
				"z": 1.9024781168,
				"element": "O" 
			},
			{
				"x": 1.2394866829,
				"y": -0.610379901,
				"z": 0.6396445122,
				"element": "C" 
			},
			{
				"x": 0.57337321,
				"y": -1.0222656361,
				"z": -0.3924820862,
				"element": "N" 
			},
			{
				"x": -0.7481860182,
				"y": -1.087336072,
				"z": -0.1220378351,
				"element": "N" 
			},
			{
				"x": -1.0410175983,
				"y": -0.7300463508,
				"z": 1.2857880906,
				"element": "C" 
			},
			{
				"x": 0.3423815644,
				"y": -0.3433017871,
				"z": 1.8368402117,
				"element": "C" 
			},
			{
				"x": 0.2448069987,
				"y": 1.1484426173,
				"z": 2.1741767359,
				"element": "C" 
			},
			{
				"x": 1.1172022425,
				"y": 1.8571568026,
				"z": 2.6103196348,
				"element": "O" 
			},
			{
				"x": -1.0718295659,
				"y": 1.5778496181,
				"z": 1.8780061658,
				"element": "N" 
			},
			{
				"x": -1.894248941,
				"y": 0.5470116188,
				"z": 1.4100290299,
				"element": "C" 
			},
			{
				"x": -3.0752959491,
				"y": 0.6491448254,
				"z": 1.1614663585,
				"element": "O" 
			},
			{
				"x": -1.5208069239,
				"y": 2.9198658256,
				"z": 2.0822211834,
				"element": "C" 
			},
			{
				"x": -2.7745020851,
				"y": 3.1537345471,
				"z": 2.650011311,
				"element": "C" 
			},
			{
				"x": -3.1766491913,
				"y": 4.4735860284,
				"z": 2.8284896858,
				"element": "C" 
			},
			{
				"x": -2.3792242287,
				"y": 5.5589104345,
				"z": 2.4750823887,
				"element": "C" 
			},
			{
				"x": -1.128912778,
				"y": 5.3016181228,
				"z": 1.9177841504,
				"element": "C" 
			},
			{
				"x": -0.6964048141,
				"y": 3.9911877919,
				"z": 1.7144164438,
				"element": "C" 
			},
			{
				"x": -4.5008058515,
				"y": 4.7267516052,
				"z": 3.4263052773,
				"element": "N" 
			},
			{
				"x": -4.8481008231,
				"y": 5.899182642,
				"z": 3.5583304864,
				"element": "O" 
			},
			{
				"x": -5.1728572805,
				"y": 3.7520397867,
				"z": 3.7578790496,
				"element": "O" 
			},
			{
				"x": -1.5892047896,
				"y": -1.8790315636,
				"z": -0.9415399546,
				"element": "C" 
			},
			{
				"x": -2.9613743381,
				"y": -1.9617361757,
				"z": -0.6652396971,
				"element": "C" 
			},
			{
				"x": -3.778015843,
				"y": -2.7588020583,
				"z": -1.4686666283,
				"element": "C" 
			},
			{
				"x": -3.2507483439,
				"y": -3.4619227219,
				"z": -2.5508007216,
				"element": "C" 
			},
			{
				"x": -1.884356451,
				"y": -3.3627658067,
				"z": -2.8262703837,
				"element": "C" 
			},
			{
				"x": -1.0497100175,
				"y": -2.58389411,
				"z": -2.0301875874,
				"element": "C" 
			},
			{
				"x": 6.6800810315,
				"y": -1.5285700191,
				"z": -4.0336774918,
				"element": "H" 
			},
			{
				"x": 7.3822128838,
				"y": -0.0268658975,
				"z": -3.4349194266,
				"element": "H" 
			},
			{
				"x": 6.0403462823,
				"y": 0.0205412775,
				"z": -4.5919132283,
				"element": "H" 
			},
			{
				"x": 6.9290287191,
				"y": -1.0032222267,
				"z": -1.0788346884,
				"element": "H" 
			},
			{
				"x": 5.3005675946,
				"y": -1.0364005689,
				"z": 0.7979720006,
				"element": "H" 
			},
			{
				"x": 2.1385115976,
				"y": -0.0533649428,
				"z": -1.9307938872,
				"element": "H" 
			},
			{
				"x": 3.7514397366,
				"y": 0.002283431,
				"z": -3.78852552,
				"element": "H" 
			},
			{
				"x": -1.5527037542,
				"y": -1.5549013654,
				"z": 1.7920778444,
				"element": "H" 
			},
			{
				"x": 0.6903529721,
				"y": -0.8786161336,
				"z": 2.7235485885,
				"element": "H" 
			},
			{
				"x": -3.4358155198,
				"y": 2.3490817862,
				"z": 2.9361552938,
				"element": "H" 
			},
			{
				"x": -2.7426842951,
				"y": 6.5652662924,
				"z": 2.638659759,
				"element": "H" 
			},
			{
				"x": -0.4842396741,
				"y": 6.1269303236,
				"z": 1.6344808216,
				"element": "H" 
			},
			{
				"x": 0.2783633642,
				"y": 3.7985173839,
				"z": 1.2855102713,
				"element": "H" 
			},
			{
				"x": -3.3957431951,
				"y": -1.3813039266,
				"z": 0.1399163996,
				"element": "H" 
			},
			{
				"x": -4.8395014423,
				"y": -2.8148705943,
				"z": -1.2458984079,
				"element": "H" 
			},
			{
				"x": -3.8936193382,
				"y": -4.0756844433,
				"z": -3.1739851905,
				"element": "H" 
			},
			{
				"x": -1.4570196413,
				"y": -3.9056643986,
				"z": -3.6645001015,
				"element": "H" 
			},
			{
				"x": 0.0116715665,
				"y": -2.5209953104,
				"z": -2.2339122175,
				"element": "H" 
			}
		],
		 "valence_orbital": [ 
			{
				"type": "occ",
				"energy": -0.26283,
				"method": "rhf"
			},
			{
				"type": "occ",
				"energy": -0.25939,
				"method": "rhf"
			},
			{
				"type": "occ",
				"energy": -0.25823,
				"method": "rhf"
			},
			{
				"type": "occ",
				"energy": -0.25123,
				"method": "rhf"
			},
			{
				"type": "occ",
				"energy": -0.21747,
				"method": "rhf"
			},
			{
				"type": "unocc",
				"energy": -0.09391,
				"method": "rhf"
			},
			{
				"type": "unocc",
				"energy": -0.08256,
				"method": "rhf"
			},
			{
				"type": "unocc",
				"energy": -0.05365,
				"method": "rhf"
			},
			{
				"type": "unocc",
				"energy": -0.04822,
				"method": "rhf"
			},
			{
				"type": "unocc",
				"energy": -0.02473,
				"method": "rhf"
			}
		],
		"cosmo_sigma_profile": { 
			"-0.025": 0.0,
			"-0.024": 0.0,
			"-0.023": 0.0,
			"-0.022": 0.0,
			"-0.021": 0.0,
			"-0.02": 0.0,
			"-0.019": 0.0,
			"-0.018": 0.0,
			"-0.017": 0.0,
			"-0.016": 0.0,
			"-0.015": 0.0,
			"-0.014": 0.0,
			"-0.013": 0.000661998164726,
			"-0.012": 0.535814067649,
			"-0.011": 1.5345656331,
			"-0.01": 5.34799250017,
			"-0.009": 7.55658184515,
			"-0.008": 11.0291169006,
			"-0.007": 14.528814101,
			"-0.006": 18.6482523308,
			"-0.005": 29.5420216711,
			"-0.004": 36.5672476798,
			"-0.003": 33.1156013281,
			"-0.002": 32.8726641663,
			"-0.001": 36.0358944205,
			"0.0": 36.7571467713,
			"0.001": 31.6314562635,
			"0.002": 27.1925193046,
			"0.003": 26.8987429615,
			"0.004": 30.5293625799,
			"0.005": 22.1877726805,
			"0.006": 11.217766062,
			"0.007": 12.9941151631,
			"0.008": 11.4906468503,
			"0.009": 10.9499684272,
			"0.01": 8.42634015182,
			"0.011": 5.33499278022,
			"0.012": 4.4730764614,
			"0.013": 0.0540433592576,
			"0.014": 0.0,
			"0.015": 0.0,
			"0.016": 0.0,
			"0.017": 0.0,
			"0.018": 0.0,
			"0.019": 0.0,
			"0.02": 0.0,
			"0.021": 0.0,
			"0.022": 0.0,
			"0.023": 0.0,
			"0.024": 0.0,
			"0.025": 0.0
		}
	}
}
