{
	 "smiles": "CC1(C)C2CCC1(C)C(=O)C2Br", 
	 "Tm": 349.65, 
	 "num_atms": 27, 
	 "gaussian": { 
		 "optdone": 1, 
		 "sigma_profile": "yes", 
		 "theory": "DFT", 
		 "functional": "B3LYP", 
		 "basiset": "6-31G**", 
		 "properties": { 
			 "R2extent": 2683.8875, 
			 "electric_dipole_moment_norm": 3.97429868404, 
			 "electric_quadrupole_moment_norm": 7.28874462854, 
			 "total_energy": -3036.73396596, 
			 "HOMO_LUMO_gap": 0.19704, 
			 "cosmo_polarized_energy": -8.62, 
			 "cosmo_cavitation_energy": 28.28, 
			 "cosmo_dispersion_energy": -20.62, 
			 "cosmo_repulsion_energy": 1.6, 
			 "cosmo_total_nonelectrostatic_energy": 9.26, 
			 "SMD_solvation_energy": 4.0 
		},
		"coords": [
			{
				"x": 1.0052836962,
				"y": -1.7602556347,
				"z": 0.6609204589,
				"element": "C" 
			},
			{
				"x": -0.1958187059,
				"y": -1.1901950349,
				"z": -0.1157019202,
				"element": "C" 
			},
			{
				"x": -0.7690899158,
				"y": -2.3354369832,
				"z": -0.9687668969,
				"element": "C" 
			},
			{
				"x": 0.0989748093,
				"y": 0.1085599299,
				"z": -0.9458390931,
				"element": "C" 
			},
			{
				"x": -1.3151467597,
				"y": 0.506765694,
				"z": -1.4487072539,
				"element": "C" 
			},
			{
				"x": -2.2255254075,
				"y": 0.1623043631,
				"z": -0.2303242424,
				"element": "C" 
			},
			{
				"x": -1.2508571557,
				"y": -0.4816311368,
				"z": 0.8111572812,
				"element": "C" 
			},
			{
				"x": -1.9222954045,
				"y": -1.2705312975,
				"z": 1.9217733095,
				"element": "C" 
			},
			{
				"x": -0.4096905552,
				"y": 0.6988003454,
				"z": 1.3250312624,
				"element": "C" 
			},
			{
				"x": -0.4204668583,
				"y": 1.1818687215,
				"z": 2.431520249,
				"element": "O" 
			},
			{
				"x": 0.4350773704,
				"y": 1.1717775112,
				"z": 0.1160731532,
				"element": "C" 
			},
			{
				"x": 2.3514420473,
				"y": 1.4200257235,
				"z": 0.5408165377,
				"element": "Br" 
			},
			{
				"x": 1.439749335,
				"y": -1.0610163576,
				"z": 1.3773102525,
				"element": "H" 
			},
			{
				"x": 1.8026536014,
				"y": -2.0569485681,
				"z": -0.0284995058,
				"element": "H" 
			},
			{
				"x": 0.700390644,
				"y": -2.654381307,
				"z": 1.2150764336,
				"element": "H" 
			},
			{
				"x": -0.0179825472,
				"y": -2.6735175708,
				"z": -1.6918146879,
				"element": "H" 
			},
			{
				"x": -1.6681401685,
				"y": -2.0701112013,
				"z": -1.5279648427,
				"element": "H" 
			},
			{
				"x": -1.0176798139,
				"y": -3.1931510195,
				"z": -0.3353470227,
				"element": "H" 
			},
			{
				"x": 0.8504251372,
				"y": 0.0123751489,
				"z": -1.7319569206,
				"element": "H" 
			},
			{
				"x": -1.5911676016,
				"y": -0.0676664894,
				"z": -2.3362295292,
				"element": "H" 
			},
			{
				"x": -1.3660954112,
				"y": 1.5633196523,
				"z": -1.7284196561,
				"element": "H" 
			},
			{
				"x": -3.0062644491,
				"y": -0.5572701781,
				"z": -0.4937823763,
				"element": "H" 
			},
			{
				"x": -2.7332477331,
				"y": 1.0394900237,
				"z": 0.1832066271,
				"element": "H" 
			},
			{
				"x": -2.5686610998,
				"y": -0.6176157552,
				"z": 2.5160029668,
				"element": "H" 
			},
			{
				"x": -2.5352400514,
				"y": -2.0809377172,
				"z": 1.5143384618,
				"element": "H" 
			},
			{
				"x": -1.1860309611,
				"y": -1.7033684373,
				"z": 2.6051757154,
				"element": "H" 
			},
			{
				"x": 0.1296039589,
				"y": 2.1763475752,
				"z": -0.1791487613,
				"element": "H" 
			}
		],
		 "valence_orbital": [ 
			{
				"type": "occ",
				"energy": -0.32737,
				"method": "rhf"
			},
			{
				"type": "occ",
				"energy": -0.30641,
				"method": "rhf"
			},
			{
				"type": "occ",
				"energy": -0.27807,
				"method": "rhf"
			},
			{
				"type": "occ",
				"energy": -0.27053,
				"method": "rhf"
			},
			{
				"type": "occ",
				"energy": -0.24366,
				"method": "rhf"
			},
			{
				"type": "unocc",
				"energy": -0.04662,
				"method": "rhf"
			},
			{
				"type": "unocc",
				"energy": 0.02696,
				"method": "rhf"
			},
			{
				"type": "unocc",
				"energy": 0.06966,
				"method": "rhf"
			},
			{
				"type": "unocc",
				"energy": 0.09184,
				"method": "rhf"
			},
			{
				"type": "unocc",
				"energy": 0.09961,
				"method": "rhf"
			}
		],
		"cosmo_sigma_profile": { 
			"-0.025": 0.0,
			"-0.024": 0.0,
			"-0.023": 0.0,
			"-0.022": 0.0,
			"-0.021": 0.0,
			"-0.02": 0.0,
			"-0.019": 0.0,
			"-0.018": 0.0,
			"-0.017": 0.0,
			"-0.016": 0.0,
			"-0.015": 0.0,
			"-0.014": 0.0,
			"-0.013": 0.0,
			"-0.012": 0.0,
			"-0.011": 0.0,
			"-0.01": 0.0,
			"-0.009": 0.613138770435,
			"-0.008": 3.04396498146,
			"-0.007": 2.51665247497,
			"-0.006": 2.62654462532,
			"-0.005": 5.87396151908,
			"-0.004": 14.4940198266,
			"-0.003": 32.0104316252,
			"-0.002": 33.7532949913,
			"-0.001": 27.0423822254,
			"0.0": 27.7112489089,
			"0.001": 16.827213516,
			"0.002": 7.39036368318,
			"0.003": 6.88484909225,
			"0.004": 8.86356305854,
			"0.005": 8.53618977913,
			"0.006": 5.98208222261,
			"0.007": 3.0277718592,
			"0.008": 2.21076272124,
			"0.009": 2.61127444507,
			"0.01": 3.4418749254,
			"0.011": 4.81718934813,
			"0.012": 2.07778923603,
			"0.013": 0.0517930925364,
			"0.014": 0.0,
			"0.015": 0.0,
			"0.016": 0.0,
			"0.017": 0.0,
			"0.018": 0.0,
			"0.019": 0.0,
			"0.02": 0.0,
			"0.021": 0.0,
			"0.022": 0.0,
			"0.023": 0.0,
			"0.024": 0.0,
			"0.025": 0.0
		}
	}
}
