{
	 "smiles": "ClCC(=O)N(CC1=CC=CC=C1)C1=CC=CC=C1", 
	 "Tm": 353.15, 
	 "num_atms": 32, 
	 "gaussian": { 
		 "optdone": 1, 
		 "sigma_profile": "yes", 
		 "theory": "DFT", 
		 "functional": "B3LYP", 
		 "basiset": "6-31G**", 
		 "properties": { 
			 "R2extent": 6161.5722, 
			 "electric_dipole_moment_norm": 5.06330106749, 
			 "electric_quadrupole_moment_norm": 19.3348783332, 
			 "total_energy": -1170.20407771, 
			 "HOMO_LUMO_gap": 0.2071, 
			 "cosmo_polarized_energy": -15.38, 
			 "cosmo_cavitation_energy": 36.58, 
			 "cosmo_dispersion_energy": -25.9, 
			 "cosmo_repulsion_energy": 2.02, 
			 "cosmo_total_nonelectrostatic_energy": 12.71, 
			 "SMD_solvation_energy": 6.24 
		},
		"coords": [
			{
				"x": -4.5231968749,
				"y": -0.7897207119,
				"z": 0.3227963419,
				"element": "Cl" 
			},
			{
				"x": -2.9091518336,
				"y": -0.0327878823,
				"z": 0.1697198413,
				"element": "C" 
			},
			{
				"x": -2.2827219938,
				"y": -0.2815679911,
				"z": -1.216031673,
				"element": "C" 
			},
			{
				"x": -2.8892845401,
				"y": -0.8466290143,
				"z": -2.1054060943,
				"element": "O" 
			},
			{
				"x": -0.9891718542,
				"y": 0.2105148141,
				"z": -1.3640560508,
				"element": "N" 
			},
			{
				"x": -0.2519151044,
				"y": 0.7982895012,
				"z": -0.2380462884,
				"element": "C" 
			},
			{
				"x": 0.35466541,
				"y": -0.1790733532,
				"z": 0.764241125,
				"element": "C" 
			},
			{
				"x": 0.88963671,
				"y": 0.3303647047,
				"z": 1.9564158625,
				"element": "C" 
			},
			{
				"x": 1.4758055813,
				"y": -0.5184689366,
				"z": 2.8933631078,
				"element": "C" 
			},
			{
				"x": 1.5300951603,
				"y": -1.8945250615,
				"z": 2.6549422449,
				"element": "C" 
			},
			{
				"x": 0.9950979672,
				"y": -2.4099525049,
				"z": 1.4752575207,
				"element": "C" 
			},
			{
				"x": 0.4109017579,
				"y": -1.5576310638,
				"z": 0.5336537125,
				"element": "C" 
			},
			{
				"x": -0.3180937494,
				"y": 0.1204697956,
				"z": -2.6316293882,
				"element": "C" 
			},
			{
				"x": 1.050070526,
				"y": -0.1819890901,
				"z": -2.6717244107,
				"element": "C" 
			},
			{
				"x": 1.7290724465,
				"y": -0.2158964065,
				"z": -3.8907279612,
				"element": "C" 
			},
			{
				"x": 1.0525192103,
				"y": 0.039403939,
				"z": -5.082250587,
				"element": "C" 
			},
			{
				"x": -0.3118464829,
				"y": 0.3349896337,
				"z": -5.0422405933,
				"element": "C" 
			},
			{
				"x": -0.9976445513,
				"y": 0.3822216615,
				"z": -3.8304669113,
				"element": "C" 
			},
			{
				"x": -3.0394848111,
				"y": 1.0397096128,
				"z": 0.336350749,
				"element": "H" 
			},
			{
				"x": -2.282714787,
				"y": -0.4333400432,
				"z": 0.9674982059,
				"element": "H" 
			},
			{
				"x": 0.5410527325,
				"y": 1.4133253002,
				"z": -0.6729830312,
				"element": "H" 
			},
			{
				"x": -0.9028571486,
				"y": 1.5000283488,
				"z": 0.2953340514,
				"element": "H" 
			},
			{
				"x": 0.8465963852,
				"y": 1.3999382247,
				"z": 2.1517219997,
				"element": "H" 
			},
			{
				"x": 1.8854422526,
				"y": -0.1076191858,
				"z": 3.8116851698,
				"element": "H" 
			},
			{
				"x": 1.9827148936,
				"y": -2.5577048141,
				"z": 3.3861031148,
				"element": "H" 
			},
			{
				"x": 1.0283758669,
				"y": -3.478233115,
				"z": 1.2821301844,
				"element": "H" 
			},
			{
				"x": -0.0031469428,
				"y": -1.9678429736,
				"z": -0.3823347242,
				"element": "H" 
			},
			{
				"x": 1.5862414707,
				"y": -0.4051106807,
				"z": -1.7554652581,
				"element": "H" 
			},
			{
				"x": 2.7891705364,
				"y": -0.4522100225,
				"z": -3.9018751277,
				"element": "H" 
			},
			{
				"x": 1.5796692709,
				"y": 0.0072340773,
				"z": -6.0309693645,
				"element": "H" 
			},
			{
				"x": -0.8515484348,
				"y": 0.5390516287,
				"z": -5.9624901795,
				"element": "H" 
			},
			{
				"x": -2.0552490693,
				"y": 0.607161609,
				"z": -3.8126155884,
				"element": "H" 
			}
		],
		 "valence_orbital": [ 
			{
				"type": "occ",
				"energy": -0.2661,
				"method": "rhf"
			},
			{
				"type": "occ",
				"energy": -0.26349,
				"method": "rhf"
			},
			{
				"type": "occ",
				"energy": -0.25719,
				"method": "rhf"
			},
			{
				"type": "occ",
				"energy": -0.25037,
				"method": "rhf"
			},
			{
				"type": "occ",
				"energy": -0.22692,
				"method": "rhf"
			},
			{
				"type": "unocc",
				"energy": -0.01982,
				"method": "rhf"
			},
			{
				"type": "unocc",
				"energy": -0.01567,
				"method": "rhf"
			},
			{
				"type": "unocc",
				"energy": -0.01339,
				"method": "rhf"
			},
			{
				"type": "unocc",
				"energy": -0.00374,
				"method": "rhf"
			},
			{
				"type": "unocc",
				"energy": 0.02105,
				"method": "rhf"
			}
		],
		"cosmo_sigma_profile": { 
			"-0.025": 0.0,
			"-0.024": 0.0,
			"-0.023": 0.0,
			"-0.022": 0.0,
			"-0.021": 0.0,
			"-0.02": 0.0,
			"-0.019": 0.0,
			"-0.018": 0.0,
			"-0.017": 0.0,
			"-0.016": 0.0,
			"-0.015": 0.0,
			"-0.014": 0.0,
			"-0.013": 0.0,
			"-0.012": 0.0,
			"-0.011": 0.618917303987,
			"-0.01": 2.58208112626,
			"-0.009": 2.70077079584,
			"-0.008": 3.45441991456,
			"-0.007": 5.27233709889,
			"-0.006": 17.4736368883,
			"-0.005": 27.8748014308,
			"-0.004": 28.5393863715,
			"-0.003": 24.6296958701,
			"-0.002": 18.0633436021,
			"-0.001": 19.20670244,
			"0.0": 14.3855071958,
			"0.001": 17.2629545595,
			"0.002": 16.5713880284,
			"0.003": 16.4583275802,
			"0.004": 19.827545637,
			"0.005": 23.7649739342,
			"0.006": 15.018837227,
			"0.007": 2.81718071737,
			"0.008": 2.48133342807,
			"0.009": 2.19924919683,
			"0.01": 2.02697226665,
			"0.011": 2.7805516493,
			"0.012": 3.77128418839,
			"0.013": 3.49053541018,
			"0.014": 1.29000668189,
			"0.015": 0.00832982179577,
			"0.016": 0.0,
			"0.017": 0.0,
			"0.018": 0.0,
			"0.019": 0.0,
			"0.02": 0.0,
			"0.021": 0.0,
			"0.022": 0.0,
			"0.023": 0.0,
			"0.024": 0.0,
			"0.025": 0.0
		}
	}
}
