{
	 "smiles": "NNC(=O)CNC1=C(F)C=CC=C1", 
	 "Tm": 373.15, 
	 "num_atms": 23, 
	 "gaussian": { 
		 "optdone": 1, 
		 "sigma_profile": "yes", 
		 "theory": "DFT", 
		 "functional": "B3LYP", 
		 "basiset": "6-31G**", 
		 "properties": { 
			 "R2extent": 3666.6918, 
			 "electric_dipole_moment_norm": 1.49721038268, 
			 "electric_quadrupole_moment_norm": 6.03918711997, 
			 "total_energy": -650.167665714, 
			 "HOMO_LUMO_gap": 0.2005, 
			 "cosmo_polarized_energy": -13.8, 
			 "cosmo_cavitation_energy": 27.75, 
			 "cosmo_dispersion_energy": -20.34, 
			 "cosmo_repulsion_energy": 1.61, 
			 "cosmo_total_nonelectrostatic_energy": 9.02, 
			 "SMD_solvation_energy": 5.02 
		},
		"coords": [
			{
				"x": 2.1555096981,
				"y": -0.9904189801,
				"z": 4.0486206881,
				"element": "N" 
			},
			{
				"x": 2.2416725398,
				"y": -0.8909306197,
				"z": 2.6478802165,
				"element": "N" 
			},
			{
				"x": 1.2084316457,
				"y": -0.4459040018,
				"z": 1.8828961964,
				"element": "C" 
			},
			{
				"x": 0.1258851349,
				"y": -0.1236583692,
				"z": 2.3628130402,
				"element": "O" 
			},
			{
				"x": 1.4810048251,
				"y": -0.4118166594,
				"z": 0.3781764873,
				"element": "C" 
			},
			{
				"x": 0.5159897437,
				"y": 0.484531633,
				"z": -0.2282949374,
				"element": "N" 
			},
			{
				"x": 0.1781154197,
				"y": 0.4157592297,
				"z": -1.5762312407,
				"element": "C" 
			},
			{
				"x": 1.1078720798,
				"y": 0.1079592125,
				"z": -2.5840929396,
				"element": "C" 
			},
			{
				"x": 2.3952513019,
				"y": -0.1646921556,
				"z": -2.2292182743,
				"element": "F" 
			},
			{
				"x": 0.7771429366,
				"y": 0.0788068248,
				"z": -3.9297100595,
				"element": "C" 
			},
			{
				"x": -0.5251326202,
				"y": 0.3852406219,
				"z": -4.3283870621,
				"element": "C" 
			},
			{
				"x": -1.4717996217,
				"y": 0.7131647312,
				"z": -3.3559734563,
				"element": "C" 
			},
			{
				"x": -1.127415871,
				"y": 0.7212836724,
				"z": -2.0063838971,
				"element": "C" 
			},
			{
				"x": 1.7805148398,
				"y": -0.1068567045,
				"z": 4.3937423015,
				"element": "H" 
			},
			{
				"x": 1.4469892308,
				"y": -1.6906575542,
				"z": 4.2659808364,
				"element": "H" 
			},
			{
				"x": 3.1590627595,
				"y": -1.0478110558,
				"z": 2.257918012,
				"element": "H" 
			},
			{
				"x": 1.3958516435,
				"y": -1.4456663641,
				"z": 0.0023153194,
				"element": "H" 
			},
			{
				"x": 2.509513685,
				"y": -0.0913087024,
				"z": 0.181722554,
				"element": "H" 
			},
			{
				"x": -0.2792523583,
				"y": 0.6014510272,
				"z": 0.3928129875,
				"element": "H" 
			},
			{
				"x": 1.5527345549,
				"y": -0.1725929717,
				"z": -4.6458045595,
				"element": "H" 
			},
			{
				"x": -0.7902048343,
				"y": 0.3693285884,
				"z": -5.3803491175,
				"element": "H" 
			},
			{
				"x": -2.4902044233,
				"y": 0.9548905617,
				"z": -3.6452357676,
				"element": "H" 
			},
			{
				"x": -1.87413231,
				"y": 0.9672980356,
				"z": -1.2554973276,
				"element": "H" 
			}
		],
		 "valence_orbital": [ 
			{
				"type": "occ",
				"energy": -0.29007,
				"method": "rhf"
			},
			{
				"type": "occ",
				"energy": -0.27419,
				"method": "rhf"
			},
			{
				"type": "occ",
				"energy": -0.272,
				"method": "rhf"
			},
			{
				"type": "occ",
				"energy": -0.24154,
				"method": "rhf"
			},
			{
				"type": "occ",
				"energy": -0.19794,
				"method": "rhf"
			},
			{
				"type": "unocc",
				"energy": 0.00256,
				"method": "rhf"
			},
			{
				"type": "unocc",
				"energy": 0.01277,
				"method": "rhf"
			},
			{
				"type": "unocc",
				"energy": 0.0167,
				"method": "rhf"
			},
			{
				"type": "unocc",
				"energy": 0.07298,
				"method": "rhf"
			},
			{
				"type": "unocc",
				"energy": 0.07834,
				"method": "rhf"
			}
		],
		"cosmo_sigma_profile": { 
			"-0.025": 0.0,
			"-0.024": 0.0,
			"-0.023": 0.0,
			"-0.022": 0.0,
			"-0.021": 0.0,
			"-0.02": 0.0,
			"-0.019": 0.0,
			"-0.018": 0.0,
			"-0.017": 0.0,
			"-0.016": 0.0300734920993,
			"-0.015": 0.868584701098,
			"-0.014": 1.48298176118,
			"-0.013": 1.05959081687,
			"-0.012": 2.17385443609,
			"-0.011": 3.14746932133,
			"-0.01": 4.06195205534,
			"-0.009": 5.09034847538,
			"-0.008": 4.5677644247,
			"-0.007": 5.56092103705,
			"-0.006": 11.6465367395,
			"-0.005": 13.0978772326,
			"-0.004": 13.6477742798,
			"-0.003": 13.2183111703,
			"-0.002": 11.5441742175,
			"-0.001": 13.6437115295,
			"0.0": 10.8884861315,
			"0.001": 10.0679637437,
			"0.002": 15.0229172265,
			"0.003": 13.7235462488,
			"0.004": 16.4619590623,
			"0.005": 15.8818097277,
			"0.006": 10.0658209565,
			"0.007": 3.03962634099,
			"0.008": 1.86787614326,
			"0.009": 2.45205949646,
			"0.01": 2.73814416447,
			"0.011": 2.84051260776,
			"0.012": 3.78557202462,
			"0.013": 4.120273306,
			"0.014": 0.85807778021,
			"0.015": 0.620174694916,
			"0.016": 0.411128402469,
			"0.017": 0.119279841527,
			"0.018": 0.0,
			"0.019": 0.0,
			"0.02": 0.0,
			"0.021": 0.0,
			"0.022": 0.0,
			"0.023": 0.0,
			"0.024": 0.0,
			"0.025": 0.0
		}
	}
}
