{
	 "smiles": "CC(NC(=O)C1=CC=CO1)C(O)=O", 
	 "Tm": 374.15, 
	 "num_atms": 22, 
	 "gaussian": { 
		 "optdone": 1, 
		 "sigma_profile": "yes", 
		 "theory": "DFT", 
		 "functional": "B3LYP", 
		 "basiset": "6-31G**", 
		 "properties": { 
			 "R2extent": 2541.1809, 
			 "electric_dipole_moment_norm": 1.83503469449, 
			 "electric_quadrupole_moment_norm": 21.3133068507, 
			 "total_energy": -665.914385264, 
			 "HOMO_LUMO_gap": 0.19683, 
			 "cosmo_polarized_energy": -18.47, 
			 "cosmo_cavitation_energy": 26.31, 
			 "cosmo_dispersion_energy": -18.54, 
			 "cosmo_repulsion_energy": 1.47, 
			 "cosmo_total_nonelectrostatic_energy": 9.25, 
			 "SMD_solvation_energy": 7.23 
		},
		"coords": [
			{
				"x": 2.1179723528,
				"y": -1.0956326532,
				"z": -1.8660424698,
				"element": "C" 
			},
			{
				"x": 1.0733024762,
				"y": -0.2470851603,
				"z": -2.5946413382,
				"element": "C" 
			},
			{
				"x": 1.0017944549,
				"y": 1.1761757272,
				"z": -2.1949734867,
				"element": "N" 
			},
			{
				"x": 1.0624450496,
				"y": 1.7307674347,
				"z": -0.9101285486,
				"element": "C" 
			},
			{
				"x": 1.5587354115,
				"y": 2.840152629,
				"z": -0.7503320277,
				"element": "O" 
			},
			{
				"x": 0.4538132017,
				"y": 1.02928157,
				"z": 0.2256953833,
				"element": "C" 
			},
			{
				"x": 0.4225332538,
				"y": 1.3859038834,
				"z": 1.5482263065,
				"element": "C" 
			},
			{
				"x": -0.3222116267,
				"y": 0.3744868825,
				"z": 2.2219240263,
				"element": "C" 
			},
			{
				"x": -0.6948702047,
				"y": -0.5257148394,
				"z": 1.2644350792,
				"element": "C" 
			},
			{
				"x": -0.2320652501,
				"y": -0.1440642006,
				"z": 0.0473367982,
				"element": "O" 
			},
			{
				"x": -0.3175992312,
				"y": -0.9175590151,
				"z": -2.6245106575,
				"element": "C" 
			},
			{
				"x": -1.3501921033,
				"y": -0.0666319996,
				"z": -2.7658638472,
				"element": "O" 
			},
			{
				"x": -0.4641752369,
				"y": -2.1150300996,
				"z": -2.6163628527,
				"element": "O" 
			},
			{
				"x": 2.1085263694,
				"y": -2.1039346643,
				"z": -2.2836859076,
				"element": "H" 
			},
			{
				"x": 1.9000766331,
				"y": -1.1736970705,
				"z": -0.7999280801,
				"element": "H" 
			},
			{
				"x": 3.1140427773,
				"y": -0.6631742898,
				"z": -1.9945359446,
				"element": "H" 
			},
			{
				"x": 1.3586111269,
				"y": -0.2089661585,
				"z": -3.6542850839,
				"element": "H" 
			},
			{
				"x": 1.5060251538,
				"y": 1.8017803162,
				"z": -2.814234126,
				"element": "H" 
			},
			{
				"x": 0.8798698577,
				"y": 2.2704634777,
				"z": 1.9650557722,
				"element": "H" 
			},
			{
				"x": -0.5538797559,
				"y": 0.3217535025,
				"z": 3.2756353278,
				"element": "H" 
			},
			{
				"x": -1.2640480747,
				"y": -1.4423067834,
				"z": 1.2818827379,
				"element": "H" 
			},
			{
				"x": -0.9917066351,
				"y": 0.8359315108,
				"z": -2.6781670607,
				"element": "H" 
			}
		],
		 "valence_orbital": [ 
			{
				"type": "occ",
				"energy": -0.30231,
				"method": "rhf"
			},
			{
				"type": "occ",
				"energy": -0.29598,
				"method": "rhf"
			},
			{
				"type": "occ",
				"energy": -0.27704,
				"method": "rhf"
			},
			{
				"type": "occ",
				"energy": -0.25775,
				"method": "rhf"
			},
			{
				"type": "occ",
				"energy": -0.25072,
				"method": "rhf"
			},
			{
				"type": "unocc",
				"energy": -0.05389,
				"method": "rhf"
			},
			{
				"type": "unocc",
				"energy": 0.01004,
				"method": "rhf"
			},
			{
				"type": "unocc",
				"energy": 0.0295,
				"method": "rhf"
			},
			{
				"type": "unocc",
				"energy": 0.06435,
				"method": "rhf"
			},
			{
				"type": "unocc",
				"energy": 0.09033,
				"method": "rhf"
			}
		],
		"cosmo_sigma_profile": { 
			"-0.025": 0.0,
			"-0.024": 0.0,
			"-0.023": 0.0,
			"-0.022": 0.0,
			"-0.021": 0.0,
			"-0.02": 0.0,
			"-0.019": 0.0,
			"-0.018": 0.0,
			"-0.017": 0.0,
			"-0.016": 0.0,
			"-0.015": 0.278881195026,
			"-0.014": 1.75949737737,
			"-0.013": 2.13170088078,
			"-0.012": 1.60208529041,
			"-0.011": 3.13916345421,
			"-0.01": 5.83853942587,
			"-0.009": 6.96489083125,
			"-0.008": 7.88010371441,
			"-0.007": 7.85785280178,
			"-0.006": 7.13919835128,
			"-0.005": 10.2880113468,
			"-0.004": 12.1281658475,
			"-0.003": 13.9417191001,
			"-0.002": 13.8781756922,
			"-0.001": 12.6323943844,
			"0.0": 13.2041437016,
			"0.001": 11.2542574374,
			"0.002": 11.1960699076,
			"0.003": 9.8462522996,
			"0.004": 5.39985119391,
			"0.005": 4.00398168156,
			"0.006": 4.65346583679,
			"0.007": 4.78832478755,
			"0.008": 3.09374465516,
			"0.009": 5.68041440631,
			"0.01": 5.91173971505,
			"0.011": 6.98559227718,
			"0.012": 9.21932904775,
			"0.013": 6.29123864583,
			"0.014": 0.25391740442,
			"0.015": 0.0,
			"0.016": 0.0,
			"0.017": 0.0,
			"0.018": 0.0,
			"0.019": 0.0,
			"0.02": 0.0,
			"0.021": 0.0,
			"0.022": 0.0,
			"0.023": 0.0,
			"0.024": 0.0,
			"0.025": 0.0
		}
	}
}
