{
	 "smiles": "CC(C)(C(O)=O)C1=CC(Cl)=CC=C1", 
	 "Tm": 339.15, 
	 "num_atms": 24, 
	 "gaussian": { 
		 "optdone": 1, 
		 "sigma_profile": "yes", 
		 "theory": "DFT", 
		 "functional": "B3LYP", 
		 "basiset": "6-31G**", 
		 "properties": { 
			 "R2extent": 3517.9102, 
			 "electric_dipole_moment_norm": 2.69954037755, 
			 "electric_quadrupole_moment_norm": 16.7537149934, 
			 "total_energy": -998.350577817, 
			 "HOMO_LUMO_gap": 0.22284, 
			 "cosmo_polarized_energy": -12.62, 
			 "cosmo_cavitation_energy": 28.81, 
			 "cosmo_dispersion_energy": -20.37, 
			 "cosmo_repulsion_energy": 1.61, 
			 "cosmo_total_nonelectrostatic_energy": 10.06, 
			 "SMD_solvation_energy": 5.73 
		},
		"coords": [
			{
				"x": -1.8650359598,
				"y": 0.567811343,
				"z": -1.4184693333,
				"element": "C" 
			},
			{
				"x": -0.8872200261,
				"y": 0.3899314382,
				"z": -0.2393168196,
				"element": "C" 
			},
			{
				"x": 0.2923644558,
				"y": 1.3768085716,
				"z": -0.4116780012,
				"element": "C" 
			},
			{
				"x": -1.6001944188,
				"y": 0.8128323398,
				"z": 1.0706030441,
				"element": "C" 
			},
			{
				"x": -1.0150909364,
				"y": 0.4015827698,
				"z": 2.2238388381,
				"element": "O" 
			},
			{
				"x": -2.5765751037,
				"y": 1.5198969577,
				"z": 1.1055109191,
				"element": "O" 
			},
			{
				"x": -0.4396297939,
				"y": -1.0772667508,
				"z": -0.1447239221,
				"element": "C" 
			},
			{
				"x": 0.8789203974,
				"y": -1.4795161008,
				"z": -0.3950083204,
				"element": "C" 
			},
			{
				"x": 1.2233498723,
				"y": -2.8313357046,
				"z": -0.3244234915,
				"element": "C" 
			},
			{
				"x": 2.8861621964,
				"y": -3.3023951174,
				"z": -0.6480599224,
				"element": "Cl" 
			},
			{
				"x": 0.2860031655,
				"y": -3.8081656548,
				"z": -0.0032589034,
				"element": "C" 
			},
			{
				"x": -1.0273704444,
				"y": -3.4079240334,
				"z": 0.2535682211,
				"element": "C" 
			},
			{
				"x": -1.3864716806,
				"y": -2.0647075266,
				"z": 0.1838912808,
				"element": "C" 
			},
			{
				"x": -2.7338143945,
				"y": -0.0875036187,
				"z": -1.3213282312,
				"element": "H" 
			},
			{
				"x": -2.2278420884,
				"y": 1.5970520668,
				"z": -1.452466563,
				"element": "H" 
			},
			{
				"x": -1.3599421958,
				"y": 0.3316083608,
				"z": -2.3596998002,
				"element": "H" 
			},
			{
				"x": -0.089310214,
				"y": 2.4010951672,
				"z": -0.4205749702,
				"element": "H" 
			},
			{
				"x": 1.0234233839,
				"y": 1.297545347,
				"z": 0.3987782781,
				"element": "H" 
			},
			{
				"x": 0.8073794663,
				"y": 1.203923056,
				"z": -1.3613030015,
				"element": "H" 
			},
			{
				"x": -0.3068824282,
				"y": -0.230224629,
				"z": 2.0244645411,
				"element": "H" 
			},
			{
				"x": 1.6456730506,
				"y": -0.7593720709,
				"z": -0.6512740347,
				"element": "H" 
			},
			{
				"x": 0.57645275,
				"y": -4.8513464916,
				"z": 0.0480206228,
				"element": "H" 
			},
			{
				"x": -1.7729005689,
				"y": -4.1540916483,
				"z": 0.5112916836,
				"element": "H" 
			},
			{
				"x": -2.4131484848,
				"y": -1.776338071,
				"z": 0.3917178857,
				"element": "H" 
			}
		],
		 "valence_orbital": [ 
			{
				"type": "occ",
				"energy": -0.32269,
				"method": "rhf"
			},
			{
				"type": "occ",
				"energy": -0.31611,
				"method": "rhf"
			},
			{
				"type": "occ",
				"energy": -0.28311,
				"method": "rhf"
			},
			{
				"type": "occ",
				"energy": -0.26723,
				"method": "rhf"
			},
			{
				"type": "occ",
				"energy": -0.25606,
				"method": "rhf"
			},
			{
				"type": "unocc",
				"energy": -0.03322,
				"method": "rhf"
			},
			{
				"type": "unocc",
				"energy": -0.02903,
				"method": "rhf"
			},
			{
				"type": "unocc",
				"energy": 0.00571,
				"method": "rhf"
			},
			{
				"type": "unocc",
				"energy": 0.02062,
				"method": "rhf"
			},
			{
				"type": "unocc",
				"energy": 0.06701,
				"method": "rhf"
			}
		],
		"cosmo_sigma_profile": { 
			"-0.025": 0.0,
			"-0.024": 0.0,
			"-0.023": 0.0,
			"-0.022": 0.0,
			"-0.021": 0.0,
			"-0.02": 0.0,
			"-0.019": 0.0,
			"-0.018": 0.0,
			"-0.017": 0.0,
			"-0.016": 0.200768440783,
			"-0.015": 0.720143975984,
			"-0.014": 0.760003107782,
			"-0.013": 0.742250321749,
			"-0.012": 0.797493778782,
			"-0.011": 1.63502475715,
			"-0.01": 1.06516533547,
			"-0.009": 0.947127738566,
			"-0.008": 1.50882754327,
			"-0.007": 7.1602337563,
			"-0.006": 11.9525428796,
			"-0.005": 14.6909195261,
			"-0.004": 16.6921013192,
			"-0.003": 17.9068293367,
			"-0.002": 17.4702455429,
			"-0.001": 18.8662545038,
			"0.0": 19.9306121573,
			"0.001": 16.731523485,
			"0.002": 14.4364290551,
			"0.003": 16.7930877952,
			"0.004": 13.7223554365,
			"0.005": 7.89603236611,
			"0.006": 2.18260766256,
			"0.007": 2.84044698366,
			"0.008": 2.58327454992,
			"0.009": 3.30799070505,
			"0.01": 4.71370208943,
			"0.011": 5.35827906765,
			"0.012": 4.9849496214,
			"0.013": 1.42517531276,
			"0.014": 0.0217354392322,
			"0.015": 0.0,
			"0.016": 0.0,
			"0.017": 0.0,
			"0.018": 0.0,
			"0.019": 0.0,
			"0.02": 0.0,
			"0.021": 0.0,
			"0.022": 0.0,
			"0.023": 0.0,
			"0.024": 0.0,
			"0.025": 0.0
		}
	}
}
