{
	 "smiles": "CC1CC(C)(C)CC(=O)C1=O", 
	 "Tm": 363.65, 
	 "num_atms": 25, 
	 "gaussian": { 
		 "optdone": 1, 
		 "sigma_profile": "yes", 
		 "theory": "DFT", 
		 "functional": "B3LYP", 
		 "basiset": "6-31G**", 
		 "properties": { 
			 "R2extent": 1938.1948, 
			 "electric_dipole_moment_norm": 4.80515346061, 
			 "electric_quadrupole_moment_norm": 11.1754202646, 
			 "total_energy": -501.837520219, 
			 "HOMO_LUMO_gap": 0.15599, 
			 "cosmo_polarized_energy": -11.86, 
			 "cosmo_cavitation_energy": 26.29, 
			 "cosmo_dispersion_energy": -18.53, 
			 "cosmo_repulsion_energy": 1.48, 
			 "cosmo_total_nonelectrostatic_energy": 9.25, 
			 "SMD_solvation_energy": 5.63 
		},
		"coords": [
			{
				"x": 1.6116601586,
				"y": 2.4404734308,
				"z": -0.101412606,
				"element": "C" 
			},
			{
				"x": 0.7773777978,
				"y": 1.4702907568,
				"z": 0.7343325069,
				"element": "C" 
			},
			{
				"x": 1.3529912597,
				"y": 0.0226445207,
				"z": 0.7330768172,
				"element": "C" 
			},
			{
				"x": 0.3394669839,
				"y": -1.1203292969,
				"z": 1.0583390427,
				"element": "C" 
			},
			{
				"x": 1.056710084,
				"y": -2.24041093,
				"z": 1.8311520542,
				"element": "C" 
			},
			{
				"x": -0.2337276166,
				"y": -1.7041613627,
				"z": -0.2517114741,
				"element": "C" 
			},
			{
				"x": -0.8266523861,
				"y": -0.5671090925,
				"z": 1.9167418411,
				"element": "C" 
			},
			{
				"x": -1.5858873356,
				"y": 0.5277148242,
				"z": 1.1878510982,
				"element": "C" 
			},
			{
				"x": -2.7878588773,
				"y": 0.6730313023,
				"z": 1.2258441023,
				"element": "O" 
			},
			{
				"x": -0.6939509724,
				"y": 1.4908649059,
				"z": 0.3514420392,
				"element": "C" 
			},
			{
				"x": -1.1779020001,
				"y": 2.1962318988,
				"z": -0.5073626294,
				"element": "O" 
			},
			{
				"x": 2.6558456477,
				"y": 2.4328215407,
				"z": 0.2264159333,
				"element": "H" 
			},
			{
				"x": 1.5802317392,
				"y": 2.161602698,
				"z": -1.1590334184,
				"element": "H" 
			},
			{
				"x": 1.2291384812,
				"y": 3.4609558396,
				"z": -0.0201490654,
				"element": "H" 
			},
			{
				"x": 0.7819341629,
				"y": 1.8122242707,
				"z": 1.7832213816,
				"element": "H" 
			},
			{
				"x": 1.7978701699,
				"y": -0.1735779301,
				"z": -0.2497146061,
				"element": "H" 
			},
			{
				"x": 2.1808428161,
				"y": -0.0028592542,
				"z": 1.4504668868,
				"element": "H" 
			},
			{
				"x": 1.4342114532,
				"y": -1.8798489248,
				"z": 2.7946283837,
				"element": "H" 
			},
			{
				"x": 1.9094001008,
				"y": -2.6232418463,
				"z": 1.2592301379,
				"element": "H" 
			},
			{
				"x": 0.3819176137,
				"y": -3.0810040855,
				"z": 2.0263529536,
				"element": "H" 
			},
			{
				"x": -0.7051129245,
				"y": -0.9394126695,
				"z": -0.8795970356,
				"element": "H" 
			},
			{
				"x": 0.5609030205,
				"y": -2.1688764316,
				"z": -0.844991474,
				"element": "H" 
			},
			{
				"x": -0.9897551096,
				"y": -2.4689017205,
				"z": -0.0424872778,
				"element": "H" 
			},
			{
				"x": -0.4318850535,
				"y": -0.1425908172,
				"z": 2.8520992357,
				"element": "H" 
			},
			{
				"x": -1.5348692137,
				"y": -1.3531316266,
				"z": 2.1971651724,
				"element": "H" 
			}
		],
		 "valence_orbital": [ 
			{
				"type": "occ",
				"energy": -0.34357,
				"method": "rhf"
			},
			{
				"type": "occ",
				"energy": -0.32947,
				"method": "rhf"
			},
			{
				"type": "occ",
				"energy": -0.32534,
				"method": "rhf"
			},
			{
				"type": "occ",
				"energy": -0.28668,
				"method": "rhf"
			},
			{
				"type": "occ",
				"energy": -0.23408,
				"method": "rhf"
			},
			{
				"type": "unocc",
				"energy": -0.07809,
				"method": "rhf"
			},
			{
				"type": "unocc",
				"energy": 0.03395,
				"method": "rhf"
			},
			{
				"type": "unocc",
				"energy": 0.06466,
				"method": "rhf"
			},
			{
				"type": "unocc",
				"energy": 0.09115,
				"method": "rhf"
			},
			{
				"type": "unocc",
				"energy": 0.10978,
				"method": "rhf"
			}
		],
		"cosmo_sigma_profile": { 
			"-0.025": 0.0,
			"-0.024": 0.0,
			"-0.023": 0.0,
			"-0.022": 0.0,
			"-0.021": 0.0,
			"-0.02": 0.0,
			"-0.019": 0.0,
			"-0.018": 0.0,
			"-0.017": 0.0,
			"-0.016": 0.0,
			"-0.015": 0.0,
			"-0.014": 0.0,
			"-0.013": 0.0,
			"-0.012": 0.0,
			"-0.011": 0.00105780885421,
			"-0.01": 0.715761944528,
			"-0.009": 1.372584724,
			"-0.008": 2.36547525681,
			"-0.007": 3.33243799905,
			"-0.006": 4.70470310204,
			"-0.005": 7.24078131182,
			"-0.004": 18.2815939332,
			"-0.003": 35.9048934069,
			"-0.002": 25.6922320665,
			"-0.001": 22.8069218118,
			"0.0": 19.9714794909,
			"0.001": 16.7437442805,
			"0.002": 3.32737780214,
			"0.003": 2.63001248084,
			"0.004": 2.27606236229,
			"0.005": 2.67557675337,
			"0.006": 2.49122590073,
			"0.007": 3.26460675506,
			"0.008": 2.98369801726,
			"0.009": 4.45999855691,
			"0.01": 7.56103177027,
			"0.011": 7.15159275167,
			"0.012": 3.89456279581,
			"0.013": 1.74265996548,
			"0.014": 0.193199054262,
			"0.015": 0.0,
			"0.016": 0.0,
			"0.017": 0.0,
			"0.018": 0.0,
			"0.019": 0.0,
			"0.02": 0.0,
			"0.021": 0.0,
			"0.022": 0.0,
			"0.023": 0.0,
			"0.024": 0.0,
			"0.025": 0.0
		}
	}
}
