{
	 "smiles": "CC(NC(=O)C1=CC=C(Br)O1)C(O)=O", 
	 "Tm": 443.15, 
	 "num_atms": 22, 
	 "gaussian": { 
		 "optdone": 1, 
		 "sigma_profile": "yes", 
		 "theory": "DFT", 
		 "functional": "B3LYP", 
		 "basiset": "6-31G**", 
		 "properties": { 
			 "R2extent": 6528.8174, 
			 "electric_dipole_moment_norm": 6.27917051688, 
			 "electric_quadrupole_moment_norm": 20.1012890515, 
			 "total_energy": -3236.69834315, 
			 "HOMO_LUMO_gap": 0.16738, 
			 "cosmo_polarized_energy": -17.4, 
			 "cosmo_cavitation_energy": 29.19, 
			 "cosmo_dispersion_energy": -21.36, 
			 "cosmo_repulsion_energy": 1.69, 
			 "cosmo_total_nonelectrostatic_energy": 9.53, 
			 "SMD_solvation_energy": 5.18 
		},
		"coords": [
			{
				"x": -0.8948131657,
				"y": 1.4492765268,
				"z": 1.8127817218,
				"element": "C" 
			},
			{
				"x": 0.6205972411,
				"y": 1.4423863125,
				"z": 1.5898900102,
				"element": "C" 
			},
			{
				"x": 1.0603583064,
				"y": 0.6695832274,
				"z": 0.4009020729,
				"element": "N" 
			},
			{
				"x": 0.4908491932,
				"y": 0.9543184052,
				"z": -0.8652189252,
				"element": "C" 
			},
			{
				"x": 1.0195630869,
				"y": 1.7455948388,
				"z": -1.6482030868,
				"element": "O" 
			},
			{
				"x": -0.6979971639,
				"y": 0.1897202165,
				"z": -1.2008991092,
				"element": "C" 
			},
			{
				"x": -1.2585000108,
				"y": -0.9528607128,
				"z": -0.6788298624,
				"element": "C" 
			},
			{
				"x": -2.3800893924,
				"y": -1.2707302261,
				"z": -1.4891593388,
				"element": "C" 
			},
			{
				"x": -2.4151516575,
				"y": -0.2947789223,
				"z": -2.4514524791,
				"element": "C" 
			},
			{
				"x": -3.5901937714,
				"y": -0.0193097209,
				"z": -3.8700263188,
				"element": "Br" 
			},
			{
				"x": -1.4148193995,
				"y": 0.5913348612,
				"z": -2.3057292183,
				"element": "O" 
			},
			{
				"x": 1.1446698398,
				"y": 2.9039347127,
				"z": 1.6304051734,
				"element": "C" 
			},
			{
				"x": 1.6423682868,
				"y": 3.4503433157,
				"z": 0.5093556267,
				"element": "O" 
			},
			{
				"x": 1.1045878679,
				"y": 3.521770981,
				"z": 2.6685380234,
				"element": "O" 
			},
			{
				"x": -1.2812295896,
				"y": 0.4323385933,
				"z": 1.9096127713,
				"element": "H" 
			},
			{
				"x": -1.0976560137,
				"y": 1.9970754982,
				"z": 2.734740195,
				"element": "H" 
			},
			{
				"x": -1.428648201,
				"y": 1.946646282,
				"z": 0.9976090563,
				"element": "H" 
			},
			{
				"x": 1.0863718182,
				"y": 0.961201322,
				"z": 2.4555913795,
				"element": "H" 
			},
			{
				"x": 2.0661765176,
				"y": 0.793522123,
				"z": 0.2984497469,
				"element": "H" 
			},
			{
				"x": -0.881977294,
				"y": -1.5017099738,
				"z": 0.1712286141,
				"element": "H" 
			},
			{
				"x": -3.0641734377,
				"y": -2.0993669,
				"z": -1.3918047536,
				"element": "H" 
			},
			{
				"x": 1.5433069393,
				"y": 2.8940092396,
				"z": -0.2946812992,
				"element": "H" 
			}
		],
		 "valence_orbital": [ 
			{
				"type": "occ",
				"energy": -0.32042,
				"method": "rhf"
			},
			{
				"type": "occ",
				"energy": -0.30609,
				"method": "rhf"
			},
			{
				"type": "occ",
				"energy": -0.28385,
				"method": "rhf"
			},
			{
				"type": "occ",
				"energy": -0.26097,
				"method": "rhf"
			},
			{
				"type": "occ",
				"energy": -0.25149,
				"method": "rhf"
			},
			{
				"type": "unocc",
				"energy": -0.08411,
				"method": "rhf"
			},
			{
				"type": "unocc",
				"energy": -0.01325,
				"method": "rhf"
			},
			{
				"type": "unocc",
				"energy": 0.0032,
				"method": "rhf"
			},
			{
				"type": "unocc",
				"energy": 0.0106,
				"method": "rhf"
			},
			{
				"type": "unocc",
				"energy": 0.05443,
				"method": "rhf"
			}
		],
		"cosmo_sigma_profile": { 
			"-0.025": 0.0,
			"-0.024": 0.0,
			"-0.023": 0.0,
			"-0.022": 0.0,
			"-0.021": 0.0,
			"-0.02": 0.0,
			"-0.019": 0.0,
			"-0.018": 0.0,
			"-0.017": 0.0,
			"-0.016": 0.0,
			"-0.015": 0.367556978592,
			"-0.014": 1.32953814452,
			"-0.013": 1.58376702572,
			"-0.012": 1.57274492201,
			"-0.011": 1.92063994281,
			"-0.01": 1.83932297772,
			"-0.009": 5.01117606281,
			"-0.008": 6.08788929768,
			"-0.007": 9.01137695284,
			"-0.006": 10.4625450058,
			"-0.005": 11.6236681777,
			"-0.004": 13.4019537901,
			"-0.003": 15.1265116351,
			"-0.002": 20.4769141117,
			"-0.001": 21.5631658737,
			"0.0": 18.948873996,
			"0.001": 16.2028060814,
			"0.002": 18.9554211291,
			"0.003": 7.32087200228,
			"0.004": 5.15822985505,
			"0.005": 4.18857022613,
			"0.006": 4.63587328706,
			"0.007": 4.87205926291,
			"0.008": 5.03718097204,
			"0.009": 5.75011029621,
			"0.01": 6.82853297307,
			"0.011": 7.55605815178,
			"0.012": 6.95532684585,
			"0.013": 2.4775134206,
			"0.014": 0.175288927629,
			"0.015": 0.0,
			"0.016": 0.0,
			"0.017": 0.0,
			"0.018": 0.0,
			"0.019": 0.0,
			"0.02": 0.0,
			"0.021": 0.0,
			"0.022": 0.0,
			"0.023": 0.0,
			"0.024": 0.0,
			"0.025": 0.0
		}
	}
}
