{
	 "smiles": "BrC(CCC(Br)C(Br)C1=CC=CC=C1)C(Br)C1=CC=CC=C1", 
	 "Tm": 467.15, 
	 "num_atms": 40, 
	 "gaussian": { 
		 "optdone": 1, 
		 "sigma_profile": "yes", 
		 "theory": "DFT", 
		 "functional": "B3LYP", 
		 "basiset": "6-31G**", 
		 "properties": { 
			 "R2extent": 14457.5586, 
			 "electric_dipole_moment_norm": 2.49982954219, 
			 "electric_quadrupole_moment_norm": 17.1067901153, 
			 "total_energy": -10982.398185, 
			 "HOMO_LUMO_gap": 0.20859, 
			 "cosmo_polarized_energy": -14.43, 
			 "cosmo_cavitation_energy": 50.13, 
			 "cosmo_dispersion_energy": -32.76, 
			 "cosmo_repulsion_energy": 2.54, 
			 "cosmo_total_nonelectrostatic_energy": 19.9, 
			 "SMD_solvation_energy": 3.47 
		},
		"coords": [
			{
				"x": -1.5589002067,
				"y": -2.1843867222,
				"z": -1.1756660694,
				"element": "Br" 
			},
			{
				"x": -2.4634990165,
				"y": -0.4579782484,
				"z": -1.6119854564,
				"element": "C" 
			},
			{
				"x": -1.4191883136,
				"y": 0.6193832267,
				"z": -1.9475491906,
				"element": "C" 
			},
			{
				"x": -0.3680237381,
				"y": 0.9550044308,
				"z": -0.8825553461,
				"element": "C" 
			},
			{
				"x": 0.6894039422,
				"y": 1.9329769714,
				"z": -1.3803507818,
				"element": "C" 
			},
			{
				"x": -0.1401563947,
				"y": 3.7041210574,
				"z": -1.8306695775,
				"element": "Br" 
			},
			{
				"x": 1.9069662298,
				"y": 2.1636757824,
				"z": -0.4675633029,
				"element": "C" 
			},
			{
				"x": 1.3597830287,
				"y": 2.756617906,
				"z": 1.3544341493,
				"element": "Br" 
			},
			{
				"x": 2.8280185453,
				"y": 0.9596650729,
				"z": -0.4224302705,
				"element": "C" 
			},
			{
				"x": 3.8875535154,
				"y": 0.9181656531,
				"z": -1.340321668,
				"element": "C" 
			},
			{
				"x": 4.7365821147,
				"y": -0.1875004162,
				"z": -1.4002366791,
				"element": "C" 
			},
			{
				"x": 4.5388896805,
				"y": -1.2663779792,
				"z": -0.5380503017,
				"element": "C" 
			},
			{
				"x": 3.4915880867,
				"y": -1.2296210503,
				"z": 0.3848395353,
				"element": "C" 
			},
			{
				"x": 2.6422014333,
				"y": -0.1252080357,
				"z": 0.4445087257,
				"element": "C" 
			},
			{
				"x": -3.5344502153,
				"y": -0.0334299503,
				"z": -0.591904474,
				"element": "C" 
			},
			{
				"x": -5.0669036597,
				"y": -1.3311562635,
				"z": -0.6788416089,
				"element": "Br" 
			},
			{
				"x": -3.1588842472,
				"y": 0.2479033078,
				"z": 0.8404371076,
				"element": "C" 
			},
			{
				"x": -2.7705537507,
				"y": -0.7578820567,
				"z": 1.7382993844,
				"element": "C" 
			},
			{
				"x": -2.4135589596,
				"y": -0.4333023253,
				"z": 3.0454336599,
				"element": "C" 
			},
			{
				"x": -2.4452385019,
				"y": 0.8942696861,
				"z": 3.4802627214,
				"element": "C" 
			},
			{
				"x": -2.8464276319,
				"y": 1.8990249517,
				"z": 2.60047248,
				"element": "C" 
			},
			{
				"x": -3.2080035808,
				"y": 1.5749775848,
				"z": 1.2919842631,
				"element": "C" 
			},
			{
				"x": -2.990965245,
				"y": -0.710959458,
				"z": -2.5311217135,
				"element": "H" 
			},
			{
				"x": -0.9086810526,
				"y": 0.2886372082,
				"z": -2.8597009112,
				"element": "H" 
			},
			{
				"x": -1.9712276134,
				"y": 1.5287428851,
				"z": -2.2173908893,
				"element": "H" 
			},
			{
				"x": -0.8268845587,
				"y": 1.3524530651,
				"z": 0.0237226266,
				"element": "H" 
			},
			{
				"x": 0.152472808,
				"y": 0.0321383404,
				"z": -0.6033980414,
				"element": "H" 
			},
			{
				"x": 1.0892507729,
				"y": 1.6095048355,
				"z": -2.3455908461,
				"element": "H" 
			},
			{
				"x": 2.4571926806,
				"y": 3.0225989556,
				"z": -0.8487514054,
				"element": "H" 
			},
			{
				"x": 4.0525058996,
				"y": 1.7589783643,
				"z": -2.0099823862,
				"element": "H" 
			},
			{
				"x": 5.5549611217,
				"y": -0.2000472237,
				"z": -2.114127044,
				"element": "H" 
			},
			{
				"x": 5.2009773672,
				"y": -2.1262564522,
				"z": -0.5785125893,
				"element": "H" 
			},
			{
				"x": 3.3371112386,
				"y": -2.0609655348,
				"z": 1.0663072522,
				"element": "H" 
			},
			{
				"x": 1.8482524245,
				"y": -0.0914437391,
				"z": 1.1829798565,
				"element": "H" 
			},
			{
				"x": -3.9818850594,
				"y": 0.8680341078,
				"z": -1.0177627636,
				"element": "H" 
			},
			{
				"x": -2.7650915411,
				"y": -1.7915435044,
				"z": 1.4146901761,
				"element": "H" 
			},
			{
				"x": -2.1163204967,
				"y": -1.2222739217,
				"z": 3.7302204385,
				"element": "H" 
			},
			{
				"x": -2.1677715728,
				"y": 1.1410330409,
				"z": 4.5008895758,
				"element": "H" 
			},
			{
				"x": -2.8843691879,
				"y": 2.9332316098,
				"z": 2.928988171,
				"element": "H" 
			},
			{
				"x": -3.5226263455,
				"y": 2.3632948379,
				"z": 0.6126931932,
				"element": "H" 
			}
		],
		 "valence_orbital": [ 
			{
				"type": "occ",
				"energy": -0.26689,
				"method": "rhf"
			},
			{
				"type": "occ",
				"energy": -0.2626,
				"method": "rhf"
			},
			{
				"type": "occ",
				"energy": -0.25601,
				"method": "rhf"
			},
			{
				"type": "occ",
				"energy": -0.25493,
				"method": "rhf"
			},
			{
				"type": "occ",
				"energy": -0.24863,
				"method": "rhf"
			},
			{
				"type": "unocc",
				"energy": -0.04004,
				"method": "rhf"
			},
			{
				"type": "unocc",
				"energy": -0.03887,
				"method": "rhf"
			},
			{
				"type": "unocc",
				"energy": -0.0158,
				"method": "rhf"
			},
			{
				"type": "unocc",
				"energy": -0.00893,
				"method": "rhf"
			},
			{
				"type": "unocc",
				"energy": -0.0075,
				"method": "rhf"
			}
		],
		"cosmo_sigma_profile": { 
			"-0.025": 0.0,
			"-0.024": 0.0,
			"-0.023": 0.0,
			"-0.022": 0.0,
			"-0.021": 0.0,
			"-0.02": 0.0,
			"-0.019": 0.0,
			"-0.018": 0.0,
			"-0.017": 0.0,
			"-0.016": 0.0,
			"-0.015": 0.0,
			"-0.014": 0.0,
			"-0.013": 0.0,
			"-0.012": 0.0,
			"-0.011": 0.0,
			"-0.01": 0.563355926447,
			"-0.009": 5.23434386938,
			"-0.008": 9.53051142132,
			"-0.007": 11.8206322002,
			"-0.006": 21.4175687102,
			"-0.005": 28.1160919036,
			"-0.004": 29.1432391917,
			"-0.003": 22.5023379607,
			"-0.002": 26.9619673222,
			"-0.001": 22.1894945295,
			"0.0": 24.6623283534,
			"0.001": 30.438514479,
			"0.002": 31.2966736573,
			"0.003": 33.6884772862,
			"0.004": 44.6066036328,
			"0.005": 40.6926121402,
			"0.006": 20.61025265,
			"0.007": 5.59989913092,
			"0.008": 0.798938664994,
			"0.009": 0.0,
			"0.01": 0.0,
			"0.011": 0.0,
			"0.012": 0.0,
			"0.013": 0.0,
			"0.014": 0.0,
			"0.015": 0.0,
			"0.016": 0.0,
			"0.017": 0.0,
			"0.018": 0.0,
			"0.019": 0.0,
			"0.02": 0.0,
			"0.021": 0.0,
			"0.022": 0.0,
			"0.023": 0.0,
			"0.024": 0.0,
			"0.025": 0.0
		}
	}
}
