{
	 "smiles": "NC1=CC=C(C=C1)N1C=NC2=C1C=CC=C2", 
	 "Tm": 378.15, 
	 "num_atms": 27, 
	 "gaussian": { 
		 "optdone": 1, 
		 "sigma_profile": "yes", 
		 "theory": "DFT", 
		 "functional": "B3LYP", 
		 "basiset": "6-31G**", 
		 "properties": { 
			 "R2extent": 4281.3073, 
			 "electric_dipole_moment_norm": 5.79273185121, 
			 "electric_quadrupole_moment_norm": 15.9158735974, 
			 "total_energy": -666.278854984, 
			 "HOMO_LUMO_gap": 0.18832, 
			 "cosmo_polarized_energy": -14.85, 
			 "cosmo_cavitation_energy": 31.11, 
			 "cosmo_dispersion_energy": -22.76, 
			 "cosmo_repulsion_energy": 1.74, 
			 "cosmo_total_nonelectrostatic_energy": 10.09, 
			 "SMD_solvation_energy": 3.46 
		},
		"coords": [
			{
				"x": 1.5173697698,
				"y": -1.9840004857,
				"z": 4.5724766297,
				"element": "N" 
			},
			{
				"x": 0.9714152346,
				"y": -1.2863917531,
				"z": 3.4977143577,
				"element": "C" 
			},
			{
				"x": 1.0196901147,
				"y": -1.8165925313,
				"z": 2.195434666,
				"element": "C" 
			},
			{
				"x": 0.4172589567,
				"y": -1.1529848788,
				"z": 1.1325088569,
				"element": "C" 
			},
			{
				"x": -0.2318189898,
				"y": 0.0701424485,
				"z": 1.3370871967,
				"element": "C" 
			},
			{
				"x": -0.2750789459,
				"y": 0.6113216292,
				"z": 2.6264540775,
				"element": "C" 
			},
			{
				"x": 0.3081370517,
				"y": -0.0622035347,
				"z": 3.6945686689,
				"element": "C" 
			},
			{
				"x": -0.8562020852,
				"y": 0.7499727279,
				"z": 0.2540981426,
				"element": "N" 
			},
			{
				"x": -2.1568371058,
				"y": 1.2234740308,
				"z": 0.2271623614,
				"element": "C" 
			},
			{
				"x": -2.4930792327,
				"y": 1.8142105053,
				"z": -0.8890231933,
				"element": "N" 
			},
			{
				"x": -1.3525565545,
				"y": 1.7417558078,
				"z": -1.6784629637,
				"element": "C" 
			},
			{
				"x": -0.3109464023,
				"y": 1.0778910668,
				"z": -0.9852719059,
				"element": "C" 
			},
			{
				"x": 0.957395433,
				"y": 0.8905846008,
				"z": -1.5410797913,
				"element": "C" 
			},
			{
				"x": 1.1547652937,
				"y": 1.3762760461,
				"z": -2.8311363376,
				"element": "C" 
			},
			{
				"x": 0.1255261606,
				"y": 2.029008554,
				"z": -3.5401153619,
				"element": "C" 
			},
			{
				"x": -1.1311006945,
				"y": 2.2212913442,
				"z": -2.9760250069,
				"element": "C" 
			},
			{
				"x": 1.7469579789,
				"y": -1.4273183455,
				"z": 5.3837173439,
				"element": "H" 
			},
			{
				"x": 2.2481331507,
				"y": -2.6420075968,
				"z": 4.3408654682,
				"element": "H" 
			},
			{
				"x": 1.5179739237,
				"y": -2.7669133123,
				"z": 2.0220994305,
				"element": "H" 
			},
			{
				"x": 0.4401584698,
				"y": -1.5876718566,
				"z": 0.1384253874,
				"element": "H" 
			},
			{
				"x": -0.7560194982,
				"y": 1.5711009282,
				"z": 2.7884585943,
				"element": "H" 
			},
			{
				"x": 0.2605757176,
				"y": 0.3680139623,
				"z": 4.6915775718,
				"element": "H" 
			},
			{
				"x": -2.8080002255,
				"y": 1.0746623762,
				"z": 1.0792867099,
				"element": "H" 
			},
			{
				"x": 1.7535832972,
				"y": 0.3962843308,
				"z": -0.9943459732,
				"element": "H" 
			},
			{
				"x": 2.1259897309,
				"y": 1.2508507656,
				"z": -3.3009814167,
				"element": "H" 
			},
			{
				"x": 0.3234794653,
				"y": 2.390338979,
				"z": -4.5450148338,
				"element": "H" 
			},
			{
				"x": -1.9266700144,
				"y": 2.7296041913,
				"z": -3.5112786788,
				"element": "H" 
			}
		],
		 "valence_orbital": [ 
			{
				"type": "occ",
				"energy": -0.264,
				"method": "rhf"
			},
			{
				"type": "occ",
				"energy": -0.26327,
				"method": "rhf"
			},
			{
				"type": "occ",
				"energy": -0.22949,
				"method": "rhf"
			},
			{
				"type": "occ",
				"energy": -0.21894,
				"method": "rhf"
			},
			{
				"type": "occ",
				"energy": -0.20293,
				"method": "rhf"
			},
			{
				"type": "unocc",
				"energy": -0.01461,
				"method": "rhf"
			},
			{
				"type": "unocc",
				"energy": -0.01089,
				"method": "rhf"
			},
			{
				"type": "unocc",
				"energy": -0.00126,
				"method": "rhf"
			},
			{
				"type": "unocc",
				"energy": 0.03225,
				"method": "rhf"
			},
			{
				"type": "unocc",
				"energy": 0.06108,
				"method": "rhf"
			}
		],
		"cosmo_sigma_profile": { 
			"-0.025": 0.0,
			"-0.024": 0.0,
			"-0.023": 0.0,
			"-0.022": 0.0,
			"-0.021": 0.0,
			"-0.02": 0.0,
			"-0.019": 0.0,
			"-0.018": 0.0,
			"-0.017": 0.0,
			"-0.016": 0.0,
			"-0.015": 0.0,
			"-0.014": 0.0,
			"-0.013": 0.695309915343,
			"-0.012": 3.17286215165,
			"-0.011": 2.67407583573,
			"-0.01": 3.13221195005,
			"-0.009": 4.55550555972,
			"-0.008": 4.64229104202,
			"-0.007": 5.97439892897,
			"-0.006": 13.7223751008,
			"-0.005": 18.1182393187,
			"-0.004": 18.4102442434,
			"-0.003": 16.6252160111,
			"-0.002": 13.776868731,
			"-0.001": 13.1699773982,
			"0.0": 14.9665798604,
			"0.001": 14.5938103515,
			"0.002": 14.8208995456,
			"0.003": 14.0240303745,
			"0.004": 19.2289289229,
			"0.005": 22.2275377174,
			"0.006": 10.734358374,
			"0.007": 2.80311985288,
			"0.008": 2.77486513077,
			"0.009": 2.65587728787,
			"0.01": 2.23683539435,
			"0.011": 1.28906005984,
			"0.012": 1.35730859358,
			"0.013": 2.13709145631,
			"0.014": 1.33982435115,
			"0.015": 1.14960718003,
			"0.016": 1.16158457635,
			"0.017": 0.839468174848,
			"0.018": 0.363431577885,
			"0.019": 0.0,
			"0.02": 0.0,
			"0.021": 0.0,
			"0.022": 0.0,
			"0.023": 0.0,
			"0.024": 0.0,
			"0.025": 0.0
		}
	}
}
