{
	 "smiles": "CC(=C)CCC(C)=C", 
	 "Tm": 197.85, 
	 "num_atms": 22, 
	 "gaussian": { 
		 "optdone": 1, 
		 "sigma_profile": "yes", 
		 "theory": "DFT", 
		 "functional": "B3LYP", 
		 "basiset": "6-31G**", 
		 "properties": { 
			 "R2extent": 1323.1204, 
			 "electric_dipole_moment_norm": 0.508603342498, 
			 "electric_quadrupole_moment_norm": 2.71075449829, 
			 "total_energy": -313.262247895, 
			 "HOMO_LUMO_gap": 0.25937, 
			 "cosmo_polarized_energy": -2.88, 
			 "cosmo_cavitation_energy": 24.16, 
			 "cosmo_dispersion_energy": -16.38, 
			 "cosmo_repulsion_energy": 1.35, 
			 "cosmo_total_nonelectrostatic_energy": 9.13, 
			 "SMD_solvation_energy": 5.32 
		},
		"coords": [
			{
				"x": 1.4221249254,
				"y": -0.9177802436,
				"z": 0.1860423929,
				"element": "C" 
			},
			{
				"x": 0.4802891278,
				"y": -0.5387611591,
				"z": -0.930626289,
				"element": "C" 
			},
			{
				"x": 0.8200772673,
				"y": 0.3575681153,
				"z": -1.8633194297,
				"element": "C" 
			},
			{
				"x": -0.861487354,
				"y": -1.2407789994,
				"z": -0.9629074688,
				"element": "C" 
			},
			{
				"x": -1.7187249836,
				"y": -1.0832942658,
				"z": 0.3186509129,
				"element": "C" 
			},
			{
				"x": -2.0398531271,
				"y": 0.3450015374,
				"z": 0.7072628489,
				"element": "C" 
			},
			{
				"x": -2.7602591899,
				"y": 1.1856139554,
				"z": -0.3183777547,
				"element": "C" 
			},
			{
				"x": -1.7189099142,
				"y": 0.8278540218,
				"z": 1.9125012663,
				"element": "C" 
			},
			{
				"x": 1.0215539026,
				"y": -0.6173443174,
				"z": 1.1612790623,
				"element": "H" 
			},
			{
				"x": 1.5727328481,
				"y": -2.0046363828,
				"z": 0.2249240664,
				"element": "H" 
			},
			{
				"x": 2.3989270621,
				"y": -0.4422259451,
				"z": 0.0643667899,
				"element": "H" 
			},
			{
				"x": 1.7884694548,
				"y": 0.8506502117,
				"z": -1.8562563201,
				"element": "H" 
			},
			{
				"x": 0.1434970314,
				"y": 0.6267799426,
				"z": -2.6702741363,
				"element": "H" 
			},
			{
				"x": -0.6966800333,
				"y": -2.317925573,
				"z": -1.1133151456,
				"element": "H" 
			},
			{
				"x": -1.4300278005,
				"y": -0.8935520396,
				"z": -1.8324230185,
				"element": "H" 
			},
			{
				"x": -1.2235411889,
				"y": -1.5834774628,
				"z": 1.1579720084,
				"element": "H" 
			},
			{
				"x": -2.6599424374,
				"y": -1.6267014895,
				"z": 0.1487685359,
				"element": "H" 
			},
			{
				"x": -3.0423288127,
				"y": 2.1599038355,
				"z": 0.0893985917,
				"element": "H" 
			},
			{
				"x": -3.6715676728,
				"y": 0.6849156276,
				"z": -0.6709008143,
				"element": "H" 
			},
			{
				"x": -2.1319525052,
				"y": 1.3594953603,
				"z": -1.1997335193,
				"element": "H" 
			},
			{
				"x": -1.204322072,
				"y": 0.2205155504,
				"z": 2.652594461,
				"element": "H" 
			},
			{
				"x": -1.9633745279,
				"y": 1.8457797204,
				"z": 2.2040729599,
				"element": "H" 
			}
		],
		 "valence_orbital": [ 
			{
				"type": "occ",
				"energy": -0.34801,
				"method": "rhf"
			},
			{
				"type": "occ",
				"energy": -0.32388,
				"method": "rhf"
			},
			{
				"type": "occ",
				"energy": -0.32032,
				"method": "rhf"
			},
			{
				"type": "occ",
				"energy": -0.2444,
				"method": "rhf"
			},
			{
				"type": "occ",
				"energy": -0.23587,
				"method": "rhf"
			},
			{
				"type": "unocc",
				"energy": 0.0235,
				"method": "rhf"
			},
			{
				"type": "unocc",
				"energy": 0.03272,
				"method": "rhf"
			},
			{
				"type": "unocc",
				"energy": 0.08168,
				"method": "rhf"
			},
			{
				"type": "unocc",
				"energy": 0.11345,
				"method": "rhf"
			},
			{
				"type": "unocc",
				"energy": 0.12459,
				"method": "rhf"
			}
		],
		"cosmo_sigma_profile": { 
			"-0.025": 0.0,
			"-0.024": 0.0,
			"-0.023": 0.0,
			"-0.022": 0.0,
			"-0.021": 0.0,
			"-0.02": 0.0,
			"-0.019": 0.0,
			"-0.018": 0.0,
			"-0.017": 0.0,
			"-0.016": 0.0,
			"-0.015": 0.0,
			"-0.014": 0.0,
			"-0.013": 0.0,
			"-0.012": 0.0,
			"-0.011": 0.0,
			"-0.01": 0.0,
			"-0.009": 0.0,
			"-0.008": 0.0,
			"-0.007": 0.0,
			"-0.006": 0.0,
			"-0.005": 0.0749003608981,
			"-0.004": 8.09557392118,
			"-0.003": 31.3593350178,
			"-0.002": 29.8393357064,
			"-0.001": 27.9418553557,
			"0.0": 25.2868505017,
			"0.001": 20.755019102,
			"0.002": 10.0387882823,
			"0.003": 7.70711618517,
			"0.004": 7.67171686609,
			"0.005": 6.26305215803,
			"0.006": 5.69317013639,
			"0.007": 5.16300327956,
			"0.008": 2.15903098226,
			"0.009": 0.00564622270704,
			"0.01": 0.0,
			"0.011": 0.0,
			"0.012": 0.0,
			"0.013": 0.0,
			"0.014": 0.0,
			"0.015": 0.0,
			"0.016": 0.0,
			"0.017": 0.0,
			"0.018": 0.0,
			"0.019": 0.0,
			"0.02": 0.0,
			"0.021": 0.0,
			"0.022": 0.0,
			"0.023": 0.0,
			"0.024": 0.0,
			"0.025": 0.0
		}
	}
}
