{
	 "smiles": "CC(C)C(CC=C)C(=O)NC(N)=O", 
	 "Tm": 467.15, 
	 "num_atms": 29, 
	 "gaussian": { 
		 "optdone": 1, 
		 "sigma_profile": "yes", 
		 "theory": "DFT", 
		 "functional": "B3LYP", 
		 "basiset": "6-31G**", 
		 "properties": { 
			 "R2extent": 2665.0821, 
			 "electric_dipole_moment_norm": 3.32480516422, 
			 "electric_quadrupole_moment_norm": 19.2577214553, 
			 "total_energy": -612.557186924, 
			 "HOMO_LUMO_gap": 0.23315, 
			 "cosmo_polarized_energy": -15.12, 
			 "cosmo_cavitation_energy": 30.08, 
			 "cosmo_dispersion_energy": -20.81, 
			 "cosmo_repulsion_energy": 1.66, 
			 "cosmo_total_nonelectrostatic_energy": 10.94, 
			 "SMD_solvation_energy": 6.65 
		},
		"coords": [
			{
				"x": -1.1666852443,
				"y": 2.69532402,
				"z": -0.6499083754,
				"element": "C" 
			},
			{
				"x": -1.3404731768,
				"y": 1.4458822366,
				"z": 0.227788194,
				"element": "C" 
			},
			{
				"x": -1.95074799,
				"y": 0.2877106764,
				"z": -0.5769602106,
				"element": "C" 
			},
			{
				"x": -0.0454102978,
				"y": 1.150393955,
				"z": 1.0806049734,
				"element": "C" 
			},
			{
				"x": 0.1345509609,
				"y": -0.3028334312,
				"z": 1.617272776,
				"element": "C" 
			},
			{
				"x": 0.6077221623,
				"y": -1.3925766791,
				"z": 0.6917859604,
				"element": "C" 
			},
			{
				"x": 1.7027685964,
				"y": -2.1248856753,
				"z": 0.9079375159,
				"element": "C" 
			},
			{
				"x": 1.2834915195,
				"y": 1.7960307987,
				"z": 0.6484407533,
				"element": "C" 
			},
			{
				"x": 1.7144455333,
				"y": 2.7524555898,
				"z": 1.277154152,
				"element": "O" 
			},
			{
				"x": 2.1388976961,
				"y": 1.2812371243,
				"z": -0.3378933682,
				"element": "N" 
			},
			{
				"x": 1.9089059028,
				"y": 0.483043291,
				"z": -1.4634248278,
				"element": "C" 
			},
			{
				"x": 3.0875795175,
				"y": 0.0582214376,
				"z": -2.044246572,
				"element": "N" 
			},
			{
				"x": 0.8114518946,
				"y": 0.2429991497,
				"z": -1.9353714873,
				"element": "O" 
			},
			{
				"x": -0.4878827381,
				"y": 2.4885956848,
				"z": -1.4829844902,
				"element": "H" 
			},
			{
				"x": -2.1298021111,
				"y": 3.0006309686,
				"z": -1.0724274281,
				"element": "H" 
			},
			{
				"x": -0.7685499342,
				"y": 3.5397964643,
				"z": -0.077694836,
				"element": "H" 
			},
			{
				"x": -2.0890056354,
				"y": 1.696469037,
				"z": 0.9925238943,
				"element": "H" 
			},
			{
				"x": -1.3086185946,
				"y": -0.0181205071,
				"z": -1.4014908493,
				"element": "H" 
			},
			{
				"x": -2.9104566315,
				"y": 0.615763562,
				"z": -0.9930033017,
				"element": "H" 
			},
			{
				"x": -2.1610350851,
				"y": -0.582130329,
				"z": 0.0540295179,
				"element": "H" 
			},
			{
				"x": -0.2046393328,
				"y": 1.7394535965,
				"z": 1.9882164974,
				"element": "H" 
			},
			{
				"x": 0.8208421247,
				"y": -0.2551927649,
				"z": 2.4717613547,
				"element": "H" 
			},
			{
				"x": -0.8414879871,
				"y": -0.5924475236,
				"z": 2.0321933939,
				"element": "H" 
			},
			{
				"x": -0.0005912482,
				"y": -1.5991917429,
				"z": -0.1835893213,
				"element": "H" 
			},
			{
				"x": 2.3443827017,
				"y": -1.9548690728,
				"z": 1.7703450251,
				"element": "H" 
			},
			{
				"x": 1.9898652532,
				"y": -2.9321270857,
				"z": 0.2398325489,
				"element": "H" 
			},
			{
				"x": 3.026013906,
				"y": 1.771752282,
				"z": -0.3123574112,
				"element": "H" 
			},
			{
				"x": 3.8729566359,
				"y": -0.1430529563,
				"z": -1.4414177757,
				"element": "H" 
			},
			{
				"x": 2.9475116018,
				"y": -0.5951321065,
				"z": -2.8016163024,
				"element": "H" 
			}
		],
		 "valence_orbital": [ 
			{
				"type": "occ",
				"energy": -0.29457,
				"method": "rhf"
			},
			{
				"type": "occ",
				"energy": -0.28572,
				"method": "rhf"
			},
			{
				"type": "occ",
				"energy": -0.27301,
				"method": "rhf"
			},
			{
				"type": "occ",
				"energy": -0.26057,
				"method": "rhf"
			},
			{
				"type": "occ",
				"energy": -0.24811,
				"method": "rhf"
			},
			{
				"type": "unocc",
				"energy": -0.01496,
				"method": "rhf"
			},
			{
				"type": "unocc",
				"energy": 0.01781,
				"method": "rhf"
			},
			{
				"type": "unocc",
				"energy": 0.04495,
				"method": "rhf"
			},
			{
				"type": "unocc",
				"energy": 0.06535,
				"method": "rhf"
			},
			{
				"type": "unocc",
				"energy": 0.08844,
				"method": "rhf"
			}
		],
		"cosmo_sigma_profile": { 
			"-0.025": 0.0,
			"-0.024": 0.0,
			"-0.023": 0.0,
			"-0.022": 0.0,
			"-0.021": 0.0,
			"-0.02": 0.0,
			"-0.019": 0.0,
			"-0.018": 0.0,
			"-0.017": 0.0,
			"-0.016": 0.0,
			"-0.015": 1.43766510852,
			"-0.014": 3.68718375568,
			"-0.013": 3.08026929632,
			"-0.012": 3.00271702297,
			"-0.011": 3.12885244106,
			"-0.01": 2.94816291339,
			"-0.009": 2.23420307942,
			"-0.008": 2.24288441566,
			"-0.007": 1.44217101147,
			"-0.006": 1.50883110332,
			"-0.005": 4.04918020857,
			"-0.004": 13.4627015038,
			"-0.003": 21.1474103131,
			"-0.002": 24.9056359658,
			"-0.001": 24.0332692822,
			"0.0": 21.7463860418,
			"0.001": 23.4940824042,
			"0.002": 18.2001143182,
			"0.003": 9.75988271926,
			"0.004": 7.42360051302,
			"0.005": 6.8728012301,
			"0.006": 4.8274882071,
			"0.007": 4.27716140249,
			"0.008": 3.35067694644,
			"0.009": 3.93581087406,
			"0.01": 2.7885105454,
			"0.011": 3.26619159463,
			"0.012": 5.31391028111,
			"0.013": 5.35110549781,
			"0.014": 0.762298543126,
			"0.015": 0.0,
			"0.016": 0.0,
			"0.017": 0.0,
			"0.018": 0.0,
			"0.019": 0.0,
			"0.02": 0.0,
			"0.021": 0.0,
			"0.022": 0.0,
			"0.023": 0.0,
			"0.024": 0.0,
			"0.025": 0.0
		}
	}
}
