{
	 "smiles": "COC1=CC(=CC=C1)C1=NC(C=O)=CS1", 
	 "Tm": 366.15, 
	 "num_atms": 24, 
	 "gaussian": { 
		 "optdone": 1, 
		 "sigma_profile": "yes", 
		 "theory": "DFT", 
		 "functional": "B3LYP", 
		 "basiset": "6-31G**", 
		 "properties": { 
			 "R2extent": 5119.2046, 
			 "electric_dipole_moment_norm": 2.80092265691, 
			 "electric_quadrupole_moment_norm": 17.7949112431, 
			 "total_energy": -1027.95224403, 
			 "HOMO_LUMO_gap": 0.15742, 
			 "cosmo_polarized_energy": -13.91, 
			 "cosmo_cavitation_energy": 30.82, 
			 "cosmo_dispersion_energy": -22.82, 
			 "cosmo_repulsion_energy": 1.74, 
			 "cosmo_total_nonelectrostatic_energy": 9.73, 
			 "SMD_solvation_energy": 5.88 
		},
		"coords": [
			{
				"x": 3.2128470681,
				"y": -0.9571032367,
				"z": -0.6387594423,
				"element": "C" 
			},
			{
				"x": 2.5288210936,
				"y": -0.7726975177,
				"z": -1.8714559768,
				"element": "O" 
			},
			{
				"x": 1.40722644,
				"y": -0.0009624601,
				"z": -1.8763238018,
				"element": "C" 
			},
			{
				"x": 0.8773339276,
				"y": 0.6267070091,
				"z": -0.7485610799,
				"element": "C" 
			},
			{
				"x": -0.2902714507,
				"y": 1.4042415874,
				"z": -0.8645155797,
				"element": "C" 
			},
			{
				"x": -0.917553674,
				"y": 1.5469338145,
				"z": -2.10794936,
				"element": "C" 
			},
			{
				"x": -0.3771446713,
				"y": 0.9135489515,
				"z": -3.2290992353,
				"element": "C" 
			},
			{
				"x": 0.7750022387,
				"y": 0.144365799,
				"z": -3.1232037996,
				"element": "C" 
			},
			{
				"x": -0.8095636924,
				"y": 2.0452941878,
				"z": 0.3514683357,
				"element": "C" 
			},
			{
				"x": -0.262550407,
				"y": 1.9422181257,
				"z": 1.5281924823,
				"element": "N" 
			},
			{
				"x": -0.959560047,
				"y": 2.6450658231,
				"z": 2.4827761261,
				"element": "C" 
			},
			{
				"x": -0.5281184912,
				"y": 2.6765598295,
				"z": 3.8951225555,
				"element": "C" 
			},
			{
				"x": 0.4475832442,
				"y": 2.1070095737,
				"z": 4.3376842953,
				"element": "O" 
			},
			{
				"x": -2.0756411617,
				"y": 3.3093063559,
				"z": 2.0310728471,
				"element": "C" 
			},
			{
				"x": -2.2796414274,
				"y": 3.0564816307,
				"z": 0.3410451277,
				"element": "S" 
			},
			{
				"x": 4.0667768822,
				"y": -1.5976499895,
				"z": -0.8632710511,
				"element": "H" 
			},
			{
				"x": 3.571503458,
				"y": -0.0044395374,
				"z": -0.2298907283,
				"element": "H" 
			},
			{
				"x": 2.5759276578,
				"y": -1.4495348255,
				"z": 0.1063716528,
				"element": "H" 
			},
			{
				"x": 1.3354997675,
				"y": 0.5383105,
				"z": 0.227678036,
				"element": "H" 
			},
			{
				"x": -1.8186832651,
				"y": 2.1440363516,
				"z": -2.210180989,
				"element": "H" 
			},
			{
				"x": -0.8616254686,
				"y": 1.0225401357,
				"z": -4.1947136959,
				"element": "H" 
			},
			{
				"x": 1.2068635762,
				"y": -0.353812657,
				"z": -3.9848183125,
				"element": "H" 
			},
			{
				"x": -1.1914402679,
				"y": 3.2860086772,
				"z": 4.5486400539,
				"element": "H" 
			},
			{
				"x": -2.7652913296,
				"y": 3.9173718716,
				"z": 2.6004915398,
				"element": "H" 
			}
		],
		 "valence_orbital": [ 
			{
				"type": "occ",
				"energy": -0.28613,
				"method": "rhf"
			},
			{
				"type": "occ",
				"energy": -0.28195,
				"method": "rhf"
			},
			{
				"type": "occ",
				"energy": -0.25537,
				"method": "rhf"
			},
			{
				"type": "occ",
				"energy": -0.24246,
				"method": "rhf"
			},
			{
				"type": "occ",
				"energy": -0.22477,
				"method": "rhf"
			},
			{
				"type": "unocc",
				"energy": -0.06735,
				"method": "rhf"
			},
			{
				"type": "unocc",
				"energy": -0.05103,
				"method": "rhf"
			},
			{
				"type": "unocc",
				"energy": 0.00083,
				"method": "rhf"
			},
			{
				"type": "unocc",
				"energy": 0.00561,
				"method": "rhf"
			},
			{
				"type": "unocc",
				"energy": 0.03519,
				"method": "rhf"
			}
		],
		"cosmo_sigma_profile": { 
			"-0.025": 0.0,
			"-0.024": 0.0,
			"-0.023": 0.0,
			"-0.022": 0.0,
			"-0.021": 0.0,
			"-0.02": 0.0,
			"-0.019": 0.0,
			"-0.018": 0.0,
			"-0.017": 0.0,
			"-0.016": 0.0,
			"-0.015": 0.0,
			"-0.014": 0.0,
			"-0.013": 0.0,
			"-0.012": 0.0,
			"-0.011": 0.911183251176,
			"-0.01": 3.21998632725,
			"-0.009": 3.30307865442,
			"-0.008": 2.57676425478,
			"-0.007": 7.09948711278,
			"-0.006": 15.467661787,
			"-0.005": 20.1820353238,
			"-0.004": 18.8740170982,
			"-0.003": 18.526450858,
			"-0.002": 15.9324323005,
			"-0.001": 19.4511669849,
			"0.0": 21.0088810102,
			"0.001": 16.2784761678,
			"0.002": 14.9260730782,
			"0.003": 17.2117194741,
			"0.004": 14.7232767697,
			"0.005": 6.7712428235,
			"0.006": 4.10156314928,
			"0.007": 2.53023714411,
			"0.008": 4.7289662943,
			"0.009": 3.87706600888,
			"0.01": 5.64890478577,
			"0.011": 4.69715965257,
			"0.012": 4.28655232282,
			"0.013": 1.83648327811,
			"0.014": 1.65109395579,
			"0.015": 0.205336389126,
			"0.016": 0.0,
			"0.017": 0.0,
			"0.018": 0.0,
			"0.019": 0.0,
			"0.02": 0.0,
			"0.021": 0.0,
			"0.022": 0.0,
			"0.023": 0.0,
			"0.024": 0.0,
			"0.025": 0.0
		}
	}
}
