{
	 "smiles": "OC(=O)CCNC(=O)C1=CC2=C(C=NN2)C=C1", 
	 "Tm": 508.15, 
	 "num_atms": 28, 
	 "gaussian": { 
		 "optdone": 1, 
		 "sigma_profile": "yes", 
		 "theory": "DFT", 
		 "functional": "B3LYP", 
		 "basiset": "6-31G**", 
		 "properties": { 
			 "R2extent": 5492.0698, 
			 "electric_dipole_moment_norm": 5.19250820799, 
			 "electric_quadrupole_moment_norm": 22.3844740068, 
			 "total_energy": -815.741610093, 
			 "HOMO_LUMO_gap": 0.17603, 
			 "cosmo_polarized_energy": -23.97, 
			 "cosmo_cavitation_energy": 32.34, 
			 "cosmo_dispersion_energy": -23.7, 
			 "cosmo_repulsion_energy": 1.83, 
			 "cosmo_total_nonelectrostatic_energy": 10.47, 
			 "SMD_solvation_energy": 5.33 
		},
		"coords": [
			{
				"x": 1.6681703334,
				"y": -1.0440618998,
				"z": 2.5625845034,
				"element": "O" 
			},
			{
				"x": 2.6352658765,
				"y": -0.121479794,
				"z": 2.7253553086,
				"element": "C" 
			},
			{
				"x": 2.5736411129,
				"y": 0.7111761746,
				"z": 3.6004445335,
				"element": "O" 
			},
			{
				"x": 3.7941053484,
				"y": -0.191161013,
				"z": 1.7299050099,
				"element": "C" 
			},
			{
				"x": 3.6023981099,
				"y": 0.7482775998,
				"z": 0.526446668,
				"element": "C" 
			},
			{
				"x": 2.3214795753,
				"y": 0.6366112689,
				"z": -0.1815505429,
				"element": "N" 
			},
			{
				"x": 1.6834706809,
				"y": -0.5191937293,
				"z": -0.508469782,
				"element": "C" 
			},
			{
				"x": 2.0777222114,
				"y": -1.631628998,
				"z": -0.1277039984,
				"element": "O" 
			},
			{
				"x": 0.4512443193,
				"y": -0.382420225,
				"z": -1.3533078649,
				"element": "C" 
			},
			{
				"x": -0.3566513538,
				"y": 0.7527312184,
				"z": -1.3068167745,
				"element": "C" 
			},
			{
				"x": -1.4937321533,
				"y": 0.7628660935,
				"z": -2.1257564688,
				"element": "C" 
			},
			{
				"x": -1.8254149015,
				"y": -0.3230690127,
				"z": -2.9771798609,
				"element": "C" 
			},
			{
				"x": -3.0337892252,
				"y": 0.0893938212,
				"z": -3.618116651,
				"element": "C" 
			},
			{
				"x": -3.413837272,
				"y": 1.2884466974,
				"z": -3.212687549,
				"element": "N" 
			},
			{
				"x": -2.4815118116,
				"y": 1.6908349082,
				"z": -2.3108328123,
				"element": "N" 
			},
			{
				"x": -0.9999528719,
				"y": -1.4631329171,
				"z": -2.9954090918,
				"element": "C" 
			},
			{
				"x": 0.117076691,
				"y": -1.4863864039,
				"z": -2.1811802293,
				"element": "C" 
			},
			{
				"x": 1.8254298076,
				"y": -1.545437051,
				"z": 1.735601827,
				"element": "H" 
			},
			{
				"x": 3.9522135788,
				"y": -1.2123153135,
				"z": 1.3823281928,
				"element": "H" 
			},
			{
				"x": 4.6902358617,
				"y": 0.1459263849,
				"z": 2.2575692455,
				"element": "H" 
			},
			{
				"x": 4.4304826963,
				"y": 0.5847659498,
				"z": -0.1758526949,
				"element": "H" 
			},
			{
				"x": 3.6641031911,
				"y": 1.7823714678,
				"z": 0.8772201,
				"element": "H" 
			},
			{
				"x": 2.0079022503,
				"y": 1.4736833621,
				"z": -0.6495409121,
				"element": "H" 
			},
			{
				"x": -0.147697109,
				"y": 1.5750305579,
				"z": -0.6291128997,
				"element": "H" 
			},
			{
				"x": -3.6271311613,
				"y": -0.4443035148,
				"z": -4.3481767248,
				"element": "H" 
			},
			{
				"x": -2.5927095385,
				"y": 2.5871924866,
				"z": -1.8646827961,
				"element": "H" 
			},
			{
				"x": -1.23874021,
				"y": -2.3113789398,
				"z": -3.6297127795,
				"element": "H" 
			},
			{
				"x": 0.7673259634,
				"y": -2.3530391792,
				"z": -2.1507649556,
				"element": "H" 
			}
		],
		 "valence_orbital": [ 
			{
				"type": "occ",
				"energy": -0.28787,
				"method": "rhf"
			},
			{
				"type": "occ",
				"energy": -0.27503,
				"method": "rhf"
			},
			{
				"type": "occ",
				"energy": -0.25694,
				"method": "rhf"
			},
			{
				"type": "occ",
				"energy": -0.2533,
				"method": "rhf"
			},
			{
				"type": "occ",
				"energy": -0.23917,
				"method": "rhf"
			},
			{
				"type": "unocc",
				"energy": -0.06314,
				"method": "rhf"
			},
			{
				"type": "unocc",
				"energy": -0.01531,
				"method": "rhf"
			},
			{
				"type": "unocc",
				"energy": 0.01865,
				"method": "rhf"
			},
			{
				"type": "unocc",
				"energy": 0.02143,
				"method": "rhf"
			},
			{
				"type": "unocc",
				"energy": 0.054,
				"method": "rhf"
			}
		],
		"cosmo_sigma_profile": { 
			"-0.025": 0.0,
			"-0.024": 0.0,
			"-0.023": 0.0,
			"-0.022": 0.0,
			"-0.021": 0.0,
			"-0.02": 0.0,
			"-0.019": 0.0,
			"-0.018": 0.0,
			"-0.017": 0.48438349901,
			"-0.016": 1.90255577889,
			"-0.015": 2.32514806828,
			"-0.014": 2.28780436421,
			"-0.013": 2.66473757847,
			"-0.012": 2.06481966836,
			"-0.011": 2.88170784262,
			"-0.01": 3.05698499055,
			"-0.009": 3.69935846743,
			"-0.008": 5.46033586908,
			"-0.007": 8.70357667477,
			"-0.006": 14.9944653522,
			"-0.005": 20.0347006942,
			"-0.004": 17.3971327988,
			"-0.003": 14.2272867362,
			"-0.002": 12.5401340566,
			"-0.001": 13.3359384896,
			"0.0": 11.3846094449,
			"0.001": 12.2123006737,
			"0.002": 19.0474443745,
			"0.003": 17.5619706029,
			"0.004": 11.9811341662,
			"0.005": 6.00743418145,
			"0.006": 5.31434419886,
			"0.007": 4.392712298,
			"0.008": 4.56451665884,
			"0.009": 6.24484329049,
			"0.01": 6.43307724643,
			"0.011": 7.2409030567,
			"0.012": 9.02107193424,
			"0.013": 5.94151467198,
			"0.014": 1.93382244412,
			"0.015": 0.58093969178,
			"0.016": 0.0473749676268,
			"0.017": 0.0,
			"0.018": 0.0,
			"0.019": 0.0,
			"0.02": 0.0,
			"0.021": 0.0,
			"0.022": 0.0,
			"0.023": 0.0,
			"0.024": 0.0,
			"0.025": 0.0
		}
	}
}
