{
	 "smiles": "SC1=NC2=C(O1)C=CC(=C2)S(=O)(=O)NC1=CC(Cl)=CC=C1", 
	 "Tm": 447.15, 
	 "num_atms": 30, 
	 "gaussian": { 
		 "optdone": 1, 
		 "sigma_profile": "yes", 
		 "theory": "DFT", 
		 "functional": "B3LYP", 
		 "basiset": "6-31G**", 
		 "properties": { 
			 "R2extent": 10017.373, 
			 "electric_dipole_moment_norm": 6.44081347813, 
			 "electric_quadrupole_moment_norm": 21.808275004, 
			 "total_energy": -2092.46727611, 
			 "HOMO_LUMO_gap": 0.18909, 
			 "cosmo_polarized_energy": -19.66, 
			 "cosmo_cavitation_energy": 40.67, 
			 "cosmo_dispersion_energy": -29.61, 
			 "cosmo_repulsion_energy": 2.18, 
			 "cosmo_total_nonelectrostatic_energy": 13.24, 
			 "SMD_solvation_energy": 3.52 
		},
		"coords": [
			{
				"x": -0.8701959149,
				"y": 1.6314253948,
				"z": 5.4981686286,
				"element": "S" 
			},
			{
				"x": -0.8465546057,
				"y": 0.7384588799,
				"z": 3.9895770494,
				"element": "C" 
			},
			{
				"x": -1.7015857471,
				"y": 0.8552647923,
				"z": 3.0287567553,
				"element": "N" 
			},
			{
				"x": -1.2485349147,
				"y": -0.0520673122,
				"z": 2.0691037904,
				"element": "C" 
			},
			{
				"x": -0.0906295772,
				"y": -0.6851907608,
				"z": 2.5479836448,
				"element": "C" 
			},
			{
				"x": 0.171346367,
				"y": -0.1713045814,
				"z": 3.7967391689,
				"element": "O" 
			},
			{
				"x": 0.612958573,
				"y": -1.6551672779,
				"z": 1.8530245714,
				"element": "C" 
			},
			{
				"x": 0.1068508195,
				"y": -1.9895039748,
				"z": 0.5949572903,
				"element": "C" 
			},
			{
				"x": -1.0479908264,
				"y": -1.3578472268,
				"z": 0.0995207212,
				"element": "C" 
			},
			{
				"x": -1.7546957962,
				"y": -0.3866295963,
				"z": 0.8146527759,
				"element": "C" 
			},
			{
				"x": -1.6342036957,
				"y": -1.7977412211,
				"z": -1.5401303714,
				"element": "S" 
			},
			{
				"x": -1.1371176007,
				"y": -3.1387741117,
				"z": -1.8413954891,
				"element": "O" 
			},
			{
				"x": -3.0481196419,
				"y": -1.4378927638,
				"z": -1.6323679509,
				"element": "O" 
			},
			{
				"x": -0.8811286625,
				"y": -0.7251162051,
				"z": -2.6256642384,
				"element": "N" 
			},
			{
				"x": 0.522970603,
				"y": -0.602579498,
				"z": -2.7839394963,
				"element": "C" 
			},
			{
				"x": 1.3170046848,
				"y": -1.7344712852,
				"z": -3.0198385566,
				"element": "C" 
			},
			{
				"x": 2.6867932544,
				"y": -1.5628773877,
				"z": -3.2014541979,
				"element": "C" 
			},
			{
				"x": 3.6861679242,
				"y": -2.9821709794,
				"z": -3.480171036,
				"element": "Cl" 
			},
			{
				"x": 3.285883504,
				"y": -0.3032087043,
				"z": -3.1896899848,
				"element": "C" 
			},
			{
				"x": 2.4768917571,
				"y": 0.8126838377,
				"z": -2.9755048506,
				"element": "C" 
			},
			{
				"x": 1.1079241508,
				"y": 0.6711636428,
				"z": -2.7589664007,
				"element": "C" 
			},
			{
				"x": 0.2329889198,
				"y": 1.038575447,
				"z": 5.9942021945,
				"element": "H" 
			},
			{
				"x": 1.4963639976,
				"y": -2.1329509763,
				"z": 2.2602054504,
				"element": "H" 
			},
			{
				"x": 0.5880789617,
				"y": -2.7555145221,
				"z": -0.0008629899,
				"element": "H" 
			},
			{
				"x": -2.659946696,
				"y": 0.0615132409,
				"z": 0.4224315288,
				"element": "H" 
			},
			{
				"x": -1.3960258235,
				"y": 0.1491262902,
				"z": -2.6461490553,
				"element": "H" 
			},
			{
				"x": 0.8658968498,
				"y": -2.7170211336,
				"z": -3.0667949575,
				"element": "H" 
			},
			{
				"x": 4.35330781,
				"y": -0.2026781781,
				"z": -3.3474076346,
				"element": "H" 
			},
			{
				"x": 2.9219615211,
				"y": 1.8029472955,
				"z": -2.9635362055,
				"element": "H" 
			},
			{
				"x": 0.490639805,
				"y": 1.5456488755,
				"z": -2.572550154,
				"element": "H" 
			}
		],
		 "valence_orbital": [ 
			{
				"type": "occ",
				"energy": -0.30839,
				"method": "rhf"
			},
			{
				"type": "occ",
				"energy": -0.2781,
				"method": "rhf"
			},
			{
				"type": "occ",
				"energy": -0.25952,
				"method": "rhf"
			},
			{
				"type": "occ",
				"energy": -0.25049,
				"method": "rhf"
			},
			{
				"type": "occ",
				"energy": -0.24192,
				"method": "rhf"
			},
			{
				"type": "unocc",
				"energy": -0.05283,
				"method": "rhf"
			},
			{
				"type": "unocc",
				"energy": -0.04364,
				"method": "rhf"
			},
			{
				"type": "unocc",
				"energy": -0.02408,
				"method": "rhf"
			},
			{
				"type": "unocc",
				"energy": -0.01994,
				"method": "rhf"
			},
			{
				"type": "unocc",
				"energy": -0.01365,
				"method": "rhf"
			}
		],
		"cosmo_sigma_profile": { 
			"-0.025": 0.0,
			"-0.024": 0.0,
			"-0.023": 0.0,
			"-0.022": 0.0,
			"-0.021": 0.0,
			"-0.02": 0.0,
			"-0.019": 0.0,
			"-0.018": 0.0,
			"-0.017": 0.00298998516015,
			"-0.016": 0.547350750958,
			"-0.015": 1.12989501296,
			"-0.014": 1.87528489397,
			"-0.013": 2.31253320276,
			"-0.012": 3.2695046782,
			"-0.011": 3.30962746525,
			"-0.01": 2.40477098708,
			"-0.009": 3.68273020101,
			"-0.008": 7.92869987725,
			"-0.007": 11.6643897064,
			"-0.006": 13.9567945356,
			"-0.005": 13.884297444,
			"-0.004": 14.32047552,
			"-0.003": 16.4519428407,
			"-0.002": 18.9745151686,
			"-0.001": 23.0893777959,
			"0.0": 29.6809441119,
			"0.001": 35.2363948835,
			"0.002": 28.948701799,
			"0.003": 25.9750307695,
			"0.004": 21.4698482382,
			"0.005": 14.6945018358,
			"0.006": 5.31452144638,
			"0.007": 6.04660162383,
			"0.008": 3.50661057919,
			"0.009": 5.68554401818,
			"0.01": 9.17329656146,
			"0.011": 6.10604429608,
			"0.012": 1.18318294734,
			"0.013": 0.718447563573,
			"0.014": 0.619125701383,
			"0.015": 0.0,
			"0.016": 0.0,
			"0.017": 0.0,
			"0.018": 0.0,
			"0.019": 0.0,
			"0.02": 0.0,
			"0.021": 0.0,
			"0.022": 0.0,
			"0.023": 0.0,
			"0.024": 0.0,
			"0.025": 0.0
		}
	}
}
