{
	 "smiles": "CCOC(=O)C1=C(C)N(C(C)=C1C=O)C1=CC=CC=C1", 
	 "Tm": 352.65, 
	 "num_atms": 37, 
	 "gaussian": { 
		 "optdone": 1, 
		 "sigma_profile": "yes", 
		 "theory": "DFT", 
		 "functional": "B3LYP", 
		 "basiset": "6-31G**", 
		 "properties": { 
			 "R2extent": 7773.9661, 
			 "electric_dipole_moment_norm": 7.26875335941, 
			 "electric_quadrupole_moment_norm": 25.6258491988, 
			 "total_energy": -900.391439754, 
			 "HOMO_LUMO_gap": 0.18057, 
			 "cosmo_polarized_energy": -14.14, 
			 "cosmo_cavitation_energy": 40.52, 
			 "cosmo_dispersion_energy": -27.66, 
			 "cosmo_repulsion_energy": 2.14, 
			 "cosmo_total_nonelectrostatic_energy": 15.0, 
			 "SMD_solvation_energy": 9.1 
		},
		"coords": [
			{
				"x": -2.9286842683,
				"y": 2.7213953451,
				"z": -0.0269990174,
				"element": "C" 
			},
			{
				"x": -3.2173876487,
				"y": 1.3896666717,
				"z": 0.6505229015,
				"element": "C" 
			},
			{
				"x": -2.0200302638,
				"y": 0.5905691835,
				"z": 0.7889054311,
				"element": "O" 
			},
			{
				"x": -1.6667333737,
				"y": -0.15731631,
				"z": -0.2928504925,
				"element": "C" 
			},
			{
				"x": -2.3295491093,
				"y": -0.1694803328,
				"z": -1.3171485539,
				"element": "O" 
			},
			{
				"x": -0.4381972458,
				"y": -0.9342154875,
				"z": -0.0758153272,
				"element": "C" 
			},
			{
				"x": 0.4098617027,
				"y": -0.8836445845,
				"z": 1.0226750462,
				"element": "C" 
			},
			{
				"x": 0.3851323626,
				"y": -0.0719897085,
				"z": 2.2799243738,
				"element": "C" 
			},
			{
				"x": 1.4325637841,
				"y": -1.7926056766,
				"z": 0.7871364385,
				"element": "N" 
			},
			{
				"x": 1.2595344022,
				"y": -2.4199081565,
				"z": -0.4346665428,
				"element": "C" 
			},
			{
				"x": 2.2101107967,
				"y": -3.4600180461,
				"z": -0.9310040356,
				"element": "C" 
			},
			{
				"x": 0.1029832369,
				"y": -1.9078322086,
				"z": -1.0049569832,
				"element": "C" 
			},
			{
				"x": -0.4556148504,
				"y": -2.3139124163,
				"z": -2.3026438195,
				"element": "C" 
			},
			{
				"x": 0.048921664,
				"y": -3.147404084,
				"z": -3.0475156574,
				"element": "O" 
			},
			{
				"x": 2.5204652343,
				"y": -2.0583533913,
				"z": 1.6851016184,
				"element": "C" 
			},
			{
				"x": 3.7642972755,
				"y": -1.4595908676,
				"z": 1.4658087952,
				"element": "C" 
			},
			{
				"x": 4.822078204,
				"y": -1.7270480102,
				"z": 2.3358003325,
				"element": "C" 
			},
			{
				"x": 4.6374275785,
				"y": -2.5862142392,
				"z": 3.4210595219,
				"element": "C" 
			},
			{
				"x": 3.3925352738,
				"y": -3.1809420426,
				"z": 3.6367936309,
				"element": "C" 
			},
			{
				"x": 2.3315072347,
				"y": -2.9204957204,
				"z": 2.7687208945,
				"element": "C" 
			},
			{
				"x": -3.8378787796,
				"y": 3.3317034632,
				"z": -0.0499362818,
				"element": "H" 
			},
			{
				"x": -2.1570545236,
				"y": 3.2770026884,
				"z": 0.5147414693,
				"element": "H" 
			},
			{
				"x": -2.595871662,
				"y": 2.5628387232,
				"z": -1.0553095175,
				"element": "H" 
			},
			{
				"x": -3.5672037375,
				"y": 1.5309333406,
				"z": 1.6764051417,
				"element": "H" 
			},
			{
				"x": -3.9598642518,
				"y": 0.8178718715,
				"z": 0.0893884321,
				"element": "H" 
			},
			{
				"x": 1.3993319362,
				"y": 0.135591535,
				"z": 2.6312539196,
				"element": "H" 
			},
			{
				"x": -0.1424175247,
				"y": -0.5945423727,
				"z": 3.0878026846,
				"element": "H" 
			},
			{
				"x": -0.1368063249,
				"y": 0.8674125145,
				"z": 2.1091970321,
				"element": "H" 
			},
			{
				"x": 1.8271267884,
				"y": -3.8559183537,
				"z": -1.8702137528,
				"element": "H" 
			},
			{
				"x": 2.3225462214,
				"y": -4.2757168088,
				"z": -0.2073355798,
				"element": "H" 
			},
			{
				"x": 3.209684806,
				"y": -3.0442082646,
				"z": -1.1045537158,
				"element": "H" 
			},
			{
				"x": -1.3929916311,
				"y": -1.8050386909,
				"z": -2.5792910225,
				"element": "H" 
			},
			{
				"x": 3.8918195381,
				"y": -0.7891853743,
				"z": 0.6216578603,
				"element": "H" 
			},
			{
				"x": 5.7885506362,
				"y": -1.2622539574,
				"z": 2.1660341102,
				"element": "H" 
			},
			{
				"x": 5.4619489214,
				"y": -2.792062868,
				"z": 4.0969699064,
				"element": "H" 
			},
			{
				"x": 3.2464774612,
				"y": -3.8508587458,
				"z": 4.4787112537,
				"element": "H" 
			},
			{
				"x": 1.3604801364,
				"y": -3.3813286178,
				"z": 2.920529505,
				"element": "H" 
			}
		],
		 "valence_orbital": [ 
			{
				"type": "occ",
				"energy": -0.2755,
				"method": "rhf"
			},
			{
				"type": "occ",
				"energy": -0.26892,
				"method": "rhf"
			},
			{
				"type": "occ",
				"energy": -0.25097,
				"method": "rhf"
			},
			{
				"type": "occ",
				"energy": -0.22373,
				"method": "rhf"
			},
			{
				"type": "occ",
				"energy": -0.21587,
				"method": "rhf"
			},
			{
				"type": "unocc",
				"energy": -0.0353,
				"method": "rhf"
			},
			{
				"type": "unocc",
				"energy": -0.03097,
				"method": "rhf"
			},
			{
				"type": "unocc",
				"energy": -0.02647,
				"method": "rhf"
			},
			{
				"type": "unocc",
				"energy": -0.00663,
				"method": "rhf"
			},
			{
				"type": "unocc",
				"energy": 0.06941,
				"method": "rhf"
			}
		],
		"cosmo_sigma_profile": { 
			"-0.025": 0.0,
			"-0.024": 0.0,
			"-0.023": 0.0,
			"-0.022": 0.0,
			"-0.021": 0.0,
			"-0.02": 0.0,
			"-0.019": 0.0,
			"-0.018": 0.0,
			"-0.017": 0.0,
			"-0.016": 0.0,
			"-0.015": 0.0,
			"-0.014": 0.0,
			"-0.013": 0.0,
			"-0.012": 0.0,
			"-0.011": 0.0,
			"-0.01": 0.0,
			"-0.009": 0.0,
			"-0.008": 0.0616504629596,
			"-0.007": 4.75594672829,
			"-0.006": 12.0801180457,
			"-0.005": 20.5432910953,
			"-0.004": 28.5994588672,
			"-0.003": 33.5574595933,
			"-0.002": 32.4608872201,
			"-0.001": 35.6178198878,
			"0.0": 34.8532996522,
			"0.001": 25.790532255,
			"0.002": 20.9356080092,
			"0.003": 20.0793687189,
			"0.004": 15.0898245654,
			"0.005": 6.15612433688,
			"0.006": 4.25642998338,
			"0.007": 3.53477407446,
			"0.008": 3.05763038348,
			"0.009": 3.28307157633,
			"0.01": 3.92913670386,
			"0.011": 4.45488083364,
			"0.012": 5.23269676771,
			"0.013": 2.79505304572,
			"0.014": 1.15961957489,
			"0.015": 0.0534370752925,
			"0.016": 0.0,
			"0.017": 0.0,
			"0.018": 0.0,
			"0.019": 0.0,
			"0.02": 0.0,
			"0.021": 0.0,
			"0.022": 0.0,
			"0.023": 0.0,
			"0.024": 0.0,
			"0.025": 0.0
		}
	}
}
