{
	 "smiles": "COC1=CC=C(C=C1)C(N)=O", 
	 "Tm": 439.15, 
	 "num_atms": 20, 
	 "gaussian": { 
		 "optdone": 1, 
		 "sigma_profile": "yes", 
		 "theory": "DFT", 
		 "functional": "B3LYP", 
		 "basiset": "6-31G**", 
		 "properties": { 
			 "R2extent": 2430.0532, 
			 "electric_dipole_moment_norm": 4.87080362363, 
			 "electric_quadrupole_moment_norm": 12.2364259075, 
			 "total_energy": -515.48217734, 
			 "HOMO_LUMO_gap": 0.19968, 
			 "cosmo_polarized_energy": -14.86, 
			 "cosmo_cavitation_energy": 24.12, 
			 "cosmo_dispersion_energy": -18.01, 
			 "cosmo_repulsion_energy": 1.45, 
			 "cosmo_total_nonelectrostatic_energy": 7.56, 
			 "SMD_solvation_energy": 5.75 
		},
		"coords": [
			{
				"x": -3.6558382277,
				"y": 2.1065484945,
				"z": 0.6082863613,
				"element": "C" 
			},
			{
				"x": -2.6900223297,
				"y": 2.3345082814,
				"z": -0.4072878536,
				"element": "O" 
			},
			{
				"x": -1.6871359465,
				"y": 1.4282140603,
				"z": -0.5646569223,
				"element": "C" 
			},
			{
				"x": -1.5327079838,
				"y": 0.2702624344,
				"z": 0.2088783364,
				"element": "C" 
			},
			{
				"x": -0.4584152392,
				"y": -0.5854027126,
				"z": -0.0416873751,
				"element": "C" 
			},
			{
				"x": 0.4692528938,
				"y": -0.3092780221,
				"z": -1.0516239215,
				"element": "C" 
			},
			{
				"x": 0.2879893007,
				"y": 0.8460941035,
				"z": -1.8310291948,
				"element": "C" 
			},
			{
				"x": -0.7683429122,
				"y": 1.7085178073,
				"z": -1.5906045743,
				"element": "C" 
			},
			{
				"x": 1.6372267913,
				"y": -1.1882568291,
				"z": -1.3736554877,
				"element": "C" 
			},
			{
				"x": 1.9841400107,
				"y": -2.1228415599,
				"z": -0.4204067523,
				"element": "N" 
			},
			{
				"x": 2.2437683385,
				"y": -1.1044119382,
				"z": -2.4356015802,
				"element": "O" 
			},
			{
				"x": -4.2063584533,
				"y": 1.1722691437,
				"z": 0.4401920727,
				"element": "H" 
			},
			{
				"x": -4.3501665383,
				"y": 2.9463231567,
				"z": 0.5565768251,
				"element": "H" 
			},
			{
				"x": -3.1961742894,
				"y": 2.0788874575,
				"z": 1.6044295726,
				"element": "H" 
			},
			{
				"x": -2.2397798393,
				"y": 0.0223580624,
				"z": 0.9913220119,
				"element": "H" 
			},
			{
				"x": -0.3761808351,
				"y": -1.4962271671,
				"z": 0.5445422355,
				"element": "H" 
			},
			{
				"x": 0.9986003016,
				"y": 1.0427036438,
				"z": -2.6266364004,
				"element": "H" 
			},
			{
				"x": -0.9127626601,
				"y": 2.6067986916,
				"z": -2.1818316845,
				"element": "H" 
			},
			{
				"x": 1.7609921787,
				"y": -1.9573704143,
				"z": 0.5488508675,
				"element": "H" 
			},
			{
				"x": 2.8505154391,
				"y": -2.6086966938,
				"z": -0.6042565364,
				"element": "H" 
			}
		],
		 "valence_orbital": [ 
			{
				"type": "occ",
				"energy": -0.32212,
				"method": "rhf"
			},
			{
				"type": "occ",
				"energy": -0.26793,
				"method": "rhf"
			},
			{
				"type": "occ",
				"energy": -0.25775,
				"method": "rhf"
			},
			{
				"type": "occ",
				"energy": -0.24425,
				"method": "rhf"
			},
			{
				"type": "occ",
				"energy": -0.22618,
				"method": "rhf"
			},
			{
				"type": "unocc",
				"energy": -0.0265,
				"method": "rhf"
			},
			{
				"type": "unocc",
				"energy": -0.00668,
				"method": "rhf"
			},
			{
				"type": "unocc",
				"energy": 0.06601,
				"method": "rhf"
			},
			{
				"type": "unocc",
				"energy": 0.08094,
				"method": "rhf"
			},
			{
				"type": "unocc",
				"energy": 0.0955,
				"method": "rhf"
			}
		],
		"cosmo_sigma_profile": { 
			"-0.025": 0.0,
			"-0.024": 0.0,
			"-0.023": 0.0,
			"-0.022": 0.0,
			"-0.021": 0.0,
			"-0.02": 0.0,
			"-0.019": 0.0,
			"-0.018": 0.0,
			"-0.017": 0.0,
			"-0.016": 0.0,
			"-0.015": 0.0268219993266,
			"-0.014": 0.951988700981,
			"-0.013": 2.26912533191,
			"-0.012": 1.94403734724,
			"-0.011": 2.81990526719,
			"-0.01": 2.42104843125,
			"-0.009": 3.15664530577,
			"-0.008": 2.32253449333,
			"-0.007": 3.96448981841,
			"-0.006": 11.1807304641,
			"-0.005": 16.4640437616,
			"-0.004": 15.7576492317,
			"-0.003": 13.1045473115,
			"-0.002": 9.56693896698,
			"-0.001": 8.5624189129,
			"0.0": 8.54770933965,
			"0.001": 10.062382917,
			"0.002": 12.2833736054,
			"0.003": 13.1512077559,
			"0.004": 16.5577904152,
			"0.005": 7.32636961349,
			"0.006": 3.42508894659,
			"0.007": 3.90197967759,
			"0.008": 3.07899973049,
			"0.009": 3.07832736411,
			"0.01": 3.26119248178,
			"0.011": 1.36510193584,
			"0.012": 1.85392362095,
			"0.013": 3.89476026682,
			"0.014": 4.79878907287,
			"0.015": 0.609706550016,
			"0.016": 0.0,
			"0.017": 0.0,
			"0.018": 0.0,
			"0.019": 0.0,
			"0.02": 0.0,
			"0.021": 0.0,
			"0.022": 0.0,
			"0.023": 0.0,
			"0.024": 0.0,
			"0.025": 0.0
		}
	}
}
