{
	 "smiles": "NC(CCN1CCN(CC2=CC=CC=C2)CC1)=NO", 
	 "Tm": 385.15, 
	 "num_atms": 41, 
	 "gaussian": { 
		 "optdone": 1, 
		 "sigma_profile": "yes", 
		 "theory": "DFT", 
		 "functional": "B3LYP", 
		 "basiset": "6-31G**", 
		 "properties": { 
			 "R2extent": 9406.3256, 
			 "electric_dipole_moment_norm": 1.02801077815, 
			 "electric_quadrupole_moment_norm": 8.56887290021, 
			 "total_energy": -840.912638228, 
			 "HOMO_LUMO_gap": 0.19671, 
			 "cosmo_polarized_energy": -15.13, 
			 "cosmo_cavitation_energy": 42.01, 
			 "cosmo_dispersion_energy": -29.85, 
			 "cosmo_repulsion_energy": 2.34, 
			 "cosmo_total_nonelectrostatic_energy": 14.51, 
			 "SMD_solvation_energy": 2.96 
		},
		"coords": [
			{
				"x": -3.1333360351,
				"y": -1.4821150649,
				"z": 3.8112516953,
				"element": "N" 
			},
			{
				"x": -2.7618172228,
				"y": -0.398261149,
				"z": 3.0428146106,
				"element": "C" 
			},
			{
				"x": -2.4886258957,
				"y": -0.6545063752,
				"z": 1.5815502622,
				"element": "C" 
			},
			{
				"x": -1.9446408244,
				"y": 0.5539615245,
				"z": 0.8079088402,
				"element": "C" 
			},
			{
				"x": -1.7789969201,
				"y": 0.2254726571,
				"z": -0.6132038818,
				"element": "N" 
			},
			{
				"x": -1.9450789705,
				"y": 1.3545994684,
				"z": -1.530618244,
				"element": "C" 
			},
			{
				"x": -0.7261964106,
				"y": 2.286136975,
				"z": -1.6021455951,
				"element": "C" 
			},
			{
				"x": 0.4644256332,
				"y": 1.5171735502,
				"z": -1.9713600103,
				"element": "N" 
			},
			{
				"x": 1.6402349055,
				"y": 2.3666060722,
				"z": -2.1465959384,
				"element": "C" 
			},
			{
				"x": 2.7822385333,
				"y": 1.6719680829,
				"z": -2.8669406996,
				"element": "C" 
			},
			{
				"x": 2.5334462811,
				"y": 0.8802622705,
				"z": -3.996856556,
				"element": "C" 
			},
			{
				"x": 3.5849794557,
				"y": 0.2814599295,
				"z": -4.6897132053,
				"element": "C" 
			},
			{
				"x": 4.9037291599,
				"y": 0.4680142284,
				"z": -4.2661589718,
				"element": "C" 
			},
			{
				"x": 5.1611923854,
				"y": 1.2523922083,
				"z": -3.1414759817,
				"element": "C" 
			},
			{
				"x": 4.105133502,
				"y": 1.8458333258,
				"z": -2.4458132759,
				"element": "C" 
			},
			{
				"x": 0.6962334813,
				"y": 0.435503636,
				"z": -1.0090625903,
				"element": "C" 
			},
			{
				"x": -0.5339048823,
				"y": -0.4813617871,
				"z": -0.9342089905,
				"element": "C" 
			},
			{
				"x": -2.5916244114,
				"y": 0.7936502691,
				"z": 3.5049502508,
				"element": "N" 
			},
			{
				"x": -2.9194216381,
				"y": 0.8160176648,
				"z": 4.8978025611,
				"element": "O" 
			},
			{
				"x": -3.5207266598,
				"y": -1.2397056352,
				"z": 4.7128847236,
				"element": "H" 
			},
			{
				"x": -3.6007089871,
				"y": -2.2369243474,
				"z": 3.3315103411,
				"element": "H" 
			},
			{
				"x": -1.7895731096,
				"y": -1.4985073978,
				"z": 1.513810111,
				"element": "H" 
			},
			{
				"x": -3.4140190483,
				"y": -0.9908153181,
				"z": 1.0943191517,
				"element": "H" 
			},
			{
				"x": -1.0243431988,
				"y": 0.9113938361,
				"z": 1.2933488121,
				"element": "H" 
			},
			{
				"x": -2.6640517075,
				"y": 1.3728339093,
				"z": 0.8925222885,
				"element": "H" 
			},
			{
				"x": -2.1198393516,
				"y": 0.948155257,
				"z": -2.5358948205,
				"element": "H" 
			},
			{
				"x": -2.8361854056,
				"y": 1.9223537689,
				"z": -1.2427457563,
				"element": "H" 
			},
			{
				"x": -0.8966943381,
				"y": 3.0570048131,
				"z": -2.3638214743,
				"element": "H" 
			},
			{
				"x": -0.5934383241,
				"y": 2.80916382,
				"z": -0.6334751735,
				"element": "H" 
			},
			{
				"x": 1.324297551,
				"y": 3.2358148682,
				"z": -2.7397520764,
				"element": "H" 
			},
			{
				"x": 2.0079381143,
				"y": 2.7702098709,
				"z": -1.1825195842,
				"element": "H" 
			},
			{
				"x": 1.5051445793,
				"y": 0.7312422218,
				"z": -4.3122048873,
				"element": "H" 
			},
			{
				"x": 3.3764681644,
				"y": -0.3312731072,
				"z": -5.5626932836,
				"element": "H" 
			},
			{
				"x": 5.7227093443,
				"y": 0.0018265178,
				"z": -4.8067141429,
				"element": "H" 
			},
			{
				"x": 6.1823810442,
				"y": 1.3977123515,
				"z": -2.7998752405,
				"element": "H" 
			},
			{
				"x": 4.310403604,
				"y": 2.4502931356,
				"z": -1.5651806698,
				"element": "H" 
			},
			{
				"x": 0.9323388396,
				"y": 0.8408747351,
				"z": -0.0045421822,
				"element": "H" 
			},
			{
				"x": 1.5664922486,
				"y": -0.1442028238,
				"z": -1.3331536164,
				"element": "H" 
			},
			{
				"x": -0.6613046622,
				"y": -0.9686280338,
				"z": -1.9095964846,
				"element": "H" 
			},
			{
				"x": -0.361252254,
				"y": -1.2714167869,
				"z": -0.1962409769,
				"element": "H" 
			},
			{
				"x": -2.7956065694,
				"y": 1.7478868586,
				"z": 5.1124906617,
				"element": "H" 
			}
		],
		 "valence_orbital": [ 
			{
				"type": "occ",
				"energy": -0.24392,
				"method": "rhf"
			},
			{
				"type": "occ",
				"energy": -0.23801,
				"method": "rhf"
			},
			{
				"type": "occ",
				"energy": -0.22005,
				"method": "rhf"
			},
			{
				"type": "occ",
				"energy": -0.20879,
				"method": "rhf"
			},
			{
				"type": "occ",
				"energy": -0.19444,
				"method": "rhf"
			},
			{
				"type": "unocc",
				"energy": 0.00227,
				"method": "rhf"
			},
			{
				"type": "unocc",
				"energy": 0.00518,
				"method": "rhf"
			},
			{
				"type": "unocc",
				"energy": 0.0449,
				"method": "rhf"
			},
			{
				"type": "unocc",
				"energy": 0.0748,
				"method": "rhf"
			},
			{
				"type": "unocc",
				"energy": 0.08479,
				"method": "rhf"
			}
		],
		"cosmo_sigma_profile": { 
			"-0.025": 0.0,
			"-0.024": 0.0,
			"-0.023": 0.0,
			"-0.022": 0.0,
			"-0.021": 0.0,
			"-0.02": 0.0,
			"-0.019": 0.0,
			"-0.018": 0.0,
			"-0.017": 0.121852427581,
			"-0.016": 0.666501001084,
			"-0.015": 0.913408014165,
			"-0.014": 1.19426355457,
			"-0.013": 1.76791601803,
			"-0.012": 1.76887572713,
			"-0.011": 2.30220925222,
			"-0.01": 2.88233446338,
			"-0.009": 2.97956737775,
			"-0.008": 2.96728302496,
			"-0.007": 2.2109462337,
			"-0.006": 5.02299471499,
			"-0.005": 15.3914301083,
			"-0.004": 25.8758337364,
			"-0.003": 32.9069467468,
			"-0.002": 40.9492444086,
			"-0.001": 39.9119745365,
			"0.0": 24.6100448394,
			"0.001": 16.5644183089,
			"0.002": 15.1380165809,
			"0.003": 14.1034409625,
			"0.004": 13.2204217903,
			"0.005": 13.6258627375,
			"0.006": 12.5632297338,
			"0.007": 9.3778519014,
			"0.008": 6.38587408755,
			"0.009": 6.30340276552,
			"0.01": 5.85097530378,
			"0.011": 3.61754720018,
			"0.012": 2.63308582951,
			"0.013": 1.83684514316,
			"0.014": 1.31345498014,
			"0.015": 0.424235410518,
			"0.016": 0.00206329868916,
			"0.017": 0.0,
			"0.018": 0.0,
			"0.019": 0.0,
			"0.02": 0.0,
			"0.021": 0.0,
			"0.022": 0.0,
			"0.023": 0.0,
			"0.024": 0.0,
			"0.025": 0.0
		}
	}
}
