{
	 "smiles": "ClCC(=O)C1=CC=C(Cl)C=C1", 
	 "Tm": 374.15, 
	 "num_atms": 17, 
	 "gaussian": { 
		 "optdone": 1, 
		 "sigma_profile": "yes", 
		 "theory": "DFT", 
		 "functional": "B3LYP", 
		 "basiset": "6-31G**", 
		 "properties": { 
			 "R2extent": 3125.1244, 
			 "electric_dipole_moment_norm": 1.93445980573, 
			 "electric_quadrupole_moment_norm": 8.60376240723, 
			 "total_energy": -1304.07380352, 
			 "HOMO_LUMO_gap": 0.18168, 
			 "cosmo_polarized_energy": -8.28, 
			 "cosmo_cavitation_energy": 25.16, 
			 "cosmo_dispersion_energy": -18.61, 
			 "cosmo_repulsion_energy": 1.5, 
			 "cosmo_total_nonelectrostatic_energy": 8.05, 
			 "SMD_solvation_energy": 4.32 
		},
		"coords": [
			{
				"x": -3.2183791461,
				"y": -0.7267232871,
				"z": -1.5450014504,
				"element": "Cl" 
			},
			{
				"x": -1.969310452,
				"y": 0.448661678,
				"z": -2.14038816,
				"element": "C" 
			},
			{
				"x": -0.5548188958,
				"y": -0.1336283937,
				"z": -2.0628484741,
				"element": "C" 
			},
			{
				"x": 0.0288324189,
				"y": -0.3750284904,
				"z": -3.1069443853,
				"element": "O" 
			},
			{
				"x": 0.0905700456,
				"y": -0.3530956113,
				"z": -0.7364109585,
				"element": "C" 
			},
			{
				"x": -0.5206518396,
				"y": -0.0217482784,
				"z": 0.4827178743,
				"element": "C" 
			},
			{
				"x": 0.1460519608,
				"y": -0.2225847713,
				"z": 1.6890900198,
				"element": "C" 
			},
			{
				"x": 1.4330414847,
				"y": -0.7614973594,
				"z": 1.6722178195,
				"element": "C" 
			},
			{
				"x": 2.2764858131,
				"y": -1.0167699487,
				"z": 3.1866308306,
				"element": "Cl" 
			},
			{
				"x": 2.0623364508,
				"y": -1.1023090855,
				"z": 0.4717367179,
				"element": "C" 
			},
			{
				"x": 1.386756635,
				"y": -0.8945062999,
				"z": -0.724247531,
				"element": "C" 
			},
			{
				"x": -2.1902589994,
				"y": 0.6520890433,
				"z": -3.1863051304,
				"element": "H" 
			},
			{
				"x": -2.0758467644,
				"y": 1.3579458457,
				"z": -1.5455196048,
				"element": "H" 
			},
			{
				"x": -1.5269233006,
				"y": 0.3814841172,
				"z": 0.5059489303,
				"element": "H" 
			},
			{
				"x": -0.3246432926,
				"y": 0.0311356419,
				"z": 2.632062549,
				"element": "H" 
			},
			{
				"x": 3.062560287,
				"y": -1.5205804177,
				"z": 0.4824903323,
				"element": "H" 
			},
			{
				"x": 1.8494975944,
				"y": -1.1442443826,
				"z": -1.6729293792,
				"element": "H" 
			}
		],
		 "valence_orbital": [ 
			{
				"type": "occ",
				"energy": -0.32338,
				"method": "rhf"
			},
			{
				"type": "occ",
				"energy": -0.31211,
				"method": "rhf"
			},
			{
				"type": "occ",
				"energy": -0.28027,
				"method": "rhf"
			},
			{
				"type": "occ",
				"energy": -0.26924,
				"method": "rhf"
			},
			{
				"type": "occ",
				"energy": -0.26329,
				"method": "rhf"
			},
			{
				"type": "unocc",
				"energy": -0.08161,
				"method": "rhf"
			},
			{
				"type": "unocc",
				"energy": -0.02911,
				"method": "rhf"
			},
			{
				"type": "unocc",
				"energy": -0.0081,
				"method": "rhf"
			},
			{
				"type": "unocc",
				"energy": 0.01783,
				"method": "rhf"
			},
			{
				"type": "unocc",
				"energy": 0.04293,
				"method": "rhf"
			}
		],
		"cosmo_sigma_profile": { 
			"-0.025": 0.0,
			"-0.024": 0.0,
			"-0.023": 0.0,
			"-0.022": 0.0,
			"-0.021": 0.0,
			"-0.02": 0.0,
			"-0.019": 0.0,
			"-0.018": 0.0,
			"-0.017": 0.0,
			"-0.016": 0.0,
			"-0.015": 0.0,
			"-0.014": 0.0,
			"-0.013": 0.0,
			"-0.012": 0.0,
			"-0.011": 0.0,
			"-0.01": 0.92591078207,
			"-0.009": 4.15788731347,
			"-0.008": 7.41236086396,
			"-0.007": 10.1235001536,
			"-0.006": 10.2740168875,
			"-0.005": 9.62784980473,
			"-0.004": 7.66446945317,
			"-0.003": 8.16809293396,
			"-0.002": 9.90268684066,
			"-0.001": 13.8708345524,
			"0.0": 19.2853614018,
			"0.001": 23.6569928484,
			"0.002": 23.0437515769,
			"0.003": 15.1343447783,
			"0.004": 18.0220818772,
			"0.005": 9.30455210793,
			"0.006": 3.90880902901,
			"0.007": 1.43845352975,
			"0.008": 0.99286722002,
			"0.009": 2.59880666784,
			"0.01": 3.25056638224,
			"0.011": 3.10883198713,
			"0.012": 0.602145109939,
			"0.013": 0.0,
			"0.014": 0.0,
			"0.015": 0.0,
			"0.016": 0.0,
			"0.017": 0.0,
			"0.018": 0.0,
			"0.019": 0.0,
			"0.02": 0.0,
			"0.021": 0.0,
			"0.022": 0.0,
			"0.023": 0.0,
			"0.024": 0.0,
			"0.025": 0.0
		}
	}
}
