{
	 "smiles": "CCOP(=S)(OCC)OC1=NC(=NC(C)=C1)N(CC)CC", 
	 "Tm": 288.15, 
	 "num_atms": 45, 
	 "gaussian": { 
		 "optdone": 1, 
		 "sigma_profile": "yes", 
		 "theory": "DFT", 
		 "functional": "B3LYP", 
		 "basiset": "6-31G**", 
		 "properties": { 
			 "R2extent": 8596.9333, 
			 "electric_dipole_moment_norm": 4.24162263055, 
			 "electric_quadrupole_moment_norm": 23.260770464, 
			 "total_energy": -1639.42187161, 
			 "HOMO_LUMO_gap": 0.18785, 
			 "cosmo_polarized_energy": -14.68, 
			 "cosmo_cavitation_energy": 50.47, 
			 "cosmo_dispersion_energy": -32.41, 
			 "cosmo_repulsion_energy": 2.5, 
			 "cosmo_total_nonelectrostatic_energy": 20.56, 
			 "SMD_solvation_energy": 7.97 
		},
		"coords": [
			{
				"x": 0.9368833682,
				"y": 5.653755959,
				"z": -1.0917721013,
				"element": "C" 
			},
			{
				"x": 0.2011433019,
				"y": 5.09134081,
				"z": 0.1113405212,
				"element": "C" 
			},
			{
				"x": 1.0879578676,
				"y": 4.2179885561,
				"z": 0.8644458243,
				"element": "O" 
			},
			{
				"x": 0.8595839117,
				"y": 2.6301550281,
				"z": 0.9691502804,
				"element": "P" 
			},
			{
				"x": 2.2429360637,
				"y": 1.7661757473,
				"z": 1.997919705,
				"element": "S" 
			},
			{
				"x": -0.6808082269,
				"y": 2.4452058231,
				"z": 1.4237807483,
				"element": "O" 
			},
			{
				"x": -1.0399098095,
				"y": 2.3884039595,
				"z": 2.8276014151,
				"element": "C" 
			},
			{
				"x": -2.5298549375,
				"y": 2.1158498125,
				"z": 2.908283213,
				"element": "C" 
			},
			{
				"x": 0.7088230065,
				"y": 2.2984053585,
				"z": -0.6384360096,
				"element": "O" 
			},
			{
				"x": 0.4361137216,
				"y": 1.0674326276,
				"z": -1.1868345861,
				"element": "C" 
			},
			{
				"x": 0.0903697235,
				"y": 0.0774696585,
				"z": -0.3935682731,
				"element": "N" 
			},
			{
				"x": -0.1678925953,
				"y": -1.1064651518,
				"z": -1.0057957324,
				"element": "C" 
			},
			{
				"x": -0.0891201717,
				"y": -1.3285022669,
				"z": -2.3338235486,
				"element": "N" 
			},
			{
				"x": 0.261930908,
				"y": -0.2910600319,
				"z": -3.1057225472,
				"element": "C" 
			},
			{
				"x": 0.3426937851,
				"y": -0.5582826119,
				"z": -4.5859240488,
				"element": "C" 
			},
			{
				"x": 0.5460561227,
				"y": 0.9676636503,
				"z": -2.5753861018,
				"element": "C" 
			},
			{
				"x": -0.5482836888,
				"y": -2.1476280865,
				"z": -0.210449414,
				"element": "N" 
			},
			{
				"x": -0.8228988924,
				"y": -3.457933631,
				"z": -0.8081050944,
				"element": "C" 
			},
			{
				"x": 0.4256231138,
				"y": -4.3011925646,
				"z": -1.0896242017,
				"element": "C" 
			},
			{
				"x": -0.6277843589,
				"y": -1.9815441899,
				"z": 1.2442044702,
				"element": "C" 
			},
			{
				"x": 0.705421541,
				"y": -2.1594276285,
				"z": 1.9787097352,
				"element": "C" 
			},
			{
				"x": 1.2160699087,
				"y": 4.8521947356,
				"z": -1.7798618675,
				"element": "H" 
			},
			{
				"x": 0.2941570206,
				"y": 6.3641457878,
				"z": -1.6230939222,
				"element": "H" 
			},
			{
				"x": 1.844904172,
				"y": 6.1759181088,
				"z": -0.7780949759,
				"element": "H" 
			},
			{
				"x": -0.6999716579,
				"y": 4.5474830518,
				"z": -0.1848821346,
				"element": "H" 
			},
			{
				"x": -0.0903300038,
				"y": 5.8841791515,
				"z": 0.8067879918,
				"element": "H" 
			},
			{
				"x": -0.4549249679,
				"y": 1.5985523768,
				"z": 3.3080349997,
				"element": "H" 
			},
			{
				"x": -0.7823926288,
				"y": 3.3428694239,
				"z": 3.3011947582,
				"element": "H" 
			},
			{
				"x": -2.7750574374,
				"y": 1.1660340539,
				"z": 2.4250631364,
				"element": "H" 
			},
			{
				"x": -3.1011136324,
				"y": 2.9098581736,
				"z": 2.4189767997,
				"element": "H" 
			},
			{
				"x": -2.8394002491,
				"y": 2.0629244407,
				"z": 3.9569571635,
				"element": "H" 
			},
			{
				"x": -0.6250403586,
				"y": -0.9110684282,
				"z": -4.9567532537,
				"element": "H" 
			},
			{
				"x": 0.6328475732,
				"y": 0.334003253,
				"z": -5.1455349474,
				"element": "H" 
			},
			{
				"x": 1.0693985798,
				"y": -1.3527791587,
				"z": -4.7837153937,
				"element": "H" 
			},
			{
				"x": 0.8461514541,
				"y": 1.8106305628,
				"z": -3.183182815,
				"element": "H" 
			},
			{
				"x": -1.365939576,
				"y": -3.2970839769,
				"z": -1.7423885722,
				"element": "H" 
			},
			{
				"x": -1.4896553353,
				"y": -3.9885018428,
				"z": -0.1204839446,
				"element": "H" 
			},
			{
				"x": 0.1370596003,
				"y": -5.2586738611,
				"z": -1.5375015148,
				"element": "H" 
			},
			{
				"x": 0.987658899,
				"y": -4.5106434398,
				"z": -0.1746965396,
				"element": "H" 
			},
			{
				"x": 1.0814567112,
				"y": -3.7800153773,
				"z": -1.7912010004,
				"element": "H" 
			},
			{
				"x": -1.021932171,
				"y": -0.983360699,
				"z": 1.4487315823,
				"element": "H" 
			},
			{
				"x": -1.3611675456,
				"y": -2.7095740503,
				"z": 1.6073246087,
				"element": "H" 
			},
			{
				"x": 1.1295382102,
				"y": -3.1538232784,
				"z": 1.8085836944,
				"element": "H" 
			},
			{
				"x": 1.4255133147,
				"y": -1.4051391728,
				"z": 1.6527081856,
				"element": "H" 
			},
			{
				"x": 0.5554863657,
				"y": -2.0365406623,
				"z": 3.0571337078,
				"element": "H" 
			}
		],
		 "valence_orbital": [ 
			{
				"type": "occ",
				"energy": -0.28,
				"method": "rhf"
			},
			{
				"type": "occ",
				"energy": -0.24997,
				"method": "rhf"
			},
			{
				"type": "occ",
				"energy": -0.2363,
				"method": "rhf"
			},
			{
				"type": "occ",
				"energy": -0.23182,
				"method": "rhf"
			},
			{
				"type": "occ",
				"energy": -0.20717,
				"method": "rhf"
			},
			{
				"type": "unocc",
				"energy": -0.01932,
				"method": "rhf"
			},
			{
				"type": "unocc",
				"energy": 0.0083,
				"method": "rhf"
			},
			{
				"type": "unocc",
				"energy": 0.04333,
				"method": "rhf"
			},
			{
				"type": "unocc",
				"energy": 0.05613,
				"method": "rhf"
			},
			{
				"type": "unocc",
				"energy": 0.07184,
				"method": "rhf"
			}
		],
		"cosmo_sigma_profile": { 
			"-0.025": 0.0,
			"-0.024": 0.0,
			"-0.023": 0.0,
			"-0.022": 0.0,
			"-0.021": 0.0,
			"-0.02": 0.0,
			"-0.019": 0.0,
			"-0.018": 0.0,
			"-0.017": 0.0,
			"-0.016": 0.0,
			"-0.015": 0.0,
			"-0.014": 0.0,
			"-0.013": 0.0,
			"-0.012": 0.0,
			"-0.011": 0.0,
			"-0.01": 0.0,
			"-0.009": 0.0,
			"-0.008": 0.0,
			"-0.007": 1.21921297296,
			"-0.006": 8.46783278961,
			"-0.005": 23.1857797684,
			"-0.004": 38.532432335,
			"-0.003": 42.2652646109,
			"-0.002": 42.3683586592,
			"-0.001": 46.5734627579,
			"0.0": 45.1033521818,
			"0.001": 39.4428677233,
			"0.002": 25.4156632266,
			"0.003": 17.348476136,
			"0.004": 11.4437558613,
			"0.005": 11.4182319255,
			"0.006": 10.8189665164,
			"0.007": 9.94516459634,
			"0.008": 10.8640634183,
			"0.009": 8.70382420461,
			"0.01": 2.92899207944,
			"0.011": 1.11231267255,
			"0.012": 0.340807150937,
			"0.013": 0.0,
			"0.014": 0.0,
			"0.015": 0.0,
			"0.016": 0.0,
			"0.017": 0.0,
			"0.018": 0.0,
			"0.019": 0.0,
			"0.02": 0.0,
			"0.021": 0.0,
			"0.022": 0.0,
			"0.023": 0.0,
			"0.024": 0.0,
			"0.025": 0.0
		}
	}
}
