{
	 "smiles": "OC(=O)C1=C(Cl)C(Cl)=C(Cl)C(Cl)=C1C(O)=O", 
	 "Tm": 371.15, 
	 "num_atms": 18, 
	 "gaussian": { 
		 "optdone": 1, 
		 "sigma_profile": "yes", 
		 "theory": "DFT", 
		 "functional": "B3LYP", 
		 "basiset": "6-31G**", 
		 "properties": { 
			 "R2extent": 9805.2467, 
			 "electric_dipole_moment_norm": 3.65141154898, 
			 "electric_quadrupole_moment_norm": 6.56131238778, 
			 "total_energy": -2447.70704312, 
			 "HOMO_LUMO_gap": 0.19123, 
			 "cosmo_polarized_energy": -14.34, 
			 "cosmo_cavitation_energy": 30.46, 
			 "cosmo_dispersion_energy": -22.62, 
			 "cosmo_repulsion_energy": 1.77, 
			 "cosmo_total_nonelectrostatic_energy": 9.61, 
			 "SMD_solvation_energy": 6.36 
		},
		"coords": [
			{
				"x": -2.9902896214,
				"y": 0.1689356346,
				"z": 0.5481957547,
				"element": "O" 
			},
			{
				"x": -2.1862953358,
				"y": -0.4869542982,
				"z": -0.3011298227,
				"element": "C" 
			},
			{
				"x": -1.7859208468,
				"y": -1.599121,
				"z": -0.0691863916,
				"element": "O" 
			},
			{
				"x": -1.8194866472,
				"y": 0.2232724421,
				"z": -1.6035870287,
				"element": "C" 
			},
			{
				"x": -2.1401448591,
				"y": -0.3932206591,
				"z": -2.8237946661,
				"element": "C" 
			},
			{
				"x": -3.1098273356,
				"y": -1.8340523262,
				"z": -2.8410824736,
				"element": "Cl" 
			},
			{
				"x": -1.7169502234,
				"y": 0.1667188079,
				"z": -4.0409572828,
				"element": "C" 
			},
			{
				"x": -2.1298170296,
				"y": -0.5928478616,
				"z": -5.5415965671,
				"element": "Cl" 
			},
			{
				"x": -0.9596054057,
				"y": 1.3518670599,
				"z": -4.0439368962,
				"element": "C" 
			},
			{
				"x": -0.4380544803,
				"y": 2.047892059,
				"z": -5.5417420589,
				"element": "Cl" 
			},
			{
				"x": -0.6437021879,
				"y": 1.9738981022,
				"z": -2.8271677264,
				"element": "C" 
			},
			{
				"x": 0.2260569851,
				"y": 3.4828766786,
				"z": -2.831401611,
				"element": "Cl" 
			},
			{
				"x": -1.0682352609,
				"y": 1.4125361429,
				"z": -1.61418444,
				"element": "C" 
			},
			{
				"x": -0.8044982075,
				"y": 2.1269710387,
				"z": -0.3164694017,
				"element": "C" 
			},
			{
				"x": 0.4911159698,
				"y": 2.2443840744,
				"z": -0.0212229669,
				"element": "O" 
			},
			{
				"x": -1.6975487602,
				"y": 2.53836483,
				"z": 0.4020166028,
				"element": "O" 
			},
			{
				"x": -3.0185799358,
				"y": 1.1230268113,
				"z": 0.3453878935,
				"element": "H" 
			},
			{
				"x": 0.5537831823,
				"y": 2.7316524634,
				"z": 0.8195590826,
				"element": "H" 
			}
		],
		 "valence_orbital": [ 
			{
				"type": "occ",
				"energy": -0.32512,
				"method": "rhf"
			},
			{
				"type": "occ",
				"energy": -0.31555,
				"method": "rhf"
			},
			{
				"type": "occ",
				"energy": -0.29563,
				"method": "rhf"
			},
			{
				"type": "occ",
				"energy": -0.28123,
				"method": "rhf"
			},
			{
				"type": "occ",
				"energy": -0.27281,
				"method": "rhf"
			},
			{
				"type": "unocc",
				"energy": -0.08158,
				"method": "rhf"
			},
			{
				"type": "unocc",
				"energy": -0.07117,
				"method": "rhf"
			},
			{
				"type": "unocc",
				"energy": -0.04741,
				"method": "rhf"
			},
			{
				"type": "unocc",
				"energy": -0.03463,
				"method": "rhf"
			},
			{
				"type": "unocc",
				"energy": -0.00669,
				"method": "rhf"
			}
		],
		"cosmo_sigma_profile": { 
			"-0.025": 0.0,
			"-0.024": 0.0,
			"-0.023": 0.0,
			"-0.022": 0.0,
			"-0.021": 0.136674198001,
			"-0.02": 1.05673894349,
			"-0.019": 0.896355025531,
			"-0.018": 0.892601561621,
			"-0.017": 0.905745971211,
			"-0.016": 0.336333146528,
			"-0.015": 0.725678761696,
			"-0.014": 1.19731302896,
			"-0.013": 1.98181325681,
			"-0.012": 1.34939806301,
			"-0.011": 1.28208952435,
			"-0.01": 2.05053324963,
			"-0.009": 1.9316781832,
			"-0.008": 2.453988741,
			"-0.007": 3.52102495892,
			"-0.006": 3.04325362239,
			"-0.005": 8.20924737406,
			"-0.004": 20.6431664199,
			"-0.003": 23.1600077229,
			"-0.002": 17.813236645,
			"-0.001": 16.3377089971,
			"0.0": 19.6641071242,
			"0.001": 21.9762085475,
			"0.002": 30.8000252033,
			"0.003": 24.9628760338,
			"0.004": 6.31167124992,
			"0.005": 4.62103325613,
			"0.006": 6.06992706059,
			"0.007": 6.45468976664,
			"0.008": 6.18670183005,
			"0.009": 6.83695733715,
			"0.01": 5.69783941052,
			"0.011": 4.07379142237,
			"0.012": 0.538520971511,
			"0.013": 0.0,
			"0.014": 0.0,
			"0.015": 0.0,
			"0.016": 0.0,
			"0.017": 0.0,
			"0.018": 0.0,
			"0.019": 0.0,
			"0.02": 0.0,
			"0.021": 0.0,
			"0.022": 0.0,
			"0.023": 0.0,
			"0.024": 0.0,
			"0.025": 0.0
		}
	}
}
