{
	 "smiles": "CN1CCNC(=O)CCSCCC1=O", 
	 "Tm": 459.15, 
	 "num_atms": 30, 
	 "gaussian": { 
		 "optdone": 1, 
		 "sigma_profile": "no", 
		 "theory": "DFT", 
		 "functional": "B3LYP", 
		 "basiset": "6-31G**", 
		 "properties": { 
			 "R2extent": 4340.8672, 
			 "electric_dipole_moment_norm": 3.14882545404, 
			 "electric_quadrupole_moment_norm": 23.6125241133, 
			 "total_energy": -1010.75094229, 
			 "HOMO_LUMO_gap": 0.234, 
			 "cosmo_polarized_energy": -21.09, 
			 "cosmo_cavitation_energy": 30.9, 
			 "cosmo_dispersion_energy": -23.17, 
			 "cosmo_repulsion_energy": 1.75, 
			 "cosmo_total_nonelectrostatic_energy": 9.48, 
			 "SMD_solvation_energy": 4.86 
		},
		"coords": [
			{
				"x": -3.2004491274,
				"y": 0.0651337712,
				"z": -0.5446845712,
				"element": "C" 
			},
			{
				"x": -1.8022897745,
				"y": -0.2184840601,
				"z": -0.2251310157,
				"element": "N" 
			},
			{
				"x": -1.5558655192,
				"y": -1.3086380725,
				"z": 0.7175379391,
				"element": "C" 
			},
			{
				"x": -1.4549536647,
				"y": -0.8042549873,
				"z": 2.1774188261,
				"element": "C" 
			},
			{
				"x": -1.0176506553,
				"y": -1.7965282606,
				"z": 3.1480615864,
				"element": "N" 
			},
			{
				"x": 0.2729139477,
				"y": -2.100385752,
				"z": 3.5335005885,
				"element": "C" 
			},
			{
				"x": 0.4821045879,
				"y": -2.8343221658,
				"z": 4.488850476,
				"element": "O" 
			},
			{
				"x": 1.4077077234,
				"y": -1.5083141061,
				"z": 2.6962064847,
				"element": "C" 
			},
			{
				"x": 1.7708597941,
				"y": -0.0460647944,
				"z": 3.0551187418,
				"element": "C" 
			},
			{
				"x": 2.5817242281,
				"y": 0.9175018761,
				"z": 1.7104377225,
				"element": "S" 
			},
			{
				"x": 1.1255827661,
				"y": 1.4289725363,
				"z": 0.7066709971,
				"element": "C" 
			},
			{
				"x": 0.625064676,
				"y": 0.3980486203,
				"z": -0.3387462014,
				"element": "C" 
			},
			{
				"x": -0.8375757965,
				"y": 0.6535420692,
				"z": -0.7016674634,
				"element": "C" 
			},
			{
				"x": -1.1273364577,
				"y": 1.628780066,
				"z": -1.3879721282,
				"element": "O" 
			},
			{
				"x": -3.224217767,
				"y": 0.8894316056,
				"z": -1.255102783,
				"element": "H" 
			},
			{
				"x": -3.7670902325,
				"y": 0.3519731747,
				"z": 0.3501337178,
				"element": "H" 
			},
			{
				"x": -3.6735932703,
				"y": -0.818480081,
				"z": -0.9873435434,
				"element": "H" 
			},
			{
				"x": -0.6509144388,
				"y": -1.8570965229,
				"z": 0.4486345514,
				"element": "H" 
			},
			{
				"x": -2.3790588944,
				"y": -2.0243213876,
				"z": 0.6283361017,
				"element": "H" 
			},
			{
				"x": -2.4328586298,
				"y": -0.4297009034,
				"z": 2.4956300132,
				"element": "H" 
			},
			{
				"x": -0.7855814252,
				"y": 0.056864002,
				"z": 2.1976507897,
				"element": "H" 
			},
			{
				"x": -1.7120473176,
				"y": -2.2130508816,
				"z": 3.7542478174,
				"element": "H" 
			},
			{
				"x": 1.1538589896,
				"y": -1.5826218803,
				"z": 1.6391127342,
				"element": "H" 
			},
			{
				"x": 2.2758083897,
				"y": -2.148905492,
				"z": 2.8606092046,
				"element": "H" 
			},
			{
				"x": 2.4820731378,
				"y": -0.0353600099,
				"z": 3.8847859669,
				"element": "H" 
			},
			{
				"x": 0.9000075475,
				"y": 0.5244648169,
				"z": 3.3920567822,
				"element": "H" 
			},
			{
				"x": 0.3307874126,
				"y": 1.7128781653,
				"z": 1.4036140118,
				"element": "H" 
			},
			{
				"x": 1.4238277006,
				"y": 2.348716252,
				"z": 0.1989584268,
				"element": "H" 
			},
			{
				"x": 1.1974709217,
				"y": 0.5231424035,
				"z": -1.2613171051,
				"element": "H" 
			},
			{
				"x": 0.8057911484,
				"y": -0.6165200016,
				"z": 0.0065913317,
				"element": "H" 
			}
		],
		 "valence_orbital": [ 
			{
				"type": "occ",
				"energy": -0.27038,
				"method": "rhf"
			},
			{
				"type": "occ",
				"energy": -0.25814,
				"method": "rhf"
			},
			{
				"type": "occ",
				"energy": -0.25419,
				"method": "rhf"
			},
			{
				"type": "occ",
				"energy": -0.24382,
				"method": "rhf"
			},
			{
				"type": "occ",
				"energy": -0.23041,
				"method": "rhf"
			},
			{
				"type": "unocc",
				"energy": 0.00359,
				"method": "rhf"
			},
			{
				"type": "unocc",
				"energy": 0.00617,
				"method": "rhf"
			},
			{
				"type": "unocc",
				"energy": 0.04477,
				"method": "rhf"
			},
			{
				"type": "unocc",
				"energy": 0.04984,
				"method": "rhf"
			},
			{
				"type": "unocc",
				"energy": 0.06063,
				"method": "rhf"
			}
		],
		"cosmo_sigma_profile": { 
			"0.0": 0.0,
			"0.0": 0.0,
			"0.0": 0.0,
			"0.0": 0.0,
			"0.0": 0.0,
			"0.0": 0.0,
			"0.0": 0.0,
			"0.0": 0.0,
			"0.0": 0.0,
			"0.0": 0.0,
			"0.0": 0.0,
			"0.0": 0.0,
			"0.0": 0.0,
			"0.0": 0.0,
			"0.0": 0.0,
			"0.0": 0.0,
			"0.0": 0.0,
			"0.0": 0.0,
			"0.0": 0.0,
			"0.0": 0.0,
			"0.0": 0.0,
			"0.0": 0.0,
			"0.0": 0.0,
			"0.0": 0.0,
			"0.0": 0.0,
			"0.0": 0.0,
			"0.0": 0.0,
			"0.0": 0.0,
			"0.0": 0.0,
			"0.0": 0.0,
			"0.0": 0.0,
			"0.0": 0.0,
			"0.0": 0.0,
			"0.0": 0.0,
			"0.0": 0.0,
			"0.0": 0.0,
			"0.0": 0.0,
			"0.0": 0.0,
			"0.0": 0.0,
			"0.0": 0.0,
			"0.0": 0.0,
			"0.0": 0.0,
			"0.0": 0.0,
			"0.0": 0.0,
			"0.0": 0.0,
			"0.0": 0.0,
			"0.0": 0.0,
			"0.0": 0.0,
			"0.0": 0.0,
			"0.0": 0.0,
			"0.0": 0.0
		}
	}
}
