{
	 "smiles": "CC(=O)CC(C1=CC=CC=C1)C1=C(O)C2=CC=CC=C2OC1=O", 
	 "Tm": 434.15, 
	 "num_atms": 39, 
	 "gaussian": { 
		 "optdone": 1, 
		 "sigma_profile": "yes", 
		 "theory": "DFT", 
		 "functional": "B3LYP", 
		 "basiset": "6-31G**", 
		 "properties": { 
			 "R2extent": 7809.7818, 
			 "electric_dipole_moment_norm": 5.00754508417, 
			 "electric_quadrupole_moment_norm": 12.6391894515, 
			 "total_energy": -1034.5752139, 
			 "HOMO_LUMO_gap": 0.17231, 
			 "cosmo_polarized_energy": -18.88, 
			 "cosmo_cavitation_energy": 42.47, 
			 "cosmo_dispersion_energy": -29.24, 
			 "cosmo_repulsion_energy": 2.21, 
			 "cosmo_total_nonelectrostatic_energy": 15.44, 
			 "SMD_solvation_energy": 8.8 
		},
		"coords": [
			{
				"x": 3.908337221,
				"y": -0.3550153547,
				"z": -2.0456509986,
				"element": "C" 
			},
			{
				"x": 2.821676941,
				"y": -0.9168595167,
				"z": -1.1449599217,
				"element": "C" 
			},
			{
				"x": 2.7801281881,
				"y": -2.0949479935,
				"z": -0.8481192802,
				"element": "O" 
			},
			{
				"x": 1.8033594716,
				"y": 0.0867604939,
				"z": -0.6095242043,
				"element": "C" 
			},
			{
				"x": 0.6003420642,
				"y": -0.5598035068,
				"z": 0.1044206863,
				"element": "C" 
			},
			{
				"x": -0.298809221,
				"y": -1.4174932007,
				"z": -0.7870469342,
				"element": "C" 
			},
			{
				"x": -0.3168978583,
				"y": -1.3261899147,
				"z": -2.1875423647,
				"element": "C" 
			},
			{
				"x": -1.1693476217,
				"y": -2.1322938184,
				"z": -2.9516766732,
				"element": "C" 
			},
			{
				"x": -2.0162394438,
				"y": -3.0457967409,
				"z": -2.3288625453,
				"element": "C" 
			},
			{
				"x": -2.007020218,
				"y": -3.1504048879,
				"z": -0.9344878447,
				"element": "C" 
			},
			{
				"x": -1.1604437718,
				"y": -2.3459294189,
				"z": -0.1768078653,
				"element": "C" 
			},
			{
				"x": -0.1557222614,
				"y": 0.4896591076,
				"z": 0.9188122711,
				"element": "C" 
			},
			{
				"x": -1.2836559803,
				"y": 1.1677834443,
				"z": 0.5289117278,
				"element": "C" 
			},
			{
				"x": -1.9300507342,
				"y": 0.9962059963,
				"z": -0.6395470709,
				"element": "O" 
			},
			{
				"x": -1.8887616328,
				"y": 2.1649159783,
				"z": 1.3945222211,
				"element": "C" 
			},
			{
				"x": -3.0555755305,
				"y": 2.8756251551,
				"z": 1.0580485066,
				"element": "C" 
			},
			{
				"x": -3.582369261,
				"y": 3.812512343,
				"z": 1.936243687,
				"element": "C" 
			},
			{
				"x": -2.9516548268,
				"y": 4.0545251992,
				"z": 3.1662110196,
				"element": "C" 
			},
			{
				"x": -1.7980904699,
				"y": 3.3631260332,
				"z": 3.5175123752,
				"element": "C" 
			},
			{
				"x": -1.2727389353,
				"y": 2.4219259347,
				"z": 2.6284306661,
				"element": "C" 
			},
			{
				"x": -0.1401542496,
				"y": 1.7673365347,
				"z": 3.0067461662,
				"element": "O" 
			},
			{
				"x": 0.4725319519,
				"y": 0.8175302968,
				"z": 2.1953888165,
				"element": "C" 
			},
			{
				"x": 1.5050868629,
				"y": 0.3291954783,
				"z": 2.609043649,
				"element": "O" 
			},
			{
				"x": 4.654998067,
				"y": -1.1243484713,
				"z": -2.2468318963,
				"element": "H" 
			},
			{
				"x": 4.3851369998,
				"y": 0.5182616157,
				"z": -1.5868356654,
				"element": "H" 
			},
			{
				"x": 3.4717830964,
				"y": -0.0184742573,
				"z": -2.9940447263,
				"element": "H" 
			},
			{
				"x": 2.3381043163,
				"y": 0.7012373477,
				"z": 0.1264548221,
				"element": "H" 
			},
			{
				"x": 1.4994473823,
				"y": 0.7793199572,
				"z": -1.4049187236,
				"element": "H" 
			},
			{
				"x": 1.0390726123,
				"y": -1.2418868029,
				"z": 0.8390957836,
				"element": "H" 
			},
			{
				"x": 0.3435689143,
				"y": -0.6318823935,
				"z": -2.6980733461,
				"element": "H" 
			},
			{
				"x": -1.1603985398,
				"y": -2.0453440241,
				"z": -4.0343391327,
				"element": "H" 
			},
			{
				"x": -2.6752239845,
				"y": -3.6737603516,
				"z": -2.9208859107,
				"element": "H" 
			},
			{
				"x": -2.6587345707,
				"y": -3.8635433301,
				"z": -0.4379885962,
				"element": "H" 
			},
			{
				"x": -1.1570316729,
				"y": -2.4344460124,
				"z": 0.9063272776,
				"element": "H" 
			},
			{
				"x": -1.5606814522,
				"y": 0.2333127505,
				"z": -1.1198731098,
				"element": "H" 
			},
			{
				"x": -3.5302224267,
				"y": 2.6742724186,
				"z": 0.104741306,
				"element": "H" 
			},
			{
				"x": -4.4830668469,
				"y": 4.3571214359,
				"z": 1.6713967313,
				"element": "H" 
			},
			{
				"x": -3.365020063,
				"y": 4.7872910794,
				"z": 3.8527826821,
				"element": "H" 
			},
			{
				"x": -1.2912625161,
				"y": 3.5311013958,
				"z": 4.4614264152,
				"element": "H" 
			}
		],
		 "valence_orbital": [ 
			{
				"type": "occ",
				"energy": -0.26455,
				"method": "rhf"
			},
			{
				"type": "occ",
				"energy": -0.26022,
				"method": "rhf"
			},
			{
				"type": "occ",
				"energy": -0.24808,
				"method": "rhf"
			},
			{
				"type": "occ",
				"energy": -0.24472,
				"method": "rhf"
			},
			{
				"type": "occ",
				"energy": -0.22565,
				"method": "rhf"
			},
			{
				"type": "unocc",
				"energy": -0.05334,
				"method": "rhf"
			},
			{
				"type": "unocc",
				"energy": -0.02081,
				"method": "rhf"
			},
			{
				"type": "unocc",
				"energy": -0.01709,
				"method": "rhf"
			},
			{
				"type": "unocc",
				"energy": -0.00964,
				"method": "rhf"
			},
			{
				"type": "unocc",
				"energy": -0.0074,
				"method": "rhf"
			}
		],
		"cosmo_sigma_profile": { 
			"-0.025": 0.0,
			"-0.024": 0.0,
			"-0.023": 0.0,
			"-0.022": 0.0,
			"-0.021": 0.0,
			"-0.02": 0.0,
			"-0.019": 0.0,
			"-0.018": 0.0,
			"-0.017": 0.0,
			"-0.016": 0.0,
			"-0.015": 0.0,
			"-0.014": 0.0,
			"-0.013": 0.0,
			"-0.012": 0.000240670937724,
			"-0.011": 0.134063594224,
			"-0.01": 0.33304444614,
			"-0.009": 0.746953561974,
			"-0.008": 3.38194808601,
			"-0.007": 10.3508519315,
			"-0.006": 25.2628493908,
			"-0.005": 29.1245151818,
			"-0.004": 31.5841957065,
			"-0.003": 27.500306744,
			"-0.002": 23.3506569189,
			"-0.001": 24.6613012985,
			"0.0": 23.3700376445,
			"0.001": 23.3424206352,
			"0.002": 22.1026399515,
			"0.003": 22.2161585316,
			"0.004": 15.9773892225,
			"0.005": 9.79261809114,
			"0.006": 6.58546894451,
			"0.007": 6.2248613928,
			"0.008": 4.50171352419,
			"0.009": 4.72746439356,
			"0.01": 4.63254195682,
			"0.011": 5.43167129003,
			"0.012": 8.68491680367,
			"0.013": 4.53768054802,
			"0.014": 0.659563825842,
			"0.015": 0.0,
			"0.016": 0.0,
			"0.017": 0.0,
			"0.018": 0.0,
			"0.019": 0.0,
			"0.02": 0.0,
			"0.021": 0.0,
			"0.022": 0.0,
			"0.023": 0.0,
			"0.024": 0.0,
			"0.025": 0.0
		}
	}
}
