{
	 "smiles": "CCNC(=O)COC1=C(OC)C=C(C=O)C=C1", 
	 "Tm": 383.15, 
	 "num_atms": 32, 
	 "gaussian": { 
		 "optdone": 1, 
		 "sigma_profile": "yes", 
		 "theory": "DFT", 
		 "functional": "B3LYP", 
		 "basiset": "6-31G**", 
		 "properties": { 
			 "R2extent": 4953.7547, 
			 "electric_dipole_moment_norm": 3.0817034283, 
			 "electric_quadrupole_moment_norm": 24.0644332888, 
			 "total_energy": -821.943956106, 
			 "HOMO_LUMO_gap": 0.16581, 
			 "cosmo_polarized_energy": -17.59, 
			 "cosmo_cavitation_energy": 36.13, 
			 "cosmo_dispersion_energy": -24.35, 
			 "cosmo_repulsion_energy": 1.94, 
			 "cosmo_total_nonelectrostatic_energy": 13.71, 
			 "SMD_solvation_energy": 8.67 
		},
		"coords": [
			{
				"x": -1.899293417,
				"y": 0.653612862,
				"z": 4.0145356394,
				"element": "C" 
			},
			{
				"x": -1.318572063,
				"y": -0.4588594736,
				"z": 3.1378988968,
				"element": "C" 
			},
			{
				"x": -0.3406219256,
				"y": 0.0325931399,
				"z": 2.1759284673,
				"element": "N" 
			},
			{
				"x": 0.985218905,
				"y": -0.2774439244,
				"z": 2.2469656713,
				"element": "C" 
			},
			{
				"x": 1.4856831213,
				"y": -0.9705915932,
				"z": 3.1237862663,
				"element": "O" 
			},
			{
				"x": 1.8311769266,
				"y": 0.3074768191,
				"z": 1.1037034628,
				"element": "C" 
			},
			{
				"x": 1.9816291565,
				"y": -0.617408222,
				"z": 0.0115074832,
				"element": "O" 
			},
			{
				"x": 0.9329537152,
				"y": -1.0995497784,
				"z": -0.7119247629,
				"element": "C" 
			},
			{
				"x": -0.1783581403,
				"y": -0.3376457198,
				"z": -1.165339431,
				"element": "C" 
			},
			{
				"x": -0.2464257726,
				"y": 0.974365868,
				"z": -0.755280104,
				"element": "O" 
			},
			{
				"x": -1.1953575102,
				"y": 1.8246883884,
				"z": -1.3969680441,
				"element": "C" 
			},
			{
				"x": -1.1302705292,
				"y": -0.9360971962,
				"z": -1.9801101761,
				"element": "C" 
			},
			{
				"x": -1.0014005842,
				"y": -2.2787735384,
				"z": -2.3715804001,
				"element": "C" 
			},
			{
				"x": -2.0248184533,
				"y": -2.8825617561,
				"z": -3.2439765753,
				"element": "C" 
			},
			{
				"x": -3.0061203935,
				"y": -2.2978512875,
				"z": -3.6691913369,
				"element": "O" 
			},
			{
				"x": 0.0940883744,
				"y": -3.0269536619,
				"z": -1.9319140157,
				"element": "C" 
			},
			{
				"x": 1.0444146259,
				"y": -2.4377271688,
				"z": -1.105469559,
				"element": "C" 
			},
			{
				"x": -1.1097038514,
				"y": 1.1424650571,
				"z": 4.5926234616,
				"element": "H" 
			},
			{
				"x": -2.4033010187,
				"y": 1.417495635,
				"z": 3.4116412727,
				"element": "H" 
			},
			{
				"x": -2.6342759982,
				"y": 0.2426960981,
				"z": 4.714517432,
				"element": "H" 
			},
			{
				"x": -0.7962079589,
				"y": -1.1978059203,
				"z": 3.7492305312,
				"element": "H" 
			},
			{
				"x": -2.1218217388,
				"y": -0.9768475086,
				"z": 2.599023987,
				"element": "H" 
			},
			{
				"x": -0.6508673754,
				"y": 0.595264233,
				"z": 1.3945906025,
				"element": "H" 
			},
			{
				"x": 1.4409187136,
				"y": 1.2637992735,
				"z": 0.7505333583,
				"element": "H" 
			},
			{
				"x": 2.8446792979,
				"y": 0.4342727351,
				"z": 1.4838253362,
				"element": "H" 
			},
			{
				"x": -1.0050942723,
				"y": 2.8274266782,
				"z": -1.0119987244,
				"element": "H" 
			},
			{
				"x": -1.0587843932,
				"y": 1.8157469193,
				"z": -2.4839045596,
				"element": "H" 
			},
			{
				"x": -2.2258343509,
				"y": 1.5341727706,
				"z": -1.160518613,
				"element": "H" 
			},
			{
				"x": -1.9907674325,
				"y": -0.3901608576,
				"z": -2.3484668337,
				"element": "H" 
			},
			{
				"x": -1.8406774234,
				"y": -3.9490581489,
				"z": -3.502037484,
				"element": "H" 
			},
			{
				"x": 0.1981301261,
				"y": -4.0669789171,
				"z": -2.2296440731,
				"element": "H" 
			},
			{
				"x": 1.9051816402,
				"y": -2.9894618047,
				"z": -0.7436871756,
				"element": "H" 
			}
		],
		 "valence_orbital": [ 
			{
				"type": "occ",
				"energy": -0.25991,
				"method": "rhf"
			},
			{
				"type": "occ",
				"energy": -0.25451,
				"method": "rhf"
			},
			{
				"type": "occ",
				"energy": -0.25403,
				"method": "rhf"
			},
			{
				"type": "occ",
				"energy": -0.25046,
				"method": "rhf"
			},
			{
				"type": "occ",
				"energy": -0.22664,
				"method": "rhf"
			},
			{
				"type": "unocc",
				"energy": -0.06083,
				"method": "rhf"
			},
			{
				"type": "unocc",
				"energy": -0.00944,
				"method": "rhf"
			},
			{
				"type": "unocc",
				"energy": 0.01,
				"method": "rhf"
			},
			{
				"type": "unocc",
				"energy": 0.04289,
				"method": "rhf"
			},
			{
				"type": "unocc",
				"energy": 0.06539,
				"method": "rhf"
			}
		],
		"cosmo_sigma_profile": { 
			"-0.025": 0.0,
			"-0.024": 0.0,
			"-0.023": 0.0,
			"-0.022": 0.0,
			"-0.021": 0.0,
			"-0.02": 0.0,
			"-0.019": 0.0,
			"-0.018": 0.0,
			"-0.017": 0.0,
			"-0.016": 0.0,
			"-0.015": 0.0,
			"-0.014": 0.0,
			"-0.013": 0.0,
			"-0.012": 0.0,
			"-0.011": 0.0,
			"-0.01": 0.422331022819,
			"-0.009": 0.977646495378,
			"-0.008": 1.92833713912,
			"-0.007": 10.9733761338,
			"-0.006": 22.5198321814,
			"-0.005": 23.1648403638,
			"-0.004": 27.0585297637,
			"-0.003": 26.7057171471,
			"-0.002": 20.4269467049,
			"-0.001": 19.1700170932,
			"0.0": 20.5742077439,
			"0.001": 22.229368291,
			"0.002": 18.5858707873,
			"0.003": 15.5484642357,
			"0.004": 7.40390419086,
			"0.005": 5.65292830629,
			"0.006": 4.58436218684,
			"0.007": 3.93895970091,
			"0.008": 4.27920179048,
			"0.009": 4.99852584864,
			"0.01": 3.4440517776,
			"0.011": 5.32341311704,
			"0.012": 5.70805131107,
			"0.013": 5.31970953045,
			"0.014": 4.49213301038,
			"0.015": 0.760565426417,
			"0.016": 0.0,
			"0.017": 0.0,
			"0.018": 0.0,
			"0.019": 0.0,
			"0.02": 0.0,
			"0.021": 0.0,
			"0.022": 0.0,
			"0.023": 0.0,
			"0.024": 0.0,
			"0.025": 0.0
		}
	}
}
