{
	 "smiles": "CCC1(CC)C(=O)NC2=C1C=C(Br)C=C2", 
	 "Tm": 433.15, 
	 "num_atms": 29, 
	 "gaussian": { 
		 "optdone": 1, 
		 "sigma_profile": "yes", 
		 "theory": "DFT", 
		 "functional": "B3LYP", 
		 "basiset": "6-31G**", 
		 "properties": { 
			 "R2extent": 5590.7023, 
			 "electric_dipole_moment_norm": 1.16737730405, 
			 "electric_quadrupole_moment_norm": 19.2514800873, 
			 "total_energy": -3167.12464051, 
			 "HOMO_LUMO_gap": 0.19588, 
			 "cosmo_polarized_energy": -11.43, 
			 "cosmo_cavitation_energy": 32.73, 
			 "cosmo_dispersion_energy": -23.59, 
			 "cosmo_repulsion_energy": 1.85, 
			 "cosmo_total_nonelectrostatic_energy": 10.99, 
			 "SMD_solvation_energy": 4.66 
		},
		"coords": [
			{
				"x": -1.7704979453,
				"y": -0.4116836959,
				"z": -1.0491626702,
				"element": "C" 
			},
			{
				"x": -1.0443660131,
				"y": 0.9272305767,
				"z": -0.8889200699,
				"element": "C" 
			},
			{
				"x": -0.469198901,
				"y": 1.2955617106,
				"z": 0.5118958116,
				"element": "C" 
			},
			{
				"x": -1.5458312881,
				"y": 1.3851202933,
				"z": 1.6407158093,
				"element": "C" 
			},
			{
				"x": -1.9848662615,
				"y": 0.0855771309,
				"z": 2.3258664463,
				"element": "C" 
			},
			{
				"x": 0.0986792612,
				"y": 2.7349213353,
				"z": 0.3544073215,
				"element": "C" 
			},
			{
				"x": -0.5213311612,
				"y": 3.7337726987,
				"z": 0.044200248,
				"element": "O" 
			},
			{
				"x": 1.4521568795,
				"y": 2.6842347978,
				"z": 0.6363988236,
				"element": "N" 
			},
			{
				"x": 1.8796271921,
				"y": 1.3906819815,
				"z": 0.9452457313,
				"element": "C" 
			},
			{
				"x": 0.7800692583,
				"y": 0.5115775576,
				"z": 0.8909609635,
				"element": "C" 
			},
			{
				"x": 0.9823705702,
				"y": -0.8384385409,
				"z": 1.1526825329,
				"element": "C" 
			},
			{
				"x": 2.2748519881,
				"y": -1.2792972576,
				"z": 1.4668948941,
				"element": "C" 
			},
			{
				"x": 2.5572370986,
				"y": -3.1376405527,
				"z": 1.8300141726,
				"element": "Br" 
			},
			{
				"x": 3.3548518381,
				"y": -0.4030926347,
				"z": 1.5232334367,
				"element": "C" 
			},
			{
				"x": 3.1623816551,
				"y": 0.9578507461,
				"z": 1.2581947979,
				"element": "C" 
			},
			{
				"x": -2.6961747589,
				"y": -0.4521651759,
				"z": -0.4693639461,
				"element": "H" 
			},
			{
				"x": -1.1455033284,
				"y": -1.2618642445,
				"z": -0.7599062766,
				"element": "H" 
			},
			{
				"x": -2.0417615007,
				"y": -0.5537270571,
				"z": -2.1005171626,
				"element": "H" 
			},
			{
				"x": -0.2127923321,
				"y": 0.9622344032,
				"z": -1.604305766,
				"element": "H" 
			},
			{
				"x": -1.719371527,
				"y": 1.7451166126,
				"z": -1.1664116722,
				"element": "H" 
			},
			{
				"x": -2.410806628,
				"y": 1.903534167,
				"z": 1.2118593028,
				"element": "H" 
			},
			{
				"x": -1.1588590086,
				"y": 2.0535557457,
				"z": 2.4196559538,
				"element": "H" 
			},
			{
				"x": -1.154782436,
				"y": -0.3863765257,
				"z": 2.8587909505,
				"element": "H" 
			},
			{
				"x": -2.7603918076,
				"y": 0.3105041025,
				"z": 3.0655489253,
				"element": "H" 
			},
			{
				"x": -2.3995219679,
				"y": -0.6483780555,
				"z": 1.6312659871,
				"element": "H" 
			},
			{
				"x": 2.0385560078,
				"y": 3.5052516152,
				"z": 0.5991925504,
				"element": "H" 
			},
			{
				"x": 0.1670737977,
				"y": -1.5498668745,
				"z": 1.1223677268,
				"element": "H" 
			},
			{
				"x": 4.3425592919,
				"y": -0.7744872575,
				"z": 1.7705837882,
				"element": "H" 
			},
			{
				"x": 3.9996420267,
				"y": 1.6478923977,
				"z": 1.2965113894,
				"element": "H" 
			}
		],
		 "valence_orbital": [ 
			{
				"type": "occ",
				"energy": -0.28733,
				"method": "rhf"
			},
			{
				"type": "occ",
				"energy": -0.28649,
				"method": "rhf"
			},
			{
				"type": "occ",
				"energy": -0.26516,
				"method": "rhf"
			},
			{
				"type": "occ",
				"energy": -0.25727,
				"method": "rhf"
			},
			{
				"type": "occ",
				"energy": -0.21943,
				"method": "rhf"
			},
			{
				"type": "unocc",
				"energy": -0.02355,
				"method": "rhf"
			},
			{
				"type": "unocc",
				"energy": -0.01616,
				"method": "rhf"
			},
			{
				"type": "unocc",
				"energy": 0.00576,
				"method": "rhf"
			},
			{
				"type": "unocc",
				"energy": 0.02908,
				"method": "rhf"
			},
			{
				"type": "unocc",
				"energy": 0.07756,
				"method": "rhf"
			}
		],
		"cosmo_sigma_profile": { 
			"-0.025": 0.0,
			"-0.024": 0.0,
			"-0.023": 0.0,
			"-0.022": 0.0,
			"-0.021": 0.0,
			"-0.02": 0.0,
			"-0.019": 0.0,
			"-0.018": 0.0,
			"-0.017": 0.0,
			"-0.016": 0.716131089642,
			"-0.015": 1.28512635208,
			"-0.014": 1.50240929386,
			"-0.013": 1.32044812534,
			"-0.012": 0.978218765843,
			"-0.011": 0.572389543541,
			"-0.01": 1.48075259452,
			"-0.009": 1.22681213293,
			"-0.008": 1.6938338279,
			"-0.007": 4.00585936306,
			"-0.006": 6.7343258293,
			"-0.005": 7.45240433483,
			"-0.004": 14.4795874354,
			"-0.003": 23.4860689301,
			"-0.002": 27.6977477758,
			"-0.001": 30.4607818857,
			"0.0": 29.8063044672,
			"0.001": 24.2554668776,
			"0.002": 15.3483057437,
			"0.003": 18.9389481293,
			"0.004": 17.1207086925,
			"0.005": 11.3736916221,
			"0.006": 2.37742468938,
			"0.007": 1.13882178567,
			"0.008": 1.15603524773,
			"0.009": 1.48708184176,
			"0.01": 1.66456668064,
			"0.011": 1.91239087623,
			"0.012": 2.96154247106,
			"0.013": 5.63268514322,
			"0.014": 1.05061487906,
			"0.015": 0.0,
			"0.016": 0.0,
			"0.017": 0.0,
			"0.018": 0.0,
			"0.019": 0.0,
			"0.02": 0.0,
			"0.021": 0.0,
			"0.022": 0.0,
			"0.023": 0.0,
			"0.024": 0.0,
			"0.025": 0.0
		}
	}
}
