{
	 "smiles": "COC(=O)C1=CC=CN=C1", 
	 "Tm": 315.35, 
	 "num_atms": 17, 
	 "gaussian": { 
		 "optdone": 1, 
		 "sigma_profile": "yes", 
		 "theory": "DFT", 
		 "functional": "B3LYP", 
		 "basiset": "6-31G**", 
		 "properties": { 
			 "R2extent": 2774.1146, 
			 "electric_dipole_moment_norm": 3.58476165177, 
			 "electric_quadrupole_moment_norm": 14.9983605214, 
			 "total_energy": -476.164102663, 
			 "HOMO_LUMO_gap": 0.20237, 
			 "cosmo_polarized_energy": -9.04, 
			 "cosmo_cavitation_energy": 21.71, 
			 "cosmo_dispersion_energy": -16.12, 
			 "cosmo_repulsion_energy": 1.3, 
			 "cosmo_total_nonelectrostatic_energy": 6.9, 
			 "SMD_solvation_energy": 4.08 
		},
		"coords": [
			{
				"x": 0.0721401442,
				"y": 2.2957378359,
				"z": -0.1364720964,
				"element": "C" 
			},
			{
				"x": 0.4038115279,
				"y": 0.9649348197,
				"z": 0.2921259692,
				"element": "O" 
			},
			{
				"x": 1.564182229,
				"y": 0.8542318415,
				"z": 0.9780490593,
				"element": "C" 
			},
			{
				"x": 2.2872183262,
				"y": 1.7991304725,
				"z": 1.2242122933,
				"element": "O" 
			},
			{
				"x": 1.8427388428,
				"y": -0.5493327155,
				"z": 1.3896691607,
				"element": "C" 
			},
			{
				"x": 0.9925067517,
				"y": -1.6204897602,
				"z": 1.0926157971,
				"element": "C" 
			},
			{
				"x": 1.352129002,
				"y": -2.8928140746,
				"z": 1.5273894798,
				"element": "C" 
			},
			{
				"x": 2.5441546219,
				"y": -3.0425483853,
				"z": 2.2397540754,
				"element": "C" 
			},
			{
				"x": 3.3702848951,
				"y": -2.0289257983,
				"z": 2.5332724482,
				"element": "N" 
			},
			{
				"x": 3.0161596342,
				"y": -0.8120361397,
				"z": 2.111583103,
				"element": "C" 
			},
			{
				"x": -0.0270817568,
				"y": 2.9626484904,
				"z": 0.7235762184,
				"element": "H" 
			},
			{
				"x": -0.8767788201,
				"y": 2.2067859831,
				"z": -0.6648151771,
				"element": "H" 
			},
			{
				"x": 0.8464200548,
				"y": 2.6898964891,
				"z": -0.799374053,
				"element": "H" 
			},
			{
				"x": 0.077741457,
				"y": -1.4502235021,
				"z": 0.5360204994,
				"element": "H" 
			},
			{
				"x": 0.7253096561,
				"y": -3.7545246594,
				"z": 1.3212955095,
				"element": "H" 
			},
			{
				"x": 2.8510322466,
				"y": -4.0257808512,
				"z": 2.5924172555,
				"element": "H" 
			},
			{
				"x": 3.6848311875,
				"y": 0.0116099541,
				"z": 2.3485804577,
				"element": "H" 
			}
		],
		 "valence_orbital": [ 
			{
				"type": "occ",
				"energy": -0.3088,
				"method": "rhf"
			},
			{
				"type": "occ",
				"energy": -0.29591,
				"method": "rhf"
			},
			{
				"type": "occ",
				"energy": -0.28384,
				"method": "rhf"
			},
			{
				"type": "occ",
				"energy": -0.27123,
				"method": "rhf"
			},
			{
				"type": "occ",
				"energy": -0.25917,
				"method": "rhf"
			},
			{
				"type": "unocc",
				"energy": -0.0568,
				"method": "rhf"
			},
			{
				"type": "unocc",
				"energy": -0.02834,
				"method": "rhf"
			},
			{
				"type": "unocc",
				"energy": 0.04584,
				"method": "rhf"
			},
			{
				"type": "unocc",
				"energy": 0.09457,
				"method": "rhf"
			},
			{
				"type": "unocc",
				"energy": 0.11176,
				"method": "rhf"
			}
		],
		"cosmo_sigma_profile": { 
			"-0.025": 0.0,
			"-0.024": 0.0,
			"-0.023": 0.0,
			"-0.022": 0.0,
			"-0.021": 0.0,
			"-0.02": 0.0,
			"-0.019": 0.0,
			"-0.018": 0.0,
			"-0.017": 0.0,
			"-0.016": 0.0,
			"-0.015": 0.0,
			"-0.014": 0.0,
			"-0.013": 0.0,
			"-0.012": 0.0,
			"-0.011": 0.0,
			"-0.01": 0.0,
			"-0.009": 0.0,
			"-0.008": 1.05065110427,
			"-0.007": 7.12340444494,
			"-0.006": 13.4983286748,
			"-0.005": 13.6166269736,
			"-0.004": 13.5593088277,
			"-0.003": 15.0437180221,
			"-0.002": 12.4766041248,
			"-0.001": 14.9445564662,
			"0.0": 17.2469215603,
			"0.001": 16.0385403153,
			"0.002": 7.69605490897,
			"0.003": 6.07951708575,
			"0.004": 6.11330432289,
			"0.005": 3.79722005742,
			"0.006": 2.99362794014,
			"0.007": 2.62474176502,
			"0.008": 3.97721448935,
			"0.009": 1.98190175222,
			"0.01": 2.74085785437,
			"0.011": 4.23481981268,
			"0.012": 3.92799797975,
			"0.013": 1.13401134767,
			"0.014": 0.874796008978,
			"0.015": 0.667773946074,
			"0.016": 0.633147290006,
			"0.017": 0.0435384076208,
			"0.018": 0.0,
			"0.019": 0.0,
			"0.02": 0.0,
			"0.021": 0.0,
			"0.022": 0.0,
			"0.023": 0.0,
			"0.024": 0.0,
			"0.025": 0.0
		}
	}
}
