{
	 "smiles": "OC(=O)CCC1=CC=CO1", 
	 "Tm": 331.15, 
	 "num_atms": 18, 
	 "gaussian": { 
		 "optdone": 1, 
		 "sigma_profile": "yes", 
		 "theory": "DFT", 
		 "functional": "B3LYP", 
		 "basiset": "6-31G**", 
		 "properties": { 
			 "R2extent": 1871.661, 
			 "electric_dipole_moment_norm": 0.979168514608, 
			 "electric_quadrupole_moment_norm": 3.89612637115, 
			 "total_energy": -497.230115883, 
			 "HOMO_LUMO_gap": 0.22236, 
			 "cosmo_polarized_energy": -9.96, 
			 "cosmo_cavitation_energy": 22.67, 
			 "cosmo_dispersion_energy": -16.29, 
			 "cosmo_repulsion_energy": 1.35, 
			 "cosmo_total_nonelectrostatic_energy": 7.73, 
			 "SMD_solvation_energy": 5.84 
		},
		"coords": [
			{
				"x": 1.7864934857,
				"y": 1.6608051859,
				"z": -1.1967285289,
				"element": "O" 
			},
			{
				"x": 1.0566500075,
				"y": 0.9580521271,
				"z": -0.298404778,
				"element": "C" 
			},
			{
				"x": 1.496145963,
				"y": -0.0097474332,
				"z": 0.2838793317,
				"element": "O" 
			},
			{
				"x": -0.3202359181,
				"y": 1.5588432132,
				"z": -0.1036867138,
				"element": "C" 
			},
			{
				"x": -1.3074087652,
				"y": 0.5658157404,
				"z": 0.5356912463,
				"element": "C" 
			},
			{
				"x": -1.7424841099,
				"y": -0.5203156315,
				"z": -0.391502261,
				"element": "C" 
			},
			{
				"x": -1.3718558849,
				"y": -1.8214830224,
				"z": -0.564766597,
				"element": "C" 
			},
			{
				"x": -2.1470166506,
				"y": -2.3282009199,
				"z": -1.6609434573,
				"element": "C" 
			},
			{
				"x": -2.9301159227,
				"y": -1.2971362899,
				"z": -2.0776705305,
				"element": "C" 
			},
			{
				"x": -2.6982918591,
				"y": -0.1862809013,
				"z": -1.3181326962,
				"element": "O" 
			},
			{
				"x": 2.6568354892,
				"y": 1.2291231669,
				"z": -1.2342481908,
				"element": "H" 
			},
			{
				"x": -0.1937914254,
				"y": 2.4383454576,
				"z": 0.5417387425,
				"element": "H" 
			},
			{
				"x": -0.6896198803,
				"y": 1.9316220385,
				"z": -1.0633715146,
				"element": "H" 
			},
			{
				"x": -0.8333725218,
				"y": 0.110130121,
				"z": 1.4086201632,
				"element": "H" 
			},
			{
				"x": -2.1876246707,
				"y": 1.117935541,
				"z": 0.8832254421,
				"element": "H" 
			},
			{
				"x": -0.6260780611,
				"y": -2.3465531755,
				"z": 0.0139999952,
				"element": "H" 
			},
			{
				"x": -2.1214413088,
				"y": -3.3254711681,
				"z": -2.0763695279,
				"element": "H" 
			},
			{
				"x": -3.6727879668,
				"y": -1.18998405,
				"z": -2.8530301251,
				"element": "H" 
			}
		],
		 "valence_orbital": [ 
			{
				"type": "occ",
				"energy": -0.35343,
				"method": "rhf"
			},
			{
				"type": "occ",
				"energy": -0.31993,
				"method": "rhf"
			},
			{
				"type": "occ",
				"energy": -0.27765,
				"method": "rhf"
			},
			{
				"type": "occ",
				"energy": -0.26925,
				"method": "rhf"
			},
			{
				"type": "occ",
				"energy": -0.21504,
				"method": "rhf"
			},
			{
				"type": "unocc",
				"energy": 0.00732,
				"method": "rhf"
			},
			{
				"type": "unocc",
				"energy": 0.01986,
				"method": "rhf"
			},
			{
				"type": "unocc",
				"energy": 0.07545,
				"method": "rhf"
			},
			{
				"type": "unocc",
				"energy": 0.08215,
				"method": "rhf"
			},
			{
				"type": "unocc",
				"energy": 0.11061,
				"method": "rhf"
			}
		],
		"cosmo_sigma_profile": { 
			"-0.025": 0.0,
			"-0.024": 0.0,
			"-0.023": 0.0,
			"-0.022": 0.0,
			"-0.021": 0.0,
			"-0.02": 0.0,
			"-0.019": 0.0222180968716,
			"-0.018": 0.56945945058,
			"-0.017": 1.07149796302,
			"-0.016": 1.034118442,
			"-0.015": 0.36724338724,
			"-0.014": 0.408605877282,
			"-0.013": 0.608680739398,
			"-0.012": 1.0083835833,
			"-0.011": 1.03350134779,
			"-0.01": 0.882812221847,
			"-0.009": 0.920387349212,
			"-0.008": 2.11095171724,
			"-0.007": 5.55768479775,
			"-0.006": 8.88734130938,
			"-0.005": 12.3267609907,
			"-0.004": 13.6407952911,
			"-0.003": 14.7099769149,
			"-0.002": 13.1408556127,
			"-0.001": 11.8573287195,
			"0.0": 10.1561793288,
			"0.001": 8.32259052976,
			"0.002": 7.7550202442,
			"0.003": 10.3480139882,
			"0.004": 11.1314259144,
			"0.005": 10.2867002635,
			"0.006": 9.53950415566,
			"0.007": 4.80484936107,
			"0.008": 3.89793962971,
			"0.009": 4.60215402822,
			"0.01": 2.04496026626,
			"0.011": 3.19535490706,
			"0.012": 3.31400658741,
			"0.013": 0.189582931941,
			"0.014": 0.0,
			"0.015": 0.0,
			"0.016": 0.0,
			"0.017": 0.0,
			"0.018": 0.0,
			"0.019": 0.0,
			"0.02": 0.0,
			"0.021": 0.0,
			"0.022": 0.0,
			"0.023": 0.0,
			"0.024": 0.0,
			"0.025": 0.0
		}
	}
}
