{
	 "smiles": "NN1C(=O)CNC1=O", 
	 "Tm": 464.15, 
	 "num_atms": 13, 
	 "gaussian": { 
		 "optdone": 1, 
		 "sigma_profile": "yes", 
		 "theory": "DFT", 
		 "functional": "B3LYP", 
		 "basiset": "6-31G**", 
		 "properties": { 
			 "R2extent": 1356.2752, 
			 "electric_dipole_moment_norm": 2.85280126542, 
			 "electric_quadrupole_moment_norm": 19.7631728961, 
			 "total_energy": -432.029510399, 
			 "HOMO_LUMO_gap": 0.25339, 
			 "cosmo_polarized_energy": -18.87, 
			 "cosmo_cavitation_energy": 17.61, 
			 "cosmo_dispersion_energy": -13.32, 
			 "cosmo_repulsion_energy": 1.15, 
			 "cosmo_total_nonelectrostatic_energy": 5.43, 
			 "SMD_solvation_energy": 4.57 
		},
		"coords": [
			{
				"x": 1.4264391943,
				"y": 1.2102770214,
				"z": -1.0076981625,
				"element": "N" 
			},
			{
				"x": 1.3596180758,
				"y": -0.1353324953,
				"z": -0.6413952253,
				"element": "N" 
			},
			{
				"x": 2.2620964289,
				"y": -0.747663439,
				"z": 0.2175092733,
				"element": "C" 
			},
			{
				"x": 3.2282645165,
				"y": -0.2642296211,
				"z": 0.7578450797,
				"element": "O" 
			},
			{
				"x": 1.7682707671,
				"y": -2.1985302487,
				"z": 0.3363535562,
				"element": "C" 
			},
			{
				"x": 0.6258366821,
				"y": -2.2341820724,
				"z": -0.5592378387,
				"element": "N" 
			},
			{
				"x": 0.3376118831,
				"y": -1.0081289495,
				"z": -1.0943208691,
				"element": "C" 
			},
			{
				"x": -0.5841364184,
				"y": -0.6766660231,
				"z": -1.8126349885,
				"element": "O" 
			},
			{
				"x": 0.5150688231,
				"y": 1.6245640763,
				"z": -0.8215306486,
				"element": "H" 
			},
			{
				"x": 1.5710200302,
				"y": 1.2571842953,
				"z": -2.0148125378,
				"element": "H" 
			},
			{
				"x": 1.5047890622,
				"y": -2.4065726411,
				"z": 1.3804859692,
				"element": "H" 
			},
			{
				"x": 2.5678913181,
				"y": -2.8857181444,
				"z": 0.0386065582,
				"element": "H" 
			},
			{
				"x": -0.045370363,
				"y": -2.9837017583,
				"z": -0.6127701661,
				"element": "H" 
			}
		],
		 "valence_orbital": [ 
			{
				"type": "occ",
				"energy": -0.29875,
				"method": "rhf"
			},
			{
				"type": "occ",
				"energy": -0.29211,
				"method": "rhf"
			},
			{
				"type": "occ",
				"energy": -0.28408,
				"method": "rhf"
			},
			{
				"type": "occ",
				"energy": -0.27129,
				"method": "rhf"
			},
			{
				"type": "occ",
				"energy": -0.26217,
				"method": "rhf"
			},
			{
				"type": "unocc",
				"energy": -0.00878,
				"method": "rhf"
			},
			{
				"type": "unocc",
				"energy": 0.05397,
				"method": "rhf"
			},
			{
				"type": "unocc",
				"energy": 0.0684,
				"method": "rhf"
			},
			{
				"type": "unocc",
				"energy": 0.07951,
				"method": "rhf"
			},
			{
				"type": "unocc",
				"energy": 0.10781,
				"method": "rhf"
			}
		],
		"cosmo_sigma_profile": { 
			"-0.025": 0.0,
			"-0.024": 0.0,
			"-0.023": 0.0,
			"-0.022": 0.0,
			"-0.021": 0.0,
			"-0.02": 0.0,
			"-0.019": 0.0,
			"-0.018": 0.0,
			"-0.017": 0.0,
			"-0.016": 0.368197075594,
			"-0.015": 1.51615614218,
			"-0.014": 1.23361883836,
			"-0.013": 2.68501214676,
			"-0.012": 4.14918584243,
			"-0.011": 3.65448692715,
			"-0.01": 3.39031014384,
			"-0.009": 3.62032868143,
			"-0.008": 8.06922134319,
			"-0.007": 8.43894515276,
			"-0.006": 9.68402593705,
			"-0.005": 10.0693984423,
			"-0.004": 6.4909625802,
			"-0.003": 4.23997021084,
			"-0.002": 4.51916294594,
			"-0.001": 4.29052533101,
			"0.0": 4.46927882864,
			"0.001": 3.24723533525,
			"0.002": 3.5376223101,
			"0.003": 3.6047554518,
			"0.004": 2.14995092102,
			"0.005": 2.71839531238,
			"0.006": 2.22360681122,
			"0.007": 2.2893443481,
			"0.008": 3.13636683829,
			"0.009": 3.82040512337,
			"0.01": 3.8407637223,
			"0.011": 4.96545434158,
			"0.012": 10.6058109021,
			"0.013": 7.5553803905,
			"0.014": 1.78138618718,
			"0.015": 1.48313478766,
			"0.016": 1.13631756354,
			"0.017": 0.283845477935,
			"0.018": 0.0,
			"0.019": 0.0,
			"0.02": 0.0,
			"0.021": 0.0,
			"0.022": 0.0,
			"0.023": 0.0,
			"0.024": 0.0,
			"0.025": 0.0
		}
	}
}
