{
	 "smiles": "CNC1=CC(=O)C2(C)CCC1C2(C)C", 
	 "Tm": 468.15, 
	 "num_atms": 33, 
	 "gaussian": { 
		 "optdone": 1, 
		 "sigma_profile": "yes", 
		 "theory": "DFT", 
		 "functional": "B3LYP", 
		 "basiset": "6-31G**", 
		 "properties": { 
			 "R2extent": 2666.6623, 
			 "electric_dipole_moment_norm": 5.98169379607, 
			 "electric_quadrupole_moment_norm": 19.3044506557, 
			 "total_energy": -598.705584641, 
			 "HOMO_LUMO_gap": 0.18849, 
			 "cosmo_polarized_energy": -15.32, 
			 "cosmo_cavitation_energy": 31.35, 
			 "cosmo_dispersion_energy": -22.19, 
			 "cosmo_repulsion_energy": 1.71, 
			 "cosmo_total_nonelectrostatic_energy": 10.87, 
			 "SMD_solvation_energy": 5.16 
		},
		"coords": [
			{
				"x": -2.0550881308,
				"y": 0.6676650095,
				"z": 2.9643596845,
				"element": "C" 
			},
			{
				"x": -0.7133041061,
				"y": 0.1179583619,
				"z": 2.8815806597,
				"element": "N" 
			},
			{
				"x": -0.0020581465,
				"y": -0.1342268824,
				"z": 1.7416452182,
				"element": "C" 
			},
			{
				"x": 1.1832025135,
				"y": -0.81589446,
				"z": 1.7624204818,
				"element": "C" 
			},
			{
				"x": 1.9450549409,
				"y": -1.0453046641,
				"z": 0.547771217,
				"element": "C" 
			},
			{
				"x": 3.0010759721,
				"y": -1.6769383048,
				"z": 0.5400418726,
				"element": "O" 
			},
			{
				"x": 1.3912962845,
				"y": -0.4017226659,
				"z": -0.753414795,
				"element": "C" 
			},
			{
				"x": 2.1017792044,
				"y": -0.9991504259,
				"z": -1.9668658344,
				"element": "C" 
			},
			{
				"x": 1.6230872116,
				"y": 1.1423580523,
				"z": -0.6148316214,
				"element": "C" 
			},
			{
				"x": 0.3741620004,
				"y": 1.7068337222,
				"z": 0.1152062408,
				"element": "C" 
			},
			{
				"x": -0.4914865443,
				"y": 0.4478753644,
				"z": 0.4310990403,
				"element": "C" 
			},
			{
				"x": -0.1744141414,
				"y": -0.5118485937,
				"z": -0.7558557045,
				"element": "C" 
			},
			{
				"x": -0.7967754506,
				"y": 0.0450511273,
				"z": -2.0552354839,
				"element": "C" 
			},
			{
				"x": -0.7180945729,
				"y": -1.9409350497,
				"z": -0.5756265125,
				"element": "C" 
			},
			{
				"x": -2.3126556021,
				"y": 0.7783652959,
				"z": 4.0198429056,
				"element": "H" 
			},
			{
				"x": -2.1158032959,
				"y": 1.6601375871,
				"z": 2.5060116423,
				"element": "H" 
			},
			{
				"x": -2.8141282108,
				"y": 0.0244710994,
				"z": 2.4983061562,
				"element": "H" 
			},
			{
				"x": -0.3478912656,
				"y": -0.3001815531,
				"z": 3.7243711551,
				"element": "H" 
			},
			{
				"x": 1.5886892488,
				"y": -1.2265320252,
				"z": 2.6839909472,
				"element": "H" 
			},
			{
				"x": 1.8145886687,
				"y": -0.4849496492,
				"z": -2.8889932576,
				"element": "H" 
			},
			{
				"x": 3.183521314,
				"y": -0.9184525653,
				"z": -1.8407263294,
				"element": "H" 
			},
			{
				"x": 1.8769476804,
				"y": -2.0645369525,
				"z": -2.0777174261,
				"element": "H" 
			},
			{
				"x": 2.5523648281,
				"y": 1.3522955707,
				"z": -0.0779197354,
				"element": "H" 
			},
			{
				"x": 1.7282937519,
				"y": 1.5905252644,
				"z": -1.6083085882,
				"element": "H" 
			},
			{
				"x": 0.6295252598,
				"y": 2.2554657964,
				"z": 1.0257397636,
				"element": "H" 
			},
			{
				"x": -0.1840005135,
				"y": 2.3951337524,
				"z": -0.5267957151,
				"element": "H" 
			},
			{
				"x": -1.558167485,
				"y": 0.6835821659,
				"z": 0.4804532255,
				"element": "H" 
			},
			{
				"x": -0.4204191215,
				"y": 1.0329780625,
				"z": -2.3309637415,
				"element": "H" 
			},
			{
				"x": -0.6005643889,
				"y": -0.6272595994,
				"z": -2.895495394,
				"element": "H" 
			},
			{
				"x": -1.885333948,
				"y": 0.1219953347,
				"z": -1.9477032885,
				"element": "H" 
			},
			{
				"x": -0.3571224626,
				"y": -2.4221335116,
				"z": 0.3341594265,
				"element": "H" 
			},
			{
				"x": -1.8142722187,
				"y": -1.9302897342,
				"z": -0.5427501171,
				"element": "H" 
			},
			{
				"x": -0.4276092741,
				"y": -2.56753493,
				"z": -1.4252960922,
				"element": "H" 
			}
		],
		 "valence_orbital": [ 
			{
				"type": "occ",
				"energy": -0.31046,
				"method": "rhf"
			},
			{
				"type": "occ",
				"energy": -0.3075,
				"method": "rhf"
			},
			{
				"type": "occ",
				"energy": -0.29009,
				"method": "rhf"
			},
			{
				"type": "occ",
				"energy": -0.20875,
				"method": "rhf"
			},
			{
				"type": "occ",
				"energy": -0.20102,
				"method": "rhf"
			},
			{
				"type": "unocc",
				"energy": -0.01253,
				"method": "rhf"
			},
			{
				"type": "unocc",
				"energy": 0.06705,
				"method": "rhf"
			},
			{
				"type": "unocc",
				"energy": 0.07408,
				"method": "rhf"
			},
			{
				"type": "unocc",
				"energy": 0.07877,
				"method": "rhf"
			},
			{
				"type": "unocc",
				"energy": 0.09861,
				"method": "rhf"
			}
		],
		"cosmo_sigma_profile": { 
			"-0.025": 0.0,
			"-0.024": 0.0,
			"-0.023": 0.0,
			"-0.022": 0.0,
			"-0.021": 0.0,
			"-0.02": 0.0,
			"-0.019": 0.0,
			"-0.018": 0.0,
			"-0.017": 0.0,
			"-0.016": 0.0,
			"-0.015": 0.0,
			"-0.014": 0.453841512195,
			"-0.013": 1.49500859451,
			"-0.012": 1.00998596092,
			"-0.011": 1.72563590653,
			"-0.01": 1.29203988375,
			"-0.009": 0.964253016544,
			"-0.008": 1.76149759174,
			"-0.007": 2.19930133191,
			"-0.006": 2.67533949363,
			"-0.005": 6.3655136714,
			"-0.004": 16.1215309492,
			"-0.003": 28.518589601,
			"-0.002": 37.9303965196,
			"-0.001": 30.1398660777,
			"0.0": 26.7812309488,
			"0.001": 28.0461523506,
			"0.002": 14.9516290118,
			"0.003": 5.19422128752,
			"0.004": 4.89032740097,
			"0.005": 4.16837517539,
			"0.006": 2.95044282673,
			"0.007": 1.56326859223,
			"0.008": 1.72426209722,
			"0.009": 1.63016722955,
			"0.01": 1.28153008797,
			"0.011": 1.77925714004,
			"0.012": 1.83453523006,
			"0.013": 2.03925285483,
			"0.014": 2.96817085959,
			"0.015": 5.48188092697,
			"0.016": 2.08171086391,
			"0.017": 0.135772614163,
			"0.018": 0.0,
			"0.019": 0.0,
			"0.02": 0.0,
			"0.021": 0.0,
			"0.022": 0.0,
			"0.023": 0.0,
			"0.024": 0.0,
			"0.025": 0.0
		}
	}
}
