{
	 "smiles": "ClCCC(=O)NCC1=CC=CC=C1", 
	 "Tm": 367.15, 
	 "num_atms": 25, 
	 "gaussian": { 
		 "optdone": 1, 
		 "sigma_profile": "yes", 
		 "theory": "DFT", 
		 "functional": "B3LYP", 
		 "basiset": "6-31G**", 
		 "properties": { 
			 "R2extent": 4052.9914, 
			 "electric_dipole_moment_norm": 4.13157921381, 
			 "electric_quadrupole_moment_norm": 15.5283598967, 
			 "total_energy": -978.484753094, 
			 "HOMO_LUMO_gap": 0.23529, 
			 "cosmo_polarized_energy": -14.57, 
			 "cosmo_cavitation_energy": 30.56, 
			 "cosmo_dispersion_energy": -21.44, 
			 "cosmo_repulsion_energy": 1.72, 
			 "cosmo_total_nonelectrostatic_energy": 10.84, 
			 "SMD_solvation_energy": 4.95 
		},
		"coords": [
			{
				"x": -2.7114243197,
				"y": 3.214813637,
				"z": 1.0081830566,
				"element": "Cl" 
			},
			{
				"x": -1.1829511818,
				"y": 3.3868839185,
				"z": 1.9836789245,
				"element": "C" 
			},
			{
				"x": -0.2347247214,
				"y": 2.2237682709,
				"z": 1.7357585353,
				"element": "C" 
			},
			{
				"x": 0.4764205916,
				"y": 2.3706838933,
				"z": 0.3852849033,
				"element": "C" 
			},
			{
				"x": 0.7116186139,
				"y": 3.4806155869,
				"z": -0.0775894406,
				"element": "O" 
			},
			{
				"x": 0.8787543655,
				"y": 1.2381193854,
				"z": -0.2680025046,
				"element": "N" 
			},
			{
				"x": 0.7129569993,
				"y": -0.164703994,
				"z": 0.0820171599,
				"element": "C" 
			},
			{
				"x": -0.2693174728,
				"y": -0.9213406281,
				"z": -0.8007436572,
				"element": "C" 
			},
			{
				"x": -1.4755707347,
				"y": -0.3389825594,
				"z": -1.2098063203,
				"element": "C" 
			},
			{
				"x": -2.3815240686,
				"y": -1.063739195,
				"z": -1.9848063444,
				"element": "C" 
			},
			{
				"x": -2.0937931292,
				"y": -2.3776343263,
				"z": -2.3612812579,
				"element": "C" 
			},
			{
				"x": -0.892376859,
				"y": -2.9634345987,
				"z": -1.9601283373,
				"element": "C" 
			},
			{
				"x": 0.0143890711,
				"y": -2.2362468211,
				"z": -1.1870586623,
				"element": "C" 
			},
			{
				"x": -0.7230784425,
				"y": 4.3230910265,
				"z": 1.6708782489,
				"element": "H" 
			},
			{
				"x": -1.4957246912,
				"y": 3.4364844736,
				"z": 3.0264833728,
				"element": "H" 
			},
			{
				"x": -0.7684185059,
				"y": 1.2769334191,
				"z": 1.8416530329,
				"element": "H" 
			},
			{
				"x": 0.5402388078,
				"y": 2.2467551031,
				"z": 2.5152371725,
				"element": "H" 
			},
			{
				"x": 1.3197342037,
				"y": 1.4420255729,
				"z": -1.1568198129,
				"element": "H" 
			},
			{
				"x": 1.6912403929,
				"y": -0.6595237676,
				"z": 0.0375580612,
				"element": "H" 
			},
			{
				"x": 0.3996864895,
				"y": -0.223622254,
				"z": 1.1280246135,
				"element": "H" 
			},
			{
				"x": -1.7043981923,
				"y": 0.6850589537,
				"z": -0.9287980341,
				"element": "H" 
			},
			{
				"x": -3.3130777067,
				"y": -0.5998116062,
				"z": -2.2960899501,
				"element": "H" 
			},
			{
				"x": -2.7991961975,
				"y": -2.9387779581,
				"z": -2.9673237044,
				"element": "H" 
			},
			{
				"x": -0.6561736155,
				"y": -3.9820278335,
				"z": -2.2547411146,
				"element": "H" 
			},
			{
				"x": 0.9528103032,
				"y": -2.6947876987,
				"z": -0.8826679409,
				"element": "H" 
			}
		],
		 "valence_orbital": [ 
			{
				"type": "occ",
				"energy": -0.29094,
				"method": "rhf"
			},
			{
				"type": "occ",
				"energy": -0.26261,
				"method": "rhf"
			},
			{
				"type": "occ",
				"energy": -0.25541,
				"method": "rhf"
			},
			{
				"type": "occ",
				"energy": -0.25409,
				"method": "rhf"
			},
			{
				"type": "occ",
				"energy": -0.24555,
				"method": "rhf"
			},
			{
				"type": "unocc",
				"energy": -0.01026,
				"method": "rhf"
			},
			{
				"type": "unocc",
				"energy": -0.00735,
				"method": "rhf"
			},
			{
				"type": "unocc",
				"energy": 0.01909,
				"method": "rhf"
			},
			{
				"type": "unocc",
				"energy": 0.03009,
				"method": "rhf"
			},
			{
				"type": "unocc",
				"energy": 0.08328,
				"method": "rhf"
			}
		],
		"cosmo_sigma_profile": { 
			"-0.025": 0.0,
			"-0.024": 0.0,
			"-0.023": 0.0,
			"-0.022": 0.0,
			"-0.021": 0.0,
			"-0.02": 0.0,
			"-0.019": 0.0,
			"-0.018": 0.0,
			"-0.017": 0.0,
			"-0.016": 0.0,
			"-0.015": 0.0,
			"-0.014": 0.226302595047,
			"-0.013": 0.878000677988,
			"-0.012": 1.41511070923,
			"-0.011": 0.733593609235,
			"-0.01": 0.712686380771,
			"-0.009": 1.57248178104,
			"-0.008": 2.77900041499,
			"-0.007": 9.25519660473,
			"-0.006": 17.6615159431,
			"-0.005": 22.2249749652,
			"-0.004": 21.2578809234,
			"-0.003": 17.96180326,
			"-0.002": 14.2641628356,
			"-0.001": 12.6835838761,
			"0.0": 13.6576432398,
			"0.001": 13.1427964439,
			"0.002": 14.3392981776,
			"0.003": 13.6293540427,
			"0.004": 12.3912083046,
			"0.005": 13.8293105065,
			"0.006": 16.2298282347,
			"0.007": 7.34413100233,
			"0.008": 1.67265681862,
			"0.009": 1.27974250202,
			"0.01": 1.54267392937,
			"0.011": 1.39664898257,
			"0.012": 1.92939895873,
			"0.013": 3.65812945561,
			"0.014": 4.20662272387,
			"0.015": 0.473954433548,
			"0.016": 0.0,
			"0.017": 0.0,
			"0.018": 0.0,
			"0.019": 0.0,
			"0.02": 0.0,
			"0.021": 0.0,
			"0.022": 0.0,
			"0.023": 0.0,
			"0.024": 0.0,
			"0.025": 0.0
		}
	}
}
