{
	 "smiles": "NCCS", 
	 "Tm": 370.15, 
	 "num_atms": 11, 
	 "gaussian": { 
		 "optdone": 1, 
		 "sigma_profile": "yes", 
		 "theory": "DFT", 
		 "functional": "B3LYP", 
		 "basiset": "6-31G**", 
		 "properties": { 
			 "R2extent": 710.9202, 
			 "electric_dipole_moment_norm": 1.9335735052, 
			 "electric_quadrupole_moment_norm": 6.92692078921, 
			 "total_energy": -533.36399236, 
			 "HOMO_LUMO_gap": 0.26493, 
			 "cosmo_polarized_energy": -6.91, 
			 "cosmo_cavitation_energy": 15.19, 
			 "cosmo_dispersion_energy": -12.06, 
			 "cosmo_repulsion_energy": 1.05, 
			 "cosmo_total_nonelectrostatic_energy": 4.18, 
			 "SMD_solvation_energy": 1.04 
		},
		"coords": [
			{
				"x": -1.1515198687,
				"y": 0.4900711345,
				"z": -0.1889807415,
				"element": "N" 
			},
			{
				"x": -0.2026555834,
				"y": -0.586272952,
				"z": 0.1043268426,
				"element": "C" 
			},
			{
				"x": 0.8570567114,
				"y": -0.124766843,
				"z": 1.1048021666,
				"element": "C" 
			},
			{
				"x": 0.1808211679,
				"y": 0.3683491941,
				"z": 2.7503666528,
				"element": "S" 
			},
			{
				"x": -1.7045814847,
				"y": 0.2508963586,
				"z": -1.0073287983,
				"element": "H" 
			},
			{
				"x": -1.809175202,
				"y": 0.5758587495,
				"z": 0.5825227695,
				"element": "H" 
			},
			{
				"x": -0.6710947567,
				"y": -1.5107517701,
				"z": 0.4815577592,
				"element": "H" 
			},
			{
				"x": 0.3145761236,
				"y": -0.8456035912,
				"z": -0.828622728,
				"element": "H" 
			},
			{
				"x": 1.4243811618,
				"y": 0.7165405233,
				"z": 0.7003377428,
				"element": "H" 
			},
			{
				"x": 1.5544537778,
				"y": -0.939050133,
				"z": 1.3210201885,
				"element": "H" 
			},
			{
				"x": -0.3447620469,
				"y": 1.5427293293,
				"z": 2.3478981457,
				"element": "H" 
			}
		],
		 "valence_orbital": [ 
			{
				"type": "occ",
				"energy": -0.38667,
				"method": "rhf"
			},
			{
				"type": "occ",
				"energy": -0.36458,
				"method": "rhf"
			},
			{
				"type": "occ",
				"energy": -0.31944,
				"method": "rhf"
			},
			{
				"type": "occ",
				"energy": -0.24572,
				"method": "rhf"
			},
			{
				"type": "occ",
				"energy": -0.23267,
				"method": "rhf"
			},
			{
				"type": "unocc",
				"energy": 0.03226,
				"method": "rhf"
			},
			{
				"type": "unocc",
				"energy": 0.06666,
				"method": "rhf"
			},
			{
				"type": "unocc",
				"energy": 0.08996,
				"method": "rhf"
			},
			{
				"type": "unocc",
				"energy": 0.12078,
				"method": "rhf"
			},
			{
				"type": "unocc",
				"energy": 0.14419,
				"method": "rhf"
			}
		],
		"cosmo_sigma_profile": { 
			"-0.025": 0.0,
			"-0.024": 0.0,
			"-0.023": 0.0,
			"-0.022": 0.0,
			"-0.021": 0.0,
			"-0.02": 0.0,
			"-0.019": 0.0,
			"-0.018": 0.0,
			"-0.017": 0.0,
			"-0.016": 0.0,
			"-0.015": 0.0,
			"-0.014": 0.0,
			"-0.013": 0.0,
			"-0.012": 0.0,
			"-0.011": 0.000117285507452,
			"-0.01": 0.857663131302,
			"-0.009": 2.34104270683,
			"-0.008": 3.39031395225,
			"-0.007": 4.5041364782,
			"-0.006": 6.38057201244,
			"-0.005": 7.79703257193,
			"-0.004": 10.9035535197,
			"-0.003": 11.0693486401,
			"-0.002": 13.1333906847,
			"-0.001": 11.6776934542,
			"0.0": 5.50754129347,
			"0.001": 3.80599033088,
			"0.002": 4.15361573906,
			"0.003": 3.00090424107,
			"0.004": 4.07910284841,
			"0.005": 4.60044357625,
			"0.006": 4.57037222599,
			"0.007": 2.93806680534,
			"0.008": 3.61162704756,
			"0.009": 2.8828374057,
			"0.01": 2.55702565998,
			"0.011": 1.70533644348,
			"0.012": 0.683352675212,
			"0.013": 0.97911193366,
			"0.014": 0.556278133874,
			"0.015": 0.469615034608,
			"0.016": 0.517353972438,
			"0.017": 0.473138230777,
			"0.018": 0.434633668845,
			"0.019": 0.564515177253,
			"0.02": 0.0304156389834,
			"0.021": 0.0,
			"0.022": 0.0,
			"0.023": 0.0,
			"0.024": 0.0,
			"0.025": 0.0
		}
	}
}
