{
	 "smiles": "CC1=CCCCC1", 
	 "Tm": 153.15, 
	 "num_atms": 19, 
	 "gaussian": { 
		 "optdone": 1, 
		 "sigma_profile": "yes", 
		 "theory": "DFT", 
		 "functional": "B3LYP", 
		 "basiset": "6-31G**", 
		 "properties": { 
			 "R2extent": 1442.4919, 
			 "electric_dipole_moment_norm": 0.224585930102, 
			 "electric_quadrupole_moment_norm": 1.61015657624, 
			 "total_energy": -273.979661121, 
			 "HOMO_LUMO_gap": 0.26031, 
			 "cosmo_polarized_energy": -1.22, 
			 "cosmo_cavitation_energy": 19.97, 
			 "cosmo_dispersion_energy": -15.21, 
			 "cosmo_repulsion_energy": 1.3, 
			 "cosmo_total_nonelectrostatic_energy": 6.06, 
			 "SMD_solvation_energy": 2.93 
		},
		"coords": [
			{
				"x": -0.9016884244,
				"y": 0.2209430385,
				"z": -2.586885976,
				"element": "C" 
			},
			{
				"x": 0.3537869195,
				"y": 0.1291158276,
				"z": -1.758685337,
				"element": "C" 
			},
			{
				"x": 0.3343139226,
				"y": 0.2023908534,
				"z": -0.4204202487,
				"element": "C" 
			},
			{
				"x": 1.5539364796,
				"y": 0.0817196692,
				"z": 0.4604630643,
				"element": "C" 
			},
			{
				"x": 2.7667486688,
				"y": -0.4763301573,
				"z": -0.2990350258,
				"element": "C" 
			},
			{
				"x": 2.8980385063,
				"y": 0.1930267116,
				"z": -1.6721126642,
				"element": "C" 
			},
			{
				"x": 1.6473067101,
				"y": -0.0617136315,
				"z": -2.5263067679,
				"element": "C" 
			},
			{
				"x": -1.7941431082,
				"y": 0.3261252305,
				"z": -1.9632217834,
				"element": "H" 
			},
			{
				"x": -0.8629844081,
				"y": 1.0762095799,
				"z": -3.274862847,
				"element": "H" 
			},
			{
				"x": -1.0290939474,
				"y": -0.6731596852,
				"z": -3.2123698693,
				"element": "H" 
			},
			{
				"x": -0.6195119385,
				"y": 0.3572194384,
				"z": 0.0839309143,
				"element": "H" 
			},
			{
				"x": 1.3227899276,
				"y": -0.5558529755,
				"z": 1.3243823719,
				"element": "H" 
			},
			{
				"x": 1.7993673015,
				"y": 1.0682151572,
				"z": 0.8847154508,
				"element": "H" 
			},
			{
				"x": 2.6405569931,
				"y": -1.5585169017,
				"z": -0.4378336714,
				"element": "H" 
			},
			{
				"x": 3.6807844628,
				"y": -0.3378876085,
				"z": 0.2899213759,
				"element": "H" 
			},
			{
				"x": 3.791669492,
				"y": -0.1652918634,
				"z": -2.1961933223,
				"element": "H" 
			},
			{
				"x": 3.0270897669,
				"y": 1.2748700569,
				"z": -1.5331169577,
				"element": "H" 
			},
			{
				"x": 1.6497464556,
				"y": 0.5994449914,
				"z": -3.4042450259,
				"element": "H" 
			},
			{
				"x": 1.67218622,
				"y": -1.0843277314,
				"z": -2.9352236804,
				"element": "H" 
			}
		],
		 "valence_orbital": [ 
			{
				"type": "occ",
				"energy": -0.35465,
				"method": "rhf"
			},
			{
				"type": "occ",
				"energy": -0.32049,
				"method": "rhf"
			},
			{
				"type": "occ",
				"energy": -0.30902,
				"method": "rhf"
			},
			{
				"type": "occ",
				"energy": -0.29681,
				"method": "rhf"
			},
			{
				"type": "occ",
				"energy": -0.22419,
				"method": "rhf"
			},
			{
				"type": "unocc",
				"energy": 0.03612,
				"method": "rhf"
			},
			{
				"type": "unocc",
				"energy": 0.0927,
				"method": "rhf"
			},
			{
				"type": "unocc",
				"energy": 0.11806,
				"method": "rhf"
			},
			{
				"type": "unocc",
				"energy": 0.13189,
				"method": "rhf"
			},
			{
				"type": "unocc",
				"energy": 0.13479,
				"method": "rhf"
			}
		],
		"cosmo_sigma_profile": { 
			"-0.025": 0.0,
			"-0.024": 0.0,
			"-0.023": 0.0,
			"-0.022": 0.0,
			"-0.021": 0.0,
			"-0.02": 0.0,
			"-0.019": 0.0,
			"-0.018": 0.0,
			"-0.017": 0.0,
			"-0.016": 0.0,
			"-0.015": 0.0,
			"-0.014": 0.0,
			"-0.013": 0.0,
			"-0.012": 0.0,
			"-0.011": 0.0,
			"-0.01": 0.0,
			"-0.009": 0.0,
			"-0.008": 0.0,
			"-0.007": 0.0,
			"-0.006": 0.0,
			"-0.005": 0.0,
			"-0.004": 0.520181625758,
			"-0.003": 11.3584680005,
			"-0.002": 26.6560989812,
			"-0.001": 30.1262015023,
			"0.0": 34.0784662435,
			"0.001": 27.121299557,
			"0.002": 9.36465141602,
			"0.003": 3.56040092552,
			"0.004": 3.27091587212,
			"0.005": 3.21073584289,
			"0.006": 2.43045811811,
			"0.007": 1.8766329986,
			"0.008": 0.76002930948,
			"0.009": 0.0,
			"0.01": 0.0,
			"0.011": 0.0,
			"0.012": 0.0,
			"0.013": 0.0,
			"0.014": 0.0,
			"0.015": 0.0,
			"0.016": 0.0,
			"0.017": 0.0,
			"0.018": 0.0,
			"0.019": 0.0,
			"0.02": 0.0,
			"0.021": 0.0,
			"0.022": 0.0,
			"0.023": 0.0,
			"0.024": 0.0,
			"0.025": 0.0
		}
	}
}
