{
	 "smiles": "N#CC1=CC2=CC=CC=C2C=C1", 
	 "Tm": 338.65, 
	 "num_atms": 19, 
	 "gaussian": { 
		 "optdone": 1, 
		 "sigma_profile": "yes", 
		 "theory": "DFT", 
		 "functional": "B3LYP", 
		 "basiset": "6-31G**", 
		 "properties": { 
			 "R2extent": 2678.0524, 
			 "electric_dipole_moment_norm": 5.08730244236, 
			 "electric_quadrupole_moment_norm": 11.4730473977, 
			 "total_energy": -478.136359649, 
			 "HOMO_LUMO_gap": 0.16841, 
			 "cosmo_polarized_energy": -9.25, 
			 "cosmo_cavitation_energy": 24.23, 
			 "cosmo_dispersion_energy": -17.46, 
			 "cosmo_repulsion_energy": 1.36, 
			 "cosmo_total_nonelectrostatic_energy": 8.13, 
			 "SMD_solvation_energy": 5.29 
		},
		"coords": [
			{
				"x": -0.0407442531,
				"y": -1.9330693647,
				"z": -3.2466851781,
				"element": "N" 
			},
			{
				"x": -0.0783902828,
				"y": -0.9967752189,
				"z": -2.5569092726,
				"element": "C" 
			},
			{
				"x": -0.121495335,
				"y": 0.1620707375,
				"z": -1.7136237363,
				"element": "C" 
			},
			{
				"x": -0.5884601572,
				"y": 0.0575150262,
				"z": -0.4130719295,
				"element": "C" 
			},
			{
				"x": -0.6364783835,
				"y": 1.1941153984,
				"z": 0.4309183767,
				"element": "C" 
			},
			{
				"x": -1.1105557354,
				"y": 1.1167750595,
				"z": 1.769129785,
				"element": "C" 
			},
			{
				"x": -1.145919151,
				"y": 2.2377475709,
				"z": 2.5665063025,
				"element": "C" 
			},
			{
				"x": -0.708801337,
				"y": 3.4879415894,
				"z": 2.0624418395,
				"element": "C" 
			},
			{
				"x": -0.244141325,
				"y": 3.5956531695,
				"z": 0.770548932,
				"element": "C" 
			},
			{
				"x": -0.1940728668,
				"y": 2.4594477335,
				"z": -0.0792137681,
				"element": "C" 
			},
			{
				"x": 0.2794472406,
				"y": 2.5328632275,
				"z": -1.4182244808,
				"element": "C" 
			},
			{
				"x": 0.3184003967,
				"y": 1.4200506408,
				"z": -2.2210132297,
				"element": "C" 
			},
			{
				"x": -0.9217114586,
				"y": -0.9036128327,
				"z": -0.033651615,
				"element": "H" 
			},
			{
				"x": -1.4447487505,
				"y": 0.1560432877,
				"z": 2.1515109623,
				"element": "H" 
			},
			{
				"x": -1.5097410359,
				"y": 2.1683224433,
				"z": 3.5872311934,
				"element": "H" 
			},
			{
				"x": -0.7420884895,
				"y": 4.3646696803,
				"z": 2.7024476276,
				"element": "H" 
			},
			{
				"x": 0.0911774301,
				"y": 4.554173946,
				"z": 0.383482904,
				"element": "H" 
			},
			{
				"x": 0.6142109617,
				"y": 3.4922230357,
				"z": -1.8031403183,
				"element": "H" 
			},
			{
				"x": 0.6804125324,
				"y": 1.4811448702,
				"z": -3.2415843945,
				"element": "H" 
			}
		],
		 "valence_orbital": [ 
			{
				"type": "occ",
				"energy": -0.32793,
				"method": "rhf"
			},
			{
				"type": "occ",
				"energy": -0.32593,
				"method": "rhf"
			},
			{
				"type": "occ",
				"energy": -0.3022,
				"method": "rhf"
			},
			{
				"type": "occ",
				"energy": -0.25983,
				"method": "rhf"
			},
			{
				"type": "occ",
				"energy": -0.23519,
				"method": "rhf"
			},
			{
				"type": "unocc",
				"energy": -0.06678,
				"method": "rhf"
			},
			{
				"type": "unocc",
				"energy": -0.03945,
				"method": "rhf"
			},
			{
				"type": "unocc",
				"energy": 0.01009,
				"method": "rhf"
			},
			{
				"type": "unocc",
				"energy": 0.03867,
				"method": "rhf"
			},
			{
				"type": "unocc",
				"energy": 0.04885,
				"method": "rhf"
			}
		],
		"cosmo_sigma_profile": { 
			"-0.025": 0.0,
			"-0.024": 0.0,
			"-0.023": 0.0,
			"-0.022": 0.0,
			"-0.021": 0.0,
			"-0.02": 0.0,
			"-0.019": 0.0,
			"-0.018": 0.0,
			"-0.017": 0.0,
			"-0.016": 0.0,
			"-0.015": 0.0,
			"-0.014": 0.0,
			"-0.013": 0.0,
			"-0.012": 0.0,
			"-0.011": 0.0,
			"-0.01": 0.0,
			"-0.009": 0.0131161267889,
			"-0.008": 3.12768051972,
			"-0.007": 10.3474544342,
			"-0.006": 15.8658456521,
			"-0.005": 14.4589460043,
			"-0.004": 13.1350813628,
			"-0.003": 10.3477256933,
			"-0.002": 10.8605606006,
			"-0.001": 13.5553263017,
			"0.0": 12.6301093163,
			"0.001": 15.5301939456,
			"0.002": 22.8615001295,
			"0.003": 17.7008202523,
			"0.004": 10.6038896616,
			"0.005": 2.76952327694,
			"0.006": 2.76659436802,
			"0.007": 2.64887507689,
			"0.008": 3.31784539992,
			"0.009": 3.44453223138,
			"0.01": 3.32158180128,
			"0.011": 2.7356822108,
			"0.012": 2.61033258862,
			"0.013": 1.67919764558,
			"0.014": 0.127204653881,
			"0.015": 0.0,
			"0.016": 0.0,
			"0.017": 0.0,
			"0.018": 0.0,
			"0.019": 0.0,
			"0.02": 0.0,
			"0.021": 0.0,
			"0.022": 0.0,
			"0.023": 0.0,
			"0.024": 0.0,
			"0.025": 0.0
		}
	}
}
