{
	 "smiles": "CCN(CC)S(=O)(=O)C1=CC(C(O)=O)=C(O)C=C1", 
	 "Tm": 403.15, 
	 "num_atms": 33, 
	 "gaussian": { 
		 "optdone": 1, 
		 "sigma_profile": "yes", 
		 "theory": "DFT", 
		 "functional": "B3LYP", 
		 "basiset": "6-31G**", 
		 "properties": { 
			 "R2extent": 6820.3032, 
			 "electric_dipole_moment_norm": 3.60343498762, 
			 "electric_quadrupole_moment_norm": 18.7810614801, 
			 "total_energy": -1257.22080588, 
			 "HOMO_LUMO_gap": 0.17141, 
			 "cosmo_polarized_energy": -20.83, 
			 "cosmo_cavitation_energy": 36.99, 
			 "cosmo_dispersion_energy": -26.41, 
			 "cosmo_repulsion_energy": 2.0, 
			 "cosmo_total_nonelectrostatic_energy": 12.58, 
			 "SMD_solvation_energy": 6.69 
		},
		"coords": [
			{
				"x": -1.6487309545,
				"y": -3.7511923889,
				"z": -1.4217843648,
				"element": "C" 
			},
			{
				"x": -1.1621958764,
				"y": -2.4171767105,
				"z": -0.8575316859,
				"element": "C" 
			},
			{
				"x": 0.3110609534,
				"y": -2.2808459678,
				"z": -0.8867322417,
				"element": "N" 
			},
			{
				"x": 1.0181093683,
				"y": -2.2056037938,
				"z": 0.4035973158,
				"element": "C" 
			},
			{
				"x": 0.9742290048,
				"y": -3.5357543816,
				"z": 1.1567662187,
				"element": "C" 
			},
			{
				"x": 0.9813001615,
				"y": -1.4936352207,
				"z": -2.2069362997,
				"element": "S" 
			},
			{
				"x": 2.4331255205,
				"y": -1.6809548571,
				"z": -2.116180673,
				"element": "O" 
			},
			{
				"x": 0.2052008765,
				"y": -1.9186826173,
				"z": -3.373788351,
				"element": "O" 
			},
			{
				"x": 0.6833316146,
				"y": 0.2663237686,
				"z": -2.0080057461,
				"element": "C" 
			},
			{
				"x": 1.6243024409,
				"y": 1.0466512521,
				"z": -1.3504595345,
				"element": "C" 
			},
			{
				"x": 1.4074547205,
				"y": 2.4184134332,
				"z": -1.1483030378,
				"element": "C" 
			},
			{
				"x": 2.393227218,
				"y": 3.3027114148,
				"z": -0.4856671356,
				"element": "C" 
			},
			{
				"x": 3.6237644621,
				"y": 2.8323806522,
				"z": -0.2157910367,
				"element": "O" 
			},
			{
				"x": 2.1312006363,
				"y": 4.4597981046,
				"z": -0.1728489424,
				"element": "O" 
			},
			{
				"x": 0.1842664417,
				"y": 2.9954685,
				"z": -1.5962450032,
				"element": "C" 
			},
			{
				"x": -0.1182631663,
				"y": 4.2780153775,
				"z": -1.399590947,
				"element": "O" 
			},
			{
				"x": -0.7431022089,
				"y": 2.1960240756,
				"z": -2.2924798984,
				"element": "C" 
			},
			{
				"x": -0.4961348982,
				"y": 0.851162846,
				"z": -2.5025379217,
				"element": "C" 
			},
			{
				"x": -2.7407056445,
				"y": -3.8127633062,
				"z": -1.3556671407,
				"element": "H" 
			},
			{
				"x": -1.2217929547,
				"y": -4.5907600267,
				"z": -0.8656904136,
				"element": "H" 
			},
			{
				"x": -1.3550431299,
				"y": -3.8450040245,
				"z": -2.469122627,
				"element": "H" 
			},
			{
				"x": -1.4710194244,
				"y": -2.3036342813,
				"z": 0.1872931058,
				"element": "H" 
			},
			{
				"x": -1.627898507,
				"y": -1.589295117,
				"z": -1.4033714183,
				"element": "H" 
			},
			{
				"x": 2.0575866087,
				"y": -1.9521999375,
				"z": 0.1904745838,
				"element": "H" 
			},
			{
				"x": 0.5916843317,
				"y": -1.4021612828,
				"z": 1.0244335919,
				"element": "H" 
			},
			{
				"x": 1.5234692633,
				"y": -3.4446036383,
				"z": 2.0995637496,
				"element": "H" 
			},
			{
				"x": -0.0499723709,
				"y": -3.8359821768,
				"z": 1.3988360371,
				"element": "H" 
			},
			{
				"x": 1.4335634125,
				"y": -4.3281574808,
				"z": 0.5599228042,
				"element": "H" 
			},
			{
				"x": 2.5315526106,
				"y": 0.557027196,
				"z": -1.0078341822,
				"element": "H" 
			},
			{
				"x": 3.7658495623,
				"y": 1.9656204526,
				"z": -0.6207932251,
				"element": "H" 
			},
			{
				"x": 0.6269380266,
				"y": 4.6725249328,
				"z": -0.8747205841,
				"element": "H" 
			},
			{
				"x": -1.6474895395,
				"y": 2.6689470902,
				"z": -2.6591841735,
				"element": "H" 
			},
			{
				"x": -1.1949685598,
				"y": 0.2442381135,
				"z": -3.0678208229,
				"element": "H" 
			}
		],
		 "valence_orbital": [ 
			{
				"type": "occ",
				"energy": -0.30799,
				"method": "rhf"
			},
			{
				"type": "occ",
				"energy": -0.30063,
				"method": "rhf"
			},
			{
				"type": "occ",
				"energy": -0.29362,
				"method": "rhf"
			},
			{
				"type": "occ",
				"energy": -0.27153,
				"method": "rhf"
			},
			{
				"type": "occ",
				"energy": -0.24666,
				"method": "rhf"
			},
			{
				"type": "unocc",
				"energy": -0.07525,
				"method": "rhf"
			},
			{
				"type": "unocc",
				"energy": -0.04062,
				"method": "rhf"
			},
			{
				"type": "unocc",
				"energy": 0.01944,
				"method": "rhf"
			},
			{
				"type": "unocc",
				"energy": 0.03252,
				"method": "rhf"
			},
			{
				"type": "unocc",
				"energy": 0.05928,
				"method": "rhf"
			}
		],
		"cosmo_sigma_profile": { 
			"-0.025": 0.0,
			"-0.024": 0.0,
			"-0.023": 0.0,
			"-0.022": 0.0,
			"-0.021": 0.165033054099,
			"-0.02": 1.17330578884,
			"-0.019": 0.633834966604,
			"-0.018": 1.03027256796,
			"-0.017": 1.00049104193,
			"-0.016": 0.664995662747,
			"-0.015": 0.721929917735,
			"-0.014": 1.30434753345,
			"-0.013": 1.01974784416,
			"-0.012": 1.05342031193,
			"-0.011": 0.96544786678,
			"-0.01": 0.694062413357,
			"-0.009": 1.14052420659,
			"-0.008": 3.07878706559,
			"-0.007": 6.40757860401,
			"-0.006": 9.95373289317,
			"-0.005": 16.2949632061,
			"-0.004": 24.181848813,
			"-0.003": 32.0470770625,
			"-0.002": 25.8550630963,
			"-0.001": 24.300437119,
			"0.0": 28.4433262691,
			"0.001": 20.8959998012,
			"0.002": 8.64482796885,
			"0.003": 8.65858432656,
			"0.004": 7.09625088521,
			"0.005": 8.22961519145,
			"0.006": 8.010025159,
			"0.007": 7.54149775189,
			"0.008": 8.21133716225,
			"0.009": 9.28938148438,
			"0.01": 10.4241083307,
			"0.011": 9.17060066615,
			"0.012": 4.70299110197,
			"0.013": 0.0109744643706,
			"0.014": 0.0,
			"0.015": 0.0,
			"0.016": 0.0,
			"0.017": 0.0,
			"0.018": 0.0,
			"0.019": 0.0,
			"0.02": 0.0,
			"0.021": 0.0,
			"0.022": 0.0,
			"0.023": 0.0,
			"0.024": 0.0,
			"0.0": 0.0
		}
	}
}
