{
	 "smiles": "FC(F)(F)C1=C(Cl)C=CC(=C1)N=C=O", 
	 "Tm": 308.65, 
	 "num_atms": 17, 
	 "gaussian": { 
		 "optdone": 1, 
		 "sigma_profile": "yes", 
		 "theory": "DFT", 
		 "functional": "B3LYP", 
		 "basiset": "6-31G**", 
		 "properties": { 
			 "R2extent": 3780.7064, 
			 "electric_dipole_moment_norm": 1.87156169548, 
			 "electric_quadrupole_moment_norm": 11.4530722721, 
			 "total_energy": -1196.34773057, 
			 "HOMO_LUMO_gap": 0.19637, 
			 "cosmo_polarized_energy": -6.05, 
			 "cosmo_cavitation_energy": 26.39, 
			 "cosmo_dispersion_energy": -18.67, 
			 "cosmo_repulsion_energy": 1.41, 
			 "cosmo_total_nonelectrostatic_energy": 9.13, 
			 "SMD_solvation_energy": 7.74 
		},
		"coords": [
			{
				"x": -0.187149908,
				"y": 1.3457483268,
				"z": -1.9925387403,
				"element": "F" 
			},
			{
				"x": -0.3848616428,
				"y": 1.5889286042,
				"z": -0.6818374847,
				"element": "C" 
			},
			{
				"x": 0.0725529962,
				"y": 2.829867923,
				"z": -0.423829816,
				"element": "F" 
			},
			{
				"x": -1.7202052645,
				"y": 1.6062006063,
				"z": -0.4770928902,
				"element": "F" 
			},
			{
				"x": 0.2910194635,
				"y": 0.5505689957,
				"z": 0.1882623157,
				"element": "C" 
			},
			{
				"x": 1.6785949858,
				"y": 0.3402065084,
				"z": 0.15797815,
				"element": "C" 
			},
			{
				"x": 2.7320670814,
				"y": 1.2648344737,
				"z": -0.8897812499,
				"element": "Cl" 
			},
			{
				"x": 2.2588599273,
				"y": -0.6287481086,
				"z": 0.9777468467,
				"element": "C" 
			},
			{
				"x": 1.4712851494,
				"y": -1.393879221,
				"z": 1.8306922977,
				"element": "C" 
			},
			{
				"x": 0.0851106567,
				"y": -1.1925556725,
				"z": 1.8692547135,
				"element": "C" 
			},
			{
				"x": -0.4928821268,
				"y": -0.2209238787,
				"z": 1.0466008033,
				"element": "C" 
			},
			{
				"x": -0.7541761523,
				"y": -1.9289325924,
				"z": 2.7036758908,
				"element": "N" 
			},
			{
				"x": -0.6905349552,
				"y": -2.814100815,
				"z": 3.528146649,
				"element": "C" 
			},
			{
				"x": -0.7682741493,
				"y": -3.6613648771,
				"z": 4.3408414605,
				"element": "O" 
			},
			{
				"x": 3.331830823,
				"y": -0.7796195817,
				"z": 0.9432132654,
				"element": "H" 
			},
			{
				"x": 1.9300011971,
				"y": -2.1456530443,
				"z": 2.4653638479,
				"element": "H" 
			},
			{
				"x": -1.5638380817,
				"y": -0.0690776468,
				"z": 1.0799039405,
				"element": "H" 
			}
		],
		 "valence_orbital": [ 
			{
				"type": "occ",
				"energy": -0.32755,
				"method": "rhf"
			},
			{
				"type": "occ",
				"energy": -0.32575,
				"method": "rhf"
			},
			{
				"type": "occ",
				"energy": -0.32487,
				"method": "rhf"
			},
			{
				"type": "occ",
				"energy": -0.29391,
				"method": "rhf"
			},
			{
				"type": "occ",
				"energy": -0.25197,
				"method": "rhf"
			},
			{
				"type": "unocc",
				"energy": -0.0556,
				"method": "rhf"
			},
			{
				"type": "unocc",
				"energy": -0.04202,
				"method": "rhf"
			},
			{
				"type": "unocc",
				"energy": -0.00761,
				"method": "rhf"
			},
			{
				"type": "unocc",
				"energy": 0.01755,
				"method": "rhf"
			},
			{
				"type": "unocc",
				"energy": 0.04933,
				"method": "rhf"
			}
		],
		"cosmo_sigma_profile": { 
			"-0.025": 0.0,
			"-0.024": 0.0,
			"-0.023": 0.0,
			"-0.022": 0.0,
			"-0.021": 0.0,
			"-0.02": 0.0,
			"-0.019": 0.0,
			"-0.018": 0.0,
			"-0.017": 0.0,
			"-0.016": 0.0,
			"-0.015": 0.0,
			"-0.014": 0.0,
			"-0.013": 0.0,
			"-0.012": 0.0,
			"-0.011": 0.0,
			"-0.01": 0.437986239848,
			"-0.009": 3.57581664899,
			"-0.008": 5.04690174028,
			"-0.007": 6.44178479084,
			"-0.006": 5.82955561125,
			"-0.005": 5.97334864118,
			"-0.004": 9.46463040355,
			"-0.003": 13.689520941,
			"-0.002": 11.962553633,
			"-0.001": 18.5689602653,
			"0.0": 28.6124939016,
			"0.001": 21.8499923473,
			"0.002": 30.4456420834,
			"0.003": 27.3699644619,
			"0.004": 13.8676539248,
			"0.005": 2.23522445295,
			"0.006": 3.93477642274,
			"0.007": 7.20048003478,
			"0.008": 0.123391726175,
			"0.009": 0.0,
			"0.01": 0.0,
			"0.011": 0.0,
			"0.012": 0.0,
			"0.013": 0.0,
			"0.014": 0.0,
			"0.015": 0.0,
			"0.016": 0.0,
			"0.017": 0.0,
			"0.018": 0.0,
			"0.019": 0.0,
			"0.02": 0.0,
			"0.021": 0.0,
			"0.022": 0.0,
			"0.023": 0.0,
			"0.024": 0.0,
			"0.025": 0.0
		}
	}
}
