{
	 "smiles": "OC(=O)CC1OCCC2=C1C=CC=C2", 
	 "Tm": 348.15, 
	 "num_atms": 26, 
	 "gaussian": { 
		 "optdone": 1, 
		 "sigma_profile": "yes", 
		 "theory": "DFT", 
		 "functional": "B3LYP", 
		 "basiset": "6-31G**", 
		 "properties": { 
			 "R2extent": 2884.3741, 
			 "electric_dipole_moment_norm": 2.15737022553, 
			 "electric_quadrupole_moment_norm": 8.94463704797, 
			 "total_energy": -652.085271668, 
			 "HOMO_LUMO_gap": 0.22983, 
			 "cosmo_polarized_energy": -11.34, 
			 "cosmo_cavitation_energy": 28.41, 
			 "cosmo_dispersion_energy": -21.0, 
			 "cosmo_repulsion_energy": 1.66, 
			 "cosmo_total_nonelectrostatic_energy": 9.07, 
			 "SMD_solvation_energy": 5.36 
		},
		"coords": [
			{
				"x": -1.4239974841,
				"y": -3.11862933,
				"z": -2.4268900755,
				"element": "O" 
			},
			{
				"x": -0.4414620851,
				"y": -2.2161067538,
				"z": -2.1999027795,
				"element": "C" 
			},
			{
				"x": 0.1049430246,
				"y": -1.6139090851,
				"z": -3.1007569105,
				"element": "O" 
			},
			{
				"x": -0.1158057806,
				"y": -2.1159907848,
				"z": -0.7268525005,
				"element": "C" 
			},
			{
				"x": 0.7703579958,
				"y": -0.9036272171,
				"z": -0.3482495223,
				"element": "C" 
			},
			{
				"x": 1.5653083753,
				"y": -1.2344090134,
				"z": 0.7889345873,
				"element": "O" 
			},
			{
				"x": 0.8682743953,
				"y": -1.1360271723,
				"z": 2.0267311202,
				"element": "C" 
			},
			{
				"x": 0.5123972126,
				"y": 0.3179496205,
				"z": 2.3149178232,
				"element": "C" 
			},
			{
				"x": -0.169547591,
				"y": 0.9517583967,
				"z": 1.120225101,
				"element": "C" 
			},
			{
				"x": -0.0232471029,
				"y": 0.386044875,
				"z": -0.1578308632,
				"element": "C" 
			},
			{
				"x": -0.6146205982,
				"y": 1.017554925,
				"z": -1.2621368595,
				"element": "C" 
			},
			{
				"x": -1.3575784654,
				"y": 2.1853303159,
				"z": -1.1026063251,
				"element": "C" 
			},
			{
				"x": -1.5180577395,
				"y": 2.7398052315,
				"z": 0.1692617916,
				"element": "C" 
			},
			{
				"x": -0.9224847457,
				"y": 2.124236845,
				"z": 1.2671261786,
				"element": "C" 
			},
			{
				"x": -1.5441219086,
				"y": -3.1508473377,
				"z": -3.3913164406,
				"element": "H" 
			},
			{
				"x": 0.4423157592,
				"y": -3.0254836864,
				"z": -0.4691317304,
				"element": "H" 
			},
			{
				"x": -1.0502172084,
				"y": -2.1474894388,
				"z": -0.1592996559,
				"element": "H" 
			},
			{
				"x": 1.4890443882,
				"y": -0.761995238,
				"z": -1.1614929678,
				"element": "H" 
			},
			{
				"x": -0.0397682486,
				"y": -1.7592757005,
				"z": 2.0189356627,
				"element": "H" 
			},
			{
				"x": 1.5430864127,
				"y": -1.5421654982,
				"z": 2.7854110276,
				"element": "H" 
			},
			{
				"x": -0.1258322885,
				"y": 0.3851633418,
				"z": 3.2045851527,
				"element": "H" 
			},
			{
				"x": 1.4345128925,
				"y": 0.8689515683,
				"z": 2.543580523,
				"element": "H" 
			},
			{
				"x": -0.4750441081,
				"y": 0.5954177934,
				"z": -2.2522820991,
				"element": "H" 
			},
			{
				"x": -1.8044569141,
				"y": 2.6641107786,
				"z": -1.9693071944,
				"element": "H" 
			},
			{
				"x": -2.0985818943,
				"y": 3.6482259111,
				"z": 0.3031101016,
				"element": "H" 
			},
			{
				"x": -1.0368162929,
				"y": 2.5564066534,
				"z": 2.2588368549,
				"element": "H" 
			}
		],
		 "valence_orbital": [ 
			{
				"type": "occ",
				"energy": -0.30171,
				"method": "rhf"
			},
			{
				"type": "occ",
				"energy": -0.28231,
				"method": "rhf"
			},
			{
				"type": "occ",
				"energy": -0.25695,
				"method": "rhf"
			},
			{
				"type": "occ",
				"energy": -0.24124,
				"method": "rhf"
			},
			{
				"type": "occ",
				"energy": -0.23702,
				"method": "rhf"
			},
			{
				"type": "unocc",
				"energy": -0.00719,
				"method": "rhf"
			},
			{
				"type": "unocc",
				"energy": 0.00225,
				"method": "rhf"
			},
			{
				"type": "unocc",
				"energy": 0.0086,
				"method": "rhf"
			},
			{
				"type": "unocc",
				"energy": 0.0748,
				"method": "rhf"
			},
			{
				"type": "unocc",
				"energy": 0.0966,
				"method": "rhf"
			}
		],
		"cosmo_sigma_profile": { 
			"-0.025": 0.0,
			"-0.024": 0.0,
			"-0.023": 0.0,
			"-0.022": 0.0,
			"-0.021": 0.0,
			"-0.02": 0.0,
			"-0.019": 0.00138061951678,
			"-0.018": 0.710229985347,
			"-0.017": 1.04557310351,
			"-0.016": 0.590763614126,
			"-0.015": 0.840046772098,
			"-0.014": 1.11550412871,
			"-0.013": 0.76700371024,
			"-0.012": 0.546825699975,
			"-0.011": 0.898597763613,
			"-0.01": 0.532837243462,
			"-0.009": 0.279678102839,
			"-0.008": 0.930096988689,
			"-0.007": 2.62114572657,
			"-0.006": 6.37765729759,
			"-0.005": 14.6749828407,
			"-0.004": 23.3434399579,
			"-0.003": 27.1220463381,
			"-0.002": 21.3808210545,
			"-0.001": 18.6599179082,
			"0.0": 10.4868399188,
			"0.001": 11.3153984591,
			"0.002": 10.0544190163,
			"0.003": 10.3873801338,
			"0.004": 12.9551992946,
			"0.005": 10.6480059389,
			"0.006": 10.8426060191,
			"0.007": 4.16819582295,
			"0.008": 3.64428230399,
			"0.009": 4.53356460014,
			"0.01": 3.10390133304,
			"0.011": 4.7712823707,
			"0.012": 3.24728382629,
			"0.013": 1.41510277726,
			"0.014": 0.0786586995002,
			"0.015": 0.0,
			"0.016": 0.0,
			"0.017": 0.0,
			"0.018": 0.0,
			"0.019": 0.0,
			"0.02": 0.0,
			"0.021": 0.0,
			"0.022": 0.0,
			"0.023": 0.0,
			"0.024": 0.0,
			"0.025": 0.0
		}
	}
}
