{
	 "smiles": "BrCC(=O)C1=CC=C(C=C1)N1CCCC1=O", 
	 "Tm": 404.15, 
	 "num_atms": 28, 
	 "gaussian": { 
		 "optdone": 1, 
		 "sigma_profile": "yes", 
		 "theory": "DFT", 
		 "functional": "B3LYP", 
		 "basiset": "6-31G**", 
		 "properties": { 
			 "R2extent": 8803.6756, 
			 "electric_dipole_moment_norm": 6.38997468774, 
			 "electric_quadrupole_moment_norm": 10.6195543405, 
			 "total_energy": -3241.13411669, 
			 "HOMO_LUMO_gap": 0.16104, 
			 "cosmo_polarized_energy": -15.58, 
			 "cosmo_cavitation_energy": 33.49, 
			 "cosmo_dispersion_energy": -24.99, 
			 "cosmo_repulsion_energy": 1.94, 
			 "cosmo_total_nonelectrostatic_energy": 10.44, 
			 "SMD_solvation_energy": 4.99 
		},
		"coords": [
			{
				"x": 2.0947795614,
				"y": 1.1971581049,
				"z": 5.4445627734,
				"element": "Br" 
			},
			{
				"x": 0.1284227859,
				"y": 1.0527253174,
				"z": 5.2406115783,
				"element": "C" 
			},
			{
				"x": -0.3627826362,
				"y": 1.7977109096,
				"z": 4.0000612525,
				"element": "C" 
			},
			{
				"x": -0.9768344662,
				"y": 2.8420241685,
				"z": 4.1630189694,
				"element": "O" 
			},
			{
				"x": -0.1331738281,
				"y": 1.220871146,
				"z": 2.6506715381,
				"element": "C" 
			},
			{
				"x": 0.5625171593,
				"y": 0.0245101599,
				"z": 2.4261285747,
				"element": "C" 
			},
			{
				"x": 0.7238639124,
				"y": -0.4755074341,
				"z": 1.1392697497,
				"element": "C" 
			},
			{
				"x": 0.1927756696,
				"y": 0.2103311883,
				"z": 0.0294297056,
				"element": "C" 
			},
			{
				"x": -0.5091868446,
				"y": 1.4154084467,
				"z": 0.2490720443,
				"element": "C" 
			},
			{
				"x": -0.6610456968,
				"y": 1.899528179,
				"z": 1.5385705046,
				"element": "C" 
			},
			{
				"x": 0.3874750675,
				"y": -0.3109491171,
				"z": -1.2635866317,
				"element": "N" 
			},
			{
				"x": 1.2692853798,
				"y": -1.4630372079,
				"z": -1.504037876,
				"element": "C" 
			},
			{
				"x": 1.4300149507,
				"y": -1.4973726038,
				"z": -3.0337980807,
				"element": "C" 
			},
			{
				"x": 0.1321442668,
				"y": -0.8652817409,
				"z": -3.5438880762,
				"element": "C" 
			},
			{
				"x": -0.3020365929,
				"y": 0.0693788946,
				"z": -2.4191043523,
				"element": "C" 
			},
			{
				"x": -1.1192360972,
				"y": 0.9664572356,
				"z": -2.5136442543,
				"element": "O" 
			},
			{
				"x": -0.2997327777,
				"y": 1.5255097351,
				"z": 6.1206503488,
				"element": "H" 
			},
			{
				"x": -0.0930070734,
				"y": -0.0141212493,
				"z": 5.220048755,
				"element": "H" 
			},
			{
				"x": 1.0041456932,
				"y": -0.5222391632,
				"z": 3.2521685304,
				"element": "H" 
			},
			{
				"x": 1.2606776407,
				"y": -1.4067125554,
				"z": 1.0069507156,
				"element": "H" 
			},
			{
				"x": -0.930088031,
				"y": 1.9448218258,
				"z": -0.5926447224,
				"element": "H" 
			},
			{
				"x": -1.1986618321,
				"y": 2.825590728,
				"z": 1.7125415046,
				"element": "H" 
			},
			{
				"x": 2.2236169851,
				"y": -1.3257759671,
				"z": -0.9882854097,
				"element": "H" 
			},
			{
				"x": 0.8080012063,
				"y": -2.3847380475,
				"z": -1.1229043726,
				"element": "H" 
			},
			{
				"x": 1.6017090987,
				"y": -2.5112742177,
				"z": -3.4018989671,
				"element": "H" 
			},
			{
				"x": 2.2878509907,
				"y": -0.8843044832,
				"z": -3.3270955184,
				"element": "H" 
			},
			{
				"x": 0.2275950521,
				"y": -0.3084058878,
				"z": -4.4779327529,
				"element": "H" 
			},
			{
				"x": -0.6616895437,
				"y": -1.6097063643,
				"z": -3.6851355308,
				"element": "H" 
			}
		],
		 "valence_orbital": [ 
			{
				"type": "occ",
				"energy": -0.28084,
				"method": "rhf"
			},
			{
				"type": "occ",
				"energy": -0.26405,
				"method": "rhf"
			},
			{
				"type": "occ",
				"energy": -0.26053,
				"method": "rhf"
			},
			{
				"type": "occ",
				"energy": -0.25242,
				"method": "rhf"
			},
			{
				"type": "occ",
				"energy": -0.23105,
				"method": "rhf"
			},
			{
				"type": "unocc",
				"energy": -0.07001,
				"method": "rhf"
			},
			{
				"type": "unocc",
				"energy": -0.01645,
				"method": "rhf"
			},
			{
				"type": "unocc",
				"energy": -0.0117,
				"method": "rhf"
			},
			{
				"type": "unocc",
				"energy": 0.01639,
				"method": "rhf"
			},
			{
				"type": "unocc",
				"energy": 0.05947,
				"method": "rhf"
			}
		],
		"cosmo_sigma_profile": { 
			"-0.025": 0.0,
			"-0.024": 0.0,
			"-0.023": 0.0,
			"-0.022": 0.0,
			"-0.021": 0.0,
			"-0.02": 0.0,
			"-0.019": 0.0,
			"-0.018": 0.0,
			"-0.017": 0.0,
			"-0.016": 0.0,
			"-0.015": 0.0,
			"-0.014": 0.0,
			"-0.013": 0.0,
			"-0.012": 0.0,
			"-0.011": 0.0,
			"-0.01": 0.16497604752,
			"-0.009": 2.47075436543,
			"-0.008": 4.54616124543,
			"-0.007": 8.18184148667,
			"-0.006": 16.7655307128,
			"-0.005": 26.8291292736,
			"-0.004": 26.7948501111,
			"-0.003": 19.3367835458,
			"-0.002": 17.7016027959,
			"-0.001": 15.0425780302,
			"0.0": 13.6574907145,
			"0.001": 16.9514070706,
			"0.002": 16.7838991646,
			"0.003": 22.1757710494,
			"0.004": 17.3214109694,
			"0.005": 11.7495052858,
			"0.006": 4.676031254,
			"0.007": 3.34203575236,
			"0.008": 3.17453776928,
			"0.009": 2.96789277614,
			"0.01": 4.15355171413,
			"0.011": 6.73913128315,
			"0.012": 5.17536496411,
			"0.013": 2.53611849292,
			"0.014": 0.532593297108,
			"0.015": 0.0,
			"0.016": 0.0,
			"0.017": 0.0,
			"0.018": 0.0,
			"0.019": 0.0,
			"0.02": 0.0,
			"0.021": 0.0,
			"0.022": 0.0,
			"0.023": 0.0,
			"0.024": 0.0,
			"0.025": 0.0
		}
	}
}
