{
	 "smiles": "CC(C)C1=C(N=C(NC(=O)CCl)S1)C1=CC=CC=C1", 
	 "Tm": 410.15, 
	 "num_atms": 34, 
	 "gaussian": { 
		 "optdone": 1, 
		 "sigma_profile": "yes", 
		 "theory": "DFT", 
		 "functional": "B3LYP", 
		 "basiset": "6-31G**", 
		 "properties": { 
			 "R2extent": 8254.393, 
			 "electric_dipole_moment_norm": 5.39613843132, 
			 "electric_quadrupole_moment_norm": 16.0373719805, 
			 "total_energy": -1585.65257487, 
			 "HOMO_LUMO_gap": 0.17614, 
			 "cosmo_polarized_energy": -15.2, 
			 "cosmo_cavitation_energy": 40.57, 
			 "cosmo_dispersion_energy": -29.18, 
			 "cosmo_repulsion_energy": 2.25, 
			 "cosmo_total_nonelectrostatic_energy": 13.64, 
			 "SMD_solvation_energy": 5.85 
		},
		"coords": [
			{
				"x": -1.5945707194,
				"y": 1.1759385717,
				"z": 2.7975376249,
				"element": "C" 
			},
			{
				"x": -0.1283201909,
				"y": 1.0372799284,
				"z": 2.3401177501,
				"element": "C" 
			},
			{
				"x": 0.6803182064,
				"y": 0.1835172778,
				"z": 3.3370766788,
				"element": "C" 
			},
			{
				"x": -0.0152571351,
				"y": 0.5246271116,
				"z": 0.9241743281,
				"element": "C" 
			},
			{
				"x": 0.4077411584,
				"y": 1.1440131578,
				"z": -0.2299236694,
				"element": "C" 
			},
			{
				"x": 0.4872742759,
				"y": 0.3354155622,
				"z": -1.3538439869,
				"element": "N" 
			},
			{
				"x": 0.111041269,
				"y": -0.8819494777,
				"z": -1.1016185408,
				"element": "C" 
			},
			{
				"x": 0.0922133318,
				"y": -1.8188615183,
				"z": -2.127913175,
				"element": "N" 
			},
			{
				"x": -0.1638604461,
				"y": -3.1826698358,
				"z": -2.2262836819,
				"element": "C" 
			},
			{
				"x": -0.0712625872,
				"y": -3.7318864563,
				"z": -3.3047477296,
				"element": "O" 
			},
			{
				"x": -0.5564386719,
				"y": -3.8961813618,
				"z": -0.9337406302,
				"element": "C" 
			},
			{
				"x": -0.823243576,
				"y": -5.6452560557,
				"z": -1.1808557863,
				"element": "Cl" 
			},
			{
				"x": -0.3743121097,
				"y": -1.1639762822,
				"z": 0.5649091133,
				"element": "S" 
			},
			{
				"x": 0.818993839,
				"y": 2.5591413008,
				"z": -0.3843008821,
				"element": "C" 
			},
			{
				"x": 0.1441692225,
				"y": 3.6116260654,
				"z": 0.2551668952,
				"element": "C" 
			},
			{
				"x": 0.5622078327,
				"y": 4.9321820149,
				"z": 0.0863502524,
				"element": "C" 
			},
			{
				"x": 1.653110983,
				"y": 5.2247669549,
				"z": -0.7327806207,
				"element": "C" 
			},
			{
				"x": 2.3173104644,
				"y": 4.1875683886,
				"z": -1.3925513724,
				"element": "C" 
			},
			{
				"x": 1.902342252,
				"y": 2.8686645274,
				"z": -1.2245265494,
				"element": "C" 
			},
			{
				"x": -2.1695743236,
				"y": 1.8101586735,
				"z": 2.1160063745,
				"element": "H" 
			},
			{
				"x": -2.0886916161,
				"y": 0.1986051436,
				"z": 2.8365466954,
				"element": "H" 
			},
			{
				"x": -1.6441577676,
				"y": 1.6151276321,
				"z": 3.7994935462,
				"element": "H" 
			},
			{
				"x": 0.3194184942,
				"y": 2.0367468414,
				"z": 2.3287114799,
				"element": "H" 
			},
			{
				"x": 0.6537007204,
				"y": 0.638537125,
				"z": 4.3324934353,
				"element": "H" 
			},
			{
				"x": 0.2685324103,
				"y": -0.8281916099,
				"z": 3.4259961828,
				"element": "H" 
			},
			{
				"x": 1.7258608936,
				"y": 0.096581144,
				"z": 3.0279426721,
				"element": "H" 
			},
			{
				"x": 0.3566958197,
				"y": -1.4125180408,
				"z": -3.020081763,
				"element": "H" 
			},
			{
				"x": -1.480993503,
				"y": -3.4721792348,
				"z": -0.5340700032,
				"element": "H" 
			},
			{
				"x": 0.227548052,
				"y": -3.7805291234,
				"z": -0.1816458147,
				"element": "H" 
			},
			{
				"x": -0.7329206155,
				"y": 3.4027025905,
				"z": 0.8588023441,
				"element": "H" 
			},
			{
				"x": 0.0240003904,
				"y": 5.7334102639,
				"z": 0.584722749,
				"element": "H" 
			},
			{
				"x": 1.9764476176,
				"y": 6.2530952358,
				"z": -0.865696832,
				"element": "H" 
			},
			{
				"x": 3.1605854151,
				"y": 4.4072073884,
				"z": -2.0411839454,
				"element": "H" 
			},
			{
				"x": 2.4095906138,
				"y": 2.0622860972,
				"z": -1.743383139,
				"element": "H" 
			}
		],
		 "valence_orbital": [ 
			{
				"type": "occ",
				"energy": -0.2934,
				"method": "rhf"
			},
			{
				"type": "occ",
				"energy": -0.27896,
				"method": "rhf"
			},
			{
				"type": "occ",
				"energy": -0.25858,
				"method": "rhf"
			},
			{
				"type": "occ",
				"energy": -0.25531,
				"method": "rhf"
			},
			{
				"type": "occ",
				"energy": -0.21953,
				"method": "rhf"
			},
			{
				"type": "unocc",
				"energy": -0.04339,
				"method": "rhf"
			},
			{
				"type": "unocc",
				"energy": -0.02233,
				"method": "rhf"
			},
			{
				"type": "unocc",
				"energy": -0.01148,
				"method": "rhf"
			},
			{
				"type": "unocc",
				"energy": -0.0064,
				"method": "rhf"
			},
			{
				"type": "unocc",
				"energy": 0.02056,
				"method": "rhf"
			}
		],
		"cosmo_sigma_profile": { 
			"-0.025": 0.0,
			"-0.024": 0.0,
			"-0.023": 0.0,
			"-0.022": 0.0,
			"-0.021": 0.0,
			"-0.02": 0.0,
			"-0.019": 0.0,
			"-0.018": 0.0,
			"-0.017": 0.0,
			"-0.016": 0.02503304438,
			"-0.015": 0.604864972345,
			"-0.014": 0.426541038861,
			"-0.013": 1.00743007575,
			"-0.012": 1.03919004896,
			"-0.011": 1.80960211622,
			"-0.01": 3.67400106134,
			"-0.009": 3.82526980881,
			"-0.008": 4.61601218327,
			"-0.007": 4.4454927218,
			"-0.006": 8.64170222721,
			"-0.005": 16.9129145676,
			"-0.004": 22.2583378932,
			"-0.003": 31.1138808035,
			"-0.002": 27.8329475057,
			"-0.001": 28.658454136,
			"0.0": 31.449671146,
			"0.001": 29.4333857517,
			"0.002": 19.5387575285,
			"0.003": 16.440437864,
			"0.004": 16.2154000777,
			"0.005": 20.5982563452,
			"0.006": 10.4456358157,
			"0.007": 3.93485635058,
			"0.008": 3.1042535282,
			"0.009": 2.8706760727,
			"0.01": 3.56845613081,
			"0.011": 5.23342424652,
			"0.012": 4.82737773821,
			"0.013": 1.71930921219,
			"0.014": 0.10447438697,
			"0.015": 0.0,
			"0.016": 0.0,
			"0.017": 0.0,
			"0.018": 0.0,
			"0.019": 0.0,
			"0.02": 0.0,
			"0.021": 0.0,
			"0.022": 0.0,
			"0.023": 0.0,
			"0.024": 0.0,
			"0.025": 0.0
		}
	}
}
