{
	 "smiles": "CCCCC(CN1C=CN=C1)(C#N)C1=CC=CC=C1", 
	 "Tm": 434.15, 
	 "num_atms": 38, 
	 "gaussian": { 
		 "optdone": 1, 
		 "sigma_profile": "yes", 
		 "theory": "DFT", 
		 "functional": "B3LYP", 
		 "basiset": "6-31G**", 
		 "properties": { 
			 "R2extent": 6204.1207, 
			 "electric_dipole_moment_norm": 5.29968327827, 
			 "electric_quadrupole_moment_norm": 14.8970860255, 
			 "total_energy": -785.381424535, 
			 "HOMO_LUMO_gap": 0.20533, 
			 "cosmo_polarized_energy": -17.32, 
			 "cosmo_cavitation_energy": 39.75, 
			 "cosmo_dispersion_energy": -26.46, 
			 "cosmo_repulsion_energy": 2.04, 
			 "cosmo_total_nonelectrostatic_energy": 15.32, 
			 "SMD_solvation_energy": 6.07 
		},
		"coords": [
			{
				"x": 4.8499210784,
				"y": 2.1648962984,
				"z": -1.355216905,
				"element": "C" 
			},
			{
				"x": 3.5667151927,
				"y": 2.3115708321,
				"z": -2.1817204744,
				"element": "C" 
			},
			{
				"x": 2.35758611,
				"y": 1.5369914211,
				"z": -1.6269117304,
				"element": "C" 
			},
			{
				"x": 1.917948455,
				"y": 2.0336079701,
				"z": -0.2349252437,
				"element": "C" 
			},
			{
				"x": 0.5216246356,
				"y": 1.5471955036,
				"z": 0.2900913002,
				"element": "C" 
			},
			{
				"x": 0.4242196884,
				"y": -0.0023927585,
				"z": 0.0302695787,
				"element": "C" 
			},
			{
				"x": -0.745821717,
				"y": -0.6798734556,
				"z": 0.5494958866,
				"element": "N" 
			},
			{
				"x": -1.0060540579,
				"y": -1.0366299256,
				"z": 1.8632769721,
				"element": "C" 
			},
			{
				"x": -2.2399788646,
				"y": -1.6365890078,
				"z": 1.8413197869,
				"element": "C" 
			},
			{
				"x": -2.7486376123,
				"y": -1.6674434227,
				"z": 0.5604605034,
				"element": "N" 
			},
			{
				"x": -1.833705307,
				"y": -1.0883696273,
				"z": -0.1822518139,
				"element": "C" 
			},
			{
				"x": 0.5446951339,
				"y": 1.7747523684,
				"z": 1.7506127854,
				"element": "C" 
			},
			{
				"x": 0.6074248635,
				"y": 1.945293661,
				"z": 2.8978020113,
				"element": "N" 
			},
			{
				"x": -0.6868175338,
				"y": 2.3070770377,
				"z": -0.2975137105,
				"element": "C" 
			},
			{
				"x": -1.9531571017,
				"y": 2.1496078417,
				"z": 0.2906345135,
				"element": "C" 
			},
			{
				"x": -3.0686244803,
				"y": 2.8076283135,
				"z": -0.2253731812,
				"element": "C" 
			},
			{
				"x": -2.942663925,
				"y": 3.6438616031,
				"z": -1.3353954344,
				"element": "C" 
			},
			{
				"x": -1.6886631601,
				"y": 3.8227119069,
				"z": -1.9167561987,
				"element": "C" 
			},
			{
				"x": -0.5705055164,
				"y": 3.1632943379,
				"z": -1.4009732665,
				"element": "C" 
			},
			{
				"x": 5.1337789598,
				"y": 1.1112048513,
				"z": -1.2502732628,
				"element": "H" 
			},
			{
				"x": 5.6841878622,
				"y": 2.6857167473,
				"z": -1.8353781298,
				"element": "H" 
			},
			{
				"x": 4.7417385871,
				"y": 2.5821233956,
				"z": -0.3489010962,
				"element": "H" 
			},
			{
				"x": 3.3056219833,
				"y": 3.3753295955,
				"z": -2.267191685,
				"element": "H" 
			},
			{
				"x": 3.7573207837,
				"y": 1.9628627158,
				"z": -3.2040797059,
				"element": "H" 
			},
			{
				"x": 2.6198588833,
				"y": 0.4727066594,
				"z": -1.5751972681,
				"element": "H" 
			},
			{
				"x": 1.5328328577,
				"y": 1.6122814824,
				"z": -2.3438000594,
				"element": "H" 
			},
			{
				"x": 2.6664368455,
				"y": 1.7202554109,
				"z": 0.4993565168,
				"element": "H" 
			},
			{
				"x": 1.9154677695,
				"y": 3.1287574425,
				"z": -0.2105495793,
				"element": "H" 
			},
			{
				"x": 1.3204543787,
				"y": -0.4747337862,
				"z": 0.4453611266,
				"element": "H" 
			},
			{
				"x": 0.4342279865,
				"y": -0.1567185343,
				"z": -1.0496029957,
				"element": "H" 
			},
			{
				"x": -0.3105083598,
				"y": -0.8258340983,
				"z": 2.6601284034,
				"element": "H" 
			},
			{
				"x": -2.7863571391,
				"y": -2.05547578,
				"z": 2.6751435587,
				"element": "H" 
			},
			{
				"x": -1.888761119,
				"y": -0.9282150007,
				"z": -1.2508651187,
				"element": "H" 
			},
			{
				"x": -2.0698410373,
				"y": 1.5223463605,
				"z": 1.1680907186,
				"element": "H" 
			},
			{
				"x": -4.0358391646,
				"y": 2.6670371921,
				"z": 0.2475300656,
				"element": "H" 
			},
			{
				"x": -3.8111948978,
				"y": 4.158056048,
				"z": -1.7361862269,
				"element": "H" 
			},
			{
				"x": -1.5712124775,
				"y": 4.4823027451,
				"z": -2.7717225369,
				"element": "H" 
			},
			{
				"x": 0.3912814166,
				"y": 3.3404056553,
				"z": -1.8660881044,
				"element": "H" 
			}
		],
		 "valence_orbital": [ 
			{
				"type": "occ",
				"energy": -0.27103,
				"method": "rhf"
			},
			{
				"type": "occ",
				"energy": -0.26274,
				"method": "rhf"
			},
			{
				"type": "occ",
				"energy": -0.26033,
				"method": "rhf"
			},
			{
				"type": "occ",
				"energy": -0.25721,
				"method": "rhf"
			},
			{
				"type": "occ",
				"energy": -0.22547,
				"method": "rhf"
			},
			{
				"type": "unocc",
				"energy": -0.02014,
				"method": "rhf"
			},
			{
				"type": "unocc",
				"energy": -0.01344,
				"method": "rhf"
			},
			{
				"type": "unocc",
				"energy": 0.02098,
				"method": "rhf"
			},
			{
				"type": "unocc",
				"energy": 0.02874,
				"method": "rhf"
			},
			{
				"type": "unocc",
				"energy": 0.03876,
				"method": "rhf"
			}
		],
		"cosmo_sigma_profile": { 
			"-0.025": 0.0,
			"-0.024": 0.0,
			"-0.023": 0.0,
			"-0.022": 0.0,
			"-0.021": 0.0,
			"-0.02": 0.0,
			"-0.019": 0.0,
			"-0.018": 0.0,
			"-0.017": 0.0,
			"-0.016": 0.0,
			"-0.015": 0.0,
			"-0.014": 0.0,
			"-0.013": 0.0,
			"-0.012": 0.0,
			"-0.011": 0.0,
			"-0.01": 0.203681039057,
			"-0.009": 2.65046330603,
			"-0.008": 6.96578601003,
			"-0.007": 7.7953943085,
			"-0.006": 16.524018014,
			"-0.005": 22.2131942978,
			"-0.004": 25.7126226048,
			"-0.003": 28.1244006209,
			"-0.002": 29.0371789193,
			"-0.001": 29.1884632379,
			"0.0": 24.4596453864,
			"0.001": 21.7530081374,
			"0.002": 17.614433411,
			"0.003": 14.5021708993,
			"0.004": 15.877937838,
			"0.005": 13.5267154852,
			"0.006": 6.08510298558,
			"0.007": 3.4501194004,
			"0.008": 4.28323291388,
			"0.009": 4.44484586537,
			"0.01": 4.199867373,
			"0.011": 3.6484192375,
			"0.012": 3.6029732815,
			"0.013": 2.95069753977,
			"0.014": 1.61713550672,
			"0.015": 0.811808834838,
			"0.016": 1.32392541726,
			"0.017": 1.03575919992,
			"0.018": 0.864987833812,
			"0.019": 0.0,
			"0.02": 0.0,
			"0.021": 0.0,
			"0.022": 0.0,
			"0.023": 0.0,
			"0.024": 0.0,
			"0.025": 0.0
		}
	}
}
