{
	 "smiles": "O=S(=O)(N1C=CC=C1)C1=CC=CC=C1", 
	 "Tm": 362.15, 
	 "num_atms": 23, 
	 "gaussian": { 
		 "optdone": 1, 
		 "sigma_profile": "yes", 
		 "theory": "DFT", 
		 "functional": "B3LYP", 
		 "basiset": "6-31G**", 
		 "properties": { 
			 "R2extent": 3204.2008, 
			 "electric_dipole_moment_norm": 4.81100816669, 
			 "electric_quadrupole_moment_norm": 14.9604412492, 
			 "total_energy": -989.780078052, 
			 "HOMO_LUMO_gap": 0.17363, 
			 "cosmo_polarized_energy": -11.09, 
			 "cosmo_cavitation_energy": 28.79, 
			 "cosmo_dispersion_energy": -20.94, 
			 "cosmo_repulsion_energy": 1.59, 
			 "cosmo_total_nonelectrostatic_energy": 9.44, 
			 "SMD_solvation_energy": 4.92 
		},
		"coords": [
			{
				"x": -0.4085780477,
				"y": -2.7539652146,
				"z": -0.7180870782,
				"element": "O" 
			},
			{
				"x": -1.1524065862,
				"y": -1.5174245892,
				"z": -0.9409010305,
				"element": "S" 
			},
			{
				"x": -2.4503162135,
				"y": -1.4745056735,
				"z": -1.6083891749,
				"element": "O" 
			},
			{
				"x": -1.4175455923,
				"y": -0.8560782862,
				"z": 0.6168945675,
				"element": "N" 
			},
			{
				"x": -0.5742017247,
				"y": -1.0318698451,
				"z": 1.7104209483,
				"element": "C" 
			},
			{
				"x": -1.025763289,
				"y": -0.2110166512,
				"z": 2.7098286917,
				"element": "C" 
			},
			{
				"x": -2.1658544256,
				"y": 0.5003993154,
				"z": 2.2137567699,
				"element": "C" 
			},
			{
				"x": -2.3841344038,
				"y": 0.0979547977,
				"z": 0.922661686,
				"element": "C" 
			},
			{
				"x": -0.0649419555,
				"y": -0.3385311175,
				"z": -1.7399640407,
				"element": "C" 
			},
			{
				"x": -0.6225793639,
				"y": 0.7155116447,
				"z": -2.4666290939,
				"element": "C" 
			},
			{
				"x": 0.2302560935,
				"y": 1.6319121066,
				"z": -3.0812607615,
				"element": "C" 
			},
			{
				"x": 1.6151211619,
				"y": 1.4868014133,
				"z": -2.9677073834,
				"element": "C" 
			},
			{
				"x": 2.1569789196,
				"y": 0.4207374152,
				"z": -2.2454594494,
				"element": "C" 
			},
			{
				"x": 1.3169217129,
				"y": -0.5036896168,
				"z": -1.6252480807,
				"element": "C" 
			},
			{
				"x": 0.2307184882,
				"y": -1.7480758376,
				"z": 1.6690754997,
				"element": "H" 
			},
			{
				"x": -0.6002837885,
				"y": -0.1375707318,
				"z": 3.7010508809,
				"element": "H" 
			},
			{
				"x": -2.7677395408,
				"y": 1.2149155552,
				"z": 2.7579539911,
				"element": "H" 
			},
			{
				"x": -3.1421793102,
				"y": 0.3572240327,
				"z": 0.2010672296,
				"element": "H" 
			},
			{
				"x": -1.6995273684,
				"y": 0.7995850482,
				"z": -2.5600856426,
				"element": "H" 
			},
			{
				"x": -0.1871664763,
				"y": 2.4547447724,
				"z": -3.6532860939,
				"element": "H" 
			},
			{
				"x": 2.2742355139,
				"y": 2.2026631709,
				"z": -3.4497501357,
				"element": "H" 
			},
			{
				"x": 3.233626374,
				"y": 0.3043250308,
				"z": -2.1693645833,
				"element": "H" 
			},
			{
				"x": 1.7181598225,
				"y": -1.3489467396,
				"z": -1.077377716,
				"element": "H" 
			}
		],
		 "valence_orbital": [ 
			{
				"type": "occ",
				"energy": -0.3194,
				"method": "rhf"
			},
			{
				"type": "occ",
				"energy": -0.28757,
				"method": "rhf"
			},
			{
				"type": "occ",
				"energy": -0.27881,
				"method": "rhf"
			},
			{
				"type": "occ",
				"energy": -0.25556,
				"method": "rhf"
			},
			{
				"type": "occ",
				"energy": -0.22483,
				"method": "rhf"
			},
			{
				"type": "unocc",
				"energy": -0.0512,
				"method": "rhf"
			},
			{
				"type": "unocc",
				"energy": -0.02898,
				"method": "rhf"
			},
			{
				"type": "unocc",
				"energy": 0.01269,
				"method": "rhf"
			},
			{
				"type": "unocc",
				"energy": 0.0448,
				"method": "rhf"
			},
			{
				"type": "unocc",
				"energy": 0.07186,
				"method": "rhf"
			}
		],
		"cosmo_sigma_profile": { 
			"-0.025": 0.0,
			"-0.024": 0.0,
			"-0.023": 0.0,
			"-0.022": 0.0,
			"-0.021": 0.0,
			"-0.02": 0.0,
			"-0.019": 0.0,
			"-0.018": 0.0,
			"-0.017": 0.0,
			"-0.016": 0.0,
			"-0.015": 0.0,
			"-0.014": 0.0,
			"-0.013": 0.0,
			"-0.012": 0.0,
			"-0.011": 0.0,
			"-0.01": 0.0,
			"-0.009": 0.0903319276219,
			"-0.008": 3.51104924107,
			"-0.007": 12.5431914953,
			"-0.006": 19.4602785797,
			"-0.005": 17.7243388257,
			"-0.004": 13.5938983306,
			"-0.003": 14.6095075882,
			"-0.002": 13.112716015,
			"-0.001": 12.161339408,
			"0.0": 18.1631208704,
			"0.001": 17.4186413013,
			"0.002": 22.6473511203,
			"0.003": 15.9788420988,
			"0.004": 8.77405270411,
			"0.005": 8.64480062115,
			"0.006": 9.84431838261,
			"0.007": 4.05689881992,
			"0.008": 3.90255844287,
			"0.009": 6.60701367826,
			"0.01": 7.94375335228,
			"0.011": 1.27407257582,
			"0.012": 0.0,
			"0.013": 0.0,
			"0.014": 0.0,
			"0.015": 0.0,
			"0.016": 0.0,
			"0.017": 0.0,
			"0.018": 0.0,
			"0.019": 0.0,
			"0.02": 0.0,
			"0.021": 0.0,
			"0.022": 0.0,
			"0.023": 0.0,
			"0.024": 0.0,
			"0.025": 0.0
		}
	}
}
