{
	 "smiles": "COC1=CC(N)=C(OC)C=C1Cl", 
	 "Tm": 392.65, 
	 "num_atms": 22, 
	 "gaussian": { 
		 "optdone": 1, 
		 "sigma_profile": "yes", 
		 "theory": "DFT", 
		 "functional": "B3LYP", 
		 "basiset": "6-31G**", 
		 "properties": { 
			 "R2extent": 2841.2871, 
			 "electric_dipole_moment_norm": 3.37143888718, 
			 "electric_quadrupole_moment_norm": 9.69523786557, 
			 "total_energy": -976.23774559, 
			 "HOMO_LUMO_gap": 0.19839, 
			 "cosmo_polarized_energy": -10.37, 
			 "cosmo_cavitation_energy": 27.52, 
			 "cosmo_dispersion_energy": -19.97, 
			 "cosmo_repulsion_energy": 1.61, 
			 "cosmo_total_nonelectrostatic_energy": 9.17, 
			 "SMD_solvation_energy": 5.9 
		},
		"coords": [
			{
				"x": -0.7644471487,
				"y": -1.9952874054,
				"z": -2.8253533432,
				"element": "C" 
			},
			{
				"x": -0.0868433865,
				"y": -2.5225885578,
				"z": -1.6823316452,
				"element": "O" 
			},
			{
				"x": 0.3273368932,
				"y": -1.5820877578,
				"z": -0.772445355,
				"element": "C" 
			},
			{
				"x": 1.652104055,
				"y": -1.1398573198,
				"z": -0.8159176101,
				"element": "C" 
			},
			{
				"x": 2.1488015495,
				"y": -0.2228579931,
				"z": 0.1187491235,
				"element": "C" 
			},
			{
				"x": 3.4533431515,
				"y": 0.2626542129,
				"z": 0.0771533308,
				"element": "N" 
			},
			{
				"x": 1.2692547193,
				"y": 0.2527900205,
				"z": 1.1136647362,
				"element": "C" 
			},
			{
				"x": 1.7675604857,
				"y": 1.1255436238,
				"z": 2.0660381392,
				"element": "O" 
			},
			{
				"x": 1.5447109593,
				"y": 2.5069556689,
				"z": 1.763509108,
				"element": "C" 
			},
			{
				"x": -0.0485670904,
				"y": -0.1859969371,
				"z": 1.1713441991,
				"element": "C" 
			},
			{
				"x": -0.5249869122,
				"y": -1.0996160062,
				"z": 0.2307280577,
				"element": "C" 
			},
			{
				"x": -2.1836036333,
				"y": -1.6680441586,
				"z": 0.3357127496,
				"element": "Cl" 
			},
			{
				"x": -0.1165741205,
				"y": -1.3077806819,
				"z": -3.3846508132,
				"element": "H" 
			},
			{
				"x": -1.0142336425,
				"y": -2.8510844128,
				"z": -3.4555457324,
				"element": "H" 
			},
			{
				"x": -1.6857014064,
				"y": -1.4741587679,
				"z": -2.541684615,
				"element": "H" 
			},
			{
				"x": 2.2963040856,
				"y": -1.5397183588,
				"z": -1.5935182051,
				"element": "H" 
			},
			{
				"x": 3.7723480405,
				"y": 0.6055808738,
				"z": 0.9745786856,
				"element": "H" 
			},
			{
				"x": 4.1237632428,
				"y": -0.3481928143,
				"z": -0.3686990023,
				"element": "H" 
			},
			{
				"x": 2.0171203284,
				"y": 2.7878101979,
				"z": 0.8141583281,
				"element": "H" 
			},
			{
				"x": 1.9923504937,
				"y": 3.0805338266,
				"z": 2.5781488384,
				"element": "H" 
			},
			{
				"x": 0.472363074,
				"y": 2.7314991718,
				"z": 1.7095360139,
				"element": "H" 
			},
			{
				"x": -0.694303738,
				"y": 0.1745035755,
				"z": 1.9643250114,
				"element": "H" 
			}
		],
		 "valence_orbital": [ 
			{
				"type": "occ",
				"energy": -0.28784,
				"method": "rhf"
			},
			{
				"type": "occ",
				"energy": -0.27895,
				"method": "rhf"
			},
			{
				"type": "occ",
				"energy": -0.27252,
				"method": "rhf"
			},
			{
				"type": "occ",
				"energy": -0.24171,
				"method": "rhf"
			},
			{
				"type": "occ",
				"energy": -0.20222,
				"method": "rhf"
			},
			{
				"type": "unocc",
				"energy": -0.00383,
				"method": "rhf"
			},
			{
				"type": "unocc",
				"energy": 0.00958,
				"method": "rhf"
			},
			{
				"type": "unocc",
				"energy": 0.03672,
				"method": "rhf"
			},
			{
				"type": "unocc",
				"energy": 0.07679,
				"method": "rhf"
			},
			{
				"type": "unocc",
				"energy": 0.11114,
				"method": "rhf"
			}
		],
		"cosmo_sigma_profile": { 
			"-0.025": 0.0,
			"-0.024": 0.0,
			"-0.023": 0.0,
			"-0.022": 0.0,
			"-0.021": 0.0,
			"-0.02": 0.0,
			"-0.019": 0.0,
			"-0.018": 0.0,
			"-0.017": 0.0,
			"-0.016": 0.0,
			"-0.015": 0.0,
			"-0.014": 0.0,
			"-0.013": 0.696858347028,
			"-0.012": 1.58453429931,
			"-0.011": 1.97027913646,
			"-0.01": 2.68073332368,
			"-0.009": 2.55189946156,
			"-0.008": 2.64070434642,
			"-0.007": 4.46995997651,
			"-0.006": 6.18945920664,
			"-0.005": 11.0202061846,
			"-0.004": 19.1415720212,
			"-0.003": 22.7146910622,
			"-0.002": 19.8815803464,
			"-0.001": 15.0546352689,
			"0.0": 9.98377436344,
			"0.001": 11.2011535856,
			"0.002": 14.4114417843,
			"0.003": 20.847494159,
			"0.004": 16.9001473759,
			"0.005": 11.1537004385,
			"0.006": 5.98819008083,
			"0.007": 3.40851144516,
			"0.008": 2.81595700864,
			"0.009": 3.18700923645,
			"0.01": 2.99323217584,
			"0.011": 3.87715796976,
			"0.012": 1.92066549391,
			"0.013": 0.471022474807,
			"0.014": 0.26051422016,
			"0.015": 0.0,
			"0.016": 0.0,
			"0.017": 0.0,
			"0.018": 0.0,
			"0.019": 0.0,
			"0.02": 0.0,
			"0.021": 0.0,
			"0.022": 0.0,
			"0.023": 0.0,
			"0.024": 0.0,
			"0.025": 0.0
		}
	}
}
