{
	 "smiles": "NC1=CN=C(OC2=CC=C(CC#N)C=C2)C=C1", 
	 "Tm": 341.15, 
	 "num_atms": 28, 
	 "gaussian": { 
		 "optdone": 1, 
		 "sigma_profile": "yes", 
		 "theory": "DFT", 
		 "functional": "B3LYP", 
		 "basiset": "6-31G**", 
		 "properties": { 
			 "R2extent": 6478.05, 
			 "electric_dipole_moment_norm": 6.46713858209, 
			 "electric_quadrupole_moment_norm": 31.3024308189, 
			 "total_energy": -741.466000006, 
			 "HOMO_LUMO_gap": 0.17618, 
			 "cosmo_polarized_energy": -18.83, 
			 "cosmo_cavitation_energy": 34.13, 
			 "cosmo_dispersion_energy": -24.27, 
			 "cosmo_repulsion_energy": 1.89, 
			 "cosmo_total_nonelectrostatic_energy": 11.76, 
			 "SMD_solvation_energy": 6.5 
		},
		"coords": [
			{
				"x": -3.4534532719,
				"y": 1.3180999857,
				"z": -5.1469207868,
				"element": "N" 
			},
			{
				"x": -2.6129662094,
				"y": 0.794485245,
				"z": -4.1607986891,
				"element": "C" 
			},
			{
				"x": -2.7727885495,
				"y": 1.1267799931,
				"z": -2.8086323487,
				"element": "C" 
			},
			{
				"x": -1.9631075601,
				"y": 0.6973366513,
				"z": -1.8330036387,
				"element": "N" 
			},
			{
				"x": -0.9465425733,
				"y": -0.0800144963,
				"z": -2.1636007552,
				"element": "C" 
			},
			{
				"x": -0.1177994603,
				"y": -0.590931375,
				"z": -1.1912059476,
				"element": "O" 
			},
			{
				"x": -0.0149511843,
				"y": -0.0154988553,
				"z": 0.0602682245,
				"element": "C" 
			},
			{
				"x": 0.1308278117,
				"y": -0.8978400983,
				"z": 1.1307344605,
				"element": "C" 
			},
			{
				"x": 0.343948559,
				"y": -0.3992847707,
				"z": 2.4147678526,
				"element": "C" 
			},
			{
				"x": 0.4022001738,
				"y": 0.9779933242,
				"z": 2.6465748605,
				"element": "C" 
			},
			{
				"x": 0.5711548573,
				"y": 1.4980277221,
				"z": 4.0687096201,
				"element": "C" 
			},
			{
				"x": 1.4091072853,
				"y": 2.6977623065,
				"z": 4.1718977321,
				"element": "C" 
			},
			{
				"x": 2.0605641851,
				"y": 3.6551746845,
				"z": 4.2492789877,
				"element": "N" 
			},
			{
				"x": 0.2577045873,
				"y": 1.8494176353,
				"z": 1.5604088081,
				"element": "C" 
			},
			{
				"x": 0.0543262481,
				"y": 1.3646180898,
				"z": 0.2708951655,
				"element": "C" 
			},
			{
				"x": -0.6771873684,
				"y": -0.4814522244,
				"z": -3.4783447337,
				"element": "C" 
			},
			{
				"x": -1.5242728983,
				"y": -0.0374723302,
				"z": -4.481790117,
				"element": "C" 
			},
			{
				"x": -4.3567206768,
				"y": 1.6258201533,
				"z": -4.8117884553,
				"element": "H" 
			},
			{
				"x": -3.5447142528,
				"y": 0.7464217266,
				"z": -5.9759291496,
				"element": "H" 
			},
			{
				"x": -3.5968986702,
				"y": 1.7697223987,
				"z": -2.5001322881,
				"element": "H" 
			},
			{
				"x": 0.0864485204,
				"y": -1.9651499353,
				"z": 0.9418260916,
				"element": "H" 
			},
			{
				"x": 0.4620312519,
				"y": -1.0944801692,
				"z": 3.2421835098,
				"element": "H" 
			},
			{
				"x": 1.0099736733,
				"y": 0.7208123531,
				"z": 4.704292975,
				"element": "H" 
			},
			{
				"x": -0.4058616396,
				"y": 1.7400385225,
				"z": 4.5099614597,
				"element": "H" 
			},
			{
				"x": 0.3201596969,
				"y": 2.92242996,
				"z": 1.7185969807,
				"element": "H" 
			},
			{
				"x": -0.054463218,
				"y": 2.0497370078,
				"z": -0.5602785782,
				"element": "H" 
			},
			{
				"x": 0.1721618852,
				"y": -1.1217369315,
				"z": -3.6875962872,
				"element": "H" 
			},
			{
				"x": -1.3438812024,
				"y": -0.3233165732,
				"z": -5.5149749532,
				"element": "H" 
			}
		],
		 "valence_orbital": [ 
			{
				"type": "occ",
				"energy": -0.28194,
				"method": "rhf"
			},
			{
				"type": "occ",
				"energy": -0.27109,
				"method": "rhf"
			},
			{
				"type": "occ",
				"energy": -0.25357,
				"method": "rhf"
			},
			{
				"type": "occ",
				"energy": -0.23873,
				"method": "rhf"
			},
			{
				"type": "occ",
				"energy": -0.2035,
				"method": "rhf"
			},
			{
				"type": "unocc",
				"energy": -0.02732,
				"method": "rhf"
			},
			{
				"type": "unocc",
				"energy": -0.00678,
				"method": "rhf"
			},
			{
				"type": "unocc",
				"energy": -0.00631,
				"method": "rhf"
			},
			{
				"type": "unocc",
				"energy": 0.01569,
				"method": "rhf"
			},
			{
				"type": "unocc",
				"energy": 0.03674,
				"method": "rhf"
			}
		],
		"cosmo_sigma_profile": { 
			"-0.025": 0.0,
			"-0.024": 0.0,
			"-0.023": 0.0,
			"-0.022": 0.0,
			"-0.021": 0.0,
			"-0.02": 0.0,
			"-0.019": 0.0,
			"-0.018": 0.0,
			"-0.017": 0.0,
			"-0.016": 0.0,
			"-0.015": 0.0,
			"-0.014": 0.0,
			"-0.013": 0.905893436439,
			"-0.012": 3.21472641892,
			"-0.011": 2.86495124289,
			"-0.01": 3.76855982691,
			"-0.009": 5.78941096016,
			"-0.008": 10.3947786628,
			"-0.007": 13.3094606186,
			"-0.006": 16.9111227292,
			"-0.005": 19.0088698755,
			"-0.004": 14.4453042184,
			"-0.003": 11.9606150496,
			"-0.002": 12.5793329531,
			"-0.001": 11.9804703246,
			"0.0": 11.7731699234,
			"0.001": 14.7423926606,
			"0.002": 21.278204023,
			"0.003": 24.0310936068,
			"0.004": 20.11669444,
			"0.005": 10.8534087471,
			"0.006": 7.03163242221,
			"0.007": 5.91013696891,
			"0.008": 6.18936616496,
			"0.009": 6.3725095984,
			"0.01": 4.83950848285,
			"0.011": 4.49571866314,
			"0.012": 4.05848133547,
			"0.013": 3.21737158126,
			"0.014": 1.7379112234,
			"0.015": 0.274928187379,
			"0.016": 0.0,
			"0.017": 0.0,
			"0.018": 0.0,
			"0.019": 0.0,
			"0.02": 0.0,
			"0.021": 0.0,
			"0.022": 0.0,
			"0.023": 0.0,
			"0.024": 0.0,
			"0.025": 0.0
		}
	}
}
