{
	 "smiles": "CC=C(/C)Cl", 
	 "Tm": 254.15, 
	 "num_atms": 12, 
	 "gaussian": { 
		 "optdone": 1, 
		 "sigma_profile": "yes", 
		 "theory": "DFT", 
		 "functional": "B3LYP", 
		 "basiset": "6-31G**", 
		 "properties": { 
			 "R2extent": 1999.2471, 
			 "electric_dipole_moment_norm": 2.18546755867, 
			 "electric_quadrupole_moment_norm": 8.25894706727, 
			 "total_energy": -616.827687185, 
			 "HOMO_LUMO_gap": 0.2543, 
			 "cosmo_polarized_energy": -3.18, 
			 "cosmo_cavitation_energy": 16.75, 
			 "cosmo_dispersion_energy": -12.59, 
			 "cosmo_repulsion_energy": 1.12, 
			 "cosmo_total_nonelectrostatic_energy": 5.28, 
			 "SMD_solvation_energy": 3.22 
		},
		"coords": [
			{
				"x": 0.1304814635,
				"y": 0.4342090475,
				"z": -0.5511689141,
				"element": "C" 
			},
			{
				"x": 0.8894435392,
				"y": -0.2995119022,
				"z": -1.620416147,
				"element": "C" 
			},
			{
				"x": 2.2151418578,
				"y": -0.3215103661,
				"z": -1.7809591252,
				"element": "C" 
			},
			{
				"x": 3.2812578471,
				"y": 0.3528950998,
				"z": -0.9721721401,
				"element": "C" 
			},
			{
				"x": 2.8829021686,
				"y": -1.2696982372,
				"z": -3.131677081,
				"element": "Cl" 
			},
			{
				"x": 0.7767927485,
				"y": 0.986727281,
				"z": 0.1337416777,
				"element": "H" 
			},
			{
				"x": -0.4690610013,
				"y": -0.2658277357,
				"z": 0.0439007685,
				"element": "H" 
			},
			{
				"x": -0.572080863,
				"y": 1.1478095789,
				"z": -0.9992624117,
				"element": "H" 
			},
			{
				"x": 0.2863524007,
				"y": -0.8647375838,
				"z": -2.3269549103,
				"element": "H" 
			},
			{
				"x": 2.8501783019,
				"y": 0.9281407117,
				"z": -0.1502478064,
				"element": "H" 
			},
			{
				"x": 3.9733734666,
				"y": -0.385378326,
				"z": -0.5529207801,
				"element": "H" 
			},
			{
				"x": 3.8703180704,
				"y": 1.0314824319,
				"z": -1.5985631303,
				"element": "H" 
			}
		],
		 "valence_orbital": [ 
			{
				"type": "occ",
				"energy": -0.38143,
				"method": "rhf"
			},
			{
				"type": "occ",
				"energy": -0.35564,
				"method": "rhf"
			},
			{
				"type": "occ",
				"energy": -0.33296,
				"method": "rhf"
			},
			{
				"type": "occ",
				"energy": -0.30093,
				"method": "rhf"
			},
			{
				"type": "occ",
				"energy": -0.23916,
				"method": "rhf"
			},
			{
				"type": "unocc",
				"energy": 0.01514,
				"method": "rhf"
			},
			{
				"type": "unocc",
				"energy": 0.0361,
				"method": "rhf"
			},
			{
				"type": "unocc",
				"energy": 0.09395,
				"method": "rhf"
			},
			{
				"type": "unocc",
				"energy": 0.13267,
				"method": "rhf"
			},
			{
				"type": "unocc",
				"energy": 0.14303,
				"method": "rhf"
			}
		],
		"cosmo_sigma_profile": { 
			"-0.025": 0.0,
			"-0.024": 0.0,
			"-0.023": 0.0,
			"-0.022": 0.0,
			"-0.021": 0.0,
			"-0.02": 0.0,
			"-0.019": 0.0,
			"-0.018": 0.0,
			"-0.017": 0.0,
			"-0.016": 0.0,
			"-0.015": 0.0,
			"-0.014": 0.0,
			"-0.013": 0.0,
			"-0.012": 0.0,
			"-0.011": 0.0,
			"-0.01": 0.0,
			"-0.009": 0.0,
			"-0.008": 0.0,
			"-0.007": 0.220877796373,
			"-0.006": 2.73327287925,
			"-0.005": 6.82837758985,
			"-0.004": 12.6258624677,
			"-0.003": 13.0573092566,
			"-0.002": 14.9519488476,
			"-0.001": 18.075331606,
			"0.0": 14.7434834519,
			"0.001": 8.02277854482,
			"0.002": 7.01541581292,
			"0.003": 7.41003218281,
			"0.004": 9.63241536582,
			"0.005": 9.7057092347,
			"0.006": 8.90261981596,
			"0.007": 0.369736071556,
			"0.008": 0.0,
			"0.009": 0.0,
			"0.01": 0.0,
			"0.011": 0.0,
			"0.012": 0.0,
			"0.013": 0.0,
			"0.014": 0.0,
			"0.015": 0.0,
			"0.016": 0.0,
			"0.017": 0.0,
			"0.018": 0.0,
			"0.019": 0.0,
			"0.02": 0.0,
			"0.021": 0.0,
			"0.022": 0.0,
			"0.023": 0.0,
			"0.024": 0.0,
			"0.025": 0.0
		}
	}
}
