{
	 "smiles": "C1=CC=C(C=C1)C1=CC=CC=N1", 
	 "Tm": 268.15, 
	 "num_atms": 21, 
	 "gaussian": { 
		 "optdone": 1, 
		 "sigma_profile": "yes", 
		 "theory": "DFT", 
		 "functional": "B3LYP", 
		 "basiset": "6-31G**", 
		 "properties": { 
			 "R2extent": 2870.09, 
			 "electric_dipole_moment_norm": 1.71597642466, 
			 "electric_quadrupole_moment_norm": 11.6545856971, 
			 "total_energy": -479.348941107, 
			 "HOMO_LUMO_gap": 0.18622, 
			 "cosmo_polarized_energy": -7.05, 
			 "cosmo_cavitation_energy": 24.79, 
			 "cosmo_dispersion_energy": -18.63, 
			 "cosmo_repulsion_energy": 1.46, 
			 "cosmo_total_nonelectrostatic_energy": 7.62, 
			 "SMD_solvation_energy": 3.2 
		},
		"coords": [
			{
				"x": -1.7801608461,
				"y": -4.0414039299,
				"z": -0.3111333221,
				"element": "C" 
			},
			{
				"x": -1.9735506442,
				"y": -2.9948482728,
				"z": -1.2161003884,
				"element": "C" 
			},
			{
				"x": -1.7119726875,
				"y": -1.6805049068,
				"z": -0.8372417717,
				"element": "C" 
			},
			{
				"x": -1.2437093692,
				"y": -1.3849200189,
				"z": 0.4541454836,
				"element": "C" 
			},
			{
				"x": -1.0625918855,
				"y": -2.4445513129,
				"z": 1.3582336941,
				"element": "C" 
			},
			{
				"x": -1.3274906247,
				"y": -3.7598436632,
				"z": 0.9788875937,
				"element": "C" 
			},
			{
				"x": -0.9617371997,
				"y": 0.0277284303,
				"z": 0.8281517921,
				"element": "C" 
			},
			{
				"x": -0.1364807604,
				"y": 0.3635009755,
				"z": 1.9160112925,
				"element": "C" 
			},
			{
				"x": 0.0808408642,
				"y": 1.7041065076,
				"z": 2.2195696763,
				"element": "C" 
			},
			{
				"x": -0.5180513337,
				"y": 2.6834580831,
				"z": 1.4284814971,
				"element": "C" 
			},
			{
				"x": -1.3042440576,
				"y": 2.2600873628,
				"z": 0.3560843713,
				"element": "C" 
			},
			{
				"x": -1.5262583464,
				"y": 0.9783957059,
				"z": 0.0575889215,
				"element": "N" 
			},
			{
				"x": -1.9855276755,
				"y": -5.0663596549,
				"z": -0.6066385323,
				"element": "H" 
			},
			{
				"x": -2.3289091016,
				"y": -3.2040026517,
				"z": -2.2212776016,
				"element": "H" 
			},
			{
				"x": -1.865329859,
				"y": -0.8602888536,
				"z": -1.5292312327,
				"element": "H" 
			},
			{
				"x": -0.7371148582,
				"y": -2.2457507476,
				"z": 2.3745889833,
				"element": "H" 
			},
			{
				"x": -1.1872729953,
				"y": -4.5643356932,
				"z": 1.6953358261,
				"element": "H" 
			},
			{
				"x": 0.3452574571,
				"y": -0.4106007748,
				"z": 2.5025676004,
				"element": "H" 
			},
			{
				"x": 0.7165291962,
				"y": 1.9788635931,
				"z": 3.0566728004,
				"element": "H" 
			},
			{
				"x": -0.3764305537,
				"y": 3.740881266,
				"z": 1.6271566124,
				"element": "H" 
			},
			{
				"x": -1.7821947193,
				"y": 2.9899885562,
				"z": -0.295953296,
				"element": "H" 
			}
		],
		 "valence_orbital": [ 
			{
				"type": "occ",
				"energy": -0.29,
				"method": "rhf"
			},
			{
				"type": "occ",
				"energy": -0.2778,
				"method": "rhf"
			},
			{
				"type": "occ",
				"energy": -0.25281,
				"method": "rhf"
			},
			{
				"type": "occ",
				"energy": -0.24662,
				"method": "rhf"
			},
			{
				"type": "occ",
				"energy": -0.22638,
				"method": "rhf"
			},
			{
				"type": "unocc",
				"energy": -0.04016,
				"method": "rhf"
			},
			{
				"type": "unocc",
				"energy": -0.01998,
				"method": "rhf"
			},
			{
				"type": "unocc",
				"energy": 0.00486,
				"method": "rhf"
			},
			{
				"type": "unocc",
				"energy": 0.03339,
				"method": "rhf"
			},
			{
				"type": "unocc",
				"energy": 0.09277,
				"method": "rhf"
			}
		],
		"cosmo_sigma_profile": { 
			"-0.025": 0.0,
			"-0.024": 0.0,
			"-0.023": 0.0,
			"-0.022": 0.0,
			"-0.021": 0.0,
			"-0.02": 0.0,
			"-0.019": 0.0,
			"-0.018": 0.0,
			"-0.017": 0.0,
			"-0.016": 0.0,
			"-0.015": 0.0,
			"-0.014": 0.0,
			"-0.013": 0.0,
			"-0.012": 0.0,
			"-0.011": 0.0,
			"-0.01": 0.0,
			"-0.009": 0.0,
			"-0.008": 0.85630865727,
			"-0.007": 5.57014602791,
			"-0.006": 12.4346943978,
			"-0.005": 17.7581665774,
			"-0.004": 17.1312165214,
			"-0.003": 14.845737447,
			"-0.002": 11.9555278187,
			"-0.001": 10.9045328305,
			"0.0": 11.6152272215,
			"0.001": 13.7155213623,
			"0.002": 20.8551831693,
			"0.003": 21.4524137261,
			"0.004": 11.9861353772,
			"0.005": 13.1238794044,
			"0.006": 6.66902835237,
			"0.007": 1.81515264869,
			"0.008": 1.85298149037,
			"0.009": 1.05004802161,
			"0.01": 1.3450187301,
			"0.011": 0.884553945646,
			"0.012": 0.838596958058,
			"0.013": 0.845824980759,
			"0.014": 0.183579410726,
			"0.015": 0.0,
			"0.016": 0.0,
			"0.017": 0.0,
			"0.018": 0.0,
			"0.019": 0.0,
			"0.02": 0.0,
			"0.021": 0.0,
			"0.022": 0.0,
			"0.023": 0.0,
			"0.024": 0.0,
			"0.025": 0.0
		}
	}
}
