{
	 "smiles": "CCCCCC(C)CCC", 
	 "Tm": 174.15, 
	 "num_atms": 32, 
	 "gaussian": { 
		 "optdone": 1, 
		 "sigma_profile": "yes", 
		 "theory": "DFT", 
		 "functional": "B3LYP", 
		 "basiset": "6-31G**", 
		 "properties": { 
			 "R2extent": 3004.8479, 
			 "electric_dipole_moment_norm": 0.0634042585321, 
			 "electric_quadrupole_moment_norm": 0.577640649539, 
			 "total_energy": -394.353273912, 
			 "HOMO_LUMO_gap": 0.36961, 
			 "cosmo_polarized_energy": -0.79, 
			 "cosmo_cavitation_energy": 31.13, 
			 "cosmo_dispersion_energy": -21.66, 
			 "cosmo_repulsion_energy": 1.8, 
			 "cosmo_total_nonelectrostatic_energy": 11.26, 
			 "SMD_solvation_energy": 4.81 
		},
		"coords": [
			{
				"x": 0.5611560717,
				"y": 3.3390460886,
				"z": 2.2573082217,
				"element": "C" 
			},
			{
				"x": 1.5942283531,
				"y": 2.2915025586,
				"z": 1.8240059094,
				"element": "C" 
			},
			{
				"x": 0.9905563449,
				"y": 1.0080341538,
				"z": 1.2293380358,
				"element": "C" 
			},
			{
				"x": 0.2806306991,
				"y": 1.2093385998,
				"z": -0.1203317921,
				"element": "C" 
			},
			{
				"x": -0.2347956078,
				"y": -0.0880630152,
				"z": -0.7877947628,
				"element": "C" 
			},
			{
				"x": -1.6990458923,
				"y": -0.512032766,
				"z": -0.5096881835,
				"element": "C" 
			},
			{
				"x": -2.7032260656,
				"y": 0.4928550005,
				"z": -1.0994071363,
				"element": "C" 
			},
			{
				"x": -1.9688487231,
				"y": -0.7964031762,
				"z": 0.9828087256,
				"element": "C" 
			},
			{
				"x": -3.3210976458,
				"y": -1.4546559543,
				"z": 1.3144726813,
				"element": "C" 
			},
			{
				"x": -3.5136879381,
				"y": -2.8536596004,
				"z": 0.7167817944,
				"element": "C" 
			},
			{
				"x": -0.1375496856,
				"y": 2.9224113715,
				"z": 2.9924990553,
				"element": "H" 
			},
			{
				"x": -0.0293087522,
				"y": 3.706156297,
				"z": 1.4115737591,
				"element": "H" 
			},
			{
				"x": 1.0472573609,
				"y": 4.2059683183,
				"z": 2.7171420725,
				"element": "H" 
			},
			{
				"x": 2.2830183864,
				"y": 2.7385538085,
				"z": 1.0935535404,
				"element": "H" 
			},
			{
				"x": 2.2090133092,
				"y": 2.020293398,
				"z": 2.6919724713,
				"element": "H" 
			},
			{
				"x": 0.3020436217,
				"y": 0.5651160688,
				"z": 1.9597437334,
				"element": "H" 
			},
			{
				"x": 1.795132089,
				"y": 0.2729733327,
				"z": 1.0893884313,
				"element": "H" 
			},
			{
				"x": -0.5434843718,
				"y": 1.9241619634,
				"z": -0.00919029,
				"element": "H" 
			},
			{
				"x": 0.9950764533,
				"y": 1.6914037123,
				"z": -0.8014001005,
				"element": "H" 
			},
			{
				"x": -0.1354826274,
				"y": 0.0170690533,
				"z": -1.8759888449,
				"element": "H" 
			},
			{
				"x": 0.4299984296,
				"y": -0.9176006548,
				"z": -0.5089371297,
				"element": "H" 
			},
			{
				"x": -1.8329786831,
				"y": -1.4569016081,
				"z": -1.0556270548,
				"element": "H" 
			},
			{
				"x": -3.7299969027,
				"y": 0.1183531569,
				"z": -1.0432485171,
				"element": "H" 
			},
			{
				"x": -2.6775236014,
				"y": 1.4514769679,
				"z": -0.5685334322,
				"element": "H" 
			},
			{
				"x": -2.4847229906,
				"y": 0.6918862548,
				"z": -2.15449016,
				"element": "H" 
			},
			{
				"x": -1.8980259987,
				"y": 0.1452514653,
				"z": 1.5431776328,
				"element": "H" 
			},
			{
				"x": -1.1667102349,
				"y": -1.4420280182,
				"z": 1.3676703295,
				"element": "H" 
			},
			{
				"x": -4.1442382255,
				"y": -0.8036843975,
				"z": 0.9940471381,
				"element": "H" 
			},
			{
				"x": -3.4060440364,
				"y": -1.5223453242,
				"z": 2.4067296229,
				"element": "H" 
			},
			{
				"x": -3.5316624025,
				"y": -2.8343557628,
				"z": -0.3778443695,
				"element": "H" 
			},
			{
				"x": -2.7044860196,
				"y": -3.527892095,
				"z": 1.0214060187,
				"element": "H" 
			},
			{
				"x": -4.457794714,
				"y": -3.2969291974,
				"z": 1.0505626001,
				"element": "H" 
			}
		],
		 "valence_orbital": [ 
			{
				"type": "occ",
				"energy": -0.31807,
				"method": "rhf"
			},
			{
				"type": "occ",
				"energy": -0.31253,
				"method": "rhf"
			},
			{
				"type": "occ",
				"energy": -0.30456,
				"method": "rhf"
			},
			{
				"type": "occ",
				"energy": -0.29396,
				"method": "rhf"
			},
			{
				"type": "occ",
				"energy": -0.29162,
				"method": "rhf"
			},
			{
				"type": "unocc",
				"energy": 0.07799,
				"method": "rhf"
			},
			{
				"type": "unocc",
				"energy": 0.09368,
				"method": "rhf"
			},
			{
				"type": "unocc",
				"energy": 0.10976,
				"method": "rhf"
			},
			{
				"type": "unocc",
				"energy": 0.11168,
				"method": "rhf"
			},
			{
				"type": "unocc",
				"energy": 0.12497,
				"method": "rhf"
			}
		],
		"cosmo_sigma_profile": { 
			"-0.025": 0.0,
			"-0.024": 0.0,
			"-0.023": 0.0,
			"-0.022": 0.0,
			"-0.021": 0.0,
			"-0.02": 0.0,
			"-0.019": 0.0,
			"-0.018": 0.0,
			"-0.017": 0.0,
			"-0.016": 0.0,
			"-0.015": 0.0,
			"-0.014": 0.0,
			"-0.013": 0.0,
			"-0.012": 0.0,
			"-0.011": 0.0,
			"-0.01": 0.0,
			"-0.009": 0.0,
			"-0.008": 0.0,
			"-0.007": 0.0,
			"-0.006": 0.0,
			"-0.005": 0.0,
			"-0.004": 0.0,
			"-0.003": 4.30223122586,
			"-0.002": 29.5009178578,
			"-0.001": 52.2095172376,
			"0.0": 61.6123466419,
			"0.001": 57.4782553153,
			"0.002": 31.3396219003,
			"0.003": 1.37638619513,
			"0.004": 0.0,
			"0.005": 0.0,
			"0.006": 0.0,
			"0.007": 0.0,
			"0.008": 0.0,
			"0.009": 0.0,
			"0.01": 0.0,
			"0.011": 0.0,
			"0.012": 0.0,
			"0.013": 0.0,
			"0.014": 0.0,
			"0.015": 0.0,
			"0.016": 0.0,
			"0.017": 0.0,
			"0.018": 0.0,
			"0.019": 0.0,
			"0.02": 0.0,
			"0.021": 0.0,
			"0.022": 0.0,
			"0.023": 0.0,
			"0.024": 0.0,
			"0.025": 0.0
		}
	}
}
