{
	 "smiles": "NNC(=O)C1=CC=C(C=C1)C1=CC=CC=C1F", 
	 "Tm": 427.15, 
	 "num_atms": 28, 
	 "gaussian": { 
		 "optdone": 1, 
		 "sigma_profile": "yes", 
		 "theory": "DFT", 
		 "functional": "B3LYP", 
		 "basiset": "6-31G**", 
		 "properties": { 
			 "R2extent": 5661.6677, 
			 "electric_dipole_moment_norm": 2.69620544284, 
			 "electric_quadrupole_moment_norm": 25.5769283869, 
			 "total_energy": -786.556516579, 
			 "HOMO_LUMO_gap": 0.18004, 
			 "cosmo_polarized_energy": -15.93, 
			 "cosmo_cavitation_energy": 32.87, 
			 "cosmo_dispersion_energy": -24.0, 
			 "cosmo_repulsion_energy": 1.85, 
			 "cosmo_total_nonelectrostatic_energy": 10.72, 
			 "SMD_solvation_energy": 7.18 
		},
		"coords": [
			{
				"x": 3.3247542449,
				"y": 2.1762491871,
				"z": -0.1797018291,
				"element": "N" 
			},
			{
				"x": 3.8829944969,
				"y": 0.9492337938,
				"z": 0.213273911,
				"element": "N" 
			},
			{
				"x": 3.1821613177,
				"y": -0.2442891956,
				"z": 0.2400930015,
				"element": "C" 
			},
			{
				"x": 3.8238450258,
				"y": -1.2910159205,
				"z": 0.2101678132,
				"element": "O" 
			},
			{
				"x": 1.6868999049,
				"y": -0.2529260934,
				"z": 0.346251337,
				"element": "C" 
			},
			{
				"x": 0.9047003177,
				"y": 0.7860772052,
				"z": 0.8711879273,
				"element": "C" 
			},
			{
				"x": -0.4746988627,
				"y": 0.6424064489,
				"z": 0.9903107659,
				"element": "C" 
			},
			{
				"x": -1.1199088053,
				"y": -0.5391486021,
				"z": 0.5862291263,
				"element": "C" 
			},
			{
				"x": -0.3285459503,
				"y": -1.5764421221,
				"z": 0.0616064234,
				"element": "C" 
			},
			{
				"x": 1.050047918,
				"y": -1.4399489799,
				"z": -0.0444204315,
				"element": "C" 
			},
			{
				"x": -2.5859285732,
				"y": -0.7220539715,
				"z": 0.7319918418,
				"element": "C" 
			},
			{
				"x": -3.1274666602,
				"y": -1.9604574961,
				"z": 1.1233342969,
				"element": "C" 
			},
			{
				"x": -4.5009913014,
				"y": -2.1562618962,
				"z": 1.2530442939,
				"element": "C" 
			},
			{
				"x": -5.3832953235,
				"y": -1.1064586796,
				"z": 0.9908752624,
				"element": "C" 
			},
			{
				"x": -4.882249972,
				"y": 0.1353011411,
				"z": 0.6017482868,
				"element": "C" 
			},
			{
				"x": -3.5087531786,
				"y": 0.3043818363,
				"z": 0.4821451489,
				"element": "C" 
			},
			{
				"x": -3.0615616651,
				"y": 1.5203291052,
				"z": 0.0894954079,
				"element": "F" 
			},
			{
				"x": 3.6782831635,
				"y": 2.9127665964,
				"z": 0.4242055073,
				"element": "H" 
			},
			{
				"x": 3.5758413205,
				"y": 2.3955153475,
				"z": -1.1420742893,
				"element": "H" 
			},
			{
				"x": 4.8755038147,
				"y": 0.7851524162,
				"z": 0.0630316968,
				"element": "H" 
			},
			{
				"x": 1.3728044238,
				"y": 1.7085790053,
				"z": 1.1862725709,
				"element": "H" 
			},
			{
				"x": -1.0580455969,
				"y": 1.4541781014,
				"z": 1.4084286547,
				"element": "H" 
			},
			{
				"x": -0.8022070627,
				"y": -2.4919625463,
				"z": -0.2796008316,
				"element": "H" 
			},
			{
				"x": 1.6602078455,
				"y": -2.2488892548,
				"z": -0.4310028508,
				"element": "H" 
			},
			{
				"x": -2.4455830834,
				"y": -2.773750645,
				"z": 1.3512146241,
				"element": "H" 
			},
			{
				"x": -4.8801223558,
				"y": -3.1241681016,
				"z": 1.5659132169,
				"element": "H" 
			},
			{
				"x": -6.4550064295,
				"y": -1.2484514222,
				"z": 1.0908859076,
				"element": "H" 
			},
			{
				"x": -5.5332789729,
				"y": 0.9748547423,
				"z": 0.3826932096,
				"element": "H" 
			}
		],
		 "valence_orbital": [ 
			{
				"type": "occ",
				"energy": -0.2604,
				"method": "rhf"
			},
			{
				"type": "occ",
				"energy": -0.25055,
				"method": "rhf"
			},
			{
				"type": "occ",
				"energy": -0.24871,
				"method": "rhf"
			},
			{
				"type": "occ",
				"energy": -0.24482,
				"method": "rhf"
			},
			{
				"type": "occ",
				"energy": -0.22538,
				"method": "rhf"
			},
			{
				"type": "unocc",
				"energy": -0.04534,
				"method": "rhf"
			},
			{
				"type": "unocc",
				"energy": -0.00462,
				"method": "rhf"
			},
			{
				"type": "unocc",
				"energy": 0.00268,
				"method": "rhf"
			},
			{
				"type": "unocc",
				"energy": 0.00575,
				"method": "rhf"
			},
			{
				"type": "unocc",
				"energy": 0.05849,
				"method": "rhf"
			}
		],
		"cosmo_sigma_profile": { 
			"-0.025": 0.0,
			"-0.024": 0.0,
			"-0.023": 0.0,
			"-0.022": 0.0,
			"-0.021": 0.0,
			"-0.02": 0.0,
			"-0.019": 0.0,
			"-0.018": 0.0,
			"-0.017": 0.0,
			"-0.016": 0.0,
			"-0.015": 0.0,
			"-0.014": 0.0,
			"-0.013": 0.842742389008,
			"-0.012": 3.5946302762,
			"-0.011": 4.7680331598,
			"-0.01": 6.15584096913,
			"-0.009": 3.6556009568,
			"-0.008": 3.75190073266,
			"-0.007": 4.9995447451,
			"-0.006": 12.8878053577,
			"-0.005": 15.6904555178,
			"-0.004": 17.9066089319,
			"-0.003": 13.7727992098,
			"-0.002": 12.1374886159,
			"-0.001": 14.508609531,
			"0.0": 16.7780918479,
			"0.001": 19.806156053,
			"0.002": 21.1646941593,
			"0.003": 21.7967235556,
			"0.004": 30.8655638681,
			"0.005": 12.5478587775,
			"0.006": 3.10744635164,
			"0.007": 2.55422973931,
			"0.008": 2.59162874939,
			"0.009": 1.96523809603,
			"0.01": 2.24079339746,
			"0.011": 2.07422337435,
			"0.012": 1.86623376797,
			"0.013": 4.16437535906,
			"0.014": 4.32990928274,
			"0.015": 0.225747848714,
			"0.016": 0.0,
			"0.017": 0.0,
			"0.018": 0.0,
			"0.019": 0.0,
			"0.02": 0.0,
			"0.021": 0.0,
			"0.022": 0.0,
			"0.023": 0.0,
			"0.024": 0.0,
			"0.025": 0.0
		}
	}
}
