{
	 "smiles": "NNC(=O)C1=C(O)C=C(Cl)C=C1", 
	 "Tm": 483.15, 
	 "num_atms": 19, 
	 "gaussian": { 
		 "optdone": 1, 
		 "sigma_profile": "yes", 
		 "theory": "DFT", 
		 "functional": "B3LYP", 
		 "basiset": "6-31G**", 
		 "properties": { 
			 "R2extent": 3176.8176, 
			 "electric_dipole_moment_norm": 6.2414340772, 
			 "electric_quadrupole_moment_norm": 11.903647722, 
			 "total_energy": -991.092422608, 
			 "HOMO_LUMO_gap": 0.17736, 
			 "cosmo_polarized_energy": -13.7, 
			 "cosmo_cavitation_energy": 24.87, 
			 "cosmo_dispersion_energy": -19.25, 
			 "cosmo_repulsion_energy": 1.55, 
			 "cosmo_total_nonelectrostatic_energy": 7.17, 
			 "SMD_solvation_energy": 5.63 
		},
		"coords": [
			{
				"x": 0.2339076006,
				"y": -0.0180126913,
				"z": -2.5549586417,
				"element": "N" 
			},
			{
				"x": -1.0971505746,
				"y": -0.0825562523,
				"z": -2.1356008276,
				"element": "N" 
			},
			{
				"x": -1.5753650305,
				"y": -0.0909365013,
				"z": -0.8504546703,
				"element": "C" 
			},
			{
				"x": -2.8225904882,
				"y": -0.1600388725,
				"z": -0.7605492681,
				"element": "O" 
			},
			{
				"x": -0.7304863282,
				"y": -0.0250622293,
				"z": 0.3630551373,
				"element": "C" 
			},
			{
				"x": -1.4075764182,
				"y": -0.0456305618,
				"z": 1.6223772111,
				"element": "C" 
			},
			{
				"x": -2.735188861,
				"y": -0.1201928892,
				"z": 1.7379920156,
				"element": "O" 
			},
			{
				"x": -0.6684888832,
				"y": 0.0141533353,
				"z": 2.8180135584,
				"element": "C" 
			},
			{
				"x": 0.7111956786,
				"y": 0.0929175664,
				"z": 2.7666251758,
				"element": "C" 
			},
			{
				"x": 1.620051747,
				"y": 0.1671283188,
				"z": 4.2681386672,
				"element": "Cl" 
			},
			{
				"x": 1.4050145616,
				"y": 0.1152995805,
				"z": 1.5503073612,
				"element": "C" 
			},
			{
				"x": 0.6783209476,
				"y": 0.0562850836,
				"z": 0.371622158,
				"element": "C" 
			},
			{
				"x": 0.4677607093,
				"y": -0.8445098784,
				"z": -3.0996420141,
				"element": "H" 
			},
			{
				"x": 0.3782899424,
				"y": 0.8096977917,
				"z": -3.1280633947,
				"element": "H" 
			},
			{
				"x": -1.8489687782,
				"y": -0.1362823027,
				"z": -2.8168905904,
				"element": "H" 
			},
			{
				"x": -3.0844336233,
				"y": -0.153205846,
				"z": 0.8008820928,
				"element": "H" 
			},
			{
				"x": -1.205646319,
				"y": -0.0030933308,
				"z": 3.7582863203,
				"element": "H" 
			},
			{
				"x": 2.4864840846,
				"y": 0.1774628003,
				"z": 1.536529085,
				"element": "H" 
			},
			{
				"x": 1.1980700326,
				"y": 0.0722768792,
				"z": -0.5758693756,
				"element": "H" 
			}
		],
		 "valence_orbital": [ 
			{
				"type": "occ",
				"energy": -0.29675,
				"method": "rhf"
			},
			{
				"type": "occ",
				"energy": -0.27753,
				"method": "rhf"
			},
			{
				"type": "occ",
				"energy": -0.273,
				"method": "rhf"
			},
			{
				"type": "occ",
				"energy": -0.25098,
				"method": "rhf"
			},
			{
				"type": "occ",
				"energy": -0.22387,
				"method": "rhf"
			},
			{
				"type": "unocc",
				"energy": -0.04651,
				"method": "rhf"
			},
			{
				"type": "unocc",
				"energy": 0.00489,
				"method": "rhf"
			},
			{
				"type": "unocc",
				"energy": 0.03298,
				"method": "rhf"
			},
			{
				"type": "unocc",
				"energy": 0.04861,
				"method": "rhf"
			},
			{
				"type": "unocc",
				"energy": 0.05131,
				"method": "rhf"
			}
		],
		"cosmo_sigma_profile": { 
			"-0.025": 0.0,
			"-0.024": 0.0,
			"-0.023": 0.0,
			"-0.022": 0.0,
			"-0.021": 0.0,
			"-0.02": 0.0,
			"-0.019": 0.0,
			"-0.018": 0.0,
			"-0.017": 0.0,
			"-0.016": 0.0,
			"-0.015": 0.0,
			"-0.014": 0.533172111485,
			"-0.013": 2.58081792082,
			"-0.012": 5.56027632136,
			"-0.011": 5.25456460345,
			"-0.01": 4.82541110685,
			"-0.009": 3.69044512013,
			"-0.008": 2.45651280212,
			"-0.007": 4.28606882819,
			"-0.006": 5.04913357741,
			"-0.005": 4.77142975017,
			"-0.004": 5.89478094225,
			"-0.003": 5.77971102763,
			"-0.002": 9.22929345278,
			"-0.001": 15.7218557171,
			"0.0": 15.0461319173,
			"0.001": 19.7696964977,
			"0.002": 25.5872042301,
			"0.003": 20.2530767162,
			"0.004": 17.2425699932,
			"0.005": 6.59879289699,
			"0.006": 3.08492395557,
			"0.007": 2.12410330512,
			"0.008": 2.37451520873,
			"0.009": 3.03729591041,
			"0.01": 2.91799915944,
			"0.011": 3.54085196244,
			"0.012": 2.63534799292,
			"0.013": 0.927811220238,
			"0.014": 0.0,
			"0.015": 0.0,
			"0.016": 0.0,
			"0.017": 0.0,
			"0.018": 0.0,
			"0.019": 0.0,
			"0.02": 0.0,
			"0.021": 0.0,
			"0.022": 0.0,
			"0.023": 0.0,
			"0.024": 0.0,
			"0.025": 0.0
		}
	}
}
