{
	 "smiles": "CC1=NN(CC2=CC=C(Cl)C=C2)C(C)=C1CO", 
	 "Tm": 406.15, 
	 "num_atms": 32, 
	 "gaussian": { 
		 "optdone": 1, 
		 "sigma_profile": "yes", 
		 "theory": "DFT", 
		 "functional": "B3LYP", 
		 "basiset": "6-31G**", 
		 "properties": { 
			 "R2extent": 6415.2086, 
			 "electric_dipole_moment_norm": 3.48896172665, 
			 "electric_quadrupole_moment_norm": 12.5536458951, 
			 "total_energy": -1149.32982428, 
			 "HOMO_LUMO_gap": 0.20853, 
			 "cosmo_polarized_energy": -13.49, 
			 "cosmo_cavitation_energy": 37.24, 
			 "cosmo_dispersion_energy": -25.97, 
			 "cosmo_repulsion_energy": 2.06, 
			 "cosmo_total_nonelectrostatic_energy": 13.33, 
			 "SMD_solvation_energy": 5.19 
		},
		"coords": [
			{
				"x": -3.7262961042,
				"y": 2.083281045,
				"z": 1.3749825659,
				"element": "C" 
			},
			{
				"x": -2.8023004405,
				"y": 1.1720112064,
				"z": 0.6237578369,
				"element": "C" 
			},
			{
				"x": -2.2217282015,
				"y": 1.5895963464,
				"z": -0.5015714106,
				"element": "N" 
			},
			{
				"x": -1.4740349402,
				"y": 0.5353008473,
				"z": -0.9248784849,
				"element": "N" 
			},
			{
				"x": -0.6292612403,
				"y": 0.698708227,
				"z": -2.0974400886,
				"element": "C" 
			},
			{
				"x": 0.8008096234,
				"y": 1.1044470303,
				"z": -1.7792275879,
				"element": "C" 
			},
			{
				"x": 1.8753783593,
				"y": 0.4869672039,
				"z": -2.4264726269,
				"element": "C" 
			},
			{
				"x": 3.1915004138,
				"y": 0.8770950338,
				"z": -2.1708567255,
				"element": "C" 
			},
			{
				"x": 3.4256399191,
				"y": 1.894831735,
				"z": -1.2493542261,
				"element": "C" 
			},
			{
				"x": 5.0786943353,
				"y": 2.3931458786,
				"z": -0.9124602702,
				"element": "Cl" 
			},
			{
				"x": 2.3706160799,
				"y": 2.5238890848,
				"z": -0.5864753597,
				"element": "C" 
			},
			{
				"x": 1.0631065013,
				"y": 2.1261376833,
				"z": -0.8569772645,
				"element": "C" 
			},
			{
				"x": -1.5595848451,
				"y": -0.5379454233,
				"z": -0.087649381,
				"element": "C" 
			},
			{
				"x": -0.8211867966,
				"y": -1.8190272758,
				"z": -0.3146185034,
				"element": "C" 
			},
			{
				"x": -2.4271045102,
				"y": -0.162735191,
				"z": 0.9308690886,
				"element": "C" 
			},
			{
				"x": -2.8752727897,
				"y": -1.0009525583,
				"z": 2.0859636292,
				"element": "C" 
			},
			{
				"x": -1.7310475922,
				"y": -1.4993217424,
				"z": 2.7889538953,
				"element": "O" 
			},
			{
				"x": -4.7548334748,
				"y": 1.7039016264,
				"z": 1.3874668846,
				"element": "H" 
			},
			{
				"x": -3.734590543,
				"y": 3.0671137479,
				"z": 0.9004918686,
				"element": "H" 
			},
			{
				"x": -3.4112617185,
				"y": 2.2061840172,
				"z": 2.4174425877,
				"element": "H" 
			},
			{
				"x": -0.635445199,
				"y": -0.232703999,
				"z": -2.6717022982,
				"element": "H" 
			},
			{
				"x": -1.1177317691,
				"y": 1.4651138304,
				"z": -2.7062951697,
				"element": "H" 
			},
			{
				"x": 1.689908121,
				"y": -0.3098169556,
				"z": -3.1428477547,
				"element": "H" 
			},
			{
				"x": 4.0222397586,
				"y": 0.3944328878,
				"z": -2.6736101496,
				"element": "H" 
			},
			{
				"x": 2.5728388088,
				"y": 3.3133280837,
				"z": 0.128992633,
				"element": "H" 
			},
			{
				"x": 0.2330710606,
				"y": 2.6073268719,
				"z": -0.3483611831,
				"element": "H" 
			},
			{
				"x": 0.2414143795,
				"y": -1.641662611,
				"z": -0.5124353806,
				"element": "H" 
			},
			{
				"x": -1.2277911192,
				"y": -2.3836727434,
				"z": -1.1635862309,
				"element": "H" 
			},
			{
				"x": -0.8944732533,
				"y": -2.4350323102,
				"z": 0.5825182622,
				"element": "H" 
			},
			{
				"x": -3.4970108429,
				"y": -1.8411508173,
				"z": 1.7339576178,
				"element": "H" 
			},
			{
				"x": -3.5108577905,
				"y": -0.3929846098,
				"z": 2.7474695798,
				"element": "H" 
			},
			{
				"x": -2.0493041898,
				"y": -2.1093061501,
				"z": 3.4673536466,
				"element": "H" 
			}
		],
		 "valence_orbital": [ 
			{
				"type": "occ",
				"energy": -0.26903,
				"method": "rhf"
			},
			{
				"type": "occ",
				"energy": -0.26295,
				"method": "rhf"
			},
			{
				"type": "occ",
				"energy": -0.24466,
				"method": "rhf"
			},
			{
				"type": "occ",
				"energy": -0.22928,
				"method": "rhf"
			},
			{
				"type": "occ",
				"energy": -0.22481,
				"method": "rhf"
			},
			{
				"type": "unocc",
				"energy": -0.01628,
				"method": "rhf"
			},
			{
				"type": "unocc",
				"energy": -0.01353,
				"method": "rhf"
			},
			{
				"type": "unocc",
				"energy": 0.02242,
				"method": "rhf"
			},
			{
				"type": "unocc",
				"energy": 0.0319,
				"method": "rhf"
			},
			{
				"type": "unocc",
				"energy": 0.05221,
				"method": "rhf"
			}
		],
		"cosmo_sigma_profile": { 
			"-0.025": 0.0,
			"-0.024": 0.0,
			"-0.023": 0.0,
			"-0.022": 0.0,
			"-0.021": 0.0,
			"-0.02": 0.0,
			"-0.019": 0.0,
			"-0.018": 0.0,
			"-0.017": 0.0,
			"-0.016": 0.236398855394,
			"-0.015": 0.925113569909,
			"-0.014": 1.38974493859,
			"-0.013": 0.6172319829,
			"-0.012": 0.658060566305,
			"-0.011": 0.890342986335,
			"-0.01": 0.903172612245,
			"-0.009": 1.21695870598,
			"-0.008": 1.32190996792,
			"-0.007": 8.21714984286,
			"-0.006": 11.9060639715,
			"-0.005": 14.9674213238,
			"-0.004": 22.4272280599,
			"-0.003": 27.8762529379,
			"-0.002": 25.7791369554,
			"-0.001": 26.2769729397,
			"0.0": 25.0373750171,
			"0.001": 20.1590333826,
			"0.002": 21.2807628933,
			"0.003": 22.7082619707,
			"0.004": 21.2352570527,
			"0.005": 14.3955835398,
			"0.006": 5.09873789629,
			"0.007": 3.23979947131,
			"0.008": 2.94688159491,
			"0.009": 2.80878740332,
			"0.01": 1.89303684214,
			"0.011": 1.71262169787,
			"0.012": 3.15874403945,
			"0.013": 1.72102804429,
			"0.014": 2.22851937605,
			"0.015": 1.33576638724,
			"0.016": 0.366274431165,
			"0.017": 0.123839443059,
			"0.018": 0.0,
			"0.019": 0.0,
			"0.02": 0.0,
			"0.021": 0.0,
			"0.022": 0.0,
			"0.023": 0.0,
			"0.024": 0.0,
			"0.025": 0.0
		}
	}
}
