{
	 "smiles": "OC1=CC(Cl)=CN=C1O", 
	 "Tm": 568.15, 
	 "num_atms": 13, 
	 "gaussian": { 
		 "optdone": 1, 
		 "sigma_profile": "yes", 
		 "theory": "DFT", 
		 "functional": "B3LYP", 
		 "basiset": "6-31G**", 
		 "properties": { 
			 "R2extent": 1578.2896, 
			 "electric_dipole_moment_norm": 2.16372752675, 
			 "electric_quadrupole_moment_norm": 6.4501680668, 
			 "total_energy": -858.329407341, 
			 "HOMO_LUMO_gap": 0.19744, 
			 "cosmo_polarized_energy": -8.37, 
			 "cosmo_cavitation_energy": 19.46, 
			 "cosmo_dispersion_energy": -15.09, 
			 "cosmo_repulsion_energy": 1.24, 
			 "cosmo_total_nonelectrostatic_energy": 5.61, 
			 "SMD_solvation_energy": 2.58 
		},
		"coords": [
			{
				"x": -2.5925236104,
				"y": -1.124730656,
				"z": -1.6626521878,
				"element": "O" 
			},
			{
				"x": -1.4268929617,
				"y": -0.6545926143,
				"z": -1.1520989055,
				"element": "C" 
			},
			{
				"x": -1.1446896106,
				"y": -0.7605952296,
				"z": 0.2021927411,
				"element": "C" 
			},
			{
				"x": 0.0767738439,
				"y": -0.2545051943,
				"z": 0.6621336127,
				"element": "C" 
			},
			{
				"x": 0.4807777508,
				"y": -0.3642363969,
				"z": 2.3656100346,
				"element": "Cl" 
			},
			{
				"x": 0.969163738,
				"y": 0.3338501684,
				"z": -0.225677827,
				"element": "C" 
			},
			{
				"x": 0.6895202318,
				"y": 0.4333867691,
				"z": -1.5369971586,
				"element": "N" 
			},
			{
				"x": -0.4581719735,
				"y": -0.041213683,
				"z": -1.9743722151,
				"element": "C" 
			},
			{
				"x": -0.7658482672,
				"y": 0.0471141768,
				"z": -3.2985383226,
				"element": "O" 
			},
			{
				"x": -2.5884296054,
				"y": -0.9524109476,
				"z": -2.6164667012,
				"element": "H" 
			},
			{
				"x": -1.8593246097,
				"y": -1.2243661558,
				"z": 0.8718089847,
				"element": "H" 
			},
			{
				"x": 1.9202265952,
				"y": 0.7311852296,
				"z": 0.1140587928,
				"element": "H" 
			},
			{
				"x": -0.0181815212,
				"y": 0.4848145336,
				"z": -3.7335008482,
				"element": "H" 
			}
		],
		 "valence_orbital": [ 
			{
				"type": "occ",
				"energy": -0.33274,
				"method": "rhf"
			},
			{
				"type": "occ",
				"energy": -0.32211,
				"method": "rhf"
			},
			{
				"type": "occ",
				"energy": -0.2848,
				"method": "rhf"
			},
			{
				"type": "occ",
				"energy": -0.27343,
				"method": "rhf"
			},
			{
				"type": "occ",
				"energy": -0.22737,
				"method": "rhf"
			},
			{
				"type": "unocc",
				"energy": -0.02993,
				"method": "rhf"
			},
			{
				"type": "unocc",
				"energy": -0.00563,
				"method": "rhf"
			},
			{
				"type": "unocc",
				"energy": 0.02648,
				"method": "rhf"
			},
			{
				"type": "unocc",
				"energy": 0.05624,
				"method": "rhf"
			},
			{
				"type": "unocc",
				"energy": 0.10928,
				"method": "rhf"
			}
		],
		"cosmo_sigma_profile": { 
			"-0.025": 0.0,
			"-0.024": 0.0,
			"-0.023": 0.0,
			"-0.022": 0.0,
			"-0.021": 0.0,
			"-0.02": 0.0,
			"-0.019": 0.0,
			"-0.018": 0.406138409869,
			"-0.017": 0.820449147017,
			"-0.016": 1.55194535974,
			"-0.015": 1.11281968523,
			"-0.014": 1.19532179881,
			"-0.013": 0.879283232635,
			"-0.012": 1.56641605326,
			"-0.011": 1.14895260851,
			"-0.01": 1.95563782119,
			"-0.009": 1.68446078446,
			"-0.008": 2.48368029907,
			"-0.007": 5.3703086459,
			"-0.006": 4.63348165875,
			"-0.005": 4.53620968331,
			"-0.004": 4.97303779874,
			"-0.003": 5.19512085138,
			"-0.002": 8.48124173733,
			"-0.001": 11.943558665,
			"0.0": 13.9360555495,
			"0.001": 20.079285994,
			"0.002": 13.3016824439,
			"0.003": 10.9663603494,
			"0.004": 14.1775641173,
			"0.005": 8.07551035,
			"0.006": 4.32473829895,
			"0.007": 3.21541747341,
			"0.008": 2.08898400169,
			"0.009": 2.66057797555,
			"0.01": 3.10744833858,
			"0.011": 1.14884643227,
			"0.012": 0.798633856259,
			"0.013": 0.453063839736,
			"0.014": 0.0249375361767,
			"0.015": 0.0,
			"0.016": 0.0,
			"0.017": 0.0,
			"0.018": 0.0,
			"0.019": 0.0,
			"0.02": 0.0,
			"0.021": 0.0,
			"0.022": 0.0,
			"0.023": 0.0,
			"0.024": 0.0,
			"0.025": 0.0
		}
	}
}
