{
	 "smiles": "CC1=CC=C(C=C1)S(=O)(=O)OCC1CO1", 
	 "Tm": 319.65, 
	 "num_atms": 27, 
	 "gaussian": { 
		 "optdone": 1, 
		 "sigma_profile": "yes", 
		 "theory": "DFT", 
		 "functional": "B3LYP", 
		 "basiset": "6-31G**", 
		 "properties": { 
			 "R2extent": 4499.7104, 
			 "electric_dipole_moment_norm": 5.48171456845, 
			 "electric_quadrupole_moment_norm": 17.2746959082, 
			 "total_energy": -1087.26147961, 
			 "HOMO_LUMO_gap": 0.22356, 
			 "cosmo_polarized_energy": -14.66, 
			 "cosmo_cavitation_energy": 32.79, 
			 "cosmo_dispersion_energy": -23.64, 
			 "cosmo_repulsion_energy": 1.85, 
			 "cosmo_total_nonelectrostatic_energy": 11.0, 
			 "SMD_solvation_energy": 4.69 
		},
		"coords": [
			{
				"x": -2.7343951196,
				"y": 3.5416578191,
				"z": -1.1001057677,
				"element": "C" 
			},
			{
				"x": -1.7157338208,
				"y": 2.4289394151,
				"z": -1.1490352595,
				"element": "C" 
			},
			{
				"x": -2.0688354896,
				"y": 1.1139112885,
				"z": -0.8187089583,
				"element": "C" 
			},
			{
				"x": -1.1385331977,
				"y": 0.0771209964,
				"z": -0.8894409637,
				"element": "C" 
			},
			{
				"x": 0.1652574587,
				"y": 0.3652694008,
				"z": -1.2941218585,
				"element": "C" 
			},
			{
				"x": 0.5464518233,
				"y": 1.6665884541,
				"z": -1.6337270431,
				"element": "C" 
			},
			{
				"x": -0.3964743842,
				"y": 2.6866081967,
				"z": -1.5562599241,
				"element": "C" 
			},
			{
				"x": 1.3749844134,
				"y": -0.9444955235,
				"z": -1.3748408252,
				"element": "S" 
			},
			{
				"x": 0.6786566504,
				"y": -2.2285479163,
				"z": -1.3094371732,
				"element": "O" 
			},
			{
				"x": 2.3426944046,
				"y": -0.6389220145,
				"z": -2.41736262,
				"element": "O" 
			},
			{
				"x": 2.2218558833,
				"y": -0.7365980411,
				"z": 0.0213594735,
				"element": "O" 
			},
			{
				"x": 1.6388906253,
				"y": -1.2448616598,
				"z": 1.2452616301,
				"element": "C" 
			},
			{
				"x": 2.7434316704,
				"y": -1.2648632324,
				"z": 2.2719309708,
				"element": "C" 
			},
			{
				"x": 2.9675491221,
				"y": -0.123141267,
				"z": 3.1673135888,
				"element": "C" 
			},
			{
				"x": 2.2907259858,
				"y": -1.3016418382,
				"z": 3.6275765494,
				"element": "O" 
			},
			{
				"x": -3.5811955686,
				"y": 3.2826239875,
				"z": -0.4589833283,
				"element": "H" 
			},
			{
				"x": -2.2935218401,
				"y": 4.4707165943,
				"z": -0.7259975296,
				"element": "H" 
			},
			{
				"x": -3.1309753002,
				"y": 3.7515396636,
				"z": -2.1010270888,
				"element": "H" 
			},
			{
				"x": -3.0863353882,
				"y": 0.8952905275,
				"z": -0.5064369524,
				"element": "H" 
			},
			{
				"x": -1.4175603652,
				"y": -0.9434551741,
				"z": -0.6516293514,
				"element": "H" 
			},
			{
				"x": 1.5603517274,
				"y": 1.8656441486,
				"z": -1.963487834,
				"element": "H" 
			},
			{
				"x": -0.107008618,
				"y": 3.7003091959,
				"z": -1.8202568781,
				"element": "H" 
			},
			{
				"x": 1.2433535767,
				"y": -2.2497688136,
				"z": 1.0732924398,
				"element": "H" 
			},
			{
				"x": 0.8272513059,
				"y": -0.5882171432,
				"z": 1.5798918671,
				"element": "H" 
			},
			{
				"x": 3.5801964287,
				"y": -1.9250225836,
				"z": 2.0411406755,
				"element": "H" 
			},
			{
				"x": 2.3454110963,
				"y": 0.7664209586,
				"z": 3.0688701059,
				"element": "H" 
			},
			{
				"x": 3.9582069199,
				"y": 0.0418945603,
				"z": 3.588822055,
				"element": "H" 
			}
		],
		 "valence_orbital": [ 
			{
				"type": "occ",
				"energy": -0.31269,
				"method": "rhf"
			},
			{
				"type": "occ",
				"energy": -0.30832,
				"method": "rhf"
			},
			{
				"type": "occ",
				"energy": -0.2805,
				"method": "rhf"
			},
			{
				"type": "occ",
				"energy": -0.27645,
				"method": "rhf"
			},
			{
				"type": "occ",
				"energy": -0.26899,
				"method": "rhf"
			},
			{
				"type": "unocc",
				"energy": -0.04543,
				"method": "rhf"
			},
			{
				"type": "unocc",
				"energy": -0.02741,
				"method": "rhf"
			},
			{
				"type": "unocc",
				"energy": 0.03758,
				"method": "rhf"
			},
			{
				"type": "unocc",
				"energy": 0.07089,
				"method": "rhf"
			},
			{
				"type": "unocc",
				"energy": 0.08437,
				"method": "rhf"
			}
		],
		"cosmo_sigma_profile": { 
			"-0.025": 0.0,
			"-0.024": 0.0,
			"-0.023": 0.0,
			"-0.022": 0.0,
			"-0.021": 0.0,
			"-0.02": 0.0,
			"-0.019": 0.0,
			"-0.018": 0.0,
			"-0.017": 0.0,
			"-0.016": 0.0,
			"-0.015": 0.0,
			"-0.014": 0.0,
			"-0.013": 0.0,
			"-0.012": 0.0,
			"-0.011": 0.0,
			"-0.01": 0.0,
			"-0.009": 0.0,
			"-0.008": 0.87719473856,
			"-0.007": 13.0891571878,
			"-0.006": 20.2826758564,
			"-0.005": 25.0593300329,
			"-0.004": 23.6568364917,
			"-0.003": 18.376043028,
			"-0.002": 19.978559008,
			"-0.001": 19.1400548741,
			"0.0": 18.074179958,
			"0.001": 15.1893522886,
			"0.002": 14.6037974609,
			"0.003": 15.0639070255,
			"0.004": 5.73940237008,
			"0.005": 4.29088628757,
			"0.006": 5.81154717217,
			"0.007": 5.25474956465,
			"0.008": 6.73763428569,
			"0.009": 9.33774729152,
			"0.01": 12.3633419079,
			"0.011": 6.65803379705,
			"0.012": 1.14529757092,
			"0.013": 0.0,
			"0.014": 0.0,
			"0.015": 0.0,
			"0.016": 0.0,
			"0.017": 0.0,
			"0.018": 0.0,
			"0.019": 0.0,
			"0.02": 0.0,
			"0.021": 0.0,
			"0.022": 0.0,
			"0.023": 0.0,
			"0.024": 0.0,
			"0.025": 0.0
		}
	}
}
