{
	 "smiles": "COC1=C(OC)C=C(C(O)=O)C(NC(C)=O)=C1", 
	 "Tm": 503.15, 
	 "num_atms": 30, 
	 "gaussian": { 
		 "optdone": 1, 
		 "sigma_profile": "yes", 
		 "theory": "DFT", 
		 "functional": "B3LYP", 
		 "basiset": "6-31G**", 
		 "properties": { 
			 "R2extent": 4718.7859, 
			 "electric_dipole_moment_norm": 3.54969471363, 
			 "electric_quadrupole_moment_norm": 17.0142890815, 
			 "total_energy": -857.876052345, 
			 "HOMO_LUMO_gap": 0.16943, 
			 "cosmo_polarized_energy": -16.55, 
			 "cosmo_cavitation_energy": 34.14, 
			 "cosmo_dispersion_energy": -24.22, 
			 "cosmo_repulsion_energy": 1.9, 
			 "cosmo_total_nonelectrostatic_energy": 11.82, 
			 "SMD_solvation_energy": 9.29 
		},
		"coords": [
			{
				"x": -0.5198890625,
				"y": -3.6606685174,
				"z": 0.5412661198,
				"element": "C" 
			},
			{
				"x": -0.0686167533,
				"y": -2.4251595009,
				"z": 1.1200707523,
				"element": "O" 
			},
			{
				"x": -0.2458830681,
				"y": -1.3029229239,
				"z": 0.3571503654,
				"element": "C" 
			},
			{
				"x": -1.5212117476,
				"y": -0.8500722818,
				"z": -0.040427721,
				"element": "C" 
			},
			{
				"x": -2.6709490809,
				"y": -1.5291657306,
				"z": 0.2970521909,
				"element": "O" 
			},
			{
				"x": -3.0433359036,
				"y": -1.4104431234,
				"z": 1.6762935638,
				"element": "C" 
			},
			{
				"x": -1.6017434412,
				"y": 0.2860880375,
				"z": -0.8278263873,
				"element": "C" 
			},
			{
				"x": -0.4669718082,
				"y": 1.0218948235,
				"z": -1.2118995308,
				"element": "C" 
			},
			{
				"x": -0.7613188561,
				"y": 2.2023202833,
				"z": -2.064091667,
				"element": "C" 
			},
			{
				"x": 0.3358889482,
				"y": 2.8037116851,
				"z": -2.6073396987,
				"element": "O" 
			},
			{
				"x": -1.8767432824,
				"y": 2.6198513695,
				"z": -2.3052115704,
				"element": "O" 
			},
			{
				"x": 0.8146701232,
				"y": 0.6033775503,
				"z": -0.7551471468,
				"element": "C" 
			},
			{
				"x": 1.9764459951,
				"y": 1.3104897683,
				"z": -1.0875060751,
				"element": "N" 
			},
			{
				"x": 3.1626093816,
				"y": 1.5401974033,
				"z": -0.3960815315,
				"element": "C" 
			},
			{
				"x": 3.3514494556,
				"y": 0.9780545134,
				"z": 0.9996385054,
				"element": "C" 
			},
			{
				"x": 4.0229796196,
				"y": 2.2248671383,
				"z": -0.9290146735,
				"element": "O" 
			},
			{
				"x": 0.8887238709,
				"y": -0.5811736179,
				"z": -0.0037714758,
				"element": "C" 
			},
			{
				"x": 0.0487415119,
				"y": -3.883753866,
				"z": -0.3693687526,
				"element": "H" 
			},
			{
				"x": -1.5868509762,
				"y": -3.6282215832,
				"z": 0.3082331076,
				"element": "H" 
			},
			{
				"x": -0.3214609353,
				"y": -4.430601537,
				"z": 1.2885899277,
				"element": "H" 
			},
			{
				"x": -2.2636522165,
				"y": -1.806597675,
				"z": 2.3357733601,
				"element": "H" 
			},
			{
				"x": -3.9584483611,
				"y": -1.9931653166,
				"z": 1.7977338943,
				"element": "H" 
			},
			{
				"x": -3.2422399712,
				"y": -0.3634088149,
				"z": 1.9355616923,
				"element": "H" 
			},
			{
				"x": -2.574410694,
				"y": 0.6320038577,
				"z": -1.158260649,
				"element": "H" 
			},
			{
				"x": -0.0006351759,
				"y": 3.547036764,
				"z": -3.134819996,
				"element": "H" 
			},
			{
				"x": 1.9086981964,
				"y": 1.9108425874,
				"z": -1.9012316073,
				"element": "H" 
			},
			{
				"x": 2.426963513,
				"y": 0.9475463602,
				"z": 1.580166083,
				"element": "H" 
			},
			{
				"x": 3.7591323279,
				"y": -0.0374171352,
				"z": 0.9536876655,
				"element": "H" 
			},
			{
				"x": 4.0879611314,
				"y": 1.6093928394,
				"z": 1.497798622,
				"element": "H" 
			},
			{
				"x": 1.8454972595,
				"y": -0.9910033572,
				"z": 0.2886826327,
				"element": "H" 
			}
		],
		 "valence_orbital": [ 
			{
				"type": "occ",
				"energy": -0.28582,
				"method": "rhf"
			},
			{
				"type": "occ",
				"energy": -0.27711,
				"method": "rhf"
			},
			{
				"type": "occ",
				"energy": -0.25557,
				"method": "rhf"
			},
			{
				"type": "occ",
				"energy": -0.25454,
				"method": "rhf"
			},
			{
				"type": "occ",
				"energy": -0.22408,
				"method": "rhf"
			},
			{
				"type": "unocc",
				"energy": -0.05465,
				"method": "rhf"
			},
			{
				"type": "unocc",
				"energy": -0.01893,
				"method": "rhf"
			},
			{
				"type": "unocc",
				"energy": 0.02929,
				"method": "rhf"
			},
			{
				"type": "unocc",
				"energy": 0.04677,
				"method": "rhf"
			},
			{
				"type": "unocc",
				"energy": 0.0689,
				"method": "rhf"
			}
		],
		"cosmo_sigma_profile": { 
			"-0.025": 0.0,
			"-0.024": 0.0,
			"-0.023": 0.0,
			"-0.022": 0.0,
			"-0.021": 0.0,
			"-0.02": 0.0,
			"-0.019": 0.25800715499,
			"-0.018": 0.983301846012,
			"-0.017": 0.602707846567,
			"-0.016": 1.00004162898,
			"-0.015": 0.798855856211,
			"-0.014": 0.976169676688,
			"-0.013": 0.849611004421,
			"-0.012": 0.24639090679,
			"-0.011": 0.789064351476,
			"-0.01": 0.361143670403,
			"-0.009": 1.62221849231,
			"-0.008": 3.05744527911,
			"-0.007": 4.18905880324,
			"-0.006": 7.7359163445,
			"-0.005": 18.0335037814,
			"-0.004": 23.0717540154,
			"-0.003": 32.6807293699,
			"-0.002": 31.5377596311,
			"-0.001": 24.1066412061,
			"0.0": 17.2362873144,
			"0.001": 18.4581854905,
			"0.002": 17.4724999294,
			"0.003": 8.82171162743,
			"0.004": 5.9559410742,
			"0.005": 4.60669423335,
			"0.006": 5.4500566773,
			"0.007": 4.08447287545,
			"0.008": 4.39700001691,
			"0.009": 4.48239158968,
			"0.01": 5.73581498049,
			"0.011": 7.78054965449,
			"0.012": 5.99413187525,
			"0.013": 5.42323195935,
			"0.014": 2.12521060592,
			"0.015": 0.125046351235,
			"0.016": 0.0,
			"0.017": 0.0,
			"0.018": 0.0,
			"0.019": 0.0,
			"0.02": 0.0,
			"0.021": 0.0,
			"0.022": 0.0,
			"0.023": 0.0,
			"0.024": 0.0,
			"0.025": 0.0
		}
	}
}
