{
	 "smiles": "CC(CN1C=NC=N1)C(N)=S", 
	 "Tm": 443.15, 
	 "num_atms": 21, 
	 "gaussian": { 
		 "optdone": 1, 
		 "sigma_profile": "yes", 
		 "theory": "DFT", 
		 "functional": "B3LYP", 
		 "basiset": "6-31G**", 
		 "properties": { 
			 "R2extent": 2279.6165, 
			 "electric_dipole_moment_norm": 2.91939150852, 
			 "electric_quadrupole_moment_norm": 20.2202860155, 
			 "total_energy": -851.85356683, 
			 "HOMO_LUMO_gap": 0.17427, 
			 "cosmo_polarized_energy": -17.77, 
			 "cosmo_cavitation_energy": 25.81, 
			 "cosmo_dispersion_energy": -18.61, 
			 "cosmo_repulsion_energy": 1.45, 
			 "cosmo_total_nonelectrostatic_energy": 8.65, 
			 "SMD_solvation_energy": 1.85 
		},
		"coords": [
			{
				"x": -0.4616629067,
				"y": -0.333947418,
				"z": 1.8474010727,
				"element": "C" 
			},
			{
				"x": -1.1243513131,
				"y": 0.4265471112,
				"z": 0.684049666,
				"element": "C" 
			},
			{
				"x": -0.1090412978,
				"y": 1.2022542232,
				"z": -0.1960069001,
				"element": "C" 
			},
			{
				"x": 0.6544647371,
				"y": 0.3817947399,
				"z": -1.1290268216,
				"element": "N" 
			},
			{
				"x": 0.6793620665,
				"y": 0.4415709466,
				"z": -2.4799328647,
				"element": "C" 
			},
			{
				"x": 1.4924448881,
				"y": -0.4779006759,
				"z": -2.9749574968,
				"element": "N" 
			},
			{
				"x": 1.9498262019,
				"y": -1.0965215252,
				"z": -1.8546477647,
				"element": "C" 
			},
			{
				"x": 1.4769847226,
				"y": -0.6191113938,
				"z": -0.7081977048,
				"element": "N" 
			},
			{
				"x": -2.0390903126,
				"y": -0.4322517362,
				"z": -0.1906563718,
				"element": "C" 
			},
			{
				"x": -1.5627736767,
				"y": -1.6498863296,
				"z": -0.5018962279,
				"element": "N" 
			},
			{
				"x": -3.5079974336,
				"y": 0.1299621472,
				"z": -0.7400843615,
				"element": "S" 
			},
			{
				"x": 0.2988065714,
				"y": -1.0412866931,
				"z": 1.5102352077,
				"element": "H" 
			},
			{
				"x": -1.2147883864,
				"y": -0.8683057561,
				"z": 2.4333332676,
				"element": "H" 
			},
			{
				"x": 0.0365431682,
				"y": 0.3800934388,
				"z": 2.5112718947,
				"element": "H" 
			},
			{
				"x": -1.7718645181,
				"y": 1.1985880507,
				"z": 1.1076865759,
				"element": "H" 
			},
			{
				"x": 0.591800944,
				"y": 1.7383853104,
				"z": 0.4520852918,
				"element": "H" 
			},
			{
				"x": -0.647385981,
				"y": 1.9331275166,
				"z": -0.8038074215,
				"element": "H" 
			},
			{
				"x": 0.0981508916,
				"y": 1.1570385988,
				"z": -3.0452810448,
				"element": "H" 
			},
			{
				"x": 2.6534500195,
				"y": -1.9178386347,
				"z": -1.8759538155,
				"element": "H" 
			},
			{
				"x": -0.6119066036,
				"y": -1.9169865862,
				"z": -0.2818034642,
				"element": "H" 
			},
			{
				"x": -2.0971717813,
				"y": -2.2308253345,
				"z": -1.1323107164,
				"element": "H" 
			}
		],
		 "valence_orbital": [ 
			{
				"type": "occ",
				"energy": -0.30028,
				"method": "rhf"
			},
			{
				"type": "occ",
				"energy": -0.28758,
				"method": "rhf"
			},
			{
				"type": "occ",
				"energy": -0.27941,
				"method": "rhf"
			},
			{
				"type": "occ",
				"energy": -0.23594,
				"method": "rhf"
			},
			{
				"type": "occ",
				"energy": -0.21163,
				"method": "rhf"
			},
			{
				"type": "unocc",
				"energy": -0.03736,
				"method": "rhf"
			},
			{
				"type": "unocc",
				"energy": -0.00915,
				"method": "rhf"
			},
			{
				"type": "unocc",
				"energy": 0.04,
				"method": "rhf"
			},
			{
				"type": "unocc",
				"energy": 0.06132,
				"method": "rhf"
			},
			{
				"type": "unocc",
				"energy": 0.08589,
				"method": "rhf"
			}
		],
		"cosmo_sigma_profile": { 
			"-0.025": 0.0,
			"-0.024": 0.0,
			"-0.023": 0.0,
			"-0.022": 0.0,
			"-0.021": 0.0,
			"-0.02": 0.0,
			"-0.019": 0.0,
			"-0.018": 0.0,
			"-0.017": 0.0,
			"-0.016": 0.0,
			"-0.015": 0.748665336832,
			"-0.014": 1.35943561812,
			"-0.013": 1.78117567292,
			"-0.012": 1.83593447837,
			"-0.011": 2.56748974006,
			"-0.01": 5.31995069806,
			"-0.009": 4.27633120376,
			"-0.008": 5.65003132199,
			"-0.007": 9.26130212444,
			"-0.006": 12.102980543,
			"-0.005": 12.0784815072,
			"-0.004": 14.3080140312,
			"-0.003": 12.5682842337,
			"-0.002": 11.3532786839,
			"-0.001": 13.7793118039,
			"0.0": 12.6480400883,
			"0.001": 8.32114483111,
			"0.002": 7.9740504624,
			"0.003": 7.1968082533,
			"0.004": 6.12574843046,
			"0.005": 5.82030391484,
			"0.006": 5.66335229985,
			"0.007": 7.3485448272,
			"0.008": 7.92834523704,
			"0.009": 8.00984154535,
			"0.01": 5.88838021822,
			"0.011": 6.41884468488,
			"0.012": 4.16472150773,
			"0.013": 1.14079036093,
			"0.014": 1.22601701763,
			"0.015": 1.3814068844,
			"0.016": 0.858151365002,
			"0.017": 0.175540441891,
			"0.018": 0.0,
			"0.019": 0.0,
			"0.02": 0.0,
			"0.021": 0.0,
			"0.022": 0.0,
			"0.023": 0.0,
			"0.024": 0.0,
			"0.025": 0.0
		}
	}
}
