{
	 "smiles": "FC1=C(F)C(F)=C(F)C(F)=C1F", 
	 "Tm": 277.75, 
	 "num_atms": 12, 
	 "gaussian": { 
		 "optdone": 1, 
		 "sigma_profile": "yes", 
		 "theory": "DFT", 
		 "functional": "B3LYP", 
		 "basiset": "6-31G**", 
		 "properties": { 
			 "R2extent": 2103.9056, 
			 "electric_dipole_moment_norm": 0.0, 
			 "electric_quadrupole_moment_norm": 4.58584672661, 
			 "total_energy": -827.588039018, 
			 "HOMO_LUMO_gap": 0.23957, 
			 "cosmo_polarized_energy": -2.35, 
			 "cosmo_cavitation_energy": 20.54, 
			 "cosmo_dispersion_energy": -14.27, 
			 "cosmo_repulsion_energy": 1.01, 
			 "cosmo_total_nonelectrostatic_energy": 7.29, 
			 "SMD_solvation_energy": 6.65 
		},
		"coords": [
			{
				"x": -1.5785811986,
				"y": 1.5721204619,
				"z": 1.1705912506,
				"element": "F" 
			},
			{
				"x": -1.1141112534,
				"y": 0.4707853628,
				"z": 0.5748985645,
				"element": "C" 
			},
			{
				"x": 0.2239144688,
				"y": 0.109625673,
				"z": 0.7234971958,
				"element": "C" 
			},
			{
				"x": 1.0413965816,
				"y": 0.8648843577,
				"z": 1.4616339081,
				"element": "F" 
			},
			{
				"x": 0.7087394217,
				"y": -1.0397914243,
				"z": 0.1017239812,
				"element": "C" 
			},
			{
				"x": 1.9907661235,
				"y": -1.3857715961,
				"z": 0.2440606758,
				"element": "F" 
			},
			{
				"x": -0.1444899734,
				"y": -1.8280866504,
				"z": -0.66861376,
				"element": "C" 
			},
			{
				"x": 0.3199837547,
				"y": -2.9294181343,
				"z": -1.2643099378,
				"element": "F" 
			},
			{
				"x": -1.4825147989,
				"y": -1.4669274448,
				"z": -0.8172124568,
				"element": "C" 
			},
			{
				"x": -2.2999971307,
				"y": -2.222181399,
				"z": -1.5553530901,
				"element": "F" 
			},
			{
				"x": -1.9673399454,
				"y": -0.3175102932,
				"z": -0.1954372267,
				"element": "C" 
			},
			{
				"x": -3.2493660499,
				"y": 0.0284710869,
				"z": -0.3377791045,
				"element": "F" 
			}
		],
		 "valence_orbital": [ 
			{
				"type": "occ",
				"energy": -0.41687,
				"method": "rhf"
			},
			{
				"type": "occ",
				"energy": -0.38714,
				"method": "rhf"
			},
			{
				"type": "occ",
				"energy": -0.35706,
				"method": "rhf"
			},
			{
				"type": "occ",
				"energy": -0.26924,
				"method": "rhf"
			},
			{
				"type": "occ",
				"energy": -0.26923,
				"method": "rhf"
			},
			{
				"type": "unocc",
				"energy": -0.02966,
				"method": "rhf"
			},
			{
				"type": "unocc",
				"energy": -0.02966,
				"method": "rhf"
			},
			{
				"type": "unocc",
				"energy": -0.01398,
				"method": "rhf"
			},
			{
				"type": "unocc",
				"energy": 0.09595,
				"method": "rhf"
			},
			{
				"type": "unocc",
				"energy": 0.09596,
				"method": "rhf"
			}
		],
		"cosmo_sigma_profile": { 
			"-0.025": 0.0,
			"-0.024": 0.0,
			"-0.023": 0.0,
			"-0.022": 0.0,
			"-0.021": 0.0,
			"-0.02": 0.0,
			"-0.019": 0.0,
			"-0.018": 0.0,
			"-0.017": 0.0,
			"-0.016": 0.0,
			"-0.015": 0.0,
			"-0.014": 0.0,
			"-0.013": 0.0,
			"-0.012": 0.0,
			"-0.011": 0.0,
			"-0.01": 0.0,
			"-0.009": 0.0,
			"-0.008": 0.0,
			"-0.007": 0.238522367258,
			"-0.006": 1.56689274403,
			"-0.005": 4.0341688021,
			"-0.004": 24.2100735535,
			"-0.003": 13.5207041973,
			"-0.002": 8.79531005434,
			"-0.001": 9.26372241458,
			"0.0": 9.70461973693,
			"0.001": 16.8931140484,
			"0.002": 60.2137544021,
			"0.003": 19.4310675515,
			"0.004": 0.0,
			"0.005": 0.0,
			"0.006": 0.0,
			"0.007": 0.0,
			"0.008": 0.0,
			"0.009": 0.0,
			"0.01": 0.0,
			"0.011": 0.0,
			"0.012": 0.0,
			"0.013": 0.0,
			"0.014": 0.0,
			"0.015": 0.0,
			"0.016": 0.0,
			"0.017": 0.0,
			"0.018": 0.0,
			"0.019": 0.0,
			"0.02": 0.0,
			"0.021": 0.0,
			"0.022": 0.0,
			"0.023": 0.0,
			"0.024": 0.0,
			"0.025": 0.0
		}
	}
}
