{
	 "smiles": "OC(=O)C1=CC(=CC=C1)S(=O)(=O)CC1=CC=CC=C1", 
	 "Tm": 488.15, 
	 "num_atms": 31, 
	 "gaussian": { 
		 "optdone": 1, 
		 "sigma_profile": "yes", 
		 "theory": "DFT", 
		 "functional": "B3LYP", 
		 "basiset": "6-31G**", 
		 "properties": { 
			 "R2extent": 5906.5941, 
			 "electric_dipole_moment_norm": 5.51358426888, 
			 "electric_quadrupole_moment_norm": 15.2639064616, 
			 "total_energy": -1239.7617021, 
			 "HOMO_LUMO_gap": 0.18371, 
			 "cosmo_polarized_energy": -20.51, 
			 "cosmo_cavitation_energy": 37.37, 
			 "cosmo_dispersion_energy": -25.48, 
			 "cosmo_repulsion_energy": 1.93, 
			 "cosmo_total_nonelectrostatic_energy": 13.82, 
			 "SMD_solvation_energy": 6.69 
		},
		"coords": [
			{
				"x": -0.7113579416,
				"y": 5.0314267185,
				"z": -1.7367549706,
				"element": "O" 
			},
			{
				"x": 0.1163194924,
				"y": 3.9614067951,
				"z": -1.6440220257,
				"element": "C" 
			},
			{
				"x": 1.0507813476,
				"y": 3.794465115,
				"z": -2.399923172,
				"element": "O" 
			},
			{
				"x": -0.2514750708,
				"y": 3.0403137362,
				"z": -0.532272435,
				"element": "C" 
			},
			{
				"x": 0.5396157658,
				"y": 1.9007703123,
				"z": -0.3419603151,
				"element": "C" 
			},
			{
				"x": 0.219848243,
				"y": 1.0248417572,
				"z": 0.6918232696,
				"element": "C" 
			},
			{
				"x": -0.8587925437,
				"y": 1.2654570812,
				"z": 1.5474412846,
				"element": "C" 
			},
			{
				"x": -1.6405330374,
				"y": 2.4044001284,
				"z": 1.3505897092,
				"element": "C" 
			},
			{
				"x": -1.341846605,
				"y": 3.2880444175,
				"z": 0.3136166025,
				"element": "C" 
			},
			{
				"x": 1.2332122452,
				"y": -0.4419883567,
				"z": 0.9617289668,
				"element": "S" 
			},
			{
				"x": 1.0186978246,
				"y": -0.8791735829,
				"z": 2.3520594944,
				"element": "O" 
			},
			{
				"x": 2.5845057017,
				"y": -0.1586831325,
				"z": 0.4528918644,
				"element": "O" 
			},
			{
				"x": 0.4833849666,
				"y": -1.7444989317,
				"z": -0.103876542,
				"element": "C" 
			},
			{
				"x": 0.4906761855,
				"y": -1.4510840356,
				"z": -1.5769094266,
				"element": "C" 
			},
			{
				"x": -0.6987983354,
				"y": -1.1127602806,
				"z": -2.2362645757,
				"element": "C" 
			},
			{
				"x": -0.7002352007,
				"y": -0.8440530288,
				"z": -3.6054059782,
				"element": "C" 
			},
			{
				"x": 0.4912355353,
				"y": -0.9038294637,
				"z": -4.3293641101,
				"element": "C" 
			},
			{
				"x": 1.6824218394,
				"y": -1.2355628417,
				"z": -3.6792913021,
				"element": "C" 
			},
			{
				"x": 1.6838977197,
				"y": -1.5101320683,
				"z": -2.3126286621,
				"element": "C" 
			},
			{
				"x": -0.3805099525,
				"y": 5.5594724039,
				"z": -2.4819073529,
				"element": "H" 
			},
			{
				"x": 1.3926342495,
				"y": 1.7232284018,
				"z": -0.9866640683,
				"element": "H" 
			},
			{
				"x": -1.0583964569,
				"y": 0.5781127845,
				"z": 2.3628128438,
				"element": "H" 
			},
			{
				"x": -2.4772059934,
				"y": 2.6069780631,
				"z": 2.0118302829,
				"element": "H" 
			},
			{
				"x": -1.9444580403,
				"y": 4.1755815575,
				"z": 0.1582839258,
				"element": "H" 
			},
			{
				"x": -0.5236906916,
				"y": -1.8978633188,
				"z": 0.2912532203,
				"element": "H" 
			},
			{
				"x": 1.0912937629,
				"y": -2.6171881495,
				"z": 0.1566542085,
				"element": "H" 
			},
			{
				"x": -1.6289719892,
				"y": -1.0663929927,
				"z": -1.6754232278,
				"element": "H" 
			},
			{
				"x": -1.6304746323,
				"y": -0.5885711046,
				"z": -4.1044242478,
				"element": "H" 
			},
			{
				"x": 0.4925951619,
				"y": -0.6936083849,
				"z": -5.3948686386,
				"element": "H" 
			},
			{
				"x": 2.6126467758,
				"y": -1.2814416769,
				"z": -4.2377572016,
				"element": "H" 
			},
			{
				"x": 2.6120796738,
				"y": -1.754867922,
				"z": -1.806067421,
				"element": "H" 
			}
		],
		 "valence_orbital": [ 
			{
				"type": "occ",
				"energy": -0.28774,
				"method": "rhf"
			},
			{
				"type": "occ",
				"energy": -0.2837,
				"method": "rhf"
			},
			{
				"type": "occ",
				"energy": -0.28019,
				"method": "rhf"
			},
			{
				"type": "occ",
				"energy": -0.25803,
				"method": "rhf"
			},
			{
				"type": "occ",
				"energy": -0.25027,
				"method": "rhf"
			},
			{
				"type": "unocc",
				"energy": -0.06656,
				"method": "rhf"
			},
			{
				"type": "unocc",
				"energy": -0.04276,
				"method": "rhf"
			},
			{
				"type": "unocc",
				"energy": -0.0211,
				"method": "rhf"
			},
			{
				"type": "unocc",
				"energy": -0.00969,
				"method": "rhf"
			},
			{
				"type": "unocc",
				"energy": 0.03185,
				"method": "rhf"
			}
		],
		"cosmo_sigma_profile": { 
			"-0.025": 0.0,
			"-0.024": 0.0,
			"-0.023": 0.0,
			"-0.022": 0.0,
			"-0.021": 0.0,
			"-0.02": 0.0,
			"-0.019": 0.176226029629,
			"-0.018": 1.11070850885,
			"-0.017": 0.758526935107,
			"-0.016": 0.675044168754,
			"-0.015": 0.834261385076,
			"-0.014": 0.742910079748,
			"-0.013": 0.727927297672,
			"-0.012": 0.873896751248,
			"-0.011": 0.58406559876,
			"-0.01": 0.952903837792,
			"-0.009": 3.32721386608,
			"-0.008": 8.51138068308,
			"-0.007": 11.3664787946,
			"-0.006": 18.5475988864,
			"-0.005": 19.7201378731,
			"-0.004": 18.4408675201,
			"-0.003": 19.2167211054,
			"-0.002": 18.7703379167,
			"-0.001": 18.8366011603,
			"0.0": 23.2073281758,
			"0.001": 25.9146594296,
			"0.002": 17.1792513854,
			"0.003": 14.6650734198,
			"0.004": 13.1145726956,
			"0.005": 11.5142773559,
			"0.006": 6.20941646693,
			"0.007": 5.32262479192,
			"0.008": 4.41132194987,
			"0.009": 5.34554908183,
			"0.01": 7.22662337451,
			"0.011": 12.9800352711,
			"0.012": 7.60538761065,
			"0.013": 0.140225553829,
			"0.014": 0.0,
			"0.015": 0.0,
			"0.016": 0.0,
			"0.017": 0.0,
			"0.018": 0.0,
			"0.019": 0.0,
			"0.02": 0.0,
			"0.021": 0.0,
			"0.022": 0.0,
			"0.023": 0.0,
			"0.024": 0.0,
			"0.025": 0.0
		}
	}
}
