{
	 "smiles": "OC1=CC2=C(C=C1)C=CC(=O)O2", 
	 "Tm": 503.15, 
	 "num_atms": 18, 
	 "gaussian": { 
		 "optdone": 1, 
		 "sigma_profile": "yes", 
		 "theory": "DFT", 
		 "functional": "B3LYP", 
		 "basiset": "6-31G**", 
		 "properties": { 
			 "R2extent": 2572.9141, 
			 "electric_dipole_moment_norm": 6.38577550811, 
			 "electric_quadrupole_moment_norm": 18.7284536172, 
			 "total_energy": -572.243774173, 
			 "HOMO_LUMO_gap": 0.1641, 
			 "cosmo_polarized_energy": -15.96, 
			 "cosmo_cavitation_energy": 22.9, 
			 "cosmo_dispersion_energy": -17.35, 
			 "cosmo_repulsion_energy": 1.36, 
			 "cosmo_total_nonelectrostatic_energy": 6.91, 
			 "SMD_solvation_energy": 5.48 
		},
		"coords": [
			{
				"x": 0.2525287114,
				"y": -0.9656506256,
				"z": 2.9981939678,
				"element": "O" 
			},
			{
				"x": 0.2512811114,
				"y": -0.4445315081,
				"z": 1.7427288653,
				"element": "C" 
			},
			{
				"x": 0.2824451139,
				"y": 0.9461353135,
				"z": 1.6315030854,
				"element": "C" 
			},
			{
				"x": 0.2822927746,
				"y": 1.5193669487,
				"z": 0.363125968,
				"element": "C" 
			},
			{
				"x": 0.251462202,
				"y": 0.7303416365,
				"z": -0.8080749982,
				"element": "C" 
			},
			{
				"x": 0.2204604576,
				"y": -0.667790638,
				"z": -0.6617114915,
				"element": "C" 
			},
			{
				"x": 0.2201311536,
				"y": -1.2565523515,
				"z": 0.5924865211,
				"element": "C" 
			},
			{
				"x": 0.2538729606,
				"y": 1.4167391492,
				"z": -2.0710960704,
				"element": "C" 
			},
			{
				"x": 0.2847732683,
				"y": 2.7689610182,
				"z": -2.1266122588,
				"element": "C" 
			},
			{
				"x": 0.3170821916,
				"y": 3.5823007652,
				"z": -0.9171927034,
				"element": "C" 
			},
			{
				"x": 0.344662701,
				"y": 4.7887571915,
				"z": -0.863881918,
				"element": "O" 
			},
			{
				"x": 0.3132774133,
				"y": 2.8794090549,
				"z": 0.2954927367,
				"element": "O" 
			},
			{
				"x": 0.2296093139,
				"y": -1.9302646033,
				"z": 2.9476130531,
				"element": "H" 
			},
			{
				"x": 0.306402966,
				"y": 1.5704189753,
				"z": 2.5164897819,
				"element": "H" 
			},
			{
				"x": 0.196452148,
				"y": -1.2901652595,
				"z": -1.5519595344,
				"element": "H" 
			},
			{
				"x": 0.1960012772,
				"y": -2.3387713939,
				"z": 0.6926942416,
				"element": "H" 
			},
			{
				"x": 0.2302406796,
				"y": 0.8281832889,
				"z": -2.9853386251,
				"element": "H" 
			},
			{
				"x": 0.2873235558,
				"y": 3.3173130381,
				"z": -3.0606606211,
				"element": "H" 
			}
		],
		 "valence_orbital": [ 
			{
				"type": "occ",
				"energy": -0.34628,
				"method": "rhf"
			},
			{
				"type": "occ",
				"energy": -0.29957,
				"method": "rhf"
			},
			{
				"type": "occ",
				"energy": -0.27052,
				"method": "rhf"
			},
			{
				"type": "occ",
				"energy": -0.25393,
				"method": "rhf"
			},
			{
				"type": "occ",
				"energy": -0.22649,
				"method": "rhf"
			},
			{
				"type": "unocc",
				"energy": -0.06239,
				"method": "rhf"
			},
			{
				"type": "unocc",
				"energy": -0.01545,
				"method": "rhf"
			},
			{
				"type": "unocc",
				"energy": 0.00878,
				"method": "rhf"
			},
			{
				"type": "unocc",
				"energy": 0.05472,
				"method": "rhf"
			},
			{
				"type": "unocc",
				"energy": 0.08387,
				"method": "rhf"
			}
		],
		"cosmo_sigma_profile": { 
			"-0.025": 0.0,
			"-0.024": 0.0,
			"-0.023": 0.0,
			"-0.022": 0.0,
			"-0.021": 0.0,
			"-0.02": 0.0,
			"-0.019": 0.21759251286,
			"-0.018": 1.44628930243,
			"-0.017": 0.456102324712,
			"-0.016": 1.38215461921,
			"-0.015": 1.32705851807,
			"-0.014": 0.843851430092,
			"-0.013": 0.534062125997,
			"-0.012": 1.28372434949,
			"-0.011": 0.941544311215,
			"-0.01": 1.23887428394,
			"-0.009": 1.99857241525,
			"-0.008": 5.81496011666,
			"-0.007": 10.223273925,
			"-0.006": 9.14649084734,
			"-0.005": 8.36775669458,
			"-0.004": 7.28845132159,
			"-0.003": 8.57833801623,
			"-0.002": 10.0316606044,
			"-0.001": 10.002899764,
			"0.0": 12.9830967559,
			"0.001": 17.9544140063,
			"0.002": 19.534437847,
			"0.003": 11.1271983298,
			"0.004": 5.26846180796,
			"0.005": 2.45133573363,
			"0.006": 5.15074627911,
			"0.007": 2.6464690523,
			"0.008": 3.34615515303,
			"0.009": 4.38788994849,
			"0.01": 4.09378053846,
			"0.011": 4.22080587943,
			"0.012": 6.338833955,
			"0.013": 3.43821870778,
			"0.014": 0.22996181267,
			"0.015": 0.0,
			"0.016": 0.0,
			"0.017": 0.0,
			"0.018": 0.0,
			"0.019": 0.0,
			"0.02": 0.0,
			"0.021": 0.0,
			"0.022": 0.0,
			"0.023": 0.0,
			"0.024": 0.0,
			"0.025": 0.0
		}
	}
}
