{
	 "smiles": "OC(=O)C1=CC2=C(OCCO2)C(Br)=C1", 
	 "Tm": 532.15, 
	 "num_atms": 21, 
	 "gaussian": { 
		 "optdone": 1, 
		 "sigma_profile": "yes", 
		 "theory": "DFT", 
		 "functional": "B3LYP", 
		 "basiset": "6-31G**", 
		 "properties": { 
			 "R2extent": 5000.2904, 
			 "electric_dipole_moment_norm": 2.7045731068, 
			 "electric_quadrupole_moment_norm": 22.6605742399, 
			 "total_energy": -3219.47254917, 
			 "HOMO_LUMO_gap": 0.1845, 
			 "cosmo_polarized_energy": -12.8, 
			 "cosmo_cavitation_energy": 27.73, 
			 "cosmo_dispersion_energy": -21.31, 
			 "cosmo_repulsion_energy": 1.68, 
			 "cosmo_total_nonelectrostatic_energy": 8.1, 
			 "SMD_solvation_energy": 5.24 
		},
		"coords": [
			{
				"x": -1.3554014825,
				"y": 0.9252755166,
				"z": -1.8893312018,
				"element": "O" 
			},
			{
				"x": -0.0179838421,
				"y": 0.9706523958,
				"z": -1.6631697833,
				"element": "C" 
			},
			{
				"x": 0.7549732786,
				"y": 1.4657749072,
				"z": -2.4601403514,
				"element": "O" 
			},
			{
				"x": 0.3730405406,
				"y": 0.3622329587,
				"z": -0.367339504,
				"element": "C" 
			},
			{
				"x": 1.729748776,
				"y": 0.3657147727,
				"z": -0.0280129154,
				"element": "C" 
			},
			{
				"x": 2.1475691438,
				"y": -0.1914291443,
				"z": 1.1738761441,
				"element": "C" 
			},
			{
				"x": 1.2121150373,
				"y": -0.7768230782,
				"z": 2.0532151067,
				"element": "C" 
			},
			{
				"x": 1.5893671905,
				"y": -1.353481828,
				"z": 3.2264045826,
				"element": "O" 
			},
			{
				"x": 2.9940581397,
				"y": -1.605386457,
				"z": 3.3427044686,
				"element": "C" 
			},
			{
				"x": 3.7803056787,
				"y": -0.4036252827,
				"z": 2.8505155025,
				"element": "C" 
			},
			{
				"x": 3.4852887313,
				"y": -0.1614463689,
				"z": 1.4748932969,
				"element": "O" 
			},
			{
				"x": -0.1457425237,
				"y": -0.7546439977,
				"z": 1.703671416,
				"element": "C" 
			},
			{
				"x": -1.4196092641,
				"y": -1.5221460695,
				"z": 2.8936880082,
				"element": "Br" 
			},
			{
				"x": -0.5717474392,
				"y": -0.1910597723,
				"z": 0.507983852,
				"element": "C" 
			},
			{
				"x": -1.4898681836,
				"y": 1.3460499348,
				"z": -2.7541009739,
				"element": "H" 
			},
			{
				"x": 2.4570515077,
				"y": 0.8082312846,
				"z": -0.6986353367,
				"element": "H" 
			},
			{
				"x": 3.2565012528,
				"y": -2.4953568485,
				"z": 2.7566816143,
				"element": "H" 
			},
			{
				"x": 3.1803151825,
				"y": -1.803800802,
				"z": 4.400506088,
				"element": "H" 
			},
			{
				"x": 3.5290197255,
				"y": 0.4822519651,
				"z": 3.4492030983,
				"element": "H" 
			},
			{
				"x": 4.8566383443,
				"y": -0.5812098571,
				"z": 2.9101252728,
				"element": "H" 
			},
			{
				"x": -1.6234397942,
				"y": -0.1872742292,
				"z": 0.2544616155,
				"element": "H" 
			}
		],
		 "valence_orbital": [ 
			{
				"type": "occ",
				"energy": -0.3,
				"method": "rhf"
			},
			{
				"type": "occ",
				"energy": -0.2868,
				"method": "rhf"
			},
			{
				"type": "occ",
				"energy": -0.27631,
				"method": "rhf"
			},
			{
				"type": "occ",
				"energy": -0.23945,
				"method": "rhf"
			},
			{
				"type": "occ",
				"energy": -0.23114,
				"method": "rhf"
			},
			{
				"type": "unocc",
				"energy": -0.04664,
				"method": "rhf"
			},
			{
				"type": "unocc",
				"energy": -0.01346,
				"method": "rhf"
			},
			{
				"type": "unocc",
				"energy": 0.00408,
				"method": "rhf"
			},
			{
				"type": "unocc",
				"energy": 0.05784,
				"method": "rhf"
			},
			{
				"type": "unocc",
				"energy": 0.0755,
				"method": "rhf"
			}
		],
		"cosmo_sigma_profile": { 
			"-0.025": 0.0,
			"-0.024": 0.0,
			"-0.023": 0.0,
			"-0.022": 0.0,
			"-0.021": 0.0,
			"-0.02": 0.0,
			"-0.019": 0.00395068325012,
			"-0.018": 1.20660291006,
			"-0.017": 0.549822125331,
			"-0.016": 0.650780508323,
			"-0.015": 1.15934595628,
			"-0.014": 0.594394202541,
			"-0.013": 0.5125999204,
			"-0.012": 0.615161793097,
			"-0.011": 0.863893617162,
			"-0.01": 0.8321194717,
			"-0.009": 0.390097215894,
			"-0.008": 4.59695092513,
			"-0.007": 11.7365632393,
			"-0.006": 15.3850622942,
			"-0.005": 12.6427176857,
			"-0.004": 10.3050853459,
			"-0.003": 10.0734457703,
			"-0.002": 12.0517359815,
			"-0.001": 11.4445138623,
			"0.0": 16.8734819905,
			"0.001": 23.7936774713,
			"0.002": 20.5612341107,
			"0.003": 12.2151164038,
			"0.004": 13.9337382717,
			"0.005": 9.67800470652,
			"0.006": 5.73951175553,
			"0.007": 5.80135507275,
			"0.008": 5.25605817865,
			"0.009": 4.78020693762,
			"0.01": 2.88270378903,
			"0.011": 3.81207872226,
			"0.012": 3.84485915878,
			"0.013": 0.059338109416,
			"0.014": 0.0,
			"0.015": 0.0,
			"0.016": 0.0,
			"0.017": 0.0,
			"0.018": 0.0,
			"0.019": 0.0,
			"0.02": 0.0,
			"0.021": 0.0,
			"0.022": 0.0,
			"0.023": 0.0,
			"0.024": 0.0,
			"0.025": 0.0
		}
	}
}
