{
	 "smiles": "[O-][N+](=O)C1=C(Cl)C=CC(=C1)S(=O)(=O)N1CCCCC1", 
	 "Tm": 335.15, 
	 "num_atms": 32, 
	 "gaussian": { 
		 "optdone": 1, 
		 "sigma_profile": "yes", 
		 "theory": "DFT", 
		 "functional": "B3LYP", 
		 "basiset": "6-31G**", 
		 "properties": { 
			 "R2extent": 8152.5956, 
			 "electric_dipole_moment_norm": 4.2412786256, 
			 "electric_quadrupole_moment_norm": 25.3047732847, 
			 "total_energy": -1695.60619388, 
			 "HOMO_LUMO_gap": 0.16071, 
			 "cosmo_polarized_energy": -15.22, 
			 "cosmo_cavitation_energy": 38.2, 
			 "cosmo_dispersion_energy": -27.1, 
			 "cosmo_repulsion_energy": 2.06, 
			 "cosmo_total_nonelectrostatic_energy": 13.15, 
			 "SMD_solvation_energy": 6.59 
		},
		"coords": [
			{
				"x": -3.9454891188,
				"y": -0.7966237866,
				"z": 1.9258381988,
				"element": "O" 
			},
			{
				"x": -3.5134902478,
				"y": -0.544769642,
				"z": 3.0500855458,
				"element": "N" 
			},
			{
				"x": -4.1828419542,
				"y": -0.4942215154,
				"z": 4.0748131826,
				"element": "O" 
			},
			{
				"x": -2.0714918514,
				"y": -0.2455086756,
				"z": 3.1475043021,
				"element": "C" 
			},
			{
				"x": -1.2927642015,
				"y": -0.564373358,
				"z": 4.2742704943,
				"element": "C" 
			},
			{
				"x": -1.9069221271,
				"y": -1.4281373332,
				"z": 5.6516446341,
				"element": "Cl" 
			},
			{
				"x": 0.0637069703,
				"y": -0.2261385581,
				"z": 4.2736045872,
				"element": "C" 
			},
			{
				"x": 0.6345768666,
				"y": 0.4269106779,
				"z": 3.1838432964,
				"element": "C" 
			},
			{
				"x": -0.153757207,
				"y": 0.7258567764,
				"z": 2.0729529771,
				"element": "C" 
			},
			{
				"x": -1.5025667137,
				"y": 0.3884900771,
				"z": 2.0455524779,
				"element": "C" 
			},
			{
				"x": 0.5683955611,
				"y": 1.6408179416,
				"z": 0.6984248565,
				"element": "S" 
			},
			{
				"x": -0.1950784728,
				"y": 2.8772150803,
				"z": 0.5116628118,
				"element": "O" 
			},
			{
				"x": 2.0160331325,
				"y": 1.6876076778,
				"z": 0.9481418088,
				"element": "O" 
			},
			{
				"x": 0.1798878507,
				"y": 0.6270656003,
				"z": -0.5986092413,
				"element": "N" 
			},
			{
				"x": -0.048867768,
				"y": 1.3152143642,
				"z": -1.8919354197,
				"element": "C" 
			},
			{
				"x": -0.7400525043,
				"y": 0.3461480581,
				"z": -2.8551972507,
				"element": "C" 
			},
			{
				"x": 0.073754268,
				"y": -0.9437804282,
				"z": -3.0268657683,
				"element": "C" 
			},
			{
				"x": 0.3660919519,
				"y": -1.580167584,
				"z": -1.6613494132,
				"element": "C" 
			},
			{
				"x": 1.0307339678,
				"y": -0.5774928636,
				"z": -0.7124506743,
				"element": "C" 
			},
			{
				"x": 0.6666723771,
				"y": -0.4856458634,
				"z": 5.1361838018,
				"element": "H" 
			},
			{
				"x": 1.684670815,
				"y": 0.6976064122,
				"z": 3.1829026073,
				"element": "H" 
			},
			{
				"x": -2.1212238331,
				"y": 0.5991849308,
				"z": 1.1822701349,
				"element": "H" 
			},
			{
				"x": -0.6649907726,
				"y": 2.1945921736,
				"z": -1.7030965863,
				"element": "H" 
			},
			{
				"x": 0.907229143,
				"y": 1.6545399915,
				"z": -2.3213680833,
				"element": "H" 
			},
			{
				"x": -1.7370761015,
				"y": 0.1088275203,
				"z": -2.4644822638,
				"element": "H" 
			},
			{
				"x": -0.8793425398,
				"y": 0.8495477957,
				"z": -3.8185960378,
				"element": "H" 
			},
			{
				"x": -0.4599766691,
				"y": -1.6512993449,
				"z": -3.6705771897,
				"element": "H" 
			},
			{
				"x": 1.0222363571,
				"y": -0.7113048526,
				"z": -3.5308469365,
				"element": "H" 
			},
			{
				"x": 1.0226214977,
				"y": -2.4509350516,
				"z": -1.7694236344,
				"element": "H" 
			},
			{
				"x": -0.5689085912,
				"y": -1.9306085376,
				"z": -1.2075129603,
				"element": "H" 
			},
			{
				"x": 2.0335046555,
				"y": -0.3057336793,
				"z": -1.0742388589,
				"element": "H" 
			},
			{
				"x": 1.1491252595,
				"y": -1.0173840039,
				"z": 0.2819546013,
				"element": "H" 
			}
		],
		 "valence_orbital": [ 
			{
				"type": "occ",
				"energy": -0.31291,
				"method": "rhf"
			},
			{
				"type": "occ",
				"energy": -0.30859,
				"method": "rhf"
			},
			{
				"type": "occ",
				"energy": -0.29419,
				"method": "rhf"
			},
			{
				"type": "occ",
				"energy": -0.28786,
				"method": "rhf"
			},
			{
				"type": "occ",
				"energy": -0.26281,
				"method": "rhf"
			},
			{
				"type": "unocc",
				"energy": -0.1021,
				"method": "rhf"
			},
			{
				"type": "unocc",
				"energy": -0.0662,
				"method": "rhf"
			},
			{
				"type": "unocc",
				"energy": -0.03316,
				"method": "rhf"
			},
			{
				"type": "unocc",
				"energy": -0.00053,
				"method": "rhf"
			},
			{
				"type": "unocc",
				"energy": 0.04897,
				"method": "rhf"
			}
		],
		"cosmo_sigma_profile": { 
			"-0.025": 0.0,
			"-0.024": 0.0,
			"-0.023": 0.0,
			"-0.022": 0.0,
			"-0.021": 0.0,
			"-0.02": 0.0,
			"-0.019": 0.0,
			"-0.018": 0.0,
			"-0.017": 0.0,
			"-0.016": 0.0,
			"-0.015": 0.0,
			"-0.014": 0.0,
			"-0.013": 0.0,
			"-0.012": 0.0,
			"-0.011": 0.0,
			"-0.01": 0.449919318838,
			"-0.009": 4.49472974856,
			"-0.008": 6.5299479605,
			"-0.007": 4.82417774321,
			"-0.006": 6.79878827141,
			"-0.005": 11.5501867957,
			"-0.004": 26.8906243734,
			"-0.003": 43.9362752596,
			"-0.002": 40.0708257221,
			"-0.001": 33.8148819927,
			"0.0": 21.220686492,
			"0.001": 13.0806082599,
			"0.002": 12.5788603385,
			"0.003": 10.8456906492,
			"0.004": 6.73834060308,
			"0.005": 5.99723127962,
			"0.006": 8.87045185073,
			"0.007": 14.2997107958,
			"0.008": 8.11464757805,
			"0.009": 7.06344879225,
			"0.01": 8.42601020175,
			"0.011": 7.0195955808,
			"0.012": 1.17352030921,
			"0.013": 0.0,
			"0.014": 0.0,
			"0.015": 0.0,
			"0.016": 0.0,
			"0.017": 0.0,
			"0.018": 0.0,
			"0.019": 0.0,
			"0.02": 0.0,
			"0.021": 0.0,
			"0.022": 0.0,
			"0.023": 0.0,
			"0.024": 0.0,
			"0.025": 0.0
		}
	}
}
