{
	 "smiles": "CC(=O)C1=C(N)C2=C(S1)N=C(C)C=C2C", 
	 "Tm": 448.15, 
	 "num_atms": 27, 
	 "gaussian": { 
		 "optdone": 1, 
		 "sigma_profile": "yes", 
		 "theory": "DFT", 
		 "functional": "B3LYP", 
		 "basiset": "6-31G**", 
		 "properties": { 
			 "R2extent": 3997.3428, 
			 "electric_dipole_moment_norm": 3.94770944346, 
			 "electric_quadrupole_moment_norm": 11.2485706808, 
			 "total_energy": -1009.34766803, 
			 "HOMO_LUMO_gap": 0.13925, 
			 "cosmo_polarized_energy": -12.86, 
			 "cosmo_cavitation_energy": 31.3, 
			 "cosmo_dispersion_energy": -23.77, 
			 "cosmo_repulsion_energy": 1.79, 
			 "cosmo_total_nonelectrostatic_energy": 9.32, 
			 "SMD_solvation_energy": 3.74 
		},
		"coords": [
			{
				"x": -1.7793179045,
				"y": -1.6168288213,
				"z": 3.2575282542,
				"element": "C" 
			},
			{
				"x": -1.8868850799,
				"y": -1.0343122265,
				"z": 1.8597877813,
				"element": "C" 
			},
			{
				"x": -2.9985637976,
				"y": -0.9278461526,
				"z": 1.3159446222,
				"element": "O" 
			},
			{
				"x": -0.6769215064,
				"y": -0.6028902145,
				"z": 1.1885206568,
				"element": "C" 
			},
			{
				"x": -0.6457561094,
				"y": -0.0054551137,
				"z": -0.0740451837,
				"element": "C" 
			},
			{
				"x": -1.765114565,
				"y": 0.139098074,
				"z": -0.8397897739,
				"element": "N" 
			},
			{
				"x": 0.6945299175,
				"y": 0.3853671979,
				"z": -0.4693143283,
				"element": "C" 
			},
			{
				"x": 1.6477224795,
				"y": 0.0643901106,
				"z": 0.5299090749,
				"element": "C" 
			},
			{
				"x": 0.9332456215,
				"y": -0.7170756837,
				"z": 1.9257684866,
				"element": "S" 
			},
			{
				"x": 2.9594595934,
				"y": 0.2880375884,
				"z": 0.4670857034,
				"element": "N" 
			},
			{
				"x": 3.41332037,
				"y": 0.8702935171,
				"z": -0.6475548232,
				"element": "C" 
			},
			{
				"x": 4.8913267077,
				"y": 1.158830227,
				"z": -0.712587003,
				"element": "C" 
			},
			{
				"x": 2.5580296759,
				"y": 1.2189290456,
				"z": -1.71290626,
				"element": "C" 
			},
			{
				"x": 1.1876037739,
				"y": 0.9875308275,
				"z": -1.6522812403,
				"element": "C" 
			},
			{
				"x": 0.3066891409,
				"y": 1.366041717,
				"z": -2.8178737875,
				"element": "C" 
			},
			{
				"x": -2.7773721212,
				"y": -1.8825415477,
				"z": 3.6077062041,
				"element": "H" 
			},
			{
				"x": -1.1429791606,
				"y": -2.5092950261,
				"z": 3.2606921814,
				"element": "H" 
			},
			{
				"x": -1.3297814053,
				"y": -0.8952315611,
				"z": 3.9492097985,
				"element": "H" 
			},
			{
				"x": -1.7892949672,
				"y": 0.8514729223,
				"z": -1.5488733222,
				"element": "H" 
			},
			{
				"x": -2.6263677605,
				"y": -0.0999015979,
				"z": -0.3504385968,
				"element": "H" 
			},
			{
				"x": 5.0990887388,
				"y": 2.1810307647,
				"z": -0.3722013047,
				"element": "H" 
			},
			{
				"x": 5.2758495233,
				"y": 1.0676147056,
				"z": -1.7327378349,
				"element": "H" 
			},
			{
				"x": 5.4335600542,
				"y": 0.4745824053,
				"z": -0.0573266238,
				"element": "H" 
			},
			{
				"x": 2.9829407983,
				"y": 1.6743044907,
				"z": -2.6028360246,
				"element": "H" 
			},
			{
				"x": -0.3754613848,
				"y": 2.1851723334,
				"z": -2.5560859236,
				"element": "H" 
			},
			{
				"x": 0.9096923113,
				"y": 1.7077321966,
				"z": -3.6624172826,
				"element": "H" 
			},
			{
				"x": -0.2986429438,
				"y": 0.5185498216,
				"z": -3.1555834502,
				"element": "H" 
			}
		],
		 "valence_orbital": [ 
			{
				"type": "occ",
				"energy": -0.28263,
				"method": "rhf"
			},
			{
				"type": "occ",
				"energy": -0.26572,
				"method": "rhf"
			},
			{
				"type": "occ",
				"energy": -0.24411,
				"method": "rhf"
			},
			{
				"type": "occ",
				"energy": -0.24286,
				"method": "rhf"
			},
			{
				"type": "occ",
				"energy": -0.1986,
				"method": "rhf"
			},
			{
				"type": "unocc",
				"energy": -0.05935,
				"method": "rhf"
			},
			{
				"type": "unocc",
				"energy": -0.02067,
				"method": "rhf"
			},
			{
				"type": "unocc",
				"energy": 0.0097,
				"method": "rhf"
			},
			{
				"type": "unocc",
				"energy": 0.02418,
				"method": "rhf"
			},
			{
				"type": "unocc",
				"energy": 0.07432,
				"method": "rhf"
			}
		],
		"cosmo_sigma_profile": { 
			"-0.025": 0.0,
			"-0.024": 0.0,
			"-0.023": 0.0,
			"-0.022": 0.0,
			"-0.021": 0.0,
			"-0.02": 0.0,
			"-0.019": 0.0,
			"-0.018": 0.0,
			"-0.017": 0.0,
			"-0.016": 0.0,
			"-0.015": 0.0,
			"-0.014": 0.0,
			"-0.013": 0.724255205637,
			"-0.012": 1.42652527085,
			"-0.011": 1.62005661161,
			"-0.01": 1.39191142264,
			"-0.009": 2.12739625214,
			"-0.008": 2.59694959086,
			"-0.007": 3.3660132821,
			"-0.006": 8.56495714781,
			"-0.005": 17.4631599655,
			"-0.004": 18.8925342234,
			"-0.003": 20.2628375713,
			"-0.002": 22.42576725,
			"-0.001": 25.2844281967,
			"0.0": 20.2320856038,
			"0.001": 22.1998266145,
			"0.002": 18.7801458426,
			"0.003": 15.2818856026,
			"0.004": 10.8371192041,
			"0.005": 7.9266391721,
			"0.006": 6.0779218133,
			"0.007": 4.04075036992,
			"0.008": 3.22460955603,
			"0.009": 3.00455098732,
			"0.01": 2.86085711984,
			"0.011": 2.00303200754,
			"0.012": 2.77902662731,
			"0.013": 2.93147287234,
			"0.014": 2.08524461694,
			"0.015": 0.334831569291,
			"0.016": 0.0,
			"0.017": 0.0,
			"0.018": 0.0,
			"0.019": 0.0,
			"0.02": 0.0,
			"0.021": 0.0,
			"0.022": 0.0,
			"0.023": 0.0,
			"0.024": 0.0,
			"0.025": 0.0
		}
	}
}
