{
	 "smiles": "OC(=O)C1CCCOC1C1=CC=CC=C1", 
	 "Tm": 330.15, 
	 "num_atms": 29, 
	 "gaussian": { 
		 "optdone": 1, 
		 "sigma_profile": "yes", 
		 "theory": "DFT", 
		 "functional": "B3LYP", 
		 "basiset": "6-31G**", 
		 "properties": { 
			 "R2extent": 3289.2101, 
			 "electric_dipole_moment_norm": 1.82158745329, 
			 "electric_quadrupole_moment_norm": 8.51130562017, 
			 "total_energy": -691.388637667, 
			 "HOMO_LUMO_gap": 0.23362, 
			 "cosmo_polarized_energy": -12.51, 
			 "cosmo_cavitation_energy": 30.75, 
			 "cosmo_dispersion_energy": -22.05, 
			 "cosmo_repulsion_energy": 1.73, 
			 "cosmo_total_nonelectrostatic_energy": 10.43, 
			 "SMD_solvation_energy": 5.72 
		},
		"coords": [
			{
				"x": 0.3870590922,
				"y": 1.5901826509,
				"z": 1.1427832581,
				"element": "O" 
			},
			{
				"x": 0.352358098,
				"y": 0.2384638724,
				"z": 1.1308980838,
				"element": "C" 
			},
			{
				"x": -0.0827205667,
				"y": -0.4062400851,
				"z": 2.0627222141,
				"element": "O" 
			},
			{
				"x": 0.911894364,
				"y": -0.3320852008,
				"z": -0.1612907075,
				"element": "C" 
			},
			{
				"x": 1.7165185857,
				"y": -1.6404091901,
				"z": 0.0942093293,
				"element": "C" 
			},
			{
				"x": 0.9496871965,
				"y": -2.8949690384,
				"z": -0.3662186829,
				"element": "C" 
			},
			{
				"x": -0.538332465,
				"y": -2.7498942883,
				"z": -0.0666164717,
				"element": "C" 
			},
			{
				"x": -1.1241865725,
				"y": -1.6168138157,
				"z": -0.7297313583,
				"element": "O" 
			},
			{
				"x": -0.2374806608,
				"y": -0.6118228952,
				"z": -1.1862185672,
				"element": "C" 
			},
			{
				"x": -1.051800745,
				"y": 0.6197365288,
				"z": -1.540155787,
				"element": "C" 
			},
			{
				"x": -0.542470639,
				"y": 1.5474477776,
				"z": -2.4568208433,
				"element": "C" 
			},
			{
				"x": -1.2595730474,
				"y": 2.7001635492,
				"z": -2.7754097825,
				"element": "C" 
			},
			{
				"x": -2.503526943,
				"y": 2.9342550705,
				"z": -2.1851636306,
				"element": "C" 
			},
			{
				"x": -3.02159609,
				"y": 2.0080267232,
				"z": -1.2787336852,
				"element": "C" 
			},
			{
				"x": -2.3005799999,
				"y": 0.8569386629,
				"z": -0.9558380914,
				"element": "C" 
			},
			{
				"x": -0.0320778798,
				"y": 1.8655098995,
				"z": 1.9758913261,
				"element": "H" 
			},
			{
				"x": 1.5511057448,
				"y": 0.436660116,
				"z": -0.6036976979,
				"element": "H" 
			},
			{
				"x": 1.9294677587,
				"y": -1.7217165095,
				"z": 1.1636115665,
				"element": "H" 
			},
			{
				"x": 2.679581124,
				"y": -1.5811141372,
				"z": -0.4227911668,
				"element": "H" 
			},
			{
				"x": 1.0906692994,
				"y": -3.063268197,
				"z": -1.440629792,
				"element": "H" 
			},
			{
				"x": 1.3373164494,
				"y": -3.7846107973,
				"z": 0.1418455453,
				"element": "H" 
			},
			{
				"x": -1.0975570961,
				"y": -3.6286123504,
				"z": -0.4068455524,
				"element": "H" 
			},
			{
				"x": -0.687797778,
				"y": -2.6363502147,
				"z": 1.0139691521,
				"element": "H" 
			},
			{
				"x": 0.2750294249,
				"y": -0.9461939903,
				"z": -2.1041468002,
				"element": "H" 
			},
			{
				"x": 0.4201296498,
				"y": 1.3645598977,
				"z": -2.9301063483,
				"element": "H" 
			},
			{
				"x": -0.8519900051,
				"y": 3.4100736233,
				"z": -3.4897101072,
				"element": "H" 
			},
			{
				"x": -3.0673370469,
				"y": 3.8281575705,
				"z": -2.4366142752,
				"element": "H" 
			},
			{
				"x": -3.9932959038,
				"y": 2.1785827993,
				"z": -0.8231909322,
				"element": "H" 
			},
			{
				"x": -2.7027933483,
				"y": 0.1258419679,
				"z": -0.2638001955,
				"element": "H" 
			}
		],
		 "valence_orbital": [ 
			{
				"type": "occ",
				"energy": -0.29414,
				"method": "rhf"
			},
			{
				"type": "occ",
				"energy": -0.27232,
				"method": "rhf"
			},
			{
				"type": "occ",
				"energy": -0.2524,
				"method": "rhf"
			},
			{
				"type": "occ",
				"energy": -0.24446,
				"method": "rhf"
			},
			{
				"type": "occ",
				"energy": -0.23454,
				"method": "rhf"
			},
			{
				"type": "unocc",
				"energy": -0.00092,
				"method": "rhf"
			},
			{
				"type": "unocc",
				"energy": 0.0004,
				"method": "rhf"
			},
			{
				"type": "unocc",
				"energy": 0.0118,
				"method": "rhf"
			},
			{
				"type": "unocc",
				"energy": 0.07992,
				"method": "rhf"
			},
			{
				"type": "unocc",
				"energy": 0.08323,
				"method": "rhf"
			}
		],
		"cosmo_sigma_profile": { 
			"-0.025": 0.0,
			"-0.024": 0.0,
			"-0.023": 0.0,
			"-0.022": 0.0,
			"-0.021": 0.0,
			"-0.02": 0.0,
			"-0.019": 0.0,
			"-0.018": 0.700540003387,
			"-0.017": 0.830562116561,
			"-0.016": 0.996638602193,
			"-0.015": 0.60456520616,
			"-0.014": 0.717895059836,
			"-0.013": 0.226162142204,
			"-0.012": 0.88739343664,
			"-0.011": 1.18080901586,
			"-0.01": 0.476087825522,
			"-0.009": 0.425962787387,
			"-0.008": 0.596209757631,
			"-0.007": 1.03231879082,
			"-0.006": 7.94146831383,
			"-0.005": 16.8680152455,
			"-0.004": 26.246124754,
			"-0.003": 28.8612938333,
			"-0.002": 25.039271585,
			"-0.001": 19.0123486544,
			"0.0": 15.5397934792,
			"0.001": 9.93373182801,
			"0.002": 8.83270026329,
			"0.003": 10.2967304603,
			"0.004": 11.2482906123,
			"0.005": 12.2181313607,
			"0.006": 10.9295936062,
			"0.007": 7.10458809171,
			"0.008": 6.53318256997,
			"0.009": 4.86739111172,
			"0.01": 3.19710827918,
			"0.011": 3.5841107179,
			"0.012": 4.20335174544,
			"0.013": 0.487715891854,
			"0.014": 0.0,
			"0.015": 0.0,
			"0.016": 0.0,
			"0.017": 0.0,
			"0.018": 0.0,
			"0.019": 0.0,
			"0.02": 0.0,
			"0.021": 0.0,
			"0.022": 0.0,
			"0.023": 0.0,
			"0.024": 0.0,
			"0.025": 0.0
		}
	}
}
