{
	 "smiles": "CC(=O)C1=CC(=CC=C1)S(=O)(=O)N1CCOCC1", 
	 "Tm": 416.15, 
	 "num_atms": 33, 
	 "gaussian": { 
		 "optdone": 1, 
		 "sigma_profile": "yes", 
		 "theory": "DFT", 
		 "functional": "B3LYP", 
		 "basiset": "6-31G**", 
		 "properties": { 
			 "R2extent": 5676.055, 
			 "electric_dipole_moment_norm": 2.65905368317, 
			 "electric_quadrupole_moment_norm": 20.1894618561, 
			 "total_energy": -1220.05755287, 
			 "HOMO_LUMO_gap": 0.18005, 
			 "cosmo_polarized_energy": -18.88, 
			 "cosmo_cavitation_energy": 36.8, 
			 "cosmo_dispersion_energy": -26.04, 
			 "cosmo_repulsion_energy": 1.97, 
			 "cosmo_total_nonelectrostatic_energy": 12.74, 
			 "SMD_solvation_energy": 4.95 
		},
		"coords": [
			{
				"x": -3.6367269815,
				"y": -1.1030731859,
				"z": 2.4408418512,
				"element": "C" 
			},
			{
				"x": -4.1184127767,
				"y": -0.1668121735,
				"z": 1.3484074768,
				"element": "C" 
			},
			{
				"x": -5.2801373113,
				"y": -0.1810321033,
				"z": 0.9745009832,
				"element": "O" 
			},
			{
				"x": -3.1374206337,
				"y": 0.7899580888,
				"z": 0.7269011575,
				"element": "C" 
			},
			{
				"x": -1.7864305385,
				"y": 0.8300346955,
				"z": 1.0960223747,
				"element": "C" 
			},
			{
				"x": -0.9317428121,
				"y": 1.7486978357,
				"z": 0.483064394,
				"element": "C" 
			},
			{
				"x": -1.4050234692,
				"y": 2.6461479335,
				"z": -0.4784123868,
				"element": "C" 
			},
			{
				"x": -2.7521877923,
				"y": 2.6026369356,
				"z": -0.8444674747,
				"element": "C" 
			},
			{
				"x": -3.6086954875,
				"y": 1.6783256417,
				"z": -0.2522220612,
				"element": "C" 
			},
			{
				"x": 0.8145619531,
				"y": 1.7607396005,
				"z": 0.9278413812,
				"element": "S" 
			},
			{
				"x": 0.912760201,
				"y": 1.1684196428,
				"z": 2.2635094961,
				"element": "O" 
			},
			{
				"x": 1.3296794022,
				"y": 3.093704112,
				"z": 0.6092301902,
				"element": "O" 
			},
			{
				"x": 1.5904056375,
				"y": 0.6961619402,
				"z": -0.1046508505,
				"element": "N" 
			},
			{
				"x": 1.3501027933,
				"y": -0.7459264803,
				"z": 0.0848655303,
				"element": "C" 
			},
			{
				"x": 2.1652619742,
				"y": -1.5056953208,
				"z": -0.9573318969,
				"element": "C" 
			},
			{
				"x": 1.7839930615,
				"y": -1.1939754819,
				"z": -2.2933484539,
				"element": "O" 
			},
			{
				"x": 1.3420495833,
				"y": 0.147770307,
				"z": -2.4942231597,
				"element": "C" 
			},
			{
				"x": 1.9319330461,
				"y": 1.1207711619,
				"z": -1.4771867818,
				"element": "C" 
			},
			{
				"x": -2.839094642,
				"y": -1.7586295453,
				"z": 2.0739319898,
				"element": "H" 
			},
			{
				"x": -4.4776298993,
				"y": -1.7107368629,
				"z": 2.7754056137,
				"element": "H" 
			},
			{
				"x": -3.2315924661,
				"y": -0.5415172647,
				"z": 3.2898454181,
				"element": "H" 
			},
			{
				"x": -1.3919227178,
				"y": 0.1832915375,
				"z": 1.8709023558,
				"element": "H" 
			},
			{
				"x": -0.7322170838,
				"y": 3.3826873306,
				"z": -0.9040863555,
				"element": "H" 
			},
			{
				"x": -3.1318294806,
				"y": 3.3001957815,
				"z": -1.5848083224,
				"element": "H" 
			},
			{
				"x": -4.6588166007,
				"y": 1.6293142081,
				"z": -0.5199441789,
				"element": "H" 
			},
			{
				"x": 0.2854838508,
				"y": -1.0003899374,
				"z": -0.0340269299,
				"element": "H" 
			},
			{
				"x": 1.6611585738,
				"y": -1.0305854308,
				"z": 1.0926548892,
				"element": "H" 
			},
			{
				"x": 2.0108014886,
				"y": -2.5814082072,
				"z": -0.8289741411,
				"element": "H" 
			},
			{
				"x": 3.2349014043,
				"y": -1.2985996513,
				"z": -0.8020966689,
				"element": "H" 
			},
			{
				"x": 1.6455260013,
				"y": 0.4369823754,
				"z": -3.5062991658,
				"element": "H" 
			},
			{
				"x": 0.2430175294,
				"y": 0.1916063134,
				"z": -2.4479614085,
				"element": "H" 
			},
			{
				"x": 3.0231409104,
				"y": 1.1584586493,
				"z": -1.5782365607,
				"element": "H" 
			},
			{
				"x": 1.5628032823,
				"y": 2.1330775539,
				"z": -1.6529483044,
				"element": "H" 
			}
		],
		 "valence_orbital": [ 
			{
				"type": "occ",
				"energy": -0.28804,
				"method": "rhf"
			},
			{
				"type": "occ",
				"energy": -0.28342,
				"method": "rhf"
			},
			{
				"type": "occ",
				"energy": -0.26659,
				"method": "rhf"
			},
			{
				"type": "occ",
				"energy": -0.26217,
				"method": "rhf"
			},
			{
				"type": "occ",
				"energy": -0.25459,
				"method": "rhf"
			},
			{
				"type": "unocc",
				"energy": -0.07454,
				"method": "rhf"
			},
			{
				"type": "unocc",
				"energy": -0.045,
				"method": "rhf"
			},
			{
				"type": "unocc",
				"energy": 0.01416,
				"method": "rhf"
			},
			{
				"type": "unocc",
				"energy": 0.04723,
				"method": "rhf"
			},
			{
				"type": "unocc",
				"energy": 0.07073,
				"method": "rhf"
			}
		],
		"cosmo_sigma_profile": { 
			"-0.025": 0.0,
			"-0.024": 0.0,
			"-0.023": 0.0,
			"-0.022": 0.0,
			"-0.021": 0.0,
			"-0.02": 0.0,
			"-0.019": 0.0,
			"-0.018": 0.0,
			"-0.017": 0.0,
			"-0.016": 0.0,
			"-0.015": 0.0,
			"-0.014": 0.0,
			"-0.013": 0.0,
			"-0.012": 0.0,
			"-0.011": 0.0,
			"-0.01": 0.0,
			"-0.009": 0.0,
			"-0.008": 1.57732176939,
			"-0.007": 12.4052980351,
			"-0.006": 25.2568562999,
			"-0.005": 31.9043590349,
			"-0.004": 32.8128903276,
			"-0.003": 23.8055084334,
			"-0.002": 20.2027361682,
			"-0.001": 17.6425121908,
			"0.0": 15.4839230377,
			"0.001": 19.1469160748,
			"0.002": 12.9126765923,
			"0.003": 7.2975348066,
			"0.004": 7.35367466168,
			"0.005": 6.29902064241,
			"0.006": 5.55571004997,
			"0.007": 6.28789762369,
			"0.008": 6.39781818736,
			"0.009": 6.47031392481,
			"0.01": 10.6011420328,
			"0.011": 12.5882161787,
			"0.012": 6.60356987452,
			"0.013": 2.55198780446,
			"0.014": 0.0747948579001,
			"0.015": 0.0,
			"0.016": 0.0,
			"0.017": 0.0,
			"0.018": 0.0,
			"0.019": 0.0,
			"0.02": 0.0,
			"0.021": 0.0,
			"0.022": 0.0,
			"0.023": 0.0,
			"0.024": 0.0,
			"0.025": 0.0
		}
	}
}
