{
	 "smiles": "OC1=C(CCC2=CC=CC=C2)C=CC=C1", 
	 "Tm": 358.15, 
	 "num_atms": 29, 
	 "gaussian": { 
		 "optdone": 1, 
		 "sigma_profile": "yes", 
		 "theory": "DFT", 
		 "functional": "B3LYP", 
		 "basiset": "6-31G**", 
		 "properties": { 
			 "R2extent": 3450.3736, 
			 "electric_dipole_moment_norm": 1.12454878507, 
			 "electric_quadrupole_moment_norm": 7.87683292701, 
			 "total_energy": -617.157464003, 
			 "HOMO_LUMO_gap": 0.21332, 
			 "cosmo_polarized_energy": -10.15, 
			 "cosmo_cavitation_energy": 32.12, 
			 "cosmo_dispersion_energy": -22.02, 
			 "cosmo_repulsion_energy": 1.74, 
			 "cosmo_total_nonelectrostatic_energy": 11.84, 
			 "SMD_solvation_energy": 5.3 
		},
		"coords": [
			{
				"x": -0.4534120231,
				"y": -2.3638733796,
				"z": -1.5962646406,
				"element": "O" 
			},
			{
				"x": -0.1929615202,
				"y": -2.5444798094,
				"z": -0.2647795978,
				"element": "C" 
			},
			{
				"x": -1.0016327331,
				"y": -1.850151727,
				"z": 0.6539850552,
				"element": "C" 
			},
			{
				"x": -2.0892331326,
				"y": -0.9071250352,
				"z": 0.1877728057,
				"element": "C" 
			},
			{
				"x": -1.6839646269,
				"y": 0.5927070258,
				"z": 0.2209116147,
				"element": "C" 
			},
			{
				"x": -0.5701483811,
				"y": 0.9677895549,
				"z": -0.7330646402,
				"element": "C" 
			},
			{
				"x": 0.7642279695,
				"y": 1.0098331335,
				"z": -0.3074937366,
				"element": "C" 
			},
			{
				"x": 1.79044642,
				"y": 1.3418145281,
				"z": -1.1942366056,
				"element": "C" 
			},
			{
				"x": 1.4976158344,
				"y": 1.6405796227,
				"z": -2.5256408217,
				"element": "C" 
			},
			{
				"x": 0.1714712627,
				"y": 1.6048425633,
				"z": -2.9627591792,
				"element": "C" 
			},
			{
				"x": -0.8494824978,
				"y": 1.2715260124,
				"z": -2.0729961269,
				"element": "C" 
			},
			{
				"x": -0.75398824,
				"y": -2.0486761199,
				"z": 2.0166818425,
				"element": "C" 
			},
			{
				"x": 0.26126128,
				"y": -2.8924689227,
				"z": 2.4711012976,
				"element": "C" 
			},
			{
				"x": 1.0547687944,
				"y": -3.5658865237,
				"z": 1.5426332453,
				"element": "C" 
			},
			{
				"x": 0.8257941382,
				"y": -3.3950671253,
				"z": 0.1778622503,
				"element": "C" 
			},
			{
				"x": 0.2092655774,
				"y": -2.8373356421,
				"z": -2.1147257396,
				"element": "H" 
			},
			{
				"x": -2.3987203155,
				"y": -1.1712663367,
				"z": -0.8268712786,
				"element": "H" 
			},
			{
				"x": -2.9664024194,
				"y": -1.0294284827,
				"z": 0.835061724,
				"element": "H" 
			},
			{
				"x": -1.3926804148,
				"y": 0.8540267328,
				"z": 1.2450726758,
				"element": "H" 
			},
			{
				"x": -2.5767992113,
				"y": 1.1859161572,
				"z": -0.0125415741,
				"element": "H" 
			},
			{
				"x": 0.9998011243,
				"y": 0.7807484901,
				"z": 0.7285120073,
				"element": "H" 
			},
			{
				"x": 2.818196226,
				"y": 1.371809146,
				"z": -0.842366975,
				"element": "H" 
			},
			{
				"x": 2.2941659844,
				"y": 1.9051876255,
				"z": -3.2155295232,
				"element": "H" 
			},
			{
				"x": -0.0682221539,
				"y": 1.842108961,
				"z": -3.995840641,
				"element": "H" 
			},
			{
				"x": -1.8800315035,
				"y": 1.2494996217,
				"z": -2.4204936045,
				"element": "H" 
			},
			{
				"x": -1.3793710965,
				"y": -1.526266687,
				"z": 2.7376624933,
				"element": "H" 
			},
			{
				"x": 0.4263585792,
				"y": -3.0251860058,
				"z": 3.5358601038,
				"element": "H" 
			},
			{
				"x": 1.8488023466,
				"y": -4.2287421566,
				"z": 1.8743053276,
				"element": "H" 
			},
			{
				"x": 1.4371747326,
				"y": -3.9242352213,
				"z": -0.5509177589,
				"element": "H" 
			}
		],
		 "valence_orbital": [ 
			{
				"type": "occ",
				"energy": -0.31843,
				"method": "rhf"
			},
			{
				"type": "occ",
				"energy": -0.24261,
				"method": "rhf"
			},
			{
				"type": "occ",
				"energy": -0.23927,
				"method": "rhf"
			},
			{
				"type": "occ",
				"energy": -0.23092,
				"method": "rhf"
			},
			{
				"type": "occ",
				"energy": -0.21307,
				"method": "rhf"
			},
			{
				"type": "unocc",
				"energy": 0.00025,
				"method": "rhf"
			},
			{
				"type": "unocc",
				"energy": 0.00767,
				"method": "rhf"
			},
			{
				"type": "unocc",
				"energy": 0.01096,
				"method": "rhf"
			},
			{
				"type": "unocc",
				"energy": 0.01904,
				"method": "rhf"
			},
			{
				"type": "unocc",
				"energy": 0.07452,
				"method": "rhf"
			}
		],
		"cosmo_sigma_profile": { 
			"-0.025": 0.0,
			"-0.024": 0.0,
			"-0.023": 0.0,
			"-0.022": 0.0,
			"-0.021": 0.0,
			"-0.02": 0.0,
			"-0.019": 0.0,
			"-0.018": 0.181001443565,
			"-0.017": 0.901480183775,
			"-0.016": 1.03608229178,
			"-0.015": 1.4925442223,
			"-0.014": 0.710488532235,
			"-0.013": 0.884295287353,
			"-0.012": 0.623908617765,
			"-0.011": 0.772161600747,
			"-0.01": 1.08664137452,
			"-0.009": 1.51615915768,
			"-0.008": 0.931185206775,
			"-0.007": 0.942827187576,
			"-0.006": 3.40725665219,
			"-0.005": 15.6147543642,
			"-0.004": 21.3620184822,
			"-0.003": 30.7114661771,
			"-0.002": 23.79265143,
			"-0.001": 20.1330837585,
			"0.0": 18.3725996649,
			"0.001": 14.02673383,
			"0.002": 13.8196028237,
			"0.003": 14.1604500742,
			"0.004": 16.5319660162,
			"0.005": 16.432570032,
			"0.006": 16.8265388596,
			"0.007": 8.80916353912,
			"0.008": 3.07500767649,
			"0.009": 3.35520187249,
			"0.01": 2.42174235615,
			"0.011": 0.572560460804,
			"0.012": 0.0,
			"0.013": 0.0,
			"0.014": 0.0,
			"0.015": 0.0,
			"0.016": 0.0,
			"0.017": 0.0,
			"0.018": 0.0,
			"0.019": 0.0,
			"0.02": 0.0,
			"0.021": 0.0,
			"0.022": 0.0,
			"0.023": 0.0,
			"0.024": 0.0,
			"0.025": 0.0
		}
	}
}
