{
	 "smiles": "COC1=CC(=CC(OC)=C1OC(F)F)C(O)=O", 
	 "Tm": 453.15, 
	 "num_atms": 27, 
	 "gaussian": { 
		 "optdone": 1, 
		 "sigma_profile": "yes", 
		 "theory": "DFT", 
		 "functional": "B3LYP", 
		 "basiset": "6-31G**", 
		 "properties": { 
			 "R2extent": 4421.0768, 
			 "electric_dipole_moment_norm": 5.68900369573, 
			 "electric_quadrupole_moment_norm": 19.6746689355, 
			 "total_energy": -962.853066419, 
			 "HOMO_LUMO_gap": 0.18639, 
			 "cosmo_polarized_energy": -18.82, 
			 "cosmo_cavitation_energy": 32.17, 
			 "cosmo_dispersion_energy": -22.7, 
			 "cosmo_repulsion_energy": 1.74, 
			 "cosmo_total_nonelectrostatic_energy": 11.22, 
			 "SMD_solvation_energy": 9.37 
		},
		"coords": [
			{
				"x": -0.1454754471,
				"y": 0.6412725822,
				"z": 3.7354059595,
				"element": "C" 
			},
			{
				"x": 0.6756740688,
				"y": 0.2962485311,
				"z": 2.6291106798,
				"element": "O" 
			},
			{
				"x": 0.1429117111,
				"y": 0.3709873793,
				"z": 1.3843381522,
				"element": "C" 
			},
			{
				"x": -1.1763791398,
				"y": 0.7280066817,
				"z": 1.1029590848,
				"element": "C" 
			},
			{
				"x": -1.6185768372,
				"y": 0.742862182,
				"z": -0.2317789186,
				"element": "C" 
			},
			{
				"x": -0.7685711754,
				"y": 0.3650531232,
				"z": -1.263483017,
				"element": "C" 
			},
			{
				"x": 0.562843326,
				"y": 0.0100811085,
				"z": -0.9982504302,
				"element": "C" 
			},
			{
				"x": 1.308195865,
				"y": -0.3197062944,
				"z": -2.08241675,
				"element": "O" 
			},
			{
				"x": 2.3002356122,
				"y": -1.3488317894,
				"z": -2.0018348988,
				"element": "C" 
			},
			{
				"x": 1.0225174689,
				"y": 0.04989657,
				"z": 0.3264938135,
				"element": "C" 
			},
			{
				"x": 2.3354343975,
				"y": -0.2902184363,
				"z": 0.6559913826,
				"element": "O" 
			},
			{
				"x": 3.2536099674,
				"y": 0.731921375,
				"z": 0.6866894652,
				"element": "C" 
			},
			{
				"x": 3.4838628676,
				"y": 1.2185520304,
				"z": -0.5658082074,
				"element": "F" 
			},
			{
				"x": 2.8279831727,
				"y": 1.7791014224,
				"z": 1.43168287,
				"element": "F" 
			},
			{
				"x": -3.0274374424,
				"y": 1.1139639427,
				"z": -0.5913947436,
				"element": "C" 
			},
			{
				"x": -3.6761142533,
				"y": 1.9273769254,
				"z": 0.2882572523,
				"element": "O" 
			},
			{
				"x": -3.5871220146,
				"y": 0.7350829665,
				"z": -1.5918376145,
				"element": "O" 
			},
			{
				"x": -0.4956918594,
				"y": 1.6790333997,
				"z": 3.6685530717,
				"element": "H" 
			},
			{
				"x": -1.0098146821,
				"y": -0.0291671306,
				"z": 3.8216661003,
				"element": "H" 
			},
			{
				"x": 0.4839213024,
				"y": 0.5308484991,
				"z": 4.619038839,
				"element": "H" 
			},
			{
				"x": -1.8650644575,
				"y": 0.9332944971,
				"z": 1.9135295914,
				"element": "H" 
			},
			{
				"x": -1.1275944559,
				"y": 0.3390679843,
				"z": -2.2850268825,
				"element": "H" 
			},
			{
				"x": 3.2567385178,
				"y": -0.9523332892,
				"z": -1.6580663465,
				"element": "H" 
			},
			{
				"x": 2.4066152,
				"y": -1.7292261464,
				"z": -3.0199048737,
				"element": "H" 
			},
			{
				"x": 1.9791442718,
				"y": -2.1604303944,
				"z": -1.3416282056,
				"element": "H" 
			},
			{
				"x": 4.1813774473,
				"y": 0.3294712109,
				"z": 1.0995322428,
				"element": "H" 
			},
			{
				"x": -3.0430234318,
				"y": 2.289191069,
				"z": 0.9241823829,
				"element": "H" 
			}
		],
		 "valence_orbital": [ 
			{
				"type": "occ",
				"energy": -0.31474,
				"method": "rhf"
			},
			{
				"type": "occ",
				"energy": -0.30584,
				"method": "rhf"
			},
			{
				"type": "occ",
				"energy": -0.27231,
				"method": "rhf"
			},
			{
				"type": "occ",
				"energy": -0.24631,
				"method": "rhf"
			},
			{
				"type": "occ",
				"energy": -0.2348,
				"method": "rhf"
			},
			{
				"type": "unocc",
				"energy": -0.04841,
				"method": "rhf"
			},
			{
				"type": "unocc",
				"energy": -0.00729,
				"method": "rhf"
			},
			{
				"type": "unocc",
				"energy": 0.04488,
				"method": "rhf"
			},
			{
				"type": "unocc",
				"energy": 0.05927,
				"method": "rhf"
			},
			{
				"type": "unocc",
				"energy": 0.08065,
				"method": "rhf"
			}
		],
		"cosmo_sigma_profile": { 
			"-0.025": 0.0,
			"-0.024": 0.0,
			"-0.023": 0.0,
			"-0.022": 0.0,
			"-0.021": 0.0,
			"-0.02": 0.0,
			"-0.019": 0.0462152693898,
			"-0.018": 0.647712401713,
			"-0.017": 1.01082505353,
			"-0.016": 0.885246481697,
			"-0.015": 1.3317844984,
			"-0.014": 0.776822041943,
			"-0.013": 0.943393554402,
			"-0.012": 1.17145084197,
			"-0.011": 2.51712083614,
			"-0.01": 4.25199204698,
			"-0.009": 3.59162709399,
			"-0.008": 3.32464817337,
			"-0.007": 5.51390847567,
			"-0.006": 14.0676506918,
			"-0.005": 17.2980733049,
			"-0.004": 18.6325460423,
			"-0.003": 20.7610417116,
			"-0.002": 11.682963457,
			"-0.001": 11.6207156099,
			"0.0": 13.9812534838,
			"0.001": 17.1806992847,
			"0.002": 16.4581849852,
			"0.003": 18.0297867605,
			"0.004": 18.9293147975,
			"0.005": 8.55941658306,
			"0.006": 5.85506332035,
			"0.007": 5.84279665572,
			"0.008": 6.95624801974,
			"0.009": 5.96616606402,
			"0.01": 6.96128875788,
			"0.011": 6.18621843038,
			"0.012": 4.25629124365,
			"0.013": 1.06014673579,
			"0.014": 0.0,
			"0.015": 0.0,
			"0.016": 0.0,
			"0.017": 0.0,
			"0.018": 0.0,
			"0.019": 0.0,
			"0.02": 0.0,
			"0.021": 0.0,
			"0.022": 0.0,
			"0.023": 0.0,
			"0.024": 0.0,
			"0.025": 0.0
		}
	}
}
