{
	 "smiles": "ClC1=CC(=CC(Cl)=C1)N=C=S", 
	 "Tm": 319.15, 
	 "num_atms": 14, 
	 "gaussian": { 
		 "optdone": 1, 
		 "sigma_profile": "yes", 
		 "theory": "DFT", 
		 "functional": "B3LYP", 
		 "basiset": "6-31G**", 
		 "properties": { 
			 "R2extent": 5477.8602, 
			 "electric_dipole_moment_norm": 1.54867579887, 
			 "electric_quadrupole_moment_norm": 9.72648577391, 
			 "total_energy": -1641.86805839, 
			 "HOMO_LUMO_gap": 0.1793, 
			 "cosmo_polarized_energy": -5.28, 
			 "cosmo_cavitation_energy": 25.94, 
			 "cosmo_dispersion_energy": -19.58, 
			 "cosmo_repulsion_energy": 1.56, 
			 "cosmo_total_nonelectrostatic_energy": 7.92, 
			 "SMD_solvation_energy": 4.49 
		},
		"coords": [
			{
				"x": -1.2962537528,
				"y": 0.0530207853,
				"z": 3.6054358157,
				"element": "Cl" 
			},
			{
				"x": -1.1865193253,
				"y": -0.6489113746,
				"z": 2.0048976707,
				"element": "C" 
			},
			{
				"x": -2.3404534323,
				"y": -0.7603773081,
				"z": 1.235729433,
				"element": "C" 
			},
			{
				"x": -2.2395680129,
				"y": -1.3251084156,
				"z": -0.0463779766,
				"element": "C" 
			},
			{
				"x": -1.0030909863,
				"y": -1.7684431533,
				"z": -0.5438671242,
				"element": "C" 
			},
			{
				"x": 0.1230546655,
				"y": -1.6360311899,
				"z": 0.2622446759,
				"element": "C" 
			},
			{
				"x": 1.6717633078,
				"y": -2.1840772911,
				"z": -0.3441231852,
				"element": "Cl" 
			},
			{
				"x": 0.0568293375,
				"y": -1.0795150431,
				"z": 1.5402083629,
				"element": "C" 
			},
			{
				"x": -3.3611801337,
				"y": -1.4450612538,
				"z": -0.8213685741,
				"element": "N" 
			},
			{
				"x": -4.3351574903,
				"y": -1.5491617822,
				"z": -1.4943857839,
				"element": "C" 
			},
			{
				"x": -5.6380971637,
				"y": -1.6887447234,
				"z": -2.3941554877,
				"element": "S" 
			},
			{
				"x": -3.2983911877,
				"y": -0.4218052078,
				"z": 1.6096249242,
				"element": "H" 
			},
			{
				"x": -0.9363500927,
				"y": -2.2022312619,
				"z": -1.5335381272,
				"element": "H" 
			},
			{
				"x": 0.9440142667,
				"y": -0.9846527806,
				"z": 2.1531753765,
				"element": "H" 
			}
		],
		 "valence_orbital": [ 
			{
				"type": "occ",
				"energy": -0.3308,
				"method": "rhf"
			},
			{
				"type": "occ",
				"energy": -0.29823,
				"method": "rhf"
			},
			{
				"type": "occ",
				"energy": -0.27157,
				"method": "rhf"
			},
			{
				"type": "occ",
				"energy": -0.26517,
				"method": "rhf"
			},
			{
				"type": "occ",
				"energy": -0.24763,
				"method": "rhf"
			},
			{
				"type": "unocc",
				"energy": -0.06833,
				"method": "rhf"
			},
			{
				"type": "unocc",
				"energy": -0.04366,
				"method": "rhf"
			},
			{
				"type": "unocc",
				"energy": -0.01154,
				"method": "rhf"
			},
			{
				"type": "unocc",
				"energy": -0.00997,
				"method": "rhf"
			},
			{
				"type": "unocc",
				"energy": 0.027,
				"method": "rhf"
			}
		],
		"cosmo_sigma_profile": { 
			"-0.025": 0.0,
			"-0.024": 0.0,
			"-0.023": 0.0,
			"-0.022": 0.0,
			"-0.021": 0.0,
			"-0.02": 0.0,
			"-0.019": 0.0,
			"-0.018": 0.0,
			"-0.017": 0.0,
			"-0.016": 0.0,
			"-0.015": 0.0,
			"-0.014": 0.0,
			"-0.013": 0.0,
			"-0.012": 0.0,
			"-0.011": 0.0,
			"-0.01": 0.194275685169,
			"-0.009": 3.74217526232,
			"-0.008": 5.17846369156,
			"-0.007": 5.17502583441,
			"-0.006": 5.27736784345,
			"-0.005": 5.79462278464,
			"-0.004": 6.97318674369,
			"-0.003": 11.7817710755,
			"-0.002": 21.2045940395,
			"-0.001": 23.6453075249,
			"0.0": 33.744291385,
			"0.001": 18.1829287052,
			"0.002": 16.0077473343,
			"0.003": 21.3032477448,
			"0.004": 21.7893677218,
			"0.005": 12.800845188,
			"0.006": 5.70033501882,
			"0.007": 0.0,
			"0.008": 0.0,
			"0.009": 0.0,
			"0.01": 0.0,
			"0.011": 0.0,
			"0.012": 0.0,
			"0.013": 0.0,
			"0.014": 0.0,
			"0.015": 0.0,
			"0.016": 0.0,
			"0.017": 0.0,
			"0.018": 0.0,
			"0.019": 0.0,
			"0.02": 0.0,
			"0.021": 0.0,
			"0.022": 0.0,
			"0.023": 0.0,
			"0.024": 0.0,
			"0.025": 0.0
		}
	}
}
