{
	 "smiles": "C[Si](C)(C)CCS(=O)(=O)C1=CC=CC=C1", 
	 "Tm": 324.65, 
	 "num_atms": 33, 
	 "gaussian": { 
		 "optdone": 1, 
		 "sigma_profile": "yes", 
		 "theory": "DFT", 
		 "functional": "B3LYP", 
		 "basiset": "6-31G**", 
		 "properties": { 
			 "R2extent": 4681.9278, 
			 "electric_dipole_moment_norm": 5.16223292869, 
			 "electric_quadrupole_moment_norm": 24.2429070462, 
			 "total_energy": -1268.12984509, 
			 "HOMO_LUMO_gap": 0.22993, 
			 "cosmo_polarized_energy": -14.03, 
			 "cosmo_cavitation_energy": 37.73, 
			 "cosmo_dispersion_energy": -23.49, 
			 "cosmo_repulsion_energy": 1.9, 
			 "cosmo_total_nonelectrostatic_energy": 16.14, 
			 "SMD_solvation_energy": 6.76 
		},
		"coords": [
			{
				"x": 1.8144981355,
				"y": -0.3872568729,
				"z": 0.4307232325,
				"element": "C" 
			},
			{
				"x": 0.5251890934,
				"y": -1.0431306966,
				"z": 1.6542129504,
				"element": "Si" 
			},
			{
				"x": 1.4066906538,
				"y": -1.9126296901,
				"z": 3.0885330225,
				"element": "C" 
			},
			{
				"x": -0.6040123207,
				"y": -2.2944412688,
				"z": 0.7971216123,
				"element": "C" 
			},
			{
				"x": -0.4664066877,
				"y": 0.408387022,
				"z": 2.4269326685,
				"element": "C" 
			},
			{
				"x": -0.5415103613,
				"y": 1.7677318798,
				"z": 1.7139859012,
				"element": "C" 
			},
			{
				"x": -2.0426450761,
				"y": 2.09278598,
				"z": 0.7192470658,
				"element": "S" 
			},
			{
				"x": -2.0291999975,
				"y": 3.5430336198,
				"z": 0.4572112121,
				"element": "O" 
			},
			{
				"x": -3.1908281962,
				"y": 1.450297065,
				"z": 1.3842501473,
				"element": "O" 
			},
			{
				"x": -1.8109688933,
				"y": 1.2694390015,
				"z": -0.8687158814,
				"element": "C" 
			},
			{
				"x": -0.9059476164,
				"y": 1.8010280269,
				"z": -1.792119379,
				"element": "C" 
			},
			{
				"x": -0.7662994447,
				"y": 1.1843627026,
				"z": -3.0351386329,
				"element": "C" 
			},
			{
				"x": -1.5400884136,
				"y": 0.0636205809,
				"z": -3.3518813633,
				"element": "C" 
			},
			{
				"x": -2.457916856,
				"y": -0.4427412616,
				"z": -2.4297885425,
				"element": "C" 
			},
			{
				"x": -2.597083242,
				"y": 0.1592011167,
				"z": -1.1767677548,
				"element": "C" 
			},
			{
				"x": 2.4814196676,
				"y": 0.3477920309,
				"z": 0.8958866813,
				"element": "H" 
			},
			{
				"x": 2.4414478003,
				"y": -1.2070098122,
				"z": 0.0621989236,
				"element": "H" 
			},
			{
				"x": 1.3493480341,
				"y": 0.0845068074,
				"z": -0.4416251481,
				"element": "H" 
			},
			{
				"x": 2.1073200695,
				"y": -1.2410964651,
				"z": 3.5975593426,
				"element": "H" 
			},
			{
				"x": 1.9763010228,
				"y": -2.7800119996,
				"z": 2.7368750813,
				"element": "H" 
			},
			{
				"x": 0.6911078808,
				"y": -2.2718469413,
				"z": 3.8369578681,
				"element": "H" 
			},
			{
				"x": -0.0287343201,
				"y": -3.1669800333,
				"z": 0.4667181846,
				"element": "H" 
			},
			{
				"x": -1.0971029389,
				"y": -1.8695397256,
				"z": -0.0816804725,
				"element": "H" 
			},
			{
				"x": -1.3841015315,
				"y": -2.6530905441,
				"z": 1.4780329829,
				"element": "H" 
			},
			{
				"x": -1.4852568526,
				"y": 0.0832920228,
				"z": 2.6706165019,
				"element": "H" 
			},
			{
				"x": 0.0092737146,
				"y": 0.5942022509,
				"z": 3.3987869131,
				"element": "H" 
			},
			{
				"x": -0.6055884083,
				"y": 2.594597644,
				"z": 2.4297371286,
				"element": "H" 
			},
			{
				"x": 0.3056047516,
				"y": 1.9795207507,
				"z": 1.0552818312,
				"element": "H" 
			},
			{
				"x": -0.3428470255,
				"y": 2.6966304551,
				"z": -1.5498684274,
				"element": "H" 
			},
			{
				"x": -0.0663250754,
				"y": 1.5864365884,
				"z": -3.7613178766,
				"element": "H" 
			},
			{
				"x": -1.4336024208,
				"y": -0.4084191265,
				"z": -4.3241656042,
				"element": "H" 
			},
			{
				"x": -3.0688655168,
				"y": -1.3033839529,
				"z": -2.6848611189,
				"element": "H" 
			},
			{
				"x": -3.3111696282,
				"y": -0.2051871547,
				"z": -0.44633905,
				"element": "H" 
			}
		],
		 "valence_orbital": [ 
			{
				"type": "occ",
				"energy": -0.29563,
				"method": "rhf"
			},
			{
				"type": "occ",
				"energy": -0.28942,
				"method": "rhf"
			},
			{
				"type": "occ",
				"energy": -0.27923,
				"method": "rhf"
			},
			{
				"type": "occ",
				"energy": -0.27286,
				"method": "rhf"
			},
			{
				"type": "occ",
				"energy": -0.27116,
				"method": "rhf"
			},
			{
				"type": "unocc",
				"energy": -0.04123,
				"method": "rhf"
			},
			{
				"type": "unocc",
				"energy": -0.02422,
				"method": "rhf"
			},
			{
				"type": "unocc",
				"energy": 0.05801,
				"method": "rhf"
			},
			{
				"type": "unocc",
				"energy": 0.06233,
				"method": "rhf"
			},
			{
				"type": "unocc",
				"energy": 0.07411,
				"method": "rhf"
			}
		],
		"cosmo_sigma_profile": { 
			"-0.025": 0.0,
			"-0.024": 0.0,
			"-0.023": 0.0,
			"-0.022": 0.0,
			"-0.021": 0.0,
			"-0.02": 0.0,
			"-0.019": 0.0,
			"-0.018": 0.0,
			"-0.017": 0.0,
			"-0.016": 0.0,
			"-0.015": 0.0,
			"-0.014": 0.0,
			"-0.013": 0.0,
			"-0.012": 0.0,
			"-0.011": 0.0,
			"-0.01": 0.0,
			"-0.009": 0.0,
			"-0.008": 0.644423078033,
			"-0.007": 10.4256295433,
			"-0.006": 15.1234202394,
			"-0.005": 16.7690689562,
			"-0.004": 18.8256302542,
			"-0.003": 28.2513348183,
			"-0.002": 28.0628293721,
			"-0.001": 30.701119487,
			"0.0": 30.7083210224,
			"0.001": 28.7672927396,
			"0.002": 25.7931652711,
			"0.003": 16.6076971768,
			"0.004": 4.32184667386,
			"0.005": 2.56245234339,
			"0.006": 2.45412997144,
			"0.007": 2.46708317475,
			"0.008": 2.70362018715,
			"0.009": 3.62309215517,
			"0.01": 3.93023064081,
			"0.011": 7.44413254961,
			"0.012": 8.79604312332,
			"0.013": 2.14185074006,
			"0.014": 0.0,
			"0.015": 0.0,
			"0.016": 0.0,
			"0.017": 0.0,
			"0.018": 0.0,
			"0.019": 0.0,
			"0.02": 0.0,
			"0.021": 0.0,
			"0.022": 0.0,
			"0.023": 0.0,
			"0.024": 0.0,
			"0.025": 0.0
		}
	}
}
