{
	 "smiles": "ClC1=C(Cl)C(=O)N(N=C1)C1=CC=C(C=C1)S(Cl)(=O)=O", 
	 "Tm": 418.15, 
	 "num_atms": 24, 
	 "gaussian": { 
		 "optdone": 1, 
		 "sigma_profile": "yes", 
		 "theory": "DFT", 
		 "functional": "B3LYP", 
		 "basiset": "6-31G**", 
		 "properties": { 
			 "R2extent": 11415.922, 
			 "electric_dipole_moment_norm": 6.16433239045, 
			 "electric_quadrupole_moment_norm": 17.985628689, 
			 "total_energy": -2497.9067898, 
			 "HOMO_LUMO_gap": 0.15483, 
			 "cosmo_polarized_energy": -14.23, 
			 "cosmo_cavitation_energy": 36.9, 
			 "cosmo_dispersion_energy": -27.7, 
			 "cosmo_repulsion_energy": 2.07, 
			 "cosmo_total_nonelectrostatic_energy": 11.27, 
			 "SMD_solvation_energy": 4.69 
		},
		"coords": [
			{
				"x": 5.0274661305,
				"y": 0.5702746534,
				"z": 4.6869155206,
				"element": "Cl" 
			},
			{
				"x": 3.6603710392,
				"y": 0.4521558269,
				"z": 3.6296706485,
				"element": "C" 
			},
			{
				"x": 2.3916139844,
				"y": 0.205696506,
				"z": 4.0655446626,
				"element": "C" 
			},
			{
				"x": 1.98131308,
				"y": -0.0081007846,
				"z": 5.7204764468,
				"element": "Cl" 
			},
			{
				"x": 1.2750488607,
				"y": 0.1161882657,
				"z": 3.1097095099,
				"element": "C" 
			},
			{
				"x": 0.1168693546,
				"y": -0.0838749779,
				"z": 3.4306009212,
				"element": "O" 
			},
			{
				"x": 1.6726660488,
				"y": 0.2891370931,
				"z": 1.7531241943,
				"element": "N" 
			},
			{
				"x": 2.9330159361,
				"y": 0.5474829041,
				"z": 1.3408152875,
				"element": "N" 
			},
			{
				"x": 3.8795694192,
				"y": 0.6240709818,
				"z": 2.2264875699,
				"element": "C" 
			},
			{
				"x": 0.70287551,
				"y": 0.2715632437,
				"z": 0.6909547389,
				"element": "C" 
			},
			{
				"x": -0.4049804927,
				"y": -0.5856132904,
				"z": 0.7327180521,
				"element": "C" 
			},
			{
				"x": -1.3050564779,
				"y": -0.5941115519,
				"z": -0.3293961357,
				"element": "C" 
			},
			{
				"x": -1.0831976599,
				"y": 0.2520493048,
				"z": -1.4147907542,
				"element": "C" 
			},
			{
				"x": 0.0177075806,
				"y": 1.1069103854,
				"z": -1.4718815211,
				"element": "C" 
			},
			{
				"x": 0.9142958565,
				"y": 1.1128701759,
				"z": -0.4099678016,
				"element": "C" 
			},
			{
				"x": -2.2285077392,
				"y": 0.2255398307,
				"z": -2.784365602,
				"element": "S" 
			},
			{
				"x": -3.6286219405,
				"y": 1.7211696118,
				"z": -2.190166137,
				"element": "Cl" 
			},
			{
				"x": -1.5652306588,
				"y": 0.7418190616,
				"z": -3.9750952687,
				"element": "O" 
			},
			{
				"x": -2.9563613189,
				"y": -1.0368949216,
				"z": -2.7801864989,
				"element": "O" 
			},
			{
				"x": 4.8768930368,
				"y": 0.8237205796,
				"z": 1.8496964856,
				"element": "H" 
			},
			{
				"x": -0.567264429,
				"y": -1.2314468068,
				"z": 1.5827522109,
				"element": "H" 
			},
			{
				"x": -2.1600894224,
				"y": -1.2602282195,
				"z": -0.3202833536,
				"element": "H" 
			},
			{
				"x": 0.1706441526,
				"y": 1.7489814115,
				"z": -2.3316559325,
				"element": "H" 
			},
			{
				"x": 1.7841601492,
				"y": 1.7565407167,
				"z": -0.4311772435,
				"element": "H" 
			}
		],
		 "valence_orbital": [ 
			{
				"type": "occ",
				"energy": -0.31498,
				"method": "rhf"
			},
			{
				"type": "occ",
				"energy": -0.29824,
				"method": "rhf"
			},
			{
				"type": "occ",
				"energy": -0.29269,
				"method": "rhf"
			},
			{
				"type": "occ",
				"energy": -0.28843,
				"method": "rhf"
			},
			{
				"type": "occ",
				"energy": -0.26435,
				"method": "rhf"
			},
			{
				"type": "unocc",
				"energy": -0.10952,
				"method": "rhf"
			},
			{
				"type": "unocc",
				"energy": -0.08796,
				"method": "rhf"
			},
			{
				"type": "unocc",
				"energy": -0.04831,
				"method": "rhf"
			},
			{
				"type": "unocc",
				"energy": -0.04336,
				"method": "rhf"
			},
			{
				"type": "unocc",
				"energy": -0.03599,
				"method": "rhf"
			}
		],
		"cosmo_sigma_profile": { 
			"-0.025": 0.0,
			"-0.024": 0.0,
			"-0.023": 0.0,
			"-0.022": 0.0,
			"-0.021": 0.0,
			"-0.02": 0.0,
			"-0.019": 0.0,
			"-0.018": 0.0,
			"-0.017": 0.0,
			"-0.016": 0.0,
			"-0.015": 0.0,
			"-0.014": 0.0,
			"-0.013": 0.0,
			"-0.012": 0.0,
			"-0.011": 0.3351648736,
			"-0.01": 1.74874355271,
			"-0.009": 3.57991805352,
			"-0.008": 8.92020489355,
			"-0.007": 10.4954417203,
			"-0.006": 13.0319942325,
			"-0.005": 16.7723522998,
			"-0.004": 20.5966471915,
			"-0.003": 19.1544947081,
			"-0.002": 20.1764792233,
			"-0.001": 25.3028701996,
			"0.0": 30.118018095,
			"0.001": 23.623414794,
			"0.002": 28.811531722,
			"0.003": 24.4703683418,
			"0.004": 12.238367575,
			"0.005": 5.8812607017,
			"0.006": 5.72485487253,
			"0.007": 9.39030101732,
			"0.008": 11.9116144927,
			"0.009": 6.12270629978,
			"0.01": 2.34161306086,
			"0.011": 3.3820828822,
			"0.012": 1.81942671406,
			"0.013": 0.0144675024206,
			"0.014": 0.0,
			"0.015": 0.0,
			"0.016": 0.0,
			"0.017": 0.0,
			"0.018": 0.0,
			"0.019": 0.0,
			"0.02": 0.0,
			"0.021": 0.0,
			"0.022": 0.0,
			"0.023": 0.0,
			"0.024": 0.0,
			"0.025": 0.0
		}
	}
}
