{
	 "smiles": "CC1=C(C=CC=C1C(F)(F)F)C#N", 
	 "Tm": 302.65, 
	 "num_atms": 19, 
	 "gaussian": { 
		 "optdone": 1, 
		 "sigma_profile": "yes", 
		 "theory": "DFT", 
		 "functional": "B3LYP", 
		 "basiset": "6-31G**", 
		 "properties": { 
			 "R2extent": 2593.0748, 
			 "electric_dipole_moment_norm": 3.19092344784, 
			 "electric_quadrupole_moment_norm": 14.933105168, 
			 "total_energy": -700.842445913, 
			 "HOMO_LUMO_gap": 0.21142, 
			 "cosmo_polarized_energy": -7.81, 
			 "cosmo_cavitation_energy": 24.97, 
			 "cosmo_dispersion_energy": -17.45, 
			 "cosmo_repulsion_energy": 1.3, 
			 "cosmo_total_nonelectrostatic_energy": 8.83, 
			 "SMD_solvation_energy": 6.65 
		},
		"coords": [
			{
				"x": 0.817752834,
				"y": -1.1476305464,
				"z": -1.2219099003,
				"element": "C" 
			},
			{
				"x": 0.606859663,
				"y": -0.3587498968,
				"z": 0.0484375753,
				"element": "C" 
			},
			{
				"x": 1.2047254154,
				"y": 0.9094676981,
				"z": 0.2187399418,
				"element": "C" 
			},
			{
				"x": 1.0333205188,
				"y": 1.6537886734,
				"z": 1.3996090051,
				"element": "C" 
			},
			{
				"x": 0.2613466375,
				"y": 1.1445690571,
				"z": 2.4339985375,
				"element": "C" 
			},
			{
				"x": -0.338357679,
				"y": -0.1063130294,
				"z": 2.290497942,
				"element": "C" 
			},
			{
				"x": -0.168706867,
				"y": -0.8470924527,
				"z": 1.1191353422,
				"element": "C" 
			},
			{
				"x": -0.848545638,
				"y": -2.1934599897,
				"z": 1.0129135362,
				"element": "C" 
			},
			{
				"x": -1.4792964612,
				"y": -2.5334147421,
				"z": 2.1559848843,
				"element": "F" 
			},
			{
				"x": -1.7804516008,
				"y": -2.2099423275,
				"z": 0.0296839206,
				"element": "F" 
			},
			{
				"x": 0.0308369298,
				"y": -3.1827037505,
				"z": 0.7363520826,
				"element": "F" 
			},
			{
				"x": 2.0131987588,
				"y": 1.4762131444,
				"z": -0.8240380352,
				"element": "C" 
			},
			{
				"x": 2.6710813368,
				"y": 1.9526734707,
				"z": -1.6568624694,
				"element": "N" 
			},
			{
				"x": 1.498583158,
				"y": -1.9862308393,
				"z": -1.043861885,
				"element": "H" 
			},
			{
				"x": 1.2478135726,
				"y": -0.5234982209,
				"z": -2.0061283379,
				"element": "H" 
			},
			{
				"x": -0.1224552144,
				"y": -1.567117565,
				"z": -1.5847841344,
				"element": "H" 
			},
			{
				"x": 1.5100947449,
				"y": 2.6243398536,
				"z": 1.4864506381,
				"element": "H" 
			},
			{
				"x": 0.1244362599,
				"y": 1.7141307774,
				"z": 3.3471018454,
				"element": "H" 
			},
			{
				"x": -0.9429363692,
				"y": -0.5151293143,
				"z": 3.0911795111,
				"element": "H" 
			}
		],
		 "valence_orbital": [ 
			{
				"type": "occ",
				"energy": -0.36345,
				"method": "rhf"
			},
			{
				"type": "occ",
				"energy": -0.35733,
				"method": "rhf"
			},
			{
				"type": "occ",
				"energy": -0.33762,
				"method": "rhf"
			},
			{
				"type": "occ",
				"energy": -0.28501,
				"method": "rhf"
			},
			{
				"type": "occ",
				"energy": -0.27412,
				"method": "rhf"
			},
			{
				"type": "unocc",
				"energy": -0.0627,
				"method": "rhf"
			},
			{
				"type": "unocc",
				"energy": -0.04623,
				"method": "rhf"
			},
			{
				"type": "unocc",
				"energy": 0.02777,
				"method": "rhf"
			},
			{
				"type": "unocc",
				"energy": 0.05906,
				"method": "rhf"
			},
			{
				"type": "unocc",
				"energy": 0.07886,
				"method": "rhf"
			}
		],
		"cosmo_sigma_profile": { 
			"-0.025": 0.0,
			"-0.024": 0.0,
			"-0.023": 0.0,
			"-0.022": 0.0,
			"-0.021": 0.0,
			"-0.02": 0.0,
			"-0.019": 0.0,
			"-0.018": 0.0,
			"-0.017": 0.0,
			"-0.016": 0.0,
			"-0.015": 0.0,
			"-0.014": 0.0,
			"-0.013": 0.0,
			"-0.012": 0.0,
			"-0.011": 0.0,
			"-0.01": 0.0,
			"-0.009": 0.475447408564,
			"-0.008": 4.25408463958,
			"-0.007": 6.81841341532,
			"-0.006": 7.38554893329,
			"-0.005": 7.62542758724,
			"-0.004": 12.9325243177,
			"-0.003": 16.7617375499,
			"-0.002": 21.3348864267,
			"-0.001": 18.4285545158,
			"0.0": 20.3521880298,
			"0.001": 17.5201636852,
			"0.002": 26.1769444043,
			"0.003": 17.062990853,
			"0.004": 2.09300601025,
			"0.005": 1.92771015135,
			"0.006": 2.56818666491,
			"0.007": 2.60180806456,
			"0.008": 2.95859659449,
			"0.009": 3.50524507756,
			"0.01": 2.80528481875,
			"0.011": 2.7919879544,
			"0.012": 2.24155178496,
			"0.013": 1.16839701841,
			"0.014": 0.0,
			"0.015": 0.0,
			"0.016": 0.0,
			"0.017": 0.0,
			"0.018": 0.0,
			"0.019": 0.0,
			"0.02": 0.0,
			"0.021": 0.0,
			"0.022": 0.0,
			"0.023": 0.0,
			"0.024": 0.0,
			"0.025": 0.0
		}
	}
}
