{
	 "smiles": "COC1=CC2=NC(=NC(N)=C2C=C1OC)N1CCN(CC1)C(=O)C1CCCO1", 
	 "Tm": 546.15, 
	 "num_atms": 53, 
	 "gaussian": { 
		 "optdone": 1, 
		 "sigma_profile": "yes", 
		 "theory": "DFT", 
		 "functional": "B3LYP", 
		 "basiset": "6-31G**", 
		 "properties": { 
			 "R2extent": 20257.2873, 
			 "electric_dipole_moment_norm": 3.74036569736, 
			 "electric_quadrupole_moment_norm": 18.8923453245, 
			 "total_energy": -1313.74380285, 
			 "HOMO_LUMO_gap": 0.15742, 
			 "cosmo_polarized_energy": -22.64, 
			 "cosmo_cavitation_energy": 53.59, 
			 "cosmo_dispersion_energy": -38.97, 
			 "cosmo_repulsion_energy": 2.96, 
			 "cosmo_total_nonelectrostatic_energy": 17.58, 
			 "SMD_solvation_energy": 6.83 
		},
		"coords": [
			{
				"x": -3.258980943,
				"y": -5.7484913376,
				"z": 0.7137109287,
				"element": "C" 
			},
			{
				"x": -2.0279328214,
				"y": -6.3667725601,
				"z": 1.0628581467,
				"element": "O" 
			},
			{
				"x": -0.8933994821,
				"y": -5.619318748,
				"z": 0.9883795312,
				"element": "C" 
			},
			{
				"x": -0.8498589738,
				"y": -4.2870181136,
				"z": 0.6233007505,
				"element": "C" 
			},
			{
				"x": 0.3856824448,
				"y": -3.5908143347,
				"z": 0.5473719209,
				"element": "C" 
			},
			{
				"x": 0.3800654481,
				"y": -2.2874029556,
				"z": 0.1606220266,
				"element": "N" 
			},
			{
				"x": 1.5668283472,
				"y": -1.6874474182,
				"z": 0.1065773026,
				"element": "C" 
			},
			{
				"x": 2.775383769,
				"y": -2.2381215765,
				"z": 0.4152837525,
				"element": "N" 
			},
			{
				"x": 2.7850786716,
				"y": -3.5104172371,
				"z": 0.7789802702,
				"element": "C" 
			},
			{
				"x": 4.0112603836,
				"y": -4.0625888553,
				"z": 1.0454927622,
				"element": "N" 
			},
			{
				"x": 1.5834061271,
				"y": -4.2905459074,
				"z": 0.8646540998,
				"element": "C" 
			},
			{
				"x": 1.51814418,
				"y": -5.653804291,
				"z": 1.2386809272,
				"element": "C" 
			},
			{
				"x": 0.3160156263,
				"y": -6.3188899929,
				"z": 1.3074708531,
				"element": "C" 
			},
			{
				"x": 0.2996062766,
				"y": -7.661737078,
				"z": 1.6006689227,
				"element": "O" 
			},
			{
				"x": -0.2620224884,
				"y": -8.010698419,
				"z": 2.8675790757,
				"element": "C" 
			},
			{
				"x": 1.6015372676,
				"y": -0.373872943,
				"z": -0.2870251242,
				"element": "N" 
			},
			{
				"x": 2.8623859218,
				"y": 0.3564487778,
				"z": -0.4106637475,
				"element": "C" 
			},
			{
				"x": 2.7089497156,
				"y": 1.5238218739,
				"z": -1.3808893035,
				"element": "C" 
			},
			{
				"x": 1.6377983528,
				"y": 2.4288778338,
				"z": -0.9489482187,
				"element": "N" 
			},
			{
				"x": 0.5113413761,
				"y": 1.8284710508,
				"z": -0.2189773832,
				"element": "C" 
			},
			{
				"x": 0.3683655599,
				"y": 0.3502773409,
				"z": -0.578874302,
				"element": "C" 
			},
			{
				"x": 1.733057497,
				"y": 3.7479950891,
				"z": -1.2903057749,
				"element": "C" 
			},
			{
				"x": 2.6752242656,
				"y": 4.1785106717,
				"z": -1.9551398018,
				"element": "O" 
			},
			{
				"x": 0.5936789955,
				"y": 4.6745178848,
				"z": -0.7982788854,
				"element": "C" 
			},
			{
				"x": 0.8851710339,
				"y": 6.1634314999,
				"z": -1.077269792,
				"element": "C" 
			},
			{
				"x": -0.382539154,
				"y": 6.6545534537,
				"z": -1.801882592,
				"element": "C" 
			},
			{
				"x": -0.8751318176,
				"y": 5.3703396753,
				"z": -2.4669403672,
				"element": "C" 
			},
			{
				"x": -0.6250185609,
				"y": 4.3468938869,
				"z": -1.4979195352,
				"element": "O" 
			},
			{
				"x": -3.4904150244,
				"y": -4.9080408033,
				"z": 1.379760456,
				"element": "H" 
			},
			{
				"x": -4.0230971372,
				"y": -6.5193551433,
				"z": 0.8225950335,
				"element": "H" 
			},
			{
				"x": -3.2457494429,
				"y": -5.3911951325,
				"z": -0.3229810464,
				"element": "H" 
			},
			{
				"x": -1.7433173165,
				"y": -3.7316721835,
				"z": 0.3684522215,
				"element": "H" 
			},
			{
				"x": 4.764488297,
				"y": -3.3955873769,
				"z": 1.1304232019,
				"element": "H" 
			},
			{
				"x": 4.0626332053,
				"y": -4.8681249502,
				"z": 1.6478166714,
				"element": "H" 
			},
			{
				"x": 2.4123903932,
				"y": -6.2313275971,
				"z": 1.4526456809,
				"element": "H" 
			},
			{
				"x": 0.2905823971,
				"y": -7.531819394,
				"z": 3.6871123835,
				"element": "H" 
			},
			{
				"x": -1.3185254072,
				"y": -7.7329252033,
				"z": 2.9297282541,
				"element": "H" 
			},
			{
				"x": -0.1659282021,
				"y": -9.0950864441,
				"z": 2.955444797,
				"element": "H" 
			},
			{
				"x": 3.199665919,
				"y": 0.7283492002,
				"z": 0.5686824647,
				"element": "H" 
			},
			{
				"x": 3.6358220928,
				"y": -0.322882253,
				"z": -0.7733067629,
				"element": "H" 
			},
			{
				"x": 2.5056516842,
				"y": 1.1475496017,
				"z": -2.3930162794,
				"element": "H" 
			},
			{
				"x": 3.6345599008,
				"y": 2.0997175044,
				"z": -1.4332839012,
				"element": "H" 
			},
			{
				"x": 0.6601713982,
				"y": 1.9213924857,
				"z": 0.8669520206,
				"element": "H" 
			},
			{
				"x": -0.4114935642,
				"y": 2.3439056937,
				"z": -0.4870396991,
				"element": "H" 
			},
			{
				"x": 0.0935143141,
				"y": 0.25316319,
				"z": -1.6396254303,
				"element": "H" 
			},
			{
				"x": -0.4397852132,
				"y": -0.097275617,
				"z": 0.0011886097,
				"element": "H" 
			},
			{
				"x": 0.4068941688,
				"y": 4.4856539275,
				"z": 0.2657945187,
				"element": "H" 
			},
			{
				"x": 1.0895583592,
				"y": 6.7171269371,
				"z": -0.1574958546,
				"element": "H" 
			},
			{
				"x": 1.7646575422,
				"y": 6.2317879484,
				"z": -1.7213764342,
				"element": "H" 
			},
			{
				"x": -1.1309623481,
				"y": 7.0143393908,
				"z": -1.0875758631,
				"element": "H" 
			},
			{
				"x": -0.1791912,
				"y": 7.456079436,
				"z": -2.5177458118,
				"element": "H" 
			},
			{
				"x": -1.9462470641,
				"y": 5.3562783861,
				"z": -2.6877592336,
				"element": "H" 
			},
			{
				"x": -0.3213747712,
				"y": 5.1684511263,
				"z": -3.3966064399,
				"element": "H" 
			}
		],
		 "valence_orbital": [ 
			{
				"type": "occ",
				"energy": -0.233,
				"method": "rhf"
			},
			{
				"type": "occ",
				"energy": -0.22954,
				"method": "rhf"
			},
			{
				"type": "occ",
				"energy": -0.22809,
				"method": "rhf"
			},
			{
				"type": "occ",
				"energy": -0.22475,
				"method": "rhf"
			},
			{
				"type": "occ",
				"energy": -0.18677,
				"method": "rhf"
			},
			{
				"type": "unocc",
				"energy": -0.02935,
				"method": "rhf"
			},
			{
				"type": "unocc",
				"energy": 0.00464,
				"method": "rhf"
			},
			{
				"type": "unocc",
				"energy": 0.02079,
				"method": "rhf"
			},
			{
				"type": "unocc",
				"energy": 0.04331,
				"method": "rhf"
			},
			{
				"type": "unocc",
				"energy": 0.07152,
				"method": "rhf"
			}
		],
		"cosmo_sigma_profile": { 
			"-0.025": 0.0,
			"-0.024": 0.0,
			"-0.023": 0.0,
			"-0.022": 0.0,
			"-0.021": 0.0,
			"-0.02": 0.0,
			"-0.019": 0.0,
			"-0.018": 0.0,
			"-0.017": 0.0,
			"-0.016": 0.0,
			"-0.015": 0.10231065787,
			"-0.014": 1.21702685268,
			"-0.013": 2.27313980489,
			"-0.012": 2.36372242468,
			"-0.011": 1.84713162578,
			"-0.01": 3.22643835575,
			"-0.009": 2.58550427213,
			"-0.008": 2.49828976344,
			"-0.007": 1.85029149186,
			"-0.006": 10.4418895873,
			"-0.005": 29.677563626,
			"-0.004": 49.6420248948,
			"-0.003": 52.6331991609,
			"-0.002": 42.1856817548,
			"-0.001": 28.741081797,
			"0.0": 25.1043842496,
			"0.001": 22.2880590833,
			"0.002": 23.9043111879,
			"0.003": 22.839130619,
			"0.004": 19.1325108781,
			"0.005": 12.3465610864,
			"0.006": 11.5510456458,
			"0.007": 9.98484825693,
			"0.008": 8.55636470274,
			"0.009": 6.77153827015,
			"0.01": 8.60183368363,
			"0.011": 7.12725168647,
			"0.012": 4.45478311512,
			"0.013": 3.77282831307,
			"0.014": 4.03239028684,
			"0.015": 0.0,
			"0.016": 0.0,
			"0.017": 0.0,
			"0.018": 0.0,
			"0.019": 0.0,
			"0.02": 0.0,
			"0.021": 0.0,
			"0.022": 0.0,
			"0.023": 0.0,
			"0.024": 0.0,
			"0.025": 0.0
		}
	}
}
