{
	 "smiles": "NC(=O)C1=C(Cl)C=CC(Cl)=C1", 
	 "Tm": 432.65, 
	 "num_atms": 16, 
	 "gaussian": { 
		 "optdone": 1, 
		 "sigma_profile": "yes", 
		 "theory": "DFT", 
		 "functional": "B3LYP", 
		 "basiset": "6-31G**", 
		 "properties": { 
			 "R2extent": 3237.1565, 
			 "electric_dipole_moment_norm": 3.44869293791, 
			 "electric_quadrupole_moment_norm": 10.820874594, 
			 "total_energy": -1320.13247753, 
			 "HOMO_LUMO_gap": 0.20005, 
			 "cosmo_polarized_energy": -10.65, 
			 "cosmo_cavitation_energy": 23.97, 
			 "cosmo_dispersion_energy": -18.27, 
			 "cosmo_repulsion_energy": 1.47, 
			 "cosmo_total_nonelectrostatic_energy": 7.16, 
			 "SMD_solvation_energy": 4.3 
		},
		"coords": [
			{
				"x": -0.1679597395,
				"y": 1.4875138011,
				"z": 2.5036838918,
				"element": "N" 
			},
			{
				"x": -0.9833145994,
				"y": 0.7788641321,
				"z": 1.6808563005,
				"element": "C" 
			},
			{
				"x": -2.0792275609,
				"y": 1.2072700517,
				"z": 1.3360846545,
				"element": "O" 
			},
			{
				"x": -0.4906394663,
				"y": -0.5524454756,
				"z": 1.1293069987,
				"element": "C" 
			},
			{
				"x": 0.5340997153,
				"y": -1.3928725482,
				"z": 1.5976878264,
				"element": "C" 
			},
			{
				"x": 1.4963955522,
				"y": -1.0462718115,
				"z": 3.0409798466,
				"element": "Cl" 
			},
			{
				"x": 0.8392003858,
				"y": -2.594745226,
				"z": 0.9544485564,
				"element": "C" 
			},
			{
				"x": 0.1333299406,
				"y": -2.9885754813,
				"z": -0.1771289995,
				"element": "C" 
			},
			{
				"x": -0.8908213002,
				"y": -2.1678803486,
				"z": -0.6486536542,
				"element": "C" 
			},
			{
				"x": -1.798900184,
				"y": -2.6491032756,
				"z": -2.069421953,
				"element": "Cl" 
			},
			{
				"x": -1.2014300432,
				"y": -0.9782179444,
				"z": -0.0057029871,
				"element": "C" 
			},
			{
				"x": 0.7125446762,
				"y": 1.1411382088,
				"z": 2.8462992337,
				"element": "H" 
			},
			{
				"x": -0.5351415932,
				"y": 2.3585834167,
				"z": 2.855654821,
				"element": "H" 
			},
			{
				"x": 1.6308009456,
				"y": -3.2222470716,
				"z": 1.3479471124,
				"element": "H" 
			},
			{
				"x": 0.3720058682,
				"y": -3.9191821061,
				"z": -0.6794538286,
				"element": "H" 
			},
			{
				"x": -2.0075425973,
				"y": -0.3426283216,
				"z": -0.3516878196,
				"element": "H" 
			}
		],
		 "valence_orbital": [ 
			{
				"type": "occ",
				"energy": -0.32213,
				"method": "rhf"
			},
			{
				"type": "occ",
				"energy": -0.28416,
				"method": "rhf"
			},
			{
				"type": "occ",
				"energy": -0.27313,
				"method": "rhf"
			},
			{
				"type": "occ",
				"energy": -0.26327,
				"method": "rhf"
			},
			{
				"type": "occ",
				"energy": -0.25663,
				"method": "rhf"
			},
			{
				"type": "unocc",
				"energy": -0.05658,
				"method": "rhf"
			},
			{
				"type": "unocc",
				"energy": -0.03216,
				"method": "rhf"
			},
			{
				"type": "unocc",
				"energy": 0.00222,
				"method": "rhf"
			},
			{
				"type": "unocc",
				"energy": 0.02542,
				"method": "rhf"
			},
			{
				"type": "unocc",
				"energy": 0.04758,
				"method": "rhf"
			}
		],
		"cosmo_sigma_profile": { 
			"-0.025": 0.0,
			"-0.024": 0.0,
			"-0.023": 0.0,
			"-0.022": 0.0,
			"-0.021": 0.0,
			"-0.02": 0.0,
			"-0.019": 0.0,
			"-0.018": 0.0,
			"-0.017": 0.0,
			"-0.016": 0.0,
			"-0.015": 0.142503316697,
			"-0.014": 1.06012298806,
			"-0.013": 1.3030157932,
			"-0.012": 1.35664245713,
			"-0.011": 1.80654235403,
			"-0.01": 2.7041631548,
			"-0.009": 2.17532492677,
			"-0.008": 5.72250672538,
			"-0.007": 6.09338110701,
			"-0.006": 6.38023699073,
			"-0.005": 5.83864166929,
			"-0.004": 7.01796146458,
			"-0.003": 8.96656118637,
			"-0.002": 14.6191031702,
			"-0.001": 15.427887284,
			"0.0": 23.3343918118,
			"0.001": 26.1346973759,
			"0.002": 16.3636359564,
			"0.003": 15.5589941153,
			"0.004": 13.8285778141,
			"0.005": 3.91108291513,
			"0.006": 1.17318902564,
			"0.007": 1.34145775471,
			"0.008": 1.08518816079,
			"0.009": 1.63280864192,
			"0.01": 1.53147479821,
			"0.011": 1.58811934301,
			"0.012": 2.23299739236,
			"0.013": 4.98690495889,
			"0.014": 1.75878737963,
			"0.015": 0.0,
			"0.016": 0.0,
			"0.017": 0.0,
			"0.018": 0.0,
			"0.019": 0.0,
			"0.02": 0.0,
			"0.021": 0.0,
			"0.022": 0.0,
			"0.023": 0.0,
			"0.024": 0.0,
			"0.025": 0.0
		}
	}
}
