{
	 "smiles": "COC(=O)C1=C2C=CC=CN2N=C1", 
	 "Tm": 353.15, 
	 "num_atms": 21, 
	 "gaussian": { 
		 "optdone": 1, 
		 "sigma_profile": "yes", 
		 "theory": "DFT", 
		 "functional": "B3LYP", 
		 "basiset": "6-31G**", 
		 "properties": { 
			 "R2extent": 2541.2833, 
			 "electric_dipole_moment_norm": 4.29420215407, 
			 "electric_quadrupole_moment_norm": 6.97500480287, 
			 "total_energy": -607.718001383, 
			 "HOMO_LUMO_gap": 0.17283, 
			 "cosmo_polarized_energy": -11.13, 
			 "cosmo_cavitation_energy": 25.78, 
			 "cosmo_dispersion_energy": -19.02, 
			 "cosmo_repulsion_energy": 1.48, 
			 "cosmo_total_nonelectrostatic_energy": 8.24, 
			 "SMD_solvation_energy": 5.47 
		},
		"coords": [
			{
				"x": 2.3423812535,
				"y": 1.0908835887,
				"z": 3.0983743085,
				"element": "C" 
			},
			{
				"x": 1.3061853596,
				"y": 0.6380272876,
				"z": 2.214829337,
				"element": "O" 
			},
			{
				"x": 1.6171833776,
				"y": 0.6965444165,
				"z": 0.8890444246,
				"element": "C" 
			},
			{
				"x": 2.6897170648,
				"y": 1.1009459769,
				"z": 0.4792092093,
				"element": "O" 
			},
			{
				"x": 0.5260846476,
				"y": 0.2238485398,
				"z": 0.0444706826,
				"element": "C" 
			},
			{
				"x": -0.7496770803,
				"y": -0.2643816872,
				"z": 0.388981165,
				"element": "C" 
			},
			{
				"x": -1.4870888829,
				"y": -0.499024711,
				"z": 1.5726413763,
				"element": "C" 
			},
			{
				"x": -2.7620489753,
				"y": -1.0082031303,
				"z": 1.4810710042,
				"element": "C" 
			},
			{
				"x": -3.3381630792,
				"y": -1.2976160457,
				"z": 0.2137635089,
				"element": "C" 
			},
			{
				"x": -2.6217650839,
				"y": -1.0693260321,
				"z": -0.9295032811,
				"element": "C" 
			},
			{
				"x": -1.3577466116,
				"y": -0.5639820079,
				"z": -0.8283074898,
				"element": "N" 
			},
			{
				"x": -0.5621992767,
				"y": -0.3011597491,
				"z": -1.9032698324,
				"element": "N" 
			},
			{
				"x": 0.5600609276,
				"y": 0.1690250127,
				"z": -1.3642902292,
				"element": "C" 
			},
			{
				"x": 1.9401823353,
				"y": 0.981072367,
				"z": 4.1058483868,
				"element": "H" 
			},
			{
				"x": 3.2450458048,
				"y": 0.4862335634,
				"z": 2.9788546963,
				"element": "H" 
			},
			{
				"x": 2.5928261726,
				"y": 2.1358338448,
				"z": 2.8982775554,
				"element": "H" 
			},
			{
				"x": -1.0208417492,
				"y": -0.2685422369,
				"z": 2.5217503155,
				"element": "H" 
			},
			{
				"x": -3.3372618349,
				"y": -1.192287987,
				"z": 2.3826885792,
				"element": "H" 
			},
			{
				"x": -4.3419048617,
				"y": -1.6986728376,
				"z": 0.1377412592,
				"element": "H" 
			},
			{
				"x": -2.9665642604,
				"y": -1.2546885696,
				"z": -1.9384122269,
				"element": "H" 
			},
			{
				"x": 1.3838947528,
				"y": 0.4642703971,
				"z": -1.9995627493,
				"element": "H" 
			}
		],
		 "valence_orbital": [ 
			{
				"type": "occ",
				"energy": -0.30063,
				"method": "rhf"
			},
			{
				"type": "occ",
				"energy": -0.29516,
				"method": "rhf"
			},
			{
				"type": "occ",
				"energy": -0.26769,
				"method": "rhf"
			},
			{
				"type": "occ",
				"energy": -0.26575,
				"method": "rhf"
			},
			{
				"type": "occ",
				"energy": -0.22045,
				"method": "rhf"
			},
			{
				"type": "unocc",
				"energy": -0.04762,
				"method": "rhf"
			},
			{
				"type": "unocc",
				"energy": -0.01968,
				"method": "rhf"
			},
			{
				"type": "unocc",
				"energy": 0.00693,
				"method": "rhf"
			},
			{
				"type": "unocc",
				"energy": 0.08139,
				"method": "rhf"
			},
			{
				"type": "unocc",
				"energy": 0.09825,
				"method": "rhf"
			}
		],
		"cosmo_sigma_profile": { 
			"-0.025": 0.0,
			"-0.024": 0.0,
			"-0.023": 0.0,
			"-0.022": 0.0,
			"-0.021": 0.0,
			"-0.02": 0.0,
			"-0.019": 0.0,
			"-0.018": 0.0,
			"-0.017": 0.0,
			"-0.016": 0.0,
			"-0.015": 0.0,
			"-0.014": 0.0,
			"-0.013": 0.0,
			"-0.012": 0.0,
			"-0.011": 0.0,
			"-0.01": 0.578711973879,
			"-0.009": 1.95887082665,
			"-0.008": 4.7616217231,
			"-0.007": 8.65160026633,
			"-0.006": 11.9668063335,
			"-0.005": 15.0419065472,
			"-0.004": 11.7985001236,
			"-0.003": 16.0063289368,
			"-0.002": 14.494780775,
			"-0.001": 15.9664285729,
			"0.0": 16.3888872902,
			"0.001": 23.5494322019,
			"0.002": 20.221140098,
			"0.003": 8.43069231634,
			"0.004": 6.10870685197,
			"0.005": 3.63125338476,
			"0.006": 2.68710593518,
			"0.007": 3.33601908096,
			"0.008": 2.84288997217,
			"0.009": 2.7722968524,
			"0.01": 2.98376792679,
			"0.011": 1.95897159627,
			"0.012": 6.63320110069,
			"0.013": 3.35759290919,
			"0.014": 0.990898119835,
			"0.015": 0.234963064368,
			"0.016": 0.0,
			"0.017": 0.0,
			"0.018": 0.0,
			"0.019": 0.0,
			"0.02": 0.0,
			"0.021": 0.0,
			"0.022": 0.0,
			"0.023": 0.0,
			"0.024": 0.0,
			"0.025": 0.0
		}
	}
}
