{
	 "smiles": "O=C(OCC1=CC=CC=C1)ON1C(=O)CCC1=O", 
	 "Tm": 353.15, 
	 "num_atms": 29, 
	 "gaussian": { 
		 "optdone": 1, 
		 "sigma_profile": "yes", 
		 "theory": "DFT", 
		 "functional": "B3LYP", 
		 "basiset": "6-31G**", 
		 "properties": { 
			 "R2extent": 5809.0436, 
			 "electric_dipole_moment_norm": 1.43267626839, 
			 "electric_quadrupole_moment_norm": 20.7215688583, 
			 "total_energy": -894.753152574, 
			 "HOMO_LUMO_gap": 0.23026, 
			 "cosmo_polarized_energy": -17.27, 
			 "cosmo_cavitation_energy": 35.05, 
			 "cosmo_dispersion_energy": -24.49, 
			 "cosmo_repulsion_energy": 1.94, 
			 "cosmo_total_nonelectrostatic_energy": 12.5, 
			 "SMD_solvation_energy": 9.25 
		},
		"coords": [
			{
				"x": -1.4589202803,
				"y": 0.6133989569,
				"z": -0.0098362209,
				"element": "O" 
			},
			{
				"x": -0.6364278869,
				"y": 1.0705152823,
				"z": -0.759746681,
				"element": "C" 
			},
			{
				"x": 0.2462285879,
				"y": 2.0346235276,
				"z": -0.5573031513,
				"element": "O" 
			},
			{
				"x": 0.2543871172,
				"y": 2.622143044,
				"z": 0.7858905157,
				"element": "C" 
			},
			{
				"x": 1.2097865445,
				"y": 1.9051701968,
				"z": 1.7016079431,
				"element": "C" 
			},
			{
				"x": 0.778900566,
				"y": 0.813105029,
				"z": 2.4676456966,
				"element": "C" 
			},
			{
				"x": 1.6722975028,
				"y": 0.1461658309,
				"z": 3.3057868732,
				"element": "C" 
			},
			{
				"x": 3.0023037147,
				"y": 0.5642079943,
				"z": 3.3873906986,
				"element": "C" 
			},
			{
				"x": 3.4388314796,
				"y": 1.6513768393,
				"z": 2.6275687215,
				"element": "C" 
			},
			{
				"x": 2.5454946846,
				"y": 2.3175565665,
				"z": 1.7888663242,
				"element": "C" 
			},
			{
				"x": -0.4455209459,
				"y": 0.6592511608,
				"z": -2.0738468322,
				"element": "O" 
			},
			{
				"x": -1.3328918138,
				"y": -0.3275154503,
				"z": -2.4296080255,
				"element": "N" 
			},
			{
				"x": -1.0513881014,
				"y": -1.6800730683,
				"z": -2.2029645052,
				"element": "C" 
			},
			{
				"x": -0.0389519204,
				"y": -2.1076345502,
				"z": -1.7060513897,
				"element": "O" 
			},
			{
				"x": -2.271604783,
				"y": -2.4371958891,
				"z": -2.7170125863,
				"element": "C" 
			},
			{
				"x": -3.2813747224,
				"y": -1.3611724072,
				"z": -3.1717468915,
				"element": "C" 
			},
			{
				"x": -2.61080659,
				"y": -0.0171855276,
				"z": -2.9086491697,
				"element": "C" 
			},
			{
				"x": -3.0430661282,
				"y": 1.0982911503,
				"z": -3.0651494852,
				"element": "O" 
			},
			{
				"x": -0.7674805795,
				"y": 2.6048686653,
				"z": 1.1682335138,
				"element": "H" 
			},
			{
				"x": 0.5659820344,
				"y": 3.6524801604,
				"z": 0.6089258534,
				"element": "H" 
			},
			{
				"x": -0.2535459547,
				"y": 0.4855055998,
				"z": 2.3937998201,
				"element": "H" 
			},
			{
				"x": 1.3301420265,
				"y": -0.6990260562,
				"z": 3.8958166132,
				"element": "H" 
			},
			{
				"x": 3.696332651,
				"y": 0.0452891809,
				"z": 4.0423697084,
				"element": "H" 
			},
			{
				"x": 4.4719696153,
				"y": 1.9806124608,
				"z": 2.6894755731,
				"element": "H" 
			},
			{
				"x": 2.8852308873,
				"y": 3.1643060273,
				"z": 1.1975577222,
				"element": "H" 
			},
			{
				"x": -2.6498564741,
				"y": -3.0674010365,
				"z": -1.9079238401,
				"element": "H" 
			},
			{
				"x": -1.9562734936,
				"y": -3.1025835425,
				"z": -3.5255550044,
				"element": "H" 
			},
			{
				"x": -4.2210357979,
				"y": -1.3902270675,
				"z": -2.6139568491,
				"element": "H" 
			},
			{
				"x": -3.5330419396,
				"y": -1.4260530777,
				"z": -4.2339849451,
				"element": "H" 
			}
		],
		 "valence_orbital": [ 
			{
				"type": "occ",
				"energy": -0.29739,
				"method": "rhf"
			},
			{
				"type": "occ",
				"energy": -0.28791,
				"method": "rhf"
			},
			{
				"type": "occ",
				"energy": -0.26547,
				"method": "rhf"
			},
			{
				"type": "occ",
				"energy": -0.25654,
				"method": "rhf"
			},
			{
				"type": "occ",
				"energy": -0.25584,
				"method": "rhf"
			},
			{
				"type": "unocc",
				"energy": -0.02558,
				"method": "rhf"
			},
			{
				"type": "unocc",
				"energy": -0.01976,
				"method": "rhf"
			},
			{
				"type": "unocc",
				"energy": -0.00727,
				"method": "rhf"
			},
			{
				"type": "unocc",
				"energy": 0.01884,
				"method": "rhf"
			},
			{
				"type": "unocc",
				"energy": 0.02409,
				"method": "rhf"
			}
		],
		"cosmo_sigma_profile": { 
			"-0.025": 0.0,
			"-0.024": 0.0,
			"-0.023": 0.0,
			"-0.022": 0.0,
			"-0.021": 0.0,
			"-0.02": 0.0,
			"-0.019": 0.0,
			"-0.018": 0.0,
			"-0.017": 0.0,
			"-0.016": 0.0,
			"-0.015": 0.0,
			"-0.014": 0.0,
			"-0.013": 0.0,
			"-0.012": 0.0,
			"-0.011": 0.0,
			"-0.01": 0.00200739866978,
			"-0.009": 0.757537104815,
			"-0.008": 13.1941833068,
			"-0.007": 20.1800878801,
			"-0.006": 19.6172388421,
			"-0.005": 23.2695217669,
			"-0.004": 23.2870873785,
			"-0.003": 17.1696077122,
			"-0.002": 10.9418925743,
			"-0.001": 13.1195353964,
			"0.0": 12.2174312848,
			"0.001": 12.9704682912,
			"0.002": 14.7444950191,
			"0.003": 15.6917991787,
			"0.004": 17.0965759063,
			"0.005": 18.97817689,
			"0.006": 8.46482078559,
			"0.007": 5.91362955019,
			"0.008": 5.1023526294,
			"0.009": 7.31452980963,
			"0.01": 8.72555870698,
			"0.011": 9.27287220613,
			"0.012": 2.02738402818,
			"0.013": 0.0,
			"0.014": 0.0,
			"0.015": 0.0,
			"0.016": 0.0,
			"0.017": 0.0,
			"0.018": 0.0,
			"0.019": 0.0,
			"0.02": 0.0,
			"0.021": 0.0,
			"0.022": 0.0,
			"0.023": 0.0,
			"0.024": 0.0,
			"0.025": 0.0
		}
	}
}
