{
	 "smiles": "OC1=CC=CC=C1C#N", 
	 "Tm": 368.95, 
	 "num_atms": 14, 
	 "gaussian": { 
		 "optdone": 1, 
		 "sigma_profile": "yes", 
		 "theory": "DFT", 
		 "functional": "B3LYP", 
		 "basiset": "6-31G**", 
		 "properties": { 
			 "R2extent": 1202.1199, 
			 "electric_dipole_moment_norm": 5.70290233653, 
			 "electric_quadrupole_moment_norm": 16.6975780097, 
			 "total_energy": -399.710827351, 
			 "HOMO_LUMO_gap": 0.19585, 
			 "cosmo_polarized_energy": -14.45, 
			 "cosmo_cavitation_energy": 19.46, 
			 "cosmo_dispersion_energy": -14.0, 
			 "cosmo_repulsion_energy": 1.15, 
			 "cosmo_total_nonelectrostatic_energy": 6.61, 
			 "SMD_solvation_energy": 5.18 
		},
		"coords": [
			{
				"x": -1.6871534001,
				"y": 0.9913611576,
				"z": -1.3031606364,
				"element": "O" 
			},
			{
				"x": -0.5937640527,
				"y": 0.5574412177,
				"z": -0.6287399688,
				"element": "C" 
			},
			{
				"x": -0.026102355,
				"y": 1.2603668006,
				"z": 0.4386058317,
				"element": "C" 
			},
			{
				"x": 1.0990422927,
				"y": 0.7583051122,
				"z": 1.0896441523,
				"element": "C" 
			},
			{
				"x": 1.6750916486,
				"y": -0.4498843529,
				"z": 0.6880390728,
				"element": "C" 
			},
			{
				"x": 1.1157502478,
				"y": -1.154511532,
				"z": -0.3729051988,
				"element": "C" 
			},
			{
				"x": -0.0186959962,
				"y": -0.6638514254,
				"z": -1.0413456269,
				"element": "C" 
			},
			{
				"x": -0.5861228667,
				"y": -1.3967307218,
				"z": -2.1315966237,
				"element": "C" 
			},
			{
				"x": -1.0242686742,
				"y": -2.0152438696,
				"z": -3.0140921572,
				"element": "N" 
			},
			{
				"x": -1.9868314975,
				"y": 1.8312193095,
				"z": -0.9310702478,
				"element": "H" 
			},
			{
				"x": -0.4699656998,
				"y": 2.2011895409,
				"z": 0.7557230387,
				"element": "H" 
			},
			{
				"x": 1.5269378273,
				"y": 1.3171473694,
				"z": 1.9165927733,
				"element": "H" 
			},
			{
				"x": 2.5508853951,
				"y": -0.8373677403,
				"z": 1.1973501854,
				"element": "H" 
			},
			{
				"x": 1.5457971307,
				"y": -2.094540866,
				"z": -0.7021445946,
				"element": "H" 
			}
		],
		 "valence_orbital": [ 
			{
				"type": "occ",
				"energy": -0.34917,
				"method": "rhf"
			},
			{
				"type": "occ",
				"energy": -0.34188,
				"method": "rhf"
			},
			{
				"type": "occ",
				"energy": -0.32288,
				"method": "rhf"
			},
			{
				"type": "occ",
				"energy": -0.26906,
				"method": "rhf"
			},
			{
				"type": "occ",
				"energy": -0.24399,
				"method": "rhf"
			},
			{
				"type": "unocc",
				"energy": -0.04814,
				"method": "rhf"
			},
			{
				"type": "unocc",
				"energy": -0.0124,
				"method": "rhf"
			},
			{
				"type": "unocc",
				"energy": 0.039,
				"method": "rhf"
			},
			{
				"type": "unocc",
				"energy": 0.05568,
				"method": "rhf"
			},
			{
				"type": "unocc",
				"energy": 0.07872,
				"method": "rhf"
			}
		],
		"cosmo_sigma_profile": { 
			"-0.025": 0.0,
			"-0.024": 0.0,
			"-0.023": 0.0,
			"-0.022": 0.0,
			"-0.021": 0.0,
			"-0.02": 0.00219715529644,
			"-0.019": 0.801858432502,
			"-0.018": 1.2041133653,
			"-0.017": 0.970398970562,
			"-0.016": 1.60437949015,
			"-0.015": 0.678751961392,
			"-0.014": 0.413234441745,
			"-0.013": 0.992204418654,
			"-0.012": 1.46438215001,
			"-0.011": 1.18076873538,
			"-0.01": 1.02867731627,
			"-0.009": 1.07949265458,
			"-0.008": 2.63477980065,
			"-0.007": 6.94653926401,
			"-0.006": 10.173948398,
			"-0.005": 8.9513846779,
			"-0.004": 7.67022514106,
			"-0.003": 5.93873003547,
			"-0.002": 5.23835691422,
			"-0.001": 8.52951348936,
			"0.0": 11.9200178596,
			"0.001": 12.1617200818,
			"0.002": 12.6307425557,
			"0.003": 11.9161381279,
			"0.004": 6.27112566865,
			"0.005": 2.71227463689,
			"0.006": 3.90091216481,
			"0.007": 5.25862163561,
			"0.008": 6.10025906835,
			"0.009": 5.48782059164,
			"0.01": 3.94645326163,
			"0.011": 2.77852478884,
			"0.012": 2.50785576088,
			"0.013": 1.96164288552,
			"0.014": 0.224143023643,
			"0.015": 0.0,
			"0.016": 0.0,
			"0.017": 0.0,
			"0.018": 0.0,
			"0.019": 0.0,
			"0.02": 0.0,
			"0.021": 0.0,
			"0.022": 0.0,
			"0.023": 0.0,
			"0.024": 0.0,
			"0.025": 0.0
		}
	}
}
