{
	 "smiles": "NC(=NO)C1=CC=CC=C1", 
	 "Tm": 349.15, 
	 "num_atms": 18, 
	 "gaussian": { 
		 "optdone": 1, 
		 "sigma_profile": "yes", 
		 "theory": "DFT", 
		 "functional": "B3LYP", 
		 "basiset": "6-31G**", 
		 "properties": { 
			 "R2extent": 1504.9424, 
			 "electric_dipole_moment_norm": 1.39091892287, 
			 "electric_quadrupole_moment_norm": 6.5012784089, 
			 "total_energy": -456.235912111, 
			 "HOMO_LUMO_gap": 0.18069, 
			 "cosmo_polarized_energy": -10.99, 
			 "cosmo_cavitation_energy": 22.01, 
			 "cosmo_dispersion_energy": -16.51, 
			 "cosmo_repulsion_energy": 1.36, 
			 "cosmo_total_nonelectrostatic_energy": 6.87, 
			 "SMD_solvation_energy": 3.94 
		},
		"coords": [
			{
				"x": 0.8476235471,
				"y": 1.9077501808,
				"z": 1.3125669612,
				"element": "N" 
			},
			{
				"x": 0.4120849994,
				"y": 1.2748544882,
				"z": 0.1394371523,
				"element": "C" 
			},
			{
				"x": 0.5970590413,
				"y": 1.9407558085,
				"z": -0.9512579332,
				"element": "N" 
			},
			{
				"x": -0.0301905754,
				"y": 1.3553475642,
				"z": -2.07707309,
				"element": "O" 
			},
			{
				"x": -0.246010054,
				"y": -0.0437706603,
				"z": 0.3322182479,
				"element": "C" 
			},
			{
				"x": -0.1545413192,
				"y": -1.0672361391,
				"z": -0.62654593,
				"element": "C" 
			},
			{
				"x": -0.7402019629,
				"y": -2.3085452613,
				"z": -0.3865325779,
				"element": "C" 
			},
			{
				"x": -1.4316885068,
				"y": -2.5475530258,
				"z": 0.803478574,
				"element": "C" 
			},
			{
				"x": -1.531501,
				"y": -1.5357439606,
				"z": 1.759638934,
				"element": "C" 
			},
			{
				"x": -0.9389223524,
				"y": -0.2950359927,
				"z": 1.5290282062,
				"element": "C" 
			},
			{
				"x": 1.3420416969,
				"y": 2.7690447209,
				"z": 1.1074334382,
				"element": "H" 
			},
			{
				"x": 1.3799566008,
				"y": 1.3034645467,
				"z": 1.9283873139,
				"element": "H" 
			},
			{
				"x": 0.1789147502,
				"y": 2.0004261085,
				"z": -2.7641921994,
				"element": "H" 
			},
			{
				"x": 0.3710272129,
				"y": -0.8809007287,
				"z": -1.5539602776,
				"element": "H" 
			},
			{
				"x": -0.6571046063,
				"y": -3.0929209069,
				"z": -1.1334725136,
				"element": "H" 
			},
			{
				"x": -1.8912398394,
				"y": -3.5155120793,
				"z": 0.9826066024,
				"element": "H" 
			},
			{
				"x": -2.072295207,
				"y": -1.7106715175,
				"z": 2.6854179763,
				"element": "H" 
			},
			{
				"x": -1.0209124254,
				"y": 0.4967468544,
				"z": 2.2662211154,
				"element": "H" 
			}
		],
		 "valence_orbital": [ 
			{
				"type": "occ",
				"energy": -0.3166,
				"method": "rhf"
			},
			{
				"type": "occ",
				"energy": -0.2631,
				"method": "rhf"
			},
			{
				"type": "occ",
				"energy": -0.25366,
				"method": "rhf"
			},
			{
				"type": "occ",
				"energy": -0.2493,
				"method": "rhf"
			},
			{
				"type": "occ",
				"energy": -0.20698,
				"method": "rhf"
			},
			{
				"type": "unocc",
				"energy": -0.02629,
				"method": "rhf"
			},
			{
				"type": "unocc",
				"energy": -1e-05,
				"method": "rhf"
			},
			{
				"type": "unocc",
				"energy": 0.05957,
				"method": "rhf"
			},
			{
				"type": "unocc",
				"energy": 0.08028,
				"method": "rhf"
			},
			{
				"type": "unocc",
				"energy": 0.09444,
				"method": "rhf"
			}
		],
		"cosmo_sigma_profile": { 
			"-0.025": 0.0,
			"-0.024": 0.0,
			"-0.023": 0.0,
			"-0.022": 0.0,
			"-0.021": 0.0,
			"-0.02": 0.0,
			"-0.019": 0.0,
			"-0.018": 0.0,
			"-0.017": 0.192360227467,
			"-0.016": 0.976897573836,
			"-0.015": 0.956743790678,
			"-0.014": 0.688115915656,
			"-0.013": 1.06565681274,
			"-0.012": 2.53147929057,
			"-0.011": 3.09565173834,
			"-0.01": 3.28606402842,
			"-0.009": 2.71875901408,
			"-0.008": 2.45814807379,
			"-0.007": 3.25069092517,
			"-0.006": 7.16911121937,
			"-0.005": 10.831633331,
			"-0.004": 12.3565962054,
			"-0.003": 10.9143058755,
			"-0.002": 9.77475113651,
			"-0.001": 8.18943447807,
			"0.0": 9.48020941297,
			"0.001": 9.37079214132,
			"0.002": 10.4250922321,
			"0.003": 10.135622087,
			"0.004": 12.5385804747,
			"0.005": 13.2191357479,
			"0.006": 6.36811296445,
			"0.007": 5.59948251332,
			"0.008": 4.03556964238,
			"0.009": 3.65150252427,
			"0.01": 3.38121817754,
			"0.011": 2.89581253623,
			"0.012": 1.68704584805,
			"0.013": 0.874854577312,
			"0.014": 0.742195325833,
			"0.015": 0.0,
			"0.016": 0.0,
			"0.017": 0.0,
			"0.018": 0.0,
			"0.019": 0.0,
			"0.02": 0.0,
			"0.021": 0.0,
			"0.022": 0.0,
			"0.023": 0.0,
			"0.024": 0.0,
			"0.025": 0.0
		}
	}
}
