{
	 "smiles": "COC1=CC(=CC(C=O)=C1O)[N+]([O-])=O", 
	 "Tm": 413.15, 
	 "num_atms": 21, 
	 "gaussian": { 
		 "optdone": 1, 
		 "sigma_profile": "yes", 
		 "theory": "DFT", 
		 "functional": "B3LYP", 
		 "basiset": "6-31G**", 
		 "properties": { 
			 "R2extent": 3364.5806, 
			 "electric_dipole_moment_norm": 3.64598374379, 
			 "electric_quadrupole_moment_norm": 18.1292224058, 
			 "total_energy": -739.819866531, 
			 "HOMO_LUMO_gap": 0.14487, 
			 "cosmo_polarized_energy": -11.18, 
			 "cosmo_cavitation_energy": 26.36, 
			 "cosmo_dispersion_energy": -19.63, 
			 "cosmo_repulsion_energy": 1.52, 
			 "cosmo_total_nonelectrostatic_energy": 8.25, 
			 "SMD_solvation_energy": 8.88 
		},
		"coords": [
			{
				"x": 2.7340138833,
				"y": -2.9761104828,
				"z": -1.236059827,
				"element": "C" 
			},
			{
				"x": 2.27546536,
				"y": -1.7528776266,
				"z": -1.8248561554,
				"element": "O" 
			},
			{
				"x": 1.2187831835,
				"y": -1.0485874622,
				"z": -1.3514310695,
				"element": "C" 
			},
			{
				"x": 0.9290298696,
				"y": 0.1156015458,
				"z": -2.0594645685,
				"element": "C" 
			},
			{
				"x": -0.1338280878,
				"y": 0.9448851897,
				"z": -1.6875470523,
				"element": "C" 
			},
			{
				"x": -0.941369636,
				"y": 0.6489488583,
				"z": -0.6058773066,
				"element": "C" 
			},
			{
				"x": -0.6701491411,
				"y": -0.517202693,
				"z": 0.1227423455,
				"element": "C" 
			},
			{
				"x": -1.5051699318,
				"y": -0.8546241621,
				"z": 1.2685371909,
				"element": "C" 
			},
			{
				"x": -1.3461918968,
				"y": -1.8570485191,
				"z": 1.9708687937,
				"element": "O" 
			},
			{
				"x": 0.4050814946,
				"y": -1.3810380619,
				"z": -0.2322509574,
				"element": "C" 
			},
			{
				"x": 0.6466684934,
				"y": -2.4895612911,
				"z": 0.4764742867,
				"element": "O" 
			},
			{
				"x": -0.3944971406,
				"y": 2.1578713601,
				"z": -2.4674565088,
				"element": "N" 
			},
			{
				"x": -1.3373250818,
				"y": 2.8683987621,
				"z": -2.1155119719,
				"element": "O" 
			},
			{
				"x": 0.3428109306,
				"y": 2.3923585298,
				"z": -3.4244959788,
				"element": "O" 
			},
			{
				"x": 3.0574674062,
				"y": -2.8302203664,
				"z": -0.2031498777,
				"element": "H" 
			},
			{
				"x": 1.9662831025,
				"y": -3.7521913569,
				"z": -1.2685428376,
				"element": "H" 
			},
			{
				"x": 3.5851338417,
				"y": -3.2728201052,
				"z": -1.8509699051,
				"element": "H" 
			},
			{
				"x": 1.5429440157,
				"y": 0.376055628,
				"z": -2.9122492734,
				"element": "H" 
			},
			{
				"x": -1.7593660382,
				"y": 1.3062803465,
				"z": -0.3359283171,
				"element": "H" 
			},
			{
				"x": -2.324676705,
				"y": -0.1491603544,
				"z": 1.4978477216,
				"element": "H" 
			},
			{
				"x": -0.0351079219,
				"y": -2.5231577387,
				"z": 1.2025212687,
				"element": "H" 
			}
		],
		 "valence_orbital": [ 
			{
				"type": "occ",
				"energy": -0.31171,
				"method": "rhf"
			},
			{
				"type": "occ",
				"energy": -0.29347,
				"method": "rhf"
			},
			{
				"type": "occ",
				"energy": -0.2929,
				"method": "rhf"
			},
			{
				"type": "occ",
				"energy": -0.28044,
				"method": "rhf"
			},
			{
				"type": "occ",
				"energy": -0.23856,
				"method": "rhf"
			},
			{
				"type": "unocc",
				"energy": -0.09369,
				"method": "rhf"
			},
			{
				"type": "unocc",
				"energy": -0.08736,
				"method": "rhf"
			},
			{
				"type": "unocc",
				"energy": -0.00408,
				"method": "rhf"
			},
			{
				"type": "unocc",
				"energy": 0.02475,
				"method": "rhf"
			},
			{
				"type": "unocc",
				"energy": 0.07142,
				"method": "rhf"
			}
		],
		"cosmo_sigma_profile": { 
			"-0.025": 0.0,
			"-0.024": 0.0,
			"-0.023": 0.0,
			"-0.022": 0.0,
			"-0.021": 0.0,
			"-0.02": 0.0,
			"-0.019": 0.0,
			"-0.018": 0.0,
			"-0.017": 0.0,
			"-0.016": 0.0,
			"-0.015": 0.0,
			"-0.014": 0.0,
			"-0.013": 0.0,
			"-0.012": 0.0,
			"-0.011": 0.449830950799,
			"-0.01": 2.16974926483,
			"-0.009": 3.30375790612,
			"-0.008": 4.25531125662,
			"-0.007": 5.06066001624,
			"-0.006": 9.98304479703,
			"-0.005": 13.7668619805,
			"-0.004": 18.2353088672,
			"-0.003": 18.6432825971,
			"-0.002": 21.1744684466,
			"-0.001": 20.2453739501,
			"0.0": 14.4184493178,
			"0.001": 8.01598149891,
			"0.002": 7.5295472688,
			"0.003": 7.08576404307,
			"0.004": 7.46289824947,
			"0.005": 8.61102266754,
			"0.006": 6.85140353919,
			"0.007": 9.31681479532,
			"0.008": 11.5192679696,
			"0.009": 7.00724695631,
			"0.01": 4.76172103258,
			"0.011": 1.46049516588,
			"0.012": 0.23589699628,
			"0.013": 0.0,
			"0.014": 0.0,
			"0.015": 0.0,
			"0.016": 0.0,
			"0.017": 0.0,
			"0.018": 0.0,
			"0.019": 0.0,
			"0.02": 0.0,
			"0.021": 0.0,
			"0.022": 0.0,
			"0.023": 0.0,
			"0.024": 0.0,
			"0.025": 0.0
		}
	}
}
