{
	 "smiles": "ClC1=C(Cl)N=CC(=C1)C(=O)N1CCOCC1", 
	 "Tm": 352.15, 
	 "num_atms": 26, 
	 "gaussian": { 
		 "optdone": 1, 
		 "sigma_profile": "yes", 
		 "theory": "DFT", 
		 "functional": "B3LYP", 
		 "basiset": "6-31G**", 
		 "properties": { 
			 "R2extent": 6966.8885, 
			 "electric_dipole_moment_norm": 3.70031011944, 
			 "electric_quadrupole_moment_norm": 14.4641979083, 
			 "total_energy": -1567.40325498, 
			 "HOMO_LUMO_gap": 0.19242, 
			 "cosmo_polarized_energy": -14.84, 
			 "cosmo_cavitation_energy": 32.91, 
			 "cosmo_dispersion_energy": -24.31, 
			 "cosmo_repulsion_energy": 1.91, 
			 "cosmo_total_nonelectrostatic_energy": 10.51, 
			 "SMD_solvation_energy": 3.26 
		},
		"coords": [
			{
				"x": 0.6790148672,
				"y": -4.5293177164,
				"z": -1.0103115514,
				"element": "Cl" 
			},
			{
				"x": 1.1638428961,
				"y": -2.9926864459,
				"z": -1.6734672034,
				"element": "C" 
			},
			{
				"x": 2.1647354651,
				"y": -2.8731064875,
				"z": -2.6526704994,
				"element": "C" 
			},
			{
				"x": 3.0052915336,
				"y": -4.2865174849,
				"z": -3.2443516743,
				"element": "Cl" 
			},
			{
				"x": 2.5181005627,
				"y": -1.7114430692,
				"z": -3.1768598904,
				"element": "N" 
			},
			{
				"x": 1.9037759514,
				"y": -0.6018498625,
				"z": -2.7621735375,
				"element": "C" 
			},
			{
				"x": 0.9170743046,
				"y": -0.5957239456,
				"z": -1.7686519783,
				"element": "C" 
			},
			{
				"x": 0.5405409252,
				"y": -1.8287106947,
				"z": -1.2286682472,
				"element": "C" 
			},
			{
				"x": 0.249106944,
				"y": 0.7140417678,
				"z": -1.4454095443,
				"element": "C" 
			},
			{
				"x": 0.0146631653,
				"y": 1.5113070212,
				"z": -2.3512203882,
				"element": "O" 
			},
			{
				"x": -0.107958646,
				"y": 0.9763332334,
				"z": -0.1475351348,
				"element": "N" 
			},
			{
				"x": 0.4352209148,
				"y": 0.3120989423,
				"z": 1.0463669693,
				"element": "C" 
			},
			{
				"x": 0.7432953687,
				"y": 1.36028794,
				"z": 2.1155439585,
				"element": "C" 
			},
			{
				"x": -0.4084026328,
				"y": 2.0907878488,
				"z": 2.5173169161,
				"element": "O" 
			},
			{
				"x": -1.3977590054,
				"y": 2.2444067139,
				"z": 1.49989357,
				"element": "C" 
			},
			{
				"x": -0.8153078979,
				"y": 2.2446213481,
				"z": 0.0925245277,
				"element": "C" 
			},
			{
				"x": 2.1983704055,
				"y": 0.3295032936,
				"z": -3.2365381088,
				"element": "H" 
			},
			{
				"x": -0.2445156424,
				"y": -1.9024869491,
				"z": -0.484691513,
				"element": "H" 
			},
			{
				"x": -0.2783957949,
				"y": -0.4181166712,
				"z": 1.4521669742,
				"element": "H" 
			},
			{
				"x": 1.3517762767,
				"y": -0.2238183787,
				"z": 0.7903949112,
				"element": "H" 
			},
			{
				"x": 1.1376432471,
				"y": 0.867621102,
				"z": 3.0103936336,
				"element": "H" 
			},
			{
				"x": 1.5202657603,
				"y": 2.0429128429,
				"z": 1.7376783278,
				"element": "H" 
			},
			{
				"x": -2.1508074904,
				"y": 1.4456506034,
				"z": 1.5851896874,
				"element": "H" 
			},
			{
				"x": -1.9027229219,
				"y": 3.1967424479,
				"z": 1.6889162884,
				"element": "H" 
			},
			{
				"x": -0.1344304658,
				"y": 3.0948257147,
				"z": -0.0446815322,
				"element": "H" 
			},
			{
				"x": -1.607918091,
				"y": 2.3506368854,
				"z": -0.6523549608,
				"element": "H" 
			}
		],
		 "valence_orbital": [ 
			{
				"type": "occ",
				"energy": -0.29254,
				"method": "rhf"
			},
			{
				"type": "occ",
				"energy": -0.27551,
				"method": "rhf"
			},
			{
				"type": "occ",
				"energy": -0.26945,
				"method": "rhf"
			},
			{
				"type": "occ",
				"energy": -0.25871,
				"method": "rhf"
			},
			{
				"type": "occ",
				"energy": -0.25593,
				"method": "rhf"
			},
			{
				"type": "unocc",
				"energy": -0.06351,
				"method": "rhf"
			},
			{
				"type": "unocc",
				"energy": -0.05159,
				"method": "rhf"
			},
			{
				"type": "unocc",
				"energy": -0.00273,
				"method": "rhf"
			},
			{
				"type": "unocc",
				"energy": 0.02344,
				"method": "rhf"
			},
			{
				"type": "unocc",
				"energy": 0.04734,
				"method": "rhf"
			}
		],
		"cosmo_sigma_profile": { 
			"-0.025": 0.0,
			"-0.024": 0.0,
			"-0.023": 0.0,
			"-0.022": 0.0,
			"-0.021": 0.0,
			"-0.02": 0.0,
			"-0.019": 0.0,
			"-0.018": 0.0,
			"-0.017": 0.0,
			"-0.016": 0.0,
			"-0.015": 0.0,
			"-0.014": 0.0,
			"-0.013": 0.0,
			"-0.012": 0.0,
			"-0.011": 0.0,
			"-0.01": 0.319509386806,
			"-0.009": 1.96666242285,
			"-0.008": 3.27253502019,
			"-0.007": 6.54943140215,
			"-0.006": 13.8026989349,
			"-0.005": 27.481348977,
			"-0.004": 27.3373096171,
			"-0.003": 23.8378749983,
			"-0.002": 24.0016215689,
			"-0.001": 17.3334001224,
			"0.0": 12.5868449605,
			"0.001": 15.5306657776,
			"0.002": 15.7168900678,
			"0.003": 19.3678784892,
			"0.004": 14.6052927132,
			"0.005": 5.75199167539,
			"0.006": 4.5635882432,
			"0.007": 4.17185542969,
			"0.008": 3.32139826373,
			"0.009": 4.53195994429,
			"0.01": 2.97380854593,
			"0.011": 3.40412426264,
			"0.012": 5.15845309654,
			"0.013": 7.22655666819,
			"0.014": 1.33982681247,
			"0.015": 0.0,
			"0.016": 0.0,
			"0.017": 0.0,
			"0.018": 0.0,
			"0.019": 0.0,
			"0.02": 0.0,
			"0.021": 0.0,
			"0.022": 0.0,
			"0.023": 0.0,
			"0.024": 0.0,
			"0.025": 0.0
		}
	}
}
