{
	 "smiles": "CC(=O)NC1=CC=C(N)C=C1Cl", 
	 "Tm": 405.15, 
	 "num_atms": 21, 
	 "gaussian": { 
		 "optdone": 1, 
		 "sigma_profile": "yes", 
		 "theory": "DFT", 
		 "functional": "B3LYP", 
		 "basiset": "6-31G**", 
		 "properties": { 
			 "R2extent": 2984.3517, 
			 "electric_dipole_moment_norm": 6.11591914351, 
			 "electric_quadrupole_moment_norm": 8.92677261893, 
			 "total_energy": -955.213344117, 
			 "HOMO_LUMO_gap": 0.18741, 
			 "cosmo_polarized_energy": -15.6, 
			 "cosmo_cavitation_energy": 26.89, 
			 "cosmo_dispersion_energy": -19.57, 
			 "cosmo_repulsion_energy": 1.58, 
			 "cosmo_total_nonelectrostatic_energy": 8.9, 
			 "SMD_solvation_energy": 5.23 
		},
		"coords": [
			{
				"x": -2.2603215742,
				"y": -0.7143451159,
				"z": -0.7836298673,
				"element": "C" 
			},
			{
				"x": -1.7507455263,
				"y": 0.5859688835,
				"z": -1.378680815,
				"element": "C" 
			},
			{
				"x": -2.4493730879,
				"y": 1.2906722823,
				"z": -2.0919508138,
				"element": "O" 
			},
			{
				"x": -0.4503584854,
				"y": 0.9733466156,
				"z": -1.0963411655,
				"element": "N" 
			},
			{
				"x": 0.547558019,
				"y": 0.3252931951,
				"z": -0.3389104715,
				"element": "C" 
			},
			{
				"x": 0.3209522669,
				"y": -0.1128169196,
				"z": 0.9746301668,
				"element": "C" 
			},
			{
				"x": 1.3098548379,
				"y": -0.7418001897,
				"z": 1.7203570055,
				"element": "C" 
			},
			{
				"x": 2.5993217306,
				"y": -0.9240579541,
				"z": 1.1919702079,
				"element": "C" 
			},
			{
				"x": 3.5847607868,
				"y": -1.5933264438,
				"z": 1.9140730307,
				"element": "N" 
			},
			{
				"x": 2.8563775555,
				"y": -0.4570310054,
				"z": -0.1070165213,
				"element": "C" 
			},
			{
				"x": 1.8448065034,
				"y": 0.1423075427,
				"z": -0.8494680869,
				"element": "C" 
			},
			{
				"x": 2.2250417311,
				"y": 0.7045952821,
				"z": -2.4722694441,
				"element": "Cl" 
			},
			{
				"x": -1.4817782256,
				"y": -1.4733839358,
				"z": -0.6813688478,
				"element": "H" 
			},
			{
				"x": -2.6928123991,
				"y": -0.5346028793,
				"z": 0.2064024657,
				"element": "H" 
			},
			{
				"x": -3.0569186526,
				"y": -1.0771120737,
				"z": -1.434162456,
				"element": "H" 
			},
			{
				"x": -0.1657723301,
				"y": 1.7717444396,
				"z": -1.6515554124,
				"element": "H" 
			},
			{
				"x": -0.6526397767,
				"y": 0.060937101,
				"z": 1.4195239901,
				"element": "H" 
			},
			{
				"x": 1.0890495723,
				"y": -1.0781034057,
				"z": 2.7296733969,
				"element": "H" 
			},
			{
				"x": 3.4643783872,
				"y": -1.5907044428,
				"z": 2.9173023771,
				"element": "H" 
			},
			{
				"x": 4.5374270469,
				"y": -1.3919886635,
				"z": 1.6443089571,
				"element": "H" 
			},
			{
				"x": 3.8408916201,
				"y": -0.5739923125,
				"z": -0.5478876964,
				"element": "H" 
			}
		],
		 "valence_orbital": [ 
			{
				"type": "occ",
				"energy": -0.31847,
				"method": "rhf"
			},
			{
				"type": "occ",
				"energy": -0.26866,
				"method": "rhf"
			},
			{
				"type": "occ",
				"energy": -0.25637,
				"method": "rhf"
			},
			{
				"type": "occ",
				"energy": -0.24657,
				"method": "rhf"
			},
			{
				"type": "occ",
				"energy": -0.207,
				"method": "rhf"
			},
			{
				"type": "unocc",
				"energy": -0.01959,
				"method": "rhf"
			},
			{
				"type": "unocc",
				"energy": -0.00799,
				"method": "rhf"
			},
			{
				"type": "unocc",
				"energy": 0.02419,
				"method": "rhf"
			},
			{
				"type": "unocc",
				"energy": 0.03657,
				"method": "rhf"
			},
			{
				"type": "unocc",
				"energy": 0.06791,
				"method": "rhf"
			}
		],
		"cosmo_sigma_profile": { 
			"-0.025": 0.0,
			"-0.024": 0.0,
			"-0.023": 0.0,
			"-0.022": 0.0,
			"-0.021": 0.0,
			"-0.02": 0.0,
			"-0.019": 0.0,
			"-0.018": 0.0,
			"-0.017": 0.0,
			"-0.016": 0.0,
			"-0.015": 0.0,
			"-0.014": 0.0,
			"-0.013": 1.50794225197,
			"-0.012": 3.83758222252,
			"-0.011": 3.35982649509,
			"-0.01": 4.26512222063,
			"-0.009": 4.80075710272,
			"-0.008": 4.97405809276,
			"-0.007": 8.02591320125,
			"-0.006": 8.61748757161,
			"-0.005": 10.8013172341,
			"-0.004": 10.6292839079,
			"-0.003": 11.9478485501,
			"-0.002": 15.1757338994,
			"-0.001": 15.2172487549,
			"0.0": 10.9562735616,
			"0.001": 13.1660939637,
			"0.002": 16.7228194949,
			"0.003": 16.346760843,
			"0.004": 19.5044241208,
			"0.005": 9.54502032799,
			"0.006": 1.97056659747,
			"0.007": 2.13323436281,
			"0.008": 1.64315406149,
			"0.009": 2.39118709189,
			"0.01": 2.60484381602,
			"0.011": 1.43196113213,
			"0.012": 2.77176938675,
			"0.013": 5.30859811682,
			"0.014": 5.01534485773,
			"0.015": 0.844381748029,
			"0.016": 0.0,
			"0.017": 0.0,
			"0.018": 0.0,
			"0.019": 0.0,
			"0.02": 0.0,
			"0.021": 0.0,
			"0.022": 0.0,
			"0.023": 0.0,
			"0.024": 0.0,
			"0.025": 0.0
		}
	}
}
