{
	 "smiles": "NS(=O)(=O)C1=CC=C(SCCO)C=C1", 
	 "Tm": 385.15, 
	 "num_atms": 25, 
	 "gaussian": { 
		 "optdone": 1, 
		 "sigma_profile": "yes", 
		 "theory": "DFT", 
		 "functional": "B3LYP", 
		 "basiset": "6-31G**", 
		 "properties": { 
			 "R2extent": 5411.7028, 
			 "electric_dipole_moment_norm": 7.82904529684, 
			 "electric_quadrupole_moment_norm": 22.5847524908, 
			 "total_energy": -1388.19565305, 
			 "HOMO_LUMO_gap": 0.18707, 
			 "cosmo_polarized_energy": -23.34, 
			 "cosmo_cavitation_energy": 31.61, 
			 "cosmo_dispersion_energy": -24.14, 
			 "cosmo_repulsion_energy": 1.84, 
			 "cosmo_total_nonelectrostatic_energy": 9.31, 
			 "SMD_solvation_energy": 4.82 
		},
		"coords": [
			{
				"x": 3.1890347766,
				"y": -0.5771914799,
				"z": -0.8208419903,
				"element": "N" 
			},
			{
				"x": 2.7857234699,
				"y": 0.7387072618,
				"z": 0.1513911705,
				"element": "S" 
			},
			{
				"x": 3.1545900733,
				"y": 1.9224232122,
				"z": -0.6236526041,
				"element": "O" 
			},
			{
				"x": 3.3502877519,
				"y": 0.4382039474,
				"z": 1.466318372,
				"element": "O" 
			},
			{
				"x": 0.9982768746,
				"y": 0.7350531644,
				"z": 0.3165545405,
				"element": "C" 
			},
			{
				"x": 0.2168867967,
				"y": 1.427663715,
				"z": -0.6108839952,
				"element": "C" 
			},
			{
				"x": -1.1729541595,
				"y": 1.3959863503,
				"z": -0.5089281435,
				"element": "C" 
			},
			{
				"x": -1.7814953962,
				"y": 0.6950612565,
				"z": 0.5436793391,
				"element": "C" 
			},
			{
				"x": -3.5485363098,
				"y": 0.5621222995,
				"z": 0.7576740488,
				"element": "S" 
			},
			{
				"x": -4.2216038726,
				"y": 2.1802805555,
				"z": 0.1885231025,
				"element": "C" 
			},
			{
				"x": -4.8337980754,
				"y": 2.1777748385,
				"z": -1.2055638189,
				"element": "C" 
			},
			{
				"x": -3.7995766591,
				"y": 2.0678554593,
				"z": -2.1712558767,
				"element": "O" 
			},
			{
				"x": -0.9830968397,
				"y": 0.0167047906,
				"z": 1.4803648618,
				"element": "C" 
			},
			{
				"x": 0.4037024767,
				"y": 0.0273098716,
				"z": 1.3645169823,
				"element": "C" 
			},
			{
				"x": 2.954372178,
				"y": -1.4658915231,
				"z": -0.3894754616,
				"element": "H" 
			},
			{
				"x": 2.8241263584,
				"y": -0.4898691689,
				"z": -1.7643110625,
				"element": "H" 
			},
			{
				"x": 0.6966927421,
				"y": 1.9922233726,
				"z": -1.4037550567,
				"element": "H" 
			},
			{
				"x": -1.7846890185,
				"y": 1.8971903106,
				"z": -1.2503305844,
				"element": "H" 
			},
			{
				"x": -3.4325213062,
				"y": 2.932851815,
				"z": 0.2641193492,
				"element": "H" 
			},
			{
				"x": -4.9972898874,
				"y": 2.4373746765,
				"z": 0.9162114031,
				"element": "H" 
			},
			{
				"x": -5.553355966,
				"y": 1.3509716845,
				"z": -1.2889616032,
				"element": "H" 
			},
			{
				"x": -5.3912797125,
				"y": 3.1209786779,
				"z": -1.3326175531,
				"element": "H" 
			},
			{
				"x": -4.1914481576,
				"y": 1.8506671399,
				"z": -3.025164188,
				"element": "H" 
			},
			{
				"x": -1.4509100635,
				"y": -0.5004257367,
				"z": 2.3124015574,
				"element": "H" 
			},
			{
				"x": 1.0250619258,
				"y": -0.4716264911,
				"z": 2.1007872114,
				"element": "H" 
			}
		],
		 "valence_orbital": [ 
			{
				"type": "occ",
				"energy": -0.29694,
				"method": "rhf"
			},
			{
				"type": "occ",
				"energy": -0.29266,
				"method": "rhf"
			},
			{
				"type": "occ",
				"energy": -0.28293,
				"method": "rhf"
			},
			{
				"type": "occ",
				"energy": -0.26941,
				"method": "rhf"
			},
			{
				"type": "occ",
				"energy": -0.22583,
				"method": "rhf"
			},
			{
				"type": "unocc",
				"energy": -0.03876,
				"method": "rhf"
			},
			{
				"type": "unocc",
				"energy": -0.02143,
				"method": "rhf"
			},
			{
				"type": "unocc",
				"energy": 0.0293,
				"method": "rhf"
			},
			{
				"type": "unocc",
				"energy": 0.0522,
				"method": "rhf"
			},
			{
				"type": "unocc",
				"energy": 0.05695,
				"method": "rhf"
			}
		],
		"cosmo_sigma_profile": { 
			"-0.025": 0.0,
			"-0.024": 0.0,
			"-0.023": 0.0,
			"-0.022": 0.0,
			"-0.021": 0.0,
			"-0.02": 0.0,
			"-0.019": 0.0,
			"-0.018": 0.0,
			"-0.017": 0.0536555481196,
			"-0.016": 1.10730282318,
			"-0.015": 3.40259098349,
			"-0.014": 3.31410018621,
			"-0.013": 3.55171976361,
			"-0.012": 4.2103420615,
			"-0.011": 3.58657558839,
			"-0.01": 2.40334604982,
			"-0.009": 2.73424944955,
			"-0.008": 3.20350865326,
			"-0.007": 8.46446718327,
			"-0.006": 13.8380590918,
			"-0.005": 16.0520108981,
			"-0.004": 18.4373560657,
			"-0.003": 15.8666987531,
			"-0.002": 11.0165621814,
			"-0.001": 11.0220297331,
			"0.0": 9.88296703926,
			"0.001": 11.1430242056,
			"0.002": 16.0065351519,
			"0.003": 17.1279583272,
			"0.004": 8.34820953425,
			"0.005": 9.42204140302,
			"0.006": 8.45785394801,
			"0.007": 7.64707529397,
			"0.008": 9.38371850886,
			"0.009": 6.98677407228,
			"0.01": 7.39527999533,
			"0.011": 11.3820688877,
			"0.012": 6.67310670879,
			"0.013": 0.309465724042,
			"0.014": 0.0,
			"0.015": 0.0,
			"0.016": 0.0,
			"0.017": 0.0,
			"0.018": 0.0,
			"0.019": 0.0,
			"0.02": 0.0,
			"0.021": 0.0,
			"0.022": 0.0,
			"0.023": 0.0,
			"0.024": 0.0,
			"0.025": 0.0
		}
	}
}
