{
	 "smiles": "ClS(=O)(=O)C1=CC2=C(C=C1)N=CS2", 
	 "Tm": 391.15, 
	 "num_atms": 17, 
	 "gaussian": { 
		 "optdone": 1, 
		 "sigma_profile": "yes", 
		 "theory": "DFT", 
		 "functional": "B3LYP", 
		 "basiset": "6-31G**", 
		 "properties": { 
			 "R2extent": 4264.2064, 
			 "electric_dipole_moment_norm": 5.00960263294, 
			 "electric_quadrupole_moment_norm": 13.7749366724, 
			 "total_energy": -1730.85200391, 
			 "HOMO_LUMO_gap": 0.17491, 
			 "cosmo_polarized_energy": -10.77, 
			 "cosmo_cavitation_energy": 27.0, 
			 "cosmo_dispersion_energy": -21.06, 
			 "cosmo_repulsion_energy": 1.55, 
			 "cosmo_total_nonelectrostatic_energy": 7.49, 
			 "SMD_solvation_energy": 1.49 
		},
		"coords": [
			{
				"x": -1.3853105465,
				"y": 3.9321910844,
				"z": 1.6315282801,
				"element": "Cl" 
			},
			{
				"x": -2.4145997266,
				"y": 2.1947145406,
				"z": 0.9406179114,
				"element": "S" 
			},
			{
				"x": -3.18363779,
				"y": 1.7036654932,
				"z": 2.0767153845,
				"element": "O" 
			},
			{
				"x": -3.0385815768,
				"y": 2.5694987434,
				"z": -0.3223421207,
				"element": "O" 
			},
			{
				"x": -1.0544422019,
				"y": 1.0829362785,
				"z": 0.6210656991,
				"element": "C" 
			},
			{
				"x": -0.5386729163,
				"y": 1.0395085594,
				"z": -0.671129904,
				"element": "C" 
			},
			{
				"x": 0.5144478222,
				"y": 0.1525460642,
				"z": -0.8911659489,
				"element": "C" 
			},
			{
				"x": 1.0311492357,
				"y": -0.6597133226,
				"z": 0.1523848099,
				"element": "C" 
			},
			{
				"x": 0.4784297619,
				"y": -0.5838344753,
				"z": 1.4412180603,
				"element": "C" 
			},
			{
				"x": -0.569569314,
				"y": 0.2921301326,
				"z": 1.6776576514,
				"element": "C" 
			},
			{
				"x": 2.0752095487,
				"y": -1.4934074923,
				"z": -0.2106696468,
				"element": "N" 
			},
			{
				"x": 2.3571576352,
				"y": -1.3427872375,
				"z": -1.4631251236,
				"element": "C" 
			},
			{
				"x": 1.3950500391,
				"y": -0.1723960706,
				"z": -2.367726033,
				"element": "S" 
			},
			{
				"x": -0.9533345511,
				"y": 1.6631304458,
				"z": -1.4544887307,
				"element": "H" 
			},
			{
				"x": 0.8768728538,
				"y": -1.2144067036,
				"z": 2.2282175866,
				"element": "H" 
			},
			{
				"x": -1.0254498782,
				"y": 0.3672329551,
				"z": 2.6580126799,
				"element": "H" 
			},
			{
				"x": 3.1419816049,
				"y": -1.8902089955,
				"z": -1.9736705553,
				"element": "H" 
			}
		],
		 "valence_orbital": [ 
			{
				"type": "occ",
				"energy": -0.33269,
				"method": "rhf"
			},
			{
				"type": "occ",
				"energy": -0.3156,
				"method": "rhf"
			},
			{
				"type": "occ",
				"energy": -0.3065,
				"method": "rhf"
			},
			{
				"type": "occ",
				"energy": -0.28085,
				"method": "rhf"
			},
			{
				"type": "occ",
				"energy": -0.27153,
				"method": "rhf"
			},
			{
				"type": "unocc",
				"energy": -0.09662,
				"method": "rhf"
			},
			{
				"type": "unocc",
				"energy": -0.06472,
				"method": "rhf"
			},
			{
				"type": "unocc",
				"energy": -0.04349,
				"method": "rhf"
			},
			{
				"type": "unocc",
				"energy": -0.01831,
				"method": "rhf"
			},
			{
				"type": "unocc",
				"energy": -0.00982,
				"method": "rhf"
			}
		],
		"cosmo_sigma_profile": { 
			"-0.025": 0.0,
			"-0.024": 0.0,
			"-0.023": 0.0,
			"-0.022": 0.0,
			"-0.021": 0.0,
			"-0.02": 0.0,
			"-0.019": 0.0,
			"-0.018": 0.0,
			"-0.017": 0.0,
			"-0.016": 0.0,
			"-0.015": 0.0,
			"-0.014": 0.0,
			"-0.013": 0.0,
			"-0.012": 0.0902852155352,
			"-0.011": 2.52106157715,
			"-0.01": 3.92108325518,
			"-0.009": 4.21671051108,
			"-0.008": 6.54680233839,
			"-0.007": 7.61501512568,
			"-0.006": 8.13112569269,
			"-0.005": 7.47987928794,
			"-0.004": 8.18228013373,
			"-0.003": 11.5712609317,
			"-0.002": 16.9531165368,
			"-0.001": 23.2160450057,
			"0.0": 26.7169640643,
			"0.001": 18.4031808498,
			"0.002": 14.8520802209,
			"0.003": 17.2299606418,
			"0.004": 10.1031737346,
			"0.005": 4.4198420739,
			"0.006": 4.34993771001,
			"0.007": 7.441282897,
			"0.008": 10.1413137139,
			"0.009": 5.49307009581,
			"0.01": 0.833172875586,
			"0.011": 0.871620322717,
			"0.012": 1.10831706886,
			"0.013": 0.766854212559,
			"0.014": 0.496813491981,
			"0.015": 0.0,
			"0.016": 0.0,
			"0.017": 0.0,
			"0.018": 0.0,
			"0.019": 0.0,
			"0.02": 0.0,
			"0.021": 0.0,
			"0.022": 0.0,
			"0.023": 0.0,
			"0.024": 0.0,
			"0.025": 0.0
		}
	}
}
