{
	 "smiles": "SC1=NN=C(CN2CCCC2)N1C1=CC=C(Cl)C=C1", 
	 "Tm": 534.15, 
	 "num_atms": 34, 
	 "gaussian": { 
		 "optdone": 1, 
		 "sigma_profile": "yes", 
		 "theory": "DFT", 
		 "functional": "B3LYP", 
		 "basiset": "6-31G**", 
		 "properties": { 
			 "R2extent": 7583.956, 
			 "electric_dipole_moment_norm": 2.9465628315, 
			 "electric_quadrupole_moment_norm": 15.775364399, 
			 "total_energy": -1581.77580903, 
			 "HOMO_LUMO_gap": 0.18924, 
			 "cosmo_polarized_energy": -14.01, 
			 "cosmo_cavitation_energy": 39.92, 
			 "cosmo_dispersion_energy": -28.13, 
			 "cosmo_repulsion_energy": 2.14, 
			 "cosmo_total_nonelectrostatic_energy": 13.93, 
			 "SMD_solvation_energy": 3.21 
		},
		"coords": [
			{
				"x": -3.6077972122,
				"y": 2.3230434682,
				"z": 0.0130517837,
				"element": "S" 
			},
			{
				"x": -2.549808055,
				"y": 1.0766472685,
				"z": 0.6878573203,
				"element": "C" 
			},
			{
				"x": -2.9471283674,
				"y": 0.0505106348,
				"z": 1.4005099697,
				"element": "N" 
			},
			{
				"x": -1.8227392088,
				"y": -0.6966647923,
				"z": 1.6937272102,
				"element": "N" 
			},
			{
				"x": -0.7852360654,
				"y": -0.111340625,
				"z": 1.1497224489,
				"element": "C" 
			},
			{
				"x": 0.6205880858,
				"y": -0.6220210217,
				"z": 1.2219465572,
				"element": "C" 
			},
			{
				"x": 1.0042185152,
				"y": -1.3875330603,
				"z": 0.0352811017,
				"element": "N" 
			},
			{
				"x": 2.430567128,
				"y": -1.7341079306,
				"z": 0.0079802548,
				"element": "C" 
			},
			{
				"x": 2.5351012596,
				"y": -2.7751040825,
				"z": -1.1239840529,
				"element": "C" 
			},
			{
				"x": 1.1024173072,
				"y": -3.3752176942,
				"z": -1.2308862479,
				"element": "C" 
			},
			{
				"x": 0.3105839249,
				"y": -2.6755519408,
				"z": -0.1130500307,
				"element": "C" 
			},
			{
				"x": -1.185782983,
				"y": 1.0444043118,
				"z": 0.4874630461,
				"element": "N" 
			},
			{
				"x": -0.3794974225,
				"y": 1.9970586885,
				"z": -0.2084546203,
				"element": "C" 
			},
			{
				"x": 0.4760906061,
				"y": 1.5726672956,
				"z": -1.230685918,
				"element": "C" 
			},
			{
				"x": 1.2591120937,
				"y": 2.505496648,
				"z": -1.9081834161,
				"element": "C" 
			},
			{
				"x": 1.1686745224,
				"y": 3.8558214179,
				"z": -1.5690375353,
				"element": "C" 
			},
			{
				"x": 2.1455459948,
				"y": 5.0304192353,
				"z": -2.4323510722,
				"element": "Cl" 
			},
			{
				"x": 0.3196103688,
				"y": 4.2871368023,
				"z": -0.5500746656,
				"element": "C" 
			},
			{
				"x": -0.4493351117,
				"y": 3.3508373089,
				"z": 0.1387048972,
				"element": "C" 
			},
			{
				"x": -4.7128361426,
				"y": 1.6942501995,
				"z": 0.4575069469,
				"element": "H" 
			},
			{
				"x": 1.3139070243,
				"y": 0.2210105412,
				"z": 1.3209308673,
				"element": "H" 
			},
			{
				"x": 0.6942197268,
				"y": -1.2250316545,
				"z": 2.1436472141,
				"element": "H" 
			},
			{
				"x": 3.0405042922,
				"y": -0.8399074374,
				"z": -0.1615265716,
				"element": "H" 
			},
			{
				"x": 2.7526186283,
				"y": -2.1798532816,
				"z": 0.968868206,
				"element": "H" 
			},
			{
				"x": 3.2912226456,
				"y": -3.5315158514,
				"z": -0.8971579905,
				"element": "H" 
			},
			{
				"x": 2.825069522,
				"y": -2.2977472439,
				"z": -2.0641979576,
				"element": "H" 
			},
			{
				"x": 1.090379351,
				"y": -4.4616527327,
				"z": -1.1102181445,
				"element": "H" 
			},
			{
				"x": 0.6651855024,
				"y": -3.1501937195,
				"z": -2.2077474868,
				"element": "H" 
			},
			{
				"x": -0.7465037221,
				"y": -2.5273400274,
				"z": -0.3457764961,
				"element": "H" 
			},
			{
				"x": 0.3617036004,
				"y": -3.261145304,
				"z": 0.824248485,
				"element": "H" 
			},
			{
				"x": 0.5435159017,
				"y": 0.5136318154,
				"z": -1.4604700553,
				"element": "H" 
			},
			{
				"x": 1.9281582936,
				"y": 2.1882252461,
				"z": -2.7001843352,
				"element": "H" 
			},
			{
				"x": 0.2685675065,
				"y": 5.3383878193,
				"z": -0.2906185241,
				"element": "H" 
			},
			{
				"x": -1.0967975107,
				"y": 3.6718796987,
				"z": 0.9476588117,
				"element": "H" 
			}
		],
		 "valence_orbital": [ 
			{
				"type": "occ",
				"energy": -0.28152,
				"method": "rhf"
			},
			{
				"type": "occ",
				"energy": -0.26549,
				"method": "rhf"
			},
			{
				"type": "occ",
				"energy": -0.24896,
				"method": "rhf"
			},
			{
				"type": "occ",
				"energy": -0.23285,
				"method": "rhf"
			},
			{
				"type": "occ",
				"energy": -0.22838,
				"method": "rhf"
			},
			{
				"type": "unocc",
				"energy": -0.03914,
				"method": "rhf"
			},
			{
				"type": "unocc",
				"energy": -0.0344,
				"method": "rhf"
			},
			{
				"type": "unocc",
				"energy": 0.01156,
				"method": "rhf"
			},
			{
				"type": "unocc",
				"energy": 0.01677,
				"method": "rhf"
			},
			{
				"type": "unocc",
				"energy": 0.01826,
				"method": "rhf"
			}
		],
		"cosmo_sigma_profile": { 
			"-0.025": 0.0,
			"-0.024": 0.0,
			"-0.023": 0.0,
			"-0.022": 0.0,
			"-0.021": 0.0,
			"-0.02": 0.0,
			"-0.019": 0.0,
			"-0.018": 0.0,
			"-0.017": 0.0,
			"-0.016": 0.0,
			"-0.015": 0.0,
			"-0.014": 0.0,
			"-0.013": 0.0845872356167,
			"-0.012": 1.36128710759,
			"-0.011": 1.23139428262,
			"-0.01": 1.31932404634,
			"-0.009": 1.44635511102,
			"-0.008": 4.26665746776,
			"-0.007": 7.51734603915,
			"-0.006": 10.1841911612,
			"-0.005": 9.70878994772,
			"-0.004": 16.3592518704,
			"-0.003": 28.944481616,
			"-0.002": 41.532728732,
			"-0.001": 39.9075643551,
			"0.0": 33.6617072403,
			"0.001": 33.7166028345,
			"0.002": 24.204867845,
			"0.003": 14.0384009904,
			"0.004": 16.0175808515,
			"0.005": 7.76889693722,
			"0.006": 3.7692369077,
			"0.007": 3.71789801301,
			"0.008": 1.51762860099,
			"0.009": 1.82925952899,
			"0.01": 1.78824987743,
			"0.011": 1.98988564397,
			"0.012": 3.12485951406,
			"0.013": 2.86302934913,
			"0.014": 3.06974632617,
			"0.015": 2.32930900359,
			"0.016": 1.54780889151,
			"0.017": 0.304261662848,
			"0.018": 0.0,
			"0.019": 0.0,
			"0.02": 0.0,
			"0.021": 0.0,
			"0.022": 0.0,
			"0.023": 0.0,
			"0.024": 0.0,
			"0.025": 0.0
		}
	}
}
