{
	 "smiles": "COC1=CC2=C(CCCCN2)C=C1", 
	 "Tm": 320.15, 
	 "num_atms": 28, 
	 "gaussian": { 
		 "optdone": 1, 
		 "sigma_profile": "yes", 
		 "theory": "DFT", 
		 "functional": "B3LYP", 
		 "basiset": "6-31G**", 
		 "properties": { 
			 "R2extent": 3209.0411, 
			 "electric_dipole_moment_norm": 0.752315279653, 
			 "electric_quadrupole_moment_norm": 7.94245281132, 
			 "total_energy": -558.18376461, 
			 "HOMO_LUMO_gap": 0.2076, 
			 "cosmo_polarized_energy": -7.71, 
			 "cosmo_cavitation_energy": 28.93, 
			 "cosmo_dispersion_energy": -21.78, 
			 "cosmo_repulsion_energy": 1.71, 
			 "cosmo_total_nonelectrostatic_energy": 8.87, 
			 "SMD_solvation_energy": 3.84 
		},
		"coords": [
			{
				"x": 3.9791311863,
				"y": 1.9427810641,
				"z": -1.118876648,
				"element": "C" 
			},
			{
				"x": 3.3943884406,
				"y": 1.281593957,
				"z": -0.0103469892,
				"element": "O" 
			},
			{
				"x": 2.192527502,
				"y": 0.6550861448,
				"z": -0.198323576,
				"element": "C" 
			},
			{
				"x": 1.6747150642,
				"y": -0.0033125898,
				"z": 0.9222914614,
				"element": "C" 
			},
			{
				"x": 0.4508010513,
				"y": -0.6777778903,
				"z": 0.8689134543,
				"element": "C" 
			},
			{
				"x": -0.2896272889,
				"y": -0.6959531694,
				"z": -0.3391805189,
				"element": "C" 
			},
			{
				"x": -1.6787455404,
				"y": -1.2908118391,
				"z": -0.4241457668,
				"element": "C" 
			},
			{
				"x": -1.8040377071,
				"y": -2.7913601586,
				"z": -0.0969834106,
				"element": "C" 
			},
			{
				"x": -1.6770848748,
				"y": -3.1095296282,
				"z": 1.3961406166,
				"element": "C" 
			},
			{
				"x": -0.3248504435,
				"y": -2.7416628366,
				"z": 2.0105882957,
				"element": "C" 
			},
			{
				"x": -0.0524833907,
				"y": -1.2945888487,
				"z": 2.0345898275,
				"element": "N" 
			},
			{
				"x": 0.2676589953,
				"y": -0.0564226373,
				"z": -1.4472188524,
				"element": "C" 
			},
			{
				"x": 1.4918375802,
				"y": 0.6177616221,
				"z": -1.4064828665,
				"element": "C" 
			},
			{
				"x": 4.9184757776,
				"y": 2.3660258387,
				"z": -0.7585522517,
				"element": "H" 
			},
			{
				"x": 3.3397936543,
				"y": 2.7532106535,
				"z": -1.4930241154,
				"element": "H" 
			},
			{
				"x": 4.1900726165,
				"y": 1.2477335556,
				"z": -1.9423379856,
				"element": "H" 
			},
			{
				"x": 2.2563944834,
				"y": 0.0130283223,
				"z": 1.8400639864,
				"element": "H" 
			},
			{
				"x": -2.3450686634,
				"y": -0.7384967226,
				"z": 0.2551684788,
				"element": "H" 
			},
			{
				"x": -2.0599536373,
				"y": -1.1176603163,
				"z": -1.4367528394,
				"element": "H" 
			},
			{
				"x": -2.7833921853,
				"y": -3.1428377049,
				"z": -0.4453964238,
				"element": "H" 
			},
			{
				"x": -1.0503892196,
				"y": -3.3534975586,
				"z": -0.664773227,
				"element": "H" 
			},
			{
				"x": -2.4647946617,
				"y": -2.5825744805,
				"z": 1.9500745187,
				"element": "H" 
			},
			{
				"x": -1.8381894187,
				"y": -4.1839978531,
				"z": 1.5539991796,
				"element": "H" 
			},
			{
				"x": -0.3132053703,
				"y": -3.0778213399,
				"z": 3.0531778576,
				"element": "H" 
			},
			{
				"x": 0.4765127089,
				"y": -3.2897716155,
				"z": 1.4867506151,
				"element": "H" 
			},
			{
				"x": 0.5382788701,
				"y": -1.0684221558,
				"z": 2.8259683328,
				"element": "H" 
			},
			{
				"x": -0.2888623043,
				"y": -0.0618595529,
				"z": -2.3816557533,
				"element": "H" 
			},
			{
				"x": 1.8678967753,
				"y": 1.1052377399,
				"z": -2.2974753999,
				"element": "H" 
			}
		],
		 "valence_orbital": [ 
			{
				"type": "occ",
				"energy": -0.31588,
				"method": "rhf"
			},
			{
				"type": "occ",
				"energy": -0.30013,
				"method": "rhf"
			},
			{
				"type": "occ",
				"energy": -0.26879,
				"method": "rhf"
			},
			{
				"type": "occ",
				"energy": -0.21078,
				"method": "rhf"
			},
			{
				"type": "occ",
				"energy": -0.19473,
				"method": "rhf"
			},
			{
				"type": "unocc",
				"energy": 0.01287,
				"method": "rhf"
			},
			{
				"type": "unocc",
				"energy": 0.02556,
				"method": "rhf"
			},
			{
				"type": "unocc",
				"energy": 0.0827,
				"method": "rhf"
			},
			{
				"type": "unocc",
				"energy": 0.10331,
				"method": "rhf"
			},
			{
				"type": "unocc",
				"energy": 0.11146,
				"method": "rhf"
			}
		],
		"cosmo_sigma_profile": { 
			"-0.025": 0.0,
			"-0.024": 0.0,
			"-0.023": 0.0,
			"-0.022": 0.0,
			"-0.021": 0.0,
			"-0.02": 0.0,
			"-0.019": 0.0,
			"-0.018": 0.0,
			"-0.017": 0.0,
			"-0.016": 0.0,
			"-0.015": 0.0,
			"-0.014": 0.0,
			"-0.013": 0.0,
			"-0.012": 0.240065478982,
			"-0.011": 1.17143727635,
			"-0.01": 1.61369024371,
			"-0.009": 1.31906058507,
			"-0.008": 1.44304596543,
			"-0.007": 1.54160701263,
			"-0.006": 4.02180654903,
			"-0.005": 12.8837182553,
			"-0.004": 17.9826920744,
			"-0.003": 21.6197438374,
			"-0.002": 27.6631189109,
			"-0.001": 29.1415536976,
			"0.0": 23.8387345409,
			"0.001": 16.4193833326,
			"0.002": 8.41912476844,
			"0.003": 7.89620135198,
			"0.004": 8.55554862371,
			"0.005": 9.87847524955,
			"0.006": 11.8758003825,
			"0.007": 7.92010981509,
			"0.008": 2.89766257978,
			"0.009": 2.35417238477,
			"0.01": 1.88228845341,
			"0.011": 1.83536348019,
			"0.012": 0.812776967267,
			"0.013": 0.39741305058,
			"0.014": 0.378032825942,
			"0.015": 0.127135018377,
			"0.016": 0.0,
			"0.017": 0.0,
			"0.018": 0.0,
			"0.019": 0.0,
			"0.02": 0.0,
			"0.021": 0.0,
			"0.022": 0.0,
			"0.023": 0.0,
			"0.024": 0.0,
			"0.025": 0.0
		}
	}
}
