{
	 "smiles": "CC1=C(C(=O)N(CO1)C(C)(C)C1=CC(Cl)=CC(Cl)=C1)C1=CC=CC=C1", 
	 "Tm": 423.15, 
	 "num_atms": 44, 
	 "gaussian": { 
		 "optdone": 1, 
		 "sigma_profile": "yes", 
		 "theory": "DFT", 
		 "functional": "B3LYP", 
		 "basiset": "6-31G**", 
		 "properties": { 
			 "R2extent": 13863.822, 
			 "electric_dipole_moment_norm": 1.88893449595, 
			 "electric_quadrupole_moment_norm": 11.3340475855, 
			 "total_energy": -1899.1662288, 
			 "HOMO_LUMO_gap": 0.18522, 
			 "cosmo_polarized_energy": -12.66, 
			 "cosmo_cavitation_energy": 49.24, 
			 "cosmo_dispersion_energy": -33.56, 
			 "cosmo_repulsion_energy": 2.56, 
			 "cosmo_total_nonelectrostatic_energy": 18.24, 
			 "SMD_solvation_energy": 8.31 
		},
		"coords": [
			{
				"x": -3.0153831689,
				"y": -2.9029074355,
				"z": -0.7153715378,
				"element": "C" 
			},
			{
				"x": -1.786024949,
				"y": -2.1919678802,
				"z": -0.2421960935,
				"element": "C" 
			},
			{
				"x": -0.70242852,
				"y": -1.8123926099,
				"z": -0.9787718637,
				"element": "C" 
			},
			{
				"x": 0.2281442497,
				"y": -0.7822407519,
				"z": -0.4230759322,
				"element": "C" 
			},
			{
				"x": 1.0757487465,
				"y": -0.2202145805,
				"z": -1.1106799059,
				"element": "O" 
			},
			{
				"x": -0.0154720284,
				"y": -0.4594705191,
				"z": 0.9149209637,
				"element": "N" 
			},
			{
				"x": -0.6144337029,
				"y": -1.5534411902,
				"z": 1.6501494141,
				"element": "C" 
			},
			{
				"x": -1.8774001174,
				"y": -1.8896434354,
				"z": 1.0822632137,
				"element": "O" 
			},
			{
				"x": 0.7552104397,
				"y": 0.5993338709,
				"z": 1.6401171293,
				"element": "C" 
			},
			{
				"x": 2.1683714125,
				"y": 0.0694373186,
				"z": 1.9520241971,
				"element": "C" 
			},
			{
				"x": 0.8703394717,
				"y": 1.8878750087,
				"z": 0.7871801323,
				"element": "C" 
			},
			{
				"x": -0.0419421764,
				"y": 0.9938464884,
				"z": 2.9005199686,
				"element": "C" 
			},
			{
				"x": 0.5612839145,
				"y": 1.0874054291,
				"z": 4.1585222233,
				"element": "C" 
			},
			{
				"x": -0.1834493056,
				"y": 1.527524266,
				"z": 5.254907705,
				"element": "C" 
			},
			{
				"x": 0.5954573799,
				"y": 1.6388790226,
				"z": 6.8251162087,
				"element": "Cl" 
			},
			{
				"x": -1.5252329096,
				"y": 1.8762434617,
				"z": 5.1431129661,
				"element": "C" 
			},
			{
				"x": -2.1137279557,
				"y": 1.7699291182,
				"z": 3.8818663475,
				"element": "C" 
			},
			{
				"x": -3.8082792187,
				"y": 2.1935241216,
				"z": 3.7026561089,
				"element": "Cl" 
			},
			{
				"x": -1.3970168842,
				"y": 1.3401956839,
				"z": 2.7705645726,
				"element": "C" 
			},
			{
				"x": -0.4981752602,
				"y": -2.2750263062,
				"z": -2.3769889853,
				"element": "C" 
			},
			{
				"x": -0.5167347569,
				"y": -3.6489300113,
				"z": -2.6709146724,
				"element": "C" 
			},
			{
				"x": -0.3485139534,
				"y": -4.1090592613,
				"z": -3.9773229263,
				"element": "C" 
			},
			{
				"x": -0.1444319176,
				"y": -3.2005803808,
				"z": -5.0161804983,
				"element": "C" 
			},
			{
				"x": -0.1086945062,
				"y": -1.8324337636,
				"z": -4.736359268,
				"element": "C" 
			},
			{
				"x": -0.2817287091,
				"y": -1.3719013024,
				"z": -3.4323183481,
				"element": "C" 
			},
			{
				"x": -3.0502788184,
				"y": -2.9682534574,
				"z": -1.8016858957,
				"element": "H" 
			},
			{
				"x": -3.0704934526,
				"y": -3.9131778638,
				"z": -0.294277977,
				"element": "H" 
			},
			{
				"x": -3.8940280129,
				"y": -2.3585883214,
				"z": -0.3518536158,
				"element": "H" 
			},
			{
				"x": 0.0116007491,
				"y": -2.4593804682,
				"z": 1.6131759825,
				"element": "H" 
			},
			{
				"x": -0.7990088471,
				"y": -1.270111997,
				"z": 2.6829294126,
				"element": "H" 
			},
			{
				"x": 2.6372189964,
				"y": -0.2323606973,
				"z": 1.0133260642,
				"element": "H" 
			},
			{
				"x": 2.79519001,
				"y": 0.8413394512,
				"z": 2.4082927079,
				"element": "H" 
			},
			{
				"x": 2.1422032347,
				"y": -0.7950114539,
				"z": 2.6238869505,
				"element": "H" 
			},
			{
				"x": 1.287559035,
				"y": 2.6821950382,
				"z": 1.4132122975,
				"element": "H" 
			},
			{
				"x": 1.5086954625,
				"y": 1.7288527578,
				"z": -0.0785950001,
				"element": "H" 
			},
			{
				"x": -0.1134638456,
				"y": 2.2135577434,
				"z": 0.4392859095,
				"element": "H" 
			},
			{
				"x": 1.6014454757,
				"y": 0.8273522708,
				"z": 4.3034223327,
				"element": "H" 
			},
			{
				"x": -2.0927850175,
				"y": 2.2134953256,
				"z": 6.0011507738,
				"element": "H" 
			},
			{
				"x": -1.8914866275,
				"y": 1.2531385378,
				"z": 1.8103038484,
				"element": "H" 
			},
			{
				"x": -0.6496212656,
				"y": -4.3619496394,
				"z": -1.8618645855,
				"element": "H" 
			},
			{
				"x": -0.366389388,
				"y": -5.1764516315,
				"z": -4.1792715096,
				"element": "H" 
			},
			{
				"x": -0.007719672,
				"y": -3.554799819,
				"z": -6.0339941254,
				"element": "H" 
			},
			{
				"x": 0.0542608566,
				"y": -1.1181767186,
				"z": -5.5386645666,
				"element": "H" 
			},
			{
				"x": -0.2395844472,
				"y": -0.310453419,
				"z": -3.2213201235,
				"element": "H" 
			}
		],
		 "valence_orbital": [ 
			{
				"type": "occ",
				"energy": -0.25911,
				"method": "rhf"
			},
			{
				"type": "occ",
				"energy": -0.25628,
				"method": "rhf"
			},
			{
				"type": "occ",
				"energy": -0.25095,
				"method": "rhf"
			},
			{
				"type": "occ",
				"energy": -0.24172,
				"method": "rhf"
			},
			{
				"type": "occ",
				"energy": -0.22138,
				"method": "rhf"
			},
			{
				"type": "unocc",
				"energy": -0.03616,
				"method": "rhf"
			},
			{
				"type": "unocc",
				"energy": -0.03318,
				"method": "rhf"
			},
			{
				"type": "unocc",
				"energy": -0.02995,
				"method": "rhf"
			},
			{
				"type": "unocc",
				"energy": -0.00035,
				"method": "rhf"
			},
			{
				"type": "unocc",
				"energy": 0.00259,
				"method": "rhf"
			}
		],
		"cosmo_sigma_profile": { 
			"-0.025": 0.0,
			"-0.024": 0.0,
			"-0.023": 0.0,
			"-0.022": 0.0,
			"-0.021": 0.0,
			"-0.02": 0.0,
			"-0.019": 0.0,
			"-0.018": 0.0,
			"-0.017": 0.0,
			"-0.016": 0.0,
			"-0.015": 0.0,
			"-0.014": 0.0,
			"-0.013": 0.0,
			"-0.012": 0.0,
			"-0.011": 0.0,
			"-0.01": 0.0,
			"-0.009": 0.286916049906,
			"-0.008": 1.39523491247,
			"-0.007": 4.33751523285,
			"-0.006": 15.2021043839,
			"-0.005": 29.2022387864,
			"-0.004": 30.699454702,
			"-0.003": 33.6771186873,
			"-0.002": 33.2068180483,
			"-0.001": 37.75311013,
			"0.0": 42.7421347554,
			"0.001": 40.4265290958,
			"0.002": 28.9902499128,
			"0.003": 23.8533378113,
			"0.004": 29.6763350752,
			"0.005": 15.8168012458,
			"0.006": 9.85897697357,
			"0.007": 4.38770928239,
			"0.008": 2.77191860898,
			"0.009": 3.01909250727,
			"0.01": 1.61519556438,
			"0.011": 1.54087808111,
			"0.012": 2.21434412739,
			"0.013": 2.47106890664,
			"0.014": 0.709297068771,
			"0.015": 0.0,
			"0.016": 0.0,
			"0.017": 0.0,
			"0.018": 0.0,
			"0.019": 0.0,
			"0.02": 0.0,
			"0.021": 0.0,
			"0.022": 0.0,
			"0.023": 0.0,
			"0.024": 0.0,
			"0.025": 0.0
		}
	}
}
