{
	 "smiles": "CC1=NN(C=C1)C1=CC=CC=C1", 
	 "Tm": 310.15, 
	 "num_atms": 22, 
	 "gaussian": { 
		 "optdone": 1, 
		 "sigma_profile": "yes", 
		 "theory": "DFT", 
		 "functional": "B3LYP", 
		 "basiset": "6-31G**", 
		 "properties": { 
			 "R2extent": 2653.6351, 
			 "electric_dipole_moment_norm": 1.40686358258, 
			 "electric_quadrupole_moment_norm": 8.20668146573, 
			 "total_energy": -496.578897278, 
			 "HOMO_LUMO_gap": 0.19373, 
			 "cosmo_polarized_energy": -7.41, 
			 "cosmo_cavitation_energy": 25.71, 
			 "cosmo_dispersion_energy": -19.22, 
			 "cosmo_repulsion_energy": 1.51, 
			 "cosmo_total_nonelectrostatic_energy": 8.0, 
			 "SMD_solvation_energy": 4.16 
		},
		"coords": [
			{
				"x": 1.5188186621,
				"y": 1.9843575064,
				"z": -3.667997657,
				"element": "C" 
			},
			{
				"x": 0.5883476539,
				"y": 1.8923946281,
				"z": -2.4946905719,
				"element": "C" 
			},
			{
				"x": 0.9148823127,
				"y": 1.1772094254,
				"z": -1.4210121973,
				"element": "N" 
			},
			{
				"x": -0.1329252322,
				"y": 1.3067399837,
				"z": -0.5628576236,
				"element": "N" 
			},
			{
				"x": -1.1159771351,
				"y": 2.0982575053,
				"z": -1.0891836519,
				"element": "C" 
			},
			{
				"x": -0.6863578846,
				"y": 2.4949182457,
				"z": -2.3350508386,
				"element": "C" 
			},
			{
				"x": -0.0998982672,
				"y": 0.6549399698,
				"z": 0.6976945047,
				"element": "C" 
			},
			{
				"x": 1.0179188707,
				"y": -0.1165541146,
				"z": 1.040926884,
				"element": "C" 
			},
			{
				"x": 1.0591925317,
				"y": -0.7596897326,
				"z": 2.2756521646,
				"element": "C" 
			},
			{
				"x": -0.0008575105,
				"y": -0.6453037171,
				"z": 3.1774019222,
				"element": "C" 
			},
			{
				"x": -1.1110568992,
				"y": 0.1246510932,
				"z": 2.8290821794,
				"element": "C" 
			},
			{
				"x": -1.1673000833,
				"y": 0.7745440901,
				"z": 1.5968326471,
				"element": "C" 
			},
			{
				"x": 2.4814184359,
				"y": 2.4165297139,
				"z": -3.3758769588,
				"element": "H" 
			},
			{
				"x": 1.719819392,
				"y": 0.994854459,
				"z": -4.0913045609,
				"element": "H" 
			},
			{
				"x": 1.0887667686,
				"y": 2.6102489012,
				"z": -4.4539444026,
				"element": "H" 
			},
			{
				"x": -2.026972724,
				"y": 2.3180963132,
				"z": -0.5561352432,
				"element": "H" 
			},
			{
				"x": -1.2118389785,
				"y": 3.1283541937,
				"z": -3.0345301256,
				"element": "H" 
			},
			{
				"x": 1.8324740416,
				"y": -0.1967131558,
				"z": 0.332756519,
				"element": "H" 
			},
			{
				"x": 1.9304153814,
				"y": -1.3555294793,
				"z": 2.532358193,
				"element": "H" 
			},
			{
				"x": 0.0373436335,
				"y": -1.149049029,
				"z": 4.1383028056,
				"element": "H" 
			},
			{
				"x": -1.9446247991,
				"y": 0.2246154393,
				"z": 3.5182042092,
				"element": "H" 
			},
			{
				"x": -2.0404881704,
				"y": 1.3671277604,
				"z": 1.3486718027,
				"element": "H" 
			}
		],
		 "valence_orbital": [ 
			{
				"type": "occ",
				"energy": -0.28269,
				"method": "rhf"
			},
			{
				"type": "occ",
				"energy": -0.2817,
				"method": "rhf"
			},
			{
				"type": "occ",
				"energy": -0.25506,
				"method": "rhf"
			},
			{
				"type": "occ",
				"energy": -0.24295,
				"method": "rhf"
			},
			{
				"type": "occ",
				"energy": -0.21575,
				"method": "rhf"
			},
			{
				"type": "unocc",
				"energy": -0.02202,
				"method": "rhf"
			},
			{
				"type": "unocc",
				"energy": -0.00376,
				"method": "rhf"
			},
			{
				"type": "unocc",
				"energy": 0.0451,
				"method": "rhf"
			},
			{
				"type": "unocc",
				"energy": 0.07465,
				"method": "rhf"
			},
			{
				"type": "unocc",
				"energy": 0.08574,
				"method": "rhf"
			}
		],
		"cosmo_sigma_profile": { 
			"-0.025": 0.0,
			"-0.024": 0.0,
			"-0.023": 0.0,
			"-0.022": 0.0,
			"-0.021": 0.0,
			"-0.02": 0.0,
			"-0.019": 0.0,
			"-0.018": 0.0,
			"-0.017": 0.0,
			"-0.016": 0.0,
			"-0.015": 0.0,
			"-0.014": 0.0,
			"-0.013": 0.0,
			"-0.012": 0.0,
			"-0.011": 0.284112537104,
			"-0.01": 1.5377778948,
			"-0.009": 2.08076142556,
			"-0.008": 2.15713742534,
			"-0.007": 2.73341313,
			"-0.006": 8.18580250555,
			"-0.005": 14.7116933668,
			"-0.004": 18.6325779328,
			"-0.003": 16.0341609547,
			"-0.002": 15.2869067397,
			"-0.001": 15.5944390206,
			"0.0": 16.8133311404,
			"0.001": 12.7351787293,
			"0.002": 13.8119254346,
			"0.003": 16.0839182379,
			"0.004": 18.0283254262,
			"0.005": 17.3220255577,
			"0.006": 4.6187420295,
			"0.007": 2.03910309563,
			"0.008": 1.61886684431,
			"0.009": 1.14661454381,
			"0.01": 1.60100946399,
			"0.011": 1.36798229882,
			"0.012": 1.42377715755,
			"0.013": 0.237643587332,
			"0.014": 0.0,
			"0.015": 0.0,
			"0.016": 0.0,
			"0.017": 0.0,
			"0.018": 0.0,
			"0.019": 0.0,
			"0.02": 0.0,
			"0.021": 0.0,
			"0.022": 0.0,
			"0.023": 0.0,
			"0.024": 0.0,
			"0.025": 0.0
		}
	}
}
