{
	 "smiles": "CCCC1=NC2=C(C=C(C=C2C)C2=NC3=C(C=CC=C3)N2C)N1CC1=CC=C(C=C1)C1=CC=CC=C1C(O)=O", 
	 "Tm": 535.15, 
	 "num_atms": 69, 
	 "gaussian": { 
		 "optdone": 1, 
		 "sigma_profile": "yes", 
		 "theory": "DFT", 
		 "functional": "B3LYP", 
		 "basiset": "6-31G**", 
		 "properties": { 
			 "R2extent": 25647.811, 
			 "electric_dipole_moment_norm": 4.41203247268, 
			 "electric_quadrupole_moment_norm": 33.2920815629, 
			 "total_energy": -1645.12292669, 
			 "HOMO_LUMO_gap": 0.14486, 
			 "cosmo_polarized_energy": -28.49, 
			 "cosmo_cavitation_energy": 71.96, 
			 "cosmo_dispersion_energy": -46.99, 
			 "cosmo_repulsion_energy": 3.55, 
			 "cosmo_total_nonelectrostatic_energy": 28.52, 
			 "SMD_solvation_energy": 8.63 
		},
		"coords": [
			{
				"x": 3.4747503898,
				"y": -1.2977345411,
				"z": -4.1029195047,
				"element": "C" 
			},
			{
				"x": 3.9541802101,
				"y": -0.0997256844,
				"z": -3.2782239694,
				"element": "C" 
			},
			{
				"x": 4.5422898535,
				"y": -0.4958552481,
				"z": -1.9032247282,
				"element": "C" 
			},
			{
				"x": 3.5612446609,
				"y": -1.1278906317,
				"z": -0.9611530422,
				"element": "C" 
			},
			{
				"x": 3.4922114443,
				"y": -2.4219752894,
				"z": -0.7352467455,
				"element": "N" 
			},
			{
				"x": 2.462388886,
				"y": -2.5858309945,
				"z": 0.1755807192,
				"element": "C" 
			},
			{
				"x": 1.8983896772,
				"y": -1.3357836265,
				"z": 0.5055980459,
				"element": "C" 
			},
			{
				"x": 0.8409557313,
				"y": -1.1945813913,
				"z": 1.4044113956,
				"element": "C" 
			},
			{
				"x": 0.3504298517,
				"y": -2.3705375632,
				"z": 1.9890203857,
				"element": "C" 
			},
			{
				"x": 0.9078656191,
				"y": -3.6295111385,
				"z": 1.6464429445,
				"element": "C" 
			},
			{
				"x": 1.9601462028,
				"y": -3.7707455037,
				"z": 0.7483173572,
				"element": "C" 
			},
			{
				"x": 2.5488190589,
				"y": -5.1091909134,
				"z": 0.39090175,
				"element": "C" 
			},
			{
				"x": -0.789908163,
				"y": -2.3636845751,
				"z": 2.9195775084,
				"element": "C" 
			},
			{
				"x": -1.7015222,
				"y": -3.3168581108,
				"z": 2.949657074,
				"element": "N" 
			},
			{
				"x": -2.59540089,
				"y": -2.9451670351,
				"z": 3.9342784411,
				"element": "C" 
			},
			{
				"x": -2.1977741726,
				"y": -1.7187622388,
				"z": 4.5172620564,
				"element": "C" 
			},
			{
				"x": -2.9174299969,
				"y": -1.1099143995,
				"z": 5.5481673112,
				"element": "C" 
			},
			{
				"x": -4.0651223829,
				"y": -1.7680856123,
				"z": 5.9867101603,
				"element": "C" 
			},
			{
				"x": -4.4782781024,
				"y": -2.98792977,
				"z": 5.4139181031,
				"element": "C" 
			},
			{
				"x": -3.7551117957,
				"y": -3.5880113312,
				"z": 4.3877130518,
				"element": "C" 
			},
			{
				"x": -1.03272371,
				"y": -1.3598618875,
				"z": 3.8574866833,
				"element": "N" 
			},
			{
				"x": -0.1759876339,
				"y": -0.2594234757,
				"z": 4.263478057,
				"element": "C" 
			},
			{
				"x": 2.6123541646,
				"y": -0.4067181876,
				"z": -0.2423674975,
				"element": "N" 
			},
			{
				"x": 2.4259324022,
				"y": 1.0338433277,
				"z": -0.1848630554,
				"element": "C" 
			},
			{
				"x": 1.1175421341,
				"y": 1.5380741317,
				"z": -0.7774574961,
				"element": "C" 
			},
			{
				"x": 0.4023699385,
				"y": 0.8144324179,
				"z": -1.7352197674,
				"element": "C" 
			},
			{
				"x": -0.7746924563,
				"y": 1.3290356136,
				"z": -2.2795930504,
				"element": "C" 
			},
			{
				"x": -1.2621917992,
				"y": 2.5844357173,
				"z": -1.8929422897,
				"element": "C" 
			},
			{
				"x": -0.5425492986,
				"y": 3.3053195162,
				"z": -0.9269416031,
				"element": "C" 
			},
			{
				"x": 0.6250422573,
				"y": 2.7869995893,
				"z": -0.3758280727,
				"element": "C" 
			},
			{
				"x": -2.559901613,
				"y": 3.0888142803,
				"z": -2.4248993997,
				"element": "C" 
			},
			{
				"x": -3.6889993757,
				"y": 2.2674076089,
				"z": -2.2682837523,
				"element": "C" 
			},
			{
				"x": -4.9601764768,
				"y": 2.6863080026,
				"z": -2.6556372022,
				"element": "C" 
			},
			{
				"x": -5.1390014185,
				"y": 3.9596584517,
				"z": -3.1977646334,
				"element": "C" 
			},
			{
				"x": -4.0355702744,
				"y": 4.788735288,
				"z": -3.3668039971,
				"element": "C" 
			},
			{
				"x": -2.745865281,
				"y": 4.3639811971,
				"z": -3.0104920722,
				"element": "C" 
			},
			{
				"x": -1.6557674544,
				"y": 5.3286218396,
				"z": -3.3504137511,
				"element": "C" 
			},
			{
				"x": -0.4567038616,
				"y": 4.7494665697,
				"z": -3.5898047255,
				"element": "O" 
			},
			{
				"x": -1.8212142044,
				"y": 6.5277461614,
				"z": -3.4673518659,
				"element": "O" 
			},
			{
				"x": 2.7064364956,
				"y": -1.8690546398,
				"z": -3.5730434935,
				"element": "H" 
			},
			{
				"x": 4.301139004,
				"y": -1.9854030811,
				"z": -4.3128533182,
				"element": "H" 
			},
			{
				"x": 3.0569789373,
				"y": -0.9708403648,
				"z": -5.0604204756,
				"element": "H" 
			},
			{
				"x": 3.1279478014,
				"y": 0.6084578245,
				"z": -3.1377240345,
				"element": "H" 
			},
			{
				"x": 4.7302672885,
				"y": 0.4421047097,
				"z": -3.8326159839,
				"element": "H" 
			},
			{
				"x": 5.0020056746,
				"y": 0.3843970845,
				"z": -1.436025208,
				"element": "H" 
			},
			{
				"x": 5.3401304081,
				"y": -1.2302020266,
				"z": -2.0466149315,
				"element": "H" 
			},
			{
				"x": 0.3816460838,
				"y": -0.2312104716,
				"z": 1.593119407,
				"element": "H" 
			},
			{
				"x": 0.4723749511,
				"y": -4.50876036,
				"z": 2.1091963121,
				"element": "H" 
			},
			{
				"x": 2.04202597,
				"y": -5.9185368417,
				"z": 0.9225342061,
				"element": "H" 
			},
			{
				"x": 3.6161584005,
				"y": -5.1464354934,
				"z": 0.6349030205,
				"element": "H" 
			},
			{
				"x": 2.4692826825,
				"y": -5.2970325866,
				"z": -0.6853586768,
				"element": "H" 
			},
			{
				"x": -2.6098552812,
				"y": -0.1659026975,
				"z": 5.9879911248,
				"element": "H" 
			},
			{
				"x": -4.6563340744,
				"y": -1.3284368026,
				"z": 6.7847401323,
				"element": "H" 
			},
			{
				"x": -5.380600076,
				"y": -3.465818471,
				"z": 5.7842526071,
				"element": "H" 
			},
			{
				"x": -4.0665423234,
				"y": -4.528025743,
				"z": 3.9434911545,
				"element": "H" 
			},
			{
				"x": -0.5139435739,
				"y": 0.6964313191,
				"z": 3.84576078,
				"element": "H" 
			},
			{
				"x": 0.8452859973,
				"y": -0.4483756031,
				"z": 3.9333472771,
				"element": "H" 
			},
			{
				"x": -0.1820703292,
				"y": -0.1830714778,
				"z": 5.3547562845,
				"element": "H" 
			},
			{
				"x": 3.2697439871,
				"y": 1.496112422,
				"z": -0.7058147204,
				"element": "H" 
			},
			{
				"x": 2.4971473179,
				"y": 1.3546739559,
				"z": 0.862318868,
				"element": "H" 
			},
			{
				"x": 0.7557077716,
				"y": -0.1626001452,
				"z": -2.0488965404,
				"element": "H" 
			},
			{
				"x": -1.3163650943,
				"y": 0.7529844723,
				"z": -3.0240160941,
				"element": "H" 
			},
			{
				"x": -0.915153933,
				"y": 4.2680460522,
				"z": -0.5893416488,
				"element": "H" 
			},
			{
				"x": 1.1571275009,
				"y": 3.3582980982,
				"z": 0.3819500311,
				"element": "H" 
			},
			{
				"x": -3.5615495234,
				"y": 1.294407387,
				"z": -1.8036808437,
				"element": "H" 
			},
			{
				"x": -5.8101415812,
				"y": 2.0243960466,
				"z": -2.5169715119,
				"element": "H" 
			},
			{
				"x": -6.1272250057,
				"y": 4.301739904,
				"z": -3.4892727083,
				"element": "H" 
			},
			{
				"x": -4.142769175,
				"y": 5.7792005007,
				"z": -3.7954310236,
				"element": "H" 
			},
			{
				"x": 0.1430237772,
				"y": 5.4797564652,
				"z": -3.8174688148,
				"element": "H" 
			}
		],
		 "valence_orbital": [ 
			{
				"type": "occ",
				"energy": -0.24081,
				"method": "rhf"
			},
			{
				"type": "occ",
				"energy": -0.23616,
				"method": "rhf"
			},
			{
				"type": "occ",
				"energy": -0.22201,
				"method": "rhf"
			},
			{
				"type": "occ",
				"energy": -0.2155,
				"method": "rhf"
			},
			{
				"type": "occ",
				"energy": -0.19876,
				"method": "rhf"
			},
			{
				"type": "unocc",
				"energy": -0.0539,
				"method": "rhf"
			},
			{
				"type": "unocc",
				"energy": -0.03397,
				"method": "rhf"
			},
			{
				"type": "unocc",
				"energy": -0.02736,
				"method": "rhf"
			},
			{
				"type": "unocc",
				"energy": -0.01568,
				"method": "rhf"
			},
			{
				"type": "unocc",
				"energy": 0.00064,
				"method": "rhf"
			}
		],
		"cosmo_sigma_profile": { 
			"-0.025": 0.0,
			"-0.024": 0.0,
			"-0.023": 0.0,
			"-0.022": 0.0,
			"-0.021": 0.0,
			"-0.02": 0.0,
			"-0.019": 0.0,
			"-0.018": 0.512285317175,
			"-0.017": 0.993025936568,
			"-0.016": 0.642496422436,
			"-0.015": 1.30890134506,
			"-0.014": 0.429579248632,
			"-0.013": 0.658379219071,
			"-0.012": 0.747569319384,
			"-0.011": 0.436582472227,
			"-0.01": 0.670404759936,
			"-0.009": 0.734549148539,
			"-0.008": 2.16481392116,
			"-0.007": 9.2424105873,
			"-0.006": 32.2835281593,
			"-0.005": 42.4358085802,
			"-0.004": 50.7866773372,
			"-0.003": 51.2528990274,
			"-0.002": 50.3314417533,
			"-0.001": 44.6003598105,
			"0.0": 42.5810487717,
			"0.001": 40.2622473077,
			"0.002": 35.8332016934,
			"0.003": 37.6224856013,
			"0.004": 35.7887864656,
			"0.005": 24.9560885365,
			"0.006": 17.0392343907,
			"0.007": 10.375352666,
			"0.008": 6.28083154001,
			"0.009": 6.73768261347,
			"0.01": 4.96453663718,
			"0.011": 5.66710388312,
			"0.012": 6.20919215246,
			"0.013": 1.80387895095,
			"0.014": 1.77776362816,
			"0.015": 2.18245785385,
			"0.016": 1.07291389946,
			"0.017": 1.23798331165,
			"0.018": 0.167208725386,
			"0.019": 0.0,
			"0.02": 0.0,
			"0.021": 0.0,
			"0.022": 0.0,
			"0.023": 0.0,
			"0.024": 0.0,
			"0.025": 0.0
		}
	}
}
