{
	 "smiles": "CC1=NC(COC2=CC=C(C=C2)C(O)=O)=CS1", 
	 "Tm": 470.15, 
	 "num_atms": 28, 
	 "gaussian": { 
		 "optdone": 1, 
		 "sigma_profile": "yes", 
		 "theory": "DFT", 
		 "functional": "B3LYP", 
		 "basiset": "6-31G**", 
		 "properties": { 
			 "R2extent": 6521.233, 
			 "electric_dipole_moment_norm": 2.54652332014, 
			 "electric_quadrupole_moment_norm": 15.1075504897, 
			 "total_energy": -1142.52514226, 
			 "HOMO_LUMO_gap": 0.19457, 
			 "cosmo_polarized_energy": -13.08, 
			 "cosmo_cavitation_energy": 34.87, 
			 "cosmo_dispersion_energy": -25.48, 
			 "cosmo_repulsion_energy": 1.95, 
			 "cosmo_total_nonelectrostatic_energy": 11.35, 
			 "SMD_solvation_energy": 5.68 
		},
		"coords": [
			{
				"x": 0.0989096992,
				"y": 3.1560254253,
				"z": -4.4278126482,
				"element": "C" 
			},
			{
				"x": 0.14568957,
				"y": 2.9142982276,
				"z": -2.9499494882,
				"element": "C" 
			},
			{
				"x": -0.8202877124,
				"y": 2.3734642713,
				"z": -2.263283729,
				"element": "N" 
			},
			{
				"x": -0.4987148498,
				"y": 2.2719139444,
				"z": -0.924885363,
				"element": "C" 
			},
			{
				"x": -1.5353210485,
				"y": 1.7010991879,
				"z": 0.0097949795,
				"element": "C" 
			},
			{
				"x": -0.9937776575,
				"y": 1.2753324866,
				"z": 1.2577475536,
				"element": "O" 
			},
			{
				"x": -0.3786038561,
				"y": 0.0601810434,
				"z": 1.3415750493,
				"element": "C" 
			},
			{
				"x": -0.1295756138,
				"y": -0.7882666145,
				"z": 0.2525081756,
				"element": "C" 
			},
			{
				"x": 0.4961013454,
				"y": -2.0118509426,
				"z": 0.4720031279,
				"element": "C" 
			},
			{
				"x": 0.8846617928,
				"y": -2.405438274,
				"z": 1.758033755,
				"element": "C" 
			},
			{
				"x": 0.6368860544,
				"y": -1.5443133495,
				"z": 2.8405009694,
				"element": "C" 
			},
			{
				"x": 0.0115439017,
				"y": -0.3240439829,
				"z": 2.6350742954,
				"element": "C" 
			},
			{
				"x": 1.5469750842,
				"y": -3.7190404925,
				"z": 1.9187700761,
				"element": "C" 
			},
			{
				"x": 1.8814357583,
				"y": -3.9946617448,
				"z": 3.2077138896,
				"element": "O" 
			},
			{
				"x": 1.7850842876,
				"y": -4.4997746155,
				"z": 1.0161582922,
				"element": "O" 
			},
			{
				"x": 0.7338322325,
				"y": 2.7404990996,
				"z": -0.5739924041,
				"element": "C" 
			},
			{
				"x": 1.5535123903,
				"y": 3.3413131451,
				"z": -1.9785398665,
				"element": "S" 
			},
			{
				"x": 0.900112454,
				"y": 2.621252857,
				"z": -4.9486439506,
				"element": "H" 
			},
			{
				"x": 0.2013592158,
				"y": 4.2203794902,
				"z": -4.6644125818,
				"element": "H" 
			},
			{
				"x": -0.8623980697,
				"y": 2.8034010252,
				"z": -4.8057603202,
				"element": "H" 
			},
			{
				"x": -2.2697329515,
				"y": 2.4694979626,
				"z": 0.273324597,
				"element": "H" 
			},
			{
				"x": -2.0776523203,
				"y": 0.8889778122,
				"z": -0.4884038672,
				"element": "H" 
			},
			{
				"x": -0.3999379549,
				"y": -0.4992211529,
				"z": -0.7556169713,
				"element": "H" 
			},
			{
				"x": 0.6986804224,
				"y": -2.6816542895,
				"z": -0.357022383,
				"element": "H" 
			},
			{
				"x": 0.9341475979,
				"y": -1.840586215,
				"z": 3.8400369085,
				"element": "H" 
			},
			{
				"x": -0.1946699738,
				"y": 0.3510293981,
				"z": 3.4589632546,
				"element": "H" 
			},
			{
				"x": 2.3013941999,
				"y": -4.869805015,
				"z": 3.1841741402,
				"element": "H" 
			},
			{
				"x": 1.1892460018,
				"y": 2.7583913121,
				"z": 0.4049445091,
				"element": "H" 
			}
		],
		 "valence_orbital": [ 
			{
				"type": "occ",
				"energy": -0.28092,
				"method": "rhf"
			},
			{
				"type": "occ",
				"energy": -0.26954,
				"method": "rhf"
			},
			{
				"type": "occ",
				"energy": -0.26136,
				"method": "rhf"
			},
			{
				"type": "occ",
				"energy": -0.24301,
				"method": "rhf"
			},
			{
				"type": "occ",
				"energy": -0.23139,
				"method": "rhf"
			},
			{
				"type": "unocc",
				"energy": -0.03682,
				"method": "rhf"
			},
			{
				"type": "unocc",
				"energy": -0.02993,
				"method": "rhf"
			},
			{
				"type": "unocc",
				"energy": -0.00879,
				"method": "rhf"
			},
			{
				"type": "unocc",
				"energy": 0.01306,
				"method": "rhf"
			},
			{
				"type": "unocc",
				"energy": 0.04026,
				"method": "rhf"
			}
		],
		"cosmo_sigma_profile": { 
			"-0.025": 0.0,
			"-0.024": 0.0,
			"-0.023": 0.0,
			"-0.022": 0.0,
			"-0.021": 0.0,
			"-0.02": 0.0,
			"-0.019": 0.0125826815088,
			"-0.018": 0.476998163545,
			"-0.017": 1.05485414646,
			"-0.016": 1.07688367745,
			"-0.015": 0.326656875829,
			"-0.014": 0.733835114421,
			"-0.013": 0.44908843611,
			"-0.012": 0.563306956714,
			"-0.011": 1.06244653654,
			"-0.01": 0.577824363117,
			"-0.009": 1.21475442577,
			"-0.008": 2.66988866808,
			"-0.007": 6.72235867707,
			"-0.006": 16.9088140968,
			"-0.005": 19.9720588155,
			"-0.004": 19.0257591773,
			"-0.003": 16.4275836724,
			"-0.002": 19.9829371187,
			"-0.001": 21.3660299352,
			"0.0": 18.0662225099,
			"0.001": 25.3028420418,
			"0.002": 25.5039518615,
			"0.003": 28.7362197822,
			"0.004": 13.953883473,
			"0.005": 5.98697156322,
			"0.006": 4.19791795161,
			"0.007": 5.10921194516,
			"0.008": 5.46183072151,
			"0.009": 2.97032092619,
			"0.01": 2.76109923137,
			"0.011": 3.54120488054,
			"0.012": 6.12373959093,
			"0.013": 1.6568339618,
			"0.014": 0.683954019733,
			"0.015": 0.195858778983,
			"0.016": 0.0,
			"0.017": 0.0,
			"0.018": 0.0,
			"0.019": 0.0,
			"0.02": 0.0,
			"0.021": 0.0,
			"0.022": 0.0,
			"0.023": 0.0,
			"0.024": 0.0,
			"0.025": 0.0
		}
	}
}
