{
	 "smiles": "COC(=O)CCNC1=NC2=C(O1)C=CC=C2", 
	 "Tm": 382.15, 
	 "num_atms": 28, 
	 "gaussian": { 
		 "optdone": 1, 
		 "sigma_profile": "yes", 
		 "theory": "DFT", 
		 "functional": "B3LYP", 
		 "basiset": "6-31G**", 
		 "properties": { 
			 "R2extent": 5082.5766, 
			 "electric_dipole_moment_norm": 2.66468356658, 
			 "electric_quadrupole_moment_norm": 15.2092792571, 
			 "total_energy": -761.592503102, 
			 "HOMO_LUMO_gap": 0.20087, 
			 "cosmo_polarized_energy": -13.1, 
			 "cosmo_cavitation_energy": 32.69, 
			 "cosmo_dispersion_energy": -23.7, 
			 "cosmo_repulsion_energy": 1.87, 
			 "cosmo_total_nonelectrostatic_energy": 10.86, 
			 "SMD_solvation_energy": 4.79 
		},
		"coords": [
			{
				"x": -0.5133539931,
				"y": 1.1211656497,
				"z": -4.8383517053,
				"element": "C" 
			},
			{
				"x": -0.8134025216,
				"y": 1.4593035079,
				"z": -3.4709313726,
				"element": "O" 
			},
			{
				"x": -2.1287078148,
				"y": 1.3841189541,
				"z": -3.1330211629,
				"element": "C" 
			},
			{
				"x": -2.9891807247,
				"y": 1.056266995,
				"z": -3.9175429542,
				"element": "O" 
			},
			{
				"x": -2.3813011656,
				"y": 1.7388696427,
				"z": -1.6788543291,
				"element": "C" 
			},
			{
				"x": -1.2659397092,
				"y": 2.4990549048,
				"z": -0.9452533842,
				"element": "C" 
			},
			{
				"x": -0.0559211064,
				"y": 1.7206995349,
				"z": -0.7092931712,
				"element": "N" 
			},
			{
				"x": -0.0295565434,
				"y": 0.816280858,
				"z": 0.3032437434,
				"element": "C" 
			},
			{
				"x": -0.8761640046,
				"y": 0.6845356301,
				"z": 1.2838987444,
				"element": "N" 
			},
			{
				"x": -0.3281260199,
				"y": -0.3464856142,
				"z": 2.0528704839,
				"element": "C" 
			},
			{
				"x": 0.8569933104,
				"y": -0.7936524092,
				"z": 1.4493914013,
				"element": "C" 
			},
			{
				"x": 1.0503940735,
				"y": -0.0337911249,
				"z": 0.3071793158,
				"element": "O" 
			},
			{
				"x": 1.6483815999,
				"y": -1.8121064512,
				"z": 1.9455295716,
				"element": "C" 
			},
			{
				"x": 1.1998980411,
				"y": -2.4082835142,
				"z": 3.1323229701,
				"element": "C" 
			},
			{
				"x": 0.0190417743,
				"y": -1.9832172231,
				"z": 3.759289756,
				"element": "C" 
			},
			{
				"x": -0.7630872368,
				"y": -0.9497018621,
				"z": 3.2333139943,
				"element": "C" 
			},
			{
				"x": -1.0462626629,
				"y": 1.7858013936,
				"z": -5.5219201262,
				"element": "H" 
			},
			{
				"x": 0.5642800734,
				"y": 1.2451071661,
				"z": -4.9437038243,
				"element": "H" 
			},
			{
				"x": -0.8052580799,
				"y": 0.0898646457,
				"z": -5.0494917388,
				"element": "H" 
			},
			{
				"x": -3.3104295244,
				"y": 2.3177600595,
				"z": -1.6611394215,
				"element": "H" 
			},
			{
				"x": -2.5972482662,
				"y": 0.8070741137,
				"z": -1.141896952,
				"element": "H" 
			},
			{
				"x": -1.6412435733,
				"y": 2.8140013235,
				"z": 0.0305272891,
				"element": "H" 
			},
			{
				"x": -0.9815381185,
				"y": 3.3959771628,
				"z": -1.5024061348,
				"element": "H" 
			},
			{
				"x": 0.472745216,
				"y": 1.4675514891,
				"z": -1.5329258668,
				"element": "H" 
			},
			{
				"x": 2.5589001304,
				"y": -2.1280113017,
				"z": 1.4482647698,
				"element": "H" 
			},
			{
				"x": 1.7798129359,
				"y": -3.2135681709,
				"z": 3.5724704214,
				"element": "H" 
			},
			{
				"x": -0.2951551308,
				"y": -2.4703727962,
				"z": 4.6777362978,
				"element": "H" 
			},
			{
				"x": -1.676070959,
				"y": -0.6225425638,
				"z": 3.719493385,
				"element": "H" 
			}
		],
		 "valence_orbital": [ 
			{
				"type": "occ",
				"energy": -0.28649,
				"method": "rhf"
			},
			{
				"type": "occ",
				"energy": -0.28282,
				"method": "rhf"
			},
			{
				"type": "occ",
				"energy": -0.2768,
				"method": "rhf"
			},
			{
				"type": "occ",
				"energy": -0.23696,
				"method": "rhf"
			},
			{
				"type": "occ",
				"energy": -0.20483,
				"method": "rhf"
			},
			{
				"type": "unocc",
				"energy": -0.00396,
				"method": "rhf"
			},
			{
				"type": "unocc",
				"energy": 0.00206,
				"method": "rhf"
			},
			{
				"type": "unocc",
				"energy": 0.01681,
				"method": "rhf"
			},
			{
				"type": "unocc",
				"energy": 0.06016,
				"method": "rhf"
			},
			{
				"type": "unocc",
				"energy": 0.07973,
				"method": "rhf"
			}
		],
		"cosmo_sigma_profile": { 
			"-0.025": 0.0,
			"-0.024": 0.0,
			"-0.023": 0.0,
			"-0.022": 0.0,
			"-0.021": 0.0,
			"-0.02": 0.0,
			"-0.019": 0.0,
			"-0.018": 0.0,
			"-0.017": 0.0,
			"-0.016": 0.0,
			"-0.015": 0.0,
			"-0.014": 0.0,
			"-0.013": 0.0,
			"-0.012": 0.307628172403,
			"-0.011": 0.488143232755,
			"-0.01": 0.850730003311,
			"-0.009": 0.510817832123,
			"-0.008": 0.582873728728,
			"-0.007": 5.61299951921,
			"-0.006": 18.5226913148,
			"-0.005": 26.7437601262,
			"-0.004": 26.3178530712,
			"-0.003": 27.2186954929,
			"-0.002": 17.1616227065,
			"-0.001": 14.37519315,
			"0.0": 13.1104233009,
			"0.001": 14.6164642449,
			"0.002": 13.7321690426,
			"0.003": 14.61709026,
			"0.004": 15.1137421727,
			"0.005": 14.1043313409,
			"0.006": 9.70978147815,
			"0.007": 4.37548953753,
			"0.008": 3.40599089383,
			"0.009": 2.96195325955,
			"0.01": 2.54880709885,
			"0.011": 4.39592212603,
			"0.012": 5.59999804395,
			"0.013": 1.80301627977,
			"0.014": 0.731576866631,
			"0.015": 0.732169891618,
			"0.016": 0.0100893618407,
			"0.017": 0.0,
			"0.018": 0.0,
			"0.019": 0.0,
			"0.02": 0.0,
			"0.021": 0.0,
			"0.022": 0.0,
			"0.023": 0.0,
			"0.024": 0.0,
			"0.025": 0.0
		}
	}
}
