{
	 "smiles": "IC1=CC=CC=C1C(=O)NC1=CC=CC=C1", 
	 "Tm": 410.15, 
	 "num_atms": 26, 
	 "gaussian": { 
		 "optdone": 1, 
		 "sigma_profile": "no", 
		 "theory": "DFT", 
		 "functional": "B3LYP", 
		 "basiset": "6-31G**", 
		 "properties": { 
			 "R2extent": 5554.6535, 
			 "electric_dipole_moment_norm": 3.10305921954, 
			 "electric_quadrupole_moment_norm": 16.6522152082, 
			 "total_energy": -642.784833691, 
			 "HOMO_LUMO_gap": 0.16983, 
			 "cosmo_polarized_energy": -77495.5, 
			 "cosmo_cavitation_energy": 33.45, 
			 "cosmo_dispersion_energy": -25.22, 
			 "cosmo_repulsion_energy": 1.91, 
			 "cosmo_total_nonelectrostatic_energy": 10.15, 
			 "SMD_solvation_energy": 5.3 
		},
		"coords": [
			{
				"x": -0.401599975,
				"y": -1.0058664972,
				"z": -3.9180486704,
				"element": "I" 
			},
			{
				"x": -1.7392787099,
				"y": -1.0122577861,
				"z": -2.2526031174,
				"element": "C" 
			},
			{
				"x": -2.6769213579,
				"y": -2.0504549993,
				"z": -2.230095338,
				"element": "C" 
			},
			{
				"x": -3.6409159852,
				"y": -2.0975361836,
				"z": -1.2244925166,
				"element": "C" 
			},
			{
				"x": -3.6866258106,
				"y": -1.0955356533,
				"z": -0.2542927551,
				"element": "C" 
			},
			{
				"x": -2.7586357874,
				"y": -0.0614077323,
				"z": -0.2911016936,
				"element": "C" 
			},
			{
				"x": -1.7522770336,
				"y": -0.0075234387,
				"z": -1.2716332608,
				"element": "C" 
			},
			{
				"x": -0.8268166108,
				"y": 1.186300107,
				"z": -1.1603270813,
				"element": "C" 
			},
			{
				"x": -1.2854745802,
				"y": 2.3016066255,
				"z": -0.9426714905,
				"element": "O" 
			},
			{
				"x": 0.511341735,
				"y": 0.8968910508,
				"z": -1.229872254,
				"element": "N" 
			},
			{
				"x": 1.6132830597,
				"y": 1.7780816983,
				"z": -1.1749297073,
				"element": "C" 
			},
			{
				"x": 2.8910518625,
				"y": 1.2094042123,
				"z": -1.3039432859,
				"element": "C" 
			},
			{
				"x": 4.0270389663,
				"y": 2.0123181426,
				"z": -1.258642441,
				"element": "C" 
			},
			{
				"x": 3.9065623976,
				"y": 3.3924668702,
				"z": -1.0840351157,
				"element": "C" 
			},
			{
				"x": 2.635653997,
				"y": 3.954094821,
				"z": -0.9561276418,
				"element": "C" 
			},
			{
				"x": 1.485944614,
				"y": 3.1647357282,
				"z": -0.9985373042,
				"element": "C" 
			},
			{
				"x": -2.6603319062,
				"y": -2.8110664131,
				"z": -3.0021838924,
				"element": "H" 
			},
			{
				"x": -4.3611057193,
				"y": -2.9102609444,
				"z": -1.2137803833,
				"element": "H" 
			},
			{
				"x": -4.4448309657,
				"y": -1.1162671141,
				"z": 0.5223001845,
				"element": "H" 
			},
			{
				"x": -2.7906568656,
				"y": 0.7403577791,
				"z": 0.4391394213,
				"element": "H" 
			},
			{
				"x": 0.7499785233,
				"y": -0.0719414399,
				"z": -1.3877397089,
				"element": "H" 
			},
			{
				"x": 2.9908528409,
				"y": 0.1346284953,
				"z": -1.4386649544,
				"element": "H" 
			},
			{
				"x": 5.0072815139,
				"y": 1.5556738235,
				"z": -1.3603503252,
				"element": "H" 
			},
			{
				"x": 4.7916347785,
				"y": 4.0202236671,
				"z": -1.0482084152,
				"element": "H" 
			},
			{
				"x": 2.5287215754,
				"y": 5.0265569135,
				"z": -0.8196694262,
				"element": "H" 
			},
			{
				"x": 0.5020254434,
				"y": 3.5991782677,
				"z": -0.8964888265,
				"element": "H" 
			}
		],
		 "valence_orbital": [ 
			{
				"type": "occ",
				"energy": -0.2759,
				"method": "rhf"
			},
			{
				"type": "occ",
				"energy": -0.25512,
				"method": "rhf"
			},
			{
				"type": "occ",
				"energy": -0.25173,
				"method": "rhf"
			},
			{
				"type": "occ",
				"energy": -0.24999,
				"method": "rhf"
			},
			{
				"type": "occ",
				"energy": -0.22033,
				"method": "rhf"
			},
			{
				"type": "unocc",
				"energy": -0.0505,
				"method": "rhf"
			},
			{
				"type": "unocc",
				"energy": -0.04583,
				"method": "rhf"
			},
			{
				"type": "unocc",
				"energy": -0.02637,
				"method": "rhf"
			},
			{
				"type": "unocc",
				"energy": -0.00112,
				"method": "rhf"
			},
			{
				"type": "unocc",
				"energy": -0.00021,
				"method": "rhf"
			}
		],
		"cosmo_sigma_profile": { 
			"0.0": 0.0,
			"0.0": 0.0,
			"0.0": 0.0,
			"0.0": 0.0,
			"0.0": 0.0,
			"0.0": 0.0,
			"0.0": 0.0,
			"0.0": 0.0,
			"0.0": 0.0,
			"0.0": 0.0,
			"0.0": 0.0,
			"0.0": 0.0,
			"0.0": 0.0,
			"0.0": 0.0,
			"0.0": 0.0,
			"0.0": 0.0,
			"0.0": 0.0,
			"0.0": 0.0,
			"0.0": 0.0,
			"0.0": 0.0,
			"0.0": 0.0,
			"0.0": 0.0,
			"0.0": 0.0,
			"0.0": 0.0,
			"0.0": 0.0,
			"0.0": 0.0,
			"0.0": 0.0,
			"0.0": 0.0,
			"0.0": 0.0,
			"0.0": 0.0,
			"0.0": 0.0,
			"0.0": 0.0,
			"0.0": 0.0,
			"0.0": 0.0,
			"0.0": 0.0,
			"0.0": 0.0,
			"0.0": 0.0,
			"0.0": 0.0,
			"0.0": 0.0,
			"0.0": 0.0,
			"0.0": 0.0,
			"0.0": 0.0,
			"0.0": 0.0,
			"0.0": 0.0,
			"0.0": 0.0,
			"0.0": 0.0,
			"0.0": 0.0,
			"0.0": 0.0,
			"0.0": 0.0,
			"0.0": 0.0,
			"0.0": 0.0
		}
	}
}
