{
	 "smiles": "NC(=S)C1=C(N)N=CN=C1", 
	 "Tm": 471.15, 
	 "num_atms": 16, 
	 "gaussian": { 
		 "optdone": 1, 
		 "sigma_profile": "yes", 
		 "theory": "DFT", 
		 "functional": "B3LYP", 
		 "basiset": "6-31G**", 
		 "properties": { 
			 "R2extent": 2356.7757, 
			 "electric_dipole_moment_norm": 2.14250248775, 
			 "electric_quadrupole_moment_norm": 12.2451093695, 
			 "total_energy": -811.358844882, 
			 "HOMO_LUMO_gap": 0.15226, 
			 "cosmo_polarized_energy": -16.25, 
			 "cosmo_cavitation_energy": 21.65, 
			 "cosmo_dispersion_energy": -17.09, 
			 "cosmo_repulsion_energy": 1.33, 
			 "cosmo_total_nonelectrostatic_energy": 5.89, 
			 "SMD_solvation_energy": 0.07 
		},
		"coords": [
			{
				"x": -1.241591208,
				"y": 0.1179488176,
				"z": -1.6460445531,
				"element": "N" 
			},
			{
				"x": -0.7183018203,
				"y": -0.9763438508,
				"z": -1.0467005697,
				"element": "C" 
			},
			{
				"x": -1.7361703733,
				"y": -2.2532723027,
				"z": -0.6378729026,
				"element": "S" 
			},
			{
				"x": 0.7296987313,
				"y": -0.9110766338,
				"z": -0.7702498752,
				"element": "C" 
			},
			{
				"x": 1.5969094529,
				"y": -2.0472570419,
				"z": -0.6332814921,
				"element": "C" 
			},
			{
				"x": 1.17802729,
				"y": -3.3210559782,
				"z": -0.7058147043,
				"element": "N" 
			},
			{
				"x": 2.9275285992,
				"y": -1.8736883362,
				"z": -0.4491924291,
				"element": "N" 
			},
			{
				"x": 3.3790710524,
				"y": -0.6332295435,
				"z": -0.3527589991,
				"element": "C" 
			},
			{
				"x": 2.6662697495,
				"y": 0.5038215836,
				"z": -0.3865067254,
				"element": "N" 
			},
			{
				"x": 1.3609051364,
				"y": 0.3295178605,
				"z": -0.5956850512,
				"element": "C" 
			},
			{
				"x": -2.2303456325,
				"y": 0.1169941353,
				"z": -1.8503700051,
				"element": "H" 
			},
			{
				"x": -0.6588539577,
				"y": 0.8100121111,
				"z": -2.092118769,
				"element": "H" 
			},
			{
				"x": 1.8697180586,
				"y": -4.0354473075,
				"z": -0.5362459625,
				"element": "H" 
			},
			{
				"x": 0.1832255428,
				"y": -3.5194058562,
				"z": -0.658465719,
				"element": "H" 
			},
			{
				"x": 4.4538960741,
				"y": -0.5235869111,
				"z": -0.2156918576,
				"element": "H" 
			},
			{
				"x": 0.7601133044,
				"y": 1.2380692538,
				"z": -0.5886003853,
				"element": "H" 
			}
		],
		 "valence_orbital": [ 
			{
				"type": "occ",
				"energy": -0.30197,
				"method": "rhf"
			},
			{
				"type": "occ",
				"energy": -0.26204,
				"method": "rhf"
			},
			{
				"type": "occ",
				"energy": -0.24961,
				"method": "rhf"
			},
			{
				"type": "occ",
				"energy": -0.2386,
				"method": "rhf"
			},
			{
				"type": "occ",
				"energy": -0.22696,
				"method": "rhf"
			},
			{
				"type": "unocc",
				"energy": -0.0747,
				"method": "rhf"
			},
			{
				"type": "unocc",
				"energy": -0.02274,
				"method": "rhf"
			},
			{
				"type": "unocc",
				"energy": 0.005,
				"method": "rhf"
			},
			{
				"type": "unocc",
				"energy": 0.06519,
				"method": "rhf"
			},
			{
				"type": "unocc",
				"energy": 0.07366,
				"method": "rhf"
			}
		],
		"cosmo_sigma_profile": { 
			"-0.025": 0.0,
			"-0.024": 0.0,
			"-0.023": 0.0,
			"-0.022": 0.0,
			"-0.021": 0.0,
			"-0.02": 0.0,
			"-0.019": 0.0,
			"-0.018": 0.0,
			"-0.017": 0.0,
			"-0.016": 0.881117872896,
			"-0.015": 2.79003134356,
			"-0.014": 2.92390950522,
			"-0.013": 3.69496295625,
			"-0.012": 4.2363131952,
			"-0.011": 3.3333234817,
			"-0.01": 2.9652898001,
			"-0.009": 3.35578594584,
			"-0.008": 4.60353853456,
			"-0.007": 5.63731385015,
			"-0.006": 4.58252849982,
			"-0.005": 5.51657837302,
			"-0.004": 5.90550197183,
			"-0.003": 5.89861112134,
			"-0.002": 9.70465919564,
			"-0.001": 12.761388369,
			"0.0": 12.1690069768,
			"0.001": 10.314626064,
			"0.002": 9.36557061007,
			"0.003": 10.7355210241,
			"0.004": 7.67131709921,
			"0.005": 5.30848085418,
			"0.006": 7.21040086442,
			"0.007": 7.14166615939,
			"0.008": 6.84820010013,
			"0.009": 6.20580056013,
			"0.01": 4.89968380134,
			"0.011": 2.85541035356,
			"0.012": 2.13372524732,
			"0.013": 1.33704290012,
			"0.014": 1.60329466865,
			"0.015": 1.02770514661,
			"0.016": 0.509859040592,
			"0.017": 0.0254855403174,
			"0.018": 0.0,
			"0.019": 0.0,
			"0.02": 0.0,
			"0.021": 0.0,
			"0.022": 0.0,
			"0.023": 0.0,
			"0.024": 0.0,
			"0.025": 0.0
		}
	}
}
