{
	 "smiles": "CC(=O)OC1=C(C)C(C)=C(O)C=C1C", 
	 "Tm": 381.15, 
	 "num_atms": 28, 
	 "gaussian": { 
		 "optdone": 1, 
		 "sigma_profile": "yes", 
		 "theory": "DFT", 
		 "functional": "B3LYP", 
		 "basiset": "6-31G**", 
		 "properties": { 
			 "R2extent": 3734.8537, 
			 "electric_dipole_moment_norm": 2.50271197704, 
			 "electric_quadrupole_moment_norm": 14.6120290538, 
			 "total_energy": -653.303901525, 
			 "HOMO_LUMO_gap": 0.21122, 
			 "cosmo_polarized_energy": -12.66, 
			 "cosmo_cavitation_energy": 30.83, 
			 "cosmo_dispersion_energy": -21.7, 
			 "cosmo_repulsion_energy": 1.71, 
			 "cosmo_total_nonelectrostatic_energy": 10.85, 
			 "SMD_solvation_energy": 6.64 
		},
		"coords": [
			{
				"x": 1.7826157984,
				"y": 0.1726257503,
				"z": -2.0841896018,
				"element": "C" 
			},
			{
				"x": 1.0807584483,
				"y": -0.0415459054,
				"z": -0.7645284804,
				"element": "C" 
			},
			{
				"x": 1.4042112908,
				"y": -0.828708034,
				"z": 0.0906494425,
				"element": "O" 
			},
			{
				"x": 0.0059608625,
				"y": 0.8009941339,
				"z": -0.6660648828,
				"element": "O" 
			},
			{
				"x": -0.7777589244,
				"y": 0.7520205377,
				"z": 0.5043356121,
				"element": "C" 
			},
			{
				"x": -2.0002655354,
				"y": 0.0728676136,
				"z": 0.4619677988,
				"element": "C" 
			},
			{
				"x": -2.4256813592,
				"y": -0.6515792348,
				"z": -0.7955857495,
				"element": "C" 
			},
			{
				"x": -2.8175775943,
				"y": 0.0822203338,
				"z": 1.6114671325,
				"element": "C" 
			},
			{
				"x": -4.1457578541,
				"y": -0.6398351889,
				"z": 1.6724605262,
				"element": "C" 
			},
			{
				"x": -2.3789404227,
				"y": 0.7853272028,
				"z": 2.7449571525,
				"element": "C" 
			},
			{
				"x": -3.1193092398,
				"y": 0.8498199702,
				"z": 3.8955447002,
				"element": "O" 
			},
			{
				"x": -1.1584899548,
				"y": 1.4618432369,
				"z": 2.7528492858,
				"element": "C" 
			},
			{
				"x": -0.3332264122,
				"y": 1.4546604084,
				"z": 1.6313309904,
				"element": "C" 
			},
			{
				"x": 0.9922598971,
				"y": 2.1730373687,
				"z": 1.6315203053,
				"element": "C" 
			},
			{
				"x": 2.1135731573,
				"y": 1.2118970271,
				"z": -2.1680853949,
				"element": "H" 
			},
			{
				"x": 1.0936988165,
				"y": -0.0160761947,
				"z": -2.9129083444,
				"element": "H" 
			},
			{
				"x": 2.6384719994,
				"y": -0.4979814858,
				"z": -2.1521248472,
				"element": "H" 
			},
			{
				"x": -2.4289889272,
				"y": -1.738536918,
				"z": -0.6512396846,
				"element": "H" 
			},
			{
				"x": -1.750641265,
				"y": -0.4274029939,
				"z": -1.6213436808,
				"element": "H" 
			},
			{
				"x": -3.4344308215,
				"y": -0.3597044757,
				"z": -1.1053850923,
				"element": "H" 
			},
			{
				"x": -4.1792807423,
				"y": -1.3518393383,
				"z": 2.5090401452,
				"element": "H" 
			},
			{
				"x": -4.3441819413,
				"y": -1.2154924453,
				"z": 0.7688442752,
				"element": "H" 
			},
			{
				"x": -4.987305312,
				"y": 0.0562100603,
				"z": 1.79831866,
				"element": "H" 
			},
			{
				"x": -3.9415354473,
				"y": 0.3590057681,
				"z": 3.7779020417,
				"element": "H" 
			},
			{
				"x": -0.8655210333,
				"y": 1.9922045513,
				"z": 3.6532484339,
				"element": "H" 
			},
			{
				"x": 1.8221116723,
				"y": 1.4576433329,
				"z": 1.6190650203,
				"element": "H" 
			},
			{
				"x": 1.0959939672,
				"y": 2.7961483338,
				"z": 2.5231057146,
				"element": "H" 
			},
			{
				"x": 1.0988368771,
				"y": 2.8137765849,
				"z": 0.7499485215,
				"element": "H" 
			}
		],
		 "valence_orbital": [ 
			{
				"type": "occ",
				"energy": -0.30984,
				"method": "rhf"
			},
			{
				"type": "occ",
				"energy": -0.30302,
				"method": "rhf"
			},
			{
				"type": "occ",
				"energy": -0.27157,
				"method": "rhf"
			},
			{
				"type": "occ",
				"energy": -0.23242,
				"method": "rhf"
			},
			{
				"type": "occ",
				"energy": -0.2092,
				"method": "rhf"
			},
			{
				"type": "unocc",
				"energy": 0.00202,
				"method": "rhf"
			},
			{
				"type": "unocc",
				"energy": 0.00953,
				"method": "rhf"
			},
			{
				"type": "unocc",
				"energy": 0.02021,
				"method": "rhf"
			},
			{
				"type": "unocc",
				"energy": 0.06603,
				"method": "rhf"
			},
			{
				"type": "unocc",
				"energy": 0.09232,
				"method": "rhf"
			}
		],
		"cosmo_sigma_profile": { 
			"-0.025": 0.0,
			"-0.024": 0.0,
			"-0.023": 0.0,
			"-0.022": 0.0,
			"-0.021": 0.0,
			"-0.02": 0.0,
			"-0.019": 0.0,
			"-0.018": 0.0,
			"-0.017": 0.0,
			"-0.016": 0.142309704628,
			"-0.015": 0.991428335321,
			"-0.014": 0.768690656608,
			"-0.013": 0.781687505019,
			"-0.012": 1.15037449868,
			"-0.011": 0.984951182811,
			"-0.01": 0.920858218868,
			"-0.009": 1.6708532823,
			"-0.008": 1.33862727254,
			"-0.007": 2.49252011309,
			"-0.006": 7.6457512465,
			"-0.005": 14.6911191429,
			"-0.004": 24.1639640146,
			"-0.003": 24.2744925481,
			"-0.002": 25.6941081491,
			"-0.001": 24.3555311387,
			"0.0": 23.0912791181,
			"0.001": 12.2755281002,
			"0.002": 8.06954720591,
			"0.003": 10.1317429661,
			"0.004": 11.1136999944,
			"0.005": 12.0802539082,
			"0.006": 6.33100189808,
			"0.007": 3.66681795779,
			"0.008": 3.53300976806,
			"0.009": 4.73408155529,
			"0.01": 3.34150821236,
			"0.011": 6.18098569185,
			"0.012": 5.3642399226,
			"0.013": 0.848828927305,
			"0.014": 0.0,
			"0.015": 0.0,
			"0.016": 0.0,
			"0.017": 0.0,
			"0.018": 0.0,
			"0.019": 0.0,
			"0.02": 0.0,
			"0.021": 0.0,
			"0.022": 0.0,
			"0.023": 0.0,
			"0.024": 0.0,
			"0.025": 0.0
		}
	}
}
