{
	 "smiles": "NC1=C(C=CN=C1)C(F)(F)F", 
	 "Tm": 328.65, 
	 "num_atms": 16, 
	 "gaussian": { 
		 "optdone": 1, 
		 "sigma_profile": "yes", 
		 "theory": "DFT", 
		 "functional": "B3LYP", 
		 "basiset": "6-31G**", 
		 "properties": { 
			 "R2extent": 1669.3429, 
			 "electric_dipole_moment_norm": 1.79782490805, 
			 "electric_quadrupole_moment_norm": 14.279984473, 
			 "total_energy": -640.677603562, 
			 "HOMO_LUMO_gap": 0.18596, 
			 "cosmo_polarized_energy": -8.93, 
			 "cosmo_cavitation_energy": 21.26, 
			 "cosmo_dispersion_energy": -15.61, 
			 "cosmo_repulsion_energy": 1.19, 
			 "cosmo_total_nonelectrostatic_energy": 6.83, 
			 "SMD_solvation_energy": 3.39 
		},
		"coords": [
			{
				"x": 2.1867322749,
				"y": -0.6484432985,
				"z": 1.0007690676,
				"element": "N" 
			},
			{
				"x": 1.0922271722,
				"y": -0.5362719895,
				"z": 0.1657699514,
				"element": "C" 
			},
			{
				"x": 0.0869550914,
				"y": 0.4393730883,
				"z": 0.3351658841,
				"element": "C" 
			},
			{
				"x": -1.0048493138,
				"y": 0.4421834662,
				"z": -0.5334744207,
				"element": "C" 
			},
			{
				"x": -1.0791298734,
				"y": -0.5131265196,
				"z": -1.542290237,
				"element": "C" 
			},
			{
				"x": -0.1359827161,
				"y": -1.449983692,
				"z": -1.717973521,
				"element": "N" 
			},
			{
				"x": 0.904804141,
				"y": -1.4519271246,
				"z": -0.8930622528,
				"element": "C" 
			},
			{
				"x": 0.1679863339,
				"y": 1.4340632133,
				"z": 1.457669214,
				"element": "C" 
			},
			{
				"x": 1.3762279637,
				"y": 2.0716664191,
				"z": 1.4750319798,
				"element": "F" 
			},
			{
				"x": 0.0405469803,
				"y": 0.8446166763,
				"z": 2.6670522621,
				"element": "F" 
			},
			{
				"x": -0.7769604456,
				"y": 2.3877145249,
				"z": 1.3707050492,
				"element": "F" 
			},
			{
				"x": 2.9498835295,
				"y": -1.2105682928,
				"z": 0.6534534485,
				"element": "H" 
			},
			{
				"x": 2.4818034484,
				"y": 0.1852335599,
				"z": 1.4864793039,
				"element": "H" 
			},
			{
				"x": -1.7836383123,
				"y": 1.1869890944,
				"z": -0.4181165721,
				"element": "H" 
			},
			{
				"x": -1.9186681708,
				"y": -0.5293622929,
				"z": -2.2323140888,
				"element": "H" 
			},
			{
				"x": 1.6577618967,
				"y": -2.2234568325,
				"z": -1.0582650683,
				"element": "H" 
			}
		],
		 "valence_orbital": [ 
			{
				"type": "occ",
				"energy": -0.38365,
				"method": "rhf"
			},
			{
				"type": "occ",
				"energy": -0.34409,
				"method": "rhf"
			},
			{
				"type": "occ",
				"energy": -0.29147,
				"method": "rhf"
			},
			{
				"type": "occ",
				"energy": -0.26089,
				"method": "rhf"
			},
			{
				"type": "occ",
				"energy": -0.22575,
				"method": "rhf"
			},
			{
				"type": "unocc",
				"energy": -0.03979,
				"method": "rhf"
			},
			{
				"type": "unocc",
				"energy": -0.00657,
				"method": "rhf"
			},
			{
				"type": "unocc",
				"energy": 0.075,
				"method": "rhf"
			},
			{
				"type": "unocc",
				"energy": 0.11285,
				"method": "rhf"
			},
			{
				"type": "unocc",
				"energy": 0.11744,
				"method": "rhf"
			}
		],
		"cosmo_sigma_profile": { 
			"-0.025": 0.0,
			"-0.024": 0.0,
			"-0.023": 0.0,
			"-0.022": 0.0,
			"-0.021": 0.0,
			"-0.02": 0.0,
			"-0.019": 0.0,
			"-0.018": 0.0,
			"-0.017": 0.0,
			"-0.016": 0.0,
			"-0.015": 0.0,
			"-0.014": 0.834157668058,
			"-0.013": 1.46700155086,
			"-0.012": 2.50737863433,
			"-0.011": 2.91896582624,
			"-0.01": 2.41980307255,
			"-0.009": 1.73295654549,
			"-0.008": 3.15503716657,
			"-0.007": 4.47432560385,
			"-0.006": 6.64456730702,
			"-0.005": 6.8688214207,
			"-0.004": 6.45939273912,
			"-0.003": 7.36339206654,
			"-0.002": 8.3939060297,
			"-0.001": 9.27355861708,
			"0.0": 12.5477324876,
			"0.001": 19.2268904839,
			"0.002": 29.5785585586,
			"0.003": 20.5788948175,
			"0.004": 4.34789715689,
			"0.005": 4.05896684588,
			"0.006": 1.7694470889,
			"0.007": 2.12090365553,
			"0.008": 2.20018644967,
			"0.009": 2.35530467616,
			"0.01": 1.57574020713,
			"0.011": 0.868667926921,
			"0.012": 1.13159853058,
			"0.013": 1.21709291293,
			"0.014": 0.746037255462,
			"0.015": 0.734151411692,
			"0.016": 0.877334817891,
			"0.017": 0.118402122759,
			"0.018": 0.0,
			"0.019": 0.0,
			"0.02": 0.0,
			"0.021": 0.0,
			"0.022": 0.0,
			"0.023": 0.0,
			"0.024": 0.0,
			"0.025": 0.0
		}
	}
}
