{
	 "smiles": "COC1=C(OC)C(CC=C)=CC(=C1)C(O)=O", 
	 "Tm": 398.15, 
	 "num_atms": 30, 
	 "gaussian": { 
		 "optdone": 1, 
		 "sigma_profile": "yes", 
		 "theory": "DFT", 
		 "functional": "B3LYP", 
		 "basiset": "6-31G**", 
		 "properties": { 
			 "R2extent": 4942.4915, 
			 "electric_dipole_moment_norm": 5.47482877266, 
			 "electric_quadrupole_moment_norm": 18.2542264561, 
			 "total_energy": -766.565115286, 
			 "HOMO_LUMO_gap": 0.1966, 
			 "cosmo_polarized_energy": -15.91, 
			 "cosmo_cavitation_energy": 35.14, 
			 "cosmo_dispersion_energy": -23.28, 
			 "cosmo_repulsion_energy": 1.85, 
			 "cosmo_total_nonelectrostatic_energy": 13.7, 
			 "SMD_solvation_energy": 8.94 
		},
		"coords": [
			{
				"x": -1.7055395929,
				"y": -2.0127778981,
				"z": 0.8047701291,
				"element": "C" 
			},
			{
				"x": -0.3712943965,
				"y": -2.4313191754,
				"z": 1.1290752609,
				"element": "O" 
			},
			{
				"x": 0.6047834912,
				"y": -1.4934692312,
				"z": 0.8808489254,
				"element": "C" 
			},
			{
				"x": 0.9585423366,
				"y": -1.1292663729,
				"z": -0.4339967728,
				"element": "C" 
			},
			{
				"x": 0.3271897956,
				"y": -1.6875129481,
				"z": -1.517525166,
				"element": "O" 
			},
			{
				"x": 0.533049237,
				"y": -3.0973027442,
				"z": -1.6988269857,
				"element": "C" 
			},
			{
				"x": 1.9383949199,
				"y": -0.1433389073,
				"z": -0.6557981914,
				"element": "C" 
			},
			{
				"x": 2.2662491999,
				"y": 0.3058341383,
				"z": -2.0684662226,
				"element": "C" 
			},
			{
				"x": 1.3401266354,
				"y": 1.4014566735,
				"z": -2.5475885988,
				"element": "C" 
			},
			{
				"x": 0.5303301662,
				"y": 1.3062208937,
				"z": -3.6011342737,
				"element": "C" 
			},
			{
				"x": 2.5728608819,
				"y": 0.4303988869,
				"z": 0.4472510486,
				"element": "C" 
			},
			{
				"x": 2.2701060276,
				"y": 0.0338456389,
				"z": 1.7547122683,
				"element": "C" 
			},
			{
				"x": 1.2661465276,
				"y": -0.9201223099,
				"z": 1.9643326514,
				"element": "C" 
			},
			{
				"x": 3.0147042718,
				"y": 0.691564033,
				"z": 2.8746854375,
				"element": "C" 
			},
			{
				"x": 3.0094554931,
				"y": 0.0464956884,
				"z": 4.0735832811,
				"element": "O" 
			},
			{
				"x": 3.6046914681,
				"y": 1.7405148183,
				"z": 2.7581620317,
				"element": "O" 
			},
			{
				"x": -1.9916042494,
				"y": -1.139854518,
				"z": 1.4038400601,
				"element": "H" 
			},
			{
				"x": -1.8007273203,
				"y": -1.772495714,
				"z": -0.25835921,
				"element": "H" 
			},
			{
				"x": -2.3564135343,
				"y": -2.8524883785,
				"z": 1.0552066843,
				"element": "H" 
			},
			{
				"x": 1.5962820241,
				"y": -3.3133658889,
				"z": -1.8585713644,
				"element": "H" 
			},
			{
				"x": -0.0292140357,
				"y": -3.3705704283,
				"z": -2.5934777601,
				"element": "H" 
			},
			{
				"x": 0.1697410087,
				"y": -3.6680651188,
				"z": -0.8402876916,
				"element": "H" 
			},
			{
				"x": 3.3000582576,
				"y": 0.6738301418,
				"z": -2.0823237782,
				"element": "H" 
			},
			{
				"x": 2.2072827467,
				"y": -0.5429144672,
				"z": -2.755013049,
				"element": "H" 
			},
			{
				"x": 1.3561787974,
				"y": 2.3205408952,
				"z": -1.9616032929,
				"element": "H" 
			},
			{
				"x": -0.1116426671,
				"y": 2.1290035032,
				"z": -3.9018660234,
				"element": "H" 
			},
			{
				"x": 0.4784657479,
				"y": 0.4001500362,
				"z": -4.1996271149,
				"element": "H" 
			},
			{
				"x": 3.3356242253,
				"y": 1.1897395929,
				"z": 0.3072939708,
				"element": "H" 
			},
			{
				"x": 0.9359604604,
				"y": -1.2138300918,
				"z": 2.9570271427,
				"element": "H" 
			},
			{
				"x": 2.6455120764,
				"y": -0.8435007477,
				"z": 3.9693766034,
				"element": "H" 
			}
		],
		 "valence_orbital": [ 
			{
				"type": "occ",
				"energy": -0.28183,
				"method": "rhf"
			},
			{
				"type": "occ",
				"energy": -0.26809,
				"method": "rhf"
			},
			{
				"type": "occ",
				"energy": -0.26168,
				"method": "rhf"
			},
			{
				"type": "occ",
				"energy": -0.25093,
				"method": "rhf"
			},
			{
				"type": "occ",
				"energy": -0.2427,
				"method": "rhf"
			},
			{
				"type": "unocc",
				"energy": -0.0461,
				"method": "rhf"
			},
			{
				"type": "unocc",
				"energy": -0.01915,
				"method": "rhf"
			},
			{
				"type": "unocc",
				"energy": 0.02265,
				"method": "rhf"
			},
			{
				"type": "unocc",
				"energy": 0.0516,
				"method": "rhf"
			},
			{
				"type": "unocc",
				"energy": 0.06434,
				"method": "rhf"
			}
		],
		"cosmo_sigma_profile": { 
			"-0.025": 0.0,
			"-0.024": 0.0,
			"-0.023": 0.0,
			"-0.022": 0.0,
			"-0.021": 0.0,
			"-0.02": 0.0,
			"-0.019": 0.163981336595,
			"-0.018": 0.858852227086,
			"-0.017": 1.28559989812,
			"-0.016": 0.599719725497,
			"-0.015": 0.458891068709,
			"-0.014": 0.894744531589,
			"-0.013": 1.31000203542,
			"-0.012": 1.6505043504,
			"-0.011": 0.992042184069,
			"-0.01": 0.951511683649,
			"-0.009": 0.945538114875,
			"-0.008": 1.2582752958,
			"-0.007": 1.80599927396,
			"-0.006": 6.62863728826,
			"-0.005": 17.1855718255,
			"-0.004": 24.2001025931,
			"-0.003": 33.9096159604,
			"-0.002": 28.2898124915,
			"-0.001": 24.6047483723,
			"0.0": 18.5249941814,
			"0.001": 15.2074914817,
			"0.002": 18.564555525,
			"0.003": 14.4119596413,
			"0.004": 8.40562648701,
			"0.005": 9.87191662408,
			"0.006": 13.309484914,
			"0.007": 5.251544755,
			"0.008": 4.55847557924,
			"0.009": 3.72041543577,
			"0.01": 5.38555901196,
			"0.011": 6.37780745663,
			"0.012": 5.47412906427,
			"0.013": 1.81325865793,
			"0.014": 0.102675801904,
			"0.015": 0.0,
			"0.016": 0.0,
			"0.017": 0.0,
			"0.018": 0.0,
			"0.019": 0.0,
			"0.02": 0.0,
			"0.021": 0.0,
			"0.022": 0.0,
			"0.023": 0.0,
			"0.024": 0.0,
			"0.025": 0.0
		}
	}
}
