{
	 "smiles": "CCS(=O)(=O)N1CCC(CC1)(C(O)=O)C1=CC=CC=C1", 
	 "Tm": 477.15, 
	 "num_atms": 39, 
	 "gaussian": { 
		 "optdone": 1, 
		 "sigma_profile": "yes", 
		 "theory": "DFT", 
		 "functional": "B3LYP", 
		 "basiset": "6-31G**", 
		 "properties": { 
			 "R2extent": 7245.1157, 
			 "electric_dipole_moment_norm": 4.17478269854, 
			 "electric_quadrupole_moment_norm": 16.46010589, 
			 "total_energy": -1298.72742162, 
			 "HOMO_LUMO_gap": 0.22873, 
			 "cosmo_polarized_energy": -19.39, 
			 "cosmo_cavitation_energy": 40.43, 
			 "cosmo_dispersion_energy": -28.22, 
			 "cosmo_repulsion_energy": 2.08, 
			 "cosmo_total_nonelectrostatic_energy": 14.29, 
			 "SMD_solvation_energy": 6.46 
		},
		"coords": [
			{
				"x": -1.3325815343,
				"y": 1.1241601351,
				"z": -3.0999213878,
				"element": "C" 
			},
			{
				"x": 0.1601259103,
				"y": 1.3616958653,
				"z": -2.9054237634,
				"element": "C" 
			},
			{
				"x": 1.1056428797,
				"y": -0.1457563025,
				"z": -2.5439743415,
				"element": "S" 
			},
			{
				"x": 2.5173968698,
				"y": 0.2490407416,
				"z": -2.4282329356,
				"element": "O" 
			},
			{
				"x": 0.7023950746,
				"y": -1.1949553674,
				"z": -3.4879484436,
				"element": "O" 
			},
			{
				"x": 0.4922363315,
				"y": -0.6145710377,
				"z": -1.0271491342,
				"element": "N" 
			},
			{
				"x": 1.0763532702,
				"y": 0.0619814416,
				"z": 0.1434001067,
				"element": "C" 
			},
			{
				"x": 0.0540757969,
				"y": 0.0341756251,
				"z": 1.2990553562,
				"element": "C" 
			},
			{
				"x": -0.8698040189,
				"y": -1.2194382035,
				"z": 1.2397447061,
				"element": "C" 
			},
			{
				"x": -0.0632011777,
				"y": -2.3767216525,
				"z": 0.6126211332,
				"element": "C" 
			},
			{
				"x": 0.3619158589,
				"y": -2.079611745,
				"z": -0.8408202012,
				"element": "C" 
			},
			{
				"x": -2.10456567,
				"y": -0.8983418628,
				"z": 0.3811807707,
				"element": "C" 
			},
			{
				"x": -2.6733642457,
				"y": -2.0115698402,
				"z": -0.1342742014,
				"element": "O" 
			},
			{
				"x": -2.5822138386,
				"y": 0.2047213077,
				"z": 0.208511629,
				"element": "O" 
			},
			{
				"x": -1.4053446071,
				"y": -1.5388988141,
				"z": 2.651204938,
				"element": "C" 
			},
			{
				"x": -1.0753321811,
				"y": -2.7177025242,
				"z": 3.3318654484,
				"element": "C" 
			},
			{
				"x": -1.5470595044,
				"y": -2.9524872355,
				"z": 4.6259647122,
				"element": "C" 
			},
			{
				"x": -2.3600284413,
				"y": -2.0156570905,
				"z": 5.2616916815,
				"element": "C" 
			},
			{
				"x": -2.7000691731,
				"y": -0.8389546514,
				"z": 4.5914247741,
				"element": "C" 
			},
			{
				"x": -2.2281660349,
				"y": -0.6035689891,
				"z": 3.3011967388,
				"element": "C" 
			},
			{
				"x": -1.8051913943,
				"y": 2.0545082447,
				"z": -3.4301646881,
				"element": "H" 
			},
			{
				"x": -1.5038439737,
				"y": 0.3613405056,
				"z": -3.8633151731,
				"element": "H" 
			},
			{
				"x": -1.8073205755,
				"y": 0.8131856359,
				"z": -2.166928464,
				"element": "H" 
			},
			{
				"x": 0.6440805856,
				"y": 1.7416094528,
				"z": -3.8107196315,
				"element": "H" 
			},
			{
				"x": 0.3737244962,
				"y": 2.0642178387,
				"z": -2.0951461554,
				"element": "H" 
			},
			{
				"x": 2.0225588787,
				"y": -0.4173340142,
				"z": 0.432187835,
				"element": "H" 
			},
			{
				"x": 1.3234077433,
				"y": 1.092816962,
				"z": -0.1183348392,
				"element": "H" 
			},
			{
				"x": -0.5732296943,
				"y": 0.9273830485,
				"z": 1.2716845206,
				"element": "H" 
			},
			{
				"x": 0.5933296251,
				"y": 0.0332918784,
				"z": 2.2507718342,
				"element": "H" 
			},
			{
				"x": -0.6345901645,
				"y": -3.3071381668,
				"z": 0.6222767904,
				"element": "H" 
			},
			{
				"x": 0.824764402,
				"y": -2.5354791025,
				"z": 1.2337783648,
				"element": "H" 
			},
			{
				"x": 1.3032458921,
				"y": -2.6029679523,
				"z": -1.0571072184,
				"element": "H" 
			},
			{
				"x": -0.3874985728,
				"y": -2.4391634305,
				"z": -1.5455268445,
				"element": "H" 
			},
			{
				"x": -3.4651257105,
				"y": -1.7142112666,
				"z": -0.613543036,
				"element": "H" 
			},
			{
				"x": -0.4460829363,
				"y": -3.466225564,
				"z": 2.8642174908,
				"element": "H" 
			},
			{
				"x": -1.2762724925,
				"y": -3.8739349431,
				"z": 5.1337013506,
				"element": "H" 
			},
			{
				"x": -2.7270987051,
				"y": -2.2004027363,
				"z": 6.2670144742,
				"element": "H" 
			},
			{
				"x": -3.3367101947,
				"y": -0.1014802928,
				"z": 5.0720058297,
				"element": "H" 
			},
			{
				"x": -2.5105587736,
				"y": 0.3096441022,
				"z": 2.7866299736,
				"element": "H" 
			}
		],
		 "valence_orbital": [ 
			{
				"type": "occ",
				"energy": -0.2891,
				"method": "rhf"
			},
			{
				"type": "occ",
				"energy": -0.28405,
				"method": "rhf"
			},
			{
				"type": "occ",
				"energy": -0.25736,
				"method": "rhf"
			},
			{
				"type": "occ",
				"energy": -0.25273,
				"method": "rhf"
			},
			{
				"type": "occ",
				"energy": -0.24771,
				"method": "rhf"
			},
			{
				"type": "unocc",
				"energy": -0.01898,
				"method": "rhf"
			},
			{
				"type": "unocc",
				"energy": -0.01053,
				"method": "rhf"
			},
			{
				"type": "unocc",
				"energy": 0.01128,
				"method": "rhf"
			},
			{
				"type": "unocc",
				"energy": 0.05236,
				"method": "rhf"
			},
			{
				"type": "unocc",
				"energy": 0.07158,
				"method": "rhf"
			}
		],
		"cosmo_sigma_profile": { 
			"-0.025": 0.0,
			"-0.024": 0.0,
			"-0.023": 0.0,
			"-0.022": 0.0,
			"-0.021": 0.0,
			"-0.02": 0.0,
			"-0.019": 0.0792164267548,
			"-0.018": 0.78194358382,
			"-0.017": 0.793589573552,
			"-0.016": 0.825152545459,
			"-0.015": 0.986180041492,
			"-0.014": 0.987991711581,
			"-0.013": 0.509093576064,
			"-0.012": 0.388999629696,
			"-0.011": 0.847152000048,
			"-0.01": 0.815961304388,
			"-0.009": 1.81265394098,
			"-0.008": 4.66225173168,
			"-0.007": 5.47779762346,
			"-0.006": 11.6539558316,
			"-0.005": 28.9057369585,
			"-0.004": 36.6857208875,
			"-0.003": 31.1782168299,
			"-0.002": 21.4458020935,
			"-0.001": 19.6081435543,
			"0.0": 21.9246108521,
			"0.001": 16.4496881453,
			"0.002": 13.8600414339,
			"0.003": 13.3240743946,
			"0.004": 15.6127254314,
			"0.005": 15.7057203766,
			"0.006": 9.0606082442,
			"0.007": 5.88613603428,
			"0.008": 4.64881818037,
			"0.009": 4.75892804573,
			"0.01": 5.37390090991,
			"0.011": 12.84764093,
			"0.012": 8.60924081984,
			"0.013": 0.80329639041,
			"0.014": 0.0,
			"0.015": 0.0,
			"0.016": 0.0,
			"0.017": 0.0,
			"0.018": 0.0,
			"0.019": 0.0,
			"0.02": 0.0,
			"0.021": 0.0,
			"0.022": 0.0,
			"0.023": 0.0,
			"0.024": 0.0,
			"0.025": 0.0
		}
	}
}
