{
	 "smiles": "COC1=CC=C(CC(=O)NN)C=C1", 
	 "Tm": 406.15, 
	 "num_atms": 25, 
	 "gaussian": { 
		 "optdone": 1, 
		 "sigma_profile": "yes", 
		 "theory": "DFT", 
		 "functional": "B3LYP", 
		 "basiset": "6-31G**", 
		 "properties": { 
			 "R2extent": 4015.1895, 
			 "electric_dipole_moment_norm": 3.76164200716, 
			 "electric_quadrupole_moment_norm": 10.2180710259, 
			 "total_energy": -610.113883156, 
			 "HOMO_LUMO_gap": 0.20773, 
			 "cosmo_polarized_energy": -14.13, 
			 "cosmo_cavitation_energy": 29.12, 
			 "cosmo_dispersion_energy": -20.88, 
			 "cosmo_repulsion_energy": 1.69, 
			 "cosmo_total_nonelectrostatic_energy": 9.92, 
			 "SMD_solvation_energy": 6.73 
		},
		"coords": [
			{
				"x": -1.3022183618,
				"y": 2.6132611684,
				"z": 1.3998229426,
				"element": "C" 
			},
			{
				"x": -1.7401098105,
				"y": 1.7999160138,
				"z": 0.3226213403,
				"element": "O" 
			},
			{
				"x": -0.8124796229,
				"y": 1.0520824689,
				"z": -0.3408708452,
				"element": "C" 
			},
			{
				"x": -1.3021970476,
				"y": 0.2716604102,
				"z": -1.3996398729,
				"element": "C" 
			},
			{
				"x": -0.4359945888,
				"y": -0.5228908661,
				"z": -2.1390207209,
				"element": "C" 
			},
			{
				"x": 0.9403491567,
				"y": -0.5697392858,
				"z": -1.8531370164,
				"element": "C" 
			},
			{
				"x": 1.8728668944,
				"y": -1.4511448764,
				"z": -2.6529030283,
				"element": "C" 
			},
			{
				"x": 2.0404390541,
				"y": -2.9099660163,
				"z": -2.1986302937,
				"element": "C" 
			},
			{
				"x": 2.6796522422,
				"y": -3.7183937468,
				"z": -2.8617614705,
				"element": "O" 
			},
			{
				"x": 1.4571035715,
				"y": -3.2452207219,
				"z": -1.0122511926,
				"element": "N" 
			},
			{
				"x": 1.4632850265,
				"y": -4.5731281498,
				"z": -0.5401066404,
				"element": "N" 
			},
			{
				"x": 1.4095178274,
				"y": 0.2148117362,
				"z": -0.7944559562,
				"element": "C" 
			},
			{
				"x": 0.5537961682,
				"y": 1.0214691329,
				"z": -0.0385359604,
				"element": "C" 
			},
			{
				"x": -2.193101968,
				"y": 3.1155075226,
				"z": 1.7796933593,
				"element": "H" 
			},
			{
				"x": -0.5765365047,
				"y": 3.3675008297,
				"z": 1.0691550928,
				"element": "H" 
			},
			{
				"x": -0.8554401256,
				"y": 2.0146929569,
				"z": 2.2042051156,
				"element": "H" 
			},
			{
				"x": -2.3630620507,
				"y": 0.3109060735,
				"z": -1.6243034264,
				"element": "H" 
			},
			{
				"x": -0.8318351647,
				"y": -1.1166864614,
				"z": -2.9594720522,
				"element": "H" 
			},
			{
				"x": 1.5569324313,
				"y": -1.5064724512,
				"z": -3.6999067915,
				"element": "H" 
			},
			{
				"x": 2.884054767,
				"y": -1.0287913508,
				"z": -2.6679647666,
				"element": "H" 
			},
			{
				"x": 0.8101147616,
				"y": -2.6200589535,
				"z": -0.5557387446,
				"element": "H" 
			},
			{
				"x": 1.3154957177,
				"y": -5.1734677591,
				"z": -1.3526496154,
				"element": "H" 
			},
			{
				"x": 2.4137250632,
				"y": -4.7814416642,
				"z": -0.2332246389,
				"element": "H" 
			},
			{
				"x": 2.4693882237,
				"y": 0.2044798776,
				"z": -0.5515237359,
				"element": "H" 
			},
			{
				"x": 0.9612543395,
				"y": 1.6172141125,
				"z": 0.7695989184,
				"element": "H" 
			}
		],
		 "valence_orbital": [ 
			{
				"type": "occ",
				"energy": -0.27795,
				"method": "rhf"
			},
			{
				"type": "occ",
				"energy": -0.26092,
				"method": "rhf"
			},
			{
				"type": "occ",
				"energy": -0.25223,
				"method": "rhf"
			},
			{
				"type": "occ",
				"energy": -0.24947,
				"method": "rhf"
			},
			{
				"type": "occ",
				"energy": -0.21918,
				"method": "rhf"
			},
			{
				"type": "unocc",
				"energy": -0.01145,
				"method": "rhf"
			},
			{
				"type": "unocc",
				"energy": 0.00075,
				"method": "rhf"
			},
			{
				"type": "unocc",
				"energy": 0.03397,
				"method": "rhf"
			},
			{
				"type": "unocc",
				"energy": 0.08414,
				"method": "rhf"
			},
			{
				"type": "unocc",
				"energy": 0.09494,
				"method": "rhf"
			}
		],
		"cosmo_sigma_profile": { 
			"-0.025": 0.0,
			"-0.024": 0.0,
			"-0.023": 0.0,
			"-0.022": 0.0,
			"-0.021": 0.0,
			"-0.02": 0.0,
			"-0.019": 0.0,
			"-0.018": 0.0,
			"-0.017": 0.0,
			"-0.016": 0.0,
			"-0.015": 0.0,
			"-0.014": 0.0,
			"-0.013": 0.0,
			"-0.012": 0.218819027948,
			"-0.011": 2.13531628109,
			"-0.01": 3.24043460718,
			"-0.009": 2.27078319754,
			"-0.008": 3.39980412133,
			"-0.007": 2.74427103247,
			"-0.006": 16.1395809717,
			"-0.005": 25.3256909719,
			"-0.004": 20.8633745739,
			"-0.003": 22.219428552,
			"-0.002": 14.2384863029,
			"-0.001": 14.454648051,
			"0.0": 12.1069496383,
			"0.001": 9.39452607755,
			"0.002": 10.7853177106,
			"0.003": 13.6787937603,
			"0.004": 12.3775167068,
			"0.005": 8.9315109906,
			"0.006": 4.40769328263,
			"0.007": 3.78779300184,
			"0.008": 3.53310599056,
			"0.009": 2.22820756078,
			"0.01": 3.45554662859,
			"0.011": 2.99718388172,
			"0.012": 2.65779180433,
			"0.013": 3.18756598086,
			"0.014": 5.95610364943,
			"0.015": 2.13726681656,
			"0.016": 0.500193570702,
			"0.017": 0.384461512943,
			"0.018": 0.0,
			"0.019": 0.0,
			"0.02": 0.0,
			"0.021": 0.0,
			"0.022": 0.0,
			"0.023": 0.0,
			"0.024": 0.0,
			"0.025": 0.0
		}
	}
}
