{
	 "smiles": "COC1=CC(OCC2=CC=CC=C2)=C(C=O)C=C1OC", 
	 "Tm": 412.65, 
	 "num_atms": 36, 
	 "gaussian": { 
		 "optdone": 1, 
		 "sigma_profile": "yes", 
		 "theory": "DFT", 
		 "functional": "B3LYP", 
		 "basiset": "6-31G**", 
		 "properties": { 
			 "R2extent": 6461.2555, 
			 "electric_dipole_moment_norm": 5.62852929458, 
			 "electric_quadrupole_moment_norm": 15.0445758747, 
			 "total_energy": -920.187691582, 
			 "HOMO_LUMO_gap": 0.16961, 
			 "cosmo_polarized_energy": -17.1, 
			 "cosmo_cavitation_energy": 40.31, 
			 "cosmo_dispersion_energy": -27.12, 
			 "cosmo_repulsion_energy": 2.11, 
			 "cosmo_total_nonelectrostatic_energy": 15.3, 
			 "SMD_solvation_energy": 9.61 
		},
		"coords": [
			{
				"x": -1.2403393746,
				"y": -2.8089896687,
				"z": 0.2927229379,
				"element": "C" 
			},
			{
				"x": -0.6617307184,
				"y": -2.7710641114,
				"z": -1.005631619,
				"element": "O" 
			},
			{
				"x": -0.3904532937,
				"y": -1.5640161864,
				"z": -1.5652003009,
				"element": "C" 
			},
			{
				"x": -0.6268282875,
				"y": -0.3392656563,
				"z": -0.930305906,
				"element": "C" 
			},
			{
				"x": -0.3286987329,
				"y": 0.8690779316,
				"z": -1.5756071664,
				"element": "C" 
			},
			{
				"x": -0.5565142456,
				"y": 2.0848401467,
				"z": -1.0188477975,
				"element": "O" 
			},
			{
				"x": -1.2181929439,
				"y": 2.1863986302,
				"z": 0.2411916768,
				"element": "C" 
			},
			{
				"x": -0.3299423317,
				"y": 1.8765693887,
				"z": 1.430704115,
				"element": "C" 
			},
			{
				"x": 1.032319714,
				"y": 2.1991269726,
				"z": 1.403576606,
				"element": "C" 
			},
			{
				"x": 1.8343104703,
				"y": 1.9573682362,
				"z": 2.5188408469,
				"element": "C" 
			},
			{
				"x": 1.2839853606,
				"y": 1.3988291044,
				"z": 3.6752164548,
				"element": "C" 
			},
			{
				"x": -0.0740465988,
				"y": 1.0789299877,
				"z": 3.7098077065,
				"element": "C" 
			},
			{
				"x": -0.87523644,
				"y": 1.3135095568,
				"z": 2.5902923638,
				"element": "C" 
			},
			{
				"x": 0.2288012133,
				"y": 0.8539757505,
				"z": -2.8768475058,
				"element": "C" 
			},
			{
				"x": 0.5971416738,
				"y": 2.0564279055,
				"z": -3.6457560886,
				"element": "C" 
			},
			{
				"x": 0.5215689092,
				"y": 3.218330128,
				"z": -3.2922241056,
				"element": "O" 
			},
			{
				"x": 0.4592704205,
				"y": -0.3933734832,
				"z": -3.4840512194,
				"element": "C" 
			},
			{
				"x": 0.1626743004,
				"y": -1.5952385855,
				"z": -2.866391635,
				"element": "C" 
			},
			{
				"x": 0.3480517376,
				"y": -2.7788731176,
				"z": -3.5402723659,
				"element": "O" 
			},
			{
				"x": 1.4245932636,
				"y": -3.5918898378,
				"z": -3.0682582582,
				"element": "C" 
			},
			{
				"x": -2.2149760949,
				"y": -2.3062158554,
				"z": 0.3103695644,
				"element": "H" 
			},
			{
				"x": -0.5829166413,
				"y": -2.3513268818,
				"z": 1.041914856,
				"element": "H" 
			},
			{
				"x": -1.3760678562,
				"y": -3.8654599383,
				"z": 0.5271817607,
				"element": "H" 
			},
			{
				"x": -1.0179104075,
				"y": -0.3272773477,
				"z": 0.0759594042,
				"element": "H" 
			},
			{
				"x": -1.5418265781,
				"y": 3.2318347375,
				"z": 0.2756317821,
				"element": "H" 
			},
			{
				"x": -2.1218076979,
				"y": 1.5626705597,
				"z": 0.2549008816,
				"element": "H" 
			},
			{
				"x": 1.4560725295,
				"y": 2.6326760374,
				"z": 0.502861669,
				"element": "H" 
			},
			{
				"x": 2.8908644464,
				"y": 2.2078162944,
				"z": 2.4862333566,
				"element": "H" 
			},
			{
				"x": 1.9102933944,
				"y": 1.2130779472,
				"z": 4.542977098,
				"element": "H" 
			},
			{
				"x": -0.5094990264,
				"y": 0.6424387354,
				"z": 4.6043074607,
				"element": "H" 
			},
			{
				"x": -1.9330664534,
				"y": 1.0599801615,
				"z": 2.62068592,
				"element": "H" 
			},
			{
				"x": 0.9897514309,
				"y": 1.8024326611,
				"z": -4.6592202436,
				"element": "H" 
			},
			{
				"x": 0.8769783318,
				"y": -0.4271197959,
				"z": -4.4868605984,
				"element": "H" 
			},
			{
				"x": 1.2562532936,
				"y": -3.9238333136,
				"z": -2.0387640597,
				"element": "H" 
			},
			{
				"x": 1.4621943056,
				"y": -4.4615860448,
				"z": -3.7276833811,
				"element": "H" 
			},
			{
				"x": 2.3795289274,
				"y": -3.0530810488,
				"z": -3.1264542098,
				"element": "H" 
			}
		],
		 "valence_orbital": [ 
			{
				"type": "occ",
				"energy": -0.25814,
				"method": "rhf"
			},
			{
				"type": "occ",
				"energy": -0.25406,
				"method": "rhf"
			},
			{
				"type": "occ",
				"energy": -0.2447,
				"method": "rhf"
			},
			{
				"type": "occ",
				"energy": -0.2307,
				"method": "rhf"
			},
			{
				"type": "occ",
				"energy": -0.21183,
				"method": "rhf"
			},
			{
				"type": "unocc",
				"energy": -0.04222,
				"method": "rhf"
			},
			{
				"type": "unocc",
				"energy": -0.01251,
				"method": "rhf"
			},
			{
				"type": "unocc",
				"energy": -0.01069,
				"method": "rhf"
			},
			{
				"type": "unocc",
				"energy": 0.00378,
				"method": "rhf"
			},
			{
				"type": "unocc",
				"energy": 0.0568,
				"method": "rhf"
			}
		],
		"cosmo_sigma_profile": { 
			"-0.025": 0.0,
			"-0.024": 0.0,
			"-0.023": 0.0,
			"-0.022": 0.0,
			"-0.021": 0.0,
			"-0.02": 0.0,
			"-0.019": 0.0,
			"-0.018": 0.0,
			"-0.017": 0.0,
			"-0.016": 0.0,
			"-0.015": 0.0,
			"-0.014": 0.0,
			"-0.013": 0.0,
			"-0.012": 0.0,
			"-0.011": 0.0,
			"-0.01": 0.0,
			"-0.009": 0.0,
			"-0.008": 0.771104183405,
			"-0.007": 8.59968417506,
			"-0.006": 21.1542429205,
			"-0.005": 30.8510991599,
			"-0.004": 34.4232980015,
			"-0.003": 30.2510349654,
			"-0.002": 24.82341351,
			"-0.001": 21.1218878006,
			"0.0": 18.4496635074,
			"0.001": 20.0231840527,
			"0.002": 24.097008799,
			"0.003": 18.7691585109,
			"0.004": 13.2726908571,
			"0.005": 12.7722613428,
			"0.006": 7.80281708585,
			"0.007": 3.8235526186,
			"0.008": 3.91280448984,
			"0.009": 3.23188436911,
			"0.01": 4.8665342874,
			"0.011": 5.34864737555,
			"0.012": 5.28988439796,
			"0.013": 3.74960514555,
			"0.014": 2.1609029861,
			"0.015": 1.344804825,
			"0.016": 0.248943408807,
			"0.017": 0.0,
			"0.018": 0.0,
			"0.019": 0.0,
			"0.02": 0.0,
			"0.021": 0.0,
			"0.022": 0.0,
			"0.023": 0.0,
			"0.024": 0.0,
			"0.025": 0.0
		}
	}
}
