{
	 "smiles": "O=S(=O)(N1CCOCC1)C1=CC2=C(NCC2)C=C1", 
	 "Tm": 448.15, 
	 "num_atms": 34, 
	 "gaussian": { 
		 "optdone": 1, 
		 "sigma_profile": "yes", 
		 "theory": "DFT", 
		 "functional": "B3LYP", 
		 "basiset": "6-31G**", 
		 "properties": { 
			 "R2extent": 5652.2173, 
			 "electric_dipole_moment_norm": 6.92661464931, 
			 "electric_quadrupole_moment_norm": 14.5386264509, 
			 "total_energy": -1200.19966972, 
			 "HOMO_LUMO_gap": 0.19199, 
			 "cosmo_polarized_energy": -18.66, 
			 "cosmo_cavitation_energy": 36.59, 
			 "cosmo_dispersion_energy": -26.97, 
			 "cosmo_repulsion_energy": 2.06, 
			 "cosmo_total_nonelectrostatic_energy": 11.67, 
			 "SMD_solvation_energy": 2.68 
		},
		"coords": [
			{
				"x": -2.053760419,
				"y": 1.1908494065,
				"z": 1.3818398604,
				"element": "O" 
			},
			{
				"x": -0.6368204947,
				"y": 0.7989746317,
				"z": 1.3139409982,
				"element": "S" 
			},
			{
				"x": 0.1349652798,
				"y": 0.5951082065,
				"z": 2.545854895,
				"element": "O" 
			},
			{
				"x": 0.2627914937,
				"y": 1.9366941569,
				"z": 0.404745886,
				"element": "N" 
			},
			{
				"x": -0.4323198428,
				"y": 2.4482527326,
				"z": -0.7898412796,
				"element": "C" 
			},
			{
				"x": 0.5678248549,
				"y": 3.2651525846,
				"z": -1.6085505218,
				"element": "C" 
			},
			{
				"x": 1.129339111,
				"y": 4.3202404811,
				"z": -0.8432671297,
				"element": "O" 
			},
			{
				"x": 1.7938703241,
				"y": 3.8181790998,
				"z": 0.3086547118,
				"element": "C" 
			},
			{
				"x": 0.8412619501,
				"y": 3.0336087423,
				"z": 1.2080490313,
				"element": "C" 
			},
			{
				"x": -0.518605766,
				"y": -0.6530963027,
				"z": 0.2900738994,
				"element": "C" 
			},
			{
				"x": 0.7199795851,
				"y": -1.3123563112,
				"z": 0.1773177066,
				"element": "C" 
			},
			{
				"x": 0.7885997991,
				"y": -2.450114908,
				"z": -0.600510651,
				"element": "C" 
			},
			{
				"x": -0.3648928803,
				"y": -2.9429456802,
				"z": -1.2513974475,
				"element": "C" 
			},
			{
				"x": -0.0669056798,
				"y": -4.109137266,
				"z": -1.9390297086,
				"element": "N" 
			},
			{
				"x": 1.3956446698,
				"y": -4.2215482178,
				"z": -2.0838414984,
				"element": "C" 
			},
			{
				"x": 1.9359529139,
				"y": -3.397647745,
				"z": -0.887547493,
				"element": "C" 
			},
			{
				"x": -1.5965570571,
				"y": -2.2937093292,
				"z": -1.1304944881,
				"element": "C" 
			},
			{
				"x": -1.6624443951,
				"y": -1.1389563673,
				"z": -0.3472975465,
				"element": "C" 
			},
			{
				"x": -0.7930362316,
				"y": 1.6030386578,
				"z": -1.3842602021,
				"element": "H" 
			},
			{
				"x": -1.2941642952,
				"y": 3.0717591304,
				"z": -0.5129077617,
				"element": "H" 
			},
			{
				"x": 0.0655248456,
				"y": 3.7296598326,
				"z": -2.4620889494,
				"element": "H" 
			},
			{
				"x": 1.3619777198,
				"y": 2.5994311531,
				"z": -1.9841010317,
				"element": "H" 
			},
			{
				"x": 2.1888639579,
				"y": 4.6860397605,
				"z": 0.8444691153,
				"element": "H" 
			},
			{
				"x": 2.6351405474,
				"y": 3.1708534665,
				"z": 0.0125754133,
				"element": "H" 
			},
			{
				"x": 0.0588642656,
				"y": 3.7071171165,
				"z": 1.5897686995,
				"element": "H" 
			},
			{
				"x": 1.3762368371,
				"y": 2.6019197893,
				"z": 2.0556954525,
				"element": "H" 
			},
			{
				"x": 1.5911985168,
				"y": -0.9235137254,
				"z": 0.6944775756,
				"element": "H" 
			},
			{
				"x": -0.6418658736,
				"y": -4.3587190268,
				"z": -2.7320714658,
				"element": "H" 
			},
			{
				"x": 1.7355321454,
				"y": -3.7848561611,
				"z": -3.0354036053,
				"element": "H" 
			},
			{
				"x": 1.7116674526,
				"y": -5.2678640037,
				"z": -2.0568707627,
				"element": "H" 
			},
			{
				"x": 2.1176131258,
				"y": -4.0485061692,
				"z": -0.022693426,
				"element": "H" 
			},
			{
				"x": 2.8773790627,
				"y": -2.8942185332,
				"z": -1.1233964526,
				"element": "H" 
			},
			{
				"x": -2.4841544322,
				"y": -2.6741978814,
				"z": -1.6267223778,
				"element": "H" 
			},
			{
				"x": -2.6004010909,
				"y": -0.6096913203,
				"z": -0.2196694458,
				"element": "H" 
			}
		],
		 "valence_orbital": [ 
			{
				"type": "occ",
				"energy": -0.28912,
				"method": "rhf"
			},
			{
				"type": "occ",
				"energy": -0.26646,
				"method": "rhf"
			},
			{
				"type": "occ",
				"energy": -0.26011,
				"method": "rhf"
			},
			{
				"type": "occ",
				"energy": -0.24264,
				"method": "rhf"
			},
			{
				"type": "occ",
				"energy": -0.21229,
				"method": "rhf"
			},
			{
				"type": "unocc",
				"energy": -0.0203,
				"method": "rhf"
			},
			{
				"type": "unocc",
				"energy": -0.01482,
				"method": "rhf"
			},
			{
				"type": "unocc",
				"energy": 0.06562,
				"method": "rhf"
			},
			{
				"type": "unocc",
				"energy": 0.07406,
				"method": "rhf"
			},
			{
				"type": "unocc",
				"energy": 0.09308,
				"method": "rhf"
			}
		],
		"cosmo_sigma_profile": { 
			"-0.025": 0.0,
			"-0.024": 0.0,
			"-0.023": 0.0,
			"-0.022": 0.0,
			"-0.021": 0.0,
			"-0.02": 0.0,
			"-0.019": 0.0,
			"-0.018": 0.0,
			"-0.017": 0.0,
			"-0.016": 0.0,
			"-0.015": 0.0,
			"-0.014": 0.157561740068,
			"-0.013": 1.59031910533,
			"-0.012": 1.14983139813,
			"-0.011": 1.28645871315,
			"-0.01": 1.73461183288,
			"-0.009": 1.39258538457,
			"-0.008": 1.24338306516,
			"-0.007": 3.16883741792,
			"-0.006": 11.7468756242,
			"-0.005": 23.7340122717,
			"-0.004": 42.5297819112,
			"-0.003": 34.1476945296,
			"-0.002": 24.8694838039,
			"-0.001": 16.6233248374,
			"0.0": 11.5366046392,
			"0.001": 13.0338657669,
			"0.002": 12.1183256935,
			"0.003": 14.6918566357,
			"0.004": 16.0303781467,
			"0.005": 7.14696440785,
			"0.006": 5.4034500442,
			"0.007": 5.76583602113,
			"0.008": 5.00682701176,
			"0.009": 5.01262694927,
			"0.01": 6.30625327059,
			"0.011": 10.293357612,
			"0.012": 8.20916632472,
			"0.013": 2.10217899936,
			"0.014": 0.0,
			"0.015": 0.0,
			"0.016": 0.0,
			"0.017": 0.0,
			"0.018": 0.0,
			"0.019": 0.0,
			"0.02": 0.0,
			"0.021": 0.0,
			"0.022": 0.0,
			"0.023": 0.0,
			"0.024": 0.0,
			"0.025": 0.0
		}
	}
}
