{
	 "smiles": "COC1=CC(=CC(OC)=C1OC)C(=O)NCC1=CC=C(OCCN(C)C)C=C1", 
	 "Tm": 462.15, 
	 "num_atms": 56, 
	 "gaussian": { 
		 "optdone": 1, 
		 "sigma_profile": "yes", 
		 "theory": "DFT", 
		 "functional": "B3LYP", 
		 "basiset": "6-31G**", 
		 "properties": { 
			 "R2extent": 18468.8803, 
			 "electric_dipole_moment_norm": 3.11611596222, 
			 "electric_quadrupole_moment_norm": 28.7447318895, 
			 "total_energy": -1302.67018351, 
			 "HOMO_LUMO_gap": 0.17449, 
			 "cosmo_polarized_energy": -19.27, 
			 "cosmo_cavitation_energy": 58.7, 
			 "cosmo_dispersion_energy": -39.14, 
			 "cosmo_repulsion_energy": 3.05, 
			 "cosmo_total_nonelectrostatic_energy": 22.6, 
			 "SMD_solvation_energy": 10.66 
		},
		"coords": [
			{
				"x": 2.0213952406,
				"y": 2.5160850307,
				"z": 0.139847848,
				"element": "C" 
			},
			{
				"x": 0.9421629209,
				"y": 1.8857228727,
				"z": 0.8380586061,
				"element": "O" 
			},
			{
				"x": -0.2775804833,
				"y": 2.5081061986,
				"z": 0.7498728634,
				"element": "C" 
			},
			{
				"x": -1.3285854139,
				"y": 1.825723894,
				"z": 0.1314825822,
				"element": "C" 
			},
			{
				"x": -2.6095568397,
				"y": 2.3901653233,
				"z": 0.0841723355,
				"element": "C" 
			},
			{
				"x": -2.8223196909,
				"y": 3.6657868328,
				"z": 0.6216633687,
				"element": "C" 
			},
			{
				"x": -1.7827030192,
				"y": 4.3481820252,
				"z": 1.246686747,
				"element": "C" 
			},
			{
				"x": -2.037266202,
				"y": 5.56525711,
				"z": 1.8362681469,
				"element": "O" 
			},
			{
				"x": -1.4411127681,
				"y": 6.6920006335,
				"z": 1.1821288301,
				"element": "C" 
			},
			{
				"x": -0.5011892795,
				"y": 3.7707182653,
				"z": 1.3258665365,
				"element": "C" 
			},
			{
				"x": 0.5348466878,
				"y": 4.4360730507,
				"z": 1.9403086815,
				"element": "O" 
			},
			{
				"x": 0.4853341277,
				"y": 4.4001638097,
				"z": 3.3740930541,
				"element": "C" 
			},
			{
				"x": -3.7688172843,
				"y": 1.7521256238,
				"z": -0.6302062088,
				"element": "C" 
			},
			{
				"x": -4.5760192449,
				"y": 2.438610963,
				"z": -1.2504384199,
				"element": "O" 
			},
			{
				"x": -3.8930255931,
				"y": 0.3795925241,
				"z": -0.6133355278,
				"element": "N" 
			},
			{
				"x": -3.4052085423,
				"y": -0.5685403939,
				"z": 0.3801525825,
				"element": "C" 
			},
			{
				"x": -2.6122849066,
				"y": -1.7290862927,
				"z": -0.2011032685,
				"element": "C" 
			},
			{
				"x": -2.4089693298,
				"y": -2.8844193799,
				"z": 0.570082564,
				"element": "C" 
			},
			{
				"x": -1.6626613342,
				"y": -3.9501614206,
				"z": 0.0873693237,
				"element": "C" 
			},
			{
				"x": -1.0971020717,
				"y": -3.8943287464,
				"z": -1.1970583643,
				"element": "C" 
			},
			{
				"x": -0.4012070504,
				"y": -5.0077936199,
				"z": -1.5766016963,
				"element": "O" 
			},
			{
				"x": 0.221267435,
				"y": -5.0612987701,
				"z": -2.8619746841,
				"element": "C" 
			},
			{
				"x": 1.6008145878,
				"y": -4.3699829769,
				"z": -2.8436454507,
				"element": "C" 
			},
			{
				"x": 2.3808692145,
				"y": -4.439924918,
				"z": -4.0727328317,
				"element": "N" 
			},
			{
				"x": 1.8292305175,
				"y": -3.6910745966,
				"z": -5.1908097498,
				"element": "C" 
			},
			{
				"x": 2.8157802567,
				"y": -5.7769511079,
				"z": -4.4455291372,
				"element": "C" 
			},
			{
				"x": -1.2953083333,
				"y": -2.7523181062,
				"z": -1.9798665874,
				"element": "C" 
			},
			{
				"x": -2.048460401,
				"y": -1.6860050833,
				"z": -1.4759667866,
				"element": "C" 
			},
			{
				"x": 1.8068909821,
				"y": 2.5755700523,
				"z": -0.9349696988,
				"element": "H" 
			},
			{
				"x": 2.2197926368,
				"y": 3.5174866117,
				"z": 0.5311643084,
				"element": "H" 
			},
			{
				"x": 2.8944368094,
				"y": 1.8790910779,
				"z": 0.2958423798,
				"element": "H" 
			},
			{
				"x": -1.1125993232,
				"y": 0.8585363617,
				"z": -0.3090841182,
				"element": "H" 
			},
			{
				"x": -3.7999427884,
				"y": 4.1281054329,
				"z": 0.550997988,
				"element": "H" 
			},
			{
				"x": -0.349820486,
				"y": 6.6119907568,
				"z": 1.1666491819,
				"element": "H" 
			},
			{
				"x": -1.7378837059,
				"y": 7.5706186999,
				"z": 1.7584470576,
				"element": "H" 
			},
			{
				"x": -1.8178804285,
				"y": 6.7884785628,
				"z": 0.1563405255,
				"element": "H" 
			},
			{
				"x": 1.3510269399,
				"y": 4.9659440115,
				"z": 3.724225537,
				"element": "H" 
			},
			{
				"x": -0.4339583212,
				"y": 4.8651669727,
				"z": 3.7437660138,
				"element": "H" 
			},
			{
				"x": 0.5533319558,
				"y": 3.3681097939,
				"z": 3.7368495109,
				"element": "H" 
			},
			{
				"x": -4.6986347987,
				"y": 0.0850090809,
				"z": -1.1526907081,
				"element": "H" 
			},
			{
				"x": -2.7950549827,
				"y": -0.0175090172,
				"z": 1.1009198128,
				"element": "H" 
			},
			{
				"x": -4.2573694766,
				"y": -0.9671547993,
				"z": 0.9487841,
				"element": "H" 
			},
			{
				"x": -2.8444918307,
				"y": -2.9513165445,
				"z": 1.5649079541,
				"element": "H" 
			},
			{
				"x": -1.5083609587,
				"y": -4.8455273274,
				"z": 0.6807388404,
				"element": "H" 
			},
			{
				"x": -0.4399181829,
				"y": -4.642566601,
				"z": -3.6299825411,
				"element": "H" 
			},
			{
				"x": 0.3326681425,
				"y": -6.1287680411,
				"z": -3.0709020661,
				"element": "H" 
			},
			{
				"x": 2.1851088575,
				"y": -4.823875651,
				"z": -2.0341552341,
				"element": "H" 
			},
			{
				"x": 1.4685188734,
				"y": -3.3139374037,
				"z": -2.5813353819,
				"element": "H" 
			},
			{
				"x": 2.5810128918,
				"y": -3.6163108823,
				"z": -5.9845748255,
				"element": "H" 
			},
			{
				"x": 0.9215794636,
				"y": -4.1354237824,
				"z": -5.641372386,
				"element": "H" 
			},
			{
				"x": 1.5833190958,
				"y": -2.6736950865,
				"z": -4.8682695855,
				"element": "H" 
			},
			{
				"x": 3.2719029517,
				"y": -6.2706294964,
				"z": -3.5811268753,
				"element": "H" 
			},
			{
				"x": 2.0118734454,
				"y": -6.4338860843,
				"z": -4.827842385,
				"element": "H" 
			},
			{
				"x": 3.5766422309,
				"y": -5.7055305128,
				"z": -5.2309073531,
				"element": "H" 
			},
			{
				"x": -0.8738714834,
				"y": -2.6736386373,
				"z": -2.9749873384,
				"element": "H" 
			},
			{
				"x": -2.20494171,
				"y": -0.807866293,
				"z": -2.09521807,
				"element": "H" 
			}
		],
		 "valence_orbital": [ 
			{
				"type": "occ",
				"energy": -0.24267,
				"method": "rhf"
			},
			{
				"type": "occ",
				"energy": -0.23582,
				"method": "rhf"
			},
			{
				"type": "occ",
				"energy": -0.22881,
				"method": "rhf"
			},
			{
				"type": "occ",
				"energy": -0.2224,
				"method": "rhf"
			},
			{
				"type": "occ",
				"energy": -0.20224,
				"method": "rhf"
			},
			{
				"type": "unocc",
				"energy": -0.02775,
				"method": "rhf"
			},
			{
				"type": "unocc",
				"energy": -0.00544,
				"method": "rhf"
			},
			{
				"type": "unocc",
				"energy": 0.0011,
				"method": "rhf"
			},
			{
				"type": "unocc",
				"energy": 0.01122,
				"method": "rhf"
			},
			{
				"type": "unocc",
				"energy": 0.05634,
				"method": "rhf"
			}
		],
		"cosmo_sigma_profile": { 
			"-0.025": 0.0,
			"-0.024": 0.0,
			"-0.023": 0.0,
			"-0.022": 0.0,
			"-0.021": 0.0,
			"-0.02": 0.0,
			"-0.019": 0.0,
			"-0.018": 0.0,
			"-0.017": 0.0,
			"-0.016": 0.0,
			"-0.015": 0.0,
			"-0.014": 0.0840585670722,
			"-0.013": 1.0381815134,
			"-0.012": 1.03837652612,
			"-0.011": 0.95247041758,
			"-0.01": 0.850841412886,
			"-0.009": 0.949461103266,
			"-0.008": 1.14244220442,
			"-0.007": 1.01887653481,
			"-0.006": 10.9317992908,
			"-0.005": 29.0461772928,
			"-0.004": 48.3200945826,
			"-0.003": 65.8687050435,
			"-0.002": 53.6327040672,
			"-0.001": 46.0997172491,
			"0.0": 39.308864958,
			"0.001": 25.6231192825,
			"0.002": 22.892498823,
			"0.003": 21.1722215799,
			"0.004": 17.7788203377,
			"0.005": 18.1606679474,
			"0.006": 13.1115036468,
			"0.007": 5.86351467462,
			"0.008": 6.63966000964,
			"0.009": 5.56424477609,
			"0.01": 5.53742214134,
			"0.011": 5.05458786971,
			"0.012": 3.85518675843,
			"0.013": 4.83771144539,
			"0.014": 4.91987120987,
			"0.015": 0.705938256964,
			"0.016": 0.280832747013,
			"0.017": 0.0,
			"0.018": 0.0,
			"0.019": 0.0,
			"0.02": 0.0,
			"0.021": 0.0,
			"0.022": 0.0,
			"0.023": 0.0,
			"0.024": 0.0,
			"0.025": 0.0
		}
	}
}
