{
	 "smiles": "OC(=O)C1=CC=C(OC2=C(C#N)C(F)=CC=C2)C=C1", 
	 "Tm": 460.15, 
	 "num_atms": 27, 
	 "gaussian": { 
		 "optdone": 1, 
		 "sigma_profile": "yes", 
		 "theory": "DFT", 
		 "functional": "B3LYP", 
		 "basiset": "6-31G**", 
		 "properties": { 
			 "R2extent": 6926.728, 
			 "electric_dipole_moment_norm": 7.00947592192, 
			 "electric_quadrupole_moment_norm": 33.6396332939, 
			 "total_energy": -918.544889292, 
			 "HOMO_LUMO_gap": 0.1862, 
			 "cosmo_polarized_energy": -22.53, 
			 "cosmo_cavitation_energy": 34.73, 
			 "cosmo_dispersion_energy": -24.04, 
			 "cosmo_repulsion_energy": 1.83, 
			 "cosmo_total_nonelectrostatic_energy": 12.51, 
			 "SMD_solvation_energy": 9.08 
		},
		"coords": [
			{
				"x": -0.4020267705,
				"y": -5.5464875977,
				"z": -2.2323988743,
				"element": "O" 
			},
			{
				"x": -0.5951839342,
				"y": -5.2417052561,
				"z": -0.9206422974,
				"element": "C" 
			},
			{
				"x": -0.8955721639,
				"y": -6.1115428254,
				"z": -0.1375919343,
				"element": "O" 
			},
			{
				"x": -0.420015695,
				"y": -3.8072532606,
				"z": -0.5239063462,
				"element": "C" 
			},
			{
				"x": 0.2949468173,
				"y": -2.8753570864,
				"z": -1.2903444954,
				"element": "C" 
			},
			{
				"x": 0.4382688572,
				"y": -1.5575391937,
				"z": -0.8628947843,
				"element": "C" 
			},
			{
				"x": -0.1496612127,
				"y": -1.1684852097,
				"z": 0.3435979013,
				"element": "C" 
			},
			{
				"x": 0.0098182728,
				"y": 0.101336231,
				"z": 0.8647212532,
				"element": "O" 
			},
			{
				"x": -0.113441293,
				"y": 1.2168032934,
				"z": 0.0831258412,
				"element": "C" 
			},
			{
				"x": 0.646603355,
				"y": 2.3356599885,
				"z": 0.4869535511,
				"element": "C" 
			},
			{
				"x": 1.5454886982,
				"y": 2.2654578012,
				"z": 1.5939004256,
				"element": "C" 
			},
			{
				"x": 2.2843425524,
				"y": 2.2177844671,
				"z": 2.4902900265,
				"element": "N" 
			},
			{
				"x": 0.4969774185,
				"y": 3.5294892008,
				"z": -0.2351482464,
				"element": "C" 
			},
			{
				"x": 1.2159434113,
				"y": 4.592196919,
				"z": 0.1471720682,
				"element": "F" 
			},
			{
				"x": -0.3565231006,
				"y": 3.6370483323,
				"z": -1.3227497567,
				"element": "C" 
			},
			{
				"x": -1.093624033,
				"y": 2.512860827,
				"z": -1.6976807444,
				"element": "C" 
			},
			{
				"x": -0.9832646124,
				"y": 1.3066658468,
				"z": -1.0052910842,
				"element": "C" 
			},
			{
				"x": -0.8479273197,
				"y": -2.0860423274,
				"z": 1.1321872724,
				"element": "C" 
			},
			{
				"x": -0.9707334783,
				"y": -3.4009561953,
				"z": 0.7002885494,
				"element": "C" 
			},
			{
				"x": -0.3358587762,
				"y": -4.7395337832,
				"z": -2.7606736721,
				"element": "H" 
			},
			{
				"x": 0.7942042767,
				"y": -3.1739556789,
				"z": -2.2089083405,
				"element": "H" 
			},
			{
				"x": 1.0131817464,
				"y": -0.8461259187,
				"z": -1.4452181366,
				"element": "H" 
			},
			{
				"x": -0.4346722008,
				"y": 4.5812785797,
				"z": -1.8483105865,
				"element": "H" 
			},
			{
				"x": -1.7750964467,
				"y": 2.579580623,
				"z": -2.5398483753,
				"element": "H" 
			},
			{
				"x": -1.5728899847,
				"y": 0.4457361563,
				"z": -1.2960623306,
				"element": "H" 
			},
			{
				"x": -1.273804614,
				"y": -1.7552286117,
				"z": 2.0731497754,
				"element": "H" 
			},
			{
				"x": -1.49747977,
				"y": -4.1365853211,
				"z": 1.2980833411,
				"element": "H" 
			}
		],
		 "valence_orbital": [ 
			{
				"type": "occ",
				"energy": -0.2892,
				"method": "rhf"
			},
			{
				"type": "occ",
				"energy": -0.2866,
				"method": "rhf"
			},
			{
				"type": "occ",
				"energy": -0.2789,
				"method": "rhf"
			},
			{
				"type": "occ",
				"energy": -0.27633,
				"method": "rhf"
			},
			{
				"type": "occ",
				"energy": -0.25447,
				"method": "rhf"
			},
			{
				"type": "unocc",
				"energy": -0.06827,
				"method": "rhf"
			},
			{
				"type": "unocc",
				"energy": -0.0584,
				"method": "rhf"
			},
			{
				"type": "unocc",
				"energy": -0.03916,
				"method": "rhf"
			},
			{
				"type": "unocc",
				"energy": -0.02729,
				"method": "rhf"
			},
			{
				"type": "unocc",
				"energy": 0.02458,
				"method": "rhf"
			}
		],
		"cosmo_sigma_profile": { 
			"-0.025": 0.0,
			"-0.024": 0.0,
			"-0.023": 0.0,
			"-0.022": 0.0,
			"-0.021": 0.0,
			"-0.02": 0.0,
			"-0.019": 0.334342075502,
			"-0.018": 0.807206941237,
			"-0.017": 1.17174202715,
			"-0.016": 0.848991948405,
			"-0.015": 1.21676252754,
			"-0.014": 1.1299564422,
			"-0.013": 0.743453995603,
			"-0.012": 0.914003881027,
			"-0.011": 1.60956277327,
			"-0.01": 1.14349480603,
			"-0.009": 2.16127484827,
			"-0.008": 9.59484427598,
			"-0.007": 14.7161292615,
			"-0.006": 13.5005933612,
			"-0.005": 12.6244575784,
			"-0.004": 12.7068168738,
			"-0.003": 14.9430318405,
			"-0.002": 23.63259541,
			"-0.001": 21.5415124746,
			"0.0": 19.3377218918,
			"0.001": 24.8775876982,
			"0.002": 23.300386642,
			"0.003": 16.0820734881,
			"0.004": 5.66326157943,
			"0.005": 6.61233023783,
			"0.006": 7.21998953374,
			"0.007": 5.4987462314,
			"0.008": 6.03260028036,
			"0.009": 7.07058217271,
			"0.01": 7.43002125771,
			"0.011": 7.94284354056,
			"0.012": 6.89285954132,
			"0.013": 2.16711529806,
			"0.014": 0.0358239887027,
			"0.015": 0.0,
			"0.016": 0.0,
			"0.017": 0.0,
			"0.018": 0.0,
			"0.019": 0.0,
			"0.02": 0.0,
			"0.021": 0.0,
			"0.022": 0.0,
			"0.023": 0.0,
			"0.024": 0.0,
			"0.025": 0.0
		}
	}
}
