{
	 "smiles": "N#CC1=NC2=C(CCCC2)C=C1", 
	 "Tm": 343.15, 
	 "num_atms": 22, 
	 "gaussian": { 
		 "optdone": 1, 
		 "sigma_profile": "yes", 
		 "theory": "DFT", 
		 "functional": "B3LYP", 
		 "basiset": "6-31G**", 
		 "properties": { 
			 "R2extent": 2550.9869, 
			 "electric_dipole_moment_norm": 6.43903872484, 
			 "electric_quadrupole_moment_norm": 22.8670496545, 
			 "total_energy": -496.585961118, 
			 "HOMO_LUMO_gap": 0.20376, 
			 "cosmo_polarized_energy": -10.92, 
			 "cosmo_cavitation_energy": 25.62, 
			 "cosmo_dispersion_energy": -18.66, 
			 "cosmo_repulsion_energy": 1.49, 
			 "cosmo_total_nonelectrostatic_energy": 8.45, 
			 "SMD_solvation_energy": 3.58 
		},
		"coords": [
			{
				"x": 4.2398153132,
				"y": -2.7681001073,
				"z": -1.1260466617,
				"element": "N" 
			},
			{
				"x": 3.1760279001,
				"y": -2.2996274442,
				"z": -1.1182944887,
				"element": "C" 
			},
			{
				"x": 1.8452981726,
				"y": -1.7404421725,
				"z": -1.1437118041,
				"element": "C" 
			},
			{
				"x": 1.538763671,
				"y": -0.8688949641,
				"z": -0.1644733643,
				"element": "N" 
			},
			{
				"x": 0.3115529503,
				"y": -0.3456049273,
				"z": -0.1702745003,
				"element": "C" 
			},
			{
				"x": -0.661506308,
				"y": -0.6534432052,
				"z": -1.1468922655,
				"element": "C" 
			},
			{
				"x": -1.9978226421,
				"y": 0.0296401377,
				"z": -1.021694051,
				"element": "C" 
			},
			{
				"x": -1.8247228065,
				"y": 1.5490645862,
				"z": -0.784522263,
				"element": "C" 
			},
			{
				"x": -0.7609897248,
				"y": 1.8855607274,
				"z": 0.3021227697,
				"element": "C" 
			},
			{
				"x": -0.0774809449,
				"y": 0.63489305,
				"z": 0.9049859568,
				"element": "C" 
			},
			{
				"x": -0.3166434204,
				"y": -1.549653958,
				"z": -2.1552891319,
				"element": "C" 
			},
			{
				"x": 0.9586599406,
				"y": -2.1138582195,
				"z": -2.1598450673,
				"element": "C" 
			},
			{
				"x": -2.5405772892,
				"y": -0.406028248,
				"z": -0.1703460791,
				"element": "H" 
			},
			{
				"x": -2.6143959093,
				"y": -0.1534186249,
				"z": -1.9078873899,
				"element": "H" 
			},
			{
				"x": -2.7963774926,
				"y": 1.9767733623,
				"z": -0.5175076592,
				"element": "H" 
			},
			{
				"x": -1.5344832423,
				"y": 2.0119383891,
				"z": -1.7334264831,
				"element": "H" 
			},
			{
				"x": -1.2131722865,
				"y": 2.4649805186,
				"z": 1.1131702946,
				"element": "H" 
			},
			{
				"x": 0.0139710868,
				"y": 2.5229636958,
				"z": -0.1356023884,
				"element": "H" 
			},
			{
				"x": -0.7761626108,
				"y": 0.1393327061,
				"z": 1.5948101152,
				"element": "H" 
			},
			{
				"x": 0.8063754518,
				"y": 0.9057951735,
				"z": 1.4869658807,
				"element": "H" 
			},
			{
				"x": -1.0333361364,
				"y": -1.8078762958,
				"z": -2.9306352106,
				"element": "H" 
			},
			{
				"x": 1.2675063275,
				"y": -2.8176941799,
				"z": -2.9248062089,
				"element": "H" 
			}
		],
		 "valence_orbital": [ 
			{
				"type": "occ",
				"energy": -0.33162,
				"method": "rhf"
			},
			{
				"type": "occ",
				"energy": -0.32757,
				"method": "rhf"
			},
			{
				"type": "occ",
				"energy": -0.29666,
				"method": "rhf"
			},
			{
				"type": "occ",
				"energy": -0.27217,
				"method": "rhf"
			},
			{
				"type": "occ",
				"energy": -0.26009,
				"method": "rhf"
			},
			{
				"type": "unocc",
				"energy": -0.05633,
				"method": "rhf"
			},
			{
				"type": "unocc",
				"energy": -0.03375,
				"method": "rhf"
			},
			{
				"type": "unocc",
				"energy": 0.03952,
				"method": "rhf"
			},
			{
				"type": "unocc",
				"energy": 0.0719,
				"method": "rhf"
			},
			{
				"type": "unocc",
				"energy": 0.07254,
				"method": "rhf"
			}
		],
		"cosmo_sigma_profile": { 
			"-0.025": 0.0,
			"-0.024": 0.0,
			"-0.023": 0.0,
			"-0.022": 0.0,
			"-0.021": 0.0,
			"-0.02": 0.0,
			"-0.019": 0.0,
			"-0.018": 0.0,
			"-0.017": 0.0,
			"-0.016": 0.0,
			"-0.015": 0.0,
			"-0.014": 0.0,
			"-0.013": 0.0,
			"-0.012": 0.0,
			"-0.011": 0.0,
			"-0.01": 0.0,
			"-0.009": 0.379196293807,
			"-0.008": 3.10250843868,
			"-0.007": 4.92276917928,
			"-0.006": 6.01359765869,
			"-0.005": 9.69522715287,
			"-0.004": 13.2559950472,
			"-0.003": 22.0625206477,
			"-0.002": 31.8488327183,
			"-0.001": 27.1269257816,
			"0.0": 21.9437623006,
			"0.001": 14.0207735308,
			"0.002": 5.48748810917,
			"0.003": 4.36084629371,
			"0.004": 4.76887132326,
			"0.005": 4.73509409236,
			"0.006": 4.22736226805,
			"0.007": 4.34702126457,
			"0.008": 4.42227229595,
			"0.009": 4.67931554504,
			"0.01": 3.51785666846,
			"0.011": 3.65132333174,
			"0.012": 3.05957858919,
			"0.013": 1.7265298879,
			"0.014": 0.534189583066,
			"0.015": 0.0132088960164,
			"0.016": 0.0,
			"0.017": 0.0,
			"0.018": 0.0,
			"0.019": 0.0,
			"0.02": 0.0,
			"0.021": 0.0,
			"0.022": 0.0,
			"0.023": 0.0,
			"0.024": 0.0,
			"0.025": 0.0
		}
	}
}
