{
	 "smiles": "NNC(=S)NC1CCC1", 
	 "Tm": 370.15, 
	 "num_atms": 20, 
	 "gaussian": { 
		 "optdone": 1, 
		 "sigma_profile": "yes", 
		 "theory": "DFT", 
		 "functional": "B3LYP", 
		 "basiset": "6-31G**", 
		 "properties": { 
			 "R2extent": 1939.5814, 
			 "electric_dipole_moment_norm": 5.67534366008, 
			 "electric_quadrupole_moment_norm": 11.5569628709, 
			 "total_energy": -759.551823474, 
			 "HOMO_LUMO_gap": 0.1892, 
			 "cosmo_polarized_energy": -17.22, 
			 "cosmo_cavitation_energy": 24.05, 
			 "cosmo_dispersion_energy": -17.96, 
			 "cosmo_repulsion_energy": 1.45, 
			 "cosmo_total_nonelectrostatic_energy": 7.54, 
			 "SMD_solvation_energy": 2.27 
		},
		"coords": [
			{
				"x": 0.1814700662,
				"y": 1.238216459,
				"z": -1.8018439549,
				"element": "N" 
			},
			{
				"x": -0.5737751896,
				"y": 0.1217241566,
				"z": -1.3807470036,
				"element": "N" 
			},
			{
				"x": -0.0529906307,
				"y": -1.1089956989,
				"z": -1.0733600672,
				"element": "C" 
			},
			{
				"x": -0.9531594787,
				"y": -2.5052115792,
				"z": -1.3421012486,
				"element": "S" 
			},
			{
				"x": 1.2091618662,
				"y": -1.1543972518,
				"z": -0.5454414205,
				"element": "N" 
			},
			{
				"x": 1.8114280388,
				"y": -0.1660676937,
				"z": 0.346935578,
				"element": "C" 
			},
			{
				"x": 1.0230851735,
				"y": 0.3574208821,
				"z": 1.5829113328,
				"element": "C" 
			},
			{
				"x": 2.346730229,
				"y": 0.2723417844,
				"z": 2.388994102,
				"element": "C" 
			},
			{
				"x": 2.8956708669,
				"y": -0.7026319755,
				"z": 1.3122720869,
				"element": "C" 
			},
			{
				"x": 0.9921760262,
				"y": 0.9306004461,
				"z": -2.335653047,
				"element": "H" 
			},
			{
				"x": 0.5017433504,
				"y": 1.7644161239,
				"z": -0.9940208227,
				"element": "H" 
			},
			{
				"x": -1.4760152855,
				"y": 0.062008667,
				"z": -1.8345635139,
				"element": "H" 
			},
			{
				"x": 1.47278712,
				"y": -2.1112694838,
				"z": -0.3477780354,
				"element": "H" 
			},
			{
				"x": 2.2168919947,
				"y": 0.673331524,
				"z": -0.2276084318,
				"element": "H" 
			},
			{
				"x": 0.293783666,
				"y": -0.3858353699,
				"z": 1.9173966139,
				"element": "H" 
			},
			{
				"x": 0.5258953108,
				"y": 1.328519968,
				"z": 1.5024148146,
				"element": "H" 
			},
			{
				"x": 2.8883688688,
				"y": 1.2227627229,
				"z": 2.3906024069,
				"element": "H" 
			},
			{
				"x": 2.2881578349,
				"y": -0.0968725222,
				"z": 3.415170974,
				"element": "H" 
			},
			{
				"x": 2.6946839126,
				"y": -1.7444827967,
				"z": 1.5858703059,
				"element": "H" 
			},
			{
				"x": 3.9403062594,
				"y": -0.6122783624,
				"z": 1.0039493306,
				"element": "H" 
			}
		],
		 "valence_orbital": [ 
			{
				"type": "occ",
				"energy": -0.33235,
				"method": "rhf"
			},
			{
				"type": "occ",
				"energy": -0.28706,
				"method": "rhf"
			},
			{
				"type": "occ",
				"energy": -0.26394,
				"method": "rhf"
			},
			{
				"type": "occ",
				"energy": -0.21411,
				"method": "rhf"
			},
			{
				"type": "occ",
				"energy": -0.20077,
				"method": "rhf"
			},
			{
				"type": "unocc",
				"energy": -0.01157,
				"method": "rhf"
			},
			{
				"type": "unocc",
				"energy": 0.04623,
				"method": "rhf"
			},
			{
				"type": "unocc",
				"energy": 0.06476,
				"method": "rhf"
			},
			{
				"type": "unocc",
				"energy": 0.08308,
				"method": "rhf"
			},
			{
				"type": "unocc",
				"energy": 0.10122,
				"method": "rhf"
			}
		],
		"cosmo_sigma_profile": { 
			"-0.025": 0.0,
			"-0.024": 0.0,
			"-0.023": 0.0,
			"-0.022": 0.0,
			"-0.021": 0.0,
			"-0.02": 0.0,
			"-0.019": 0.0,
			"-0.018": 0.0,
			"-0.017": 0.0,
			"-0.016": 0.0,
			"-0.015": 0.0,
			"-0.014": 0.0,
			"-0.013": 0.843886976056,
			"-0.012": 2.48850099534,
			"-0.011": 5.35735065315,
			"-0.01": 5.47529911378,
			"-0.009": 5.14755087672,
			"-0.008": 4.26811982808,
			"-0.007": 4.89101811812,
			"-0.006": 6.03564325485,
			"-0.005": 6.06367932066,
			"-0.004": 11.5129316208,
			"-0.003": 18.0015453621,
			"-0.002": 17.8385095389,
			"-0.001": 16.3206270202,
			"0.0": 13.8058931145,
			"0.001": 11.6307785991,
			"0.002": 5.6981784173,
			"0.003": 4.48403220985,
			"0.004": 4.89552909155,
			"0.005": 4.99213132731,
			"0.006": 4.26068679289,
			"0.007": 3.53497941328,
			"0.008": 4.52509682767,
			"0.009": 3.81136211356,
			"0.01": 6.63952686536,
			"0.011": 7.80502017098,
			"0.012": 6.36007914864,
			"0.013": 2.52677099447,
			"0.014": 0.601141220973,
			"0.015": 0.47639230362,
			"0.016": 0.174921574108,
			"0.017": 0.0,
			"0.018": 0.0,
			"0.019": 0.0,
			"0.02": 0.0,
			"0.021": 0.0,
			"0.022": 0.0,
			"0.023": 0.0,
			"0.024": 0.0,
			"0.025": 0.0
		}
	}
}
