{
	 "smiles": "CC(C)CCC[C@H](C)C1CC[C@H]2[C@@H]3C[C@@H](OC(C)=O)C4=CC(=O)CC[C@]4(C)[C@H]3CC[C@]12C", 
	 "Tm": 375.15, 
	 "num_atms": 78, 
	 "gaussian": { 
		 "optdone": 1, 
		 "sigma_profile": "yes", 
		 "theory": "DFT", 
		 "functional": "B3LYP", 
		 "basiset": "6-31G**", 
		 "properties": { 
			 "R2extent": 20175.7212, 
			 "electric_dipole_moment_norm": 4.04419057044, 
			 "electric_quadrupole_moment_norm": 32.4536911243, 
			 "total_energy": -1358.51622924, 
			 "HOMO_LUMO_gap": 0.18282, 
			 "cosmo_polarized_energy": -14.29, 
			 "cosmo_cavitation_energy": 67.73, 
			 "cosmo_dispersion_energy": -43.45, 
			 "cosmo_repulsion_energy": 3.24, 
			 "cosmo_total_nonelectrostatic_energy": 27.51, 
			 "SMD_solvation_energy": 11.45 
		},
		"coords": [
			{
				"x": 0.5314810765,
				"y": -4.1853604454,
				"z": 3.8404258461,
				"element": "C" 
			},
			{
				"x": 1.3851486953,
				"y": -3.1792060092,
				"z": 4.628063811,
				"element": "C" 
			},
			{
				"x": 0.5734861918,
				"y": -1.9184208143,
				"z": 4.9654263667,
				"element": "C" 
			},
			{
				"x": 2.7502710495,
				"y": -2.9030639483,
				"z": 3.9507921369,
				"element": "C" 
			},
			{
				"x": 2.7736167013,
				"y": -2.3204796655,
				"z": 2.5206555278,
				"element": "C" 
			},
			{
				"x": 2.5504065269,
				"y": -0.801751284,
				"z": 2.4126727267,
				"element": "C" 
			},
			{
				"x": 2.9549978903,
				"y": -0.1725962613,
				"z": 1.0569688196,
				"element": "C" 
			},
			{
				"x": 2.9185052402,
				"y": 1.3635736838,
				"z": 1.1577488179,
				"element": "C" 
			},
			{
				"x": 2.2643162882,
				"y": -0.7959987224,
				"z": -0.1955354521,
				"element": "C" 
			},
			{
				"x": 2.9958255987,
				"y": -0.3723699418,
				"z": -1.5217939642,
				"element": "C" 
			},
			{
				"x": 1.9629317836,
				"y": 0.3400384351,
				"z": -2.4368527916,
				"element": "C" 
			},
			{
				"x": 0.8130078851,
				"y": 0.6903614333,
				"z": -1.4813679453,
				"element": "C" 
			},
			{
				"x": -0.5583213562,
				"y": 1.083984386,
				"z": -2.054888769,
				"element": "C" 
			},
			{
				"x": -0.5079842832,
				"y": 2.2262684326,
				"z": -3.1105144112,
				"element": "C" 
			},
			{
				"x": -1.1128900206,
				"y": 3.5344119852,
				"z": -2.594970586,
				"element": "C" 
			},
			{
				"x": -1.1170470915,
				"y": 4.5233723744,
				"z": -3.6499127485,
				"element": "O" 
			},
			{
				"x": -0.0056726907,
				"y": 5.2938388543,
				"z": -3.7716456027,
				"element": "C" 
			},
			{
				"x": -0.1666437317,
				"y": 6.2820467353,
				"z": -4.9011255261,
				"element": "C" 
			},
			{
				"x": 0.9694976582,
				"y": 5.1904845158,
				"z": -3.0598772597,
				"element": "O" 
			},
			{
				"x": -2.5163334883,
				"y": 3.3895580776,
				"z": -2.0425937411,
				"element": "C" 
			},
			{
				"x": -3.3955847641,
				"y": 4.409488248,
				"z": -2.0962531458,
				"element": "C" 
			},
			{
				"x": -4.7081562136,
				"y": 4.3901871444,
				"z": -1.4270941764,
				"element": "C" 
			},
			{
				"x": -5.4989630128,
				"y": 5.3174069168,
				"z": -1.54135454,
				"element": "O" 
			},
			{
				"x": -5.030446483,
				"y": 3.1729350439,
				"z": -0.5674383162,
				"element": "C" 
			},
			{
				"x": -3.7928493639,
				"y": 2.3592169135,
				"z": -0.1639920923,
				"element": "C" 
			},
			{
				"x": -2.8460189186,
				"y": 2.058586509,
				"z": -1.3531514345,
				"element": "C" 
			},
			{
				"x": -3.5683604923,
				"y": 1.1230109628,
				"z": -2.3603622712,
				"element": "C" 
			},
			{
				"x": -1.4986136172,
				"y": 1.4343146586,
				"z": -0.8638773505,
				"element": "C" 
			},
			{
				"x": -1.6194690552,
				"y": 0.2342810461,
				"z": 0.0968449252,
				"element": "C" 
			},
			{
				"x": -0.2377443748,
				"y": -0.2213741256,
				"z": 0.6202736884,
				"element": "C" 
			},
			{
				"x": 0.7453653329,
				"y": -0.5376710603,
				"z": -0.5248213306,
				"element": "C" 
			},
			{
				"x": 0.2525327973,
				"y": -1.8184426719,
				"z": -1.2513787337,
				"element": "C" 
			},
			{
				"x": 1.0900228786,
				"y": -5.1031648754,
				"z": 3.6247169151,
				"element": "H" 
			},
			{
				"x": -0.364044764,
				"y": -4.464675556,
				"z": 4.4063083911,
				"element": "H" 
			},
			{
				"x": 0.1936173546,
				"y": -3.7689675366,
				"z": 2.8844429844,
				"element": "H" 
			},
			{
				"x": 1.6357875743,
				"y": -3.6562033253,
				"z": 5.5872475606,
				"element": "H" 
			},
			{
				"x": -0.2776510201,
				"y": -2.1695574857,
				"z": 5.6084700418,
				"element": "H" 
			},
			{
				"x": 0.1692100751,
				"y": -1.4409787521,
				"z": 4.0668508347,
				"element": "H" 
			},
			{
				"x": 1.1824034843,
				"y": -1.1763286679,
				"z": 5.4932139065,
				"element": "H" 
			},
			{
				"x": 3.3402029856,
				"y": -2.2482969197,
				"z": 4.6076773649,
				"element": "H" 
			},
			{
				"x": 3.2879104269,
				"y": -3.8605655349,
				"z": 3.9258489751,
				"element": "H" 
			},
			{
				"x": 3.7611540456,
				"y": -2.5450292352,
				"z": 2.0932488872,
				"element": "H" 
			},
			{
				"x": 2.0549633884,
				"y": -2.860479668,
				"z": 1.8927468912,
				"element": "H" 
			},
			{
				"x": 3.1572669905,
				"y": -0.3132353652,
				"z": 3.1882935413,
				"element": "H" 
			},
			{
				"x": 1.5138240779,
				"y": -0.5488807792,
				"z": 2.6499934492,
				"element": "H" 
			},
			{
				"x": 4.0153364223,
				"y": -0.4392802199,
				"z": 0.9179585981,
				"element": "H" 
			},
			{
				"x": 3.2461254093,
				"y": 1.848766,
				"z": 0.2332665018,
				"element": "H" 
			},
			{
				"x": 3.5891054547,
				"y": 1.7014625237,
				"z": 1.9556595042,
				"element": "H" 
			},
			{
				"x": 1.9206555994,
				"y": 1.744326082,
				"z": 1.3963670803,
				"element": "H" 
			},
			{
				"x": 2.3902381351,
				"y": -1.876158461,
				"z": -0.0708048228,
				"element": "H" 
			},
			{
				"x": 3.4380952209,
				"y": -1.2392543995,
				"z": -2.0225851734,
				"element": "H" 
			},
			{
				"x": 3.8277711657,
				"y": 0.3014796031,
				"z": -1.2944525326,
				"element": "H" 
			},
			{
				"x": 2.3929193375,
				"y": 1.2200850712,
				"z": -2.9244259034,
				"element": "H" 
			},
			{
				"x": 1.6144190131,
				"y": -0.3247203063,
				"z": -3.2359317605,
				"element": "H" 
			},
			{
				"x": 1.1565874132,
				"y": 1.5395733851,
				"z": -0.8732630927,
				"element": "H" 
			},
			{
				"x": -0.9718453055,
				"y": 0.2031672986,
				"z": -2.5581347842,
				"element": "H" 
			},
			{
				"x": -1.0502591157,
				"y": 1.9391044383,
				"z": -4.0177453112,
				"element": "H" 
			},
			{
				"x": 0.5216031684,
				"y": 2.4336090661,
				"z": -3.4122984579,
				"element": "H" 
			},
			{
				"x": -0.4692841857,
				"y": 3.9212588846,
				"z": -1.7951080298,
				"element": "H" 
			},
			{
				"x": 0.7542536586,
				"y": 6.8522467163,
				"z": -5.017950426,
				"element": "H" 
			},
			{
				"x": -0.4061381229,
				"y": 5.7571929627,
				"z": -5.830187388,
				"element": "H" 
			},
			{
				"x": -0.9984656849,
				"y": 6.9600291059,
				"z": -4.6869884138,
				"element": "H" 
			},
			{
				"x": -3.1520798937,
				"y": 5.3273205913,
				"z": -2.6214581709,
				"element": "H" 
			},
			{
				"x": -5.7359868521,
				"y": 2.5532701171,
				"z": -1.1361853048,
				"element": "H" 
			},
			{
				"x": -5.5829619659,
				"y": 3.5230742947,
				"z": 0.3100342634,
				"element": "H" 
			},
			{
				"x": -4.1134350628,
				"y": 1.4228888377,
				"z": 0.3041126077,
				"element": "H" 
			},
			{
				"x": -3.2284405855,
				"y": 2.9157090687,
				"z": 0.5957319284,
				"element": "H" 
			},
			{
				"x": -2.9697054894,
				"y": 0.9316352398,
				"z": -3.2532602258,
				"element": "H" 
			},
			{
				"x": -3.7947169649,
				"y": 0.1584908191,
				"z": -1.8934601159,
				"element": "H" 
			},
			{
				"x": -4.5096095933,
				"y": 1.5625321702,
				"z": -2.6981477302,
				"element": "H" 
			},
			{
				"x": -0.999648956,
				"y": 2.2266133728,
				"z": -0.2829125239,
				"element": "H" 
			},
			{
				"x": -2.1324654709,
				"y": -0.5988869739,
				"z": -0.3980529714,
				"element": "H" 
			},
			{
				"x": -2.2370824934,
				"y": 0.5032424618,
				"z": 0.9597066867,
				"element": "H" 
			},
			{
				"x": -0.3693941899,
				"y": -1.0929501906,
				"z": 1.2735908651,
				"element": "H" 
			},
			{
				"x": 0.1627579502,
				"y": 0.5817614965,
				"z": 1.2471781177,
				"element": "H" 
			},
			{
				"x": 0.9280982309,
				"y": -2.1211928227,
				"z": -2.0561488877,
				"element": "H" 
			},
			{
				"x": 0.2122855088,
				"y": -2.647242188,
				"z": -0.5355326178,
				"element": "H" 
			},
			{
				"x": -0.7449910114,
				"y": -1.7182217511,
				"z": -1.6855017294,
				"element": "H" 
			}
		],
		 "valence_orbital": [ 
			{
				"type": "occ",
				"energy": -0.2878,
				"method": "rhf"
			},
			{
				"type": "occ",
				"energy": -0.27932,
				"method": "rhf"
			},
			{
				"type": "occ",
				"energy": -0.27556,
				"method": "rhf"
			},
			{
				"type": "occ",
				"energy": -0.2536,
				"method": "rhf"
			},
			{
				"type": "occ",
				"energy": -0.23105,
				"method": "rhf"
			},
			{
				"type": "unocc",
				"energy": -0.04823,
				"method": "rhf"
			},
			{
				"type": "unocc",
				"energy": 0.00719,
				"method": "rhf"
			},
			{
				"type": "unocc",
				"energy": 0.05367,
				"method": "rhf"
			},
			{
				"type": "unocc",
				"energy": 0.06348,
				"method": "rhf"
			},
			{
				"type": "unocc",
				"energy": 0.06948,
				"method": "rhf"
			}
		],
		"cosmo_sigma_profile": { 
			"-0.025": 0.0,
			"-0.024": 0.0,
			"-0.023": 0.0,
			"-0.022": 0.0,
			"-0.021": 0.0,
			"-0.02": 0.0,
			"-0.019": 0.0,
			"-0.018": 0.0,
			"-0.017": 0.0,
			"-0.016": 0.0,
			"-0.015": 0.0,
			"-0.014": 0.0,
			"-0.013": 0.0,
			"-0.012": 0.0,
			"-0.011": 0.0,
			"-0.01": 0.0,
			"-0.009": 0.0,
			"-0.008": 0.0,
			"-0.007": 1.39524139391,
			"-0.006": 8.3587079929,
			"-0.005": 13.5018792774,
			"-0.004": 22.4249443602,
			"-0.003": 44.9060465925,
			"-0.002": 82.610545566,
			"-0.001": 100.410227374,
			"0.0": 86.1833913379,
			"0.001": 62.6095579496,
			"0.002": 40.2949545661,
			"0.003": 9.32410539099,
			"0.004": 5.34131924898,
			"0.005": 4.46475606098,
			"0.006": 3.67027171054,
			"0.007": 3.53592732378,
			"0.008": 4.09249738646,
			"0.009": 2.99123259371,
			"0.01": 2.98577572984,
			"0.011": 5.37380302236,
			"0.012": 7.48912421902,
			"0.013": 5.50621456592,
			"0.014": 2.75798508668,
			"0.015": 0.297968143942,
			"0.016": 0.0,
			"0.017": 0.0,
			"0.018": 0.0,
			"0.019": 0.0,
			"0.02": 0.0,
			"0.021": 0.0,
			"0.022": 0.0,
			"0.023": 0.0,
			"0.024": 0.0,
			"0.025": 0.0
		}
	}
}
