{
	 "smiles": "NC(CC(O)=O)C1=CN(N=C1)C1=CC=CC=C1", 
	 "Tm": 493.15, 
	 "num_atms": 30, 
	 "gaussian": { 
		 "optdone": 1, 
		 "sigma_profile": "yes", 
		 "theory": "DFT", 
		 "functional": "B3LYP", 
		 "basiset": "6-31G**", 
		 "properties": { 
			 "R2extent": 6839.9355, 
			 "electric_dipole_moment_norm": 7.03262047106, 
			 "electric_quadrupole_moment_norm": 39.4150496643, 
			 "total_energy": -779.809092992, 
			 "HOMO_LUMO_gap": 0.19751, 
			 "cosmo_polarized_energy": -22.43, 
			 "cosmo_cavitation_energy": 34.33, 
			 "cosmo_dispersion_energy": -24.86, 
			 "cosmo_repulsion_energy": 1.93, 
			 "cosmo_total_nonelectrostatic_energy": 11.4, 
			 "SMD_solvation_energy": 6.28 
		},
		"coords": [
			{
				"x": 0.629720177,
				"y": -0.762673107,
				"z": -4.0168683419,
				"element": "N" 
			},
			{
				"x": -0.0878147502,
				"y": 0.257639417,
				"z": -3.2026744197,
				"element": "C" 
			},
			{
				"x": 0.0160447032,
				"y": 1.615456142,
				"z": -3.9287739767,
				"element": "C" 
			},
			{
				"x": -0.6066185555,
				"y": 1.6627026267,
				"z": -5.3332990569,
				"element": "C" 
			},
			{
				"x": -0.4908236373,
				"y": 0.5453371324,
				"z": -6.0657440527,
				"element": "O" 
			},
			{
				"x": -1.1475655753,
				"y": 2.6589314772,
				"z": -5.7561714676,
				"element": "O" 
			},
			{
				"x": 0.3775189435,
				"y": 0.3278598328,
				"z": -1.7724698644,
				"element": "C" 
			},
			{
				"x": -0.3143597211,
				"y": -0.0677683244,
				"z": -0.6433071395,
				"element": "C" 
			},
			{
				"x": 0.4947874106,
				"y": 0.1601177521,
				"z": 0.4336132982,
				"element": "N" 
			},
			{
				"x": 1.6855557516,
				"y": 0.6934021858,
				"z": 0.0616075074,
				"element": "N" 
			},
			{
				"x": 1.6173336023,
				"y": 0.7959212619,
				"z": -1.2602846499,
				"element": "C" 
			},
			{
				"x": 0.2136213889,
				"y": -0.0726155749,
				"z": 1.8079455546,
				"element": "C" 
			},
			{
				"x": 0.9280945304,
				"y": 0.6328755328,
				"z": 2.7821992006,
				"element": "C" 
			},
			{
				"x": 0.649033873,
				"y": 0.4123990305,
				"z": 4.1290996826,
				"element": "C" 
			},
			{
				"x": -0.3399819303,
				"y": -0.4965911389,
				"z": 4.512211852,
				"element": "C" 
			},
			{
				"x": -1.0447767182,
				"y": -1.198224742,
				"z": 3.5333967339,
				"element": "C" 
			},
			{
				"x": -0.7671215632,
				"y": -0.9976878969,
				"z": 2.1814650127,
				"element": "C" 
			},
			{
				"x": 0.4343199284,
				"y": -1.6960847638,
				"z": -3.6624807686,
				"element": "H" 
			},
			{
				"x": 1.6357760518,
				"y": -0.6271467902,
				"z": -3.9285003103,
				"element": "H" 
			},
			{
				"x": -1.1408773521,
				"y": -0.0478198858,
				"z": -3.2057475992,
				"element": "H" 
			},
			{
				"x": -0.4636324223,
				"y": 2.3983546282,
				"z": -3.3392790998,
				"element": "H" 
			},
			{
				"x": 1.0748650513,
				"y": 1.8963777362,
				"z": -4.0224795215,
				"element": "H" 
			},
			{
				"x": -0.0237769356,
				"y": -0.1457431407,
				"z": -5.5186281624,
				"element": "H" 
			},
			{
				"x": -1.316763169,
				"y": -0.4527725652,
				"z": -0.5335230375,
				"element": "H" 
			},
			{
				"x": 2.4619160592,
				"y": 1.2043060484,
				"z": -1.8008154092,
				"element": "H" 
			},
			{
				"x": 1.6888276203,
				"y": 1.3371629295,
				"z": 2.4691831843,
				"element": "H" 
			},
			{
				"x": 1.2051023719,
				"y": 0.9616600394,
				"z": 4.8830039756,
				"element": "H" 
			},
			{
				"x": -0.5559527894,
				"y": -0.6599529442,
				"z": 5.5634725837,
				"element": "H" 
			},
			{
				"x": -1.8073056,
				"y": -1.9168528805,
				"z": 3.8184509245,
				"element": "H" 
			},
			{
				"x": -1.2962467438,
				"y": -1.5736700183,
				"z": 1.4297973676,
				"element": "H" 
			}
		],
		 "valence_orbital": [ 
			{
				"type": "occ",
				"energy": -0.28604,
				"method": "rhf"
			},
			{
				"type": "occ",
				"energy": -0.26863,
				"method": "rhf"
			},
			{
				"type": "occ",
				"energy": -0.26377,
				"method": "rhf"
			},
			{
				"type": "occ",
				"energy": -0.24769,
				"method": "rhf"
			},
			{
				"type": "occ",
				"energy": -0.2342,
				"method": "rhf"
			},
			{
				"type": "unocc",
				"energy": -0.03669,
				"method": "rhf"
			},
			{
				"type": "unocc",
				"energy": -0.01779,
				"method": "rhf"
			},
			{
				"type": "unocc",
				"energy": 0.02346,
				"method": "rhf"
			},
			{
				"type": "unocc",
				"energy": 0.02465,
				"method": "rhf"
			},
			{
				"type": "unocc",
				"energy": 0.04548,
				"method": "rhf"
			}
		],
		"cosmo_sigma_profile": { 
			"-0.025": 0.0,
			"-0.024": 0.0,
			"-0.023": 0.0,
			"-0.022": 0.0,
			"-0.021": 0.0,
			"-0.02": 0.0,
			"-0.019": 0.0,
			"-0.018": 0.0,
			"-0.017": 0.0,
			"-0.016": 0.0,
			"-0.015": 0.0,
			"-0.014": 0.0,
			"-0.013": 0.0,
			"-0.012": 1.1483714978,
			"-0.011": 3.77281943397,
			"-0.01": 4.33002934215,
			"-0.009": 6.83058755549,
			"-0.008": 7.04759029097,
			"-0.007": 13.1189032934,
			"-0.006": 19.1389687322,
			"-0.005": 19.3640449009,
			"-0.004": 18.8762077039,
			"-0.003": 16.0881900461,
			"-0.002": 15.1355479894,
			"-0.001": 13.4892454491,
			"0.0": 12.3067433454,
			"0.001": 15.6939490966,
			"0.002": 15.6041396339,
			"0.003": 18.3329258557,
			"0.004": 16.4825511918,
			"0.005": 12.2297601716,
			"0.006": 3.88712114088,
			"0.007": 4.56136305694,
			"0.008": 4.46435284297,
			"0.009": 3.47227250535,
			"0.01": 4.36611309546,
			"0.011": 4.80444602278,
			"0.012": 8.20771464825,
			"0.013": 7.24929682904,
			"0.014": 2.98194027547,
			"0.015": 0.188652608499,
			"0.016": 0.0,
			"0.017": 0.0,
			"0.018": 0.0,
			"0.019": 0.0,
			"0.02": 0.0,
			"0.021": 0.0,
			"0.022": 0.0,
			"0.023": 0.0,
			"0.024": 0.0,
			"0.025": 0.0
		}
	}
}
