{
	 "smiles": "CC1=C(C)C(O)=CC=C1O", 
	 "Tm": 497.15, 
	 "num_atms": 20, 
	 "gaussian": { 
		 "optdone": 1, 
		 "sigma_profile": "yes", 
		 "theory": "DFT", 
		 "functional": "B3LYP", 
		 "basiset": "6-31G**", 
		 "properties": { 
			 "R2extent": 1841.6778, 
			 "electric_dipole_moment_norm": 2.0976651544, 
			 "electric_quadrupole_moment_norm": 7.55999425397, 
			 "total_energy": -461.326658439, 
			 "HOMO_LUMO_gap": 0.19577, 
			 "cosmo_polarized_energy": -11.5, 
			 "cosmo_cavitation_energy": 22.76, 
			 "cosmo_dispersion_energy": -17.15, 
			 "cosmo_repulsion_energy": 1.38, 
			 "cosmo_total_nonelectrostatic_energy": 6.99, 
			 "SMD_solvation_energy": 4.59 
		},
		"coords": [
			{
				"x": -0.8229588181,
				"y": 0.3144656675,
				"z": 2.6900502008,
				"element": "C" 
			},
			{
				"x": -0.9129419237,
				"y": -0.3213452652,
				"z": 1.3233069046,
				"element": "C" 
			},
			{
				"x": 0.1835922952,
				"y": -1.0193870354,
				"z": 0.7855397022,
				"element": "C" 
			},
			{
				"x": 1.4706717981,
				"y": -1.1456030252,
				"z": 1.5651750731,
				"element": "C" 
			},
			{
				"x": 0.0728440704,
				"y": -1.6023651905,
				"z": -0.4899133365,
				"element": "C" 
			},
			{
				"x": 1.1667595033,
				"y": -2.2775279087,
				"z": -0.9829524033,
				"element": "O" 
			},
			{
				"x": -1.1096752307,
				"y": -1.4931659527,
				"z": -1.2197731182,
				"element": "C" 
			},
			{
				"x": -2.1962237819,
				"y": -0.8014205793,
				"z": -0.6869170142,
				"element": "C" 
			},
			{
				"x": -2.1002273034,
				"y": -0.2189111598,
				"z": 0.575792039,
				"element": "C" 
			},
			{
				"x": -3.1517989634,
				"y": 0.4718565969,
				"z": 1.1349171621,
				"element": "O" 
			},
			{
				"x": -0.6052673018,
				"y": -0.432421234,
				"z": 3.4630135351,
				"element": "H" 
			},
			{
				"x": -1.7557634525,
				"y": 0.8127756259,
				"z": 2.9527375832,
				"element": "H" 
			},
			{
				"x": -0.0160279411,
				"y": 1.0559527089,
				"z": 2.7318812495,
				"element": "H" 
			},
			{
				"x": 1.8950338437,
				"y": -0.160871325,
				"z": 1.7951739938,
				"element": "H" 
			},
			{
				"x": 1.3069038587,
				"y": -1.6503605693,
				"z": 2.5249226995,
				"element": "H" 
			},
			{
				"x": 2.2138060961,
				"y": -1.7131777915,
				"z": 1.0056672227,
				"element": "H" 
			},
			{
				"x": 0.9481314188,
				"y": -2.6204838182,
				"z": -1.8581171607,
				"element": "H" 
			},
			{
				"x": -1.1872685963,
				"y": -1.9469243023,
				"z": -2.2056330305,
				"element": "H" 
			},
			{
				"x": -3.1181033988,
				"y": -0.7176864248,
				"z": -1.2587221654,
				"element": "H" 
			},
			{
				"x": -3.8917861726,
				"y": 0.4603009827,
				"z": 0.5155508632,
				"element": "H" 
			}
		],
		 "valence_orbital": [ 
			{
				"type": "occ",
				"energy": -0.34323,
				"method": "rhf"
			},
			{
				"type": "occ",
				"energy": -0.32536,
				"method": "rhf"
			},
			{
				"type": "occ",
				"energy": -0.29404,
				"method": "rhf"
			},
			{
				"type": "occ",
				"energy": -0.23111,
				"method": "rhf"
			},
			{
				"type": "occ",
				"energy": -0.19242,
				"method": "rhf"
			},
			{
				"type": "unocc",
				"energy": 0.00335,
				"method": "rhf"
			},
			{
				"type": "unocc",
				"energy": 0.03639,
				"method": "rhf"
			},
			{
				"type": "unocc",
				"energy": 0.07486,
				"method": "rhf"
			},
			{
				"type": "unocc",
				"energy": 0.0751,
				"method": "rhf"
			},
			{
				"type": "unocc",
				"energy": 0.09973,
				"method": "rhf"
			}
		],
		"cosmo_sigma_profile": { 
			"-0.025": 0.0,
			"-0.024": 0.0,
			"-0.023": 0.0,
			"-0.022": 0.0,
			"-0.021": 0.0,
			"-0.02": 0.0,
			"-0.019": 0.0,
			"-0.018": 0.0283450149975,
			"-0.017": 1.36697993159,
			"-0.016": 2.11084001416,
			"-0.015": 2.11000247348,
			"-0.014": 2.60704146669,
			"-0.013": 2.02629205213,
			"-0.012": 0.96246264867,
			"-0.011": 1.17581028945,
			"-0.01": 1.83929013231,
			"-0.009": 3.04059009453,
			"-0.008": 3.01926370475,
			"-0.007": 2.05887270078,
			"-0.006": 3.73673583256,
			"-0.005": 2.90249218717,
			"-0.004": 9.05756978407,
			"-0.003": 13.2324278771,
			"-0.002": 12.0369914265,
			"-0.001": 12.7708163025,
			"0.0": 16.00987159,
			"0.001": 14.3672808935,
			"0.002": 9.17127014393,
			"0.003": 7.75471173718,
			"0.004": 10.7443434068,
			"0.005": 13.0242385534,
			"0.006": 12.2274449455,
			"0.007": 6.64064183,
			"0.008": 3.19739492398,
			"0.009": 3.07186615222,
			"0.01": 4.76441072017,
			"0.011": 2.00742450074,
			"0.012": 0.0288332101494,
			"0.013": 0.0,
			"0.014": 0.0,
			"0.015": 0.0,
			"0.016": 0.0,
			"0.017": 0.0,
			"0.018": 0.0,
			"0.019": 0.0,
			"0.02": 0.0,
			"0.021": 0.0,
			"0.022": 0.0,
			"0.023": 0.0,
			"0.024": 0.0,
			"0.025": 0.0
		}
	}
}
