{
	 "smiles": "O=C1OC2(OC=C(C2=O)C2=CC=CC=C2)C2=CC=CC=C12", 
	 "Tm": 429.15, 
	 "num_atms": 31, 
	 "gaussian": { 
		 "optdone": 1, 
		 "sigma_profile": "yes", 
		 "theory": "DFT", 
		 "functional": "B3LYP", 
		 "basiset": "6-31G**", 
		 "properties": { 
			 "R2extent": 7239.0062, 
			 "electric_dipole_moment_norm": 5.52875300497, 
			 "electric_quadrupole_moment_norm": 23.7678026868, 
			 "total_energy": -954.717317333, 
			 "HOMO_LUMO_gap": 0.15715, 
			 "cosmo_polarized_energy": -16.48, 
			 "cosmo_cavitation_energy": 36.88, 
			 "cosmo_dispersion_energy": -26.22, 
			 "cosmo_repulsion_energy": 1.96, 
			 "cosmo_total_nonelectrostatic_energy": 12.61, 
			 "SMD_solvation_energy": 7.94 
		},
		"coords": [
			{
				"x": 4.7319531471,
				"y": -2.2240040429,
				"z": -0.8221643949,
				"element": "O" 
			},
			{
				"x": 3.8514091636,
				"y": -1.4096613807,
				"z": -0.7902109843,
				"element": "C" 
			},
			{
				"x": 2.5129658653,
				"y": -1.7605883199,
				"z": -0.9566888311,
				"element": "O" 
			},
			{
				"x": 1.6709175729,
				"y": -0.6270273977,
				"z": -0.8480991039,
				"element": "C" 
			},
			{
				"x": 0.902482532,
				"y": -0.4965743856,
				"z": -2.0552849069,
				"element": "O" 
			},
			{
				"x": -0.4010682413,
				"y": -0.6811381557,
				"z": -1.7304925782,
				"element": "C" 
			},
			{
				"x": -0.6895206856,
				"y": -0.9202252214,
				"z": -0.4243606735,
				"element": "C" 
			},
			{
				"x": 0.6049461771,
				"y": -0.8765496393,
				"z": 0.2675941056,
				"element": "C" 
			},
			{
				"x": 0.8947240182,
				"y": -0.9936559242,
				"z": 1.4414795813,
				"element": "O" 
			},
			{
				"x": -2.0071073273,
				"y": -1.1691270102,
				"z": 0.1803843724,
				"element": "C" 
			},
			{
				"x": -2.1643688017,
				"y": -1.1531412063,
				"z": 1.5776034172,
				"element": "C" 
			},
			{
				"x": -3.4171591364,
				"y": -1.3741596336,
				"z": 2.1496054994,
				"element": "C" 
			},
			{
				"x": -4.5320173569,
				"y": -1.6142578652,
				"z": 1.3462726628,
				"element": "C" 
			},
			{
				"x": -4.384632267,
				"y": -1.6407429051,
				"z": -0.0430838124,
				"element": "C" 
			},
			{
				"x": -3.1362742699,
				"y": -1.425688641,
				"z": -0.6196102575,
				"element": "C" 
			},
			{
				"x": 2.5944273789,
				"y": 0.5454417191,
				"z": -0.6427840709,
				"element": "C" 
			},
			{
				"x": 2.3314759818,
				"y": 1.9033360163,
				"z": -0.5052261624,
				"element": "C" 
			},
			{
				"x": 3.4240395412,
				"y": 2.754515061,
				"z": -0.3112608573,
				"element": "C" 
			},
			{
				"x": 4.7355778792,
				"y": 2.2580463819,
				"z": -0.2559951258,
				"element": "C" 
			},
			{
				"x": 4.9882497718,
				"y": 0.8931146278,
				"z": -0.3979902932,
				"element": "C" 
			},
			{
				"x": 3.8928218964,
				"y": 0.0555791911,
				"z": -0.590888468,
				"element": "C" 
			},
			{
				"x": -1.0724037737,
				"y": -0.5971591386,
				"z": -2.5765197364,
				"element": "H" 
			},
			{
				"x": -1.2990649328,
				"y": -0.9762836739,
				"z": 2.2049728295,
				"element": "H" 
			},
			{
				"x": -3.5190952933,
				"y": -1.3589455211,
				"z": 3.2309853408,
				"element": "H" 
			},
			{
				"x": -5.5055465856,
				"y": -1.7866040777,
				"z": 1.7957538263,
				"element": "H" 
			},
			{
				"x": -5.2428143281,
				"y": -1.8378556989,
				"z": -0.6792169584,
				"element": "H" 
			},
			{
				"x": -3.0395212132,
				"y": -1.4727031228,
				"z": -1.7007900248,
				"element": "H" 
			},
			{
				"x": 1.3205602705,
				"y": 2.2964540318,
				"z": -0.54663569,
				"element": "H" 
			},
			{
				"x": 3.2546400419,
				"y": 3.82137795,
				"z": -0.2003009583,
				"element": "H" 
			},
			{
				"x": 5.560104974,
				"y": 2.9469812773,
				"z": -0.1006741905,
				"element": "H" 
			},
			{
				"x": 5.9939980008,
				"y": 0.4874467057,
				"z": -0.3603735566,
				"element": "H" 
			}
		],
		 "valence_orbital": [ 
			{
				"type": "occ",
				"energy": -0.28276,
				"method": "rhf"
			},
			{
				"type": "occ",
				"energy": -0.28137,
				"method": "rhf"
			},
			{
				"type": "occ",
				"energy": -0.25814,
				"method": "rhf"
			},
			{
				"type": "occ",
				"energy": -0.25478,
				"method": "rhf"
			},
			{
				"type": "occ",
				"energy": -0.2279,
				"method": "rhf"
			},
			{
				"type": "unocc",
				"energy": -0.07075,
				"method": "rhf"
			},
			{
				"type": "unocc",
				"energy": -0.06357,
				"method": "rhf"
			},
			{
				"type": "unocc",
				"energy": -0.03845,
				"method": "rhf"
			},
			{
				"type": "unocc",
				"energy": -0.021,
				"method": "rhf"
			},
			{
				"type": "unocc",
				"energy": -0.00447,
				"method": "rhf"
			}
		],
		"cosmo_sigma_profile": { 
			"-0.025": 0.0,
			"-0.024": 0.0,
			"-0.023": 0.0,
			"-0.022": 0.0,
			"-0.021": 0.0,
			"-0.02": 0.0,
			"-0.019": 0.0,
			"-0.018": 0.0,
			"-0.017": 0.0,
			"-0.016": 0.0,
			"-0.015": 0.0,
			"-0.014": 0.0,
			"-0.013": 0.0,
			"-0.012": 0.452411945159,
			"-0.011": 2.86551055248,
			"-0.01": 2.55936805719,
			"-0.009": 2.47135164746,
			"-0.008": 7.63718059202,
			"-0.007": 11.669630691,
			"-0.006": 16.3365636564,
			"-0.005": 18.4551963869,
			"-0.004": 18.7681671058,
			"-0.003": 20.8250312622,
			"-0.002": 18.7736798802,
			"-0.001": 20.4433724394,
			"0.0": 19.7072316568,
			"0.001": 24.2052353133,
			"0.002": 24.4246959534,
			"0.003": 15.1086960781,
			"0.004": 14.681502154,
			"0.005": 17.1784105104,
			"0.006": 10.1190871847,
			"0.007": 5.31950313942,
			"0.008": 6.33833914652,
			"0.009": 5.47499347472,
			"0.01": 8.03513606284,
			"0.011": 5.98447027733,
			"0.012": 0.458061511278,
			"0.013": 0.0,
			"0.014": 0.0,
			"0.015": 0.0,
			"0.016": 0.0,
			"0.017": 0.0,
			"0.018": 0.0,
			"0.019": 0.0,
			"0.02": 0.0,
			"0.021": 0.0,
			"0.022": 0.0,
			"0.023": 0.0,
			"0.024": 0.0,
			"0.025": 0.0
		}
	}
}
