{
	 "smiles": "CCC(C(CC)C1=CC=C(O)C=C1)C1=CC=C(O)C=C1", 
	 "Tm": 460.15, 
	 "num_atms": 42, 
	 "gaussian": { 
		 "optdone": 1, 
		 "sigma_profile": "yes", 
		 "theory": "DFT", 
		 "functional": "B3LYP", 
		 "basiset": "6-31G**", 
		 "properties": { 
			 "R2extent": 6822.605, 
			 "electric_dipole_moment_norm": 2.24216062092, 
			 "electric_quadrupole_moment_norm": 11.3314379913, 
			 "total_energy": -849.633136648, 
			 "HOMO_LUMO_gap": 0.2053, 
			 "cosmo_polarized_energy": -14.51, 
			 "cosmo_cavitation_energy": 42.86, 
			 "cosmo_dispersion_energy": -28.54, 
			 "cosmo_repulsion_energy": 2.25, 
			 "cosmo_total_nonelectrostatic_energy": 16.57, 
			 "SMD_solvation_energy": 7.73 
		},
		"coords": [
			{
				"x": -1.9430642393,
				"y": -2.7594897572,
				"z": 2.0501612475,
				"element": "C" 
			},
			{
				"x": -1.2690523573,
				"y": -2.5224967304,
				"z": 0.6941932014,
				"element": "C" 
			},
			{
				"x": -1.3451096986,
				"y": -1.0539803954,
				"z": 0.2144768664,
				"element": "C" 
			},
			{
				"x": -0.9570596507,
				"y": -0.9197473603,
				"z": -1.3066766542,
				"element": "C" 
			},
			{
				"x": 0.5235713599,
				"y": -1.2285127969,
				"z": -1.6155184816,
				"element": "C" 
			},
			{
				"x": 0.8200413639,
				"y": -1.3510677612,
				"z": -3.1148668396,
				"element": "C" 
			},
			{
				"x": -1.4259864257,
				"y": 0.4072934235,
				"z": -1.8915750166,
				"element": "C" 
			},
			{
				"x": -2.6377511869,
				"y": 0.473873876,
				"z": -2.597127388,
				"element": "C" 
			},
			{
				"x": -3.1220900524,
				"y": 1.6678288957,
				"z": -3.1250033498,
				"element": "C" 
			},
			{
				"x": -2.3867781924,
				"y": 2.8450293318,
				"z": -2.9579555834,
				"element": "C" 
			},
			{
				"x": -2.8966698118,
				"y": 3.9949624115,
				"z": -3.4964441923,
				"element": "O" 
			},
			{
				"x": -1.1750760186,
				"y": 2.8061034487,
				"z": -2.2619146106,
				"element": "C" 
			},
			{
				"x": -0.7073175249,
				"y": 1.6010741925,
				"z": -1.7365683699,
				"element": "C" 
			},
			{
				"x": -0.6140695595,
				"y": -0.0890204274,
				"z": 1.1403933011,
				"element": "C" 
			},
			{
				"x": -1.2495016062,
				"y": 1.0806396321,
				"z": 1.5883280842,
				"element": "C" 
			},
			{
				"x": -0.6160850257,
				"y": 1.9911169295,
				"z": 2.429803723,
				"element": "C" 
			},
			{
				"x": 0.6935520712,
				"y": 1.7475488693,
				"z": 2.8537425261,
				"element": "C" 
			},
			{
				"x": 1.2763707493,
				"y": 2.6684945848,
				"z": 3.6806722001,
				"element": "O" 
			},
			{
				"x": 1.3485834039,
				"y": 0.5879769153,
				"z": 2.4286314359,
				"element": "C" 
			},
			{
				"x": 0.6968394352,
				"y": -0.3138595121,
				"z": 1.5861131298,
				"element": "C" 
			},
			{
				"x": -1.8852597327,
				"y": -3.8142572272,
				"z": 2.3386944823,
				"element": "H" 
			},
			{
				"x": -3.0027495798,
				"y": -2.481111653,
				"z": 2.0177254071,
				"element": "H" 
			},
			{
				"x": -1.4698574774,
				"y": -2.1681545127,
				"z": 2.8397951667,
				"element": "H" 
			},
			{
				"x": -0.2261932474,
				"y": -2.8570814637,
				"z": 0.7469142388,
				"element": "H" 
			},
			{
				"x": -1.749037579,
				"y": -3.1565191573,
				"z": -0.0629298599,
				"element": "H" 
			},
			{
				"x": -2.4067194651,
				"y": -0.774882089,
				"z": 0.2544365732,
				"element": "H" 
			},
			{
				"x": -1.5470623248,
				"y": -1.6997591554,
				"z": -1.8093579758,
				"element": "H" 
			},
			{
				"x": 0.8001026436,
				"y": -2.1689529561,
				"z": -1.1238036831,
				"element": "H" 
			},
			{
				"x": 1.1677193667,
				"y": -0.458539782,
				"z": -1.1762470437,
				"element": "H" 
			},
			{
				"x": 0.5951826025,
				"y": -0.4204917671,
				"z": -3.6442280971,
				"element": "H" 
			},
			{
				"x": 0.2192961575,
				"y": -2.1455469064,
				"z": -3.5727821312,
				"element": "H" 
			},
			{
				"x": 1.8744233506,
				"y": -1.5910746177,
				"z": -3.2878438311,
				"element": "H" 
			},
			{
				"x": -3.2176028695,
				"y": -0.435334918,
				"z": -2.7402375437,
				"element": "H" 
			},
			{
				"x": -4.0587132584,
				"y": 1.7050189317,
				"z": -3.6718145122,
				"element": "H" 
			},
			{
				"x": -2.2925431137,
				"y": 4.7243144272,
				"z": -3.3068183709,
				"element": "H" 
			},
			{
				"x": -0.5958402176,
				"y": 3.7178184397,
				"z": -2.1270072309,
				"element": "H" 
			},
			{
				"x": 0.2326696316,
				"y": 1.602462912,
				"z": -1.1944553287,
				"element": "H" 
			},
			{
				"x": -2.2670956598,
				"y": 1.2843829682,
				"z": 1.2662470295,
				"element": "H" 
			},
			{
				"x": -1.120654172,
				"y": 2.8897416267,
				"z": 2.7696519436,
				"element": "H" 
			},
			{
				"x": 2.1679038084,
				"y": 2.3710675288,
				"z": 3.903341162,
				"element": "H" 
			},
			{
				"x": 2.3655665683,
				"y": 0.3847907695,
				"z": 2.7594610314,
				"element": "H" 
			},
			{
				"x": 1.2287175349,
				"y": -1.2097591683,
				"z": 1.2811933442,
				"element": "H" 
			}
		],
		 "valence_orbital": [ 
			{
				"type": "occ",
				"energy": -0.30241,
				"method": "rhf"
			},
			{
				"type": "occ",
				"energy": -0.24982,
				"method": "rhf"
			},
			{
				"type": "occ",
				"energy": -0.24277,
				"method": "rhf"
			},
			{
				"type": "occ",
				"energy": -0.21398,
				"method": "rhf"
			},
			{
				"type": "occ",
				"energy": -0.20856,
				"method": "rhf"
			},
			{
				"type": "unocc",
				"energy": -0.00326,
				"method": "rhf"
			},
			{
				"type": "unocc",
				"energy": 0.00675,
				"method": "rhf"
			},
			{
				"type": "unocc",
				"energy": 0.01464,
				"method": "rhf"
			},
			{
				"type": "unocc",
				"energy": 0.02092,
				"method": "rhf"
			},
			{
				"type": "unocc",
				"energy": 0.07188,
				"method": "rhf"
			}
		],
		"cosmo_sigma_profile": { 
			"-0.025": 0.0,
			"-0.024": 0.0,
			"-0.023": 0.0,
			"-0.022": 0.0,
			"-0.021": 0.0,
			"-0.02": 0.0,
			"-0.019": 0.0,
			"-0.018": 0.231584430646,
			"-0.017": 2.00542303789,
			"-0.016": 2.26049217308,
			"-0.015": 1.53597937176,
			"-0.014": 2.31441978071,
			"-0.013": 1.9965911706,
			"-0.012": 2.21845794406,
			"-0.011": 1.36228135449,
			"-0.01": 1.59710949846,
			"-0.009": 2.72194393369,
			"-0.008": 2.29561689866,
			"-0.007": 2.28348591532,
			"-0.006": 4.71412755679,
			"-0.005": 12.1054799898,
			"-0.004": 16.3595494733,
			"-0.003": 24.9736884517,
			"-0.002": 33.6557220351,
			"-0.001": 32.5600441112,
			"0.0": 34.7062489766,
			"0.001": 35.7502811037,
			"0.002": 24.904406305,
			"0.003": 16.8667730029,
			"0.004": 20.898146974,
			"0.005": 21.0758820958,
			"0.006": 14.6916273909,
			"0.007": 3.76811404423,
			"0.008": 3.35949234623,
			"0.009": 2.44411845094,
			"0.01": 3.46023592273,
			"0.011": 3.6808251186,
			"0.012": 2.80043071513,
			"0.013": 0.0,
			"0.014": 0.0,
			"0.015": 0.0,
			"0.016": 0.0,
			"0.017": 0.0,
			"0.018": 0.0,
			"0.019": 0.0,
			"0.02": 0.0,
			"0.021": 0.0,
			"0.022": 0.0,
			"0.023": 0.0,
			"0.024": 0.0,
			"0.025": 0.0
		}
	}
}
