{
	 "smiles": "CC(CC(=O)C1=CC=C(Cl)C=C1)C(O)=O", 
	 "Tm": 411.15, 
	 "num_atms": 26, 
	 "gaussian": { 
		 "optdone": 1, 
		 "sigma_profile": "yes", 
		 "theory": "DFT", 
		 "functional": "B3LYP", 
		 "basiset": "6-31G**", 
		 "properties": { 
			 "R2extent": 6008.579, 
			 "electric_dipole_moment_norm": 2.36683778278, 
			 "electric_quadrupole_moment_norm": 6.51988717924, 
			 "total_energy": -1111.69098759, 
			 "HOMO_LUMO_gap": 0.19189, 
			 "cosmo_polarized_energy": -14.11, 
			 "cosmo_cavitation_energy": 32.53, 
			 "cosmo_dispersion_energy": -23.11, 
			 "cosmo_repulsion_energy": 1.83, 
			 "cosmo_total_nonelectrostatic_energy": 11.24, 
			 "SMD_solvation_energy": 6.68 
		},
		"coords": [
			{
				"x": 2.9400110128,
				"y": -1.514965015,
				"z": -1.0630279675,
				"element": "C" 
			},
			{
				"x": 1.575686995,
				"y": -0.8148575867,
				"z": -1.2262245518,
				"element": "C" 
			},
			{
				"x": 0.8677557386,
				"y": -0.6228259692,
				"z": 0.1160648331,
				"element": "C" 
			},
			{
				"x": -0.3684217217,
				"y": 0.2639624297,
				"z": 0.0063081319,
				"element": "C" 
			},
			{
				"x": -0.6812307356,
				"y": 0.7669735077,
				"z": -1.0634435897,
				"element": "O" 
			},
			{
				"x": -1.1865184205,
				"y": 0.5207124208,
				"z": 1.2345722575,
				"element": "C" 
			},
			{
				"x": -0.8787954379,
				"y": -0.0294868779,
				"z": 2.4876241333,
				"element": "C" 
			},
			{
				"x": -1.671064759,
				"y": 0.2437188486,
				"z": 3.6010159361,
				"element": "C" 
			},
			{
				"x": -2.7812078525,
				"y": 1.0757402843,
				"z": 3.4546121512,
				"element": "C" 
			},
			{
				"x": -3.7829164426,
				"y": 1.4250767366,
				"z": 4.8512575898,
				"element": "Cl" 
			},
			{
				"x": -3.1107512815,
				"y": 1.635349749,
				"z": 2.2174868661,
				"element": "C" 
			},
			{
				"x": -2.3106355904,
				"y": 1.3532925515,
				"z": 1.1165432324,
				"element": "C" 
			},
			{
				"x": 0.7002253583,
				"y": -1.6375555052,
				"z": -2.1590066152,
				"element": "C" 
			},
			{
				"x": 1.0158479196,
				"y": -1.4303683392,
				"z": -3.4576457233,
				"element": "O" 
			},
			{
				"x": -0.1456501575,
				"y": -2.4337003177,
				"z": -1.8111005107,
				"element": "O" 
			},
			{
				"x": 2.8231666272,
				"y": -2.5020006677,
				"z": -0.6032459762,
				"element": "H" 
			},
			{
				"x": 3.4284796263,
				"y": -1.6442775762,
				"z": -2.0324104029,
				"element": "H" 
			},
			{
				"x": 3.600230609,
				"y": -0.9186726887,
				"z": -0.425596556,
				"element": "H" 
			},
			{
				"x": 1.7267786553,
				"y": 0.1578154741,
				"z": -1.7027303074,
				"element": "H" 
			},
			{
				"x": 1.557670753,
				"y": -0.1774531624,
				"z": 0.8446922546,
				"element": "H" 
			},
			{
				"x": 0.5689496328,
				"y": -1.5983894935,
				"z": 0.5170928672,
				"element": "H" 
			},
			{
				"x": -0.0192950942,
				"y": -0.6802273386,
				"z": 2.6082987432,
				"element": "H" 
			},
			{
				"x": -1.434815467,
				"y": -0.1817959204,
				"z": 4.5697883698,
				"element": "H" 
			},
			{
				"x": -3.9793525555,
				"y": 2.2780234955,
				"z": 2.1265699747,
				"element": "H" 
			},
			{
				"x": -2.5393617877,
				"y": 1.7709790886,
				"z": 0.1419247563,
				"element": "H" 
			},
			{
				"x": 0.4343143757,
				"y": -2.013868128,
				"z": -3.9736198967,
				"element": "H" 
			}
		],
		 "valence_orbital": [ 
			{
				"type": "occ",
				"energy": -0.31486,
				"method": "rhf"
			},
			{
				"type": "occ",
				"energy": -0.27479,
				"method": "rhf"
			},
			{
				"type": "occ",
				"energy": -0.27225,
				"method": "rhf"
			},
			{
				"type": "occ",
				"energy": -0.25864,
				"method": "rhf"
			},
			{
				"type": "occ",
				"energy": -0.25725,
				"method": "rhf"
			},
			{
				"type": "unocc",
				"energy": -0.06536,
				"method": "rhf"
			},
			{
				"type": "unocc",
				"energy": -0.02354,
				"method": "rhf"
			},
			{
				"type": "unocc",
				"energy": 0.01249,
				"method": "rhf"
			},
			{
				"type": "unocc",
				"energy": 0.0226,
				"method": "rhf"
			},
			{
				"type": "unocc",
				"energy": 0.02786,
				"method": "rhf"
			}
		],
		"cosmo_sigma_profile": { 
			"-0.025": 0.0,
			"-0.024": 0.0,
			"-0.023": 0.0,
			"-0.022": 0.0,
			"-0.021": 0.0,
			"-0.02": 0.0,
			"-0.019": 0.0,
			"-0.018": 0.536911291479,
			"-0.017": 0.821982647602,
			"-0.016": 1.24037089056,
			"-0.015": 0.966050093806,
			"-0.014": 0.535751961939,
			"-0.013": 0.240808191613,
			"-0.012": 0.0618026832994,
			"-0.011": 1.65459235702,
			"-0.01": 1.1698693291,
			"-0.009": 0.29147202485,
			"-0.008": 2.63651110423,
			"-0.007": 10.9416258185,
			"-0.006": 13.5238508008,
			"-0.005": 13.7092849406,
			"-0.004": 18.1510376389,
			"-0.003": 17.7403549924,
			"-0.002": 18.4667310362,
			"-0.001": 19.6968277989,
			"0.0": 21.3322266117,
			"0.001": 20.5722382919,
			"0.002": 24.6584643775,
			"0.003": 14.5623414126,
			"0.004": 14.7673264804,
			"0.005": 6.22888635046,
			"0.006": 5.80555650142,
			"0.007": 4.0999634986,
			"0.008": 4.05845166739,
			"0.009": 5.84022996579,
			"0.01": 4.11778257753,
			"0.011": 6.06043292521,
			"0.012": 5.40370680979,
			"0.013": 0.313012112015,
			"0.014": 0.0,
			"0.015": 0.0,
			"0.016": 0.0,
			"0.017": 0.0,
			"0.018": 0.0,
			"0.019": 0.0,
			"0.02": 0.0,
			"0.021": 0.0,
			"0.022": 0.0,
			"0.023": 0.0,
			"0.024": 0.0,
			"0.025": 0.0
		}
	}
}
