{
	 "smiles": "COC1=CC(=CC=C1O)C(C)=O", 
	 "Tm": 387.15, 
	 "num_atms": 22, 
	 "gaussian": { 
		 "optdone": 1, 
		 "sigma_profile": "yes", 
		 "theory": "DFT", 
		 "functional": "B3LYP", 
		 "basiset": "6-31G**", 
		 "properties": { 
			 "R2extent": 3090.9643, 
			 "electric_dipole_moment_norm": 1.6380174297, 
			 "electric_quadrupole_moment_norm": 17.8122694812, 
			 "total_energy": -574.648413262, 
			 "HOMO_LUMO_gap": 0.17394, 
			 "cosmo_polarized_energy": -10.87, 
			 "cosmo_cavitation_energy": 25.95, 
			 "cosmo_dispersion_energy": -19.09, 
			 "cosmo_repulsion_energy": 1.52, 
			 "cosmo_total_nonelectrostatic_energy": 8.38, 
			 "SMD_solvation_energy": 6.29 
		},
		"coords": [
			{
				"x": 3.4737516961,
				"y": 2.5895091807,
				"z": 1.8153934465,
				"element": "C" 
			},
			{
				"x": 2.2934529647,
				"y": 3.0202184761,
				"z": 1.1492234577,
				"element": "O" 
			},
			{
				"x": 1.3055549406,
				"y": 2.0927879919,
				"z": 0.9288820441,
				"element": "C" 
			},
			{
				"x": 1.335687887,
				"y": 0.758435394,
				"z": 1.292085393,
				"element": "C" 
			},
			{
				"x": 0.2405435516,
				"y": -0.0800448175,
				"z": 0.9983839728,
				"element": "C" 
			},
			{
				"x": -0.8728832054,
				"y": 0.4529465515,
				"z": 0.3372338752,
				"element": "C" 
			},
			{
				"x": -0.905846217,
				"y": 1.7986140941,
				"z": -0.030321598,
				"element": "C" 
			},
			{
				"x": 0.1766204082,
				"y": 2.6240247386,
				"z": 0.2609035852,
				"element": "C" 
			},
			{
				"x": 0.1539452594,
				"y": 3.9321129241,
				"z": -0.0919794578,
				"element": "O" 
			},
			{
				"x": 0.3370019925,
				"y": -1.5079848487,
				"z": 1.4172996561,
				"element": "C" 
			},
			{
				"x": -0.8250292771,
				"y": -2.4425625173,
				"z": 1.1174156991,
				"element": "C" 
			},
			{
				"x": 1.3329498595,
				"y": -1.9277386023,
				"z": 1.9933726075,
				"element": "O" 
			},
			{
				"x": 3.2475096201,
				"y": 2.2161824476,
				"z": 2.8212955017,
				"element": "H" 
			},
			{
				"x": 4.1185938088,
				"y": 3.466114433,
				"z": 1.8884609405,
				"element": "H" 
			},
			{
				"x": 3.9859517226,
				"y": 1.8042408904,
				"z": 1.2467085154,
				"element": "H" 
			},
			{
				"x": 2.1821136344,
				"y": 0.3167268095,
				"z": 1.8041991425,
				"element": "H" 
			},
			{
				"x": -1.7251970665,
				"y": -0.1753020433,
				"z": 0.1022434559,
				"element": "H" 
			},
			{
				"x": -1.7608251594,
				"y": 2.2265405379,
				"z": -0.5429133574,
				"element": "H" 
			},
			{
				"x": 0.9941603719,
				"y": 4.3205969997,
				"z": 0.2000965282,
				"element": "H" 
			},
			{
				"x": -0.5775698935,
				"y": -3.4358593865,
				"z": 1.4927713425,
				"element": "H" 
			},
			{
				"x": -1.7461793734,
				"y": -2.0926222048,
				"z": 1.5961559308,
				"element": "H" 
			},
			{
				"x": -1.0179075252,
				"y": -2.4990370486,
				"z": 0.0404893183,
				"element": "H" 
			}
		],
		 "valence_orbital": [ 
			{
				"type": "occ",
				"energy": -0.34688,
				"method": "rhf"
			},
			{
				"type": "occ",
				"energy": -0.32047,
				"method": "rhf"
			},
			{
				"type": "occ",
				"energy": -0.24596,
				"method": "rhf"
			},
			{
				"type": "occ",
				"energy": -0.2414,
				"method": "rhf"
			},
			{
				"type": "occ",
				"energy": -0.21778,
				"method": "rhf"
			},
			{
				"type": "unocc",
				"energy": -0.04384,
				"method": "rhf"
			},
			{
				"type": "unocc",
				"energy": 0.00155,
				"method": "rhf"
			},
			{
				"type": "unocc",
				"energy": 0.05478,
				"method": "rhf"
			},
			{
				"type": "unocc",
				"energy": 0.07278,
				"method": "rhf"
			},
			{
				"type": "unocc",
				"energy": 0.09392,
				"method": "rhf"
			}
		],
		"cosmo_sigma_profile": { 
			"-0.025": 0.0,
			"-0.024": 0.0,
			"-0.023": 0.0,
			"-0.022": 0.0,
			"-0.021": 0.0,
			"-0.02": 0.0,
			"-0.019": 0.0,
			"-0.018": 0.0,
			"-0.017": 0.0,
			"-0.016": 0.0,
			"-0.015": 0.348285073438,
			"-0.014": 0.495607392311,
			"-0.013": 0.432932447657,
			"-0.012": 0.572963963812,
			"-0.011": 0.575392405905,
			"-0.01": 0.868260515263,
			"-0.009": 0.976191247502,
			"-0.008": 0.529113904775,
			"-0.007": 2.00935879927,
			"-0.006": 14.9470792107,
			"-0.005": 21.571096408,
			"-0.004": 19.5584163192,
			"-0.003": 16.4015390621,
			"-0.002": 13.288576255,
			"-0.001": 13.7537697045,
			"0.0": 12.8697688056,
			"0.001": 11.5917956695,
			"0.002": 13.6551793621,
			"0.003": 15.6977390025,
			"0.004": 13.7089397023,
			"0.005": 4.72653315737,
			"0.006": 3.90682838619,
			"0.007": 2.66818731116,
			"0.008": 2.50981118399,
			"0.009": 3.61795440664,
			"0.01": 3.54586752822,
			"0.011": 4.04979038773,
			"0.012": 3.62365989172,
			"0.013": 2.93033787998,
			"0.014": 0.650655419373,
			"0.015": 0.0,
			"0.016": 0.0,
			"0.017": 0.0,
			"0.018": 0.0,
			"0.019": 0.0,
			"0.02": 0.0,
			"0.021": 0.0,
			"0.022": 0.0,
			"0.023": 0.0,
			"0.024": 0.0,
			"0.025": 0.0
		}
	}
}
