{
	 "smiles": "COCCN1C(C)=C(C)C2=C1C=CC(=C2)C(O)=O", 
	 "Tm": 493.15, 
	 "num_atms": 35, 
	 "gaussian": { 
		 "optdone": 1, 
		 "sigma_profile": "yes", 
		 "theory": "DFT", 
		 "functional": "B3LYP", 
		 "basiset": "6-31G**", 
		 "properties": { 
			 "R2extent": 6236.9193, 
			 "electric_dipole_moment_norm": 5.82767466834, 
			 "electric_quadrupole_moment_norm": 17.2657852911, 
			 "total_energy": -824.184030031, 
			 "HOMO_LUMO_gap": 0.17286, 
			 "cosmo_polarized_energy": -15.53, 
			 "cosmo_cavitation_energy": 37.9, 
			 "cosmo_dispersion_energy": -26.5, 
			 "cosmo_repulsion_energy": 2.06, 
			 "cosmo_total_nonelectrostatic_energy": 13.46, 
			 "SMD_solvation_energy": 7.84 
		},
		"coords": [
			{
				"x": -2.9660326522,
				"y": -0.2388291512,
				"z": -2.0214515163,
				"element": "C" 
			},
			{
				"x": -1.6431621577,
				"y": -0.7092251911,
				"z": -1.8610377183,
				"element": "O" 
			},
			{
				"x": -0.6827129038,
				"y": 0.1005128456,
				"z": -2.5010462439,
				"element": "C" 
			},
			{
				"x": 0.7098058165,
				"y": -0.4348812598,
				"z": -2.1708604816,
				"element": "C" 
			},
			{
				"x": 1.1332964479,
				"y": -0.2192214504,
				"z": -0.7971828916,
				"element": "N" 
			},
			{
				"x": 1.9153950599,
				"y": 0.8541533246,
				"z": -0.3404429974,
				"element": "C" 
			},
			{
				"x": 2.374602317,
				"y": 1.9246441474,
				"z": -1.2788354223,
				"element": "C" 
			},
			{
				"x": 2.1549997427,
				"y": 0.7102735247,
				"z": 1.0063001221,
				"element": "C" 
			},
			{
				"x": 2.9432489146,
				"y": 1.61004771,
				"z": 1.9099056879,
				"element": "C" 
			},
			{
				"x": 1.4999276775,
				"y": -0.5064717671,
				"z": 1.4152273237,
				"element": "C" 
			},
			{
				"x": 0.8660615364,
				"y": -1.0562449303,
				"z": 0.2668942692,
				"element": "C" 
			},
			{
				"x": 0.132787381,
				"y": -2.2501912852,
				"z": 0.3250272655,
				"element": "C" 
			},
			{
				"x": 0.054254485,
				"y": -2.8968466892,
				"z": 1.5476778132,
				"element": "C" 
			},
			{
				"x": 0.681865137,
				"y": -2.3715095767,
				"z": 2.7028492676,
				"element": "C" 
			},
			{
				"x": 1.4012698415,
				"y": -1.1745849568,
				"z": 2.6403351393,
				"element": "C" 
			},
			{
				"x": 0.5387396825,
				"y": -3.1308311905,
				"z": 3.9637461939,
				"element": "C" 
			},
			{
				"x": 1.171618372,
				"y": -2.5495363355,
				"z": 5.021335273,
				"element": "O" 
			},
			{
				"x": -0.0732691166,
				"y": -4.1760343631,
				"z": 4.093701524,
				"element": "O" 
			},
			{
				"x": -3.263452227,
				"y": -0.2107721445,
				"z": -3.0816397813,
				"element": "H" 
			},
			{
				"x": -3.092432397,
				"y": 0.769953406,
				"z": -1.5993609347,
				"element": "H" 
			},
			{
				"x": -3.6215381391,
				"y": -0.9301638969,
				"z": -1.4877161722,
				"element": "H" 
			},
			{
				"x": -0.8228569478,
				"y": 0.0828005838,
				"z": -3.5966945875,
				"element": "H" 
			},
			{
				"x": -0.7713986992,
				"y": 1.1497650958,
				"z": -2.1730702366,
				"element": "H" 
			},
			{
				"x": 1.4358387026,
				"y": 0.0376937705,
				"z": -2.8378022777,
				"element": "H" 
			},
			{
				"x": 0.732005373,
				"y": -1.5092177702,
				"z": -2.3800101897,
				"element": "H" 
			},
			{
				"x": 3.0373442287,
				"y": 1.5346567544,
				"z": -2.0623286784,
				"element": "H" 
			},
			{
				"x": 2.9337069209,
				"y": 2.686156524,
				"z": -0.7324967975,
				"element": "H" 
			},
			{
				"x": 1.5383204708,
				"y": 2.4276471652,
				"z": -1.7799255268,
				"element": "H" 
			},
			{
				"x": 3.3291278152,
				"y": 2.4875948138,
				"z": 1.3842058976,
				"element": "H" 
			},
			{
				"x": 2.3323108451,
				"y": 1.9717307532,
				"z": 2.7461219544,
				"element": "H" 
			},
			{
				"x": 3.8028127621,
				"y": 1.0867707015,
				"z": 2.3469466273,
				"element": "H" 
			},
			{
				"x": -0.3858899126,
				"y": -2.6351693696,
				"z": -0.5450916727,
				"element": "H" 
			},
			{
				"x": -0.5016852372,
				"y": -3.8223192444,
				"z": 1.6489701299,
				"element": "H" 
			},
			{
				"x": 1.8738353508,
				"y": -0.7796760292,
				"z": 3.5328320302,
				"element": "H" 
			},
			{
				"x": 1.0013555096,
				"y": -3.1403745185,
				"z": 5.7725176078,
				"element": "H" 
			}
		],
		 "valence_orbital": [ 
			{
				"type": "occ",
				"energy": -0.26877,
				"method": "rhf"
			},
			{
				"type": "occ",
				"energy": -0.2628,
				"method": "rhf"
			},
			{
				"type": "occ",
				"energy": -0.25626,
				"method": "rhf"
			},
			{
				"type": "occ",
				"energy": -0.21457,
				"method": "rhf"
			},
			{
				"type": "occ",
				"energy": -0.19431,
				"method": "rhf"
			},
			{
				"type": "unocc",
				"energy": -0.02145,
				"method": "rhf"
			},
			{
				"type": "unocc",
				"energy": 0.00057,
				"method": "rhf"
			},
			{
				"type": "unocc",
				"energy": 0.06276,
				"method": "rhf"
			},
			{
				"type": "unocc",
				"energy": 0.07429,
				"method": "rhf"
			},
			{
				"type": "unocc",
				"energy": 0.09064,
				"method": "rhf"
			}
		],
		"cosmo_sigma_profile": { 
			"-0.025": 0.0,
			"-0.024": 0.0,
			"-0.023": 0.0,
			"-0.022": 0.0,
			"-0.021": 0.0,
			"-0.02": 0.0,
			"-0.019": 0.0,
			"-0.018": 0.359014376945,
			"-0.017": 0.696663681971,
			"-0.016": 0.743566719026,
			"-0.015": 1.03916296076,
			"-0.014": 0.687580780204,
			"-0.013": 0.744011692419,
			"-0.012": 0.463757130945,
			"-0.011": 0.679350094976,
			"-0.01": 0.670120306779,
			"-0.009": 0.497739597838,
			"-0.008": 0.611840581047,
			"-0.007": 1.67433557143,
			"-0.006": 8.33220291752,
			"-0.005": 19.7747801476,
			"-0.004": 32.5130245164,
			"-0.003": 35.0398372934,
			"-0.002": 31.1089721606,
			"-0.001": 23.0287718634,
			"0.0": 22.3448124664,
			"0.001": 15.7003823369,
			"0.002": 12.463754604,
			"0.003": 16.2462262649,
			"0.004": 16.5209415144,
			"0.005": 20.3174724083,
			"0.006": 10.246824926,
			"0.007": 4.82769430767,
			"0.008": 5.1522798749,
			"0.009": 3.95288346397,
			"0.01": 2.71201094728,
			"0.011": 2.46328453455,
			"0.012": 5.00852111268,
			"0.013": 2.28496001186,
			"0.014": 0.0,
			"0.015": 0.0,
			"0.016": 0.0,
			"0.017": 0.0,
			"0.018": 0.0,
			"0.019": 0.0,
			"0.02": 0.0,
			"0.021": 0.0,
			"0.022": 0.0,
			"0.023": 0.0,
			"0.024": 0.0,
			"0.025": 0.0
		}
	}
}
