{
	 "smiles": "CC(Cl)C(=O)NC1=C(C)C=CC(F)=C1", 
	 "Tm": 375.15, 
	 "num_atms": 25, 
	 "gaussian": { 
		 "optdone": 1, 
		 "sigma_profile": "yes", 
		 "theory": "DFT", 
		 "functional": "B3LYP", 
		 "basiset": "6-31G**", 
		 "properties": { 
			 "R2extent": 3914.6673, 
			 "electric_dipole_moment_norm": 2.88964347109, 
			 "electric_quadrupole_moment_norm": 11.6209095242, 
			 "total_energy": -1077.72964447, 
			 "HOMO_LUMO_gap": 0.19975, 
			 "cosmo_polarized_energy": -9.31, 
			 "cosmo_cavitation_energy": 30.62, 
			 "cosmo_dispersion_energy": -21.85, 
			 "cosmo_repulsion_energy": 1.69, 
			 "cosmo_total_nonelectrostatic_energy": 10.46, 
			 "SMD_solvation_energy": 5.79 
		},
		"coords": [
			{
				"x": -0.4180238741,
				"y": 3.6546324695,
				"z": -0.8623840405,
				"element": "C" 
			},
			{
				"x": -0.0189510562,
				"y": 2.3515666773,
				"z": -1.5487231155,
				"element": "C" 
			},
			{
				"x": 1.803281852,
				"y": 2.30914182,
				"z": -1.7942371901,
				"element": "Cl" 
			},
			{
				"x": -0.5949093288,
				"y": 1.1340233929,
				"z": -0.7974347167,
				"element": "C" 
			},
			{
				"x": -1.8154074397,
				"y": 1.0710183359,
				"z": -0.7201344464,
				"element": "O" 
			},
			{
				"x": 0.2908482613,
				"y": 0.2424011929,
				"z": -0.2709580748,
				"element": "N" 
			},
			{
				"x": 0.0245850653,
				"y": -0.9355026841,
				"z": 0.462639492,
				"element": "C" 
			},
			{
				"x": 1.1343701372,
				"y": -1.7058146382,
				"z": 0.8844442209,
				"element": "C" 
			},
			{
				"x": 2.5520154671,
				"y": -1.2916295271,
				"z": 0.5635453944,
				"element": "C" 
			},
			{
				"x": 0.8849060934,
				"y": -2.8716071099,
				"z": 1.6126171979,
				"element": "C" 
			},
			{
				"x": -0.4077436987,
				"y": -3.2895614851,
				"z": 1.9292753669,
				"element": "C" 
			},
			{
				"x": -1.4649318229,
				"y": -2.5033674245,
				"z": 1.4948814044,
				"element": "C" 
			},
			{
				"x": -2.7268089108,
				"y": -2.8832574237,
				"z": 1.7865708179,
				"element": "F" 
			},
			{
				"x": -1.2830749269,
				"y": -1.3344447149,
				"z": 0.7683927515,
				"element": "C" 
			},
			{
				"x": -1.5045070969,
				"y": 3.6599809703,
				"z": -0.7449880956,
				"element": "H" 
			},
			{
				"x": -0.1153268237,
				"y": 4.5145998506,
				"z": -1.463211827,
				"element": "H" 
			},
			{
				"x": 0.0444221039,
				"y": 3.7338623115,
				"z": 0.1252007157,
				"element": "H" 
			},
			{
				"x": -0.4292957535,
				"y": 2.3094399743,
				"z": -2.5590620986,
				"element": "H" 
			},
			{
				"x": 1.2646061644,
				"y": 0.4490185089,
				"z": -0.4462662631,
				"element": "H" 
			},
			{
				"x": 2.8072384673,
				"y": -0.313080162,
				"z": 0.9912494614,
				"element": "H" 
			},
			{
				"x": 3.2630118462,
				"y": -2.0141467922,
				"z": 0.970681521,
				"element": "H" 
			},
			{
				"x": 2.734566772,
				"y": -1.2341841939,
				"z": -0.5175346784,
				"element": "H" 
			},
			{
				"x": 1.7297678372,
				"y": -3.4704762613,
				"z": 1.9413386196,
				"element": "H" 
			},
			{
				"x": -0.5968830556,
				"y": -4.1951443498,
				"z": 2.4941848449,
				"element": "H" 
			},
			{
				"x": -2.1308562795,
				"y": -0.7481687375,
				"z": 0.4459127383,
				"element": "H" 
			}
		],
		 "valence_orbital": [ 
			{
				"type": "occ",
				"energy": -0.31957,
				"method": "rhf"
			},
			{
				"type": "occ",
				"energy": -0.30857,
				"method": "rhf"
			},
			{
				"type": "occ",
				"energy": -0.26731,
				"method": "rhf"
			},
			{
				"type": "occ",
				"energy": -0.24696,
				"method": "rhf"
			},
			{
				"type": "occ",
				"energy": -0.227,
				"method": "rhf"
			},
			{
				"type": "unocc",
				"energy": -0.02725,
				"method": "rhf"
			},
			{
				"type": "unocc",
				"energy": -0.00028,
				"method": "rhf"
			},
			{
				"type": "unocc",
				"energy": 0.0035,
				"method": "rhf"
			},
			{
				"type": "unocc",
				"energy": 0.03512,
				"method": "rhf"
			},
			{
				"type": "unocc",
				"energy": 0.08108,
				"method": "rhf"
			}
		],
		"cosmo_sigma_profile": { 
			"-0.025": 0.0,
			"-0.024": 0.0,
			"-0.023": 0.0,
			"-0.022": 0.0,
			"-0.021": 0.0,
			"-0.02": 0.0,
			"-0.019": 0.0,
			"-0.018": 0.0,
			"-0.017": 0.0,
			"-0.016": 0.0,
			"-0.015": 0.0,
			"-0.014": 0.0,
			"-0.013": 0.0,
			"-0.012": 0.0,
			"-0.011": 0.0,
			"-0.01": 0.0296240459778,
			"-0.009": 1.51794800867,
			"-0.008": 3.75746303804,
			"-0.007": 5.76939552277,
			"-0.006": 11.6285266399,
			"-0.005": 17.8133801114,
			"-0.004": 18.6820933875,
			"-0.003": 17.8481329222,
			"-0.002": 18.0231950624,
			"-0.001": 21.054850196,
			"0.0": 18.2142305371,
			"0.001": 18.2398010474,
			"0.002": 19.4511728177,
			"0.003": 20.419160874,
			"0.004": 21.9999962777,
			"0.005": 15.8099960022,
			"0.006": 3.39216019139,
			"0.007": 2.00981506464,
			"0.008": 1.34478645434,
			"0.009": 1.63185360199,
			"0.01": 1.47900380062,
			"0.011": 2.61594483015,
			"0.012": 2.42191576283,
			"0.013": 0.61627345805,
			"0.014": 0.0,
			"0.015": 0.0,
			"0.016": 0.0,
			"0.017": 0.0,
			"0.018": 0.0,
			"0.019": 0.0,
			"0.02": 0.0,
			"0.021": 0.0,
			"0.022": 0.0,
			"0.023": 0.0,
			"0.024": 0.0,
			"0.025": 0.0
		}
	}
}
