{
	 "smiles": "COC1=C(N)C=CC(NC(C)=O)=C1", 
	 "Tm": 402.15, 
	 "num_atms": 25, 
	 "gaussian": { 
		 "optdone": 1, 
		 "sigma_profile": "yes", 
		 "theory": "DFT", 
		 "functional": "B3LYP", 
		 "basiset": "6-31G**", 
		 "properties": { 
			 "R2extent": 3442.7663, 
			 "electric_dipole_moment_norm": 2.32577234484, 
			 "electric_quadrupole_moment_norm": 17.7622345154, 
			 "total_energy": -610.152595019, 
			 "HOMO_LUMO_gap": 0.18078, 
			 "cosmo_polarized_energy": -16.26, 
			 "cosmo_cavitation_energy": 28.58, 
			 "cosmo_dispersion_energy": -21.04, 
			 "cosmo_repulsion_energy": 1.68, 
			 "cosmo_total_nonelectrostatic_energy": 9.21, 
			 "SMD_solvation_energy": 6.34 
		},
		"coords": [
			{
				"x": 1.1339360377,
				"y": 1.3432612194,
				"z": -2.0005600928,
				"element": "C" 
			},
			{
				"x": 0.4149408804,
				"y": 0.1342130744,
				"z": -2.1913991643,
				"element": "O" 
			},
			{
				"x": 0.3068673896,
				"y": -0.7282317488,
				"z": -1.1293388143,
				"element": "C" 
			},
			{
				"x": -0.4141541217,
				"y": -1.9121581827,
				"z": -1.4128443791,
				"element": "C" 
			},
			{
				"x": -1.0003191684,
				"y": -2.0770511361,
				"z": -2.6709975734,
				"element": "N" 
			},
			{
				"x": -0.552101475,
				"y": -2.8484072691,
				"z": -0.3862631957,
				"element": "C" 
			},
			{
				"x": -0.0027403743,
				"y": -2.6260807328,
				"z": 0.8769965738,
				"element": "C" 
			},
			{
				"x": 0.7014816063,
				"y": -1.4493009443,
				"z": 1.1428409908,
				"element": "C" 
			},
			{
				"x": 1.2338514149,
				"y": -1.2732337831,
				"z": 2.4434673074,
				"element": "N" 
			},
			{
				"x": 1.9711080853,
				"y": -0.2288453972,
				"z": 2.9438227891,
				"element": "C" 
			},
			{
				"x": 2.3726309057,
				"y": -0.3814705452,
				"z": 4.4055843773,
				"element": "C" 
			},
			{
				"x": 2.2967610844,
				"y": 0.7613448318,
				"z": 2.2982189701,
				"element": "O" 
			},
			{
				"x": 0.8579420041,
				"y": -0.4916712683,
				"z": 0.1259167738,
				"element": "C" 
			},
			{
				"x": 1.0990934463,
				"y": 1.8696248151,
				"z": -2.9559702964,
				"element": "H" 
			},
			{
				"x": 2.1791726776,
				"y": 1.152451977,
				"z": -1.7271243269,
				"element": "H" 
			},
			{
				"x": 0.672389189,
				"y": 1.9666799681,
				"z": -1.2251191353,
				"element": "H" 
			},
			{
				"x": -0.5826138323,
				"y": -1.4938522015,
				"z": -3.3837775799,
				"element": "H" 
			},
			{
				"x": -1.0955460567,
				"y": -3.0389704607,
				"z": -2.9666942893,
				"element": "H" 
			},
			{
				"x": -1.1047185932,
				"y": -3.7645750893,
				"z": -0.5777945159,
				"element": "H" 
			},
			{
				"x": -0.1279060287,
				"y": -3.3761273923,
				"z": 1.654410618,
				"element": "H" 
			},
			{
				"x": 1.0363800614,
				"y": -2.0277108054,
				"z": 3.0837038599,
				"element": "H" 
			},
			{
				"x": 3.4622169195,
				"y": -0.3228122705,
				"z": 4.4757877808,
				"element": "H" 
			},
			{
				"x": 1.9654249473,
				"y": 0.462438251,
				"z": 4.969456994,
				"element": "H" 
			},
			{
				"x": 2.0373263283,
				"y": -1.3124925306,
				"z": 4.8716072438,
				"element": "H" 
			},
			{
				"x": 1.4115766726,
				"y": 0.4083776209,
				"z": 0.3449690844,
				"element": "H" 
			}
		],
		 "valence_orbital": [ 
			{
				"type": "occ",
				"energy": -0.3101,
				"method": "rhf"
			},
			{
				"type": "occ",
				"energy": -0.26252,
				"method": "rhf"
			},
			{
				"type": "occ",
				"energy": -0.24477,
				"method": "rhf"
			},
			{
				"type": "occ",
				"energy": -0.22441,
				"method": "rhf"
			},
			{
				"type": "occ",
				"energy": -0.17636,
				"method": "rhf"
			},
			{
				"type": "unocc",
				"energy": 0.00442,
				"method": "rhf"
			},
			{
				"type": "unocc",
				"energy": 0.01734,
				"method": "rhf"
			},
			{
				"type": "unocc",
				"energy": 0.06068,
				"method": "rhf"
			},
			{
				"type": "unocc",
				"energy": 0.07004,
				"method": "rhf"
			},
			{
				"type": "unocc",
				"energy": 0.09378,
				"method": "rhf"
			}
		],
		"cosmo_sigma_profile": { 
			"-0.025": 0.0,
			"-0.024": 0.0,
			"-0.023": 0.0,
			"-0.022": 0.0,
			"-0.021": 0.0,
			"-0.02": 0.0,
			"-0.019": 0.0,
			"-0.018": 0.0,
			"-0.017": 0.0,
			"-0.016": 0.0,
			"-0.015": 0.366205176183,
			"-0.014": 1.41556971275,
			"-0.013": 1.67576295391,
			"-0.012": 2.19771874759,
			"-0.011": 2.96572609287,
			"-0.01": 3.66822762429,
			"-0.009": 3.83658594025,
			"-0.008": 4.07006992253,
			"-0.007": 4.23662323783,
			"-0.006": 9.82579181653,
			"-0.005": 16.5723443961,
			"-0.004": 17.0595940237,
			"-0.003": 22.1468561489,
			"-0.002": 17.6598029515,
			"-0.001": 12.8134607207,
			"0.0": 8.97951098171,
			"0.001": 7.90067460409,
			"0.002": 8.86921356826,
			"0.003": 11.4770254819,
			"0.004": 13.1334875434,
			"0.005": 13.0798998895,
			"0.006": 13.1881418151,
			"0.007": 6.34047283145,
			"0.008": 3.17530659114,
			"0.009": 3.12458118024,
			"0.01": 3.0037659867,
			"0.011": 1.49149146847,
			"0.012": 2.70864949093,
			"0.013": 3.94647348486,
			"0.014": 3.11240299096,
			"0.015": 1.93489661261,
			"0.016": 0.0864446140342,
			"0.017": 0.0,
			"0.018": 0.0,
			"0.019": 0.0,
			"0.02": 0.0,
			"0.021": 0.0,
			"0.022": 0.0,
			"0.023": 0.0,
			"0.024": 0.0,
			"0.025": 0.0
		}
	}
}
