{
	 "smiles": "COC1=C(C=CC=C1)C1=NC=C(N1)C(O)=O", 
	 "Tm": 493.15, 
	 "num_atms": 26, 
	 "gaussian": { 
		 "optdone": 1, 
		 "sigma_profile": "yes", 
		 "theory": "DFT", 
		 "functional": "B3LYP", 
		 "basiset": "6-31G**", 
		 "properties": { 
			 "R2extent": 4466.8712, 
			 "electric_dipole_moment_norm": 5.57036276916, 
			 "electric_quadrupole_moment_norm": 23.7897851043, 
			 "total_energy": -760.35704807, 
			 "HOMO_LUMO_gap": 0.16952, 
			 "cosmo_polarized_energy": -25.73, 
			 "cosmo_cavitation_energy": 31.09, 
			 "cosmo_dispersion_energy": -22.3, 
			 "cosmo_repulsion_energy": 1.73, 
			 "cosmo_total_nonelectrostatic_energy": 10.52, 
			 "SMD_solvation_energy": 6.13 
		},
		"coords": [
			{
				"x": 0.7816589747,
				"y": -0.4655618587,
				"z": -3.2649211817,
				"element": "C" 
			},
			{
				"x": -0.3310081775,
				"y": -1.0127562744,
				"z": -2.5543837045,
				"element": "O" 
			},
			{
				"x": -0.9654038497,
				"y": -0.1878186524,
				"z": -1.6672816844,
				"element": "C" 
			},
			{
				"x": -0.42561926,
				"y": 0.1660961256,
				"z": -0.4063216944,
				"element": "C" 
			},
			{
				"x": -1.2068040157,
				"y": 0.9783760999,
				"z": 0.4394548123,
				"element": "C" 
			},
			{
				"x": -2.4648781123,
				"y": 1.437475742,
				"z": 0.0650661059,
				"element": "C" 
			},
			{
				"x": -2.9859808363,
				"y": 1.0759318273,
				"z": -1.1786115855,
				"element": "C" 
			},
			{
				"x": -2.2364315352,
				"y": 0.26983084,
				"z": -2.0311804823,
				"element": "C" 
			},
			{
				"x": 0.8864533781,
				"y": -0.2962191496,
				"z": 0.0620205518,
				"element": "C" 
			},
			{
				"x": 1.5554969002,
				"y": -1.3781432679,
				"z": -0.3254521021,
				"element": "N" 
			},
			{
				"x": 2.718089822,
				"y": -1.3801332964,
				"z": 0.3866806577,
				"element": "C" 
			},
			{
				"x": 2.7821293001,
				"y": -0.2969126339,
				"z": 1.2397909309,
				"element": "C" 
			},
			{
				"x": 1.5857127651,
				"y": 0.381230759,
				"z": 1.0350341223,
				"element": "N" 
			},
			{
				"x": 3.8258211429,
				"y": 0.0879079586,
				"z": 2.1972163054,
				"element": "C" 
			},
			{
				"x": 3.4343806736,
				"y": 0.9427549902,
				"z": 3.1961083222,
				"element": "O" 
			},
			{
				"x": 4.9697542581,
				"y": -0.2931633115,
				"z": 2.1321824652,
				"element": "O" 
			},
			{
				"x": 1.6181280452,
				"y": -0.2386491338,
				"z": -2.5981933562,
				"element": "H" 
			},
			{
				"x": 0.4856000427,
				"y": 0.4362582606,
				"z": -3.8163566072,
				"element": "H" 
			},
			{
				"x": 1.094180974,
				"y": -1.2356993395,
				"z": -3.9719608099,
				"element": "H" 
			},
			{
				"x": -0.8365888051,
				"y": 1.2182770473,
				"z": 1.4324766102,
				"element": "H" 
			},
			{
				"x": -3.0413948081,
				"y": 2.054085618,
				"z": 0.7473916223,
				"element": "H" 
			},
			{
				"x": -3.9713557503,
				"y": 1.4167936634,
				"z": -1.4819523463,
				"element": "H" 
			},
			{
				"x": -2.6168849611,
				"y": -0.0315831261,
				"z": -3.0016919165,
				"element": "H" 
			},
			{
				"x": 3.4545815049,
				"y": -2.1643715902,
				"z": 0.2825005895,
				"element": "H" 
			},
			{
				"x": 1.3984344014,
				"y": 1.3321295206,
				"z": 1.3181506941,
				"element": "H" 
			},
			{
				"x": 2.4741279285,
				"y": 0.903063182,
				"z": 3.3101336814,
				"element": "H" 
			}
		],
		 "valence_orbital": [ 
			{
				"type": "occ",
				"energy": -0.29008,
				"method": "rhf"
			},
			{
				"type": "occ",
				"energy": -0.27823,
				"method": "rhf"
			},
			{
				"type": "occ",
				"energy": -0.27431,
				"method": "rhf"
			},
			{
				"type": "occ",
				"energy": -0.25322,
				"method": "rhf"
			},
			{
				"type": "occ",
				"energy": -0.2297,
				"method": "rhf"
			},
			{
				"type": "unocc",
				"energy": -0.06018,
				"method": "rhf"
			},
			{
				"type": "unocc",
				"energy": -0.01817,
				"method": "rhf"
			},
			{
				"type": "unocc",
				"energy": -0.01525,
				"method": "rhf"
			},
			{
				"type": "unocc",
				"energy": 0.02918,
				"method": "rhf"
			},
			{
				"type": "unocc",
				"energy": 0.04844,
				"method": "rhf"
			}
		],
		"cosmo_sigma_profile": { 
			"-0.025": 0.0,
			"-0.024": 0.0,
			"-0.023": 0.0,
			"-0.022": 0.0,
			"-0.021": 0.0336646104868,
			"-0.02": 0.655350099807,
			"-0.019": 1.67209653957,
			"-0.018": 1.39749912983,
			"-0.017": 2.42113756388,
			"-0.016": 1.8879010049,
			"-0.015": 2.05537420649,
			"-0.014": 1.46928766034,
			"-0.013": 1.92470350318,
			"-0.012": 1.84875116994,
			"-0.011": 2.18799875024,
			"-0.01": 1.14972175333,
			"-0.009": 1.9000510505,
			"-0.008": 2.95372057692,
			"-0.007": 5.04844165312,
			"-0.006": 11.0884725704,
			"-0.005": 15.1186558866,
			"-0.004": 15.6703259834,
			"-0.003": 19.0198797974,
			"-0.002": 17.9504905048,
			"-0.001": 15.1749024751,
			"0.0": 14.5051756072,
			"0.001": 12.8991983886,
			"0.002": 14.0758434083,
			"0.003": 15.8632472965,
			"0.004": 14.3006228531,
			"0.005": 7.13041970726,
			"0.006": 4.16887160433,
			"0.007": 4.81918773014,
			"0.008": 4.73559970377,
			"0.009": 5.87498393443,
			"0.01": 5.8974950079,
			"0.011": 7.72925620828,
			"0.012": 7.60200929219,
			"0.013": 2.55649228856,
			"0.014": 1.09179979213,
			"0.015": 0.930118109822,
			"0.016": 0.975258897544,
			"0.017": 0.864389459312,
			"0.018": 0.238939771403,
			"0.019": 0.0,
			"0.02": 0.0,
			"0.021": 0.0,
			"0.022": 0.0,
			"0.023": 0.0,
			"0.024": 0.0,
			"0.025": 0.0
		}
	}
}
