{
	 "smiles": "CCOC(=O)C(=CNC1=C(OC)C=CC(Cl)=C1)C#N", 
	 "Tm": 406.15, 
	 "num_atms": 32, 
	 "gaussian": { 
		 "optdone": 1, 
		 "sigma_profile": "yes", 
		 "theory": "DFT", 
		 "functional": "B3LYP", 
		 "basiset": "6-31G**", 
		 "properties": { 
			 "R2extent": 8617.0569, 
			 "electric_dipole_moment_norm": 10.3597025136, 
			 "electric_quadrupole_moment_norm": 35.3360453772, 
			 "total_energy": -1298.56740761, 
			 "HOMO_LUMO_gap": 0.15362, 
			 "cosmo_polarized_energy": -21.25, 
			 "cosmo_cavitation_energy": 40.05, 
			 "cosmo_dispersion_energy": -26.99, 
			 "cosmo_repulsion_energy": 2.06, 
			 "cosmo_total_nonelectrostatic_energy": 15.13, 
			 "SMD_solvation_energy": 9.51 
		},
		"coords": [
			{
				"x": 3.1592430007,
				"y": -0.6698589299,
				"z": -0.7061432006,
				"element": "C" 
			},
			{
				"x": 3.4589502651,
				"y": 0.7537958532,
				"z": -1.134704875,
				"element": "C" 
			},
			{
				"x": 2.2295359532,
				"y": 1.5122801264,
				"z": -1.0287862211,
				"element": "O" 
			},
			{
				"x": 2.326251878,
				"y": 2.8333267875,
				"z": -1.3737889872,
				"element": "C" 
			},
			{
				"x": 3.3652749382,
				"y": 3.3386555253,
				"z": -1.7416031106,
				"element": "O" 
			},
			{
				"x": 1.0400639257,
				"y": 3.5438567379,
				"z": -1.244116693,
				"element": "C" 
			},
			{
				"x": -0.1639949592,
				"y": 3.0114729131,
				"z": -0.8357898778,
				"element": "C" 
			},
			{
				"x": -0.4138925761,
				"y": 1.7393139317,
				"z": -0.4706504822,
				"element": "N" 
			},
			{
				"x": -1.6441355984,
				"y": 1.2040409462,
				"z": -0.0608187661,
				"element": "C" 
			},
			{
				"x": -1.6528455479,
				"y": -0.1657785409,
				"z": 0.29999427,
				"element": "C" 
			},
			{
				"x": -0.4436619865,
				"y": -0.7957968091,
				"z": 0.199144694,
				"element": "O" 
			},
			{
				"x": -0.3692706875,
				"y": -2.1738908114,
				"z": 0.5435796829,
				"element": "C" 
			},
			{
				"x": -2.8368753294,
				"y": -0.7678248353,
				"z": 0.718024958,
				"element": "C" 
			},
			{
				"x": -4.0237296974,
				"y": -0.0313355818,
				"z": 0.7857334936,
				"element": "C" 
			},
			{
				"x": -4.0054709657,
				"y": 1.3111131075,
				"z": 0.4285894577,
				"element": "C" 
			},
			{
				"x": -5.4857101764,
				"y": 2.2527660629,
				"z": 0.5048462079,
				"element": "Cl" 
			},
			{
				"x": -2.8313227023,
				"y": 1.9357663698,
				"z": 0.005944419,
				"element": "C" 
			},
			{
				"x": 1.0536999245,
				"y": 4.932002074,
				"z": -1.5807112682,
				"element": "C" 
			},
			{
				"x": 1.0249129156,
				"y": 6.0652048688,
				"z": -1.846145352,
				"element": "N" 
			},
			{
				"x": 2.3972982179,
				"y": -1.1197642969,
				"z": -1.3497904679,
				"element": "H" 
			},
			{
				"x": 4.0686921171,
				"y": -1.2745207779,
				"z": -0.775045233,
				"element": "H" 
			},
			{
				"x": 2.8037335868,
				"y": -0.6996965384,
				"z": 0.3282656101,
				"element": "H" 
			},
			{
				"x": 3.8143059512,
				"y": 0.8072239352,
				"z": -2.1678443818,
				"element": "H" 
			},
			{
				"x": 4.2156404019,
				"y": 1.2247097862,
				"z": -0.5006887105,
				"element": "H" 
			},
			{
				"x": -1.0100333434,
				"y": 3.6883592658,
				"z": -0.8012364171,
				"element": "H" 
			},
			{
				"x": 0.371664389,
				"y": 1.0951783669,
				"z": -0.4907310413,
				"element": "H" 
			},
			{
				"x": -0.6428608455,
				"y": -2.3373061975,
				"z": 1.5928350898,
				"element": "H" 
			},
			{
				"x": 0.6699517515,
				"y": -2.4655275947,
				"z": 0.3907870498,
				"element": "H" 
			},
			{
				"x": -1.016340735,
				"y": -2.7809728097,
				"z": -0.1008341361,
				"element": "H" 
			},
			{
				"x": -2.8502802797,
				"y": -1.8145493221,
				"z": 0.9958186616,
				"element": "H" 
			},
			{
				"x": -4.9440160689,
				"y": -0.5012894723,
				"z": 1.1114609453,
				"element": "H" 
			},
			{
				"x": -2.863177717,
				"y": 2.9831458596,
				"z": -0.2659953184,
				"element": "H" 
			}
		],
		 "valence_orbital": [ 
			{
				"type": "occ",
				"energy": -0.31023,
				"method": "rhf"
			},
			{
				"type": "occ",
				"energy": -0.28456,
				"method": "rhf"
			},
			{
				"type": "occ",
				"energy": -0.28131,
				"method": "rhf"
			},
			{
				"type": "occ",
				"energy": -0.25168,
				"method": "rhf"
			},
			{
				"type": "occ",
				"energy": -0.2189,
				"method": "rhf"
			},
			{
				"type": "unocc",
				"energy": -0.06528,
				"method": "rhf"
			},
			{
				"type": "unocc",
				"energy": -0.02072,
				"method": "rhf"
			},
			{
				"type": "unocc",
				"energy": -0.00502,
				"method": "rhf"
			},
			{
				"type": "unocc",
				"energy": 0.01664,
				"method": "rhf"
			},
			{
				"type": "unocc",
				"energy": 0.03348,
				"method": "rhf"
			}
		],
		"cosmo_sigma_profile": { 
			"-0.025": 0.0,
			"-0.024": 0.0,
			"-0.023": 0.0,
			"-0.022": 0.0,
			"-0.021": 0.0,
			"-0.02": 0.0,
			"-0.019": 0.0,
			"-0.018": 0.0,
			"-0.017": 0.0,
			"-0.016": 0.0,
			"-0.015": 0.0,
			"-0.014": 0.0396168450985,
			"-0.013": 1.04468595861,
			"-0.012": 1.83134159902,
			"-0.011": 1.84035100278,
			"-0.01": 1.29503884993,
			"-0.009": 2.11196680874,
			"-0.008": 3.87122648125,
			"-0.007": 7.35336044765,
			"-0.006": 12.1910895555,
			"-0.005": 21.0847937949,
			"-0.004": 27.6154018164,
			"-0.003": 30.2543623118,
			"-0.002": 30.0402052513,
			"-0.001": 28.5472968783,
			"0.0": 26.745159088,
			"0.001": 21.0759294506,
			"0.002": 23.4686927558,
			"0.003": 16.9735065716,
			"0.004": 14.0352027747,
			"0.005": 9.69827830705,
			"0.006": 3.15923497253,
			"0.007": 4.67761435,
			"0.008": 5.30237201755,
			"0.009": 5.17112103889,
			"0.01": 5.94162967996,
			"0.011": 6.66420205486,
			"0.012": 7.19173466073,
			"0.013": 2.97983543601,
			"0.014": 1.03184341744,
			"0.015": 0.0,
			"0.016": 0.0,
			"0.017": 0.0,
			"0.018": 0.0,
			"0.019": 0.0,
			"0.02": 0.0,
			"0.021": 0.0,
			"0.022": 0.0,
			"0.023": 0.0,
			"0.024": 0.0,
			"0.025": 0.0
		}
	}
}
