{
	 "smiles": "NCC1=CC=CC=N1", 
	 "Tm": 253.15, 
	 "num_atms": 16, 
	 "gaussian": { 
		 "optdone": 1, 
		 "sigma_profile": "yes", 
		 "theory": "DFT", 
		 "functional": "B3LYP", 
		 "basiset": "6-31G**", 
		 "properties": { 
			 "R2extent": 1021.7784, 
			 "electric_dipole_moment_norm": 2.6366647834, 
			 "electric_quadrupole_moment_norm": 3.9670210007, 
			 "total_energy": -342.954734414, 
			 "HOMO_LUMO_gap": 0.21154, 
			 "cosmo_polarized_energy": -7.87, 
			 "cosmo_cavitation_energy": 19.43, 
			 "cosmo_dispersion_energy": -14.62, 
			 "cosmo_repulsion_energy": 1.23, 
			 "cosmo_total_nonelectrostatic_energy": 6.04, 
			 "SMD_solvation_energy": 1.0 
		},
		"coords": [
			{
				"x": 2.3118029828,
				"y": 1.396226233,
				"z": 0.7884075114,
				"element": "N" 
			},
			{
				"x": 1.3260655672,
				"y": 1.156013999,
				"z": -0.2553365443,
				"element": "C" 
			},
			{
				"x": 0.1442002336,
				"y": 0.2552118756,
				"z": 0.1045585528,
				"element": "C" 
			},
			{
				"x": -0.8516211666,
				"y": -0.0278556464,
				"z": -0.8432999795,
				"element": "C" 
			},
			{
				"x": -1.9135972976,
				"y": -0.8505311046,
				"z": -0.484957519,
				"element": "C" 
			},
			{
				"x": -1.9540092976,
				"y": -1.3698185429,
				"z": 0.8115517632,
				"element": "C" 
			},
			{
				"x": -0.9211774116,
				"y": -1.0336040519,
				"z": 1.6826280166,
				"element": "C" 
			},
			{
				"x": 0.1076434702,
				"y": -0.2411676608,
				"z": 1.3474543532,
				"element": "N" 
			},
			{
				"x": 2.6590514424,
				"y": 0.4956989527,
				"z": 1.1136000402,
				"element": "H" 
			},
			{
				"x": 1.8305434963,
				"y": 1.777303351,
				"z": 1.6010881923,
				"element": "H" 
			},
			{
				"x": 1.8374141709,
				"y": 0.7264199242,
				"z": -1.1275912239,
				"element": "H" 
			},
			{
				"x": 0.9340191592,
				"y": 2.1240434127,
				"z": -0.5960401581,
				"element": "H" 
			},
			{
				"x": -0.7861736309,
				"y": 0.3946134703,
				"z": -1.84271748,
				"element": "H" 
			},
			{
				"x": -2.6970267077,
				"y": -1.0846470656,
				"z": -1.2005898192,
				"element": "H" 
			},
			{
				"x": -2.7624027928,
				"y": -2.0163791109,
				"z": 1.1377639384,
				"element": "H" 
			},
			{
				"x": -0.9147322176,
				"y": -1.4171280354,
				"z": 2.7018803558,
				"element": "H" 
			}
		],
		 "valence_orbital": [ 
			{
				"type": "occ",
				"energy": -0.3619,
				"method": "rhf"
			},
			{
				"type": "occ",
				"energy": -0.2865,
				"method": "rhf"
			},
			{
				"type": "occ",
				"energy": -0.25482,
				"method": "rhf"
			},
			{
				"type": "occ",
				"energy": -0.25349,
				"method": "rhf"
			},
			{
				"type": "occ",
				"energy": -0.2334,
				"method": "rhf"
			},
			{
				"type": "unocc",
				"energy": -0.02186,
				"method": "rhf"
			},
			{
				"type": "unocc",
				"energy": -0.01102,
				"method": "rhf"
			},
			{
				"type": "unocc",
				"energy": 0.09503,
				"method": "rhf"
			},
			{
				"type": "unocc",
				"energy": 0.10526,
				"method": "rhf"
			},
			{
				"type": "unocc",
				"energy": 0.12932,
				"method": "rhf"
			}
		],
		"cosmo_sigma_profile": { 
			"-0.025": 0.0,
			"-0.024": 0.0,
			"-0.023": 0.0,
			"-0.022": 0.0,
			"-0.021": 0.0,
			"-0.02": 0.0,
			"-0.019": 0.0,
			"-0.018": 0.0,
			"-0.017": 0.0,
			"-0.016": 0.0,
			"-0.015": 0.0,
			"-0.014": 0.0,
			"-0.013": 0.0,
			"-0.012": 0.0,
			"-0.011": 0.0,
			"-0.01": 0.0,
			"-0.009": 1.03438115343,
			"-0.008": 1.70220577174,
			"-0.007": 3.92311850912,
			"-0.006": 10.0872052985,
			"-0.005": 15.1719070335,
			"-0.004": 17.3078788282,
			"-0.003": 13.5963984326,
			"-0.002": 10.3705612347,
			"-0.001": 8.6859028903,
			"0.0": 8.4725203352,
			"0.001": 8.25459589978,
			"0.002": 9.72335832708,
			"0.003": 14.4918735758,
			"0.004": 9.74482671923,
			"0.005": 3.14155712574,
			"0.006": 1.95789689643,
			"0.007": 1.56864852383,
			"0.008": 1.42577072575,
			"0.009": 3.04613943814,
			"0.01": 1.38856924562,
			"0.011": 1.21923729052,
			"0.012": 1.71016805508,
			"0.013": 1.19709169158,
			"0.014": 1.077064545,
			"0.015": 0.507326246495,
			"0.016": 0.441664039307,
			"0.017": 1.01207512858,
			"0.018": 0.54057511767,
			"0.019": 0.651927208148,
			"0.02": 0.347341582807,
			"0.021": 0.0,
			"0.022": 0.0,
			"0.023": 0.0,
			"0.024": 0.0,
			"0.025": 0.0
		}
	}
}
