{
	 "smiles": "COC1=CC(OC)=C(C=C1)C1=NN=C(S)N1", 
	 "Tm": 524.15, 
	 "num_atms": 27, 
	 "gaussian": { 
		 "optdone": 1, 
		 "sigma_profile": "yes", 
		 "theory": "DFT", 
		 "functional": "B3LYP", 
		 "basiset": "6-31G**", 
		 "properties": { 
			 "R2extent": 6093.522, 
			 "electric_dipole_moment_norm": 5.64156043928, 
			 "electric_quadrupole_moment_norm": 23.3027575621, 
			 "total_energy": -1100.54236079, 
			 "HOMO_LUMO_gap": 0.17494, 
			 "cosmo_polarized_energy": -19.09, 
			 "cosmo_cavitation_energy": 33.07, 
			 "cosmo_dispersion_energy": -24.95, 
			 "cosmo_repulsion_energy": 1.89, 
			 "cosmo_total_nonelectrostatic_energy": 10.01, 
			 "SMD_solvation_energy": 4.5 
		},
		"coords": [
			{
				"x": 0.3700898889,
				"y": 4.7747419142,
				"z": -0.6684849694,
				"element": "C" 
			},
			{
				"x": 1.0632397244,
				"y": 3.5550985628,
				"z": -0.4432544795,
				"element": "O" 
			},
			{
				"x": 0.4086469122,
				"y": 2.3868898892,
				"z": -0.6918045407,
				"element": "C" 
			},
			{
				"x": 1.1551029972,
				"y": 1.2248270033,
				"z": -0.4460340676,
				"element": "C" 
			},
			{
				"x": 0.5924707804,
				"y": -0.0292373397,
				"z": -0.6634568061,
				"element": "C" 
			},
			{
				"x": 1.2801155551,
				"y": -1.1979348266,
				"z": -0.4385390584,
				"element": "O" 
			},
			{
				"x": 2.6202159338,
				"y": -1.1219892387,
				"z": 0.0348837357,
				"element": "C" 
			},
			{
				"x": -0.7379082962,
				"y": -0.151733574,
				"z": -1.1346097888,
				"element": "C" 
			},
			{
				"x": -1.4548292994,
				"y": 1.0277294591,
				"z": -1.3696847277,
				"element": "C" 
			},
			{
				"x": -0.9069650239,
				"y": 2.2897137924,
				"z": -1.1573425972,
				"element": "C" 
			},
			{
				"x": -1.4001778668,
				"y": -1.4309378947,
				"z": -1.3875646491,
				"element": "C" 
			},
			{
				"x": -2.6374358907,
				"y": -1.5741934833,
				"z": -1.8267610479,
				"element": "N" 
			},
			{
				"x": -2.9014287443,
				"y": -2.9224661142,
				"z": -1.9401573328,
				"element": "N" 
			},
			{
				"x": -1.8140223271,
				"y": -3.5583829248,
				"z": -1.5653806417,
				"element": "C" 
			},
			{
				"x": -1.5837961829,
				"y": -5.3089183854,
				"z": -1.5096233816,
				"element": "S" 
			},
			{
				"x": -0.8378454389,
				"y": -2.6743590467,
				"z": -1.2075374873,
				"element": "N" 
			},
			{
				"x": 0.0736892976,
				"y": 4.8822161766,
				"z": -1.7193052494,
				"element": "H" 
			},
			{
				"x": -0.5207724037,
				"y": 4.8556941547,
				"z": -0.0333080335,
				"element": "H" 
			},
			{
				"x": 1.070337972,
				"y": 5.5700067457,
				"z": -0.4091044385,
				"element": "H" 
			},
			{
				"x": 2.1683824083,
				"y": 1.3456359977,
				"z": -0.0868113162,
				"element": "H" 
			},
			{
				"x": 3.2658087782,
				"y": -0.59660104,
				"z": -0.6783042804,
				"element": "H" 
			},
			{
				"x": 2.961546498,
				"y": -2.1528344252,
				"z": 0.139426157,
				"element": "H" 
			},
			{
				"x": 2.6711509917,
				"y": -0.6223548742,
				"z": 1.0091690524,
				"element": "H" 
			},
			{
				"x": -2.4729622063,
				"y": 0.9295551926,
				"z": -1.7303142178,
				"element": "H" 
			},
			{
				"x": -1.5035929171,
				"y": 3.1712687962,
				"z": -1.3545073074,
				"element": "H" 
			},
			{
				"x": -2.8295851623,
				"y": -5.5583621807,
				"z": -1.955369553,
				"element": "H" 
			},
			{
				"x": 0.102424022,
				"y": -2.8363723363,
				"z": -0.8780189733,
				"element": "H" 
			}
		],
		 "valence_orbital": [ 
			{
				"type": "occ",
				"energy": -0.29377,
				"method": "rhf"
			},
			{
				"type": "occ",
				"energy": -0.24816,
				"method": "rhf"
			},
			{
				"type": "occ",
				"energy": -0.24645,
				"method": "rhf"
			},
			{
				"type": "occ",
				"energy": -0.24177,
				"method": "rhf"
			},
			{
				"type": "occ",
				"energy": -0.19893,
				"method": "rhf"
			},
			{
				"type": "unocc",
				"energy": -0.02399,
				"method": "rhf"
			},
			{
				"type": "unocc",
				"energy": 0.00131,
				"method": "rhf"
			},
			{
				"type": "unocc",
				"energy": 0.00923,
				"method": "rhf"
			},
			{
				"type": "unocc",
				"energy": 0.04394,
				"method": "rhf"
			},
			{
				"type": "unocc",
				"energy": 0.07114,
				"method": "rhf"
			}
		],
		"cosmo_sigma_profile": { 
			"-0.025": 0.0,
			"-0.024": 0.0,
			"-0.023": 0.0,
			"-0.022": 0.0,
			"-0.021": 0.0,
			"-0.02": 0.0,
			"-0.019": 0.0,
			"-0.018": 0.0,
			"-0.017": 0.0,
			"-0.016": 0.0,
			"-0.015": 0.422326112756,
			"-0.014": 1.17985138087,
			"-0.013": 0.57075072291,
			"-0.012": 2.36042164883,
			"-0.011": 2.19225050014,
			"-0.01": 1.86220888197,
			"-0.009": 2.4323572008,
			"-0.008": 1.87245221587,
			"-0.007": 6.31359535323,
			"-0.006": 19.0916677625,
			"-0.005": 23.9215385047,
			"-0.004": 22.0714175955,
			"-0.003": 20.7258134123,
			"-0.002": 13.700113195,
			"-0.001": 13.8856729716,
			"0.0": 15.6087972017,
			"0.001": 16.3952717811,
			"0.002": 19.0576590993,
			"0.003": 21.6474736899,
			"0.004": 16.2182968941,
			"0.005": 8.62375187078,
			"0.006": 5.93192858879,
			"0.007": 5.03753262808,
			"0.008": 3.44853946143,
			"0.009": 3.63330470074,
			"0.01": 2.68288780111,
			"0.011": 2.26079106534,
			"0.012": 2.38441932072,
			"0.013": 3.04426846385,
			"0.014": 3.34524214629,
			"0.015": 3.13892064071,
			"0.016": 1.52533973561,
			"0.017": 0.381519121473,
			"0.018": 0.0,
			"0.019": 0.0,
			"0.02": 0.0,
			"0.021": 0.0,
			"0.022": 0.0,
			"0.023": 0.0,
			"0.024": 0.0,
			"0.025": 0.0
		}
	}
}
