{
	 "smiles": "CNC(C)=CC(=O)OC", 
	 "Tm": 338.15, 
	 "num_atms": 20, 
	 "gaussian": { 
		 "optdone": 1, 
		 "sigma_profile": "yes", 
		 "theory": "DFT", 
		 "functional": "B3LYP", 
		 "basiset": "6-31G**", 
		 "properties": { 
			 "R2extent": 2058.3303, 
			 "electric_dipole_moment_norm": 3.76418477495, 
			 "electric_quadrupole_moment_norm": 10.9824400431, 
			 "total_energy": -440.469836387, 
			 "HOMO_LUMO_gap": 0.1997, 
			 "cosmo_polarized_energy": -11.88, 
			 "cosmo_cavitation_energy": 23.36, 
			 "cosmo_dispersion_energy": -17.25, 
			 "cosmo_repulsion_energy": 1.44, 
			 "cosmo_total_nonelectrostatic_energy": 7.55, 
			 "SMD_solvation_energy": 5.51 
		},
		"coords": [
			{
				"x": 0.7284427319,
				"y": 0.5279733591,
				"z": 2.0674188174,
				"element": "C" 
			},
			{
				"x": 0.7071228811,
				"y": 1.6576726508,
				"z": 1.1628985453,
				"element": "N" 
			},
			{
				"x": 0.3388435564,
				"y": 1.5953136581,
				"z": -0.1513976773,
				"element": "C" 
			},
			{
				"x": 0.4482161915,
				"y": 2.9133160145,
				"z": -0.8765665034,
				"element": "C" 
			},
			{
				"x": -0.089868434,
				"y": 0.4269684172,
				"z": -0.7189000903,
				"element": "C" 
			},
			{
				"x": -0.5152791517,
				"y": 0.2642328069,
				"z": -2.1012937383,
				"element": "C" 
			},
			{
				"x": -0.5727410848,
				"y": 1.0962722699,
				"z": -2.9981303673,
				"element": "O" 
			},
			{
				"x": -0.8786548049,
				"y": -1.0378692439,
				"z": -2.3192799326,
				"element": "O" 
			},
			{
				"x": -1.3174728341,
				"y": -1.3284286242,
				"z": -3.6482603175,
				"element": "C" 
			},
			{
				"x": 1.0658167414,
				"y": 0.8655841725,
				"z": 3.0492553962,
				"element": "H" 
			},
			{
				"x": -0.270639444,
				"y": 0.088492199,
				"z": 2.1790514415,
				"element": "H" 
			},
			{
				"x": 1.4082210206,
				"y": -0.2607593861,
				"z": 1.7183614269,
				"element": "H" 
			},
			{
				"x": 1.0638507572,
				"y": 2.5369797031,
				"z": 1.4995415511,
				"element": "H" 
			},
			{
				"x": 0.1313941152,
				"y": 2.8079635133,
				"z": -1.9116048059,
				"element": "H" 
			},
			{
				"x": -0.174931554,
				"y": 3.6673168551,
				"z": -0.3807098157,
				"element": "H" 
			},
			{
				"x": 1.4847669647,
				"y": 3.2714999126,
				"z": -0.8503942361,
				"element": "H" 
			},
			{
				"x": -0.1333256128,
				"y": -0.4758847976,
				"z": -0.1227819426,
				"element": "H" 
			},
			{
				"x": -1.5659648939,
				"y": -2.3908234413,
				"z": -3.6529140092,
				"element": "H" 
			},
			{
				"x": -2.1958189429,
				"y": -0.7321642876,
				"z": -3.9120877162,
				"element": "H" 
			},
			{
				"x": -0.5292782028,
				"y": -1.1199557512,
				"z": -4.3776060261,
				"element": "H" 
			}
		],
		 "valence_orbital": [ 
			{
				"type": "occ",
				"energy": -0.3337,
				"method": "rhf"
			},
			{
				"type": "occ",
				"energy": -0.3094,
				"method": "rhf"
			},
			{
				"type": "occ",
				"energy": -0.27421,
				"method": "rhf"
			},
			{
				"type": "occ",
				"energy": -0.24474,
				"method": "rhf"
			},
			{
				"type": "occ",
				"energy": -0.20541,
				"method": "rhf"
			},
			{
				"type": "unocc",
				"energy": -0.00571,
				"method": "rhf"
			},
			{
				"type": "unocc",
				"energy": 0.07124,
				"method": "rhf"
			},
			{
				"type": "unocc",
				"energy": 0.10528,
				"method": "rhf"
			},
			{
				"type": "unocc",
				"energy": 0.11398,
				"method": "rhf"
			},
			{
				"type": "unocc",
				"energy": 0.12874,
				"method": "rhf"
			}
		],
		"cosmo_sigma_profile": { 
			"-0.025": 0.0,
			"-0.024": 0.0,
			"-0.023": 0.0,
			"-0.022": 0.0,
			"-0.021": 0.0,
			"-0.02": 0.0,
			"-0.019": 0.0,
			"-0.018": 0.0,
			"-0.017": 0.0,
			"-0.016": 0.0,
			"-0.015": 0.0,
			"-0.014": 0.673146931174,
			"-0.013": 1.39000812957,
			"-0.012": 1.22193656832,
			"-0.011": 1.20994259868,
			"-0.01": 1.48422219872,
			"-0.009": 1.08889552357,
			"-0.008": 1.87615742323,
			"-0.007": 2.33223404191,
			"-0.006": 4.39399104798,
			"-0.005": 12.2638301491,
			"-0.004": 19.8314782791,
			"-0.003": 19.5565520464,
			"-0.002": 19.5142047954,
			"-0.001": 13.8866602246,
			"0.0": 12.960227379,
			"0.001": 8.61731298018,
			"0.002": 6.99664713651,
			"0.003": 8.50325366455,
			"0.004": 9.6444443925,
			"0.005": 7.21622893302,
			"0.006": 6.93031229381,
			"0.007": 3.14204526369,
			"0.008": 2.58167022913,
			"0.009": 3.46432324448,
			"0.01": 3.44149930517,
			"0.011": 2.07902952218,
			"0.012": 2.18733464608,
			"0.013": 3.12887637872,
			"0.014": 1.88858301326,
			"0.015": 0.0,
			"0.016": 0.0,
			"0.017": 0.0,
			"0.018": 0.0,
			"0.019": 0.0,
			"0.02": 0.0,
			"0.021": 0.0,
			"0.022": 0.0,
			"0.023": 0.0,
			"0.024": 0.0,
			"0.025": 0.0
		}
	}
}
