{
	 "smiles": "CCC(C)=CC", 
	 "Tm": 137.15, 
	 "num_atms": 18, 
	 "gaussian": { 
		 "optdone": 1, 
		 "sigma_profile": "yes", 
		 "theory": "DFT", 
		 "functional": "B3LYP", 
		 "basiset": "6-31G**", 
		 "properties": { 
			 "R2extent": 1393.9124, 
			 "electric_dipole_moment_norm": 0.172615352735, 
			 "electric_quadrupole_moment_norm": 1.35295953376, 
			 "total_energy": -235.868068913, 
			 "HOMO_LUMO_gap": 0.26148, 
			 "cosmo_polarized_energy": -1.44, 
			 "cosmo_cavitation_energy": 19.82, 
			 "cosmo_dispersion_energy": -14.5, 
			 "cosmo_repulsion_energy": 1.27, 
			 "cosmo_total_nonelectrostatic_energy": 6.59, 
			 "SMD_solvation_energy": 3.93 
		},
		"coords": [
			{
				"x": -3.2880258455,
				"y": 1.0350662982,
				"z": 0.6998626167,
				"element": "C" 
			},
			{
				"x": -2.9839613192,
				"y": -0.4391115853,
				"z": 1.0236188696,
				"element": "C" 
			},
			{
				"x": -1.6039548167,
				"y": -0.8987163206,
				"z": 0.5912534453,
				"element": "C" 
			},
			{
				"x": -0.4491452118,
				"y": -0.2704528122,
				"z": 1.3347828459,
				"element": "C" 
			},
			{
				"x": -1.4722768704,
				"y": -1.8072038001,
				"z": -0.3883472706,
				"element": "C" 
			},
			{
				"x": -0.2135810765,
				"y": -2.3868987608,
				"z": -0.9701476324,
				"element": "C" 
			},
			{
				"x": -4.3024183871,
				"y": 1.3005119627,
				"z": 1.0157417923,
				"element": "H" 
			},
			{
				"x": -3.2088382544,
				"y": 1.2214462398,
				"z": -0.3763008165,
				"element": "H" 
			},
			{
				"x": -2.5976729931,
				"y": 1.7155385207,
				"z": 1.2085397785,
				"element": "H" 
			},
			{
				"x": -3.7413259542,
				"y": -1.0720618676,
				"z": 0.5471817754,
				"element": "H" 
			},
			{
				"x": -3.0916015304,
				"y": -0.5885812156,
				"z": 2.1082996883,
				"element": "H" 
			},
			{
				"x": -0.4061841909,
				"y": 0.8125702972,
				"z": 1.1651103795,
				"element": "H" 
			},
			{
				"x": -0.5675481814,
				"y": -0.4103869468,
				"z": 2.4173624049,
				"element": "H" 
			},
			{
				"x": 0.5192796279,
				"y": -0.6850249712,
				"z": 1.0496205684,
				"element": "H" 
			},
			{
				"x": -2.391508135,
				"y": -2.1873435399,
				"z": -0.8368750559,
				"element": "H" 
			},
			{
				"x": -0.1466888042,
				"y": -2.173000829,
				"z": -2.0449826508,
				"element": "H" 
			},
			{
				"x": -0.2047507886,
				"y": -3.4802331505,
				"z": -0.8712797528,
				"element": "H" 
			},
			{
				"x": 0.6957027314,
				"y": -2.004017519,
				"z": -0.5013409858,
				"element": "H" 
			}
		],
		 "valence_orbital": [ 
			{
				"type": "occ",
				"energy": -0.35775,
				"method": "rhf"
			},
			{
				"type": "occ",
				"energy": -0.34769,
				"method": "rhf"
			},
			{
				"type": "occ",
				"energy": -0.32997,
				"method": "rhf"
			},
			{
				"type": "occ",
				"energy": -0.31389,
				"method": "rhf"
			},
			{
				"type": "occ",
				"energy": -0.2255,
				"method": "rhf"
			},
			{
				"type": "unocc",
				"energy": 0.03598,
				"method": "rhf"
			},
			{
				"type": "unocc",
				"energy": 0.09353,
				"method": "rhf"
			},
			{
				"type": "unocc",
				"energy": 0.12188,
				"method": "rhf"
			},
			{
				"type": "unocc",
				"energy": 0.12508,
				"method": "rhf"
			},
			{
				"type": "unocc",
				"energy": 0.14168,
				"method": "rhf"
			}
		],
		"cosmo_sigma_profile": { 
			"-0.025": 0.0,
			"-0.024": 0.0,
			"-0.023": 0.0,
			"-0.022": 0.0,
			"-0.021": 0.0,
			"-0.02": 0.0,
			"-0.019": 0.0,
			"-0.018": 0.0,
			"-0.017": 0.0,
			"-0.016": 0.0,
			"-0.015": 0.0,
			"-0.014": 0.0,
			"-0.013": 0.0,
			"-0.012": 0.0,
			"-0.011": 0.0,
			"-0.01": 0.0,
			"-0.009": 0.0,
			"-0.008": 0.0,
			"-0.007": 0.0,
			"-0.006": 0.0,
			"-0.005": 0.716925345952,
			"-0.004": 3.09096030436,
			"-0.003": 16.2803104361,
			"-0.002": 22.3468969903,
			"-0.001": 25.2565013187,
			"0.0": 27.9280852003,
			"0.001": 28.4959830223,
			"0.002": 12.832270037,
			"0.003": 4.70419289713,
			"0.004": 3.49692794554,
			"0.005": 3.87308973075,
			"0.006": 2.42436739907,
			"0.007": 2.19532821555,
			"0.008": 0.269250254924,
			"0.009": 0.0,
			"0.01": 0.0,
			"0.011": 0.0,
			"0.012": 0.0,
			"0.013": 0.0,
			"0.014": 0.0,
			"0.015": 0.0,
			"0.016": 0.0,
			"0.017": 0.0,
			"0.018": 0.0,
			"0.019": 0.0,
			"0.02": 0.0,
			"0.021": 0.0,
			"0.022": 0.0,
			"0.023": 0.0,
			"0.024": 0.0,
			"0.025": 0.0
		}
	}
}
