{
	 "smiles": "CCC1=CC=C(N)C=C1", 
	 "Tm": 268.25, 
	 "num_atms": 20, 
	 "gaussian": { 
		 "optdone": 1, 
		 "sigma_profile": "yes", 
		 "theory": "DFT", 
		 "functional": "B3LYP", 
		 "basiset": "6-31G**", 
		 "properties": { 
			 "R2extent": 1531.1869, 
			 "electric_dipole_moment_norm": 1.57194282339, 
			 "electric_quadrupole_moment_norm": 10.1541736857, 
			 "total_energy": -366.245131913, 
			 "HOMO_LUMO_gap": 0.20149, 
			 "cosmo_polarized_energy": -7.48, 
			 "cosmo_cavitation_energy": 22.92, 
			 "cosmo_dispersion_energy": -16.82, 
			 "cosmo_repulsion_energy": 1.4, 
			 "cosmo_total_nonelectrostatic_energy": 7.51, 
			 "SMD_solvation_energy": 3.84 
		},
		"coords": [
			{
				"x": 1.0009277602,
				"y": -1.4964812761,
				"z": 2.5145844464,
				"element": "C" 
			},
			{
				"x": 1.3515227745,
				"y": -0.3666715611,
				"z": 1.5294456833,
				"element": "C" 
			},
			{
				"x": 0.2365767981,
				"y": -0.0592761774,
				"z": 0.5524094402,
				"element": "C" 
			},
			{
				"x": -0.7590605988,
				"y": 0.8794078129,
				"z": 0.8537891411,
				"element": "C" 
			},
			{
				"x": -1.8103848226,
				"y": 1.1388241798,
				"z": -0.0218768937,
				"element": "C" 
			},
			{
				"x": -1.9031453531,
				"y": 0.4591707829,
				"z": -1.2475254798,
				"element": "C" 
			},
			{
				"x": -2.9214827472,
				"y": 0.7594575097,
				"z": -2.1605676593,
				"element": "N" 
			},
			{
				"x": -0.9088333086,
				"y": -0.4821643372,
				"z": -1.5605292985,
				"element": "C" 
			},
			{
				"x": 0.1359757148,
				"y": -0.7298554137,
				"z": -0.6737502445,
				"element": "C" 
			},
			{
				"x": 0.1177101184,
				"y": -1.2379049586,
				"z": 3.108086989,
				"element": "H" 
			},
			{
				"x": 1.829190545,
				"y": -1.6911714124,
				"z": 3.2048246624,
				"element": "H" 
			},
			{
				"x": 0.778162857,
				"y": -2.4261083663,
				"z": 1.9804000248,
				"element": "H" 
			},
			{
				"x": 1.6013900311,
				"y": 0.5385139234,
				"z": 2.0966788686,
				"element": "H" 
			},
			{
				"x": 2.2577642918,
				"y": -0.6423549325,
				"z": 0.9760308505,
				"element": "H" 
			},
			{
				"x": -0.7118775235,
				"y": 1.4231459456,
				"z": 1.7950919377,
				"element": "H" 
			},
			{
				"x": -2.5626522772,
				"y": 1.880438733,
				"z": 0.2373110239,
				"element": "H" 
			},
			{
				"x": -3.1373480007,
				"y": 0.0149487401,
				"z": -2.8100727541,
				"element": "H" 
			},
			{
				"x": -3.7618915601,
				"y": 1.1377881953,
				"z": -1.744242881,
				"element": "H" 
			},
			{
				"x": -0.9535056044,
				"y": -1.0127916575,
				"z": -2.508958405,
				"element": "H" 
			},
			{
				"x": 0.8932609055,
				"y": -1.4628157297,
				"z": -0.9443294519,
				"element": "H" 
			}
		],
		 "valence_orbital": [ 
			{
				"type": "occ",
				"energy": -0.3259,
				"method": "rhf"
			},
			{
				"type": "occ",
				"energy": -0.32189,
				"method": "rhf"
			},
			{
				"type": "occ",
				"energy": -0.29252,
				"method": "rhf"
			},
			{
				"type": "occ",
				"energy": -0.23917,
				"method": "rhf"
			},
			{
				"type": "occ",
				"energy": -0.19257,
				"method": "rhf"
			},
			{
				"type": "unocc",
				"energy": 0.00892,
				"method": "rhf"
			},
			{
				"type": "unocc",
				"energy": 0.02409,
				"method": "rhf"
			},
			{
				"type": "unocc",
				"energy": 0.08539,
				"method": "rhf"
			},
			{
				"type": "unocc",
				"energy": 0.1024,
				"method": "rhf"
			},
			{
				"type": "unocc",
				"energy": 0.12355,
				"method": "rhf"
			}
		],
		"cosmo_sigma_profile": { 
			"-0.025": 0.0,
			"-0.024": 0.0,
			"-0.023": 0.0,
			"-0.022": 0.0,
			"-0.021": 0.0,
			"-0.02": 0.0,
			"-0.019": 0.0,
			"-0.018": 0.0,
			"-0.017": 0.0,
			"-0.016": 0.0,
			"-0.015": 0.0,
			"-0.014": 0.0,
			"-0.013": 0.0,
			"-0.012": 1.59944469008,
			"-0.011": 2.87399653751,
			"-0.01": 2.38686338336,
			"-0.009": 3.21268540982,
			"-0.008": 2.75561612688,
			"-0.007": 3.47287794729,
			"-0.006": 3.39682548736,
			"-0.005": 5.2612491736,
			"-0.004": 9.38418712254,
			"-0.003": 15.3384037019,
			"-0.002": 18.0981556857,
			"-0.001": 17.7331834223,
			"0.0": 17.9113726927,
			"0.001": 17.3174060613,
			"0.002": 11.4254590156,
			"0.003": 6.76799234257,
			"0.004": 6.71057590556,
			"0.005": 7.77015826349,
			"0.006": 8.09604717491,
			"0.007": 8.77214392104,
			"0.008": 4.39552910558,
			"0.009": 1.21246184756,
			"0.01": 0.689671539375,
			"0.011": 0.648243698469,
			"0.012": 0.771151368154,
			"0.013": 0.391730682452,
			"0.014": 0.865318301035,
			"0.015": 0.571963773465,
			"0.016": 0.0744769753263,
			"0.017": 0.0,
			"0.018": 0.0,
			"0.019": 0.0,
			"0.02": 0.0,
			"0.021": 0.0,
			"0.022": 0.0,
			"0.023": 0.0,
			"0.024": 0.0,
			"0.025": 0.0
		}
	}
}
