{
	 "smiles": "CC(=O)C1=CC(C)=CC=C1O", 
	 "Tm": 321.65, 
	 "num_atms": 21, 
	 "gaussian": { 
		 "optdone": 1, 
		 "sigma_profile": "yes", 
		 "theory": "DFT", 
		 "functional": "B3LYP", 
		 "basiset": "6-31G**", 
		 "properties": { 
			 "R2extent": 2064.0226, 
			 "electric_dipole_moment_norm": 4.43218391428, 
			 "electric_quadrupole_moment_norm": 7.93469705786, 
			 "total_energy": -499.437414141, 
			 "HOMO_LUMO_gap": 0.17975, 
			 "cosmo_polarized_energy": -11.9, 
			 "cosmo_cavitation_energy": 24.54, 
			 "cosmo_dispersion_energy": -18.12, 
			 "cosmo_repulsion_energy": 1.45, 
			 "cosmo_total_nonelectrostatic_energy": 7.88, 
			 "SMD_solvation_energy": 5.35 
		},
		"coords": [
			{
				"x": 0.9427155234,
				"y": -3.0628697552,
				"z": 0.2683788362,
				"element": "C" 
			},
			{
				"x": 1.1687508005,
				"y": -1.6195222148,
				"z": -0.1341248568,
				"element": "C" 
			},
			{
				"x": 2.3059530894,
				"y": -1.1668266342,
				"z": -0.1558323839,
				"element": "O" 
			},
			{
				"x": 0.0133677328,
				"y": -0.7307493989,
				"z": -0.5092766256,
				"element": "C" 
			},
			{
				"x": 0.3355484758,
				"y": 0.5912595042,
				"z": -0.8688293129,
				"element": "C" 
			},
			{
				"x": -0.6165073451,
				"y": 1.5355466176,
				"z": -1.2407870459,
				"element": "C" 
			},
			{
				"x": -0.2286902709,
				"y": 2.9456535217,
				"z": -1.6206846963,
				"element": "C" 
			},
			{
				"x": -1.9603516352,
				"y": 1.1283954563,
				"z": -1.2510208436,
				"element": "C" 
			},
			{
				"x": -2.3188211347,
				"y": -0.167367153,
				"z": -0.9026467805,
				"element": "C" 
			},
			{
				"x": -1.3451556841,
				"y": -1.1047472545,
				"z": -0.5308309871,
				"element": "C" 
			},
			{
				"x": -1.7072067417,
				"y": -2.3780726849,
				"z": -0.1894902532,
				"element": "O" 
			},
			{
				"x": 0.2839679756,
				"y": -3.1286421729,
				"z": 1.1392992486,
				"element": "H" 
			},
			{
				"x": 0.4467582056,
				"y": -3.6201006316,
				"z": -0.5318235802,
				"element": "H" 
			},
			{
				"x": 1.9130184798,
				"y": -3.5074116598,
				"z": 0.4936474489,
				"element": "H" 
			},
			{
				"x": 1.3893258614,
				"y": 0.8505096518,
				"z": -0.8428559234,
				"element": "H" 
			},
			{
				"x": -0.7044588184,
				"y": 3.683933704,
				"z": -0.9645604069,
				"element": "H" 
			},
			{
				"x": 0.8527879087,
				"y": 3.0890759838,
				"z": -1.553332666,
				"element": "H" 
			},
			{
				"x": -0.5332061059,
				"y": 3.1835703868,
				"z": -2.6466690546,
				"element": "H" 
			},
			{
				"x": -2.7375184262,
				"y": 1.8340406892,
				"z": -1.5352025372,
				"element": "H" 
			},
			{
				"x": -3.3660205509,
				"y": -0.4647303221,
				"z": -0.9163911099,
				"element": "H" 
			},
			{
				"x": -2.6675573401,
				"y": -2.4571456334,
				"z": -0.2596664698,
				"element": "H" 
			}
		],
		 "valence_orbital": [ 
			{
				"type": "occ",
				"energy": -0.34015,
				"method": "rhf"
			},
			{
				"type": "occ",
				"energy": -0.32546,
				"method": "rhf"
			},
			{
				"type": "occ",
				"energy": -0.25572,
				"method": "rhf"
			},
			{
				"type": "occ",
				"energy": -0.23872,
				"method": "rhf"
			},
			{
				"type": "occ",
				"energy": -0.22596,
				"method": "rhf"
			},
			{
				"type": "unocc",
				"energy": -0.04621,
				"method": "rhf"
			},
			{
				"type": "unocc",
				"energy": 0.0063,
				"method": "rhf"
			},
			{
				"type": "unocc",
				"energy": 0.04164,
				"method": "rhf"
			},
			{
				"type": "unocc",
				"energy": 0.05809,
				"method": "rhf"
			},
			{
				"type": "unocc",
				"energy": 0.0962,
				"method": "rhf"
			}
		],
		"cosmo_sigma_profile": { 
			"-0.025": 0.0,
			"-0.024": 0.0,
			"-0.023": 0.0,
			"-0.022": 0.0,
			"-0.021": 0.0,
			"-0.02": 0.0,
			"-0.019": 0.0634803349526,
			"-0.018": 0.99820086878,
			"-0.017": 0.693494420494,
			"-0.016": 1.17412196177,
			"-0.015": 1.22844698925,
			"-0.014": 1.19145337907,
			"-0.013": 0.771381214839,
			"-0.012": 0.68299599693,
			"-0.011": 1.31536280571,
			"-0.01": 1.31048222105,
			"-0.009": 0.686315860628,
			"-0.008": 0.881674132649,
			"-0.007": 2.23695315376,
			"-0.006": 4.13619447248,
			"-0.005": 6.44945796217,
			"-0.004": 16.2405615236,
			"-0.003": 16.292863191,
			"-0.002": 17.8661519865,
			"-0.001": 17.200060859,
			"0.0": 19.6821371129,
			"0.001": 13.7386514144,
			"0.002": 11.6989826084,
			"0.003": 14.1198325624,
			"0.004": 13.9585076029,
			"0.005": 7.80575136962,
			"0.006": 4.62731116306,
			"0.007": 2.94095792721,
			"0.008": 1.02171675764,
			"0.009": 1.54819333177,
			"0.01": 2.30851267027,
			"0.011": 2.15658543464,
			"0.012": 4.11383760454,
			"0.013": 2.52435205361,
			"0.014": 0.66518355603,
			"0.015": 0.0,
			"0.016": 0.0,
			"0.017": 0.0,
			"0.018": 0.0,
			"0.019": 0.0,
			"0.02": 0.0,
			"0.021": 0.0,
			"0.022": 0.0,
			"0.023": 0.0,
			"0.024": 0.0,
			"0.025": 0.0
		}
	}
}
