{
	 "smiles": "CC(=O)NC1=CC=CC=C1CCC1=CC=CC=C1NC(C)=O", 
	 "Tm": 523.15, 
	 "num_atms": 42, 
	 "gaussian": { 
		 "optdone": 1, 
		 "sigma_profile": "yes", 
		 "theory": "DFT", 
		 "functional": "B3LYP", 
		 "basiset": "6-31G**", 
		 "properties": { 
			 "R2extent": 6887.3068, 
			 "electric_dipole_moment_norm": 3.44339385636, 
			 "electric_quadrupole_moment_norm": 23.6885521778, 
			 "total_energy": -957.96693145, 
			 "HOMO_LUMO_gap": 0.18897, 
			 "cosmo_polarized_energy": -20.55, 
			 "cosmo_cavitation_energy": 44.43, 
			 "cosmo_dispersion_energy": -28.65, 
			 "cosmo_repulsion_energy": 2.17, 
			 "cosmo_total_nonelectrostatic_energy": 17.95, 
			 "SMD_solvation_energy": 8.56 
		},
		"coords": [
			{
				"x": -3.5886912156,
				"y": 0.8457776975,
				"z": 0.5887612169,
				"element": "C" 
			},
			{
				"x": -3.0394221671,
				"y": 1.8783021877,
				"z": -0.3768988012,
				"element": "C" 
			},
			{
				"x": -3.7154974568,
				"y": 2.3254321025,
				"z": -1.2917104823,
				"element": "O" 
			},
			{
				"x": -1.7259721086,
				"y": 2.3044593704,
				"z": -0.2402422844,
				"element": "N" 
			},
			{
				"x": -0.7305247102,
				"y": 2.0511904065,
				"z": 0.731631614,
				"element": "C" 
			},
			{
				"x": -1.052257249,
				"y": 1.9417048357,
				"z": 2.093531972,
				"element": "C" 
			},
			{
				"x": -0.0586774586,
				"y": 1.7072122309,
				"z": 3.0432904142,
				"element": "C" 
			},
			{
				"x": 1.2765967812,
				"y": 1.6201969397,
				"z": 2.6509628474,
				"element": "C" 
			},
			{
				"x": 1.6035949521,
				"y": 1.7691978473,
				"z": 1.3035217771,
				"element": "C" 
			},
			{
				"x": 0.6248647456,
				"y": 1.9729262441,
				"z": 0.3220517708,
				"element": "C" 
			},
			{
				"x": 1.0271499049,
				"y": 2.0868493846,
				"z": -1.1342207613,
				"element": "C" 
			},
			{
				"x": 0.8859691505,
				"y": 0.7716665338,
				"z": -1.9573427879,
				"element": "C" 
			},
			{
				"x": 2.0115316497,
				"y": -0.2289334916,
				"z": -1.7585033934,
				"element": "C" 
			},
			{
				"x": 3.1562934652,
				"y": -0.0972456708,
				"z": -2.5562603937,
				"element": "C" 
			},
			{
				"x": 4.2260546429,
				"y": -0.9842757625,
				"z": -2.4698618462,
				"element": "C" 
			},
			{
				"x": 4.1531923754,
				"y": -2.044118026,
				"z": -1.566350576,
				"element": "C" 
			},
			{
				"x": 3.0353241558,
				"y": -2.2041518049,
				"z": -0.7524731966,
				"element": "C" 
			},
			{
				"x": 1.9645473454,
				"y": -1.2971943631,
				"z": -0.8320996975,
				"element": "C" 
			},
			{
				"x": 0.8353697181,
				"y": -1.4220892063,
				"z": 0.0110273928,
				"element": "N" 
			},
			{
				"x": 0.4397442724,
				"y": -2.5066468539,
				"z": 0.7680620952,
				"element": "C" 
			},
			{
				"x": -0.8386549489,
				"y": -2.2620475191,
				"z": 1.5606649773,
				"element": "C" 
			},
			{
				"x": 1.0247581705,
				"y": -3.579464013,
				"z": 0.7997267849,
				"element": "O" 
			},
			{
				"x": -2.8270984004,
				"y": 0.1734676327,
				"z": 0.9880154056,
				"element": "H" 
			},
			{
				"x": -4.0809497612,
				"y": 1.3431264695,
				"z": 1.4311851606,
				"element": "H" 
			},
			{
				"x": -4.3492841163,
				"y": 0.2769912351,
				"z": 0.0521243785,
				"element": "H" 
			},
			{
				"x": -1.4716713698,
				"y": 2.9145224951,
				"z": -1.0075868903,
				"element": "H" 
			},
			{
				"x": -2.0795625838,
				"y": 2.0720194407,
				"z": 2.4120501513,
				"element": "H" 
			},
			{
				"x": -0.3309374942,
				"y": 1.6215368404,
				"z": 4.0910619709,
				"element": "H" 
			},
			{
				"x": 2.0574404084,
				"y": 1.4510701868,
				"z": 3.3856368297,
				"element": "H" 
			},
			{
				"x": 2.6431148838,
				"y": 1.7124191302,
				"z": 0.9929077164,
				"element": "H" 
			},
			{
				"x": 2.0686534377,
				"y": 2.4189189557,
				"z": -1.1894879363,
				"element": "H" 
			},
			{
				"x": 0.442045103,
				"y": 2.8675174697,
				"z": -1.6357036751,
				"element": "H" 
			},
			{
				"x": 0.8744707298,
				"y": 1.0477083952,
				"z": -3.0172213876,
				"element": "H" 
			},
			{
				"x": -0.0928216696,
				"y": 0.3198165192,
				"z": -1.7609453093,
				"element": "H" 
			},
			{
				"x": 3.193225996,
				"y": 0.7184303646,
				"z": -3.2751418594,
				"element": "H" 
			},
			{
				"x": 5.0950315233,
				"y": -0.8574759987,
				"z": -3.1084404918,
				"element": "H" 
			},
			{
				"x": 4.970115941,
				"y": -2.7558770811,
				"z": -1.488886432,
				"element": "H" 
			},
			{
				"x": 2.9666435762,
				"y": -3.0298824794,
				"z": -0.0590819735,
				"element": "H" 
			},
			{
				"x": 0.2859123617,
				"y": -0.5835842633,
				"z": 0.1274972863,
				"element": "H" 
			},
			{
				"x": -0.9132765631,
				"y": -3.0255200407,
				"z": 2.335033161,
				"element": "H" 
			},
			{
				"x": -1.7107396936,
				"y": -2.3508950595,
				"z": 0.902716987,
				"element": "H" 
			},
			{
				"x": -0.8552063238,
				"y": -1.2696592821,
				"z": 2.0225982656,
				"element": "H" 
			}
		],
		 "valence_orbital": [ 
			{
				"type": "occ",
				"energy": -0.26074,
				"method": "rhf"
			},
			{
				"type": "occ",
				"energy": -0.25066,
				"method": "rhf"
			},
			{
				"type": "occ",
				"energy": -0.24345,
				"method": "rhf"
			},
			{
				"type": "occ",
				"energy": -0.23487,
				"method": "rhf"
			},
			{
				"type": "occ",
				"energy": -0.21719,
				"method": "rhf"
			},
			{
				"type": "unocc",
				"energy": -0.02822,
				"method": "rhf"
			},
			{
				"type": "unocc",
				"energy": -0.02317,
				"method": "rhf"
			},
			{
				"type": "unocc",
				"energy": -0.00929,
				"method": "rhf"
			},
			{
				"type": "unocc",
				"energy": -0.00195,
				"method": "rhf"
			},
			{
				"type": "unocc",
				"energy": 0.02397,
				"method": "rhf"
			}
		],
		"cosmo_sigma_profile": { 
			"-0.025": 0.0,
			"-0.024": 0.0,
			"-0.023": 0.0,
			"-0.022": 0.0,
			"-0.021": 0.0,
			"-0.02": 0.0,
			"-0.019": 0.0,
			"-0.018": 0.0,
			"-0.017": 0.0,
			"-0.016": 0.0,
			"-0.015": 0.0,
			"-0.014": 0.194396176406,
			"-0.013": 0.959736693634,
			"-0.012": 0.876384093098,
			"-0.011": 1.32180239118,
			"-0.01": 1.27501678785,
			"-0.009": 2.99142180855,
			"-0.008": 2.44324081592,
			"-0.007": 4.78028421436,
			"-0.006": 14.0404055564,
			"-0.005": 29.5621228378,
			"-0.004": 36.1601658679,
			"-0.003": 36.1917882547,
			"-0.002": 34.1444637357,
			"-0.001": 34.7553657537,
			"0.0": 20.7746218694,
			"0.001": 16.7128470429,
			"0.002": 20.171028767,
			"0.003": 17.968497891,
			"0.004": 14.8292279456,
			"0.005": 15.4044396887,
			"0.006": 10.9645320685,
			"0.007": 4.13117320661,
			"0.008": 3.37975350535,
			"0.009": 1.86298518278,
			"0.01": 2.95844110015,
			"0.011": 3.61754952522,
			"0.012": 4.77554412963,
			"0.013": 8.07107894068,
			"0.014": 6.19261930751,
			"0.015": 0.910641697822,
			"0.016": 0.0,
			"0.017": 0.0,
			"0.018": 0.0,
			"0.019": 0.0,
			"0.02": 0.0,
			"0.021": 0.0,
			"0.022": 0.0,
			"0.023": 0.0,
			"0.024": 0.0,
			"0.025": 0.0
		}
	}
}
