{
	 "smiles": "FC(F)S(=O)(=O)C1=CC=C(CCl)C=C1", 
	 "Tm": 337.15, 
	 "num_atms": 21, 
	 "gaussian": { 
		 "optdone": 1, 
		 "sigma_profile": "yes", 
		 "theory": "DFT", 
		 "functional": "B3LYP", 
		 "basiset": "6-31G**", 
		 "properties": { 
			 "R2extent": 4647.7601, 
			 "electric_dipole_moment_norm": 3.97071884046, 
			 "electric_quadrupole_moment_norm": 26.4997348023, 
			 "total_energy": -1517.48988127, 
			 "HOMO_LUMO_gap": 0.21539, 
			 "cosmo_polarized_energy": -15.68, 
			 "cosmo_cavitation_energy": 29.85, 
			 "cosmo_dispersion_energy": -21.47, 
			 "cosmo_repulsion_energy": 1.63, 
			 "cosmo_total_nonelectrostatic_energy": 10.01, 
			 "SMD_solvation_energy": 4.92 
		},
		"coords": [
			{
				"x": 2.7602050776,
				"y": -2.8409187344,
				"z": 2.2511682021,
				"element": "F" 
			},
			{
				"x": 1.7568283571,
				"y": -2.357784132,
				"z": 1.4994167321,
				"element": "C" 
			},
			{
				"x": 0.7828972045,
				"y": -1.8726750384,
				"z": 2.2994211366,
				"element": "F" 
			},
			{
				"x": 2.4562507978,
				"y": -0.9449667128,
				"z": 0.4940293797,
				"element": "S" 
			},
			{
				"x": 2.952858522,
				"y": 0.0588140923,
				"z": 1.4403596847,
				"element": "O" 
			},
			{
				"x": 3.3181029443,
				"y": -1.5722595732,
				"z": -0.5172390124,
				"element": "O" 
			},
			{
				"x": 0.9963255697,
				"y": -0.2998182869,
				"z": -0.3231485336,
				"element": "C" 
			},
			{
				"x": 0.1732384199,
				"y": 0.6025234186,
				"z": 0.3558045503,
				"element": "C" 
			},
			{
				"x": -0.9545768447,
				"y": 1.0987274619,
				"z": -0.2916806714,
				"element": "C" 
			},
			{
				"x": -1.2580178292,
				"y": 0.7049753513,
				"z": -1.6030664253,
				"element": "C" 
			},
			{
				"x": -2.4761778912,
				"y": 1.2476537096,
				"z": -2.2937910876,
				"element": "C" 
			},
			{
				"x": -3.9442197284,
				"y": 0.1920211292,
				"z": -2.0097357875,
				"element": "Cl" 
			},
			{
				"x": -0.4127639211,
				"y": -0.1955685135,
				"z": -2.2649409403,
				"element": "C" 
			},
			{
				"x": 0.7184028429,
				"y": -0.7043511823,
				"z": -1.6303418885,
				"element": "C" 
			},
			{
				"x": 1.3615013303,
				"y": -3.1314436207,
				"z": 0.8320443848,
				"element": "H" 
			},
			{
				"x": 0.4257210809,
				"y": 0.9176722144,
				"z": 1.362006019,
				"element": "H" 
			},
			{
				"x": -1.6045773394,
				"y": 1.8007014542,
				"z": 0.222769624,
				"element": "H" 
			},
			{
				"x": -2.3460645528,
				"y": 1.2887187961,
				"z": -3.3752364193,
				"element": "H" 
			},
			{
				"x": -2.7467778591,
				"y": 2.2366296173,
				"z": -1.9239201644,
				"element": "H" 
			},
			{
				"x": -0.6400005058,
				"y": -0.4976961907,
				"z": -3.2833165537,
				"element": "H" 
			},
			{
				"x": 1.3920443247,
				"y": -1.3853552599,
				"z": -2.1391022294,
				"element": "H" 
			}
		],
		 "valence_orbital": [ 
			{
				"type": "occ",
				"energy": -0.31484,
				"method": "rhf"
			},
			{
				"type": "occ",
				"energy": -0.31083,
				"method": "rhf"
			},
			{
				"type": "occ",
				"energy": -0.29887,
				"method": "rhf"
			},
			{
				"type": "occ",
				"energy": -0.28919,
				"method": "rhf"
			},
			{
				"type": "occ",
				"energy": -0.28752,
				"method": "rhf"
			},
			{
				"type": "unocc",
				"energy": -0.07213,
				"method": "rhf"
			},
			{
				"type": "unocc",
				"energy": -0.03989,
				"method": "rhf"
			},
			{
				"type": "unocc",
				"energy": 0.01131,
				"method": "rhf"
			},
			{
				"type": "unocc",
				"energy": 0.0387,
				"method": "rhf"
			},
			{
				"type": "unocc",
				"energy": 0.05418,
				"method": "rhf"
			}
		],
		"cosmo_sigma_profile": { 
			"-0.025": 0.0,
			"-0.024": 0.0,
			"-0.023": 0.0,
			"-0.022": 0.0,
			"-0.021": 0.0,
			"-0.02": 0.0,
			"-0.019": 0.0,
			"-0.018": 0.0,
			"-0.017": 0.0,
			"-0.016": 0.0,
			"-0.015": 0.0,
			"-0.014": 0.0,
			"-0.013": 0.182632004886,
			"-0.012": 3.84369299133,
			"-0.011": 2.58314259718,
			"-0.01": 1.69284385421,
			"-0.009": 3.05324366438,
			"-0.008": 12.3430263009,
			"-0.007": 13.7864773947,
			"-0.006": 11.7382930047,
			"-0.005": 10.9820616425,
			"-0.004": 10.4472057246,
			"-0.003": 9.4364469888,
			"-0.002": 8.8903937495,
			"-0.001": 10.1224356549,
			"0.0": 16.335663086,
			"0.001": 23.9960269749,
			"0.002": 31.8053704358,
			"0.003": 12.2764878463,
			"0.004": 7.91171939037,
			"0.005": 8.61264894272,
			"0.006": 13.2241589319,
			"0.007": 5.11385064708,
			"0.008": 3.02573866976,
			"0.009": 5.71966216961,
			"0.01": 9.71537622966,
			"0.011": 4.47726061822,
			"0.012": 0.029616952119,
			"0.013": 0.0,
			"0.014": 0.0,
			"0.015": 0.0,
			"0.016": 0.0,
			"0.017": 0.0,
			"0.018": 0.0,
			"0.019": 0.0,
			"0.02": 0.0,
			"0.021": 0.0,
			"0.022": 0.0,
			"0.023": 0.0,
			"0.024": 0.0,
			"0.025": 0.0
		}
	}
}
