{
	 "smiles": "CCCCCCCCC=C", 
	 "Tm": 206.95, 
	 "num_atms": 30, 
	 "gaussian": { 
		 "optdone": 1, 
		 "sigma_profile": "yes", 
		 "theory": "DFT", 
		 "functional": "B3LYP", 
		 "basiset": "6-31G**", 
		 "properties": { 
			 "R2extent": 3192.6276, 
			 "electric_dipole_moment_norm": 0.285318015555, 
			 "electric_quadrupole_moment_norm": 1.66633228979, 
			 "total_energy": -393.120225085, 
			 "HOMO_LUMO_gap": 0.27351, 
			 "cosmo_polarized_energy": -1.74, 
			 "cosmo_cavitation_energy": 30.95, 
			 "cosmo_dispersion_energy": -21.34, 
			 "cosmo_repulsion_energy": 1.79, 
			 "cosmo_total_nonelectrostatic_energy": 11.4, 
			 "SMD_solvation_energy": 5.09 
		},
		"coords": [
			{
				"x": -0.8505620978,
				"y": -0.6583584699,
				"z": 4.6579140766,
				"element": "C" 
			},
			{
				"x": -1.5039610417,
				"y": 0.5503602092,
				"z": 3.9769663559,
				"element": "C" 
			},
			{
				"x": -0.7119383593,
				"y": 1.1163941164,
				"z": 2.7866176822,
				"element": "C" 
			},
			{
				"x": -0.6006089655,
				"y": 0.1729406509,
				"z": 1.5802490158,
				"element": "C" 
			},
			{
				"x": 0.1383758081,
				"y": 0.8066505443,
				"z": 0.3928080223,
				"element": "C" 
			},
			{
				"x": 0.3610190279,
				"y": -0.131700018,
				"z": -0.8061131066,
				"element": "C" 
			},
			{
				"x": -0.911859953,
				"y": -0.6469538277,
				"z": -1.5002975693,
				"element": "C" 
			},
			{
				"x": -1.7818416757,
				"y": 0.4445878301,
				"z": -2.1612935083,
				"element": "C" 
			},
			{
				"x": -1.0831011576,
				"y": 1.1722648159,
				"z": -3.2779858778,
				"element": "C" 
			},
			{
				"x": -0.8849777482,
				"y": 2.4896501406,
				"z": -3.3418735299,
				"element": "C" 
			},
			{
				"x": 0.1599017838,
				"y": -0.4150172048,
				"z": 5.0071132756,
				"element": "H" 
			},
			{
				"x": -0.7684518232,
				"y": -1.5146358659,
				"z": 3.9806794064,
				"element": "H" 
			},
			{
				"x": -1.4320961229,
				"y": -0.9832958987,
				"z": 5.5270916923,
				"element": "H" 
			},
			{
				"x": -1.6372802447,
				"y": 1.3471795425,
				"z": 4.7200077028,
				"element": "H" 
			},
			{
				"x": -2.5143367955,
				"y": 0.2783791043,
				"z": 3.6412394653,
				"element": "H" 
			},
			{
				"x": 0.297525705,
				"y": 1.3936436348,
				"z": 3.1236736615,
				"element": "H" 
			},
			{
				"x": -1.187534068,
				"y": 2.0511867972,
				"z": 2.4591378428,
				"element": "H" 
			},
			{
				"x": -0.0799402241,
				"y": -0.7491702841,
				"z": 1.8719389292,
				"element": "H" 
			},
			{
				"x": -1.6112123045,
				"y": -0.132093733,
				"z": 1.2755194023,
				"element": "H" 
			},
			{
				"x": -0.400575413,
				"y": 1.7066974635,
				"z": 0.0676190016,
				"element": "H" 
			},
			{
				"x": 1.1197733347,
				"y": 1.1598503818,
				"z": 0.7377508997,
				"element": "H" 
			},
			{
				"x": 0.9795373717,
				"y": 0.3896469675,
				"z": -1.5472511667,
				"element": "H" 
			},
			{
				"x": 0.9481740992,
				"y": -0.9979382214,
				"z": -0.4716136183,
				"element": "H" 
			},
			{
				"x": -0.6180754957,
				"y": -1.3729430863,
				"z": -2.2705242629,
				"element": "H" 
			},
			{
				"x": -1.5307476056,
				"y": -1.2036929335,
				"z": -0.7860988932,
				"element": "H" 
			},
			{
				"x": -2.1276956552,
				"y": 1.1662837075,
				"z": -1.4116466142,
				"element": "H" 
			},
			{
				"x": -2.6844013076,
				"y": -0.0396136625,
				"z": -2.5617532896,
				"element": "H" 
			},
			{
				"x": -0.7146236532,
				"y": 0.5443899926,
				"z": -4.0918397305,
				"element": "H" 
			},
			{
				"x": -1.2321729155,
				"y": 3.1568873679,
				"z": -2.5559464707,
				"element": "H" 
			},
			{
				"x": -0.375312503,
				"y": 2.9524199386,
				"z": -4.1820887943,
				"element": "H" 
			}
		],
		 "valence_orbital": [ 
			{
				"type": "occ",
				"energy": -0.32089,
				"method": "rhf"
			},
			{
				"type": "occ",
				"energy": -0.31182,
				"method": "rhf"
			},
			{
				"type": "occ",
				"energy": -0.30588,
				"method": "rhf"
			},
			{
				"type": "occ",
				"energy": -0.29818,
				"method": "rhf"
			},
			{
				"type": "occ",
				"energy": -0.24962,
				"method": "rhf"
			},
			{
				"type": "unocc",
				"energy": 0.02389,
				"method": "rhf"
			},
			{
				"type": "unocc",
				"energy": 0.08441,
				"method": "rhf"
			},
			{
				"type": "unocc",
				"energy": 0.10073,
				"method": "rhf"
			},
			{
				"type": "unocc",
				"energy": 0.10699,
				"method": "rhf"
			},
			{
				"type": "unocc",
				"energy": 0.11869,
				"method": "rhf"
			}
		],
		"cosmo_sigma_profile": { 
			"-0.025": 0.0,
			"-0.024": 0.0,
			"-0.023": 0.0,
			"-0.022": 0.0,
			"-0.021": 0.0,
			"-0.02": 0.0,
			"-0.019": 0.0,
			"-0.018": 0.0,
			"-0.017": 0.0,
			"-0.016": 0.0,
			"-0.015": 0.0,
			"-0.014": 0.0,
			"-0.013": 0.0,
			"-0.012": 0.0,
			"-0.011": 0.0,
			"-0.01": 0.0,
			"-0.009": 0.0,
			"-0.008": 0.0,
			"-0.007": 0.0,
			"-0.006": 0.0,
			"-0.005": 0.864659964536,
			"-0.004": 5.48823103948,
			"-0.003": 10.3680319479,
			"-0.002": 34.5728120309,
			"-0.001": 48.5955019188,
			"0.0": 51.0916933465,
			"0.001": 46.8084120012,
			"0.002": 21.7633345176,
			"0.003": 5.10954096497,
			"0.004": 4.56957699113,
			"0.005": 3.79913249583,
			"0.006": 2.96671619638,
			"0.007": 1.87234788778,
			"0.008": 0.26274705686,
			"0.009": 0.0,
			"0.01": 0.0,
			"0.011": 0.0,
			"0.012": 0.0,
			"0.013": 0.0,
			"0.014": 0.0,
			"0.015": 0.0,
			"0.016": 0.0,
			"0.017": 0.0,
			"0.018": 0.0,
			"0.019": 0.0,
			"0.02": 0.0,
			"0.021": 0.0,
			"0.022": 0.0,
			"0.023": 0.0,
			"0.024": 0.0,
			"0.025": 0.0
		}
	}
}
