{
	 "smiles": "OC(=O)C1CCCN(C1)S(=O)(=O)C1=CC=C(F)C=C1", 
	 "Tm": 431.15, 
	 "num_atms": 33, 
	 "gaussian": { 
		 "optdone": 1, 
		 "sigma_profile": "yes", 
		 "theory": "DFT", 
		 "functional": "B3LYP", 
		 "basiset": "6-31G**", 
		 "properties": { 
			 "R2extent": 5761.07, 
			 "electric_dipole_moment_norm": 4.05057180655, 
			 "electric_quadrupole_moment_norm": 27.3585324164, 
			 "total_energy": -1319.32578552, 
			 "HOMO_LUMO_gap": 0.20778, 
			 "cosmo_polarized_energy": -18.17, 
			 "cosmo_cavitation_energy": 36.37, 
			 "cosmo_dispersion_energy": -25.46, 
			 "cosmo_repulsion_energy": 1.87, 
			 "cosmo_total_nonelectrostatic_energy": 12.78, 
			 "SMD_solvation_energy": 5.53 
		},
		"coords": [
			{
				"x": -2.1925194665,
				"y": 1.201903678,
				"z": -0.1708355746,
				"element": "O" 
			},
			{
				"x": -1.0275000915,
				"y": 0.9848747087,
				"z": -0.8273323947,
				"element": "C" 
			},
			{
				"x": 0.0375211415,
				"y": 1.3785331484,
				"z": -0.404118685,
				"element": "O" 
			},
			{
				"x": -1.2561658527,
				"y": 0.1926164671,
				"z": -2.1093271471,
				"element": "C" 
			},
			{
				"x": 0.0164277845,
				"y": 0.1375371209,
				"z": -2.9910164006,
				"element": "C" 
			},
			{
				"x": 0.7487113632,
				"y": -1.2156947399,
				"z": -2.8782795894,
				"element": "C" 
			},
			{
				"x": 0.7020751029,
				"y": -1.7752866256,
				"z": -1.4547306189,
				"element": "C" 
			},
			{
				"x": -0.7101503239,
				"y": -2.0039239007,
				"z": -1.0818433232,
				"element": "N" 
			},
			{
				"x": -1.7573437145,
				"y": -1.2270738763,
				"z": -1.7615083421,
				"element": "C" 
			},
			{
				"x": -1.0574255228,
				"y": -2.8653270578,
				"z": 0.3035430435,
				"element": "S" 
			},
			{
				"x": -0.0252495388,
				"y": -3.8986017923,
				"z": 0.4149917805,
				"element": "O" 
			},
			{
				"x": -2.487717238,
				"y": -3.1807591571,
				"z": 0.2491508931,
				"element": "O" 
			},
			{
				"x": -0.8234436672,
				"y": -1.7558201841,
				"z": 1.7003092129,
				"element": "C" 
			},
			{
				"x": 0.4543911189,
				"y": -1.5887737569,
				"z": 2.2439178616,
				"element": "C" 
			},
			{
				"x": 0.6425152569,
				"y": -0.7065232937,
				"z": 3.3057475699,
				"element": "C" 
			},
			{
				"x": -0.4584858508,
				"y": -0.017177773,
				"z": 3.804625553,
				"element": "C" 
			},
			{
				"x": -0.2820388944,
				"y": 0.8325934989,
				"z": 4.8325014252,
				"element": "F" 
			},
			{
				"x": -1.7403746071,
				"y": -0.1856048444,
				"z": 3.2869775061,
				"element": "C" 
			},
			{
				"x": -1.922600217,
				"y": -1.0663078361,
				"z": 2.2216281445,
				"element": "C" 
			},
			{
				"x": -1.95948989,
				"y": 1.6533848498,
				"z": 0.6581051073,
				"element": "H" 
			},
			{
				"x": -2.0736189312,
				"y": 0.6957427273,
				"z": -2.6391684882,
				"element": "H" 
			},
			{
				"x": 0.6863463679,
				"y": 0.9443677819,
				"z": -2.6832772568,
				"element": "H" 
			},
			{
				"x": -0.2543071798,
				"y": 0.3195705886,
				"z": -4.0356977864,
				"element": "H" 
			},
			{
				"x": 0.3052714068,
				"y": -1.9516145203,
				"z": -3.5590294035,
				"element": "H" 
			},
			{
				"x": 1.7952831247,
				"y": -1.102239492,
				"z": -3.1783208299,
				"element": "H" 
			},
			{
				"x": 1.1773164354,
				"y": -1.0628574975,
				"z": -0.7654503228,
				"element": "H" 
			},
			{
				"x": 1.2320745908,
				"y": -2.7273323044,
				"z": -1.3906554887,
				"element": "H" 
			},
			{
				"x": -2.0500894203,
				"y": -1.7322945925,
				"z": -2.6906244613,
				"element": "H" 
			},
			{
				"x": -2.6429069973,
				"y": -1.1882375106,
				"z": -1.1281579826,
				"element": "H" 
			},
			{
				"x": 1.2861095908,
				"y": -2.1643448241,
				"z": 1.8536394608,
				"element": "H" 
			},
			{
				"x": 1.6183607583,
				"y": -0.5542897534,
				"z": 3.7531026847,
				"element": "H" 
			},
			{
				"x": -2.5719987796,
				"y": 0.3510811417,
				"z": 3.7309963614,
				"element": "H" 
			},
			{
				"x": -2.909777859,
				"y": -1.2409203786,
				"z": 1.8095374912,
				"element": "H" 
			}
		],
		 "valence_orbital": [ 
			{
				"type": "occ",
				"energy": -0.30112,
				"method": "rhf"
			},
			{
				"type": "occ",
				"energy": -0.28789,
				"method": "rhf"
			},
			{
				"type": "occ",
				"energy": -0.28035,
				"method": "rhf"
			},
			{
				"type": "occ",
				"energy": -0.27421,
				"method": "rhf"
			},
			{
				"type": "occ",
				"energy": -0.24321,
				"method": "rhf"
			},
			{
				"type": "unocc",
				"energy": -0.03543,
				"method": "rhf"
			},
			{
				"type": "unocc",
				"energy": -0.03133,
				"method": "rhf"
			},
			{
				"type": "unocc",
				"energy": -0.0079,
				"method": "rhf"
			},
			{
				"type": "unocc",
				"energy": 0.05309,
				"method": "rhf"
			},
			{
				"type": "unocc",
				"energy": 0.06699,
				"method": "rhf"
			}
		],
		"cosmo_sigma_profile": { 
			"-0.025": 0.0,
			"-0.024": 0.0,
			"-0.023": 0.0,
			"-0.022": 0.0,
			"-0.021": 0.0,
			"-0.02": 0.0,
			"-0.019": 0.0,
			"-0.018": 0.0,
			"-0.017": 0.116103766974,
			"-0.016": 0.828169248566,
			"-0.015": 0.200998478357,
			"-0.014": 0.800031778042,
			"-0.013": 0.660230138639,
			"-0.012": 0.660675652473,
			"-0.011": 0.473513872572,
			"-0.01": 1.32638381285,
			"-0.009": 1.26563924416,
			"-0.008": 5.39635731185,
			"-0.007": 9.94568868201,
			"-0.006": 12.8673220003,
			"-0.005": 20.7957561667,
			"-0.004": 25.3238804816,
			"-0.003": 26.4295803805,
			"-0.002": 21.6385218969,
			"-0.001": 24.4792540296,
			"0.0": 19.0294383701,
			"0.001": 16.4219736875,
			"0.002": 15.0043486784,
			"0.003": 14.1004472365,
			"0.004": 16.1977364008,
			"0.005": 6.2603094686,
			"0.006": 5.39249318977,
			"0.007": 5.40640877317,
			"0.008": 5.61994350994,
			"0.009": 5.73718224813,
			"0.01": 8.08402953366,
			"0.011": 11.413401196,
			"0.012": 5.59253888249,
			"0.013": 0.00097351088633,
			"0.014": 0.0,
			"0.015": 0.0,
			"0.016": 0.0,
			"0.017": 0.0,
			"0.018": 0.0,
			"0.019": 0.0,
			"0.02": 0.0,
			"0.021": 0.0,
			"0.022": 0.0,
			"0.023": 0.0,
			"0.024": 0.0,
			"0.025": 0.0
		}
	}
}
