{
	 "smiles": "COC1=CC=C(Cl)C=C1N=C=S", 
	 "Tm": 331.15, 
	 "num_atms": 18, 
	 "gaussian": { 
		 "optdone": 1, 
		 "sigma_profile": "yes", 
		 "theory": "DFT", 
		 "functional": "B3LYP", 
		 "basiset": "6-31G**", 
		 "properties": { 
			 "R2extent": 3984.2845, 
			 "electric_dipole_moment_norm": 3.91572628895, 
			 "electric_quadrupole_moment_norm": 10.1190575282, 
			 "total_energy": -1296.80369978, 
			 "HOMO_LUMO_gap": 0.17417, 
			 "cosmo_polarized_energy": -7.0, 
			 "cosmo_cavitation_energy": 27.32, 
			 "cosmo_dispersion_energy": -20.21, 
			 "cosmo_repulsion_energy": 1.58, 
			 "cosmo_total_nonelectrostatic_energy": 8.7, 
			 "SMD_solvation_energy": 5.24 
		},
		"coords": [
			{
				"x": 1.1585275201,
				"y": 2.3384092831,
				"z": -0.2790893296,
				"element": "C" 
			},
			{
				"x": 1.0635240242,
				"y": 1.0700618667,
				"z": 0.3576589509,
				"element": "O" 
			},
			{
				"x": 0.8032951073,
				"y": -0.0206538031,
				"z": -0.4026622138,
				"element": "C" 
			},
			{
				"x": 0.6137355967,
				"y": -0.0179371936,
				"z": -1.7860427416,
				"element": "C" 
			},
			{
				"x": 0.3492104821,
				"y": -1.2069198146,
				"z": -2.471758268,
				"element": "C" 
			},
			{
				"x": 0.2738015702,
				"y": -2.4057113693,
				"z": -1.7689399987,
				"element": "C" 
			},
			{
				"x": -0.0586527506,
				"y": -3.9016954356,
				"z": -2.6271267631,
				"element": "Cl" 
			},
			{
				"x": 0.4585648823,
				"y": -2.4377946337,
				"z": -0.388681566,
				"element": "C" 
			},
			{
				"x": 0.7232499519,
				"y": -1.2508699618,
				"z": 0.2989013013,
				"element": "C" 
			},
			{
				"x": 0.9058799739,
				"y": -1.283359601,
				"z": 1.6661733286,
				"element": "N" 
			},
			{
				"x": 1.1328160304,
				"y": -0.6603833031,
				"z": 2.6688394666,
				"element": "C" 
			},
			{
				"x": 1.4226701053,
				"y": 0.0194074648,
				"z": 4.0704404371,
				"element": "S" 
			},
			{
				"x": 0.2170015171,
				"y": 2.6090958801,
				"z": -0.772224878,
				"element": "H" 
			},
			{
				"x": 1.9730955272,
				"y": 2.3564134514,
				"z": -1.0133013315,
				"element": "H" 
			},
			{
				"x": 1.3705450957,
				"y": 3.0540036443,
				"z": 0.5154124718,
				"element": "H" 
			},
			{
				"x": 0.6699546187,
				"y": 0.9091273126,
				"z": -2.3435523076,
				"element": "H" 
			},
			{
				"x": 0.2034777067,
				"y": -1.1947036994,
				"z": -3.5458326881,
				"element": "H" 
			},
			{
				"x": 0.4012030406,
				"y": -3.3671900878,
				"z": 0.1645861297,
				"element": "H" 
			}
		],
		 "valence_orbital": [ 
			{
				"type": "occ",
				"energy": -0.319,
				"method": "rhf"
			},
			{
				"type": "occ",
				"energy": -0.29587,
				"method": "rhf"
			},
			{
				"type": "occ",
				"energy": -0.26258,
				"method": "rhf"
			},
			{
				"type": "occ",
				"energy": -0.25118,
				"method": "rhf"
			},
			{
				"type": "occ",
				"energy": -0.22313,
				"method": "rhf"
			},
			{
				"type": "unocc",
				"energy": -0.04896,
				"method": "rhf"
			},
			{
				"type": "unocc",
				"energy": -0.02224,
				"method": "rhf"
			},
			{
				"type": "unocc",
				"energy": -0.01515,
				"method": "rhf"
			},
			{
				"type": "unocc",
				"energy": 0.02253,
				"method": "rhf"
			},
			{
				"type": "unocc",
				"energy": 0.03822,
				"method": "rhf"
			}
		],
		"cosmo_sigma_profile": { 
			"-0.025": 0.0,
			"-0.024": 0.0,
			"-0.023": 0.0,
			"-0.022": 0.0,
			"-0.021": 0.0,
			"-0.02": 0.0,
			"-0.019": 0.0,
			"-0.018": 0.0,
			"-0.017": 0.0,
			"-0.016": 0.0,
			"-0.015": 0.0,
			"-0.014": 0.0,
			"-0.013": 0.0,
			"-0.012": 0.0,
			"-0.011": 0.0,
			"-0.01": 0.0,
			"-0.009": 0.196193008872,
			"-0.008": 3.68553120549,
			"-0.007": 8.81092369395,
			"-0.006": 13.219712351,
			"-0.005": 11.7221655943,
			"-0.004": 12.555702806,
			"-0.003": 9.86288292994,
			"-0.002": 9.68809042277,
			"-0.001": 15.6048364863,
			"0.0": 23.6167762887,
			"0.001": 27.0423121778,
			"0.002": 25.9635521927,
			"0.003": 17.9877426374,
			"0.004": 20.2901255429,
			"0.005": 22.1863178483,
			"0.006": 3.36155049856,
			"0.007": 0.0,
			"0.008": 0.0,
			"0.009": 0.0,
			"0.01": 0.0,
			"0.011": 0.0,
			"0.012": 0.0,
			"0.013": 0.0,
			"0.014": 0.0,
			"0.015": 0.0,
			"0.016": 0.0,
			"0.017": 0.0,
			"0.018": 0.0,
			"0.019": 0.0,
			"0.02": 0.0,
			"0.021": 0.0,
			"0.022": 0.0,
			"0.023": 0.0,
			"0.024": 0.0,
			"0.025": 0.0
		}
	}
}
