{
	 "smiles": "CSCC1=NN=C(S)O1", 
	 "Tm": 345.15, 
	 "num_atms": 15, 
	 "gaussian": { 
		 "optdone": 1, 
		 "sigma_profile": "yes", 
		 "theory": "DFT", 
		 "functional": "B3LYP", 
		 "basiset": "6-31G**", 
		 "properties": { 
			 "R2extent": 2599.9555, 
			 "electric_dipole_moment_norm": 4.95042042356, 
			 "electric_quadrupole_moment_norm": 11.7580099991, 
			 "total_energy": -1137.09654804, 
			 "HOMO_LUMO_gap": 0.20993, 
			 "cosmo_polarized_energy": -14.17, 
			 "cosmo_cavitation_energy": 23.1, 
			 "cosmo_dispersion_energy": -17.76, 
			 "cosmo_repulsion_energy": 1.38, 
			 "cosmo_total_nonelectrostatic_energy": 6.72, 
			 "SMD_solvation_energy": 1.91 
		},
		"coords": [
			{
				"x": 0.9594766066,
				"y": -1.4250349139,
				"z": -0.9667945004,
				"element": "C" 
			},
			{
				"x": 2.4489451547,
				"y": -0.3952399491,
				"z": -0.7235507433,
				"element": "S" 
			},
			{
				"x": 1.6934196085,
				"y": 1.2831030781,
				"z": -0.6227760128,
				"element": "C" 
			},
			{
				"x": 1.0668619848,
				"y": 1.6076069101,
				"z": 0.6828179858,
				"element": "C" 
			},
			{
				"x": 1.4760375942,
				"y": 2.4357404356,
				"z": 1.5879492661,
				"element": "N" 
			},
			{
				"x": 0.5400717499,
				"y": 2.3953523055,
				"z": 2.6287237006,
				"element": "N" 
			},
			{
				"x": -0.3530740958,
				"y": 1.5330572448,
				"z": 2.2653171056,
				"element": "C" 
			},
			{
				"x": -1.7436878363,
				"y": 1.0082181973,
				"z": 3.200887793,
				"element": "S" 
			},
			{
				"x": -0.1044604791,
				"y": 0.9815925352,
				"z": 1.0417291288,
				"element": "O" 
			},
			{
				"x": 0.4269575553,
				"y": -1.1380242008,
				"z": -1.8776762252,
				"element": "H" 
			},
			{
				"x": 1.3142774034,
				"y": -2.4523157442,
				"z": -1.075585347,
				"element": "H" 
			},
			{
				"x": 0.2893822067,
				"y": -1.369466,
				"z": -0.1071538435,
				"element": "H" 
			},
			{
				"x": 2.5108226107,
				"y": 1.989940498,
				"z": -0.7756198219,
				"element": "H" 
			},
			{
				"x": 0.9762288669,
				"y": 1.4007562368,
				"z": -1.4412983724,
				"element": "H" 
			},
			{
				"x": -2.3877589305,
				"y": 0.4655133665,
				"z": 2.1493298866,
				"element": "H" 
			}
		],
		 "valence_orbital": [ 
			{
				"type": "occ",
				"energy": -0.33108,
				"method": "rhf"
			},
			{
				"type": "occ",
				"energy": -0.31939,
				"method": "rhf"
			},
			{
				"type": "occ",
				"energy": -0.28707,
				"method": "rhf"
			},
			{
				"type": "occ",
				"energy": -0.25544,
				"method": "rhf"
			},
			{
				"type": "occ",
				"energy": -0.23888,
				"method": "rhf"
			},
			{
				"type": "unocc",
				"energy": -0.02895,
				"method": "rhf"
			},
			{
				"type": "unocc",
				"energy": -0.00617,
				"method": "rhf"
			},
			{
				"type": "unocc",
				"energy": 0.01378,
				"method": "rhf"
			},
			{
				"type": "unocc",
				"energy": 0.03843,
				"method": "rhf"
			},
			{
				"type": "unocc",
				"energy": 0.04447,
				"method": "rhf"
			}
		],
		"cosmo_sigma_profile": { 
			"-0.025": 0.0,
			"-0.024": 0.0,
			"-0.023": 0.0,
			"-0.022": 0.0,
			"-0.021": 0.0,
			"-0.02": 0.0,
			"-0.019": 0.0,
			"-0.018": 0.0,
			"-0.017": 0.0,
			"-0.016": 0.0,
			"-0.015": 0.0,
			"-0.014": 0.0456230490612,
			"-0.013": 2.00142711219,
			"-0.012": 1.75948767405,
			"-0.011": 1.73082876106,
			"-0.01": 1.53852323932,
			"-0.009": 2.15548774829,
			"-0.008": 6.74403579128,
			"-0.007": 6.61536191849,
			"-0.006": 9.90348272066,
			"-0.005": 11.3637756484,
			"-0.004": 12.3081319619,
			"-0.003": 13.0550797085,
			"-0.002": 16.0757801804,
			"-0.001": 15.1444679216,
			"0.0": 9.88134114404,
			"0.001": 9.72046345619,
			"0.002": 10.0491217456,
			"0.003": 9.04527848796,
			"0.004": 7.31471255338,
			"0.005": 8.10783026333,
			"0.006": 6.57327663753,
			"0.007": 3.67257670621,
			"0.008": 4.0213743488,
			"0.009": 5.05864020733,
			"0.01": 4.14402233658,
			"0.011": 3.54854392349,
			"0.012": 1.83639661976,
			"0.013": 3.20818766879,
			"0.014": 1.78308173058,
			"0.015": 0.772460261211,
			"0.016": 0.0,
			"0.017": 0.0,
			"0.018": 0.0,
			"0.019": 0.0,
			"0.02": 0.0,
			"0.021": 0.0,
			"0.022": 0.0,
			"0.023": 0.0,
			"0.024": 0.0,
			"0.025": 0.0
		}
	}
}
