{
	 "smiles": "CC(O)(C1=CC=C(C=C1)[N+]([O-])=O)C(F)(F)F", 
	 "Tm": 360.15, 
	 "num_atms": 24, 
	 "gaussian": { 
		 "optdone": 1, 
		 "sigma_profile": "yes", 
		 "theory": "DFT", 
		 "functional": "B3LYP", 
		 "basiset": "6-31G**", 
		 "properties": { 
			 "R2extent": 5384.918, 
			 "electric_dipole_moment_norm": 4.56180466702, 
			 "electric_quadrupole_moment_norm": 22.3034043245, 
			 "total_energy": -927.626309809, 
			 "HOMO_LUMO_gap": 0.1891, 
			 "cosmo_polarized_energy": -13.21, 
			 "cosmo_cavitation_energy": 29.64, 
			 "cosmo_dispersion_energy": -20.78, 
			 "cosmo_repulsion_energy": 1.55, 
			 "cosmo_total_nonelectrostatic_energy": 10.41, 
			 "SMD_solvation_energy": 8.6 
		},
		"coords": [
			{
				"x": -1.9599893993,
				"y": -3.3647192115,
				"z": -1.5973934076,
				"element": "C" 
			},
			{
				"x": -1.3101332131,
				"y": -2.013430984,
				"z": -1.9303270768,
				"element": "C" 
			},
			{
				"x": -0.0041530694,
				"y": -2.2160146702,
				"z": -2.4546927346,
				"element": "O" 
			},
			{
				"x": -1.2860434483,
				"y": -1.0433809439,
				"z": -0.7397438315,
				"element": "C" 
			},
			{
				"x": -0.1628264142,
				"y": -0.2273966386,
				"z": -0.5469675291,
				"element": "C" 
			},
			{
				"x": -0.1010884422,
				"y": 0.6626107728,
				"z": 0.521730413,
				"element": "C" 
			},
			{
				"x": -1.1831844013,
				"y": 0.7344492987,
				"z": 1.394625993,
				"element": "C" 
			},
			{
				"x": -2.3210534687,
				"y": -0.049838344,
				"z": 1.2214597539,
				"element": "C" 
			},
			{
				"x": -2.3667463911,
				"y": -0.9351381318,
				"z": 0.1485570108,
				"element": "C" 
			},
			{
				"x": -1.125220862,
				"y": 1.6674589235,
				"z": 2.5322391668,
				"element": "N" 
			},
			{
				"x": -0.1070019011,
				"y": 2.3456294223,
				"z": 2.6614286092,
				"element": "O" 
			},
			{
				"x": -2.0981277325,
				"y": 1.7102224777,
				"z": 3.284243499,
				"element": "O" 
			},
			{
				"x": -2.0736297059,
				"y": -1.3560067611,
				"z": -3.1021973754,
				"element": "C" 
			},
			{
				"x": -1.5126011914,
				"y": -0.1928685282,
				"z": -3.4676477533,
				"element": "F" 
			},
			{
				"x": -3.3541974755,
				"y": -1.1058642748,
				"z": -2.7431607553,
				"element": "F" 
			},
			{
				"x": -2.1056442498,
				"y": -2.159238694,
				"z": -4.1802037332,
				"element": "F" 
			},
			{
				"x": -1.4463306169,
				"y": -3.8230351456,
				"z": -0.7465775414,
				"element": "H" 
			},
			{
				"x": -3.0167540637,
				"y": -3.2660157074,
				"z": -1.3432022465,
				"element": "H" 
			},
			{
				"x": -1.873645569,
				"y": -4.0230587423,
				"z": -2.4639201168,
				"element": "H" 
			},
			{
				"x": 0.4799186328,
				"y": -2.7748985254,
				"z": -1.8322392672,
				"element": "H" 
			},
			{
				"x": 0.661800878,
				"y": -0.2963748418,
				"z": -1.2461387368,
				"element": "H" 
			},
			{
				"x": 0.7606490004,
				"y": 1.297360835,
				"z": 0.6858751371,
				"element": "H" 
			},
			{
				"x": -3.1438779637,
				"y": 0.0425578243,
				"z": 1.9190586044,
				"element": "H" 
			},
			{
				"x": -3.2565189321,
				"y": -1.5376094097,
				"z": 0.0082939185,
				"element": "H" 
			}
		],
		 "valence_orbital": [ 
			{
				"type": "occ",
				"energy": -0.31243,
				"method": "rhf"
			},
			{
				"type": "occ",
				"energy": -0.30985,
				"method": "rhf"
			},
			{
				"type": "occ",
				"energy": -0.29427,
				"method": "rhf"
			},
			{
				"type": "occ",
				"energy": -0.28422,
				"method": "rhf"
			},
			{
				"type": "occ",
				"energy": -0.28324,
				"method": "rhf"
			},
			{
				"type": "unocc",
				"energy": -0.09414,
				"method": "rhf"
			},
			{
				"type": "unocc",
				"energy": -0.03365,
				"method": "rhf"
			},
			{
				"type": "unocc",
				"energy": -0.00938,
				"method": "rhf"
			},
			{
				"type": "unocc",
				"energy": 0.04977,
				"method": "rhf"
			},
			{
				"type": "unocc",
				"energy": 0.0764,
				"method": "rhf"
			}
		],
		"cosmo_sigma_profile": { 
			"-0.025": 0.0,
			"-0.024": 0.0,
			"-0.023": 0.0,
			"-0.022": 0.0,
			"-0.021": 0.0,
			"-0.02": 0.0,
			"-0.019": 0.0,
			"-0.018": 0.0,
			"-0.017": 0.596024863286,
			"-0.016": 1.15993710893,
			"-0.015": 0.590691871423,
			"-0.014": 1.57724291582,
			"-0.013": 0.947881238901,
			"-0.012": 1.26436463529,
			"-0.011": 0.48895678454,
			"-0.01": 0.776270933506,
			"-0.009": 1.38977231701,
			"-0.008": 4.24240774058,
			"-0.007": 7.7465231708,
			"-0.006": 11.3709664751,
			"-0.005": 11.559770078,
			"-0.004": 12.4669837358,
			"-0.003": 12.9174086222,
			"-0.002": 16.2771128373,
			"-0.001": 16.6032655614,
			"0.0": 16.3292873694,
			"0.001": 21.34942438,
			"0.002": 30.6153500519,
			"0.003": 21.2742411028,
			"0.004": 4.48682335094,
			"0.005": 5.02940025,
			"0.006": 5.75811830597,
			"0.007": 10.0271625075,
			"0.008": 8.61951004255,
			"0.009": 5.63540348343,
			"0.01": 3.79815686029,
			"0.011": 1.22208653606,
			"0.012": 0.0231130203662,
			"0.013": 0.0,
			"0.014": 0.0,
			"0.015": 0.0,
			"0.016": 0.0,
			"0.017": 0.0,
			"0.018": 0.0,
			"0.019": 0.0,
			"0.02": 0.0,
			"0.021": 0.0,
			"0.022": 0.0,
			"0.023": 0.0,
			"0.024": 0.0,
			"0.025": 0.0
		}
	}
}
