{
	 "smiles": "O=CC1=CN(N=C1C1=CC=NC=C1)C1=CC=CC=C1", 
	 "Tm": 427.15, 
	 "num_atms": 30, 
	 "gaussian": { 
		 "optdone": 1, 
		 "sigma_profile": "yes", 
		 "theory": "DFT", 
		 "functional": "B3LYP", 
		 "basiset": "6-31G**", 
		 "properties": { 
			 "R2extent": 6895.099, 
			 "electric_dipole_moment_norm": 7.36204928875, 
			 "electric_quadrupole_moment_norm": 12.789405856, 
			 "total_energy": -817.674500553, 
			 "HOMO_LUMO_gap": 0.17536, 
			 "cosmo_polarized_energy": -14.77, 
			 "cosmo_cavitation_energy": 35.12, 
			 "cosmo_dispersion_energy": -25.54, 
			 "cosmo_repulsion_energy": 1.9, 
			 "cosmo_total_nonelectrostatic_energy": 11.48, 
			 "SMD_solvation_energy": 5.09 
		},
		"coords": [
			{
				"x": 0.6039090883,
				"y": 3.8384842545,
				"z": 2.0951973964,
				"element": "O" 
			},
			{
				"x": 0.6003468013,
				"y": 3.3852194355,
				"z": 0.9630044854,
				"element": "C" 
			},
			{
				"x": -0.0711552672,
				"y": 2.1855892428,
				"z": 0.4653433124,
				"element": "C" 
			},
			{
				"x": 0.0634801562,
				"y": 1.8243453366,
				"z": -0.8703447149,
				"element": "C" 
			},
			{
				"x": -0.6417344762,
				"y": 0.689357642,
				"z": -1.0626140676,
				"element": "N" 
			},
			{
				"x": -1.2364606104,
				"y": 0.2700139792,
				"z": 0.0832717402,
				"element": "N" 
			},
			{
				"x": -0.9140669495,
				"y": 1.1538737634,
				"z": 1.0274265455,
				"element": "C" 
			},
			{
				"x": -1.4502423898,
				"y": 0.9379042311,
				"z": 2.387230453,
				"element": "C" 
			},
			{
				"x": -2.3053738349,
				"y": -0.1525058112,
				"z": 2.6275296962,
				"element": "C" 
			},
			{
				"x": -2.8033757173,
				"y": -0.3535271569,
				"z": 3.909820921,
				"element": "C" 
			},
			{
				"x": -2.5214789917,
				"y": 0.4352957078,
				"z": 4.9577469498,
				"element": "N" 
			},
			{
				"x": -1.7088467778,
				"y": 1.4706956719,
				"z": 4.7198275722,
				"element": "C" 
			},
			{
				"x": -1.1510415232,
				"y": 1.7685269797,
				"z": 3.4747385646,
				"element": "C" 
			},
			{
				"x": -0.7895976411,
				"y": -0.0641114015,
				"z": -2.2622722397,
				"element": "C" 
			},
			{
				"x": -1.079946002,
				"y": -1.4292294073,
				"z": -2.1804389541,
				"element": "C" 
			},
			{
				"x": -1.2125314835,
				"y": -2.1687313281,
				"z": -3.3538717978,
				"element": "C" 
			},
			{
				"x": -1.0508395433,
				"y": -1.5594961458,
				"z": -4.6002309166,
				"element": "C" 
			},
			{
				"x": -0.7660091747,
				"y": -0.1948650955,
				"z": -4.6698910098,
				"element": "C" 
			},
			{
				"x": -0.6426508229,
				"y": 0.5607775823,
				"z": -3.5046376932,
				"element": "C" 
			},
			{
				"x": 1.1665767371,
				"y": 3.9114784596,
				"z": 0.1627988304,
				"element": "H" 
			},
			{
				"x": 0.6338787493,
				"y": 2.2915051844,
				"z": -1.6590441655,
				"element": "H" 
			},
			{
				"x": -2.5728760868,
				"y": -0.824495408,
				"z": 1.8208924009,
				"element": "H" 
			},
			{
				"x": -3.4665943608,
				"y": -1.19403191,
				"z": 4.108047417,
				"element": "H" 
			},
			{
				"x": -1.4839765519,
				"y": 2.1082541677,
				"z": 5.5733275627,
				"element": "H" 
			},
			{
				"x": -0.501764363,
				"y": 2.6269030634,
				"z": 3.3531661385,
				"element": "H" 
			},
			{
				"x": -1.1976804696,
				"y": -1.8870711288,
				"z": -1.2061649384,
				"element": "H" 
			},
			{
				"x": -1.4373801348,
				"y": -3.2290730389,
				"z": -3.2909577874,
				"element": "H" 
			},
			{
				"x": -1.152013402,
				"y": -2.1422750024,
				"z": -5.5104373546,
				"element": "H" 
			},
			{
				"x": -0.653085882,
				"y": 0.2915137185,
				"z": -5.633934573,
				"element": "H" 
			},
			{
				"x": -0.4592690759,
				"y": 1.6282744139,
				"z": -3.5670297734,
				"element": "H" 
			}
		],
		 "valence_orbital": [ 
			{
				"type": "occ",
				"energy": -0.26798,
				"method": "rhf"
			},
			{
				"type": "occ",
				"energy": -0.26384,
				"method": "rhf"
			},
			{
				"type": "occ",
				"energy": -0.25188,
				"method": "rhf"
			},
			{
				"type": "occ",
				"energy": -0.24356,
				"method": "rhf"
			},
			{
				"type": "occ",
				"energy": -0.23874,
				"method": "rhf"
			},
			{
				"type": "unocc",
				"energy": -0.06338,
				"method": "rhf"
			},
			{
				"type": "unocc",
				"energy": -0.05448,
				"method": "rhf"
			},
			{
				"type": "unocc",
				"energy": -0.02558,
				"method": "rhf"
			},
			{
				"type": "unocc",
				"energy": -0.00538,
				"method": "rhf"
			},
			{
				"type": "unocc",
				"energy": -0.00026,
				"method": "rhf"
			}
		],
		"cosmo_sigma_profile": { 
			"-0.025": 0.0,
			"-0.024": 0.0,
			"-0.023": 0.0,
			"-0.022": 0.0,
			"-0.021": 0.0,
			"-0.02": 0.0,
			"-0.019": 0.0,
			"-0.018": 0.0,
			"-0.017": 0.0,
			"-0.016": 0.0,
			"-0.015": 0.0,
			"-0.014": 0.0,
			"-0.013": 0.0,
			"-0.012": 0.169727249143,
			"-0.011": 2.76877159704,
			"-0.01": 3.42138167182,
			"-0.009": 2.67246586082,
			"-0.008": 3.79633298493,
			"-0.007": 6.43523664009,
			"-0.006": 18.0920231919,
			"-0.005": 19.1027553537,
			"-0.004": 18.4737570777,
			"-0.003": 16.555567933,
			"-0.002": 16.4218442225,
			"-0.001": 21.0775165009,
			"0.0": 24.041928653,
			"0.001": 21.6678606883,
			"0.002": 31.5358412245,
			"0.003": 22.8408362296,
			"0.004": 17.5182938205,
			"0.005": 8.67606095827,
			"0.006": 4.30565434815,
			"0.007": 3.30653682849,
			"0.008": 4.34056324838,
			"0.009": 3.91625955877,
			"0.01": 2.89262170362,
			"0.011": 2.76085659449,
			"0.012": 2.86291980388,
			"0.013": 1.56541311377,
			"0.014": 0.836416631974,
			"0.015": 1.01021672189,
			"0.016": 0.819673415623,
			"0.017": 0.446608619335,
			"0.018": 0.00452440487654,
			"0.019": 0.0,
			"0.02": 0.0,
			"0.021": 0.0,
			"0.022": 0.0,
			"0.023": 0.0,
			"0.024": 0.0,
			"0.025": 0.0
		}
	}
}
