{
	 "smiles": "CSC(S)=NCC1=CC=C(CN)C=C1", 
	 "Tm": 425.15, 
	 "num_atms": 28, 
	 "gaussian": { 
		 "optdone": 1, 
		 "sigma_profile": "yes", 
		 "theory": "DFT", 
		 "functional": "B3LYP", 
		 "basiset": "6-31G**", 
		 "properties": { 
			 "R2extent": 5630.0234, 
			 "electric_dipole_moment_norm": 1.98936408432, 
			 "electric_quadrupole_moment_norm": 15.6006232174, 
			 "total_energy": -1295.36158988, 
			 "HOMO_LUMO_gap": 0.21419, 
			 "cosmo_polarized_energy": -11.27, 
			 "cosmo_cavitation_energy": 34.71, 
			 "cosmo_dispersion_energy": -24.99, 
			 "cosmo_repulsion_energy": 1.93, 
			 "cosmo_total_nonelectrostatic_energy": 11.64, 
			 "SMD_solvation_energy": 2.4 
		},
		"coords": [
			{
				"x": 4.8243457718,
				"y": 2.3448314207,
				"z": -0.4072370016,
				"element": "C" 
			},
			{
				"x": 4.483646775,
				"y": 1.5414827095,
				"z": 1.1948755786,
				"element": "S" 
			},
			{
				"x": 3.2202523545,
				"y": 0.3837380714,
				"z": 0.7135937295,
				"element": "C" 
			},
			{
				"x": 2.9564346345,
				"y": -0.8131045101,
				"z": 2.0580294207,
				"element": "S" 
			},
			{
				"x": 2.6589959439,
				"y": 0.4378662468,
				"z": -0.4202683714,
				"element": "N" 
			},
			{
				"x": 1.6833809661,
				"y": -0.5617216823,
				"z": -0.8400432512,
				"element": "C" 
			},
			{
				"x": 0.2714677586,
				"y": -0.2900861827,
				"z": -0.3384343896,
				"element": "C" 
			},
			{
				"x": -0.2089007871,
				"y": 1.0175396634,
				"z": -0.1862205177,
				"element": "C" 
			},
			{
				"x": -1.5170334666,
				"y": 1.2472456129,
				"z": 0.2354176401,
				"element": "C" 
			},
			{
				"x": -2.3891277168,
				"y": 0.185077054,
				"z": 0.5145486245,
				"element": "C" 
			},
			{
				"x": -3.8321872065,
				"y": 0.4425057422,
				"z": 0.9129945747,
				"element": "C" 
			},
			{
				"x": -4.7842965885,
				"y": 0.5694436838,
				"z": -0.2034753478,
				"element": "N" 
			},
			{
				"x": -1.9020274689,
				"y": -1.1196213208,
				"z": 0.3681544176,
				"element": "C" 
			},
			{
				"x": -0.5916187842,
				"y": -1.3550652144,
				"z": -0.0504403392,
				"element": "C" 
			},
			{
				"x": 3.9388054584,
				"y": 2.8706380578,
				"z": -0.7638081058,
				"element": "H" 
			},
			{
				"x": 5.6359320024,
				"y": 3.051874877,
				"z": -0.2228357404,
				"element": "H" 
			},
			{
				"x": 5.1311563393,
				"y": 1.6035315726,
				"z": -1.1461458513,
				"element": "H" 
			},
			{
				"x": 1.6432231521,
				"y": -0.9970189941,
				"z": 1.8088562985,
				"element": "H" 
			},
			{
				"x": 1.6783113429,
				"y": -0.5584826275,
				"z": -1.9373087387,
				"element": "H" 
			},
			{
				"x": 1.9890386262,
				"y": -1.5707836254,
				"z": -0.5265720203,
				"element": "H" 
			},
			{
				"x": 0.4553616002,
				"y": 1.8526365991,
				"z": -0.3858576909,
				"element": "H" 
			},
			{
				"x": -1.8663377439,
				"y": 2.2705734713,
				"z": 0.3577105047,
				"element": "H" 
			},
			{
				"x": -4.1863239569,
				"y": -0.369141684,
				"z": 1.5587722804,
				"element": "H" 
			},
			{
				"x": -3.8928409472,
				"y": 1.363187667,
				"z": 1.5044862717,
				"element": "H" 
			},
			{
				"x": -4.7456199583,
				"y": -0.2741757074,
				"z": -0.7727829603,
				"element": "H" 
			},
			{
				"x": -4.4819585783,
				"y": 1.3245465017,
				"z": -0.8163873182,
				"element": "H" 
			},
			{
				"x": -2.5509144047,
				"y": -1.9627697126,
				"z": 0.596068565,
				"element": "H" 
			},
			{
				"x": -0.234965118,
				"y": -2.3779476899,
				"z": -0.1509902616,
				"element": "H" 
			}
		],
		 "valence_orbital": [ 
			{
				"type": "occ",
				"energy": -0.2584,
				"method": "rhf"
			},
			{
				"type": "occ",
				"energy": -0.25664,
				"method": "rhf"
			},
			{
				"type": "occ",
				"energy": -0.25329,
				"method": "rhf"
			},
			{
				"type": "occ",
				"energy": -0.23835,
				"method": "rhf"
			},
			{
				"type": "occ",
				"energy": -0.22987,
				"method": "rhf"
			},
			{
				"type": "unocc",
				"energy": -0.01568,
				"method": "rhf"
			},
			{
				"type": "unocc",
				"energy": -0.01061,
				"method": "rhf"
			},
			{
				"type": "unocc",
				"energy": -0.00932,
				"method": "rhf"
			},
			{
				"type": "unocc",
				"energy": 0.00968,
				"method": "rhf"
			},
			{
				"type": "unocc",
				"energy": 0.04269,
				"method": "rhf"
			}
		],
		"cosmo_sigma_profile": { 
			"-0.025": 0.0,
			"-0.024": 0.0,
			"-0.023": 0.0,
			"-0.022": 0.0,
			"-0.021": 0.0,
			"-0.02": 0.0,
			"-0.019": 0.0,
			"-0.018": 0.0,
			"-0.017": 0.0,
			"-0.016": 0.0,
			"-0.015": 0.0,
			"-0.014": 0.0,
			"-0.013": 0.0,
			"-0.012": 0.0,
			"-0.011": 0.0,
			"-0.01": 0.183885989482,
			"-0.009": 2.8240735945,
			"-0.008": 3.19866628085,
			"-0.007": 7.18141321877,
			"-0.006": 10.8693565291,
			"-0.005": 23.9621942146,
			"-0.004": 23.9989874292,
			"-0.003": 25.1715997756,
			"-0.002": 23.792602461,
			"-0.001": 19.933976048,
			"0.0": 17.5127136542,
			"0.001": 18.3131630418,
			"0.002": 19.0155030942,
			"0.003": 18.1787953873,
			"0.004": 18.6094252447,
			"0.005": 15.6795429467,
			"0.006": 11.7397630834,
			"0.007": 5.91733490203,
			"0.008": 2.55454538908,
			"0.009": 1.84686636009,
			"0.01": 0.724522479639,
			"0.011": 1.16481363183,
			"0.012": 0.948647144912,
			"0.013": 0.921851969273,
			"0.014": 0.584866680815,
			"0.015": 0.386266427579,
			"0.016": 0.80814050538,
			"0.017": 0.503538068574,
			"0.018": 0.921704855606,
			"0.019": 0.572032906925,
			"0.02": 0.340926131856,
			"0.021": 0.0,
			"0.022": 0.0,
			"0.023": 0.0,
			"0.024": 0.0,
			"0.025": 0.0
		}
	}
}
