{
	 "smiles": "IC1=CC=C(CN2C=NC=N2)C=C1", 
	 "Tm": 356.15, 
	 "num_atms": 21, 
	 "gaussian": { 
		 "optdone": 1, 
		 "sigma_profile": "no", 
		 "theory": "DFT", 
		 "functional": "B3LYP", 
		 "basiset": "6-31G**", 
		 "properties": { 
			 "R2extent": 2993.4206, 
			 "electric_dipole_moment_norm": 2.68405570173, 
			 "electric_quadrupole_moment_norm": 13.2996923626, 
			 "total_energy": -523.400568381, 
			 "HOMO_LUMO_gap": 0.20163, 
			 "cosmo_polarized_energy": -105550.15, 
			 "cosmo_cavitation_energy": 28.92, 
			 "cosmo_dispersion_energy": -22.27, 
			 "cosmo_repulsion_energy": 1.72, 
			 "cosmo_total_nonelectrostatic_energy": 8.37, 
			 "SMD_solvation_energy": 2.08 
		},
		"coords": [
			{
				"x": 1.4028967854,
				"y": -0.9535375693,
				"z": -4.7141049036,
				"element": "I" 
			},
			{
				"x": 1.3257079614,
				"y": -0.5825681454,
				"z": -2.6275030746,
				"element": "C" 
			},
			{
				"x": 2.1959716695,
				"y": 0.3477328271,
				"z": -2.0606114897,
				"element": "C" 
			},
			{
				"x": 2.1334452394,
				"y": 0.5865147715,
				"z": -0.6856441643,
				"element": "C" 
			},
			{
				"x": 1.2205676982,
				"y": -0.0954649369,
				"z": 0.1232629929,
				"element": "C" 
			},
			{
				"x": 1.1896823359,
				"y": 0.1524544647,
				"z": 1.6207808659,
				"element": "C" 
			},
			{
				"x": -0.136525814,
				"y": 0.4736331697,
				"z": 2.1384873683,
				"element": "N" 
			},
			{
				"x": -0.7375161441,
				"y": 1.6760266449,
				"z": 2.2910094599,
				"element": "C" 
			},
			{
				"x": -1.9737659977,
				"y": 1.5246025642,
				"z": 2.7357722155,
				"element": "N" 
			},
			{
				"x": -2.0862129385,
				"y": 0.170953815,
				"z": 2.8320243842,
				"element": "C" 
			},
			{
				"x": -1.0051993576,
				"y": -0.5142119417,
				"z": 2.4829515877,
				"element": "N" 
			},
			{
				"x": 0.3567968565,
				"y": -1.0277953559,
				"z": -0.4659298459,
				"element": "C" 
			},
			{
				"x": 0.4021347516,
				"y": -1.2725053026,
				"z": -1.8375243139,
				"element": "C" 
			},
			{
				"x": 2.9095508878,
				"y": 0.8853315064,
				"z": -2.6746799392,
				"element": "H" 
			},
			{
				"x": 2.8101285703,
				"y": 1.3152471578,
				"z": -0.2457850804,
				"element": "H" 
			},
			{
				"x": 1.5239519151,
				"y": -0.7327344976,
				"z": 2.1695246028,
				"element": "H" 
			},
			{
				"x": 1.8576252823,
				"y": 0.9777130416,
				"z": 1.8822539527,
				"element": "H" 
			},
			{
				"x": -0.2423516437,
				"y": 2.613399451,
				"z": 2.0769126306,
				"element": "H" 
			},
			{
				"x": -2.9834223221,
				"y": -0.3253397659,
				"z": 3.1756050191,
				"element": "H" 
			},
			{
				"x": -0.3612955551,
				"y": -1.5571215018,
				"z": 0.1533410131,
				"element": "H" 
			},
			{
				"x": -0.2734701805,
				"y": -1.9943303968,
				"z": -2.2824432811,
				"element": "H" 
			}
		],
		 "valence_orbital": [ 
			{
				"type": "occ",
				"energy": -0.2786,
				"method": "rhf"
			},
			{
				"type": "occ",
				"energy": -0.27271,
				"method": "rhf"
			},
			{
				"type": "occ",
				"energy": -0.27232,
				"method": "rhf"
			},
			{
				"type": "occ",
				"energy": -0.26874,
				"method": "rhf"
			},
			{
				"type": "occ",
				"energy": -0.24471,
				"method": "rhf"
			},
			{
				"type": "unocc",
				"energy": -0.04308,
				"method": "rhf"
			},
			{
				"type": "unocc",
				"energy": -0.03124,
				"method": "rhf"
			},
			{
				"type": "unocc",
				"energy": -0.02382,
				"method": "rhf"
			},
			{
				"type": "unocc",
				"energy": 0.00185,
				"method": "rhf"
			},
			{
				"type": "unocc",
				"energy": 0.04036,
				"method": "rhf"
			}
		],
		"cosmo_sigma_profile": { 
			"0.0": 0.0,
			"0.0": 0.0,
			"0.0": 0.0,
			"0.0": 0.0,
			"0.0": 0.0,
			"0.0": 0.0,
			"0.0": 0.0,
			"0.0": 0.0,
			"0.0": 0.0,
			"0.0": 0.0,
			"0.0": 0.0,
			"0.0": 0.0,
			"0.0": 0.0,
			"0.0": 0.0,
			"0.0": 0.0,
			"0.0": 0.0,
			"0.0": 0.0,
			"0.0": 0.0,
			"0.0": 0.0,
			"0.0": 0.0,
			"0.0": 0.0,
			"0.0": 0.0,
			"0.0": 0.0,
			"0.0": 0.0,
			"0.0": 0.0,
			"0.0": 0.0,
			"0.0": 0.0,
			"0.0": 0.0,
			"0.0": 0.0,
			"0.0": 0.0,
			"0.0": 0.0,
			"0.0": 0.0,
			"0.0": 0.0,
			"0.0": 0.0,
			"0.0": 0.0,
			"0.0": 0.0,
			"0.0": 0.0,
			"0.0": 0.0,
			"0.0": 0.0,
			"0.0": 0.0,
			"0.0": 0.0,
			"0.0": 0.0,
			"0.0": 0.0,
			"0.0": 0.0,
			"0.0": 0.0,
			"0.0": 0.0,
			"0.0": 0.0,
			"0.0": 0.0,
			"0.0": 0.0,
			"0.0": 0.0,
			"0.0": 0.0
		}
	}
}
