{
	 "smiles": "CNS(=O)(=O)C1=CC(C(O)=O)=C(C=C1)C1=C(OC(F)(F)F)C=CC=C1", 
	 "Tm": 446.15, 
	 "num_atms": 37, 
	 "gaussian": { 
		 "optdone": 1, 
		 "sigma_profile": "yes", 
		 "theory": "DFT", 
		 "functional": "B3LYP", 
		 "basiset": "6-31G**", 
		 "properties": { 
			 "R2extent": 10060.3018, 
			 "electric_dipole_moment_norm": 4.96254417613, 
			 "electric_quadrupole_moment_norm": 31.147544409, 
			 "total_energy": -1707.35334578, 
			 "HOMO_LUMO_gap": 0.18587, 
			 "cosmo_polarized_energy": -20.8, 
			 "cosmo_cavitation_energy": 44.94, 
			 "cosmo_dispersion_energy": -29.74, 
			 "cosmo_repulsion_energy": 2.19, 
			 "cosmo_total_nonelectrostatic_energy": 17.39, 
			 "SMD_solvation_energy": 8.99 
		},
		"coords": [
			{
				"x": -4.7776508393,
				"y": 0.3971192895,
				"z": -1.8511316389,
				"element": "C" 
			},
			{
				"x": -4.1599457561,
				"y": 1.6408533799,
				"z": -2.3303730928,
				"element": "N" 
			},
			{
				"x": -3.8566503533,
				"y": 2.8479923388,
				"z": -1.1859492736,
				"element": "S" 
			},
			{
				"x": -4.7878728839,
				"y": 2.7462835994,
				"z": -0.0569974296,
				"element": "O" 
			},
			{
				"x": -3.7300651577,
				"y": 4.0818312166,
				"z": -1.9680614981,
				"element": "O" 
			},
			{
				"x": -2.2315762239,
				"y": 2.3879036169,
				"z": -0.5791590685,
				"element": "C" 
			},
			{
				"x": -2.1118668171,
				"y": 1.7089062725,
				"z": 0.626316329,
				"element": "C" 
			},
			{
				"x": -0.8464001529,
				"y": 1.3526045961,
				"z": 1.1148065799,
				"element": "C" 
			},
			{
				"x": -0.8653872489,
				"y": 0.6730851184,
				"z": 2.4488378373,
				"element": "C" 
			},
			{
				"x": 0.2904870605,
				"y": 0.7779518306,
				"z": 3.1385954274,
				"element": "O" 
			},
			{
				"x": -1.843740823,
				"y": 0.1173121608,
				"z": 2.904474526,
				"element": "O" 
			},
			{
				"x": 0.3106326455,
				"y": 1.6653966244,
				"z": 0.3653754785,
				"element": "C" 
			},
			{
				"x": 0.1510673983,
				"y": 2.362718404,
				"z": -0.846053368,
				"element": "C" 
			},
			{
				"x": -1.1013923713,
				"y": 2.7325451585,
				"z": -1.321761129,
				"element": "C" 
			},
			{
				"x": 1.704472101,
				"y": 1.2957816278,
				"z": 0.7462197978,
				"element": "C" 
			},
			{
				"x": 2.1116607498,
				"y": -0.0333595054,
				"z": 0.9262694653,
				"element": "C" 
			},
			{
				"x": 1.1392502948,
				"y": -1.046930978,
				"z": 0.8754877687,
				"element": "O" 
			},
			{
				"x": 1.0745350332,
				"y": -1.7973824573,
				"z": -0.2552611732,
				"element": "C" 
			},
			{
				"x": 2.183542487,
				"y": -2.5430414265,
				"z": -0.4410513292,
				"element": "F" 
			},
			{
				"x": 0.9161959895,
				"y": -1.0448373609,
				"z": -1.3597630964,
				"element": "F" 
			},
			{
				"x": 0.0314053195,
				"y": -2.6161196735,
				"z": -0.137090102,
				"element": "F" 
			},
			{
				"x": 3.4276265335,
				"y": -0.3726669723,
				"z": 1.2191730918,
				"element": "C" 
			},
			{
				"x": 4.3851485049,
				"y": 0.6359086799,
				"z": 1.3321531462,
				"element": "C" 
			},
			{
				"x": 4.0134201709,
				"y": 1.9679739369,
				"z": 1.152047875,
				"element": "C" 
			},
			{
				"x": 2.6882582953,
				"y": 2.2893296276,
				"z": 0.8589669562,
				"element": "C" 
			},
			{
				"x": -5.7356060118,
				"y": 0.5528429064,
				"z": -1.3436229825,
				"element": "H" 
			},
			{
				"x": -4.9201042765,
				"y": -0.2563167447,
				"z": -2.7149222758,
				"element": "H" 
			},
			{
				"x": -4.0916936206,
				"y": -0.1034989912,
				"z": -1.1629172219,
				"element": "H" 
			},
			{
				"x": -4.6576225731,
				"y": 2.0863316296,
				"z": -3.0981602669,
				"element": "H" 
			},
			{
				"x": -2.9895820511,
				"y": 1.4680271083,
				"z": 1.2146355188,
				"element": "H" 
			},
			{
				"x": 0.1440636507,
				"y": 0.3000762972,
				"z": 3.9723332159,
				"element": "H" 
			},
			{
				"x": 1.034790917,
				"y": 2.5972618265,
				"z": -1.4305371663,
				"element": "H" 
			},
			{
				"x": -1.2066471523,
				"y": 3.2795689714,
				"z": -2.2522554324,
				"element": "H" 
			},
			{
				"x": 3.6866171238,
				"y": -1.4161136062,
				"z": 1.3550424028,
				"element": "H" 
			},
			{
				"x": 5.4141403058,
				"y": 0.3777376003,
				"z": 1.5620920378,
				"element": "H" 
			},
			{
				"x": 4.7512816806,
				"y": 2.7589036063,
				"z": 1.2440837429,
				"element": "H" 
			},
			{
				"x": 2.397708051,
				"y": 3.3274202917,
				"z": 0.7296563477,
				"element": "H" 
			}
		],
		 "valence_orbital": [ 
			{
				"type": "occ",
				"energy": -0.28959,
				"method": "rhf"
			},
			{
				"type": "occ",
				"energy": -0.27694,
				"method": "rhf"
			},
			{
				"type": "occ",
				"energy": -0.27327,
				"method": "rhf"
			},
			{
				"type": "occ",
				"energy": -0.2688,
				"method": "rhf"
			},
			{
				"type": "occ",
				"energy": -0.25595,
				"method": "rhf"
			},
			{
				"type": "unocc",
				"energy": -0.07008,
				"method": "rhf"
			},
			{
				"type": "unocc",
				"energy": -0.04387,
				"method": "rhf"
			},
			{
				"type": "unocc",
				"energy": -0.02349,
				"method": "rhf"
			},
			{
				"type": "unocc",
				"energy": -0.01581,
				"method": "rhf"
			},
			{
				"type": "unocc",
				"energy": 0.02815,
				"method": "rhf"
			}
		],
		"cosmo_sigma_profile": { 
			"-0.025": 0.0,
			"-0.024": 0.0,
			"-0.023": 0.0,
			"-0.022": 0.0,
			"-0.021": 0.0,
			"-0.02": 0.0,
			"-0.019": 0.288398376509,
			"-0.018": 0.769546321452,
			"-0.017": 1.12154199527,
			"-0.016": 0.953847831173,
			"-0.015": 1.07788574766,
			"-0.014": 1.85647545035,
			"-0.013": 1.41380913188,
			"-0.012": 2.16922203435,
			"-0.011": 2.3056571733,
			"-0.01": 0.991952205718,
			"-0.009": 1.28874821476,
			"-0.008": 4.65239013106,
			"-0.007": 12.3973319476,
			"-0.006": 16.8957964435,
			"-0.005": 21.6338435949,
			"-0.004": 20.6474312262,
			"-0.003": 23.4645898185,
			"-0.002": 20.876370355,
			"-0.001": 25.298145759,
			"0.0": 31.0439285751,
			"0.001": 33.0955326777,
			"0.002": 43.4026043282,
			"0.003": 20.1343537869,
			"0.004": 12.0055524938,
			"0.005": 8.54665591429,
			"0.006": 5.68946734944,
			"0.007": 5.8652718627,
			"0.008": 6.85343789731,
			"0.009": 6.11250521873,
			"0.01": 10.3860851879,
			"0.011": 13.0058210849,
			"0.012": 3.23862034783,
			"0.013": 0.0,
			"0.014": 0.0,
			"0.015": 0.0,
			"0.016": 0.0,
			"0.017": 0.0,
			"0.018": 0.0,
			"0.019": 0.0,
			"0.02": 0.0,
			"0.021": 0.0,
			"0.022": 0.0,
			"0.023": 0.0,
			"0.024": 0.0,
			"0.025": 0.0
		}
	}
}
