{
	 "smiles": "OC(=O)C1=CC=C(C=C1)N1C=NC=N1", 
	 "Tm": 592.15, 
	 "num_atms": 21, 
	 "gaussian": { 
		 "optdone": 1, 
		 "sigma_profile": "yes", 
		 "theory": "DFT", 
		 "functional": "B3LYP", 
		 "basiset": "6-31G**", 
		 "properties": { 
			 "R2extent": 4173.1568, 
			 "electric_dipole_moment_norm": 2.30570817971, 
			 "electric_quadrupole_moment_norm": 22.2123827355, 
			 "total_energy": -661.866469222, 
			 "HOMO_LUMO_gap": 0.18631, 
			 "cosmo_polarized_energy": -19.29, 
			 "cosmo_cavitation_energy": 26.47, 
			 "cosmo_dispersion_energy": -19.67, 
			 "cosmo_repulsion_energy": 1.5, 
			 "cosmo_total_nonelectrostatic_energy": 8.29, 
			 "SMD_solvation_energy": 3.96 
		},
		"coords": [
			{
				"x": -0.4996538625,
				"y": -2.2342625968,
				"z": 3.5926611669,
				"element": "O" 
			},
			{
				"x": -0.7172043373,
				"y": -2.6074074452,
				"z": 2.3036460772,
				"element": "C" 
			},
			{
				"x": -0.6978692774,
				"y": -3.7774006286,
				"z": 2.0012507767,
				"element": "O" 
			},
			{
				"x": -0.973862022,
				"y": -1.5115612477,
				"z": 1.3140900574,
				"element": "C" 
			},
			{
				"x": -0.607295841,
				"y": -0.1748651369,
				"z": 1.5258719201,
				"element": "C" 
			},
			{
				"x": -0.8529716101,
				"y": 0.7960254378,
				"z": 0.5605380729,
				"element": "C" 
			},
			{
				"x": -1.4811958483,
				"y": 0.4322821058,
				"z": -0.6353168577,
				"element": "C" 
			},
			{
				"x": -1.8540133982,
				"y": -0.8993632232,
				"z": -0.8624551699,
				"element": "C" 
			},
			{
				"x": -1.5847365452,
				"y": -1.8614198824,
				"z": 0.1024492121,
				"element": "C" 
			},
			{
				"x": -1.7290252801,
				"y": 1.4240106851,
				"z": -1.6152818591,
				"element": "N" 
			},
			{
				"x": -2.0161570863,
				"y": 1.2916807173,
				"z": -2.9418607541,
				"element": "C" 
			},
			{
				"x": -2.1578966136,
				"y": 2.4736923817,
				"z": -3.5051562135,
				"element": "N" 
			},
			{
				"x": -1.9402785208,
				"y": 3.3279719271,
				"z": -2.4618833354,
				"element": "C" 
			},
			{
				"x": -1.6743542998,
				"y": 2.7521220164,
				"z": -1.3031021061,
				"element": "N" 
			},
			{
				"x": -0.7126496615,
				"y": -1.298950614,
				"z": 3.7148117098,
				"element": "H" 
			},
			{
				"x": -0.0843063552,
				"y": 0.1235150987,
				"z": 2.431083664,
				"element": "H" 
			},
			{
				"x": -0.5643320347,
				"y": 1.8283869643,
				"z": 0.7117648599,
				"element": "H" 
			},
			{
				"x": -2.3635708414,
				"y": -1.1841043912,
				"z": -1.7762216167,
				"element": "H" 
			},
			{
				"x": -1.8535616379,
				"y": -2.8993141398,
				"z": -0.0597860266,
				"element": "H" 
			},
			{
				"x": -2.0900378797,
				"y": 0.3374535237,
				"z": -3.4418971173,
				"element": "H" 
			},
			{
				"x": -1.981027047,
				"y": 4.4038084477,
				"z": -2.5614064608,
				"element": "H" 
			}
		],
		 "valence_orbital": [ 
			{
				"type": "occ",
				"energy": -0.29494,
				"method": "rhf"
			},
			{
				"type": "occ",
				"energy": -0.29336,
				"method": "rhf"
			},
			{
				"type": "occ",
				"energy": -0.28621,
				"method": "rhf"
			},
			{
				"type": "occ",
				"energy": -0.28089,
				"method": "rhf"
			},
			{
				"type": "occ",
				"energy": -0.25812,
				"method": "rhf"
			},
			{
				"type": "unocc",
				"energy": -0.07181,
				"method": "rhf"
			},
			{
				"type": "unocc",
				"energy": -0.038,
				"method": "rhf"
			},
			{
				"type": "unocc",
				"energy": -0.00871,
				"method": "rhf"
			},
			{
				"type": "unocc",
				"energy": 0.03791,
				"method": "rhf"
			},
			{
				"type": "unocc",
				"energy": 0.04769,
				"method": "rhf"
			}
		],
		"cosmo_sigma_profile": { 
			"-0.025": 0.0,
			"-0.024": 0.0,
			"-0.023": 0.0,
			"-0.022": 0.0,
			"-0.021": 0.0,
			"-0.02": 0.0,
			"-0.019": 0.446195715522,
			"-0.018": 1.01991112562,
			"-0.017": 0.833278944636,
			"-0.016": 1.22891183768,
			"-0.015": 1.00114207044,
			"-0.014": 0.976800443524,
			"-0.013": 0.875242285705,
			"-0.012": 2.63711531113,
			"-0.011": 3.97064137062,
			"-0.01": 3.73550616568,
			"-0.009": 5.03192569682,
			"-0.008": 5.91401453909,
			"-0.007": 9.63569310108,
			"-0.006": 8.9313732751,
			"-0.005": 8.18448151093,
			"-0.004": 10.4898683589,
			"-0.003": 9.64117334454,
			"-0.002": 12.5812561187,
			"-0.001": 13.0096350947,
			"0.0": 14.4525264093,
			"0.001": 18.6903858124,
			"0.002": 16.7887160987,
			"0.003": 6.61611699723,
			"0.004": 5.19838548082,
			"0.005": 5.26329269932,
			"0.006": 6.42584278346,
			"0.007": 4.48198470724,
			"0.008": 4.67362090922,
			"0.009": 6.11332337602,
			"0.01": 6.41776416452,
			"0.011": 7.42491832065,
			"0.012": 6.44999159132,
			"0.013": 2.05306943669,
			"0.014": 1.21298262523,
			"0.015": 1.06566404151,
			"0.016": 0.505803773073,
			"0.017": 0.0,
			"0.018": 0.0,
			"0.019": 0.0,
			"0.02": 0.0,
			"0.021": 0.0,
			"0.022": 0.0,
			"0.023": 0.0,
			"0.024": 0.0,
			"0.025": 0.0
		}
	}
}
