{
	 "smiles": "FC1=CC(Cl)=C(C=C1)S(Cl)(=O)=O", 
	 "Tm": 303.15, 
	 "num_atms": 15, 
	 "gaussian": { 
		 "optdone": 1, 
		 "sigma_profile": "yes", 
		 "theory": "DFT", 
		 "functional": "B3LYP", 
		 "basiset": "6-31G**", 
		 "properties": { 
			 "R2extent": 4191.2516, 
			 "electric_dipole_moment_norm": 4.38871419552, 
			 "electric_quadrupole_moment_norm": 13.3142372602, 
			 "total_energy": -1799.21800773, 
			 "HOMO_LUMO_gap": 0.19147, 
			 "cosmo_polarized_energy": -8.69, 
			 "cosmo_cavitation_energy": 25.23, 
			 "cosmo_dispersion_energy": -19.09, 
			 "cosmo_repulsion_energy": 1.44, 
			 "cosmo_total_nonelectrostatic_energy": 7.58, 
			 "SMD_solvation_energy": 3.41 
		},
		"coords": [
			{
				"x": -1.8544557984,
				"y": 1.6533466308,
				"z": 1.20515229,
				"element": "F" 
			},
			{
				"x": -1.2037735169,
				"y": 0.7290601069,
				"z": 0.4867589942,
				"element": "C" 
			},
			{
				"x": -1.6712713317,
				"y": 0.436054981,
				"z": -0.7901029762,
				"element": "C" 
			},
			{
				"x": -1.0067910233,
				"y": -0.5245630809,
				"z": -1.5507923657,
				"element": "C" 
			},
			{
				"x": -1.6079468496,
				"y": -0.8449635538,
				"z": -3.1509591646,
				"element": "Cl" 
			},
			{
				"x": 0.1175501352,
				"y": -1.1747396283,
				"z": -1.0117262235,
				"element": "C" 
			},
			{
				"x": 0.569962046,
				"y": -0.8527752044,
				"z": 0.2737351266,
				"element": "C" 
			},
			{
				"x": -0.0908016084,
				"y": 0.1026788305,
				"z": 1.036921282,
				"element": "C" 
			},
			{
				"x": 1.0315988897,
				"y": -2.4697179494,
				"z": -1.8572450053,
				"element": "S" 
			},
			{
				"x": 2.0157405191,
				"y": -1.3718000461,
				"z": -3.3845098233,
				"element": "Cl" 
			},
			{
				"x": 2.0797798958,
				"y": -2.9337219649,
				"z": -0.9565070205,
				"element": "O" 
			},
			{
				"x": 0.1241155302,
				"y": -3.3971921519,
				"z": -2.5143377165,
				"element": "O" 
			},
			{
				"x": -2.5389851081,
				"y": 0.9517273273,
				"z": -1.1827927212,
				"element": "H" 
			},
			{
				"x": 1.4412574424,
				"y": -1.3645686498,
				"z": 0.6644160838,
				"element": "H" 
			},
			{
				"x": 0.241120778,
				"y": 0.362474353,
				"z": 2.03518924,
				"element": "H" 
			}
		],
		 "valence_orbital": [ 
			{
				"type": "occ",
				"energy": -0.3398,
				"method": "rhf"
			},
			{
				"type": "occ",
				"energy": -0.33016,
				"method": "rhf"
			},
			{
				"type": "occ",
				"energy": -0.31874,
				"method": "rhf"
			},
			{
				"type": "occ",
				"energy": -0.29677,
				"method": "rhf"
			},
			{
				"type": "occ",
				"energy": -0.28617,
				"method": "rhf"
			},
			{
				"type": "unocc",
				"energy": -0.0947,
				"method": "rhf"
			},
			{
				"type": "unocc",
				"energy": -0.05757,
				"method": "rhf"
			},
			{
				"type": "unocc",
				"energy": -0.05447,
				"method": "rhf"
			},
			{
				"type": "unocc",
				"energy": -0.00295,
				"method": "rhf"
			},
			{
				"type": "unocc",
				"energy": 0.05155,
				"method": "rhf"
			}
		],
		"cosmo_sigma_profile": { 
			"-0.025": 0.0,
			"-0.024": 0.0,
			"-0.023": 0.0,
			"-0.022": 0.0,
			"-0.021": 0.0,
			"-0.02": 0.0,
			"-0.019": 0.0,
			"-0.018": 0.0,
			"-0.017": 0.0,
			"-0.016": 0.0,
			"-0.015": 0.0,
			"-0.014": 0.0,
			"-0.013": 0.0,
			"-0.012": 0.0,
			"-0.011": 0.0517441158748,
			"-0.01": 1.81545606333,
			"-0.009": 4.86097043684,
			"-0.008": 5.20527570384,
			"-0.007": 5.1584203818,
			"-0.006": 5.25226615622,
			"-0.005": 6.13875086601,
			"-0.004": 8.35552341115,
			"-0.003": 16.1375372679,
			"-0.002": 26.4961497102,
			"-0.001": 19.0327999227,
			"0.0": 14.7491369641,
			"0.001": 13.6633026771,
			"0.002": 20.7783458061,
			"0.003": 28.5638329152,
			"0.004": 4.87120910408,
			"0.005": 3.59477503249,
			"0.006": 4.05823036015,
			"0.007": 7.78341907578,
			"0.008": 9.81784252713,
			"0.009": 2.27091780701,
			"0.01": 0.0,
			"0.011": 0.0,
			"0.012": 0.0,
			"0.013": 0.0,
			"0.014": 0.0,
			"0.015": 0.0,
			"0.016": 0.0,
			"0.017": 0.0,
			"0.018": 0.0,
			"0.019": 0.0,
			"0.02": 0.0,
			"0.021": 0.0,
			"0.022": 0.0,
			"0.023": 0.0,
			"0.024": 0.0,
			"0.025": 0.0
		}
	}
}
