{
	 "smiles": "O=C1NC(=O)C2CN(CC3=CC=CC=C3)CC12", 
	 "Tm": 365.15, 
	 "num_atms": 31, 
	 "gaussian": { 
		 "optdone": 1, 
		 "sigma_profile": "yes", 
		 "theory": "DFT", 
		 "functional": "B3LYP", 
		 "basiset": "6-31G**", 
		 "properties": { 
			 "R2extent": 4379.0394, 
			 "electric_dipole_moment_norm": 2.01349330766, 
			 "electric_quadrupole_moment_norm": 10.8795934317, 
			 "total_energy": -763.791601688, 
			 "HOMO_LUMO_gap": 0.20077, 
			 "cosmo_polarized_energy": -15.48, 
			 "cosmo_cavitation_energy": 33.68, 
			 "cosmo_dispersion_energy": -23.85, 
			 "cosmo_repulsion_energy": 1.87, 
			 "cosmo_total_nonelectrostatic_energy": 11.7, 
			 "SMD_solvation_energy": 3.88 
		},
		"coords": [
			{
				"x": 0.2107923173,
				"y": -0.0790665611,
				"z": -4.0633998763,
				"element": "O" 
			},
			{
				"x": 0.0475049411,
				"y": 0.7171891465,
				"z": -3.1646375608,
				"element": "C" 
			},
			{
				"x": 0.9068937311,
				"y": 1.7741981094,
				"z": -2.8640669325,
				"element": "N" 
			},
			{
				"x": 0.5351896575,
				"y": 2.5534106959,
				"z": -1.7682635326,
				"element": "C" 
			},
			{
				"x": 1.161017669,
				"y": 3.4996036165,
				"z": -1.3422088408,
				"element": "O" 
			},
			{
				"x": -0.7687294805,
				"y": 1.971072289,
				"z": -1.2303226896,
				"element": "C" 
			},
			{
				"x": -0.6417466936,
				"y": 1.3654343731,
				"z": 0.1881541442,
				"element": "C" 
			},
			{
				"x": -1.4536187679,
				"y": 0.1538696146,
				"z": 0.0901799983,
				"element": "N" 
			},
			{
				"x": -1.4655386432,
				"y": -0.7325553534,
				"z": 1.2588925706,
				"element": "C" 
			},
			{
				"x": -0.138996824,
				"y": -1.3759775558,
				"z": 1.6385675048,
				"element": "C" 
			},
			{
				"x": 0.744445088,
				"y": -0.7352783339,
				"z": 2.5191270271,
				"element": "C" 
			},
			{
				"x": 1.977586442,
				"y": -1.3052340917,
				"z": 2.8397059461,
				"element": "C" 
			},
			{
				"x": 2.3465501522,
				"y": -2.5318132342,
				"z": 2.2842364582,
				"element": "C" 
			},
			{
				"x": 1.4737476735,
				"y": -3.185882143,
				"z": 1.4127102053,
				"element": "C" 
			},
			{
				"x": 0.241804069,
				"y": -2.6114389921,
				"z": 1.0954938465,
				"element": "C" 
			},
			{
				"x": -1.1279032673,
				"y": -0.4556516665,
				"z": -1.1979161175,
				"element": "C" 
			},
			{
				"x": -1.089522461,
				"y": 0.7654925185,
				"z": -2.1479611024,
				"element": "C" 
			},
			{
				"x": 1.7596267494,
				"y": 1.9428570276,
				"z": -3.3836701877,
				"element": "H" 
			},
			{
				"x": -1.5397428697,
				"y": 2.7449170953,
				"z": -1.2565027387,
				"element": "H" 
			},
			{
				"x": -1.0287304637,
				"y": 2.0296646749,
				"z": 0.9672537,
				"element": "H" 
			},
			{
				"x": 0.4181743261,
				"y": 1.1612951644,
				"z": 0.4216434255,
				"element": "H" 
			},
			{
				"x": -2.2077827619,
				"y": -1.5151747466,
				"z": 1.0605165101,
				"element": "H" 
			},
			{
				"x": -1.8415620201,
				"y": -0.1438600983,
				"z": 2.104362913,
				"element": "H" 
			},
			{
				"x": 0.4579187638,
				"y": 0.2132605719,
				"z": 2.9676330832,
				"element": "H" 
			},
			{
				"x": 2.6466956953,
				"y": -0.7949912569,
				"z": 3.5268574214,
				"element": "H" 
			},
			{
				"x": 3.3044496252,
				"y": -2.9784551675,
				"z": 2.5346685631,
				"element": "H" 
			},
			{
				"x": 1.7490591478,
				"y": -4.1455895387,
				"z": 0.9844568302,
				"element": "H" 
			},
			{
				"x": -0.4389291557,
				"y": -3.1342480516,
				"z": 0.4274614887,
				"element": "H" 
			},
			{
				"x": -0.1512950435,
				"y": -0.9712294794,
				"z": -1.2007901786,
				"element": "H" 
			},
			{
				"x": -1.8885198977,
				"y": -1.1891151302,
				"z": -1.4832929274,
				"element": "H" 
			},
			{
				"x": -2.0369376984,
				"y": 0.8748965033,
				"z": -2.6812889512,
				"element": "H" 
			}
		],
		 "valence_orbital": [ 
			{
				"type": "occ",
				"energy": -0.28449,
				"method": "rhf"
			},
			{
				"type": "occ",
				"energy": -0.25701,
				"method": "rhf"
			},
			{
				"type": "occ",
				"energy": -0.25461,
				"method": "rhf"
			},
			{
				"type": "occ",
				"energy": -0.25127,
				"method": "rhf"
			},
			{
				"type": "occ",
				"energy": -0.22288,
				"method": "rhf"
			},
			{
				"type": "unocc",
				"energy": -0.02211,
				"method": "rhf"
			},
			{
				"type": "unocc",
				"energy": -0.00904,
				"method": "rhf"
			},
			{
				"type": "unocc",
				"energy": -0.00726,
				"method": "rhf"
			},
			{
				"type": "unocc",
				"energy": 0.02317,
				"method": "rhf"
			},
			{
				"type": "unocc",
				"energy": 0.08067,
				"method": "rhf"
			}
		],
		"cosmo_sigma_profile": { 
			"-0.025": 0.0,
			"-0.024": 0.0,
			"-0.023": 0.0,
			"-0.022": 0.0,
			"-0.021": 0.0,
			"-0.02": 0.0,
			"-0.019": 0.0,
			"-0.018": 0.0,
			"-0.017": 0.119064784748,
			"-0.016": 1.04486152773,
			"-0.015": 1.36664785384,
			"-0.014": 0.851741544112,
			"-0.013": 0.829635444024,
			"-0.012": 0.687692601237,
			"-0.011": 0.863518674773,
			"-0.01": 0.997134630968,
			"-0.009": 0.658393513189,
			"-0.008": 1.94184218928,
			"-0.007": 8.43326619244,
			"-0.006": 11.1484689094,
			"-0.005": 26.41283579,
			"-0.004": 30.5775179719,
			"-0.003": 24.0473572371,
			"-0.002": 20.7979139691,
			"-0.001": 19.3891692427,
			"0.0": 12.6155643769,
			"0.001": 10.9380052349,
			"0.002": 12.1032653495,
			"0.003": 9.95992345437,
			"0.004": 10.4009892011,
			"0.005": 12.6602419708,
			"0.006": 9.10469651124,
			"0.007": 3.5293261791,
			"0.008": 4.31377990513,
			"0.009": 3.07264507025,
			"0.01": 4.81329104034,
			"0.011": 7.9403485946,
			"0.012": 10.58230905,
			"0.013": 3.24450956762,
			"0.014": 0.535922691658,
			"0.015": 0.0,
			"0.016": 0.0,
			"0.017": 0.0,
			"0.018": 0.0,
			"0.019": 0.0,
			"0.02": 0.0,
			"0.021": 0.0,
			"0.022": 0.0,
			"0.023": 0.0,
			"0.024": 0.0,
			"0.025": 0.0
		}
	}
}
