{
	 "smiles": "CCCCCCCCCCCCOC1=CC=C(C=O)C=C1", 
	 "Tm": 301.15, 
	 "num_atms": 51, 
	 "gaussian": { 
		 "optdone": 1, 
		 "sigma_profile": "yes", 
		 "theory": "DFT", 
		 "functional": "B3LYP", 
		 "basiset": "6-31G**", 
		 "properties": { 
			 "R2extent": 11294.2926, 
			 "electric_dipole_moment_norm": 5.59723902027, 
			 "electric_quadrupole_moment_norm": 32.0870931828, 
			 "total_energy": -892.568088525, 
			 "HOMO_LUMO_gap": 0.18209, 
			 "cosmo_polarized_energy": -10.03, 
			 "cosmo_cavitation_energy": 51.96, 
			 "cosmo_dispersion_energy": -33.68, 
			 "cosmo_repulsion_energy": 2.64, 
			 "cosmo_total_nonelectrostatic_energy": 20.92, 
			 "SMD_solvation_energy": 8.56 
		},
		"coords": [
			{
				"x": -2.9220047679,
				"y": 1.3514935738,
				"z": -3.8454889406,
				"element": "C" 
			},
			{
				"x": -1.6261950005,
				"y": 0.7285284037,
				"z": -4.3789295331,
				"element": "C" 
			},
			{
				"x": -0.3392880638,
				"y": 1.4246404883,
				"z": -3.9047826064,
				"element": "C" 
			},
			{
				"x": -0.0780537671,
				"y": 1.3261594238,
				"z": -2.3938856001,
				"element": "C" 
			},
			{
				"x": 1.2509567631,
				"y": 1.9697285391,
				"z": -1.9502071293,
				"element": "C" 
			},
			{
				"x": 2.5373003439,
				"y": 1.2004187227,
				"z": -2.3340010565,
				"element": "C" 
			},
			{
				"x": 3.095926551,
				"y": 0.2656416574,
				"z": -1.2458737082,
				"element": "C" 
			},
			{
				"x": 2.1994564457,
				"y": -0.9177422701,
				"z": -0.855487436,
				"element": "C" 
			},
			{
				"x": 2.8648371379,
				"y": -1.8536159799,
				"z": 0.1664688796,
				"element": "C" 
			},
			{
				"x": 2.0425199368,
				"y": -3.0956435078,
				"z": 0.5706023017,
				"element": "C" 
			},
			{
				"x": 1.046822906,
				"y": -2.9198403567,
				"z": 1.7313808671,
				"element": "C" 
			},
			{
				"x": -0.1293468782,
				"y": -1.9927742942,
				"z": 1.4501259725,
				"element": "C" 
			},
			{
				"x": -1.0313786683,
				"y": -2.1097773685,
				"z": 2.5562208762,
				"element": "O" 
			},
			{
				"x": -2.1678151523,
				"y": -1.370427292,
				"z": 2.5644173724,
				"element": "C" 
			},
			{
				"x": -2.5504540835,
				"y": -0.4869613621,
				"z": 1.5431104972,
				"element": "C" 
			},
			{
				"x": -3.7466990573,
				"y": 0.2176222205,
				"z": 1.6666789037,
				"element": "C" 
			},
			{
				"x": -4.5689661601,
				"y": 0.0591332439,
				"z": 2.7870796753,
				"element": "C" 
			},
			{
				"x": -5.8285907913,
				"y": 0.8136734721,
				"z": 2.8970756836,
				"element": "C" 
			},
			{
				"x": -6.6065243145,
				"y": 0.7414659974,
				"z": 3.8322519413,
				"element": "O" 
			},
			{
				"x": -4.1737165552,
				"y": -0.8308347524,
				"z": 3.804533337,
				"element": "C" 
			},
			{
				"x": -2.9906086291,
				"y": -1.536857252,
				"z": 3.6972950945,
				"element": "C" 
			},
			{
				"x": -2.9888048481,
				"y": 2.4123523075,
				"z": -4.1139560838,
				"element": "H" 
			},
			{
				"x": -2.9918900673,
				"y": 1.2823124606,
				"z": -2.7549421946,
				"element": "H" 
			},
			{
				"x": -3.8011345614,
				"y": 0.8484428252,
				"z": -4.2614002658,
				"element": "H" 
			},
			{
				"x": -1.6500205977,
				"y": 0.7469571234,
				"z": -5.475990832,
				"element": "H" 
			},
			{
				"x": -1.5874991591,
				"y": -0.3327166403,
				"z": -4.0961407861,
				"element": "H" 
			},
			{
				"x": -0.3746551398,
				"y": 2.4855663597,
				"z": -4.1923884099,
				"element": "H" 
			},
			{
				"x": 0.5102310891,
				"y": 0.9930063447,
				"z": -4.4496818203,
				"element": "H" 
			},
			{
				"x": -0.1047514232,
				"y": 0.2697259488,
				"z": -2.0945782412,
				"element": "H" 
			},
			{
				"x": -0.8975035401,
				"y": 1.8174348546,
				"z": -1.8541033851,
				"element": "H" 
			},
			{
				"x": 1.2929514284,
				"y": 2.9793244224,
				"z": -2.379567379,
				"element": "H" 
			},
			{
				"x": 1.2376232437,
				"y": 2.1151269825,
				"z": -0.8614449191,
				"element": "H" 
			},
			{
				"x": 2.3699493817,
				"y": 0.6248973162,
				"z": -3.2543976334,
				"element": "H" 
			},
			{
				"x": 3.3238022934,
				"y": 1.9242150566,
				"z": -2.5798741361,
				"element": "H" 
			},
			{
				"x": 4.0632771454,
				"y": -0.1275179393,
				"z": -1.5883253558,
				"element": "H" 
			},
			{
				"x": 3.3148578643,
				"y": 0.859538021,
				"z": -0.3466199974,
				"element": "H" 
			},
			{
				"x": 1.9464376273,
				"y": -1.4955405912,
				"z": -1.7561716024,
				"element": "H" 
			},
			{
				"x": 1.2495226648,
				"y": -0.5399212766,
				"z": -0.4606885971,
				"element": "H" 
			},
			{
				"x": 3.1340281013,
				"y": -1.2848009017,
				"z": 1.0681087,
				"element": "H" 
			},
			{
				"x": 3.8163569957,
				"y": -2.1937989347,
				"z": -0.262904047,
				"element": "H" 
			},
			{
				"x": 2.7381425937,
				"y": -3.8871801953,
				"z": 0.8730602447,
				"element": "H" 
			},
			{
				"x": 1.51487693,
				"y": -3.4869236995,
				"z": -0.3108592409,
				"element": "H" 
			},
			{
				"x": 0.6320082346,
				"y": -3.9002491701,
				"z": 1.9938800669,
				"element": "H" 
			},
			{
				"x": 1.5744210157,
				"y": -2.5574878927,
				"z": 2.6223395422,
				"element": "H" 
			},
			{
				"x": 0.1906879425,
				"y": -0.9481680166,
				"z": 1.3526091277,
				"element": "H" 
			},
			{
				"x": -0.6411775284,
				"y": -2.2810294015,
				"z": 0.5207001173,
				"element": "H" 
			},
			{
				"x": -1.93178956,
				"y": -0.3471838806,
				"z": 0.6651740673,
				"element": "H" 
			},
			{
				"x": -4.0466412221,
				"y": 0.9030995637,
				"z": 0.8768714592,
				"element": "H" 
			},
			{
				"x": -6.0384958359,
				"y": 1.4864066151,
				"z": 2.0340817975,
				"element": "H" 
			},
			{
				"x": -4.8196291418,
				"y": -0.9458375074,
				"z": 4.6693122585,
				"element": "H" 
			},
			{
				"x": -2.6665601224,
				"y": -2.2274814615,
				"z": 4.4689121539,
				"element": "H" 
			}
		],
		 "valence_orbital": [ 
			{
				"type": "occ",
				"energy": -0.30847,
				"method": "rhf"
			},
			{
				"type": "occ",
				"energy": -0.30446,
				"method": "rhf"
			},
			{
				"type": "occ",
				"energy": -0.26308,
				"method": "rhf"
			},
			{
				"type": "occ",
				"energy": -0.24466,
				"method": "rhf"
			},
			{
				"type": "occ",
				"energy": -0.23105,
				"method": "rhf"
			},
			{
				"type": "unocc",
				"energy": -0.04896,
				"method": "rhf"
			},
			{
				"type": "unocc",
				"energy": -0.0109,
				"method": "rhf"
			},
			{
				"type": "unocc",
				"energy": 0.0534,
				"method": "rhf"
			},
			{
				"type": "unocc",
				"energy": 0.05777,
				"method": "rhf"
			},
			{
				"type": "unocc",
				"energy": 0.07812,
				"method": "rhf"
			}
		],
		"cosmo_sigma_profile": { 
			"-0.025": 0.0,
			"-0.024": 0.0,
			"-0.023": 0.0,
			"-0.022": 0.0,
			"-0.021": 0.0,
			"-0.02": 0.0,
			"-0.019": 0.0,
			"-0.018": 0.0,
			"-0.017": 0.0,
			"-0.016": 0.0,
			"-0.015": 0.0,
			"-0.014": 0.0,
			"-0.013": 0.0,
			"-0.012": 0.0,
			"-0.011": 0.0,
			"-0.01": 0.0,
			"-0.009": 0.0,
			"-0.008": 0.0310604871516,
			"-0.007": 3.34610686763,
			"-0.006": 9.3510226767,
			"-0.005": 15.5148412027,
			"-0.004": 16.7981097827,
			"-0.003": 21.4044995414,
			"-0.002": 50.2717269305,
			"-0.001": 70.8574109451,
			"0.0": 71.8160047479,
			"0.001": 58.2447320566,
			"0.002": 31.058070129,
			"0.003": 16.3190146063,
			"0.004": 10.5922178728,
			"0.005": 4.43534725285,
			"0.006": 2.67505068211,
			"0.007": 2.55481671734,
			"0.008": 3.07699382679,
			"0.009": 3.01721380375,
			"0.01": 1.75055143976,
			"0.011": 3.54464857178,
			"0.012": 4.82685088757,
			"0.013": 1.69153558502,
			"0.014": 0.306511212686,
			"0.015": 0.0,
			"0.016": 0.0,
			"0.017": 0.0,
			"0.018": 0.0,
			"0.019": 0.0,
			"0.02": 0.0,
			"0.021": 0.0,
			"0.022": 0.0,
			"0.023": 0.0,
			"0.024": 0.0,
			"0.025": 0.0
		}
	}
}
