{
	 "smiles": "CC(N)C(O)C1=C(F)C=CC=C1F", 
	 "Tm": 393.15, 
	 "num_atms": 24, 
	 "gaussian": { 
		 "optdone": 1, 
		 "sigma_profile": "yes", 
		 "theory": "DFT", 
		 "functional": "B3LYP", 
		 "basiset": "6-31G**", 
		 "properties": { 
			 "R2extent": 2715.4774, 
			 "electric_dipole_moment_norm": 2.73103063513, 
			 "electric_quadrupole_moment_norm": 16.3166718258, 
			 "total_energy": -679.225806208, 
			 "HOMO_LUMO_gap": 0.22617, 
			 "cosmo_polarized_energy": -10.25, 
			 "cosmo_cavitation_energy": 27.13, 
			 "cosmo_dispersion_energy": -19.49, 
			 "cosmo_repulsion_energy": 1.51, 
			 "cosmo_total_nonelectrostatic_energy": 9.16, 
			 "SMD_solvation_energy": 4.87 
		},
		"coords": [
			{
				"x": -0.3984400604,
				"y": 1.0529574415,
				"z": 1.6208129017,
				"element": "C" 
			},
			{
				"x": -0.3450979968,
				"y": -0.4320076612,
				"z": 1.2629924559,
				"element": "C" 
			},
			{
				"x": -0.9734707945,
				"y": -1.2090435229,
				"z": 2.3478833743,
				"element": "N" 
			},
			{
				"x": -1.1554393396,
				"y": -0.7941381678,
				"z": -0.0164787979,
				"element": "C" 
			},
			{
				"x": -2.5338867605,
				"y": -0.5813585701,
				"z": 0.2052270862,
				"element": "O" 
			},
			{
				"x": -0.693287631,
				"y": -0.0628018916,
				"z": -1.2608812627,
				"element": "C" 
			},
			{
				"x": 0.2716065717,
				"y": -0.6404246768,
				"z": -2.0933927014,
				"element": "C" 
			},
			{
				"x": 0.786205858,
				"y": -1.8406369488,
				"z": -1.7296751892,
				"element": "F" 
			},
			{
				"x": 0.7367449469,
				"y": -0.0620093578,
				"z": -3.267202657,
				"element": "C" 
			},
			{
				"x": 0.2152061726,
				"y": 1.1744373785,
				"z": -3.6464504101,
				"element": "C" 
			},
			{
				"x": -0.7405631719,
				"y": 1.8055521182,
				"z": -2.8522339916,
				"element": "C" 
			},
			{
				"x": -1.1692440885,
				"y": 1.1857882749,
				"z": -1.6814250191,
				"element": "C" 
			},
			{
				"x": -2.0677314909,
				"y": 1.8442169488,
				"z": -0.9273878111,
				"element": "F" 
			},
			{
				"x": -1.4340163067,
				"y": 1.3867202297,
				"z": 1.718031121,
				"element": "H" 
			},
			{
				"x": 0.0885396653,
				"y": 1.6590555075,
				"z": 0.8535420581,
				"element": "H" 
			},
			{
				"x": 0.1217351563,
				"y": 1.2366679142,
				"z": 2.5679438264,
				"element": "H" 
			},
			{
				"x": 0.7029079499,
				"y": -0.721669046,
				"z": 1.0829673303,
				"element": "H" 
			},
			{
				"x": -0.7132657244,
				"y": -2.1906565031,
				"z": 2.284076734,
				"element": "H" 
			},
			{
				"x": -0.6640092648,
				"y": -0.8765988802,
				"z": 3.2565205364,
				"element": "H" 
			},
			{
				"x": -0.9650908051,
				"y": -1.8649052862,
				"z": -0.199402384,
				"element": "H" 
			},
			{
				"x": -2.654351046,
				"y": -0.8398436534,
				"z": 1.1376869617,
				"element": "H" 
			},
			{
				"x": 1.4840803561,
				"y": -0.5808660692,
				"z": -3.8563783536,
				"element": "H" 
			},
			{
				"x": 0.5584476008,
				"y": 1.6493511729,
				"z": -4.5599715189,
				"element": "H" 
			},
			{
				"x": -1.1592797962,
				"y": 2.7704132487,
				"z": -3.1150042895,
				"element": "H" 
			}
		],
		 "valence_orbital": [ 
			{
				"type": "occ",
				"energy": -0.3142,
				"method": "rhf"
			},
			{
				"type": "occ",
				"energy": -0.26361,
				"method": "rhf"
			},
			{
				"type": "occ",
				"energy": -0.26114,
				"method": "rhf"
			},
			{
				"type": "occ",
				"energy": -0.24312,
				"method": "rhf"
			},
			{
				"type": "occ",
				"energy": -0.23782,
				"method": "rhf"
			},
			{
				"type": "unocc",
				"energy": -0.01165,
				"method": "rhf"
			},
			{
				"type": "unocc",
				"energy": 0.0027,
				"method": "rhf"
			},
			{
				"type": "unocc",
				"energy": 0.06554,
				"method": "rhf"
			},
			{
				"type": "unocc",
				"energy": 0.08484,
				"method": "rhf"
			},
			{
				"type": "unocc",
				"energy": 0.11968,
				"method": "rhf"
			}
		],
		"cosmo_sigma_profile": { 
			"-0.025": 0.0,
			"-0.024": 0.0,
			"-0.023": 0.0,
			"-0.022": 0.0,
			"-0.021": 0.0,
			"-0.02": 0.0,
			"-0.019": 0.0,
			"-0.018": 0.0,
			"-0.017": 0.0,
			"-0.016": 0.0,
			"-0.015": 0.0,
			"-0.014": 0.0,
			"-0.013": 0.0,
			"-0.012": 0.0,
			"-0.011": 0.659420949509,
			"-0.01": 2.6330927252,
			"-0.009": 2.75334060409,
			"-0.008": 4.05817625249,
			"-0.007": 9.137209864,
			"-0.006": 9.12943323489,
			"-0.005": 9.95015613701,
			"-0.004": 10.5159358751,
			"-0.003": 14.2437904085,
			"-0.002": 17.0768369979,
			"-0.001": 16.6016285179,
			"0.0": 18.9206929006,
			"0.001": 20.8966552227,
			"0.002": 16.5067704374,
			"0.003": 16.4371945242,
			"0.004": 19.1443777389,
			"0.005": 6.44018646241,
			"0.006": 2.2814341701,
			"0.007": 2.26004029742,
			"0.008": 2.36131030565,
			"0.009": 2.23026446655,
			"0.01": 2.31392444687,
			"0.011": 1.55073922476,
			"0.012": 1.30729774155,
			"0.013": 2.05468306351,
			"0.014": 1.56192015256,
			"0.015": 0.618503149398,
			"0.016": 0.0,
			"0.017": 0.0,
			"0.018": 0.0,
			"0.019": 0.0,
			"0.02": 0.0,
			"0.021": 0.0,
			"0.022": 0.0,
			"0.023": 0.0,
			"0.024": 0.0,
			"0.025": 0.0
		}
	}
}
