{
	 "smiles": "CC1=C(C(=CC(F)=C1)C(O)=O)[N+]([O-])=O", 
	 "Tm": 435.15, 
	 "num_atms": 20, 
	 "gaussian": { 
		 "optdone": 1, 
		 "sigma_profile": "yes", 
		 "theory": "DFT", 
		 "functional": "B3LYP", 
		 "basiset": "6-31G**", 
		 "properties": { 
			 "R2extent": 3427.5014, 
			 "electric_dipole_moment_norm": 5.34012420361, 
			 "electric_quadrupole_moment_norm": 12.3017903429, 
			 "total_energy": -763.850956361, 
			 "HOMO_LUMO_gap": 0.16166, 
			 "cosmo_polarized_energy": -12.53, 
			 "cosmo_cavitation_energy": 25.6, 
			 "cosmo_dispersion_energy": -18.6, 
			 "cosmo_repulsion_energy": 1.41, 
			 "cosmo_total_nonelectrostatic_energy": 8.41, 
			 "SMD_solvation_energy": 8.19 
		},
		"coords": [
			{
				"x": 0.0320284498,
				"y": 3.2158036468,
				"z": -1.3799172129,
				"element": "C" 
			},
			{
				"x": 0.1619899185,
				"y": 2.623248284,
				"z": 0.0046452097,
				"element": "C" 
			},
			{
				"x": -0.0603437614,
				"y": 1.2607751989,
				"z": 0.2981196494,
				"element": "C" 
			},
			{
				"x": 0.0737802394,
				"y": 0.7268892912,
				"z": 1.5991389734,
				"element": "C" 
			},
			{
				"x": 0.4665810258,
				"y": 1.5990675757,
				"z": 2.618914043,
				"element": "C" 
			},
			{
				"x": 0.6540048067,
				"y": 2.9436565171,
				"z": 2.3445411766,
				"element": "C" 
			},
			{
				"x": 1.0003642249,
				"y": 3.7701741919,
				"z": 3.3417477308,
				"element": "F" 
			},
			{
				"x": 0.5000485653,
				"y": 3.46403724,
				"z": 1.0670285824,
				"element": "C" 
			},
			{
				"x": -0.0532920438,
				"y": -0.7227691864,
				"z": 2.0772978104,
				"element": "C" 
			},
			{
				"x": -0.9337514238,
				"y": -1.5312620032,
				"z": 1.4891232355,
				"element": "O" 
			},
			{
				"x": 0.6125340185,
				"y": -1.094637407,
				"z": 3.0169065859,
				"element": "O" 
			},
			{
				"x": -0.4273612823,
				"y": 0.4095152676,
				"z": -0.8458587057,
				"element": "N" 
			},
			{
				"x": 0.2621791104,
				"y": 0.4722030973,
				"z": -1.8522540689,
				"element": "O" 
			},
			{
				"x": -1.448895964,
				"y": -0.2929857695,
				"z": -0.7574265502,
				"element": "O" 
			},
			{
				"x": -0.845091531,
				"y": 2.8408239295,
				"z": -1.9140014371,
				"element": "H" 
			},
			{
				"x": -0.0524317143,
				"y": 4.302234521,
				"z": -1.3088456263,
				"element": "H" 
			},
			{
				"x": 0.9056400562,
				"y": 2.9751385958,
				"z": -1.9915681691,
				"element": "H" 
			},
			{
				"x": 0.6320248635,
				"y": 1.2067268234,
				"z": 3.614247615,
				"element": "H" 
			},
			{
				"x": 0.6543141829,
				"y": 4.5247043708,
				"z": 0.9021974408,
				"element": "H" 
			},
			{
				"x": -1.3908217413,
				"y": -1.083544185,
				"z": 0.7460637173,
				"element": "H" 
			}
		],
		 "valence_orbital": [ 
			{
				"type": "occ",
				"energy": -0.33468,
				"method": "rhf"
			},
			{
				"type": "occ",
				"energy": -0.32005,
				"method": "rhf"
			},
			{
				"type": "occ",
				"energy": -0.29965,
				"method": "rhf"
			},
			{
				"type": "occ",
				"energy": -0.28565,
				"method": "rhf"
			},
			{
				"type": "occ",
				"energy": -0.279,
				"method": "rhf"
			},
			{
				"type": "unocc",
				"energy": -0.11734,
				"method": "rhf"
			},
			{
				"type": "unocc",
				"energy": -0.06861,
				"method": "rhf"
			},
			{
				"type": "unocc",
				"energy": -0.03895,
				"method": "rhf"
			},
			{
				"type": "unocc",
				"energy": 0.02666,
				"method": "rhf"
			},
			{
				"type": "unocc",
				"energy": 0.06635,
				"method": "rhf"
			}
		],
		"cosmo_sigma_profile": { 
			"-0.025": 0.0,
			"-0.024": 0.0,
			"-0.023": 0.0,
			"-0.022": 0.0,
			"-0.021": 0.0,
			"-0.02": 0.0,
			"-0.019": 0.0,
			"-0.018": 0.0,
			"-0.017": 0.0,
			"-0.016": 0.0,
			"-0.015": 0.0,
			"-0.014": 0.0118119735108,
			"-0.013": 0.319516053991,
			"-0.012": 0.462245651304,
			"-0.011": 0.782449667624,
			"-0.01": 1.52324873341,
			"-0.009": 5.52012238851,
			"-0.008": 6.17605992157,
			"-0.007": 5.84223352606,
			"-0.006": 9.63148516714,
			"-0.005": 10.7014150134,
			"-0.004": 12.0286413425,
			"-0.003": 14.2772688522,
			"-0.002": 27.1518247557,
			"-0.001": 20.3279344178,
			"0.0": 10.375156814,
			"0.001": 6.98632601294,
			"0.002": 8.76063297064,
			"0.003": 12.7902537557,
			"0.004": 8.4027741576,
			"0.005": 7.1677641371,
			"0.006": 8.06953499734,
			"0.007": 5.49553591901,
			"0.008": 5.92991397848,
			"0.009": 3.4764432863,
			"0.01": 5.41385328144,
			"0.011": 5.07636719246,
			"0.012": 2.68265742363,
			"0.013": 0.399607031802,
			"0.014": 0.0,
			"0.015": 0.0,
			"0.016": 0.0,
			"0.017": 0.0,
			"0.018": 0.0,
			"0.019": 0.0,
			"0.02": 0.0,
			"0.021": 0.0,
			"0.022": 0.0,
			"0.023": 0.0,
			"0.024": 0.0,
			"0.025": 0.0
		}
	}
}
