{
	 "smiles": "OC(=O)C=CC1=C(F)C=CC=C1Cl", 
	 "Tm": 437.15, 
	 "num_atms": 19, 
	 "gaussian": { 
		 "optdone": 1, 
		 "sigma_profile": "yes", 
		 "theory": "DFT", 
		 "functional": "B3LYP", 
		 "basiset": "6-31G**", 
		 "properties": { 
			 "R2extent": 3874.1612, 
			 "electric_dipole_moment_norm": 2.96197882167, 
			 "electric_quadrupole_moment_norm": 10.1383436468, 
			 "total_energy": -1057.04518481, 
			 "HOMO_LUMO_gap": 0.17037, 
			 "cosmo_polarized_energy": -10.01, 
			 "cosmo_cavitation_energy": 26.47, 
			 "cosmo_dispersion_energy": -19.38, 
			 "cosmo_repulsion_energy": 1.51, 
			 "cosmo_total_nonelectrostatic_energy": 8.59, 
			 "SMD_solvation_energy": 6.15 
		},
		"coords": [
			{
				"x": 1.4866486176,
				"y": -4.9517589777,
				"z": 1.5770349636,
				"element": "O" 
			},
			{
				"x": 1.7905905929,
				"y": -3.7009503011,
				"z": 1.1445979215,
				"element": "C" 
			},
			{
				"x": 2.9361024206,
				"y": -3.2973764638,
				"z": 1.0755895007,
				"element": "O" 
			},
			{
				"x": 0.5683194676,
				"y": -2.9467077665,
				"z": 0.7893420256,
				"element": "C" 
			},
			{
				"x": 0.7028532369,
				"y": -1.6840667722,
				"z": 0.3410428551,
				"element": "C" 
			},
			{
				"x": -0.2874428367,
				"y": -0.6954947806,
				"z": -0.083772447,
				"element": "C" 
			},
			{
				"x": 0.216784465,
				"y": 0.5551576201,
				"z": -0.5123345072,
				"element": "C" 
			},
			{
				"x": 1.5518672241,
				"y": 0.7415508879,
				"z": -0.498739877,
				"element": "F" 
			},
			{
				"x": -0.5664669285,
				"y": 1.6108865645,
				"z": -0.9486321584,
				"element": "C" 
			},
			{
				"x": -1.9489282048,
				"y": 1.4452693908,
				"z": -0.9727447434,
				"element": "C" 
			},
			{
				"x": -2.5144744279,
				"y": 0.2390510607,
				"z": -0.5639578975,
				"element": "C" 
			},
			{
				"x": -1.6982004077,
				"y": -0.8047579768,
				"z": -0.1301307139,
				"element": "C" 
			},
			{
				"x": -2.5280393953,
				"y": -2.2718788019,
				"z": 0.3595076089,
				"element": "Cl" 
			},
			{
				"x": 2.3360051564,
				"y": -5.3740657245,
				"z": 1.7871330528,
				"element": "H" 
			},
			{
				"x": -0.3729124601,
				"y": -3.4604179172,
				"z": 0.9118593615,
				"element": "H" 
			},
			{
				"x": 1.7275544294,
				"y": -1.3289309918,
				"z": 0.2805081501,
				"element": "H" 
			},
			{
				"x": -0.0861465995,
				"y": 2.5319572231,
				"z": -1.2577398716,
				"element": "H" 
			},
			{
				"x": -2.5888081804,
				"y": 2.2544152768,
				"z": -1.3095458751,
				"element": "H" 
			},
			{
				"x": -3.5887061697,
				"y": 0.0976184502,
				"z": -0.5777173487,
				"element": "H" 
			}
		],
		 "valence_orbital": [ 
			{
				"type": "occ",
				"energy": -0.3237,
				"method": "rhf"
			},
			{
				"type": "occ",
				"energy": -0.30998,
				"method": "rhf"
			},
			{
				"type": "occ",
				"energy": -0.27307,
				"method": "rhf"
			},
			{
				"type": "occ",
				"energy": -0.26112,
				"method": "rhf"
			},
			{
				"type": "occ",
				"energy": -0.24798,
				"method": "rhf"
			},
			{
				"type": "unocc",
				"energy": -0.07761,
				"method": "rhf"
			},
			{
				"type": "unocc",
				"energy": -0.02314,
				"method": "rhf"
			},
			{
				"type": "unocc",
				"energy": 0.00695,
				"method": "rhf"
			},
			{
				"type": "unocc",
				"energy": 0.01344,
				"method": "rhf"
			},
			{
				"type": "unocc",
				"energy": 0.08536,
				"method": "rhf"
			}
		],
		"cosmo_sigma_profile": { 
			"-0.025": 0.0,
			"-0.024": 0.0,
			"-0.023": 0.0,
			"-0.022": 0.0,
			"-0.021": 0.0,
			"-0.02": 0.0,
			"-0.019": 0.0,
			"-0.018": 0.455520769309,
			"-0.017": 1.38203277402,
			"-0.016": 0.639584639874,
			"-0.015": 0.54536754454,
			"-0.014": 0.728558953141,
			"-0.013": 0.462472305411,
			"-0.012": 1.17957316977,
			"-0.011": 0.965061115965,
			"-0.01": 0.465523884597,
			"-0.009": 0.585151418434,
			"-0.008": 4.91198721172,
			"-0.007": 6.76418601541,
			"-0.006": 8.19447976228,
			"-0.005": 6.16296326332,
			"-0.004": 5.90759792146,
			"-0.003": 10.567357904,
			"-0.002": 17.4377530162,
			"-0.001": 21.3484728404,
			"0.0": 29.0855080642,
			"0.001": 26.4342152914,
			"0.002": 20.8652216293,
			"0.003": 16.6825063398,
			"0.004": 8.8175519285,
			"0.005": 2.88028628186,
			"0.006": 1.90575172732,
			"0.007": 3.30058251953,
			"0.008": 2.99083182756,
			"0.009": 2.65081266564,
			"0.01": 2.53719313103,
			"0.011": 2.95053071012,
			"0.012": 5.12947838045,
			"0.013": 0.395333332335,
			"0.014": 0.0,
			"0.015": 0.0,
			"0.016": 0.0,
			"0.017": 0.0,
			"0.018": 0.0,
			"0.019": 0.0,
			"0.02": 0.0,
			"0.021": 0.0,
			"0.022": 0.0,
			"0.023": 0.0,
			"0.024": 0.0,
			"0.025": 0.0
		}
	}
}
