{
	 "smiles": "CCCCF", 
	 "Tm": 139.15, 
	 "num_atms": 14, 
	 "gaussian": { 
		 "optdone": 1, 
		 "sigma_profile": "yes", 
		 "theory": "DFT", 
		 "functional": "B3LYP", 
		 "basiset": "6-31G**", 
		 "properties": { 
			 "R2extent": 612.1343, 
			 "electric_dipole_moment_norm": 1.84292382371, 
			 "electric_quadrupole_moment_norm": 3.45400959755, 
			 "total_energy": -257.691224224, 
			 "HOMO_LUMO_gap": 0.39042, 
			 "cosmo_polarized_energy": -2.75, 
			 "cosmo_cavitation_energy": 16.56, 
			 "cosmo_dispersion_energy": -12.17, 
			 "cosmo_repulsion_energy": 1.08, 
			 "cosmo_total_nonelectrostatic_energy": 5.46, 
			 "SMD_solvation_energy": 3.37 
		},
		"coords": [
			{
				"x": -2.4133727245,
				"y": 0.3321471344,
				"z": -0.0926291213,
				"element": "C" 
			},
			{
				"x": -1.0810659004,
				"y": 0.8085399418,
				"z": -0.6862369882,
				"element": "C" 
			},
			{
				"x": 0.0685322744,
				"y": -0.2057363496,
				"z": -0.5728331527,
				"element": "C" 
			},
			{
				"x": 0.5111703493,
				"y": -0.4772300821,
				"z": 0.8567485262,
				"element": "C" 
			},
			{
				"x": 1.5951515151,
				"y": -1.3529232203,
				"z": 0.8508167177,
				"element": "F" 
			},
			{
				"x": -3.2044226565,
				"y": 1.0688863892,
				"z": -0.2653932985,
				"element": "H" 
			},
			{
				"x": -2.7329990238,
				"y": -0.6115839945,
				"z": -0.5492616459,
				"element": "H" 
			},
			{
				"x": -2.3501852176,
				"y": 0.170884367,
				"z": 0.9886610318,
				"element": "H" 
			},
			{
				"x": -0.7828947494,
				"y": 1.752082102,
				"z": -0.2087228987,
				"element": "H" 
			},
			{
				"x": -1.2274240958,
				"y": 1.0435150847,
				"z": -1.7471622135,
				"element": "H" 
			},
			{
				"x": 0.9406906422,
				"y": 0.1609169783,
				"z": -1.1271252961,
				"element": "H" 
			},
			{
				"x": -0.2220395186,
				"y": -1.1573000732,
				"z": -1.0359973613,
				"element": "H" 
			},
			{
				"x": -0.2871013873,
				"y": -0.9350525525,
				"z": 1.4531769462,
				"element": "H" 
			},
			{
				"x": 0.823560493,
				"y": 0.4514542749,
				"z": 1.3536587543,
				"element": "H" 
			}
		],
		 "valence_orbital": [ 
			{
				"type": "occ",
				"energy": -0.3616,
				"method": "rhf"
			},
			{
				"type": "occ",
				"energy": -0.344,
				"method": "rhf"
			},
			{
				"type": "occ",
				"energy": -0.33901,
				"method": "rhf"
			},
			{
				"type": "occ",
				"energy": -0.31836,
				"method": "rhf"
			},
			{
				"type": "occ",
				"energy": -0.31012,
				"method": "rhf"
			},
			{
				"type": "unocc",
				"energy": 0.0803,
				"method": "rhf"
			},
			{
				"type": "unocc",
				"energy": 0.11189,
				"method": "rhf"
			},
			{
				"type": "unocc",
				"energy": 0.12273,
				"method": "rhf"
			},
			{
				"type": "unocc",
				"energy": 0.13505,
				"method": "rhf"
			},
			{
				"type": "unocc",
				"energy": 0.15337,
				"method": "rhf"
			}
		],
		"cosmo_sigma_profile": { 
			"-0.025": 0.0,
			"-0.024": 0.0,
			"-0.023": 0.0,
			"-0.022": 0.0,
			"-0.021": 0.0,
			"-0.02": 0.0,
			"-0.019": 0.0,
			"-0.018": 0.0,
			"-0.017": 0.0,
			"-0.016": 0.0,
			"-0.015": 0.0,
			"-0.014": 0.0,
			"-0.013": 0.0,
			"-0.012": 0.0,
			"-0.011": 0.0,
			"-0.01": 0.0,
			"-0.009": 0.0,
			"-0.008": 0.0,
			"-0.007": 0.0,
			"-0.006": 0.0,
			"-0.005": 2.28130132852,
			"-0.004": 8.43009623216,
			"-0.003": 17.3606863608,
			"-0.002": 21.4938744068,
			"-0.001": 19.0956147043,
			"0.0": 18.4202880045,
			"0.001": 13.8175967618,
			"0.002": 4.63260664255,
			"0.003": 1.94565738345,
			"0.004": 2.40952167271,
			"0.005": 1.77779765867,
			"0.006": 4.9572462301,
			"0.007": 9.89551168404,
			"0.008": 1.57394766355,
			"0.009": 0.0,
			"0.01": 0.0,
			"0.011": 0.0,
			"0.012": 0.0,
			"0.013": 0.0,
			"0.014": 0.0,
			"0.015": 0.0,
			"0.016": 0.0,
			"0.017": 0.0,
			"0.018": 0.0,
			"0.019": 0.0,
			"0.02": 0.0,
			"0.021": 0.0,
			"0.022": 0.0,
			"0.023": 0.0,
			"0.024": 0.0,
			"0.025": 0.0
		}
	}
}
