{
	 "smiles": "COC1=C(OC)C=C(C(O)=O)C(NC(=O)C(C)C)=C1", 
	 "Tm": 490.15, 
	 "num_atms": 36, 
	 "gaussian": { 
		 "optdone": 1, 
		 "sigma_profile": "yes", 
		 "theory": "DFT", 
		 "functional": "B3LYP", 
		 "basiset": "6-31G**", 
		 "properties": { 
			 "R2extent": 5674.6221, 
			 "electric_dipole_moment_norm": 5.03942067801, 
			 "electric_quadrupole_moment_norm": 14.3747730427, 
			 "total_energy": -936.501398182, 
			 "HOMO_LUMO_gap": 0.16423, 
			 "cosmo_polarized_energy": -15.48, 
			 "cosmo_cavitation_energy": 38.73, 
			 "cosmo_dispersion_energy": -26.71, 
			 "cosmo_repulsion_energy": 2.09, 
			 "cosmo_total_nonelectrostatic_energy": 14.12, 
			 "SMD_solvation_energy": 9.9 
		},
		"coords": [
			{
				"x": 0.7779257399,
				"y": -0.9752170454,
				"z": 3.7486342783,
				"element": "C" 
			},
			{
				"x": 0.0732060766,
				"y": -0.0303958873,
				"z": 2.9267751696,
				"element": "O" 
			},
			{
				"x": 0.3766159216,
				"y": -0.0523099435,
				"z": 1.5919181314,
				"element": "C" 
			},
			{
				"x": 1.670371316,
				"y": 0.2411016453,
				"z": 1.1078583616,
				"element": "C" 
			},
			{
				"x": 2.7117316262,
				"y": 0.543598816,
				"z": 1.958235828,
				"element": "O" 
			},
			{
				"x": 2.6210650779,
				"y": 1.8389914457,
				"z": 2.5650287151,
				"element": "C" 
			},
			{
				"x": 1.8996155784,
				"y": 0.171110006,
				"z": -0.2563825811,
				"element": "C" 
			},
			{
				"x": 0.8771640613,
				"y": -0.1401157431,
				"z": -1.170873875,
				"element": "C" 
			},
			{
				"x": 1.1991298829,
				"y": -0.2569470284,
				"z": -2.6058455576,
				"element": "C" 
			},
			{
				"x": 2.4523582445,
				"y": 0.1554632041,
				"z": -2.915111854,
				"element": "O" 
			},
			{
				"x": 0.4547634655,
				"y": -0.6916071471,
				"z": -3.4757784983,
				"element": "O" 
			},
			{
				"x": -0.4448128427,
				"y": -0.3612387818,
				"z": -0.6888120594,
				"element": "C" 
			},
			{
				"x": -1.4707807606,
				"y": -0.6646600805,
				"z": -1.5790438843,
				"element": "N" 
			},
			{
				"x": -2.8636857887,
				"y": -0.5779125116,
				"z": -1.5355916133,
				"element": "C" 
			},
			{
				"x": -3.4939339145,
				"y": -1.2583501912,
				"z": -2.3334477025,
				"element": "O" 
			},
			{
				"x": -3.6370805202,
				"y": 0.4174811451,
				"z": -0.6491299571,
				"element": "C" 
			},
			{
				"x": -2.939723144,
				"y": 1.7341379982,
				"z": -0.2752362076,
				"element": "C" 
			},
			{
				"x": -4.3067371006,
				"y": -0.2829045204,
				"z": 0.549944182,
				"element": "C" 
			},
			{
				"x": -0.648550473,
				"y": -0.3501952124,
				"z": 0.6998599541,
				"element": "C" 
			},
			{
				"x": 0.4305665791,
				"y": -0.8018574739,
				"z": 4.7684636837,
				"element": "H" 
			},
			{
				"x": 1.8592607096,
				"y": -0.8293457961,
				"z": 3.6897386224,
				"element": "H" 
			},
			{
				"x": 0.5278381082,
				"y": -2.0000466058,
				"z": 3.449472182,
				"element": "H" 
			},
			{
				"x": 2.6352239801,
				"y": 2.6269356423,
				"z": 1.8019362977,
				"element": "H" 
			},
			{
				"x": 1.7121895754,
				"y": 1.9343069945,
				"z": 3.1686466528,
				"element": "H" 
			},
			{
				"x": 3.4996393786,
				"y": 1.9398374205,
				"z": 3.2052700223,
				"element": "H" 
			},
			{
				"x": 2.9015897161,
				"y": 0.3624802937,
				"z": -0.6203862471,
				"element": "H" 
			},
			{
				"x": 2.5483571741,
				"y": 0.0008458596,
				"z": -3.8691704285,
				"element": "H" 
			},
			{
				"x": -1.1467800007,
				"y": -1.0517130907,
				"z": -2.4643587052,
				"element": "H" 
			},
			{
				"x": -4.4554026883,
				"y": 0.673660606,
				"z": -1.3314444943,
				"element": "H" 
			},
			{
				"x": -2.4354283818,
				"y": 2.1774443724,
				"z": -1.139611506,
				"element": "H" 
			},
			{
				"x": -2.2046053766,
				"y": 1.6224964722,
				"z": 0.5234717006,
				"element": "H" 
			},
			{
				"x": -3.69350413,
				"y": 2.4494160571,
				"z": 0.0706939836,
				"element": "H" 
			},
			{
				"x": -5.045760974,
				"y": 0.3859204057,
				"z": 1.0028838754,
				"element": "H" 
			},
			{
				"x": -4.8221221838,
				"y": -1.1895356629,
				"z": 0.2215759037,
				"element": "H" 
			},
			{
				"x": -3.5954143324,
				"y": -0.5571838663,
				"z": 1.3353620027,
				"element": "H" 
			},
			{
				"x": -1.6123896002,
				"y": -0.6107917962,
				"z": 1.1142556246,
				"element": "H" 
			}
		],
		 "valence_orbital": [ 
			{
				"type": "occ",
				"energy": -0.28511,
				"method": "rhf"
			},
			{
				"type": "occ",
				"energy": -0.27558,
				"method": "rhf"
			},
			{
				"type": "occ",
				"energy": -0.25484,
				"method": "rhf"
			},
			{
				"type": "occ",
				"energy": -0.24569,
				"method": "rhf"
			},
			{
				"type": "occ",
				"energy": -0.21888,
				"method": "rhf"
			},
			{
				"type": "unocc",
				"energy": -0.05465,
				"method": "rhf"
			},
			{
				"type": "unocc",
				"energy": -0.02007,
				"method": "rhf"
			},
			{
				"type": "unocc",
				"energy": 0.03024,
				"method": "rhf"
			},
			{
				"type": "unocc",
				"energy": 0.04712,
				"method": "rhf"
			},
			{
				"type": "unocc",
				"energy": 0.07206,
				"method": "rhf"
			}
		],
		"cosmo_sigma_profile": { 
			"-0.025": 0.0,
			"-0.024": 0.0,
			"-0.023": 0.0,
			"-0.022": 0.0,
			"-0.021": 0.0,
			"-0.02": 0.0,
			"-0.019": 0.138396617985,
			"-0.018": 0.622479885034,
			"-0.017": 1.2549583938,
			"-0.016": 0.701846901837,
			"-0.015": 0.646063449726,
			"-0.014": 0.583162583818,
			"-0.013": 0.760035801487,
			"-0.012": 0.206381793875,
			"-0.011": 1.12907080985,
			"-0.01": 1.09738141643,
			"-0.009": 0.252210087575,
			"-0.008": 0.70772136759,
			"-0.007": 2.52870179877,
			"-0.006": 7.23854866434,
			"-0.005": 14.4259514725,
			"-0.004": 25.4909542942,
			"-0.003": 40.516699588,
			"-0.002": 34.6527540439,
			"-0.001": 32.260857516,
			"0.0": 32.09718386,
			"0.001": 25.7123018416,
			"0.002": 16.1709950977,
			"0.003": 9.73887478064,
			"0.004": 7.15594520537,
			"0.005": 5.85810896934,
			"0.006": 6.79241934271,
			"0.007": 5.44892418626,
			"0.008": 5.3242067527,
			"0.009": 4.15094738569,
			"0.01": 5.45287153327,
			"0.011": 5.97565426487,
			"0.012": 3.15333777731,
			"0.013": 5.2979952798,
			"0.014": 2.24222418578,
			"0.015": 0.0407137092427,
			"0.016": 0.0,
			"0.017": 0.0,
			"0.018": 0.0,
			"0.019": 0.0,
			"0.02": 0.0,
			"0.021": 0.0,
			"0.022": 0.0,
			"0.023": 0.0,
			"0.024": 0.0,
			"0.025": 0.0
		}
	}
}
