{
	 "smiles": "OC1C(Cl)(Cl)CCCC1(Cl)Cl", 
	 "Tm": 328.15, 
	 "num_atms": 19, 
	 "gaussian": { 
		 "optdone": 1, 
		 "sigma_profile": "yes", 
		 "theory": "DFT", 
		 "functional": "B3LYP", 
		 "basiset": "6-31G**", 
		 "properties": { 
			 "R2extent": 3019.4481, 
			 "electric_dipole_moment_norm": 3.04482322311, 
			 "electric_quadrupole_moment_norm": 7.15211509695, 
			 "total_energy": -2149.44262426, 
			 "HOMO_LUMO_gap": 0.26066, 
			 "cosmo_polarized_energy": -8.95, 
			 "cosmo_cavitation_energy": 26.5, 
			 "cosmo_dispersion_energy": -19.92, 
			 "cosmo_repulsion_energy": 1.56, 
			 "cosmo_total_nonelectrostatic_energy": 8.14, 
			 "SMD_solvation_energy": 2.79 
		},
		"coords": [
			{
				"x": -1.9719904117,
				"y": -0.9508536715,
				"z": 1.9562894449,
				"element": "O" 
			},
			{
				"x": -1.3880364805,
				"y": -0.5642140402,
				"z": 0.7584540087,
				"element": "C" 
			},
			{
				"x": -0.0128555806,
				"y": -1.2659274456,
				"z": 0.4968669961,
				"element": "C" 
			},
			{
				"x": 0.978366334,
				"y": -1.2780126918,
				"z": 2.045881233,
				"element": "Cl" 
			},
			{
				"x": -0.338472257,
				"y": -2.9942449592,
				"z": 0.058683191,
				"element": "Cl" 
			},
			{
				"x": 0.7919133848,
				"y": -0.6003311778,
				"z": -0.6116138892,
				"element": "C" 
			},
			{
				"x": 1.1491471579,
				"y": 0.8699435672,
				"z": -0.2947756897,
				"element": "C" 
			},
			{
				"x": 0.152204607,
				"y": 1.5624391295,
				"z": 0.6588333775,
				"element": "C" 
			},
			{
				"x": -1.2679979465,
				"y": 1.0125123012,
				"z": 0.540990295,
				"element": "C" 
			},
			{
				"x": -1.8885554752,
				"y": 1.3809445005,
				"z": -1.1481664666,
				"element": "Cl" 
			},
			{
				"x": -2.3278958568,
				"y": 1.8824455086,
				"z": 1.7153287533,
				"element": "Cl" 
			},
			{
				"x": -1.3529130978,
				"y": -0.7860150801,
				"z": 2.6834182705,
				"element": "H" 
			},
			{
				"x": -2.057313869,
				"y": -0.9251886985,
				"z": -0.0239842366,
				"element": "H" 
			},
			{
				"x": 0.1703384087,
				"y": -0.6527992927,
				"z": -1.5113333242,
				"element": "H" 
			},
			{
				"x": 1.6901746398,
				"y": -1.1897899198,
				"z": -0.8075567368,
				"element": "H" 
			},
			{
				"x": 1.2000339857,
				"y": 1.4167243642,
				"z": -1.2398534264,
				"element": "H" 
			},
			{
				"x": 2.1425650452,
				"y": 0.9206337239,
				"z": 0.1588819892,
				"element": "H" 
			},
			{
				"x": 0.4593909211,
				"y": 1.4158134928,
				"z": 1.6980460025,
				"element": "H" 
			},
			{
				"x": 0.129996491,
				"y": 2.6398203892,
				"z": 0.4820102078,
				"element": "H" 
			}
		],
		 "valence_orbital": [ 
			{
				"type": "occ",
				"energy": -0.31757,
				"method": "rhf"
			},
			{
				"type": "occ",
				"energy": -0.31361,
				"method": "rhf"
			},
			{
				"type": "occ",
				"energy": -0.30988,
				"method": "rhf"
			},
			{
				"type": "occ",
				"energy": -0.30668,
				"method": "rhf"
			},
			{
				"type": "occ",
				"energy": -0.29527,
				"method": "rhf"
			},
			{
				"type": "unocc",
				"energy": -0.03461,
				"method": "rhf"
			},
			{
				"type": "unocc",
				"energy": -0.02135,
				"method": "rhf"
			},
			{
				"type": "unocc",
				"energy": 0.00203,
				"method": "rhf"
			},
			{
				"type": "unocc",
				"energy": 0.00571,
				"method": "rhf"
			},
			{
				"type": "unocc",
				"energy": 0.07472,
				"method": "rhf"
			}
		],
		"cosmo_sigma_profile": { 
			"-0.025": 0.0,
			"-0.024": 0.0,
			"-0.023": 0.0,
			"-0.022": 0.0,
			"-0.021": 0.0,
			"-0.02": 0.0,
			"-0.019": 0.0,
			"-0.018": 0.0,
			"-0.017": 0.0,
			"-0.016": 0.0,
			"-0.015": 0.124632403417,
			"-0.014": 0.468649739657,
			"-0.013": 0.807166070974,
			"-0.012": 1.27603494584,
			"-0.011": 0.792574360613,
			"-0.01": 0.974377367839,
			"-0.009": 1.19701366475,
			"-0.008": 2.00711897208,
			"-0.007": 3.16402352475,
			"-0.006": 7.30454351111,
			"-0.005": 14.0612069807,
			"-0.004": 17.2983317534,
			"-0.003": 17.4985503203,
			"-0.002": 17.0422233591,
			"-0.001": 14.5047555837,
			"0.0": 15.4795887349,
			"0.001": 14.9509568722,
			"0.002": 15.343292865,
			"0.003": 19.4742794615,
			"0.004": 24.6324838329,
			"0.005": 14.811795805,
			"0.006": 2.64385167267,
			"0.007": 2.7127315708,
			"0.008": 1.59201919574,
			"0.009": 1.43579861189,
			"0.01": 1.34212637207,
			"0.011": 2.01457779791,
			"0.012": 1.27111394819,
			"0.013": 0.0,
			"0.014": 0.0,
			"0.015": 0.0,
			"0.016": 0.0,
			"0.017": 0.0,
			"0.018": 0.0,
			"0.019": 0.0,
			"0.02": 0.0,
			"0.021": 0.0,
			"0.022": 0.0,
			"0.023": 0.0,
			"0.024": 0.0,
			"0.025": 0.0
		}
	}
}
