{
	 "smiles": "N#CC(N1CCCCC1)C1=CC=CC=C1", 
	 "Tm": 335.65, 
	 "num_atms": 31, 
	 "gaussian": { 
		 "optdone": 1, 
		 "sigma_profile": "yes", 
		 "theory": "DFT", 
		 "functional": "B3LYP", 
		 "basiset": "6-31G**", 
		 "properties": { 
			 "R2extent": 3416.2362, 
			 "electric_dipole_moment_norm": 4.33876919644, 
			 "electric_quadrupole_moment_norm": 12.349588879, 
			 "total_energy": -614.508521773, 
			 "HOMO_LUMO_gap": 0.20581, 
			 "cosmo_polarized_energy": -9.84, 
			 "cosmo_cavitation_energy": 32.56, 
			 "cosmo_dispersion_energy": -22.75, 
			 "cosmo_repulsion_energy": 1.79, 
			 "cosmo_total_nonelectrostatic_energy": 11.61, 
			 "SMD_solvation_energy": 3.94 
		},
		"coords": [
			{
				"x": -2.297940101,
				"y": 1.2172662763,
				"z": -2.2861283923,
				"element": "N" 
			},
			{
				"x": -1.7780940444,
				"y": 0.8972752999,
				"z": -1.2991292129,
				"element": "C" 
			},
			{
				"x": -1.1042622777,
				"y": 0.4933100324,
				"z": -0.0459516996,
				"element": "C" 
			},
			{
				"x": -1.2725774807,
				"y": -0.9582560903,
				"z": 0.1405768961,
				"element": "N" 
			},
			{
				"x": -0.5922785186,
				"y": -1.7938617279,
				"z": -0.8569133604,
				"element": "C" 
			},
			{
				"x": -1.0578149104,
				"y": -3.2487983446,
				"z": -0.7344215705,
				"element": "C" 
			},
			{
				"x": -0.8294620911,
				"y": -3.7798513489,
				"z": 0.6865088269,
				"element": "C" 
			},
			{
				"x": -1.4805725059,
				"y": -2.8423896892,
				"z": 1.7116528527,
				"element": "C" 
			},
			{
				"x": -1.0046967145,
				"y": -1.3989351066,
				"z": 1.5131809491,
				"element": "C" 
			},
			{
				"x": 0.3309944935,
				"y": 1.0340223025,
				"z": 0.0114142858,
				"element": "C" 
			},
			{
				"x": 1.1519103401,
				"y": 1.079915758,
				"z": -1.1230084574,
				"element": "C" 
			},
			{
				"x": 2.4725710739,
				"y": 1.518998471,
				"z": -1.0236224478,
				"element": "C" 
			},
			{
				"x": 2.9895105056,
				"y": 1.9196741021,
				"z": 0.2098645428,
				"element": "C" 
			},
			{
				"x": 2.1765566832,
				"y": 1.8856209606,
				"z": 1.3438651631,
				"element": "C" 
			},
			{
				"x": 0.8555763303,
				"y": 1.447278471,
				"z": 1.2429730306,
				"element": "C" 
			},
			{
				"x": -1.6680590453,
				"y": 0.9686873949,
				"z": 0.7674038435,
				"element": "H" 
			},
			{
				"x": 0.5069249393,
				"y": -1.7488009709,
				"z": -0.7463859732,
				"element": "H" 
			},
			{
				"x": -0.8357273833,
				"y": -1.4085595204,
				"z": -1.8525164878,
				"element": "H" 
			},
			{
				"x": -2.1251935268,
				"y": -3.2989229399,
				"z": -0.9814818039,
				"element": "H" 
			},
			{
				"x": -0.5227136787,
				"y": -3.8607636098,
				"z": -1.4697744573,
				"element": "H" 
			},
			{
				"x": -1.2253553463,
				"y": -4.7966703593,
				"z": 0.788331663,
				"element": "H" 
			},
			{
				"x": 0.2503882427,
				"y": -3.8399494838,
				"z": 0.8833393568,
				"element": "H" 
			},
			{
				"x": -2.5710804776,
				"y": -2.8717718668,
				"z": 1.5979622262,
				"element": "H" 
			},
			{
				"x": -1.2486335788,
				"y": -3.160900714,
				"z": 2.7347618897,
				"element": "H" 
			},
			{
				"x": -1.5408252541,
				"y": -0.7318448703,
				"z": 2.1992899061,
				"element": "H" 
			},
			{
				"x": 0.0698447553,
				"y": -1.3292112455,
				"z": 1.7672012468,
				"element": "H" 
			},
			{
				"x": 0.7509097174,
				"y": 0.792774622,
				"z": -2.0906404601,
				"element": "H" 
			},
			{
				"x": 3.0953431409,
				"y": 1.554816409,
				"z": -1.9127912919,
				"element": "H" 
			},
			{
				"x": 4.0164637235,
				"y": 2.265096418,
				"z": 0.2848952934,
				"element": "H" 
			},
			{
				"x": 2.5664487444,
				"y": 2.2074530705,
				"z": 2.3052458548,
				"element": "H" 
			},
			{
				"x": 0.2238442452,
				"y": 1.4357982997,
				"z": 2.1276977877,
				"element": "H" 
			}
		],
		 "valence_orbital": [ 
			{
				"type": "occ",
				"energy": -0.31788,
				"method": "rhf"
			},
			{
				"type": "occ",
				"energy": -0.31606,
				"method": "rhf"
			},
			{
				"type": "occ",
				"energy": -0.26023,
				"method": "rhf"
			},
			{
				"type": "occ",
				"energy": -0.25883,
				"method": "rhf"
			},
			{
				"type": "occ",
				"energy": -0.22517,
				"method": "rhf"
			},
			{
				"type": "unocc",
				"energy": -0.01936,
				"method": "rhf"
			},
			{
				"type": "unocc",
				"energy": -0.01285,
				"method": "rhf"
			},
			{
				"type": "unocc",
				"energy": 0.03023,
				"method": "rhf"
			},
			{
				"type": "unocc",
				"energy": 0.04566,
				"method": "rhf"
			},
			{
				"type": "unocc",
				"energy": 0.08358,
				"method": "rhf"
			}
		],
		"cosmo_sigma_profile": { 
			"-0.025": 0.0,
			"-0.024": 0.0,
			"-0.023": 0.0,
			"-0.022": 0.0,
			"-0.021": 0.0,
			"-0.02": 0.0,
			"-0.019": 0.0,
			"-0.018": 0.0,
			"-0.017": 0.0,
			"-0.016": 0.0,
			"-0.015": 0.0,
			"-0.014": 0.0,
			"-0.013": 0.0,
			"-0.012": 0.0,
			"-0.011": 0.0,
			"-0.01": 0.0,
			"-0.009": 1.48457927861,
			"-0.008": 4.18426712213,
			"-0.007": 2.86846815281,
			"-0.006": 9.19792635664,
			"-0.005": 13.7299226452,
			"-0.004": 16.4184389315,
			"-0.003": 19.465332792,
			"-0.002": 32.4021070111,
			"-0.001": 37.7043866625,
			"0.0": 28.5050463742,
			"0.001": 18.9426065884,
			"0.002": 11.3869383564,
			"0.003": 10.4737249388,
			"0.004": 10.8674423822,
			"0.005": 11.8874000057,
			"0.006": 5.11773365198,
			"0.007": 2.69446791631,
			"0.008": 4.17855572566,
			"0.009": 3.33935655705,
			"0.01": 4.02647582165,
			"0.011": 2.93966961973,
			"0.012": 2.86909543581,
			"0.013": 1.55936264608,
			"0.014": 0.0518435175977,
			"0.015": 0.0,
			"0.016": 0.0,
			"0.017": 0.0,
			"0.018": 0.0,
			"0.019": 0.0,
			"0.02": 0.0,
			"0.021": 0.0,
			"0.022": 0.0,
			"0.023": 0.0,
			"0.024": 0.0,
			"0.025": 0.0
		}
	}
}
