{
	 "smiles": "NC1=NC2=C(S1)C=C(F)C=C2", 
	 "Tm": 457.15, 
	 "num_atms": 16, 
	 "gaussian": { 
		 "optdone": 1, 
		 "sigma_profile": "yes", 
		 "theory": "DFT", 
		 "functional": "B3LYP", 
		 "basiset": "6-31G**", 
		 "properties": { 
			 "R2extent": 2802.7944, 
			 "electric_dipole_moment_norm": 3.01082584186, 
			 "electric_quadrupole_moment_norm": 11.0606278172, 
			 "total_energy": -877.293256153, 
			 "HOMO_LUMO_gap": 0.19696, 
			 "cosmo_polarized_energy": -10.48, 
			 "cosmo_cavitation_energy": 22.55, 
			 "cosmo_dispersion_energy": -17.52, 
			 "cosmo_repulsion_energy": 1.33, 
			 "cosmo_total_nonelectrostatic_energy": 6.37, 
			 "SMD_solvation_energy": 2.17 
		},
		"coords": [
			{
				"x": 2.0933365443,
				"y": 1.7176702695,
				"z": 2.1204548711,
				"element": "N" 
			},
			{
				"x": 0.8735174857,
				"y": 1.3797057573,
				"z": 1.5935319348,
				"element": "C" 
			},
			{
				"x": 0.4762293986,
				"y": 0.1652858528,
				"z": 1.3922820963,
				"element": "N" 
			},
			{
				"x": -0.7690740947,
				"y": 0.1491997712,
				"z": 0.7793412604,
				"element": "C" 
			},
			{
				"x": -1.3438022837,
				"y": 1.4180347079,
				"z": 0.5164325551,
				"element": "C" 
			},
			{
				"x": -0.2381094633,
				"y": 2.6785206723,
				"z": 1.0520720591,
				"element": "S" 
			},
			{
				"x": -2.595727235,
				"y": 1.5551902872,
				"z": -0.0799075936,
				"element": "C" 
			},
			{
				"x": -3.263087072,
				"y": 0.382495276,
				"z": -0.4133885714,
				"element": "C" 
			},
			{
				"x": -4.4793190165,
				"y": 0.4775571901,
				"z": -0.9954565572,
				"element": "F" 
			},
			{
				"x": -2.7317446313,
				"y": -0.8859252122,
				"z": -0.1737019346,
				"element": "C" 
			},
			{
				"x": -1.4804299199,
				"y": -1.0041826873,
				"z": 0.4252270871,
				"element": "C" 
			},
			{
				"x": 2.161099978,
				"y": 2.5919538496,
				"z": 2.6204627707,
				"element": "H" 
			},
			{
				"x": 2.5742765666,
				"y": 0.9425262386,
				"z": 2.5572831754,
				"element": "H" 
			},
			{
				"x": -3.0497459322,
				"y": 2.5173186748,
				"z": -0.2871797582,
				"element": "H" 
			},
			{
				"x": -3.3065130127,
				"y": -1.7597756498,
				"z": -0.459837193,
				"element": "H" 
			},
			{
				"x": -1.044907312,
				"y": -1.9775749979,
				"z": 0.623483798,
				"element": "H" 
			}
		],
		 "valence_orbital": [ 
			{
				"type": "occ",
				"energy": -0.30376,
				"method": "rhf"
			},
			{
				"type": "occ",
				"energy": -0.293,
				"method": "rhf"
			},
			{
				"type": "occ",
				"energy": -0.27921,
				"method": "rhf"
			},
			{
				"type": "occ",
				"energy": -0.23801,
				"method": "rhf"
			},
			{
				"type": "occ",
				"energy": -0.21151,
				"method": "rhf"
			},
			{
				"type": "unocc",
				"energy": -0.01455,
				"method": "rhf"
			},
			{
				"type": "unocc",
				"energy": -0.00865,
				"method": "rhf"
			},
			{
				"type": "unocc",
				"energy": -0.00205,
				"method": "rhf"
			},
			{
				"type": "unocc",
				"energy": 0.04715,
				"method": "rhf"
			},
			{
				"type": "unocc",
				"energy": 0.06404,
				"method": "rhf"
			}
		],
		"cosmo_sigma_profile": { 
			"-0.025": 0.0,
			"-0.024": 0.0,
			"-0.023": 0.0,
			"-0.022": 0.0,
			"-0.021": 0.0,
			"-0.02": 0.0,
			"-0.019": 0.0,
			"-0.018": 0.0,
			"-0.017": 0.0,
			"-0.016": 0.0160197709029,
			"-0.015": 0.85262492203,
			"-0.014": 2.73075677475,
			"-0.013": 2.77791024074,
			"-0.012": 2.78134816611,
			"-0.011": 2.606438203,
			"-0.01": 1.96213449293,
			"-0.009": 1.72484140836,
			"-0.008": 3.90510101635,
			"-0.007": 5.63992463105,
			"-0.006": 7.06273863628,
			"-0.005": 6.48944596885,
			"-0.004": 7.64742521852,
			"-0.003": 5.93496800363,
			"-0.002": 8.08315374436,
			"-0.001": 6.47962819274,
			"0.0": 11.6497770207,
			"0.001": 17.1392569059,
			"0.002": 19.5265230514,
			"0.003": 23.2727216558,
			"0.004": 20.3237914774,
			"0.005": 10.0205998571,
			"0.006": 3.00308268987,
			"0.007": 2.47057828101,
			"0.008": 1.42427343228,
			"0.009": 2.1967696006,
			"0.01": 1.55675215743,
			"0.011": 1.08586208947,
			"0.012": 0.891918615632,
			"0.013": 0.718842072418,
			"0.014": 1.09755654244,
			"0.015": 0.608109572352,
			"0.016": 0.0209514375806,
			"0.017": 0.0,
			"0.018": 0.0,
			"0.019": 0.0,
			"0.02": 0.0,
			"0.021": 0.0,
			"0.022": 0.0,
			"0.023": 0.0,
			"0.024": 0.0,
			"0.025": 0.0
		}
	}
}
