{
	 "smiles": "CC(=O)OC1=C(C=CC=C1)C1NC(=O)NC(C)=C1C(=O)OCC1=CC=CC=C1", 
	 "Tm": 475.15, 
	 "num_atms": 48, 
	 "gaussian": { 
		 "optdone": 1, 
		 "sigma_profile": "yes", 
		 "theory": "DFT", 
		 "functional": "B3LYP", 
		 "basiset": "6-31G**", 
		 "properties": { 
			 "R2extent": 10254.1467, 
			 "electric_dipole_moment_norm": 2.39566103612, 
			 "electric_quadrupole_moment_norm": 21.7199104153, 
			 "total_energy": -1297.95942186, 
			 "HOMO_LUMO_gap": 0.1837, 
			 "cosmo_polarized_energy": -21.91, 
			 "cosmo_cavitation_energy": 51.25, 
			 "cosmo_dispersion_energy": -33.32, 
			 "cosmo_repulsion_energy": 2.52, 
			 "cosmo_total_nonelectrostatic_energy": 20.45, 
			 "SMD_solvation_energy": 10.19 
		},
		"coords": [
			{
				"x": 0.1734917544,
				"y": 1.2183988335,
				"z": 4.628120208,
				"element": "C" 
			},
			{
				"x": -0.7006469702,
				"y": 1.3936768886,
				"z": 3.4161040887,
				"element": "C" 
			},
			{
				"x": -1.7720575073,
				"y": 0.8734168253,
				"z": 3.2272904377,
				"element": "O" 
			},
			{
				"x": -0.0913599775,
				"y": 2.243331297,
				"z": 2.5209373807,
				"element": "O" 
			},
			{
				"x": -0.6442167583,
				"y": 2.4055037663,
				"z": 1.250044375,
				"element": "C" 
			},
			{
				"x": 0.1491445954,
				"y": 2.0789088286,
				"z": 0.1424223833,
				"element": "C" 
			},
			{
				"x": -0.3880919335,
				"y": 2.3128809298,
				"z": -1.1319801236,
				"element": "C" 
			},
			{
				"x": -1.663709394,
				"y": 2.8458542603,
				"z": -1.2953597859,
				"element": "C" 
			},
			{
				"x": -2.4330796442,
				"y": 3.1634981956,
				"z": -0.1732227674,
				"element": "C" 
			},
			{
				"x": -1.923292647,
				"y": 2.9449789891,
				"z": 1.103353652,
				"element": "C" 
			},
			{
				"x": 1.5622644478,
				"y": 1.5034717051,
				"z": 0.3067232514,
				"element": "C" 
			},
			{
				"x": 2.5679984126,
				"y": 2.3093505808,
				"z": -0.396436241,
				"element": "N" 
			},
			{
				"x": 3.0141513924,
				"y": 2.078489023,
				"z": -1.6628625807,
				"element": "C" 
			},
			{
				"x": 3.6538497884,
				"y": 2.86771943,
				"z": -2.3418657069,
				"element": "O" 
			},
			{
				"x": 2.7138841133,
				"y": 0.7925105546,
				"z": -2.1418280929,
				"element": "N" 
			},
			{
				"x": 2.1899605015,
				"y": -0.2380558275,
				"z": -1.3804022548,
				"element": "C" 
			},
			{
				"x": 2.288920145,
				"y": -1.5966010536,
				"z": -2.0289173553,
				"element": "C" 
			},
			{
				"x": 1.6577690613,
				"y": 0.0540606129,
				"z": -0.1594833264,
				"element": "C" 
			},
			{
				"x": 1.1501952875,
				"y": -0.9203856073,
				"z": 0.811489252,
				"element": "C" 
			},
			{
				"x": 0.8514160552,
				"y": -0.6154633675,
				"z": 1.9599415035,
				"element": "O" 
			},
			{
				"x": 1.0410737925,
				"y": -2.1868872059,
				"z": 0.3413199718,
				"element": "O" 
			},
			{
				"x": 0.492410008,
				"y": -3.1804501497,
				"z": 1.2562930299,
				"element": "C" 
			},
			{
				"x": -0.9932575848,
				"y": -3.3562208824,
				"z": 1.060673805,
				"element": "C" 
			},
			{
				"x": -1.4800913112,
				"y": -4.431521724,
				"z": 0.3072555311,
				"element": "C" 
			},
			{
				"x": -2.8517487456,
				"y": -4.6027177872,
				"z": 0.1138509541,
				"element": "C" 
			},
			{
				"x": -3.7511530832,
				"y": -3.6924256834,
				"z": 0.6711033772,
				"element": "C" 
			},
			{
				"x": -3.2738717727,
				"y": -2.6154318065,
				"z": 1.4223470987,
				"element": "C" 
			},
			{
				"x": -1.9036204218,
				"y": -2.4467352458,
				"z": 1.620589834,
				"element": "C" 
			},
			{
				"x": -0.4184376807,
				"y": 0.8150796362,
				"z": 5.4496954976,
				"element": "H" 
			},
			{
				"x": 0.6427258747,
				"y": 2.1617030592,
				"z": 4.91626351,
				"element": "H" 
			},
			{
				"x": 0.9629636341,
				"y": 0.5073950189,
				"z": 4.365920983,
				"element": "H" 
			},
			{
				"x": 0.2057608124,
				"y": 2.072891578,
				"z": -2.0087835909,
				"element": "H" 
			},
			{
				"x": -2.0556540959,
				"y": 3.0161330267,
				"z": -2.2935447318,
				"element": "H" 
			},
			{
				"x": -3.4282181509,
				"y": 3.5818793189,
				"z": -0.290512599,
				"element": "H" 
			},
			{
				"x": -2.5038417033,
				"y": 3.1833790164,
				"z": 1.9863512201,
				"element": "H" 
			},
			{
				"x": 1.8045287032,
				"y": 1.5272745255,
				"z": 1.3694445111,
				"element": "H" 
			},
			{
				"x": 2.7115310447,
				"y": 3.2598792607,
				"z": -0.0850633316,
				"element": "H" 
			},
			{
				"x": 3.1455342473,
				"y": 0.5891874857,
				"z": -3.03149822,
				"element": "H" 
			},
			{
				"x": 1.3003963477,
				"y": -2.0421152106,
				"z": -2.1522684778,
				"element": "H" 
			},
			{
				"x": 2.7695340813,
				"y": -1.5203827751,
				"z": -3.008360949,
				"element": "H" 
			},
			{
				"x": 2.8686995015,
				"y": -2.2834957696,
				"z": -1.4088836998,
				"element": "H" 
			},
			{
				"x": 1.0291780161,
				"y": -4.0996730565,
				"z": 1.0116675578,
				"element": "H" 
			},
			{
				"x": 0.73045842,
				"y": -2.8742311367,
				"z": 2.275770343,
				"element": "H" 
			},
			{
				"x": -0.7802205902,
				"y": -5.1418644573,
				"z": -0.1272184978,
				"element": "H" 
			},
			{
				"x": -3.2160285068,
				"y": -5.4439807885,
				"z": -0.4691672885,
				"element": "H" 
			},
			{
				"x": -4.8195297164,
				"y": -3.82270921,
				"z": 0.5225727486,
				"element": "H" 
			},
			{
				"x": -3.9675909764,
				"y": -1.9032680264,
				"z": 1.8595039064,
				"element": "H" 
			},
			{
				"x": -1.5417208665,
				"y": -1.6047358752,
				"z": 2.2023092095,
				"element": "H" 
			}
		],
		 "valence_orbital": [ 
			{
				"type": "occ",
				"energy": -0.24647,
				"method": "rhf"
			},
			{
				"type": "occ",
				"energy": -0.246,
				"method": "rhf"
			},
			{
				"type": "occ",
				"energy": -0.24416,
				"method": "rhf"
			},
			{
				"type": "occ",
				"energy": -0.24062,
				"method": "rhf"
			},
			{
				"type": "occ",
				"energy": -0.22675,
				"method": "rhf"
			},
			{
				"type": "unocc",
				"energy": -0.04305,
				"method": "rhf"
			},
			{
				"type": "unocc",
				"energy": -0.00954,
				"method": "rhf"
			},
			{
				"type": "unocc",
				"energy": -0.00551,
				"method": "rhf"
			},
			{
				"type": "unocc",
				"energy": -0.00389,
				"method": "rhf"
			},
			{
				"type": "unocc",
				"energy": 0.00276,
				"method": "rhf"
			}
		],
		"cosmo_sigma_profile": { 
			"-0.025": 0.0,
			"-0.024": 0.0,
			"-0.023": 0.0,
			"-0.022": 0.0,
			"-0.021": 0.0,
			"-0.02": 0.0,
			"-0.019": 0.0,
			"-0.018": 0.0,
			"-0.017": 0.0,
			"-0.016": 0.104327882056,
			"-0.015": 1.51982379272,
			"-0.014": 1.76819748897,
			"-0.013": 2.73273280615,
			"-0.012": 1.97415272449,
			"-0.011": 2.12282831466,
			"-0.01": 1.87176834628,
			"-0.009": 1.92187308151,
			"-0.008": 1.92008515393,
			"-0.007": 4.92130877518,
			"-0.006": 20.5349434718,
			"-0.005": 28.4338704848,
			"-0.004": 35.2194612651,
			"-0.003": 34.6295547254,
			"-0.002": 34.9803561893,
			"-0.001": 30.9971295861,
			"0.0": 25.1147955677,
			"0.001": 24.873572993,
			"0.002": 27.2212764526,
			"0.003": 26.2587411478,
			"0.004": 25.7555331583,
			"0.005": 25.1194980187,
			"0.006": 13.7737427001,
			"0.007": 5.45612065961,
			"0.008": 4.68542087764,
			"0.009": 3.45188850624,
			"0.01": 3.38874786442,
			"0.011": 4.36880169725,
			"0.012": 3.4917515231,
			"0.013": 5.94137215173,
			"0.014": 3.58728513185,
			"0.015": 0.0544566445181,
			"0.016": 0.0,
			"0.017": 0.0,
			"0.018": 0.0,
			"0.019": 0.0,
			"0.02": 0.0,
			"0.021": 0.0,
			"0.022": 0.0,
			"0.023": 0.0,
			"0.024": 0.0,
			"0.025": 0.0
		}
	}
}
