{
	 "smiles": "CC12CCC3C(CCC4CC=CCC34C)C1CCC2=O", 
	 "Tm": 377.15, 
	 "num_atms": 48, 
	 "gaussian": { 
		 "optdone": 1, 
		 "sigma_profile": "yes", 
		 "theory": "DFT", 
		 "functional": "B3LYP", 
		 "basiset": "6-31G**", 
		 "properties": { 
			 "R2extent": 5714.9191, 
			 "electric_dipole_moment_norm": 3.0078961119, 
			 "electric_quadrupole_moment_norm": 19.2926119333, 
			 "total_energy": -816.107921554, 
			 "HOMO_LUMO_gap": 0.21863, 
			 "cosmo_polarized_energy": -7.94, 
			 "cosmo_cavitation_energy": 40.63, 
			 "cosmo_dispersion_energy": -29.19, 
			 "cosmo_repulsion_energy": 2.17, 
			 "cosmo_total_nonelectrostatic_energy": 13.6, 
			 "SMD_solvation_energy": 6.08 
		},
		"coords": [
			{
				"x": -2.1619492216,
				"y": -1.8860407975,
				"z": 1.8198736226,
				"element": "C" 
			},
			{
				"x": -1.3425164038,
				"y": -2.0679919911,
				"z": 0.513445108,
				"element": "C" 
			},
			{
				"x": 0.1749546595,
				"y": -1.9658873341,
				"z": 0.7949234719,
				"element": "C" 
			},
			{
				"x": 0.7564400355,
				"y": -0.6199969692,
				"z": 0.2999003647,
				"element": "C" 
			},
			{
				"x": -0.2038265384,
				"y": 0.565834274,
				"z": 0.5621088524,
				"element": "C" 
			},
			{
				"x": -1.5588718498,
				"y": 0.3961177592,
				"z": -0.2362696688,
				"element": "C" 
			},
			{
				"x": -1.655219566,
				"y": 1.3052514741,
				"z": -1.4935949161,
				"element": "C" 
			},
			{
				"x": -0.2872900913,
				"y": 1.612585104,
				"z": -2.1096752891,
				"element": "C" 
			},
			{
				"x": 0.7592913728,
				"y": 2.2462835363,
				"z": -1.146041462,
				"element": "C" 
			},
			{
				"x": 2.169524353,
				"y": 1.8204932929,
				"z": -1.6317199266,
				"element": "C" 
			},
			{
				"x": 3.2739525674,
				"y": 1.964055112,
				"z": -0.6289037598,
				"element": "C" 
			},
			{
				"x": 3.0496664247,
				"y": 2.0768238855,
				"z": 0.6795200386,
				"element": "C" 
			},
			{
				"x": 1.6850302109,
				"y": 2.150024804,
				"z": 1.3000239429,
				"element": "C" 
			},
			{
				"x": 0.4366121768,
				"y": 1.9767418062,
				"z": 0.368322281,
				"element": "C" 
			},
			{
				"x": -0.5700169484,
				"y": 3.0421189348,
				"z": 0.8837888422,
				"element": "C" 
			},
			{
				"x": -1.7497057945,
				"y": -1.0840058081,
				"z": -0.6104356385,
				"element": "C" 
			},
			{
				"x": -3.1387138804,
				"y": -1.5783477024,
				"z": -1.0683992077,
				"element": "C" 
			},
			{
				"x": -2.9919926027,
				"y": -3.1165104979,
				"z": -1.0343599519,
				"element": "C" 
			},
			{
				"x": -1.8203157632,
				"y": -3.4017098571,
				"z": -0.0763855377,
				"element": "C" 
			},
			{
				"x": -1.3543326112,
				"y": -4.4967399192,
				"z": 0.1552273871,
				"element": "O" 
			},
			{
				"x": -3.2424519483,
				"y": -1.9559763277,
				"z": 1.6593577067,
				"element": "H" 
			},
			{
				"x": -1.9572299512,
				"y": -0.9194659476,
				"z": 2.2878459457,
				"element": "H" 
			},
			{
				"x": -1.8815618358,
				"y": -2.6705295516,
				"z": 2.5296891877,
				"element": "H" 
			},
			{
				"x": 0.3554479983,
				"y": -2.0679462348,
				"z": 1.8711456696,
				"element": "H" 
			},
			{
				"x": 0.7008377792,
				"y": -2.8024543668,
				"z": 0.3213850215,
				"element": "H" 
			},
			{
				"x": 1.7186742605,
				"y": -0.4440735663,
				"z": 0.7896724483,
				"element": "H" 
			},
			{
				"x": 0.9800710127,
				"y": -0.6909895951,
				"z": -0.7696772502,
				"element": "H" 
			},
			{
				"x": -0.4578685498,
				"y": 0.5118615743,
				"z": 1.6301036676,
				"element": "H" 
			},
			{
				"x": -2.3780205351,
				"y": 0.6765033472,
				"z": 0.4380238476,
				"element": "H" 
			},
			{
				"x": -2.1761127883,
				"y": 2.237934548,
				"z": -1.2571894272,
				"element": "H" 
			},
			{
				"x": -2.278702327,
				"y": 0.8134151643,
				"z": -2.2497355274,
				"element": "H" 
			},
			{
				"x": -0.4119361248,
				"y": 2.2570505805,
				"z": -2.9881574224,
				"element": "H" 
			},
			{
				"x": 0.1225748544,
				"y": 0.670982984,
				"z": -2.4975904073,
				"element": "H" 
			},
			{
				"x": 0.7152630777,
				"y": 3.3367121095,
				"z": -1.2650620069,
				"element": "H" 
			},
			{
				"x": 2.4085237796,
				"y": 2.3956909103,
				"z": -2.5371860776,
				"element": "H" 
			},
			{
				"x": 2.1492840945,
				"y": 0.7729558413,
				"z": -1.9669526203,
				"element": "H" 
			},
			{
				"x": 4.29548339,
				"y": 1.9323557593,
				"z": -1.0042178729,
				"element": "H" 
			},
			{
				"x": 3.8909319208,
				"y": 2.1573912251,
				"z": 1.3670416372,
				"element": "H" 
			},
			{
				"x": 1.6191971755,
				"y": 1.4186980935,
				"z": 2.1187665685,
				"element": "H" 
			},
			{
				"x": 1.6176889134,
				"y": 3.1236285906,
				"z": 1.8065642722,
				"element": "H" 
			},
			{
				"x": -1.5377990045,
				"y": 3.0233139668,
				"z": 0.3830004013,
				"element": "H" 
			},
			{
				"x": -0.153946819,
				"y": 4.0473715081,
				"z": 0.7546411681,
				"element": "H" 
			},
			{
				"x": -0.7530345141,
				"y": 2.8973004889,
				"z": 1.9552557054,
				"element": "H" 
			},
			{
				"x": -1.0672121408,
				"y": -1.2958212133,
				"z": -1.4495442402,
				"element": "H" 
			},
			{
				"x": -3.4142969051,
				"y": -1.2093913282,
				"z": -2.0603782026,
				"element": "H" 
			},
			{
				"x": -3.9178179219,
				"y": -1.2418664022,
				"z": -0.3749315971,
				"element": "H" 
			},
			{
				"x": -2.723071192,
				"y": -3.5260474579,
				"z": -2.0153256963,
				"element": "H" 
			},
			{
				"x": -3.889836228,
				"y": -3.6530038068,
				"z": -0.7110934522,
				"element": "H" 
			}
		],
		 "valence_orbital": [ 
			{
				"type": "occ",
				"energy": -0.286,
				"method": "rhf"
			},
			{
				"type": "occ",
				"energy": -0.27745,
				"method": "rhf"
			},
			{
				"type": "occ",
				"energy": -0.27693,
				"method": "rhf"
			},
			{
				"type": "occ",
				"energy": -0.23416,
				"method": "rhf"
			},
			{
				"type": "occ",
				"energy": -0.22843,
				"method": "rhf"
			},
			{
				"type": "unocc",
				"energy": -0.0098,
				"method": "rhf"
			},
			{
				"type": "unocc",
				"energy": 0.03249,
				"method": "rhf"
			},
			{
				"type": "unocc",
				"energy": 0.06622,
				"method": "rhf"
			},
			{
				"type": "unocc",
				"energy": 0.07572,
				"method": "rhf"
			},
			{
				"type": "unocc",
				"energy": 0.08725,
				"method": "rhf"
			}
		],
		"cosmo_sigma_profile": { 
			"-0.025": 0.0,
			"-0.024": 0.0,
			"-0.023": 0.0,
			"-0.022": 0.0,
			"-0.021": 0.0,
			"-0.02": 0.0,
			"-0.019": 0.0,
			"-0.018": 0.0,
			"-0.017": 0.0,
			"-0.016": 0.0,
			"-0.015": 0.0,
			"-0.014": 0.0,
			"-0.013": 0.0,
			"-0.012": 0.0,
			"-0.011": 0.0,
			"-0.01": 0.0,
			"-0.009": 0.0,
			"-0.008": 0.0,
			"-0.007": 0.0,
			"-0.006": 0.449611590451,
			"-0.005": 5.29839957441,
			"-0.004": 16.2737284471,
			"-0.003": 32.8554668329,
			"-0.002": 53.8172584924,
			"-0.001": 62.9626356341,
			"0.0": 50.1300275207,
			"0.001": 35.0904429353,
			"0.002": 14.38010287,
			"0.003": 6.37182344539,
			"0.004": 5.13628476807,
			"0.005": 3.99428113916,
			"0.006": 4.98290272003,
			"0.007": 3.45064927936,
			"0.008": 2.20296857516,
			"0.009": 1.57327366617,
			"0.01": 1.84768237356,
			"0.011": 3.07137559183,
			"0.012": 4.47255783116,
			"0.013": 3.24441813739,
			"0.014": 0.509100231476,
			"0.015": 0.0,
			"0.016": 0.0,
			"0.017": 0.0,
			"0.018": 0.0,
			"0.019": 0.0,
			"0.02": 0.0,
			"0.021": 0.0,
			"0.022": 0.0,
			"0.023": 0.0,
			"0.024": 0.0,
			"0.025": 0.0
		}
	}
}
