{
	 "smiles": "O=C(NC(=S)C1=CC=CN1)NC1=CC=CC=C1", 
	 "Tm": 479.15, 
	 "num_atms": 28, 
	 "gaussian": { 
		 "optdone": 1, 
		 "sigma_profile": "yes", 
		 "theory": "DFT", 
		 "functional": "B3LYP", 
		 "basiset": "6-31G**", 
		 "properties": { 
			 "R2extent": 4928.5156, 
			 "electric_dipole_moment_norm": 4.82469963728, 
			 "electric_quadrupole_moment_norm": 13.1866911179, 
			 "total_energy": -1101.5839128, 
			 "HOMO_LUMO_gap": 0.14044, 
			 "cosmo_polarized_energy": -17.76, 
			 "cosmo_cavitation_energy": 33.97, 
			 "cosmo_dispersion_energy": -23.33, 
			 "cosmo_repulsion_energy": 1.79, 
			 "cosmo_total_nonelectrostatic_energy": 12.43, 
			 "SMD_solvation_energy": 5.88 
		},
		"coords": [
			{
				"x": -0.5658760694,
				"y": -3.8866743809,
				"z": -2.1759844738,
				"element": "O" 
			},
			{
				"x": -0.7362940217,
				"y": -2.7573326398,
				"z": -1.7458393425,
				"element": "C" 
			},
			{
				"x": -1.9921092563,
				"y": -2.1254660612,
				"z": -1.9043475981,
				"element": "N" 
			},
			{
				"x": -2.7144927776,
				"y": -1.2320729107,
				"z": -1.1350342761,
				"element": "C" 
			},
			{
				"x": -3.9052211182,
				"y": -0.307407617,
				"z": -1.8731518672,
				"element": "S" 
			},
			{
				"x": -2.4688360199,
				"y": -1.1796259409,
				"z": 0.2844868575,
				"element": "C" 
			},
			{
				"x": -1.8707401825,
				"y": -2.0719924688,
				"z": 1.1848219385,
				"element": "C" 
			},
			{
				"x": -2.0354767986,
				"y": -1.5476816942,
				"z": 2.4798141682,
				"element": "C" 
			},
			{
				"x": -2.7292709903,
				"y": -0.3476098863,
				"z": 2.3526081741,
				"element": "C" 
			},
			{
				"x": -2.9832013044,
				"y": -0.1432171823,
				"z": 1.0377587549,
				"element": "N" 
			},
			{
				"x": 0.273668258,
				"y": -2.0492398559,
				"z": -1.1353235641,
				"element": "N" 
			},
			{
				"x": 0.4929691724,
				"y": -0.6522239403,
				"z": -1.0030507116,
				"element": "C" 
			},
			{
				"x": 1.2892259699,
				"y": -0.2145284797,
				"z": 0.0638090927,
				"element": "C" 
			},
			{
				"x": 1.5921337144,
				"y": 1.1381492925,
				"z": 0.2041868213,
				"element": "C" 
			},
			{
				"x": 1.0889254621,
				"y": 2.0707799627,
				"z": -0.7049340019,
				"element": "C" 
			},
			{
				"x": 0.2923362043,
				"y": 1.6336224871,
				"z": -1.7641699717,
				"element": "C" 
			},
			{
				"x": 0.0029388234,
				"y": 0.2788933166,
				"z": -1.9281008608,
				"element": "C" 
			},
			{
				"x": -2.4636259815,
				"y": -2.4248937779,
				"z": -2.7492893024,
				"element": "H" 
			},
			{
				"x": -1.3997331519,
				"y": -3.0079863784,
				"z": 0.9256278609,
				"element": "H" 
			},
			{
				"x": -1.6980405669,
				"y": -1.9879509957,
				"z": 3.4071491042,
				"element": "H" 
			},
			{
				"x": -3.0495513719,
				"y": 0.3600540698,
				"z": 3.1032670644,
				"element": "H" 
			},
			{
				"x": -3.5221279352,
				"y": 0.6022654348,
				"z": 0.6159111859,
				"element": "H" 
			},
			{
				"x": 1.0732098194,
				"y": -2.6442233641,
				"z": -0.9615673424,
				"element": "H" 
			},
			{
				"x": 1.6602328938,
				"y": -0.9383834656,
				"z": 0.7839024658,
				"element": "H" 
			},
			{
				"x": 2.2144755155,
				"y": 1.4629060262,
				"z": 1.0329569105,
				"element": "H" 
			},
			{
				"x": 1.3179538087,
				"y": 3.1258705628,
				"z": -0.5909988887,
				"element": "H" 
			},
			{
				"x": -0.098135125,
				"y": 2.3471687537,
				"z": -2.4836368323,
				"element": "H" 
			},
			{
				"x": -0.5962369707,
				"y": -0.0488988666,
				"z": -2.7693713651,
				"element": "H" 
			}
		],
		 "valence_orbital": [ 
			{
				"type": "occ",
				"energy": -0.25949,
				"method": "rhf"
			},
			{
				"type": "occ",
				"energy": -0.25493,
				"method": "rhf"
			},
			{
				"type": "occ",
				"energy": -0.23354,
				"method": "rhf"
			},
			{
				"type": "occ",
				"energy": -0.22693,
				"method": "rhf"
			},
			{
				"type": "occ",
				"energy": -0.2162,
				"method": "rhf"
			},
			{
				"type": "unocc",
				"energy": -0.07576,
				"method": "rhf"
			},
			{
				"type": "unocc",
				"energy": -0.01758,
				"method": "rhf"
			},
			{
				"type": "unocc",
				"energy": -0.01089,
				"method": "rhf"
			},
			{
				"type": "unocc",
				"energy": 0.03354,
				"method": "rhf"
			},
			{
				"type": "unocc",
				"energy": 0.04658,
				"method": "rhf"
			}
		],
		"cosmo_sigma_profile": { 
			"-0.025": 0.0,
			"-0.024": 0.0,
			"-0.023": 0.0,
			"-0.022": 0.0,
			"-0.021": 0.0,
			"-0.02": 0.0,
			"-0.019": 0.0,
			"-0.018": 0.0,
			"-0.017": 0.0,
			"-0.016": 0.0202047238375,
			"-0.015": 1.28760945498,
			"-0.014": 2.85126406765,
			"-0.013": 2.83993407856,
			"-0.012": 1.70357667419,
			"-0.011": 2.94677848984,
			"-0.01": 3.47304672639,
			"-0.009": 4.69562429357,
			"-0.008": 4.90129246767,
			"-0.007": 7.48672772092,
			"-0.006": 16.2931915733,
			"-0.005": 18.126554423,
			"-0.004": 18.1999002254,
			"-0.003": 15.3360882081,
			"-0.002": 14.514087051,
			"-0.001": 13.7384193996,
			"0.0": 12.9977180395,
			"0.001": 13.5551119298,
			"0.002": 16.3386956542,
			"0.003": 19.1469881899,
			"0.004": 20.8144595644,
			"0.005": 20.7174226734,
			"0.006": 8.858976877,
			"0.007": 6.85196723849,
			"0.008": 5.99990358585,
			"0.009": 4.02575776389,
			"0.01": 4.34117715418,
			"0.011": 3.63747585402,
			"0.012": 5.10748045247,
			"0.013": 3.57562297614,
			"0.014": 0.0472381688405,
			"0.015": 0.0,
			"0.016": 0.0,
			"0.017": 0.0,
			"0.018": 0.0,
			"0.019": 0.0,
			"0.02": 0.0,
			"0.021": 0.0,
			"0.022": 0.0,
			"0.023": 0.0,
			"0.024": 0.0,
			"0.025": 0.0
		}
	}
}
