{
	 "smiles": "NC1=CC=C(CC2=NN=C3C=CC=CN23)C=C1", 
	 "Tm": 481.15, 
	 "num_atms": 29, 
	 "gaussian": { 
		 "optdone": 1, 
		 "sigma_profile": "yes", 
		 "theory": "DFT", 
		 "functional": "B3LYP", 
		 "basiset": "6-31G**", 
		 "properties": { 
			 "R2extent": 5017.2335, 
			 "electric_dipole_moment_norm": 6.85099805868, 
			 "electric_quadrupole_moment_norm": 19.0904045279, 
			 "total_energy": -721.601717527, 
			 "HOMO_LUMO_gap": 0.16143, 
			 "cosmo_polarized_energy": -20.95, 
			 "cosmo_cavitation_energy": 33.21, 
			 "cosmo_dispersion_energy": -23.69, 
			 "cosmo_repulsion_energy": 1.82, 
			 "cosmo_total_nonelectrostatic_energy": 11.35, 
			 "SMD_solvation_energy": 3.35 
		},
		"coords": [
			{
				"x": -2.3334347863,
				"y": 2.9200625731,
				"z": 2.3896974972,
				"element": "N" 
			},
			{
				"x": -1.496766174,
				"y": 1.8079251703,
				"z": 2.2886781185,
				"element": "C" 
			},
			{
				"x": -0.1770411775,
				"y": 1.8500052875,
				"z": 2.7662418026,
				"element": "C" 
			},
			{
				"x": 0.6311192388,
				"y": 0.7153414505,
				"z": 2.712729867,
				"element": "C" 
			},
			{
				"x": 0.1618639067,
				"y": -0.4926567429,
				"z": 2.1857074209,
				"element": "C" 
			},
			{
				"x": 1.0412407301,
				"y": -1.7350474648,
				"z": 2.1523001828,
				"element": "C" 
			},
			{
				"x": 1.1178191103,
				"y": -2.4111668233,
				"z": 0.8202131989,
				"element": "C" 
			},
			{
				"x": 0.6984268038,
				"y": -3.6342574179,
				"z": 0.5491709757,
				"element": "N" 
			},
			{
				"x": 0.9396979073,
				"y": -3.9209134098,
				"z": -0.7646786395,
				"element": "N" 
			},
			{
				"x": 1.5137108095,
				"y": -2.8497438457,
				"z": -1.2963069051,
				"element": "C" 
			},
			{
				"x": 1.9831765592,
				"y": -2.5846608511,
				"z": -2.6090088252,
				"element": "C" 
			},
			{
				"x": 2.5456083272,
				"y": -1.3652646232,
				"z": -2.8793849424,
				"element": "C" 
			},
			{
				"x": 2.6536560563,
				"y": -0.369184956,
				"z": -1.8572182919,
				"element": "C" 
			},
			{
				"x": 2.2036581338,
				"y": -0.6188879551,
				"z": -0.5951220786,
				"element": "C" 
			},
			{
				"x": 1.6480055913,
				"y": -1.8509794857,
				"z": -0.3229247766,
				"element": "N" 
			},
			{
				"x": -1.1563355384,
				"y": -0.5289534451,
				"z": 1.7090800203,
				"element": "C" 
			},
			{
				"x": -1.9729781226,
				"y": 0.5950440013,
				"z": 1.7572529273,
				"element": "C" 
			},
			{
				"x": -1.8629079947,
				"y": 3.8126582125,
				"z": 2.4440714826,
				"element": "H" 
			},
			{
				"x": -3.1075673212,
				"y": 2.9388821826,
				"z": 1.7404565053,
				"element": "H" 
			},
			{
				"x": 0.2131641775,
				"y": 2.7740877506,
				"z": 3.1860592015,
				"element": "H" 
			},
			{
				"x": 1.6475343157,
				"y": 0.7742796083,
				"z": 3.0970431846,
				"element": "H" 
			},
			{
				"x": 2.0505638199,
				"y": -1.4721742928,
				"z": 2.4964425029,
				"element": "H" 
			},
			{
				"x": 0.6654357719,
				"y": -2.4956060617,
				"z": 2.8454825223,
				"element": "H" 
			},
			{
				"x": 1.8805858259,
				"y": -3.3614884921,
				"z": -3.3575775063,
				"element": "H" 
			},
			{
				"x": 2.9116584213,
				"y": -1.1424499401,
				"z": -3.8762889204,
				"element": "H" 
			},
			{
				"x": 3.0899718054,
				"y": 0.5980466405,
				"z": -2.0786095118,
				"element": "H" 
			},
			{
				"x": 2.2316510711,
				"y": 0.0924758508,
				"z": 0.2198569252,
				"element": "H" 
			},
			{
				"x": -1.5468655725,
				"y": -1.453721229,
				"z": 1.2917157031,
				"element": "H" 
			},
			{
				"x": -2.9935516958,
				"y": 0.5381483085,
				"z": 1.3862203592,
				"element": "H" 
			}
		],
		 "valence_orbital": [ 
			{
				"type": "occ",
				"energy": -0.26521,
				"method": "rhf"
			},
			{
				"type": "occ",
				"energy": -0.25207,
				"method": "rhf"
			},
			{
				"type": "occ",
				"energy": -0.24284,
				"method": "rhf"
			},
			{
				"type": "occ",
				"energy": -0.21613,
				"method": "rhf"
			},
			{
				"type": "occ",
				"energy": -0.20396,
				"method": "rhf"
			},
			{
				"type": "unocc",
				"energy": -0.04253,
				"method": "rhf"
			},
			{
				"type": "unocc",
				"energy": -0.00609,
				"method": "rhf"
			},
			{
				"type": "unocc",
				"energy": -0.00045,
				"method": "rhf"
			},
			{
				"type": "unocc",
				"energy": 0.01041,
				"method": "rhf"
			},
			{
				"type": "unocc",
				"energy": 0.05727,
				"method": "rhf"
			}
		],
		"cosmo_sigma_profile": { 
			"-0.025": 0.0,
			"-0.024": 0.0,
			"-0.023": 0.0,
			"-0.022": 0.0,
			"-0.021": 0.0,
			"-0.02": 0.0,
			"-0.019": 0.0,
			"-0.018": 0.0,
			"-0.017": 0.0,
			"-0.016": 0.0,
			"-0.015": 0.0,
			"-0.014": 0.0,
			"-0.013": 0.18465984913,
			"-0.012": 2.177747119,
			"-0.011": 2.81523899078,
			"-0.01": 3.1928403039,
			"-0.009": 3.11479861112,
			"-0.008": 6.91670616582,
			"-0.007": 13.1709117519,
			"-0.006": 18.5700457194,
			"-0.005": 18.2355514635,
			"-0.004": 16.7510997703,
			"-0.003": 17.4524712985,
			"-0.002": 17.0416203889,
			"-0.001": 18.5909774818,
			"0.0": 16.4954127292,
			"0.001": 18.4617338051,
			"0.002": 17.4684232615,
			"0.003": 11.5760778532,
			"0.004": 8.61919731499,
			"0.005": 8.79022701686,
			"0.006": 11.5134202713,
			"0.007": 5.42173055784,
			"0.008": 3.59319453064,
			"0.009": 1.97872769765,
			"0.01": 1.99675045061,
			"0.011": 2.89822905984,
			"0.012": 2.94629980683,
			"0.013": 3.87191519195,
			"0.014": 3.95152880031,
			"0.015": 3.12068421178,
			"0.016": 2.28801034343,
			"0.017": 2.0372855876,
			"0.018": 0.331838847344,
			"0.019": 0.0,
			"0.02": 0.0,
			"0.021": 0.0,
			"0.022": 0.0,
			"0.023": 0.0,
			"0.024": 0.0,
			"0.025": 0.0
		}
	}
}
