{
	 "smiles": "OC1=CC2=C(CCC2)C=C1", 
	 "Tm": 328.65, 
	 "num_atms": 20, 
	 "gaussian": { 
		 "optdone": 1, 
		 "sigma_profile": "yes", 
		 "theory": "DFT", 
		 "functional": "B3LYP", 
		 "basiset": "6-31G**", 
		 "properties": { 
			 "R2extent": 1563.8701, 
			 "electric_dipole_moment_norm": 1.60121410186, 
			 "electric_quadrupole_moment_norm": 7.36243770704, 
			 "total_energy": -424.214356234, 
			 "HOMO_LUMO_gap": 0.2084, 
			 "cosmo_polarized_energy": -7.42, 
			 "cosmo_cavitation_energy": 22.42, 
			 "cosmo_dispersion_energy": -17.13, 
			 "cosmo_repulsion_energy": 1.4, 
			 "cosmo_total_nonelectrostatic_energy": 6.69, 
			 "SMD_solvation_energy": 3.49 
		},
		"coords": [
			{
				"x": 0.6712949514,
				"y": -2.2805041171,
				"z": 2.4984455354,
				"element": "O" 
			},
			{
				"x": 0.2784514986,
				"y": -1.1971518202,
				"z": 1.7584585769,
				"element": "C" 
			},
			{
				"x": 0.7081033776,
				"y": -0.99313832,
				"z": 0.4411510757,
				"element": "C" 
			},
			{
				"x": 0.2722610658,
				"y": 0.1401790542,
				"z": -0.2425003385,
				"element": "C" 
			},
			{
				"x": -0.5857043992,
				"y": 1.063548057,
				"z": 0.3683371225,
				"element": "C" 
			},
			{
				"x": -0.928307322,
				"y": 2.1861773036,
				"z": -0.589515422,
				"element": "C" 
			},
			{
				"x": 0.164509252,
				"y": 2.0566911923,
				"z": -1.6815482173,
				"element": "C" 
			},
			{
				"x": 0.5791029433,
				"y": 0.5631937587,
				"z": -1.6640642982,
				"element": "C" 
			},
			{
				"x": -1.0126602826,
				"y": 0.8500808788,
				"z": 1.6792610062,
				"element": "C" 
			},
			{
				"x": -0.5796161735,
				"y": -0.2779061095,
				"z": 2.3764875328,
				"element": "C" 
			},
			{
				"x": 1.2564193642,
				"y": -2.8303148572,
				"z": 1.9617490692,
				"element": "H" 
			},
			{
				"x": 1.3783229842,
				"y": -1.709431994,
				"z": -0.0322638083,
				"element": "H" 
			},
			{
				"x": -1.9294288838,
				"y": 2.0357652851,
				"z": -1.0193888873,
				"element": "H" 
			},
			{
				"x": -0.9354317771,
				"y": 3.1743711863,
				"z": -0.1165298519,
				"element": "H" 
			},
			{
				"x": 1.0272342594,
				"y": 2.6716871559,
				"z": -1.4016685417,
				"element": "H" 
			},
			{
				"x": -0.1724670546,
				"y": 2.3936392113,
				"z": -2.6661167129,
				"element": "H" 
			},
			{
				"x": 1.626424942,
				"y": 0.4094161343,
				"z": -1.9464083567,
				"element": "H" 
			},
			{
				"x": -0.0273598208,
				"y": -0.0203046295,
				"z": -2.3719092242,
				"element": "H" 
			},
			{
				"x": -1.6764781785,
				"y": 1.5588839639,
				"z": 2.1681606757,
				"element": "H" 
			},
			{
				"x": -0.8884707466,
				"y": -0.4628813338,
				"z": 3.4000630647,
				"element": "H" 
			}
		],
		 "valence_orbital": [ 
			{
				"type": "occ",
				"energy": -0.33507,
				"method": "rhf"
			},
			{
				"type": "occ",
				"energy": -0.32112,
				"method": "rhf"
			},
			{
				"type": "occ",
				"energy": -0.30473,
				"method": "rhf"
			},
			{
				"type": "occ",
				"energy": -0.2397,
				"method": "rhf"
			},
			{
				"type": "occ",
				"energy": -0.20644,
				"method": "rhf"
			},
			{
				"type": "unocc",
				"energy": 0.00196,
				"method": "rhf"
			},
			{
				"type": "unocc",
				"energy": 0.02278,
				"method": "rhf"
			},
			{
				"type": "unocc",
				"energy": 0.07562,
				"method": "rhf"
			},
			{
				"type": "unocc",
				"energy": 0.10123,
				"method": "rhf"
			},
			{
				"type": "unocc",
				"energy": 0.11086,
				"method": "rhf"
			}
		],
		"cosmo_sigma_profile": { 
			"-0.025": 0.0,
			"-0.024": 0.0,
			"-0.023": 0.0,
			"-0.022": 0.0,
			"-0.021": 0.0,
			"-0.02": 0.0,
			"-0.019": 0.0,
			"-0.018": 0.132575344349,
			"-0.017": 0.800997941877,
			"-0.016": 1.18111010091,
			"-0.015": 1.05440627284,
			"-0.014": 1.11424748485,
			"-0.013": 0.747310898992,
			"-0.012": 0.33541003102,
			"-0.011": 0.745404759096,
			"-0.01": 1.40071008671,
			"-0.009": 1.86102238764,
			"-0.008": 0.902070475274,
			"-0.007": 0.63070773133,
			"-0.006": 2.23843590833,
			"-0.005": 4.94083839034,
			"-0.004": 7.69821853645,
			"-0.003": 16.9735266401,
			"-0.002": 19.2828086472,
			"-0.001": 23.9339443133,
			"0.0": 19.2378913288,
			"0.001": 15.275987052,
			"0.002": 7.70295611516,
			"0.003": 6.70227078826,
			"0.004": 8.89257316314,
			"0.005": 10.2626375097,
			"0.006": 9.75442055604,
			"0.007": 4.75642832597,
			"0.008": 1.56192691339,
			"0.009": 1.44759572534,
			"0.01": 1.31803552108,
			"0.011": 2.01290609291,
			"0.012": 1.68437514539,
			"0.013": 0.0629954943248,
			"0.014": 0.0,
			"0.015": 0.0,
			"0.016": 0.0,
			"0.017": 0.0,
			"0.018": 0.0,
			"0.019": 0.0,
			"0.02": 0.0,
			"0.021": 0.0,
			"0.022": 0.0,
			"0.023": 0.0,
			"0.024": 0.0,
			"0.025": 0.0
		}
	}
}
