{
	 "smiles": "CC1=C(Cl)C=C(C=C1)N1C(S)=NC2=C(C3=C(CCCCC3)S2)C1=O", 
	 "Tm": 290.15, 
	 "num_atms": 41, 
	 "gaussian": { 
		 "optdone": 1, 
		 "sigma_profile": "yes", 
		 "theory": "DFT", 
		 "functional": "B3LYP", 
		 "basiset": "6-31G**", 
		 "properties": { 
			 "R2extent": 12316.1221, 
			 "electric_dipole_moment_norm": 1.61177729851, 
			 "electric_quadrupole_moment_norm": 17.4698961405, 
			 "total_energy": -2137.48270291, 
			 "HOMO_LUMO_gap": 0.16401, 
			 "cosmo_polarized_energy": -11.94, 
			 "cosmo_cavitation_energy": 47.43, 
			 "cosmo_dispersion_energy": -34.53, 
			 "cosmo_repulsion_energy": 2.56, 
			 "cosmo_total_nonelectrostatic_energy": 15.45, 
			 "SMD_solvation_energy": 5.06 
		},
		"coords": [
			{
				"x": 0.6009635768,
				"y": 4.7574007723,
				"z": -4.294962223,
				"element": "C" 
			},
			{
				"x": 0.3515923797,
				"y": 3.5444922083,
				"z": -3.4377486633,
				"element": "C" 
			},
			{
				"x": 1.3458565046,
				"y": 2.582243837,
				"z": -3.1979795437,
				"element": "C" 
			},
			{
				"x": 2.9420607668,
				"y": 2.7789293489,
				"z": -3.9123052902,
				"element": "Cl" 
			},
			{
				"x": 1.1199521145,
				"y": 1.4609236741,
				"z": -2.4044815526,
				"element": "C" 
			},
			{
				"x": -0.1385579579,
				"y": 1.2798278353,
				"z": -1.8315102498,
				"element": "C" 
			},
			{
				"x": -1.1505423318,
				"y": 2.2154406803,
				"z": -2.0394201719,
				"element": "C" 
			},
			{
				"x": -0.8964085507,
				"y": 3.328226462,
				"z": -2.8369752811,
				"element": "C" 
			},
			{
				"x": -0.3804141352,
				"y": 0.1225970054,
				"z": -1.0035257955,
				"element": "N" 
			},
			{
				"x": -0.8531871074,
				"y": -1.0530238717,
				"z": -1.5480085365,
				"element": "C" 
			},
			{
				"x": -1.1389142819,
				"y": -1.0568242205,
				"z": -3.3085280219,
				"element": "S" 
			},
			{
				"x": -1.0968243713,
				"y": -2.1313785989,
				"z": -0.862901095,
				"element": "N" 
			},
			{
				"x": -0.8521101206,
				"y": -2.0428154411,
				"z": 0.4714221874,
				"element": "C" 
			},
			{
				"x": -0.3759542307,
				"y": -0.9336284792,
				"z": 1.1631764484,
				"element": "C" 
			},
			{
				"x": -0.2157918108,
				"y": -1.1630146604,
				"z": 2.5801134022,
				"element": "C" 
			},
			{
				"x": -0.5811598192,
				"y": -2.4374609459,
				"z": 2.93300769,
				"element": "C" 
			},
			{
				"x": -0.5935681721,
				"y": -3.110623597,
				"z": 4.2853808976,
				"element": "C" 
			},
			{
				"x": -0.5065068245,
				"y": -2.1723931936,
				"z": 5.5107286184,
				"element": "C" 
			},
			{
				"x": -1.3836875074,
				"y": -0.9140913772,
				"z": 5.3830350822,
				"element": "C" 
			},
			{
				"x": -0.6890717613,
				"y": 0.2654179254,
				"z": 4.6641055784,
				"element": "C" 
			},
			{
				"x": 0.3112817886,
				"y": -0.1360820375,
				"z": 3.5597017272,
				"element": "C" 
			},
			{
				"x": -1.1246959666,
				"y": -3.3843004186,
				"z": 1.5461816619,
				"element": "S" 
			},
			{
				"x": -0.1094625296,
				"y": 0.2736875574,
				"z": 0.4087551282,
				"element": "C" 
			},
			{
				"x": 0.298726217,
				"y": 1.3503176817,
				"z": 0.820545402,
				"element": "O" 
			},
			{
				"x": 1.4165034208,
				"y": 5.3666341268,
				"z": -3.8911999762,
				"element": "H" 
			},
			{
				"x": 0.8927158314,
				"y": 4.4722755638,
				"z": -5.3113322452,
				"element": "H" 
			},
			{
				"x": -0.2952005684,
				"y": 5.3792308085,
				"z": -4.355816793,
				"element": "H" 
			},
			{
				"x": 1.9104420619,
				"y": 0.7401895112,
				"z": -2.2322285151,
				"element": "H" 
			},
			{
				"x": -2.1218864288,
				"y": 2.0714997791,
				"z": -1.5788531299,
				"element": "H" 
			},
			{
				"x": -1.6851351247,
				"y": 4.0567511019,
				"z": -3.0003368165,
				"element": "H" 
			},
			{
				"x": -1.5509889416,
				"y": -2.3390021849,
				"z": -3.287805472,
				"element": "H" 
			},
			{
				"x": 0.2126505462,
				"y": -3.8563383997,
				"z": 4.3366121392,
				"element": "H" 
			},
			{
				"x": -1.5272305607,
				"y": -3.6840270673,
				"z": 4.3646725294,
				"element": "H" 
			},
			{
				"x": 0.5348524022,
				"y": -1.8867236671,
				"z": 5.6979466005,
				"element": "H" 
			},
			{
				"x": -0.8157048636,
				"y": -2.7566821373,
				"z": 6.3849012891,
				"element": "H" 
			},
			{
				"x": -2.3047059664,
				"y": -1.182746872,
				"z": 4.8510106518,
				"element": "H" 
			},
			{
				"x": -1.6997918535,
				"y": -0.5798413719,
				"z": 6.3780001727,
				"element": "H" 
			},
			{
				"x": -0.1381643828,
				"y": 0.8664188641,
				"z": 5.3986126381,
				"element": "H" 
			},
			{
				"x": -1.4531905523,
				"y": 0.9274656038,
				"z": 4.2401985292,
				"element": "H" 
			},
			{
				"x": 0.6108888948,
				"y": 0.7548774724,
				"z": 3.0063472835,
				"element": "H" 
			},
			{
				"x": 1.2210702167,
				"y": -0.533349278,
				"z": 4.0255637151,
				"element": "H" 
			}
		],
		 "valence_orbital": [ 
			{
				"type": "occ",
				"energy": -0.26564,
				"method": "rhf"
			},
			{
				"type": "occ",
				"energy": -0.26164,
				"method": "rhf"
			},
			{
				"type": "occ",
				"energy": -0.25289,
				"method": "rhf"
			},
			{
				"type": "occ",
				"energy": -0.25036,
				"method": "rhf"
			},
			{
				"type": "occ",
				"energy": -0.20642,
				"method": "rhf"
			},
			{
				"type": "unocc",
				"energy": -0.04241,
				"method": "rhf"
			},
			{
				"type": "unocc",
				"energy": -0.02999,
				"method": "rhf"
			},
			{
				"type": "unocc",
				"energy": -0.02259,
				"method": "rhf"
			},
			{
				"type": "unocc",
				"energy": -0.00783,
				"method": "rhf"
			},
			{
				"type": "unocc",
				"energy": 0.00733,
				"method": "rhf"
			}
		],
		"cosmo_sigma_profile": { 
			"-0.025": 0.0,
			"-0.024": 0.0,
			"-0.023": 0.0,
			"-0.022": 0.0,
			"-0.021": 0.0,
			"-0.02": 0.0,
			"-0.019": 0.0,
			"-0.018": 0.0,
			"-0.017": 0.0,
			"-0.016": 0.0,
			"-0.015": 0.0,
			"-0.014": 0.0,
			"-0.013": 0.0,
			"-0.012": 0.823641268502,
			"-0.011": 1.3506077034,
			"-0.01": 1.40895169821,
			"-0.009": 1.66184440284,
			"-0.008": 3.51760360078,
			"-0.007": 7.31350782558,
			"-0.006": 9.88616013057,
			"-0.005": 13.8864289013,
			"-0.004": 21.9125345819,
			"-0.003": 30.566918463,
			"-0.002": 39.2928082938,
			"-0.001": 46.6380557659,
			"0.0": 40.441659046,
			"0.001": 43.2175381241,
			"0.002": 36.3850220871,
			"0.003": 29.2252903336,
			"0.004": 19.5713744332,
			"0.005": 10.5585097771,
			"0.006": 5.19260337733,
			"0.007": 2.9971518292,
			"0.008": 2.70557785505,
			"0.009": 2.72499503768,
			"0.01": 3.53806979266,
			"0.011": 2.50395216628,
			"0.012": 3.81771195855,
			"0.013": 1.88653939253,
			"0.014": 0.0,
			"0.015": 0.0,
			"0.016": 0.0,
			"0.017": 0.0,
			"0.018": 0.0,
			"0.019": 0.0,
			"0.02": 0.0,
			"0.021": 0.0,
			"0.022": 0.0,
			"0.023": 0.0,
			"0.024": 0.0,
			"0.025": 0.0
		}
	}
}
