{
	 "smiles": "CC(=O)NC1CCSC1=O", 
	 "Tm": 383.15, 
	 "num_atms": 19, 
	 "gaussian": { 
		 "optdone": 1, 
		 "sigma_profile": "yes", 
		 "theory": "DFT", 
		 "functional": "B3LYP", 
		 "basiset": "6-31G**", 
		 "properties": { 
			 "R2extent": 2734.208, 
			 "electric_dipole_moment_norm": 4.95160740164, 
			 "electric_quadrupole_moment_norm": 12.1520198786, 
			 "total_energy": -837.467601574, 
			 "HOMO_LUMO_gap": 0.2103, 
			 "cosmo_polarized_energy": -16.27, 
			 "cosmo_cavitation_energy": 23.81, 
			 "cosmo_dispersion_energy": -17.82, 
			 "cosmo_repulsion_energy": 1.41, 
			 "cosmo_total_nonelectrostatic_energy": 7.39, 
			 "SMD_solvation_energy": 4.59 
		},
		"coords": [
			{
				"x": 1.3437133,
				"y": 2.8524258389,
				"z": 0.3139949938,
				"element": "C" 
			},
			{
				"x": 0.0155994706,
				"y": 2.3586279493,
				"z": 0.8568183447,
				"element": "C" 
			},
			{
				"x": -0.9013104153,
				"y": 3.1061294803,
				"z": 1.1588584193,
				"element": "O" 
			},
			{
				"x": -0.1479443473,
				"y": 0.9866767356,
				"z": 0.9734262394,
				"element": "N" 
			},
			{
				"x": 0.8754528846,
				"y": -0.0403780252,
				"z": 0.8644539436,
				"element": "C" 
			},
			{
				"x": 0.2790088686,
				"y": -1.4201272202,
				"z": 0.5843991291,
				"element": "C" 
			},
			{
				"x": -0.2192086837,
				"y": -2.0146091937,
				"z": 1.9152118078,
				"element": "C" 
			},
			{
				"x": 1.0095333557,
				"y": -1.5245176214,
				"z": 3.1951175141,
				"element": "S" 
			},
			{
				"x": 1.6596908587,
				"y": -0.160494283,
				"z": 2.2026493513,
				"element": "C" 
			},
			{
				"x": 2.5500752009,
				"y": 0.57058232,
				"z": 2.5567576576,
				"element": "O" 
			},
			{
				"x": 1.5279188926,
				"y": 2.4641718988,
				"z": -0.6943338586,
				"element": "H" 
			},
			{
				"x": 2.170361863,
				"y": 2.5345640916,
				"z": 0.9559985608,
				"element": "H" 
			},
			{
				"x": 1.3029747589,
				"y": 3.9402959961,
				"z": 0.2730472582,
				"element": "H" 
			},
			{
				"x": -1.0174702871,
				"y": 0.7417628726,
				"z": 1.432013538,
				"element": "H" 
			},
			{
				"x": 1.5915914607,
				"y": 0.254033663,
				"z": 0.0944939792,
				"element": "H" 
			},
			{
				"x": -0.5261909217,
				"y": -1.3620350353,
				"z": -0.1540103627,
				"element": "H" 
			},
			{
				"x": 1.0641692068,
				"y": -2.0661017226,
				"z": 0.179451139,
				"element": "H" 
			},
			{
				"x": -0.2756901201,
				"y": -3.1039324477,
				"z": 1.8796275012,
				"element": "H" 
			},
			{
				"x": -1.2043753458,
				"y": -1.6334752971,
				"z": 2.1992248443,
				"element": "H" 
			}
		],
		 "valence_orbital": [ 
			{
				"type": "occ",
				"energy": -0.35019,
				"method": "rhf"
			},
			{
				"type": "occ",
				"energy": -0.29208,
				"method": "rhf"
			},
			{
				"type": "occ",
				"energy": -0.26639,
				"method": "rhf"
			},
			{
				"type": "occ",
				"energy": -0.25199,
				"method": "rhf"
			},
			{
				"type": "occ",
				"energy": -0.24723,
				"method": "rhf"
			},
			{
				"type": "unocc",
				"energy": -0.03693,
				"method": "rhf"
			},
			{
				"type": "unocc",
				"energy": 0.00463,
				"method": "rhf"
			},
			{
				"type": "unocc",
				"energy": 0.02465,
				"method": "rhf"
			},
			{
				"type": "unocc",
				"energy": 0.05357,
				"method": "rhf"
			},
			{
				"type": "unocc",
				"energy": 0.07045,
				"method": "rhf"
			}
		],
		"cosmo_sigma_profile": { 
			"-0.025": 0.0,
			"-0.024": 0.0,
			"-0.023": 0.0,
			"-0.022": 0.0,
			"-0.021": 0.0,
			"-0.02": 0.0,
			"-0.019": 0.0,
			"-0.018": 0.0,
			"-0.017": 0.0,
			"-0.016": 0.0,
			"-0.015": 0.0,
			"-0.014": 0.0,
			"-0.013": 1.65901312915,
			"-0.012": 1.43147017829,
			"-0.011": 1.11270988073,
			"-0.01": 1.82856361731,
			"-0.009": 1.22169780584,
			"-0.008": 5.29961307625,
			"-0.007": 8.70112374686,
			"-0.006": 13.8720108018,
			"-0.005": 15.5657526601,
			"-0.004": 12.8871155823,
			"-0.003": 15.9812921747,
			"-0.002": 13.0288253626,
			"-0.001": 12.8490473188,
			"0.0": 8.62834442702,
			"0.001": 7.4852695563,
			"0.002": 8.0254560595,
			"0.003": 9.97582047638,
			"0.004": 7.05475566114,
			"0.005": 7.24196073871,
			"0.006": 4.88267841564,
			"0.007": 3.44287630212,
			"0.008": 3.61191577318,
			"0.009": 3.10487241284,
			"0.01": 5.30302045649,
			"0.011": 3.25192824885,
			"0.012": 2.34932530002,
			"0.013": 5.08581602571,
			"0.014": 4.17768817022,
			"0.015": 0.721484215222,
			"0.016": 0.0,
			"0.017": 0.0,
			"0.018": 0.0,
			"0.019": 0.0,
			"0.02": 0.0,
			"0.021": 0.0,
			"0.022": 0.0,
			"0.023": 0.0,
			"0.024": 0.0,
			"0.025": 0.0
		}
	}
}
