{
	 "smiles": "COC(=O)[C@]12[C@H]3C4=CC=CC=C4[C@@]4([C@@H](C)OC(=O)[C@]134)C1=CC=CC=C21", 
	 "Tm": 476.0, 
	 "num_atms": 41, 
	 "gaussian": { 
		 "optdone": 1, 
		 "sigma_profile": "yes", 
		 "theory": "DFT", 
		 "functional": "B3LYP", 
		 "basiset": "6-31G**", 
		 "properties": { 
			 "R2extent": 6691.2326, 
			 "electric_dipole_moment_norm": 5.12585406054, 
			 "electric_quadrupole_moment_norm": 21.5612391175, 
			 "total_energy": -1110.75525333, 
			 "HOMO_LUMO_gap": 0.20859, 
			 "cosmo_polarized_energy": -17.96, 
			 "cosmo_cavitation_energy": 43.39, 
			 "cosmo_dispersion_energy": -29.21, 
			 "cosmo_repulsion_energy": 2.21, 
			 "cosmo_total_nonelectrostatic_energy": 16.39, 
			 "SMD_solvation_energy": 9.13 
		},
		"coords": [
			{
				"x": -2.6661544301,
				"y": -3.6595791046,
				"z": 0.9950095548,
				"element": "C" 
			},
			{
				"x": -2.1727149369,
				"y": -2.3847670042,
				"z": 0.5435744958,
				"element": "O" 
			},
			{
				"x": -0.8340600668,
				"y": -2.3053841986,
				"z": 0.415892694,
				"element": "C" 
			},
			{
				"x": -0.0819055499,
				"y": -3.233856826,
				"z": 0.6183426633,
				"element": "O" 
			},
			{
				"x": -0.3997265914,
				"y": -0.9198953182,
				"z": 0.0065210601,
				"element": "C" 
			},
			{
				"x": 1.1516505889,
				"y": -0.7496344087,
				"z": -0.0195450134,
				"element": "C" 
			},
			{
				"x": 1.8182279264,
				"y": 0.3299033306,
				"z": -0.8009110621,
				"element": "C" 
			},
			{
				"x": 2.8267996743,
				"y": 0.2253493405,
				"z": -1.7553014211,
				"element": "C" 
			},
			{
				"x": 3.3711748587,
				"y": 1.3968010244,
				"z": -2.2934607471,
				"element": "C" 
			},
			{
				"x": 2.9031803947,
				"y": 2.6500692083,
				"z": -1.8899795958,
				"element": "C" 
			},
			{
				"x": 1.8734278748,
				"y": 2.7571117424,
				"z": -0.9470833913,
				"element": "C" 
			},
			{
				"x": 1.3461074033,
				"y": 1.5944219091,
				"z": -0.3958178705,
				"element": "C" 
			},
			{
				"x": 0.1674264481,
				"y": 1.4067843516,
				"z": 0.5649570524,
				"element": "C" 
			},
			{
				"x": 0.1714261384,
				"y": 2.1866240357,
				"z": 1.9135100072,
				"element": "C" 
			},
			{
				"x": -1.0101839405,
				"y": 3.0961116482,
				"z": 2.207326654,
				"element": "C" 
			},
			{
				"x": 0.2174168338,
				"y": 1.174486141,
				"z": 2.9652823378,
				"element": "O" 
			},
			{
				"x": 0.3125086247,
				"y": -0.1079928193,
				"z": 2.5057962996,
				"element": "C" 
			},
			{
				"x": 0.3520648776,
				"y": -1.0630604858,
				"z": 3.23902849,
				"element": "O" 
			},
			{
				"x": 0.3278374347,
				"y": -0.0520783467,
				"z": 1.0214784322,
				"element": "C" 
			},
			{
				"x": -1.0598692969,
				"y": 1.3529675393,
				"z": -0.3549612636,
				"element": "C" 
			},
			{
				"x": -1.777644955,
				"y": 2.3901531161,
				"z": -0.9480448507,
				"element": "C" 
			},
			{
				"x": -2.7704655393,
				"y": 2.0848051672,
				"z": -1.8835924885,
				"element": "C" 
			},
			{
				"x": -3.0151641485,
				"y": 0.7591060079,
				"z": -2.2516244666,
				"element": "C" 
			},
			{
				"x": -2.2736546042,
				"y": -0.2820415634,
				"z": -1.6881828573,
				"element": "C" 
			},
			{
				"x": -1.3018854543,
				"y": 0.0173424758,
				"z": -0.7346501437,
				"element": "C" 
			},
			{
				"x": -2.3800223936,
				"y": -4.4512811021,
				"z": 0.298413974,
				"element": "H" 
			},
			{
				"x": -3.7499831343,
				"y": -3.5546322563,
				"z": 1.0359111949,
				"element": "H" 
			},
			{
				"x": -2.2623575196,
				"y": -3.8928073192,
				"z": 1.9828111028,
				"element": "H" 
			},
			{
				"x": 1.6698673968,
				"y": -1.673056075,
				"z": 0.2180660971,
				"element": "H" 
			},
			{
				"x": 3.1964801351,
				"y": -0.7476965403,
				"z": -2.0659274978,
				"element": "H" 
			},
			{
				"x": 4.1692169367,
				"y": 1.3308637634,
				"z": -3.027100005,
				"element": "H" 
			},
			{
				"x": 3.3428775595,
				"y": 3.5501284253,
				"z": -2.3097514857,
				"element": "H" 
			},
			{
				"x": 1.5066511803,
				"y": 3.7358531843,
				"z": -0.6486153156,
				"element": "H" 
			},
			{
				"x": 1.1064115699,
				"y": 2.7508302687,
				"z": 1.9984891931,
				"element": "H" 
			},
			{
				"x": -0.9443957441,
				"y": 3.4575044469,
				"z": 3.2368099454,
				"element": "H" 
			},
			{
				"x": -1.0055371832,
				"y": 3.9638387357,
				"z": 1.5406167864,
				"element": "H" 
			},
			{
				"x": -1.9576765323,
				"y": 2.566200777,
				"z": 2.0818065912,
				"element": "H" 
			},
			{
				"x": -1.5783183545,
				"y": 3.4255994956,
				"z": -0.6905175882,
				"element": "H" 
			},
			{
				"x": -3.3527306398,
				"y": 2.8858489812,
				"z": -2.3295844337,
				"element": "H" 
			},
			{
				"x": -3.7865379742,
				"y": 0.5351137753,
				"z": -2.9825423534,
				"element": "H" 
			},
			{
				"x": -2.4674648671,
				"y": -1.3110555229,
				"z": -1.9718507749,
				"element": "H" 
			}
		],
		 "valence_orbital": [ 
			{
				"type": "occ",
				"energy": -0.2685,
				"method": "rhf"
			},
			{
				"type": "occ",
				"energy": -0.2641,
				"method": "rhf"
			},
			{
				"type": "occ",
				"energy": -0.25633,
				"method": "rhf"
			},
			{
				"type": "occ",
				"energy": -0.23936,
				"method": "rhf"
			},
			{
				"type": "occ",
				"energy": -0.23841,
				"method": "rhf"
			},
			{
				"type": "unocc",
				"energy": -0.02982,
				"method": "rhf"
			},
			{
				"type": "unocc",
				"energy": -0.02552,
				"method": "rhf"
			},
			{
				"type": "unocc",
				"energy": -0.01497,
				"method": "rhf"
			},
			{
				"type": "unocc",
				"energy": -0.00439,
				"method": "rhf"
			},
			{
				"type": "unocc",
				"energy": 0.00853,
				"method": "rhf"
			}
		],
		"cosmo_sigma_profile": { 
			"-0.025": 0.0,
			"-0.024": 0.0,
			"-0.023": 0.0,
			"-0.022": 0.0,
			"-0.021": 0.0,
			"-0.02": 0.0,
			"-0.019": 0.0,
			"-0.018": 0.0,
			"-0.017": 0.0,
			"-0.016": 0.0,
			"-0.015": 0.0,
			"-0.014": 0.0,
			"-0.013": 0.0,
			"-0.012": 0.0,
			"-0.011": 0.0,
			"-0.01": 0.0,
			"-0.009": 0.112091794337,
			"-0.008": 1.2942710412,
			"-0.007": 7.0103032917,
			"-0.006": 29.1945529988,
			"-0.005": 32.7724689683,
			"-0.004": 37.3737365204,
			"-0.003": 31.272667926,
			"-0.002": 23.5655950799,
			"-0.001": 21.2598960292,
			"0.0": 21.6456815729,
			"0.001": 17.1878211982,
			"0.002": 16.8248057247,
			"0.003": 18.5523942666,
			"0.004": 21.302147634,
			"0.005": 21.153394094,
			"0.006": 5.99239207099,
			"0.007": 6.06277459205,
			"0.008": 6.03519379285,
			"0.009": 5.89437784272,
			"0.01": 6.74786225748,
			"0.011": 9.69822009065,
			"0.012": 4.65019091471,
			"0.013": 0.626005094356,
			"0.014": 0.0,
			"0.015": 0.0,
			"0.016": 0.0,
			"0.017": 0.0,
			"0.018": 0.0,
			"0.019": 0.0,
			"0.02": 0.0,
			"0.021": 0.0,
			"0.022": 0.0,
			"0.023": 0.0,
			"0.024": 0.0,
			"0.025": 0.0
		}
	}
}
