{
	 "smiles": "OC(=O)C1=CC(NC(=O)CC2=CC=C(Br)C=C2)=CC=C1", 
	 "Tm": 565.15, 
	 "num_atms": 32, 
	 "gaussian": { 
		 "optdone": 1, 
		 "sigma_profile": "yes", 
		 "theory": "DFT", 
		 "functional": "B3LYP", 
		 "basiset": "6-31G**", 
		 "properties": { 
			 "R2extent": 12220.2599, 
			 "electric_dipole_moment_norm": 2.62791982184, 
			 "electric_quadrupole_moment_norm": 18.7676759848, 
			 "total_energy": -3430.69126659, 
			 "HOMO_LUMO_gap": 0.17165, 
			 "cosmo_polarized_energy": -18.0, 
			 "cosmo_cavitation_energy": 40.26, 
			 "cosmo_dispersion_energy": -28.02, 
			 "cosmo_repulsion_energy": 2.18, 
			 "cosmo_total_nonelectrostatic_energy": 14.43, 
			 "SMD_solvation_energy": 7.3 
		},
		"coords": [
			{
				"x": -2.554887316,
				"y": -3.9218284921,
				"z": -1.9433820987,
				"element": "O" 
			},
			{
				"x": -1.2064832748,
				"y": -3.8616766157,
				"z": -2.0737783358,
				"element": "C" 
			},
			{
				"x": -0.6115037706,
				"y": -4.4660873508,
				"z": -2.9428912477,
				"element": "O" 
			},
			{
				"x": -0.561225954,
				"y": -2.9877736888,
				"z": -1.0550594576,
				"element": "C" 
			},
			{
				"x": -1.3058681971,
				"y": -2.3404704643,
				"z": -0.0614601327,
				"element": "C" 
			},
			{
				"x": -0.6625789554,
				"y": -1.5170130984,
				"z": 0.8688347423,
				"element": "C" 
			},
			{
				"x": -1.3867890475,
				"y": -0.8629669361,
				"z": 1.9002068559,
				"element": "N" 
			},
			{
				"x": -2.4590546276,
				"y": 0.0067283363,
				"z": 1.8409265246,
				"element": "C" 
			},
			{
				"x": -2.956988948,
				"y": 0.4277976419,
				"z": 2.8760188404,
				"element": "O" 
			},
			{
				"x": -2.9489521196,
				"y": 0.4840317502,
				"z": 0.4738535059,
				"element": "C" 
			},
			{
				"x": -2.4841662327,
				"y": 1.9051949154,
				"z": 0.1911493802,
				"element": "C" 
			},
			{
				"x": -2.8271865244,
				"y": 2.9586075344,
				"z": 1.0505548808,
				"element": "C" 
			},
			{
				"x": -2.4118169969,
				"y": 4.2622282256,
				"z": 0.7848088931,
				"element": "C" 
			},
			{
				"x": -1.645381451,
				"y": 4.5157335534,
				"z": -0.3524334726,
				"element": "C" 
			},
			{
				"x": -1.0755616609,
				"y": 6.3036279603,
				"z": -0.7251398622,
				"element": "Br" 
			},
			{
				"x": -1.288445563,
				"y": 3.487843924,
				"z": -1.2207571345,
				"element": "C" 
			},
			{
				"x": -1.7103967106,
				"y": 2.1867664328,
				"z": -0.9400186137,
				"element": "C" 
			},
			{
				"x": 0.7325091824,
				"y": -1.3825914661,
				"z": 0.8211130193,
				"element": "C" 
			},
			{
				"x": 1.4734406568,
				"y": -2.0535368297,
				"z": -0.1519763511,
				"element": "C" 
			},
			{
				"x": 0.8314645063,
				"y": -2.847713186,
				"z": -1.0989145039,
				"element": "C" 
			},
			{
				"x": -2.8643083257,
				"y": -4.5149576446,
				"z": -2.6476251186,
				"element": "H" 
			},
			{
				"x": -2.3766620385,
				"y": -2.4943595133,
				"z": -0.0031799316,
				"element": "H" 
			},
			{
				"x": -1.0495512723,
				"y": -0.9794986557,
				"z": 2.8488451782,
				"element": "H" 
			},
			{
				"x": -2.6281911983,
				"y": -0.1711497276,
				"z": -0.33590666,
				"element": "H" 
			},
			{
				"x": -4.0424386045,
				"y": 0.4510998005,
				"z": 0.51997029,
				"element": "H" 
			},
			{
				"x": -3.4091090642,
				"y": 2.7468075272,
				"z": 1.9416583361,
				"element": "H" 
			},
			{
				"x": -2.6804929228,
				"y": 5.0725845889,
				"z": 1.4530065425,
				"element": "H" 
			},
			{
				"x": -0.6911902582,
				"y": 3.6969307825,
				"z": -2.100965871,
				"element": "H" 
			},
			{
				"x": -1.4319516405,
				"y": 1.3839445592,
				"z": -1.6176931652,
				"element": "H" 
			},
			{
				"x": 1.2275221561,
				"y": -0.7427562576,
				"z": 1.5459456826,
				"element": "H" 
			},
			{
				"x": 2.5530634193,
				"y": -1.9426719099,
				"z": -0.1767495073,
				"element": "H" 
			},
			{
				"x": 1.3842827541,
				"y": -3.3694756959,
				"z": -1.8720612076,
				"element": "H" 
			}
		],
		 "valence_orbital": [ 
			{
				"type": "occ",
				"energy": -0.27996,
				"method": "rhf"
			},
			{
				"type": "occ",
				"energy": -0.26549,
				"method": "rhf"
			},
			{
				"type": "occ",
				"energy": -0.26074,
				"method": "rhf"
			},
			{
				"type": "occ",
				"energy": -0.24935,
				"method": "rhf"
			},
			{
				"type": "occ",
				"energy": -0.23603,
				"method": "rhf"
			},
			{
				"type": "unocc",
				"energy": -0.06438,
				"method": "rhf"
			},
			{
				"type": "unocc",
				"energy": -0.03133,
				"method": "rhf"
			},
			{
				"type": "unocc",
				"energy": -0.018,
				"method": "rhf"
			},
			{
				"type": "unocc",
				"energy": -0.01271,
				"method": "rhf"
			},
			{
				"type": "unocc",
				"energy": 0.00913,
				"method": "rhf"
			}
		],
		"cosmo_sigma_profile": { 
			"-0.025": 0.0,
			"-0.024": 0.0,
			"-0.023": 0.0,
			"-0.022": 0.0,
			"-0.021": 0.0,
			"-0.02": 0.0,
			"-0.019": 0.0227270067205,
			"-0.018": 0.854877495777,
			"-0.017": 1.06921492314,
			"-0.016": 0.50487594021,
			"-0.015": 1.10463106525,
			"-0.014": 2.0532434442,
			"-0.013": 1.506593534,
			"-0.012": 1.53040561376,
			"-0.011": 2.28993917823,
			"-0.01": 1.62082085542,
			"-0.009": 1.74698029507,
			"-0.008": 2.38673747261,
			"-0.007": 11.0625686523,
			"-0.006": 18.4943084373,
			"-0.005": 20.1166535251,
			"-0.004": 19.5746993228,
			"-0.003": 18.5660510291,
			"-0.002": 20.6841398285,
			"-0.001": 20.9290403135,
			"0.0": 22.9771766716,
			"0.001": 25.7731800129,
			"0.002": 29.5890082078,
			"0.003": 28.6675269278,
			"0.004": 25.1791696551,
			"0.005": 11.8821235848,
			"0.006": 3.97246675767,
			"0.007": 4.39366122808,
			"0.008": 2.84294316702,
			"0.009": 3.3526330461,
			"0.01": 3.4388678506,
			"0.011": 5.35428360709,
			"0.012": 6.06062150464,
			"0.013": 4.59538153541,
			"0.014": 1.38869234148,
			"0.015": 0.0,
			"0.016": 0.0,
			"0.017": 0.0,
			"0.018": 0.0,
			"0.019": 0.0,
			"0.02": 0.0,
			"0.021": 0.0,
			"0.022": 0.0,
			"0.023": 0.0,
			"0.024": 0.0,
			"0.025": 0.0
		}
	}
}
