{
	 "smiles": "CC1=NC(N2CCCC2)=C(C(N)=O)C(C)=C1", 
	 "Tm": 448.15, 
	 "num_atms": 33, 
	 "gaussian": { 
		 "optdone": 1, 
		 "sigma_profile": "yes", 
		 "theory": "DFT", 
		 "functional": "B3LYP", 
		 "basiset": "6-31G**", 
		 "properties": { 
			 "R2extent": 4458.4758, 
			 "electric_dipole_moment_norm": 2.8124334321, 
			 "electric_quadrupole_moment_norm": 18.2851910214, 
			 "total_energy": -707.035331748, 
			 "HOMO_LUMO_gap": 0.17905, 
			 "cosmo_polarized_energy": -12.73, 
			 "cosmo_cavitation_energy": 33.93, 
			 "cosmo_dispersion_energy": -24.44, 
			 "cosmo_repulsion_energy": 1.93, 
			 "cosmo_total_nonelectrostatic_energy": 11.42, 
			 "SMD_solvation_energy": 4.58 
		},
		"coords": [
			{
				"x": 1.1649909712,
				"y": -3.0091796964,
				"z": -0.8759722052,
				"element": "C" 
			},
			{
				"x": 0.835995185,
				"y": -1.6359110838,
				"z": -0.3457271389,
				"element": "C" 
			},
			{
				"x": 0.160442236,
				"y": -1.5957051061,
				"z": 0.8099477714,
				"element": "N" 
			},
			{
				"x": -0.1383211912,
				"y": -0.4053361188,
				"z": 1.3517722212,
				"element": "C" 
			},
			{
				"x": -0.9199209703,
				"y": -0.4501478082,
				"z": 2.5037383423,
				"element": "N" 
			},
			{
				"x": -1.9895093818,
				"y": 0.5437442603,
				"z": 2.7628103152,
				"element": "C" 
			},
			{
				"x": -3.1574628007,
				"y": -0.2844647922,
				"z": 3.3174633184,
				"element": "C" 
			},
			{
				"x": -2.4422430277,
				"y": -1.4497831711,
				"z": 4.0158510301,
				"element": "C" 
			},
			{
				"x": -1.3118781943,
				"y": -1.7730679178,
				"z": 3.0354302733,
				"element": "C" 
			},
			{
				"x": 0.3208339242,
				"y": 0.824276968,
				"z": 0.7957328481,
				"element": "C" 
			},
			{
				"x": 0.2438767683,
				"y": 2.1407656432,
				"z": 1.5201864109,
				"element": "C" 
			},
			{
				"x": 0.6903286145,
				"y": 2.1069330815,
				"z": 2.8179474843,
				"element": "N" 
			},
			{
				"x": -0.0957189023,
				"y": 3.1915236291,
				"z": 0.9860575095,
				"element": "O" 
			},
			{
				"x": 0.9641295952,
				"y": 0.7765655924,
				"z": -0.45510566,
				"element": "C" 
			},
			{
				"x": 1.4389241085,
				"y": 2.0197035754,
				"z": -1.1683981371,
				"element": "C" 
			},
			{
				"x": 1.2061004595,
				"y": -0.4777163466,
				"z": -1.0274878386,
				"element": "C" 
			},
			{
				"x": 1.6753874717,
				"y": -2.9596965571,
				"z": -1.8410646844,
				"element": "H" 
			},
			{
				"x": 1.8076833721,
				"y": -3.544616079,
				"z": -0.168544717,
				"element": "H" 
			},
			{
				"x": 0.2526849456,
				"y": -3.6035513761,
				"z": -0.9900315147,
				"element": "H" 
			},
			{
				"x": -2.2428636032,
				"y": 1.0863746235,
				"z": 1.8464718518,
				"element": "H" 
			},
			{
				"x": -1.6621903002,
				"y": 1.286036365,
				"z": 3.500446706,
				"element": "H" 
			},
			{
				"x": -3.7765686554,
				"y": -0.664650023,
				"z": 2.4967589229,
				"element": "H" 
			},
			{
				"x": -3.8009977486,
				"y": 0.2997066451,
				"z": 3.9812955266,
				"element": "H" 
			},
			{
				"x": -2.0372803035,
				"y": -1.1233619373,
				"z": 4.9813486363,
				"element": "H" 
			},
			{
				"x": -3.0895255773,
				"y": -2.3120452391,
				"z": 4.1976245343,
				"element": "H" 
			},
			{
				"x": -1.6616087735,
				"y": -2.4243725043,
				"z": 2.2258490371,
				"element": "H" 
			},
			{
				"x": -0.4542598417,
				"y": -2.2704618464,
				"z": 3.4982844921,
				"element": "H" 
			},
			{
				"x": 0.7831073283,
				"y": 1.2246708371,
				"z": 3.2994282458,
				"element": "H" 
			},
			{
				"x": 0.5588104116,
				"y": 2.9446796491,
				"z": 3.3660517283,
				"element": "H" 
			},
			{
				"x": 1.961007384,
				"y": 1.7538073058,
				"z": -2.0910663939,
				"element": "H" 
			},
			{
				"x": 2.1185763207,
				"y": 2.6066313544,
				"z": -0.542287011,
				"element": "H" 
			},
			{
				"x": 0.6000268236,
				"y": 2.6785027747,
				"z": -1.4023799852,
				"element": "H" 
			},
			{
				"x": 1.7172433517,
				"y": -0.5467547014,
				"z": -1.9825319197,
				"element": "H" 
			}
		],
		 "valence_orbital": [ 
			{
				"type": "occ",
				"energy": -0.26356,
				"method": "rhf"
			},
			{
				"type": "occ",
				"energy": -0.26041,
				"method": "rhf"
			},
			{
				"type": "occ",
				"energy": -0.25475,
				"method": "rhf"
			},
			{
				"type": "occ",
				"energy": -0.2353,
				"method": "rhf"
			},
			{
				"type": "occ",
				"energy": -0.20229,
				"method": "rhf"
			},
			{
				"type": "unocc",
				"energy": -0.02324,
				"method": "rhf"
			},
			{
				"type": "unocc",
				"energy": 0.0035,
				"method": "rhf"
			},
			{
				"type": "unocc",
				"energy": 0.04862,
				"method": "rhf"
			},
			{
				"type": "unocc",
				"energy": 0.07625,
				"method": "rhf"
			},
			{
				"type": "unocc",
				"energy": 0.09673,
				"method": "rhf"
			}
		],
		"cosmo_sigma_profile": { 
			"-0.025": 0.0,
			"-0.024": 0.0,
			"-0.023": 0.0,
			"-0.022": 0.0,
			"-0.021": 0.0,
			"-0.02": 0.0,
			"-0.019": 0.0,
			"-0.018": 0.0,
			"-0.017": 0.0,
			"-0.016": 0.0,
			"-0.015": 0.0,
			"-0.014": 0.235652765879,
			"-0.013": 1.19868983691,
			"-0.012": 1.2263360105,
			"-0.011": 2.54451035424,
			"-0.01": 1.79246714009,
			"-0.009": 1.93490026523,
			"-0.008": 1.91448548865,
			"-0.007": 1.39910822704,
			"-0.006": 1.99788347553,
			"-0.005": 7.72935955174,
			"-0.004": 20.4475402811,
			"-0.003": 31.6679942241,
			"-0.002": 37.8592363576,
			"-0.001": 32.5403326087,
			"0.0": 32.6849966545,
			"0.001": 17.2084420424,
			"0.002": 11.685070008,
			"0.003": 12.3543518012,
			"0.004": 10.8182124026,
			"0.005": 4.96481502044,
			"0.006": 4.12084159614,
			"0.007": 4.05067779435,
			"0.008": 3.85526280214,
			"0.009": 3.10612740451,
			"0.01": 2.12186336661,
			"0.011": 2.55006214481,
			"0.012": 2.72676739171,
			"0.013": 3.39092478812,
			"0.014": 4.548129098,
			"0.015": 0.761648086207,
			"0.016": 0.0,
			"0.017": 0.0,
			"0.018": 0.0,
			"0.019": 0.0,
			"0.02": 0.0,
			"0.021": 0.0,
			"0.022": 0.0,
			"0.023": 0.0,
			"0.024": 0.0,
			"0.025": 0.0
		}
	}
}
