{
	 "smiles": "NC1=CC(=CC=C1)C(=O)NC1=CC(=CC=C1)C(F)(F)F", 
	 "Tm": 387.15, 
	 "num_atms": 31, 
	 "gaussian": { 
		 "optdone": 1, 
		 "sigma_profile": "yes", 
		 "theory": "DFT", 
		 "functional": "B3LYP", 
		 "basiset": "6-31G**", 
		 "properties": { 
			 "R2extent": 8462.6132, 
			 "electric_dipole_moment_norm": 4.43899644627, 
			 "electric_quadrupole_moment_norm": 28.9335778672, 
			 "total_energy": -1024.40037097, 
			 "HOMO_LUMO_gap": 0.16961, 
			 "cosmo_polarized_energy": -17.61, 
			 "cosmo_cavitation_energy": 37.41, 
			 "cosmo_dispersion_energy": -26.73, 
			 "cosmo_repulsion_energy": 1.97, 
			 "cosmo_total_nonelectrostatic_energy": 12.65, 
			 "SMD_solvation_energy": 7.79 
		},
		"coords": [
			{
				"x": 3.8647236176,
				"y": 0.2341479179,
				"z": -4.0368579986,
				"element": "N" 
			},
			{
				"x": 3.6502887507,
				"y": 1.1822653385,
				"z": -3.0385367625,
				"element": "C" 
			},
			{
				"x": 2.790165002,
				"y": 0.9076161095,
				"z": -1.9620629293,
				"element": "C" 
			},
			{
				"x": 2.6296568822,
				"y": 1.829181031,
				"z": -0.9193531624,
				"element": "C" 
			},
			{
				"x": 3.3431000013,
				"y": 3.0337850037,
				"z": -0.9316764456,
				"element": "C" 
			},
			{
				"x": 4.188276221,
				"y": 3.3135852139,
				"z": -2.00367987,
				"element": "C" 
			},
			{
				"x": 4.3415279957,
				"y": 2.4068937177,
				"z": -3.0496086474,
				"element": "C" 
			},
			{
				"x": 1.7284136116,
				"y": 1.5798001175,
				"z": 0.2576919902,
				"element": "C" 
			},
			{
				"x": 1.9291974075,
				"y": 2.1045251448,
				"z": 1.3467235365,
				"element": "O" 
			},
			{
				"x": 0.6595114112,
				"y": 0.7399900391,
				"z": 0.0015825035,
				"element": "N" 
			},
			{
				"x": -0.3424942401,
				"y": 0.2956860591,
				"z": 0.883194427,
				"element": "C" 
			},
			{
				"x": -1.361059212,
				"y": -0.5045058154,
				"z": 0.3434014296,
				"element": "C" 
			},
			{
				"x": -2.3786296186,
				"y": -0.9939013757,
				"z": 1.1582093347,
				"element": "C" 
			},
			{
				"x": -2.4003630229,
				"y": -0.6976243413,
				"z": 2.5235358815,
				"element": "C" 
			},
			{
				"x": -1.3864631784,
				"y": 0.0973250806,
				"z": 3.0543007271,
				"element": "C" 
			},
			{
				"x": -0.3597651451,
				"y": 0.5991114109,
				"z": 2.2548669468,
				"element": "C" 
			},
			{
				"x": -3.4946170993,
				"y": -1.7990058307,
				"z": 0.5497239159,
				"element": "C" 
			},
			{
				"x": -3.1053090797,
				"y": -2.4347523891,
				"z": -0.5800477691,
				"element": "F" 
			},
			{
				"x": -4.5487015269,
				"y": -1.018465625,
				"z": 0.2140854873,
				"element": "F" 
			},
			{
				"x": -3.9604403914,
				"y": -2.7374212026,
				"z": 1.4026272715,
				"element": "F" 
			},
			{
				"x": 4.222329929,
				"y": 0.5935646341,
				"z": -4.9105928912,
				"element": "H" 
			},
			{
				"x": 3.1229151692,
				"y": -0.4376216044,
				"z": -4.1741673191,
				"element": "H" 
			},
			{
				"x": 2.2972210687,
				"y": -0.061332019,
				"z": -1.9266297565,
				"element": "H" 
			},
			{
				"x": 3.2214989926,
				"y": 3.7244071096,
				"z": -0.1056629194,
				"element": "H" 
			},
			{
				"x": 4.736342938,
				"y": 4.2510625983,
				"z": -2.0291473865,
				"element": "H" 
			},
			{
				"x": 5.010597709,
				"y": 2.6343993272,
				"z": -3.8758180146,
				"element": "H" 
			},
			{
				"x": 0.525667484,
				"y": 0.4817809587,
				"z": -0.9649129452,
				"element": "H" 
			},
			{
				"x": -1.3561968683,
				"y": -0.7550468614,
				"z": -0.7132970272,
				"element": "H" 
			},
			{
				"x": -3.1906600984,
				"y": -1.0894257412,
				"z": 3.1538266364,
				"element": "H" 
			},
			{
				"x": -1.3888734623,
				"y": 0.3337117053,
				"z": 4.1141339856,
				"element": "H" 
			},
			{
				"x": 0.4219387521,
				"y": 1.2199642883,
				"z": 2.6679477711,
				"element": "H" 
			}
		],
		 "valence_orbital": [ 
			{
				"type": "occ",
				"energy": -0.2666,
				"method": "rhf"
			},
			{
				"type": "occ",
				"energy": -0.26599,
				"method": "rhf"
			},
			{
				"type": "occ",
				"energy": -0.25733,
				"method": "rhf"
			},
			{
				"type": "occ",
				"energy": -0.23007,
				"method": "rhf"
			},
			{
				"type": "occ",
				"energy": -0.21595,
				"method": "rhf"
			},
			{
				"type": "unocc",
				"energy": -0.04634,
				"method": "rhf"
			},
			{
				"type": "unocc",
				"energy": -0.02304,
				"method": "rhf"
			},
			{
				"type": "unocc",
				"energy": -0.00681,
				"method": "rhf"
			},
			{
				"type": "unocc",
				"energy": 0.00342,
				"method": "rhf"
			},
			{
				"type": "unocc",
				"energy": 0.05665,
				"method": "rhf"
			}
		],
		"cosmo_sigma_profile": { 
			"-0.025": 0.0,
			"-0.024": 0.0,
			"-0.023": 0.0,
			"-0.022": 0.0,
			"-0.021": 0.0,
			"-0.02": 0.0,
			"-0.019": 0.0,
			"-0.018": 0.0,
			"-0.017": 0.0,
			"-0.016": 0.0244402962831,
			"-0.015": 1.07985647467,
			"-0.014": 1.18380976722,
			"-0.013": 2.13966496481,
			"-0.012": 4.25245488466,
			"-0.011": 4.55177347511,
			"-0.01": 4.85034197628,
			"-0.009": 5.29020479289,
			"-0.008": 5.70863762447,
			"-0.007": 6.86492511556,
			"-0.006": 10.2323636282,
			"-0.005": 12.8920392682,
			"-0.004": 15.1804086417,
			"-0.003": 13.0544790507,
			"-0.002": 14.0486267302,
			"-0.001": 15.6235901777,
			"0.0": 18.9079997127,
			"0.001": 23.8813836888,
			"0.002": 34.1205525606,
			"0.003": 47.8935574412,
			"0.004": 18.8767051955,
			"0.005": 13.9027663564,
			"0.006": 5.83203656207,
			"0.007": 2.79947142482,
			"0.008": 2.18868086279,
			"0.009": 2.87948044062,
			"0.01": 2.12534548914,
			"0.011": 2.54109185693,
			"0.012": 3.39533044234,
			"0.013": 2.81903316519,
			"0.014": 0.780709778192,
			"0.015": 0.0136515689694,
			"0.016": 0.0,
			"0.017": 0.0,
			"0.018": 0.0,
			"0.019": 0.0,
			"0.02": 0.0,
			"0.021": 0.0,
			"0.022": 0.0,
			"0.023": 0.0,
			"0.024": 0.0,
			"0.025": 0.0
		}
	}
}
