{
	 "smiles": "CCN(CC)C1=CC=C(C(C2=CC=C(C=C2C)N(CC)CC)C2=CC=C(C=C2C)N(CC)CC)C(C)=C1", 
	 "Tm": 437.15, 
	 "num_atms": 86, 
	 "gaussian": { 
		 "optdone": 1, 
		 "sigma_profile": "yes", 
		 "theory": "DFT", 
		 "functional": "B3LYP", 
		 "basiset": "6-31G**", 
		 "properties": { 
			 "R2extent": 26451.2298, 
			 "electric_dipole_moment_norm": 1.63111690262, 
			 "electric_quadrupole_moment_norm": 7.77323757517, 
			 "total_energy": -1489.43314557, 
			 "HOMO_LUMO_gap": 0.17841, 
			 "cosmo_polarized_energy": -12.9, 
			 "cosmo_cavitation_energy": 80.39, 
			 "cosmo_dispersion_energy": -51.15, 
			 "cosmo_repulsion_energy": 3.92, 
			 "cosmo_total_nonelectrostatic_energy": 33.16, 
			 "SMD_solvation_energy": 11.09 
		},
		"coords": [
			{
				"x": 2.1091922439,
				"y": -4.0751748562,
				"z": 5.2315711027,
				"element": "C" 
			},
			{
				"x": 0.681403511,
				"y": -4.4556606398,
				"z": 4.8134609992,
				"element": "C" 
			},
			{
				"x": 0.5465333507,
				"y": -4.81047138,
				"z": 3.4062451514,
				"element": "N" 
			},
			{
				"x": 0.6943194855,
				"y": -6.2209687215,
				"z": 3.0701555602,
				"element": "C" 
			},
			{
				"x": -0.6266654595,
				"y": -7.0037735918,
				"z": 3.0512533313,
				"element": "C" 
			},
			{
				"x": 0.3026346632,
				"y": -3.8457070536,
				"z": 2.4329214481,
				"element": "C" 
			},
			{
				"x": 0.3074647946,
				"y": -2.467480967,
				"z": 2.7324397698,
				"element": "C" 
			},
			{
				"x": 0.0521705989,
				"y": -1.5233923979,
				"z": 1.7411416826,
				"element": "C" 
			},
			{
				"x": -0.2070722424,
				"y": -1.8741797098,
				"z": 0.4126226326,
				"element": "C" 
			},
			{
				"x": -0.4529359464,
				"y": -0.8140852043,
				"z": -0.6689362969,
				"element": "C" 
			},
			{
				"x": -1.0523967479,
				"y": 0.4809635307,
				"z": -0.1041057413,
				"element": "C" 
			},
			{
				"x": -0.2608548542,
				"y": 1.6127317379,
				"z": 0.1325132145,
				"element": "C" 
			},
			{
				"x": -0.783069795,
				"y": 2.7889690656,
				"z": 0.6588030703,
				"element": "C" 
			},
			{
				"x": -2.149073121,
				"y": 2.8890187032,
				"z": 0.9833845657,
				"element": "C" 
			},
			{
				"x": -2.9421304245,
				"y": 1.7490724026,
				"z": 0.7532843454,
				"element": "C" 
			},
			{
				"x": -2.4236040567,
				"y": 0.5645396879,
				"z": 0.2153019191,
				"element": "C" 
			},
			{
				"x": -3.3551768921,
				"y": -0.6089741476,
				"z": 0.0074605088,
				"element": "C" 
			},
			{
				"x": -2.6850772647,
				"y": 4.1021519428,
				"z": 1.4739120583,
				"element": "N" 
			},
			{
				"x": -1.9460029226,
				"y": 4.7679091352,
				"z": 2.5546389739,
				"element": "C" 
			},
			{
				"x": -2.1050469275,
				"y": 4.1174262217,
				"z": 3.937253753,
				"element": "C" 
			},
			{
				"x": -4.1425760953,
				"y": 4.2192989852,
				"z": 1.5269496733,
				"element": "C" 
			},
			{
				"x": -4.6373669366,
				"y": 5.6635508531,
				"z": 1.6379949877,
				"element": "C" 
			},
			{
				"x": 0.778599268,
				"y": -0.5626969547,
				"z": -1.5497326002,
				"element": "C" 
			},
			{
				"x": 2.0741797429,
				"y": -0.7652552332,
				"z": -1.0708777233,
				"element": "C" 
			},
			{
				"x": 3.2069553817,
				"y": -0.5279772385,
				"z": -1.8522121995,
				"element": "C" 
			},
			{
				"x": 3.0807457414,
				"y": -0.0582695505,
				"z": -3.1694994744,
				"element": "C" 
			},
			{
				"x": 1.7712778751,
				"y": 0.1510293971,
				"z": -3.649819984,
				"element": "C" 
			},
			{
				"x": 0.6358333942,
				"y": -0.0920321609,
				"z": -2.8778885078,
				"element": "C" 
			},
			{
				"x": -0.72731898,
				"y": 0.1720984246,
				"z": -3.4778759454,
				"element": "C" 
			},
			{
				"x": 4.1949982614,
				"y": 0.244973252,
				"z": -3.9867780118,
				"element": "N" 
			},
			{
				"x": 4.1777623635,
				"y": -0.279887777,
				"z": -5.3589090978,
				"element": "C" 
			},
			{
				"x": 4.4759998458,
				"y": -1.7823533751,
				"z": -5.4776498445,
				"element": "C" 
			},
			{
				"x": 5.5044159358,
				"y": 0.2848375549,
				"z": -3.3345707689,
				"element": "C" 
			},
			{
				"x": 6.5682319907,
				"y": 1.0298967363,
				"z": -4.1444109893,
				"element": "C" 
			},
			{
				"x": -0.2109935192,
				"y": -3.2511479319,
				"z": 0.0951110104,
				"element": "C" 
			},
			{
				"x": -0.4847314044,
				"y": -3.7326698628,
				"z": -1.3127211992,
				"element": "C" 
			},
			{
				"x": 0.0333088451,
				"y": -4.1991589343,
				"z": 1.0910940324,
				"element": "C" 
			},
			{
				"x": 2.802662162,
				"y": -4.9028751248,
				"z": 5.049272392,
				"element": "H" 
			},
			{
				"x": 2.4674049203,
				"y": -3.2094624265,
				"z": 4.6674803146,
				"element": "H" 
			},
			{
				"x": 2.1475121831,
				"y": -3.8308182657,
				"z": 6.2991466513,
				"element": "H" 
			},
			{
				"x": 0.3448980948,
				"y": -5.3137048972,
				"z": 5.4073608703,
				"element": "H" 
			},
			{
				"x": -0.012250358,
				"y": -3.6417853133,
				"z": 5.0498972675,
				"element": "H" 
			},
			{
				"x": 1.3718815704,
				"y": -6.6698282706,
				"z": 3.8061477866,
				"element": "H" 
			},
			{
				"x": 1.2036509842,
				"y": -6.3133042534,
				"z": 2.1050122952,
				"element": "H" 
			},
			{
				"x": -1.3192244295,
				"y": -6.5908437935,
				"z": 2.3123839811,
				"element": "H" 
			},
			{
				"x": -1.1182379421,
				"y": -6.9624596838,
				"z": 4.0289077764,
				"element": "H" 
			},
			{
				"x": -0.4488895753,
				"y": -8.0570210499,
				"z": 2.8062735251,
				"element": "H" 
			},
			{
				"x": 0.5219280899,
				"y": -2.1175847314,
				"z": 3.7349981226,
				"element": "H" 
			},
			{
				"x": 0.0582191755,
				"y": -0.4730709321,
				"z": 2.015798433,
				"element": "H" 
			},
			{
				"x": -1.2166350102,
				"y": -1.2323971506,
				"z": -1.3339531564,
				"element": "H" 
			},
			{
				"x": 0.7936872655,
				"y": 1.5791986912,
				"z": -0.1227460269,
				"element": "H" 
			},
			{
				"x": -0.1271064325,
				"y": 3.6439669779,
				"z": 0.7828195041,
				"element": "H" 
			},
			{
				"x": -3.9949113926,
				"y": 1.7633639745,
				"z": 1.0114981224,
				"element": "H" 
			},
			{
				"x": -3.4510166535,
				"y": -0.8666565379,
				"z": -1.0551926715,
				"element": "H" 
			},
			{
				"x": -2.9932891061,
				"y": -1.5052515752,
				"z": 0.5222946487,
				"element": "H" 
			},
			{
				"x": -4.3581260479,
				"y": -0.3845145573,
				"z": 0.3806692063,
				"element": "H" 
			},
			{
				"x": -0.8881252499,
				"y": 4.7914054027,
				"z": 2.2868646672,
				"element": "H" 
			},
			{
				"x": -2.2634184938,
				"y": 5.8138076372,
				"z": 2.5946899303,
				"element": "H" 
			},
			{
				"x": -1.5052469816,
				"y": 4.6517401305,
				"z": 4.6822192408,
				"element": "H" 
			},
			{
				"x": -3.1461412176,
				"y": 4.1331385425,
				"z": 4.2762963399,
				"element": "H" 
			},
			{
				"x": -1.7722713189,
				"y": 3.0750804406,
				"z": 3.9149656511,
				"element": "H" 
			},
			{
				"x": -4.5283614151,
				"y": 3.7996313506,
				"z": 0.5931859145,
				"element": "H" 
			},
			{
				"x": -4.5866218613,
				"y": 3.6210854792,
				"z": 2.343244748,
				"element": "H" 
			},
			{
				"x": -5.7230081524,
				"y": 5.6856212095,
				"z": 1.4995159772,
				"element": "H" 
			},
			{
				"x": -4.4270671905,
				"y": 6.1105667811,
				"z": 2.6140730717,
				"element": "H" 
			},
			{
				"x": -4.1803720028,
				"y": 6.2904839951,
				"z": 0.8660248029,
				"element": "H" 
			},
			{
				"x": 2.2084355961,
				"y": -1.1399780262,
				"z": -0.0609056162,
				"element": "H" 
			},
			{
				"x": 4.1822507312,
				"y": -0.7339215792,
				"z": -1.4275064364,
				"element": "H" 
			},
			{
				"x": 1.6311995836,
				"y": 0.5472468723,
				"z": -4.6508170826,
				"element": "H" 
			},
			{
				"x": -1.3073361619,
				"y": 0.8715960548,
				"z": -2.866771918,
				"element": "H" 
			},
			{
				"x": -1.3191525976,
				"y": -0.7487052125,
				"z": -3.559162075,
				"element": "H" 
			},
			{
				"x": -0.6378826902,
				"y": 0.5932875466,
				"z": -4.4828939251,
				"element": "H" 
			},
			{
				"x": 3.1993882304,
				"y": -0.071957963,
				"z": -5.7959619285,
				"element": "H" 
			},
			{
				"x": 4.8953108539,
				"y": 0.2917865962,
				"z": -5.9546228747,
				"element": "H" 
			},
			{
				"x": 3.7542572729,
				"y": -2.3672537313,
				"z": -4.8990680434,
				"element": "H" 
			},
			{
				"x": 5.4792803286,
				"y": -2.0281180426,
				"z": -5.1143295141,
				"element": "H" 
			},
			{
				"x": 4.4145908024,
				"y": -2.1020774696,
				"z": -6.5237019336,
				"element": "H" 
			},
			{
				"x": 5.3687225016,
				"y": 0.8110654353,
				"z": -2.3850466929,
				"element": "H" 
			},
			{
				"x": 5.8820437636,
				"y": -0.7220553258,
				"z": -3.0802012371,
				"element": "H" 
			},
			{
				"x": 6.8754121168,
				"y": 0.4864269785,
				"z": -5.0428342381,
				"element": "H" 
			},
			{
				"x": 7.4624211054,
				"y": 1.1672981121,
				"z": -3.5281052406,
				"element": "H" 
			},
			{
				"x": 6.2046114789,
				"y": 2.017035819,
				"z": -4.4463440808,
				"element": "H" 
			},
			{
				"x": -1.497042764,
				"y": -3.466998153,
				"z": -1.6431325697,
				"element": "H" 
			},
			{
				"x": -0.3927459898,
				"y": -4.8200644476,
				"z": -1.3811452121,
				"element": "H" 
			},
			{
				"x": 0.2122480655,
				"y": -3.2875897082,
				"z": -2.0308103108,
				"element": "H" 
			},
			{
				"x": -0.005469545,
				"y": -5.244285748,
				"z": 0.8061861373,
				"element": "H" 
			}
		],
		 "valence_orbital": [ 
			{
				"type": "occ",
				"energy": -0.22305,
				"method": "rhf"
			},
			{
				"type": "occ",
				"energy": -0.22253,
				"method": "rhf"
			},
			{
				"type": "occ",
				"energy": -0.18064,
				"method": "rhf"
			},
			{
				"type": "occ",
				"energy": -0.17861,
				"method": "rhf"
			},
			{
				"type": "occ",
				"energy": -0.16971,
				"method": "rhf"
			},
			{
				"type": "unocc",
				"energy": 0.0087,
				"method": "rhf"
			},
			{
				"type": "unocc",
				"energy": 0.01643,
				"method": "rhf"
			},
			{
				"type": "unocc",
				"energy": 0.02152,
				"method": "rhf"
			},
			{
				"type": "unocc",
				"energy": 0.02509,
				"method": "rhf"
			},
			{
				"type": "unocc",
				"energy": 0.02661,
				"method": "rhf"
			}
		],
		"cosmo_sigma_profile": { 
			"-0.025": 0.0,
			"-0.024": 0.0,
			"-0.023": 0.0,
			"-0.022": 0.0,
			"-0.021": 0.0,
			"-0.02": 0.0,
			"-0.019": 0.0,
			"-0.018": 0.0,
			"-0.017": 0.0,
			"-0.016": 0.0,
			"-0.015": 0.0,
			"-0.014": 0.0,
			"-0.013": 0.0,
			"-0.012": 0.0,
			"-0.011": 0.0,
			"-0.01": 0.0,
			"-0.009": 0.0,
			"-0.008": 0.0,
			"-0.007": 0.0,
			"-0.006": 1.93267791626,
			"-0.005": 8.06709224049,
			"-0.004": 41.3969071238,
			"-0.003": 80.1484043884,
			"-0.002": 97.1712282146,
			"-0.001": 88.8885017553,
			"0.0": 80.9707135531,
			"0.001": 79.2856446259,
			"0.002": 37.2825815645,
			"0.003": 23.1063321427,
			"0.004": 23.1630301108,
			"0.005": 21.2545682289,
			"0.006": 20.0735567928,
			"0.007": 16.7568168977,
			"0.008": 3.72893788544,
			"0.009": 1.63703157945,
			"0.01": 0.954728009735,
			"0.011": 0.876942749107,
			"0.012": 0.525493838964,
			"0.013": 0.0,
			"0.014": 0.0,
			"0.015": 0.0,
			"0.016": 0.0,
			"0.017": 0.0,
			"0.018": 0.0,
			"0.019": 0.0,
			"0.02": 0.0,
			"0.021": 0.0,
			"0.022": 0.0,
			"0.023": 0.0,
			"0.024": 0.0,
			"0.025": 0.0
		}
	}
}
