{
	 "smiles": "[O-][N+](=O)C1=C2C=CC=C(C=N/C3=CC=CC=C3)C2=CC=C1", 
	 "Tm": 356.65, 
	 "num_atms": 33, 
	 "gaussian": { 
		 "optdone": 1, 
		 "sigma_profile": "yes", 
		 "theory": "DFT", 
		 "functional": "B3LYP", 
		 "basiset": "6-31G**", 
		 "properties": { 
			 "R2extent": 7697.0029, 
			 "electric_dipole_moment_norm": 2.37643368306, 
			 "electric_quadrupole_moment_norm": 32.6746489804, 
			 "total_energy": -914.875587842, 
			 "HOMO_LUMO_gap": 0.12241, 
			 "cosmo_polarized_energy": -12.36, 
			 "cosmo_cavitation_energy": 37.88, 
			 "cosmo_dispersion_energy": -26.8, 
			 "cosmo_repulsion_energy": 2.02, 
			 "cosmo_total_nonelectrostatic_energy": 13.1, 
			 "SMD_solvation_energy": 6.71 
		},
		"coords": [
			{
				"x": 0.7356761512,
				"y": 5.1890124403,
				"z": -0.7018922115,
				"element": "O" 
			},
			{
				"x": 0.0770630151,
				"y": 4.3429954406,
				"z": -0.0972181825,
				"element": "N" 
			},
			{
				"x": -0.7156959991,
				"y": 4.6046122013,
				"z": 0.8090741136,
				"element": "O" 
			},
			{
				"x": 0.2326792088,
				"y": 2.9376710298,
				"z": -0.5200795449,
				"element": "C" 
			},
			{
				"x": -0.0008006389,
				"y": 1.8401989504,
				"z": 0.3703832731,
				"element": "C" 
			},
			{
				"x": -0.3479203784,
				"y": 1.9677309369,
				"z": 1.7434113996,
				"element": "C" 
			},
			{
				"x": -0.5334118326,
				"y": 0.8489419678,
				"z": 2.524312619,
				"element": "C" 
			},
			{
				"x": -0.3847520302,
				"y": -0.4456166309,
				"z": 1.9905951572,
				"element": "C" 
			},
			{
				"x": -0.0321785233,
				"y": -0.6275232977,
				"z": 0.6652328461,
				"element": "C" 
			},
			{
				"x": 0.261034368,
				"y": -1.9946811191,
				"z": 0.1514625689,
				"element": "C" 
			},
			{
				"x": -0.344199711,
				"y": -3.1003318842,
				"z": 0.361064036,
				"element": "N" 
			},
			{
				"x": -1.5808843348,
				"y": -3.2107467604,
				"z": 1.0289455782,
				"element": "C" 
			},
			{
				"x": -1.6875354607,
				"y": -4.1315851087,
				"z": 2.0841691364,
				"element": "C" 
			},
			{
				"x": -2.9084298721,
				"y": -4.3218207467,
				"z": 2.7284978162,
				"element": "C" 
			},
			{
				"x": -4.0473934492,
				"y": -3.6321985696,
				"z": 2.3048068738,
				"element": "C" 
			},
			{
				"x": -3.9525539722,
				"y": -2.7442838824,
				"z": 1.2309590675,
				"element": "C" 
			},
			{
				"x": -2.7298889078,
				"y": -2.526139859,
				"z": 0.5980688757,
				"element": "C" 
			},
			{
				"x": 0.1683553603,
				"y": 0.5176917188,
				"z": -0.1783439095,
				"element": "C" 
			},
			{
				"x": 0.5071957077,
				"y": 0.3694354142,
				"z": -1.5507203133,
				"element": "C" 
			},
			{
				"x": 0.7293429499,
				"y": 1.4610952028,
				"z": -2.3594198222,
				"element": "C" 
			},
			{
				"x": 0.6062037651,
				"y": 2.7597472128,
				"z": -1.8351100157,
				"element": "C" 
			},
			{
				"x": -0.4718400991,
				"y": 2.9524603915,
				"z": 2.1684048882,
				"element": "H" 
			},
			{
				"x": -0.7928594907,
				"y": 0.9661161874,
				"z": 3.5720231322,
				"element": "H" 
			},
			{
				"x": -0.5254746484,
				"y": -1.309621848,
				"z": 2.6304155487,
				"element": "H" 
			},
			{
				"x": 1.169033227,
				"y": -2.0726272935,
				"z": -0.4545886594,
				"element": "H" 
			},
			{
				"x": -0.8034650235,
				"y": -4.6838791023,
				"z": 2.3873555048,
				"element": "H" 
			},
			{
				"x": -2.9734896323,
				"y": -5.0245680621,
				"z": 3.5544579987,
				"element": "H" 
			},
			{
				"x": -5.0011020354,
				"y": -3.7950408978,
				"z": 2.7975797264,
				"element": "H" 
			},
			{
				"x": -4.8351612145,
				"y": -2.2145942635,
				"z": 0.8833349,
				"element": "H" 
			},
			{
				"x": -2.6587609722,
				"y": -1.8400636546,
				"z": -0.2400436253,
				"element": "H" 
			},
			{
				"x": 0.5822051324,
				"y": -0.6262415703,
				"z": -1.9734903135,
				"element": "H" 
			},
			{
				"x": 0.991612654,
				"y": 1.3274478467,
				"z": -3.4037100042,
				"element": "H" 
			},
			{
				"x": 0.7845966868,
				"y": 3.6327076097,
				"z": -2.4500384582,
				"element": "H" 
			}
		],
		 "valence_orbital": [ 
			{
				"type": "occ",
				"energy": -0.28623,
				"method": "rhf"
			},
			{
				"type": "occ",
				"energy": -0.27213,
				"method": "rhf"
			},
			{
				"type": "occ",
				"energy": -0.25461,
				"method": "rhf"
			},
			{
				"type": "occ",
				"energy": -0.24321,
				"method": "rhf"
			},
			{
				"type": "occ",
				"energy": -0.22075,
				"method": "rhf"
			},
			{
				"type": "unocc",
				"energy": -0.09834,
				"method": "rhf"
			},
			{
				"type": "unocc",
				"energy": -0.06442,
				"method": "rhf"
			},
			{
				"type": "unocc",
				"energy": -0.0374,
				"method": "rhf"
			},
			{
				"type": "unocc",
				"energy": -0.02675,
				"method": "rhf"
			},
			{
				"type": "unocc",
				"energy": -0.00389,
				"method": "rhf"
			}
		],
		"cosmo_sigma_profile": { 
			"-0.025": 0.0,
			"-0.024": 0.0,
			"-0.023": 0.0,
			"-0.022": 0.0,
			"-0.021": 0.0,
			"-0.02": 0.0,
			"-0.019": 0.0,
			"-0.018": 0.0,
			"-0.017": 0.0,
			"-0.016": 0.0,
			"-0.015": 0.0,
			"-0.014": 0.0,
			"-0.013": 0.0,
			"-0.012": 0.0,
			"-0.011": 0.0,
			"-0.01": 0.0,
			"-0.009": 0.677058733208,
			"-0.008": 4.87770359212,
			"-0.007": 10.6663893209,
			"-0.006": 17.6746789849,
			"-0.005": 24.3277967537,
			"-0.004": 24.2866125958,
			"-0.003": 22.9956869439,
			"-0.002": 19.0942588061,
			"-0.001": 20.1915309315,
			"0.0": 26.0944439005,
			"0.001": 27.2846228826,
			"0.002": 21.7786916461,
			"0.003": 17.7353112092,
			"0.004": 13.9292981877,
			"0.005": 13.8977387899,
			"0.006": 10.393726172,
			"0.007": 8.74430977643,
			"0.008": 8.22675556903,
			"0.009": 4.84898314692,
			"0.01": 3.81142277594,
			"0.011": 1.04578080263,
			"0.012": 1.10360714952,
			"0.013": 0.380505808572,
			"0.014": 0.982995262931,
			"0.015": 0.409198818985,
			"0.016": 0.0,
			"0.017": 0.0,
			"0.018": 0.0,
			"0.019": 0.0,
			"0.02": 0.0,
			"0.021": 0.0,
			"0.022": 0.0,
			"0.023": 0.0,
			"0.024": 0.0,
			"0.025": 0.0
		}
	}
}
