{
	 "smiles": "COC1=CC=C(C=C1)C1=NN=C(S)N1C(C)C", 
	 "Tm": 492.15, 
	 "num_atms": 32, 
	 "gaussian": { 
		 "optdone": 1, 
		 "sigma_profile": "yes", 
		 "theory": "DFT", 
		 "functional": "B3LYP", 
		 "basiset": "6-31G**", 
		 "properties": { 
			 "R2extent": 7132.8287, 
			 "electric_dipole_moment_norm": 4.68268388213, 
			 "electric_quadrupole_moment_norm": 18.6338415511, 
			 "total_energy": -1103.95625912, 
			 "HOMO_LUMO_gap": 0.19157, 
			 "cosmo_polarized_energy": -17.22, 
			 "cosmo_cavitation_energy": 36.37, 
			 "cosmo_dispersion_energy": -26.24, 
			 "cosmo_repulsion_energy": 1.99, 
			 "cosmo_total_nonelectrostatic_energy": 12.12, 
			 "SMD_solvation_energy": 4.81 
		},
		"coords": [
			{
				"x": 0.3828550726,
				"y": 3.4960835164,
				"z": 2.6293254552,
				"element": "C" 
			},
			{
				"x": 1.2384704671,
				"y": 2.9939789017,
				"z": 1.6132314994,
				"element": "O" 
			},
			{
				"x": 0.7956512043,
				"y": 1.9575229357,
				"z": 0.8485135754,
				"element": "C" 
			},
			{
				"x": 1.6739455016,
				"y": 1.5234127644,
				"z": -0.1561097355,
				"element": "C" 
			},
			{
				"x": 1.3176424405,
				"y": 0.4720470298,
				"z": -0.9892054785,
				"element": "C" 
			},
			{
				"x": 0.0838429278,
				"y": -0.1886742454,
				"z": -0.8353533828,
				"element": "C" 
			},
			{
				"x": -0.7893237994,
				"y": 0.2663181031,
				"z": 0.1618939283,
				"element": "C" 
			},
			{
				"x": -0.4465989847,
				"y": 1.3272158939,
				"z": 0.9990660898,
				"element": "C" 
			},
			{
				"x": -0.360579767,
				"y": -1.2760267234,
				"z": -1.7206457363,
				"element": "C" 
			},
			{
				"x": -1.5738467738,
				"y": -1.3538371927,
				"z": -2.2261277834,
				"element": "N" 
			},
			{
				"x": -1.6421118461,
				"y": -2.4885057365,
				"z": -3.0007723821,
				"element": "N" 
			},
			{
				"x": -0.4651804022,
				"y": -3.0682724396,
				"z": -2.9395624318,
				"element": "C" 
			},
			{
				"x": -0.0687887639,
				"y": -4.5585437531,
				"z": -3.8124150628,
				"element": "S" 
			},
			{
				"x": 0.4037726985,
				"y": -2.3587067212,
				"z": -2.1433318645,
				"element": "N" 
			},
			{
				"x": 1.7497728796,
				"y": -2.7424434785,
				"z": -1.6612320311,
				"element": "C" 
			},
			{
				"x": 1.7097895485,
				"y": -4.0525052319,
				"z": -0.8632385431,
				"element": "C" 
			},
			{
				"x": 2.7735814428,
				"y": -2.7601949418,
				"z": -2.8027640309,
				"element": "C" 
			},
			{
				"x": 0.9268198249,
				"y": 4.3146077303,
				"z": 3.1028117241,
				"element": "H" 
			},
			{
				"x": -0.5570552471,
				"y": 3.8799941448,
				"z": 2.2131081553,
				"element": "H" 
			},
			{
				"x": 0.1561245795,
				"y": 2.7304884502,
				"z": 3.3822431431,
				"element": "H" 
			},
			{
				"x": 2.621093563,
				"y": 2.0391517729,
				"z": -0.2744413027,
				"element": "H" 
			},
			{
				"x": 1.9931666387,
				"y": 0.1839149859,
				"z": -1.7891211952,
				"element": "H" 
			},
			{
				"x": -1.7530420353,
				"y": -0.2193395723,
				"z": 0.2720279582,
				"element": "H" 
			},
			{
				"x": -1.1476414809,
				"y": 1.6491145764,
				"z": 1.7597706781,
				"element": "H" 
			},
			{
				"x": -1.309201188,
				"y": -4.6427818856,
				"z": -4.330368075,
				"element": "H" 
			},
			{
				"x": 2.0254629715,
				"y": -1.9457910278,
				"z": -0.9680632396,
				"element": "H" 
			},
			{
				"x": 1.4515368006,
				"y": -4.9107178113,
				"z": -1.4890481494,
				"element": "H" 
			},
			{
				"x": 0.980097634,
				"y": -3.9877188496,
				"z": -0.0513405697,
				"element": "H" 
			},
			{
				"x": 2.6950476306,
				"y": -4.2390286736,
				"z": -0.4248802349,
				"element": "H" 
			},
			{
				"x": 2.7867179835,
				"y": -1.8034619922,
				"z": -3.3330033192,
				"element": "H" 
			},
			{
				"x": 2.5595680573,
				"y": -3.5467186669,
				"z": -3.5319588015,
				"element": "H" 
			},
			{
				"x": 3.7731104214,
				"y": -2.9424818621,
				"z": -2.396308857,
				"element": "H" 
			}
		],
		 "valence_orbital": [ 
			{
				"type": "occ",
				"energy": -0.28213,
				"method": "rhf"
			},
			{
				"type": "occ",
				"energy": -0.26007,
				"method": "rhf"
			},
			{
				"type": "occ",
				"energy": -0.24688,
				"method": "rhf"
			},
			{
				"type": "occ",
				"energy": -0.24117,
				"method": "rhf"
			},
			{
				"type": "occ",
				"energy": -0.20856,
				"method": "rhf"
			},
			{
				"type": "unocc",
				"energy": -0.01699,
				"method": "rhf"
			},
			{
				"type": "unocc",
				"energy": -0.01093,
				"method": "rhf"
			},
			{
				"type": "unocc",
				"energy": 0.01046,
				"method": "rhf"
			},
			{
				"type": "unocc",
				"energy": 0.03415,
				"method": "rhf"
			},
			{
				"type": "unocc",
				"energy": 0.05563,
				"method": "rhf"
			}
		],
		"cosmo_sigma_profile": { 
			"-0.025": 0.0,
			"-0.024": 0.0,
			"-0.023": 0.0,
			"-0.022": 0.0,
			"-0.021": 0.0,
			"-0.02": 0.0,
			"-0.019": 0.0,
			"-0.018": 0.0,
			"-0.017": 0.0,
			"-0.016": 0.0,
			"-0.015": 0.0,
			"-0.014": 0.0,
			"-0.013": 0.0,
			"-0.012": 0.683127323616,
			"-0.011": 1.53865868178,
			"-0.01": 1.35798670403,
			"-0.009": 1.11369180855,
			"-0.008": 1.35762540988,
			"-0.007": 4.01455497576,
			"-0.006": 15.6576327554,
			"-0.005": 26.1570199329,
			"-0.004": 30.1056937007,
			"-0.003": 26.9619888443,
			"-0.002": 23.4190281141,
			"-0.001": 26.739947631,
			"0.0": 22.7007685417,
			"0.001": 15.3658473781,
			"0.002": 16.0595134673,
			"0.003": 15.7405938406,
			"0.004": 17.4158786529,
			"0.005": 8.61368839883,
			"0.006": 5.68528485877,
			"0.007": 4.05451985453,
			"0.008": 3.34370749812,
			"0.009": 3.60743293908,
			"0.01": 2.98567948787,
			"0.011": 1.92100484003,
			"0.012": 2.29573779833,
			"0.013": 3.73898498312,
			"0.014": 3.16348215299,
			"0.015": 2.36695972223,
			"0.016": 2.1342160327,
			"0.017": 0.777162262931,
			"0.018": 0.0,
			"0.019": 0.0,
			"0.02": 0.0,
			"0.021": 0.0,
			"0.022": 0.0,
			"0.023": 0.0,
			"0.024": 0.0,
			"0.025": 0.0
		}
	}
}
