{
	 "smiles": "CC1=C(F)C(=CC(=C1)S(Cl)(=O)=O)C(O)=O", 
	 "Tm": 443.15, 
	 "num_atms": 21, 
	 "gaussian": { 
		 "optdone": 1, 
		 "sigma_profile": "yes", 
		 "theory": "DFT", 
		 "functional": "B3LYP", 
		 "basiset": "6-31G**", 
		 "properties": { 
			 "R2extent": 4291.6866, 
			 "electric_dipole_moment_norm": 6.84307001645, 
			 "electric_quadrupole_moment_norm": 17.356650712, 
			 "total_energy": -1567.52288332, 
			 "HOMO_LUMO_gap": 0.19633, 
			 "cosmo_polarized_energy": -16.58, 
			 "cosmo_cavitation_energy": 29.91, 
			 "cosmo_dispersion_energy": -22.14, 
			 "cosmo_repulsion_energy": 1.68, 
			 "cosmo_total_nonelectrostatic_energy": 9.45, 
			 "SMD_solvation_energy": 5.42 
		},
		"coords": [
			{
				"x": -1.6363818269,
				"y": -3.500366135,
				"z": -0.6067708363,
				"element": "C" 
			},
			{
				"x": -0.8983044503,
				"y": -2.2412479001,
				"z": -0.2318338575,
				"element": "C" 
			},
			{
				"x": -0.0940542359,
				"y": -2.2015714216,
				"z": 0.9112897602,
				"element": "C" 
			},
			{
				"x": -0.034286962,
				"y": -3.352204105,
				"z": 1.6425481485,
				"element": "F" 
			},
			{
				"x": 0.6339663039,
				"y": -1.0876329852,
				"z": 1.3358382221,
				"element": "C" 
			},
			{
				"x": 0.5424061644,
				"y": 0.0718709743,
				"z": 0.5544162189,
				"element": "C" 
			},
			{
				"x": -0.2525494379,
				"y": 0.0593033439,
				"z": -0.5827961957,
				"element": "C" 
			},
			{
				"x": -0.9682209696,
				"y": -1.0711523434,
				"z": -0.9875899432,
				"element": "C" 
			},
			{
				"x": -0.3508652935,
				"y": 1.5363347796,
				"z": -1.5892398486,
				"element": "S" 
			},
			{
				"x": -2.0186153559,
				"y": 2.5224863675,
				"z": -0.7071542012,
				"element": "Cl" 
			},
			{
				"x": 0.810270116,
				"y": 2.3749456476,
				"z": -1.3299266901,
				"element": "O" 
			},
			{
				"x": -0.7647654495,
				"y": 1.1609032769,
				"z": -2.9354047703,
				"element": "O" 
			},
			{
				"x": 1.5200029013,
				"y": -1.0107985543,
				"z": 2.5605700442,
				"element": "C" 
			},
			{
				"x": 1.6258742591,
				"y": -2.1051416883,
				"z": 3.3354645241,
				"element": "O" 
			},
			{
				"x": 2.1136361156,
				"y": 0.0046912788,
				"z": 2.8343705196,
				"element": "O" 
			},
			{
				"x": -0.9427776057,
				"y": -4.3319737859,
				"z": -0.7672381784,
				"element": "H" 
			},
			{
				"x": -2.2114931974,
				"y": -3.351439025,
				"z": -1.5225405494,
				"element": "H" 
			},
			{
				"x": -2.3259650219,
				"y": -3.8045697994,
				"z": 0.1871624917,
				"element": "H" 
			},
			{
				"x": 1.1043198857,
				"y": 0.9476996707,
				"z": 0.8585695767,
				"element": "H" 
			},
			{
				"x": -1.566862839,
				"y": -1.039213949,
				"z": -1.891534238,
				"element": "H" 
			},
			{
				"x": 1.0931668997,
				"y": -2.8349236471,
				"z": 2.9842998027,
				"element": "H" 
			}
		],
		 "valence_orbital": [ 
			{
				"type": "occ",
				"energy": -0.33407,
				"method": "rhf"
			},
			{
				"type": "occ",
				"energy": -0.32231,
				"method": "rhf"
			},
			{
				"type": "occ",
				"energy": -0.30538,
				"method": "rhf"
			},
			{
				"type": "occ",
				"energy": -0.29821,
				"method": "rhf"
			},
			{
				"type": "occ",
				"energy": -0.29717,
				"method": "rhf"
			},
			{
				"type": "unocc",
				"energy": -0.10084,
				"method": "rhf"
			},
			{
				"type": "unocc",
				"energy": -0.08307,
				"method": "rhf"
			},
			{
				"type": "unocc",
				"energy": -0.05746,
				"method": "rhf"
			},
			{
				"type": "unocc",
				"energy": 0.01153,
				"method": "rhf"
			},
			{
				"type": "unocc",
				"energy": 0.04536,
				"method": "rhf"
			}
		],
		"cosmo_sigma_profile": { 
			"-0.025": 0.0,
			"-0.024": 0.0,
			"-0.023": 0.0,
			"-0.022": 0.0,
			"-0.021": 0.0,
			"-0.02": 0.0,
			"-0.019": 0.0,
			"-0.018": 0.0,
			"-0.017": 0.0,
			"-0.016": 0.0,
			"-0.015": 0.0412317861821,
			"-0.014": 0.288856136506,
			"-0.013": 1.00822927632,
			"-0.012": 1.11817386524,
			"-0.011": 2.13681870265,
			"-0.01": 2.29101383215,
			"-0.009": 3.40597282306,
			"-0.008": 3.6330865692,
			"-0.007": 6.3350557453,
			"-0.006": 11.612957231,
			"-0.005": 15.0921544672,
			"-0.004": 16.9454173591,
			"-0.003": 21.8267175778,
			"-0.002": 29.3583988091,
			"-0.001": 17.4211670089,
			"0.0": 9.90086068186,
			"0.001": 12.3001685912,
			"0.002": 13.1296697605,
			"0.003": 16.839360542,
			"0.004": 7.74743053178,
			"0.005": 4.31676913838,
			"0.006": 5.46107302204,
			"0.007": 10.2245225507,
			"0.008": 12.2743325658,
			"0.009": 6.49358864436,
			"0.01": 5.12786447073,
			"0.011": 4.54663252936,
			"0.012": 2.05795055409,
			"0.013": 0.233708184538,
			"0.014": 0.0,
			"0.015": 0.0,
			"0.016": 0.0,
			"0.017": 0.0,
			"0.018": 0.0,
			"0.019": 0.0,
			"0.02": 0.0,
			"0.021": 0.0,
			"0.022": 0.0,
			"0.023": 0.0,
			"0.024": 0.0,
			"0.025": 0.0
		}
	}
}
