{
	 "smiles": "ClC1=NC2=CC=CC=C2S1", 
	 "Tm": 304.65, 
	 "num_atms": 14, 
	 "gaussian": { 
		 "optdone": 1, 
		 "sigma_profile": "yes", 
		 "theory": "DFT", 
		 "functional": "B3LYP", 
		 "basiset": "6-31G**", 
		 "properties": { 
			 "R2extent": 2170.291, 
			 "electric_dipole_moment_norm": 2.4696077968, 
			 "electric_quadrupole_moment_norm": 6.41732218297, 
			 "total_energy": -1182.28505015, 
			 "HOMO_LUMO_gap": 0.20009, 
			 "cosmo_polarized_energy": -4.98, 
			 "cosmo_cavitation_energy": 21.82, 
			 "cosmo_dispersion_energy": -17.26, 
			 "cosmo_repulsion_energy": 1.34, 
			 "cosmo_total_nonelectrostatic_energy": 5.89, 
			 "SMD_solvation_energy": 1.25 
		},
		"coords": [
			{
				"x": -1.8799082694,
				"y": 3.1873513147,
				"z": -1.1970838712,
				"element": "Cl" 
			},
			{
				"x": -0.8149269128,
				"y": 1.9213377581,
				"z": -0.6859978992,
				"element": "C" 
			},
			{
				"x": 0.4449399348,
				"y": 2.0826635848,
				"z": -0.5104722948,
				"element": "N" 
			},
			{
				"x": 1.0268246405,
				"y": 0.8880714914,
				"z": -0.1010659889,
				"element": "C" 
			},
			{
				"x": 2.3895266245,
				"y": 0.7164665127,
				"z": 0.1782737218,
				"element": "C" 
			},
			{
				"x": 2.8393506043,
				"y": -0.535785456,
				"z": 0.5798282786,
				"element": "C" 
			},
			{
				"x": 1.9499304553,
				"y": -1.6166621731,
				"z": 0.7061553888,
				"element": "C" 
			},
			{
				"x": 0.5920016568,
				"y": -1.4672300312,
				"z": 0.4333782621,
				"element": "C" 
			},
			{
				"x": 0.1404757142,
				"y": -0.2091812824,
				"z": 0.0300103512,
				"element": "C" 
			},
			{
				"x": -1.4869552284,
				"y": 0.3103269239,
				"z": -0.3849611116,
				"element": "S" 
			},
			{
				"x": 3.0621852072,
				"y": 1.5612783657,
				"z": 0.0756484432,
				"element": "H" 
			},
			{
				"x": 3.8923073324,
				"y": -0.6829755881,
				"z": 0.7994242839,
				"element": "H" 
			},
			{
				"x": 2.3250858749,
				"y": -2.5855269698,
				"z": 1.0215060744,
				"element": "H" 
			},
			{
				"x": -0.0903376341,
				"y": -2.3051344507,
				"z": 0.5325563617,
				"element": "H" 
			}
		],
		 "valence_orbital": [ 
			{
				"type": "occ",
				"energy": -0.32869,
				"method": "rhf"
			},
			{
				"type": "occ",
				"energy": -0.31537,
				"method": "rhf"
			},
			{
				"type": "occ",
				"energy": -0.29698,
				"method": "rhf"
			},
			{
				"type": "occ",
				"energy": -0.24737,
				"method": "rhf"
			},
			{
				"type": "occ",
				"energy": -0.24585,
				"method": "rhf"
			},
			{
				"type": "unocc",
				"energy": -0.04576,
				"method": "rhf"
			},
			{
				"type": "unocc",
				"energy": -0.01635,
				"method": "rhf"
			},
			{
				"type": "unocc",
				"energy": -0.01268,
				"method": "rhf"
			},
			{
				"type": "unocc",
				"energy": 0.0219,
				"method": "rhf"
			},
			{
				"type": "unocc",
				"energy": 0.02219,
				"method": "rhf"
			}
		],
		"cosmo_sigma_profile": { 
			"-0.025": 0.0,
			"-0.024": 0.0,
			"-0.023": 0.0,
			"-0.022": 0.0,
			"-0.021": 0.0,
			"-0.02": 0.0,
			"-0.019": 0.0,
			"-0.018": 0.0,
			"-0.017": 0.0,
			"-0.016": 0.0,
			"-0.015": 0.0,
			"-0.014": 0.0,
			"-0.013": 0.0,
			"-0.012": 0.0,
			"-0.011": 0.0,
			"-0.01": 0.0,
			"-0.009": 0.0397740422594,
			"-0.008": 1.71180888794,
			"-0.007": 5.15322552822,
			"-0.006": 8.85409260597,
			"-0.005": 9.56970544456,
			"-0.004": 10.0611363287,
			"-0.003": 10.4552541262,
			"-0.002": 16.6558848694,
			"-0.001": 15.0974026894,
			"0.0": 16.9829975817,
			"0.001": 19.4554727787,
			"0.002": 23.5238113631,
			"0.003": 20.3934172501,
			"0.004": 11.4395609432,
			"0.005": 2.83710988212,
			"0.006": 1.78499773324,
			"0.007": 1.85148413264,
			"0.008": 0.796277774881,
			"0.009": 0.576102345761,
			"0.01": 1.55422306103,
			"0.011": 0.933645333969,
			"0.012": 0.840354219376,
			"0.013": 0.610768625919,
			"0.014": 0.102468437401,
			"0.015": 0.0,
			"0.016": 0.0,
			"0.017": 0.0,
			"0.018": 0.0,
			"0.019": 0.0,
			"0.02": 0.0,
			"0.021": 0.0,
			"0.022": 0.0,
			"0.023": 0.0,
			"0.024": 0.0,
			"0.025": 0.0
		}
	}
}
