{
	 "smiles": "NC(=O)C1=CC(=CC=C1)[N+]([O-])=O", 
	 "Tm": 415.15, 
	 "num_atms": 18, 
	 "gaussian": { 
		 "optdone": 1, 
		 "sigma_profile": "yes", 
		 "theory": "DFT", 
		 "functional": "B3LYP", 
		 "basiset": "6-31G**", 
		 "properties": { 
			 "R2extent": 3364.5797, 
			 "electric_dipole_moment_norm": 2.12739622544, 
			 "electric_quadrupole_moment_norm": 27.7451034608, 
			 "total_energy": -605.452827545, 
			 "HOMO_LUMO_gap": 0.16951, 
			 "cosmo_polarized_energy": -15.52, 
			 "cosmo_cavitation_energy": 23.62, 
			 "cosmo_dispersion_energy": -17.41, 
			 "cosmo_repulsion_energy": 1.39, 
			 "cosmo_total_nonelectrostatic_energy": 7.6, 
			 "SMD_solvation_energy": 7.19 
		},
		"coords": [
			{
				"x": 1.7232907667,
				"y": 2.1415242842,
				"z": 0.5605501212,
				"element": "N" 
			},
			{
				"x": 0.830942594,
				"y": 1.5014443858,
				"z": -0.2576244174,
				"element": "C" 
			},
			{
				"x": 1.0589027154,
				"y": 1.3016955154,
				"z": -1.4437586234,
				"element": "O" 
			},
			{
				"x": -0.448580691,
				"y": 1.0269525369,
				"z": 0.3825755,
				"element": "C" 
			},
			{
				"x": -0.6219575551,
				"y": 0.914717502,
				"z": 1.7645658563,
				"element": "C" 
			},
			{
				"x": -1.8424000895,
				"y": 0.4565449352,
				"z": 2.2542527181,
				"element": "C" 
			},
			{
				"x": -2.8966389957,
				"y": 0.1011308579,
				"z": 1.4158707461,
				"element": "C" 
			},
			{
				"x": -2.71038361,
				"y": 0.2049624925,
				"z": 0.0377721494,
				"element": "C" 
			},
			{
				"x": -1.4955632584,
				"y": 0.657681538,
				"z": -0.4745430407,
				"element": "C" 
			},
			{
				"x": -2.0188657112,
				"y": 0.3400109667,
				"z": 3.7123384292,
				"element": "N" 
			},
			{
				"x": -1.0729511706,
				"y": 0.6675307271,
				"z": 4.4286801652,
				"element": "O" 
			},
			{
				"x": -3.1010363925,
				"y": -0.0736582689,
				"z": 4.1241358664,
				"element": "O" 
			},
			{
				"x": 1.4380408442,
				"y": 2.5524084999,
				"z": 1.4350475621,
				"element": "H" 
			},
			{
				"x": 2.5337129919,
				"y": 2.5355756814,
				"z": 0.1053156471,
				"element": "H" 
			},
			{
				"x": 0.1642172746,
				"y": 1.1412762988,
				"z": 2.4738661784,
				"element": "H" 
			},
			{
				"x": -3.8256092682,
				"y": -0.2493088209,
				"z": 1.8478514771,
				"element": "H" 
			},
			{
				"x": -3.515140452,
				"y": -0.071659704,
				"z": -0.6357129217,
				"element": "H" 
			},
			{
				"x": -1.3258799927,
				"y": 0.7327705718,
				"z": -1.5431834133,
				"element": "H" 
			}
		],
		 "valence_orbital": [ 
			{
				"type": "occ",
				"energy": -0.29957,
				"method": "rhf"
			},
			{
				"type": "occ",
				"energy": -0.29223,
				"method": "rhf"
			},
			{
				"type": "occ",
				"energy": -0.28703,
				"method": "rhf"
			},
			{
				"type": "occ",
				"energy": -0.2852,
				"method": "rhf"
			},
			{
				"type": "occ",
				"energy": -0.26689,
				"method": "rhf"
			},
			{
				"type": "unocc",
				"energy": -0.09738,
				"method": "rhf"
			},
			{
				"type": "unocc",
				"energy": -0.05963,
				"method": "rhf"
			},
			{
				"type": "unocc",
				"energy": -0.01272,
				"method": "rhf"
			},
			{
				"type": "unocc",
				"energy": 0.04478,
				"method": "rhf"
			},
			{
				"type": "unocc",
				"energy": 0.06127,
				"method": "rhf"
			}
		],
		"cosmo_sigma_profile": { 
			"-0.025": 0.0,
			"-0.024": 0.0,
			"-0.023": 0.0,
			"-0.022": 0.0,
			"-0.021": 0.0,
			"-0.02": 0.0,
			"-0.019": 0.0,
			"-0.018": 0.0,
			"-0.017": 0.0,
			"-0.016": 0.152168714602,
			"-0.015": 1.2382819825,
			"-0.014": 2.46419828581,
			"-0.013": 2.580046381,
			"-0.012": 2.34711740584,
			"-0.011": 1.99255513389,
			"-0.01": 2.81067758303,
			"-0.009": 2.31627433464,
			"-0.008": 4.24097688061,
			"-0.007": 7.73415267548,
			"-0.006": 10.4432323485,
			"-0.005": 8.45525490463,
			"-0.004": 8.18055150673,
			"-0.003": 8.86948674998,
			"-0.002": 13.7273235153,
			"-0.001": 15.3100655876,
			"0.0": 16.6984859171,
			"0.001": 13.7926272641,
			"0.002": 6.77439674848,
			"0.003": 5.01759617133,
			"0.004": 5.10212477257,
			"0.005": 5.36158764951,
			"0.006": 5.56151184324,
			"0.007": 10.7886774042,
			"0.008": 7.43459014914,
			"0.009": 5.40094956517,
			"0.01": 3.69983600849,
			"0.011": 1.64493196706,
			"0.012": 2.55485053574,
			"0.013": 5.41821739197,
			"0.014": 1.35015412452,
			"0.015": 0.0053964113359,
			"0.016": 0.0,
			"0.017": 0.0,
			"0.018": 0.0,
			"0.019": 0.0,
			"0.02": 0.0,
			"0.021": 0.0,
			"0.022": 0.0,
			"0.023": 0.0,
			"0.024": 0.0,
			"0.025": 0.0
		}
	}
}
