{
	 "smiles": "NS(=O)(=O)C1=CC=C(SCCCO)S1", 
	 "Tm": 336.15, 
	 "num_atms": 25, 
	 "gaussian": { 
		 "optdone": 1, 
		 "sigma_profile": "yes", 
		 "theory": "DFT", 
		 "functional": "B3LYP", 
		 "basiset": "6-31G**", 
		 "properties": { 
			 "R2extent": 5718.0007, 
			 "electric_dipole_moment_norm": 7.20750466528, 
			 "electric_quadrupole_moment_norm": 24.7008720297, 
			 "total_energy": -1748.25827809, 
			 "HOMO_LUMO_gap": 0.18133, 
			 "cosmo_polarized_energy": -23.94, 
			 "cosmo_cavitation_energy": 33.81, 
			 "cosmo_dispersion_energy": -25.01, 
			 "cosmo_repulsion_energy": 1.89, 
			 "cosmo_total_nonelectrostatic_energy": 10.69, 
			 "SMD_solvation_energy": 4.53 
		},
		"coords": [
			{
				"x": -2.4561784726,
				"y": -2.9477969702,
				"z": 1.7655903998,
				"element": "N" 
			},
			{
				"x": -0.8887782444,
				"y": -3.4679623728,
				"z": 1.4733662991,
				"element": "S" 
			},
			{
				"x": -0.2599246396,
				"y": -3.5701949448,
				"z": 2.7865575291,
				"element": "O" 
			},
			{
				"x": -1.0054045234,
				"y": -4.5834474923,
				"z": 0.5393682587,
				"element": "O" 
			},
			{
				"x": -0.0594062619,
				"y": -2.1628418908,
				"z": 0.5908133046,
				"element": "C" 
			},
			{
				"x": 0.0899975483,
				"y": -2.0963582843,
				"z": -0.7718337993,
				"element": "C" 
			},
			{
				"x": 0.756403274,
				"y": -0.9098895132,
				"z": -1.1843309572,
				"element": "C" 
			},
			{
				"x": 1.1090917296,
				"y": -0.0878027879,
				"z": -0.1369728575,
				"element": "C" 
			},
			{
				"x": 2.0312901841,
				"y": 1.4154425178,
				"z": -0.2260010125,
				"element": "S" 
			},
			{
				"x": 0.7324390816,
				"y": 2.6803242256,
				"z": 0.1522495172,
				"element": "C" 
			},
			{
				"x": -0.3164432896,
				"y": 2.8702099159,
				"z": -0.9447876144,
				"element": "C" 
			},
			{
				"x": 0.2348686722,
				"y": 3.5542640104,
				"z": -2.1991884855,
				"element": "C" 
			},
			{
				"x": 0.8047126923,
				"y": 4.8285765927,
				"z": -1.9220080732,
				"element": "O" 
			},
			{
				"x": 0.651011908,
				"y": -0.7981330509,
				"z": 1.4012484248,
				"element": "S" 
			},
			{
				"x": -2.5029226479,
				"y": -2.1706731774,
				"z": 2.4166364168,
				"element": "H" 
			},
			{
				"x": -2.993266699,
				"y": -2.7997706549,
				"z": 0.9173845158,
				"element": "H" 
			},
			{
				"x": -0.2626485541,
				"y": -2.8753934871,
				"z": -1.4369944827,
				"element": "H" 
			},
			{
				"x": 0.9811233516,
				"y": -0.6650667216,
				"z": -2.2156838321,
				"element": "H" 
			},
			{
				"x": 1.3010375521,
				"y": 3.6051595875,
				"z": 0.2855763965,
				"element": "H" 
			},
			{
				"x": 0.2747615636,
				"y": 2.4190343078,
				"z": 1.1094950554,
				"element": "H" 
			},
			{
				"x": -1.1326036885,
				"y": 3.4822841327,
				"z": -0.5319399828,
				"element": "H" 
			},
			{
				"x": -0.7629397612,
				"y": 1.9057452234,
				"z": -1.2169040019,
				"element": "H" 
			},
			{
				"x": 1.0462476874,
				"y": 2.9557587314,
				"z": -2.6245412257,
				"element": "H" 
			},
			{
				"x": -0.5565988799,
				"y": 3.6246071614,
				"z": -2.9607289926,
				"element": "H" 
			},
			{
				"x": 0.0896304171,
				"y": 5.4236249414,
				"z": -1.6610708005,
				"element": "H" 
			}
		],
		 "valence_orbital": [ 
			{
				"type": "occ",
				"energy": -0.31138,
				"method": "rhf"
			},
			{
				"type": "occ",
				"energy": -0.28279,
				"method": "rhf"
			},
			{
				"type": "occ",
				"energy": -0.27904,
				"method": "rhf"
			},
			{
				"type": "occ",
				"energy": -0.263,
				"method": "rhf"
			},
			{
				"type": "occ",
				"energy": -0.24412,
				"method": "rhf"
			},
			{
				"type": "unocc",
				"energy": -0.06279,
				"method": "rhf"
			},
			{
				"type": "unocc",
				"energy": 0.00154,
				"method": "rhf"
			},
			{
				"type": "unocc",
				"energy": 0.01532,
				"method": "rhf"
			},
			{
				"type": "unocc",
				"energy": 0.03177,
				"method": "rhf"
			},
			{
				"type": "unocc",
				"energy": 0.05004,
				"method": "rhf"
			}
		],
		"cosmo_sigma_profile": { 
			"-0.025": 0.0,
			"-0.024": 0.0,
			"-0.023": 0.0,
			"-0.022": 0.0,
			"-0.021": 0.0,
			"-0.02": 0.0,
			"-0.019": 0.0,
			"-0.018": 0.0,
			"-0.017": 0.0,
			"-0.016": 0.492340483015,
			"-0.015": 3.50038618545,
			"-0.014": 3.83650388179,
			"-0.013": 3.25150522026,
			"-0.012": 4.45612268982,
			"-0.011": 3.39802920599,
			"-0.01": 3.81611036805,
			"-0.009": 3.11754936715,
			"-0.008": 5.20263826961,
			"-0.007": 5.36192999244,
			"-0.006": 7.49251755017,
			"-0.005": 11.4735328188,
			"-0.004": 14.9352733863,
			"-0.003": 19.7609374011,
			"-0.002": 22.5603507767,
			"-0.001": 18.4474740162,
			"0.0": 19.5079660612,
			"0.001": 22.0606478026,
			"0.002": 16.2616937734,
			"0.003": 10.0697901339,
			"0.004": 8.66909386596,
			"0.005": 7.71773760981,
			"0.006": 7.64509895424,
			"0.007": 7.35656339182,
			"0.008": 6.1051738651,
			"0.009": 5.86751697102,
			"0.01": 11.0389516526,
			"0.011": 10.934944524,
			"0.012": 3.10010074436,
			"0.013": 1.19685998924,
			"0.014": 1.85119581194,
			"0.015": 0.576820093007,
			"0.016": 0.0,
			"0.017": 0.0,
			"0.018": 0.0,
			"0.019": 0.0,
			"0.02": 0.0,
			"0.021": 0.0,
			"0.022": 0.0,
			"0.023": 0.0,
			"0.024": 0.0,
			"0.025": 0.0
		}
	}
}
