{
	 "smiles": "CC1=CC=C(C=C1O)[N+]([O-])=O", 
	 "Tm": 391.15, 
	 "num_atms": 18, 
	 "gaussian": { 
		 "optdone": 1, 
		 "sigma_profile": "yes", 
		 "theory": "DFT", 
		 "functional": "B3LYP", 
		 "basiset": "6-31G**", 
		 "properties": { 
			 "R2extent": 2917.8388, 
			 "electric_dipole_moment_norm": 4.25206629887, 
			 "electric_quadrupole_moment_norm": 11.3302280114, 
			 "total_energy": -551.291000963, 
			 "HOMO_LUMO_gap": 0.15888, 
			 "cosmo_polarized_energy": -11.56, 
			 "cosmo_cavitation_energy": 22.81, 
			 "cosmo_dispersion_energy": -16.9, 
			 "cosmo_repulsion_energy": 1.35, 
			 "cosmo_total_nonelectrostatic_energy": 7.27, 
			 "SMD_solvation_energy": 6.66 
		},
		"coords": [
			{
				"x": 2.0968855214,
				"y": 0.992534394,
				"z": 3.4307717392,
				"element": "C" 
			},
			{
				"x": 1.3774855753,
				"y": 0.1084893351,
				"z": 2.4485376466,
				"element": "C" 
			},
			{
				"x": 0.3512667,
				"y": 0.5849180903,
				"z": 1.6280686863,
				"element": "C" 
			},
			{
				"x": -0.3134416227,
				"y": -0.2377492671,
				"z": 0.7184363991,
				"element": "C" 
			},
			{
				"x": 0.0737526004,
				"y": -1.5705043773,
				"z": 0.6425963964,
				"element": "C" 
			},
			{
				"x": 1.0911594934,
				"y": -2.0960291211,
				"z": 1.4383013587,
				"element": "C" 
			},
			{
				"x": 1.7375145439,
				"y": -1.2520576472,
				"z": 2.3375011376,
				"element": "C" 
			},
			{
				"x": 2.7428243969,
				"y": -1.685396722,
				"z": 3.1524452744,
				"element": "O" 
			},
			{
				"x": -0.6056085736,
				"y": -2.4644256222,
				"z": -0.3049168952,
				"element": "N" 
			},
			{
				"x": -0.2381131858,
				"y": -3.6398131956,
				"z": -0.3470275701,
				"element": "O" 
			},
			{
				"x": -1.5012090402,
				"y": -1.9875080537,
				"z": -1.0012123896,
				"element": "O" 
			},
			{
				"x": 1.993592986,
				"y": 0.6103498362,
				"z": 4.4522470347,
				"element": "H" 
			},
			{
				"x": 1.707378815,
				"y": 2.0126881818,
				"z": 3.3997630349,
				"element": "H" 
			},
			{
				"x": 3.1712565771,
				"y": 1.0224996369,
				"z": 3.2187057995,
				"element": "H" 
			},
			{
				"x": 0.0657864646,
				"y": 1.6301448715,
				"z": 1.7049067575,
				"element": "H" 
			},
			{
				"x": -1.1080589991,
				"y": 0.1294791502,
				"z": 0.0825109837,
				"element": "H" 
			},
			{
				"x": 1.3551239337,
				"y": -3.1432241805,
				"z": 1.3402872058,
				"element": "H" 
			},
			{
				"x": 2.9050038137,
				"y": -2.6244953093,
				"z": 2.9932774007,
				"element": "H" 
			}
		],
		 "valence_orbital": [ 
			{
				"type": "occ",
				"energy": -0.30644,
				"method": "rhf"
			},
			{
				"type": "occ",
				"energy": -0.30424,
				"method": "rhf"
			},
			{
				"type": "occ",
				"energy": -0.28754,
				"method": "rhf"
			},
			{
				"type": "occ",
				"energy": -0.27272,
				"method": "rhf"
			},
			{
				"type": "occ",
				"energy": -0.24435,
				"method": "rhf"
			},
			{
				"type": "unocc",
				"energy": -0.08547,
				"method": "rhf"
			},
			{
				"type": "unocc",
				"energy": -0.01481,
				"method": "rhf"
			},
			{
				"type": "unocc",
				"energy": 0.00946,
				"method": "rhf"
			},
			{
				"type": "unocc",
				"energy": 0.05368,
				"method": "rhf"
			},
			{
				"type": "unocc",
				"energy": 0.08777,
				"method": "rhf"
			}
		],
		"cosmo_sigma_profile": { 
			"-0.025": 0.0,
			"-0.024": 0.0,
			"-0.023": 0.0,
			"-0.022": 0.0,
			"-0.021": 0.0,
			"-0.02": 0.0,
			"-0.019": 0.235895824295,
			"-0.018": 0.996393167625,
			"-0.017": 1.67716754466,
			"-0.016": 0.750976651587,
			"-0.015": 1.13817002107,
			"-0.014": 1.10371046733,
			"-0.013": 0.751064911425,
			"-0.012": 0.966544429438,
			"-0.011": 1.14612079298,
			"-0.01": 1.45979457002,
			"-0.009": 0.828235448857,
			"-0.008": 0.848805278572,
			"-0.007": 3.08883673292,
			"-0.006": 7.31672394503,
			"-0.005": 10.244972177,
			"-0.004": 10.7971877811,
			"-0.003": 9.60980005672,
			"-0.002": 11.7998168588,
			"-0.001": 17.2932174925,
			"0.0": 16.1899765593,
			"0.001": 17.9422408286,
			"0.002": 12.6717619093,
			"0.003": 9.80672388653,
			"0.004": 4.35770521652,
			"0.005": 3.73165347649,
			"0.006": 4.74534752996,
			"0.007": 8.69843766133,
			"0.008": 10.7628207194,
			"0.009": 5.88968964681,
			"0.01": 4.38075736252,
			"0.011": 0.485910206411,
			"0.012": 0.0,
			"0.013": 0.0,
			"0.014": 0.0,
			"0.015": 0.0,
			"0.016": 0.0,
			"0.017": 0.0,
			"0.018": 0.0,
			"0.019": 0.0,
			"0.02": 0.0,
			"0.021": 0.0,
			"0.022": 0.0,
			"0.023": 0.0,
			"0.024": 0.0,
			"0.025": 0.0
		}
	}
}
