{
	 "smiles": "NC1=CN(N=C1)C1=NC=CS1", 
	 "Tm": 363.15, 
	 "num_atms": 17, 
	 "gaussian": { 
		 "optdone": 1, 
		 "sigma_profile": "yes", 
		 "theory": "DFT", 
		 "functional": "B3LYP", 
		 "basiset": "6-31G**", 
		 "properties": { 
			 "R2extent": 2390.8659, 
			 "electric_dipole_moment_norm": 1.97189884883, 
			 "electric_quadrupole_moment_norm": 14.460953498, 
			 "total_energy": -849.402436043, 
			 "HOMO_LUMO_gap": 0.16315, 
			 "cosmo_polarized_energy": -12.12, 
			 "cosmo_cavitation_energy": 23.45, 
			 "cosmo_dispersion_energy": -18.24, 
			 "cosmo_repulsion_energy": 1.41, 
			 "cosmo_total_nonelectrostatic_energy": 6.62, 
			 "SMD_solvation_energy": 2.62 
		},
		"coords": [
			{
				"x": 3.4830157774,
				"y": -0.9766047861,
				"z": -1.4027629785,
				"element": "N" 
			},
			{
				"x": 2.2928126189,
				"y": -0.3437065301,
				"z": -1.0283243405,
				"element": "C" 
			},
			{
				"x": 1.7111326389,
				"y": -0.2650642036,
				"z": 0.2204667603,
				"element": "C" 
			},
			{
				"x": 0.5996564987,
				"y": 0.5375304394,
				"z": 0.0739299043,
				"element": "N" 
			},
			{
				"x": 0.4330296786,
				"y": 0.971395401,
				"z": -1.1962949263,
				"element": "N" 
			},
			{
				"x": 1.4517000524,
				"y": 0.447887224,
				"z": -1.865454512,
				"element": "C" 
			},
			{
				"x": -0.3048880952,
				"y": 0.9013665398,
				"z": 1.0625265417,
				"element": "C" 
			},
			{
				"x": -0.2031282207,
				"y": 0.5127523507,
				"z": 2.2994456872,
				"element": "N" 
			},
			{
				"x": -1.2435315972,
				"y": 1.0348889132,
				"z": 3.0381246702,
				"element": "C" 
			},
			{
				"x": -2.1306235091,
				"y": 1.8160736056,
				"z": 2.3608815018,
				"element": "C" 
			},
			{
				"x": -1.6705819582,
				"y": 1.9336539045,
				"z": 0.6821713443,
				"element": "S" 
			},
			{
				"x": 3.7600113529,
				"y": -1.7220722616,
				"z": -0.7767744164,
				"element": "H" 
			},
			{
				"x": 3.473625418,
				"y": -1.3121717899,
				"z": -2.3578184981,
				"element": "H" 
			},
			{
				"x": 1.9698677323,
				"y": -0.6816564804,
				"z": 1.1803307197,
				"element": "H" 
			},
			{
				"x": 1.5635939361,
				"y": 0.6479598901,
				"z": -2.9231239245,
				"element": "H" 
			},
			{
				"x": -1.3020300325,
				"y": 0.8030674314,
				"z": 4.0950367612,
				"element": "H" 
			},
			{
				"x": -3.0098622913,
				"y": 2.3219003521,
				"z": 2.7326397057,
				"element": "H" 
			}
		],
		 "valence_orbital": [ 
			{
				"type": "occ",
				"energy": -0.28951,
				"method": "rhf"
			},
			{
				"type": "occ",
				"energy": -0.28352,
				"method": "rhf"
			},
			{
				"type": "occ",
				"energy": -0.27298,
				"method": "rhf"
			},
			{
				"type": "occ",
				"energy": -0.23459,
				"method": "rhf"
			},
			{
				"type": "occ",
				"energy": -0.20065,
				"method": "rhf"
			},
			{
				"type": "unocc",
				"energy": -0.0375,
				"method": "rhf"
			},
			{
				"type": "unocc",
				"energy": 0.02371,
				"method": "rhf"
			},
			{
				"type": "unocc",
				"energy": 0.02859,
				"method": "rhf"
			},
			{
				"type": "unocc",
				"energy": 0.06288,
				"method": "rhf"
			},
			{
				"type": "unocc",
				"energy": 0.07117,
				"method": "rhf"
			}
		],
		"cosmo_sigma_profile": { 
			"-0.025": 0.0,
			"-0.024": 0.0,
			"-0.023": 0.0,
			"-0.022": 0.0,
			"-0.021": 0.0,
			"-0.02": 0.0,
			"-0.019": 0.0,
			"-0.018": 0.0,
			"-0.017": 0.0,
			"-0.016": 0.0,
			"-0.015": 0.0,
			"-0.014": 0.0,
			"-0.013": 0.859911405703,
			"-0.012": 3.10891280808,
			"-0.011": 2.82045624716,
			"-0.01": 3.45363785992,
			"-0.009": 5.7143195255,
			"-0.008": 8.84431002995,
			"-0.007": 8.71902929762,
			"-0.006": 6.95389712164,
			"-0.005": 8.49994084922,
			"-0.004": 5.91848319734,
			"-0.003": 6.86598865862,
			"-0.002": 6.91628792572,
			"-0.001": 8.58857201104,
			"0.0": 12.7365912272,
			"0.001": 16.2106235463,
			"0.002": 17.7218462365,
			"0.003": 20.7979761645,
			"0.004": 12.5266769913,
			"0.005": 5.30009343025,
			"0.006": 5.13489480025,
			"0.007": 4.1758702018,
			"0.008": 3.96074551536,
			"0.009": 3.11554117033,
			"0.01": 3.39856860329,
			"0.011": 3.61395732646,
			"0.012": 2.27657273124,
			"0.013": 1.00827305075,
			"0.014": 0.950961374245,
			"0.015": 0.470584274386,
			"0.016": 0.073803424276,
			"0.017": 0.0,
			"0.018": 0.0,
			"0.019": 0.0,
			"0.02": 0.0,
			"0.021": 0.0,
			"0.022": 0.0,
			"0.023": 0.0,
			"0.024": 0.0,
			"0.025": 0.0
		}
	}
}
