{
	 "smiles": "FC1=NC(F)=NC(F)=N1", 
	 "Tm": 235.15, 
	 "num_atms": 9, 
	 "gaussian": { 
		 "optdone": 1, 
		 "sigma_profile": "yes", 
		 "theory": "DFT", 
		 "functional": "B3LYP", 
		 "basiset": "6-31G**", 
		 "properties": { 
			 "R2extent": 1403.2674, 
			 "electric_dipole_moment_norm": 0.0, 
			 "electric_quadrupole_moment_norm": 4.780984407, 
			 "total_energy": -578.084488957, 
			 "HOMO_LUMO_gap": 0.2632, 
			 "cosmo_polarized_energy": -5.2, 
			 "cosmo_cavitation_energy": 16.11, 
			 "cosmo_dispersion_energy": -11.89, 
			 "cosmo_repulsion_energy": 0.9, 
			 "cosmo_total_nonelectrostatic_energy": 5.13, 
			 "SMD_solvation_energy": -0.7 
		},
		"coords": [
			{
				"x": 1.1940849402,
				"y": -0.975621326,
				"z": 0.1521870859,
				"element": "F" 
			},
			{
				"x": 0.3493571537,
				"y": -0.1859897704,
				"z": -0.475874535,
				"element": "C" 
			},
			{
				"x": 0.7985434764,
				"y": 0.3818758319,
				"z": -1.5856956314,
				"element": "N" 
			},
			{
				"x": -0.1130552367,
				"y": 1.1584605829,
				"z": -2.1530272033,
				"element": "C" 
			},
			{
				"x": 0.2522930188,
				"y": 1.7623947254,
				"z": -3.2635731659,
				"element": "F" 
			},
			{
				"x": -1.3479378646,
				"y": 1.4006134811,
				"z": -1.7378350519,
				"element": "N" 
			},
			{
				"x": -1.6328983225,
				"y": 0.75481031,
				"z": -0.6163596142,
				"element": "C" 
			},
			{
				"x": -2.8429822988,
				"y": 0.9404534312,
				"z": -0.1338976345,
				"element": "F" 
			},
			{
				"x": -0.8472048666,
				"y": -0.055197266,
				"z": 0.0782757504,
				"element": "N" 
			}
		],
		 "valence_orbital": [ 
			{
				"type": "occ",
				"energy": -0.42602,
				"method": "rhf"
			},
			{
				"type": "occ",
				"energy": -0.35188,
				"method": "rhf"
			},
			{
				"type": "occ",
				"energy": -0.35188,
				"method": "rhf"
			},
			{
				"type": "occ",
				"energy": -0.33243,
				"method": "rhf"
			},
			{
				"type": "occ",
				"energy": -0.33243,
				"method": "rhf"
			},
			{
				"type": "unocc",
				"energy": -0.06923,
				"method": "rhf"
			},
			{
				"type": "unocc",
				"energy": -0.06923,
				"method": "rhf"
			},
			{
				"type": "unocc",
				"energy": 0.09299,
				"method": "rhf"
			},
			{
				"type": "unocc",
				"energy": 0.10707,
				"method": "rhf"
			},
			{
				"type": "unocc",
				"energy": 0.17605,
				"method": "rhf"
			}
		],
		"cosmo_sigma_profile": { 
			"-0.025": 0.0,
			"-0.024": 0.0,
			"-0.023": 0.0,
			"-0.022": 0.0,
			"-0.021": 0.0,
			"-0.02": 0.0,
			"-0.019": 0.0,
			"-0.018": 0.0,
			"-0.017": 0.0,
			"-0.016": 0.0,
			"-0.015": 0.0,
			"-0.014": 0.000668706951962,
			"-0.013": 0.458991613976,
			"-0.012": 1.43876590425,
			"-0.011": 1.65397963891,
			"-0.01": 1.49516508861,
			"-0.009": 2.93396704335,
			"-0.008": 3.82368801045,
			"-0.007": 4.47880349671,
			"-0.006": 4.80484761143,
			"-0.005": 3.82301607149,
			"-0.004": 5.35761659978,
			"-0.003": 3.19142730547,
			"-0.002": 6.4246081402,
			"-0.001": 7.42638211154,
			"0.0": 8.8489392284,
			"0.001": 29.4405751192,
			"0.002": 16.1547303783,
			"0.003": 6.27449890674,
			"0.004": 5.36083779603,
			"0.005": 3.32077085557,
			"0.006": 3.41581401547,
			"0.007": 3.2796612864,
			"0.008": 2.88316692682,
			"0.009": 3.08012197326,
			"0.01": 2.56871477608,
			"0.011": 0.281117431587,
			"0.012": 0.0,
			"0.013": 0.0,
			"0.014": 0.0,
			"0.015": 0.0,
			"0.016": 0.0,
			"0.017": 0.0,
			"0.018": 0.0,
			"0.019": 0.0,
			"0.02": 0.0,
			"0.021": 0.0,
			"0.022": 0.0,
			"0.023": 0.0,
			"0.024": 0.0,
			"0.025": 0.0
		}
	}
}
