{
	 "smiles": "CC1CCC(CC(O)=O)CC1", 
	 "Tm": 332.15, 
	 "num_atms": 27, 
	 "gaussian": { 
		 "optdone": 1, 
		 "sigma_profile": "yes", 
		 "theory": "DFT", 
		 "functional": "B3LYP", 
		 "basiset": "6-31G**", 
		 "properties": { 
			 "R2extent": 2383.0151, 
			 "electric_dipole_moment_norm": 4.32265139584, 
			 "electric_quadrupole_moment_norm": 19.645008354, 
			 "total_energy": -503.076930809, 
			 "HOMO_LUMO_gap": 0.27419, 
			 "cosmo_polarized_energy": -13.03, 
			 "cosmo_cavitation_energy": 27.03, 
			 "cosmo_dispersion_energy": -19.58, 
			 "cosmo_repulsion_energy": 1.57, 
			 "cosmo_total_nonelectrostatic_energy": 9.01, 
			 "SMD_solvation_energy": 4.88 
		},
		"coords": [
			{
				"x": 1.0404777974,
				"y": 2.3704522077,
				"z": 1.4146199808,
				"element": "C" 
			},
			{
				"x": 1.7112459213,
				"y": 1.4638011559,
				"z": 0.3688993346,
				"element": "C" 
			},
			{
				"x": 1.1296398404,
				"y": 1.6697139014,
				"z": -1.0478280077,
				"element": "C" 
			},
			{
				"x": -0.2760278163,
				"y": 1.065188978,
				"z": -1.2156945954,
				"element": "C" 
			},
			{
				"x": -0.3380582091,
				"y": -0.4288688727,
				"z": -0.8286096111,
				"element": "C" 
			},
			{
				"x": 0.3620723475,
				"y": -1.3143229063,
				"z": -1.8924405258,
				"element": "C" 
			},
			{
				"x": 0.3216723845,
				"y": -2.7990934918,
				"z": -1.5644602918,
				"element": "C" 
			},
			{
				"x": -0.9192367918,
				"y": -3.365694029,
				"z": -1.5437460152,
				"element": "O" 
			},
			{
				"x": 1.2904216021,
				"y": -3.4716591727,
				"z": -1.3136502926,
				"element": "O" 
			},
			{
				"x": 0.2360808076,
				"y": -0.6299928198,
				"z": 0.591508178,
				"element": "C" 
			},
			{
				"x": 1.6438120683,
				"y": -0.0311803195,
				"z": 0.7536825637,
				"element": "C" 
			},
			{
				"x": 1.5030149001,
				"y": 2.2370978474,
				"z": 2.3986681631,
				"element": "H" 
			},
			{
				"x": -0.0290352182,
				"y": 2.1646051664,
				"z": 1.5268121051,
				"element": "H" 
			},
			{
				"x": 1.1427623377,
				"y": 3.4258982556,
				"z": 1.138886938,
				"element": "H" 
			},
			{
				"x": 2.7714377689,
				"y": 1.7491603829,
				"z": 0.3336703351,
				"element": "H" 
			},
			{
				"x": 1.8112938798,
				"y": 1.2176129403,
				"z": -1.7799378006,
				"element": "H" 
			},
			{
				"x": 1.0967782096,
				"y": 2.7398175825,
				"z": -1.2873386387,
				"element": "H" 
			},
			{
				"x": -0.6193445239,
				"y": 1.2017357556,
				"z": -2.2492061814,
				"element": "H" 
			},
			{
				"x": -0.9864939199,
				"y": 1.612962489,
				"z": -0.5840301393,
				"element": "H" 
			},
			{
				"x": -1.3993828776,
				"y": -0.7198019724,
				"z": -0.804668178,
				"element": "H" 
			},
			{
				"x": -0.1181834855,
				"y": -1.1491381869,
				"z": -2.8669054604,
				"element": "H" 
			},
			{
				"x": 1.4147483894,
				"y": -1.0503397272,
				"z": -2.000698944,
				"element": "H" 
			},
			{
				"x": -1.5899458799,
				"y": -2.7052255115,
				"z": -1.7677244399,
				"element": "H" 
			},
			{
				"x": 0.2558376619,
				"y": -1.6950738903,
				"z": 0.8491701672,
				"element": "H" 
			},
			{
				"x": -0.4495783537,
				"y": -0.157672657,
				"z": 1.3060552579,
				"element": "H" 
			},
			{
				"x": 2.350031488,
				"y": -0.5966556731,
				"z": 0.1328154924,
				"element": "H" 
			},
			{
				"x": 1.9793596714,
				"y": -0.1651274324,
				"z": 1.7892506061,
				"element": "H" 
			}
		],
		 "valence_orbital": [ 
			{
				"type": "occ",
				"energy": -0.31475,
				"method": "rhf"
			},
			{
				"type": "occ",
				"energy": -0.3109,
				"method": "rhf"
			},
			{
				"type": "occ",
				"energy": -0.30089,
				"method": "rhf"
			},
			{
				"type": "occ",
				"energy": -0.2993,
				"method": "rhf"
			},
			{
				"type": "occ",
				"energy": -0.26317,
				"method": "rhf"
			},
			{
				"type": "unocc",
				"energy": 0.01102,
				"method": "rhf"
			},
			{
				"type": "unocc",
				"energy": 0.04309,
				"method": "rhf"
			},
			{
				"type": "unocc",
				"energy": 0.07884,
				"method": "rhf"
			},
			{
				"type": "unocc",
				"energy": 0.0838,
				"method": "rhf"
			},
			{
				"type": "unocc",
				"energy": 0.12334,
				"method": "rhf"
			}
		],
		"cosmo_sigma_profile": { 
			"-0.025": 0.0,
			"-0.024": 0.0,
			"-0.023": 0.0,
			"-0.022": 0.0,
			"-0.021": 0.0,
			"-0.02": 0.0,
			"-0.019": 0.0,
			"-0.018": 0.686251809825,
			"-0.017": 1.10571755662,
			"-0.016": 0.316815144654,
			"-0.015": 1.62744625511,
			"-0.014": 0.89001733922,
			"-0.013": 1.41288805926,
			"-0.012": 0.959536889781,
			"-0.011": 0.816392828282,
			"-0.01": 1.1933422969,
			"-0.009": 0.96982644468,
			"-0.008": 1.67274972162,
			"-0.007": 1.78489068684,
			"-0.006": 2.5760867312,
			"-0.005": 4.96404227726,
			"-0.004": 7.29787504018,
			"-0.003": 15.8403609936,
			"-0.002": 30.639911582,
			"-0.001": 30.4708070017,
			"0.0": 31.2544303248,
			"0.001": 26.8256357113,
			"0.002": 9.65719675637,
			"0.003": 2.56553497428,
			"0.004": 2.02607298494,
			"0.005": 1.39365981994,
			"0.006": 2.67651531957,
			"0.007": 2.13240777171,
			"0.008": 2.50820377694,
			"0.009": 2.67214153882,
			"0.01": 3.90935160537,
			"0.011": 5.6017025724,
			"0.012": 5.86284094755,
			"0.013": 3.351913044,
			"0.014": 0.412765017296,
			"0.015": 0.0,
			"0.016": 0.0,
			"0.017": 0.0,
			"0.018": 0.0,
			"0.019": 0.0,
			"0.02": 0.0,
			"0.021": 0.0,
			"0.022": 0.0,
			"0.023": 0.0,
			"0.024": 0.0,
			"0.025": 0.0
		}
	}
}
