{
	 "smiles": "CC1=CC(C)=C(C(C)=C1)S(=O)(=O)NN", 
	 "Tm": 387.15, 
	 "num_atms": 28, 
	 "gaussian": { 
		 "optdone": 1, 
		 "sigma_profile": "yes", 
		 "theory": "DFT", 
		 "functional": "B3LYP", 
		 "basiset": "6-31G**", 
		 "properties": { 
			 "R2extent": 3685.3183, 
			 "electric_dipole_moment_norm": 3.89482965096, 
			 "electric_quadrupole_moment_norm": 7.44604244549, 
			 "total_energy": -1009.44287811, 
			 "HOMO_LUMO_gap": 0.21145, 
			 "cosmo_polarized_energy": -14.36, 
			 "cosmo_cavitation_energy": 31.31, 
			 "cosmo_dispersion_energy": -23.0, 
			 "cosmo_repulsion_energy": 1.75, 
			 "cosmo_total_nonelectrostatic_energy": 10.06, 
			 "SMD_solvation_energy": 5.44 
		},
		"coords": [
			{
				"x": -1.9887695991,
				"y": -2.0640482022,
				"z": 3.4393955633,
				"element": "C" 
			},
			{
				"x": -1.1631402908,
				"y": -1.6467636557,
				"z": 2.2472553398,
				"element": "C" 
			},
			{
				"x": -1.6861106761,
				"y": -0.7807065896,
				"z": 1.2839319032,
				"element": "C" 
			},
			{
				"x": -0.9603326538,
				"y": -0.3860968834,
				"z": 0.1578938892,
				"element": "C" 
			},
			{
				"x": -1.6234248941,
				"y": 0.5678860868,
				"z": -0.8108029044,
				"element": "C" 
			},
			{
				"x": 0.3529782683,
				"y": -0.9026715905,
				"z": 0.0030142821,
				"element": "C" 
			},
			{
				"x": 0.9234793189,
				"y": -1.7764388829,
				"z": 0.95985736,
				"element": "C" 
			},
			{
				"x": 2.3197682867,
				"y": -2.3615523421,
				"z": 0.9068063215,
				"element": "C" 
			},
			{
				"x": 0.1342486793,
				"y": -2.1227826858,
				"z": 2.0652621226,
				"element": "C" 
			},
			{
				"x": 1.2860994916,
				"y": -0.3930352223,
				"z": -1.4529679987,
				"element": "S" 
			},
			{
				"x": 1.15165135,
				"y": 1.0488369989,
				"z": -1.6904016305,
				"element": "O" 
			},
			{
				"x": 2.6430608842,
				"y": -0.9654638351,
				"z": -1.4421044444,
				"element": "O" 
			},
			{
				"x": 0.3578502403,
				"y": -1.1588407108,
				"z": -2.7123340227,
				"element": "N" 
			},
			{
				"x": 0.8798189327,
				"y": -0.9105794278,
				"z": -4.0109134692,
				"element": "N" 
			},
			{
				"x": -1.3681886514,
				"y": -2.5097761241,
				"z": 4.2212143899,
				"element": "H" 
			},
			{
				"x": -2.5232134523,
				"y": -1.2118981853,
				"z": 3.8711966974,
				"element": "H" 
			},
			{
				"x": -2.7436685126,
				"y": -2.8059891904,
				"z": 3.1517849619,
				"element": "H" 
			},
			{
				"x": -2.6928740975,
				"y": -0.3906495194,
				"z": 1.4105286116,
				"element": "H" 
			},
			{
				"x": -1.6313094602,
				"y": 0.1630220447,
				"z": -1.8258698727,
				"element": "H" 
			},
			{
				"x": -1.0904824966,
				"y": 1.5203241584,
				"z": -0.8537583869,
				"element": "H" 
			},
			{
				"x": -2.6542198774,
				"y": 0.7522999973,
				"z": -0.4993519913,
				"element": "H" 
			},
			{
				"x": 2.488245278,
				"y": -2.9538836279,
				"z": 0.0048795915,
				"element": "H" 
			},
			{
				"x": 3.0866421157,
				"y": -1.5844442467,
				"z": 0.9041352588,
				"element": "H" 
			},
			{
				"x": 2.4746540371,
				"y": -3.0031123255,
				"z": 1.7777575715,
				"element": "H" 
			},
			{
				"x": 0.5609781094,
				"y": -2.7895879144,
				"z": 2.8097877419,
				"element": "H" 
			},
			{
				"x": 0.3688185435,
				"y": -2.1645886186,
				"z": -2.5430644046,
				"element": "H" 
			},
			{
				"x": 0.6317204102,
				"y": 0.0455803273,
				"z": -4.2502026658,
				"element": "H" 
			},
			{
				"x": 1.9002207161,
				"y": -0.9829398329,
				"z": -4.0135298149,
				"element": "H" 
			}
		],
		 "valence_orbital": [ 
			{
				"type": "occ",
				"energy": -0.30236,
				"method": "rhf"
			},
			{
				"type": "occ",
				"energy": -0.28243,
				"method": "rhf"
			},
			{
				"type": "occ",
				"energy": -0.26039,
				"method": "rhf"
			},
			{
				"type": "occ",
				"energy": -0.25449,
				"method": "rhf"
			},
			{
				"type": "occ",
				"energy": -0.25177,
				"method": "rhf"
			},
			{
				"type": "unocc",
				"energy": -0.04032,
				"method": "rhf"
			},
			{
				"type": "unocc",
				"energy": -0.01168,
				"method": "rhf"
			},
			{
				"type": "unocc",
				"energy": 0.05862,
				"method": "rhf"
			},
			{
				"type": "unocc",
				"energy": 0.07017,
				"method": "rhf"
			},
			{
				"type": "unocc",
				"energy": 0.07695,
				"method": "rhf"
			}
		],
		"cosmo_sigma_profile": { 
			"-0.025": 0.0,
			"-0.024": 0.0,
			"-0.023": 0.0,
			"-0.022": 0.0,
			"-0.021": 0.0,
			"-0.02": 0.0,
			"-0.019": 0.0,
			"-0.018": 0.0,
			"-0.017": 0.0,
			"-0.016": 0.0,
			"-0.015": 0.483154632437,
			"-0.014": 0.983028536825,
			"-0.013": 1.03287579023,
			"-0.012": 1.60823392737,
			"-0.011": 3.45715577925,
			"-0.01": 3.6149939479,
			"-0.009": 3.15548038413,
			"-0.008": 2.38748976329,
			"-0.007": 3.8989075837,
			"-0.006": 6.72658312815,
			"-0.005": 13.1748559121,
			"-0.004": 18.0777970023,
			"-0.003": 20.1851131216,
			"-0.002": 20.7787343879,
			"-0.001": 24.2037245838,
			"0.0": 27.4162690504,
			"0.001": 15.1691206347,
			"0.002": 13.2886371675,
			"0.003": 14.5242936526,
			"0.004": 10.9171880285,
			"0.005": 4.22571084505,
			"0.006": 3.95661242115,
			"0.007": 4.07388309396,
			"0.008": 3.53035521485,
			"0.009": 4.83832501689,
			"0.01": 6.34712702522,
			"0.011": 6.61541754523,
			"0.012": 5.17960749488,
			"0.013": 0.814439597529,
			"0.014": 0.631903175864,
			"0.015": 0.759198899747,
			"0.016": 0.145093045074,
			"0.017": 0.0,
			"0.018": 0.0,
			"0.019": 0.0,
			"0.02": 0.0,
			"0.021": 0.0,
			"0.022": 0.0,
			"0.023": 0.0,
			"0.024": 0.0,
			"0.025": 0.0
		}
	}
}
