{
	 "smiles": "ClC1=C2C(SC3=C2CCCC3)=NC(CN2CCCCC2)=N1", 
	 "Tm": 325.15, 
	 "num_atms": 41, 
	 "gaussian": { 
		 "optdone": 1, 
		 "sigma_profile": "yes", 
		 "theory": "DFT", 
		 "functional": "B3LYP", 
		 "basiset": "6-31G**", 
		 "properties": { 
			 "R2extent": 10028.4874, 
			 "electric_dipole_moment_norm": 2.72978644952, 
			 "electric_quadrupole_moment_norm": 18.9836077038, 
			 "total_energy": -1644.40319805, 
			 "HOMO_LUMO_gap": 0.1523, 
			 "cosmo_polarized_energy": -8.74, 
			 "cosmo_cavitation_energy": 43.91, 
			 "cosmo_dispersion_energy": -32.39, 
			 "cosmo_repulsion_energy": 2.47, 
			 "cosmo_total_nonelectrostatic_energy": 13.98, 
			 "SMD_solvation_energy": 0.2 
		},
		"coords": [
			{
				"x": 2.2533494762,
				"y": 3.6617601635,
				"z": 0.0966192425,
				"element": "Cl" 
			},
			{
				"x": 1.4648376895,
				"y": 2.1135720568,
				"z": 0.4055755923,
				"element": "C" 
			},
			{
				"x": 1.8555722782,
				"y": 0.9507807166,
				"z": -0.2796073018,
				"element": "C" 
			},
			{
				"x": 1.0740559813,
				"y": -0.1776756769,
				"z": 0.0954691393,
				"element": "C" 
			},
			{
				"x": 1.5622610937,
				"y": -1.6099315407,
				"z": -0.7870579304,
				"element": "S" 
			},
			{
				"x": 2.7996124845,
				"y": -0.6882274991,
				"z": -1.6372582977,
				"element": "C" 
			},
			{
				"x": 2.8570079888,
				"y": 0.6288735965,
				"z": -1.2752528222,
				"element": "C" 
			},
			{
				"x": 3.8693553551,
				"y": 1.5737663389,
				"z": -1.8856024357,
				"element": "C" 
			},
			{
				"x": 4.9716304014,
				"y": 0.818777532,
				"z": -2.6485333395,
				"element": "C" 
			},
			{
				"x": 4.3938261557,
				"y": -0.2999939183,
				"z": -3.5234662852,
				"element": "C" 
			},
			{
				"x": 3.6813865365,
				"y": -1.3533628667,
				"z": -2.658411019,
				"element": "C" 
			},
			{
				"x": 0.0946665172,
				"y": -0.1851306248,
				"z": 0.9912160179,
				"element": "N" 
			},
			{
				"x": -0.1565364503,
				"y": 0.9930078987,
				"z": 1.568881388,
				"element": "C" 
			},
			{
				"x": -1.2653982548,
				"y": 1.0463381931,
				"z": 2.6004708618,
				"element": "C" 
			},
			{
				"x": -2.5873168679,
				"y": 0.9986256692,
				"z": 1.9859096278,
				"element": "N" 
			},
			{
				"x": -3.6563815625,
				"y": 0.6586008266,
				"z": 2.9247186373,
				"element": "C" 
			},
			{
				"x": -4.9069093704,
				"y": 0.190671829,
				"z": 2.1458955838,
				"element": "C" 
			},
			{
				"x": -4.9839994103,
				"y": 0.8674378984,
				"z": 0.7608026167,
				"element": "C" 
			},
			{
				"x": -4.3897170795,
				"y": 2.2775163626,
				"z": 0.8368996592,
				"element": "C" 
			},
			{
				"x": -2.8969997044,
				"y": 2.2218296021,
				"z": 1.2305134025,
				"element": "C" 
			},
			{
				"x": 0.4987088106,
				"y": 2.1409788383,
				"z": 1.2996932841,
				"element": "N" 
			},
			{
				"x": 3.3549628834,
				"y": 2.2709350495,
				"z": -2.5610392376,
				"element": "H" 
			},
			{
				"x": 4.3177171865,
				"y": 2.1959559081,
				"z": -1.1059172357,
				"element": "H" 
			},
			{
				"x": 5.6773898199,
				"y": 0.3824431563,
				"z": -1.9292634442,
				"element": "H" 
			},
			{
				"x": 5.5424432192,
				"y": 1.5272682285,
				"z": -3.258251809,
				"element": "H" 
			},
			{
				"x": 5.1835575844,
				"y": -0.7804937171,
				"z": -4.1109135328,
				"element": "H" 
			},
			{
				"x": 3.6787714034,
				"y": 0.126595585,
				"z": -4.2385635721,
				"element": "H" 
			},
			{
				"x": 4.4238267089,
				"y": -1.9824428758,
				"z": -2.1463636669,
				"element": "H" 
			},
			{
				"x": 3.0908384484,
				"y": -2.0310828892,
				"z": -3.2865815813,
				"element": "H" 
			},
			{
				"x": -1.1611257816,
				"y": 0.1661516824,
				"z": 3.2427925812,
				"element": "H" 
			},
			{
				"x": -1.1115941857,
				"y": 1.9496919844,
				"z": 3.2178729346,
				"element": "H" 
			},
			{
				"x": -3.300921587,
				"y": -0.1420700339,
				"z": 3.5812174747,
				"element": "H" 
			},
			{
				"x": -3.9094076686,
				"y": 1.511970224,
				"z": 3.5850216516,
				"element": "H" 
			},
			{
				"x": -5.8015385289,
				"y": 0.4252110812,
				"z": 2.7356421462,
				"element": "H" 
			},
			{
				"x": -4.883570267,
				"y": -0.8972509761,
				"z": 2.0225109584,
				"element": "H" 
			},
			{
				"x": -4.4173775374,
				"y": 0.2781801735,
				"z": 0.0316710955,
				"element": "H" 
			},
			{
				"x": -6.0209405126,
				"y": 0.9007819699,
				"z": 0.4084258911,
				"element": "H" 
			},
			{
				"x": -4.9501502794,
				"y": 2.8614565173,
				"z": 1.5780781022,
				"element": "H" 
			},
			{
				"x": -4.4971120593,
				"y": 2.8068634967,
				"z": -0.1159062486,
				"element": "H" 
			},
			{
				"x": -2.6296380983,
				"y": 3.1274676618,
				"z": 1.8082418179,
				"element": "H" 
			},
			{
				"x": -2.2703428168,
				"y": 2.2323523778,
				"z": 0.3311500534,
				"element": "H" 
			}
		],
		 "valence_orbital": [ 
			{
				"type": "occ",
				"energy": -0.2989,
				"method": "rhf"
			},
			{
				"type": "occ",
				"energy": -0.26534,
				"method": "rhf"
			},
			{
				"type": "occ",
				"energy": -0.26067,
				"method": "rhf"
			},
			{
				"type": "occ",
				"energy": -0.22846,
				"method": "rhf"
			},
			{
				"type": "occ",
				"energy": -0.20261,
				"method": "rhf"
			},
			{
				"type": "unocc",
				"energy": -0.05031,
				"method": "rhf"
			},
			{
				"type": "unocc",
				"energy": -0.03365,
				"method": "rhf"
			},
			{
				"type": "unocc",
				"energy": 0.00536,
				"method": "rhf"
			},
			{
				"type": "unocc",
				"energy": 0.02527,
				"method": "rhf"
			},
			{
				"type": "unocc",
				"energy": 0.03991,
				"method": "rhf"
			}
		],
		"cosmo_sigma_profile": { 
			"-0.025": 0.0,
			"-0.024": 0.0,
			"-0.023": 0.0,
			"-0.022": 0.0,
			"-0.021": 0.0,
			"-0.02": 0.0,
			"-0.019": 0.0,
			"-0.018": 0.0,
			"-0.017": 0.0,
			"-0.016": 0.0,
			"-0.015": 0.0,
			"-0.014": 0.0,
			"-0.013": 0.0,
			"-0.012": 0.0,
			"-0.011": 0.0,
			"-0.01": 0.0,
			"-0.009": 0.0,
			"-0.008": 0.0,
			"-0.007": 0.0,
			"-0.006": 0.596725740041,
			"-0.005": 7.40807063692,
			"-0.004": 14.9156562444,
			"-0.003": 37.7026262083,
			"-0.002": 62.9051828881,
			"-0.001": 66.188164609,
			"0.0": 51.3109219118,
			"0.001": 34.5374796651,
			"0.002": 18.8805509866,
			"0.003": 14.2978943205,
			"0.004": 11.3514322893,
			"0.005": 5.63607419572,
			"0.006": 3.71569880016,
			"0.007": 3.09336666329,
			"0.008": 2.19328750819,
			"0.009": 2.73894005362,
			"0.01": 2.40728768696,
			"0.011": 1.84907537288,
			"0.012": 1.96553056584,
			"0.013": 2.32471211907,
			"0.014": 1.45243995511,
			"0.015": 0.728800396869,
			"0.016": 0.0897345372967,
			"0.017": 0.0,
			"0.018": 0.0,
			"0.019": 0.0,
			"0.02": 0.0,
			"0.021": 0.0,
			"0.022": 0.0,
			"0.023": 0.0,
			"0.024": 0.0,
			"0.025": 0.0
		}
	}
}
