{
	 "smiles": "CNS(=O)(=O)C1=CC=C(C=C1)C(O)=O", 
	 "Tm": 521.15, 
	 "num_atms": 23, 
	 "gaussian": { 
		 "optdone": 1, 
		 "sigma_profile": "yes", 
		 "theory": "DFT", 
		 "functional": "B3LYP", 
		 "basiset": "6-31G**", 
		 "properties": { 
			 "R2extent": 3891.4435, 
			 "electric_dipole_moment_norm": 3.06367176114, 
			 "electric_quadrupole_moment_norm": 26.5639582675, 
			 "total_energy": -1064.04292432, 
			 "HOMO_LUMO_gap": 0.19679, 
			 "cosmo_polarized_energy": -22.56, 
			 "cosmo_cavitation_energy": 29.27, 
			 "cosmo_dispersion_energy": -21.55, 
			 "cosmo_repulsion_energy": 1.65, 
			 "cosmo_total_nonelectrostatic_energy": 9.37, 
			 "SMD_solvation_energy": 5.28 
		},
		"coords": [
			{
				"x": 2.8355511971,
				"y": 0.1476556774,
				"z": 2.5476098905,
				"element": "C" 
			},
			{
				"x": 3.0369925992,
				"y": 0.2809788026,
				"z": 1.0987842098,
				"element": "N" 
			},
			{
				"x": 2.1884969872,
				"y": 1.505304982,
				"z": 0.3038911344,
				"element": "S" 
			},
			{
				"x": 1.8649439339,
				"y": 2.6052807344,
				"z": 1.220422776,
				"element": "O" 
			},
			{
				"x": 2.9349872757,
				"y": 1.7364720185,
				"z": -0.9355286082,
				"element": "O" 
			},
			{
				"x": 0.6395450841,
				"y": 0.6836408987,
				"z": -0.0955067097,
				"element": "C" 
			},
			{
				"x": 0.6382755526,
				"y": -0.3664140611,
				"z": -1.0193622006,
				"element": "C" 
			},
			{
				"x": -0.5655977968,
				"y": -0.9810063615,
				"z": -1.3408884324,
				"element": "C" 
			},
			{
				"x": -1.7653642752,
				"y": -0.5353607045,
				"z": -0.7650134029,
				"element": "C" 
			},
			{
				"x": -1.7432180212,
				"y": 0.5149394934,
				"z": 0.1612091525,
				"element": "C" 
			},
			{
				"x": -0.5375168749,
				"y": 1.1299376461,
				"z": 0.5016038893,
				"element": "C" 
			},
			{
				"x": -3.0282246467,
				"y": -1.2522864486,
				"z": -1.1528379668,
				"element": "C" 
			},
			{
				"x": -4.1935341666,
				"y": -0.5769363126,
				"z": -0.9793421294,
				"element": "O" 
			},
			{
				"x": -3.0353205322,
				"y": -2.3753993049,
				"z": -1.596322818,
				"element": "O" 
			},
			{
				"x": 1.7927263274,
				"y": -0.1150721304,
				"z": 2.7430135299,
				"element": "H" 
			},
			{
				"x": 3.4591005551,
				"y": -0.6793964219,
				"z": 2.8945844313,
				"element": "H" 
			},
			{
				"x": 3.0818606061,
				"y": 1.0560789034,
				"z": 3.1075500903,
				"element": "H" 
			},
			{
				"x": 4.0107530816,
				"y": 0.3679679922,
				"z": 0.8164674311,
				"element": "H" 
			},
			{
				"x": 1.5674732068,
				"y": -0.6913834157,
				"z": -1.474283219,
				"element": "H" 
			},
			{
				"x": -0.6031086629,
				"y": -1.8086953175,
				"z": -2.0404946761,
				"element": "H" 
			},
			{
				"x": -2.6543505969,
				"y": 0.841637843,
				"z": 0.6558092702,
				"element": "H" 
			},
			{
				"x": -0.5004492886,
				"y": 1.9453378245,
				"z": 1.2151009472,
				"element": "H" 
			},
			{
				"x": -4.0197215449,
				"y": 0.3545176623,
				"z": -0.7848665896,
				"element": "H" 
			}
		],
		 "valence_orbital": [ 
			{
				"type": "occ",
				"energy": -0.31109,
				"method": "rhf"
			},
			{
				"type": "occ",
				"energy": -0.30188,
				"method": "rhf"
			},
			{
				"type": "occ",
				"energy": -0.29137,
				"method": "rhf"
			},
			{
				"type": "occ",
				"energy": -0.28394,
				"method": "rhf"
			},
			{
				"type": "occ",
				"energy": -0.27445,
				"method": "rhf"
			},
			{
				"type": "unocc",
				"energy": -0.07766,
				"method": "rhf"
			},
			{
				"type": "unocc",
				"energy": -0.04041,
				"method": "rhf"
			},
			{
				"type": "unocc",
				"energy": 0.01817,
				"method": "rhf"
			},
			{
				"type": "unocc",
				"energy": 0.04184,
				"method": "rhf"
			},
			{
				"type": "unocc",
				"energy": 0.05981,
				"method": "rhf"
			}
		],
		"cosmo_sigma_profile": { 
			"-0.025": 0.0,
			"-0.024": 0.0,
			"-0.023": 0.0,
			"-0.022": 0.0,
			"-0.021": 0.0,
			"-0.02": 0.0126285128859,
			"-0.019": 0.719905657955,
			"-0.018": 1.1391339448,
			"-0.017": 0.687259365465,
			"-0.016": 1.21780959868,
			"-0.015": 1.56827120025,
			"-0.014": 2.00890094492,
			"-0.013": 1.68280708213,
			"-0.012": 2.36628970223,
			"-0.011": 3.00011923346,
			"-0.01": 2.4406623556,
			"-0.009": 3.60272668899,
			"-0.008": 5.4715482446,
			"-0.007": 9.38203198357,
			"-0.006": 11.3563191297,
			"-0.005": 13.0486327784,
			"-0.004": 15.0960729908,
			"-0.003": 15.8442144809,
			"-0.002": 15.7383831784,
			"-0.001": 11.9003533402,
			"0.0": 14.7819809704,
			"0.001": 17.1493469409,
			"0.002": 7.25483650606,
			"0.003": 6.3544204586,
			"0.004": 5.44583727423,
			"0.005": 5.52031310928,
			"0.006": 6.03810797268,
			"0.007": 5.9947831762,
			"0.008": 6.13870091537,
			"0.009": 8.84231878411,
			"0.01": 12.1975340731,
			"0.011": 13.9976615167,
			"0.012": 4.96270705144,
			"0.013": 0.569160254045,
			"0.014": 0.0,
			"0.015": 0.0,
			"0.016": 0.0,
			"0.017": 0.0,
			"0.018": 0.0,
			"0.019": 0.0,
			"0.02": 0.0,
			"0.021": 0.0,
			"0.022": 0.0,
			"0.023": 0.0,
			"0.024": 0.0,
			"0.025": 0.0
		}
	}
}
