{
	 "smiles": "CCC1=C(CCCC1)C=NNC1=C(C=C(C=C1)[N+]([O-])=O)[N+]([O-])=O", 
	 "Tm": 467.15, 
	 "num_atms": 41, 
	 "gaussian": { 
		 "optdone": 1, 
		 "sigma_profile": "yes", 
		 "theory": "DFT", 
		 "functional": "B3LYP", 
		 "basiset": "6-31G**", 
		 "properties": { 
			 "R2extent": 13048.0805, 
			 "electric_dipole_moment_norm": 8.84110807535, 
			 "electric_quadrupole_moment_norm": 36.884980912, 
			 "total_energy": -1102.1092798, 
			 "HOMO_LUMO_gap": 0.12476, 
			 "cosmo_polarized_energy": -21.3, 
			 "cosmo_cavitation_energy": 45.46, 
			 "cosmo_dispersion_energy": -31.2, 
			 "cosmo_repulsion_energy": 2.39, 
			 "cosmo_total_nonelectrostatic_energy": 16.64, 
			 "SMD_solvation_energy": 11.47 
		},
		"coords": [
			{
				"x": -3.8489608233,
				"y": -0.3653415539,
				"z": 2.0362076155,
				"element": "C" 
			},
			{
				"x": -2.4402477969,
				"y": 0.0429434478,
				"z": 2.5101847831,
				"element": "C" 
			},
			{
				"x": -1.7947565637,
				"y": 1.0929082222,
				"z": 1.626021372,
				"element": "C" 
			},
			{
				"x": -0.9730060954,
				"y": 0.8195781544,
				"z": 0.5776531458,
				"element": "C" 
			},
			{
				"x": -0.3353502232,
				"y": 1.9052311813,
				"z": -0.2739484375,
				"element": "C" 
			},
			{
				"x": -0.4409958981,
				"y": 3.3040495517,
				"z": 0.3417642568,
				"element": "C" 
			},
			{
				"x": -1.8467130016,
				"y": 3.5438277593,
				"z": 0.896412304,
				"element": "C" 
			},
			{
				"x": -2.1589584158,
				"y": 2.5174743299,
				"z": 1.9897075511,
				"element": "C" 
			},
			{
				"x": -0.6923466778,
				"y": -0.5505898722,
				"z": 0.1739227797,
				"element": "C" 
			},
			{
				"x": 0.0777184068,
				"y": -0.7931082742,
				"z": -0.8328212703,
				"element": "N" 
			},
			{
				"x": 0.274537627,
				"y": -2.0938637845,
				"z": -1.1671788929,
				"element": "N" 
			},
			{
				"x": 1.075980241,
				"y": -2.45806317,
				"z": -2.215784971,
				"element": "C" 
			},
			{
				"x": 1.460631321,
				"y": -1.5896802296,
				"z": -3.2688184424,
				"element": "C" 
			},
			{
				"x": 2.3941531509,
				"y": -1.9785614609,
				"z": -4.2203149965,
				"element": "C" 
			},
			{
				"x": 2.8985257284,
				"y": -3.2728597673,
				"z": -4.1904569461,
				"element": "C" 
			},
			{
				"x": 2.4862823822,
				"y": -4.1846075679,
				"z": -3.2121444642,
				"element": "C" 
			},
			{
				"x": 1.5979045921,
				"y": -3.7737019071,
				"z": -2.2380244036,
				"element": "C" 
			},
			{
				"x": 3.8612461699,
				"y": -3.6890350054,
				"z": -5.2040092974,
				"element": "N" 
			},
			{
				"x": 4.2034316989,
				"y": -2.8578929875,
				"z": -6.0465020912,
				"element": "O" 
			},
			{
				"x": 4.2739660267,
				"y": -4.8500478162,
				"z": -5.1535224358,
				"element": "O" 
			},
			{
				"x": 0.8198377069,
				"y": -0.2854576561,
				"z": -3.4995796083,
				"element": "N" 
			},
			{
				"x": 1.552510226,
				"y": 0.6577301804,
				"z": -3.7907412131,
				"element": "O" 
			},
			{
				"x": -0.4066770502,
				"y": -0.2500841109,
				"z": -3.4588337117,
				"element": "O" 
			},
			{
				"x": -4.5097212037,
				"y": 0.5036232559,
				"z": 1.9552434078,
				"element": "H" 
			},
			{
				"x": -4.3076876018,
				"y": -1.0688795154,
				"z": 2.7386023924,
				"element": "H" 
			},
			{
				"x": -3.809962865,
				"y": -0.8411479352,
				"z": 1.0512329434,
				"element": "H" 
			},
			{
				"x": -1.8134977271,
				"y": -0.8498112187,
				"z": 2.5992829006,
				"element": "H" 
			},
			{
				"x": -2.5158285553,
				"y": 0.4530421243,
				"z": 3.5256214494,
				"element": "H" 
			},
			{
				"x": -0.801186356,
				"y": 1.8852041182,
				"z": -1.2687562889,
				"element": "H" 
			},
			{
				"x": 0.7131759186,
				"y": 1.6444248444,
				"z": -0.4514990949,
				"element": "H" 
			},
			{
				"x": 0.2888455947,
				"y": 3.4061302292,
				"z": 1.1564597957,
				"element": "H" 
			},
			{
				"x": -0.1812244698,
				"y": 4.0582311297,
				"z": -0.4088056784,
				"element": "H" 
			},
			{
				"x": -1.9468369668,
				"y": 4.558991477,
				"z": 1.296523264,
				"element": "H" 
			},
			{
				"x": -2.5797096302,
				"y": 3.4482999882,
				"z": 0.0845799956,
				"element": "H" 
			},
			{
				"x": -1.6219116595,
				"y": 2.7818190799,
				"z": 2.9152912766,
				"element": "H" 
			},
			{
				"x": -3.2235471303,
				"y": 2.5544472504,
				"z": 2.2585684403,
				"element": "H" 
			},
			{
				"x": -1.1656492105,
				"y": -1.3759659382,
				"z": 0.7178613241,
				"element": "H" 
			},
			{
				"x": -0.0388932947,
				"y": -2.8268278515,
				"z": -0.5343237251,
				"element": "H" 
			},
			{
				"x": 2.699274165,
				"y": -1.2886993419,
				"z": -4.9963902334,
				"element": "H" 
			},
			{
				"x": 2.8910191382,
				"y": -5.1887693632,
				"z": -3.2197980142,
				"element": "H" 
			},
			{
				"x": 1.3132291224,
				"y": -4.4602599965,
				"z": -1.445686781,
				"element": "H" 
			}
		],
		 "valence_orbital": [ 
			{
				"type": "occ",
				"energy": -0.29446,
				"method": "rhf"
			},
			{
				"type": "occ",
				"energy": -0.28804,
				"method": "rhf"
			},
			{
				"type": "occ",
				"energy": -0.27883,
				"method": "rhf"
			},
			{
				"type": "occ",
				"energy": -0.2639,
				"method": "rhf"
			},
			{
				"type": "occ",
				"energy": -0.21624,
				"method": "rhf"
			},
			{
				"type": "unocc",
				"energy": -0.09148,
				"method": "rhf"
			},
			{
				"type": "unocc",
				"energy": -0.07876,
				"method": "rhf"
			},
			{
				"type": "unocc",
				"energy": -0.04299,
				"method": "rhf"
			},
			{
				"type": "unocc",
				"energy": -0.03024,
				"method": "rhf"
			},
			{
				"type": "unocc",
				"energy": 0.00829,
				"method": "rhf"
			}
		],
		"cosmo_sigma_profile": { 
			"-0.025": 0.0,
			"-0.024": 0.0,
			"-0.023": 0.0,
			"-0.022": 0.0,
			"-0.021": 0.0,
			"-0.02": 0.0,
			"-0.019": 0.0,
			"-0.018": 0.0,
			"-0.017": 0.0913857942433,
			"-0.016": 1.78116291705,
			"-0.015": 2.04778190868,
			"-0.014": 1.8375988566,
			"-0.013": 1.76632027835,
			"-0.012": 1.83218892015,
			"-0.011": 1.09776575386,
			"-0.01": 1.48542838478,
			"-0.009": 3.55025589158,
			"-0.008": 5.35285187287,
			"-0.007": 6.88401788739,
			"-0.006": 7.69937657451,
			"-0.005": 8.10691202973,
			"-0.004": 12.9214859093,
			"-0.003": 29.8826083263,
			"-0.002": 42.8343166015,
			"-0.001": 51.8174753306,
			"0.0": 42.1885156756,
			"0.001": 30.3947226257,
			"0.002": 14.6192899281,
			"0.003": 13.1441907283,
			"0.004": 11.0038510925,
			"0.005": 8.98799142466,
			"0.006": 8.4500400037,
			"0.007": 14.0118083495,
			"0.008": 19.4593324373,
			"0.009": 9.41534431409,
			"0.01": 5.42129800957,
			"0.011": 0.921910309587,
			"0.012": 0.0,
			"0.013": 0.0,
			"0.014": 0.0,
			"0.015": 0.0,
			"0.016": 0.0,
			"0.017": 0.0,
			"0.018": 0.0,
			"0.019": 0.0,
			"0.02": 0.0,
			"0.021": 0.0,
			"0.022": 0.0,
			"0.023": 0.0,
			"0.024": 0.0,
			"0.025": 0.0
		}
	}
}
