{
	 "smiles": "NC(=O)CC1=C(Cl)C=C(F)C=C1", 
	 "Tm": 445.15, 
	 "num_atms": 19, 
	 "gaussian": { 
		 "optdone": 1, 
		 "sigma_profile": "yes", 
		 "theory": "DFT", 
		 "functional": "B3LYP", 
		 "basiset": "6-31G**", 
		 "properties": { 
			 "R2extent": 3765.8087, 
			 "electric_dipole_moment_norm": 1.80827461963, 
			 "electric_quadrupole_moment_norm": 12.7346204981, 
			 "total_energy": -999.091756817, 
			 "HOMO_LUMO_gap": 0.21365, 
			 "cosmo_polarized_energy": -11.65, 
			 "cosmo_cavitation_energy": 25.62, 
			 "cosmo_dispersion_energy": -18.44, 
			 "cosmo_repulsion_energy": 1.45, 
			 "cosmo_total_nonelectrostatic_energy": 8.64, 
			 "SMD_solvation_energy": 5.27 
		},
		"coords": [
			{
				"x": 3.0226328819,
				"y": 1.7946825991,
				"z": -1.2191586053,
				"element": "N" 
			},
			{
				"x": 2.8486320798,
				"y": 0.5000290005,
				"z": -0.8208754974,
				"element": "C" 
			},
			{
				"x": 3.0892146697,
				"y": 0.1100714213,
				"z": 0.3111537281,
				"element": "O" 
			},
			{
				"x": 2.3110179911,
				"y": -0.4456952188,
				"z": -1.9077968339,
				"element": "C" 
			},
			{
				"x": 0.7989014876,
				"y": -0.5144606331,
				"z": -1.8630494587,
				"element": "C" 
			},
			{
				"x": -0.0392830793,
				"y": 0.2116964129,
				"z": -2.7209135797,
				"element": "C" 
			},
			{
				"x": 0.6439340906,
				"y": 1.2801687275,
				"z": -3.9530121535,
				"element": "Cl" 
			},
			{
				"x": -1.4302423725,
				"y": 0.1380680273,
				"z": -2.6487444198,
				"element": "C" 
			},
			{
				"x": -1.9920870774,
				"y": -0.6785915179,
				"z": -1.6764406247,
				"element": "C" 
			},
			{
				"x": -3.3341127486,
				"y": -0.7587391271,
				"z": -1.5982172856,
				"element": "F" 
			},
			{
				"x": -1.2111198893,
				"y": -1.4075160478,
				"z": -0.7869589269,
				"element": "C" 
			},
			{
				"x": 0.1733235621,
				"y": -1.3140818302,
				"z": -0.8925350963,
				"element": "C" 
			},
			{
				"x": 2.6686367774,
				"y": 2.1230843754,
				"z": -2.1046561043,
				"element": "H" 
			},
			{
				"x": 3.2473251337,
				"y": 2.4742665462,
				"z": -0.5073003361,
				"element": "H" 
			},
			{
				"x": 2.7276522871,
				"y": -1.4305520803,
				"z": -1.6867233923,
				"element": "H" 
			},
			{
				"x": 2.6569279381,
				"y": -0.1417759226,
				"z": -2.8981326458,
				"element": "H" 
			},
			{
				"x": -2.0630448233,
				"y": 0.6999052272,
				"z": -3.3244866428,
				"element": "H" 
			},
			{
				"x": -1.6851823936,
				"y": -2.029111745,
				"z": -0.0358601249,
				"element": "H" 
			},
			{
				"x": 0.802673485,
				"y": -1.8636482147,
				"z": -0.1994920001,
				"element": "H" 
			}
		],
		 "valence_orbital": [ 
			{
				"type": "occ",
				"energy": -0.33059,
				"method": "rhf"
			},
			{
				"type": "occ",
				"energy": -0.27199,
				"method": "rhf"
			},
			{
				"type": "occ",
				"energy": -0.26869,
				"method": "rhf"
			},
			{
				"type": "occ",
				"energy": -0.26281,
				"method": "rhf"
			},
			{
				"type": "occ",
				"energy": -0.24122,
				"method": "rhf"
			},
			{
				"type": "unocc",
				"energy": -0.02757,
				"method": "rhf"
			},
			{
				"type": "unocc",
				"energy": -0.0199,
				"method": "rhf"
			},
			{
				"type": "unocc",
				"energy": 0.00909,
				"method": "rhf"
			},
			{
				"type": "unocc",
				"energy": 0.03439,
				"method": "rhf"
			},
			{
				"type": "unocc",
				"energy": 0.07905,
				"method": "rhf"
			}
		],
		"cosmo_sigma_profile": { 
			"-0.025": 0.0,
			"-0.024": 0.0,
			"-0.023": 0.0,
			"-0.022": 0.0,
			"-0.021": 0.0,
			"-0.02": 0.0,
			"-0.019": 0.0,
			"-0.018": 0.0,
			"-0.017": 0.0,
			"-0.016": 0.0,
			"-0.015": 0.00639748656421,
			"-0.014": 0.694785440531,
			"-0.013": 1.34113268994,
			"-0.012": 1.24826610709,
			"-0.011": 1.61270238737,
			"-0.01": 2.38416114786,
			"-0.009": 2.34897446781,
			"-0.008": 5.28123749125,
			"-0.007": 7.18494705749,
			"-0.006": 10.0448165146,
			"-0.005": 10.719582031,
			"-0.004": 9.7816893858,
			"-0.003": 12.2018915959,
			"-0.002": 12.5086008732,
			"-0.001": 13.0097334187,
			"0.0": 17.3005088196,
			"0.001": 21.368401859,
			"0.002": 20.0132005678,
			"0.003": 15.9948857426,
			"0.004": 17.4140592737,
			"0.005": 4.07443338005,
			"0.006": 1.62648629807,
			"0.007": 1.97414963177,
			"0.008": 1.62049180193,
			"0.009": 0.808967580368,
			"0.01": 1.25157127986,
			"0.011": 1.53236334675,
			"0.012": 2.14496587795,
			"0.013": 3.94548331006,
			"0.014": 4.57757051725,
			"0.015": 0.645155362084,
			"0.016": 0.0,
			"0.017": 0.0,
			"0.018": 0.0,
			"0.019": 0.0,
			"0.02": 0.0,
			"0.021": 0.0,
			"0.022": 0.0,
			"0.023": 0.0,
			"0.024": 0.0,
			"0.025": 0.0
		}
	}
}
