{
	 "smiles": "OC(=O)CCC(=O)C1=CC(F)=CC=C1", 
	 "Tm": 368.15, 
	 "num_atms": 23, 
	 "gaussian": { 
		 "optdone": 1, 
		 "sigma_profile": "yes", 
		 "theory": "DFT", 
		 "functional": "B3LYP", 
		 "basiset": "6-31G**", 
		 "properties": { 
			 "R2extent": 5294.6272, 
			 "electric_dipole_moment_norm": 3.27223553706, 
			 "electric_quadrupole_moment_norm": 18.7450459805, 
			 "total_energy": -712.00578588, 
			 "HOMO_LUMO_gap": 0.18915, 
			 "cosmo_polarized_energy": -17.45, 
			 "cosmo_cavitation_energy": 28.94, 
			 "cosmo_dispersion_energy": -20.56, 
			 "cosmo_repulsion_energy": 1.6, 
			 "cosmo_total_nonelectrostatic_energy": 9.99, 
			 "SMD_solvation_energy": 6.97 
		},
		"coords": [
			{
				"x": 0.3896319469,
				"y": 5.9882457123,
				"z": -0.8079808086,
				"element": "O" 
			},
			{
				"x": -0.3024984057,
				"y": 4.878403507,
				"z": -1.1810589084,
				"element": "C" 
			},
			{
				"x": -1.1887257832,
				"y": 4.9644868391,
				"z": -1.994627847,
				"element": "O" 
			},
			{
				"x": 0.1316356872,
				"y": 3.5869437832,
				"z": -0.5045523187,
				"element": "C" 
			},
			{
				"x": -0.6862164477,
				"y": 2.3874766687,
				"z": -0.9705373775,
				"element": "C" 
			},
			{
				"x": -0.2533815563,
				"y": 1.094142144,
				"z": -0.2949403142,
				"element": "C" 
			},
			{
				"x": 0.6572472954,
				"y": 1.0900979535,
				"z": 0.5216309782,
				"element": "O" 
			},
			{
				"x": -0.9656290709,
				"y": -0.1778599171,
				"z": -0.6498120914,
				"element": "C" 
			},
			{
				"x": -2.0145588358,
				"y": -0.2154981354,
				"z": -1.580945513,
				"element": "C" 
			},
			{
				"x": -2.6235554823,
				"y": -1.4331222593,
				"z": -1.8553775933,
				"element": "C" 
			},
			{
				"x": -3.6313933188,
				"y": -1.4678742077,
				"z": -2.7503510147,
				"element": "F" 
			},
			{
				"x": -2.2293049665,
				"y": -2.615749138,
				"z": -1.2389910428,
				"element": "C" 
			},
			{
				"x": -1.1840587848,
				"y": -2.5697782766,
				"z": -0.3130345051,
				"element": "C" 
			},
			{
				"x": -0.5555577597,
				"y": -1.3627899004,
				"z": -0.0187688314,
				"element": "C" 
			},
			{
				"x": 1.0639745365,
				"y": 5.758602149,
				"z": -0.1525675995,
				"element": "H" 
			},
			{
				"x": 1.1983332471,
				"y": 3.4191763852,
				"z": -0.6982790068,
				"element": "H" 
			},
			{
				"x": 0.049977168,
				"y": 3.70440406,
				"z": 0.5831330143,
				"element": "H" 
			},
			{
				"x": -1.7519294185,
				"y": 2.5618518572,
				"z": -0.7805826975,
				"element": "H" 
			},
			{
				"x": -0.6065828663,
				"y": 2.2774630207,
				"z": -2.0585545233,
				"element": "H" 
			},
			{
				"x": -2.3679864347,
				"y": 0.6708534177,
				"z": -2.0948095086,
				"element": "H" 
			},
			{
				"x": -2.7363348799,
				"y": -3.5420159274,
				"z": -1.486921683,
				"element": "H" 
			},
			{
				"x": -0.8635591751,
				"y": -3.4838078855,
				"z": 0.1774799682,
				"element": "H" 
			},
			{
				"x": 0.2569733049,
				"y": -1.3081518503,
				"z": 0.6968492241,
				"element": "H" 
			}
		],
		 "valence_orbital": [ 
			{
				"type": "occ",
				"energy": -0.31917,
				"method": "rhf"
			},
			{
				"type": "occ",
				"energy": -0.27766,
				"method": "rhf"
			},
			{
				"type": "occ",
				"energy": -0.27624,
				"method": "rhf"
			},
			{
				"type": "occ",
				"energy": -0.26262,
				"method": "rhf"
			},
			{
				"type": "occ",
				"energy": -0.25853,
				"method": "rhf"
			},
			{
				"type": "unocc",
				"energy": -0.06938,
				"method": "rhf"
			},
			{
				"type": "unocc",
				"energy": -0.01555,
				"method": "rhf"
			},
			{
				"type": "unocc",
				"energy": 0.00678,
				"method": "rhf"
			},
			{
				"type": "unocc",
				"energy": 0.02989,
				"method": "rhf"
			},
			{
				"type": "unocc",
				"energy": 0.0526,
				"method": "rhf"
			}
		],
		"cosmo_sigma_profile": { 
			"-0.025": 0.0,
			"-0.024": 0.0,
			"-0.023": 0.0,
			"-0.022": 0.0,
			"-0.021": 0.0,
			"-0.02": 0.0,
			"-0.019": 0.745332875772,
			"-0.018": 0.908257505294,
			"-0.017": 0.880210744267,
			"-0.016": 1.42079743582,
			"-0.015": 1.15748634984,
			"-0.014": 0.952820717973,
			"-0.013": 1.17156748727,
			"-0.012": 0.948225260459,
			"-0.011": 1.19037060356,
			"-0.01": 1.53162753472,
			"-0.009": 1.32604704829,
			"-0.008": 4.65358567496,
			"-0.007": 11.2211935052,
			"-0.006": 18.9066584414,
			"-0.005": 17.2023619486,
			"-0.004": 11.720829767,
			"-0.003": 9.19514844187,
			"-0.002": 9.63674060992,
			"-0.001": 10.9050609597,
			"0.0": 14.5092671114,
			"0.001": 16.113378113,
			"0.002": 18.0211991501,
			"0.003": 15.3606331229,
			"0.004": 13.7103401301,
			"0.005": 5.88882777819,
			"0.006": 3.16940117055,
			"0.007": 3.90380989714,
			"0.008": 4.52324417447,
			"0.009": 4.87604080121,
			"0.01": 6.7335860911,
			"0.011": 9.03079863632,
			"0.012": 7.09155657197,
			"0.013": 1.7580894119,
			"0.014": 0.0711479267437,
			"0.015": 0.0,
			"0.016": 0.0,
			"0.017": 0.0,
			"0.018": 0.0,
			"0.019": 0.0,
			"0.02": 0.0,
			"0.021": 0.0,
			"0.022": 0.0,
			"0.023": 0.0,
			"0.024": 0.0,
			"0.025": 0.0
		}
	}
}
