{
	 "smiles": "O=C=NC1=CC=CC=C1", 
	 "Tm": 241.85, 
	 "num_atms": 14, 
	 "gaussian": { 
		 "optdone": 1, 
		 "sigma_profile": "yes", 
		 "theory": "DFT", 
		 "functional": "B3LYP", 
		 "basiset": "6-31G**", 
		 "properties": { 
			 "R2extent": 1608.5853, 
			 "electric_dipole_moment_norm": 2.8082354709, 
			 "electric_quadrupole_moment_norm": 7.26668872252, 
			 "total_energy": -399.729651038, 
			 "HOMO_LUMO_gap": 0.21774, 
			 "cosmo_polarized_energy": -4.83, 
			 "cosmo_cavitation_energy": 19.72, 
			 "cosmo_dispersion_energy": -14.23, 
			 "cosmo_repulsion_energy": 1.17, 
			 "cosmo_total_nonelectrostatic_energy": 6.66, 
			 "SMD_solvation_energy": 6.21 
		},
		"coords": [
			{
				"x": -1.3921732876,
				"y": 2.0309756397,
				"z": -2.4801790907,
				"element": "O" 
			},
			{
				"x": -0.9032173623,
				"y": 1.2312607956,
				"z": -1.7602292196,
				"element": "C" 
			},
			{
				"x": -0.3751808803,
				"y": 0.513493819,
				"z": -0.9579899139,
				"element": "N" 
			},
			{
				"x": 0.0095779865,
				"y": -0.744109337,
				"z": -0.4997133336,
				"element": "C" 
			},
			{
				"x": 1.2606511614,
				"y": -1.2653728114,
				"z": -0.8567506876,
				"element": "C" 
			},
			{
				"x": 1.650797467,
				"y": -2.512718715,
				"z": -0.372363957,
				"element": "C" 
			},
			{
				"x": 0.8085327724,
				"y": -3.2397919297,
				"z": 0.4715833867,
				"element": "C" 
			},
			{
				"x": -0.4324090958,
				"y": -2.7106403933,
				"z": 0.8326081712,
				"element": "C" 
			},
			{
				"x": -0.8353095157,
				"y": -1.4645074667,
				"z": 0.3555786403,
				"element": "C" 
			},
			{
				"x": 1.9095806684,
				"y": -0.6897757737,
				"z": -1.5084128897,
				"element": "H" 
			},
			{
				"x": 2.6187055168,
				"y": -2.9155904425,
				"z": -0.6556872564,
				"element": "H" 
			},
			{
				"x": 1.1181194614,
				"y": -4.210108271,
				"z": 0.8474393056,
				"element": "H" 
			},
			{
				"x": -1.0922375684,
				"y": -3.2681783908,
				"z": 1.490788458,
				"element": "H" 
			},
			{
				"x": -1.7948373237,
				"y": -1.0417367232,
				"z": 0.6342283867,
				"element": "H" 
			}
		],
		 "valence_orbital": [ 
			{
				"type": "occ",
				"energy": -0.36239,
				"method": "rhf"
			},
			{
				"type": "occ",
				"energy": -0.32816,
				"method": "rhf"
			},
			{
				"type": "occ",
				"energy": -0.29196,
				"method": "rhf"
			},
			{
				"type": "occ",
				"energy": -0.26407,
				"method": "rhf"
			},
			{
				"type": "occ",
				"energy": -0.24134,
				"method": "rhf"
			},
			{
				"type": "unocc",
				"energy": -0.0236,
				"method": "rhf"
			},
			{
				"type": "unocc",
				"energy": -0.01386,
				"method": "rhf"
			},
			{
				"type": "unocc",
				"energy": 0.05173,
				"method": "rhf"
			},
			{
				"type": "unocc",
				"energy": 0.06228,
				"method": "rhf"
			},
			{
				"type": "unocc",
				"energy": 0.08766,
				"method": "rhf"
			}
		],
		"cosmo_sigma_profile": { 
			"-0.025": 0.0,
			"-0.024": 0.0,
			"-0.023": 0.0,
			"-0.022": 0.0,
			"-0.021": 0.0,
			"-0.02": 0.0,
			"-0.019": 0.0,
			"-0.018": 0.0,
			"-0.017": 0.0,
			"-0.016": 0.0,
			"-0.015": 0.0,
			"-0.014": 0.0,
			"-0.013": 0.0,
			"-0.012": 0.0,
			"-0.011": 0.0,
			"-0.01": 0.0,
			"-0.009": 0.0,
			"-0.008": 0.0,
			"-0.007": 2.41049576607,
			"-0.006": 9.66704144437,
			"-0.005": 12.6193079175,
			"-0.004": 16.0905768721,
			"-0.003": 13.6316808741,
			"-0.002": 14.1413340722,
			"-0.001": 9.89467775069,
			"0.0": 9.13772615211,
			"0.001": 11.031074057,
			"0.002": 11.7268981776,
			"0.003": 12.7504343243,
			"0.004": 13.7801040758,
			"0.005": 8.86204192468,
			"0.006": 1.96280905633,
			"0.007": 2.94326763822,
			"0.008": 8.0672378725,
			"0.009": 1.34135131436,
			"0.01": 0.0,
			"0.011": 0.0,
			"0.012": 0.0,
			"0.013": 0.0,
			"0.014": 0.0,
			"0.015": 0.0,
			"0.016": 0.0,
			"0.017": 0.0,
			"0.018": 0.0,
			"0.019": 0.0,
			"0.02": 0.0,
			"0.021": 0.0,
			"0.022": 0.0,
			"0.023": 0.0,
			"0.024": 0.0,
			"0.025": 0.0
		}
	}
}
