{
	 "smiles": "C(ON=C(C1=CC2=C(O1)C=CC=C2)C1=CC2=C(O1)C=CC=C2)C1=CC=CC=C1", 
	 "Tm": 401.15, 
	 "num_atms": 45, 
	 "gaussian": { 
		 "optdone": 1, 
		 "sigma_profile": "yes", 
		 "theory": "DFT", 
		 "functional": "B3LYP", 
		 "basiset": "6-31G**", 
		 "properties": { 
			 "R2extent": 13430.0421, 
			 "electric_dipole_moment_norm": 1.19132287395, 
			 "electric_quadrupole_moment_norm": 11.2052977854, 
			 "total_energy": -1205.14607196, 
			 "HOMO_LUMO_gap": 0.14432, 
			 "cosmo_polarized_energy": -11.66, 
			 "cosmo_cavitation_energy": 51.12, 
			 "cosmo_dispersion_energy": -35.51, 
			 "cosmo_repulsion_energy": 2.69, 
			 "cosmo_total_nonelectrostatic_energy": 18.3, 
			 "SMD_solvation_energy": 8.66 
		},
		"coords": [
			{
				"x": 2.9743544291,
				"y": 1.7841885647,
				"z": 0.4153413505,
				"element": "C" 
			},
			{
				"x": 1.6354174065,
				"y": 1.2795271435,
				"z": 0.6160697393,
				"element": "O" 
			},
			{
				"x": 1.6672340477,
				"y": -0.1023827009,
				"z": 0.6678811032,
				"element": "N" 
			},
			{
				"x": 0.4870590476,
				"y": -0.6440134069,
				"z": 0.7501549189,
				"element": "C" 
			},
			{
				"x": 0.5317779413,
				"y": -2.1018701036,
				"z": 0.9281747683,
				"element": "C" 
			},
			{
				"x": 1.4317091499,
				"y": -2.8865539978,
				"z": 1.5879767364,
				"element": "C" 
			},
			{
				"x": 1.0145709499,
				"y": -4.2465243943,
				"z": 1.3807816219,
				"element": "C" 
			},
			{
				"x": -0.1459678743,
				"y": -4.1629652566,
				"z": 0.585312064,
				"element": "C" 
			},
			{
				"x": -0.4396454765,
				"y": -2.8580531989,
				"z": 0.3074952061,
				"element": "O" 
			},
			{
				"x": -0.8709116436,
				"y": -5.2699828284,
				"z": 0.1595714984,
				"element": "C" 
			},
			{
				"x": -0.3920712393,
				"y": -6.5160962184,
				"z": 0.5609396515,
				"element": "C" 
			},
			{
				"x": 0.764281325,
				"y": -6.635014879,
				"z": 1.3572186197,
				"element": "C" 
			},
			{
				"x": 1.4749510831,
				"y": -5.5142203593,
				"z": 1.7742167444,
				"element": "C" 
			},
			{
				"x": -0.7908461965,
				"y": 0.0585992699,
				"z": 0.7152138321,
				"element": "C" 
			},
			{
				"x": -1.1574584348,
				"y": 1.3266915147,
				"z": 0.3470140565,
				"element": "C" 
			},
			{
				"x": -2.5768860879,
				"y": 1.4141404123,
				"z": 0.5357567681,
				"element": "C" 
			},
			{
				"x": -2.9688274667,
				"y": 0.1543486821,
				"z": 1.0301443241,
				"element": "C" 
			},
			{
				"x": -1.8898040226,
				"y": -0.6690766961,
				"z": 1.1400719435,
				"element": "O" 
			},
			{
				"x": -4.2818366451,
				"y": -0.1722478803,
				"z": 1.353402468,
				"element": "C" 
			},
			{
				"x": -5.2325264018,
				"y": 0.8279482565,
				"z": 1.1621704478,
				"element": "C" 
			},
			{
				"x": -4.8739163529,
				"y": 2.0992158095,
				"z": 0.6679143548,
				"element": "C" 
			},
			{
				"x": -3.5558048031,
				"y": 2.4065422338,
				"z": 0.3518634028,
				"element": "C" 
			},
			{
				"x": 3.390855247,
				"y": 1.7781055825,
				"z": -1.0355588183,
				"element": "C" 
			},
			{
				"x": 3.2944007033,
				"y": 2.9428672685,
				"z": -1.806235452,
				"element": "C" 
			},
			{
				"x": 3.6603270477,
				"y": 2.9383017474,
				"z": -3.1532939839,
				"element": "C" 
			},
			{
				"x": 4.1245792392,
				"y": 1.7623923373,
				"z": -3.7445116646,
				"element": "C" 
			},
			{
				"x": 4.2229618625,
				"y": 0.5942727447,
				"z": -2.9841902261,
				"element": "C" 
			},
			{
				"x": 3.8612208768,
				"y": 0.6025459087,
				"z": -1.6374306029,
				"element": "C" 
			},
			{
				"x": 2.9341140187,
				"y": 2.8050062079,
				"z": 0.8048096938,
				"element": "H" 
			},
			{
				"x": 3.6557706216,
				"y": 1.1911799179,
				"z": 1.0326483075,
				"element": "H" 
			},
			{
				"x": 2.2768128718,
				"y": -2.5257796212,
				"z": 2.1545228001,
				"element": "H" 
			},
			{
				"x": -1.7597053006,
				"y": -5.1604343633,
				"z": -0.4521212397,
				"element": "H" 
			},
			{
				"x": -0.9217374222,
				"y": -7.4129287096,
				"z": 0.2540296911,
				"element": "H" 
			},
			{
				"x": 1.1048247817,
				"y": -7.6239142823,
				"z": 1.6496915632,
				"element": "H" 
			},
			{
				"x": 2.3650903955,
				"y": -5.6165115657,
				"z": 2.3877574151,
				"element": "H" 
			},
			{
				"x": -0.4873145648,
				"y": 2.0892301158,
				"z": -0.011841952,
				"element": "H" 
			},
			{
				"x": -4.5418442194,
				"y": -1.1547084816,
				"z": 1.7316358647,
				"element": "H" 
			},
			{
				"x": -6.2725828201,
				"y": 0.6238418365,
				"z": 1.3981813518,
				"element": "H" 
			},
			{
				"x": -5.6465450867,
				"y": 2.8503189788,
				"z": 0.5333210885,
				"element": "H" 
			},
			{
				"x": -3.2877646451,
				"y": 3.387976278,
				"z": -0.0276140727,
				"element": "H" 
			},
			{
				"x": 2.9333299629,
				"y": 3.8603901548,
				"z": -1.3472281619,
				"element": "H" 
			},
			{
				"x": 3.5842050723,
				"y": 3.8502539789,
				"z": -3.7386476674,
				"element": "H" 
			},
			{
				"x": 4.4111394734,
				"y": 1.7559111262,
				"z": -4.7923490262,
				"element": "H" 
			},
			{
				"x": 4.585374165,
				"y": -0.3225444046,
				"z": -3.4404621089,
				"element": "H" 
			},
			{
				"x": 3.9305349848,
				"y": -0.3055727221,
				"z": -1.0461984197,
				"element": "H" 
			}
		],
		 "valence_orbital": [ 
			{
				"type": "occ",
				"energy": -0.24929,
				"method": "rhf"
			},
			{
				"type": "occ",
				"energy": -0.23773,
				"method": "rhf"
			},
			{
				"type": "occ",
				"energy": -0.23383,
				"method": "rhf"
			},
			{
				"type": "occ",
				"energy": -0.22032,
				"method": "rhf"
			},
			{
				"type": "occ",
				"energy": -0.20559,
				"method": "rhf"
			},
			{
				"type": "unocc",
				"energy": -0.06127,
				"method": "rhf"
			},
			{
				"type": "unocc",
				"energy": -0.02009,
				"method": "rhf"
			},
			{
				"type": "unocc",
				"energy": -0.01064,
				"method": "rhf"
			},
			{
				"type": "unocc",
				"energy": -0.0024,
				"method": "rhf"
			},
			{
				"type": "unocc",
				"energy": 0.00966,
				"method": "rhf"
			}
		],
		"cosmo_sigma_profile": { 
			"-0.025": 0.0,
			"-0.024": 0.0,
			"-0.023": 0.0,
			"-0.022": 0.0,
			"-0.021": 0.0,
			"-0.02": 0.0,
			"-0.019": 0.0,
			"-0.018": 0.0,
			"-0.017": 0.0,
			"-0.016": 0.0,
			"-0.015": 0.0,
			"-0.014": 0.0,
			"-0.013": 0.0,
			"-0.012": 0.0,
			"-0.011": 0.0,
			"-0.01": 0.0,
			"-0.009": 0.0,
			"-0.008": 0.583460183692,
			"-0.007": 6.89779875612,
			"-0.006": 25.5252563546,
			"-0.005": 33.5709169306,
			"-0.004": 36.2134217735,
			"-0.003": 31.0164091418,
			"-0.002": 21.1460116615,
			"-0.001": 25.1845885857,
			"0.0": 27.7284340879,
			"0.001": 37.2017328627,
			"0.002": 36.021512259,
			"0.003": 40.3617036177,
			"0.004": 36.4627315914,
			"0.005": 33.2224907745,
			"0.006": 11.5143977044,
			"0.007": 4.13189806502,
			"0.008": 3.20783045948,
			"0.009": 1.54772638718,
			"0.01": 0.428853184132,
			"0.011": 0.0,
			"0.012": 0.0,
			"0.013": 0.0,
			"0.014": 0.0,
			"0.015": 0.0,
			"0.016": 0.0,
			"0.017": 0.0,
			"0.018": 0.0,
			"0.019": 0.0,
			"0.02": 0.0,
			"0.021": 0.0,
			"0.022": 0.0,
			"0.023": 0.0,
			"0.024": 0.0,
			"0.025": 0.0
		}
	}
}
