{
	 "smiles": "CC1=CC(C(O)=O)=C(O)C(C)=C1", 
	 "Tm": 446.15, 
	 "num_atms": 22, 
	 "gaussian": { 
		 "optdone": 1, 
		 "sigma_profile": "yes", 
		 "theory": "DFT", 
		 "functional": "B3LYP", 
		 "basiset": "6-31G**", 
		 "properties": { 
			 "R2extent": 2264.6232, 
			 "electric_dipole_moment_norm": 4.399904291, 
			 "electric_quadrupole_moment_norm": 10.3162835537, 
			 "total_energy": -574.689575081, 
			 "HOMO_LUMO_gap": 0.17038, 
			 "cosmo_polarized_energy": -12.29, 
			 "cosmo_cavitation_energy": 25.33, 
			 "cosmo_dispersion_energy": -19.06, 
			 "cosmo_repulsion_energy": 1.51, 
			 "cosmo_total_nonelectrostatic_energy": 7.78, 
			 "SMD_solvation_energy": 5.82 
		},
		"coords": [
			{
				"x": 2.1977317503,
				"y": 2.0566780714,
				"z": -0.8202902313,
				"element": "C" 
			},
			{
				"x": 1.2439681901,
				"y": 1.07254139,
				"z": -0.1857755894,
				"element": "C" 
			},
			{
				"x": 0.7524634499,
				"y": -0.0218359257,
				"z": -0.8794174547,
				"element": "C" 
			},
			{
				"x": -0.1346817962,
				"y": -0.9460842647,
				"z": -0.2860244011,
				"element": "C" 
			},
			{
				"x": -0.6917577083,
				"y": -2.1085014251,
				"z": -1.0063074638,
				"element": "C" 
			},
			{
				"x": -0.4516913969,
				"y": -2.2425897749,
				"z": -2.3268926168,
				"element": "O" 
			},
			{
				"x": -1.3780422813,
				"y": -2.9686581182,
				"z": -0.459733463,
				"element": "O" 
			},
			{
				"x": -0.5130665676,
				"y": -0.7610546092,
				"z": 1.0667688791,
				"element": "C" 
			},
			{
				"x": -1.3281339088,
				"y": -1.6074620893,
				"z": 1.7127566368,
				"element": "O" 
			},
			{
				"x": -0.0315107876,
				"y": 0.3559982707,
				"z": 1.791117666,
				"element": "C" 
			},
			{
				"x": -0.4603688683,
				"y": 0.5384873614,
				"z": 3.2230566307,
				"element": "C" 
			},
			{
				"x": 0.8263272849,
				"y": 1.2388974544,
				"z": 1.1514323659,
				"element": "C" 
			},
			{
				"x": 3.1493238736,
				"y": 2.1004006465,
				"z": -0.2779014913,
				"element": "H" 
			},
			{
				"x": 1.7831954648,
				"y": 3.0715000161,
				"z": -0.8233986709,
				"element": "H" 
			},
			{
				"x": 2.42008678,
				"y": 1.7869469368,
				"z": -1.8567028827,
				"element": "H" 
			},
			{
				"x": 1.0951514406,
				"y": -0.1669211316,
				"z": -1.903011289,
				"element": "H" 
			},
			{
				"x": 0.0136336742,
				"y": -1.4674142312,
				"z": -2.6687662668,
				"element": "H" 
			},
			{
				"x": -1.539663624,
				"y": -2.3372223119,
				"z": 1.074308491,
				"element": "H" 
			},
			{
				"x": -1.5501559483,
				"y": 0.616330701,
				"z": 3.3008244093,
				"element": "H" 
			},
			{
				"x": -0.1683433633,
				"y": -0.3227183107,
				"z": 3.8336056815,
				"element": "H" 
			},
			{
				"x": -0.0151036857,
				"y": 1.4386089144,
				"z": 3.6543443062,
				"element": "H" 
			},
			{
				"x": 1.1985380279,
				"y": 2.0942724297,
				"z": 1.7121067544,
				"element": "H" 
			}
		],
		 "valence_orbital": [ 
			{
				"type": "occ",
				"energy": -0.33306,
				"method": "rhf"
			},
			{
				"type": "occ",
				"energy": -0.32594,
				"method": "rhf"
			},
			{
				"type": "occ",
				"energy": -0.28489,
				"method": "rhf"
			},
			{
				"type": "occ",
				"energy": -0.2624,
				"method": "rhf"
			},
			{
				"type": "occ",
				"energy": -0.22313,
				"method": "rhf"
			},
			{
				"type": "unocc",
				"energy": -0.05275,
				"method": "rhf"
			},
			{
				"type": "unocc",
				"energy": -0.00012,
				"method": "rhf"
			},
			{
				"type": "unocc",
				"energy": 0.04484,
				"method": "rhf"
			},
			{
				"type": "unocc",
				"energy": 0.05017,
				"method": "rhf"
			},
			{
				"type": "unocc",
				"energy": 0.09885,
				"method": "rhf"
			}
		],
		"cosmo_sigma_profile": { 
			"-0.025": 0.0,
			"-0.024": 0.0,
			"-0.023": 0.0,
			"-0.022": 0.0,
			"-0.021": 0.0,
			"-0.02": 0.0,
			"-0.019": 0.481772480175,
			"-0.018": 1.07800359922,
			"-0.017": 1.10252331416,
			"-0.016": 0.698853755044,
			"-0.015": 0.888680611809,
			"-0.014": 1.13500360779,
			"-0.013": 1.02498146302,
			"-0.012": 0.720133353593,
			"-0.011": 1.09941877192,
			"-0.01": 1.04502884834,
			"-0.009": 1.20827596796,
			"-0.008": 1.23231114449,
			"-0.007": 1.65338622429,
			"-0.006": 5.10353785352,
			"-0.005": 7.11914162786,
			"-0.004": 14.8102458697,
			"-0.003": 17.4878545081,
			"-0.002": 19.1222763075,
			"-0.001": 18.3508919945,
			"0.0": 23.1014947798,
			"0.001": 15.7382035923,
			"0.002": 12.0173338411,
			"0.003": 10.7689790528,
			"0.004": 10.6034545624,
			"0.005": 3.97356647127,
			"0.006": 4.51695309865,
			"0.007": 3.63282433516,
			"0.008": 4.64127394363,
			"0.009": 4.50919833134,
			"0.01": 6.36704828877,
			"0.011": 2.95328768722,
			"0.012": 2.09253550047,
			"0.013": 0.709868138017,
			"0.014": 0.0,
			"0.015": 0.0,
			"0.016": 0.0,
			"0.017": 0.0,
			"0.018": 0.0,
			"0.019": 0.0,
			"0.02": 0.0,
			"0.021": 0.0,
			"0.022": 0.0,
			"0.023": 0.0,
			"0.024": 0.0,
			"0.025": 0.0
		}
	}
}
