{
	 "smiles": "CC1(C)C2CCC1(C)C(=O)C2=CCC=C1/C2CCC(C)(C1=O)C2(C)C", 
	 "Tm": 539.15, 
	 "num_atms": 57, 
	 "gaussian": { 
		 "optdone": 1, 
		 "sigma_profile": "yes", 
		 "theory": "DFT", 
		 "functional": "B3LYP", 
		 "basiset": "6-31G**", 
		 "properties": { 
			 "R2extent": 10658.5826, 
			 "electric_dipole_moment_norm": 3.45857166761, 
			 "electric_quadrupole_moment_norm": 18.6852174306, 
			 "total_energy": -1046.16739363, 
			 "HOMO_LUMO_gap": 0.16744, 
			 "cosmo_polarized_energy": -11.56, 
			 "cosmo_cavitation_energy": 52.73, 
			 "cosmo_dispersion_energy": -33.86, 
			 "cosmo_repulsion_energy": 2.52, 
			 "cosmo_total_nonelectrostatic_energy": 21.4, 
			 "SMD_solvation_energy": 9.27 
		},
		"coords": [
			{
				"x": -0.2834869168,
				"y": 3.463558485,
				"z": -2.9096431767,
				"element": "C" 
			},
			{
				"x": -0.9975723658,
				"y": 3.4039552369,
				"z": -1.5475268622,
				"element": "C" 
			},
			{
				"x": -1.6489387162,
				"y": 4.7740703139,
				"z": -1.2997700648,
				"element": "C" 
			},
			{
				"x": -1.9849730889,
				"y": 2.1944038504,
				"z": -1.4175201017,
				"element": "C" 
			},
			{
				"x": -2.4191471213,
				"y": 2.2657809887,
				"z": 0.0737657887,
				"element": "C" 
			},
			{
				"x": -1.1070415215,
				"y": 2.708387892,
				"z": 0.7894845627,
				"element": "C" 
			},
			{
				"x": -0.0755552546,
				"y": 2.9017483603,
				"z": -0.3753899489,
				"element": "C" 
			},
			{
				"x": 1.1690902502,
				"y": 3.6897688558,
				"z": -0.008208198,
				"element": "C" 
			},
			{
				"x": 0.2070343549,
				"y": 1.45994497,
				"z": -0.8298458014,
				"element": "C" 
			},
			{
				"x": 1.233691679,
				"y": 0.8334884472,
				"z": -0.6169863574,
				"element": "O" 
			},
			{
				"x": -1.0434689705,
				"y": 1.0074334602,
				"z": -1.5285891357,
				"element": "C" 
			},
			{
				"x": -1.2817884825,
				"y": -0.1757444464,
				"z": -2.114120959,
				"element": "C" 
			},
			{
				"x": -0.3263074715,
				"y": -1.3426392219,
				"z": -2.1955673779,
				"element": "C" 
			},
			{
				"x": -0.8292701005,
				"y": -2.5032607476,
				"z": -1.3719288738,
				"element": "C" 
			},
			{
				"x": -0.2408711717,
				"y": -3.0102284587,
				"z": -0.2820631506,
				"element": "C" 
			},
			{
				"x": 1.0405921482,
				"y": -2.6501565567,
				"z": 0.4436014972,
				"element": "C" 
			},
			{
				"x": 2.0372400088,
				"y": -3.8064560798,
				"z": 0.1415520958,
				"element": "C" 
			},
			{
				"x": 1.4256543697,
				"y": -5.007184002,
				"z": 0.9272206843,
				"element": "C" 
			},
			{
				"x": 0.172676745,
				"y": -4.4038823602,
				"z": 1.649778844,
				"element": "C" 
			},
			{
				"x": -0.388985385,
				"y": -5.2471593226,
				"z": 2.7801653022,
				"element": "C" 
			},
			{
				"x": -0.8135211982,
				"y": -4.16076228,
				"z": 0.4961937476,
				"element": "C" 
			},
			{
				"x": -1.8332276284,
				"y": -4.7825283848,
				"z": 0.2575624196,
				"element": "O" 
			},
			{
				"x": 0.6433023932,
				"y": -2.9289735176,
				"z": 1.9362852406,
				"element": "C" 
			},
			{
				"x": -0.4820247175,
				"y": -2.0094459982,
				"z": 2.4432646068,
				"element": "C" 
			},
			{
				"x": 1.8172297557,
				"y": -2.8182756389,
				"z": 2.9224437566,
				"element": "C" 
			},
			{
				"x": 0.2165844927,
				"y": 2.5278028006,
				"z": -3.1733750693,
				"element": "H" 
			},
			{
				"x": 0.4703608141,
				"y": 4.2578926066,
				"z": -2.9174671261,
				"element": "H" 
			},
			{
				"x": -1.0022695738,
				"y": 3.6876283425,
				"z": -3.7059068903,
				"element": "H" 
			},
			{
				"x": -2.3876774968,
				"y": 4.9854124355,
				"z": -2.0814270677,
				"element": "H" 
			},
			{
				"x": -2.1571192698,
				"y": 4.8540395467,
				"z": -0.3368990104,
				"element": "H" 
			},
			{
				"x": -0.895940592,
				"y": 5.5683928855,
				"z": -1.3413717654,
				"element": "H" 
			},
			{
				"x": -2.8137062057,
				"y": 2.1793549372,
				"z": -2.1311994713,
				"element": "H" 
			},
			{
				"x": -2.7860764822,
				"y": 1.2991051925,
				"z": 0.4282325607,
				"element": "H" 
			},
			{
				"x": -3.2240950098,
				"y": 2.9921541617,
				"z": 0.2183360959,
				"element": "H" 
			},
			{
				"x": -0.7506941005,
				"y": 1.9725123101,
				"z": 1.5170708865,
				"element": "H" 
			},
			{
				"x": -1.2327833496,
				"y": 3.6518351185,
				"z": 1.3296617987,
				"element": "H" 
			},
			{
				"x": 1.7417627413,
				"y": 3.1573146085,
				"z": 0.7570785534,
				"element": "H" 
			},
			{
				"x": 1.8296702182,
				"y": 3.8202683081,
				"z": -0.8710781106,
				"element": "H" 
			},
			{
				"x": 0.9119165205,
				"y": 4.6801159592,
				"z": 0.3812346098,
				"element": "H" 
			},
			{
				"x": -2.2632633803,
				"y": -0.3326664894,
				"z": -2.565854171,
				"element": "H" 
			},
			{
				"x": -0.2645896551,
				"y": -1.6619661445,
				"z": -3.2472124704,
				"element": "H" 
			},
			{
				"x": 0.6675003812,
				"y": -1.0345703351,
				"z": -1.873039525,
				"element": "H" 
			},
			{
				"x": -1.7708245871,
				"y": -2.9619749649,
				"z": -1.6771237972,
				"element": "H" 
			},
			{
				"x": 1.4222628775,
				"y": -1.6476183482,
				"z": 0.2395064361,
				"element": "H" 
			},
			{
				"x": 2.1105373537,
				"y": -4.0015958641,
				"z": -0.9316370659,
				"element": "H" 
			},
			{
				"x": 3.042976869,
				"y": -3.5615138377,
				"z": 0.4949954492,
				"element": "H" 
			},
			{
				"x": 2.1225027163,
				"y": -5.4072068919,
				"z": 1.670506177,
				"element": "H" 
			},
			{
				"x": 1.1444320703,
				"y": -5.8413938679,
				"z": 0.2768563117,
				"element": "H" 
			},
			{
				"x": -0.7551616796,
				"y": -6.2029040133,
				"z": 2.3928286284,
				"element": "H" 
			},
			{
				"x": 0.3711283759,
				"y": -5.4527318543,
				"z": 3.541107273,
				"element": "H" 
			},
			{
				"x": -1.2361977943,
				"y": -4.7521704529,
				"z": 3.2653212654,
				"element": "H" 
			},
			{
				"x": -1.3660901491,
				"y": -2.021101915,
				"z": 1.8000276284,
				"element": "H" 
			},
			{
				"x": -0.7981434827,
				"y": -2.3004816959,
				"z": 3.4508312733,
				"element": "H" 
			},
			{
				"x": -0.1266683639,
				"y": -0.9740547347,
				"z": 2.496402842,
				"element": "H" 
			},
			{
				"x": 2.1875499087,
				"y": -1.7871476829,
				"z": 2.9498697613,
				"element": "H" 
			},
			{
				"x": 2.6622461876,
				"y": -3.4644150209,
				"z": 2.6767732865,
				"element": "H" 
			},
			{
				"x": 1.4907380517,
				"y": -3.0753589444,
				"z": 3.9360921658,
				"element": "H" 
			}
		],
		 "valence_orbital": [ 
			{
				"type": "occ",
				"energy": -0.29015,
				"method": "rhf"
			},
			{
				"type": "occ",
				"energy": -0.25949,
				"method": "rhf"
			},
			{
				"type": "occ",
				"energy": -0.24379,
				"method": "rhf"
			},
			{
				"type": "occ",
				"energy": -0.23688,
				"method": "rhf"
			},
			{
				"type": "occ",
				"energy": -0.22483,
				"method": "rhf"
			},
			{
				"type": "unocc",
				"energy": -0.05739,
				"method": "rhf"
			},
			{
				"type": "unocc",
				"energy": -0.0337,
				"method": "rhf"
			},
			{
				"type": "unocc",
				"energy": 0.06564,
				"method": "rhf"
			},
			{
				"type": "unocc",
				"energy": 0.06742,
				"method": "rhf"
			},
			{
				"type": "unocc",
				"energy": 0.07875,
				"method": "rhf"
			}
		],
		"cosmo_sigma_profile": { 
			"-0.025": 0.0,
			"-0.024": 0.0,
			"-0.023": 0.0,
			"-0.022": 0.0,
			"-0.021": 0.0,
			"-0.02": 0.0,
			"-0.019": 0.0,
			"-0.018": 0.0,
			"-0.017": 0.0,
			"-0.016": 0.0,
			"-0.015": 0.0,
			"-0.014": 0.0,
			"-0.013": 0.0,
			"-0.012": 0.0,
			"-0.011": 0.0,
			"-0.01": 0.0,
			"-0.009": 0.0,
			"-0.008": 0.0,
			"-0.007": 0.00378131314587,
			"-0.006": 2.22289133707,
			"-0.005": 8.0400403412,
			"-0.004": 19.1316019301,
			"-0.003": 50.7266266454,
			"-0.002": 70.9353620859,
			"-0.001": 67.5744287223,
			"0.0": 61.6879141156,
			"0.001": 54.6763410966,
			"0.002": 19.3822525682,
			"0.003": 9.9597447317,
			"0.004": 7.07253332459,
			"0.005": 4.34486577678,
			"0.006": 3.61470110158,
			"0.007": 3.16005373491,
			"0.008": 3.22531322171,
			"0.009": 3.92399611656,
			"0.01": 3.46127626521,
			"0.011": 4.20153683935,
			"0.012": 6.42727750737,
			"0.013": 4.19262840793,
			"0.014": 0.178361406809,
			"0.015": 0.0,
			"0.016": 0.0,
			"0.017": 0.0,
			"0.018": 0.0,
			"0.019": 0.0,
			"0.02": 0.0,
			"0.021": 0.0,
			"0.022": 0.0,
			"0.023": 0.0,
			"0.024": 0.0,
			"0.025": 0.0
		}
	}
}
