{
	 "smiles": "CCCC1=C(C=NN1)C(O)=O", 
	 "Tm": 481.15, 
	 "num_atms": 21, 
	 "gaussian": { 
		 "optdone": 1, 
		 "sigma_profile": "yes", 
		 "theory": "DFT", 
		 "functional": "B3LYP", 
		 "basiset": "6-31G**", 
		 "properties": { 
			 "R2extent": 2688.1627, 
			 "electric_dipole_moment_norm": 1.7121099439, 
			 "electric_quadrupole_moment_norm": 8.8372321023, 
			 "total_energy": -532.734105055, 
			 "HOMO_LUMO_gap": 0.22757, 
			 "cosmo_polarized_energy": -13.77, 
			 "cosmo_cavitation_energy": 24.81, 
			 "cosmo_dispersion_energy": -17.76, 
			 "cosmo_repulsion_energy": 1.45, 
			 "cosmo_total_nonelectrostatic_energy": 8.51, 
			 "SMD_solvation_energy": 4.38 
		},
		"coords": [
			{
				"x": 0.5716756937,
				"y": -2.7829730889,
				"z": 0.7258307694,
				"element": "C" 
			},
			{
				"x": 0.6701919135,
				"y": -1.4131086861,
				"z": 1.4031617908,
				"element": "C" 
			},
			{
				"x": 1.4416327432,
				"y": -0.3581419274,
				"z": 0.5747324523,
				"element": "C" 
			},
			{
				"x": 0.8066417061,
				"y": -0.0303065073,
				"z": -0.7425960101,
				"element": "C" 
			},
			{
				"x": 1.1001915769,
				"y": -0.4238309613,
				"z": -2.0515829471,
				"element": "C" 
			},
			{
				"x": 0.1213208902,
				"y": 0.2173481023,
				"z": -2.859302803,
				"element": "C" 
			},
			{
				"x": -0.7153429061,
				"y": 0.9453762203,
				"z": -2.1363695371,
				"element": "N" 
			},
			{
				"x": -0.2755828956,
				"y": 0.7744991711,
				"z": -0.8597119099,
				"element": "N" 
			},
			{
				"x": 2.1960416675,
				"y": -1.2942089266,
				"z": -2.4681260695,
				"element": "C" 
			},
			{
				"x": 2.2324293714,
				"y": -1.4623443442,
				"z": -3.8162610063,
				"element": "O" 
			},
			{
				"x": 3.0101833425,
				"y": -1.8301420854,
				"z": -1.7338729082,
				"element": "O" 
			},
			{
				"x": 1.5643513629,
				"y": -3.1701882671,
				"z": 0.4770599405,
				"element": "H" 
			},
			{
				"x": -0.0012954434,
				"y": -2.7272463797,
				"z": -0.2052093381,
				"element": "H" 
			},
			{
				"x": 0.0741041709,
				"y": -3.505209315,
				"z": 1.3808937141,
				"element": "H" 
			},
			{
				"x": 1.1831052788,
				"y": -1.51349698,
				"z": 2.3673621696,
				"element": "H" 
			},
			{
				"x": -0.3365551776,
				"y": -1.0371908675,
				"z": 1.6301730121,
				"element": "H" 
			},
			{
				"x": 1.5354209672,
				"y": 0.5632831766,
				"z": 1.1642674675,
				"element": "H" 
			},
			{
				"x": 2.450378386,
				"y": -0.7238260234,
				"z": 0.3704501117,
				"element": "H" 
			},
			{
				"x": 0.012618303,
				"y": 0.1648896466,
				"z": -3.9334172471,
				"element": "H" 
			},
			{
				"x": -0.7597742735,
				"y": 1.2506772704,
				"z": -0.1132592193,
				"element": "H" 
			},
			{
				"x": 2.9872633225,
				"y": -2.0496592273,
				"z": -3.9855224324,
				"element": "H" 
			}
		],
		 "valence_orbital": [ 
			{
				"type": "occ",
				"energy": -0.31438,
				"method": "rhf"
			},
			{
				"type": "occ",
				"energy": -0.2982,
				"method": "rhf"
			},
			{
				"type": "occ",
				"energy": -0.27019,
				"method": "rhf"
			},
			{
				"type": "occ",
				"energy": -0.26883,
				"method": "rhf"
			},
			{
				"type": "occ",
				"energy": -0.24996,
				"method": "rhf"
			},
			{
				"type": "unocc",
				"energy": -0.02239,
				"method": "rhf"
			},
			{
				"type": "unocc",
				"energy": 0.01593,
				"method": "rhf"
			},
			{
				"type": "unocc",
				"energy": 0.06583,
				"method": "rhf"
			},
			{
				"type": "unocc",
				"energy": 0.0862,
				"method": "rhf"
			},
			{
				"type": "unocc",
				"energy": 0.10649,
				"method": "rhf"
			}
		],
		"cosmo_sigma_profile": { 
			"-0.025": 0.0,
			"-0.024": 0.0,
			"-0.023": 0.0,
			"-0.022": 0.0,
			"-0.021": 0.0,
			"-0.02": 0.0,
			"-0.019": 0.0,
			"-0.018": 0.418546906655,
			"-0.017": 1.64604957937,
			"-0.016": 2.35291660094,
			"-0.015": 1.9273937298,
			"-0.014": 1.25305622094,
			"-0.013": 2.05250589709,
			"-0.012": 1.87973763346,
			"-0.011": 2.00396110491,
			"-0.01": 1.56508308818,
			"-0.009": 1.40667849145,
			"-0.008": 2.49519289145,
			"-0.007": 3.44745115658,
			"-0.006": 4.39102608782,
			"-0.005": 5.74044345143,
			"-0.004": 5.09273408436,
			"-0.003": 11.7985659795,
			"-0.002": 17.3754043097,
			"-0.001": 22.9210159807,
			"0.0": 21.690784496,
			"0.001": 17.7104071094,
			"0.002": 12.6766936512,
			"0.003": 9.56452824472,
			"0.004": 5.86591629654,
			"0.005": 5.42454832145,
			"0.006": 5.25944978371,
			"0.007": 4.03841722311,
			"0.008": 4.85757819991,
			"0.009": 3.55867744542,
			"0.01": 3.27974507561,
			"0.011": 3.00958325455,
			"0.012": 4.0987814973,
			"0.013": 2.28463945411,
			"0.014": 0.989625571692,
			"0.015": 1.0464194084,
			"0.016": 0.215046925686,
			"0.017": 0.0,
			"0.018": 0.0,
			"0.019": 0.0,
			"0.02": 0.0,
			"0.021": 0.0,
			"0.022": 0.0,
			"0.023": 0.0,
			"0.024": 0.0,
			"0.025": 0.0
		}
	}
}
