{
	 "smiles": "COC1=C(OC)C=C2C(=O)OC(C)=NC2=C1", 
	 "Tm": 461.15, 
	 "num_atms": 27, 
	 "gaussian": { 
		 "optdone": 1, 
		 "sigma_profile": "yes", 
		 "theory": "DFT", 
		 "functional": "B3LYP", 
		 "basiset": "6-31G**", 
		 "properties": { 
			 "R2extent": 4259.4495, 
			 "electric_dipole_moment_norm": 4.98877430037, 
			 "electric_quadrupole_moment_norm": 11.6978417356, 
			 "total_energy": -781.438667358, 
			 "HOMO_LUMO_gap": 0.17831, 
			 "cosmo_polarized_energy": -13.17, 
			 "cosmo_cavitation_energy": 31.55, 
			 "cosmo_dispersion_energy": -23.08, 
			 "cosmo_repulsion_energy": 1.8, 
			 "cosmo_total_nonelectrostatic_energy": 10.27, 
			 "SMD_solvation_energy": 6.78 
		},
		"coords": [
			{
				"x": -1.2163376285,
				"y": -2.3587628888,
				"z": -2.0715697853,
				"element": "C" 
			},
			{
				"x": -0.1110590462,
				"y": -1.4631270283,
				"z": -2.0264602932,
				"element": "O" 
			},
			{
				"x": 0.0047076718,
				"y": -0.634965089,
				"z": -0.9586561965,
				"element": "C" 
			},
			{
				"x": 1.1108602344,
				"y": 0.2654864644,
				"z": -0.9970947023,
				"element": "C" 
			},
			{
				"x": 1.9504392199,
				"y": 0.3045922745,
				"z": -2.0783151277,
				"element": "O" 
			},
			{
				"x": 2.8254521269,
				"y": -0.8171135757,
				"z": -2.2352194566,
				"element": "C" 
			},
			{
				"x": 1.2929842444,
				"y": 1.1627908896,
				"z": 0.0383601966,
				"element": "C" 
			},
			{
				"x": 0.4016879523,
				"y": 1.1925977856,
				"z": 1.1246275974,
				"element": "C" 
			},
			{
				"x": 0.5933658385,
				"y": 2.1386697386,
				"z": 2.2152448188,
				"element": "C" 
			},
			{
				"x": 1.4628181635,
				"y": 2.9655012308,
				"z": 2.3396216503,
				"element": "O" 
			},
			{
				"x": -0.3734254227,
				"y": 2.0465328234,
				"z": 3.2330603523,
				"element": "O" 
			},
			{
				"x": -1.3918742608,
				"y": 1.1379933016,
				"z": 3.1778826937,
				"element": "C" 
			},
			{
				"x": -2.2851924731,
				"y": 1.2385251854,
				"z": 4.3726081605,
				"element": "C" 
			},
			{
				"x": -1.5859007255,
				"y": 0.2912660761,
				"z": 2.234117335,
				"element": "N" 
			},
			{
				"x": -0.6836311491,
				"y": 0.2973200867,
				"z": 1.1719784619,
				"element": "C" 
			},
			{
				"x": -0.8737014027,
				"y": -0.6154258364,
				"z": 0.1218891335,
				"element": "C" 
			},
			{
				"x": -2.1688308276,
				"y": -1.8160999479,
				"z": -2.0596745272,
				"element": "H" 
			},
			{
				"x": -1.1203449642,
				"y": -2.9027898121,
				"z": -3.011728076,
				"element": "H" 
			},
			{
				"x": -1.1928210121,
				"y": -3.067814492,
				"z": -1.235290639,
				"element": "H" 
			},
			{
				"x": 3.4742095332,
				"y": -0.9310405334,
				"z": -1.3574217605,
				"element": "H" 
			},
			{
				"x": 2.2667256087,
				"y": -1.742746343,
				"z": -2.4019495478,
				"element": "H" 
			},
			{
				"x": 3.4400672606,
				"y": -0.5999173708,
				"z": -3.1107821601,
				"element": "H" 
			},
			{
				"x": 2.1257592709,
				"y": 1.8561838326,
				"z": 0.0041702201,
				"element": "H" 
			},
			{
				"x": -1.7114489131,
				"y": 1.0695455944,
				"z": 5.2897860308,
				"element": "H" 
			},
			{
				"x": -2.7146629819,
				"y": 2.2434744506,
				"z": 4.4404038817,
				"element": "H" 
			},
			{
				"x": -3.0828339759,
				"y": 0.500544643,
				"z": 4.2944849281,
				"element": "H" 
			},
			{
				"x": -1.7226123421,
				"y": -1.28392146,
				"z": 0.1838268116,
				"element": "H" 
			}
		],
		 "valence_orbital": [ 
			{
				"type": "occ",
				"energy": -0.28263,
				"method": "rhf"
			},
			{
				"type": "occ",
				"energy": -0.28102,
				"method": "rhf"
			},
			{
				"type": "occ",
				"energy": -0.27557,
				"method": "rhf"
			},
			{
				"type": "occ",
				"energy": -0.25024,
				"method": "rhf"
			},
			{
				"type": "occ",
				"energy": -0.22534,
				"method": "rhf"
			},
			{
				"type": "unocc",
				"energy": -0.04703,
				"method": "rhf"
			},
			{
				"type": "unocc",
				"energy": -0.03372,
				"method": "rhf"
			},
			{
				"type": "unocc",
				"energy": 0.02717,
				"method": "rhf"
			},
			{
				"type": "unocc",
				"energy": 0.06812,
				"method": "rhf"
			},
			{
				"type": "unocc",
				"energy": 0.08098,
				"method": "rhf"
			}
		],
		"cosmo_sigma_profile": { 
			"-0.025": 0.0,
			"-0.024": 0.0,
			"-0.023": 0.0,
			"-0.022": 0.0,
			"-0.021": 0.0,
			"-0.02": 0.0,
			"-0.019": 0.0,
			"-0.018": 0.0,
			"-0.017": 0.0,
			"-0.016": 0.0,
			"-0.015": 0.0,
			"-0.014": 0.0,
			"-0.013": 0.0,
			"-0.012": 0.0,
			"-0.011": 0.0,
			"-0.01": 0.0,
			"-0.009": 0.0,
			"-0.008": 0.306849088017,
			"-0.007": 6.01632844112,
			"-0.006": 19.2850189198,
			"-0.005": 21.1066866388,
			"-0.004": 27.0777610129,
			"-0.003": 25.4575516206,
			"-0.002": 23.9186401005,
			"-0.001": 16.1528350022,
			"0.0": 16.3315847132,
			"0.001": 18.4657962845,
			"0.002": 15.5314139119,
			"0.003": 8.37256403537,
			"0.004": 6.07475064848,
			"0.005": 5.68818116247,
			"0.006": 5.68446359699,
			"0.007": 4.93165376696,
			"0.008": 5.08992595513,
			"0.009": 6.44346944814,
			"0.01": 6.22528460871,
			"0.011": 7.83350731967,
			"0.012": 4.48021147267,
			"0.013": 1.05470561758,
			"0.014": 0.271045008242,
			"0.015": 0.0,
			"0.016": 0.0,
			"0.017": 0.0,
			"0.018": 0.0,
			"0.019": 0.0,
			"0.02": 0.0,
			"0.021": 0.0,
			"0.022": 0.0,
			"0.023": 0.0,
			"0.024": 0.0,
			"0.025": 0.0
		}
	}
}
