{
	 "smiles": "CCCCC=CCCCC", 
	 "Tm": 200.15, 
	 "num_atms": 30, 
	 "gaussian": { 
		 "optdone": 1, 
		 "sigma_profile": "yes", 
		 "theory": "DFT", 
		 "functional": "B3LYP", 
		 "basiset": "6-31G**", 
		 "properties": { 
			 "R2extent": 2583.7027, 
			 "electric_dipole_moment_norm": 0.187189022114, 
			 "electric_quadrupole_moment_norm": 1.53135437767, 
			 "total_energy": -393.123166245, 
			 "HOMO_LUMO_gap": 0.26234, 
			 "cosmo_polarized_energy": -1.36, 
			 "cosmo_cavitation_energy": 30.7, 
			 "cosmo_dispersion_energy": -20.94, 
			 "cosmo_repulsion_energy": 1.76, 
			 "cosmo_total_nonelectrostatic_energy": 11.52, 
			 "SMD_solvation_energy": 4.64 
		},
		"coords": [
			{
				"x": 1.3706214183,
				"y": 0.3762325755,
				"z": 2.7996238922,
				"element": "C" 
			},
			{
				"x": 0.2001271506,
				"y": 0.8710620269,
				"z": 1.9437693233,
				"element": "C" 
			},
			{
				"x": 0.5194280298,
				"y": 2.1688311133,
				"z": 1.1871860013,
				"element": "C" 
			},
			{
				"x": -0.6325038374,
				"y": 2.7074075087,
				"z": 0.3246898898,
				"element": "C" 
			},
			{
				"x": -0.9427857841,
				"y": 1.9774813676,
				"z": -0.9610801581,
				"element": "C" 
			},
			{
				"x": -0.2518095699,
				"y": 0.983894502,
				"z": -1.5283295336,
				"element": "C" 
			},
			{
				"x": -0.5659474766,
				"y": 0.3670683526,
				"z": -2.8671964422,
				"element": "C" 
			},
			{
				"x": -0.6645277254,
				"y": -1.1746422952,
				"z": -2.9041423435,
				"element": "C" 
			},
			{
				"x": -1.9398462709,
				"y": -1.7929700598,
				"z": -2.3030786554,
				"element": "C" 
			},
			{
				"x": -2.0208457645,
				"y": -1.787053702,
				"z": -0.7718515285,
				"element": "C" 
			},
			{
				"x": 1.1126501564,
				"y": -0.5403806629,
				"z": 3.3402719116,
				"element": "H" 
			},
			{
				"x": 1.6664993947,
				"y": 1.1274672868,
				"z": 3.5412209399,
				"element": "H" 
			},
			{
				"x": 2.2504951287,
				"y": 0.1605492878,
				"z": 2.1822898559,
				"element": "H" 
			},
			{
				"x": -0.0935547311,
				"y": 0.0881089439,
				"z": 1.2355941936,
				"element": "H" 
			},
			{
				"x": -0.6753509622,
				"y": 1.0417684765,
				"z": 2.5852693158,
				"element": "H" 
			},
			{
				"x": 0.7897821711,
				"y": 2.9406373528,
				"z": 1.9200307396,
				"element": "H" 
			},
			{
				"x": 1.4125212994,
				"y": 2.0257211121,
				"z": 0.5637811759,
				"element": "H" 
			},
			{
				"x": -1.5479210939,
				"y": 2.7483751092,
				"z": 0.9345954988,
				"element": "H" 
			},
			{
				"x": -0.4242674065,
				"y": 3.7571085583,
				"z": 0.0667369369,
				"element": "H" 
			},
			{
				"x": -1.8263936344,
				"y": 2.346772508,
				"z": -1.4863712182,
				"element": "H" 
			},
			{
				"x": 0.6367626923,
				"y": 0.5929783001,
				"z": -1.0310286327,
				"element": "H" 
			},
			{
				"x": 0.2325080587,
				"y": 0.6574591116,
				"z": -3.5672229748,
				"element": "H" 
			},
			{
				"x": -1.4913974947,
				"y": 0.80269583,
				"z": -3.2668857328,
				"element": "H" 
			},
			{
				"x": -0.6020220706,
				"y": -1.4814350863,
				"z": -3.9560948663,
				"element": "H" 
			},
			{
				"x": 0.2189030179,
				"y": -1.607622962,
				"z": -2.4130137531,
				"element": "H" 
			},
			{
				"x": -2.8159426815,
				"y": -1.2762223811,
				"z": -2.7192542801,
				"element": "H" 
			},
			{
				"x": -2.0118045394,
				"y": -2.8312558655,
				"z": -2.6529563702,
				"element": "H" 
			},
			{
				"x": -2.0278429616,
				"y": -0.7709080205,
				"z": -0.3705459162,
				"element": "H" 
			},
			{
				"x": -1.1642276564,
				"y": -2.3124332674,
				"z": -0.3326251265,
				"element": "H" 
			},
			{
				"x": -2.9293068569,
				"y": -2.2930950212,
				"z": -0.4268821426,
				"element": "H" 
			}
		],
		 "valence_orbital": [ 
			{
				"type": "occ",
				"energy": -0.32138,
				"method": "rhf"
			},
			{
				"type": "occ",
				"energy": -0.31721,
				"method": "rhf"
			},
			{
				"type": "occ",
				"energy": -0.31579,
				"method": "rhf"
			},
			{
				"type": "occ",
				"energy": -0.30589,
				"method": "rhf"
			},
			{
				"type": "occ",
				"energy": -0.23137,
				"method": "rhf"
			},
			{
				"type": "unocc",
				"energy": 0.03097,
				"method": "rhf"
			},
			{
				"type": "unocc",
				"energy": 0.08979,
				"method": "rhf"
			},
			{
				"type": "unocc",
				"energy": 0.10099,
				"method": "rhf"
			},
			{
				"type": "unocc",
				"energy": 0.10446,
				"method": "rhf"
			},
			{
				"type": "unocc",
				"energy": 0.1238,
				"method": "rhf"
			}
		],
		"cosmo_sigma_profile": { 
			"-0.025": 0.0,
			"-0.024": 0.0,
			"-0.023": 0.0,
			"-0.022": 0.0,
			"-0.021": 0.0,
			"-0.02": 0.0,
			"-0.019": 0.0,
			"-0.018": 0.0,
			"-0.017": 0.0,
			"-0.016": 0.0,
			"-0.015": 0.0,
			"-0.014": 0.0,
			"-0.013": 0.0,
			"-0.012": 0.0,
			"-0.011": 0.0,
			"-0.01": 0.0,
			"-0.009": 0.0,
			"-0.008": 0.0,
			"-0.007": 0.0,
			"-0.006": 0.0,
			"-0.005": 0.0,
			"-0.004": 0.485748328165,
			"-0.003": 10.5371738765,
			"-0.002": 37.4823940585,
			"-0.001": 48.708421345,
			"0.0": 50.4527259807,
			"0.001": 48.5242993534,
			"0.002": 25.829403129,
			"0.003": 7.63887124966,
			"0.004": 2.61913371117,
			"0.005": 1.37373994147,
			"0.006": 1.36082571253,
			"0.007": 0.96928155435,
			"0.008": 0.0356925605434,
			"0.009": 0.0,
			"0.01": 0.0,
			"0.011": 0.0,
			"0.012": 0.0,
			"0.013": 0.0,
			"0.014": 0.0,
			"0.015": 0.0,
			"0.016": 0.0,
			"0.017": 0.0,
			"0.018": 0.0,
			"0.019": 0.0,
			"0.02": 0.0,
			"0.021": 0.0,
			"0.022": 0.0,
			"0.023": 0.0,
			"0.024": 0.0,
			"0.025": 0.0
		}
	}
}
