{
	 "smiles": "CN(C)C1=C(C=CC=C1)C(O)=O", 
	 "Tm": 345.15, 
	 "num_atms": 23, 
	 "gaussian": { 
		 "optdone": 1, 
		 "sigma_profile": "yes", 
		 "theory": "DFT", 
		 "functional": "B3LYP", 
		 "basiset": "6-31G**", 
		 "properties": { 
			 "R2extent": 2565.235, 
			 "electric_dipole_moment_norm": 3.01507110032, 
			 "electric_quadrupole_moment_norm": 7.81744788214, 
			 "total_energy": -554.787683937, 
			 "HOMO_LUMO_gap": 0.16222, 
			 "cosmo_polarized_energy": -10.54, 
			 "cosmo_cavitation_energy": 25.79, 
			 "cosmo_dispersion_energy": -18.9, 
			 "cosmo_repulsion_energy": 1.5, 
			 "cosmo_total_nonelectrostatic_energy": 8.39, 
			 "SMD_solvation_energy": 5.47 
		},
		"coords": [
			{
				"x": 0.9592371616,
				"y": 1.6596486301,
				"z": -2.5955350898,
				"element": "C" 
			},
			{
				"x": 1.2529053382,
				"y": 0.7986791756,
				"z": -1.4643546883,
				"element": "N" 
			},
			{
				"x": 1.5420457246,
				"y": -0.5783056869,
				"z": -1.8524695133,
				"element": "C" 
			},
			{
				"x": 0.6812136383,
				"y": 1.0776985573,
				"z": -0.2233572265,
				"element": "C" 
			},
			{
				"x": 1.1920712079,
				"y": 0.5380829495,
				"z": 0.9944627975,
				"element": "C" 
			},
			{
				"x": 0.5015979049,
				"y": 0.7668858081,
				"z": 2.197551045,
				"element": "C" 
			},
			{
				"x": -0.6249723338,
				"y": 1.5755548427,
				"z": 2.2559295664,
				"element": "C" 
			},
			{
				"x": -1.0806713284,
				"y": 2.1719314328,
				"z": 1.0778106196,
				"element": "C" 
			},
			{
				"x": -0.4481550505,
				"y": 1.9219063487,
				"z": -0.1344623579,
				"element": "C" 
			},
			{
				"x": 2.485129231,
				"y": -0.1790168886,
				"z": 1.1683266083,
				"element": "C" 
			},
			{
				"x": 3.4072052014,
				"y": 0.0564065799,
				"z": 0.199115796,
				"element": "O" 
			},
			{
				"x": 2.7609709582,
				"y": -0.8706998958,
				"z": 2.1329882763,
				"element": "O" 
			},
			{
				"x": 1.7234957583,
				"y": 1.4997153505,
				"z": -3.3628126994,
				"element": "H" 
			},
			{
				"x": -0.023682777,
				"y": 1.4616054386,
				"z": -3.0575924599,
				"element": "H" 
			},
			{
				"x": 0.9999771898,
				"y": 2.7096933242,
				"z": -2.2970746971,
				"element": "H" 
			},
			{
				"x": 0.8323903244,
				"y": -0.9129141728,
				"z": -2.6251628816,
				"element": "H" 
			},
			{
				"x": 2.5593401206,
				"y": -0.6754339525,
				"z": -2.2463401886,
				"element": "H" 
			},
			{
				"x": 1.4407773275,
				"y": -1.2490315586,
				"z": -1.0003628186,
				"element": "H" 
			},
			{
				"x": 0.9096071753,
				"y": 0.3149074809,
				"z": 3.0950703666,
				"element": "H" 
			},
			{
				"x": -1.1285128093,
				"y": 1.7520213183,
				"z": 3.2007564331,
				"element": "H" 
			},
			{
				"x": -1.9546997912,
				"y": 2.8177152651,
				"z": 1.0943440641,
				"element": "H" 
			},
			{
				"x": -0.8624631667,
				"y": 2.3517944591,
				"z": -1.0385318058,
				"element": "H" 
			},
			{
				"x": 4.1980929949,
				"y": -0.4265448061,
				"z": 0.4925008538,
				"element": "H" 
			}
		],
		 "valence_orbital": [ 
			{
				"type": "occ",
				"energy": -0.30815,
				"method": "rhf"
			},
			{
				"type": "occ",
				"energy": -0.27975,
				"method": "rhf"
			},
			{
				"type": "occ",
				"energy": -0.2696,
				"method": "rhf"
			},
			{
				"type": "occ",
				"energy": -0.25033,
				"method": "rhf"
			},
			{
				"type": "occ",
				"energy": -0.19883,
				"method": "rhf"
			},
			{
				"type": "unocc",
				"energy": -0.03661,
				"method": "rhf"
			},
			{
				"type": "unocc",
				"energy": 0.00598,
				"method": "rhf"
			},
			{
				"type": "unocc",
				"energy": 0.05596,
				"method": "rhf"
			},
			{
				"type": "unocc",
				"energy": 0.08246,
				"method": "rhf"
			},
			{
				"type": "unocc",
				"energy": 0.09632,
				"method": "rhf"
			}
		],
		"cosmo_sigma_profile": { 
			"-0.025": 0.0,
			"-0.024": 0.0,
			"-0.023": 0.0,
			"-0.022": 0.0,
			"-0.021": 0.0,
			"-0.02": 0.0,
			"-0.019": 0.0,
			"-0.018": 0.252797400298,
			"-0.017": 0.860375004946,
			"-0.016": 0.821544252848,
			"-0.015": 0.500385804006,
			"-0.014": 1.0829932894,
			"-0.013": 0.942655860497,
			"-0.012": 0.0794581240092,
			"-0.011": 0.464108658013,
			"-0.01": 1.03812491653,
			"-0.009": 0.310053175258,
			"-0.008": 0.467002316284,
			"-0.007": 1.12224905795,
			"-0.006": 5.19372178989,
			"-0.005": 12.8861954195,
			"-0.004": 20.3670167511,
			"-0.003": 24.1979036253,
			"-0.002": 22.4510731336,
			"-0.001": 20.4882337831,
			"0.0": 11.2052489321,
			"0.001": 10.3629941793,
			"0.002": 9.17292767545,
			"0.003": 10.8189156881,
			"0.004": 10.9301084918,
			"0.005": 11.9498189565,
			"0.006": 4.87995491469,
			"0.007": 2.19033216441,
			"0.008": 2.58902445536,
			"0.009": 2.03151264141,
			"0.01": 3.04061152269,
			"0.011": 3.24064080546,
			"0.012": 5.87093818226,
			"0.013": 2.1486113059,
			"0.014": 0.0442785980537,
			"0.015": 0.0,
			"0.016": 0.0,
			"0.017": 0.0,
			"0.018": 0.0,
			"0.019": 0.0,
			"0.02": 0.0,
			"0.021": 0.0,
			"0.022": 0.0,
			"0.023": 0.0,
			"0.024": 0.0,
			"0.025": 0.0
		}
	}
}
