{
	 "smiles": "CCCCC1=C(O)N=C(N)N=C1C", 
	 "Tm": 547.15, 
	 "num_atms": 28, 
	 "gaussian": { 
		 "optdone": 1, 
		 "sigma_profile": "yes", 
		 "theory": "DFT", 
		 "functional": "B3LYP", 
		 "basiset": "6-31G**", 
		 "properties": { 
			 "R2extent": 2864.9284, 
			 "electric_dipole_moment_norm": 1.04680306171, 
			 "electric_quadrupole_moment_norm": 8.29126132926, 
			 "total_energy": -591.524224632, 
			 "HOMO_LUMO_gap": 0.20229, 
			 "cosmo_polarized_energy": -10.66, 
			 "cosmo_cavitation_energy": 30.27, 
			 "cosmo_dispersion_energy": -21.91, 
			 "cosmo_repulsion_energy": 1.79, 
			 "cosmo_total_nonelectrostatic_energy": 10.14, 
			 "SMD_solvation_energy": 2.56 
		},
		"coords": [
			{
				"x": -0.2666855742,
				"y": -4.0044688328,
				"z": -1.0006040339,
				"element": "C" 
			},
			{
				"x": 0.4116693078,
				"y": -2.7129058574,
				"z": -0.5322529285,
				"element": "C" 
			},
			{
				"x": 0.049897736,
				"y": -2.3441135643,
				"z": 0.9117012927,
				"element": "C" 
			},
			{
				"x": 0.7399797912,
				"y": -1.0685757867,
				"z": 1.4486511143,
				"element": "C" 
			},
			{
				"x": 0.3601164871,
				"y": 0.2166607864,
				"z": 0.7468864904,
				"element": "C" 
			},
			{
				"x": 1.1368335233,
				"y": 0.7522646275,
				"z": -0.2947667274,
				"element": "C" 
			},
			{
				"x": 2.2579914203,
				"y": 0.1012012255,
				"z": -0.6791403045,
				"element": "O" 
			},
			{
				"x": 0.8565085491,
				"y": 1.8765096569,
				"z": -0.9468010661,
				"element": "N" 
			},
			{
				"x": -0.255407588,
				"y": 2.5172718319,
				"z": -0.5457114996,
				"element": "C" 
			},
			{
				"x": -0.5491494967,
				"y": 3.6980154903,
				"z": -1.1736967187,
				"element": "N" 
			},
			{
				"x": -1.0851591479,
				"y": 2.1262124669,
				"z": 0.4321115405,
				"element": "N" 
			},
			{
				"x": -0.7687773905,
				"y": 0.9866705283,
				"z": 1.0710158668,
				"element": "C" 
			},
			{
				"x": -1.7042557069,
				"y": 0.5887619739,
				"z": 2.1866717304,
				"element": "C" 
			},
			{
				"x": -1.3587722617,
				"y": -3.9184677682,
				"z": -0.956920762,
				"element": "H" 
			},
			{
				"x": 0.0209429904,
				"y": -4.855803635,
				"z": -0.3725975462,
				"element": "H" 
			},
			{
				"x": 0.005133268,
				"y": -4.2476131202,
				"z": -2.0331595687,
				"element": "H" 
			},
			{
				"x": 1.5010394705,
				"y": -2.8131353482,
				"z": -0.6184273953,
				"element": "H" 
			},
			{
				"x": 0.1312997476,
				"y": -1.8900307781,
				"z": -1.2009195276,
				"element": "H" 
			},
			{
				"x": 0.3181402802,
				"y": -3.1798621291,
				"z": 1.5729232247,
				"element": "H" 
			},
			{
				"x": -1.040287424,
				"y": -2.233415614,
				"z": 0.9909058579,
				"element": "H" 
			},
			{
				"x": 1.8247927463,
				"y": -1.2007434605,
				"z": 1.3786538315,
				"element": "H" 
			},
			{
				"x": 0.5096829837,
				"y": -0.9759810863,
				"z": 2.5166042147,
				"element": "H" 
			},
			{
				"x": 2.6438217175,
				"y": 0.6401803088,
				"z": -1.3882545958,
				"element": "H" 
			},
			{
				"x": -0.0950516923,
				"y": 3.8731711513,
				"z": -2.0557341926,
				"element": "H" 
			},
			{
				"x": -1.4831393333,
				"y": 4.0525688466,
				"z": -1.0423777096,
				"element": "H" 
			},
			{
				"x": -2.1199777388,
				"y": -0.4118321771,
				"z": 2.0307505368,
				"element": "H" 
			},
			{
				"x": -2.5215873683,
				"y": 1.3083434637,
				"z": 2.2445140414,
				"element": "H" 
			},
			{
				"x": -1.1820992963,
				"y": 0.5722167999,
				"z": 3.1505748344,
				"element": "H" 
			}
		],
		 "valence_orbital": [ 
			{
				"type": "occ",
				"energy": -0.30023,
				"method": "rhf"
			},
			{
				"type": "occ",
				"energy": -0.29332,
				"method": "rhf"
			},
			{
				"type": "occ",
				"energy": -0.26926,
				"method": "rhf"
			},
			{
				"type": "occ",
				"energy": -0.24397,
				"method": "rhf"
			},
			{
				"type": "occ",
				"energy": -0.21073,
				"method": "rhf"
			},
			{
				"type": "unocc",
				"energy": -0.00844,
				"method": "rhf"
			},
			{
				"type": "unocc",
				"energy": 0.01629,
				"method": "rhf"
			},
			{
				"type": "unocc",
				"energy": 0.08459,
				"method": "rhf"
			},
			{
				"type": "unocc",
				"energy": 0.09361,
				"method": "rhf"
			},
			{
				"type": "unocc",
				"energy": 0.09952,
				"method": "rhf"
			}
		],
		"cosmo_sigma_profile": { 
			"-0.025": 0.0,
			"-0.024": 0.0,
			"-0.023": 0.0,
			"-0.022": 0.0,
			"-0.021": 0.0,
			"-0.02": 0.0,
			"-0.019": 0.0,
			"-0.018": 0.0,
			"-0.017": 0.325565999833,
			"-0.016": 0.689115872054,
			"-0.015": 1.13986084021,
			"-0.014": 0.461880752305,
			"-0.013": 2.34209097318,
			"-0.012": 2.50375574464,
			"-0.011": 2.79527335301,
			"-0.01": 2.7227677482,
			"-0.009": 3.26827512202,
			"-0.008": 2.42787186326,
			"-0.007": 1.11525165216,
			"-0.006": 1.96667415387,
			"-0.005": 5.40400313777,
			"-0.004": 10.1339137696,
			"-0.003": 11.7377298811,
			"-0.002": 21.8712115957,
			"-0.001": 30.1228338907,
			"0.0": 35.2985235372,
			"0.001": 31.0612180976,
			"0.002": 20.0018322309,
			"0.003": 7.53638984179,
			"0.004": 4.68846736762,
			"0.005": 5.54214111785,
			"0.006": 6.69474755575,
			"0.007": 6.29387101074,
			"0.008": 5.27067137042,
			"0.009": 3.69411845431,
			"0.01": 2.29894545087,
			"0.011": 2.96881058317,
			"0.012": 1.55029842816,
			"0.013": 0.945870967495,
			"0.014": 0.790954555809,
			"0.015": 0.414596318819,
			"0.016": 0.0,
			"0.017": 0.0,
			"0.018": 0.0,
			"0.019": 0.0,
			"0.02": 0.0,
			"0.021": 0.0,
			"0.022": 0.0,
			"0.023": 0.0,
			"0.024": 0.0,
			"0.025": 0.0
		}
	}
}
