{
	 "smiles": "OC(=O)C(O)(C1CCCCC1)C1=CC=CC=C1", 
	 "Tm": 437.15, 
	 "num_atms": 35, 
	 "gaussian": { 
		 "optdone": 1, 
		 "sigma_profile": "yes", 
		 "theory": "DFT", 
		 "functional": "B3LYP", 
		 "basiset": "6-31G**", 
		 "properties": { 
			 "R2extent": 4467.0825, 
			 "electric_dipole_moment_norm": 3.79870241793, 
			 "electric_quadrupole_moment_norm": 21.7815230916, 
			 "total_energy": -770.021483923, 
			 "HOMO_LUMO_gap": 0.229, 
			 "cosmo_polarized_energy": -13.63, 
			 "cosmo_cavitation_energy": 34.06, 
			 "cosmo_dispersion_energy": -24.52, 
			 "cosmo_repulsion_energy": 1.9, 
			 "cosmo_total_nonelectrostatic_energy": 11.44, 
			 "SMD_solvation_energy": 6.06 
		},
		"coords": [
			{
				"x": -1.5876321593,
				"y": 2.4458194496,
				"z": 3.3988908332,
				"element": "O" 
			},
			{
				"x": -1.3237205136,
				"y": 2.5290361006,
				"z": 2.0866675447,
				"element": "C" 
			},
			{
				"x": -1.1696151032,
				"y": 3.5935374428,
				"z": 1.5311614183,
				"element": "O" 
			},
			{
				"x": -1.2207794669,
				"y": 1.142446268,
				"z": 1.3794408573,
				"element": "C" 
			},
			{
				"x": -1.7550276475,
				"y": 0.1661154625,
				"z": 2.3085512949,
				"element": "O" 
			},
			{
				"x": -2.094118993,
				"y": 1.1197337936,
				"z": 0.0762592007,
				"element": "C" 
			},
			{
				"x": -2.2923188324,
				"y": -0.3254575858,
				"z": -0.452470477,
				"element": "C" 
			},
			{
				"x": -2.8653313581,
				"y": -0.3102357168,
				"z": -1.8767877716,
				"element": "C" 
			},
			{
				"x": -1.8560601506,
				"y": 0.2917911004,
				"z": -2.8834704179,
				"element": "C" 
			},
			{
				"x": -0.9068566023,
				"y": 1.3022211415,
				"z": -2.2029044443,
				"element": "C" 
			},
			{
				"x": -1.6116427907,
				"y": 2.0605264111,
				"z": -1.0696211812,
				"element": "C" 
			},
			{
				"x": 0.2559404279,
				"y": 0.7850287652,
				"z": 1.166396072,
				"element": "C" 
			},
			{
				"x": 1.1960413297,
				"y": 1.752474008,
				"z": 0.779180952,
				"element": "C" 
			},
			{
				"x": 2.5276953715,
				"y": 1.3975850133,
				"z": 0.5593332757,
				"element": "C" 
			},
			{
				"x": 2.9457118386,
				"y": 0.0774410916,
				"z": 0.7300674802,
				"element": "C" 
			},
			{
				"x": 2.0207663865,
				"y": -0.8867564963,
				"z": 1.1315500465,
				"element": "C" 
			},
			{
				"x": 0.6879448901,
				"y": -0.53681313,
				"z": 1.3516062911,
				"element": "C" 
			},
			{
				"x": -1.6767745282,
				"y": 1.4893268412,
				"z": 3.5898155884,
				"element": "H" 
			},
			{
				"x": -2.6968310664,
				"y": 0.0600722776,
				"z": 2.1159166889,
				"element": "H" 
			},
			{
				"x": -3.0808339011,
				"y": 1.4891422791,
				"z": 0.3976238842,
				"element": "H" 
			},
			{
				"x": -2.9563862654,
				"y": -0.8951274922,
				"z": 0.2078056279,
				"element": "H" 
			},
			{
				"x": -1.3341537313,
				"y": -0.8573426045,
				"z": -0.4526285079,
				"element": "H" 
			},
			{
				"x": -3.7935910492,
				"y": 0.2762697168,
				"z": -1.8780239086,
				"element": "H" 
			},
			{
				"x": -3.1479231027,
				"y": -1.3247469052,
				"z": -2.1784209806,
				"element": "H" 
			},
			{
				"x": -2.403841813,
				"y": 0.7798418781,
				"z": -3.69827829,
				"element": "H" 
			},
			{
				"x": -1.2664946089,
				"y": -0.5084729499,
				"z": -3.3460359997,
				"element": "H" 
			},
			{
				"x": -0.0308044528,
				"y": 0.7822791403,
				"z": -1.7999875393,
				"element": "H" 
			},
			{
				"x": -0.5221492334,
				"y": 2.0155407919,
				"z": -2.9402858883,
				"element": "H" 
			},
			{
				"x": -0.9819090581,
				"y": 2.852996279,
				"z": -0.6682282757,
				"element": "H" 
			},
			{
				"x": -2.4921113083,
				"y": 2.5684121493,
				"z": -1.4818307443,
				"element": "H" 
			},
			{
				"x": 0.8917304221,
				"y": 2.7865476502,
				"z": 0.6678008774,
				"element": "H" 
			},
			{
				"x": 3.2402913035,
				"y": 2.1614952709,
				"z": 0.2618156385,
				"element": "H" 
			},
			{
				"x": 3.9835581187,
				"y": -0.1950423252,
				"z": 0.5614111251,
				"element": "H" 
			},
			{
				"x": 2.3351986663,
				"y": -1.9158727363,
				"z": 1.2811249266,
				"element": "H" 
			},
			{
				"x": -0.0216710185,
				"y": -1.2846123805,
				"z": 1.6841548029,
				"element": "H" 
			}
		],
		 "valence_orbital": [ 
			{
				"type": "occ",
				"energy": -0.30414,
				"method": "rhf"
			},
			{
				"type": "occ",
				"energy": -0.30107,
				"method": "rhf"
			},
			{
				"type": "occ",
				"energy": -0.26533,
				"method": "rhf"
			},
			{
				"type": "occ",
				"energy": -0.25209,
				"method": "rhf"
			},
			{
				"type": "occ",
				"energy": -0.24224,
				"method": "rhf"
			},
			{
				"type": "unocc",
				"energy": -0.01324,
				"method": "rhf"
			},
			{
				"type": "unocc",
				"energy": -0.00595,
				"method": "rhf"
			},
			{
				"type": "unocc",
				"energy": 0.01576,
				"method": "rhf"
			},
			{
				"type": "unocc",
				"energy": 0.04487,
				"method": "rhf"
			},
			{
				"type": "unocc",
				"energy": 0.08279,
				"method": "rhf"
			}
		],
		"cosmo_sigma_profile": { 
			"-0.025": 0.0,
			"-0.024": 0.0,
			"-0.023": 0.0,
			"-0.022": 0.0,
			"-0.021": 0.0,
			"-0.02": 0.0,
			"-0.019": 0.0,
			"-0.018": 0.0,
			"-0.017": 0.182133611225,
			"-0.016": 1.19596252723,
			"-0.015": 1.00855180273,
			"-0.014": 1.54092367054,
			"-0.013": 1.78862515364,
			"-0.012": 1.30255759617,
			"-0.011": 3.15855722727,
			"-0.01": 2.09521213869,
			"-0.009": 1.72400283025,
			"-0.008": 1.10374580946,
			"-0.007": 2.04509099314,
			"-0.006": 7.14470804918,
			"-0.005": 9.92110746076,
			"-0.004": 12.0851028088,
			"-0.003": 18.0695286142,
			"-0.002": 27.38346395,
			"-0.001": 32.8742927925,
			"0.0": 33.2920907234,
			"0.001": 25.6768420829,
			"0.002": 18.2551624989,
			"0.003": 10.8437611177,
			"0.004": 12.0118953944,
			"0.005": 11.2143635049,
			"0.006": 5.72306533116,
			"0.007": 3.58501568999,
			"0.008": 3.54604119616,
			"0.009": 4.20315827372,
			"0.01": 4.56385141366,
			"0.011": 4.14615113393,
			"0.012": 3.13977006256,
			"0.013": 1.500463845,
			"0.014": 0.0387200769261,
			"0.015": 0.0,
			"0.016": 0.0,
			"0.017": 0.0,
			"0.018": 0.0,
			"0.019": 0.0,
			"0.02": 0.0,
			"0.021": 0.0,
			"0.022": 0.0,
			"0.023": 0.0,
			"0.024": 0.0,
			"0.025": 0.0
		}
	}
}
