{
	 "smiles": "NC(=O)C#CC#CC#CCO", 
	 "Tm": 413.15, 
	 "num_atms": 16, 
	 "gaussian": { 
		 "optdone": 1, 
		 "sigma_profile": "yes", 
		 "theory": "DFT", 
		 "functional": "B3LYP", 
		 "basiset": "6-31G**", 
		 "properties": { 
			 "R2extent": 5298.7413, 
			 "electric_dipole_moment_norm": 3.55034232012, 
			 "electric_quadrupole_moment_norm": 39.5264977341, 
			 "total_energy": -512.87569808, 
			 "HOMO_LUMO_gap": 0.16683, 
			 "cosmo_polarized_energy": -17.39, 
			 "cosmo_cavitation_energy": 25.57, 
			 "cosmo_dispersion_energy": -17.84, 
			 "cosmo_repulsion_energy": 1.53, 
			 "cosmo_total_nonelectrostatic_energy": 9.26, 
			 "SMD_solvation_energy": 6.61 
		},
		"coords": [
			{
				"x": -3.7533621771,
				"y": -5.032184751,
				"z": -1.2342035902,
				"element": "N" 
			},
			{
				"x": -4.1181332475,
				"y": -3.7716344652,
				"z": -1.6105019758,
				"element": "C" 
			},
			{
				"x": -5.1961436325,
				"y": -3.4971234332,
				"z": -2.1190159737,
				"element": "O" 
			},
			{
				"x": -3.1075081654,
				"y": -2.7525651849,
				"z": -1.3522238953,
				"element": "C" 
			},
			{
				"x": -2.3287752149,
				"y": -1.8289459507,
				"z": -1.1787488716,
				"element": "C" 
			},
			{
				"x": -1.4526993608,
				"y": -0.8153678426,
				"z": -0.9794410376,
				"element": "C" 
			},
			{
				"x": -0.6579358873,
				"y": 0.0997805854,
				"z": -0.7971578911,
				"element": "C" 
			},
			{
				"x": 0.2217343813,
				"y": 1.1114068295,
				"z": -0.5938299874,
				"element": "C" 
			},
			{
				"x": 1.0023349917,
				"y": 2.0329882573,
				"z": -0.426800502,
				"element": "C" 
			},
			{
				"x": 1.9635686482,
				"y": 3.1028518414,
				"z": -0.1460524261,
				"element": "C" 
			},
			{
				"x": 3.1451816248,
				"y": 2.6505927708,
				"z": 0.4978069581,
				"element": "O" 
			},
			{
				"x": -2.8470049606,
				"y": -5.2294220352,
				"z": -0.8417043341,
				"element": "H" 
			},
			{
				"x": -4.4023045087,
				"y": -5.7860720297,
				"z": -1.4024526232,
				"element": "H" 
			},
			{
				"x": 1.4562552425,
				"y": 3.8924919915,
				"z": 0.4322884157,
				"element": "H" 
			},
			{
				"x": 2.2886960303,
				"y": 3.5615333145,
				"z": -1.0867568796,
				"element": "H" 
			},
			{
				"x": 2.885296236,
				"y": 2.2142701022,
				"z": 1.320194614,
				"element": "H" 
			}
		],
		 "valence_orbital": [ 
			{
				"type": "occ",
				"energy": -0.29873,
				"method": "rhf"
			},
			{
				"type": "occ",
				"energy": -0.28059,
				"method": "rhf"
			},
			{
				"type": "occ",
				"energy": -0.27521,
				"method": "rhf"
			},
			{
				"type": "occ",
				"energy": -0.24527,
				"method": "rhf"
			},
			{
				"type": "occ",
				"energy": -0.24375,
				"method": "rhf"
			},
			{
				"type": "unocc",
				"energy": -0.07692,
				"method": "rhf"
			},
			{
				"type": "unocc",
				"energy": -0.06594,
				"method": "rhf"
			},
			{
				"type": "unocc",
				"energy": 0.01384,
				"method": "rhf"
			},
			{
				"type": "unocc",
				"energy": 0.04331,
				"method": "rhf"
			},
			{
				"type": "unocc",
				"energy": 0.07543,
				"method": "rhf"
			}
		],
		"cosmo_sigma_profile": { 
			"-0.025": 0.0,
			"-0.024": 0.0,
			"-0.023": 0.0,
			"-0.022": 0.0,
			"-0.021": 0.0,
			"-0.02": 0.0,
			"-0.019": 0.0,
			"-0.018": 0.0,
			"-0.017": 0.400050619166,
			"-0.016": 1.35011091163,
			"-0.015": 2.90233311979,
			"-0.014": 3.46944286776,
			"-0.013": 3.27933724853,
			"-0.012": 3.29489904214,
			"-0.011": 2.8384510406,
			"-0.01": 2.99613065072,
			"-0.009": 2.97527345992,
			"-0.008": 4.17822499963,
			"-0.007": 9.7920270276,
			"-0.006": 7.0105454357,
			"-0.005": 5.61411554694,
			"-0.004": 4.69497593832,
			"-0.003": 5.1147604103,
			"-0.002": 6.14618507314,
			"-0.001": 7.59466275426,
			"0.0": 8.20423747537,
			"0.001": 36.6064468858,
			"0.002": 36.807600245,
			"0.003": 14.1178491333,
			"0.004": 3.52071388447,
			"0.005": 2.47552586354,
			"0.006": 2.76316169962,
			"0.007": 3.07176273807,
			"0.008": 2.81564000992,
			"0.009": 2.76478796736,
			"0.01": 2.64504366442,
			"0.011": 3.63975608555,
			"0.012": 7.06920362478,
			"0.013": 6.84726534333,
			"0.014": 0.631615851278,
			"0.015": 0.0,
			"0.016": 0.0,
			"0.017": 0.0,
			"0.018": 0.0,
			"0.019": 0.0,
			"0.02": 0.0,
			"0.021": 0.0,
			"0.022": 0.0,
			"0.023": 0.0,
			"0.024": 0.0,
			"0.025": 0.0
		}
	}
}
