{
	 "smiles": "CN(C)C(=O)C1=C(N)C=CC(C)=C1", 
	 "Tm": 372.15, 
	 "num_atms": 27, 
	 "gaussian": { 
		 "optdone": 1, 
		 "sigma_profile": "yes", 
		 "theory": "DFT", 
		 "functional": "B3LYP", 
		 "basiset": "6-31G**", 
		 "properties": { 
			 "R2extent": 3205.7621, 
			 "electric_dipole_moment_norm": 1.97708745886, 
			 "electric_quadrupole_moment_norm": 10.1688621694, 
			 "total_energy": -574.253721431, 
			 "HOMO_LUMO_gap": 0.17126, 
			 "cosmo_polarized_energy": -10.66, 
			 "cosmo_cavitation_energy": 29.23, 
			 "cosmo_dispersion_energy": -21.23, 
			 "cosmo_repulsion_energy": 1.69, 
			 "cosmo_total_nonelectrostatic_energy": 9.69, 
			 "SMD_solvation_energy": 5.36 
		},
		"coords": [
			{
				"x": -1.9602033359,
				"y": -0.4542401595,
				"z": 1.5638435744,
				"element": "C" 
			},
			{
				"x": -0.7610910715,
				"y": -0.2967084952,
				"z": 0.7504058595,
				"element": "N" 
			},
			{
				"x": 0.4860993579,
				"y": -0.2529503407,
				"z": 1.5033588647,
				"element": "C" 
			},
			{
				"x": -0.917415747,
				"y": 0.1472620072,
				"z": -0.5444873915,
				"element": "C" 
			},
			{
				"x": -2.0336335556,
				"y": 0.4871333653,
				"z": -0.9614487517,
				"element": "O" 
			},
			{
				"x": 0.2742958563,
				"y": 0.1615204078,
				"z": -1.451653843,
				"element": "C" 
			},
			{
				"x": 0.4002703128,
				"y": 1.1935158012,
				"z": -2.4180533596,
				"element": "C" 
			},
			{
				"x": -0.5026080502,
				"y": 2.2399681418,
				"z": -2.479912762,
				"element": "N" 
			},
			{
				"x": 1.5132603214,
				"y": 1.1545092651,
				"z": -3.2818821238,
				"element": "C" 
			},
			{
				"x": 2.429856495,
				"y": 0.1146989492,
				"z": -3.2323964773,
				"element": "C" 
			},
			{
				"x": 2.2889447614,
				"y": -0.9459164188,
				"z": -2.3225087218,
				"element": "C" 
			},
			{
				"x": 3.2660102299,
				"y": -2.09822971,
				"z": -2.3063203873,
				"element": "C" 
			},
			{
				"x": 1.2062692981,
				"y": -0.8900003464,
				"z": -1.4463096484,
				"element": "C" 
			},
			{
				"x": -2.819020944,
				"y": -0.5961889802,
				"z": 0.9105890842,
				"element": "H" 
			},
			{
				"x": -2.1405520026,
				"y": 0.4311512516,
				"z": 2.1893606534,
				"element": "H" 
			},
			{
				"x": -1.8412996148,
				"y": -1.32275222,
				"z": 2.220845736,
				"element": "H" 
			},
			{
				"x": 0.7530044393,
				"y": -1.2442768567,
				"z": 1.8915854884,
				"element": "H" 
			},
			{
				"x": 1.3001455058,
				"y": 0.1113684974,
				"z": 0.880747263,
				"element": "H" 
			},
			{
				"x": 0.375766976,
				"y": 0.4258243219,
				"z": 2.3597748822,
				"element": "H" 
			},
			{
				"x": -0.495030254,
				"y": 2.7649808863,
				"z": -3.3422259801,
				"element": "H" 
			},
			{
				"x": -1.427109545,
				"y": 1.9957596193,
				"z": -2.1416528533,
				"element": "H" 
			},
			{
				"x": 1.6385464698,
				"y": 1.9527829564,
				"z": -4.0097437359,
				"element": "H" 
			},
			{
				"x": 3.266846976,
				"y": 0.1163198846,
				"z": -3.9274112531,
				"element": "H" 
			},
			{
				"x": 4.2963326124,
				"y": -1.7533772895,
				"z": -2.1578604975,
				"element": "H" 
			},
			{
				"x": 3.0350003708,
				"y": -2.8037551186,
				"z": -1.5027844508,
				"element": "H" 
			},
			{
				"x": 3.249055291,
				"y": -2.6575570278,
				"z": -3.2497116687,
				"element": "H" 
			},
			{
				"x": 1.0597588469,
				"y": -1.7042423914,
				"z": -0.7415475,
				"element": "H" 
			}
		],
		 "valence_orbital": [ 
			{
				"type": "occ",
				"energy": -0.29526,
				"method": "rhf"
			},
			{
				"type": "occ",
				"energy": -0.25561,
				"method": "rhf"
			},
			{
				"type": "occ",
				"energy": -0.2412,
				"method": "rhf"
			},
			{
				"type": "occ",
				"energy": -0.2333,
				"method": "rhf"
			},
			{
				"type": "occ",
				"energy": -0.19288,
				"method": "rhf"
			},
			{
				"type": "unocc",
				"energy": -0.02162,
				"method": "rhf"
			},
			{
				"type": "unocc",
				"energy": 0.01792,
				"method": "rhf"
			},
			{
				"type": "unocc",
				"energy": 0.05399,
				"method": "rhf"
			},
			{
				"type": "unocc",
				"energy": 0.09003,
				"method": "rhf"
			},
			{
				"type": "unocc",
				"energy": 0.10269,
				"method": "rhf"
			}
		],
		"cosmo_sigma_profile": { 
			"-0.025": 0.0,
			"-0.024": 0.0,
			"-0.023": 0.0,
			"-0.022": 0.0,
			"-0.021": 0.0,
			"-0.02": 0.0,
			"-0.019": 0.0,
			"-0.018": 0.0,
			"-0.017": 0.0,
			"-0.016": 0.0,
			"-0.015": 0.0,
			"-0.014": 0.0,
			"-0.013": 0.100023475059,
			"-0.012": 0.997222419249,
			"-0.011": 1.62687117236,
			"-0.01": 1.18559745728,
			"-0.009": 1.36372674026,
			"-0.008": 2.19159797287,
			"-0.007": 2.76656517182,
			"-0.006": 2.57630077518,
			"-0.005": 11.6693094145,
			"-0.004": 26.5176696954,
			"-0.003": 26.130353145,
			"-0.002": 29.1714337083,
			"-0.001": 22.8805211261,
			"0.0": 16.7555204535,
			"0.001": 14.2625552346,
			"0.002": 9.90030866646,
			"0.003": 10.055244647,
			"0.004": 8.92704742474,
			"0.005": 10.9692185438,
			"0.006": 9.38340578203,
			"0.007": 2.75805513662,
			"0.008": 2.3778926508,
			"0.009": 2.84996292347,
			"0.01": 2.39595721199,
			"0.011": 1.8322766488,
			"0.012": 2.41552785177,
			"0.013": 4.03050553452,
			"0.014": 2.08775019449,
			"0.015": 0.0,
			"0.016": 0.0,
			"0.017": 0.0,
			"0.018": 0.0,
			"0.019": 0.0,
			"0.02": 0.0,
			"0.021": 0.0,
			"0.022": 0.0,
			"0.023": 0.0,
			"0.024": 0.0,
			"0.025": 0.0
		}
	}
}
