{
	 "smiles": "CC(=O)C1=CC2=C(SC3=C(N2)C=CC=C3)C=C1", 
	 "Tm": 455.15, 
	 "num_atms": 28, 
	 "gaussian": { 
		 "optdone": 1, 
		 "sigma_profile": "yes", 
		 "theory": "DFT", 
		 "functional": "B3LYP", 
		 "basiset": "6-31G**", 
		 "properties": { 
			 "R2extent": 5459.1221, 
			 "electric_dipole_moment_norm": 4.18484469126, 
			 "electric_quadrupole_moment_norm": 12.6493240744, 
			 "total_energy": -1068.29315559, 
			 "HOMO_LUMO_gap": 0.13442, 
			 "cosmo_polarized_energy": -14.35, 
			 "cosmo_cavitation_energy": 33.26, 
			 "cosmo_dispersion_energy": -25.02, 
			 "cosmo_repulsion_energy": 1.84, 
			 "cosmo_total_nonelectrostatic_energy": 10.09, 
			 "SMD_solvation_energy": 5.27 
		},
		"coords": [
			{
				"x": -4.2395673026,
				"y": 1.3098367602,
				"z": 1.2734593104,
				"element": "C" 
			},
			{
				"x": -3.2314785157,
				"y": 1.0635610725,
				"z": 2.3847922463,
				"element": "C" 
			},
			{
				"x": -3.5870883911,
				"y": 1.0666645495,
				"z": 3.5540758876,
				"element": "O" 
			},
			{
				"x": -1.7983185838,
				"y": 0.8191447743,
				"z": 2.0238369653,
				"element": "C" 
			},
			{
				"x": -1.3503169671,
				"y": 0.7877878898,
				"z": 0.6952365497,
				"element": "C" 
			},
			{
				"x": -0.0016113213,
				"y": 0.5773816931,
				"z": 0.3927132228,
				"element": "C" 
			},
			{
				"x": 0.910632421,
				"y": 0.372770865,
				"z": 1.4453828017,
				"element": "C" 
			},
			{
				"x": 2.6515472452,
				"y": 0.2302038077,
				"z": 1.1042272305,
				"element": "S" 
			},
			{
				"x": 2.5890094261,
				"y": -0.4902951063,
				"z": -0.5293878454,
				"element": "C" 
			},
			{
				"x": 1.5146842819,
				"y": -0.1968516557,
				"z": -1.3874744865,
				"element": "C" 
			},
			{
				"x": 0.4406195402,
				"y": 0.5880734194,
				"z": -0.9387676956,
				"element": "N" 
			},
			{
				"x": 1.5364906905,
				"y": -0.6915562214,
				"z": -2.6973273438,
				"element": "C" 
			},
			{
				"x": 2.6157040855,
				"y": -1.4491263737,
				"z": -3.1516842015,
				"element": "C" 
			},
			{
				"x": 3.6718449286,
				"y": -1.7524848146,
				"z": -2.2931158389,
				"element": "C" 
			},
			{
				"x": 3.6466754906,
				"y": -1.2817960718,
				"z": -0.9784252001,
				"element": "C" 
			},
			{
				"x": 0.4583355381,
				"y": 0.3658896351,
				"z": 2.7683127319,
				"element": "C" 
			},
			{
				"x": -0.8808135807,
				"y": 0.6004806286,
				"z": 3.0605018493,
				"element": "C" 
			},
			{
				"x": -4.2950067814,
				"y": 0.451533165,
				"z": 0.5944983193,
				"element": "H" 
			},
			{
				"x": -5.2185860558,
				"y": 1.4765148513,
				"z": 1.7232807544,
				"element": "H" 
			},
			{
				"x": -3.9612964591,
				"y": 2.1845013178,
				"z": 0.675061523,
				"element": "H" 
			},
			{
				"x": -2.0487189948,
				"y": 0.9377063004,
				"z": -0.1233741805,
				"element": "H" 
			},
			{
				"x": -0.295066767,
				"y": 0.712644383,
				"z": -1.6203689858,
				"element": "H" 
			},
			{
				"x": 0.7035829292,
				"y": -0.4732950168,
				"z": -3.3618206681,
				"element": "H" 
			},
			{
				"x": 2.6197283919,
				"y": -1.8115910096,
				"z": -4.175147777,
				"element": "H" 
			},
			{
				"x": 4.5085373183,
				"y": -2.351649189,
				"z": -2.6374990892,
				"element": "H" 
			},
			{
				"x": 4.4591297155,
				"y": -1.5160711763,
				"z": -0.296925879,
				"element": "H" 
			},
			{
				"x": 1.1700787968,
				"y": 0.1880204129,
				"z": 3.568946675,
				"element": "H" 
			},
			{
				"x": -1.2406310791,
				"y": 0.6156011096,
				"z": 4.0828931242,
				"element": "H" 
			}
		],
		 "valence_orbital": [ 
			{
				"type": "occ",
				"energy": -0.26706,
				"method": "rhf"
			},
			{
				"type": "occ",
				"energy": -0.2622,
				"method": "rhf"
			},
			{
				"type": "occ",
				"energy": -0.24814,
				"method": "rhf"
			},
			{
				"type": "occ",
				"energy": -0.23439,
				"method": "rhf"
			},
			{
				"type": "occ",
				"energy": -0.19231,
				"method": "rhf"
			},
			{
				"type": "unocc",
				"energy": -0.05789,
				"method": "rhf"
			},
			{
				"type": "unocc",
				"energy": -0.01907,
				"method": "rhf"
			},
			{
				"type": "unocc",
				"energy": -0.01076,
				"method": "rhf"
			},
			{
				"type": "unocc",
				"energy": 0.0047,
				"method": "rhf"
			},
			{
				"type": "unocc",
				"energy": 0.02767,
				"method": "rhf"
			}
		],
		"cosmo_sigma_profile": { 
			"-0.025": 0.0,
			"-0.024": 0.0,
			"-0.023": 0.0,
			"-0.022": 0.0,
			"-0.021": 0.0,
			"-0.02": 0.0,
			"-0.019": 0.0,
			"-0.018": 0.0,
			"-0.017": 0.0,
			"-0.016": 0.0,
			"-0.015": 0.450235357655,
			"-0.014": 1.75135349332,
			"-0.013": 1.88295137658,
			"-0.012": 1.59353456775,
			"-0.011": 1.35579618394,
			"-0.01": 1.65126237434,
			"-0.009": 1.92144867804,
			"-0.008": 1.94942695942,
			"-0.007": 6.3076738262,
			"-0.006": 16.2142855324,
			"-0.005": 18.9926338787,
			"-0.004": 18.9744132157,
			"-0.003": 16.1065320651,
			"-0.002": 16.0733887523,
			"-0.001": 19.0994143736,
			"0.0": 15.5547212957,
			"0.001": 15.4754648676,
			"0.002": 20.2842629752,
			"0.003": 27.366134284,
			"0.004": 22.7474236955,
			"0.005": 15.0855229815,
			"0.006": 8.47390136357,
			"0.007": 3.85028692489,
			"0.008": 2.5269662776,
			"0.009": 1.91381898,
			"0.01": 2.38705314555,
			"0.011": 2.69481264669,
			"0.012": 3.99646207007,
			"0.013": 1.80511877024,
			"0.014": 0.154171144893,
			"0.015": 0.0,
			"0.016": 0.0,
			"0.017": 0.0,
			"0.018": 0.0,
			"0.019": 0.0,
			"0.02": 0.0,
			"0.021": 0.0,
			"0.022": 0.0,
			"0.023": 0.0,
			"0.024": 0.0,
			"0.025": 0.0
		}
	}
}
