{
	 "smiles": "CC(=O)NC1=CC=C(C=C1)C(F)(F)F", 
	 "Tm": 425.15, 
	 "num_atms": 22, 
	 "gaussian": { 
		 "optdone": 1, 
		 "sigma_profile": "yes", 
		 "theory": "DFT", 
		 "functional": "B3LYP", 
		 "basiset": "6-31G**", 
		 "properties": { 
			 "R2extent": 4560.0021, 
			 "electric_dipole_moment_norm": 0.478013744572, 
			 "electric_quadrupole_moment_norm": 21.3143507335, 
			 "total_energy": -777.299842261, 
			 "HOMO_LUMO_gap": 0.20197, 
			 "cosmo_polarized_energy": -11.65, 
			 "cosmo_cavitation_energy": 27.86, 
			 "cosmo_dispersion_energy": -19.79, 
			 "cosmo_repulsion_energy": 1.5, 
			 "cosmo_total_nonelectrostatic_energy": 9.56, 
			 "SMD_solvation_energy": 6.81 
		},
		"coords": [
			{
				"x": -2.4433901104,
				"y": -2.8045979305,
				"z": 2.1785746845,
				"element": "C" 
			},
			{
				"x": -3.6101569835,
				"y": -2.5686463337,
				"z": 1.2406821093,
				"element": "C" 
			},
			{
				"x": -4.7038202527,
				"y": -3.0790548004,
				"z": 1.4260136837,
				"element": "O" 
			},
			{
				"x": -3.4284623703,
				"y": -1.7653330779,
				"z": 0.1195737583,
				"element": "N" 
			},
			{
				"x": -2.3185513376,
				"y": -1.0671683233,
				"z": -0.3877355403,
				"element": "C" 
			},
			{
				"x": -1.3693047719,
				"y": -0.4326408396,
				"z": 0.4293585518,
				"element": "C" 
			},
			{
				"x": -0.3023354448,
				"y": 0.2565245595,
				"z": -0.1409817569,
				"element": "C" 
			},
			{
				"x": -0.1755313393,
				"y": 0.3496638962,
				"z": -1.528029374,
				"element": "C" 
			},
			{
				"x": -1.1332621787,
				"y": -0.2552999327,
				"z": -2.3475540228,
				"element": "C" 
			},
			{
				"x": -2.1886192188,
				"y": -0.9607290601,
				"z": -1.7841015182,
				"element": "C" 
			},
			{
				"x": 0.9401291381,
				"y": 1.1512720479,
				"z": -2.1357863969,
				"element": "C" 
			},
			{
				"x": 0.5826168531,
				"y": 2.4424273682,
				"z": -2.33442482,
				"element": "F" 
			},
			{
				"x": 1.3118512512,
				"y": 0.6612403727,
				"z": -3.3399364959,
				"element": "F" 
			},
			{
				"x": 2.0364447219,
				"y": 1.167665191,
				"z": -1.3450325262,
				"element": "F" 
			},
			{
				"x": -2.6413067062,
				"y": -3.7367046929,
				"z": 2.7084934212,
				"element": "H" 
			},
			{
				"x": -1.4837233429,
				"y": -2.8634644601,
				"z": 1.6602290068,
				"element": "H" 
			},
			{
				"x": -2.3833205701,
				"y": -2.0022355409,
				"z": 2.921692817,
				"element": "H" 
			},
			{
				"x": -4.2445716762,
				"y": -1.8011058706,
				"z": -0.4799342952,
				"element": "H" 
			},
			{
				"x": -1.4725393612,
				"y": -0.4524874984,
				"z": 1.5064655155,
				"element": "H" 
			},
			{
				"x": 0.4300945398,
				"y": 0.7354642223,
				"z": 0.499852405,
				"element": "H" 
			},
			{
				"x": -1.040455453,
				"y": -0.1902092294,
				"z": -3.4263018874,
				"element": "H" 
			},
			{
				"x": -2.9165853863,
				"y": -1.4498800675,
				"z": -2.4252173194,
				"element": "H" 
			}
		],
		 "valence_orbital": [ 
			{
				"type": "occ",
				"energy": -0.36577,
				"method": "rhf"
			},
			{
				"type": "occ",
				"energy": -0.31627,
				"method": "rhf"
			},
			{
				"type": "occ",
				"energy": -0.27798,
				"method": "rhf"
			},
			{
				"type": "occ",
				"energy": -0.26406,
				"method": "rhf"
			},
			{
				"type": "occ",
				"energy": -0.24081,
				"method": "rhf"
			},
			{
				"type": "unocc",
				"energy": -0.03884,
				"method": "rhf"
			},
			{
				"type": "unocc",
				"energy": -0.02803,
				"method": "rhf"
			},
			{
				"type": "unocc",
				"energy": 0.01985,
				"method": "rhf"
			},
			{
				"type": "unocc",
				"energy": 0.07321,
				"method": "rhf"
			},
			{
				"type": "unocc",
				"energy": 0.08913,
				"method": "rhf"
			}
		],
		"cosmo_sigma_profile": { 
			"-0.025": 0.0,
			"-0.024": 0.0,
			"-0.023": 0.0,
			"-0.022": 0.0,
			"-0.021": 0.0,
			"-0.02": 0.0,
			"-0.019": 0.0,
			"-0.018": 0.0,
			"-0.017": 0.0,
			"-0.016": 0.0,
			"-0.015": 0.189289069741,
			"-0.014": 1.13631803363,
			"-0.013": 0.898012523688,
			"-0.012": 1.62267151974,
			"-0.011": 0.920052214196,
			"-0.01": 1.01022016928,
			"-0.009": 1.57791977052,
			"-0.008": 4.34508632729,
			"-0.007": 8.93847163795,
			"-0.006": 9.65925203339,
			"-0.005": 13.2306740321,
			"-0.004": 13.0565744396,
			"-0.003": 12.9729428774,
			"-0.002": 14.6166990499,
			"-0.001": 13.909316418,
			"0.0": 13.6735541532,
			"0.001": 16.7591716878,
			"0.002": 26.0840444638,
			"0.003": 40.9345280748,
			"0.004": 6.88228044449,
			"0.005": 1.22419356951,
			"0.006": 0.781113950337,
			"0.007": 1.74970043142,
			"0.008": 0.917938002631,
			"0.009": 1.37116510617,
			"0.01": 1.37096803021,
			"0.011": 1.91043144257,
			"0.012": 2.82729787862,
			"0.013": 5.53238452412,
			"0.014": 2.37836958795,
			"0.015": 0.0747180880538,
			"0.016": 0.0,
			"0.017": 0.0,
			"0.018": 0.0,
			"0.019": 0.0,
			"0.02": 0.0,
			"0.021": 0.0,
			"0.022": 0.0,
			"0.023": 0.0,
			"0.024": 0.0,
			"0.025": 0.0
		}
	}
}
