{
	 "smiles": "OC(=O)C1=C(Cl)C=C(Cl)C(=C1)S(=O)(=O)NCC1=NC=CC=C1", 
	 "Tm": 505.15, 
	 "num_atms": 32, 
	 "gaussian": { 
		 "optdone": 1, 
		 "sigma_profile": "yes", 
		 "theory": "DFT", 
		 "functional": "B3LYP", 
		 "basiset": "6-31G**", 
		 "properties": { 
			 "R2extent": 9572.0133, 
			 "electric_dipole_moment_norm": 7.106778809, 
			 "electric_quadrupole_moment_norm": 18.528189177, 
			 "total_energy": -2230.30461496, 
			 "HOMO_LUMO_gap": 0.18788, 
			 "cosmo_polarized_energy": -21.05, 
			 "cosmo_cavitation_energy": 41.82, 
			 "cosmo_dispersion_energy": -28.97, 
			 "cosmo_repulsion_energy": 2.2, 
			 "cosmo_total_nonelectrostatic_energy": 15.05, 
			 "SMD_solvation_energy": 5.51 
		},
		"coords": [
			{
				"x": 2.2377091067,
				"y": -4.429942767,
				"z": -1.2525003587,
				"element": "O" 
			},
			{
				"x": 1.7188943042,
				"y": -3.1996084793,
				"z": -1.4203023061,
				"element": "C" 
			},
			{
				"x": 1.0458727989,
				"y": -2.9048470232,
				"z": -2.3874083208,
				"element": "O" 
			},
			{
				"x": 2.0582180659,
				"y": -2.2181079076,
				"z": -0.3395971698,
				"element": "C" 
			},
			{
				"x": 2.6157740427,
				"y": -2.4791096517,
				"z": 0.9262249271,
				"element": "C" 
			},
			{
				"x": 3.001242527,
				"y": -4.0782073676,
				"z": 1.513766424,
				"element": "Cl" 
			},
			{
				"x": 2.872984506,
				"y": -1.4312885776,
				"z": 1.8111424701,
				"element": "C" 
			},
			{
				"x": 2.5828424871,
				"y": -0.1126032671,
				"z": 1.4649005728,
				"element": "C" 
			},
			{
				"x": 2.9657157837,
				"y": 1.1021600023,
				"z": 2.6595927164,
				"element": "Cl" 
			},
			{
				"x": 2.0180653705,
				"y": 0.1767978073,
				"z": 0.2121447921,
				"element": "C" 
			},
			{
				"x": 1.7703595345,
				"y": -0.8830289189,
				"z": -0.6566022137,
				"element": "C" 
			},
			{
				"x": 1.5767034461,
				"y": 1.8358219496,
				"z": -0.4130278896,
				"element": "S" 
			},
			{
				"x": 2.5327640365,
				"y": 2.7960524042,
				"z": 0.1298310884,
				"element": "O" 
			},
			{
				"x": 1.3835454545,
				"y": 1.648878569,
				"z": -1.8490786939,
				"element": "O" 
			},
			{
				"x": 0.0723427967,
				"y": 2.2411982186,
				"z": 0.1799517913,
				"element": "N" 
			},
			{
				"x": -0.1271197441,
				"y": 2.6697633677,
				"z": 1.5621344645,
				"element": "C" 
			},
			{
				"x": -0.7988907779,
				"y": 1.6084208377,
				"z": 2.4218714674,
				"element": "C" 
			},
			{
				"x": -1.4734010723,
				"y": 0.6565441252,
				"z": 1.7640594992,
				"element": "N" 
			},
			{
				"x": -2.1228802552,
				"y": -0.2712908293,
				"z": 2.4795718137,
				"element": "C" 
			},
			{
				"x": -2.134756652,
				"y": -0.2937156614,
				"z": 3.8727452222,
				"element": "C" 
			},
			{
				"x": -1.4309846609,
				"y": 0.7007533878,
				"z": 4.5541423355,
				"element": "C" 
			},
			{
				"x": -0.7511096426,
				"y": 1.6685510443,
				"z": 3.8192952871,
				"element": "C" 
			},
			{
				"x": 1.9465965354,
				"y": -4.9446190459,
				"z": -2.0245381012,
				"element": "H" 
			},
			{
				"x": 3.304639998,
				"y": -1.6450621106,
				"z": 2.7808322811,
				"element": "H" 
			},
			{
				"x": 1.3487220127,
				"y": -0.6765973905,
				"z": -1.6333953911,
				"element": "H" 
			},
			{
				"x": -0.644701063,
				"y": 1.5850840951,
				"z": -0.1290338614,
				"element": "H" 
			},
			{
				"x": 0.830823674,
				"y": 2.9821803768,
				"z": 1.9829938834,
				"element": "H" 
			},
			{
				"x": -0.7655865091,
				"y": 3.5639567024,
				"z": 1.5453055127,
				"element": "H" 
			},
			{
				"x": -2.6565973276,
				"y": -1.028335854,
				"z": 1.9085054797,
				"element": "H" 
			},
			{
				"x": -2.6762553507,
				"y": -1.0688014634,
				"z": 4.4050149139,
				"element": "H" 
			},
			{
				"x": -1.4079349503,
				"y": 0.7179456028,
				"z": 5.6399092913,
				"element": "H" 
			},
			{
				"x": -0.1878984756,
				"y": 2.4540578242,
				"z": 4.3143480722,
				"element": "H" 
			}
		],
		 "valence_orbital": [ 
			{
				"type": "occ",
				"energy": -0.29194,
				"method": "rhf"
			},
			{
				"type": "occ",
				"energy": -0.28008,
				"method": "rhf"
			},
			{
				"type": "occ",
				"energy": -0.27898,
				"method": "rhf"
			},
			{
				"type": "occ",
				"energy": -0.27405,
				"method": "rhf"
			},
			{
				"type": "occ",
				"energy": -0.26543,
				"method": "rhf"
			},
			{
				"type": "unocc",
				"energy": -0.07755,
				"method": "rhf"
			},
			{
				"type": "unocc",
				"energy": -0.0521,
				"method": "rhf"
			},
			{
				"type": "unocc",
				"energy": -0.04257,
				"method": "rhf"
			},
			{
				"type": "unocc",
				"energy": -0.02963,
				"method": "rhf"
			},
			{
				"type": "unocc",
				"energy": -0.00905,
				"method": "rhf"
			}
		],
		"cosmo_sigma_profile": { 
			"-0.025": 0.0,
			"-0.024": 0.0,
			"-0.023": 0.0,
			"-0.022": 0.0,
			"-0.021": 0.0,
			"-0.02": 0.0,
			"-0.019": 0.326335318956,
			"-0.018": 1.3735561363,
			"-0.017": 0.461188058335,
			"-0.016": 0.958752068335,
			"-0.015": 1.01093016148,
			"-0.014": 0.675442901223,
			"-0.013": 0.915927595122,
			"-0.012": 0.380084250006,
			"-0.011": 1.86255943468,
			"-0.01": 1.50893648573,
			"-0.009": 3.1740890779,
			"-0.008": 3.80094553792,
			"-0.007": 13.0658466364,
			"-0.006": 17.4225376876,
			"-0.005": 19.6951022567,
			"-0.004": 18.6691050705,
			"-0.003": 22.2492262796,
			"-0.002": 32.5663148472,
			"-0.001": 29.2725745759,
			"0.0": 21.3585372364,
			"0.001": 23.1614482901,
			"0.002": 28.1895539901,
			"0.003": 23.1578123539,
			"0.004": 11.268867681,
			"0.005": 7.2261521862,
			"0.006": 7.73263817484,
			"0.007": 8.76435047104,
			"0.008": 8.64286007744,
			"0.009": 8.08706384188,
			"0.01": 11.4916199843,
			"0.011": 11.1224075166,
			"0.012": 0.593564619209,
			"0.013": 0.0,
			"0.014": 0.0,
			"0.015": 0.0,
			"0.016": 0.0,
			"0.017": 0.0,
			"0.018": 0.0,
			"0.019": 0.0,
			"0.02": 0.0,
			"0.021": 0.0,
			"0.022": 0.0,
			"0.023": 0.0,
			"0.024": 0.0,
			"0.025": 0.0
		}
	}
}
