{
	 "smiles": "ClC1=CC(NCC#N)=CC=C1", 
	 "Tm": 325.15, 
	 "num_atms": 18, 
	 "gaussian": { 
		 "optdone": 1, 
		 "sigma_profile": "yes", 
		 "theory": "DFT", 
		 "functional": "B3LYP", 
		 "basiset": "6-31G**", 
		 "properties": { 
			 "R2extent": 2703.2425, 
			 "electric_dipole_moment_norm": 4.39089158372, 
			 "electric_quadrupole_moment_norm": 13.0178031307, 
			 "total_energy": -878.739140102, 
			 "HOMO_LUMO_gap": 0.20571, 
			 "cosmo_polarized_energy": -14.54, 
			 "cosmo_cavitation_energy": 25.01, 
			 "cosmo_dispersion_energy": -17.76, 
			 "cosmo_repulsion_energy": 1.45, 
			 "cosmo_total_nonelectrostatic_energy": 8.7, 
			 "SMD_solvation_energy": 4.51 
		},
		"coords": [
			{
				"x": -3.1266839221,
				"y": -1.1704598773,
				"z": -1.9251202002,
				"element": "Cl" 
			},
			{
				"x": -1.9802283364,
				"y": -1.6855621303,
				"z": -0.6942114407,
				"element": "C" 
			},
			{
				"x": -1.2236513644,
				"y": -0.7109845744,
				"z": -0.0437976025,
				"element": "C" 
			},
			{
				"x": -0.3076659491,
				"y": -1.1017222283,
				"z": 0.9452593614,
				"element": "C" 
			},
			{
				"x": 0.4355646135,
				"y": -0.1733318632,
				"z": 1.6864134148,
				"element": "N" 
			},
			{
				"x": 0.5509557515,
				"y": 1.2140003479,
				"z": 1.2940971096,
				"element": "C" 
			},
			{
				"x": 1.3180376427,
				"y": 1.4532535107,
				"z": 0.0474246494,
				"element": "C" 
			},
			{
				"x": 1.9421811853,
				"y": 1.619190728,
				"z": -0.916831755,
				"element": "N" 
			},
			{
				"x": -0.1643865467,
				"y": -2.4702407327,
				"z": 1.2403258556,
				"element": "C" 
			},
			{
				"x": -0.9266253698,
				"y": -3.417691558,
				"z": 0.5683236277,
				"element": "C" 
			},
			{
				"x": -1.8518785451,
				"y": -3.0413428052,
				"z": -0.4091807173,
				"element": "C" 
			},
			{
				"x": -1.3502070365,
				"y": 0.3263931755,
				"z": -0.3258727382,
				"element": "H" 
			},
			{
				"x": 1.2822271144,
				"y": -0.5555706767,
				"z": 2.0852493262,
				"element": "H" 
			},
			{
				"x": -0.4450879291,
				"y": 1.6550874659,
				"z": 1.1822161308,
				"element": "H" 
			},
			{
				"x": 1.0416784584,
				"y": 1.7631925283,
				"z": 2.1037951483,
				"element": "H" 
			},
			{
				"x": 0.5419851145,
				"y": -2.780938396,
				"z": 2.0055809571,
				"element": "H" 
			},
			{
				"x": -0.8022027043,
				"y": -4.4694992435,
				"z": 0.8083294604,
				"element": "H" 
			},
			{
				"x": -2.4499121769,
				"y": -3.7752736707,
				"z": -0.9356005874,
				"element": "H" 
			}
		],
		 "valence_orbital": [ 
			{
				"type": "occ",
				"energy": -0.33569,
				"method": "rhf"
			},
			{
				"type": "occ",
				"energy": -0.31232,
				"method": "rhf"
			},
			{
				"type": "occ",
				"energy": -0.30741,
				"method": "rhf"
			},
			{
				"type": "occ",
				"energy": -0.25349,
				"method": "rhf"
			},
			{
				"type": "occ",
				"energy": -0.22324,
				"method": "rhf"
			},
			{
				"type": "unocc",
				"energy": -0.01753,
				"method": "rhf"
			},
			{
				"type": "unocc",
				"energy": -0.00563,
				"method": "rhf"
			},
			{
				"type": "unocc",
				"energy": 0.01621,
				"method": "rhf"
			},
			{
				"type": "unocc",
				"energy": 0.02861,
				"method": "rhf"
			},
			{
				"type": "unocc",
				"energy": 0.02981,
				"method": "rhf"
			}
		],
		"cosmo_sigma_profile": { 
			"-0.025": 0.0,
			"-0.024": 0.0,
			"-0.023": 0.0,
			"-0.022": 0.0,
			"-0.021": 0.0,
			"-0.02": 0.0,
			"-0.019": 0.0,
			"-0.018": 0.0,
			"-0.017": 0.0,
			"-0.016": 0.0,
			"-0.015": 0.243443169864,
			"-0.014": 1.59828840983,
			"-0.013": 1.59557350185,
			"-0.012": 2.18597685771,
			"-0.011": 2.27292201955,
			"-0.01": 5.73650571302,
			"-0.009": 6.90863309488,
			"-0.008": 5.95818118415,
			"-0.007": 7.04258794782,
			"-0.006": 10.7300708279,
			"-0.005": 8.86312547751,
			"-0.004": 8.31460607082,
			"-0.003": 7.0950824566,
			"-0.002": 7.99328667876,
			"-0.001": 8.57491551298,
			"0.0": 9.54372762573,
			"0.001": 10.2439260546,
			"0.002": 15.2659236225,
			"0.003": 18.3833365982,
			"0.004": 21.8388839585,
			"0.005": 17.6852030214,
			"0.006": 4.13713440903,
			"0.007": 3.43356564612,
			"0.008": 3.81579500498,
			"0.009": 4.23981588275,
			"0.01": 3.16848711073,
			"0.011": 2.63728875106,
			"0.012": 2.46743589167,
			"0.013": 1.31426425709,
			"0.014": 0.0441628784822,
			"0.015": 0.0,
			"0.016": 0.0,
			"0.017": 0.0,
			"0.018": 0.0,
			"0.019": 0.0,
			"0.02": 0.0,
			"0.021": 0.0,
			"0.022": 0.0,
			"0.023": 0.0,
			"0.024": 0.0,
			"0.025": 0.0
		}
	}
}
