{
	 "smiles": "CC1(C)C(C2=C(CCCC2)OC1=O)C1=CC=CC=C1", 
	 "Tm": 368.15, 
	 "num_atms": 39, 
	 "gaussian": { 
		 "optdone": 1, 
		 "sigma_profile": "yes", 
		 "theory": "DFT", 
		 "functional": "B3LYP", 
		 "basiset": "6-31G**", 
		 "properties": { 
			 "R2extent": 5237.2876, 
			 "electric_dipole_moment_norm": 4.11150666545, 
			 "electric_quadrupole_moment_norm": 16.7118787831, 
			 "total_energy": -810.325683686, 
			 "HOMO_LUMO_gap": 0.21245, 
			 "cosmo_polarized_energy": -9.66, 
			 "cosmo_cavitation_energy": 38.06, 
			 "cosmo_dispersion_energy": -26.66, 
			 "cosmo_repulsion_energy": 2.05, 
			 "cosmo_total_nonelectrostatic_energy": 13.44, 
			 "SMD_solvation_energy": 6.61 
		},
		"coords": [
			{
				"x": 2.1379933849,
				"y": 2.3888105121,
				"z": 0.2245835027,
				"element": "C" 
			},
			{
				"x": 0.6380251477,
				"y": 2.0612615788,
				"z": 0.1789903993,
				"element": "C" 
			},
			{
				"x": -0.0885176585,
				"y": 2.8184923795,
				"z": 1.3196235249,
				"element": "C" 
			},
			{
				"x": 0.4008378608,
				"y": 0.5080359994,
				"z": 0.2146799329,
				"element": "C" 
			},
			{
				"x": -1.0297541087,
				"y": 0.1602688915,
				"z": -0.1739144888,
				"element": "C" 
			},
			{
				"x": -1.7178127893,
				"y": 0.9931247047,
				"z": -0.9657370112,
				"element": "C" 
			},
			{
				"x": -3.1134444587,
				"y": 0.7842595615,
				"z": -1.4793345485,
				"element": "C" 
			},
			{
				"x": -3.797806896,
				"y": -0.4038909152,
				"z": -0.7909142747,
				"element": "C" 
			},
			{
				"x": -2.8205745493,
				"y": -1.5776085619,
				"z": -0.6629971919,
				"element": "C" 
			},
			{
				"x": -1.6135702727,
				"y": -1.1886292058,
				"z": 0.2026010185,
				"element": "C" 
			},
			{
				"x": -1.1796421443,
				"y": 2.1647557258,
				"z": -1.494948274,
				"element": "O" 
			},
			{
				"x": 0.0538673749,
				"y": 2.6280789112,
				"z": -1.1184255175,
				"element": "C" 
			},
			{
				"x": 0.5567856607,
				"y": 3.5056146815,
				"z": -1.7752648817,
				"element": "O" 
			},
			{
				"x": 0.8750947071,
				"y": -0.13879691,
				"z": 1.5134291494,
				"element": "C" 
			},
			{
				"x": 0.128141649,
				"y": -0.0784096079,
				"z": 2.7012955283,
				"element": "C" 
			},
			{
				"x": 0.5968258407,
				"y": -0.6663172419,
				"z": 3.8766657512,
				"element": "C" 
			},
			{
				"x": 1.8242623267,
				"y": -1.3314667338,
				"z": 3.8907562968,
				"element": "C" 
			},
			{
				"x": 2.575690111,
				"y": -1.406428287,
				"z": 2.7178863735,
				"element": "C" 
			},
			{
				"x": 2.1015481871,
				"y": -0.8177121441,
				"z": 1.5441790731,
				"element": "C" 
			},
			{
				"x": 2.6750739963,
				"y": 1.9007842775,
				"z": -0.5949686033,
				"element": "H" 
			},
			{
				"x": 2.5712233457,
				"y": 2.0522556917,
				"z": 1.1698743158,
				"element": "H" 
			},
			{
				"x": 2.2955631797,
				"y": 3.464289241,
				"z": 0.1250990154,
				"element": "H" 
			},
			{
				"x": -1.1583024139,
				"y": 2.593496944,
				"z": 1.3464104095,
				"element": "H" 
			},
			{
				"x": 0.0315772307,
				"y": 3.8967280983,
				"z": 1.178521864,
				"element": "H" 
			},
			{
				"x": 0.3455264564,
				"y": 2.5537402332,
				"z": 2.2865346078,
				"element": "H" 
			},
			{
				"x": 1.0485977272,
				"y": 0.0945667756,
				"z": -0.575731874,
				"element": "H" 
			},
			{
				"x": -3.0671993199,
				"y": 0.6286649208,
				"z": -2.5666158333,
				"element": "H" 
			},
			{
				"x": -3.6844078721,
				"y": 1.710078371,
				"z": -1.3356470562,
				"element": "H" 
			},
			{
				"x": -4.6919497612,
				"y": -0.6952831166,
				"z": -1.3522949206,
				"element": "H" 
			},
			{
				"x": -4.1359151667,
				"y": -0.1037821777,
				"z": 0.2096141434,
				"element": "H" 
			},
			{
				"x": -2.475332577,
				"y": -1.8692890444,
				"z": -1.6638168059,
				"element": "H" 
			},
			{
				"x": -3.3193516345,
				"y": -2.4529157204,
				"z": -0.2321957678,
				"element": "H" 
			},
			{
				"x": -1.9016585372,
				"y": -1.1994211453,
				"z": 1.2623472781,
				"element": "H" 
			},
			{
				"x": -0.8268783924,
				"y": -1.9495506846,
				"z": 0.1149985584,
				"element": "H" 
			},
			{
				"x": -0.8324468624,
				"y": 0.4268325344,
				"z": 2.7063754702,
				"element": "H" 
			},
			{
				"x": -0.0007211134,
				"y": -0.6068460311,
				"z": 4.782098197,
				"element": "H" 
			},
			{
				"x": 2.1877346281,
				"y": -1.7908756103,
				"z": 4.8053539433,
				"element": "H" 
			},
			{
				"x": 3.5295408846,
				"y": -1.9263504195,
				"z": 2.712329834,
				"element": "H" 
			},
			{
				"x": 2.6927768289,
				"y": -0.886866476,
				"z": 0.6344588618,
				"element": "H" 
			}
		],
		 "valence_orbital": [ 
			{
				"type": "occ",
				"energy": -0.31305,
				"method": "rhf"
			},
			{
				"type": "occ",
				"energy": -0.26362,
				"method": "rhf"
			},
			{
				"type": "occ",
				"energy": -0.25499,
				"method": "rhf"
			},
			{
				"type": "occ",
				"energy": -0.24863,
				"method": "rhf"
			},
			{
				"type": "occ",
				"energy": -0.22299,
				"method": "rhf"
			},
			{
				"type": "unocc",
				"energy": -0.01054,
				"method": "rhf"
			},
			{
				"type": "unocc",
				"energy": -0.00756,
				"method": "rhf"
			},
			{
				"type": "unocc",
				"energy": -0.00403,
				"method": "rhf"
			},
			{
				"type": "unocc",
				"energy": 0.03811,
				"method": "rhf"
			},
			{
				"type": "unocc",
				"energy": 0.07539,
				"method": "rhf"
			}
		],
		"cosmo_sigma_profile": { 
			"-0.025": 0.0,
			"-0.024": 0.0,
			"-0.023": 0.0,
			"-0.022": 0.0,
			"-0.021": 0.0,
			"-0.02": 0.0,
			"-0.019": 0.0,
			"-0.018": 0.0,
			"-0.017": 0.0,
			"-0.016": 0.0,
			"-0.015": 0.0,
			"-0.014": 0.0,
			"-0.013": 0.0,
			"-0.012": 0.0,
			"-0.011": 0.0,
			"-0.01": 0.0,
			"-0.009": 0.0,
			"-0.008": 0.0,
			"-0.007": 0.377481862036,
			"-0.006": 4.36460747831,
			"-0.005": 14.9922755668,
			"-0.004": 21.2911414871,
			"-0.003": 36.444257987,
			"-0.002": 44.6309935734,
			"-0.001": 43.7432354678,
			"0.0": 36.0765737353,
			"0.001": 26.1442859532,
			"0.002": 11.4312172881,
			"0.003": 9.08360398166,
			"0.004": 9.97534219743,
			"0.005": 9.032862045,
			"0.006": 8.07373485939,
			"0.007": 1.94570808664,
			"0.008": 3.13346347929,
			"0.009": 2.41789237735,
			"0.01": 3.54300094303,
			"0.011": 5.1682577467,
			"0.012": 4.65340060438,
			"0.013": 1.11029317215,
			"0.014": 0.0,
			"0.015": 0.0,
			"0.016": 0.0,
			"0.017": 0.0,
			"0.018": 0.0,
			"0.019": 0.0,
			"0.02": 0.0,
			"0.021": 0.0,
			"0.022": 0.0,
			"0.023": 0.0,
			"0.024": 0.0,
			"0.025": 0.0
		}
	}
}
