{
	 "smiles": "CC12CCC3C(CCC4CC5(CCC34C)OCCO5)C1CC[C@H]2O", 
	 "Tm": 485.15, 
	 "num_atms": 58, 
	 "gaussian": { 
		 "optdone": 1, 
		 "sigma_profile": "yes", 
		 "theory": "DFT", 
		 "functional": "B3LYP", 
		 "basiset": "6-31G**", 
		 "properties": { 
			 "R2extent": 9559.128, 
			 "electric_dipole_moment_norm": 2.12539535616, 
			 "electric_quadrupole_moment_norm": 16.1471526211, 
			 "total_energy": -1046.38988195, 
			 "HOMO_LUMO_gap": 0.3107, 
			 "cosmo_polarized_energy": -10.58, 
			 "cosmo_cavitation_energy": 47.92, 
			 "cosmo_dispersion_energy": -34.16, 
			 "cosmo_repulsion_energy": 2.5, 
			 "cosmo_total_nonelectrostatic_energy": 16.26, 
			 "SMD_solvation_energy": 6.17 
		},
		"coords": [
			{
				"x": -4.7737282478,
				"y": -0.4087710004,
				"z": 0.0379411783,
				"element": "C" 
			},
			{
				"x": -3.3688397927,
				"y": -0.0628234595,
				"z": 0.5559432185,
				"element": "C" 
			},
			{
				"x": -2.7273350568,
				"y": -1.3266413724,
				"z": 1.1768910785,
				"element": "C" 
			},
			{
				"x": -1.1958989688,
				"y": -1.2430163298,
				"z": 1.2385855339,
				"element": "C" 
			},
			{
				"x": -0.5764408074,
				"y": -1.2696924179,
				"z": -0.1777226052,
				"element": "C" 
			},
			{
				"x": -1.4893847295,
				"y": -0.4907675075,
				"z": -1.1952443071,
				"element": "C" 
			},
			{
				"x": -0.6914149548,
				"y": 0.0461238768,
				"z": -2.3932265961,
				"element": "C" 
			},
			{
				"x": 0.380816521,
				"y": -0.9737959343,
				"z": -2.7868263947,
				"element": "C" 
			},
			{
				"x": 1.5015487411,
				"y": -1.0633524914,
				"z": -1.7236098173,
				"element": "C" 
			},
			{
				"x": 2.5612466771,
				"y": 0.0210249778,
				"z": -2.0390006507,
				"element": "C" 
			},
			{
				"x": 3.5837543826,
				"y": 0.2471527106,
				"z": -0.9306765952,
				"element": "C" 
			},
			{
				"x": 2.891012174,
				"y": 0.6410024172,
				"z": 0.3905157095,
				"element": "C" 
			},
			{
				"x": 1.371852121,
				"y": 0.3748614069,
				"z": 0.3849888725,
				"element": "C" 
			},
			{
				"x": 0.972697215,
				"y": -0.9926200707,
				"z": -0.2270309537,
				"element": "C" 
			},
			{
				"x": 1.664162952,
				"y": -2.1166818264,
				"z": 0.5852987281,
				"element": "C" 
			},
			{
				"x": 4.5082205008,
				"y": 1.2851770544,
				"z": -1.2869862893,
				"element": "O" 
			},
			{
				"x": 5.743206378,
				"y": 0.6773620184,
				"z": -1.6453777513,
				"element": "C" 
			},
			{
				"x": 5.7452069313,
				"y": -0.5752920459,
				"z": -0.7769892315,
				"element": "C" 
			},
			{
				"x": 4.3726038576,
				"y": -0.9502625378,
				"z": -0.7936369335,
				"element": "O" 
			},
			{
				"x": -2.4806181607,
				"y": 0.5332618239,
				"z": -0.6003537065,
				"element": "C" 
			},
			{
				"x": -1.9428224304,
				"y": 1.8835580088,
				"z": -0.064965655,
				"element": "C" 
			},
			{
				"x": -3.0667016591,
				"y": 2.3702122447,
				"z": 0.857484384,
				"element": "C" 
			},
			{
				"x": -3.4383586771,
				"y": 1.092698939,
				"z": 1.6213659049,
				"element": "C" 
			},
			{
				"x": -4.6385589027,
				"y": 1.1576020652,
				"z": 2.3757408879,
				"element": "O" 
			},
			{
				"x": -5.3930859657,
				"y": -0.8445658812,
				"z": 0.8285029823,
				"element": "H" 
			},
			{
				"x": -4.7098860342,
				"y": -1.1351391838,
				"z": -0.7798191175,
				"element": "H" 
			},
			{
				"x": -5.2944467918,
				"y": 0.4723669657,
				"z": -0.3595311381,
				"element": "H" 
			},
			{
				"x": -3.1454595228,
				"y": -1.4740339279,
				"z": 2.1807403219,
				"element": "H" 
			},
			{
				"x": -3.0112433639,
				"y": -2.2150323285,
				"z": 0.595471731,
				"element": "H" 
			},
			{
				"x": -0.9091616686,
				"y": -0.3310667288,
				"z": 1.775662162,
				"element": "H" 
			},
			{
				"x": -0.806840035,
				"y": -2.0753802262,
				"z": 1.8334316069,
				"element": "H" 
			},
			{
				"x": -0.6499607228,
				"y": -2.3178010511,
				"z": -0.4998002577,
				"element": "H" 
			},
			{
				"x": -2.1433189729,
				"y": -1.2685581323,
				"z": -1.6171616932,
				"element": "H" 
			},
			{
				"x": -0.2197295316,
				"y": 1.0078594779,
				"z": -2.1550307535,
				"element": "H" 
			},
			{
				"x": -1.3719893259,
				"y": 0.2429907267,
				"z": -3.2310860988,
				"element": "H" 
			},
			{
				"x": -0.0966386437,
				"y": -1.9534589273,
				"z": -2.9206723527,
				"element": "H" 
			},
			{
				"x": 0.8263510358,
				"y": -0.7193972449,
				"z": -3.7564577886,
				"element": "H" 
			},
			{
				"x": 1.9979747992,
				"y": -2.0326968234,
				"z": -1.844351273,
				"element": "H" 
			},
			{
				"x": 2.0722490977,
				"y": 0.9855010412,
				"z": -2.2221084001,
				"element": "H" 
			},
			{
				"x": 3.0920294407,
				"y": -0.2446900023,
				"z": -2.9595335156,
				"element": "H" 
			},
			{
				"x": 3.070878721,
				"y": 1.7075584313,
				"z": 0.5559902431,
				"element": "H" 
			},
			{
				"x": 3.3836064662,
				"y": 0.1022642318,
				"z": 1.205758507,
				"element": "H" 
			},
			{
				"x": 0.881580639,
				"y": 1.1801429395,
				"z": -0.1703139973,
				"element": "H" 
			},
			{
				"x": 1.0066080218,
				"y": 0.4495785205,
				"z": 1.4146705027,
				"element": "H" 
			},
			{
				"x": 1.4556405277,
				"y": -2.0297180461,
				"z": 1.6570329692,
				"element": "H" 
			},
			{
				"x": 2.7471280587,
				"y": -2.0972002107,
				"z": 0.4501951683,
				"element": "H" 
			},
			{
				"x": 1.3096596826,
				"y": -3.1005683195,
				"z": 0.2560575655,
				"element": "H" 
			},
			{
				"x": 6.5526659609,
				"y": 1.3786260437,
				"z": -1.4243020256,
				"element": "H" 
			},
			{
				"x": 5.7710604845,
				"y": 0.4201901974,
				"z": -2.7147846172,
				"element": "H" 
			},
			{
				"x": 6.0870785257,
				"y": -0.3498014717,
				"z": 0.2444037869,
				"element": "H" 
			},
			{
				"x": 6.3367687749,
				"y": -1.402483155,
				"z": -1.1789721704,
				"element": "H" 
			},
			{
				"x": -3.1595521341,
				"y": 0.7921112986,
				"z": -1.426099206,
				"element": "H" 
			},
			{
				"x": -1.7059512055,
				"y": 2.589619935,
				"z": -0.8670356106,
				"element": "H" 
			},
			{
				"x": -1.029905193,
				"y": 1.7459731906,
				"z": 0.5227236951,
				"element": "H" 
			},
			{
				"x": -2.7793724063,
				"y": 3.1906352911,
				"z": 1.5220295745,
				"element": "H" 
			},
			{
				"x": -3.9272353136,
				"y": 2.7122100002,
				"z": 0.2632808794,
				"element": "H" 
			},
			{
				"x": -2.6644626719,
				"y": 0.9127963094,
				"z": 2.3771225835,
				"element": "H" 
			},
			{
				"x": -5.3550667968,
				"y": 1.3918465105,
				"z": 1.7714777274,
				"element": "H" 
			}
		],
		 "valence_orbital": [ 
			{
				"type": "occ",
				"energy": -0.27052,
				"method": "rhf"
			},
			{
				"type": "occ",
				"energy": -0.26989,
				"method": "rhf"
			},
			{
				"type": "occ",
				"energy": -0.26407,
				"method": "rhf"
			},
			{
				"type": "occ",
				"energy": -0.24738,
				"method": "rhf"
			},
			{
				"type": "occ",
				"energy": -0.24254,
				"method": "rhf"
			},
			{
				"type": "unocc",
				"energy": 0.06816,
				"method": "rhf"
			},
			{
				"type": "unocc",
				"energy": 0.07406,
				"method": "rhf"
			},
			{
				"type": "unocc",
				"energy": 0.08623,
				"method": "rhf"
			},
			{
				"type": "unocc",
				"energy": 0.09047,
				"method": "rhf"
			},
			{
				"type": "unocc",
				"energy": 0.09283,
				"method": "rhf"
			}
		],
		"cosmo_sigma_profile": { 
			"-0.025": 0.0,
			"-0.024": 0.0,
			"-0.023": 0.0,
			"-0.022": 0.0,
			"-0.021": 0.0,
			"-0.02": 0.0,
			"-0.019": 0.0,
			"-0.018": 0.0,
			"-0.017": 0.0,
			"-0.016": 0.0,
			"-0.015": 0.0,
			"-0.014": 0.0694948940418,
			"-0.013": 1.32601428617,
			"-0.012": 0.289809255802,
			"-0.011": 0.712460084459,
			"-0.01": 1.07202865691,
			"-0.009": 1.37355876391,
			"-0.008": 1.28093995251,
			"-0.007": 1.57879341477,
			"-0.006": 4.02005023601,
			"-0.005": 7.95323208156,
			"-0.004": 19.1130450436,
			"-0.003": 27.4583288188,
			"-0.002": 48.3047473094,
			"-0.001": 73.46313032,
			"0.0": 60.267101963,
			"0.001": 42.5950649365,
			"0.002": 23.9159190408,
			"0.003": 8.13462690502,
			"0.004": 5.39961891163,
			"0.005": 5.02711807864,
			"0.006": 4.44127492853,
			"0.007": 5.33133732403,
			"0.008": 3.96944355035,
			"0.009": 3.02295758031,
			"0.01": 3.60551986998,
			"0.011": 3.45037737245,
			"0.012": 2.35999213918,
			"0.013": 2.46993740583,
			"0.014": 2.24183001858,
			"0.015": 1.33074213719,
			"0.016": 0.0,
			"0.017": 0.0,
			"0.018": 0.0,
			"0.019": 0.0,
			"0.02": 0.0,
			"0.021": 0.0,
			"0.022": 0.0,
			"0.023": 0.0,
			"0.024": 0.0,
			"0.025": 0.0
		}
	}
}
