{
	 "smiles": "OC(=O)CCNC1=C(C=CC=C1)[N+]([O-])=O", 
	 "Tm": 418.15, 
	 "num_atms": 25, 
	 "gaussian": { 
		 "optdone": 1, 
		 "sigma_profile": "yes", 
		 "theory": "DFT", 
		 "functional": "B3LYP", 
		 "basiset": "6-31G**", 
		 "properties": { 
			 "R2extent": 3401.1911, 
			 "electric_dipole_moment_norm": 3.27458988883, 
			 "electric_quadrupole_moment_norm": 20.3594448753, 
			 "total_energy": -759.285080747, 
			 "HOMO_LUMO_gap": 0.14207, 
			 "cosmo_polarized_energy": -20.41, 
			 "cosmo_cavitation_energy": 29.64, 
			 "cosmo_dispersion_energy": -20.94, 
			 "cosmo_repulsion_energy": 1.65, 
			 "cosmo_total_nonelectrostatic_energy": 10.35, 
			 "SMD_solvation_energy": 7.19 
		},
		"coords": [
			{
				"x": 0.2736858665,
				"y": -0.0355756435,
				"z": -3.9087785529,
				"element": "O" 
			},
			{
				"x": -0.4130866988,
				"y": 0.510052903,
				"z": -2.8758220621,
				"element": "C" 
			},
			{
				"x": -0.6314092389,
				"y": 1.6997448108,
				"z": -2.8624093812,
				"element": "O" 
			},
			{
				"x": -0.8541188156,
				"y": -0.4576163485,
				"z": -1.7846032918,
				"element": "C" 
			},
			{
				"x": -1.7199067383,
				"y": 0.2199874915,
				"z": -0.7086165807,
				"element": "C" 
			},
			{
				"x": -1.0317561441,
				"y": 1.2915642422,
				"z": 0.0071547006,
				"element": "N" 
			},
			{
				"x": 0.0852468117,
				"y": 1.1338671434,
				"z": 0.8099771552,
				"element": "C" 
			},
			{
				"x": 0.3229956356,
				"y": 0.1194008316,
				"z": 1.7770707551,
				"element": "C" 
			},
			{
				"x": 1.5360342394,
				"y": 0.0499247931,
				"z": 2.4833536792,
				"element": "C" 
			},
			{
				"x": 2.5219169228,
				"y": 1.0029832708,
				"z": 2.3064917053,
				"element": "C" 
			},
			{
				"x": 2.2924953013,
				"y": 2.0453327042,
				"z": 1.3965519124,
				"element": "C" 
			},
			{
				"x": 1.1181970924,
				"y": 2.0964373629,
				"z": 0.6675490306,
				"element": "C" 
			},
			{
				"x": -0.6844284723,
				"y": -0.8557337506,
				"z": 2.1869931654,
				"element": "N" 
			},
			{
				"x": -0.2945871938,
				"y": -1.9130544419,
				"z": 2.6902771662,
				"element": "O" 
			},
			{
				"x": -1.8767270059,
				"y": -0.5585944417,
				"z": 2.056784729,
				"element": "O" 
			},
			{
				"x": 0.3660688312,
				"y": -0.9913496886,
				"z": -3.7851112173,
				"element": "H" 
			},
			{
				"x": -1.412859816,
				"y": -1.2840609298,
				"z": -2.2449061776,
				"element": "H" 
			},
			{
				"x": 0.0425655264,
				"y": -0.9038397891,
				"z": -1.3330974256,
				"element": "H" 
			},
			{
				"x": -2.5875963309,
				"y": 0.6798170552,
				"z": -1.1891333788,
				"element": "H" 
			},
			{
				"x": -2.094013732,
				"y": -0.5226741453,
				"z": -0.0068843601,
				"element": "H" 
			},
			{
				"x": -0.9198246497,
				"y": 2.0831035933,
				"z": -0.6159817756,
				"element": "H" 
			},
			{
				"x": 1.6549371451,
				"y": -0.7626399917,
				"z": 3.1889628249,
				"element": "H" 
			},
			{
				"x": 3.4457802284,
				"y": 0.948252299,
				"z": 2.8717616775,
				"element": "H" 
			},
			{
				"x": 3.0469167606,
				"y": 2.8110050605,
				"z": 1.2405197376,
				"element": "H" 
			},
			{
				"x": 0.9751744752,
				"y": 2.8844656091,
				"z": -0.0671040353,
				"element": "H" 
			}
		],
		 "valence_orbital": [ 
			{
				"type": "occ",
				"energy": -0.29913,
				"method": "rhf"
			},
			{
				"type": "occ",
				"energy": -0.28917,
				"method": "rhf"
			},
			{
				"type": "occ",
				"energy": -0.28799,
				"method": "rhf"
			},
			{
				"type": "occ",
				"energy": -0.26878,
				"method": "rhf"
			},
			{
				"type": "occ",
				"energy": -0.22191,
				"method": "rhf"
			},
			{
				"type": "unocc",
				"energy": -0.07984,
				"method": "rhf"
			},
			{
				"type": "unocc",
				"energy": -0.01507,
				"method": "rhf"
			},
			{
				"type": "unocc",
				"energy": -0.00746,
				"method": "rhf"
			},
			{
				"type": "unocc",
				"energy": 0.00208,
				"method": "rhf"
			},
			{
				"type": "unocc",
				"energy": 0.04245,
				"method": "rhf"
			}
		],
		"cosmo_sigma_profile": { 
			"-0.025": 0.0,
			"-0.024": 0.0,
			"-0.023": 0.0,
			"-0.022": 0.0,
			"-0.021": 0.0,
			"-0.02": 0.0285327832165,
			"-0.019": 0.74028234042,
			"-0.018": 1.36093696142,
			"-0.017": 0.876559307385,
			"-0.016": 1.34051902258,
			"-0.015": 1.40723050771,
			"-0.014": 0.861185060821,
			"-0.013": 0.94290937871,
			"-0.012": 1.14932818332,
			"-0.011": 2.07473966137,
			"-0.01": 1.90926549943,
			"-0.009": 2.60436266983,
			"-0.008": 4.90873112449,
			"-0.007": 10.5443254861,
			"-0.006": 15.4653421784,
			"-0.005": 19.1419461964,
			"-0.004": 15.8479741217,
			"-0.003": 13.7729915701,
			"-0.002": 10.7583692451,
			"-0.001": 11.1264883244,
			"0.0": 9.64724516538,
			"0.001": 12.2286996346,
			"0.002": 13.8320320901,
			"0.003": 12.9860128627,
			"0.004": 10.3106954912,
			"0.005": 4.62815712689,
			"0.006": 5.41202201831,
			"0.007": 7.77914248062,
			"0.008": 11.6293451351,
			"0.009": 9.28149805142,
			"0.01": 9.75844729814,
			"0.011": 7.27166153544,
			"0.012": 3.03611255182,
			"0.013": 1.15235177932,
			"0.014": 0.0,
			"0.015": 0.0,
			"0.016": 0.0,
			"0.017": 0.0,
			"0.018": 0.0,
			"0.019": 0.0,
			"0.02": 0.0,
			"0.021": 0.0,
			"0.022": 0.0,
			"0.023": 0.0,
			"0.024": 0.0,
			"0.025": 0.0
		}
	}
}
