{
	 "smiles": "BrC1=CC=C(OCC2=CC=CC=C2)N=C1", 
	 "Tm": 319.65, 
	 "num_atms": 25, 
	 "gaussian": { 
		 "optdone": 1, 
		 "sigma_profile": "yes", 
		 "theory": "DFT", 
		 "functional": "B3LYP", 
		 "basiset": "6-31G**", 
		 "properties": { 
			 "R2extent": 9233.2285, 
			 "electric_dipole_moment_norm": 1.50568188539, 
			 "electric_quadrupole_moment_norm": 6.22496384247, 
			 "total_energy": -3164.6774055, 
			 "HOMO_LUMO_gap": 0.19747, 
			 "cosmo_polarized_energy": -7.1, 
			 "cosmo_cavitation_energy": 32.23, 
			 "cosmo_dispersion_energy": -24.03, 
			 "cosmo_repulsion_energy": 1.88, 
			 "cosmo_total_nonelectrostatic_energy": 10.08, 
			 "SMD_solvation_energy": 3.58 
		},
		"coords": [
			{
				"x": -1.4812202078,
				"y": -2.5973424872,
				"z": -5.7106469767,
				"element": "Br" 
			},
			{
				"x": -0.9657754572,
				"y": -1.7796816784,
				"z": -4.066844813,
				"element": "C" 
			},
			{
				"x": -1.4098321368,
				"y": -0.4919730269,
				"z": -3.7409990387,
				"element": "C" 
			},
			{
				"x": -1.0103246289,
				"y": 0.0616624369,
				"z": -2.5371149925,
				"element": "C" 
			},
			{
				"x": -0.1751054565,
				"y": -0.7049967542,
				"z": -1.7012525265,
				"element": "C" 
			},
			{
				"x": 0.1966896356,
				"y": -0.1406200616,
				"z": -0.5330392795,
				"element": "O" 
			},
			{
				"x": 1.0663711776,
				"y": -0.9047549313,
				"z": 0.3251806172,
				"element": "C" 
			},
			{
				"x": 1.4098589937,
				"y": -0.0621941,
				"z": 1.527337812,
				"element": "C" 
			},
			{
				"x": 1.8118296881,
				"y": 1.272022008,
				"z": 1.3787466739,
				"element": "C" 
			},
			{
				"x": 2.169427817,
				"y": 2.0301079028,
				"z": 2.4925246138,
				"element": "C" 
			},
			{
				"x": 2.1387875606,
				"y": 1.4621629859,
				"z": 3.7690757027,
				"element": "C" 
			},
			{
				"x": 1.7413682687,
				"y": 0.1341947998,
				"z": 3.924998115,
				"element": "C" 
			},
			{
				"x": 1.373625084,
				"y": -0.6207754066,
				"z": 2.8090999873,
				"element": "C" 
			},
			{
				"x": 0.2463195659,
				"y": -1.9281133107,
				"z": -2.0074016811,
				"element": "N" 
			},
			{
				"x": -0.1441271945,
				"y": -2.4578600425,
				"z": -3.17682978,
				"element": "C" 
			},
			{
				"x": -2.0528559244,
				"y": 0.056634589,
				"z": -4.4203092595,
				"element": "H" 
			},
			{
				"x": -1.3205812633,
				"y": 1.0532918205,
				"z": -2.2283683981,
				"element": "H" 
			},
			{
				"x": 1.9625218451,
				"y": -1.1846386217,
				"z": -0.2417948906,
				"element": "H" 
			},
			{
				"x": 0.5705155377,
				"y": -1.8358101801,
				"z": 0.6185122424,
				"element": "H" 
			},
			{
				"x": 1.830001471,
				"y": 1.7152108092,
				"z": 0.3877023296,
				"element": "H" 
			},
			{
				"x": 2.4744933725,
				"y": 3.0650174681,
				"z": 2.365245273,
				"element": "H" 
			},
			{
				"x": 2.4198502854,
				"y": 2.0533049458,
				"z": 4.6359575109,
				"element": "H" 
			},
			{
				"x": 1.70829969,
				"y": -0.3132709092,
				"z": 4.9142834202,
				"element": "H" 
			},
			{
				"x": 1.0541779171,
				"y": -1.6523008127,
				"z": 2.9360411361,
				"element": "H" 
			},
			{
				"x": 0.2137843594,
				"y": -3.458277443,
				"z": -3.4047037978,
				"element": "H" 
			}
		],
		 "valence_orbital": [ 
			{
				"type": "occ",
				"energy": -0.28905,
				"method": "rhf"
			},
			{
				"type": "occ",
				"energy": -0.27492,
				"method": "rhf"
			},
			{
				"type": "occ",
				"energy": -0.252,
				"method": "rhf"
			},
			{
				"type": "occ",
				"energy": -0.24705,
				"method": "rhf"
			},
			{
				"type": "occ",
				"energy": -0.23119,
				"method": "rhf"
			},
			{
				"type": "unocc",
				"energy": -0.03372,
				"method": "rhf"
			},
			{
				"type": "unocc",
				"energy": -0.01136,
				"method": "rhf"
			},
			{
				"type": "unocc",
				"energy": -0.00643,
				"method": "rhf"
			},
			{
				"type": "unocc",
				"energy": -0.00255,
				"method": "rhf"
			},
			{
				"type": "unocc",
				"energy": 0.00496,
				"method": "rhf"
			}
		],
		"cosmo_sigma_profile": { 
			"-0.025": 0.0,
			"-0.024": 0.0,
			"-0.023": 0.0,
			"-0.022": 0.0,
			"-0.021": 0.0,
			"-0.02": 0.0,
			"-0.019": 0.0,
			"-0.018": 0.0,
			"-0.017": 0.0,
			"-0.016": 0.0,
			"-0.015": 0.0,
			"-0.014": 0.0,
			"-0.013": 0.0,
			"-0.012": 0.0,
			"-0.011": 0.0,
			"-0.01": 0.0,
			"-0.009": 0.114997864976,
			"-0.008": 2.79622343618,
			"-0.007": 5.94036690713,
			"-0.006": 12.8013065744,
			"-0.005": 18.6788511864,
			"-0.004": 19.9463992962,
			"-0.003": 20.5958755261,
			"-0.002": 16.1172483779,
			"-0.001": 18.4626216733,
			"0.0": 22.8918164035,
			"0.001": 27.3738967807,
			"0.002": 21.5175797903,
			"0.003": 18.3291728932,
			"0.004": 21.4626824406,
			"0.005": 15.742969002,
			"0.006": 10.5071745282,
			"0.007": 2.35583997831,
			"0.008": 2.48392152889,
			"0.009": 1.53846626147,
			"0.01": 0.955451017211,
			"0.011": 0.775978927651,
			"0.012": 0.462846770479,
			"0.013": 0.0588407868723,
			"0.014": 0.0,
			"0.015": 0.0,
			"0.016": 0.0,
			"0.017": 0.0,
			"0.018": 0.0,
			"0.019": 0.0,
			"0.02": 0.0,
			"0.021": 0.0,
			"0.022": 0.0,
			"0.023": 0.0,
			"0.024": 0.0,
			"0.025": 0.0
		}
	}
}
