{
	 "smiles": "CN1C=CC(=N1)C(=O)C1=CC=C(F)C=C1", 
	 "Tm": 342.15, 
	 "num_atms": 24, 
	 "gaussian": { 
		 "optdone": 1, 
		 "sigma_profile": "yes", 
		 "theory": "DFT", 
		 "functional": "B3LYP", 
		 "basiset": "6-31G**", 
		 "properties": { 
			 "R2extent": 4656.3577, 
			 "electric_dipole_moment_norm": 5.00603795631, 
			 "electric_quadrupole_moment_norm": 7.9109188417, 
			 "total_energy": -709.136453055, 
			 "HOMO_LUMO_gap": 0.18342, 
			 "cosmo_polarized_energy": -11.18, 
			 "cosmo_cavitation_energy": 29.41, 
			 "cosmo_dispersion_energy": -21.37, 
			 "cosmo_repulsion_energy": 1.63, 
			 "cosmo_total_nonelectrostatic_energy": 9.67, 
			 "SMD_solvation_energy": 5.96 
		},
		"coords": [
			{
				"x": 2.4734820427,
				"y": 1.5823231433,
				"z": -0.8628758792,
				"element": "C" 
			},
			{
				"x": 1.0432751094,
				"y": 1.661118543,
				"z": -0.6228419892,
				"element": "N" 
			},
			{
				"x": 0.2039561676,
				"y": 2.7070738136,
				"z": -0.8830628386,
				"element": "C" 
			},
			{
				"x": -1.0538867143,
				"y": 2.3151823441,
				"z": -0.4872967869,
				"element": "C" 
			},
			{
				"x": -0.8808031884,
				"y": 0.9978687173,
				"z": 0.0079231637,
				"element": "C" 
			},
			{
				"x": 0.4035425619,
				"y": 0.6156764614,
				"z": -0.0824435449,
				"element": "N" 
			},
			{
				"x": -1.9999758833,
				"y": 0.1771304364,
				"z": 0.5492888954,
				"element": "C" 
			},
			{
				"x": -3.1161065616,
				"y": 0.6935910064,
				"z": 0.5551328911,
				"element": "O" 
			},
			{
				"x": -1.8209811966,
				"y": -1.2156559993,
				"z": 1.0721693548,
				"element": "C" 
			},
			{
				"x": -0.5978505777,
				"y": -1.9071126189,
				"z": 1.1149162176,
				"element": "C" 
			},
			{
				"x": -0.53516086,
				"y": -3.2040353262,
				"z": 1.6213666092,
				"element": "C" 
			},
			{
				"x": -1.7013499883,
				"y": -3.8030382537,
				"z": 2.0835479925,
				"element": "C" 
			},
			{
				"x": -1.6419021508,
				"y": -5.0569230635,
				"z": 2.5734177915,
				"element": "F" 
			},
			{
				"x": -2.9301262668,
				"y": -3.1482983213,
				"z": 2.056611482,
				"element": "C" 
			},
			{
				"x": -2.9796163577,
				"y": -1.8560451978,
				"z": 1.549533739,
				"element": "C" 
			},
			{
				"x": 2.8092365907,
				"y": 2.5230870539,
				"z": -1.3012734507,
				"element": "H" 
			},
			{
				"x": 3.0031594861,
				"y": 1.4114371196,
				"z": 0.0776795384,
				"element": "H" 
			},
			{
				"x": 2.6943045464,
				"y": 0.7626367763,
				"z": -1.5512172768,
				"element": "H" 
			},
			{
				"x": 0.5696588698,
				"y": 3.6246181424,
				"z": -1.3202062191,
				"element": "H" 
			},
			{
				"x": -1.9783437548,
				"y": 2.867497131,
				"z": -0.5332959353,
				"element": "H" 
			},
			{
				"x": 0.3009617705,
				"y": -1.4268488448,
				"z": 0.7512577064,
				"element": "H" 
			},
			{
				"x": 0.3996021993,
				"y": -3.7527664547,
				"z": 1.6621565628,
				"element": "H" 
			},
			{
				"x": -3.8156628662,
				"y": -3.6530199893,
				"z": 2.4275282944,
				"element": "H" 
			},
			{
				"x": -3.9159129778,
				"y": -1.3106966191,
				"z": 1.5103836817,
				"element": "H" 
			}
		],
		 "valence_orbital": [ 
			{
				"type": "occ",
				"energy": -0.26418,
				"method": "rhf"
			},
			{
				"type": "occ",
				"energy": -0.25743,
				"method": "rhf"
			},
			{
				"type": "occ",
				"energy": -0.25466,
				"method": "rhf"
			},
			{
				"type": "occ",
				"energy": -0.24846,
				"method": "rhf"
			},
			{
				"type": "occ",
				"energy": -0.24318,
				"method": "rhf"
			},
			{
				"type": "unocc",
				"energy": -0.05976,
				"method": "rhf"
			},
			{
				"type": "unocc",
				"energy": -0.00696,
				"method": "rhf"
			},
			{
				"type": "unocc",
				"energy": 0.00407,
				"method": "rhf"
			},
			{
				"type": "unocc",
				"energy": 0.03557,
				"method": "rhf"
			},
			{
				"type": "unocc",
				"energy": 0.08304,
				"method": "rhf"
			}
		],
		"cosmo_sigma_profile": { 
			"-0.025": 0.0,
			"-0.024": 0.0,
			"-0.023": 0.0,
			"-0.022": 0.0,
			"-0.021": 0.0,
			"-0.02": 0.0,
			"-0.019": 0.0,
			"-0.018": 0.0,
			"-0.017": 0.0,
			"-0.016": 0.0,
			"-0.015": 0.0,
			"-0.014": 0.0,
			"-0.013": 0.0,
			"-0.012": 0.0,
			"-0.011": 0.0,
			"-0.01": 0.936992064235,
			"-0.009": 3.72277056656,
			"-0.008": 4.01304213162,
			"-0.007": 9.65711464316,
			"-0.006": 13.2812444168,
			"-0.005": 13.8391068304,
			"-0.004": 17.4968642836,
			"-0.003": 14.4018859965,
			"-0.002": 11.1395897921,
			"-0.001": 12.5328699398,
			"0.0": 20.3466053274,
			"0.001": 17.9969197168,
			"0.002": 25.5657507256,
			"0.003": 26.4383635814,
			"0.004": 18.8710659653,
			"0.005": 4.94261652634,
			"0.006": 4.92603681632,
			"0.007": 3.59802320093,
			"0.008": 2.45560720208,
			"0.009": 1.54841143935,
			"0.01": 2.19028035187,
			"0.011": 2.54449740125,
			"0.012": 3.97214447753,
			"0.013": 0.493370259022,
			"0.014": 0.0,
			"0.015": 0.0,
			"0.016": 0.0,
			"0.017": 0.0,
			"0.018": 0.0,
			"0.019": 0.0,
			"0.02": 0.0,
			"0.021": 0.0,
			"0.022": 0.0,
			"0.023": 0.0,
			"0.024": 0.0,
			"0.025": 0.0
		}
	}
}
