{
	 "smiles": "CC1=CC(N)=C(C=C1)C#N", 
	 "Tm": 365.65, 
	 "num_atms": 18, 
	 "gaussian": { 
		 "optdone": 1, 
		 "sigma_profile": "yes", 
		 "theory": "DFT", 
		 "functional": "B3LYP", 
		 "basiset": "6-31G**", 
		 "properties": { 
			 "R2extent": 1917.3642, 
			 "electric_dipole_moment_norm": 4.65360975373, 
			 "electric_quadrupole_moment_norm": 15.8474795542, 
			 "total_energy": -419.175044536, 
			 "HOMO_LUMO_gap": 0.18011, 
			 "cosmo_polarized_energy": -11.53, 
			 "cosmo_cavitation_energy": 22.7, 
			 "cosmo_dispersion_energy": -16.29, 
			 "cosmo_repulsion_energy": 1.33, 
			 "cosmo_total_nonelectrostatic_energy": 7.74, 
			 "SMD_solvation_energy": 5.18 
		},
		"coords": [
			{
				"x": 2.2272753836,
				"y": -2.1680750905,
				"z": 0.0434596125,
				"element": "C" 
			},
			{
				"x": 1.3751064975,
				"y": -0.9728406968,
				"z": 0.3960773247,
				"element": "C" 
			},
			{
				"x": 1.9624883127,
				"y": 0.2503331254,
				"z": 0.7074955825,
				"element": "C" 
			},
			{
				"x": 1.192878209,
				"y": 1.3829457457,
				"z": 1.0355244231,
				"element": "C" 
			},
			{
				"x": 1.7917688741,
				"y": 2.5959820212,
				"z": 1.2913870839,
				"element": "N" 
			},
			{
				"x": -0.2194639209,
				"y": 1.2479940264,
				"z": 1.0498674906,
				"element": "C" 
			},
			{
				"x": -0.810087433,
				"y": 0.0112275738,
				"z": 0.7318677678,
				"element": "C" 
			},
			{
				"x": -0.0290686937,
				"y": -1.0856538155,
				"z": 0.4091226424,
				"element": "C" 
			},
			{
				"x": -1.0186824534,
				"y": 2.3762447056,
				"z": 1.4031450061,
				"element": "C" 
			},
			{
				"x": -1.6206403632,
				"y": 3.3266296661,
				"z": 1.708361724,
				"element": "N" 
			},
			{
				"x": 2.0195780079,
				"y": -3.0108715534,
				"z": 0.7122899692,
				"element": "H" 
			},
			{
				"x": 3.2938964476,
				"y": -1.9387723819,
				"z": 0.1102412995,
				"element": "H" 
			},
			{
				"x": 2.0196436872,
				"y": -2.5104223729,
				"z": -0.9768609563,
				"element": "H" 
			},
			{
				"x": 3.0457713099,
				"y": 0.3444506623,
				"z": 0.6921302601,
				"element": "H" 
			},
			{
				"x": 2.7634746612,
				"y": 2.5890991651,
				"z": 1.5594448144,
				"element": "H" 
			},
			{
				"x": 1.2315225337,
				"y": 3.3128799703,
				"z": 1.7301837621,
				"element": "H" 
			},
			{
				"x": -1.8923384758,
				"y": -0.0677700839,
				"z": 0.7499783738,
				"element": "H" 
			},
			{
				"x": -0.4986225844,
				"y": -2.0343806668,
				"z": 0.1675838195,
				"element": "H" 
			}
		],
		 "valence_orbital": [ 
			{
				"type": "occ",
				"energy": -0.34249,
				"method": "rhf"
			},
			{
				"type": "occ",
				"energy": -0.32487,
				"method": "rhf"
			},
			{
				"type": "occ",
				"energy": -0.31743,
				"method": "rhf"
			},
			{
				"type": "occ",
				"energy": -0.2532,
				"method": "rhf"
			},
			{
				"type": "occ",
				"energy": -0.21603,
				"method": "rhf"
			},
			{
				"type": "unocc",
				"energy": -0.03592,
				"method": "rhf"
			},
			{
				"type": "unocc",
				"energy": -0.00092,
				"method": "rhf"
			},
			{
				"type": "unocc",
				"energy": 0.0377,
				"method": "rhf"
			},
			{
				"type": "unocc",
				"energy": 0.07529,
				"method": "rhf"
			},
			{
				"type": "unocc",
				"energy": 0.08371,
				"method": "rhf"
			}
		],
		"cosmo_sigma_profile": { 
			"-0.025": 0.0,
			"-0.024": 0.0,
			"-0.023": 0.0,
			"-0.022": 0.0,
			"-0.021": 0.0,
			"-0.02": 0.0,
			"-0.019": 0.0,
			"-0.018": 0.0,
			"-0.017": 0.0,
			"-0.016": 0.0,
			"-0.015": 0.0,
			"-0.014": 0.53567340836,
			"-0.013": 1.74701045252,
			"-0.012": 1.97160222356,
			"-0.011": 2.58473131697,
			"-0.01": 2.59365933961,
			"-0.009": 2.24768997756,
			"-0.008": 2.6396764186,
			"-0.007": 4.57155892299,
			"-0.006": 5.83903664168,
			"-0.005": 10.923208422,
			"-0.004": 13.0165786847,
			"-0.003": 12.4123241522,
			"-0.002": 13.2579249447,
			"-0.001": 13.9488884622,
			"0.0": 15.7408768396,
			"0.001": 11.1645747906,
			"0.002": 9.92813399961,
			"0.003": 10.1603413245,
			"0.004": 13.0490062879,
			"0.005": 7.17946347491,
			"0.006": 2.7001355847,
			"0.007": 3.26301982954,
			"0.008": 3.26975909487,
			"0.009": 4.02567585316,
			"0.01": 3.4136460321,
			"0.011": 3.68757097653,
			"0.012": 2.53652715487,
			"0.013": 2.43634132923,
			"0.014": 0.605323928268,
			"0.015": 0.0,
			"0.016": 0.0,
			"0.017": 0.0,
			"0.018": 0.0,
			"0.019": 0.0,
			"0.02": 0.0,
			"0.021": 0.0,
			"0.022": 0.0,
			"0.023": 0.0,
			"0.024": 0.0,
			"0.025": 0.0
		}
	}
}
