{
	 "smiles": "CC1(C)OC2=CC=C3C4COC5=C(C=CC(O)=C5)C4OC3=C2C=C1", 
	 "Tm": 451.15, 
	 "num_atms": 42, 
	 "gaussian": { 
		 "optdone": 1, 
		 "sigma_profile": "yes", 
		 "theory": "DFT", 
		 "functional": "B3LYP", 
		 "basiset": "6-31G**", 
		 "properties": { 
			 "R2extent": 10495.5421, 
			 "electric_dipole_moment_norm": 2.12310678959, 
			 "electric_quadrupole_moment_norm": 17.4836507555, 
			 "total_energy": -1073.85157064, 
			 "HOMO_LUMO_gap": 0.17432, 
			 "cosmo_polarized_energy": -16.34, 
			 "cosmo_cavitation_energy": 43.76, 
			 "cosmo_dispersion_energy": -31.07, 
			 "cosmo_repulsion_energy": 2.35, 
			 "cosmo_total_nonelectrostatic_energy": 15.04, 
			 "SMD_solvation_energy": 7.49 
		},
		"coords": [
			{
				"x": -0.3996574583,
				"y": 1.2952364615,
				"z": -4.4306156359,
				"element": "C" 
			},
			{
				"x": 0.3263579889,
				"y": 0.6933912321,
				"z": -3.2249096738,
				"element": "C" 
			},
			{
				"x": 1.8276665372,
				"y": 1.0279469384,
				"z": -3.2550583027,
				"element": "C" 
			},
			{
				"x": -0.2629316006,
				"y": 1.3690725528,
				"z": -2.0735954094,
				"element": "O" 
			},
			{
				"x": -0.2137772537,
				"y": 0.7719977641,
				"z": -0.8484754528,
				"element": "C" 
			},
			{
				"x": -0.3323624981,
				"y": 1.589601467,
				"z": 0.2787758198,
				"element": "C" 
			},
			{
				"x": -0.3498032992,
				"y": 1.0174770195,
				"z": 1.556561466,
				"element": "C" 
			},
			{
				"x": -0.2358108217,
				"y": -0.3612606589,
				"z": 1.6919807076,
				"element": "C" 
			},
			{
				"x": -0.2881183188,
				"y": -1.2763883372,
				"z": 2.8971560894,
				"element": "C" 
			},
			{
				"x": 0.5894175329,
				"y": -0.8930645412,
				"z": 4.086589256,
				"element": "C" 
			},
			{
				"x": 1.9824402322,
				"y": -0.8985310926,
				"z": 3.781103241,
				"element": "O" 
			},
			{
				"x": 2.446829602,
				"y": -2.0598363576,
				"z": 3.2285480984,
				"element": "C" 
			},
			{
				"x": 1.606558844,
				"y": -2.9513533956,
				"z": 2.5393658272,
				"element": "C" 
			},
			{
				"x": 2.1794489502,
				"y": -4.1191975357,
				"z": 2.0221761337,
				"element": "C" 
			},
			{
				"x": 3.5337296628,
				"y": -4.3983637642,
				"z": 2.1642019623,
				"element": "C" 
			},
			{
				"x": 4.353638791,
				"y": -3.4829707181,
				"z": 2.8414688439,
				"element": "C" 
			},
			{
				"x": 5.6912944687,
				"y": -3.6897330313,
				"z": 3.0177043835,
				"element": "O" 
			},
			{
				"x": 3.8106368839,
				"y": -2.3183584403,
				"z": 3.3808590245,
				"element": "C" 
			},
			{
				"x": 0.1534894537,
				"y": -2.631479575,
				"z": 2.2731980255,
				"element": "C" 
			},
			{
				"x": -0.0575296629,
				"y": -2.4929037097,
				"z": 0.8269986988,
				"element": "O" 
			},
			{
				"x": -0.1259203541,
				"y": -1.156617956,
				"z": 0.5518122654,
				"element": "C" 
			},
			{
				"x": -0.1104878016,
				"y": -0.6335053927,
				"z": -0.7421724783,
				"element": "C" 
			},
			{
				"x": -0.0517201928,
				"y": -1.4201665728,
				"z": -1.9650214387,
				"element": "C" 
			},
			{
				"x": 0.1159129367,
				"y": -0.8046659445,
				"z": -3.1432406681,
				"element": "C" 
			},
			{
				"x": 0.0068810096,
				"y": 0.888992275,
				"z": -5.3620538293,
				"element": "H" 
			},
			{
				"x": -0.2757942286,
				"y": 2.3818337286,
				"z": -4.4418666398,
				"element": "H" 
			},
			{
				"x": -1.4677372574,
				"y": 1.0666648957,
				"z": -4.3854679685,
				"element": "H" 
			},
			{
				"x": 2.3192743705,
				"y": 0.6528007285,
				"z": -2.3531703208,
				"element": "H" 
			},
			{
				"x": 2.3076081685,
				"y": 0.5634550742,
				"z": -4.1227696496,
				"element": "H" 
			},
			{
				"x": 1.9742511931,
				"y": 2.1114559634,
				"z": -3.311616718,
				"element": "H" 
			},
			{
				"x": -0.4121881752,
				"y": 2.661732424,
				"z": 0.1384966765,
				"element": "H" 
			},
			{
				"x": -0.4427610021,
				"y": 1.658058471,
				"z": 2.4296156899,
				"element": "H" 
			},
			{
				"x": -1.3197875783,
				"y": -1.3550907759,
				"z": 3.2697766906,
				"element": "H" 
			},
			{
				"x": 0.4020665966,
				"y": -1.5820036442,
				"z": 4.9240603029,
				"element": "H" 
			},
			{
				"x": 0.3663151458,
				"y": 0.1220422894,
				"z": 4.4243857615,
				"element": "H" 
			},
			{
				"x": 1.5469164488,
				"y": -4.813855141,
				"z": 1.4758984064,
				"element": "H" 
			},
			{
				"x": 3.955618389,
				"y": -5.3112013504,
				"z": 1.7504226824,
				"element": "H" 
			},
			{
				"x": 5.9373161006,
				"y": -4.5271016554,
				"z": 2.6039384598,
				"element": "H" 
			},
			{
				"x": 4.4372721747,
				"y": -1.6173922721,
				"z": 3.9195916461,
				"element": "H" 
			},
			{
				"x": -0.48989194,
				"y": -3.4621516506,
				"z": 2.5759407264,
				"element": "H" 
			},
			{
				"x": -0.1623204297,
				"y": -2.4976496345,
				"z": -1.8943507173,
				"element": "H" 
			},
			{
				"x": 0.1512583919,
				"y": -1.3613161374,
				"z": -4.0758419822,
				"element": "H" 
			}
		],
		 "valence_orbital": [ 
			{
				"type": "occ",
				"energy": -0.28251,
				"method": "rhf"
			},
			{
				"type": "occ",
				"energy": -0.23083,
				"method": "rhf"
			},
			{
				"type": "occ",
				"energy": -0.21618,
				"method": "rhf"
			},
			{
				"type": "occ",
				"energy": -0.20219,
				"method": "rhf"
			},
			{
				"type": "occ",
				"energy": -0.19799,
				"method": "rhf"
			},
			{
				"type": "unocc",
				"energy": -0.02367,
				"method": "rhf"
			},
			{
				"type": "unocc",
				"energy": -0.00276,
				"method": "rhf"
			},
			{
				"type": "unocc",
				"energy": 0.01096,
				"method": "rhf"
			},
			{
				"type": "unocc",
				"energy": 0.02653,
				"method": "rhf"
			},
			{
				"type": "unocc",
				"energy": 0.05528,
				"method": "rhf"
			}
		],
		"cosmo_sigma_profile": { 
			"-0.025": 0.0,
			"-0.024": 0.0,
			"-0.023": 0.0,
			"-0.022": 0.0,
			"-0.021": 0.0,
			"-0.02": 0.0,
			"-0.019": 0.0,
			"-0.018": 0.359995929287,
			"-0.017": 1.32025716759,
			"-0.016": 0.648225347827,
			"-0.015": 1.26400524713,
			"-0.014": 1.31926270828,
			"-0.013": 0.94623104612,
			"-0.012": 0.753093865783,
			"-0.011": 0.468917482155,
			"-0.01": 1.30253460573,
			"-0.009": 1.46062205655,
			"-0.008": 0.948960998089,
			"-0.007": 3.06028646722,
			"-0.006": 21.1958591487,
			"-0.005": 29.865245372,
			"-0.004": 26.3032491816,
			"-0.003": 26.7101884467,
			"-0.002": 22.9922191834,
			"-0.001": 21.7683550973,
			"0.0": 26.7712820394,
			"0.001": 18.7522381255,
			"0.002": 19.3714292216,
			"0.003": 24.2786053316,
			"0.004": 31.1891312329,
			"0.005": 23.3653951764,
			"0.006": 13.6268690019,
			"0.007": 7.30231384294,
			"0.008": 5.52600630218,
			"0.009": 4.25620278645,
			"0.01": 5.69939950469,
			"0.011": 3.08539550589,
			"0.012": 0.573955655934,
			"0.013": 0.0,
			"0.014": 0.0,
			"0.015": 0.0,
			"0.016": 0.0,
			"0.017": 0.0,
			"0.018": 0.0,
			"0.019": 0.0,
			"0.02": 0.0,
			"0.021": 0.0,
			"0.022": 0.0,
			"0.023": 0.0,
			"0.024": 0.0,
			"0.025": 0.0
		}
	}
}
