{
	 "smiles": "COC1=CC(=C(O)C=C1)C(C)(C)C", 
	 "Tm": 335.15, 
	 "num_atms": 29, 
	 "gaussian": { 
		 "optdone": 1, 
		 "sigma_profile": "yes", 
		 "theory": "DFT", 
		 "functional": "B3LYP", 
		 "basiset": "6-31G**", 
		 "properties": { 
			 "R2extent": 3161.707, 
			 "electric_dipole_moment_norm": 2.43431103395, 
			 "electric_quadrupole_moment_norm": 7.85698486189, 
			 "total_energy": -579.254882364, 
			 "HOMO_LUMO_gap": 0.19823, 
			 "cosmo_polarized_energy": -9.08, 
			 "cosmo_cavitation_energy": 29.99, 
			 "cosmo_dispersion_energy": -21.81, 
			 "cosmo_repulsion_energy": 1.71, 
			 "cosmo_total_nonelectrostatic_energy": 9.89, 
			 "SMD_solvation_energy": 6.38 
		},
		"coords": [
			{
				"x": -1.1833862859,
				"y": 3.7488943106,
				"z": -2.3112231435,
				"element": "C" 
			},
			{
				"x": -1.1977927252,
				"y": 2.9448964242,
				"z": -1.1464347305,
				"element": "O" 
			},
			{
				"x": -0.1564908563,
				"y": 2.0721968604,
				"z": -0.9602979614,
				"element": "C" 
			},
			{
				"x": -0.2197999406,
				"y": 1.3004898784,
				"z": 0.2092728621,
				"element": "C" 
			},
			{
				"x": 0.7546833791,
				"y": 0.3634057826,
				"z": 0.5562826683,
				"element": "C" 
			},
			{
				"x": 1.8399400402,
				"y": 0.2182735007,
				"z": -0.3441068134,
				"element": "C" 
			},
			{
				"x": 2.8319056248,
				"y": -0.6934440765,
				"z": -0.0516234647,
				"element": "O" 
			},
			{
				"x": 1.9082790703,
				"y": 0.9813298883,
				"z": -1.50651616,
				"element": "C" 
			},
			{
				"x": 0.9185802709,
				"y": 1.9138709741,
				"z": -1.8312027126,
				"element": "C" 
			},
			{
				"x": 0.6515346607,
				"y": -0.4674091609,
				"z": 1.8517055364,
				"element": "C" 
			},
			{
				"x": 1.8728467761,
				"y": -0.1810767992,
				"z": 2.7601064453,
				"element": "C" 
			},
			{
				"x": 0.5921405767,
				"y": -1.9761945787,
				"z": 1.506942778,
				"element": "C" 
			},
			{
				"x": -0.6176755844,
				"y": -0.1238984463,
				"z": 2.6567029202,
				"element": "C" 
			},
			{
				"x": -1.2051983708,
				"y": 3.1416536486,
				"z": -3.2265255409,
				"element": "H" 
			},
			{
				"x": -0.3032576625,
				"y": 4.4056824123,
				"z": -2.3428291399,
				"element": "H" 
			},
			{
				"x": -2.0849350225,
				"y": 4.362643337,
				"z": -2.2689735757,
				"element": "H" 
			},
			{
				"x": -1.0776624963,
				"y": 1.4659576498,
				"z": 0.8481899308,
				"element": "H" 
			},
			{
				"x": 3.4890996022,
				"y": -0.6684143082,
				"z": -0.7584949151,
				"element": "H" 
			},
			{
				"x": 2.753777176,
				"y": 0.8485119993,
				"z": -2.1796593129,
				"element": "H" 
			},
			{
				"x": 1.0061493014,
				"y": 2.4894494898,
				"z": -2.7446640956,
				"element": "H" 
			},
			{
				"x": 1.9073836501,
				"y": 0.878048745,
				"z": 3.0378265664,
				"element": "H" 
			},
			{
				"x": 1.7977484244,
				"y": -0.7681123243,
				"z": 3.6828412845,
				"element": "H" 
			},
			{
				"x": 2.8110497488,
				"y": -0.437592014,
				"z": 2.2664651542,
				"element": "H" 
			},
			{
				"x": 1.4815007443,
				"y": -2.301082241,
				"z": 0.9654554212,
				"element": "H" 
			},
			{
				"x": -0.2866137096,
				"y": -2.1971047012,
				"z": 0.8912631023,
				"element": "H" 
			},
			{
				"x": 0.5146505259,
				"y": -2.5667421663,
				"z": 2.4272310885,
				"element": "H" 
			},
			{
				"x": -0.6359887062,
				"y": 0.9255585712,
				"z": 2.9686390498,
				"element": "H" 
			},
			{
				"x": -0.6452698747,
				"y": -0.7369401631,
				"z": 3.5633232393,
				"element": "H" 
			},
			{
				"x": -1.5323983367,
				"y": -0.3311524928,
				"z": 2.091603519,
				"element": "H" 
			}
		],
		 "valence_orbital": [ 
			{
				"type": "occ",
				"energy": -0.31119,
				"method": "rhf"
			},
			{
				"type": "occ",
				"energy": -0.30454,
				"method": "rhf"
			},
			{
				"type": "occ",
				"energy": -0.28851,
				"method": "rhf"
			},
			{
				"type": "occ",
				"energy": -0.24005,
				"method": "rhf"
			},
			{
				"type": "occ",
				"energy": -0.19472,
				"method": "rhf"
			},
			{
				"type": "unocc",
				"energy": 0.00351,
				"method": "rhf"
			},
			{
				"type": "unocc",
				"energy": 0.02885,
				"method": "rhf"
			},
			{
				"type": "unocc",
				"energy": 0.07018,
				"method": "rhf"
			},
			{
				"type": "unocc",
				"energy": 0.09668,
				"method": "rhf"
			},
			{
				"type": "unocc",
				"energy": 0.10396,
				"method": "rhf"
			}
		],
		"cosmo_sigma_profile": { 
			"-0.025": 0.0,
			"-0.024": 0.0,
			"-0.023": 0.0,
			"-0.022": 0.0,
			"-0.021": 0.0,
			"-0.02": 0.0,
			"-0.019": 0.0,
			"-0.018": 7.77317713068e-05,
			"-0.017": 0.926304195477,
			"-0.016": 0.958968480573,
			"-0.015": 1.11499136225,
			"-0.014": 1.47010648948,
			"-0.013": 0.59867518102,
			"-0.012": 0.738212340972,
			"-0.011": 0.823583926347,
			"-0.01": 0.544212738265,
			"-0.009": 1.76150425744,
			"-0.008": 1.07971291205,
			"-0.007": 1.08149720407,
			"-0.006": 4.52603516778,
			"-0.005": 11.0114297633,
			"-0.004": 14.4779659288,
			"-0.003": 18.7222954358,
			"-0.002": 26.6735675043,
			"-0.001": 19.2888016355,
			"0.0": 19.709804122,
			"0.001": 23.4327744242,
			"0.002": 22.1075666483,
			"0.003": 11.5581288765,
			"0.004": 12.6590312796,
			"0.005": 14.6502259908,
			"0.006": 13.7806910867,
			"0.007": 3.79818496802,
			"0.008": 2.38030590624,
			"0.009": 1.17184072924,
			"0.01": 1.81999217156,
			"0.011": 1.40682512545,
			"0.012": 0.0480064272597,
			"0.013": 0.0,
			"0.014": 0.0,
			"0.015": 0.0,
			"0.016": 0.0,
			"0.017": 0.0,
			"0.018": 0.0,
			"0.019": 0.0,
			"0.02": 0.0,
			"0.021": 0.0,
			"0.022": 0.0,
			"0.023": 0.0,
			"0.024": 0.0,
			"0.025": 0.0
		}
	}
}
