{
	 "smiles": "C(CC1=NN=NN1)CC1=CC=CC=C1", 
	 "Tm": 364.15, 
	 "num_atms": 26, 
	 "gaussian": { 
		 "optdone": 1, 
		 "sigma_profile": "yes", 
		 "theory": "DFT", 
		 "functional": "B3LYP", 
		 "basiset": "6-31G**", 
		 "properties": { 
			 "R2extent": 4678.0303, 
			 "electric_dipole_moment_norm": 5.41309601892, 
			 "electric_quadrupole_moment_norm": 20.9457659523, 
			 "total_energy": -607.260145803, 
			 "HOMO_LUMO_gap": 0.22334, 
			 "cosmo_polarized_energy": -18.04, 
			 "cosmo_cavitation_energy": 29.47, 
			 "cosmo_dispersion_energy": -21.16, 
			 "cosmo_repulsion_energy": 1.67, 
			 "cosmo_total_nonelectrostatic_energy": 9.99, 
			 "SMD_solvation_energy": 3.07 
		},
		"coords": [
			{
				"x": -1.4215753227,
				"y": 0.7502674918,
				"z": 0.9201697624,
				"element": "C" 
			},
			{
				"x": -0.3992443281,
				"y": 0.5539930816,
				"z": -0.2238605714,
				"element": "C" 
			},
			{
				"x": -0.8430853339,
				"y": 1.1325944003,
				"z": -1.529451803,
				"element": "C" 
			},
			{
				"x": -1.6289313754,
				"y": 0.5684048958,
				"z": -2.4316125677,
				"element": "N" 
			},
			{
				"x": -1.7842672193,
				"y": 1.4766303663,
				"z": -3.4355072155,
				"element": "N" 
			},
			{
				"x": -1.1317659053,
				"y": 2.5627393222,
				"z": -3.1884156768,
				"element": "N" 
			},
			{
				"x": -0.5339336945,
				"y": 2.3664814551,
				"z": -1.9890790454,
				"element": "N" 
			},
			{
				"x": -2.7436947822,
				"y": -0.0275074179,
				"z": 0.7395774121,
				"element": "C" 
			},
			{
				"x": -2.5742783617,
				"y": -1.5335451619,
				"z": 0.7747037183,
				"element": "C" 
			},
			{
				"x": -2.508833348,
				"y": -2.2136708787,
				"z": 1.9996848489,
				"element": "C" 
			},
			{
				"x": -2.3322040678,
				"y": -3.5967752721,
				"z": 2.0439644198,
				"element": "C" 
			},
			{
				"x": -2.2178762059,
				"y": -4.3254694149,
				"z": 0.8578506337,
				"element": "C" 
			},
			{
				"x": -2.2825284029,
				"y": -3.6607976768,
				"z": -0.3676278921,
				"element": "C" 
			},
			{
				"x": -2.4602098722,
				"y": -2.2758068907,
				"z": -0.4102041776,
				"element": "C" 
			},
			{
				"x": -0.9405982451,
				"y": 0.4335777177,
				"z": 1.8530817235,
				"element": "H" 
			},
			{
				"x": -1.6441527099,
				"y": 1.8195797446,
				"z": 1.0273164227,
				"element": "H" 
			},
			{
				"x": -0.2200999315,
				"y": -0.5144142956,
				"z": -0.3736535911,
				"element": "H" 
			},
			{
				"x": 0.557728213,
				"y": 1.0055420722,
				"z": 0.0613248286,
				"element": "H" 
			},
			{
				"x": 0.0486398186,
				"y": 3.0872761242,
				"z": -1.5880163028,
				"element": "H" 
			},
			{
				"x": -3.4242908741,
				"y": 0.2814191034,
				"z": 1.5418620916,
				"element": "H" 
			},
			{
				"x": -3.2123107184,
				"y": 0.2689096636,
				"z": -0.2043660427,
				"element": "H" 
			},
			{
				"x": -2.6073779157,
				"y": -1.6541947743,
				"z": 2.9278133352,
				"element": "H" 
			},
			{
				"x": -2.2906870559,
				"y": -4.1062205067,
				"z": 3.0028845806,
				"element": "H" 
			},
			{
				"x": -2.0842167512,
				"y": -5.403094784,
				"z": 0.8897581199,
				"element": "H" 
			},
			{
				"x": -2.199116141,
				"y": -4.2201509446,
				"z": -1.2954078451,
				"element": "H" 
			},
			{
				"x": -2.5072894688,
				"y": -1.7600674208,
				"z": -1.3659891661,
				"element": "H" 
			}
		],
		 "valence_orbital": [ 
			{
				"type": "occ",
				"energy": -0.29628,
				"method": "rhf"
			},
			{
				"type": "occ",
				"energy": -0.29314,
				"method": "rhf"
			},
			{
				"type": "occ",
				"energy": -0.28476,
				"method": "rhf"
			},
			{
				"type": "occ",
				"energy": -0.24542,
				"method": "rhf"
			},
			{
				"type": "occ",
				"energy": -0.23921,
				"method": "rhf"
			},
			{
				"type": "unocc",
				"energy": -0.01587,
				"method": "rhf"
			},
			{
				"type": "unocc",
				"energy": 0.00053,
				"method": "rhf"
			},
			{
				"type": "unocc",
				"energy": 0.00269,
				"method": "rhf"
			},
			{
				"type": "unocc",
				"energy": 0.01859,
				"method": "rhf"
			},
			{
				"type": "unocc",
				"energy": 0.05504,
				"method": "rhf"
			}
		],
		"cosmo_sigma_profile": { 
			"-0.025": 0.0,
			"-0.024": 0.0,
			"-0.023": 0.0,
			"-0.022": 0.0,
			"-0.021": 0.0,
			"-0.02": 0.0,
			"-0.019": 0.867076230269,
			"-0.018": 2.00221814808,
			"-0.017": 1.17872985699,
			"-0.016": 1.02038298231,
			"-0.015": 1.18955453873,
			"-0.014": 1.94212638987,
			"-0.013": 0.763793332108,
			"-0.012": 0.605624426887,
			"-0.011": 1.0247949298,
			"-0.01": 1.68712303756,
			"-0.009": 1.66527298005,
			"-0.008": 1.10372021978,
			"-0.007": 2.00967278802,
			"-0.006": 4.42267210919,
			"-0.005": 12.0218799632,
			"-0.004": 21.7238954022,
			"-0.003": 27.4727837363,
			"-0.002": 22.3746662989,
			"-0.001": 18.1674392504,
			"0.0": 14.0685749936,
			"0.001": 11.3649412562,
			"0.002": 9.55780818834,
			"0.003": 11.366718748,
			"0.004": 9.73242267859,
			"0.005": 10.9009970924,
			"0.006": 11.2005183693,
			"0.007": 6.89317127124,
			"0.008": 5.06331972046,
			"0.009": 5.24729175906,
			"0.01": 4.44265540614,
			"0.011": 4.95624288038,
			"0.012": 3.3568263368,
			"0.013": 1.63646997486,
			"0.014": 0.9048924265,
			"0.015": 0.163565734431,
			"0.016": 0.0,
			"0.017": 0.0,
			"0.018": 0.0,
			"0.019": 0.0,
			"0.02": 0.0,
			"0.021": 0.0,
			"0.022": 0.0,
			"0.023": 0.0,
			"0.024": 0.0,
			"0.025": 0.0
		}
	}
}
