{
	 "smiles": "CCCCCCCCCCCCCCCCCCCCCCCCCCCCCCCCCCCCCCCCCCCC", 
	 "Tm": 360.95, 
	 "num_atms": 134, 
	 "gaussian": { 
		 "optdone": 1, 
		 "sigma_profile": "yes", 
		 "theory": "DFT", 
		 "functional": "B3LYP", 
		 "basiset": "6-31G**", 
		 "properties": { 
			 "R2extent": 62529.6633, 
			 "electric_dipole_moment_norm": 0.0492024389639, 
			 "electric_quadrupole_moment_norm": 1.07435575579, 
			 "total_energy": -1731.06097638, 
			 "HOMO_LUMO_gap": 0.34628, 
			 "cosmo_polarized_energy": -2.53, 
			 "cosmo_cavitation_energy": 123.92, 
			 "cosmo_dispersion_energy": -73.85, 
			 "cosmo_repulsion_energy": 5.92, 
			 "cosmo_total_nonelectrostatic_energy": 55.99, 
			 "SMD_solvation_energy": 14.37 
		},
		"coords": [
			{
				"x": -3.7180467239,
				"y": -6.3164655238,
				"z": -5.5133666282,
				"element": "C" 
			},
			{
				"x": -3.7155758313,
				"y": -6.6166405058,
				"z": -4.0109930568,
				"element": "C" 
			},
			{
				"x": -2.3104206462,
				"y": -6.8517590367,
				"z": -3.4420224635,
				"element": "C" 
			},
			{
				"x": -2.2981469187,
				"y": -7.1583406107,
				"z": -1.9390835872,
				"element": "C" 
			},
			{
				"x": -0.8871018258,
				"y": -7.4077330818,
				"z": -1.383668798,
				"element": "C" 
			},
			{
				"x": -0.8163655599,
				"y": -7.7337365133,
				"z": 0.1251068635,
				"element": "C" 
			},
			{
				"x": -0.6118612479,
				"y": -6.5350546835,
				"z": 1.0694978023,
				"element": "C" 
			},
			{
				"x": -1.7465532155,
				"y": -5.501935252,
				"z": 1.1116511094,
				"element": "C" 
			},
			{
				"x": -1.5111556452,
				"y": -4.4027390807,
				"z": 2.15773861,
				"element": "C" 
			},
			{
				"x": -2.6701473787,
				"y": -3.4010091834,
				"z": 2.3087081543,
				"element": "C" 
			},
			{
				"x": -3.0117168285,
				"y": -2.5682696554,
				"z": 1.0593907711,
				"element": "C" 
			},
			{
				"x": -1.8795729841,
				"y": -1.64220483,
				"z": 0.5912237709,
				"element": "C" 
			},
			{
				"x": -2.2403910821,
				"y": -0.6716942895,
				"z": -0.5486732273,
				"element": "C" 
			},
			{
				"x": -2.5823013049,
				"y": -1.3346159155,
				"z": -1.903878258,
				"element": "C" 
			},
			{
				"x": -4.0761665094,
				"y": -1.6024466347,
				"z": -2.1700593215,
				"element": "C" 
			},
			{
				"x": -4.9007372001,
				"y": -0.3391116417,
				"z": -2.459807324,
				"element": "C" 
			},
			{
				"x": -6.3832750256,
				"y": -0.6443272793,
				"z": -2.7147850443,
				"element": "C" 
			},
			{
				"x": -7.2594981126,
				"y": 0.5455862825,
				"z": -3.1460227148,
				"element": "C" 
			},
			{
				"x": -7.419515694,
				"y": 1.6826845706,
				"z": -2.1116446531,
				"element": "C" 
			},
			{
				"x": -6.4170683509,
				"y": 2.8401264737,
				"z": -2.2472143699,
				"element": "C" 
			},
			{
				"x": -6.6575943793,
				"y": 3.9563874432,
				"z": -1.2184892595,
				"element": "C" 
			},
			{
				"x": -5.7604486504,
				"y": 5.205774017,
				"z": -1.3579074534,
				"element": "C" 
			},
			{
				"x": -4.4264625791,
				"y": 5.1811122058,
				"z": -0.5857209339,
				"element": "C" 
			},
			{
				"x": -3.365765839,
				"y": 4.1557463697,
				"z": -1.0218169567,
				"element": "C" 
			},
			{
				"x": -2.8454860327,
				"y": 4.3369108801,
				"z": -2.454185704,
				"element": "C" 
			},
			{
				"x": -1.711681467,
				"y": 3.3665752934,
				"z": -2.813746122,
				"element": "C" 
			},
			{
				"x": -1.1915446638,
				"y": 3.5525192467,
				"z": -4.2455718878,
				"element": "C" 
			},
			{
				"x": -0.1379899394,
				"y": 2.5376017739,
				"z": -4.7257268106,
				"element": "C" 
			},
			{
				"x": 1.21932545,
				"y": 2.5613999112,
				"z": -3.9872131542,
				"element": "C" 
			},
			{
				"x": 1.3277657148,
				"y": 1.6047634358,
				"z": -2.7874439994,
				"element": "C" 
			},
			{
				"x": 2.711545871,
				"y": 1.5816244674,
				"z": -2.1164324473,
				"element": "C" 
			},
			{
				"x": 3.0963654398,
				"y": 2.8773238148,
				"z": -1.3878458509,
				"element": "C" 
			},
			{
				"x": 4.4528555977,
				"y": 2.793337002,
				"z": -0.674981542,
				"element": "C" 
			},
			{
				"x": 4.8334362764,
				"y": 4.0878647717,
				"z": 0.0568176018,
				"element": "C" 
			},
			{
				"x": 6.2307980994,
				"y": 4.075660476,
				"z": 0.7021198269,
				"element": "C" 
			},
			{
				"x": 6.4512826905,
				"y": 3.037157548,
				"z": 1.8168088592,
				"element": "C" 
			},
			{
				"x": 5.5610783969,
				"y": 3.2371494991,
				"z": 3.0529693107,
				"element": "C" 
			},
			{
				"x": 5.8956292365,
				"y": 2.3110161488,
				"z": 4.2347666718,
				"element": "C" 
			},
			{
				"x": 5.6270489933,
				"y": 0.8210975712,
				"z": 3.9708785179,
				"element": "C" 
			},
			{
				"x": 5.810150713,
				"y": -0.0863488286,
				"z": 5.1989827509,
				"element": "C" 
			},
			{
				"x": 7.2519877171,
				"y": -0.1852423012,
				"z": 5.7184028124,
				"element": "C" 
			},
			{
				"x": 7.3972128336,
				"y": -1.1605686288,
				"z": 6.8952999039,
				"element": "C" 
			},
			{
				"x": 8.8115220553,
				"y": -1.242910752,
				"z": 7.4932455518,
				"element": "C" 
			},
			{
				"x": 9.8684789766,
				"y": -1.8262783513,
				"z": 6.5476341218,
				"element": "C" 
			},
			{
				"x": -4.7336977459,
				"y": -6.152640519,
				"z": -5.8885258539,
				"element": "H" 
			},
			{
				"x": -3.1315160449,
				"y": -5.4183669335,
				"z": -5.7389817963,
				"element": "H" 
			},
			{
				"x": -3.2827558794,
				"y": -7.1451104781,
				"z": -6.0837444885,
				"element": "H" 
			},
			{
				"x": -4.3382837283,
				"y": -7.4998476485,
				"z": -3.8130786908,
				"element": "H" 
			},
			{
				"x": -4.1896495373,
				"y": -5.7855170773,
				"z": -3.470944872,
				"element": "H" 
			},
			{
				"x": -1.8332914723,
				"y": -7.6798178902,
				"z": -3.9862510284,
				"element": "H" 
			},
			{
				"x": -1.6889330715,
				"y": -5.9657548767,
				"z": -3.637507006,
				"element": "H" 
			},
			{
				"x": -2.7798760721,
				"y": -6.3336073098,
				"z": -1.3995880466,
				"element": "H" 
			},
			{
				"x": -2.9175001059,
				"y": -8.0460244352,
				"z": -1.7456668797,
				"element": "H" 
			},
			{
				"x": -0.4488484785,
				"y": -8.2420824054,
				"z": -1.9474662532,
				"element": "H" 
			},
			{
				"x": -0.2483664396,
				"y": -6.538826735,
				"z": -1.5990305457,
				"element": "H" 
			},
			{
				"x": 0.0179147605,
				"y": -8.4260823229,
				"z": 0.294256432,
				"element": "H" 
			},
			{
				"x": -1.7216227538,
				"y": -8.282616344,
				"z": 0.4215794215,
				"element": "H" 
			},
			{
				"x": -0.4563008163,
				"y": -6.9228266408,
				"z": 2.0860803294,
				"element": "H" 
			},
			{
				"x": 0.3244846076,
				"y": -6.0262825262,
				"z": 0.7976476361,
				"element": "H" 
			},
			{
				"x": -1.8638868385,
				"y": -5.0452992862,
				"z": 0.1218517414,
				"element": "H" 
			},
			{
				"x": -2.696784645,
				"y": -6.0117123358,
				"z": 1.32876464,
				"element": "H" 
			},
			{
				"x": -0.58230609,
				"y": -3.8679954934,
				"z": 1.9177234978,
				"element": "H" 
			},
			{
				"x": -1.3366808281,
				"y": -4.8759317087,
				"z": 3.1338004381,
				"element": "H" 
			},
			{
				"x": -3.5694184008,
				"y": -3.9505700256,
				"z": 2.6193557383,
				"element": "H" 
			},
			{
				"x": -2.4349988326,
				"y": -2.7150927229,
				"z": 3.1342923997,
				"element": "H" 
			},
			{
				"x": -3.3087722565,
				"y": -3.237864331,
				"z": 0.2432217024,
				"element": "H" 
			},
			{
				"x": -3.8976356798,
				"y": -1.9584408042,
				"z": 1.2844813444,
				"element": "H" 
			},
			{
				"x": -1.0164091927,
				"y": -2.2437138316,
				"z": 0.2748826865,
				"element": "H" 
			},
			{
				"x": -1.5345925095,
				"y": -1.0519367671,
				"z": 1.4521953459,
				"element": "H" 
			},
			{
				"x": -1.3849668272,
				"y": 0.0001354944,
				"z": -0.6918777962,
				"element": "H" 
			},
			{
				"x": -3.0696945601,
				"y": -0.0273683898,
				"z": -0.2263738625,
				"element": "H" 
			},
			{
				"x": -2.2046943891,
				"y": -0.7018498477,
				"z": -2.7184678453,
				"element": "H" 
			},
			{
				"x": -2.0266666256,
				"y": -2.2788983926,
				"z": -1.9844881374,
				"element": "H" 
			},
			{
				"x": -4.5211162752,
				"y": -2.1362160054,
				"z": -1.3209408001,
				"element": "H" 
			},
			{
				"x": -4.1645023537,
				"y": -2.2792899522,
				"z": -3.0312182971,
				"element": "H" 
			},
			{
				"x": -4.8077980347,
				"y": 0.3616708952,
				"z": -1.6209472026,
				"element": "H" 
			},
			{
				"x": -4.4762587325,
				"y": 0.1735304184,
				"z": -3.3354042685,
				"element": "H" 
			},
			{
				"x": -6.8158358047,
				"y": -1.0924468441,
				"z": -1.8084625291,
				"element": "H" 
			},
			{
				"x": -6.4508776469,
				"y": -1.4186754579,
				"z": -3.4918943452,
				"element": "H" 
			},
			{
				"x": -6.8726387503,
				"y": 0.9619511174,
				"z": -4.0870639403,
				"element": "H" 
			},
			{
				"x": -8.2532613287,
				"y": 0.1470220066,
				"z": -3.3857533895,
				"element": "H" 
			},
			{
				"x": -7.3634661381,
				"y": 1.2637873021,
				"z": -1.0963964694,
				"element": "H" 
			},
			{
				"x": -8.4298042273,
				"y": 2.1042645124,
				"z": -2.2003103251,
				"element": "H" 
			},
			{
				"x": -6.5046628751,
				"y": 3.264447003,
				"z": -3.2578812119,
				"element": "H" 
			},
			{
				"x": -5.3928654422,
				"y": 2.4617464528,
				"z": -2.1681702348,
				"element": "H" 
			},
			{
				"x": -6.5580045108,
				"y": 3.547833269,
				"z": -0.2022711559,
				"element": "H" 
			},
			{
				"x": -7.7068839051,
				"y": 4.269310584,
				"z": -1.3082654956,
				"element": "H" 
			},
			{
				"x": -6.3218201386,
				"y": 6.0735937338,
				"z": -0.9889778741,
				"element": "H" 
			},
			{
				"x": -5.5787716245,
				"y": 5.4073153496,
				"z": -2.4221063302,
				"element": "H" 
			},
			{
				"x": -4.6497302573,
				"y": 5.0198781544,
				"z": 0.4780573114,
				"element": "H" 
			},
			{
				"x": -3.9798162494,
				"y": 6.1834846706,
				"z": -0.6483493416,
				"element": "H" 
			},
			{
				"x": -2.5162972914,
				"y": 4.2319922233,
				"z": -0.3287979605,
				"element": "H" 
			},
			{
				"x": -3.7536048692,
				"y": 3.1359684922,
				"z": -0.8993882728,
				"element": "H" 
			},
			{
				"x": -2.4919852253,
				"y": 5.3707253104,
				"z": -2.581225134,
				"element": "H" 
			},
			{
				"x": -3.6668099037,
				"y": 4.2082071354,
				"z": -3.1713506466,
				"element": "H" 
			},
			{
				"x": -0.8911555912,
				"y": 3.4994296955,
				"z": -2.0969896439,
				"element": "H" 
			},
			{
				"x": -2.0649037682,
				"y": 2.3330086405,
				"z": -2.685684544,
				"element": "H" 
			},
			{
				"x": -2.0467432458,
				"y": 3.5086016159,
				"z": -4.9345574799,
				"element": "H" 
			},
			{
				"x": -0.7784431505,
				"y": 4.5666677358,
				"z": -4.3469050816,
				"element": "H" 
			},
			{
				"x": 0.0413105881,
				"y": 2.7351014434,
				"z": -5.7901139364,
				"element": "H" 
			},
			{
				"x": -0.5599993417,
				"y": 1.5232440291,
				"z": -4.6796391659,
				"element": "H" 
			},
			{
				"x": 2.0131161054,
				"y": 2.2921293616,
				"z": -4.6973580759,
				"element": "H" 
			},
			{
				"x": 1.4384216765,
				"y": 3.5908639819,
				"z": -3.6739439675,
				"element": "H" 
			},
			{
				"x": 0.5683795141,
				"y": 1.8499758206,
				"z": -2.0341997485,
				"element": "H" 
			},
			{
				"x": 1.0893011044,
				"y": 0.5903991407,
				"z": -3.1355629377,
				"element": "H" 
			},
			{
				"x": 2.7390920459,
				"y": 0.7529827569,
				"z": -1.395598472,
				"element": "H" 
			},
			{
				"x": 3.4765865406,
				"y": 1.3495629246,
				"z": -2.8717412338,
				"element": "H" 
			},
			{
				"x": 3.1180892124,
				"y": 3.7150853011,
				"z": -2.0972837633,
				"element": "H" 
			},
			{
				"x": 2.3155078046,
				"y": 3.1225261986,
				"z": -0.6530087369,
				"element": "H" 
			},
			{
				"x": 4.432000118,
				"y": 1.9540702479,
				"z": 0.0331572506,
				"element": "H" 
			},
			{
				"x": 5.2342754872,
				"y": 2.5498878669,
				"z": -1.4097247909,
				"element": "H" 
			},
			{
				"x": 4.0723010034,
				"y": 4.3114996605,
				"z": 0.8163573695,
				"element": "H" 
			},
			{
				"x": 4.7926008708,
				"y": 4.9212924457,
				"z": -0.6578747509,
				"element": "H" 
			},
			{
				"x": 6.437298581,
				"y": 5.0754377644,
				"z": 1.1085637546,
				"element": "H" 
			},
			{
				"x": 6.9789105105,
				"y": 3.9093103323,
				"z": -0.0852401148,
				"element": "H" 
			},
			{
				"x": 7.5032303299,
				"y": 3.0879011532,
				"z": 2.1309793418,
				"element": "H" 
			},
			{
				"x": 6.3096940219,
				"y": 2.0273645026,
				"z": 1.4127348161,
				"element": "H" 
			},
			{
				"x": 4.505767194,
				"y": 3.0989479141,
				"z": 2.7809547233,
				"element": "H" 
			},
			{
				"x": 5.653319326,
				"y": 4.2804797307,
				"z": 3.3858463394,
				"element": "H" 
			},
			{
				"x": 6.9472502329,
				"y": 2.4579154368,
				"z": 4.5150834131,
				"element": "H" 
			},
			{
				"x": 5.302861256,
				"y": 2.6234972621,
				"z": 5.1059034806,
				"element": "H" 
			},
			{
				"x": 4.5969124105,
				"y": 0.7118375248,
				"z": 3.6035994419,
				"element": "H" 
			},
			{
				"x": 6.2767091237,
				"y": 0.4609161336,
				"z": 3.1620138774,
				"element": "H" 
			},
			{
				"x": 5.1563465132,
				"y": 0.265886355,
				"z": 6.0101096744,
				"element": "H" 
			},
			{
				"x": 5.4587226424,
				"y": -1.0960883265,
				"z": 4.9458991272,
				"element": "H" 
			},
			{
				"x": 7.6059793068,
				"y": 0.8057100412,
				"z": 6.0331126511,
				"element": "H" 
			},
			{
				"x": 7.9059494843,
				"y": -0.4945571028,
				"z": 4.891888497,
				"element": "H" 
			},
			{
				"x": 6.6964823029,
				"y": -0.8623749906,
				"z": 7.6873026003,
				"element": "H" 
			},
			{
				"x": 7.0814838932,
				"y": -2.1643178786,
				"z": 6.5752550046,
				"element": "H" 
			},
			{
				"x": 8.7723142775,
				"y": -1.8557674733,
				"z": 8.4030152039,
				"element": "H" 
			},
			{
				"x": 9.1247582481,
				"y": -0.2407801293,
				"z": 7.8174339871,
				"element": "H" 
			},
			{
				"x": 9.5835644142,
				"y": -2.8296315283,
				"z": 6.2095160209,
				"element": "H" 
			},
			{
				"x": 10.0082218533,
				"y": -1.2051183212,
				"z": 5.6569959207,
				"element": "H" 
			},
			{
				"x": 10.8405567158,
				"y": -1.9080416765,
				"z": 7.0452401682,
				"element": "H" 
			}
		],
		 "valence_orbital": [ 
			{
				"type": "occ",
				"energy": -0.29438,
				"method": "rhf"
			},
			{
				"type": "occ",
				"energy": -0.29381,
				"method": "rhf"
			},
			{
				"type": "occ",
				"energy": -0.29249,
				"method": "rhf"
			},
			{
				"type": "occ",
				"energy": -0.29118,
				"method": "rhf"
			},
			{
				"type": "occ",
				"energy": -0.28894,
				"method": "rhf"
			},
			{
				"type": "unocc",
				"energy": 0.05734,
				"method": "rhf"
			},
			{
				"type": "unocc",
				"energy": 0.06957,
				"method": "rhf"
			},
			{
				"type": "unocc",
				"energy": 0.0799,
				"method": "rhf"
			},
			{
				"type": "unocc",
				"energy": 0.08294,
				"method": "rhf"
			},
			{
				"type": "unocc",
				"energy": 0.08991,
				"method": "rhf"
			}
		],
		"cosmo_sigma_profile": { 
			"-0.025": 0.0,
			"-0.024": 0.0,
			"-0.023": 0.0,
			"-0.022": 0.0,
			"-0.021": 0.0,
			"-0.02": 0.0,
			"-0.019": 0.0,
			"-0.018": 0.0,
			"-0.017": 0.0,
			"-0.016": 0.0,
			"-0.015": 0.0,
			"-0.014": 0.0,
			"-0.013": 0.0,
			"-0.012": 0.0,
			"-0.011": 0.0,
			"-0.01": 0.0,
			"-0.009": 0.0,
			"-0.008": 0.0,
			"-0.007": 0.0,
			"-0.006": 0.0,
			"-0.005": 0.0,
			"-0.004": 0.0,
			"-0.003": 2.81448096257,
			"-0.002": 82.0474142729,
			"-0.001": 251.967222206,
			"0.0": 281.073851169,
			"0.001": 225.432502267,
			"0.002": 96.2324230664,
			"0.003": 2.54981974833,
			"0.004": 0.0,
			"0.005": 0.0,
			"0.006": 0.0,
			"0.007": 0.0,
			"0.008": 0.0,
			"0.009": 0.0,
			"0.01": 0.0,
			"0.011": 0.0,
			"0.012": 0.0,
			"0.013": 0.0,
			"0.014": 0.0,
			"0.015": 0.0,
			"0.016": 0.0,
			"0.017": 0.0,
			"0.018": 0.0,
			"0.019": 0.0,
			"0.02": 0.0,
			"0.021": 0.0,
			"0.022": 0.0,
			"0.023": 0.0,
			"0.024": 0.0,
			"0.025": 0.0
		}
	}
}
