{
	 "smiles": "NC1=CC=C(C=C1)C(=O)N1CCCCCC1", 
	 "Tm": 407.15, 
	 "num_atms": 34, 
	 "gaussian": { 
		 "optdone": 1, 
		 "sigma_profile": "yes", 
		 "theory": "DFT", 
		 "functional": "B3LYP", 
		 "basiset": "6-31G**", 
		 "properties": { 
			 "R2extent": 4777.244, 
			 "electric_dipole_moment_norm": 4.73254133632, 
			 "electric_quadrupole_moment_norm": 25.6884316843, 
			 "total_energy": -690.982616923, 
			 "HOMO_LUMO_gap": 0.19398, 
			 "cosmo_polarized_energy": -15.75, 
			 "cosmo_cavitation_energy": 34.28, 
			 "cosmo_dispersion_energy": -25.17, 
			 "cosmo_repulsion_energy": 1.96, 
			 "cosmo_total_nonelectrostatic_energy": 11.07, 
			 "SMD_solvation_energy": 4.94 
		},
		"coords": [
			{
				"x": -0.4996940335,
				"y": -2.1055672832,
				"z": -5.1847189056,
				"element": "N" 
			},
			{
				"x": -0.165007038,
				"y": -1.8212285582,
				"z": -3.8646759274,
				"element": "C" 
			},
			{
				"x": 1.1126663391,
				"y": -2.1330438698,
				"z": -3.3622028172,
				"element": "C" 
			},
			{
				"x": 1.4216104461,
				"y": -1.9039475109,
				"z": -2.0292004763,
				"element": "C" 
			},
			{
				"x": 0.4907609873,
				"y": -1.3264271221,
				"z": -1.1503730305,
				"element": "C" 
			},
			{
				"x": -0.7858854785,
				"y": -1.0328243795,
				"z": -1.6514482383,
				"element": "C" 
			},
			{
				"x": -1.1135545654,
				"y": -1.2764669896,
				"z": -2.9815970862,
				"element": "C" 
			},
			{
				"x": 0.9021707403,
				"y": -1.1993227899,
				"z": 0.288856702,
				"element": "C" 
			},
			{
				"x": 1.6033281808,
				"y": -2.0776891035,
				"z": 0.795611812,
				"element": "O" 
			},
			{
				"x": 0.4906571759,
				"y": -0.1162993427,
				"z": 1.0456427753,
				"element": "N" 
			},
			{
				"x": 0.9384103767,
				"y": -0.1701762883,
				"z": 2.4504129394,
				"element": "C" 
			},
			{
				"x": 0.4138417597,
				"y": 0.9448568526,
				"z": 3.3587968142,
				"element": "C" 
			},
			{
				"x": -1.1110383596,
				"y": 1.1563306888,
				"z": 3.3630622872,
				"element": "C" 
			},
			{
				"x": -1.6051181677,
				"y": 2.081592247,
				"z": 2.2412353057,
				"element": "C" 
			},
			{
				"x": -1.3927676273,
				"y": 1.5510081962,
				"z": 0.817638436,
				"element": "C" 
			},
			{
				"x": 0.055199293,
				"y": 1.1588887714,
				"z": 0.4702576758,
				"element": "C" 
			},
			{
				"x": -1.2714524546,
				"y": -1.5787124755,
				"z": -5.5680425226,
				"element": "H" 
			},
			{
				"x": 0.2750544833,
				"y": -2.1832711496,
				"z": -5.8280860893,
				"element": "H" 
			},
			{
				"x": 1.8553636549,
				"y": -2.5714738764,
				"z": -4.0244876565,
				"element": "H" 
			},
			{
				"x": 2.3966393439,
				"y": -2.1776626288,
				"z": -1.6399311093,
				"element": "H" 
			},
			{
				"x": -1.5496358157,
				"y": -0.6327084078,
				"z": -0.9932091667,
				"element": "H" 
			},
			{
				"x": -2.1160876466,
				"y": -1.0572331877,
				"z": -3.3410000999,
				"element": "H" 
			},
			{
				"x": 2.0364245835,
				"y": -0.1788918173,
				"z": 2.4813189548,
				"element": "H" 
			},
			{
				"x": 0.6275397519,
				"y": -1.1419583991,
				"z": 2.8458994466,
				"element": "H" 
			},
			{
				"x": 0.7479014203,
				"y": 0.6782915412,
				"z": 4.3688918594,
				"element": "H" 
			},
			{
				"x": 0.9093709989,
				"y": 1.8976783035,
				"z": 3.1306927704,
				"element": "H" 
			},
			{
				"x": -1.4038040875,
				"y": 1.5980569169,
				"z": 4.3233267782,
				"element": "H" 
			},
			{
				"x": -1.6201850209,
				"y": 0.1845033778,
				"z": 3.304464985,
				"element": "H" 
			},
			{
				"x": -1.0937812596,
				"y": 3.0499990272,
				"z": 2.3409651073,
				"element": "H" 
			},
			{
				"x": -2.6735843298,
				"y": 2.2871516619,
				"z": 2.3832706195,
				"element": "H" 
			},
			{
				"x": -2.0370095624,
				"y": 0.6781681497,
				"z": 0.6542980856,
				"element": "H" 
			},
			{
				"x": -1.7186843239,
				"y": 2.3192791269,
				"z": 0.1039408497,
				"element": "H" 
			},
			{
				"x": 0.1616608475,
				"y": 1.0845888646,
				"z": -0.6120018799,
				"element": "H" 
			},
			{
				"x": 0.7418893879,
				"y": 1.954911454,
				"z": 0.7907908016,
				"element": "H" 
			}
		],
		 "valence_orbital": [ 
			{
				"type": "occ",
				"energy": -0.30143,
				"method": "rhf"
			},
			{
				"type": "occ",
				"energy": -0.24883,
				"method": "rhf"
			},
			{
				"type": "occ",
				"energy": -0.23634,
				"method": "rhf"
			},
			{
				"type": "occ",
				"energy": -0.22213,
				"method": "rhf"
			},
			{
				"type": "occ",
				"energy": -0.20192,
				"method": "rhf"
			},
			{
				"type": "unocc",
				"energy": -0.00794,
				"method": "rhf"
			},
			{
				"type": "unocc",
				"energy": 0.00212,
				"method": "rhf"
			},
			{
				"type": "unocc",
				"energy": 0.06435,
				"method": "rhf"
			},
			{
				"type": "unocc",
				"energy": 0.07995,
				"method": "rhf"
			},
			{
				"type": "unocc",
				"energy": 0.08496,
				"method": "rhf"
			}
		],
		"cosmo_sigma_profile": { 
			"-0.025": 0.0,
			"-0.024": 0.0,
			"-0.023": 0.0,
			"-0.022": 0.0,
			"-0.021": 0.0,
			"-0.02": 0.0,
			"-0.019": 0.0,
			"-0.018": 0.0,
			"-0.017": 0.0,
			"-0.016": 0.0,
			"-0.015": 0.0,
			"-0.014": 0.0,
			"-0.013": 1.02307749219,
			"-0.012": 2.6183728494,
			"-0.011": 2.79507547115,
			"-0.01": 3.55685951664,
			"-0.009": 3.09986410844,
			"-0.008": 2.62498731673,
			"-0.007": 2.65817943493,
			"-0.006": 5.43829420147,
			"-0.005": 7.68586613023,
			"-0.004": 14.170962558,
			"-0.003": 27.9869711634,
			"-0.002": 38.0730428085,
			"-0.001": 35.7112883888,
			"0.0": 29.7868233004,
			"0.001": 17.0617574826,
			"0.002": 9.86271139759,
			"0.003": 7.83871933299,
			"0.004": 9.07032714647,
			"0.005": 11.0343194799,
			"0.006": 10.160968178,
			"0.007": 3.1693958919,
			"0.008": 2.54723466524,
			"0.009": 1.88426551602,
			"0.01": 2.69332581288,
			"0.011": 2.13577800227,
			"0.012": 2.22594534792,
			"0.013": 2.88586517998,
			"0.014": 4.13799058105,
			"0.015": 3.45794278029,
			"0.016": 0.309189693543,
			"0.017": 0.0,
			"0.018": 0.0,
			"0.019": 0.0,
			"0.02": 0.0,
			"0.021": 0.0,
			"0.022": 0.0,
			"0.023": 0.0,
			"0.024": 0.0,
			"0.025": 0.0
		}
	}
}
