{
	 "smiles": "CN(C)C1=CC=CC=C1C1=CC=CC=C1P(C(C)(C)C)C(C)(C)C", 
	 "Tm": 388.65, 
	 "num_atms": 56, 
	 "gaussian": { 
		 "optdone": 1, 
		 "sigma_profile": "yes", 
		 "theory": "DFT", 
		 "functional": "B3LYP", 
		 "basiset": "6-31G**", 
		 "properties": { 
			 "R2extent": 7781.1751, 
			 "electric_dipole_moment_norm": 1.07847620743, 
			 "electric_quadrupole_moment_norm": 3.16313904215, 
			 "total_energy": -1253.72299925, 
			 "HOMO_LUMO_gap": 0.17816, 
			 "cosmo_polarized_energy": -8.95, 
			 "cosmo_cavitation_energy": 52.0, 
			 "cosmo_dispersion_energy": -33.06, 
			 "cosmo_repulsion_energy": 2.45, 
			 "cosmo_total_nonelectrostatic_energy": 21.39, 
			 "SMD_solvation_energy": 9.33 
		},
		"coords": [
			{
				"x": 0.913532951,
				"y": 3.3473186888,
				"z": -0.2848841872,
				"element": "C" 
			},
			{
				"x": -0.3109973734,
				"y": 2.5583661836,
				"z": -0.1396244968,
				"element": "N" 
			},
			{
				"x": -1.3255078905,
				"y": 3.2969669798,
				"z": 0.5981598119,
				"element": "C" 
			},
			{
				"x": -0.7488027743,
				"y": 1.8749426808,
				"z": -1.3086520571,
				"element": "C" 
			},
			{
				"x": -1.936835047,
				"y": 2.2429943741,
				"z": -1.9628373624,
				"element": "C" 
			},
			{
				"x": -2.3780295356,
				"y": 1.5808105192,
				"z": -3.1080157295,
				"element": "C" 
			},
			{
				"x": -1.6223850478,
				"y": 0.5431398336,
				"z": -3.6453176154,
				"element": "C" 
			},
			{
				"x": -0.4427412927,
				"y": 0.1650927612,
				"z": -3.0032972385,
				"element": "C" 
			},
			{
				"x": -0.0023084947,
				"y": 0.785748629,
				"z": -1.8260950497,
				"element": "C" 
			},
			{
				"x": 1.2701291682,
				"y": 0.2640156063,
				"z": -1.2198510343,
				"element": "C" 
			},
			{
				"x": 2.4607126353,
				"y": 0.5673037911,
				"z": -1.9054056843,
				"element": "C" 
			},
			{
				"x": 3.6934818573,
				"y": 0.0633585017,
				"z": -1.4980459413,
				"element": "C" 
			},
			{
				"x": 3.7499336219,
				"y": -0.7811476209,
				"z": -0.3918664305,
				"element": "C" 
			},
			{
				"x": 2.5756600268,
				"y": -1.1044795447,
				"z": 0.2874394292,
				"element": "C" 
			},
			{
				"x": 1.3183317383,
				"y": -0.5945521393,
				"z": -0.0897440959,
				"element": "C" 
			},
			{
				"x": -0.286584583,
				"y": -1.0917192034,
				"z": 0.7399953253,
				"element": "P" 
			},
			{
				"x": 0.0112396326,
				"y": -0.8084792645,
				"z": 2.6323455973,
				"element": "C" 
			},
			{
				"x": -0.1075421786,
				"y": 0.7202298849,
				"z": 2.8161661103,
				"element": "C" 
			},
			{
				"x": -1.1606667892,
				"y": -1.468334095,
				"z": 3.3894166123,
				"element": "C" 
			},
			{
				"x": 1.3342399099,
				"y": -1.2578275203,
				"z": 3.2813467471,
				"element": "C" 
			},
			{
				"x": -0.3822922838,
				"y": -2.9913039341,
				"z": 0.3621672121,
				"element": "C" 
			},
			{
				"x": -0.1087609725,
				"y": -3.1500857826,
				"z": -1.1488896476,
				"element": "C" 
			},
			{
				"x": -1.8475220253,
				"y": -3.4155168949,
				"z": 0.6126017402,
				"element": "C" 
			},
			{
				"x": 0.5547575584,
				"y": -3.9335119472,
				"z": 1.1362216017,
				"element": "C" 
			},
			{
				"x": 1.6976501771,
				"y": 2.7610296343,
				"z": -0.7617280919,
				"element": "H" 
			},
			{
				"x": 1.2699292083,
				"y": 3.6437213301,
				"z": 0.7074258533,
				"element": "H" 
			},
			{
				"x": 0.7516639378,
				"y": 4.264573662,
				"z": -0.8785171896,
				"element": "H" 
			},
			{
				"x": -2.2096522646,
				"y": 2.6728567858,
				"z": 0.747242905,
				"element": "H" 
			},
			{
				"x": -0.9215377759,
				"y": 3.559523002,
				"z": 1.581033305,
				"element": "H" 
			},
			{
				"x": -1.6377990457,
				"y": 4.2368261529,
				"z": 0.107713961,
				"element": "H" 
			},
			{
				"x": -2.522062574,
				"y": 3.0715860866,
				"z": -1.5808673464,
				"element": "H" 
			},
			{
				"x": -3.3027623886,
				"y": 1.8941214565,
				"z": -3.5849120311,
				"element": "H" 
			},
			{
				"x": -1.9450157178,
				"y": 0.0268292011,
				"z": -4.544453278,
				"element": "H" 
			},
			{
				"x": 0.1479999542,
				"y": -0.6542247217,
				"z": -3.4031184238,
				"element": "H" 
			},
			{
				"x": 2.4039829019,
				"y": 1.2107890124,
				"z": -2.7792821493,
				"element": "H" 
			},
			{
				"x": 4.5953465178,
				"y": 0.3189922519,
				"z": -2.0472747367,
				"element": "H" 
			},
			{
				"x": 4.6977805399,
				"y": -1.198721831,
				"z": -0.0634339197,
				"element": "H" 
			},
			{
				"x": 2.6436380926,
				"y": -1.7867553283,
				"z": 1.1237818755,
				"element": "H" 
			},
			{
				"x": -1.0898112911,
				"y": 1.0838608358,
				"z": 2.5042005522,
				"element": "H" 
			},
			{
				"x": 0.0303821872,
				"y": 0.9738535603,
				"z": 3.8757057296,
				"element": "H" 
			},
			{
				"x": 0.6453405186,
				"y": 1.2592464698,
				"z": 2.2343613431,
				"element": "H" 
			},
			{
				"x": -1.1704900114,
				"y": -1.1110744704,
				"z": 4.4272203929,
				"element": "H" 
			},
			{
				"x": -2.1284170139,
				"y": -1.216753876,
				"z": 2.9431679908,
				"element": "H" 
			},
			{
				"x": -1.0717560234,
				"y": -2.557868819,
				"z": 3.4240357718,
				"element": "H" 
			},
			{
				"x": 2.1852126397,
				"y": -0.6856958486,
				"z": 2.9048850328,
				"element": "H" 
			},
			{
				"x": 1.2800166956,
				"y": -1.0769450356,
				"z": 4.3634819533,
				"element": "H" 
			},
			{
				"x": 1.5417792816,
				"y": -2.3213430276,
				"z": 3.1421869538,
				"element": "H" 
			},
			{
				"x": -0.7434072682,
				"y": -2.4872414043,
				"z": -1.7457248124,
				"element": "H" 
			},
			{
				"x": 0.9341424527,
				"y": -2.9414494322,
				"z": -1.4014947159,
				"element": "H" 
			},
			{
				"x": -0.32791112,
				"y": -4.1824229624,
				"z": -1.4506588138,
				"element": "H" 
			},
			{
				"x": -1.9906957356,
				"y": -4.453725152,
				"z": 0.285434964,
				"element": "H" 
			},
			{
				"x": -2.5442508599,
				"y": -2.7857172106,
				"z": 0.0511420712,
				"element": "H" 
			},
			{
				"x": -2.1258055881,
				"y": -3.3651727488,
				"z": 1.667867113,
				"element": "H" 
			},
			{
				"x": 0.3600031579,
				"y": -3.922889095,
				"z": 2.212164064,
				"element": "H" 
			},
			{
				"x": 0.4024062961,
				"y": -4.965710736,
				"z": 0.7919628753,
				"element": "H" 
			},
			{
				"x": 1.6091573077,
				"y": -3.6942282296,
				"z": 0.9732171838,
				"element": "H" 
			}
		],
		 "valence_orbital": [ 
			{
				"type": "occ",
				"energy": -0.24647,
				"method": "rhf"
			},
			{
				"type": "occ",
				"energy": -0.24374,
				"method": "rhf"
			},
			{
				"type": "occ",
				"energy": -0.23523,
				"method": "rhf"
			},
			{
				"type": "occ",
				"energy": -0.20126,
				"method": "rhf"
			},
			{
				"type": "occ",
				"energy": -0.19331,
				"method": "rhf"
			},
			{
				"type": "unocc",
				"energy": -0.01515,
				"method": "rhf"
			},
			{
				"type": "unocc",
				"energy": -0.0067,
				"method": "rhf"
			},
			{
				"type": "unocc",
				"energy": 0.00896,
				"method": "rhf"
			},
			{
				"type": "unocc",
				"energy": 0.01469,
				"method": "rhf"
			},
			{
				"type": "unocc",
				"energy": 0.06746,
				"method": "rhf"
			}
		],
		"cosmo_sigma_profile": { 
			"-0.025": 0.0,
			"-0.024": 0.0,
			"-0.023": 0.0,
			"-0.022": 0.0,
			"-0.021": 0.0,
			"-0.02": 0.0,
			"-0.019": 0.0,
			"-0.018": 0.0,
			"-0.017": 0.0,
			"-0.016": 0.0,
			"-0.015": 0.0,
			"-0.014": 0.0,
			"-0.013": 0.0,
			"-0.012": 0.0,
			"-0.011": 0.0,
			"-0.01": 0.0,
			"-0.009": 0.0,
			"-0.008": 0.0,
			"-0.007": 0.00233381773126,
			"-0.006": 3.00286412927,
			"-0.005": 13.2864102259,
			"-0.004": 25.0756932734,
			"-0.003": 38.7505474755,
			"-0.002": 57.5886667631,
			"-0.001": 61.562783614,
			"0.0": 56.939739973,
			"0.001": 52.0786298026,
			"0.002": 29.5366936823,
			"0.003": 14.3357564068,
			"0.004": 14.0724871584,
			"0.005": 13.5265755634,
			"0.006": 8.32089937562,
			"0.007": 3.42975724371,
			"0.008": 2.46761208509,
			"0.009": 1.4750788061,
			"0.01": 1.70176234031,
			"0.011": 1.32595570938,
			"0.012": 1.22676730465,
			"0.013": 0.931705749004,
			"0.014": 1.07226912782,
			"0.015": 0.637432404414,
			"0.016": 0.149639651569,
			"0.017": 0.0,
			"0.018": 0.0,
			"0.019": 0.0,
			"0.02": 0.0,
			"0.021": 0.0,
			"0.022": 0.0,
			"0.023": 0.0,
			"0.024": 0.0,
			"0.025": 0.0
		}
	}
}
