{
	 "smiles": "CC1(C)CC(=O)CC(C)(C)N1", 
	 "Tm": 309.15, 
	 "num_atms": 28, 
	 "gaussian": { 
		 "optdone": 1, 
		 "sigma_profile": "yes", 
		 "theory": "DFT", 
		 "functional": "B3LYP", 
		 "basiset": "6-31G**", 
		 "properties": { 
			 "R2extent": 2152.1729, 
			 "electric_dipole_moment_norm": 2.94478669346, 
			 "electric_quadrupole_moment_norm": 10.4830878046, 
			 "total_energy": -483.184902024, 
			 "HOMO_LUMO_gap": 0.20181, 
			 "cosmo_polarized_energy": -9.02, 
			 "cosmo_cavitation_energy": 27.65, 
			 "cosmo_dispersion_energy": -19.44, 
			 "cosmo_repulsion_energy": 1.54, 
			 "cosmo_total_nonelectrostatic_energy": 9.75, 
			 "SMD_solvation_energy": 4.44 
		},
		"coords": [
			{
				"x": -0.2891222803,
				"y": 0.1670441021,
				"z": 1.821127298,
				"element": "C" 
			},
			{
				"x": -0.0745542448,
				"y": -0.0338945571,
				"z": 0.3086892457,
				"element": "C" 
			},
			{
				"x": -0.7827159553,
				"y": -1.3436347939,
				"z": -0.1164292945,
				"element": "C" 
			},
			{
				"x": -0.6726749663,
				"y": 1.1634826176,
				"z": -0.4544836853,
				"element": "C" 
			},
			{
				"x": -0.3447842719,
				"y": 1.1817511288,
				"z": -1.940587292,
				"element": "C" 
			},
			{
				"x": -1.0633368181,
				"y": 1.7301368501,
				"z": -2.7544443682,
				"element": "O" 
			},
			{
				"x": 0.9395429947,
				"y": 0.4704480222,
				"z": -2.3421257989,
				"element": "C" 
			},
			{
				"x": 1.9832347561,
				"y": 0.3850447478,
				"z": -1.2041006223,
				"element": "C" 
			},
			{
				"x": 3.0920360683,
				"y": -0.6026096288,
				"z": -1.6016656171,
				"element": "C" 
			},
			{
				"x": 2.6207228859,
				"y": 1.7757468215,
				"z": -0.9802408994,
				"element": "C" 
			},
			{
				"x": 1.3848333217,
				"y": -0.0809087055,
				"z": 0.0718049149,
				"element": "N" 
			},
			{
				"x": -1.3548665546,
				"y": 0.2237609534,
				"z": 2.0699651546,
				"element": "H" 
			},
			{
				"x": 0.2027759218,
				"y": 1.084643715,
				"z": 2.1549794533,
				"element": "H" 
			},
			{
				"x": 0.1430632845,
				"y": -0.6680700677,
				"z": 2.3838866594,
				"element": "H" 
			},
			{
				"x": -0.3429584261,
				"y": -2.1991237574,
				"z": 0.4097741385,
				"element": "H" 
			},
			{
				"x": -1.849173488,
				"y": -1.3169449233,
				"z": 0.1334723906,
				"element": "H" 
			},
			{
				"x": -0.6973998461,
				"y": -1.534778248,
				"z": -1.1900552912,
				"element": "H" 
			},
			{
				"x": -0.2756302966,
				"y": 2.0955715897,
				"z": -0.0292406465,
				"element": "H" 
			},
			{
				"x": -1.7593680321,
				"y": 1.2049534284,
				"z": -0.3376378149,
				"element": "H" 
			},
			{
				"x": 1.3468102602,
				"y": 0.9684958888,
				"z": -3.2276873005,
				"element": "H" 
			},
			{
				"x": 0.6552831123,
				"y": -0.5424599471,
				"z": -2.6595979777,
				"element": "H" 
			},
			{
				"x": 3.6117989368,
				"y": -0.2682620459,
				"z": -2.5047811726,
				"element": "H" 
			},
			{
				"x": 2.6795290846,
				"y": -1.5991638658,
				"z": -1.7967099429,
				"element": "H" 
			},
			{
				"x": 3.8342048959,
				"y": -0.6872001795,
				"z": -0.7998664069,
				"element": "H" 
			},
			{
				"x": 3.3486574234,
				"y": 1.7214570578,
				"z": -0.166007237,
				"element": "H" 
			},
			{
				"x": 3.1290304289,
				"y": 2.1304601812,
				"z": -1.8842477959,
				"element": "H" 
			},
			{
				"x": 1.8725613315,
				"y": 2.523820742,
				"z": -0.701876793,
				"element": "H" 
			},
			{
				"x": 1.7320004736,
				"y": -1.0037671266,
				"z": 0.3083867019,
				"element": "H" 
			}
		],
		 "valence_orbital": [ 
			{
				"type": "occ",
				"energy": -0.33355,
				"method": "rhf"
			},
			{
				"type": "occ",
				"energy": -0.32974,
				"method": "rhf"
			},
			{
				"type": "occ",
				"energy": -0.32209,
				"method": "rhf"
			},
			{
				"type": "occ",
				"energy": -0.23576,
				"method": "rhf"
			},
			{
				"type": "occ",
				"energy": -0.21486,
				"method": "rhf"
			},
			{
				"type": "unocc",
				"energy": -0.01305,
				"method": "rhf"
			},
			{
				"type": "unocc",
				"energy": 0.05915,
				"method": "rhf"
			},
			{
				"type": "unocc",
				"energy": 0.09974,
				"method": "rhf"
			},
			{
				"type": "unocc",
				"energy": 0.10442,
				"method": "rhf"
			},
			{
				"type": "unocc",
				"energy": 0.11249,
				"method": "rhf"
			}
		],
		"cosmo_sigma_profile": { 
			"-0.025": 0.0,
			"-0.024": 0.0,
			"-0.023": 0.0,
			"-0.022": 0.0,
			"-0.021": 0.0,
			"-0.02": 0.0,
			"-0.019": 0.0,
			"-0.018": 0.0,
			"-0.017": 0.0,
			"-0.016": 0.0,
			"-0.015": 0.0,
			"-0.014": 0.0,
			"-0.013": 0.0,
			"-0.012": 0.0,
			"-0.011": 0.0,
			"-0.01": 0.0,
			"-0.009": 0.321674192397,
			"-0.008": 1.38622872215,
			"-0.007": 1.42479253268,
			"-0.006": 5.95443148639,
			"-0.005": 8.65980932627,
			"-0.004": 15.4115003243,
			"-0.003": 32.5581602694,
			"-0.002": 28.722384253,
			"-0.001": 26.6803460769,
			"0.0": 22.0317040678,
			"0.001": 25.5420644387,
			"0.002": 10.0588412135,
			"0.003": 3.38389133458,
			"0.004": 2.3344706407,
			"0.005": 2.54660472223,
			"0.006": 2.6851952172,
			"0.007": 1.78750436869,
			"0.008": 2.25084396496,
			"0.009": 2.04036425211,
			"0.01": 2.48133196263,
			"0.011": 3.52095407984,
			"0.012": 4.89383530424,
			"0.013": 4.42383913049,
			"0.014": 1.21140827663,
			"0.015": 0.319384477601,
			"0.016": 0.0771978567175,
			"0.017": 0.0,
			"0.018": 0.0,
			"0.019": 0.0,
			"0.02": 0.0,
			"0.021": 0.0,
			"0.022": 0.0,
			"0.023": 0.0,
			"0.024": 0.0,
			"0.025": 0.0
		}
	}
}
