{
	 "smiles": "COC1=CC2=C(CCCC2=O)C=C1", 
	 "Tm": 330.15, 
	 "num_atms": 25, 
	 "gaussian": { 
		 "optdone": 1, 
		 "sigma_profile": "yes", 
		 "theory": "DFT", 
		 "functional": "B3LYP", 
		 "basiset": "6-31G**", 
		 "properties": { 
			 "R2extent": 2719.5627, 
			 "electric_dipole_moment_norm": 1.94704708469, 
			 "electric_quadrupole_moment_norm": 14.1958861907, 
			 "total_energy": -576.855259604, 
			 "HOMO_LUMO_gap": 0.16919, 
			 "cosmo_polarized_energy": -9.03, 
			 "cosmo_cavitation_energy": 27.47, 
			 "cosmo_dispersion_energy": -20.49, 
			 "cosmo_repulsion_energy": 1.62, 
			 "cosmo_total_nonelectrostatic_energy": 8.6, 
			 "SMD_solvation_energy": 5.37 
		},
		"coords": [
			{
				"x": -0.7941789279,
				"y": 4.0668757161,
				"z": 0.8385058139,
				"element": "C" 
			},
			{
				"x": -1.1178774435,
				"y": 3.3281467391,
				"z": -0.3306471164,
				"element": "O" 
			},
			{
				"x": -0.9192963573,
				"y": 1.9789499453,
				"z": -0.3075260706,
				"element": "C" 
			},
			{
				"x": -0.4238809103,
				"y": 1.26312145,
				"z": 0.7779959348,
				"element": "C" 
			},
			{
				"x": -0.2633492599,
				"y": -0.1308554999,
				"z": 0.6878994622,
				"element": "C" 
			},
			{
				"x": -0.5902535975,
				"y": -0.8254401933,
				"z": -0.4904118627,
				"element": "C" 
			},
			{
				"x": -0.4250888712,
				"y": -2.3276645633,
				"z": -0.5847246767,
				"element": "C" 
			},
			{
				"x": 0.665492785,
				"y": -2.8434878118,
				"z": 0.3617890261,
				"element": "C" 
			},
			{
				"x": 0.400133524,
				"y": -2.3598111953,
				"z": 1.7921898447,
				"element": "C" 
			},
			{
				"x": 0.2676855675,
				"y": -0.8454733729,
				"z": 1.888337402,
				"element": "C" 
			},
			{
				"x": 0.5645638258,
				"y": -0.2477615509,
				"z": 2.9132561669,
				"element": "O" 
			},
			{
				"x": -1.0840244152,
				"y": -0.0813236039,
				"z": -1.5731604633,
				"element": "C" 
			},
			{
				"x": -1.249711238,
				"y": 1.2937596645,
				"z": -1.4908419555,
				"element": "C" 
			},
			{
				"x": -1.3935377142,
				"y": 3.7440914542,
				"z": 1.6991167687,
				"element": "H" 
			},
			{
				"x": 0.2697711109,
				"y": 3.9768902619,
				"z": 1.0914489168,
				"element": "H" 
			},
			{
				"x": -1.0237302268,
				"y": 5.1085773283,
				"z": 0.6094583234,
				"element": "H" 
			},
			{
				"x": -0.1493814058,
				"y": 1.7339868098,
				"z": 1.713939867,
				"element": "H" 
			},
			{
				"x": -1.3781707602,
				"y": -2.8172939228,
				"z": -0.3310562152,
				"element": "H" 
			},
			{
				"x": -0.2054373458,
				"y": -2.6115589454,
				"z": -1.6202006326,
				"element": "H" 
			},
			{
				"x": 0.7100302787,
				"y": -3.9375957139,
				"z": 0.3331789928,
				"element": "H" 
			},
			{
				"x": 1.6433607632,
				"y": -2.4757036186,
				"z": 0.0257869839,
				"element": "H" 
			},
			{
				"x": 1.1752924549,
				"y": -2.6734126512,
				"z": 2.4969549532,
				"element": "H" 
			},
			{
				"x": -0.5479053645,
				"y": -2.7872700567,
				"z": 2.1536718642,
				"element": "H" 
			},
			{
				"x": -1.3373060091,
				"y": -0.5918989133,
				"z": -2.4990605146,
				"element": "H" 
			},
			{
				"x": -1.627800463,
				"y": 1.8667522438,
				"z": -2.3316008127,
				"element": "H" 
			}
		],
		 "valence_orbital": [ 
			{
				"type": "occ",
				"energy": -0.3262,
				"method": "rhf"
			},
			{
				"type": "occ",
				"energy": -0.31119,
				"method": "rhf"
			},
			{
				"type": "occ",
				"energy": -0.25466,
				"method": "rhf"
			},
			{
				"type": "occ",
				"energy": -0.23932,
				"method": "rhf"
			},
			{
				"type": "occ",
				"energy": -0.22042,
				"method": "rhf"
			},
			{
				"type": "unocc",
				"energy": -0.05123,
				"method": "rhf"
			},
			{
				"type": "unocc",
				"energy": 0.00476,
				"method": "rhf"
			},
			{
				"type": "unocc",
				"energy": 0.04611,
				"method": "rhf"
			},
			{
				"type": "unocc",
				"energy": 0.09353,
				"method": "rhf"
			},
			{
				"type": "unocc",
				"energy": 0.10379,
				"method": "rhf"
			}
		],
		"cosmo_sigma_profile": { 
			"-0.025": 0.0,
			"-0.024": 0.0,
			"-0.023": 0.0,
			"-0.022": 0.0,
			"-0.021": 0.0,
			"-0.02": 0.0,
			"-0.019": 0.0,
			"-0.018": 0.0,
			"-0.017": 0.0,
			"-0.016": 0.0,
			"-0.015": 0.0,
			"-0.014": 0.0,
			"-0.013": 0.0,
			"-0.012": 0.0,
			"-0.011": 0.0,
			"-0.01": 0.0,
			"-0.009": 0.0,
			"-0.008": 0.0,
			"-0.007": 0.723557065441,
			"-0.006": 7.44388093481,
			"-0.005": 19.2737354241,
			"-0.004": 26.8358295584,
			"-0.003": 26.7216886215,
			"-0.002": 24.7017805165,
			"-0.001": 20.3019659645,
			"0.0": 11.6480798482,
			"0.001": 9.71745774775,
			"0.002": 10.6632308851,
			"0.003": 14.337214605,
			"0.004": 13.7618771826,
			"0.005": 5.40464329059,
			"0.006": 3.49088681114,
			"0.007": 2.53147197916,
			"0.008": 2.17829075479,
			"0.009": 3.4590633478,
			"0.01": 3.81015042949,
			"0.011": 2.74017436586,
			"0.012": 4.01241798021,
			"0.013": 2.68556025693,
			"0.014": 0.532468197252,
			"0.015": 0.0,
			"0.016": 0.0,
			"0.017": 0.0,
			"0.018": 0.0,
			"0.019": 0.0,
			"0.02": 0.0,
			"0.021": 0.0,
			"0.022": 0.0,
			"0.023": 0.0,
			"0.024": 0.0,
			"0.025": 0.0
		}
	}
}
