{
	 "smiles": "CC1=C(O)C=C(Cl)N=C1", 
	 "Tm": 447.15, 
	 "num_atms": 15, 
	 "gaussian": { 
		 "optdone": 1, 
		 "sigma_profile": "yes", 
		 "theory": "DFT", 
		 "functional": "B3LYP", 
		 "basiset": "6-31G**", 
		 "properties": { 
			 "R2extent": 1969.5387, 
			 "electric_dipole_moment_norm": 4.94311355929, 
			 "electric_quadrupole_moment_norm": 8.57687824852, 
			 "total_energy": -822.423142341, 
			 "HOMO_LUMO_gap": 0.23087, 
			 "cosmo_polarized_energy": -11.55, 
			 "cosmo_cavitation_energy": 20.8, 
			 "cosmo_dispersion_energy": -15.84, 
			 "cosmo_repulsion_energy": 1.3, 
			 "cosmo_total_nonelectrostatic_energy": 6.26, 
			 "SMD_solvation_energy": 2.28 
		},
		"coords": [
			{
				"x": -0.4834333728,
				"y": -1.0687223492,
				"z": -1.9413763158,
				"element": "C" 
			},
			{
				"x": -0.3919024842,
				"y": 0.1108274376,
				"z": -1.0078697623,
				"element": "C" 
			},
			{
				"x": 0.526424139,
				"y": 0.1359292746,
				"z": 0.060723092,
				"element": "C" 
			},
			{
				"x": 1.3803124765,
				"y": -0.8859565283,
				"z": 0.3198853593,
				"element": "O" 
			},
			{
				"x": 0.5804018188,
				"y": 1.2471867332,
				"z": 0.9033883681,
				"element": "C" 
			},
			{
				"x": -0.2986761031,
				"y": 2.2917575133,
				"z": 0.6313381068,
				"element": "C" 
			},
			{
				"x": -0.2535888597,
				"y": 3.7100124268,
				"z": 1.6797217117,
				"element": "Cl" 
			},
			{
				"x": -1.1752738959,
				"y": 2.3133356718,
				"z": -0.3567019115,
				"element": "N" 
			},
			{
				"x": -1.2059530545,
				"y": 1.2340663699,
				"z": -1.1501976297,
				"element": "C" 
			},
			{
				"x": -0.751310937,
				"y": -1.9939006362,
				"z": -1.4134024789,
				"element": "H" 
			},
			{
				"x": -1.2506799313,
				"y": -0.9007050123,
				"z": -2.7009762045,
				"element": "H" 
			},
			{
				"x": 0.4606457334,
				"y": -1.2494665203,
				"z": -2.4728918379,
				"element": "H" 
			},
			{
				"x": 1.2502692663,
				"y": -1.592834344,
				"z": -0.3257750527,
				"element": "H" 
			},
			{
				"x": 1.2810018596,
				"y": 1.2794430641,
				"z": 1.7278667849,
				"element": "H" 
			},
			{
				"x": -1.9327366551,
				"y": 1.263926899,
				"z": -1.9609322293,
				"element": "H" 
			}
		],
		 "valence_orbital": [ 
			{
				"type": "occ",
				"energy": -0.32626,
				"method": "rhf"
			},
			{
				"type": "occ",
				"energy": -0.30843,
				"method": "rhf"
			},
			{
				"type": "occ",
				"energy": -0.2716,
				"method": "rhf"
			},
			{
				"type": "occ",
				"energy": -0.26231,
				"method": "rhf"
			},
			{
				"type": "occ",
				"energy": -0.25211,
				"method": "rhf"
			},
			{
				"type": "unocc",
				"energy": -0.02124,
				"method": "rhf"
			},
			{
				"type": "unocc",
				"energy": -0.01733,
				"method": "rhf"
			},
			{
				"type": "unocc",
				"energy": 0.03508,
				"method": "rhf"
			},
			{
				"type": "unocc",
				"energy": 0.04975,
				"method": "rhf"
			},
			{
				"type": "unocc",
				"energy": 0.11633,
				"method": "rhf"
			}
		],
		"cosmo_sigma_profile": { 
			"-0.025": 0.0,
			"-0.024": 0.0,
			"-0.023": 0.0,
			"-0.022": 0.0,
			"-0.021": 0.0,
			"-0.02": 0.0,
			"-0.019": 0.0,
			"-0.018": 0.0811906429865,
			"-0.017": 0.681278006374,
			"-0.016": 1.01145712423,
			"-0.015": 0.884288192774,
			"-0.014": 1.12777181318,
			"-0.013": 0.710896509959,
			"-0.012": 1.2116662608,
			"-0.011": 1.51682756877,
			"-0.01": 1.36055146928,
			"-0.009": 1.33257541844,
			"-0.008": 2.35838128784,
			"-0.007": 5.0105393887,
			"-0.006": 8.14784471298,
			"-0.005": 8.82434310085,
			"-0.004": 7.0072889662,
			"-0.003": 8.89257055465,
			"-0.002": 9.45508375948,
			"-0.001": 12.9805014226,
			"0.0": 14.1666105595,
			"0.001": 19.3093955013,
			"0.002": 11.4764783345,
			"0.003": 7.78452391932,
			"0.004": 11.8519583005,
			"0.005": 9.59164374087,
			"0.006": 4.33138535795,
			"0.007": 3.91315941741,
			"0.008": 2.27345522295,
			"0.009": 3.29910570397,
			"0.01": 2.95509098456,
			"0.011": 1.18815225785,
			"0.012": 0.745450854987,
			"0.013": 1.17247311545,
			"0.014": 1.01894191563,
			"0.015": 0.538125157856,
			"0.016": 0.1523018723,
			"0.017": 0.0,
			"0.018": 0.0,
			"0.019": 0.0,
			"0.02": 0.0,
			"0.021": 0.0,
			"0.022": 0.0,
			"0.023": 0.0,
			"0.024": 0.0,
			"0.025": 0.0
		}
	}
}
