{
	 "smiles": "CC1=CC2=C(NC=C2CC(N)C(O)=O)C=C1", 
	 "Tm": 554.15, 
	 "num_atms": 30, 
	 "gaussian": { 
		 "optdone": 1, 
		 "sigma_profile": "yes", 
		 "theory": "DFT", 
		 "functional": "B3LYP", 
		 "basiset": "6-31G**", 
		 "properties": { 
			 "R2extent": 4098.0923, 
			 "electric_dipole_moment_norm": 3.79072643962, 
			 "electric_quadrupole_moment_norm": 27.9618907483, 
			 "total_energy": -725.696402777, 
			 "HOMO_LUMO_gap": 0.19056, 
			 "cosmo_polarized_energy": -17.32, 
			 "cosmo_cavitation_energy": 32.75, 
			 "cosmo_dispersion_energy": -23.45, 
			 "cosmo_repulsion_energy": 1.84, 
			 "cosmo_total_nonelectrostatic_energy": 11.15, 
			 "SMD_solvation_energy": 5.79 
		},
		"coords": [
			{
				"x": 0.5558568054,
				"y": 4.0557214077,
				"z": -0.0715415794,
				"element": "C" 
			},
			{
				"x": 0.4752340958,
				"y": 2.6662700145,
				"z": -0.6628384627,
				"element": "C" 
			},
			{
				"x": 0.5935057266,
				"y": 1.536058872,
				"z": 0.140980073,
				"element": "C" 
			},
			{
				"x": 0.5184126755,
				"y": 0.2496315771,
				"z": -0.4287015959,
				"element": "C" 
			},
			{
				"x": 0.3250342897,
				"y": 0.1348232577,
				"z": -1.8322884287,
				"element": "C" 
			},
			{
				"x": 0.2965322802,
				"y": -1.2119256308,
				"z": -2.1308484138,
				"element": "N" 
			},
			{
				"x": 0.4625998607,
				"y": -1.9414882458,
				"z": -0.9712146987,
				"element": "C" 
			},
			{
				"x": 0.6064757779,
				"y": -1.0913783222,
				"z": 0.101360344,
				"element": "C" 
			},
			{
				"x": 0.7746658847,
				"y": -1.4952975353,
				"z": 1.5402483713,
				"element": "C" 
			},
			{
				"x": -0.5631184485,
				"y": -1.7831431596,
				"z": 2.2582431963,
				"element": "C" 
			},
			{
				"x": -1.5630060964,
				"y": -0.7017974663,
				"z": 2.2235450593,
				"element": "N" 
			},
			{
				"x": -1.2166009749,
				"y": -3.0718668662,
				"z": 1.704551126,
				"element": "C" 
			},
			{
				"x": -2.5531333375,
				"y": -3.0207482496,
				"z": 1.6792606913,
				"element": "O" 
			},
			{
				"x": -0.5808287114,
				"y": -4.0441281663,
				"z": 1.3601851827,
				"element": "O" 
			},
			{
				"x": 0.203620695,
				"y": 1.2587250931,
				"z": -2.6562833756,
				"element": "C" 
			},
			{
				"x": 0.2786932013,
				"y": 2.5088286461,
				"z": -2.0573527552,
				"element": "C" 
			},
			{
				"x": -0.3610543261,
				"y": 4.6274724999,
				"z": -0.2587709437,
				"element": "H" 
			},
			{
				"x": 0.709669438,
				"y": 4.020359399,
				"z": 1.0108457353,
				"element": "H" 
			},
			{
				"x": 1.3835975023,
				"y": 4.6295498825,
				"z": -0.5050438047,
				"element": "H" 
			},
			{
				"x": 0.7509926152,
				"y": 1.6519755353,
				"z": 1.2111911265,
				"element": "H" 
			},
			{
				"x": 0.169599912,
				"y": -1.6055468713,
				"z": -3.0488452173,
				"element": "H" 
			},
			{
				"x": 0.4571072739,
				"y": -3.0219507919,
				"z": -0.9837022059,
				"element": "H" 
			},
			{
				"x": 1.3799997707,
				"y": -2.4032158546,
				"z": 1.6112254416,
				"element": "H" 
			},
			{
				"x": 1.3050788617,
				"y": -0.7092379683,
				"z": 2.0904292641,
				"element": "H" 
			},
			{
				"x": -0.3518293473,
				"y": -2.0014897885,
				"z": 3.3136567842,
				"element": "H" 
			},
			{
				"x": -1.4179247607,
				"y": -0.035814585,
				"z": 2.9756090785,
				"element": "H" 
			},
			{
				"x": -1.4907849953,
				"y": -0.1898225135,
				"z": 1.345458283,
				"element": "H" 
			},
			{
				"x": -2.7639063455,
				"y": -2.0977633827,
				"z": 1.9679941282,
				"element": "H" 
			},
			{
				"x": 0.0553434753,
				"y": 1.1610497456,
				"z": -3.7282493525,
				"element": "H" 
			},
			{
				"x": 0.1866672017,
				"y": 3.3974494674,
				"z": -2.6768030508,
				"element": "H" 
			}
		],
		 "valence_orbital": [ 
			{
				"type": "occ",
				"energy": -0.28985,
				"method": "rhf"
			},
			{
				"type": "occ",
				"energy": -0.27504,
				"method": "rhf"
			},
			{
				"type": "occ",
				"energy": -0.24767,
				"method": "rhf"
			},
			{
				"type": "occ",
				"energy": -0.21744,
				"method": "rhf"
			},
			{
				"type": "occ",
				"energy": -0.20235,
				"method": "rhf"
			},
			{
				"type": "unocc",
				"energy": -0.01179,
				"method": "rhf"
			},
			{
				"type": "unocc",
				"energy": 0.01864,
				"method": "rhf"
			},
			{
				"type": "unocc",
				"energy": 0.02306,
				"method": "rhf"
			},
			{
				"type": "unocc",
				"energy": 0.05154,
				"method": "rhf"
			},
			{
				"type": "unocc",
				"energy": 0.07971,
				"method": "rhf"
			}
		],
		"cosmo_sigma_profile": { 
			"-0.025": 0.0,
			"-0.024": 0.0,
			"-0.023": 0.0,
			"-0.022": 0.0,
			"-0.021": 0.0,
			"-0.02": 0.0,
			"-0.019": 0.0,
			"-0.018": 0.0,
			"-0.017": 0.0,
			"-0.016": 0.148202430425,
			"-0.015": 1.56545933947,
			"-0.014": 1.29771771367,
			"-0.013": 1.44139759374,
			"-0.012": 1.98848254795,
			"-0.011": 2.97693449579,
			"-0.01": 2.24678622068,
			"-0.009": 3.51645566467,
			"-0.008": 3.73520800139,
			"-0.007": 9.68100198595,
			"-0.006": 9.36398888605,
			"-0.005": 12.5617395339,
			"-0.004": 21.2619095204,
			"-0.003": 20.7810820182,
			"-0.002": 18.726639417,
			"-0.001": 17.9127427527,
			"0.0": 17.9350030055,
			"0.001": 15.8713190644,
			"0.002": 11.8371375365,
			"0.003": 12.3548538653,
			"0.004": 11.7587067583,
			"0.005": 13.4598266415,
			"0.006": 12.1537361467,
			"0.007": 9.98819195324,
			"0.008": 3.41371483641,
			"0.009": 2.64399176281,
			"0.01": 3.99361657581,
			"0.011": 4.86846017841,
			"0.012": 4.52678368136,
			"0.013": 3.31886458657,
			"0.014": 1.01642416836,
			"0.015": 0.0,
			"0.016": 0.0,
			"0.017": 0.0,
			"0.018": 0.0,
			"0.019": 0.0,
			"0.02": 0.0,
			"0.021": 0.0,
			"0.022": 0.0,
			"0.023": 0.0,
			"0.024": 0.0,
			"0.025": 0.0
		}
	}
}
