{
	 "smiles": "C#CC1=CC=C2C=CC3=C4C(C=CC1=C24)=CC=C3", 
	 "Tm": 387.15, 
	 "num_atms": 28, 
	 "gaussian": { 
		 "optdone": 1, 
		 "sigma_profile": "yes", 
		 "theory": "DFT", 
		 "functional": "B3LYP", 
		 "basiset": "6-31G**", 
		 "properties": { 
			 "R2extent": 4204.0396, 
			 "electric_dipole_moment_norm": 0.770001467531, 
			 "electric_quadrupole_moment_norm": 11.5998344811, 
			 "total_energy": -691.919662309, 
			 "HOMO_LUMO_gap": 0.13032, 
			 "cosmo_polarized_energy": -7.33, 
			 "cosmo_cavitation_energy": 32.04, 
			 "cosmo_dispersion_energy": -23.32, 
			 "cosmo_repulsion_energy": 1.69, 
			 "cosmo_total_nonelectrostatic_energy": 10.41, 
			 "SMD_solvation_energy": 5.7 
		},
		"coords": [
			{
				"x": 0.9997953975,
				"y": -3.3948648263,
				"z": 2.6262269549,
				"element": "C" 
			},
			{
				"x": 0.4163087754,
				"y": -2.4157626429,
				"z": 2.2158757842,
				"element": "C" 
			},
			{
				"x": -0.2835516442,
				"y": -1.2622446743,
				"z": 1.7507366063,
				"element": "C" 
			},
			{
				"x": -1.3066442411,
				"y": -0.7106458314,
				"z": 2.5446655502,
				"element": "C" 
			},
			{
				"x": -2.0121595432,
				"y": 0.4096821418,
				"z": 2.1307984936,
				"element": "C" 
			},
			{
				"x": -1.726820792,
				"y": 1.0305541899,
				"z": 0.9027530815,
				"element": "C" 
			},
			{
				"x": -2.4399746448,
				"y": 2.1907802964,
				"z": 0.4481210075,
				"element": "C" 
			},
			{
				"x": -2.1483072017,
				"y": 2.7780817855,
				"z": -0.7457584138,
				"element": "C" 
			},
			{
				"x": -1.1145985103,
				"y": 2.2599246402,
				"z": -1.598720633,
				"element": "C" 
			},
			{
				"x": -0.3879087987,
				"y": 1.1059051216,
				"z": -1.1720832658,
				"element": "C" 
			},
			{
				"x": 0.6439155022,
				"y": 0.5723586665,
				"z": -2.0022651954,
				"element": "C" 
			},
			{
				"x": 1.356848529,
				"y": -0.588010906,
				"z": -1.5471432405,
				"element": "C" 
			},
			{
				"x": 1.0681105026,
				"y": -1.1783212612,
				"z": -0.353833449,
				"element": "C" 
			},
			{
				"x": 0.0362108231,
				"y": -0.6642436629,
				"z": 0.5017426434,
				"element": "C" 
			},
			{
				"x": -0.6924670074,
				"y": 0.4888603141,
				"z": 0.07938096,
				"element": "C" 
			},
			{
				"x": 0.9260266804,
				"y": 1.1959372387,
				"z": -3.2290929687,
				"element": "C" 
			},
			{
				"x": 0.2122509703,
				"y": 2.3211570531,
				"z": -3.6373480205,
				"element": "C" 
			},
			{
				"x": -0.7968583582,
				"y": 2.849109687,
				"z": -2.833485482,
				"element": "C" 
			},
			{
				"x": 1.5103971311,
				"y": -4.2557798973,
				"z": 2.9905845631,
				"element": "H" 
			},
			{
				"x": -1.5375133108,
				"y": -1.1800033287,
				"z": 3.4953358907,
				"element": "H" 
			},
			{
				"x": -2.7977593861,
				"y": 0.8172562515,
				"z": 2.761216757,
				"element": "H" 
			},
			{
				"x": -3.2247025313,
				"y": 2.594092609,
				"z": 1.0827636053,
				"element": "H" 
			},
			{
				"x": -2.697726601,
				"y": 3.6560402829,
				"z": -1.0754121898,
				"element": "H" 
			},
			{
				"x": 2.1419817932,
				"y": -0.9926367883,
				"z": -2.1806405302,
				"element": "H" 
			},
			{
				"x": 1.6160021586,
				"y": -2.0547308712,
				"z": -0.0240623972,
				"element": "H" 
			},
			{
				"x": 1.7115913233,
				"y": 0.7891532695,
				"z": -3.8604053244,
				"element": "H" 
			},
			{
				"x": 0.4438783137,
				"y": 2.7904127798,
				"z": -4.5891177976,
				"element": "H" 
			},
			{
				"x": -1.3495253296,
				"y": 3.726838363,
				"z": -3.1580329898,
				"element": "H" 
			}
		],
		 "valence_orbital": [ 
			{
				"type": "occ",
				"energy": -0.27324,
				"method": "rhf"
			},
			{
				"type": "occ",
				"energy": -0.26089,
				"method": "rhf"
			},
			{
				"type": "occ",
				"energy": -0.25401,
				"method": "rhf"
			},
			{
				"type": "occ",
				"energy": -0.23174,
				"method": "rhf"
			},
			{
				"type": "occ",
				"energy": -0.19622,
				"method": "rhf"
			},
			{
				"type": "unocc",
				"energy": -0.0659,
				"method": "rhf"
			},
			{
				"type": "unocc",
				"energy": -0.02871,
				"method": "rhf"
			},
			{
				"type": "unocc",
				"energy": -0.00675,
				"method": "rhf"
			},
			{
				"type": "unocc",
				"energy": 0.00679,
				"method": "rhf"
			},
			{
				"type": "unocc",
				"energy": 0.04429,
				"method": "rhf"
			}
		],
		"cosmo_sigma_profile": { 
			"-0.025": 0.0,
			"-0.024": 0.0,
			"-0.023": 0.0,
			"-0.022": 0.0,
			"-0.021": 0.0,
			"-0.02": 0.0,
			"-0.019": 0.0,
			"-0.018": 0.0,
			"-0.017": 0.0,
			"-0.016": 0.0,
			"-0.015": 0.0,
			"-0.014": 0.0,
			"-0.013": 0.0,
			"-0.012": 0.613399396505,
			"-0.011": 1.24902793912,
			"-0.01": 1.28556541338,
			"-0.009": 0.542604630402,
			"-0.008": 1.72493798371,
			"-0.007": 3.52492431511,
			"-0.006": 20.6979215944,
			"-0.005": 16.3105330433,
			"-0.004": 20.1115846137,
			"-0.003": 12.9723298002,
			"-0.002": 12.5604727005,
			"-0.001": 11.7310310047,
			"0.0": 13.2316090588,
			"0.001": 15.9292053846,
			"0.002": 33.7474061887,
			"0.003": 47.9943777878,
			"0.004": 28.2691080205,
			"0.005": 10.24441572,
			"0.006": 6.01373118894,
			"0.007": 1.47193116669,
			"0.008": 0.0,
			"0.009": 0.0,
			"0.01": 0.0,
			"0.011": 0.0,
			"0.012": 0.0,
			"0.013": 0.0,
			"0.014": 0.0,
			"0.015": 0.0,
			"0.016": 0.0,
			"0.017": 0.0,
			"0.018": 0.0,
			"0.019": 0.0,
			"0.02": 0.0,
			"0.021": 0.0,
			"0.022": 0.0,
			"0.023": 0.0,
			"0.024": 0.0,
			"0.025": 0.0
		}
	}
}
