{
	 "smiles": "CC(C)(C)OC(=O)N1CCC(CC1)OC1=CC=C(C=C1)[N+]([O-])=O", 
	 "Tm": 373.15, 
	 "num_atms": 45, 
	 "gaussian": { 
		 "optdone": 1, 
		 "sigma_profile": "yes", 
		 "theory": "DFT", 
		 "functional": "B3LYP", 
		 "basiset": "6-31G**", 
		 "properties": { 
			 "R2extent": 14473.4384, 
			 "electric_dipole_moment_norm": 4.30856890626, 
			 "electric_quadrupole_moment_norm": 61.2229291592, 
			 "total_energy": -1108.5198142, 
			 "HOMO_LUMO_gap": 0.15983, 
			 "cosmo_polarized_energy": -16.77, 
			 "cosmo_cavitation_energy": 46.96, 
			 "cosmo_dispersion_energy": -32.95, 
			 "cosmo_repulsion_energy": 2.51, 
			 "cosmo_total_nonelectrostatic_energy": 16.52, 
			 "SMD_solvation_energy": 10.27 
		},
		"coords": [
			{
				"x": -5.2120387964,
				"y": -0.6576400693,
				"z": -1.9625903442,
				"element": "C" 
			},
			{
				"x": -4.3045140643,
				"y": -1.6409176774,
				"z": -1.2156893054,
				"element": "C" 
			},
			{
				"x": -4.9402878117,
				"y": -2.1467904763,
				"z": 0.0836592786,
				"element": "C" 
			},
			{
				"x": -3.9136440827,
				"y": -2.8129738593,
				"z": -2.1199909437,
				"element": "C" 
			},
			{
				"x": -3.0046983515,
				"y": -1.0128960439,
				"z": -0.9287322667,
				"element": "O" 
			},
			{
				"x": -2.9251124668,
				"y": 0.0962343761,
				"z": -0.152315177,
				"element": "C" 
			},
			{
				"x": -3.8662688373,
				"y": 0.6545286776,
				"z": 0.3961107846,
				"element": "O" 
			},
			{
				"x": -1.6277467789,
				"y": 0.5267563409,
				"z": -0.053318564,
				"element": "N" 
			},
			{
				"x": -1.3431722507,
				"y": 1.6592611576,
				"z": 0.8331906999,
				"element": "C" 
			},
			{
				"x": 0.0184418781,
				"y": 1.4696626241,
				"z": 1.5041540393,
				"element": "C" 
			},
			{
				"x": 1.159506456,
				"y": 1.3908445489,
				"z": 0.47524525,
				"element": "C" 
			},
			{
				"x": 0.6651400845,
				"y": 0.8161140462,
				"z": -0.8681370329,
				"element": "C" 
			},
			{
				"x": -0.4991617709,
				"y": -0.1612762511,
				"z": -0.691098314,
				"element": "C" 
			},
			{
				"x": 2.1611771471,
				"y": 0.5437196678,
				"z": 1.0768008536,
				"element": "O" 
			},
			{
				"x": 3.4461803273,
				"y": 0.5757112265,
				"z": 0.6479102371,
				"element": "C" 
			},
			{
				"x": 4.3257095567,
				"y": -0.2875322321,
				"z": 1.3302052459,
				"element": "C" 
			},
			{
				"x": 5.6669940266,
				"y": -0.3344482471,
				"z": 0.991922359,
				"element": "C" 
			},
			{
				"x": 6.1375983877,
				"y": 0.4859461228,
				"z": -0.0381731255,
				"element": "C" 
			},
			{
				"x": 5.2842491766,
				"y": 1.343597352,
				"z": -0.7268293704,
				"element": "C" 
			},
			{
				"x": 3.9346872032,
				"y": 1.3904324429,
				"z": -0.3884734528,
				"element": "C" 
			},
			{
				"x": 7.5526780667,
				"y": 0.4404248724,
				"z": -0.4016451619,
				"element": "N" 
			},
			{
				"x": 7.9355270964,
				"y": 1.1740487448,
				"z": -1.3153949387,
				"element": "O" 
			},
			{
				"x": 8.2813292078,
				"y": -0.3294466753,
				"z": 0.2271932951,
				"element": "O" 
			},
			{
				"x": -6.1295555901,
				"y": -1.1682180153,
				"z": -2.2727788591,
				"element": "H" 
			},
			{
				"x": -5.4757399331,
				"y": 0.1888882964,
				"z": -1.328488747,
				"element": "H" 
			},
			{
				"x": -4.7105737944,
				"y": -0.2861934665,
				"z": -2.8621285138,
				"element": "H" 
			},
			{
				"x": -5.1975331076,
				"y": -1.3157967218,
				"z": 0.740447956,
				"element": "H" 
			},
			{
				"x": -4.250125797,
				"y": -2.815071512,
				"z": 0.6085656793,
				"element": "H" 
			},
			{
				"x": -5.8491683194,
				"y": -2.7117617767,
				"z": -0.1477800179,
				"element": "H" 
			},
			{
				"x": -4.8045474247,
				"y": -3.3793047609,
				"z": -2.4070383185,
				"element": "H" 
			},
			{
				"x": -3.4245167893,
				"y": -2.45365355,
				"z": -3.0302869519,
				"element": "H" 
			},
			{
				"x": -3.2262366744,
				"y": -3.4881342163,
				"z": -1.6020204464,
				"element": "H" 
			},
			{
				"x": -2.1412797538,
				"y": 1.7108589283,
				"z": 1.5748340731,
				"element": "H" 
			},
			{
				"x": -1.3690291679,
				"y": 2.6069012779,
				"z": 0.2742768111,
				"element": "H" 
			},
			{
				"x": 0.2030648399,
				"y": 2.2757916119,
				"z": 2.2202610707,
				"element": "H" 
			},
			{
				"x": 0.0120095647,
				"y": 0.5314080108,
				"z": 2.0689947229,
				"element": "H" 
			},
			{
				"x": 1.5924312848,
				"y": 2.3856615291,
				"z": 0.3190207665,
				"element": "H" 
			},
			{
				"x": 1.4886542643,
				"y": 0.3174366967,
				"z": -1.3874423571,
				"element": "H" 
			},
			{
				"x": 0.3395378882,
				"y": 1.6443027221,
				"z": -1.5089325363,
				"element": "H" 
			},
			{
				"x": -0.8219491191,
				"y": -0.5460339405,
				"z": -1.6591326742,
				"element": "H" 
			},
			{
				"x": -0.1747591227,
				"y": -1.025015682,
				"z": -0.0929408717,
				"element": "H" 
			},
			{
				"x": 3.9251628799,
				"y": -0.9063560132,
				"z": 2.1256213569,
				"element": "H" 
			},
			{
				"x": 6.358497488,
				"y": -0.9896180025,
				"z": 1.5066995266,
				"element": "H" 
			},
			{
				"x": 5.684165322,
				"y": 1.9617428338,
				"z": -1.5209937626,
				"element": "H" 
			},
			{
				"x": 3.2790176584,
				"y": 2.0552050817,
				"z": -0.9362619525,
				"element": "H" 
			}
		],
		 "valence_orbital": [ 
			{
				"type": "occ",
				"energy": -0.28352,
				"method": "rhf"
			},
			{
				"type": "occ",
				"energy": -0.28015,
				"method": "rhf"
			},
			{
				"type": "occ",
				"energy": -0.26306,
				"method": "rhf"
			},
			{
				"type": "occ",
				"energy": -0.24902,
				"method": "rhf"
			},
			{
				"type": "occ",
				"energy": -0.24065,
				"method": "rhf"
			},
			{
				"type": "unocc",
				"energy": -0.08082,
				"method": "rhf"
			},
			{
				"type": "unocc",
				"energy": -0.02888,
				"method": "rhf"
			},
			{
				"type": "unocc",
				"energy": 0.01169,
				"method": "rhf"
			},
			{
				"type": "unocc",
				"energy": 0.04992,
				"method": "rhf"
			},
			{
				"type": "unocc",
				"energy": 0.06306,
				"method": "rhf"
			}
		],
		"cosmo_sigma_profile": { 
			"-0.025": 0.0,
			"-0.024": 0.0,
			"-0.023": 0.0,
			"-0.022": 0.0,
			"-0.021": 0.0,
			"-0.02": 0.0,
			"-0.019": 0.0,
			"-0.018": 0.0,
			"-0.017": 0.0,
			"-0.016": 0.0,
			"-0.015": 0.0,
			"-0.014": 0.0,
			"-0.013": 0.0,
			"-0.012": 0.0,
			"-0.011": 0.0,
			"-0.01": 0.0,
			"-0.009": 0.326207949303,
			"-0.008": 2.97554748419,
			"-0.007": 7.99172212587,
			"-0.006": 11.3268580283,
			"-0.005": 19.8417158726,
			"-0.004": 36.0378307201,
			"-0.003": 41.9243796676,
			"-0.002": 34.6695248097,
			"-0.001": 33.9228546629,
			"0.0": 39.7964372762,
			"0.001": 40.2065599472,
			"0.002": 21.9853898111,
			"0.003": 11.7255052869,
			"0.004": 8.79594294388,
			"0.005": 7.1179459147,
			"0.006": 7.20961336325,
			"0.007": 9.21413736434,
			"0.008": 11.6529103358,
			"0.009": 7.14724391225,
			"0.01": 5.86543655516,
			"0.011": 2.37554692827,
			"0.012": 1.71979394864,
			"0.013": 2.80900215622,
			"0.014": 2.06948336642,
			"0.015": 0.01209882332,
			"0.016": 0.0,
			"0.017": 0.0,
			"0.018": 0.0,
			"0.019": 0.0,
			"0.02": 0.0,
			"0.021": 0.0,
			"0.022": 0.0,
			"0.023": 0.0,
			"0.024": 0.0,
			"0.025": 0.0
		}
	}
}
