{
	 "smiles": "CCN1N=CC=C1C=CC(O)=O", 
	 "Tm": 425.15, 
	 "num_atms": 22, 
	 "gaussian": { 
		 "optdone": 1, 
		 "sigma_profile": "yes", 
		 "theory": "DFT", 
		 "functional": "B3LYP", 
		 "basiset": "6-31G**", 
		 "properties": { 
			 "R2extent": 2938.783, 
			 "electric_dipole_moment_norm": 5.17630210189, 
			 "electric_quadrupole_moment_norm": 22.5220463509, 
			 "total_energy": -570.799388117, 
			 "HOMO_LUMO_gap": 0.17672, 
			 "cosmo_polarized_energy": -15.46, 
			 "cosmo_cavitation_energy": 26.31, 
			 "cosmo_dispersion_energy": -18.77, 
			 "cosmo_repulsion_energy": 1.51, 
			 "cosmo_total_nonelectrostatic_energy": 9.05, 
			 "SMD_solvation_energy": 5.04 
		},
		"coords": [
			{
				"x": -0.7404253115,
				"y": -0.3435963952,
				"z": -3.6613659929,
				"element": "C" 
			},
			{
				"x": -1.5352959678,
				"y": 0.2889351925,
				"z": -2.5176553197,
				"element": "C" 
			},
			{
				"x": -0.758931003,
				"y": 0.3855804613,
				"z": -1.2819391491,
				"element": "N" 
			},
			{
				"x": 0.0795308977,
				"y": 1.4272895423,
				"z": -1.129217971,
				"element": "N" 
			},
			{
				"x": 0.662226149,
				"y": 1.2376161965,
				"z": 0.055337661,
				"element": "C" 
			},
			{
				"x": 0.1957314759,
				"y": 0.0692595706,
				"z": 0.6832952834,
				"element": "C" 
			},
			{
				"x": -0.7348992891,
				"y": -0.4727877666,
				"z": -0.2085966427,
				"element": "C" 
			},
			{
				"x": -1.511638989,
				"y": -1.7089957608,
				"z": -0.1916076556,
				"element": "C" 
			},
			{
				"x": -2.0658092616,
				"y": -2.3630960503,
				"z": 0.8490474902,
				"element": "C" 
			},
			{
				"x": -2.1501161285,
				"y": -2.0134136128,
				"z": 2.2977746321,
				"element": "C" 
			},
			{
				"x": -1.9094410592,
				"y": -0.7393952886,
				"z": 2.6876334131,
				"element": "O" 
			},
			{
				"x": -2.4652609661,
				"y": -2.8493642526,
				"z": 3.1150665164,
				"element": "O" 
			},
			{
				"x": 0.1684515223,
				"y": 0.2325936511,
				"z": -3.852222002,
				"element": "H" 
			},
			{
				"x": -0.4521019271,
				"y": -1.3734294877,
				"z": -3.4282682704,
				"element": "H" 
			},
			{
				"x": -1.3433919646,
				"y": -0.3552011515,
				"z": -4.5745368589,
				"element": "H" 
			},
			{
				"x": -2.4446788714,
				"y": -0.2772144642,
				"z": -2.3011691916,
				"element": "H" 
			},
			{
				"x": -1.832036293,
				"y": 1.308404499,
				"z": -2.7737769354,
				"element": "H" 
			},
			{
				"x": 1.3953929829,
				"y": 1.9472924092,
				"z": 0.4137069108,
				"element": "H" 
			},
			{
				"x": 0.5188815797,
				"y": -0.3552029095,
				"z": 1.6218362253,
				"element": "H" 
			},
			{
				"x": -1.6382990343,
				"y": -2.1798151996,
				"z": -1.1651794197,
				"element": "H" 
			},
			{
				"x": -2.5382002343,
				"y": -3.3203090171,
				"z": 0.6530067191,
				"element": "H" 
			},
			{
				"x": -1.677288307,
				"y": -0.177150166,
				"z": 1.9303305575,
				"element": "H" 
			}
		],
		 "valence_orbital": [ 
			{
				"type": "occ",
				"energy": -0.31164,
				"method": "rhf"
			},
			{
				"type": "occ",
				"energy": -0.30057,
				"method": "rhf"
			},
			{
				"type": "occ",
				"energy": -0.27338,
				"method": "rhf"
			},
			{
				"type": "occ",
				"energy": -0.26669,
				"method": "rhf"
			},
			{
				"type": "occ",
				"energy": -0.2506,
				"method": "rhf"
			},
			{
				"type": "unocc",
				"energy": -0.07388,
				"method": "rhf"
			},
			{
				"type": "unocc",
				"energy": 0.00947,
				"method": "rhf"
			},
			{
				"type": "unocc",
				"energy": 0.04737,
				"method": "rhf"
			},
			{
				"type": "unocc",
				"energy": 0.06349,
				"method": "rhf"
			},
			{
				"type": "unocc",
				"energy": 0.08642,
				"method": "rhf"
			}
		],
		"cosmo_sigma_profile": { 
			"-0.025": 0.0,
			"-0.024": 0.0,
			"-0.023": 0.0,
			"-0.022": 0.0,
			"-0.021": 0.0,
			"-0.02": 0.0,
			"-0.019": 0.0,
			"-0.018": 0.0,
			"-0.017": 0.0,
			"-0.016": 0.0,
			"-0.015": 0.0,
			"-0.014": 0.0,
			"-0.013": 0.100496390827,
			"-0.012": 1.0676905649,
			"-0.011": 0.572055472229,
			"-0.01": 0.993667112043,
			"-0.009": 1.24692897161,
			"-0.008": 5.99821725713,
			"-0.007": 12.0202959978,
			"-0.006": 12.742648496,
			"-0.005": 13.6939183859,
			"-0.004": 18.7779229864,
			"-0.003": 18.1695133459,
			"-0.002": 15.3063910324,
			"-0.001": 14.6813126708,
			"0.0": 15.7479814237,
			"0.001": 11.2825535793,
			"0.002": 9.94434496484,
			"0.003": 8.33945629767,
			"0.004": 5.61992327159,
			"0.005": 4.23569078464,
			"0.006": 3.58718018541,
			"0.007": 4.14684032117,
			"0.008": 2.82567803078,
			"0.009": 4.34402369853,
			"0.01": 5.90766074578,
			"0.011": 6.2186878854,
			"0.012": 6.16838947862,
			"0.013": 4.04741687094,
			"0.014": 1.04377930554,
			"0.015": 0.590555647717,
			"0.016": 0.00498204447785,
			"0.017": 0.0,
			"0.018": 0.0,
			"0.019": 0.0,
			"0.02": 0.0,
			"0.021": 0.0,
			"0.022": 0.0,
			"0.023": 0.0,
			"0.024": 0.0,
			"0.025": 0.0
		}
	}
}
