{
	 "smiles": "OC1=C(F)C(F)=CC(F)=C1", 
	 "Tm": 302.15, 
	 "num_atms": 13, 
	 "gaussian": { 
		 "optdone": 1, 
		 "sigma_profile": "yes", 
		 "theory": "DFT", 
		 "functional": "B3LYP", 
		 "basiset": "6-31G**", 
		 "properties": { 
			 "R2extent": 2214.7357, 
			 "electric_dipole_moment_norm": 2.60412973179, 
			 "electric_quadrupole_moment_norm": 13.4159547554, 
			 "total_energy": -605.150813533, 
			 "HOMO_LUMO_gap": 0.22636, 
			 "cosmo_polarized_energy": -8.69, 
			 "cosmo_cavitation_energy": 19.32, 
			 "cosmo_dispersion_energy": -14.03, 
			 "cosmo_repulsion_energy": 1.07, 
			 "cosmo_total_nonelectrostatic_energy": 6.37, 
			 "SMD_solvation_energy": 5.35 
		},
		"coords": [
			{
				"x": -3.4252469899,
				"y": -0.1263080983,
				"z": -1.6460010456,
				"element": "O" 
			},
			{
				"x": -2.3678198435,
				"y": -0.535378469,
				"z": -0.8985033972,
				"element": "C" 
			},
			{
				"x": -2.5239144099,
				"y": -0.4951956721,
				"z": 0.4931726344,
				"element": "C" 
			},
			{
				"x": -3.6776954617,
				"y": -0.0670060743,
				"z": 1.0281440618,
				"element": "F" 
			},
			{
				"x": -1.4795330731,
				"y": -0.9003998429,
				"z": 1.3173967777,
				"element": "C" 
			},
			{
				"x": -1.6612657068,
				"y": -0.8497177925,
				"z": 2.6453711868,
				"element": "F" 
			},
			{
				"x": -0.2680909399,
				"y": -1.3506005283,
				"z": 0.801423824,
				"element": "C" 
			},
			{
				"x": -0.1402984089,
				"y": -1.3802258707,
				"z": -0.581010865,
				"element": "C" 
			},
			{
				"x": 1.0183847512,
				"y": -1.8102810272,
				"z": -1.1161952257,
				"element": "F" 
			},
			{
				"x": -1.1589037722,
				"y": -0.9842741496,
				"z": -1.441203978,
				"element": "C" 
			},
			{
				"x": -3.1998163034,
				"y": -0.1987811922,
				"z": -2.5823617938,
				"element": "H" 
			},
			{
				"x": 0.5352831505,
				"y": -1.6625628678,
				"z": 1.4560632578,
				"element": "H" 
			},
			{
				"x": -1.0050829925,
				"y": -1.0278684151,
				"z": -2.514495437,
				"element": "H" 
			}
		],
		 "valence_orbital": [ 
			{
				"type": "occ",
				"energy": -0.37686,
				"method": "rhf"
			},
			{
				"type": "occ",
				"energy": -0.37127,
				"method": "rhf"
			},
			{
				"type": "occ",
				"energy": -0.33441,
				"method": "rhf"
			},
			{
				"type": "occ",
				"energy": -0.25436,
				"method": "rhf"
			},
			{
				"type": "occ",
				"energy": -0.23762,
				"method": "rhf"
			},
			{
				"type": "unocc",
				"energy": -0.01126,
				"method": "rhf"
			},
			{
				"type": "unocc",
				"energy": -0.00217,
				"method": "rhf"
			},
			{
				"type": "unocc",
				"energy": 0.04559,
				"method": "rhf"
			},
			{
				"type": "unocc",
				"energy": 0.06028,
				"method": "rhf"
			},
			{
				"type": "unocc",
				"energy": 0.13419,
				"method": "rhf"
			}
		],
		"cosmo_sigma_profile": { 
			"-0.025": 0.0,
			"-0.024": 0.0,
			"-0.023": 0.0,
			"-0.022": 0.0,
			"-0.021": 0.0,
			"-0.02": 0.0441686116027,
			"-0.019": 0.838701212329,
			"-0.018": 1.11475287357,
			"-0.017": 1.2692771326,
			"-0.016": 0.882543574466,
			"-0.015": 1.20488814246,
			"-0.014": 0.975782130211,
			"-0.013": 1.1321812412,
			"-0.012": 0.953238791676,
			"-0.011": 1.1815557642,
			"-0.01": 1.0919442094,
			"-0.009": 2.42709075361,
			"-0.008": 2.78223290943,
			"-0.007": 2.70133779607,
			"-0.006": 3.97297340968,
			"-0.005": 2.80212969996,
			"-0.004": 2.9524930364,
			"-0.003": 2.73559666813,
			"-0.002": 4.46452091163,
			"-0.001": 12.0751451987,
			"0.0": 19.5723951027,
			"0.001": 19.1372726026,
			"0.002": 12.5835223563,
			"0.003": 20.2388881831,
			"0.004": 23.743627396,
			"0.005": 3.72705873778,
			"0.006": 2.02520625107,
			"0.007": 1.44300617813,
			"0.008": 1.6661453281,
			"0.009": 2.24178913739,
			"0.01": 1.62976217694,
			"0.011": 0.24789350249,
			"0.012": 0.0,
			"0.013": 0.0,
			"0.014": 0.0,
			"0.015": 0.0,
			"0.016": 0.0,
			"0.017": 0.0,
			"0.018": 0.0,
			"0.019": 0.0,
			"0.02": 0.0,
			"0.021": 0.0,
			"0.022": 0.0,
			"0.023": 0.0,
			"0.024": 0.0,
			"0.025": 0.0
		}
	}
}
