{
	 "smiles": "CC1=C2C(CC(O)=O)=CNC2=CC=C1", 
	 "Tm": 423.15, 
	 "num_atms": 25, 
	 "gaussian": { 
		 "optdone": 1, 
		 "sigma_profile": "yes", 
		 "theory": "DFT", 
		 "functional": "B3LYP", 
		 "basiset": "6-31G**", 
		 "properties": { 
			 "R2extent": 3425.8126, 
			 "electric_dipole_moment_norm": 2.61723129662, 
			 "electric_quadrupole_moment_norm": 14.4359851288, 
			 "total_energy": -631.025336281, 
			 "HOMO_LUMO_gap": 0.19079, 
			 "cosmo_polarized_energy": -15.91, 
			 "cosmo_cavitation_energy": 28.4, 
			 "cosmo_dispersion_energy": -20.7, 
			 "cosmo_repulsion_energy": 1.63, 
			 "cosmo_total_nonelectrostatic_energy": 9.32, 
			 "SMD_solvation_energy": 5.75 
		},
		"coords": [
			{
				"x": -2.3223855599,
				"y": 0.2598257653,
				"z": -0.8530108978,
				"element": "C" 
			},
			{
				"x": -0.8561206557,
				"y": -0.0089827608,
				"z": -0.6165365898,
				"element": "C" 
			},
			{
				"x": -0.3063442165,
				"y": -0.1116567625,
				"z": 0.6865384791,
				"element": "C" 
			},
			{
				"x": -0.8429296326,
				"y": -0.0305423668,
				"z": 2.0301202211,
				"element": "C" 
			},
			{
				"x": -2.2514242128,
				"y": 0.1962873164,
				"z": 2.4993737564,
				"element": "C" 
			},
			{
				"x": -2.7203050941,
				"y": 1.6432062642,
				"z": 2.457832474,
				"element": "C" 
			},
			{
				"x": -3.7371594968,
				"y": 1.8468121372,
				"z": 3.3344823993,
				"element": "O" 
			},
			{
				"x": -2.3007185045,
				"y": 2.5228074625,
				"z": 1.7400029727,
				"element": "O" 
			},
			{
				"x": 0.211933031,
				"y": -0.2279474282,
				"z": 2.8868070487,
				"element": "C" 
			},
			{
				"x": 1.3725272465,
				"y": -0.4232151025,
				"z": 2.1709284585,
				"element": "N" 
			},
			{
				"x": 1.0889497516,
				"y": -0.3605457092,
				"z": 0.8224396244,
				"element": "C" 
			},
			{
				"x": 1.9511723002,
				"y": -0.5089397135,
				"z": -0.2696967205,
				"element": "C" 
			},
			{
				"x": 1.3901680393,
				"y": -0.4043917999,
				"z": -1.5330660486,
				"element": "C" 
			},
			{
				"x": 0.0121674178,
				"y": -0.1595213307,
				"z": -1.695173238,
				"element": "C" 
			},
			{
				"x": -2.5289910334,
				"y": 0.3632584358,
				"z": -1.9218212414,
				"element": "H" 
			},
			{
				"x": -2.6373436991,
				"y": 1.1818187623,
				"z": -0.354719298,
				"element": "H" 
			},
			{
				"x": -2.952435433,
				"y": -0.5563436582,
				"z": -0.4779619773,
				"element": "H" 
			},
			{
				"x": -2.9732583695,
				"y": -0.3741352722,
				"z": 1.9011349846,
				"element": "H" 
			},
			{
				"x": -2.3754829159,
				"y": -0.1621416315,
				"z": 3.525938079,
				"element": "H" 
			},
			{
				"x": -4.0051164263,
				"y": 2.7744758818,
				"z": 3.2209949311,
				"element": "H" 
			},
			{
				"x": 0.2196774568,
				"y": -0.2470001871,
				"z": 3.968012427,
				"element": "H" 
			},
			{
				"x": 2.2822938806,
				"y": -0.5906559679,
				"z": 2.5674348375,
				"element": "H" 
			},
			{
				"x": 3.0121753907,
				"y": -0.6967354505,
				"z": -0.1310807186,
				"element": "H" 
			},
			{
				"x": 2.0189422301,
				"y": -0.5111995074,
				"z": -2.412246849,
				"element": "H" 
			},
			{
				"x": -0.3905914946,
				"y": -0.0809373766,
				"z": -2.7017271143,
				"element": "H" 
			}
		],
		 "valence_orbital": [ 
			{
				"type": "occ",
				"energy": -0.31507,
				"method": "rhf"
			},
			{
				"type": "occ",
				"energy": -0.27506,
				"method": "rhf"
			},
			{
				"type": "occ",
				"energy": -0.25969,
				"method": "rhf"
			},
			{
				"type": "occ",
				"energy": -0.21407,
				"method": "rhf"
			},
			{
				"type": "occ",
				"energy": -0.1936,
				"method": "rhf"
			},
			{
				"type": "unocc",
				"energy": -0.00281,
				"method": "rhf"
			},
			{
				"type": "unocc",
				"energy": 0.01221,
				"method": "rhf"
			},
			{
				"type": "unocc",
				"energy": 0.03712,
				"method": "rhf"
			},
			{
				"type": "unocc",
				"energy": 0.06459,
				"method": "rhf"
			},
			{
				"type": "unocc",
				"energy": 0.07866,
				"method": "rhf"
			}
		],
		"cosmo_sigma_profile": { 
			"-0.025": 0.0,
			"-0.024": 0.0,
			"-0.023": 0.0,
			"-0.022": 0.0,
			"-0.021": 0.0,
			"-0.02": 0.0,
			"-0.019": 0.0,
			"-0.018": 0.510415778764,
			"-0.017": 0.980781275943,
			"-0.016": 1.17859567975,
			"-0.015": 2.32320645344,
			"-0.014": 1.70235444394,
			"-0.013": 2.36619367969,
			"-0.012": 1.89147038019,
			"-0.011": 1.92205620632,
			"-0.01": 1.92068622922,
			"-0.009": 1.99769423685,
			"-0.008": 3.42371719,
			"-0.007": 4.67268206236,
			"-0.006": 10.7925987929,
			"-0.005": 11.8826665457,
			"-0.004": 14.7067487012,
			"-0.003": 16.7460802541,
			"-0.002": 13.783182104,
			"-0.001": 14.4665442823,
			"0.0": 14.8920043729,
			"0.001": 12.6448503938,
			"0.002": 10.2449358438,
			"0.003": 9.55821433908,
			"0.004": 10.7495078479,
			"0.005": 14.0132384797,
			"0.006": 12.8143800854,
			"0.007": 11.3240556519,
			"0.008": 5.96619684506,
			"0.009": 4.04252754975,
			"0.01": 3.35648837447,
			"0.011": 3.58839289828,
			"0.012": 4.53012553458,
			"0.013": 0.398337907646,
			"0.014": 0.0,
			"0.015": 0.0,
			"0.016": 0.0,
			"0.017": 0.0,
			"0.018": 0.0,
			"0.019": 0.0,
			"0.02": 0.0,
			"0.021": 0.0,
			"0.022": 0.0,
			"0.023": 0.0,
			"0.024": 0.0,
			"0.025": 0.0
		}
	}
}
