{
	 "smiles": "CCS(=O)(=O)C1=CC=C(CC(O)=O)C=C1", 
	 "Tm": 327.15, 
	 "num_atms": 27, 
	 "gaussian": { 
		 "optdone": 1, 
		 "sigma_profile": "yes", 
		 "theory": "DFT", 
		 "functional": "B3LYP", 
		 "basiset": "6-31G**", 
		 "properties": { 
			 "R2extent": 4888.9336, 
			 "electric_dipole_moment_norm": 5.32719012895, 
			 "electric_quadrupole_moment_norm": 17.9273340073, 
			 "total_energy": -1087.33891516, 
			 "HOMO_LUMO_gap": 0.2242, 
			 "cosmo_polarized_energy": -20.12, 
			 "cosmo_cavitation_energy": 32.62, 
			 "cosmo_dispersion_energy": -23.47, 
			 "cosmo_repulsion_energy": 1.81, 
			 "cosmo_total_nonelectrostatic_energy": 10.96, 
			 "SMD_solvation_energy": 6.03 
		},
		"coords": [
			{
				"x": -0.592769008,
				"y": 2.1802134134,
				"z": -3.1521530295,
				"element": "C" 
			},
			{
				"x": 0.4042192043,
				"y": 1.0667221529,
				"z": -3.4504114978,
				"element": "C" 
			},
			{
				"x": 0.009810291,
				"y": -0.515427172,
				"z": -2.6336958721,
				"element": "S" 
			},
			{
				"x": 1.030798982,
				"y": -1.4820619065,
				"z": -3.0709014129,
				"element": "O" 
			},
			{
				"x": -1.4266904348,
				"y": -0.7782775717,
				"z": -2.8308585167,
				"element": "O" 
			},
			{
				"x": 0.269820707,
				"y": -0.1968764131,
				"z": -0.8798433648,
				"element": "C" 
			},
			{
				"x": -0.8200714352,
				"y": 0.1297262682,
				"z": -0.0736716363,
				"element": "C" 
			},
			{
				"x": -0.6101999614,
				"y": 0.3705710269,
				"z": 1.2847341943,
				"element": "C" 
			},
			{
				"x": 0.6737805959,
				"y": 0.2899287801,
				"z": 1.8359030253,
				"element": "C" 
			},
			{
				"x": 0.8923856521,
				"y": 0.5745753897,
				"z": 3.3138213309,
				"element": "C" 
			},
			{
				"x": 1.5383632498,
				"y": -0.6020973869,
				"z": 4.0274471349,
				"element": "C" 
			},
			{
				"x": 0.6623022153,
				"y": -1.2574990508,
				"z": 4.8196411236,
				"element": "O" 
			},
			{
				"x": 2.695710401,
				"y": -0.937774577,
				"z": 3.9036538701,
				"element": "O" 
			},
			{
				"x": 1.7548079287,
				"y": -0.0542291586,
				"z": 1.0095802328,
				"element": "C" 
			},
			{
				"x": 1.5570777643,
				"y": -0.3026066013,
				"z": -0.3460942337,
				"element": "C" 
			},
			{
				"x": -0.3252437576,
				"y": 3.0752320888,
				"z": -3.7218952246,
				"element": "H" 
			},
			{
				"x": -0.5935686306,
				"y": 2.4449530073,
				"z": -2.0908560415,
				"element": "H" 
			},
			{
				"x": -1.6032930746,
				"y": 1.8774039302,
				"z": -3.4357527919,
				"element": "H" 
			},
			{
				"x": 0.4161427658,
				"y": 0.7976885914,
				"z": -4.511554599,
				"element": "H" 
			},
			{
				"x": 1.4266906553,
				"y": 1.3151232886,
				"z": -3.1522577808,
				"element": "H" 
			},
			{
				"x": -1.8144208807,
				"y": 0.1696856281,
				"z": -0.5050135388,
				"element": "H" 
			},
			{
				"x": -1.4548720908,
				"y": 0.6187766345,
				"z": 1.9213826009,
				"element": "H" 
			},
			{
				"x": -0.0533582776,
				"y": 0.825268025,
				"z": 3.7973076926,
				"element": "H" 
			},
			{
				"x": 1.5761469572,
				"y": 1.422763363,
				"z": 3.4293832407,
				"element": "H" 
			},
			{
				"x": 1.1510753731,
				"y": -2.000903659,
				"z": 5.2131652495,
				"element": "H" 
			},
			{
				"x": 2.7454564092,
				"y": -0.1493383445,
				"z": 1.4424986585,
				"element": "H" 
			},
			{
				"x": 2.3839983994,
				"y": -0.5986397464,
				"z": -0.9832588137,
				"element": "H" 
			}
		],
		 "valence_orbital": [ 
			{
				"type": "occ",
				"energy": -0.29425,
				"method": "rhf"
			},
			{
				"type": "occ",
				"energy": -0.29152,
				"method": "rhf"
			},
			{
				"type": "occ",
				"energy": -0.28022,
				"method": "rhf"
			},
			{
				"type": "occ",
				"energy": -0.27349,
				"method": "rhf"
			},
			{
				"type": "occ",
				"energy": -0.26899,
				"method": "rhf"
			},
			{
				"type": "unocc",
				"energy": -0.04479,
				"method": "rhf"
			},
			{
				"type": "unocc",
				"energy": -0.02586,
				"method": "rhf"
			},
			{
				"type": "unocc",
				"energy": -0.00216,
				"method": "rhf"
			},
			{
				"type": "unocc",
				"energy": 0.0655,
				"method": "rhf"
			},
			{
				"type": "unocc",
				"energy": 0.06853,
				"method": "rhf"
			}
		],
		"cosmo_sigma_profile": { 
			"-0.025": 0.0,
			"-0.024": 0.0,
			"-0.023": 0.0,
			"-0.022": 0.0,
			"-0.021": 0.0,
			"-0.02": 0.0,
			"-0.019": 0.081679546804,
			"-0.018": 0.794338613257,
			"-0.017": 1.29616560082,
			"-0.016": 0.933984898123,
			"-0.015": 0.316512732293,
			"-0.014": 0.582939866815,
			"-0.013": 0.750065614796,
			"-0.012": 1.04715131611,
			"-0.011": 0.639472389507,
			"-0.01": 0.76431742678,
			"-0.009": 0.735568581238,
			"-0.008": 5.52947171718,
			"-0.007": 14.0364272489,
			"-0.006": 15.7516566447,
			"-0.005": 18.1285157253,
			"-0.004": 21.196821056,
			"-0.003": 21.4429352672,
			"-0.002": 17.812797133,
			"-0.001": 17.791458456,
			"0.0": 15.3382342605,
			"0.001": 13.4350810256,
			"0.002": 15.9696357884,
			"0.003": 11.3716637848,
			"0.004": 5.12990535809,
			"0.005": 4.59790874641,
			"0.006": 5.35324144681,
			"0.007": 5.08720082916,
			"0.008": 5.71849506749,
			"0.009": 5.53004732604,
			"0.01": 6.71684218822,
			"0.011": 12.0899303115,
			"0.012": 10.6953374514,
			"0.013": 1.79922491569,
			"0.014": 0.0,
			"0.015": 0.0,
			"0.016": 0.0,
			"0.017": 0.0,
			"0.018": 0.0,
			"0.019": 0.0,
			"0.02": 0.0,
			"0.021": 0.0,
			"0.022": 0.0,
			"0.023": 0.0,
			"0.024": 0.0,
			"0.025": 0.0
		}
	}
}
