{
	 "smiles": "CC(C)(C)CC1=NC2=C(O1)C=CC(N)=C2", 
	 "Tm": 357.15, 
	 "num_atms": 31, 
	 "gaussian": { 
		 "optdone": 1, 
		 "sigma_profile": "yes", 
		 "theory": "DFT", 
		 "functional": "B3LYP", 
		 "basiset": "6-31G**", 
		 "properties": { 
			 "R2extent": 4844.5537, 
			 "electric_dipole_moment_norm": 1.74639812471, 
			 "electric_quadrupole_moment_norm": 16.4421591742, 
			 "total_energy": -651.669603817, 
			 "HOMO_LUMO_gap": 0.1785, 
			 "cosmo_polarized_energy": -11.25, 
			 "cosmo_cavitation_energy": 33.25, 
			 "cosmo_dispersion_energy": -23.69, 
			 "cosmo_repulsion_energy": 1.84, 
			 "cosmo_total_nonelectrostatic_energy": 11.4, 
			 "SMD_solvation_energy": 3.95 
		},
		"coords": [
			{
				"x": -3.7835760018,
				"y": 0.0335341247,
				"z": 0.1290292983,
				"element": "C" 
			},
			{
				"x": -2.3540620578,
				"y": -0.4958042836,
				"z": -0.0937827793,
				"element": "C" 
			},
			{
				"x": -2.3740645577,
				"y": -1.5690715011,
				"z": -1.1978368257,
				"element": "C" 
			},
			{
				"x": -1.8214386741,
				"y": -1.10114213,
				"z": 1.2175700592,
				"element": "C" 
			},
			{
				"x": -1.4699662716,
				"y": 0.7187443318,
				"z": -0.5237208473,
				"element": "C" 
			},
			{
				"x": -0.0477570781,
				"y": 0.4048612561,
				"z": -0.8468597769,
				"element": "C" 
			},
			{
				"x": 0.9712799964,
				"y": 0.3883709251,
				"z": -0.0427996993,
				"element": "N" 
			},
			{
				"x": 2.052169494,
				"y": 0.0254607556,
				"z": -0.8502966666,
				"element": "C" 
			},
			{
				"x": 1.5897971192,
				"y": -0.1617796096,
				"z": -2.1576597521,
				"element": "C" 
			},
			{
				"x": 0.2342147898,
				"y": 0.0836007115,
				"z": -2.1570061968,
				"element": "O" 
			},
			{
				"x": 2.4176998289,
				"y": -0.5280778846,
				"z": -3.2067888659,
				"element": "C" 
			},
			{
				"x": 3.7655483757,
				"y": -0.7074612407,
				"z": -2.896369425,
				"element": "C" 
			},
			{
				"x": 4.2667189658,
				"y": -0.5271952478,
				"z": -1.5834659636,
				"element": "C" 
			},
			{
				"x": 5.6424356037,
				"y": -0.6635444352,
				"z": -1.3476186535,
				"element": "N" 
			},
			{
				"x": 3.4011447513,
				"y": -0.1563821067,
				"z": -0.5435505684,
				"element": "C" 
			},
			{
				"x": -4.4483367199,
				"y": -0.7742688913,
				"z": 0.4538869063,
				"element": "H" 
			},
			{
				"x": -4.1998890085,
				"y": 0.4588546082,
				"z": -0.7913857663,
				"element": "H" 
			},
			{
				"x": -3.8042381666,
				"y": 0.8125029256,
				"z": 0.8996220204,
				"element": "H" 
			},
			{
				"x": -1.3803114939,
				"y": -1.9939101053,
				"z": -1.3685792923,
				"element": "H" 
			},
			{
				"x": -3.0444682382,
				"y": -2.3893960654,
				"z": -0.9187142644,
				"element": "H" 
			},
			{
				"x": -2.7270506588,
				"y": -1.1562518776,
				"z": -2.1494752357,
				"element": "H" 
			},
			{
				"x": -1.8373437227,
				"y": -0.3638036724,
				"z": 2.027904563,
				"element": "H" 
			},
			{
				"x": -0.7902308164,
				"y": -1.4490905031,
				"z": 1.1106247851,
				"element": "H" 
			},
			{
				"x": -2.4400859047,
				"y": -1.9516634808,
				"z": 1.5249117487,
				"element": "H" 
			},
			{
				"x": -1.4640020651,
				"y": 1.4534394218,
				"z": 0.2874581486,
				"element": "H" 
			},
			{
				"x": -1.9220853067,
				"y": 1.1926661036,
				"z": -1.4021183959,
				"element": "H" 
			},
			{
				"x": 2.0447313245,
				"y": -0.6703624604,
				"z": -4.2151096284,
				"element": "H" 
			},
			{
				"x": 4.4586875595,
				"y": -0.9870346185,
				"z": -3.6852959511,
				"element": "H" 
			},
			{
				"x": 5.8836972095,
				"y": -0.8645816452,
				"z": -0.3864245666,
				"element": "H" 
			},
			{
				"x": 6.1168580038,
				"y": -1.2925510308,
				"z": -1.9814527579,
				"element": "H" 
			},
			{
				"x": 3.7649237204,
				"y": -0.0099623735,
				"z": 0.4688043492,
				"element": "H" 
			}
		],
		 "valence_orbital": [ 
			{
				"type": "occ",
				"energy": -0.31518,
				"method": "rhf"
			},
			{
				"type": "occ",
				"energy": -0.29303,
				"method": "rhf"
			},
			{
				"type": "occ",
				"energy": -0.2772,
				"method": "rhf"
			},
			{
				"type": "occ",
				"energy": -0.22798,
				"method": "rhf"
			},
			{
				"type": "occ",
				"energy": -0.19672,
				"method": "rhf"
			},
			{
				"type": "unocc",
				"energy": -0.01822,
				"method": "rhf"
			},
			{
				"type": "unocc",
				"energy": 0.02661,
				"method": "rhf"
			},
			{
				"type": "unocc",
				"energy": 0.04678,
				"method": "rhf"
			},
			{
				"type": "unocc",
				"energy": 0.08021,
				"method": "rhf"
			},
			{
				"type": "unocc",
				"energy": 0.08533,
				"method": "rhf"
			}
		],
		"cosmo_sigma_profile": { 
			"-0.025": 0.0,
			"-0.024": 0.0,
			"-0.023": 0.0,
			"-0.022": 0.0,
			"-0.021": 0.0,
			"-0.02": 0.0,
			"-0.019": 0.0,
			"-0.018": 0.0,
			"-0.017": 0.0,
			"-0.016": 0.0,
			"-0.015": 0.0,
			"-0.014": 0.0,
			"-0.013": 0.0780381812653,
			"-0.012": 2.15744748924,
			"-0.011": 2.77056590604,
			"-0.01": 3.35053709949,
			"-0.009": 2.9600057229,
			"-0.008": 3.12806567309,
			"-0.007": 5.25956521361,
			"-0.006": 6.33391700436,
			"-0.005": 9.11769091649,
			"-0.004": 11.4370729006,
			"-0.003": 25.3902563671,
			"-0.002": 29.6461591604,
			"-0.001": 24.8339531654,
			"0.0": 22.0476595003,
			"0.001": 29.0060616056,
			"0.002": 18.7298529435,
			"0.003": 10.4937709943,
			"0.004": 12.9826138881,
			"0.005": 14.0508318251,
			"0.006": 7.22971168289,
			"0.007": 4.01854763423,
			"0.008": 3.24799769844,
			"0.009": 2.22398911098,
			"0.01": 1.27016856708,
			"0.011": 1.83455081756,
			"0.012": 1.75429009453,
			"0.013": 1.63588366621,
			"0.014": 1.27321061589,
			"0.015": 1.37075804399,
			"0.016": 0.871831857114,
			"0.017": 0.0853531273305,
			"0.018": 0.0,
			"0.019": 0.0,
			"0.02": 0.0,
			"0.021": 0.0,
			"0.022": 0.0,
			"0.023": 0.0,
			"0.024": 0.0,
			"0.025": 0.0
		}
	}
}
