{
	 "smiles": "O=CC1=NOC(=C1)C1=CC=CS1", 
	 "Tm": 339.15, 
	 "num_atms": 17, 
	 "gaussian": { 
		 "optdone": 1, 
		 "sigma_profile": "yes", 
		 "theory": "DFT", 
		 "functional": "B3LYP", 
		 "basiset": "6-31G**", 
		 "properties": { 
			 "R2extent": 2793.1173, 
			 "electric_dipole_moment_norm": 3.86196049824, 
			 "electric_quadrupole_moment_norm": 6.02206654895, 
			 "total_energy": -911.168023681, 
			 "HOMO_LUMO_gap": 0.15975, 
			 "cosmo_polarized_energy": -8.88, 
			 "cosmo_cavitation_energy": 24.7, 
			 "cosmo_dispersion_energy": -18.54, 
			 "cosmo_repulsion_energy": 1.41, 
			 "cosmo_total_nonelectrostatic_energy": 7.57, 
			 "SMD_solvation_energy": 5.15 
		},
		"coords": [
			{
				"x": -2.5394064745,
				"y": 3.2814765864,
				"z": 1.808540786,
				"element": "O" 
			},
			{
				"x": -2.4976409064,
				"y": 2.1430870477,
				"z": 2.2284189955,
				"element": "C" 
			},
			{
				"x": -1.6371305927,
				"y": 1.0984392179,
				"z": 1.631184387,
				"element": "C" 
			},
			{
				"x": -1.6479024895,
				"y": -0.1177954233,
				"z": 2.1460237895,
				"element": "N" 
			},
			{
				"x": -0.755802559,
				"y": -0.8463204857,
				"z": 1.3806013505,
				"element": "O" 
			},
			{
				"x": -0.2209637699,
				"y": -0.0479593552,
				"z": 0.4120172642,
				"element": "C" 
			},
			{
				"x": -0.7510714736,
				"y": 1.2088896385,
				"z": 0.5268883465,
				"element": "C" 
			},
			{
				"x": 0.7353844593,
				"y": -0.6650601562,
				"z": -0.4762305206,
				"element": "C" 
			},
			{
				"x": 1.1761505326,
				"y": -1.9708279209,
				"z": -0.4633392589,
				"element": "C" 
			},
			{
				"x": 2.1259783798,
				"y": -2.2449896456,
				"z": -1.4854658441,
				"element": "C" 
			},
			{
				"x": 2.3987223942,
				"y": -1.1513227134,
				"z": -2.2635407096,
				"element": "C" 
			},
			{
				"x": 1.4982391527,
				"y": 0.2402274835,
				"z": -1.7626961961,
				"element": "S" 
			},
			{
				"x": -3.1026439648,
				"y": 1.8030829534,
				"z": 3.0916973172,
				"element": "H" 
			},
			{
				"x": -0.5561052239,
				"y": 2.0867015597,
				"z": -0.068229236,
				"element": "H" 
			},
			{
				"x": 0.824079509,
				"y": -2.6979045159,
				"z": 0.2581654617,
				"element": "H" 
			},
			{
				"x": 2.5872765474,
				"y": -3.213836159,
				"z": -1.6363446728,
				"element": "H" 
			},
			{
				"x": 3.0754364791,
				"y": -1.0764881121,
				"z": -3.10339126,
				"element": "H" 
			}
		],
		 "valence_orbital": [ 
			{
				"type": "occ",
				"energy": -0.3139,
				"method": "rhf"
			},
			{
				"type": "occ",
				"energy": -0.30669,
				"method": "rhf"
			},
			{
				"type": "occ",
				"energy": -0.27227,
				"method": "rhf"
			},
			{
				"type": "occ",
				"energy": -0.27122,
				"method": "rhf"
			},
			{
				"type": "occ",
				"energy": -0.23545,
				"method": "rhf"
			},
			{
				"type": "unocc",
				"energy": -0.0757,
				"method": "rhf"
			},
			{
				"type": "unocc",
				"energy": -0.05855,
				"method": "rhf"
			},
			{
				"type": "unocc",
				"energy": 0.00763,
				"method": "rhf"
			},
			{
				"type": "unocc",
				"energy": 0.018,
				"method": "rhf"
			},
			{
				"type": "unocc",
				"energy": 0.06809,
				"method": "rhf"
			}
		],
		"cosmo_sigma_profile": { 
			"-0.025": 0.0,
			"-0.024": 0.0,
			"-0.023": 0.0,
			"-0.022": 0.0,
			"-0.021": 0.0,
			"-0.02": 0.0,
			"-0.019": 0.0,
			"-0.018": 0.0,
			"-0.017": 0.0,
			"-0.016": 0.0,
			"-0.015": 0.0,
			"-0.014": 0.0,
			"-0.013": 0.0,
			"-0.012": 0.0,
			"-0.011": 0.0,
			"-0.01": 0.39261513305,
			"-0.009": 3.78099984925,
			"-0.008": 7.01560154513,
			"-0.007": 10.3101557581,
			"-0.006": 9.43106221195,
			"-0.005": 11.1208106394,
			"-0.004": 11.3282876295,
			"-0.003": 9.88622920863,
			"-0.002": 13.181119349,
			"-0.001": 17.2932107438,
			"0.0": 19.1961849318,
			"0.001": 15.8735251559,
			"0.002": 16.5983746216,
			"0.003": 16.2043596729,
			"0.004": 8.51866437819,
			"0.005": 4.0285917651,
			"0.006": 5.82833106898,
			"0.007": 4.12028504951,
			"0.008": 3.18324638366,
			"0.009": 4.22905879212,
			"0.01": 5.53163140477,
			"0.011": 3.58845802694,
			"0.012": 1.24795241377,
			"0.013": 0.392762245952,
			"0.014": 0.0,
			"0.015": 0.0,
			"0.016": 0.0,
			"0.017": 0.0,
			"0.018": 0.0,
			"0.019": 0.0,
			"0.02": 0.0,
			"0.021": 0.0,
			"0.022": 0.0,
			"0.023": 0.0,
			"0.024": 0.0,
			"0.025": 0.0
		}
	}
}
