{
	 "smiles": "O=C(NC1(CC2=CC=CC=C2)COCOC1=O)C1=CC=CC=C1", 
	 "Tm": 450.15, 
	 "num_atms": 40, 
	 "gaussian": { 
		 "optdone": 1, 
		 "sigma_profile": "yes", 
		 "theory": "DFT", 
		 "functional": "B3LYP", 
		 "basiset": "6-31G**", 
		 "properties": { 
			 "R2extent": 7168.9724, 
			 "electric_dipole_moment_norm": 5.83611675689, 
			 "electric_quadrupole_moment_norm": 23.1899837594, 
			 "total_energy": -1051.79760547, 
			 "HOMO_LUMO_gap": 0.19996, 
			 "cosmo_polarized_energy": -19.66, 
			 "cosmo_cavitation_energy": 42.26, 
			 "cosmo_dispersion_energy": -28.05, 
			 "cosmo_repulsion_energy": 2.11, 
			 "cosmo_total_nonelectrostatic_energy": 16.32, 
			 "SMD_solvation_energy": 8.77 
		},
		"coords": [
			{
				"x": 3.5119966089,
				"y": 1.6079398573,
				"z": -0.15813953,
				"element": "O" 
			},
			{
				"x": 2.4423248536,
				"y": 1.1060431578,
				"z": 0.1618727861,
				"element": "C" 
			},
			{
				"x": 2.2067572123,
				"y": -0.2495060817,
				"z": -0.1237536554,
				"element": "N" 
			},
			{
				"x": 1.7586337656,
				"y": -1.3392777257,
				"z": 0.7799286989,
				"element": "C" 
			},
			{
				"x": 1.0037965731,
				"y": -2.4191585189,
				"z": -0.0479181743,
				"element": "C" 
			},
			{
				"x": -0.3093443287,
				"y": -1.9699977779,
				"z": -0.6497974551,
				"element": "C" 
			},
			{
				"x": -0.3436243477,
				"y": -1.3156041584,
				"z": -1.8906286211,
				"element": "C" 
			},
			{
				"x": -1.553913127,
				"y": -0.8968585523,
				"z": -2.4453881237,
				"element": "C" 
			},
			{
				"x": -2.7543749838,
				"y": -1.129135988,
				"z": -1.7701086573,
				"element": "C" 
			},
			{
				"x": -2.7361221862,
				"y": -1.7893333738,
				"z": -0.540667326,
				"element": "C" 
			},
			{
				"x": -1.5234880634,
				"y": -2.2074033696,
				"z": 0.0104600351,
				"element": "C" 
			},
			{
				"x": 0.9284435345,
				"y": -0.8732375513,
				"z": 1.9786719897,
				"element": "C" 
			},
			{
				"x": 1.760675305,
				"y": -0.1866245093,
				"z": 2.9088418174,
				"element": "O" 
			},
			{
				"x": 2.6508021776,
				"y": -1.0681045351,
				"z": 3.4974849646,
				"element": "C" 
			},
			{
				"x": 3.4956116968,
				"y": -1.7527344291,
				"z": 2.5505709215,
				"element": "O" 
			},
			{
				"x": 3.0827537711,
				"y": -1.9892770674,
				"z": 1.2844585485,
				"element": "C" 
			},
			{
				"x": 3.7837958532,
				"y": -2.6352040547,
				"z": 0.5413735421,
				"element": "O" 
			},
			{
				"x": 1.3361466017,
				"y": 1.9616111304,
				"z": 0.6966349393,
				"element": "C" 
			},
			{
				"x": 0.0055299222,
				"y": 1.8081307512,
				"z": 0.2825627078,
				"element": "C" 
			},
			{
				"x": -0.9717452555,
				"y": 2.7038887854,
				"z": 0.7217911123,
				"element": "C" 
			},
			{
				"x": -0.6286888843,
				"y": 3.7501395345,
				"z": 1.5792614255,
				"element": "C" 
			},
			{
				"x": 0.6998978861,
				"y": 3.9134037116,
				"z": 1.983807137,
				"element": "C" 
			},
			{
				"x": 1.6795953242,
				"y": 3.0332238505,
				"z": 1.5329185098,
				"element": "C" 
			},
			{
				"x": 3.0076020648,
				"y": -0.579686581,
				"z": -0.6588047725,
				"element": "H" 
			},
			{
				"x": 1.6915075243,
				"y": -2.7556327677,
				"z": -0.8281321442,
				"element": "H" 
			},
			{
				"x": 0.8358347724,
				"y": -3.2844703339,
				"z": 0.6045671458,
				"element": "H" 
			},
			{
				"x": 0.5856725158,
				"y": -1.133881129,
				"z": -2.4217026906,
				"element": "H" 
			},
			{
				"x": -1.559234228,
				"y": -0.3943578444,
				"z": -3.408456443,
				"element": "H" 
			},
			{
				"x": -3.6966671708,
				"y": -0.8075939964,
				"z": -2.2041275926,
				"element": "H" 
			},
			{
				"x": -3.6651077672,
				"y": -1.9867295347,
				"z": -0.0132873649,
				"element": "H" 
			},
			{
				"x": -1.5222115398,
				"y": -2.7365612002,
				"z": 0.96069997,
				"element": "H" 
			},
			{
				"x": 0.1263851418,
				"y": -0.1971977238,
				"z": 1.6941950612,
				"element": "H" 
			},
			{
				"x": 0.4832329599,
				"y": -1.7574237694,
				"z": 2.4604941897,
				"element": "H" 
			},
			{
				"x": 3.3217836584,
				"y": -0.4968029813,
				"z": 4.1401511985,
				"element": "H" 
			},
			{
				"x": 2.1265260899,
				"y": -1.8443957379,
				"z": 4.076870461,
				"element": "H" 
			},
			{
				"x": -0.2571042164,
				"y": 1.0074260293,
				"z": -0.4008436555,
				"element": "H" 
			},
			{
				"x": -1.9982034124,
				"y": 2.5857508343,
				"z": 0.3869218854,
				"element": "H" 
			},
			{
				"x": -1.391072907,
				"y": 4.4427104647,
				"z": 1.9247144246,
				"element": "H" 
			},
			{
				"x": 0.9707286859,
				"y": 4.7320893642,
				"z": 2.6441831884,
				"element": "H" 
			},
			{
				"x": 2.7187679193,
				"y": 3.1616338216,
				"z": 1.816419546,
				"element": "H" 
			}
		],
		 "valence_orbital": [ 
			{
				"type": "occ",
				"energy": -0.26234,
				"method": "rhf"
			},
			{
				"type": "occ",
				"energy": -0.25802,
				"method": "rhf"
			},
			{
				"type": "occ",
				"energy": -0.25558,
				"method": "rhf"
			},
			{
				"type": "occ",
				"energy": -0.25213,
				"method": "rhf"
			},
			{
				"type": "occ",
				"energy": -0.24001,
				"method": "rhf"
			},
			{
				"type": "unocc",
				"energy": -0.04005,
				"method": "rhf"
			},
			{
				"type": "unocc",
				"energy": -0.01653,
				"method": "rhf"
			},
			{
				"type": "unocc",
				"energy": -0.01252,
				"method": "rhf"
			},
			{
				"type": "unocc",
				"energy": -0.00916,
				"method": "rhf"
			},
			{
				"type": "unocc",
				"energy": -0.0031,
				"method": "rhf"
			}
		],
		"cosmo_sigma_profile": { 
			"-0.025": 0.0,
			"-0.024": 0.0,
			"-0.023": 0.0,
			"-0.022": 0.0,
			"-0.021": 0.0,
			"-0.02": 0.0,
			"-0.019": 0.0,
			"-0.018": 0.0,
			"-0.017": 0.0,
			"-0.016": 0.0,
			"-0.015": 0.0,
			"-0.014": 0.0,
			"-0.013": 0.0,
			"-0.012": 0.0830642160449,
			"-0.011": 1.09463187183,
			"-0.01": 1.64288859941,
			"-0.009": 3.51260129181,
			"-0.008": 8.05861403254,
			"-0.007": 11.7817765306,
			"-0.006": 20.7048956901,
			"-0.005": 27.3398863856,
			"-0.004": 26.7140783384,
			"-0.003": 26.4093352704,
			"-0.002": 21.0774972753,
			"-0.001": 21.811632515,
			"0.0": 22.3896226641,
			"0.001": 20.3576805683,
			"0.002": 19.8863316249,
			"0.003": 20.8780513211,
			"0.004": 20.9261417059,
			"0.005": 13.3367786403,
			"0.006": 8.35862744519,
			"0.007": 5.14035785564,
			"0.008": 5.08539119835,
			"0.009": 5.92850372704,
			"0.01": 5.59725808506,
			"0.011": 7.0582790627,
			"0.012": 6.2504023488,
			"0.013": 4.24342877693,
			"0.014": 0.402410843586,
			"0.015": 0.0,
			"0.016": 0.0,
			"0.017": 0.0,
			"0.018": 0.0,
			"0.019": 0.0,
			"0.02": 0.0,
			"0.021": 0.0,
			"0.022": 0.0,
			"0.023": 0.0,
			"0.024": 0.0,
			"0.025": 0.0
		}
	}
}
