{
	 "smiles": "ClC1=C(Cl)C=C(C=C1)C(=O)N1CCNCC1", 
	 "Tm": 348.15, 
	 "num_atms": 28, 
	 "gaussian": { 
		 "optdone": 1, 
		 "sigma_profile": "yes", 
		 "theory": "DFT", 
		 "functional": "B3LYP", 
		 "basiset": "6-31G**", 
		 "properties": { 
			 "R2extent": 6491.752, 
			 "electric_dipole_moment_norm": 5.24093363438, 
			 "electric_quadrupole_moment_norm": 8.53419550046, 
			 "total_energy": -1531.50661445, 
			 "HOMO_LUMO_gap": 0.18022, 
			 "cosmo_polarized_energy": -14.06, 
			 "cosmo_cavitation_energy": 34.03, 
			 "cosmo_dispersion_energy": -25.14, 
			 "cosmo_repulsion_energy": 1.97, 
			 "cosmo_total_nonelectrostatic_energy": 10.86, 
			 "SMD_solvation_energy": 2.18 
		},
		"coords": [
			{
				"x": 3.300953787,
				"y": -1.6956042008,
				"z": 3.3534993684,
				"element": "Cl" 
			},
			{
				"x": 2.0146336522,
				"y": -1.2304661782,
				"z": 2.270179336,
				"element": "C" 
			},
			{
				"x": 0.8912071324,
				"y": -2.0473232015,
				"z": 2.0700758082,
				"element": "C" 
			},
			{
				"x": 0.7211784109,
				"y": -3.577351006,
				"z": 2.8943440917,
				"element": "Cl" 
			},
			{
				"x": -0.1109819221,
				"y": -1.6427865126,
				"z": 1.1911381216,
				"element": "C" 
			},
			{
				"x": -0.0275746769,
				"y": -0.4142437803,
				"z": 0.527660819,
				"element": "C" 
			},
			{
				"x": 1.1023721385,
				"y": 0.3897605236,
				"z": 0.7229215278,
				"element": "C" 
			},
			{
				"x": 2.1175498216,
				"y": -0.0188120323,
				"z": 1.5836724398,
				"element": "C" 
			},
			{
				"x": -1.1208955443,
				"y": -0.0992090769,
				"z": -0.4619928737,
				"element": "C" 
			},
			{
				"x": -1.5974840434,
				"y": -1.0024386812,
				"z": -1.1481490434,
				"element": "O" 
			},
			{
				"x": -1.539503992,
				"y": 1.2005332447,
				"z": -0.6002616073,
				"element": "N" 
			},
			{
				"x": -2.5496605271,
				"y": 1.447020275,
				"z": -1.6452698553,
				"element": "C" 
			},
			{
				"x": -2.6844906003,
				"y": 2.9435846595,
				"z": -1.9019841649,
				"element": "C" 
			},
			{
				"x": -3.1635310588,
				"y": 3.6337099587,
				"z": -0.69460441,
				"element": "N" 
			},
			{
				"x": -2.6860519931,
				"y": 3.0326145064,
				"z": 0.5575614053,
				"element": "C" 
			},
			{
				"x": -1.3665498679,
				"y": 2.2630199973,
				"z": 0.4030651384,
				"element": "C" 
			},
			{
				"x": -0.9609786719,
				"y": -2.2884804994,
				"z": 1.0042903303,
				"element": "H" 
			},
			{
				"x": 1.2093141507,
				"y": 1.3257388051,
				"z": 0.1855464845,
				"element": "H" 
			},
			{
				"x": 3.0002270413,
				"y": 0.5940971834,
				"z": 1.7285903102,
				"element": "H" 
			},
			{
				"x": -2.2388202686,
				"y": 0.9234884341,
				"z": -2.5513945697,
				"element": "H" 
			},
			{
				"x": -3.5179752125,
				"y": 1.0220347485,
				"z": -1.349558797,
				"element": "H" 
			},
			{
				"x": -1.7103166965,
				"y": 3.3217666291,
				"z": -2.2568953624,
				"element": "H" 
			},
			{
				"x": -3.4009437394,
				"y": 3.0971731327,
				"z": -2.7177894057,
				"element": "H" 
			},
			{
				"x": -2.9038664753,
				"y": 4.6129256658,
				"z": -0.7347916827,
				"element": "H" 
			},
			{
				"x": -3.4435663206,
				"y": 2.3391017187,
				"z": 0.9474663136,
				"element": "H" 
			},
			{
				"x": -2.5629660587,
				"y": 3.817211643,
				"z": 1.3109204369,
				"element": "H" 
			},
			{
				"x": -0.5681937903,
				"y": 2.9584264171,
				"z": 0.1054245048,
				"element": "H" 
			},
			{
				"x": -1.0769846749,
				"y": 1.8193076264,
				"z": 1.3578353357,
				"element": "H" 
			}
		],
		 "valence_orbital": [ 
			{
				"type": "occ",
				"energy": -0.27211,
				"method": "rhf"
			},
			{
				"type": "occ",
				"energy": -0.25893,
				"method": "rhf"
			},
			{
				"type": "occ",
				"energy": -0.25223,
				"method": "rhf"
			},
			{
				"type": "occ",
				"energy": -0.24334,
				"method": "rhf"
			},
			{
				"type": "occ",
				"energy": -0.22727,
				"method": "rhf"
			},
			{
				"type": "unocc",
				"energy": -0.04705,
				"method": "rhf"
			},
			{
				"type": "unocc",
				"energy": -0.02865,
				"method": "rhf"
			},
			{
				"type": "unocc",
				"energy": 3e-05,
				"method": "rhf"
			},
			{
				"type": "unocc",
				"energy": 0.03807,
				"method": "rhf"
			},
			{
				"type": "unocc",
				"energy": 0.05914,
				"method": "rhf"
			}
		],
		"cosmo_sigma_profile": { 
			"-0.025": 0.0,
			"-0.024": 0.0,
			"-0.023": 0.0,
			"-0.022": 0.0,
			"-0.021": 0.0,
			"-0.02": 0.0,
			"-0.019": 0.0,
			"-0.018": 0.0,
			"-0.017": 0.0,
			"-0.016": 0.0,
			"-0.015": 0.0,
			"-0.014": 0.0,
			"-0.013": 0.0,
			"-0.012": 0.0,
			"-0.011": 0.253259065988,
			"-0.01": 1.26039522719,
			"-0.009": 1.63195454573,
			"-0.008": 3.64006699277,
			"-0.007": 7.71823919595,
			"-0.006": 8.4250742483,
			"-0.005": 15.4180303303,
			"-0.004": 24.6481293117,
			"-0.003": 31.440021775,
			"-0.002": 23.8131679979,
			"-0.001": 21.7917981151,
			"0.0": 24.6130200317,
			"0.001": 24.1328134988,
			"0.002": 17.7346080118,
			"0.003": 17.0885693268,
			"0.004": 17.5756830484,
			"0.005": 6.18328196053,
			"0.006": 2.36232427181,
			"0.007": 2.08388997852,
			"0.008": 2.38793040148,
			"0.009": 1.81745740493,
			"0.01": 2.33935468097,
			"0.011": 2.3181385649,
			"0.012": 2.15514073881,
			"0.013": 4.18520185791,
			"0.014": 4.46044828548,
			"0.015": 0.769404941073,
			"0.016": 0.563321427825,
			"0.017": 0.409715246059,
			"0.018": 0.427326214354,
			"0.019": 0.0,
			"0.02": 0.0,
			"0.021": 0.0,
			"0.022": 0.0,
			"0.023": 0.0,
			"0.024": 0.0,
			"0.025": 0.0
		}
	}
}
