{
	 "smiles": "OC(=O)C1=CC(=CC=C1)N1C(=O)C=CC1=O", 
	 "Tm": 505.15, 
	 "num_atms": 23, 
	 "gaussian": { 
		 "optdone": 1, 
		 "sigma_profile": "yes", 
		 "theory": "DFT", 
		 "functional": "B3LYP", 
		 "basiset": "6-31G**", 
		 "properties": { 
			 "R2extent": 3930.8183, 
			 "electric_dipole_moment_norm": 6.25968851941, 
			 "electric_quadrupole_moment_norm": 16.0668629906, 
			 "total_energy": -779.041297343, 
			 "HOMO_LUMO_gap": 0.13938, 
			 "cosmo_polarized_energy": -18.44, 
			 "cosmo_cavitation_energy": 29.02, 
			 "cosmo_dispersion_energy": -20.91, 
			 "cosmo_repulsion_energy": 1.59, 
			 "cosmo_total_nonelectrostatic_energy": 9.7, 
			 "SMD_solvation_energy": 7.73 
		},
		"coords": [
			{
				"x": -1.1280560174,
				"y": -3.1614552654,
				"z": -2.1253493882,
				"element": "O" 
			},
			{
				"x": -2.0912103134,
				"y": -2.204087393,
				"z": -2.1788009572,
				"element": "C" 
			},
			{
				"x": -3.1249351972,
				"y": -2.4140134428,
				"z": -2.7683144159,
				"element": "O" 
			},
			{
				"x": -1.7916131687,
				"y": -0.9092002789,
				"z": -1.4816983392,
				"element": "C" 
			},
			{
				"x": -0.8570588293,
				"y": -0.8255899969,
				"z": -0.4442468327,
				"element": "C" 
			},
			{
				"x": -0.5965463523,
				"y": 0.4064457184,
				"z": 0.1650774593,
				"element": "C" 
			},
			{
				"x": -1.2842038857,
				"y": 1.5525803004,
				"z": -0.2519607082,
				"element": "C" 
			},
			{
				"x": -2.2422195154,
				"y": 1.4515731465,
				"z": -1.2618683077,
				"element": "C" 
			},
			{
				"x": -2.5026140883,
				"y": 0.2304435021,
				"z": -1.8764902524,
				"element": "C" 
			},
			{
				"x": 0.3730294768,
				"y": 0.4857287966,
				"z": 1.2067138522,
				"element": "N" 
			},
			{
				"x": 0.3055094273,
				"y": 1.3467184597,
				"z": 2.3280230152,
				"element": "C" 
			},
			{
				"x": -0.5781870475,
				"y": 2.1377019818,
				"z": 2.5742079989,
				"element": "O" 
			},
			{
				"x": 1.5400083279,
				"y": 1.0809519234,
				"z": 3.1350037058,
				"element": "C" 
			},
			{
				"x": 2.2664007201,
				"y": 0.1435982929,
				"z": 2.521964537,
				"element": "C" 
			},
			{
				"x": 1.5579147724,
				"y": -0.2814605891,
				"z": 1.2724651912,
				"element": "C" 
			},
			{
				"x": 1.9171591248,
				"y": -1.1197536747,
				"z": 0.4724825605,
				"element": "O" 
			},
			{
				"x": -0.3029791798,
				"y": -2.7916618822,
				"z": -1.7796518749,
				"element": "H" 
			},
			{
				"x": -0.3399368606,
				"y": -1.7066403202,
				"z": -0.0865433153,
				"element": "H" 
			},
			{
				"x": -1.0867177787,
				"y": 2.5043330638,
				"z": 0.2231249298,
				"element": "H" 
			},
			{
				"x": -2.7820235277,
				"y": 2.3410860453,
				"z": -1.5712827693,
				"element": "H" 
			},
			{
				"x": -3.2430520254,
				"y": 0.1356002668,
				"z": -2.6628757631,
				"element": "H" 
			},
			{
				"x": 1.7344007057,
				"y": 1.610836714,
				"z": 4.0579873884,
				"element": "H" 
			},
			{
				"x": 3.2132312324,
				"y": -0.2938353685,
				"z": 2.8094322859,
				"element": "H" 
			}
		],
		 "valence_orbital": [ 
			{
				"type": "occ",
				"energy": -0.31434,
				"method": "rhf"
			},
			{
				"type": "occ",
				"energy": -0.29087,
				"method": "rhf"
			},
			{
				"type": "occ",
				"energy": -0.27806,
				"method": "rhf"
			},
			{
				"type": "occ",
				"energy": -0.26982,
				"method": "rhf"
			},
			{
				"type": "occ",
				"energy": -0.25507,
				"method": "rhf"
			},
			{
				"type": "unocc",
				"energy": -0.11569,
				"method": "rhf"
			},
			{
				"type": "unocc",
				"energy": -0.05321,
				"method": "rhf"
			},
			{
				"type": "unocc",
				"energy": -0.0323,
				"method": "rhf"
			},
			{
				"type": "unocc",
				"energy": 0.03161,
				"method": "rhf"
			},
			{
				"type": "unocc",
				"energy": 0.04714,
				"method": "rhf"
			}
		],
		"cosmo_sigma_profile": { 
			"-0.025": 0.0,
			"-0.024": 0.0,
			"-0.023": 0.0,
			"-0.022": 0.0,
			"-0.021": 0.0,
			"-0.02": 0.0,
			"-0.019": 0.0,
			"-0.018": 0.0,
			"-0.017": 0.275741638537,
			"-0.016": 0.972968968481,
			"-0.015": 1.07562248193,
			"-0.014": 1.36801788295,
			"-0.013": 0.809503194807,
			"-0.012": 1.28170060283,
			"-0.011": 1.56414921747,
			"-0.01": 4.36188496881,
			"-0.009": 4.39381733519,
			"-0.008": 4.66107402209,
			"-0.007": 9.10695863236,
			"-0.006": 16.0184068524,
			"-0.005": 15.1685948814,
			"-0.004": 17.7286531271,
			"-0.003": 14.3739515402,
			"-0.002": 14.0356164966,
			"-0.001": 12.4855858338,
			"0.0": 12.7904791363,
			"0.001": 13.2562380587,
			"0.002": 14.6497882881,
			"0.003": 11.4907738209,
			"0.004": 6.38564260576,
			"0.005": 4.13627489992,
			"0.006": 5.36215682971,
			"0.007": 5.77115163916,
			"0.008": 6.3773739847,
			"0.009": 8.53322135434,
			"0.01": 11.8766599539,
			"0.011": 8.59407152511,
			"0.012": 4.59909328751,
			"0.013": 1.12825929999,
			"0.014": 0.0,
			"0.015": 0.0,
			"0.016": 0.0,
			"0.017": 0.0,
			"0.018": 0.0,
			"0.019": 0.0,
			"0.02": 0.0,
			"0.021": 0.0,
			"0.022": 0.0,
			"0.023": 0.0,
			"0.024": 0.0,
			"0.025": 0.0
		}
	}
}
