{
	 "smiles": "NS(=O)(=O)C1=NC2=C(N1)C=CC=C2", 
	 "Tm": 489.15, 
	 "num_atms": 20, 
	 "gaussian": { 
		 "optdone": 1, 
		 "sigma_profile": "yes", 
		 "theory": "DFT", 
		 "functional": "B3LYP", 
		 "basiset": "6-31G**", 
		 "properties": { 
			 "R2extent": 3983.5419, 
			 "electric_dipole_moment_norm": 4.66513144724, 
			 "electric_quadrupole_moment_norm": 19.1647362622, 
			 "total_energy": -983.786577974, 
			 "HOMO_LUMO_gap": 0.19851, 
			 "cosmo_polarized_energy": -19.89, 
			 "cosmo_cavitation_energy": 26.2, 
			 "cosmo_dispersion_energy": -20.23, 
			 "cosmo_repulsion_energy": 1.55, 
			 "cosmo_total_nonelectrostatic_energy": 7.52, 
			 "SMD_solvation_energy": 1.86 
		},
		"coords": [
			{
				"x": 2.5765747825,
				"y": 0.8244066001,
				"z": -3.4751706086,
				"element": "N" 
			},
			{
				"x": 1.3704176502,
				"y": 1.7710411994,
				"z": -2.8224070586,
				"element": "S" 
			},
			{
				"x": 1.9577696651,
				"y": 2.5638422967,
				"z": -1.7402975317,
				"element": "O" 
			},
			{
				"x": 0.6579611053,
				"y": 2.3804669926,
				"z": -3.9372381757,
				"element": "O" 
			},
			{
				"x": 0.2733381668,
				"y": 0.6203703074,
				"z": -1.9962480089,
				"element": "C" 
			},
			{
				"x": -0.1110519121,
				"y": -0.5290841712,
				"z": -2.4815768118,
				"element": "N" 
			},
			{
				"x": -0.9763535329,
				"y": -1.0298237233,
				"z": -1.5168729098,
				"element": "C" 
			},
			{
				"x": -1.0872663532,
				"y": -0.1199819375,
				"z": -0.4336810841,
				"element": "C" 
			},
			{
				"x": -0.2675511104,
				"y": 0.9399293745,
				"z": -0.7786742157,
				"element": "N" 
			},
			{
				"x": -1.889916695,
				"y": -0.3755732867,
				"z": 0.6817773508,
				"element": "C" 
			},
			{
				"x": -2.587426876,
				"y": -1.5785725604,
				"z": 0.6822806074,
				"element": "C" 
			},
			{
				"x": -2.4900093379,
				"y": -2.4947260725,
				"z": -0.3877229907,
				"element": "C" 
			},
			{
				"x": -1.6894376432,
				"y": -2.2369282241,
				"z": -1.4929050812,
				"element": "C" 
			},
			{
				"x": 3.1248218164,
				"y": 0.3535870299,
				"z": -2.7610570874,
				"element": "H" 
			},
			{
				"x": 2.2067400439,
				"y": 0.1782951514,
				"z": -4.1679477536,
				"element": "H" 
			},
			{
				"x": -0.0314930752,
				"y": 1.7622980575,
				"z": -0.2419315274,
				"element": "H" 
			},
			{
				"x": -1.9687686695,
				"y": 0.3261894657,
				"z": 1.5058895913,
				"element": "H" 
			},
			{
				"x": -3.2249911596,
				"y": -1.8193646502,
				"z": 1.5275177306,
				"element": "H" 
			},
			{
				"x": -3.0564708803,
				"y": -3.4197127954,
				"z": -0.341079453,
				"element": "H" 
			},
			{
				"x": -1.610885985,
				"y": -2.9352590542,
				"z": -2.3193549822,
				"element": "H" 
			}
		],
		 "valence_orbital": [ 
			{
				"type": "occ",
				"energy": -0.31916,
				"method": "rhf"
			},
			{
				"type": "occ",
				"energy": -0.31606,
				"method": "rhf"
			},
			{
				"type": "occ",
				"energy": -0.29928,
				"method": "rhf"
			},
			{
				"type": "occ",
				"energy": -0.24767,
				"method": "rhf"
			},
			{
				"type": "occ",
				"energy": -0.24458,
				"method": "rhf"
			},
			{
				"type": "unocc",
				"energy": -0.04607,
				"method": "rhf"
			},
			{
				"type": "unocc",
				"energy": 0.00296,
				"method": "rhf"
			},
			{
				"type": "unocc",
				"energy": 0.019,
				"method": "rhf"
			},
			{
				"type": "unocc",
				"energy": 0.04885,
				"method": "rhf"
			},
			{
				"type": "unocc",
				"energy": 0.0613,
				"method": "rhf"
			}
		],
		"cosmo_sigma_profile": { 
			"-0.025": 0.0,
			"-0.024": 0.0,
			"-0.023": 0.0,
			"-0.022": 0.0,
			"-0.021": 0.0,
			"-0.02": 0.0,
			"-0.019": 0.0,
			"-0.018": 0.0397540276974,
			"-0.017": 0.937055709709,
			"-0.016": 2.60068928306,
			"-0.015": 3.69897693403,
			"-0.014": 3.71728972263,
			"-0.013": 3.52142467773,
			"-0.012": 2.09046488704,
			"-0.011": 2.63216325475,
			"-0.01": 3.10176886305,
			"-0.009": 3.35427483435,
			"-0.008": 3.7754726747,
			"-0.007": 5.33457424321,
			"-0.006": 9.13543053977,
			"-0.005": 10.5494618841,
			"-0.004": 10.6407945085,
			"-0.003": 10.0744444503,
			"-0.002": 9.89594943673,
			"-0.001": 9.55112685012,
			"0.0": 9.60567294946,
			"0.001": 9.98754060087,
			"0.002": 10.1604561557,
			"0.003": 14.1258393125,
			"0.004": 15.1354520289,
			"0.005": 11.2566093904,
			"0.006": 5.67187540521,
			"0.007": 4.30620474095,
			"0.008": 5.52755368906,
			"0.009": 7.47560189935,
			"0.01": 13.479790808,
			"0.011": 6.50254677097,
			"0.012": 1.02751094846,
			"0.013": 0.686340417748,
			"0.014": 0.481111269884,
			"0.015": 0.0,
			"0.016": 0.0,
			"0.017": 0.0,
			"0.018": 0.0,
			"0.019": 0.0,
			"0.02": 0.0,
			"0.021": 0.0,
			"0.022": 0.0,
			"0.023": 0.0,
			"0.024": 0.0,
			"0.025": 0.0
		}
	}
}
