{
	 "smiles": "CCN1CCNC(=O)C1=O", 
	 "Tm": 382.15, 
	 "num_atms": 20, 
	 "gaussian": { 
		 "optdone": 1, 
		 "sigma_profile": "yes", 
		 "theory": "DFT", 
		 "functional": "B3LYP", 
		 "basiset": "6-31G**", 
		 "properties": { 
			 "R2extent": 1911.3825, 
			 "electric_dipole_moment_norm": 6.89064134678, 
			 "electric_quadrupole_moment_norm": 19.1663211222, 
			 "total_energy": -494.633433701, 
			 "HOMO_LUMO_gap": 0.20823, 
			 "cosmo_polarized_energy": -20.96, 
			 "cosmo_cavitation_energy": 23.02, 
			 "cosmo_dispersion_energy": -16.93, 
			 "cosmo_repulsion_energy": 1.39, 
			 "cosmo_total_nonelectrostatic_energy": 7.48, 
			 "SMD_solvation_energy": 4.18 
		},
		"coords": [
			{
				"x": 2.1958219742,
				"y": 1.074178204,
				"z": 1.4928725704,
				"element": "C" 
			},
			{
				"x": 0.7889211538,
				"y": 1.4730332598,
				"z": 1.9495167397,
				"element": "C" 
			},
			{
				"x": -0.2675646929,
				"y": 1.0553752649,
				"z": 1.0213943833,
				"element": "N" 
			},
			{
				"x": -0.6891449005,
				"y": -0.3434207681,
				"z": 1.0176066861,
				"element": "C" 
			},
			{
				"x": -2.1282926141,
				"y": -0.4548157205,
				"z": 0.535131685,
				"element": "C" 
			},
			{
				"x": -2.2377795208,
				"y": 0.1965796158,
				"z": -0.760361039,
				"element": "N" 
			},
			{
				"x": -1.624165092,
				"y": 1.3873632282,
				"z": -1.0532094352,
				"element": "C" 
			},
			{
				"x": -1.8454842902,
				"y": 2.0180550089,
				"z": -2.0692697528,
				"element": "O" 
			},
			{
				"x": -0.5910790732,
				"y": 1.9023095036,
				"z": -0.0141477138,
				"element": "C" 
			},
			{
				"x": -0.1261661444,
				"y": 3.0235643973,
				"z": -0.1339227692,
				"element": "O" 
			},
			{
				"x": 2.9384343698,
				"y": 1.4101241342,
				"z": 2.2238441698,
				"element": "H" 
			},
			{
				"x": 2.427867661,
				"y": 1.5407248244,
				"z": 0.5317607804,
				"element": "H" 
			},
			{
				"x": 2.2979206269,
				"y": -0.011174657,
				"z": 1.3874519485,
				"element": "H" 
			},
			{
				"x": 0.5610218732,
				"y": 1.0366942736,
				"z": 2.9289581035,
				"element": "H" 
			},
			{
				"x": 0.7196988575,
				"y": 2.5587064524,
				"z": 2.0344932108,
				"element": "H" 
			},
			{
				"x": -0.036235377,
				"y": -0.9598704649,
				"z": 0.3822722593,
				"element": "H" 
			},
			{
				"x": -0.6158628307,
				"y": -0.7269276305,
				"z": 2.0400422639,
				"element": "H" 
			},
			{
				"x": -2.8057050851,
				"y": -0.0047526909,
				"z": 1.2761411148,
				"element": "H" 
			},
			{
				"x": -2.3997674231,
				"y": -1.5091796712,
				"z": 0.4278633935,
				"element": "H" 
			},
			{
				"x": -2.9919394726,
				"y": -0.0536665641,
				"z": -1.387438599,
				"element": "H" 
			}
		],
		 "valence_orbital": [ 
			{
				"type": "occ",
				"energy": -0.35162,
				"method": "rhf"
			},
			{
				"type": "occ",
				"energy": -0.27354,
				"method": "rhf"
			},
			{
				"type": "occ",
				"energy": -0.26435,
				"method": "rhf"
			},
			{
				"type": "occ",
				"energy": -0.24996,
				"method": "rhf"
			},
			{
				"type": "occ",
				"energy": -0.24173,
				"method": "rhf"
			},
			{
				"type": "unocc",
				"energy": -0.0335,
				"method": "rhf"
			},
			{
				"type": "unocc",
				"energy": 0.06263,
				"method": "rhf"
			},
			{
				"type": "unocc",
				"energy": 0.07956,
				"method": "rhf"
			},
			{
				"type": "unocc",
				"energy": 0.09247,
				"method": "rhf"
			},
			{
				"type": "unocc",
				"energy": 0.10694,
				"method": "rhf"
			}
		],
		"cosmo_sigma_profile": { 
			"-0.025": 0.0,
			"-0.024": 0.0,
			"-0.023": 0.0,
			"-0.022": 0.0,
			"-0.021": 0.0,
			"-0.02": 0.0,
			"-0.019": 0.0,
			"-0.018": 0.0,
			"-0.017": 0.0,
			"-0.016": 0.0,
			"-0.015": 0.291136130284,
			"-0.014": 1.26915807634,
			"-0.013": 1.4209726534,
			"-0.012": 1.00795343724,
			"-0.011": 0.963933027503,
			"-0.01": 0.944446417206,
			"-0.009": 0.97339462363,
			"-0.008": 1.94567359789,
			"-0.007": 7.13690279808,
			"-0.006": 10.7166431906,
			"-0.005": 18.6018411449,
			"-0.004": 21.5388468855,
			"-0.003": 17.1983033576,
			"-0.002": 15.6101900048,
			"-0.001": 11.3790050496,
			"0.0": 11.3877990946,
			"0.001": 8.56588458267,
			"0.002": 4.226130953,
			"0.003": 2.26254775624,
			"0.004": 3.39180950718,
			"0.005": 1.90388958188,
			"0.006": 2.12844515623,
			"0.007": 1.93502805503,
			"0.008": 2.4889779166,
			"0.009": 1.77793441179,
			"0.01": 2.50072399379,
			"0.011": 3.38540950237,
			"0.012": 5.8821140345,
			"0.013": 9.45489751626,
			"0.014": 3.67552505731,
			"0.015": 1.93850324225,
			"0.016": 1.50241067742,
			"0.017": 0.916033070955,
			"0.018": 0.0101637074254,
			"0.019": 0.0,
			"0.02": 0.0,
			"0.021": 0.0,
			"0.022": 0.0,
			"0.023": 0.0,
			"0.024": 0.0,
			"0.025": 0.0
		}
	}
}
