{
	 "smiles": "COC1=CC=C(OC(F)(F)F)C=C1C(O)=O", 
	 "Tm": 337.15, 
	 "num_atms": 23, 
	 "gaussian": { 
		 "optdone": 1, 
		 "sigma_profile": "yes", 
		 "theory": "DFT", 
		 "functional": "B3LYP", 
		 "basiset": "6-31G**", 
		 "properties": { 
			 "R2extent": 4949.5442, 
			 "electric_dipole_moment_norm": 7.36179434717, 
			 "electric_quadrupole_moment_norm": 11.9222139106, 
			 "total_energy": -947.593752929, 
			 "HOMO_LUMO_gap": 0.18727, 
			 "cosmo_polarized_energy": -14.27, 
			 "cosmo_cavitation_energy": 29.22, 
			 "cosmo_dispersion_energy": -21.06, 
			 "cosmo_repulsion_energy": 1.57, 
			 "cosmo_total_nonelectrostatic_energy": 9.73, 
			 "SMD_solvation_energy": 8.52 
		},
		"coords": [
			{
				"x": 0.0731344558,
				"y": -2.4156929051,
				"z": -1.977765209,
				"element": "C" 
			},
			{
				"x": 0.6721294971,
				"y": -1.8450967044,
				"z": -0.8164751404,
				"element": "O" 
			},
			{
				"x": 0.2167038637,
				"y": -0.6390487165,
				"z": -0.3385165116,
				"element": "C" 
			},
			{
				"x": -0.8250801622,
				"y": 0.0689347243,
				"z": -0.9461799915,
				"element": "C" 
			},
			{
				"x": -1.2440357394,
				"y": 1.2861024789,
				"z": -0.4174233759,
				"element": "C" 
			},
			{
				"x": -0.6248672486,
				"y": 1.8007042308,
				"z": 0.7192911832,
				"element": "C" 
			},
			{
				"x": -1.1363044394,
				"y": 3.0257989748,
				"z": 1.1483235834,
				"element": "O" 
			},
			{
				"x": -0.6340903949,
				"y": 3.651123443,
				"z": 2.2438751065,
				"element": "C" 
			},
			{
				"x": -1.3175034063,
				"y": 4.7838821882,
				"z": 2.3981952706,
				"element": "F" 
			},
			{
				"x": 0.6711077205,
				"y": 3.9513943575,
				"z": 2.111252777,
				"element": "F" 
			},
			{
				"x": -0.7659513263,
				"y": 2.9138668507,
				"z": 3.3620544688,
				"element": "F" 
			},
			{
				"x": 0.4110122777,
				"y": 1.1064536262,
				"z": 1.3317395907,
				"element": "C" 
			},
			{
				"x": 0.8453604757,
				"y": -0.1198421504,
				"z": 0.8130198833,
				"element": "C" 
			},
			{
				"x": 1.9796863695,
				"y": -0.7739119193,
				"z": 1.5713347139,
				"element": "C" 
			},
			{
				"x": 2.4397945264,
				"y": -1.9537330383,
				"z": 1.1210910479,
				"element": "O" 
			},
			{
				"x": 2.4619663694,
				"y": -0.2558556905,
				"z": 2.554667808,
				"element": "O" 
			},
			{
				"x": 0.5992080135,
				"y": -3.3542287857,
				"z": -2.1528519671,
				"element": "H" 
			},
			{
				"x": 0.1962070264,
				"y": -1.7602334634,
				"z": -2.8469133264,
				"element": "H" 
			},
			{
				"x": -0.9907896304,
				"y": -2.6184934374,
				"z": -1.8130423909,
				"element": "H" 
			},
			{
				"x": -1.3172213855,
				"y": -0.3164842018,
				"z": -1.8301020523,
				"element": "H" 
			},
			{
				"x": -2.0508832407,
				"y": 1.8437759589,
				"z": -0.8803041065,
				"element": "H" 
			},
			{
				"x": 0.9198154298,
				"y": 1.4681979033,
				"z": 2.2151861411,
				"element": "H" 
			},
			{
				"x": 1.9409009483,
				"y": -2.2216137237,
				"z": 0.3267424971,
				"element": "H" 
			}
		],
		 "valence_orbital": [ 
			{
				"type": "occ",
				"energy": -0.33902,
				"method": "rhf"
			},
			{
				"type": "occ",
				"energy": -0.30649,
				"method": "rhf"
			},
			{
				"type": "occ",
				"energy": -0.27846,
				"method": "rhf"
			},
			{
				"type": "occ",
				"energy": -0.26964,
				"method": "rhf"
			},
			{
				"type": "occ",
				"energy": -0.24429,
				"method": "rhf"
			},
			{
				"type": "unocc",
				"energy": -0.05702,
				"method": "rhf"
			},
			{
				"type": "unocc",
				"energy": -0.01492,
				"method": "rhf"
			},
			{
				"type": "unocc",
				"energy": 0.05237,
				"method": "rhf"
			},
			{
				"type": "unocc",
				"energy": 0.06397,
				"method": "rhf"
			},
			{
				"type": "unocc",
				"energy": 0.07058,
				"method": "rhf"
			}
		],
		"cosmo_sigma_profile": { 
			"-0.025": 0.0,
			"-0.024": 0.0,
			"-0.023": 0.0,
			"-0.022": 0.0,
			"-0.021": 0.0,
			"-0.02": 0.0,
			"-0.019": 0.0,
			"-0.018": 0.0,
			"-0.017": 0.0,
			"-0.016": 0.0,
			"-0.015": 0.0,
			"-0.014": 0.0,
			"-0.013": 0.0,
			"-0.012": 0.0,
			"-0.011": 0.0783516864384,
			"-0.01": 0.443390497568,
			"-0.009": 1.2862503365,
			"-0.008": 6.05229135688,
			"-0.007": 11.3398992746,
			"-0.006": 14.785004571,
			"-0.005": 12.0705962287,
			"-0.004": 13.4434300834,
			"-0.003": 11.1404391741,
			"-0.002": 12.1863458826,
			"-0.001": 18.3410359637,
			"0.0": 25.2299655162,
			"0.001": 37.0931449729,
			"0.002": 31.503965443,
			"0.003": 5.29339988755,
			"0.004": 3.16144821701,
			"0.005": 3.8165438822,
			"0.006": 2.79234233106,
			"0.007": 1.88002790618,
			"0.008": 3.21593888573,
			"0.009": 2.80546073002,
			"0.01": 3.85644600021,
			"0.011": 5.68029975676,
			"0.012": 4.92544179882,
			"0.013": 1.91253508009,
			"0.014": 0.389780520739,
			"0.015": 0.0,
			"0.016": 0.0,
			"0.017": 0.0,
			"0.018": 0.0,
			"0.019": 0.0,
			"0.02": 0.0,
			"0.021": 0.0,
			"0.022": 0.0,
			"0.023": 0.0,
			"0.024": 0.0,
			"0.025": 0.0
		}
	}
}
