{
	 "smiles": "CC(C)C(N)P(O)(O)=O", 
	 "Tm": 543.15, 
	 "num_atms": 21, 
	 "gaussian": { 
		 "optdone": 1, 
		 "sigma_profile": "yes", 
		 "theory": "DFT", 
		 "functional": "B3LYP", 
		 "basiset": "6-31G**", 
		 "properties": { 
			 "R2extent": 1996.0553, 
			 "electric_dipole_moment_norm": 1.18115729689, 
			 "electric_quadrupole_moment_norm": 11.5735313794, 
			 "total_energy": -781.510308491, 
			 "HOMO_LUMO_gap": 0.28027, 
			 "cosmo_polarized_energy": -16.89, 
			 "cosmo_cavitation_energy": 25.07, 
			 "cosmo_dispersion_energy": -17.89, 
			 "cosmo_repulsion_energy": 1.44, 
			 "cosmo_total_nonelectrostatic_energy": 8.62, 
			 "SMD_solvation_energy": 5.68 
		},
		"coords": [
			{
				"x": -1.9470060084,
				"y": 0.2390687564,
				"z": 0.265377493,
				"element": "C" 
			},
			{
				"x": -0.630189897,
				"y": 1.0118704923,
				"z": 0.4407053575,
				"element": "C" 
			},
			{
				"x": -0.3566232478,
				"y": 1.2776860811,
				"z": 1.9294273538,
				"element": "C" 
			},
			{
				"x": 0.5153729196,
				"y": 0.2625332418,
				"z": -0.2863295318,
				"element": "C" 
			},
			{
				"x": 0.2206293958,
				"y": 0.1788098569,
				"z": -1.7203543882,
				"element": "N" 
			},
			{
				"x": 2.1781566233,
				"y": 1.0130678466,
				"z": -0.0060770651,
				"element": "P" 
			},
			{
				"x": 3.0610455451,
				"y": 0.0578610111,
				"z": -0.9864985207,
				"element": "O" 
			},
			{
				"x": 2.6947340521,
				"y": 0.5324940616,
				"z": 1.4685580473,
				"element": "O" 
			},
			{
				"x": 2.3171827931,
				"y": 2.4786952929,
				"z": -0.2299441328,
				"element": "O" 
			},
			{
				"x": -2.1315518078,
				"y": 0.0118120022,
				"z": -0.7859876387,
				"element": "H" 
			},
			{
				"x": -2.7879803912,
				"y": 0.8220414419,
				"z": 0.6551832951,
				"element": "H" 
			},
			{
				"x": -1.9147672376,
				"y": -0.7083458284,
				"z": 0.8177151121,
				"element": "H" 
			},
			{
				"x": -0.7303533881,
				"y": 1.9865427448,
				"z": -0.0578017722,
				"element": "H" 
			},
			{
				"x": -1.2511611563,
				"y": 1.697263172,
				"z": 2.4004426492,
				"element": "H" 
			},
			{
				"x": 0.4512019948,
				"y": 2.0000082156,
				"z": 2.0787831004,
				"element": "H" 
			},
			{
				"x": -0.1002400606,
				"y": 0.3556598546,
				"z": 2.4627492047,
				"element": "H" 
			},
			{
				"x": 0.5763007037,
				"y": -0.7603727964,
				"z": 0.1093800704,
				"element": "H" 
			},
			{
				"x": 0.2191169648,
				"y": 1.1130757463,
				"z": -2.1257151238,
				"element": "H" 
			},
			{
				"x": 0.9459142223,
				"y": -0.348708642,
				"z": -2.1981706053,
				"element": "H" 
			},
			{
				"x": 3.951335364,
				"y": 0.4154828862,
				"z": -1.1151237695,
				"element": "H" 
			},
			{
				"x": 2.7860826164,
				"y": 1.3038545624,
				"z": 2.0455808644,
				"element": "H" 
			}
		],
		 "valence_orbital": [ 
			{
				"type": "occ",
				"energy": -0.33172,
				"method": "rhf"
			},
			{
				"type": "occ",
				"energy": -0.32989,
				"method": "rhf"
			},
			{
				"type": "occ",
				"energy": -0.29375,
				"method": "rhf"
			},
			{
				"type": "occ",
				"energy": -0.28955,
				"method": "rhf"
			},
			{
				"type": "occ",
				"energy": -0.23876,
				"method": "rhf"
			},
			{
				"type": "unocc",
				"energy": 0.04151,
				"method": "rhf"
			},
			{
				"type": "unocc",
				"energy": 0.05979,
				"method": "rhf"
			},
			{
				"type": "unocc",
				"energy": 0.07516,
				"method": "rhf"
			},
			{
				"type": "unocc",
				"energy": 0.10435,
				"method": "rhf"
			},
			{
				"type": "unocc",
				"energy": 0.11282,
				"method": "rhf"
			}
		],
		"cosmo_sigma_profile": { 
			"-0.025": 0.0,
			"-0.024": 0.0,
			"-0.023": 0.0,
			"-0.022": 0.0,
			"-0.021": 0.0,
			"-0.02": 0.018164484062,
			"-0.019": 0.767608163253,
			"-0.018": 1.68866770073,
			"-0.017": 1.33721253187,
			"-0.016": 2.26420122711,
			"-0.015": 1.13383694171,
			"-0.014": 1.10588375139,
			"-0.013": 1.0809914873,
			"-0.012": 1.08519222415,
			"-0.011": 1.98890915329,
			"-0.01": 2.91873375352,
			"-0.009": 3.85049602036,
			"-0.008": 3.47009859973,
			"-0.007": 4.03747580979,
			"-0.006": 5.77595131634,
			"-0.005": 7.47221997272,
			"-0.004": 6.99709898133,
			"-0.003": 14.627020162,
			"-0.002": 16.6599469537,
			"-0.001": 15.9445707481,
			"0.0": 15.8430369126,
			"0.001": 16.411722688,
			"0.002": 9.37567916017,
			"0.003": 4.95280066901,
			"0.004": 5.79317816513,
			"0.005": 4.64988814704,
			"0.006": 3.281098306,
			"0.007": 2.9998625001,
			"0.008": 4.16697489561,
			"0.009": 3.6478487643,
			"0.01": 4.42400366817,
			"0.011": 2.99758894496,
			"0.012": 2.05903049505,
			"0.013": 1.91117004359,
			"0.014": 3.65805843942,
			"0.015": 7.01542515467,
			"0.016": 0.774096669694,
			"0.017": 0.0,
			"0.018": 0.0,
			"0.019": 0.0,
			"0.02": 0.0,
			"0.021": 0.0,
			"0.022": 0.0,
			"0.023": 0.0,
			"0.024": 0.0,
			"0.025": 0.0
		}
	}
}
