{
	 "smiles": "FC1=CC=C(C=C1)C1=CN2N=C(SC2=N1)N1CCNCC1", 
	 "Tm": 465.15, 
	 "num_atms": 35, 
	 "gaussian": { 
		 "optdone": 1, 
		 "sigma_profile": "yes", 
		 "theory": "DFT", 
		 "functional": "B3LYP", 
		 "basiset": "6-31G**", 
		 "properties": { 
			 "R2extent": 11427.9456, 
			 "electric_dipole_moment_norm": 7.08745244146, 
			 "electric_quadrupole_moment_norm": 17.8767700136, 
			 "total_energy": -1313.66111122, 
			 "HOMO_LUMO_gap": 0.17481, 
			 "cosmo_polarized_energy": -15.63, 
			 "cosmo_cavitation_energy": 40.0, 
			 "cosmo_dispersion_energy": -30.03, 
			 "cosmo_repulsion_energy": 2.18, 
			 "cosmo_total_nonelectrostatic_energy": 12.15, 
			 "SMD_solvation_energy": 0.88 
		},
		"coords": [
			{
				"x": -2.7569753905,
				"y": -3.4865014799,
				"z": 6.7045904059,
				"element": "F" 
			},
			{
				"x": -2.1969864842,
				"y": -3.0715196103,
				"z": 5.5462732652,
				"element": "C" 
			},
			{
				"x": -1.2493795113,
				"y": -2.0544954833,
				"z": 5.580477491,
				"element": "C" 
			},
			{
				"x": -0.6759530377,
				"y": -1.6313526472,
				"z": 4.3838281465,
				"element": "C" 
			},
			{
				"x": -1.039424038,
				"y": -2.2130832137,
				"z": 3.1569430595,
				"element": "C" 
			},
			{
				"x": -2.0007433096,
				"y": -3.2384160113,
				"z": 3.1634993215,
				"element": "C" 
			},
			{
				"x": -2.5820710478,
				"y": -3.6711483696,
				"z": 4.3527669343,
				"element": "C" 
			},
			{
				"x": -0.443702076,
				"y": -1.7762719309,
				"z": 1.8879767621,
				"element": "C" 
			},
			{
				"x": 0.5142987148,
				"y": -0.7927310159,
				"z": 1.6756950193,
				"element": "C" 
			},
			{
				"x": 0.7216944423,
				"y": -0.7956709965,
				"z": 0.3159310684,
				"element": "N" 
			},
			{
				"x": 1.5051388566,
				"y": -0.0423394528,
				"z": -0.5206155001,
				"element": "N" 
			},
			{
				"x": 1.310847398,
				"y": -0.4507119556,
				"z": -1.747277639,
				"element": "C" 
			},
			{
				"x": 0.1051568482,
				"y": -1.7777299896,
				"z": -1.9595012484,
				"element": "S" 
			},
			{
				"x": -0.1011961893,
				"y": -1.7492258435,
				"z": -0.2134513244,
				"element": "C" 
			},
			{
				"x": -0.8227752398,
				"y": -2.36650952,
				"z": 0.6865910296,
				"element": "N" 
			},
			{
				"x": 2.0169486426,
				"y": 0.0192841837,
				"z": -2.8149113888,
				"element": "N" 
			},
			{
				"x": 1.5076681104,
				"y": -0.0696448511,
				"z": -4.1864620029,
				"element": "C" 
			},
			{
				"x": 0.8756421184,
				"y": 1.2691646047,
				"z": -4.6158771913,
				"element": "C" 
			},
			{
				"x": 1.7572979291,
				"y": 2.4191013377,
				"z": -4.4104343396,
				"element": "N" 
			},
			{
				"x": 2.2973979478,
				"y": 2.4612912677,
				"z": -3.0478866828,
				"element": "C" 
			},
			{
				"x": 2.9498684078,
				"y": 1.1386864462,
				"z": -2.6098475754,
				"element": "C" 
			},
			{
				"x": -0.9736469437,
				"y": -1.6100789065,
				"z": 6.5308094821,
				"element": "H" 
			},
			{
				"x": 0.0640770751,
				"y": -0.8369842607,
				"z": 4.4111585033,
				"element": "H" 
			},
			{
				"x": -2.2833221846,
				"y": -3.689552003,
				"z": 2.218992676,
				"element": "H" 
			},
			{
				"x": -3.3246241414,
				"y": -4.4619822571,
				"z": 4.3659774324,
				"element": "H" 
			},
			{
				"x": 1.0482512657,
				"y": -0.123489267,
				"z": 2.3291799333,
				"element": "H" 
			},
			{
				"x": 2.3547869395,
				"y": -0.3116046725,
				"z": -4.8426000235,
				"element": "H" 
			},
			{
				"x": 0.7904932141,
				"y": -0.8907705537,
				"z": -4.2684356741,
				"element": "H" 
			},
			{
				"x": -0.0395836585,
				"y": 1.4309038145,
				"z": -4.0314848262,
				"element": "H" 
			},
			{
				"x": 0.5860903166,
				"y": 1.2243045321,
				"z": -5.6714847052,
				"element": "H" 
			},
			{
				"x": 2.5244784288,
				"y": 2.3827617135,
				"z": -5.0793685116,
				"element": "H" 
			},
			{
				"x": 3.0226675485,
				"y": 3.2791914472,
				"z": -2.9788191049,
				"element": "H" 
			},
			{
				"x": 1.4746157817,
				"y": 2.6944731544,
				"z": -2.3606600499,
				"element": "H" 
			},
			{
				"x": 3.2460776255,
				"y": 1.1578171047,
				"z": -1.5606969268,
				"element": "H" 
			},
			{
				"x": 3.8407856408,
				"y": 0.9387346856,
				"z": -3.2209758153,
				"element": "H" 
			}
		],
		 "valence_orbital": [ 
			{
				"type": "occ",
				"energy": -0.25663,
				"method": "rhf"
			},
			{
				"type": "occ",
				"energy": -0.24884,
				"method": "rhf"
			},
			{
				"type": "occ",
				"energy": -0.23711,
				"method": "rhf"
			},
			{
				"type": "occ",
				"energy": -0.22161,
				"method": "rhf"
			},
			{
				"type": "occ",
				"energy": -0.19066,
				"method": "rhf"
			},
			{
				"type": "unocc",
				"energy": -0.01585,
				"method": "rhf"
			},
			{
				"type": "unocc",
				"energy": -0.00882,
				"method": "rhf"
			},
			{
				"type": "unocc",
				"energy": 0.00162,
				"method": "rhf"
			},
			{
				"type": "unocc",
				"energy": 0.00559,
				"method": "rhf"
			},
			{
				"type": "unocc",
				"energy": 0.04617,
				"method": "rhf"
			}
		],
		"cosmo_sigma_profile": { 
			"-0.025": 0.0,
			"-0.024": 0.0,
			"-0.023": 0.0,
			"-0.022": 0.0,
			"-0.021": 0.0,
			"-0.02": 0.0,
			"-0.019": 0.0,
			"-0.018": 0.0,
			"-0.017": 0.0,
			"-0.016": 0.0,
			"-0.015": 0.0,
			"-0.014": 0.0,
			"-0.013": 0.0,
			"-0.012": 0.0,
			"-0.011": 0.122064459776,
			"-0.01": 1.51593768951,
			"-0.009": 4.64137657149,
			"-0.008": 5.21071656405,
			"-0.007": 9.27907107602,
			"-0.006": 13.7274234874,
			"-0.005": 23.6627826002,
			"-0.004": 29.8750517342,
			"-0.003": 23.766257017,
			"-0.002": 21.4285783342,
			"-0.001": 20.3100674757,
			"0.0": 18.8918957648,
			"0.001": 24.8111245649,
			"0.002": 24.9392032041,
			"0.003": 23.2305273154,
			"0.004": 32.2577600046,
			"0.005": 15.9225704067,
			"0.006": 5.01037562817,
			"0.007": 4.98081925198,
			"0.008": 2.97630567054,
			"0.009": 2.4631024482,
			"0.01": 2.74821686368,
			"0.011": 2.69858160776,
			"0.012": 2.20558111854,
			"0.013": 1.59438683436,
			"0.014": 1.07440799189,
			"0.015": 0.774765371713,
			"0.016": 0.446005197462,
			"0.017": 0.455085986205,
			"0.018": 0.347643516433,
			"0.019": 0.0,
			"0.02": 0.0,
			"0.021": 0.0,
			"0.022": 0.0,
			"0.023": 0.0,
			"0.024": 0.0,
			"0.025": 0.0
		}
	}
}
