{
	 "smiles": "OC1(O)C(=O)CCCC1(Cl)Cl", 
	 "Tm": 395.15, 
	 "num_atms": 19, 
	 "gaussian": { 
		 "optdone": 1, 
		 "sigma_profile": "yes", 
		 "theory": "DFT", 
		 "functional": "B3LYP", 
		 "basiset": "6-31G**", 
		 "properties": { 
			 "R2extent": 2981.6837, 
			 "electric_dipole_moment_norm": 3.06303949044, 
			 "electric_quadrupole_moment_norm": 8.08272945731, 
			 "total_energy": -1379.50604195, 
			 "HOMO_LUMO_gap": 0.22326, 
			 "cosmo_polarized_energy": -10.39, 
			 "cosmo_cavitation_energy": 24.14, 
			 "cosmo_dispersion_energy": -18.25, 
			 "cosmo_repulsion_energy": 1.45, 
			 "cosmo_total_nonelectrostatic_energy": 7.34, 
			 "SMD_solvation_energy": 3.87 
		},
		"coords": [
			{
				"x": 1.1973489573,
				"y": -2.1671922426,
				"z": -1.9660842372,
				"element": "O" 
			},
			{
				"x": 0.6899709341,
				"y": -2.100070872,
				"z": -0.6893197725,
				"element": "C" 
			},
			{
				"x": 0.3944431745,
				"y": -3.3793007791,
				"z": -0.1593619154,
				"element": "O" 
			},
			{
				"x": -0.6799687106,
				"y": -1.3513276045,
				"z": -0.7008438595,
				"element": "C" 
			},
			{
				"x": -1.262761589,
				"y": -1.2593637852,
				"z": -1.7616311799,
				"element": "O" 
			},
			{
				"x": -1.1754604124,
				"y": -0.7849048971,
				"z": 0.6097443508,
				"element": "C" 
			},
			{
				"x": -0.440026737,
				"y": -1.3792443783,
				"z": 1.8193438627,
				"element": "C" 
			},
			{
				"x": 1.1093022406,
				"y": -1.3410351591,
				"z": 1.7217513917,
				"element": "C" 
			},
			{
				"x": 1.657507978,
				"y": -1.3695754233,
				"z": 0.278467231,
				"element": "C" 
			},
			{
				"x": 1.8765749267,
				"y": 0.3335418209,
				"z": -0.3363632244,
				"element": "Cl" 
			},
			{
				"x": 3.2763078589,
				"y": -2.1964850625,
				"z": 0.2511695194,
				"element": "Cl" 
			},
			{
				"x": 0.4339629212,
				"y": -2.015666569,
				"z": -2.5557667577,
				"element": "H" 
			},
			{
				"x": 1.1281078049,
				"y": -3.9536610411,
				"z": -0.4278591731,
				"element": "H" 
			},
			{
				"x": -1.0250027065,
				"y": 0.300828128,
				"z": 0.5461311079,
				"element": "H" 
			},
			{
				"x": -2.2564618601,
				"y": -0.9447942993,
				"z": 0.6712270735,
				"element": "H" 
			},
			{
				"x": -0.7503598785,
				"y": -2.421117552,
				"z": 1.9266177833,
				"element": "H" 
			},
			{
				"x": -0.7502684317,
				"y": -0.8552852747,
				"z": 2.728075634,
				"element": "H" 
			},
			{
				"x": 1.5060909092,
				"y": -2.2130153783,
				"z": 2.2441118006,
				"element": "H" 
			},
			{
				"x": 1.5198926202,
				"y": -0.4575296308,
				"z": 2.215090365,
				"element": "H" 
			}
		],
		 "valence_orbital": [ 
			{
				"type": "occ",
				"energy": -0.32007,
				"method": "rhf"
			},
			{
				"type": "occ",
				"energy": -0.30637,
				"method": "rhf"
			},
			{
				"type": "occ",
				"energy": -0.30332,
				"method": "rhf"
			},
			{
				"type": "occ",
				"energy": -0.30122,
				"method": "rhf"
			},
			{
				"type": "occ",
				"energy": -0.27492,
				"method": "rhf"
			},
			{
				"type": "unocc",
				"energy": -0.05166,
				"method": "rhf"
			},
			{
				"type": "unocc",
				"energy": -0.01547,
				"method": "rhf"
			},
			{
				"type": "unocc",
				"energy": 0.01081,
				"method": "rhf"
			},
			{
				"type": "unocc",
				"energy": 0.07997,
				"method": "rhf"
			},
			{
				"type": "unocc",
				"energy": 0.09427,
				"method": "rhf"
			}
		],
		"cosmo_sigma_profile": { 
			"-0.025": 0.0,
			"-0.024": 0.0,
			"-0.023": 0.0,
			"-0.022": 0.0,
			"-0.021": 0.0,
			"-0.02": 0.0,
			"-0.019": 0.0,
			"-0.018": 0.0,
			"-0.017": 0.0700176462081,
			"-0.016": 0.47355002467,
			"-0.015": 0.908307963543,
			"-0.014": 0.492329095641,
			"-0.013": 0.587770153335,
			"-0.012": 1.20676153633,
			"-0.011": 1.54389962611,
			"-0.01": 1.06532755119,
			"-0.009": 1.47770397134,
			"-0.008": 1.26022280599,
			"-0.007": 3.40697182198,
			"-0.006": 7.69088659357,
			"-0.005": 14.6110017216,
			"-0.004": 17.7397610382,
			"-0.003": 17.3320568679,
			"-0.002": 14.1626354115,
			"-0.001": 11.0591496899,
			"0.0": 10.7540069952,
			"0.001": 11.7395750193,
			"0.002": 11.7556299476,
			"0.003": 12.1560150012,
			"0.004": 13.6233722157,
			"0.005": 9.98013877479,
			"0.006": 5.09799884309,
			"0.007": 5.47907161131,
			"0.008": 4.98987820254,
			"0.009": 5.63065876076,
			"0.01": 4.51589678388,
			"0.011": 2.2169812822,
			"0.012": 0.273969584513,
			"0.013": 0.0,
			"0.014": 0.0,
			"0.015": 0.0,
			"0.016": 0.0,
			"0.017": 0.0,
			"0.018": 0.0,
			"0.019": 0.0,
			"0.02": 0.0,
			"0.021": 0.0,
			"0.022": 0.0,
			"0.023": 0.0,
			"0.024": 0.0,
			"0.025": 0.0
		}
	}
}
