{
	 "smiles": "OC(=O)C1=CC=C(S1)[N+]([O-])=O", 
	 "Tm": 420.15, 
	 "num_atms": 14, 
	 "gaussian": { 
		 "optdone": 1, 
		 "sigma_profile": "yes", 
		 "theory": "DFT", 
		 "functional": "B3LYP", 
		 "basiset": "6-31G**", 
		 "properties": { 
			 "R2extent": 2666.6743, 
			 "electric_dipole_moment_norm": 4.87475572721, 
			 "electric_quadrupole_moment_norm": 6.56350797135, 
			 "total_energy": -946.064505997, 
			 "HOMO_LUMO_gap": 0.16648, 
			 "cosmo_polarized_energy": -12.77, 
			 "cosmo_cavitation_energy": 22.04, 
			 "cosmo_dispersion_energy": -16.72, 
			 "cosmo_repulsion_energy": 1.3, 
			 "cosmo_total_nonelectrostatic_energy": 6.62, 
			 "SMD_solvation_energy": 7.39 
		},
		"coords": [
			{
				"x": 2.0677161646,
				"y": -0.7937255231,
				"z": 2.4903862652,
				"element": "O" 
			},
			{
				"x": 0.8605575049,
				"y": -0.19042911,
				"z": 2.5740144561,
				"element": "C" 
			},
			{
				"x": 0.1841503038,
				"y": -0.1768805397,
				"z": 3.582078056,
				"element": "O" 
			},
			{
				"x": 0.468596084,
				"y": 0.4423857984,
				"z": 1.3020853386,
				"element": "C" 
			},
			{
				"x": 1.1602407474,
				"y": 0.4830230795,
				"z": 0.1075917517,
				"element": "C" 
			},
			{
				"x": 0.4606499528,
				"y": 1.1874891212,
				"z": -0.8996508973,
				"element": "C" 
			},
			{
				"x": -0.7415132662,
				"y": 1.6560198696,
				"z": -0.4257588976,
				"element": "C" 
			},
			{
				"x": -1.0593719483,
				"y": 1.2651773805,
				"z": 1.2289475654,
				"element": "S" 
			},
			{
				"x": -1.7069289953,
				"y": 2.4145725142,
				"z": -1.1810586316,
				"element": "N" 
			},
			{
				"x": -1.4322763543,
				"y": 2.665760482,
				"z": -2.3537487626,
				"element": "O" 
			},
			{
				"x": -2.7358508753,
				"y": 2.753879777,
				"z": -0.5920389684,
				"element": "O" 
			},
			{
				"x": 2.2404525304,
				"y": -1.1789963229,
				"z": 3.3656799572,
				"element": "H" 
			},
			{
				"x": 2.1302886035,
				"y": 0.0202710312,
				"z": -0.0231521449,
				"element": "H" 
			},
			{
				"x": 0.7972895481,
				"y": 1.3531524422,
				"z": -1.9143750879,
				"element": "H" 
			}
		],
		 "valence_orbital": [ 
			{
				"type": "occ",
				"energy": -0.32131,
				"method": "rhf"
			},
			{
				"type": "occ",
				"energy": -0.30697,
				"method": "rhf"
			},
			{
				"type": "occ",
				"energy": -0.30284,
				"method": "rhf"
			},
			{
				"type": "occ",
				"energy": -0.29353,
				"method": "rhf"
			},
			{
				"type": "occ",
				"energy": -0.28339,
				"method": "rhf"
			},
			{
				"type": "unocc",
				"energy": -0.11691,
				"method": "rhf"
			},
			{
				"type": "unocc",
				"energy": -0.05216,
				"method": "rhf"
			},
			{
				"type": "unocc",
				"energy": 0.00044,
				"method": "rhf"
			},
			{
				"type": "unocc",
				"energy": 0.02001,
				"method": "rhf"
			},
			{
				"type": "unocc",
				"energy": 0.05522,
				"method": "rhf"
			}
		],
		"cosmo_sigma_profile": { 
			"-0.025": 0.0,
			"-0.024": 0.0,
			"-0.023": 0.0,
			"-0.022": 0.0,
			"-0.021": 0.0,
			"-0.02": 0.10222484363,
			"-0.019": 0.889532964697,
			"-0.018": 0.935885286307,
			"-0.017": 1.12007140126,
			"-0.016": 0.598108398758,
			"-0.015": 0.52883114469,
			"-0.014": 0.249590650654,
			"-0.013": 0.941003320222,
			"-0.012": 0.770671320786,
			"-0.011": 0.826976011016,
			"-0.01": 1.77181769192,
			"-0.009": 3.70031731919,
			"-0.008": 4.49218626349,
			"-0.007": 5.36870494838,
			"-0.006": 5.42994644248,
			"-0.005": 6.15377078596,
			"-0.004": 9.16307899075,
			"-0.003": 11.8770610694,
			"-0.002": 15.5744561135,
			"-0.001": 19.0606293681,
			"0.0": 17.3993018269,
			"0.001": 9.08701974194,
			"0.002": 4.88174985167,
			"0.003": 5.07473441583,
			"0.004": 6.1388153008,
			"0.005": 5.82267739136,
			"0.006": 7.91382784604,
			"0.007": 13.0184311029,
			"0.008": 7.17711705309,
			"0.009": 5.53534540634,
			"0.01": 4.20680576121,
			"0.011": 3.67392399876,
			"0.012": 0.128138114955,
			"0.013": 0.0,
			"0.014": 0.0,
			"0.015": 0.0,
			"0.016": 0.0,
			"0.017": 0.0,
			"0.018": 0.0,
			"0.019": 0.0,
			"0.02": 0.0,
			"0.021": 0.0,
			"0.022": 0.0,
			"0.023": 0.0,
			"0.024": 0.0,
			"0.0": 0.0
		}
	}
}
