{
	 "smiles": "CC=CCl", 
	 "Tm": 174.15, 
	 "num_atms": 9, 
	 "gaussian": { 
		 "optdone": 1, 
		 "sigma_profile": "yes", 
		 "theory": "DFT", 
		 "functional": "B3LYP", 
		 "basiset": "6-31G**", 
		 "properties": { 
			 "R2extent": 1139.7283, 
			 "electric_dipole_moment_norm": 2.0891190799, 
			 "electric_quadrupole_moment_norm": 5.03457139387, 
			 "total_energy": -577.506729025, 
			 "HOMO_LUMO_gap": 0.25585, 
			 "cosmo_polarized_energy": -3.02, 
			 "cosmo_cavitation_energy": 14.33, 
			 "cosmo_dispersion_energy": -10.82, 
			 "cosmo_repulsion_energy": 1.0, 
			 "cosmo_total_nonelectrostatic_energy": 4.51, 
			 "SMD_solvation_energy": 2.99 
		},
		"coords": [
			{
				"x": 0.9886022057,
				"y": -0.4060574831,
				"z": 1.488894589,
				"element": "C" 
			},
			{
				"x": 1.6060455678,
				"y": -1.0960753151,
				"z": 0.3066662408,
				"element": "C" 
			},
			{
				"x": 1.404325634,
				"y": -0.7112922045,
				"z": -0.9506948094,
				"element": "C" 
			},
			{
				"x": 2.1254604632,
				"y": -1.517116861,
				"z": -2.3307149184,
				"element": "Cl" 
			},
			{
				"x": 0.3664751287,
				"y": -1.1005968831,
				"z": 2.066523769,
				"element": "H" 
			},
			{
				"x": 1.7615297717,
				"y": -0.0302458361,
				"z": 2.1703859369,
				"element": "H" 
			},
			{
				"x": 0.3631906059,
				"y": 0.4385029337,
				"z": 1.1857251203,
				"element": "H" 
			},
			{
				"x": 2.2483079426,
				"y": -1.9520712942,
				"z": 0.50297854,
				"element": "H" 
			},
			{
				"x": 0.7811626805,
				"y": 0.1285529434,
				"z": -1.2373644682,
				"element": "H" 
			}
		],
		 "valence_orbital": [ 
			{
				"type": "occ",
				"energy": -0.38769,
				"method": "rhf"
			},
			{
				"type": "occ",
				"energy": -0.37068,
				"method": "rhf"
			},
			{
				"type": "occ",
				"energy": -0.35285,
				"method": "rhf"
			},
			{
				"type": "occ",
				"energy": -0.30691,
				"method": "rhf"
			},
			{
				"type": "occ",
				"energy": -0.24776,
				"method": "rhf"
			},
			{
				"type": "unocc",
				"energy": 0.00809,
				"method": "rhf"
			},
			{
				"type": "unocc",
				"energy": 0.04095,
				"method": "rhf"
			},
			{
				"type": "unocc",
				"energy": 0.11286,
				"method": "rhf"
			},
			{
				"type": "unocc",
				"energy": 0.1205,
				"method": "rhf"
			},
			{
				"type": "unocc",
				"energy": 0.16036,
				"method": "rhf"
			}
		],
		"cosmo_sigma_profile": { 
			"-0.025": 0.0,
			"-0.024": 0.0,
			"-0.023": 0.0,
			"-0.022": 0.0,
			"-0.021": 0.0,
			"-0.02": 0.0,
			"-0.019": 0.0,
			"-0.018": 0.0,
			"-0.017": 0.0,
			"-0.016": 0.0,
			"-0.015": 0.0,
			"-0.014": 0.0,
			"-0.013": 0.0,
			"-0.012": 0.0,
			"-0.011": 0.0,
			"-0.01": 0.0,
			"-0.009": 0.00739414380008,
			"-0.008": 1.4537440896,
			"-0.007": 1.83737920578,
			"-0.006": 4.11682207524,
			"-0.005": 6.2748497692,
			"-0.004": 9.20554282457,
			"-0.003": 9.78642012304,
			"-0.002": 10.2211859655,
			"-0.001": 12.3110753247,
			"0.0": 10.5057266927,
			"0.001": 7.38206402189,
			"0.002": 6.83411528384,
			"0.003": 8.05847219107,
			"0.004": 11.275192098,
			"0.005": 12.0340502762,
			"0.006": 4.53928006084,
			"0.007": 0.0,
			"0.008": 0.0,
			"0.009": 0.0,
			"0.01": 0.0,
			"0.011": 0.0,
			"0.012": 0.0,
			"0.013": 0.0,
			"0.014": 0.0,
			"0.015": 0.0,
			"0.016": 0.0,
			"0.017": 0.0,
			"0.018": 0.0,
			"0.019": 0.0,
			"0.02": 0.0,
			"0.021": 0.0,
			"0.022": 0.0,
			"0.023": 0.0,
			"0.024": 0.0,
			"0.025": 0.0
		}
	}
}
