{
	 "smiles": "ClC1=NC2=CC=CC=C2O1", 
	 "Tm": 280.15, 
	 "num_atms": 14, 
	 "gaussian": { 
		 "optdone": 1, 
		 "sigma_profile": "yes", 
		 "theory": "DFT", 
		 "functional": "B3LYP", 
		 "basiset": "6-31G**", 
		 "properties": { 
			 "R2extent": 2658.9309, 
			 "electric_dipole_moment_norm": 2.20453847324, 
			 "electric_quadrupole_moment_norm": 6.63795438595, 
			 "total_energy": -859.308619381, 
			 "HOMO_LUMO_gap": 0.20847, 
			 "cosmo_polarized_energy": -4.99, 
			 "cosmo_cavitation_energy": 20.53, 
			 "cosmo_dispersion_energy": -15.95, 
			 "cosmo_repulsion_energy": 1.29, 
			 "cosmo_total_nonelectrostatic_energy": 5.87, 
			 "SMD_solvation_energy": 1.74 
		},
		"coords": [
			{
				"x": 3.9958727516,
				"y": -1.2178451124,
				"z": 0.1622339167,
				"element": "Cl" 
			},
			{
				"x": 2.7536978077,
				"y": -0.0551751926,
				"z": -0.0159512213,
				"element": "C" 
			},
			{
				"x": 2.554440386,
				"y": 0.7181156324,
				"z": -1.0244478006,
				"element": "N" 
			},
			{
				"x": 1.4234366056,
				"y": 1.4524331101,
				"z": -0.6446344539,
				"element": "C" 
			},
			{
				"x": 0.7124005119,
				"y": 2.4544803923,
				"z": -1.3084378943,
				"element": "C" 
			},
			{
				"x": -0.3900012279,
				"y": 2.9964264169,
				"z": -0.6477186465,
				"element": "C" 
			},
			{
				"x": -0.7754171074,
				"y": 2.5577002051,
				"z": 0.6326539943,
				"element": "C" 
			},
			{
				"x": -0.0729255553,
				"y": 1.5559333004,
				"z": 1.3081226755,
				"element": "C" 
			},
			{
				"x": 1.0170557134,
				"y": 1.0351374208,
				"z": 0.6296944205,
				"element": "C" 
			},
			{
				"x": 1.8917696291,
				"y": 0.0467889107,
				"z": 1.0382464197,
				"element": "O" 
			},
			{
				"x": 1.0130125284,
				"y": 2.789514115,
				"z": -2.2951028858,
				"element": "H" 
			},
			{
				"x": -0.9682717606,
				"y": 3.7776807712,
				"z": -1.1313180156,
				"element": "H" 
			},
			{
				"x": -1.6405399866,
				"y": 3.0081750973,
				"z": 1.1090874764,
				"element": "H" 
			},
			{
				"x": -0.3590302957,
				"y": 1.2088349329,
				"z": 2.2943720147,
				"element": "H" 
			}
		],
		 "valence_orbital": [ 
			{
				"type": "occ",
				"energy": -0.34503,
				"method": "rhf"
			},
			{
				"type": "occ",
				"energy": -0.32925,
				"method": "rhf"
			},
			{
				"type": "occ",
				"energy": -0.3077,
				"method": "rhf"
			},
			{
				"type": "occ",
				"energy": -0.25737,
				"method": "rhf"
			},
			{
				"type": "occ",
				"energy": -0.24477,
				"method": "rhf"
			},
			{
				"type": "unocc",
				"energy": -0.0363,
				"method": "rhf"
			},
			{
				"type": "unocc",
				"energy": -0.00445,
				"method": "rhf"
			},
			{
				"type": "unocc",
				"energy": 0.02099,
				"method": "rhf"
			},
			{
				"type": "unocc",
				"energy": 0.02622,
				"method": "rhf"
			},
			{
				"type": "unocc",
				"energy": 0.08703,
				"method": "rhf"
			}
		],
		"cosmo_sigma_profile": { 
			"-0.025": 0.0,
			"-0.024": 0.0,
			"-0.023": 0.0,
			"-0.022": 0.0,
			"-0.021": 0.0,
			"-0.02": 0.0,
			"-0.019": 0.0,
			"-0.018": 0.0,
			"-0.017": 0.0,
			"-0.016": 0.0,
			"-0.015": 0.0,
			"-0.014": 0.0,
			"-0.013": 0.0,
			"-0.012": 0.0,
			"-0.011": 0.0,
			"-0.01": 0.0,
			"-0.009": 0.0202657818737,
			"-0.008": 1.48694224798,
			"-0.007": 4.42523004392,
			"-0.006": 9.10969538645,
			"-0.005": 11.1957981119,
			"-0.004": 12.2489674529,
			"-0.003": 11.3093940489,
			"-0.002": 10.9363575133,
			"-0.001": 11.7810519863,
			"0.0": 15.0876049071,
			"0.001": 19.0935590497,
			"0.002": 22.9897751015,
			"0.003": 13.5192174887,
			"0.004": 11.3328838346,
			"0.005": 3.79484594897,
			"0.006": 2.76920172482,
			"0.007": 0.687087159613,
			"0.008": 0.969359868088,
			"0.009": 1.53633358338,
			"0.01": 1.06780093089,
			"0.011": 0.666406846237,
			"0.012": 1.17960466579,
			"0.013": 0.923189325599,
			"0.014": 0.759033476818,
			"0.015": 0.00696573570517,
			"0.016": 0.0,
			"0.017": 0.0,
			"0.018": 0.0,
			"0.019": 0.0,
			"0.02": 0.0,
			"0.021": 0.0,
			"0.022": 0.0,
			"0.023": 0.0,
			"0.024": 0.0,
			"0.025": 0.0
		}
	}
}
