{
	 "smiles": "COC(=O)C1=CC(=CC=C1S(=O)(=O)CCO)S(N)(=O)=O", 
	 "Tm": 372.15, 
	 "num_atms": 33, 
	 "gaussian": { 
		 "optdone": 1, 
		 "sigma_profile": "yes", 
		 "theory": "DFT", 
		 "functional": "B3LYP", 
		 "basiset": "6-31G**", 
		 "properties": { 
			 "R2extent": 7565.2075, 
			 "electric_dipole_moment_norm": 1.53900112086, 
			 "electric_quadrupole_moment_norm": 31.3748118941, 
			 "total_energy": -1766.44406249, 
			 "HOMO_LUMO_gap": 0.19555, 
			 "cosmo_polarized_energy": -31.19, 
			 "cosmo_cavitation_energy": 38.99, 
			 "cosmo_dispersion_energy": -28.37, 
			 "cosmo_repulsion_energy": 2.08, 
			 "cosmo_total_nonelectrostatic_energy": 12.7, 
			 "SMD_solvation_energy": 6.77 
		},
		"coords": [
			{
				"x": -0.8809355542,
				"y": -2.6081762041,
				"z": 2.5312193797,
				"element": "C" 
			},
			{
				"x": -0.4867583075,
				"y": -1.5476601794,
				"z": 1.6328130898,
				"element": "O" 
			},
			{
				"x": -0.3817374149,
				"y": -1.8845338873,
				"z": 0.3409152625,
				"element": "C" 
			},
			{
				"x": -0.6902574204,
				"y": -2.9593773754,
				"z": -0.1224247875,
				"element": "O" 
			},
			{
				"x": 0.0470625906,
				"y": -0.7232183959,
				"z": -0.5227703018,
				"element": "C" 
			},
			{
				"x": -0.816513295,
				"y": -0.4385457323,
				"z": -1.5890030069,
				"element": "C" 
			},
			{
				"x": -0.5380613693,
				"y": 0.6084745312,
				"z": -2.4631666588,
				"element": "C" 
			},
			{
				"x": 0.607947086,
				"y": 1.3890013327,
				"z": -2.3134361975,
				"element": "C" 
			},
			{
				"x": 1.4939820522,
				"y": 1.0867028227,
				"z": -1.2827835174,
				"element": "C" 
			},
			{
				"x": 1.2152705525,
				"y": 0.0480917056,
				"z": -0.38763344,
				"element": "C" 
			},
			{
				"x": 2.5500757346,
				"y": -0.3119045398,
				"z": 0.8025441412,
				"element": "S" 
			},
			{
				"x": 3.8030082603,
				"y": 0.0461446194,
				"z": 0.1227913261,
				"element": "O" 
			},
			{
				"x": 2.3491713003,
				"y": -1.6803590508,
				"z": 1.3235942631,
				"element": "O" 
			},
			{
				"x": 2.3460750128,
				"y": 0.8683131557,
				"z": 2.179204433,
				"element": "C" 
			},
			{
				"x": 1.2205979575,
				"y": 0.527615733,
				"z": 3.1608904648,
				"element": "C" 
			},
			{
				"x": 1.4592083742,
				"y": -0.6680187952,
				"z": 3.8712664426,
				"element": "O" 
			},
			{
				"x": -1.6702645498,
				"y": 0.9437562531,
				"z": -3.8318219353,
				"element": "S" 
			},
			{
				"x": -1.2291128107,
				"y": -0.0785727337,
				"z": -5.0783190624,
				"element": "N" 
			},
			{
				"x": -2.9957066232,
				"y": 0.5077272628,
				"z": -3.4028772491,
				"element": "O" 
			},
			{
				"x": -1.3765501305,
				"y": 2.2971595945,
				"z": -4.2953377065,
				"element": "O" 
			},
			{
				"x": -1.9246540949,
				"y": -2.878926403,
				"z": 2.3562552975,
				"element": "H" 
			},
			{
				"x": -0.2486303646,
				"y": -3.4840630691,
				"z": 2.3740984757,
				"element": "H" 
			},
			{
				"x": -0.7389268531,
				"y": -2.1983445602,
				"z": 3.529512781,
				"element": "H" 
			},
			{
				"x": -1.7157617881,
				"y": -1.031628949,
				"z": -1.7147685328,
				"element": "H" 
			},
			{
				"x": 0.7994765459,
				"y": 2.2104761299,
				"z": -2.9949802978,
				"element": "H" 
			},
			{
				"x": 2.4252120537,
				"y": 1.6342811007,
				"z": -1.1871319793,
				"element": "H" 
			},
			{
				"x": 3.321660229,
				"y": 0.8296831708,
				"z": 2.6744063606,
				"element": "H" 
			},
			{
				"x": 2.2207907342,
				"y": 1.8536391513,
				"z": 1.7207174854,
				"element": "H" 
			},
			{
				"x": 1.1773944017,
				"y": 1.3350973241,
				"z": 3.8998624184,
				"element": "H" 
			},
			{
				"x": 0.2580524647,
				"y": 0.5092276866,
				"z": 2.6335359915,
				"element": "H" 
			},
			{
				"x": 1.6603460694,
				"y": -1.3539192617,
				"z": 3.2136417987,
				"element": "H" 
			},
			{
				"x": -1.3939335309,
				"y": -1.061124615,
				"z": -4.8870467576,
				"element": "H" 
			},
			{
				"x": -0.3188273127,
				"y": 0.1229821777,
				"z": -5.4777679808,
				"element": "H" 
			}
		],
		 "valence_orbital": [ 
			{
				"type": "occ",
				"energy": -0.31231,
				"method": "rhf"
			},
			{
				"type": "occ",
				"energy": -0.30509,
				"method": "rhf"
			},
			{
				"type": "occ",
				"energy": -0.29725,
				"method": "rhf"
			},
			{
				"type": "occ",
				"energy": -0.28858,
				"method": "rhf"
			},
			{
				"type": "occ",
				"energy": -0.28249,
				"method": "rhf"
			},
			{
				"type": "unocc",
				"energy": -0.08694,
				"method": "rhf"
			},
			{
				"type": "unocc",
				"energy": -0.06303,
				"method": "rhf"
			},
			{
				"type": "unocc",
				"energy": -0.00094,
				"method": "rhf"
			},
			{
				"type": "unocc",
				"energy": 0.02833,
				"method": "rhf"
			},
			{
				"type": "unocc",
				"energy": 0.03907,
				"method": "rhf"
			}
		],
		"cosmo_sigma_profile": { 
			"-0.025": 0.0,
			"-0.024": 0.0,
			"-0.023": 0.0,
			"-0.022": 0.0,
			"-0.021": 0.0,
			"-0.02": 0.0,
			"-0.019": 0.0,
			"-0.018": 0.0,
			"-0.017": 0.0,
			"-0.016": 1.22057918226,
			"-0.015": 3.1238490383,
			"-0.014": 2.7830350006,
			"-0.013": 3.46058749587,
			"-0.012": 2.72373789102,
			"-0.011": 3.01382669219,
			"-0.01": 3.16654495896,
			"-0.009": 8.2134086016,
			"-0.008": 11.7142265593,
			"-0.007": 14.0448088572,
			"-0.006": 19.7636317015,
			"-0.005": 19.2437976078,
			"-0.004": 20.2697744463,
			"-0.003": 17.7966952725,
			"-0.002": 18.5882720301,
			"-0.001": 19.231699865,
			"0.0": 12.2024755747,
			"0.001": 10.3833515874,
			"0.002": 9.4284162567,
			"0.003": 8.48364758885,
			"0.004": 7.07951950272,
			"0.005": 8.0953109592,
			"0.006": 10.0825321568,
			"0.007": 10.1882825087,
			"0.008": 8.79051924792,
			"0.009": 11.1042369331,
			"0.01": 19.245519181,
			"0.011": 20.2055388915,
			"0.012": 3.06714557127,
			"0.013": 1.56650691177,
			"0.014": 1.48135818837,
			"0.015": 0.0806554583285,
			"0.016": 0.0,
			"0.017": 0.0,
			"0.018": 0.0,
			"0.019": 0.0,
			"0.02": 0.0,
			"0.021": 0.0,
			"0.022": 0.0,
			"0.023": 0.0,
			"0.024": 0.0,
			"0.025": 0.0
		}
	}
}
