{
	 "smiles": "O=C1NC(=O)C(=O)N1C1=CC2=C(OCO2)C=C1", 
	 "Tm": 469.15, 
	 "num_atms": 23, 
	 "gaussian": { 
		 "optdone": 1, 
		 "sigma_profile": "yes", 
		 "theory": "DFT", 
		 "functional": "B3LYP", 
		 "basiset": "6-31G**", 
		 "properties": { 
			 "R2extent": 4972.3024, 
			 "electric_dipole_moment_norm": 3.06123209509, 
			 "electric_quadrupole_moment_norm": 18.0248507708, 
			 "total_energy": -870.302907607, 
			 "HOMO_LUMO_gap": 0.12684, 
			 "cosmo_polarized_energy": -17.73, 
			 "cosmo_cavitation_energy": 29.14, 
			 "cosmo_dispersion_energy": -21.78, 
			 "cosmo_repulsion_energy": 1.67, 
			 "cosmo_total_nonelectrostatic_energy": 9.03, 
			 "SMD_solvation_energy": 8.24 
		},
		"coords": [
			{
				"x": 0.1318527126,
				"y": -0.1142176874,
				"z": 2.0170293876,
				"element": "O" 
			},
			{
				"x": 0.6628752537,
				"y": -0.9412641378,
				"z": 1.3168124892,
				"element": "C" 
			},
			{
				"x": 1.1293672759,
				"y": -2.1936591658,
				"z": 1.7294320895,
				"element": "N" 
			},
			{
				"x": 1.6930353291,
				"y": -2.9297311246,
				"z": 0.7017549583,
				"element": "C" 
			},
			{
				"x": 2.1759015589,
				"y": -4.0330643074,
				"z": 0.7481331031,
				"element": "O" 
			},
			{
				"x": 1.5654717347,
				"y": -2.00803319,
				"z": -0.5345788654,
				"element": "C" 
			},
			{
				"x": 1.9232457729,
				"y": -2.2613813045,
				"z": -1.6580982167,
				"element": "O" 
			},
			{
				"x": 0.9450732968,
				"y": -0.8439236509,
				"z": -0.0647908179,
				"element": "N" 
			},
			{
				"x": 0.6250130425,
				"y": 0.3033033781,
				"z": -0.8613297584,
				"element": "C" 
			},
			{
				"x": 0.8720681417,
				"y": 1.5899873082,
				"z": -0.3376328769,
				"element": "C" 
			},
			{
				"x": 0.5549445069,
				"y": 2.6512667308,
				"z": -1.1574266335,
				"element": "C" 
			},
			{
				"x": 0.0360237797,
				"y": 2.4756058077,
				"z": -2.4394093382,
				"element": "C" 
			},
			{
				"x": -0.1909455996,
				"y": 3.6974101634,
				"z": -3.017917331,
				"element": "O" 
			},
			{
				"x": 0.3169687494,
				"y": 4.6705985291,
				"z": -2.0954699047,
				"element": "C" 
			},
			{
				"x": 0.6732597938,
				"y": 3.9902787077,
				"z": -0.885221655,
				"element": "O" 
			},
			{
				"x": -0.1992243601,
				"y": 1.2194936154,
				"z": -2.9608590578,
				"element": "C" 
			},
			{
				"x": 0.1000112321,
				"y": 0.1179482008,
				"z": -2.1413426826,
				"element": "C" 
			},
			{
				"x": 1.0429347548,
				"y": -2.5016506827,
				"z": 2.6883043612,
				"element": "H" 
			},
			{
				"x": 1.2661599499,
				"y": 1.7370682411,
				"z": 0.6584613617,
				"element": "H" 
			},
			{
				"x": -0.4605889428,
				"y": 5.4110577389,
				"z": -1.8823700688,
				"element": "H" 
			},
			{
				"x": 1.2080542943,
				"y": 5.150163132,
				"z": -2.5226976591,
				"element": "H" 
			},
			{
				"x": -0.6023958476,
				"y": 1.0868098645,
				"z": -3.9578143383,
				"element": "H" 
			},
			{
				"x": -0.0610064296,
				"y": -0.8847661665,
				"z": -2.5151685465,
				"element": "H" 
			}
		],
		 "valence_orbital": [ 
			{
				"type": "occ",
				"energy": -0.30507,
				"method": "rhf"
			},
			{
				"type": "occ",
				"energy": -0.30121,
				"method": "rhf"
			},
			{
				"type": "occ",
				"energy": -0.28035,
				"method": "rhf"
			},
			{
				"type": "occ",
				"energy": -0.2575,
				"method": "rhf"
			},
			{
				"type": "occ",
				"energy": -0.21775,
				"method": "rhf"
			},
			{
				"type": "unocc",
				"energy": -0.09091,
				"method": "rhf"
			},
			{
				"type": "unocc",
				"energy": -0.01913,
				"method": "rhf"
			},
			{
				"type": "unocc",
				"energy": -0.00893,
				"method": "rhf"
			},
			{
				"type": "unocc",
				"energy": 0.03682,
				"method": "rhf"
			},
			{
				"type": "unocc",
				"energy": 0.06679,
				"method": "rhf"
			}
		],
		"cosmo_sigma_profile": { 
			"-0.025": 0.0,
			"-0.024": 0.0,
			"-0.023": 0.0,
			"-0.022": 0.0,
			"-0.021": 0.0,
			"-0.02": 0.0,
			"-0.019": 0.17907653958,
			"-0.018": 1.19702593369,
			"-0.017": 1.58447901314,
			"-0.016": 1.11637230494,
			"-0.015": 0.325604036216,
			"-0.014": 0.821413737353,
			"-0.013": 1.55936255425,
			"-0.012": 0.691343682608,
			"-0.011": 1.50857605203,
			"-0.01": 2.76939106841,
			"-0.009": 2.86244937307,
			"-0.008": 8.76103251017,
			"-0.007": 16.1455036389,
			"-0.006": 15.5469658979,
			"-0.005": 14.3197983154,
			"-0.004": 12.1847376922,
			"-0.003": 9.85829952617,
			"-0.002": 8.89569388667,
			"-0.001": 9.70448874689,
			"0.0": 11.1189852955,
			"0.001": 12.5899700625,
			"0.002": 15.7904687729,
			"0.003": 13.5284964808,
			"0.004": 8.33585340381,
			"0.005": 7.79494286873,
			"0.006": 7.86151561477,
			"0.007": 7.10765651891,
			"0.008": 9.1062534976,
			"0.009": 14.6903495318,
			"0.01": 14.1695249186,
			"0.011": 3.19434130948,
			"0.012": 0.0,
			"0.013": 0.0,
			"0.014": 0.0,
			"0.015": 0.0,
			"0.016": 0.0,
			"0.017": 0.0,
			"0.018": 0.0,
			"0.019": 0.0,
			"0.02": 0.0,
			"0.021": 0.0,
			"0.022": 0.0,
			"0.023": 0.0,
			"0.024": 0.0,
			"0.025": 0.0
		}
	}
}
