{
	 "smiles": "BrCC=CCBr", 
	 "Tm": 326.55, 
	 "num_atms": 12, 
	 "gaussian": { 
		 "optdone": 1, 
		 "sigma_profile": "yes", 
		 "theory": "DFT", 
		 "functional": "B3LYP", 
		 "basiset": "6-31G**", 
		 "properties": { 
			 "R2extent": 3744.3264, 
			 "electric_dipole_moment_norm": 0.0, 
			 "electric_quadrupole_moment_norm": 10.6007673727, 
			 "total_energy": -5298.83725874, 
			 "HOMO_LUMO_gap": 0.21373, 
			 "cosmo_polarized_energy": -7.3, 
			 "cosmo_cavitation_energy": 20.68, 
			 "cosmo_dispersion_energy": -15.92, 
			 "cosmo_repulsion_energy": 1.41, 
			 "cosmo_total_nonelectrostatic_energy": 6.17, 
			 "SMD_solvation_energy": 1.32 
		},
		"coords": [
			{
				"x": 2.1728777859,
				"y": 0.9393466745,
				"z": -0.7331576518,
				"element": "Br" 
			},
			{
				"x": 1.2434459101,
				"y": 0.7811547602,
				"z": 1.0346442756,
				"element": "C" 
			},
			{
				"x": 0.0528758505,
				"y": -0.0999692757,
				"z": 0.9311677221,
				"element": "C" 
			},
			{
				"x": -1.2030421528,
				"y": 0.3315189236,
				"z": 1.1016162591,
				"element": "C" 
			},
			{
				"x": -2.3936124167,
				"y": -0.5496049154,
				"z": 0.9981390917,
				"element": "C" 
			},
			{
				"x": -3.3230467719,
				"y": -0.7077944793,
				"z": 2.7659399317,
				"element": "Br" 
			},
			{
				"x": 2.011591613,
				"y": 0.3781909935,
				"z": 1.694468768,
				"element": "H" 
			},
			{
				"x": 0.9942707212,
				"y": 1.8005923351,
				"z": 1.3250249886,
				"element": "H" 
			},
			{
				"x": 0.2435385547,
				"y": -1.1486478351,
				"z": 0.70928782,
				"element": "H" 
			},
			{
				"x": -1.3937050208,
				"y": 1.3801975579,
				"z": 1.3234959632,
				"element": "H" 
			},
			{
				"x": -3.1617570746,
				"y": -0.1466418108,
				"z": 0.3383129319,
				"element": "H" 
			},
			{
				"x": -2.1444369985,
				"y": -1.5690429284,
				"z": 0.7077598997,
				"element": "H" 
			}
		],
		 "valence_orbital": [ 
			{
				"type": "occ",
				"energy": -0.29009,
				"method": "rhf"
			},
			{
				"type": "occ",
				"energy": -0.27962,
				"method": "rhf"
			},
			{
				"type": "occ",
				"energy": -0.27698,
				"method": "rhf"
			},
			{
				"type": "occ",
				"energy": -0.27588,
				"method": "rhf"
			},
			{
				"type": "occ",
				"energy": -0.26656,
				"method": "rhf"
			},
			{
				"type": "unocc",
				"energy": -0.05283,
				"method": "rhf"
			},
			{
				"type": "unocc",
				"energy": -0.00217,
				"method": "rhf"
			},
			{
				"type": "unocc",
				"energy": 0.04104,
				"method": "rhf"
			},
			{
				"type": "unocc",
				"energy": 0.09026,
				"method": "rhf"
			},
			{
				"type": "unocc",
				"energy": 0.1069,
				"method": "rhf"
			}
		],
		"cosmo_sigma_profile": { 
			"-0.025": 0.0,
			"-0.024": 0.0,
			"-0.023": 0.0,
			"-0.022": 0.0,
			"-0.021": 0.0,
			"-0.02": 0.0,
			"-0.019": 0.0,
			"-0.018": 0.0,
			"-0.017": 0.0,
			"-0.016": 0.0,
			"-0.015": 0.0,
			"-0.014": 0.0,
			"-0.013": 0.0,
			"-0.012": 0.0,
			"-0.011": 0.0,
			"-0.01": 0.0,
			"-0.009": 0.0,
			"-0.008": 6.50742153124,
			"-0.007": 12.4795772365,
			"-0.006": 13.7557232148,
			"-0.005": 10.5991173985,
			"-0.004": 10.7240319547,
			"-0.003": 7.96997888331,
			"-0.002": 7.51290147008,
			"-0.001": 9.58703374776,
			"0.0": 7.70369330917,
			"0.001": 8.73507100637,
			"0.002": 9.21820661546,
			"0.003": 8.91993526785,
			"0.004": 12.9201842063,
			"0.005": 12.9700861878,
			"0.006": 23.6155795589,
			"0.007": 7.38193807412,
			"0.008": 0.0,
			"0.009": 0.0,
			"0.01": 0.0,
			"0.011": 0.0,
			"0.012": 0.0,
			"0.013": 0.0,
			"0.014": 0.0,
			"0.015": 0.0,
			"0.016": 0.0,
			"0.017": 0.0,
			"0.018": 0.0,
			"0.019": 0.0,
			"0.02": 0.0,
			"0.021": 0.0,
			"0.022": 0.0,
			"0.023": 0.0,
			"0.024": 0.0,
			"0.025": 0.0
		}
	}
}
