{
	 "smiles": "OC1=C(Br)C=C(C=C1Br)C1(OS(=O)(=O)C2=CC=CC=C12)C1=CC(Br)=C(O)C(Br)=C1", 
	 "Tm": 552.15, 
	 "num_atms": 39, 
	 "gaussian": { 
		 "optdone": 1, 
		 "sigma_profile": "yes", 
		 "theory": "DFT", 
		 "functional": "B3LYP", 
		 "basiset": "6-31G**", 
		 "properties": { 
			 "R2extent": 23321.0519, 
			 "electric_dipole_moment_norm": 4.02208415998, 
			 "electric_quadrupole_moment_norm": 30.5026849413, 
			 "total_energy": -11789.8825879, 
			 "HOMO_LUMO_gap": 0.18574, 
			 "cosmo_polarized_energy": -21.65, 
			 "cosmo_cavitation_energy": 54.45, 
			 "cosmo_dispersion_energy": -37.96, 
			 "cosmo_repulsion_energy": 2.92, 
			 "cosmo_total_nonelectrostatic_energy": 19.41, 
			 "SMD_solvation_energy": 4.18 
		},
		"coords": [
			{
				"x": 0.7922667465,
				"y": 4.3789846136,
				"z": -3.4110684904,
				"element": "O" 
			},
			{
				"x": 0.5510892301,
				"y": 3.4385989149,
				"z": -2.4791599063,
				"element": "C" 
			},
			{
				"x": -0.4585006079,
				"y": 2.4889581095,
				"z": -2.7012571411,
				"element": "C" 
			},
			{
				"x": -1.4584361131,
				"y": 2.559734668,
				"z": -4.3171098716,
				"element": "Br" 
			},
			{
				"x": -0.7466402508,
				"y": 1.5062714548,
				"z": -1.7592219922,
				"element": "C" 
			},
			{
				"x": -0.0252137218,
				"y": 1.4311221004,
				"z": -0.5634167078,
				"element": "C" 
			},
			{
				"x": 0.9885792372,
				"y": 2.3641045061,
				"z": -0.3214961422,
				"element": "C" 
			},
			{
				"x": 1.2566059715,
				"y": 3.3444356938,
				"z": -1.2665708708,
				"element": "C" 
			},
			{
				"x": 2.6317187857,
				"y": 4.636185853,
				"z": -0.934442196,
				"element": "Br" 
			},
			{
				"x": -0.2786459954,
				"y": 0.2959457313,
				"z": 0.4354680297,
				"element": "C" 
			},
			{
				"x": 0.0499638935,
				"y": 0.8365929864,
				"z": 1.757880486,
				"element": "O" 
			},
			{
				"x": 0.9499483763,
				"y": -0.1804436452,
				"z": 2.7190344112,
				"element": "S" 
			},
			{
				"x": 0.0738388562,
				"y": -0.8981409741,
				"z": 3.6362371073,
				"element": "O" 
			},
			{
				"x": 2.0666213818,
				"y": 0.6030746984,
				"z": 3.2328371392,
				"element": "O" 
			},
			{
				"x": 1.4258393281,
				"y": -1.2024901755,
				"z": 1.3454252674,
				"element": "C" 
			},
			{
				"x": 2.3826872889,
				"y": -2.2132855197,
				"z": 1.3614957986,
				"element": "C" 
			},
			{
				"x": 2.6207740642,
				"y": -2.8926615125,
				"z": 0.1671643928,
				"element": "C" 
			},
			{
				"x": 1.9187822872,
				"y": -2.5477732962,
				"z": -0.9948251792,
				"element": "C" 
			},
			{
				"x": 0.9674638295,
				"y": -1.5254989574,
				"z": -0.9860349364,
				"element": "C" 
			},
			{
				"x": 0.7110852199,
				"y": -0.8506521822,
				"z": 0.2090899248,
				"element": "C" 
			},
			{
				"x": -1.7451195168,
				"y": -0.1459489067,
				"z": 0.4695776019,
				"element": "C" 
			},
			{
				"x": -2.6994212561,
				"y": 0.7867448789,
				"z": 0.8982543841,
				"element": "C" 
			},
			{
				"x": -4.0359575502,
				"y": 0.42858971,
				"z": 0.9609958322,
				"element": "C" 
			},
			{
				"x": -5.3393699191,
				"y": 1.7002355177,
				"z": 1.5543654413,
				"element": "Br" 
			},
			{
				"x": -4.4887838411,
				"y": -0.8548604016,
				"z": 0.6007742268,
				"element": "C" 
			},
			{
				"x": -5.7802451132,
				"y": -1.2277901394,
				"z": 0.6468924643,
				"element": "O" 
			},
			{
				"x": -3.5183574665,
				"y": -1.7724714108,
				"z": 0.1745626844,
				"element": "C" 
			},
			{
				"x": -4.0573580066,
				"y": -3.5260670486,
				"z": -0.3254493483,
				"element": "Br" 
			},
			{
				"x": -2.1698366358,
				"y": -1.4277965211,
				"z": 0.115091518,
				"element": "C" 
			},
			{
				"x": 1.5097723591,
				"y": 4.9525468532,
				"z": -3.0932921186,
				"element": "H" 
			},
			{
				"x": -1.547440764,
				"y": 0.8063202066,
				"z": -1.9645620827,
				"element": "H" 
			},
			{
				"x": 1.5532896631,
				"y": 2.3326758258,
				"z": 0.6017744763,
				"element": "H" 
			},
			{
				"x": 2.9284431065,
				"y": -2.4538443244,
				"z": 2.2677998064,
				"element": "H" 
			},
			{
				"x": 3.3616135764,
				"y": -3.6851383897,
				"z": 0.136539457,
				"element": "H" 
			},
			{
				"x": 2.1234560299,
				"y": -3.0761419174,
				"z": -1.9208294997,
				"element": "H" 
			},
			{
				"x": 0.4469814981,
				"y": -1.2513091134,
				"z": -1.8980632973,
				"element": "H" 
			},
			{
				"x": -2.3949398864,
				"y": 1.7833046202,
				"z": 1.1941072931,
				"element": "H" 
			},
			{
				"x": -6.3081918864,
				"y": -0.4794382273,
				"z": 0.9722587482,
				"element": "H" 
			},
			{
				"x": -1.4611621986,
				"y": -2.1799742796,
				"z": -0.2058267104,
				"element": "H" 
			}
		],
		 "valence_orbital": [ 
			{
				"type": "occ",
				"energy": -0.28559,
				"method": "rhf"
			},
			{
				"type": "occ",
				"energy": -0.26209,
				"method": "rhf"
			},
			{
				"type": "occ",
				"energy": -0.25874,
				"method": "rhf"
			},
			{
				"type": "occ",
				"energy": -0.24546,
				"method": "rhf"
			},
			{
				"type": "occ",
				"energy": -0.24196,
				"method": "rhf"
			},
			{
				"type": "unocc",
				"energy": -0.05622,
				"method": "rhf"
			},
			{
				"type": "unocc",
				"energy": -0.05141,
				"method": "rhf"
			},
			{
				"type": "unocc",
				"energy": -0.0444,
				"method": "rhf"
			},
			{
				"type": "unocc",
				"energy": -0.03373,
				"method": "rhf"
			},
			{
				"type": "unocc",
				"energy": -0.02912,
				"method": "rhf"
			}
		],
		"cosmo_sigma_profile": { 
			"-0.025": 0.0,
			"-0.024": 0.0,
			"-0.023": 0.0,
			"-0.022": 0.0,
			"-0.021": 0.0,
			"-0.02": 0.0,
			"-0.019": 0.0,
			"-0.018": 0.0,
			"-0.017": 0.0,
			"-0.016": 0.0265446718694,
			"-0.015": 1.24304138683,
			"-0.014": 1.11735440126,
			"-0.013": 1.26032230957,
			"-0.012": 1.40380223011,
			"-0.011": 2.12609597233,
			"-0.01": 2.73629070106,
			"-0.009": 4.56697025385,
			"-0.008": 8.93521622869,
			"-0.007": 16.4924262591,
			"-0.006": 18.7965902544,
			"-0.005": 24.0200301875,
			"-0.004": 20.8451756739,
			"-0.003": 23.7678759387,
			"-0.002": 27.6977903028,
			"-0.001": 35.8414159389,
			"0.0": 51.0494336112,
			"0.001": 49.2812364688,
			"0.002": 37.4750062169,
			"0.003": 33.2661914991,
			"0.004": 27.2259324308,
			"0.005": 11.5369794506,
			"0.006": 6.93594913704,
			"0.007": 7.82170850668,
			"0.008": 8.89524702912,
			"0.009": 15.5312001621,
			"0.01": 11.6287447604,
			"0.011": 0.652010146426,
			"0.012": 0.0,
			"0.013": 0.0,
			"0.014": 0.0,
			"0.015": 0.0,
			"0.016": 0.0,
			"0.017": 0.0,
			"0.018": 0.0,
			"0.019": 0.0,
			"0.02": 0.0,
			"0.021": 0.0,
			"0.022": 0.0,
			"0.023": 0.0,
			"0.024": 0.0,
			"0.025": 0.0
		}
	}
}
