{
	 "smiles": "CC1=CC=CC(N)=C1C(O)=O", 
	 "Tm": 397.15, 
	 "num_atms": 20, 
	 "gaussian": { 
		 "optdone": 1, 
		 "sigma_profile": "yes", 
		 "theory": "DFT", 
		 "functional": "B3LYP", 
		 "basiset": "6-31G**", 
		 "properties": { 
			 "R2extent": 1832.842, 
			 "electric_dipole_moment_norm": 5.4468681405, 
			 "electric_quadrupole_moment_norm": 13.2579330139, 
			 "total_energy": -515.495325625, 
			 "HOMO_LUMO_gap": 0.19771, 
			 "cosmo_polarized_energy": -15.29, 
			 "cosmo_cavitation_energy": 23.12, 
			 "cosmo_dispersion_energy": -17.51, 
			 "cosmo_repulsion_energy": 1.39, 
			 "cosmo_total_nonelectrostatic_energy": 7.01, 
			 "SMD_solvation_energy": 5.25 
		},
		"coords": [
			{
				"x": -3.0754752408,
				"y": -0.6043436834,
				"z": 0.9370488677,
				"element": "C" 
			},
			{
				"x": -2.0020065009,
				"y": -0.2024217187,
				"z": -0.0476448326,
				"element": "C" 
			},
			{
				"x": -2.3163443405,
				"y": -0.2314443767,
				"z": -1.4126745591,
				"element": "C" 
			},
			{
				"x": -1.3861266217,
				"y": 0.1301612493,
				"z": -2.3827883994,
				"element": "C" 
			},
			{
				"x": -0.1039550713,
				"y": 0.5141702237,
				"z": -2.0052192619,
				"element": "C" 
			},
			{
				"x": 0.2400380927,
				"y": 0.559155572,
				"z": -0.6523740926,
				"element": "C" 
			},
			{
				"x": 1.5463820441,
				"y": 1.0007185766,
				"z": -0.2735422591,
				"element": "N" 
			},
			{
				"x": -0.7070788801,
				"y": 0.2221558305,
				"z": 0.3452489784,
				"element": "C" 
			},
			{
				"x": -0.3826684868,
				"y": 0.3401222992,
				"z": 1.8159033582,
				"element": "C" 
			},
			{
				"x": 0.5733697086,
				"y": 1.2271679428,
				"z": 2.164077289,
				"element": "O" 
			},
			{
				"x": -0.957075602,
				"y": -0.2936901944,
				"z": 2.675898982,
				"element": "O" 
			},
			{
				"x": -2.8023317419,
				"y": -1.5192096456,
				"z": 1.4681597589,
				"element": "H" 
			},
			{
				"x": -4.0207829185,
				"y": -0.7652714418,
				"z": 0.4115185493,
				"element": "H" 
			},
			{
				"x": -3.2254819243,
				"y": 0.1532687508,
				"z": 1.7101519562,
				"element": "H" 
			},
			{
				"x": -3.3128683913,
				"y": -0.5409489183,
				"z": -1.7131918729,
				"element": "H" 
			},
			{
				"x": -1.6546978543,
				"y": 0.1001274205,
				"z": -3.4347834161,
				"element": "H" 
			},
			{
				"x": 0.639138563,
				"y": 0.7729712392,
				"z": -2.7554671844,
				"element": "H" 
			},
			{
				"x": 2.0775393708,
				"y": 1.3298350787,
				"z": -1.0724639188,
				"element": "H" 
			},
			{
				"x": 2.0848829199,
				"y": 0.2790146903,
				"z": 0.1998140267,
				"element": "H" 
			},
			{
				"x": 0.9900428753,
				"y": 1.6020611055,
				"z": 1.3555280307,
				"element": "H" 
			}
		],
		 "valence_orbital": [ 
			{
				"type": "occ",
				"energy": -0.31274,
				"method": "rhf"
			},
			{
				"type": "occ",
				"energy": -0.29492,
				"method": "rhf"
			},
			{
				"type": "occ",
				"energy": -0.26093,
				"method": "rhf"
			},
			{
				"type": "occ",
				"energy": -0.25194,
				"method": "rhf"
			},
			{
				"type": "occ",
				"energy": -0.23852,
				"method": "rhf"
			},
			{
				"type": "unocc",
				"energy": -0.04081,
				"method": "rhf"
			},
			{
				"type": "unocc",
				"energy": -0.00648,
				"method": "rhf"
			},
			{
				"type": "unocc",
				"energy": 0.05568,
				"method": "rhf"
			},
			{
				"type": "unocc",
				"energy": 0.06207,
				"method": "rhf"
			},
			{
				"type": "unocc",
				"energy": 0.08724,
				"method": "rhf"
			}
		],
		"cosmo_sigma_profile": { 
			"-0.025": 0.0,
			"-0.024": 0.0,
			"-0.023": 0.0,
			"-0.022": 0.0,
			"-0.021": 0.0,
			"-0.02": 0.0,
			"-0.019": 0.0,
			"-0.018": 0.0,
			"-0.017": 0.0,
			"-0.016": 0.0,
			"-0.015": 0.0,
			"-0.014": 0.366690536919,
			"-0.013": 3.10995139531,
			"-0.012": 3.23568549534,
			"-0.011": 3.44465124967,
			"-0.01": 3.59692306921,
			"-0.009": 3.02936566618,
			"-0.008": 1.86940422262,
			"-0.007": 4.32798666521,
			"-0.006": 7.65111339379,
			"-0.005": 9.3938218292,
			"-0.004": 12.0549200994,
			"-0.003": 11.5308330214,
			"-0.002": 12.1041418469,
			"-0.001": 11.8651374982,
			"0.0": 13.4832412551,
			"0.001": 14.1204098912,
			"0.002": 9.85415571078,
			"0.003": 11.5413411586,
			"0.004": 11.2500431912,
			"0.005": 7.53788783028,
			"0.006": 2.44130607172,
			"0.007": 2.07306884867,
			"0.008": 2.92530188935,
			"0.009": 2.63302967866,
			"0.01": 2.81947053262,
			"0.011": 4.14713039617,
			"0.012": 5.66220972545,
			"0.013": 3.56456603983,
			"0.014": 1.63639487495,
			"0.015": 0.0572229140719,
			"0.016": 0.0,
			"0.017": 0.0,
			"0.018": 0.0,
			"0.019": 0.0,
			"0.02": 0.0,
			"0.021": 0.0,
			"0.022": 0.0,
			"0.023": 0.0,
			"0.024": 0.0,
			"0.025": 0.0
		}
	}
}
