{
	 "smiles": "COC1=CC=C(C=C1)C1=NNC=C1C=O", 
	 "Tm": 433.15, 
	 "num_atms": 25, 
	 "gaussian": { 
		 "optdone": 1, 
		 "sigma_profile": "yes", 
		 "theory": "DFT", 
		 "functional": "B3LYP", 
		 "basiset": "6-31G**", 
		 "properties": { 
			 "R2extent": 4318.668, 
			 "electric_dipole_moment_norm": 1.74607712602, 
			 "electric_quadrupole_moment_norm": 26.6775323583, 
			 "total_energy": -685.109182419, 
			 "HOMO_LUMO_gap": 0.17007, 
			 "cosmo_polarized_energy": -16.49, 
			 "cosmo_cavitation_energy": 29.94, 
			 "cosmo_dispersion_energy": -21.9, 
			 "cosmo_repulsion_energy": 1.71, 
			 "cosmo_total_nonelectrostatic_energy": 9.74, 
			 "SMD_solvation_energy": 6.24 
		},
		"coords": [
			{
				"x": -1.2653256321,
				"y": -2.1139904339,
				"z": 3.9639743492,
				"element": "C" 
			},
			{
				"x": -0.7693255031,
				"y": -0.7985242978,
				"z": 3.769508574,
				"element": "O" 
			},
			{
				"x": -0.7634136797,
				"y": -0.2903314375,
				"z": 2.504952724,
				"element": "C" 
			},
			{
				"x": -1.2208580707,
				"y": -0.969552393,
				"z": 1.3701237404,
				"element": "C" 
			},
			{
				"x": -1.1622779213,
				"y": -0.3460028931,
				"z": 0.1217267252,
				"element": "C" 
			},
			{
				"x": -0.6455718357,
				"y": 0.9470689901,
				"z": -0.0266493668,
				"element": "C" 
			},
			{
				"x": -0.2022872096,
				"y": 1.6193199111,
				"z": 1.1290157404,
				"element": "C" 
			},
			{
				"x": -0.2583627229,
				"y": 1.013782764,
				"z": 2.3739754926,
				"element": "C" 
			},
			{
				"x": -0.5854536388,
				"y": 1.6166941207,
				"z": -1.3369052102,
				"element": "C" 
			},
			{
				"x": -0.7740816895,
				"y": 2.9367668932,
				"z": -1.4178831078,
				"element": "N" 
			},
			{
				"x": -0.6503748849,
				"y": 3.2232937769,
				"z": -2.7381020658,
				"element": "N" 
			},
			{
				"x": -0.3991455821,
				"y": 2.146969733,
				"z": -3.5031865462,
				"element": "C" 
			},
			{
				"x": -0.3358179164,
				"y": 1.0600234248,
				"z": -2.6375187883,
				"element": "C" 
			},
			{
				"x": 0.0290718773,
				"y": -0.2942759287,
				"z": -3.0481208734,
				"element": "C" 
			},
			{
				"x": 0.1816781048,
				"y": -0.6320852611,
				"z": -4.2121981802,
				"element": "O" 
			},
			{
				"x": -0.6800894145,
				"y": -2.8541941034,
				"z": 3.4034117288,
				"element": "H" 
			},
			{
				"x": -2.3204389588,
				"y": -2.1961177388,
				"z": 3.6730123592,
				"element": "H" 
			},
			{
				"x": -1.171430874,
				"y": -2.3165161399,
				"z": 5.031889251,
				"element": "H" 
			},
			{
				"x": -1.6332505786,
				"y": -1.9686245484,
				"z": 1.4439311727,
				"element": "H" 
			},
			{
				"x": -1.5578606976,
				"y": -0.8721374143,
				"z": -0.7412888937,
				"element": "H" 
			},
			{
				"x": 0.1910369741,
				"y": 2.625612113,
				"z": 1.0314418515,
				"element": "H" 
			},
			{
				"x": 0.0885548695,
				"y": 1.5257229963,
				"z": 3.2655986667,
				"element": "H" 
			},
			{
				"x": -0.7677479899,
				"y": 4.1796937723,
				"z": -3.036816786,
				"element": "H" 
			},
			{
				"x": -0.2615917736,
				"y": 2.1959031979,
				"z": -4.5730053847,
				"element": "H" 
			},
			{
				"x": 0.186364748,
				"y": -1.0183991038,
				"z": -2.2234871725,
				"element": "H" 
			}
		],
		 "valence_orbital": [ 
			{
				"type": "occ",
				"energy": -0.27778,
				"method": "rhf"
			},
			{
				"type": "occ",
				"energy": -0.25812,
				"method": "rhf"
			},
			{
				"type": "occ",
				"energy": -0.25556,
				"method": "rhf"
			},
			{
				"type": "occ",
				"energy": -0.24429,
				"method": "rhf"
			},
			{
				"type": "occ",
				"energy": -0.214,
				"method": "rhf"
			},
			{
				"type": "unocc",
				"energy": -0.04393,
				"method": "rhf"
			},
			{
				"type": "unocc",
				"energy": -0.01487,
				"method": "rhf"
			},
			{
				"type": "unocc",
				"energy": -0.00534,
				"method": "rhf"
			},
			{
				"type": "unocc",
				"energy": 0.03644,
				"method": "rhf"
			},
			{
				"type": "unocc",
				"energy": 0.06879,
				"method": "rhf"
			}
		],
		"cosmo_sigma_profile": { 
			"-0.025": 0.0,
			"-0.024": 0.0,
			"-0.023": 0.0,
			"-0.022": 0.0,
			"-0.021": 0.0,
			"-0.02": 0.0,
			"-0.019": 0.0,
			"-0.018": 0.612025264111,
			"-0.017": 1.99584605853,
			"-0.016": 1.32868737789,
			"-0.015": 1.14967055291,
			"-0.014": 0.770798596724,
			"-0.013": 0.978158670288,
			"-0.012": 1.63665857664,
			"-0.011": 1.26849640233,
			"-0.01": 2.78423292386,
			"-0.009": 2.25572866886,
			"-0.008": 1.46163886918,
			"-0.007": 5.06348373545,
			"-0.006": 13.0904778249,
			"-0.005": 19.899469194,
			"-0.004": 17.8911986079,
			"-0.003": 18.117162997,
			"-0.002": 12.6927723275,
			"-0.001": 11.2353571442,
			"0.0": 12.2132951795,
			"0.001": 17.7156961533,
			"0.002": 15.5859818147,
			"0.003": 14.3701112574,
			"0.004": 15.7359040267,
			"0.005": 12.9126292942,
			"0.006": 4.90882316234,
			"0.007": 4.27103773427,
			"0.008": 5.43976899253,
			"0.009": 4.03375951381,
			"0.01": 4.09991171117,
			"0.011": 4.28165547886,
			"0.012": 5.69007921218,
			"0.013": 2.81472816078,
			"0.014": 1.31212279707,
			"0.015": 0.269266974949,
			"0.016": 0.0,
			"0.017": 0.0,
			"0.018": 0.0,
			"0.019": 0.0,
			"0.02": 0.0,
			"0.021": 0.0,
			"0.022": 0.0,
			"0.023": 0.0,
			"0.024": 0.0,
			"0.025": 0.0
		}
	}
}
