{
	 "smiles": "COC(=O)C1=C(C)C=C(CO)O1", 
	 "Tm": 361.15, 
	 "num_atms": 22, 
	 "gaussian": { 
		 "optdone": 1, 
		 "sigma_profile": "yes", 
		 "theory": "DFT", 
		 "functional": "B3LYP", 
		 "basiset": "6-31G**", 
		 "properties": { 
			 "R2extent": 2946.7226, 
			 "electric_dipole_moment_norm": 1.02256004714, 
			 "electric_quadrupole_moment_norm": 13.0575955903, 
			 "total_energy": -611.75395294, 
			 "HOMO_LUMO_gap": 0.19411, 
			 "cosmo_polarized_energy": -11.4, 
			 "cosmo_cavitation_energy": 26.71, 
			 "cosmo_dispersion_energy": -19.43, 
			 "cosmo_repulsion_energy": 1.6, 
			 "cosmo_total_nonelectrostatic_energy": 8.88, 
			 "SMD_solvation_energy": 6.85 
		},
		"coords": [
			{
				"x": -0.4667613327,
				"y": -2.2438827499,
				"z": -1.9632086486,
				"element": "C" 
			},
			{
				"x": 0.0473593195,
				"y": -0.9437683435,
				"z": -1.637371616,
				"element": "O" 
			},
			{
				"x": 0.1357756374,
				"y": -0.6832278781,
				"z": -0.3138332752,
				"element": "C" 
			},
			{
				"x": -0.1917319944,
				"y": -1.4756636657,
				"z": 0.5532843851,
				"element": "O" 
			},
			{
				"x": 0.6666583921,
				"y": 0.6534467278,
				"z": -0.0464051058,
				"element": "C" 
			},
			{
				"x": 0.8986907575,
				"y": 1.3159948535,
				"z": 1.1385293425,
				"element": "C" 
			},
			{
				"x": 0.6648684131,
				"y": 0.8216884349,
				"z": 2.5332551565,
				"element": "C" 
			},
			{
				"x": 1.4125523982,
				"y": 2.597890451,
				"z": 0.7614892782,
				"element": "C" 
			},
			{
				"x": 1.4636330762,
				"y": 2.6273260033,
				"z": -0.6033488485,
				"element": "C" 
			},
			{
				"x": 1.8772697987,
				"y": 3.6501557777,
				"z": -1.6110888625,
				"element": "C" 
			},
			{
				"x": 0.8025761095,
				"y": 4.0812702975,
				"z": -2.4368960314,
				"element": "O" 
			},
			{
				"x": 1.0156387215,
				"y": 1.4491002062,
				"z": -1.1128741601,
				"element": "O" 
			},
			{
				"x": 0.1694262668,
				"y": -3.0278803378,
				"z": -1.5445372615,
				"element": "H" 
			},
			{
				"x": -0.4680681078,
				"y": -2.2928057755,
				"z": -3.0520505072,
				"element": "H" 
			},
			{
				"x": -1.479878812,
				"y": -2.368662888,
				"z": -1.5722849651,
				"element": "H" 
			},
			{
				"x": 0.2559279859,
				"y": -0.1882130791,
				"z": 2.5223125633,
				"element": "H" 
			},
			{
				"x": 1.6011391933,
				"y": 0.8174586065,
				"z": 3.1032235136,
				"element": "H" 
			},
			{
				"x": -0.0315896501,
				"y": 1.4806169004,
				"z": 3.0643069911,
				"element": "H" 
			},
			{
				"x": 1.7019606299,
				"y": 3.3987566961,
				"z": 1.4278352331,
				"element": "H" 
			},
			{
				"x": 2.7071391509,
				"y": 3.2520744456,
				"z": -2.2168827984,
				"element": "H" 
			},
			{
				"x": 2.2460379913,
				"y": 4.5351609821,
				"z": -1.086444286,
				"element": "H" 
			},
			{
				"x": 0.4448760553,
				"y": 3.295864335,
				"z": -2.8725100972,
				"element": "H" 
			}
		],
		 "valence_orbital": [ 
			{
				"type": "occ",
				"energy": -0.30059,
				"method": "rhf"
			},
			{
				"type": "occ",
				"energy": -0.28003,
				"method": "rhf"
			},
			{
				"type": "occ",
				"energy": -0.27861,
				"method": "rhf"
			},
			{
				"type": "occ",
				"energy": -0.27468,
				"method": "rhf"
			},
			{
				"type": "occ",
				"energy": -0.23434,
				"method": "rhf"
			},
			{
				"type": "unocc",
				"energy": -0.04023,
				"method": "rhf"
			},
			{
				"type": "unocc",
				"energy": 0.03325,
				"method": "rhf"
			},
			{
				"type": "unocc",
				"energy": 0.08583,
				"method": "rhf"
			},
			{
				"type": "unocc",
				"energy": 0.10371,
				"method": "rhf"
			},
			{
				"type": "unocc",
				"energy": 0.11168,
				"method": "rhf"
			}
		],
		"cosmo_sigma_profile": { 
			"-0.025": 0.0,
			"-0.024": 0.0,
			"-0.023": 0.0,
			"-0.022": 0.0,
			"-0.021": 0.0,
			"-0.02": 0.0,
			"-0.019": 0.0,
			"-0.018": 0.0,
			"-0.017": 0.0,
			"-0.016": 0.0240687641937,
			"-0.015": 0.519900325182,
			"-0.014": 0.885056998105,
			"-0.013": 0.979811100424,
			"-0.012": 0.344168455129,
			"-0.011": 0.757153398295,
			"-0.01": 0.83658715108,
			"-0.009": 0.952366597793,
			"-0.008": 1.7454550191,
			"-0.007": 5.52560556924,
			"-0.006": 10.6541376895,
			"-0.005": 17.1167409819,
			"-0.004": 19.8948978395,
			"-0.003": 20.6466629075,
			"-0.002": 16.3538007634,
			"-0.001": 15.9393387157,
			"0.0": 15.4262847806,
			"0.001": 14.9797794897,
			"0.002": 11.7489710698,
			"0.003": 9.56918201288,
			"0.004": 5.69266000024,
			"0.005": 5.30685184717,
			"0.006": 5.23792340643,
			"0.007": 4.05824904265,
			"0.008": 3.89298214732,
			"0.009": 4.19776377574,
			"0.01": 4.3427992682,
			"0.011": 5.24076634756,
			"0.012": 4.73718726337,
			"0.013": 2.61411140529,
			"0.014": 1.272245854,
			"0.015": 0.0,
			"0.016": 0.0,
			"0.017": 0.0,
			"0.018": 0.0,
			"0.019": 0.0,
			"0.02": 0.0,
			"0.021": 0.0,
			"0.022": 0.0,
			"0.023": 0.0,
			"0.024": 0.0,
			"0.025": 0.0
		}
	}
}
