{
	 "smiles": "CC1=NN=C(S)N1C1=CC=C(C)C=C1", 
	 "Tm": 372.15, 
	 "num_atms": 25, 
	 "gaussian": { 
		 "optdone": 1, 
		 "sigma_profile": "yes", 
		 "theory": "DFT", 
		 "functional": "B3LYP", 
		 "basiset": "6-31G**", 
		 "properties": { 
			 "R2extent": 4444.3128, 
			 "electric_dipole_moment_norm": 6.020941012, 
			 "electric_quadrupole_moment_norm": 20.0830874838, 
			 "total_energy": -950.120594592, 
			 "HOMO_LUMO_gap": 0.1939, 
			 "cosmo_polarized_energy": -15.12, 
			 "cosmo_cavitation_energy": 30.94, 
			 "cosmo_dispersion_energy": -22.02, 
			 "cosmo_repulsion_energy": 1.71, 
			 "cosmo_total_nonelectrostatic_energy": 10.63, 
			 "SMD_solvation_energy": 3.24 
		},
		"coords": [
			{
				"x": 3.8196152893,
				"y": 0.2744408184,
				"z": 1.3945044117,
				"element": "C" 
			},
			{
				"x": 2.7698339085,
				"y": 0.9872905691,
				"z": 2.1767732627,
				"element": "C" 
			},
			{
				"x": 2.8870186905,
				"y": 1.4090050608,
				"z": 3.4112144359,
				"element": "N" 
			},
			{
				"x": 1.6899102823,
				"y": 1.9996452215,
				"z": 3.7828317897,
				"element": "N" 
			},
			{
				"x": 0.8851113851,
				"y": 1.9100213208,
				"z": 2.7539040545,
				"element": "C" 
			},
			{
				"x": -0.7748523317,
				"y": 2.5121464087,
				"z": 2.6626978041,
				"element": "S" 
			},
			{
				"x": 1.5017101655,
				"y": 1.2800405873,
				"z": 1.6950646894,
				"element": "N" 
			},
			{
				"x": 0.957591893,
				"y": 0.9906867439,
				"z": 0.4033408178,
				"element": "C" 
			},
			{
				"x": 1.3651317221,
				"y": 1.733231705,
				"z": -0.7082122546,
				"element": "C" 
			},
			{
				"x": 0.8437352554,
				"y": 1.4354213132,
				"z": -1.9655701068,
				"element": "C" 
			},
			{
				"x": -0.0962907832,
				"y": 0.4095771999,
				"z": -2.137816722,
				"element": "C" 
			},
			{
				"x": -0.6853326837,
				"y": 0.1179056007,
				"z": -3.4973194593,
				"element": "C" 
			},
			{
				"x": -0.4939796855,
				"y": -0.3206772167,
				"z": -1.009331819,
				"element": "C" 
			},
			{
				"x": 0.0268963715,
				"y": -0.0411144552,
				"z": 0.2527549053,
				"element": "C" 
			},
			{
				"x": 4.1190915917,
				"y": 0.8344370213,
				"z": 0.5022536451,
				"element": "H" 
			},
			{
				"x": 3.4767532143,
				"y": -0.7123964304,
				"z": 1.0649226483,
				"element": "H" 
			},
			{
				"x": 4.6920764441,
				"y": 0.1477857668,
				"z": 2.0370267705,
				"element": "H" 
			},
			{
				"x": -0.7214621202,
				"y": 3.0123422707,
				"z": 3.9119417485,
				"element": "H" 
			},
			{
				"x": 2.0809363266,
				"y": 2.5392962399,
				"z": -0.5808970053,
				"element": "H" 
			},
			{
				"x": 1.1680664908,
				"y": 2.0140640095,
				"z": -2.8263835668,
				"element": "H" 
			},
			{
				"x": 0.0184499031,
				"y": 0.3593158819,
				"z": -4.2991342853,
				"element": "H" 
			},
			{
				"x": -0.9648680997,
				"y": -0.9351020125,
				"z": -3.595063677,
				"element": "H" 
			},
			{
				"x": -1.5910878305,
				"y": 0.7127950242,
				"z": -3.6683244878,
				"element": "H" 
			},
			{
				"x": -1.2168104456,
				"y": -1.1246246612,
				"z": -1.1195206314,
				"element": "H" 
			},
			{
				"x": -0.278644954,
				"y": -0.6178339876,
				"z": 1.119943032,
				"element": "H" 
			}
		],
		 "valence_orbital": [ 
			{
				"type": "occ",
				"energy": -0.29182,
				"method": "rhf"
			},
			{
				"type": "occ",
				"energy": -0.27208,
				"method": "rhf"
			},
			{
				"type": "occ",
				"energy": -0.2673,
				"method": "rhf"
			},
			{
				"type": "occ",
				"energy": -0.24254,
				"method": "rhf"
			},
			{
				"type": "occ",
				"energy": -0.22234,
				"method": "rhf"
			},
			{
				"type": "unocc",
				"energy": -0.02844,
				"method": "rhf"
			},
			{
				"type": "unocc",
				"energy": -0.02443,
				"method": "rhf"
			},
			{
				"type": "unocc",
				"energy": 0.01665,
				"method": "rhf"
			},
			{
				"type": "unocc",
				"energy": 0.02503,
				"method": "rhf"
			},
			{
				"type": "unocc",
				"energy": 0.05289,
				"method": "rhf"
			}
		],
		"cosmo_sigma_profile": { 
			"-0.025": 0.0,
			"-0.024": 0.0,
			"-0.023": 0.0,
			"-0.022": 0.0,
			"-0.021": 0.0,
			"-0.02": 0.0,
			"-0.019": 0.0,
			"-0.018": 0.0,
			"-0.017": 0.0,
			"-0.016": 0.0,
			"-0.015": 0.0,
			"-0.014": 0.0,
			"-0.013": 0.0,
			"-0.012": 1.08660237461,
			"-0.011": 1.74795210657,
			"-0.01": 1.00723544573,
			"-0.009": 0.805460527294,
			"-0.008": 1.54837025582,
			"-0.007": 5.02064265103,
			"-0.006": 13.6551269362,
			"-0.005": 20.8609831911,
			"-0.004": 23.8747492363,
			"-0.003": 21.0795572059,
			"-0.002": 23.195601453,
			"-0.001": 21.4707546893,
			"0.0": 18.2738222684,
			"0.001": 16.2823244991,
			"0.002": 16.4850925591,
			"0.003": 13.69005942,
			"0.004": 14.2815593803,
			"0.005": 3.83460405437,
			"0.006": 4.35704782148,
			"0.007": 2.96629743935,
			"0.008": 2.02491057442,
			"0.009": 2.12790115158,
			"0.01": 1.680140536,
			"0.011": 2.42321012409,
			"0.012": 2.58968256535,
			"0.013": 2.81104911212,
			"0.014": 3.94615240976,
			"0.015": 2.2718896424,
			"0.016": 2.55617162869,
			"0.017": 0.909809868219,
			"0.018": 0.0658690464257,
			"0.019": 0.0,
			"0.02": 0.0,
			"0.021": 0.0,
			"0.022": 0.0,
			"0.023": 0.0,
			"0.024": 0.0,
			"0.025": 0.0
		}
	}
}
