{
	 "smiles": "CC(NS(=O)(=O)C1=C(C)N(C)N=C1C)C(O)=O", 
	 "Tm": 471.15, 
	 "num_atms": 32, 
	 "gaussian": { 
		 "optdone": 1, 
		 "sigma_profile": "yes", 
		 "theory": "DFT", 
		 "functional": "B3LYP", 
		 "basiset": "6-31G**", 
		 "properties": { 
			 "R2extent": 4240.2585, 
			 "electric_dipole_moment_norm": 6.17935189482, 
			 "electric_quadrupole_moment_norm": 18.0583413291, 
			 "total_energy": -1215.27588486, 
			 "HOMO_LUMO_gap": 0.2354, 
			 "cosmo_polarized_energy": -23.26, 
			 "cosmo_cavitation_energy": 36.13, 
			 "cosmo_dispersion_energy": -24.68, 
			 "cosmo_repulsion_energy": 1.88, 
			 "cosmo_total_nonelectrostatic_energy": 13.34, 
			 "SMD_solvation_energy": 5.26 
		},
		"coords": [
			{
				"x": -2.1693693378,
				"y": 3.1619227676,
				"z": 1.5991648775,
				"element": "C" 
			},
			{
				"x": -1.3704265797,
				"y": 2.0472977262,
				"z": 0.9005020402,
				"element": "C" 
			},
			{
				"x": -1.4947078762,
				"y": 0.8038028289,
				"z": 1.6577787348,
				"element": "N" 
			},
			{
				"x": -1.3635997425,
				"y": -0.687041071,
				"z": 0.8727630912,
				"element": "S" 
			},
			{
				"x": -1.6079527672,
				"y": -1.6678933393,
				"z": 1.9337013436,
				"element": "O" 
			},
			{
				"x": -2.2214459354,
				"y": -0.5831960023,
				"z": -0.30826471,
				"element": "O" 
			},
			{
				"x": 0.2937644237,
				"y": -0.8946849211,
				"z": 0.3053622821,
				"element": "C" 
			},
			{
				"x": 1.3544839931,
				"y": -1.4329710021,
				"z": 1.0408199733,
				"element": "C" 
			},
			{
				"x": 1.4527085391,
				"y": -1.9781096826,
				"z": 2.4296781579,
				"element": "C" 
			},
			{
				"x": 2.4173069419,
				"y": -1.3945123357,
				"z": 0.2022110757,
				"element": "N" 
			},
			{
				"x": 3.7610691502,
				"y": -1.8873088706,
				"z": 0.4491503883,
				"element": "C" 
			},
			{
				"x": 2.1175859864,
				"y": -0.8804224763,
				"z": -1.0221584239,
				"element": "N" 
			},
			{
				"x": 0.8278237427,
				"y": -0.5645215305,
				"z": -0.9784770656,
				"element": "C" 
			},
			{
				"x": 0.1651260466,
				"y": 0.0399241552,
				"z": -2.1780518715,
				"element": "C" 
			},
			{
				"x": 0.0681829828,
				"y": 2.5209073397,
				"z": 0.6896265523,
				"element": "C" 
			},
			{
				"x": 0.8512529536,
				"y": 2.2764748435,
				"z": 1.7700630514,
				"element": "O" 
			},
			{
				"x": 0.4678795716,
				"y": 3.1005709825,
				"z": -0.2942023761,
				"element": "O" 
			},
			{
				"x": -2.1096009497,
				"y": 4.0896052679,
				"z": 1.0232256437,
				"element": "H" 
			},
			{
				"x": -3.21448023,
				"y": 2.8572376773,
				"z": 1.6835832949,
				"element": "H" 
			},
			{
				"x": -1.7773206509,
				"y": 3.3517979858,
				"z": 2.6034031814,
				"element": "H" 
			},
			{
				"x": -1.7956316343,
				"y": 1.8703312665,
				"z": -0.089359236,
				"element": "H" 
			},
			{
				"x": -1.0017735575,
				"y": 0.7942446369,
				"z": 2.5463428311,
				"element": "H" 
			},
			{
				"x": 1.9266406766,
				"y": -2.9657474381,
				"z": 2.4307486678,
				"element": "H" 
			},
			{
				"x": 0.4572234697,
				"y": -2.0782809383,
				"z": 2.860487606,
				"element": "H" 
			},
			{
				"x": 2.0545884336,
				"y": -1.3238854759,
				"z": 3.0726828692,
				"element": "H" 
			},
			{
				"x": 3.7728784098,
				"y": -2.9789837617,
				"z": 0.5334942174,
				"element": "H" 
			},
			{
				"x": 4.3715637424,
				"y": -1.5857201077,
				"z": -0.4007975233,
				"element": "H" 
			},
			{
				"x": 4.170839344,
				"y": -1.4548598395,
				"z": 1.3663188116,
				"element": "H" 
			},
			{
				"x": -0.0363376345,
				"y": 1.1053566923,
				"z": -2.0231793005,
				"element": "H" 
			},
			{
				"x": -0.7853838579,
				"y": -0.4529591882,
				"z": -2.3902992147,
				"element": "H" 
			},
			{
				"x": 0.8330618374,
				"y": -0.0563512324,
				"z": -3.036535454,
				"element": "H" 
			},
			{
				"x": 1.7284505086,
				"y": 2.6372750432,
				"z": 1.5570164842,
				"element": "H" 
			}
		],
		 "valence_orbital": [ 
			{
				"type": "occ",
				"energy": -0.29982,
				"method": "rhf"
			},
			{
				"type": "occ",
				"energy": -0.28945,
				"method": "rhf"
			},
			{
				"type": "occ",
				"energy": -0.27519,
				"method": "rhf"
			},
			{
				"type": "occ",
				"energy": -0.25191,
				"method": "rhf"
			},
			{
				"type": "occ",
				"energy": -0.24881,
				"method": "rhf"
			},
			{
				"type": "unocc",
				"energy": -0.01341,
				"method": "rhf"
			},
			{
				"type": "unocc",
				"energy": -0.0,
				"method": "rhf"
			},
			{
				"type": "unocc",
				"energy": 0.02613,
				"method": "rhf"
			},
			{
				"type": "unocc",
				"energy": 0.05148,
				"method": "rhf"
			},
			{
				"type": "unocc",
				"energy": 0.07527,
				"method": "rhf"
			}
		],
		"cosmo_sigma_profile": { 
			"-0.025": 0.0,
			"-0.024": 0.0,
			"-0.023": 0.0,
			"-0.022": 0.0,
			"-0.021": 0.0,
			"-0.02": 0.0,
			"-0.019": 0.42524398165,
			"-0.018": 0.913750023153,
			"-0.017": 0.731280616991,
			"-0.016": 1.09483825797,
			"-0.015": 0.592044872094,
			"-0.014": 0.741522693987,
			"-0.013": 1.19757679567,
			"-0.012": 1.28374088987,
			"-0.011": 2.08606072038,
			"-0.01": 1.96183071545,
			"-0.009": 1.59478340931,
			"-0.008": 2.56447469884,
			"-0.007": 8.67632743761,
			"-0.006": 15.9697046399,
			"-0.005": 20.1156006539,
			"-0.004": 24.3232701829,
			"-0.003": 26.150775572,
			"-0.002": 23.5951236113,
			"-0.001": 20.3234211769,
			"0.0": 18.8295313151,
			"0.001": 13.4310901164,
			"0.002": 13.0417759131,
			"0.003": 10.1372531311,
			"0.004": 8.63347125021,
			"0.005": 7.17845885644,
			"0.006": 6.79388033541,
			"0.007": 8.7372779243,
			"0.008": 7.50412213243,
			"0.009": 6.29839158343,
			"0.01": 8.55871093474,
			"0.011": 12.3271170767,
			"0.012": 6.25968437764,
			"0.013": 1.23423105723,
			"0.014": 0.933162151453,
			"0.015": 0.232783687457,
			"0.016": 0.0,
			"0.017": 0.0,
			"0.018": 0.0,
			"0.019": 0.0,
			"0.02": 0.0,
			"0.021": 0.0,
			"0.022": 0.0,
			"0.023": 0.0,
			"0.024": 0.0,
			"0.025": 0.0
		}
	}
}
