{
	 "smiles": "COC1=CC=C(C=C1)S(=O)(=O)N1CCC(=O)CC1", 
	 "Tm": 400.15, 
	 "num_atms": 33, 
	 "gaussian": { 
		 "optdone": 1, 
		 "sigma_profile": "yes", 
		 "theory": "DFT", 
		 "functional": "B3LYP", 
		 "basiset": "6-31G**", 
		 "properties": { 
			 "R2extent": 6448.3807, 
			 "electric_dipole_moment_norm": 5.33193408155, 
			 "electric_quadrupole_moment_norm": 31.3552721321, 
			 "total_energy": -1220.06775161, 
			 "HOMO_LUMO_gap": 0.20918, 
			 "cosmo_polarized_energy": -19.4, 
			 "cosmo_cavitation_energy": 36.85, 
			 "cosmo_dispersion_energy": -26.69, 
			 "cosmo_repulsion_energy": 2.02, 
			 "cosmo_total_nonelectrostatic_energy": 12.18, 
			 "SMD_solvation_energy": 5.41 
		},
		"coords": [
			{
				"x": 0.451414211,
				"y": -2.9470061888,
				"z": -4.6580009796,
				"element": "C" 
			},
			{
				"x": 0.6086159189,
				"y": -3.4949755859,
				"z": -3.3548558022,
				"element": "O" 
			},
			{
				"x": 0.9449709905,
				"y": -2.664734165,
				"z": -2.3356858963,
				"element": "C" 
			},
			{
				"x": 1.0995430117,
				"y": -3.2791453026,
				"z": -1.0802673187,
				"element": "C" 
			},
			{
				"x": 1.4419268577,
				"y": -2.5228942439,
				"z": 0.0300747365,
				"element": "C" 
			},
			{
				"x": 1.6313927342,
				"y": -1.1398356363,
				"z": -0.1041290454,
				"element": "C" 
			},
			{
				"x": 1.4905825158,
				"y": -0.5251982818,
				"z": -1.3487709957,
				"element": "C" 
			},
			{
				"x": 1.1472081843,
				"y": -1.2831489249,
				"z": -2.4684656789,
				"element": "C" 
			},
			{
				"x": 2.0309404381,
				"y": -0.1522584538,
				"z": 1.3337792127,
				"element": "S" 
			},
			{
				"x": 2.6632729904,
				"y": -1.0347450022,
				"z": 2.3166645918,
				"element": "O" 
			},
			{
				"x": 2.6687888131,
				"y": 1.0793652927,
				"z": 0.8629971095,
				"element": "O" 
			},
			{
				"x": 0.5599226497,
				"y": 0.3307690235,
				"z": 2.030363585,
				"element": "N" 
			},
			{
				"x": -0.239162829,
				"y": 1.3072102104,
				"z": 1.276694798,
				"element": "C" 
			},
			{
				"x": -1.1911453472,
				"y": 2.0370183178,
				"z": 2.2409842924,
				"element": "C" 
			},
			{
				"x": -2.0045688087,
				"y": 1.063856085,
				"z": 3.0838749027,
				"element": "C" 
			},
			{
				"x": -3.199930612,
				"y": 1.1897106536,
				"z": 3.2621096417,
				"element": "O" 
			},
			{
				"x": -1.1953900796,
				"y": -0.0707748749,
				"z": 3.6976724066,
				"element": "C" 
			},
			{
				"x": -0.2434015296,
				"y": -0.7174517758,
				"z": 2.6757751295,
				"element": "C" 
			},
			{
				"x": -0.351448678,
				"y": -2.2000864717,
				"z": -4.6861600947,
				"element": "H" 
			},
			{
				"x": 1.3825127585,
				"y": -2.4925573991,
				"z": -5.0179426281,
				"element": "H" 
			},
			{
				"x": 0.1863990304,
				"y": -3.7846572652,
				"z": -5.3039537892,
				"element": "H" 
			},
			{
				"x": 0.9557382347,
				"y": -4.3519211892,
				"z": -1.0087961837,
				"element": "H" 
			},
			{
				"x": 1.5920009174,
				"y": -2.996297847,
				"z": 0.9940683841,
				"element": "H" 
			},
			{
				"x": 1.6764152271,
				"y": 0.5388235827,
				"z": -1.4462251033,
				"element": "H" 
			},
			{
				"x": 1.0512667982,
				"y": -0.7942873965,
				"z": -3.4301699889,
				"element": "H" 
			},
			{
				"x": -0.8220791246,
				"y": 0.8105858141,
				"z": 0.4831465303,
				"element": "H" 
			},
			{
				"x": 0.4404253696,
				"y": 2.0206773891,
				"z": 0.8095710061,
				"element": "H" 
			},
			{
				"x": -0.5898509295,
				"y": 2.651418915,
				"z": 2.9238090052,
				"element": "H" 
			},
			{
				"x": -1.8748966797,
				"y": 2.6929984667,
				"z": 1.6963114411,
				"element": "H" 
			},
			{
				"x": -0.5943026071,
				"y": 0.3491962567,
				"z": 4.5147558335,
				"element": "H" 
			},
			{
				"x": -1.8817506577,
				"y": -0.8104071708,
				"z": 4.117562537,
				"element": "H" 
			},
			{
				"x": 0.4333029877,
				"y": -1.4086174741,
				"z": 3.1791832335,
				"element": "H" 
			},
			{
				"x": -0.826612756,
				"y": -1.2823293578,
				"z": 1.9296251276,
				"element": "H" 
			}
		],
		 "valence_orbital": [ 
			{
				"type": "occ",
				"energy": -0.30312,
				"method": "rhf"
			},
			{
				"type": "occ",
				"energy": -0.27704,
				"method": "rhf"
			},
			{
				"type": "occ",
				"energy": -0.27023,
				"method": "rhf"
			},
			{
				"type": "occ",
				"energy": -0.2477,
				"method": "rhf"
			},
			{
				"type": "occ",
				"energy": -0.24221,
				"method": "rhf"
			},
			{
				"type": "unocc",
				"energy": -0.03303,
				"method": "rhf"
			},
			{
				"type": "unocc",
				"energy": -0.0266,
				"method": "rhf"
			},
			{
				"type": "unocc",
				"energy": -0.02397,
				"method": "rhf"
			},
			{
				"type": "unocc",
				"energy": 0.05454,
				"method": "rhf"
			},
			{
				"type": "unocc",
				"energy": 0.08361,
				"method": "rhf"
			}
		],
		"cosmo_sigma_profile": { 
			"-0.025": 0.0,
			"-0.024": 0.0,
			"-0.023": 0.0,
			"-0.022": 0.0,
			"-0.021": 0.0,
			"-0.02": 0.0,
			"-0.019": 0.0,
			"-0.018": 0.0,
			"-0.017": 0.0,
			"-0.016": 0.0,
			"-0.015": 0.0,
			"-0.014": 0.0,
			"-0.013": 0.0,
			"-0.012": 0.0,
			"-0.011": 0.0,
			"-0.01": 0.0,
			"-0.009": 0.00286141692047,
			"-0.008": 1.65636746823,
			"-0.007": 11.8597815295,
			"-0.006": 26.2086119477,
			"-0.005": 35.2571199659,
			"-0.004": 33.5299699568,
			"-0.003": 26.6485408182,
			"-0.002": 18.0249888288,
			"-0.001": 11.2016863049,
			"0.0": 9.37356016995,
			"0.001": 14.3727671288,
			"0.002": 18.3766178096,
			"0.003": 13.6762322318,
			"0.004": 6.97457573315,
			"0.005": 7.86365141883,
			"0.006": 6.79252610655,
			"0.007": 5.45505450016,
			"0.008": 6.58781363718,
			"0.009": 7.48837861817,
			"0.01": 8.9905357025,
			"0.011": 11.5965691541,
			"0.012": 7.86417537505,
			"0.013": 1.68159324777,
			"0.014": 0.00427697537372,
			"0.015": 0.0,
			"0.016": 0.0,
			"0.017": 0.0,
			"0.018": 0.0,
			"0.019": 0.0,
			"0.02": 0.0,
			"0.021": 0.0,
			"0.022": 0.0,
			"0.023": 0.0,
			"0.024": 0.0,
			"0.025": 0.0
		}
	}
}
