{
	 "smiles": "[O-][N+](=O)C1=CC=CC=C1NC1=CC=CC=C1", 
	 "Tm": 348.15, 
	 "num_atms": 26, 
	 "gaussian": { 
		 "optdone": 1, 
		 "sigma_profile": "yes", 
		 "theory": "DFT", 
		 "functional": "B3LYP", 
		 "basiset": "6-31G**", 
		 "properties": { 
			 "R2extent": 3945.0684, 
			 "electric_dipole_moment_norm": 4.69416897225, 
			 "electric_quadrupole_moment_norm": 16.7678300173, 
			 "total_energy": -723.145664224, 
			 "HOMO_LUMO_gap": 0.12984, 
			 "cosmo_polarized_energy": -14.53, 
			 "cosmo_cavitation_energy": 30.36, 
			 "cosmo_dispersion_energy": -21.81, 
			 "cosmo_repulsion_energy": 1.68, 
			 "cosmo_total_nonelectrostatic_energy": 10.22, 
			 "SMD_solvation_energy": 7.18 
		},
		"coords": [
			{
				"x": -1.5279131446,
				"y": 1.5228632789,
				"z": 1.2376608433,
				"element": "O" 
			},
			{
				"x": -1.5751882686,
				"y": 0.5749688492,
				"z": 2.0197017215,
				"element": "N" 
			},
			{
				"x": -2.6146997004,
				"y": 0.0060258175,
				"z": 2.365167592,
				"element": "O" 
			},
			{
				"x": -0.3201149755,
				"y": 0.1153607228,
				"z": 2.6197750596,
				"element": "C" 
			},
			{
				"x": -0.4274592397,
				"y": -0.4366999347,
				"z": 3.9027945163,
				"element": "C" 
			},
			{
				"x": 0.7045209013,
				"y": -0.7510564832,
				"z": 4.6378792411,
				"element": "C" 
			},
			{
				"x": 1.9638879565,
				"y": -0.515080249,
				"z": 4.0720930581,
				"element": "C" 
			},
			{
				"x": 2.0731809711,
				"y": -0.0161621027,
				"z": 2.7837809361,
				"element": "C" 
			},
			{
				"x": 0.9402984235,
				"y": 0.3049281516,
				"z": 2.0010154419,
				"element": "C" 
			},
			{
				"x": 1.1656725225,
				"y": 0.7832261637,
				"z": 0.7198785238,
				"element": "N" 
			},
			{
				"x": 0.4806771896,
				"y": 0.504227496,
				"z": -0.4810885392,
				"element": "C" 
			},
			{
				"x": -0.3951442734,
				"y": -0.5806948958,
				"z": -0.6256970478,
				"element": "C" 
			},
			{
				"x": -0.9978498296,
				"y": -0.8290112947,
				"z": -1.8575506568,
				"element": "C" 
			},
			{
				"x": -0.7274189436,
				"y": -0.0202756339,
				"z": -2.9624327801,
				"element": "C" 
			},
			{
				"x": 0.1557775769,
				"y": 1.0520529438,
				"z": -2.8212224904,
				"element": "C" 
			},
			{
				"x": 0.7512090437,
				"y": 1.3183242112,
				"z": -1.5911530004,
				"element": "C" 
			},
			{
				"x": -1.4230119884,
				"y": -0.579023635,
				"z": 4.3046269583,
				"element": "H" 
			},
			{
				"x": 0.6113336775,
				"y": -1.1612208515,
				"z": 5.6375108044,
				"element": "H" 
			},
			{
				"x": 2.8661798216,
				"y": -0.7456652809,
				"z": 4.6308124827,
				"element": "H" 
			},
			{
				"x": 3.0553918352,
				"y": 0.112732041,
				"z": 2.3362220081,
				"element": "H" 
			},
			{
				"x": 2.1024460481,
				"y": 1.1338154774,
				"z": 0.5804165099,
				"element": "H" 
			},
			{
				"x": -0.5979558444,
				"y": -1.2366576231,
				"z": 0.2144258137,
				"element": "H" 
			},
			{
				"x": -1.6782848745,
				"y": -1.6703140711,
				"z": -1.9520566584,
				"element": "H" 
			},
			{
				"x": -1.1990335229,
				"y": -0.2216382035,
				"z": -3.9191096417,
				"element": "H" 
			},
			{
				"x": 0.3766662241,
				"y": 1.6933138203,
				"z": -3.6696870397,
				"element": "H" 
			},
			{
				"x": 1.421132414,
				"y": 2.1670612857,
				"z": -1.4789636566,
				"element": "H" 
			}
		],
		 "valence_orbital": [ 
			{
				"type": "occ",
				"energy": -0.28667,
				"method": "rhf"
			},
			{
				"type": "occ",
				"energy": -0.26846,
				"method": "rhf"
			},
			{
				"type": "occ",
				"energy": -0.2626,
				"method": "rhf"
			},
			{
				"type": "occ",
				"energy": -0.25092,
				"method": "rhf"
			},
			{
				"type": "occ",
				"energy": -0.20661,
				"method": "rhf"
			},
			{
				"type": "unocc",
				"energy": -0.07677,
				"method": "rhf"
			},
			{
				"type": "unocc",
				"energy": -0.02323,
				"method": "rhf"
			},
			{
				"type": "unocc",
				"energy": -0.0026,
				"method": "rhf"
			},
			{
				"type": "unocc",
				"energy": -0.0003,
				"method": "rhf"
			},
			{
				"type": "unocc",
				"energy": 0.01799,
				"method": "rhf"
			}
		],
		"cosmo_sigma_profile": { 
			"-0.025": 0.0,
			"-0.024": 0.0,
			"-0.023": 0.0,
			"-0.022": 0.0,
			"-0.021": 0.0,
			"-0.02": 0.0,
			"-0.019": 0.0,
			"-0.018": 0.0,
			"-0.017": 0.0,
			"-0.016": 0.0,
			"-0.015": 0.698451653812,
			"-0.014": 1.16379582923,
			"-0.013": 1.67012852994,
			"-0.012": 1.39651760434,
			"-0.011": 1.17078634418,
			"-0.01": 1.7182821414,
			"-0.009": 2.15053984999,
			"-0.008": 2.21300797741,
			"-0.007": 6.68558797355,
			"-0.006": 14.878466283,
			"-0.005": 19.9786568768,
			"-0.004": 17.7382585822,
			"-0.003": 16.8876288594,
			"-0.002": 13.720530698,
			"-0.001": 12.7627195044,
			"0.0": 14.5455171922,
			"0.001": 15.9149044775,
			"0.002": 17.8351718993,
			"0.003": 16.6956070615,
			"0.004": 13.2199660579,
			"0.005": 9.74680102526,
			"0.006": 8.74258620541,
			"0.007": 6.30375200373,
			"0.008": 11.0360894686,
			"0.009": 7.50848936083,
			"0.01": 5.653155726,
			"0.011": 1.41562861207,
			"0.012": 0.0,
			"0.013": 0.0,
			"0.014": 0.0,
			"0.015": 0.0,
			"0.016": 0.0,
			"0.017": 0.0,
			"0.018": 0.0,
			"0.019": 0.0,
			"0.02": 0.0,
			"0.021": 0.0,
			"0.022": 0.0,
			"0.023": 0.0,
			"0.024": 0.0,
			"0.025": 0.0
		}
	}
}
