{
	 "smiles": "CC1=CC(C)=C(NC(=O)C(C(F)(F)F)C(F)(F)F)C(C)=C1", 
	 "Tm": 462.15, 
	 "num_atms": 34, 
	 "gaussian": { 
		 "optdone": 1, 
		 "sigma_profile": "yes", 
		 "theory": "DFT", 
		 "functional": "B3LYP", 
		 "basiset": "6-31G**", 
		 "properties": { 
			 "R2extent": 7350.7592, 
			 "electric_dipole_moment_norm": 2.11226840624, 
			 "electric_quadrupole_moment_norm": 8.34131430351, 
			 "total_energy": -1232.28315563, 
			 "HOMO_LUMO_gap": 0.21582, 
			 "cosmo_polarized_energy": -10.01, 
			 "cosmo_cavitation_energy": 39.55, 
			 "cosmo_dispersion_energy": -25.88, 
			 "cosmo_repulsion_energy": 1.85, 
			 "cosmo_total_nonelectrostatic_energy": 15.53, 
			 "SMD_solvation_energy": 9.25 
		},
		"coords": [
			{
				"x": -0.7709610809,
				"y": -1.7896039633,
				"z": 5.0599455875,
				"element": "C" 
			},
			{
				"x": -0.726738463,
				"y": -1.0865829564,
				"z": 3.7236093901,
				"element": "C" 
			},
			{
				"x": 0.3012051337,
				"y": -1.3413515939,
				"z": 2.811992035,
				"element": "C" 
			},
			{
				"x": 0.356710478,
				"y": -0.7265636798,
				"z": 1.5560398298,
				"element": "C" 
			},
			{
				"x": 1.4979793041,
				"y": -1.0185773495,
				"z": 0.6154903047,
				"element": "C" 
			},
			{
				"x": -0.6765691144,
				"y": 0.1636374723,
				"z": 1.2161729113,
				"element": "C" 
			},
			{
				"x": -0.6622146929,
				"y": 0.8484996956,
				"z": -0.0412035082,
				"element": "N" 
			},
			{
				"x": -0.7619256419,
				"y": 0.2399100537,
				"z": -1.2576353283,
				"element": "C" 
			},
			{
				"x": -0.7907369926,
				"y": -0.9628089454,
				"z": -1.4482327754,
				"element": "O" 
			},
			{
				"x": -0.8243989983,
				"y": 1.2135294183,
				"z": -2.4665428177,
				"element": "C" 
			},
			{
				"x": 0.4645049713,
				"y": 2.0185016965,
				"z": -2.6347317411,
				"element": "C" 
			},
			{
				"x": 1.5273344706,
				"y": 1.1925707354,
				"z": -2.5984784825,
				"element": "F" 
			},
			{
				"x": 0.4872523466,
				"y": 2.6720657792,
				"z": -3.8090817089,
				"element": "F" 
			},
			{
				"x": 0.628935655,
				"y": 2.9370664523,
				"z": -1.656536704,
				"element": "F" 
			},
			{
				"x": -2.0751856146,
				"y": 2.0914499472,
				"z": -2.443312137,
				"element": "C" 
			},
			{
				"x": -3.167534989,
				"y": 1.3284773835,
				"z": -2.2483460359,
				"element": "F" 
			},
			{
				"x": -2.0427008672,
				"y": 3.0083901588,
				"z": -1.444078452,
				"element": "F" 
			},
			{
				"x": -2.235181283,
				"y": 2.7614783939,
				"z": -3.5953533353,
				"element": "F" 
			},
			{
				"x": -1.7234768237,
				"y": 0.4527315088,
				"z": 2.1107848564,
				"element": "C" 
			},
			{
				"x": -2.8200256154,
				"y": 1.4221800097,
				"z": 1.7355258207,
				"element": "C" 
			},
			{
				"x": -1.7255667455,
				"y": -0.1784951543,
				"z": 3.3565776385,
				"element": "C" 
			},
			{
				"x": -1.3362187943,
				"y": -2.7277766371,
				"z": 4.9941716425,
				"element": "H" 
			},
			{
				"x": 0.2335534839,
				"y": -2.0405606049,
				"z": 5.4136444882,
				"element": "H" 
			},
			{
				"x": -1.2550767005,
				"y": -1.172017866,
				"z": 5.8225125878,
				"element": "H" 
			},
			{
				"x": 1.0954671884,
				"y": -2.0318836205,
				"z": 3.0864750513,
				"element": "H" 
			},
			{
				"x": 2.338151971,
				"y": -1.4655753065,
				"z": 1.153096658,
				"element": "H" 
			},
			{
				"x": 1.1803642633,
				"y": -1.7079191115,
				"z": -0.1734680308,
				"element": "H" 
			},
			{
				"x": 1.8513090365,
				"y": -0.1098723876,
				"z": 0.1173838841,
				"element": "H" 
			},
			{
				"x": -0.7539463217,
				"y": 1.8551704883,
				"z": -0.0225239741,
				"element": "H" 
			},
			{
				"x": -0.9099938107,
				"y": 0.5685061158,
				"z": -3.3429000618,
				"element": "H" 
			},
			{
				"x": -3.6257288278,
				"y": 1.3984590416,
				"z": 2.4731596065,
				"element": "H" 
			},
			{
				"x": -3.2471280365,
				"y": 1.1906174792,
				"z": 0.7543175161,
				"element": "H" 
			},
			{
				"x": -2.4562479164,
				"y": 2.4573852366,
				"z": 1.6867640218,
				"element": "H" 
			},
			{
				"x": -2.532010972,
				"y": 0.0391621101,
				"z": 4.0531612629,
				"element": "H" 
			}
		],
		 "valence_orbital": [ 
			{
				"type": "occ",
				"energy": -0.33701,
				"method": "rhf"
			},
			{
				"type": "occ",
				"energy": -0.28855,
				"method": "rhf"
			},
			{
				"type": "occ",
				"energy": -0.27358,
				"method": "rhf"
			},
			{
				"type": "occ",
				"energy": -0.23979,
				"method": "rhf"
			},
			{
				"type": "occ",
				"energy": -0.23174,
				"method": "rhf"
			},
			{
				"type": "unocc",
				"energy": -0.01592,
				"method": "rhf"
			},
			{
				"type": "unocc",
				"energy": 0.00043,
				"method": "rhf"
			},
			{
				"type": "unocc",
				"energy": 0.00899,
				"method": "rhf"
			},
			{
				"type": "unocc",
				"energy": 0.07142,
				"method": "rhf"
			},
			{
				"type": "unocc",
				"energy": 0.09019,
				"method": "rhf"
			}
		],
		"cosmo_sigma_profile": { 
			"-0.025": 0.0,
			"-0.024": 0.0,
			"-0.023": 0.0,
			"-0.022": 0.0,
			"-0.021": 0.0,
			"-0.02": 0.0,
			"-0.019": 0.0,
			"-0.018": 0.0,
			"-0.017": 0.0,
			"-0.016": 0.0,
			"-0.015": 0.0,
			"-0.014": 0.0,
			"-0.013": 0.352423501503,
			"-0.012": 1.4185270921,
			"-0.011": 3.28945679296,
			"-0.01": 2.0686948201,
			"-0.009": 2.35890631736,
			"-0.008": 2.39786292799,
			"-0.007": 2.32331022763,
			"-0.006": 2.72989213066,
			"-0.005": 8.71045690078,
			"-0.004": 20.0362139827,
			"-0.003": 23.9994044697,
			"-0.002": 29.336570236,
			"-0.001": 32.0894559079,
			"0.0": 40.8794046398,
			"0.001": 45.1598079305,
			"0.002": 50.2557320633,
			"0.003": 7.81613442842,
			"0.004": 7.8109970904,
			"0.005": 9.24211167515,
			"0.006": 6.35614970304,
			"0.007": 2.28379357892,
			"0.008": 1.10105492546,
			"0.009": 1.91627507585,
			"0.01": 2.0483357551,
			"0.011": 2.57834479707,
			"0.012": 3.97010375189,
			"0.013": 0.968460809733,
			"0.014": 0.0,
			"0.015": 0.0,
			"0.016": 0.0,
			"0.017": 0.0,
			"0.018": 0.0,
			"0.019": 0.0,
			"0.02": 0.0,
			"0.021": 0.0,
			"0.022": 0.0,
			"0.023": 0.0,
			"0.024": 0.0,
			"0.025": 0.0
		}
	}
}
