{
	 "smiles": "CC1=C(CBr)C(=NO1)C1=CC=CC=C1", 
	 "Tm": 335.15, 
	 "num_atms": 24, 
	 "gaussian": { 
		 "optdone": 1, 
		 "sigma_profile": "yes", 
		 "theory": "DFT", 
		 "functional": "B3LYP", 
		 "basiset": "6-31G**", 
		 "properties": { 
			 "R2extent": 4943.4627, 
			 "electric_dipole_moment_norm": 2.42923650763, 
			 "electric_quadrupole_moment_norm": 12.5799949086, 
			 "total_energy": -3126.54303255, 
			 "HOMO_LUMO_gap": 0.20766, 
			 "cosmo_polarized_energy": -10.33, 
			 "cosmo_cavitation_energy": 30.22, 
			 "cosmo_dispersion_energy": -21.99, 
			 "cosmo_repulsion_energy": 1.73, 
			 "cosmo_total_nonelectrostatic_energy": 9.97, 
			 "SMD_solvation_energy": 4.05 
		},
		"coords": [
			{
				"x": 0.905928619,
				"y": 2.3736762021,
				"z": -2.5700891218,
				"element": "C" 
			},
			{
				"x": 0.5206502983,
				"y": 1.4319044412,
				"z": -1.483803585,
				"element": "C" 
			},
			{
				"x": 0.6826309858,
				"y": 0.0824253301,
				"z": -1.3080927666,
				"element": "C" 
			},
			{
				"x": 1.4117969085,
				"y": -0.8496544852,
				"z": -2.18896744,
				"element": "C" 
			},
			{
				"x": 0.260624211,
				"y": -1.6493390593,
				"z": -3.6461329602,
				"element": "Br" 
			},
			{
				"x": 0.0562043736,
				"y": -0.1729193821,
				"z": -0.034855115,
				"element": "C" 
			},
			{
				"x": -0.4218234548,
				"y": 0.9365012632,
				"z": 0.4905751504,
				"element": "N" 
			},
			{
				"x": -0.1282384067,
				"y": 1.9518701665,
				"z": -0.4278542122,
				"element": "O" 
			},
			{
				"x": -0.0601536898,
				"y": -1.4400531842,
				"z": 0.7138968048,
				"element": "C" 
			},
			{
				"x": 0.0024161298,
				"y": -1.4236736014,
				"z": 2.1175792563,
				"element": "C" 
			},
			{
				"x": -0.1160312412,
				"y": -2.6075538305,
				"z": 2.8411474205,
				"element": "C" 
			},
			{
				"x": -0.2957236989,
				"y": -3.8233873539,
				"z": 2.1760762879,
				"element": "C" 
			},
			{
				"x": -0.3651986221,
				"y": -3.8467862707,
				"z": 0.7826165838,
				"element": "C" 
			},
			{
				"x": -0.2507746826,
				"y": -2.6634443858,
				"z": 0.0520268143,
				"element": "C" 
			},
			{
				"x": 0.0171321586,
				"y": 2.8508638886,
				"z": -2.9958897928,
				"element": "H" 
			},
			{
				"x": 1.5577107482,
				"y": 3.1663951034,
				"z": -2.1884551889,
				"element": "H" 
			},
			{
				"x": 1.4242783477,
				"y": 1.8444047952,
				"z": -3.371814473,
				"element": "H" 
			},
			{
				"x": 1.7958752348,
				"y": -1.7154765542,
				"z": -1.654704781,
				"element": "H" 
			},
			{
				"x": 2.2149989742,
				"y": -0.3671408103,
				"z": -2.7417002641,
				"element": "H" 
			},
			{
				"x": 0.1463740406,
				"y": -0.4765061587,
				"z": 2.6264707508,
				"element": "H" 
			},
			{
				"x": -0.0636447496,
				"y": -2.5826127894,
				"z": 3.9257638993,
				"element": "H" 
			},
			{
				"x": -0.3836810575,
				"y": -4.7464001808,
				"z": 2.7418917311,
				"element": "H" 
			},
			{
				"x": -0.51736774,
				"y": -4.786427276,
				"z": 0.2596096617,
				"element": "H" 
			},
			{
				"x": -0.3413836868,
				"y": -2.688465868,
				"z": -1.0293946601,
				"element": "H" 
			}
		],
		 "valence_orbital": [ 
			{
				"type": "occ",
				"energy": -0.28106,
				"method": "rhf"
			},
			{
				"type": "occ",
				"energy": -0.27734,
				"method": "rhf"
			},
			{
				"type": "occ",
				"energy": -0.25629,
				"method": "rhf"
			},
			{
				"type": "occ",
				"energy": -0.25545,
				"method": "rhf"
			},
			{
				"type": "occ",
				"energy": -0.24443,
				"method": "rhf"
			},
			{
				"type": "unocc",
				"energy": -0.03677,
				"method": "rhf"
			},
			{
				"type": "unocc",
				"energy": -0.03465,
				"method": "rhf"
			},
			{
				"type": "unocc",
				"energy": -0.00755,
				"method": "rhf"
			},
			{
				"type": "unocc",
				"energy": 0.01479,
				"method": "rhf"
			},
			{
				"type": "unocc",
				"energy": 0.07071,
				"method": "rhf"
			}
		],
		"cosmo_sigma_profile": { 
			"-0.025": 0.0,
			"-0.024": 0.0,
			"-0.023": 0.0,
			"-0.022": 0.0,
			"-0.021": 0.0,
			"-0.02": 0.0,
			"-0.019": 0.0,
			"-0.018": 0.0,
			"-0.017": 0.0,
			"-0.016": 0.0,
			"-0.015": 0.0,
			"-0.014": 0.0,
			"-0.013": 0.0,
			"-0.012": 0.0,
			"-0.011": 0.0,
			"-0.01": 0.00146689722298,
			"-0.009": 1.11914061144,
			"-0.008": 3.6796950211,
			"-0.007": 6.87708288787,
			"-0.006": 15.427723488,
			"-0.005": 19.0783449248,
			"-0.004": 19.8380569353,
			"-0.003": 18.0178624398,
			"-0.002": 18.862649625,
			"-0.001": 17.8233157559,
			"0.0": 17.4663811153,
			"0.001": 14.9472319175,
			"0.002": 13.1123337987,
			"0.003": 16.5720590307,
			"0.004": 18.5136398219,
			"0.005": 15.6026207177,
			"0.006": 12.112188276,
			"0.007": 4.7520667896,
			"0.008": 4.3799443397,
			"0.009": 1.73632863307,
			"0.01": 1.1482132813,
			"0.011": 1.6151412289,
			"0.012": 0.845892037708,
			"0.013": 1.10824745909,
			"0.014": 0.675619029567,
			"0.015": 0.0,
			"0.016": 0.0,
			"0.017": 0.0,
			"0.018": 0.0,
			"0.019": 0.0,
			"0.02": 0.0,
			"0.021": 0.0,
			"0.022": 0.0,
			"0.023": 0.0,
			"0.024": 0.0,
			"0.025": 0.0
		}
	}
}
