{
	 "smiles": "ClC1=CC=C(C2=CC=CC(Cl)=C12)S(Cl)(=O)=O", 
	 "Tm": 389.15, 
	 "num_atms": 21, 
	 "gaussian": { 
		 "optdone": 1, 
		 "sigma_profile": "yes", 
		 "theory": "DFT", 
		 "functional": "B3LYP", 
		 "basiset": "6-31G**", 
		 "properties": { 
			 "R2extent": 6772.9971, 
			 "electric_dipole_moment_norm": 2.74959336812, 
			 "electric_quadrupole_moment_norm": 21.7186730311, 
			 "total_energy": -2313.20972673, 
			 "HOMO_LUMO_gap": 0.14337, 
			 "cosmo_polarized_energy": -8.44, 
			 "cosmo_cavitation_energy": 31.51, 
			 "cosmo_dispersion_energy": -24.17, 
			 "cosmo_repulsion_energy": 1.8, 
			 "cosmo_total_nonelectrostatic_energy": 9.14, 
			 "SMD_solvation_energy": 3.39 
		},
		"coords": [
			{
				"x": -0.8154817803,
				"y": -1.8430732578,
				"z": -3.4282816551,
				"element": "Cl" 
			},
			{
				"x": 0.3662691942,
				"y": -1.2293788627,
				"z": -2.2919284962,
				"element": "C" 
			},
			{
				"x": 1.5982776236,
				"y": -1.8436840739,
				"z": -2.3897461311,
				"element": "C" 
			},
			{
				"x": 2.661208571,
				"y": -1.4750793654,
				"z": -1.5555586327,
				"element": "C" 
			},
			{
				"x": 2.4608486804,
				"y": -0.4969619253,
				"z": -0.6106838427,
				"element": "C" 
			},
			{
				"x": 1.2091447092,
				"y": 0.180663722,
				"z": -0.4556352802,
				"element": "C" 
			},
			{
				"x": 1.0358337631,
				"y": 1.1937759553,
				"z": 0.5219112209,
				"element": "C" 
			},
			{
				"x": -0.1622827279,
				"y": 1.8499661469,
				"z": 0.6522665726,
				"element": "C" 
			},
			{
				"x": -1.2401327686,
				"y": 1.5212006993,
				"z": -0.1830038603,
				"element": "C" 
			},
			{
				"x": -1.1201230506,
				"y": 0.5378489175,
				"z": -1.1435671663,
				"element": "C" 
			},
			{
				"x": -2.582127939,
				"y": 0.2791573359,
				"z": -2.0823657645,
				"element": "Cl" 
			},
			{
				"x": 0.105816306,
				"y": -0.1871153061,
				"z": -1.3348979277,
				"element": "C" 
			},
			{
				"x": 3.9023416426,
				"y": -0.1476630442,
				"z": 0.4068110619,
				"element": "S" 
			},
			{
				"x": 4.4767436992,
				"y": 1.7823033328,
				"z": -0.3047465895,
				"element": "Cl" 
			},
			{
				"x": 4.9754962261,
				"y": -1.0546388363,
				"z": 0.0205020849,
				"element": "O" 
			},
			{
				"x": 3.5310196598,
				"y": 0.0291334772,
				"z": 1.8063972248,
				"element": "O" 
			},
			{
				"x": 1.7409629977,
				"y": -2.6227925263,
				"z": -3.1285532615,
				"element": "H" 
			},
			{
				"x": 3.6257730834,
				"y": -1.958098461,
				"z": -1.6508878917,
				"element": "H" 
			},
			{
				"x": 1.8532414932,
				"y": 1.443156374,
				"z": 1.1823842193,
				"element": "H" 
			},
			{
				"x": -0.2821634092,
				"y": 2.6237294672,
				"z": 1.4034994927,
				"element": "H" 
			},
			{
				"x": -2.1872659739,
				"y": 2.0379502309,
				"z": -0.0820153776,
				"element": "H" 
			}
		],
		 "valence_orbital": [ 
			{
				"type": "occ",
				"energy": -0.32076,
				"method": "rhf"
			},
			{
				"type": "occ",
				"energy": -0.30311,
				"method": "rhf"
			},
			{
				"type": "occ",
				"energy": -0.29985,
				"method": "rhf"
			},
			{
				"type": "occ",
				"energy": -0.28932,
				"method": "rhf"
			},
			{
				"type": "occ",
				"energy": -0.24868,
				"method": "rhf"
			},
			{
				"type": "unocc",
				"energy": -0.10531,
				"method": "rhf"
			},
			{
				"type": "unocc",
				"energy": -0.07642,
				"method": "rhf"
			},
			{
				"type": "unocc",
				"energy": -0.05524,
				"method": "rhf"
			},
			{
				"type": "unocc",
				"energy": -0.01919,
				"method": "rhf"
			},
			{
				"type": "unocc",
				"energy": 0.00371,
				"method": "rhf"
			}
		],
		"cosmo_sigma_profile": { 
			"-0.025": 0.0,
			"-0.024": 0.0,
			"-0.023": 0.0,
			"-0.022": 0.0,
			"-0.021": 0.0,
			"-0.02": 0.0,
			"-0.019": 0.0,
			"-0.018": 0.0,
			"-0.017": 0.0,
			"-0.016": 0.0,
			"-0.015": 0.0,
			"-0.014": 0.0,
			"-0.013": 0.0,
			"-0.012": 0.0,
			"-0.011": 0.0,
			"-0.01": 0.221277660101,
			"-0.009": 3.39385212903,
			"-0.008": 6.77374257261,
			"-0.007": 8.41034396201,
			"-0.006": 8.79351085787,
			"-0.005": 8.02253319479,
			"-0.004": 10.3127514739,
			"-0.003": 14.7656207016,
			"-0.002": 22.588007421,
			"-0.001": 31.6788107521,
			"0.0": 26.7101617342,
			"0.001": 27.5893974147,
			"0.002": 23.9439309867,
			"0.003": 25.3661355584,
			"0.004": 16.5726108681,
			"0.005": 5.85737992375,
			"0.006": 3.74558584056,
			"0.007": 6.34129588386,
			"0.008": 8.30752526434,
			"0.009": 2.29403220226,
			"0.01": 0.0,
			"0.011": 0.0,
			"0.012": 0.0,
			"0.013": 0.0,
			"0.014": 0.0,
			"0.015": 0.0,
			"0.016": 0.0,
			"0.017": 0.0,
			"0.018": 0.0,
			"0.019": 0.0,
			"0.02": 0.0,
			"0.021": 0.0,
			"0.022": 0.0,
			"0.023": 0.0,
			"0.024": 0.0,
			"0.025": 0.0
		}
	}
}
