{
	 "smiles": "OCCCN1N=C2C=CC=CN2C1=O", 
	 "Tm": 355.15, 
	 "num_atms": 25, 
	 "gaussian": { 
		 "optdone": 1, 
		 "sigma_profile": "yes", 
		 "theory": "DFT", 
		 "functional": "B3LYP", 
		 "basiset": "6-31G**", 
		 "properties": { 
			 "R2extent": 3034.7052, 
			 "electric_dipole_moment_norm": 4.89488388524, 
			 "electric_quadrupole_moment_norm": 15.8046271851, 
			 "total_energy": -664.281417518, 
			 "HOMO_LUMO_gap": 0.1497, 
			 "cosmo_polarized_energy": -12.88, 
			 "cosmo_cavitation_energy": 27.93, 
			 "cosmo_dispersion_energy": -20.79, 
			 "cosmo_repulsion_energy": 1.61, 
			 "cosmo_total_nonelectrostatic_energy": 8.75, 
			 "SMD_solvation_energy": 4.1 
		},
		"coords": [
			{
				"x": -3.3202516149,
				"y": 0.8429467036,
				"z": -0.7176176755,
				"element": "O" 
			},
			{
				"x": -2.1850868143,
				"y": 1.0827972062,
				"z": -1.5254877286,
				"element": "C" 
			},
			{
				"x": -1.2912910193,
				"y": 2.2087707057,
				"z": -0.9776220964,
				"element": "C" 
			},
			{
				"x": -0.9017064155,
				"y": 2.016174258,
				"z": 0.4928392088,
				"element": "C" 
			},
			{
				"x": -0.1264657343,
				"y": 0.8074530473,
				"z": 0.7472234258,
				"element": "N" 
			},
			{
				"x": 1.2550027179,
				"y": 0.8189851952,
				"z": 0.6833988262,
				"element": "N" 
			},
			{
				"x": 1.5976292807,
				"y": -0.4191269249,
				"z": 0.9574946616,
				"element": "C" 
			},
			{
				"x": 2.8813011305,
				"y": -1.0346200995,
				"z": 1.0547873302,
				"element": "C" 
			},
			{
				"x": 2.9477188595,
				"y": -2.3647153384,
				"z": 1.3587772349,
				"element": "C" 
			},
			{
				"x": 1.7591194363,
				"y": -3.1460375696,
				"z": 1.5798207368,
				"element": "C" 
			},
			{
				"x": 0.5360382523,
				"y": -2.5615029187,
				"z": 1.4888099651,
				"element": "C" 
			},
			{
				"x": 0.4736888323,
				"y": -1.2206223757,
				"z": 1.1850376229,
				"element": "N" 
			},
			{
				"x": -0.6669325451,
				"y": -0.4158674657,
				"z": 1.0357986388,
				"element": "C" 
			},
			{
				"x": -1.8449716736,
				"y": -0.7663411081,
				"z": 1.14062963,
				"element": "O" 
			},
			{
				"x": -3.0398195168,
				"y": 0.2379311094,
				"z": -0.0070738845,
				"element": "H" 
			},
			{
				"x": -1.5886388257,
				"y": 0.166817629,
				"z": -1.6595626045,
				"element": "H" 
			},
			{
				"x": -2.5437473515,
				"y": 1.3713433017,
				"z": -2.5205987571,
				"element": "H" 
			},
			{
				"x": -1.8325263367,
				"y": 3.160470316,
				"z": -1.0422881232,
				"element": "H" 
			},
			{
				"x": -0.3887950544,
				"y": 2.3009215918,
				"z": -1.5946806226,
				"element": "H" 
			},
			{
				"x": -0.3017743049,
				"y": 2.8534763149,
				"z": 0.8550495711,
				"element": "H" 
			},
			{
				"x": -1.8075074561,
				"y": 1.9431760219,
				"z": 1.1003800555,
				"element": "H" 
			},
			{
				"x": 3.7619763752,
				"y": -0.4270803257,
				"z": 0.8840151959,
				"element": "H" 
			},
			{
				"x": 3.9150816115,
				"y": -2.8504187911,
				"z": 1.4367975414,
				"element": "H" 
			},
			{
				"x": 1.8328802656,
				"y": -4.200176445,
				"z": 1.8180489121,
				"element": "H" 
			},
			{
				"x": -0.4194220988,
				"y": -3.0506540383,
				"z": 1.6333229356,
				"element": "H" 
			}
		],
		 "valence_orbital": [ 
			{
				"type": "occ",
				"energy": -0.30608,
				"method": "rhf"
			},
			{
				"type": "occ",
				"energy": -0.27947,
				"method": "rhf"
			},
			{
				"type": "occ",
				"energy": -0.27709,
				"method": "rhf"
			},
			{
				"type": "occ",
				"energy": -0.24611,
				"method": "rhf"
			},
			{
				"type": "occ",
				"energy": -0.20891,
				"method": "rhf"
			},
			{
				"type": "unocc",
				"energy": -0.05921,
				"method": "rhf"
			},
			{
				"type": "unocc",
				"energy": -0.00388,
				"method": "rhf"
			},
			{
				"type": "unocc",
				"energy": 0.04646,
				"method": "rhf"
			},
			{
				"type": "unocc",
				"energy": 0.07992,
				"method": "rhf"
			},
			{
				"type": "unocc",
				"energy": 0.09997,
				"method": "rhf"
			}
		],
		"cosmo_sigma_profile": { 
			"-0.025": 0.0,
			"-0.024": 0.0,
			"-0.023": 0.0,
			"-0.022": 0.0,
			"-0.021": 0.0,
			"-0.02": 0.0,
			"-0.019": 0.0,
			"-0.018": 0.0,
			"-0.017": 0.0,
			"-0.016": 0.0,
			"-0.015": 0.0,
			"-0.014": 0.0,
			"-0.013": 0.0,
			"-0.012": 0.0,
			"-0.011": 0.0,
			"-0.01": 0.164297579096,
			"-0.009": 1.35783828348,
			"-0.008": 4.87220801751,
			"-0.007": 8.3456190186,
			"-0.006": 10.7672353497,
			"-0.005": 11.0464911909,
			"-0.004": 21.5586053951,
			"-0.003": 25.8966674984,
			"-0.002": 24.9387934502,
			"-0.001": 17.9074938005,
			"0.0": 17.0458243239,
			"0.001": 14.0071277726,
			"0.002": 13.0952402479,
			"0.003": 8.12986899456,
			"0.004": 4.35780749358,
			"0.005": 4.31180128732,
			"0.006": 3.74033383482,
			"0.007": 2.65848855464,
			"0.008": 3.18696276726,
			"0.009": 4.01285256677,
			"0.01": 3.67246719625,
			"0.011": 4.19720566602,
			"0.012": 3.38253793665,
			"0.013": 3.70558804212,
			"0.014": 2.54735191073,
			"0.015": 2.63633276987,
			"0.016": 0.404745630531,
			"0.017": 0.0,
			"0.018": 0.0,
			"0.019": 0.0,
			"0.02": 0.0,
			"0.021": 0.0,
			"0.022": 0.0,
			"0.023": 0.0,
			"0.024": 0.0,
			"0.025": 0.0
		}
	}
}
