{
	 "smiles": "COC1=CC=C2C(O)CC2=C1", 
	 "Tm": 313.15, 
	 "num_atms": 21, 
	 "gaussian": { 
		 "optdone": 1, 
		 "sigma_profile": "yes", 
		 "theory": "DFT", 
		 "functional": "B3LYP", 
		 "basiset": "6-31G**", 
		 "properties": { 
			 "R2extent": 2233.7629, 
			 "electric_dipole_moment_norm": 2.4835330177, 
			 "electric_quadrupole_moment_norm": 7.10666593277, 
			 "total_energy": -499.368559318, 
			 "HOMO_LUMO_gap": 0.20837, 
			 "cosmo_polarized_energy": -9.71, 
			 "cosmo_cavitation_energy": 24.41, 
			 "cosmo_dispersion_energy": -18.27, 
			 "cosmo_repulsion_energy": 1.49, 
			 "cosmo_total_nonelectrostatic_energy": 7.62, 
			 "SMD_solvation_energy": 4.56 
		},
		"coords": [
			{
				"x": -1.4181315491,
				"y": -1.4406322967,
				"z": 3.9318495501,
				"element": "C" 
			},
			{
				"x": -1.1690676469,
				"y": -0.3179278198,
				"z": 3.1035043822,
				"element": "O" 
			},
			{
				"x": -0.4415396127,
				"y": -0.4942682564,
				"z": 1.958916305,
				"element": "C" 
			},
			{
				"x": 0.0856948627,
				"y": -1.7342749103,
				"z": 1.552703938,
				"element": "C" 
			},
			{
				"x": 0.8319311276,
				"y": -1.8532812988,
				"z": 0.3673581841,
				"element": "C" 
			},
			{
				"x": 1.0069716841,
				"y": -0.7010258131,
				"z": -0.3806149126,
				"element": "C" 
			},
			{
				"x": 1.6751416881,
				"y": -0.0889820568,
				"z": -1.6137748423,
				"element": "C" 
			},
			{
				"x": 1.2440028656,
				"y": -0.4999389043,
				"z": -2.8983674569,
				"element": "O" 
			},
			{
				"x": 1.0119591167,
				"y": 1.2713048025,
				"z": -1.1850829727,
				"element": "C" 
			},
			{
				"x": 0.470088481,
				"y": 0.5230681523,
				"z": 0.0241598798,
				"element": "C" 
			},
			{
				"x": -0.2501365932,
				"y": 0.6755129631,
				"z": 1.1932956608,
				"element": "C" 
			},
			{
				"x": -0.4871853939,
				"y": -1.8790562112,
				"z": 4.3147748179,
				"element": "H" 
			},
			{
				"x": -1.987704562,
				"y": -2.2172101785,
				"z": 3.4046815899,
				"element": "H" 
			},
			{
				"x": -2.010066155,
				"y": -1.0704412101,
				"z": 4.7706110341,
				"element": "H" 
			},
			{
				"x": -0.0773263423,
				"y": -2.6159980162,
				"z": 2.1609429971,
				"element": "H" 
			},
			{
				"x": 1.2386021464,
				"y": -2.8202924474,
				"z": 0.0816633567,
				"element": "H" 
			},
			{
				"x": 2.774676436,
				"y": -0.0683137917,
				"z": -1.5556215444,
				"element": "H" 
			},
			{
				"x": 1.5692705667,
				"y": -1.3967788875,
				"z": -3.0491541885,
				"element": "H" 
			},
			{
				"x": 1.7030636578,
				"y": 2.0982922825,
				"z": -0.9908170484,
				"element": "H" 
			},
			{
				"x": 0.2560154349,
				"y": 1.5946920933,
				"z": -1.9069900001,
				"element": "H" 
			},
			{
				"x": -0.6726602124,
				"y": 1.6125518049,
				"z": 1.5417612703,
				"element": "H" 
			}
		],
		 "valence_orbital": [ 
			{
				"type": "occ",
				"energy": -0.31134,
				"method": "rhf"
			},
			{
				"type": "occ",
				"energy": -0.30404,
				"method": "rhf"
			},
			{
				"type": "occ",
				"energy": -0.26025,
				"method": "rhf"
			},
			{
				"type": "occ",
				"energy": -0.24331,
				"method": "rhf"
			},
			{
				"type": "occ",
				"energy": -0.21267,
				"method": "rhf"
			},
			{
				"type": "unocc",
				"energy": -0.0043,
				"method": "rhf"
			},
			{
				"type": "unocc",
				"energy": 0.01711,
				"method": "rhf"
			},
			{
				"type": "unocc",
				"energy": 0.08598,
				"method": "rhf"
			},
			{
				"type": "unocc",
				"energy": 0.09653,
				"method": "rhf"
			},
			{
				"type": "unocc",
				"energy": 0.11253,
				"method": "rhf"
			}
		],
		"cosmo_sigma_profile": { 
			"-0.025": 0.0,
			"-0.024": 0.0,
			"-0.023": 0.0,
			"-0.022": 0.0,
			"-0.021": 0.0,
			"-0.02": 0.0,
			"-0.019": 0.0,
			"-0.018": 0.0,
			"-0.017": 0.0,
			"-0.016": 0.560842245406,
			"-0.015": 0.8512792253,
			"-0.014": 1.22094776053,
			"-0.013": 0.706174971842,
			"-0.012": 0.967890208486,
			"-0.011": 0.866759808901,
			"-0.01": 0.622040257744,
			"-0.009": 0.649376528965,
			"-0.008": 0.876335312306,
			"-0.007": 1.22374710278,
			"-0.006": 6.96899213045,
			"-0.005": 16.0403065223,
			"-0.004": 21.358641796,
			"-0.003": 20.1123534628,
			"-0.002": 15.685702241,
			"-0.001": 13.0950622778,
			"0.0": 12.0608609997,
			"0.001": 9.43596354883,
			"0.002": 8.12353202792,
			"0.003": 9.56499359641,
			"0.004": 11.43797181,
			"0.005": 12.1997701396,
			"0.006": 9.78956937437,
			"0.007": 2.91875292914,
			"0.008": 2.69227215293,
			"0.009": 3.01870024096,
			"0.01": 3.33340258102,
			"0.011": 1.57983281127,
			"0.012": 1.31864635909,
			"0.013": 1.9879280436,
			"0.014": 1.82058559489,
			"0.015": 0.0461505846823,
			"0.016": 0.0,
			"0.017": 0.0,
			"0.018": 0.0,
			"0.019": 0.0,
			"0.02": 0.0,
			"0.021": 0.0,
			"0.022": 0.0,
			"0.023": 0.0,
			"0.024": 0.0,
			"0.025": 0.0
		}
	}
}
