{
	 "smiles": "CN1N=C(C(O)=O)C2=CC=CC=C12", 
	 "Tm": 490.15, 
	 "num_atms": 21, 
	 "gaussian": { 
		 "optdone": 1, 
		 "sigma_profile": "yes", 
		 "theory": "DFT", 
		 "functional": "B3LYP", 
		 "basiset": "6-31G**", 
		 "properties": { 
			 "R2extent": 2779.7711, 
			 "electric_dipole_moment_norm": 6.46972427929, 
			 "electric_quadrupole_moment_norm": 15.3349322796, 
			 "total_energy": -607.735145258, 
			 "HOMO_LUMO_gap": 0.1782, 
			 "cosmo_polarized_energy": -13.69, 
			 "cosmo_cavitation_energy": 25.57, 
			 "cosmo_dispersion_energy": -18.96, 
			 "cosmo_repulsion_energy": 1.49, 
			 "cosmo_total_nonelectrostatic_energy": 8.1, 
			 "SMD_solvation_energy": 4.74 
		},
		"coords": [
			{
				"x": 0.2422745019,
				"y": -2.6636388555,
				"z": -1.8064414123,
				"element": "C" 
			},
			{
				"x": 0.3430241561,
				"y": -1.2508443485,
				"z": -1.4972440274,
				"element": "N" 
			},
			{
				"x": 1.426707825,
				"y": -0.5417453064,
				"z": -1.8714120701,
				"element": "N" 
			},
			{
				"x": 1.2361553235,
				"y": 0.7067672445,
				"z": -1.4547741578,
				"element": "C" 
			},
			{
				"x": 2.2608648202,
				"y": 1.7423120891,
				"z": -1.7150607973,
				"element": "C" 
			},
			{
				"x": 3.3505525944,
				"y": 1.3060823322,
				"z": -2.386571696,
				"element": "O" 
			},
			{
				"x": 2.144221925,
				"y": 2.8953349776,
				"z": -1.3620834506,
				"element": "O" 
			},
			{
				"x": -0.0155777145,
				"y": 0.8374674304,
				"z": -0.7802630786,
				"element": "C" 
			},
			{
				"x": -0.7206990934,
				"y": 1.8799442711,
				"z": -0.1529624962,
				"element": "C" 
			},
			{
				"x": -1.9544434808,
				"y": 1.5833138571,
				"z": 0.4031340364,
				"element": "C" 
			},
			{
				"x": -2.4942757172,
				"y": 0.2754021775,
				"z": 0.3457307389,
				"element": "C" 
			},
			{
				"x": -1.8187353133,
				"y": -0.7692509083,
				"z": -0.2669092631,
				"element": "C" 
			},
			{
				"x": -0.5686030896,
				"y": -0.4650649529,
				"z": -0.8295665599,
				"element": "C" 
			},
			{
				"x": 0.1625290961,
				"y": -3.2558539885,
				"z": -0.8890650652,
				"element": "H" 
			},
			{
				"x": -0.6308588648,
				"y": -2.8604712717,
				"z": -2.4369602145,
				"element": "H" 
			},
			{
				"x": 1.1466031295,
				"y": -2.9484355568,
				"z": -2.3427132339,
				"element": "H" 
			},
			{
				"x": 3.2323287416,
				"y": 0.3570612867,
				"z": -2.5683349045,
				"element": "H" 
			},
			{
				"x": -0.2935362738,
				"y": 2.8754916664,
				"z": -0.1175377692,
				"element": "H" 
			},
			{
				"x": -2.5246683158,
				"y": 2.365444558,
				"z": 0.8948371932,
				"element": "H" 
			},
			{
				"x": -3.4649565195,
				"y": 0.0862836575,
				"z": 0.7946226025,
				"element": "H" 
			},
			{
				"x": -2.2390077306,
				"y": -1.7689003595,
				"z": -0.3068243746,
				"element": "H" 
			}
		],
		 "valence_orbital": [ 
			{
				"type": "occ",
				"energy": -0.30906,
				"method": "rhf"
			},
			{
				"type": "occ",
				"energy": -0.29444,
				"method": "rhf"
			},
			{
				"type": "occ",
				"energy": -0.26722,
				"method": "rhf"
			},
			{
				"type": "occ",
				"energy": -0.25667,
				"method": "rhf"
			},
			{
				"type": "occ",
				"energy": -0.233,
				"method": "rhf"
			},
			{
				"type": "unocc",
				"energy": -0.0548,
				"method": "rhf"
			},
			{
				"type": "unocc",
				"energy": -0.00582,
				"method": "rhf"
			},
			{
				"type": "unocc",
				"energy": 0.00564,
				"method": "rhf"
			},
			{
				"type": "unocc",
				"energy": 0.07951,
				"method": "rhf"
			},
			{
				"type": "unocc",
				"energy": 0.09618,
				"method": "rhf"
			}
		],
		"cosmo_sigma_profile": { 
			"-0.025": 0.0,
			"-0.024": 0.0,
			"-0.023": 0.0,
			"-0.022": 0.0,
			"-0.021": 0.0,
			"-0.02": 0.0,
			"-0.019": 0.0,
			"-0.018": 0.0,
			"-0.017": 0.0,
			"-0.016": 0.0,
			"-0.015": 0.342695633191,
			"-0.014": 0.493586438854,
			"-0.013": 0.39618075408,
			"-0.012": 0.530131997579,
			"-0.011": 0.819267432475,
			"-0.01": 0.842502615307,
			"-0.009": 0.38867266552,
			"-0.008": 0.908315370261,
			"-0.007": 9.03493448107,
			"-0.006": 17.7902328112,
			"-0.005": 15.7114798648,
			"-0.004": 17.1119768411,
			"-0.003": 14.8374313467,
			"-0.002": 11.1489435613,
			"-0.001": 10.8566908533,
			"0.0": 13.4591240604,
			"0.001": 12.8945548244,
			"0.002": 13.2758961535,
			"0.003": 14.8470088264,
			"0.004": 13.6029000248,
			"0.005": 7.03601789321,
			"0.006": 3.8329756965,
			"0.007": 2.89310723268,
			"0.008": 2.99140475759,
			"0.009": 3.65867975229,
			"0.01": 4.7426516875,
			"0.011": 4.95743438594,
			"0.012": 3.62019542005,
			"0.013": 1.87483245794,
			"0.014": 0.168784423031,
			"0.015": 0.0,
			"0.016": 0.0,
			"0.017": 0.0,
			"0.018": 0.0,
			"0.019": 0.0,
			"0.02": 0.0,
			"0.021": 0.0,
			"0.022": 0.0,
			"0.023": 0.0,
			"0.024": 0.0,
			"0.025": 0.0
		}
	}
}
