{
	 "smiles": "CC1(CCCC(O)=O)NC(=O)NC1=O", 
	 "Tm": 423.15, 
	 "num_atms": 26, 
	 "gaussian": { 
		 "optdone": 1, 
		 "sigma_profile": "yes", 
		 "theory": "DFT", 
		 "functional": "B3LYP", 
		 "basiset": "6-31G**", 
		 "properties": { 
			 "R2extent": 3718.2237, 
			 "electric_dipole_moment_norm": 2.23857251837, 
			 "electric_quadrupole_moment_norm": 36.3726650064, 
			 "total_energy": -722.539842314, 
			 "HOMO_LUMO_gap": 0.2442, 
			 "cosmo_polarized_energy": -25.34, 
			 "cosmo_cavitation_energy": 29.73, 
			 "cosmo_dispersion_energy": -20.94, 
			 "cosmo_repulsion_energy": 1.68, 
			 "cosmo_total_nonelectrostatic_energy": 10.47, 
			 "SMD_solvation_energy": 7.21 
		},
		"coords": [
			{
				"x": 0.590338113,
				"y": -0.859630511,
				"z": 1.6007026635,
				"element": "C" 
			},
			{
				"x": -0.0980620456,
				"y": -1.3505552307,
				"z": 0.3185223098,
				"element": "C" 
			},
			{
				"x": -1.3361747296,
				"y": -0.4879386778,
				"z": -0.0726585493,
				"element": "C" 
			},
			{
				"x": -1.2349834633,
				"y": 1.0455478177,
				"z": -0.0174254853,
				"element": "C" 
			},
			{
				"x": -0.4106779904,
				"y": 1.7017598951,
				"z": -1.127456295,
				"element": "C" 
			},
			{
				"x": -0.4812640361,
				"y": 3.2205577489,
				"z": -1.0730253256,
				"element": "C" 
			},
			{
				"x": 0.316916871,
				"y": 3.8675156572,
				"z": -1.9658607398,
				"element": "O" 
			},
			{
				"x": -1.1806333881,
				"y": 3.8532152588,
				"z": -0.3208952726,
				"element": "O" 
			},
			{
				"x": -0.5132278449,
				"y": -2.753960031,
				"z": 0.4327879801,
				"element": "N" 
			},
			{
				"x": 0.0046285222,
				"y": -3.5781433235,
				"z": -0.530322233,
				"element": "C" 
			},
			{
				"x": -0.2238372879,
				"y": -4.7502303633,
				"z": -0.7395271549,
				"element": "O" 
			},
			{
				"x": 0.9043044137,
				"y": -2.7657093701,
				"z": -1.2597446963,
				"element": "N" 
			},
			{
				"x": 0.9471830002,
				"y": -1.4653408323,
				"z": -0.8205630069,
				"element": "C" 
			},
			{
				"x": 1.6803038435,
				"y": -0.5883433274,
				"z": -1.2387033382,
				"element": "O" 
			},
			{
				"x": -0.1373079033,
				"y": -0.7539791558,
				"z": 2.4117859905,
				"element": "H" 
			},
			{
				"x": 1.3559025827,
				"y": -1.5735335763,
				"z": 1.9153516736,
				"element": "H" 
			},
			{
				"x": 1.0687376572,
				"y": 0.1077277708,
				"z": 1.4329600242,
				"element": "H" 
			},
			{
				"x": -1.6809909417,
				"y": -0.810686663,
				"z": -1.0634529247,
				"element": "H" 
			},
			{
				"x": -2.1261103351,
				"y": -0.784040831,
				"z": 0.6300923794,
				"element": "H" 
			},
			{
				"x": -0.8504640304,
				"y": 1.367572416,
				"z": 0.9554367329,
				"element": "H" 
			},
			{
				"x": -2.2524070928,
				"y": 1.4466715974,
				"z": -0.0680124368,
				"element": "H" 
			},
			{
				"x": 0.63583764,
				"y": 1.3815953591,
				"z": -1.084190402,
				"element": "H" 
			},
			{
				"x": -0.776267047,
				"y": 1.3840363096,
				"z": -2.1152774627,
				"element": "H" 
			},
			{
				"x": 0.8341591204,
				"y": 3.2255640256,
				"z": -2.4734728687,
				"element": "H" 
			},
			{
				"x": -1.3049544651,
				"y": -3.0594232477,
				"z": 0.9781313933,
				"element": "H" 
			},
			{
				"x": 1.4917508375,
				"y": -3.1359487153,
				"z": -1.9933829555,
				"element": "H" 
			}
		],
		 "valence_orbital": [ 
			{
				"type": "occ",
				"energy": -0.30055,
				"method": "rhf"
			},
			{
				"type": "occ",
				"energy": -0.29926,
				"method": "rhf"
			},
			{
				"type": "occ",
				"energy": -0.27792,
				"method": "rhf"
			},
			{
				"type": "occ",
				"energy": -0.27362,
				"method": "rhf"
			},
			{
				"type": "occ",
				"energy": -0.26698,
				"method": "rhf"
			},
			{
				"type": "unocc",
				"energy": -0.02278,
				"method": "rhf"
			},
			{
				"type": "unocc",
				"energy": 0.01411,
				"method": "rhf"
			},
			{
				"type": "unocc",
				"energy": 0.05004,
				"method": "rhf"
			},
			{
				"type": "unocc",
				"energy": 0.05785,
				"method": "rhf"
			},
			{
				"type": "unocc",
				"energy": 0.06181,
				"method": "rhf"
			}
		],
		"cosmo_sigma_profile": { 
			"-0.025": 0.0,
			"-0.024": 0.0,
			"-0.023": 0.0,
			"-0.022": 0.0,
			"-0.021": 0.0,
			"-0.02": 0.0,
			"-0.019": 0.341011256442,
			"-0.018": 1.00856787141,
			"-0.017": 1.25263967511,
			"-0.016": 2.12861003069,
			"-0.015": 2.98383679155,
			"-0.014": 2.94711613355,
			"-0.013": 2.38971596694,
			"-0.012": 3.0136564392,
			"-0.011": 3.8059070303,
			"-0.01": 3.50701831878,
			"-0.009": 2.92415731091,
			"-0.008": 3.25631908026,
			"-0.007": 4.34789602262,
			"-0.006": 7.74834808001,
			"-0.005": 16.4128070771,
			"-0.004": 18.9284063519,
			"-0.003": 21.0376866867,
			"-0.002": 19.1625545479,
			"-0.001": 15.1867114864,
			"0.0": 10.0831258539,
			"0.001": 7.27266822209,
			"0.002": 5.9505762683,
			"0.003": 5.94761701273,
			"0.004": 6.36979946821,
			"0.005": 4.07208270258,
			"0.006": 4.44570239385,
			"0.007": 4.03294314825,
			"0.008": 5.26990144064,
			"0.009": 5.91666710182,
			"0.01": 7.34716063586,
			"0.011": 10.6760480054,
			"0.012": 12.0294608529,
			"0.013": 9.5204039613,
			"0.014": 1.42058643529,
			"0.015": 0.0,
			"0.016": 0.0,
			"0.017": 0.0,
			"0.018": 0.0,
			"0.019": 0.0,
			"0.02": 0.0,
			"0.021": 0.0,
			"0.022": 0.0,
			"0.023": 0.0,
			"0.024": 0.0,
			"0.025": 0.0
		}
	}
}
