{
	 "smiles": "CCOC(=O)C(F)(F)F", 
	 "Tm": 195.15, 
	 "num_atms": 14, 
	 "gaussian": { 
		 "optdone": 1, 
		 "sigma_profile": "yes", 
		 "theory": "DFT", 
		 "functional": "B3LYP", 
		 "basiset": "6-31G**", 
		 "properties": { 
			 "R2extent": 3264.4768, 
			 "electric_dipole_moment_norm": 2.9487727142, 
			 "electric_quadrupole_moment_norm": 5.89504679371, 
			 "total_energy": -605.409360747, 
			 "HOMO_LUMO_gap": 0.27321, 
			 "cosmo_polarized_energy": -5.17, 
			 "cosmo_cavitation_energy": 20.08, 
			 "cosmo_dispersion_energy": -14.03, 
			 "cosmo_repulsion_energy": 1.14, 
			 "cosmo_total_nonelectrostatic_energy": 7.19, 
			 "SMD_solvation_energy": 6.21 
		},
		"coords": [
			{
				"x": 1.1067809889,
				"y": 0.6795496159,
				"z": 0.446750468,
				"element": "C" 
			},
			{
				"x": 1.1164428429,
				"y": -0.3159567138,
				"z": 1.5947660093,
				"element": "C" 
			},
			{
				"x": 0.0887807695,
				"y": 0.0072576952,
				"z": 2.5755546708,
				"element": "O" 
			},
			{
				"x": -1.1332577276,
				"y": -0.4678817199,
				"z": 2.3359777467,
				"element": "C" 
			},
			{
				"x": -1.487439121,
				"y": -1.1427146947,
				"z": 1.4016001048,
				"element": "O" 
			},
			{
				"x": -2.0862183052,
				"y": -0.0256081576,
				"z": 3.4689382663,
				"element": "C" 
			},
			{
				"x": -2.1437350954,
				"y": 1.3170207909,
				"z": 3.5336723024,
				"element": "F" 
			},
			{
				"x": -1.6524114169,
				"y": -0.4865633803,
				"z": 4.6556611985,
				"element": "F" 
			},
			{
				"x": -3.3156838985,
				"y": -0.4963673379,
				"z": 3.2505947051,
				"element": "F" 
			},
			{
				"x": 0.1742380476,
				"y": 0.6111329279,
				"z": -0.1187295964,
				"element": "H" 
			},
			{
				"x": 1.2255076877,
				"y": 1.7019273941,
				"z": 0.8161553471,
				"element": "H" 
			},
			{
				"x": 1.9360371391,
				"y": 0.4606907724,
				"z": -0.2336969576,
				"element": "H" 
			},
			{
				"x": 0.9496893203,
				"y": -1.3367423265,
				"z": 1.2436999175,
				"element": "H" 
			},
			{
				"x": 2.0463687686,
				"y": -0.2717448658,
				"z": 2.1644558175,
				"element": "H" 
			}
		],
		 "valence_orbital": [ 
			{
				"type": "occ",
				"energy": -0.40153,
				"method": "rhf"
			},
			{
				"type": "occ",
				"energy": -0.38472,
				"method": "rhf"
			},
			{
				"type": "occ",
				"energy": -0.36125,
				"method": "rhf"
			},
			{
				"type": "occ",
				"energy": -0.32476,
				"method": "rhf"
			},
			{
				"type": "occ",
				"energy": -0.30109,
				"method": "rhf"
			},
			{
				"type": "unocc",
				"energy": -0.02788,
				"method": "rhf"
			},
			{
				"type": "unocc",
				"energy": 0.09335,
				"method": "rhf"
			},
			{
				"type": "unocc",
				"energy": 0.09708,
				"method": "rhf"
			},
			{
				"type": "unocc",
				"energy": 0.12991,
				"method": "rhf"
			},
			{
				"type": "unocc",
				"energy": 0.13668,
				"method": "rhf"
			}
		],
		"cosmo_sigma_profile": { 
			"-0.025": 0.0,
			"-0.024": 0.0,
			"-0.023": 0.0,
			"-0.022": 0.0,
			"-0.021": 0.0,
			"-0.02": 0.0,
			"-0.019": 0.0,
			"-0.018": 0.0,
			"-0.017": 0.0,
			"-0.016": 0.0,
			"-0.015": 0.0,
			"-0.014": 0.0,
			"-0.013": 0.0,
			"-0.012": 0.0,
			"-0.011": 0.0,
			"-0.01": 0.0,
			"-0.009": 0.0,
			"-0.008": 0.0,
			"-0.007": 2.66970649387,
			"-0.006": 6.78072155911,
			"-0.005": 12.0599032408,
			"-0.004": 14.7363304915,
			"-0.003": 12.1523249217,
			"-0.002": 10.9093610178,
			"-0.001": 12.5540999396,
			"0.0": 11.6944522713,
			"0.001": 17.031446735,
			"0.002": 30.6102396565,
			"0.003": 7.62879492105,
			"0.004": 3.0225845946,
			"0.005": 3.42212168068,
			"0.006": 2.98663774324,
			"0.007": 1.77392858349,
			"0.008": 2.25329440683,
			"0.009": 2.80926736496,
			"0.01": 4.09527332494,
			"0.011": 0.35461840402,
			"0.012": 0.0,
			"0.013": 0.0,
			"0.014": 0.0,
			"0.015": 0.0,
			"0.016": 0.0,
			"0.017": 0.0,
			"0.018": 0.0,
			"0.019": 0.0,
			"0.02": 0.0,
			"0.021": 0.0,
			"0.022": 0.0,
			"0.023": 0.0,
			"0.024": 0.0,
			"0.025": 0.0
		}
	}
}
