{
	 "smiles": "COC1=CC=C(C=C1)C1=NC(CO)=CS1", 
	 "Tm": 348.15, 
	 "num_atms": 26, 
	 "gaussian": { 
		 "optdone": 1, 
		 "sigma_profile": "yes", 
		 "theory": "DFT", 
		 "functional": "B3LYP", 
		 "basiset": "6-31G**", 
		 "properties": { 
			 "R2extent": 5546.2082, 
			 "electric_dipole_moment_norm": 2.82523931907, 
			 "electric_quadrupole_moment_norm": 19.3314685037, 
			 "total_energy": -1029.16424636, 
			 "HOMO_LUMO_gap": 0.16034, 
			 "cosmo_polarized_energy": -10.73, 
			 "cosmo_cavitation_energy": 31.67, 
			 "cosmo_dispersion_energy": -23.98, 
			 "cosmo_repulsion_energy": 1.83, 
			 "cosmo_total_nonelectrostatic_energy": 9.51, 
			 "SMD_solvation_energy": 5.16 
		},
		"coords": [
			{
				"x": 3.9041336276,
				"y": -0.7632076847,
				"z": 3.5758915301,
				"element": "C" 
			},
			{
				"x": 4.058520125,
				"y": 0.1208147752,
				"z": 2.4746859493,
				"element": "O" 
			},
			{
				"x": 3.1099207503,
				"y": 0.1128195021,
				"z": 1.4995547084,
				"element": "C" 
			},
			{
				"x": 1.9739932427,
				"y": -0.7088311625,
				"z": 1.4958940022,
				"element": "C" 
			},
			{
				"x": 1.0678636517,
				"y": -0.6300357801,
				"z": 0.4415458118,
				"element": "C" 
			},
			{
				"x": 1.265522299,
				"y": 0.2581834655,
				"z": -0.6266601838,
				"element": "C" 
			},
			{
				"x": 2.4118446717,
				"y": 1.0752215685,
				"z": -0.6068618859,
				"element": "C" 
			},
			{
				"x": 3.320212779,
				"y": 1.0067583706,
				"z": 0.4369708136,
				"element": "C" 
			},
			{
				"x": 0.2852456581,
				"y": 0.3049053795,
				"z": -1.7146537575,
				"element": "C" 
			},
			{
				"x": -0.7667896247,
				"y": -0.4702341487,
				"z": -1.7956154626,
				"element": "N" 
			},
			{
				"x": -1.5200638169,
				"y": -0.2160477197,
				"z": -2.9188630076,
				"element": "C" 
			},
			{
				"x": -2.7655321207,
				"y": -1.0454789057,
				"z": -3.1054583995,
				"element": "C" 
			},
			{
				"x": -2.5192308312,
				"y": -2.4196810703,
				"z": -2.8643634922,
				"element": "O" 
			},
			{
				"x": -1.0445880659,
				"y": 0.7746843267,
				"z": -3.7286771334,
				"element": "C" 
			},
			{
				"x": 0.411719298,
				"y": 1.4431005777,
				"z": -3.0622829752,
				"element": "S" 
			},
			{
				"x": 3.8984756177,
				"y": -1.812104453,
				"z": 3.2538215005,
				"element": "H" 
			},
			{
				"x": 4.7655587511,
				"y": -0.590490602,
				"z": 4.2223960205,
				"element": "H" 
			},
			{
				"x": 2.9841685702,
				"y": -0.5536219197,
				"z": 4.1359980592,
				"element": "H" 
			},
			{
				"x": 1.7872067061,
				"y": -1.4065774431,
				"z": 2.3033900345,
				"element": "H" 
			},
			{
				"x": 0.1867505222,
				"y": -1.2619202376,
				"z": 0.435256043,
				"element": "H" 
			},
			{
				"x": 2.5997340891,
				"y": 1.7723313031,
				"z": -1.4188084374,
				"element": "H" 
			},
			{
				"x": 4.2050828311,
				"y": 1.6339741461,
				"z": 0.455183397,
				"element": "H" 
			},
			{
				"x": -3.1381154141,
				"y": -0.9501360659,
				"z": -4.1299388519,
				"element": "H" 
			},
			{
				"x": -3.5524732997,
				"y": -0.6621887703,
				"z": -2.4331787294,
				"element": "H" 
			},
			{
				"x": -1.9544051121,
				"y": -2.4491831186,
				"z": -2.0777454897,
				"element": "H" 
			},
			{
				"x": -1.4517549052,
				"y": 1.1386456669,
				"z": -4.661080064,
				"element": "H" 
			}
		],
		 "valence_orbital": [ 
			{
				"type": "occ",
				"energy": -0.27958,
				"method": "rhf"
			},
			{
				"type": "occ",
				"energy": -0.2642,
				"method": "rhf"
			},
			{
				"type": "occ",
				"energy": -0.26042,
				"method": "rhf"
			},
			{
				"type": "occ",
				"energy": -0.25616,
				"method": "rhf"
			},
			{
				"type": "occ",
				"energy": -0.20992,
				"method": "rhf"
			},
			{
				"type": "unocc",
				"energy": -0.04958,
				"method": "rhf"
			},
			{
				"type": "unocc",
				"energy": -0.01061,
				"method": "rhf"
			},
			{
				"type": "unocc",
				"energy": 0.0192,
				"method": "rhf"
			},
			{
				"type": "unocc",
				"energy": 0.02391,
				"method": "rhf"
			},
			{
				"type": "unocc",
				"energy": 0.06255,
				"method": "rhf"
			}
		],
		"cosmo_sigma_profile": { 
			"-0.025": 0.0,
			"-0.024": 0.0,
			"-0.023": 0.0,
			"-0.022": 0.0,
			"-0.021": 0.0,
			"-0.02": 0.0,
			"-0.019": 0.0,
			"-0.018": 0.0,
			"-0.017": 0.0,
			"-0.016": 0.0,
			"-0.015": 0.0,
			"-0.014": 0.0,
			"-0.013": 0.0,
			"-0.012": 0.248688259168,
			"-0.011": 0.553992566799,
			"-0.01": 0.622220692371,
			"-0.009": 1.92179033984,
			"-0.008": 2.41227606617,
			"-0.007": 5.83582097807,
			"-0.006": 16.5230480682,
			"-0.005": 21.4826164646,
			"-0.004": 20.731760287,
			"-0.003": 20.9617461846,
			"-0.002": 16.0294696037,
			"-0.001": 11.8933240375,
			"0.0": 14.7374690182,
			"0.001": 20.0202229137,
			"0.002": 21.5898588445,
			"0.003": 27.4992772744,
			"0.004": 21.6017827815,
			"0.005": 6.63342652894,
			"0.006": 4.05845922934,
			"0.007": 3.19766669083,
			"0.008": 2.61000408472,
			"0.009": 3.72771276758,
			"0.01": 2.8379095253,
			"0.011": 1.00209614095,
			"0.012": 1.39896667308,
			"0.013": 1.81200877192,
			"0.014": 2.62827483633,
			"0.015": 0.277453938659,
			"0.016": 0.0,
			"0.017": 0.0,
			"0.018": 0.0,
			"0.019": 0.0,
			"0.02": 0.0,
			"0.021": 0.0,
			"0.022": 0.0,
			"0.023": 0.0,
			"0.024": 0.0,
			"0.025": 0.0
		}
	}
}
