{
	 "smiles": "NCCCN1CCOCC1", 
	 "Tm": 258.15, 
	 "num_atms": 26, 
	 "gaussian": { 
		 "optdone": 1, 
		 "sigma_profile": "yes", 
		 "theory": "DFT", 
		 "functional": "B3LYP", 
		 "basiset": "6-31G**", 
		 "properties": { 
			 "R2extent": 2240.1865, 
			 "electric_dipole_moment_norm": 0.380172526624, 
			 "electric_quadrupole_moment_norm": 11.4772658168, 
			 "total_energy": -461.083429369, 
			 "HOMO_LUMO_gap": 0.26807, 
			 "cosmo_polarized_energy": -10.01, 
			 "cosmo_cavitation_energy": 26.25, 
			 "cosmo_dispersion_energy": -19.54, 
			 "cosmo_repulsion_energy": 1.61, 
			 "cosmo_total_nonelectrostatic_energy": 8.32, 
			 "SMD_solvation_energy": 0.3 
		},
		"coords": [
			{
				"x": 3.4518527837,
				"y": 2.8475463054,
				"z": -0.5501043811,
				"element": "N" 
			},
			{
				"x": 2.0781010061,
				"y": 3.1503681558,
				"z": -0.1383937129,
				"element": "C" 
			},
			{
				"x": 1.3856385179,
				"y": 2.1382721324,
				"z": 0.7945686779,
				"element": "C" 
			},
			{
				"x": 1.1784096439,
				"y": 0.7602666721,
				"z": 0.1536641414,
				"element": "C" 
			},
			{
				"x": 0.6151411321,
				"y": -0.2176437046,
				"z": 1.0902258766,
				"element": "N" 
			},
			{
				"x": -0.8216286145,
				"y": -0.0624505134,
				"z": 1.3589766758,
				"element": "C" 
			},
			{
				"x": -1.7043423324,
				"y": -0.6569650422,
				"z": 0.2546728846,
				"element": "C" 
			},
			{
				"x": -1.3836848922,
				"y": -2.0262294826,
				"z": 0.0278929265,
				"element": "O" 
			},
			{
				"x": -0.0144448921,
				"y": -2.1840136264,
				"z": -0.3309005686,
				"element": "C" 
			},
			{
				"x": 0.8978652292,
				"y": -1.6207244953,
				"z": 0.76445479,
				"element": "C" 
			},
			{
				"x": 4.0331228921,
				"y": 2.6844577206,
				"z": 0.2694279371,
				"element": "H" 
			},
			{
				"x": 3.4822388412,
				"y": 1.9924767557,
				"z": -1.0990050988,
				"element": "H" 
			},
			{
				"x": 1.4803888261,
				"y": 3.2775737379,
				"z": -1.0507035244,
				"element": "H" 
			},
			{
				"x": 2.0889308254,
				"y": 4.1301002275,
				"z": 0.354211402,
				"element": "H" 
			},
			{
				"x": 1.9749313761,
				"y": 2.0098696152,
				"z": 1.7118900314,
				"element": "H" 
			},
			{
				"x": 0.4199533928,
				"y": 2.5600276224,
				"z": 1.1030554173,
				"element": "H" 
			},
			{
				"x": 2.1560086736,
				"y": 0.3740303422,
				"z": -0.1590523863,
				"element": "H" 
			},
			{
				"x": 0.5871700472,
				"y": 0.8805276359,
				"z": -0.7736983165,
				"element": "H" 
			},
			{
				"x": -1.0584718689,
				"y": 0.9958870171,
				"z": 1.5077879347,
				"element": "H" 
			},
			{
				"x": -1.0473954989,
				"y": -0.5826748867,
				"z": 2.2993060661,
				"element": "H" 
			},
			{
				"x": -2.7604637107,
				"y": -0.6290716219,
				"z": 0.5420409317,
				"element": "H" 
			},
			{
				"x": -1.5934111394,
				"y": -0.0849677984,
				"z": -0.6824796852,
				"element": "H" 
			},
			{
				"x": 0.1842703485,
				"y": -1.6852679746,
				"z": -1.2953855677,
				"element": "H" 
			},
			{
				"x": 0.148985409,
				"y": -3.2583406541,
				"z": -0.4656525484,
				"element": "H" 
			},
			{
				"x": 0.7434695373,
				"y": -2.2151423316,
				"z": 1.6753481507,
				"element": "H" 
			},
			{
				"x": 1.951264467,
				"y": -1.7214118085,
				"z": 0.478551946,
				"element": "H" 
			}
		],
		 "valence_orbital": [ 
			{
				"type": "occ",
				"energy": -0.32744,
				"method": "rhf"
			},
			{
				"type": "occ",
				"energy": -0.30757,
				"method": "rhf"
			},
			{
				"type": "occ",
				"energy": -0.26776,
				"method": "rhf"
			},
			{
				"type": "occ",
				"energy": -0.23232,
				"method": "rhf"
			},
			{
				"type": "occ",
				"energy": -0.19792,
				"method": "rhf"
			},
			{
				"type": "unocc",
				"energy": 0.07015,
				"method": "rhf"
			},
			{
				"type": "unocc",
				"energy": 0.0881,
				"method": "rhf"
			},
			{
				"type": "unocc",
				"energy": 0.1017,
				"method": "rhf"
			},
			{
				"type": "unocc",
				"energy": 0.1113,
				"method": "rhf"
			},
			{
				"type": "unocc",
				"energy": 0.12534,
				"method": "rhf"
			}
		],
		"cosmo_sigma_profile": { 
			"-0.025": 0.0,
			"-0.024": 0.0,
			"-0.023": 0.0,
			"-0.022": 0.0,
			"-0.021": 0.0,
			"-0.02": 0.0,
			"-0.019": 0.0,
			"-0.018": 0.0,
			"-0.017": 0.0,
			"-0.016": 0.0,
			"-0.015": 0.0,
			"-0.014": 0.0,
			"-0.013": 0.0,
			"-0.012": 0.0,
			"-0.011": 0.0,
			"-0.01": 0.0323716142142,
			"-0.009": 1.65749004323,
			"-0.008": 3.26378998756,
			"-0.007": 2.45162609675,
			"-0.006": 3.9537767704,
			"-0.005": 7.01150486349,
			"-0.004": 17.6944853253,
			"-0.003": 34.8413782259,
			"-0.002": 36.6286270403,
			"-0.001": 24.138587955,
			"0.0": 14.2193491542,
			"0.001": 9.00765262011,
			"0.002": 5.05916256411,
			"0.003": 5.52068363391,
			"0.004": 3.50979232216,
			"0.005": 3.35223471741,
			"0.006": 2.70016680078,
			"0.007": 2.71936187155,
			"0.008": 3.61797556333,
			"0.009": 2.62489826336,
			"0.01": 2.17690055558,
			"0.011": 2.78941101443,
			"0.012": 2.88888443076,
			"0.013": 2.98456746058,
			"0.014": 2.58440493799,
			"0.015": 0.924879490179,
			"0.016": 0.744051335543,
			"0.017": 0.503753473541,
			"0.018": 0.779835257066,
			"0.019": 0.704788397968,
			"0.02": 0.471356643324,
			"0.021": 0.0514765049297,
			"0.022": 0.0,
			"0.023": 0.0,
			"0.024": 0.0,
			"0.025": 0.0
		}
	}
}
