{
	 "smiles": "CC1=C(NC(=O)C2=CC=NC=C2)C=C(N)C=C1", 
	 "Tm": 475.15, 
	 "num_atms": 30, 
	 "gaussian": { 
		 "optdone": 1, 
		 "sigma_profile": "yes", 
		 "theory": "DFT", 
		 "functional": "B3LYP", 
		 "basiset": "6-31G**", 
		 "properties": { 
			 "R2extent": 6485.1282, 
			 "electric_dipole_moment_norm": 2.97728690253, 
			 "electric_quadrupole_moment_norm": 12.5650660126, 
			 "total_energy": -742.718457213, 
			 "HOMO_LUMO_gap": 0.13723, 
			 "cosmo_polarized_energy": -17.53, 
			 "cosmo_cavitation_energy": 34.09, 
			 "cosmo_dispersion_energy": -24.7, 
			 "cosmo_repulsion_energy": 1.88, 
			 "cosmo_total_nonelectrostatic_energy": 11.28, 
			 "SMD_solvation_energy": 4.67 
		},
		"coords": [
			{
				"x": 1.3380744191,
				"y": 0.5854528555,
				"z": 1.4892067324,
				"element": "C" 
			},
			{
				"x": 1.0287907967,
				"y": -0.2549079071,
				"z": 0.2721826231,
				"element": "C" 
			},
			{
				"x": -0.2987647967,
				"y": -0.5153916041,
				"z": -0.1420861481,
				"element": "C" 
			},
			{
				"x": -1.3386450007,
				"y": 0.0539171872,
				"z": 0.6303508988,
				"element": "N" 
			},
			{
				"x": -2.6992550689,
				"y": -0.0502325472,
				"z": 0.4723181361,
				"element": "C" 
			},
			{
				"x": -3.2562989281,
				"y": -0.7106030657,
				"z": -0.3982423709,
				"element": "O" 
			},
			{
				"x": -3.5114644519,
				"y": 0.7172065372,
				"z": 1.4878467932,
				"element": "C" 
			},
			{
				"x": -3.0620871839,
				"y": 1.8542951696,
				"z": 2.169560997,
				"element": "C" 
			},
			{
				"x": -3.9231286146,
				"y": 2.4814229155,
				"z": 3.071981673,
				"element": "C" 
			},
			{
				"x": -5.1649082049,
				"y": 2.0585127034,
				"z": 3.3330659253,
				"element": "N" 
			},
			{
				"x": -5.5910645728,
				"y": 0.9767694743,
				"z": 2.6657257681,
				"element": "C" 
			},
			{
				"x": -4.8172574024,
				"y": 0.2834214181,
				"z": 1.7374336426,
				"element": "C" 
			},
			{
				"x": -0.5632094012,
				"y": -1.2924756186,
				"z": -1.2736023429,
				"element": "C" 
			},
			{
				"x": 0.4925996138,
				"y": -1.8333887241,
				"z": -2.0236815052,
				"element": "C" 
			},
			{
				"x": 0.2193632514,
				"y": -2.6568866391,
				"z": -3.1165937145,
				"element": "N" 
			},
			{
				"x": 1.8137919649,
				"y": -1.5813291013,
				"z": -1.6248791962,
				"element": "C" 
			},
			{
				"x": 2.0571357372,
				"y": -0.8051988871,
				"z": -0.4957012244,
				"element": "C" 
			},
			{
				"x": 2.4184957169,
				"y": 0.6687700997,
				"z": 1.6301411056,
				"element": "H" 
			},
			{
				"x": 0.9496562012,
				"y": 1.6103917107,
				"z": 1.4045508009,
				"element": "H" 
			},
			{
				"x": 0.931606222,
				"y": 0.1551940846,
				"z": 2.4155743604,
				"element": "H" 
			},
			{
				"x": -1.0337853916,
				"y": 0.5439203051,
				"z": 1.4568385514,
				"element": "H" 
			},
			{
				"x": -2.0802366615,
				"y": 2.2819316934,
				"z": 1.9879386128,
				"element": "H" 
			},
			{
				"x": -3.5962570747,
				"y": 3.3718583201,
				"z": 3.6061898771,
				"element": "H" 
			},
			{
				"x": -6.6056166457,
				"y": 0.6491915611,
				"z": 2.8846499583,
				"element": "H" 
			},
			{
				"x": -5.2037662558,
				"y": -0.5785219412,
				"z": 1.2054570683,
				"element": "H" 
			},
			{
				"x": -1.5903273995,
				"y": -1.4777028783,
				"z": -1.5563413685,
				"element": "H" 
			},
			{
				"x": 0.9497971471,
				"y": -2.7052590398,
				"z": -3.8131237634,
				"element": "H" 
			},
			{
				"x": -0.6936784898,
				"y": -2.5304117782,
				"z": -3.5309897682,
				"element": "H" 
			},
			{
				"x": 2.6425177702,
				"y": -1.99651919,
				"z": -2.1921160845,
				"element": "H" 
			},
			{
				"x": 3.0857227042,
				"y": -0.6165271139,
				"z": -0.1981560373,
				"element": "H" 
			}
		],
		 "valence_orbital": [ 
			{
				"type": "occ",
				"energy": -0.27249,
				"method": "rhf"
			},
			{
				"type": "occ",
				"energy": -0.26615,
				"method": "rhf"
			},
			{
				"type": "occ",
				"energy": -0.25713,
				"method": "rhf"
			},
			{
				"type": "occ",
				"energy": -0.22503,
				"method": "rhf"
			},
			{
				"type": "occ",
				"energy": -0.1963,
				"method": "rhf"
			},
			{
				"type": "unocc",
				"energy": -0.05907,
				"method": "rhf"
			},
			{
				"type": "unocc",
				"energy": -0.02125,
				"method": "rhf"
			},
			{
				"type": "unocc",
				"energy": 0.00432,
				"method": "rhf"
			},
			{
				"type": "unocc",
				"energy": 0.01679,
				"method": "rhf"
			},
			{
				"type": "unocc",
				"energy": 0.0579,
				"method": "rhf"
			}
		],
		"cosmo_sigma_profile": { 
			"-0.025": 0.0,
			"-0.024": 0.0,
			"-0.023": 0.0,
			"-0.022": 0.0,
			"-0.021": 0.0,
			"-0.02": 0.0,
			"-0.019": 0.0,
			"-0.018": 0.0,
			"-0.017": 0.0,
			"-0.016": 0.0,
			"-0.015": 0.0,
			"-0.014": 0.0,
			"-0.013": 0.464069866933,
			"-0.012": 3.70581666689,
			"-0.011": 4.06802208371,
			"-0.01": 4.41511349061,
			"-0.009": 6.58949043088,
			"-0.008": 4.94080006827,
			"-0.007": 8.26058972906,
			"-0.006": 13.4404399505,
			"-0.005": 16.8375162722,
			"-0.004": 16.3640662983,
			"-0.003": 16.8633047155,
			"-0.002": 17.5396606472,
			"-0.001": 17.446915487,
			"0.0": 17.9850996148,
			"0.001": 23.145493563,
			"0.002": 16.1963617657,
			"0.003": 12.8668741264,
			"0.004": 11.7654154088,
			"0.005": 12.0169829835,
			"0.006": 12.9776708648,
			"0.007": 9.25089304712,
			"0.008": 3.26768740178,
			"0.009": 3.25849388785,
			"0.01": 3.45591233835,
			"0.011": 4.38358706243,
			"0.012": 4.41158879056,
			"0.013": 2.45566077438,
			"0.014": 2.15403754378,
			"0.015": 0.947027812777,
			"0.016": 0.693584327634,
			"0.017": 0.0811226953966,
			"0.018": 0.0,
			"0.019": 0.0,
			"0.02": 0.0,
			"0.021": 0.0,
			"0.022": 0.0,
			"0.023": 0.0,
			"0.024": 0.0,
			"0.025": 0.0
		}
	}
}
