{
	 "smiles": "FC(F)(F)C1(NC(=O)NC1=O)C1=CC=CC=C1", 
	 "Tm": 514.15, 
	 "num_atms": 24, 
	 "gaussian": { 
		 "optdone": 1, 
		 "sigma_profile": "yes", 
		 "theory": "DFT", 
		 "functional": "B3LYP", 
		 "basiset": "6-31G**", 
		 "properties": { 
			 "R2extent": 3782.6628, 
			 "electric_dipole_moment_norm": 2.19185270034, 
			 "electric_quadrupole_moment_norm": 9.14248891878, 
			 "total_energy": -944.794198833, 
			 "HOMO_LUMO_gap": 0.22478, 
			 "cosmo_polarized_energy": -14.66, 
			 "cosmo_cavitation_energy": 29.63, 
			 "cosmo_dispersion_energy": -20.78, 
			 "cosmo_repulsion_energy": 1.56, 
			 "cosmo_total_nonelectrostatic_energy": 10.41, 
			 "SMD_solvation_energy": 7.64 
		},
		"coords": [
			{
				"x": -0.5899436138,
				"y": -0.8539085791,
				"z": 3.4608338336,
				"element": "F" 
			},
			{
				"x": -0.0285555635,
				"y": -0.0955020881,
				"z": 2.49584447,
				"element": "C" 
			},
			{
				"x": -0.2934066002,
				"y": 1.196435292,
				"z": 2.7899045656,
				"element": "F" 
			},
			{
				"x": 1.2965713198,
				"y": -0.2741912748,
				"z": 2.5524745672,
				"element": "F" 
			},
			{
				"x": -0.6305064929,
				"y": -0.4453281774,
				"z": 1.1127920461,
				"element": "C" 
			},
			{
				"x": -2.06589103,
				"y": -0.2289416618,
				"z": 1.1799020545,
				"element": "N" 
			},
			{
				"x": -2.7987922901,
				"y": -1.3974818567,
				"z": 1.1794254161,
				"element": "C" 
			},
			{
				"x": -3.9895037397,
				"y": -1.534800197,
				"z": 1.3403262303,
				"element": "O" 
			},
			{
				"x": -1.8662027897,
				"y": -2.4233216409,
				"z": 0.9277736058,
				"element": "N" 
			},
			{
				"x": -0.5614058859,
				"y": -1.9936740936,
				"z": 0.9122351233,
				"element": "C" 
			},
			{
				"x": 0.4358585502,
				"y": -2.6639056705,
				"z": 0.7751137387,
				"element": "O" 
			},
			{
				"x": 0.0674929411,
				"y": 0.3121938092,
				"z": -0.0195207163,
				"element": "C" 
			},
			{
				"x": 1.40604149,
				"y": 0.0368302716,
				"z": -0.3356727865,
				"element": "C" 
			},
			{
				"x": 2.0383337086,
				"y": 0.7345483332,
				"z": -1.3639758706,
				"element": "C" 
			},
			{
				"x": 1.3489725426,
				"y": 1.711933197,
				"z": -2.083836321,
				"element": "C" 
			},
			{
				"x": 0.0159984453,
				"y": 1.9830027235,
				"z": -1.7758223401,
				"element": "C" 
			},
			{
				"x": -0.6232677878,
				"y": 1.2847931666,
				"z": -0.7505421351,
				"element": "C" 
			},
			{
				"x": -2.4687666955,
				"y": 0.6024382919,
				"z": 1.5864534419,
				"element": "H" 
			},
			{
				"x": -2.1395060431,
				"y": -3.3926412693,
				"z": 0.8482997417,
				"element": "H" 
			},
			{
				"x": 1.9407230141,
				"y": -0.7323407457,
				"z": 0.2068974729,
				"element": "H" 
			},
			{
				"x": 3.0732823957,
				"y": 0.5091316081,
				"z": -1.6034638247,
				"element": "H" 
			},
			{
				"x": 1.8458932877,
				"y": 2.2540299919,
				"z": -2.883049982,
				"element": "H" 
			},
			{
				"x": -0.5325808636,
				"y": 2.7355005321,
				"z": -2.334558053,
				"element": "H" 
			},
			{
				"x": -1.6659382994,
				"y": 1.4873000379,
				"z": -0.5328342782,
				"element": "H" 
			}
		],
		 "valence_orbital": [ 
			{
				"type": "occ",
				"energy": -0.30489,
				"method": "rhf"
			},
			{
				"type": "occ",
				"energy": -0.29174,
				"method": "rhf"
			},
			{
				"type": "occ",
				"energy": -0.2824,
				"method": "rhf"
			},
			{
				"type": "occ",
				"energy": -0.26223,
				"method": "rhf"
			},
			{
				"type": "occ",
				"energy": -0.26055,
				"method": "rhf"
			},
			{
				"type": "unocc",
				"energy": -0.03577,
				"method": "rhf"
			},
			{
				"type": "unocc",
				"energy": -0.01383,
				"method": "rhf"
			},
			{
				"type": "unocc",
				"energy": -0.01284,
				"method": "rhf"
			},
			{
				"type": "unocc",
				"energy": 0.04,
				"method": "rhf"
			},
			{
				"type": "unocc",
				"energy": 0.0668,
				"method": "rhf"
			}
		],
		"cosmo_sigma_profile": { 
			"-0.025": 0.0,
			"-0.024": 0.0,
			"-0.023": 0.0,
			"-0.022": 0.0,
			"-0.021": 0.0,
			"-0.02": 0.0,
			"-0.019": 0.0,
			"-0.018": 0.541936057661,
			"-0.017": 1.21035305522,
			"-0.016": 2.00667869706,
			"-0.015": 2.04364169378,
			"-0.014": 1.32833790793,
			"-0.013": 1.52396491617,
			"-0.012": 2.14911810916,
			"-0.011": 2.36950035424,
			"-0.01": 1.98994891272,
			"-0.009": 2.63105834092,
			"-0.008": 2.38995023032,
			"-0.007": 2.70205442381,
			"-0.006": 9.51182203368,
			"-0.005": 13.0417760656,
			"-0.004": 13.212850078,
			"-0.003": 14.942690832,
			"-0.002": 13.2488767088,
			"-0.001": 12.1197415062,
			"0.0": 16.4432630964,
			"0.001": 24.6110923581,
			"0.002": 32.0337120328,
			"0.003": 13.1575327039,
			"0.004": 13.3465179652,
			"0.005": 8.96456213234,
			"0.006": 2.10136297988,
			"0.007": 2.10033639609,
			"0.008": 3.05350596107,
			"0.009": 4.05064756315,
			"0.01": 4.94546231278,
			"0.011": 7.11063810603,
			"0.012": 5.89592531789,
			"0.013": 0.741253675151,
			"0.014": 0.0,
			"0.015": 0.0,
			"0.016": 0.0,
			"0.017": 0.0,
			"0.018": 0.0,
			"0.019": 0.0,
			"0.02": 0.0,
			"0.021": 0.0,
			"0.022": 0.0,
			"0.023": 0.0,
			"0.024": 0.0,
			"0.025": 0.0
		}
	}
}
