{
	 "smiles": "CC1=C(C=CC=C1N1CCOC1=O)[N+]([O-])=O", 
	 "Tm": 341.15, 
	 "num_atms": 26, 
	 "gaussian": { 
		 "optdone": 1, 
		 "sigma_profile": "yes", 
		 "theory": "DFT", 
		 "functional": "B3LYP", 
		 "basiset": "6-31G**", 
		 "properties": { 
			 "R2extent": 4297.8962, 
			 "electric_dipole_moment_norm": 7.49451020081, 
			 "electric_quadrupole_moment_norm": 14.7535124831, 
			 "total_energy": -797.397540849, 
			 "HOMO_LUMO_gap": 0.16653, 
			 "cosmo_polarized_energy": -18.57, 
			 "cosmo_cavitation_energy": 29.86, 
			 "cosmo_dispersion_energy": -21.73, 
			 "cosmo_repulsion_energy": 1.67, 
			 "cosmo_total_nonelectrostatic_energy": 9.8, 
			 "SMD_solvation_energy": 8.44 
		},
		"coords": [
			{
				"x": -0.0814399498,
				"y": -0.4855678873,
				"z": 2.0028895571,
				"element": "C" 
			},
			{
				"x": 0.4767270311,
				"y": -1.3815988327,
				"z": 0.9277665536,
				"element": "C" 
			},
			{
				"x": 0.8066676887,
				"y": -2.7356611669,
				"z": 1.1243315598,
				"element": "C" 
			},
			{
				"x": 1.2106853781,
				"y": -3.5896441001,
				"z": 0.0976680006,
				"element": "C" 
			},
			{
				"x": 1.3383623251,
				"y": -3.0864994647,
				"z": -1.1898045498,
				"element": "C" 
			},
			{
				"x": 1.0647262936,
				"y": -1.7425750296,
				"z": -1.4282183408,
				"element": "C" 
			},
			{
				"x": 0.6439884951,
				"y": -0.9003386224,
				"z": -0.3932186021,
				"element": "C" 
			},
			{
				"x": 0.3492249324,
				"y": 0.4581508985,
				"z": -0.6937046564,
				"element": "N" 
			},
			{
				"x": -0.3326641357,
				"y": 0.8913867208,
				"z": -1.9097483599,
				"element": "C" 
			},
			{
				"x": -0.4242399417,
				"y": 2.3996869017,
				"z": -1.641174159,
				"element": "C" 
			},
			{
				"x": 0.67838015,
				"y": 2.6732320131,
				"z": -0.7615797712,
				"element": "O" 
			},
			{
				"x": 1.0689168886,
				"y": 1.5177251591,
				"z": -0.1424411876,
				"element": "C" 
			},
			{
				"x": 1.899920696,
				"y": 1.4730877434,
				"z": 0.7283988851,
				"element": "O" 
			},
			{
				"x": 0.7340502903,
				"y": -3.3510672396,
				"z": 2.4647489721,
				"element": "N" 
			},
			{
				"x": 0.9140646051,
				"y": -2.6320653744,
				"z": 3.4463526074,
				"element": "O" 
			},
			{
				"x": 0.5221690236,
				"y": -4.5630509534,
				"z": 2.5179236695,
				"element": "O" 
			},
			{
				"x": 0.7231738248,
				"y": 0.0359602581,
				"z": 2.5272439719,
				"element": "H" 
			},
			{
				"x": -0.7260821617,
				"y": 0.2698398479,
				"z": 1.5480165292,
				"element": "H" 
			},
			{
				"x": -0.6516947196,
				"y": -1.0468190687,
				"z": 2.7415434078,
				"element": "H" 
			},
			{
				"x": 1.4182380237,
				"y": -4.6259498667,
				"z": 0.331135603,
				"element": "H" 
			},
			{
				"x": 1.665099073,
				"y": -3.730684029,
				"z": -1.9992922355,
				"element": "H" 
			},
			{
				"x": 1.1885808741,
				"y": -1.3380312389,
				"z": -2.4273667697,
				"element": "H" 
			},
			{
				"x": 0.2562938709,
				"y": 0.6805349565,
				"z": -2.8131462855,
				"element": "H" 
			},
			{
				"x": -1.3121805739,
				"y": 0.4169939569,
				"z": -2.0125650991,
				"element": "H" 
			},
			{
				"x": -1.3581140765,
				"y": 2.6647632141,
				"z": -1.1325663175,
				"element": "H" 
			},
			{
				"x": -0.312653905,
				"y": 3.0107912043,
				"z": -2.5381929829,
				"element": "H" 
			}
		],
		 "valence_orbital": [ 
			{
				"type": "occ",
				"energy": -0.30078,
				"method": "rhf"
			},
			{
				"type": "occ",
				"energy": -0.28971,
				"method": "rhf"
			},
			{
				"type": "occ",
				"energy": -0.28741,
				"method": "rhf"
			},
			{
				"type": "occ",
				"energy": -0.27175,
				"method": "rhf"
			},
			{
				"type": "occ",
				"energy": -0.25107,
				"method": "rhf"
			},
			{
				"type": "unocc",
				"energy": -0.08454,
				"method": "rhf"
			},
			{
				"type": "unocc",
				"energy": -0.02896,
				"method": "rhf"
			},
			{
				"type": "unocc",
				"energy": -0.01088,
				"method": "rhf"
			},
			{
				"type": "unocc",
				"energy": 0.03531,
				"method": "rhf"
			},
			{
				"type": "unocc",
				"energy": 0.0641,
				"method": "rhf"
			}
		],
		"cosmo_sigma_profile": { 
			"-0.025": 0.0,
			"-0.024": 0.0,
			"-0.023": 0.0,
			"-0.022": 0.0,
			"-0.021": 0.0,
			"-0.02": 0.0,
			"-0.019": 0.0,
			"-0.018": 0.0,
			"-0.017": 0.0,
			"-0.016": 0.0,
			"-0.015": 0.0,
			"-0.014": 0.0,
			"-0.013": 0.0,
			"-0.012": 0.0,
			"-0.011": 0.0,
			"-0.01": 0.0199115294875,
			"-0.009": 1.36808811894,
			"-0.008": 5.34342893965,
			"-0.007": 20.5661780026,
			"-0.006": 21.6868917636,
			"-0.005": 18.6727954457,
			"-0.004": 17.1971857257,
			"-0.003": 12.3931985771,
			"-0.002": 13.091537163,
			"-0.001": 14.6444596178,
			"0.0": 15.4178299004,
			"0.001": 14.0657855211,
			"0.002": 13.3756086967,
			"0.003": 7.31601176545,
			"0.004": 5.06006299356,
			"0.005": 5.44001093543,
			"0.006": 6.92736366855,
			"0.007": 9.92559438497,
			"0.008": 10.7362358044,
			"0.009": 7.83266960766,
			"0.01": 6.97145419414,
			"0.011": 3.10077284163,
			"0.012": 4.6186456018,
			"0.013": 2.23381833437,
			"0.014": 0.107160709218,
			"0.015": 0.0,
			"0.016": 0.0,
			"0.017": 0.0,
			"0.018": 0.0,
			"0.019": 0.0,
			"0.02": 0.0,
			"0.021": 0.0,
			"0.022": 0.0,
			"0.023": 0.0,
			"0.024": 0.0,
			"0.025": 0.0
		}
	}
}
