{
	 "smiles": "CSC1=CC(=NN1)C1=CC=C(OC2=CC=CC=C2)C=C1", 
	 "Tm": 370.95, 
	 "num_atms": 34, 
	 "gaussian": { 
		 "optdone": 1, 
		 "sigma_profile": "yes", 
		 "theory": "DFT", 
		 "functional": "B3LYP", 
		 "basiset": "6-31G**", 
		 "properties": { 
			 "R2extent": 11496.0811, 
			 "electric_dipole_moment_norm": 1.99106078762, 
			 "electric_quadrupole_moment_norm": 17.3142183898, 
			 "total_energy": -1201.031154, 
			 "HOMO_LUMO_gap": 0.18378, 
			 "cosmo_polarized_energy": -12.9, 
			 "cosmo_cavitation_energy": 40.75, 
			 "cosmo_dispersion_energy": -29.8, 
			 "cosmo_repulsion_energy": 2.24, 
			 "cosmo_total_nonelectrostatic_energy": 13.2, 
			 "SMD_solvation_energy": 6.14 
		},
		"coords": [
			{
				"x": 5.8264468826,
				"y": 1.7640135688,
				"z": 4.200519897,
				"element": "C" 
			},
			{
				"x": 5.9205403177,
				"y": 1.936093283,
				"z": 2.3721041005,
				"element": "S" 
			},
			{
				"x": 4.2735164961,
				"y": 1.5188053639,
				"z": 1.8997970203,
				"element": "C" 
			},
			{
				"x": 3.6604539836,
				"y": 0.3067400271,
				"z": 1.6290131197,
				"element": "C" 
			},
			{
				"x": 2.3278289783,
				"y": 0.631186995,
				"z": 1.2640750767,
				"element": "C" 
			},
			{
				"x": 2.1371781314,
				"y": 1.9609366205,
				"z": 1.3000650209,
				"element": "N" 
			},
			{
				"x": 3.3152972735,
				"y": 2.4691935124,
				"z": 1.6873558497,
				"element": "N" 
			},
			{
				"x": 1.2301177209,
				"y": -0.2717615825,
				"z": 0.8814609705,
				"element": "C" 
			},
			{
				"x": 1.4283846794,
				"y": -1.6565496559,
				"z": 0.7703208707,
				"element": "C" 
			},
			{
				"x": 0.3879687612,
				"y": -2.5052789125,
				"z": 0.4024459501,
				"element": "C" 
			},
			{
				"x": -0.8783139445,
				"y": -1.978048871,
				"z": 0.1436577616,
				"element": "C" 
			},
			{
				"x": -1.882666575,
				"y": -2.8824044156,
				"z": -0.1374416925,
				"element": "O" 
			},
			{
				"x": -2.8741935008,
				"y": -2.5824639771,
				"z": -1.051643132,
				"element": "C" 
			},
			{
				"x": -4.150206005,
				"y": -3.0774746104,
				"z": -0.7726701451,
				"element": "C" 
			},
			{
				"x": -5.1805619534,
				"y": -2.8799079166,
				"z": -1.6913283903,
				"element": "C" 
			},
			{
				"x": -4.9448268716,
				"y": -2.1862132573,
				"z": -2.880452979,
				"element": "C" 
			},
			{
				"x": -3.6645147955,
				"y": -1.6973346028,
				"z": -3.1488698196,
				"element": "C" 
			},
			{
				"x": -2.6217372347,
				"y": -1.8947312745,
				"z": -2.2428333272,
				"element": "C" 
			},
			{
				"x": -1.1025023212,
				"y": -0.601408156,
				"z": 0.2573185399,
				"element": "C" 
			},
			{
				"x": -0.0532892375,
				"y": 0.2370247103,
				"z": 0.618881012,
				"element": "C" 
			},
			{
				"x": 5.1018975011,
				"y": 2.4611047008,
				"z": 4.6248222147,
				"element": "H" 
			},
			{
				"x": 6.8228408238,
				"y": 2.0035200893,
				"z": 4.5794506724,
				"element": "H" 
			},
			{
				"x": 5.5708923165,
				"y": 0.7400688179,
				"z": 4.477360829,
				"element": "H" 
			},
			{
				"x": 4.1255363564,
				"y": -0.6648016325,
				"z": 1.6913260233,
				"element": "H" 
			},
			{
				"x": 3.4331807194,
				"y": 3.4687023377,
				"z": 1.762999337,
				"element": "H" 
			},
			{
				"x": 2.4081424772,
				"y": -2.0825983766,
				"z": 0.9634578916,
				"element": "H" 
			},
			{
				"x": 0.5392078924,
				"y": -3.5759282332,
				"z": 0.3135466523,
				"element": "H" 
			},
			{
				"x": -4.3122228252,
				"y": -3.6122086192,
				"z": 0.157422329,
				"element": "H" 
			},
			{
				"x": -6.1719549906,
				"y": -3.2662179711,
				"z": -1.4725559644,
				"element": "H" 
			},
			{
				"x": -5.7499023157,
				"y": -2.0298936708,
				"z": -3.5918477245,
				"element": "H" 
			},
			{
				"x": -3.4688744554,
				"y": -1.163428251,
				"z": -4.074521067,
				"element": "H" 
			},
			{
				"x": -1.6246376794,
				"y": -1.5244848833,
				"z": -2.4548206861,
				"element": "H" 
			},
			{
				"x": -2.0901416155,
				"y": -0.1949468345,
				"z": 0.0682209938,
				"element": "H" 
			},
			{
				"x": -0.2208849901,
				"y": 1.3046956779,
				"z": 0.7105627947,
				"element": "H" 
			}
		],
		 "valence_orbital": [ 
			{
				"type": "occ",
				"energy": -0.25283,
				"method": "rhf"
			},
			{
				"type": "occ",
				"energy": -0.24885,
				"method": "rhf"
			},
			{
				"type": "occ",
				"energy": -0.24301,
				"method": "rhf"
			},
			{
				"type": "occ",
				"energy": -0.23476,
				"method": "rhf"
			},
			{
				"type": "occ",
				"energy": -0.20452,
				"method": "rhf"
			},
			{
				"type": "unocc",
				"energy": -0.02074,
				"method": "rhf"
			},
			{
				"type": "unocc",
				"energy": -0.00983,
				"method": "rhf"
			},
			{
				"type": "unocc",
				"energy": -0.00247,
				"method": "rhf"
			},
			{
				"type": "unocc",
				"energy": 0.00632,
				"method": "rhf"
			},
			{
				"type": "unocc",
				"energy": 0.00965,
				"method": "rhf"
			}
		],
		"cosmo_sigma_profile": { 
			"-0.025": 0.0,
			"-0.024": 0.0,
			"-0.023": 0.0,
			"-0.022": 0.0,
			"-0.021": 0.0,
			"-0.02": 0.0,
			"-0.019": 0.0,
			"-0.018": 0.0,
			"-0.017": 0.255941473212,
			"-0.016": 1.53005544782,
			"-0.015": 0.468655489227,
			"-0.014": 0.939242388913,
			"-0.013": 1.1528406997,
			"-0.012": 0.936306925536,
			"-0.011": 0.879498530874,
			"-0.01": 0.650507323098,
			"-0.009": 0.641515647431,
			"-0.008": 2.68083005892,
			"-0.007": 5.74138860432,
			"-0.006": 18.6059400236,
			"-0.005": 23.1154273841,
			"-0.004": 25.7179380384,
			"-0.003": 23.452526762,
			"-0.002": 23.9862849516,
			"-0.001": 20.412230293,
			"0.0": 18.4775353556,
			"0.001": 21.3352140088,
			"0.002": 22.1007808009,
			"0.003": 31.5162752057,
			"0.004": 33.7290709038,
			"0.005": 23.9039801997,
			"0.006": 8.3766653752,
			"0.007": 5.99904477773,
			"0.008": 3.82661524886,
			"0.009": 3.29918420539,
			"0.01": 1.88730803762,
			"0.011": 0.99886276998,
			"0.012": 0.836504099667,
			"0.013": 1.1131225619,
			"0.014": 0.184802727532,
			"0.015": 0.0,
			"0.016": 0.0,
			"0.017": 0.0,
			"0.018": 0.0,
			"0.019": 0.0,
			"0.02": 0.0,
			"0.021": 0.0,
			"0.022": 0.0,
			"0.023": 0.0,
			"0.024": 0.0,
			"0.025": 0.0
		}
	}
}
