{
	 "smiles": "ClC1=NC2=C(C=CC=C2)C(=N1)C1=CC=CC=C1", 
	 "Tm": 385.15, 
	 "num_atms": 26, 
	 "gaussian": { 
		 "optdone": 1, 
		 "sigma_profile": "yes", 
		 "theory": "DFT", 
		 "functional": "B3LYP", 
		 "basiset": "6-31G**", 
		 "properties": { 
			 "R2extent": 5341.2118, 
			 "electric_dipole_moment_norm": 5.04996937218, 
			 "electric_quadrupole_moment_norm": 18.2846680968, 
			 "total_energy": -1108.62074831, 
			 "HOMO_LUMO_gap": 0.1611, 
			 "cosmo_polarized_energy": -10.11, 
			 "cosmo_cavitation_energy": 32.16, 
			 "cosmo_dispersion_energy": -23.85, 
			 "cosmo_repulsion_energy": 1.84, 
			 "cosmo_total_nonelectrostatic_energy": 10.15, 
			 "SMD_solvation_energy": 2.23 
		},
		"coords": [
			{
				"x": -3.8035149825,
				"y": -2.8716704448,
				"z": -1.0258151722,
				"element": "Cl" 
			},
			{
				"x": -2.3726378019,
				"y": -1.9189641316,
				"z": -1.3975143757,
				"element": "C" 
			},
			{
				"x": -2.110949543,
				"y": -1.730172455,
				"z": -2.6609386309,
				"element": "N" 
			},
			{
				"x": -1.031740922,
				"y": -0.9343145276,
				"z": -2.9224463492,
				"element": "C" 
			},
			{
				"x": -0.2341594667,
				"y": -0.3790208898,
				"z": -1.8734805183,
				"element": "C" 
			},
			{
				"x": 0.8098167888,
				"y": 0.5219290136,
				"z": -2.2135388237,
				"element": "C" 
			},
			{
				"x": 1.0804916061,
				"y": 0.8076745541,
				"z": -3.5342738589,
				"element": "C" 
			},
			{
				"x": 0.321387423,
				"y": 0.2113688077,
				"z": -4.569940023,
				"element": "C" 
			},
			{
				"x": -0.7201855208,
				"y": -0.6388863566,
				"z": -4.2735396836,
				"element": "C" 
			},
			{
				"x": -0.6016337913,
				"y": -0.7643411615,
				"z": -0.539599773,
				"element": "C" 
			},
			{
				"x": -1.6854179074,
				"y": -1.5014168655,
				"z": -0.3196978371,
				"element": "N" 
			},
			{
				"x": 0.1675334751,
				"y": -0.3781820429,
				"z": 0.6717208186,
				"element": "C" 
			},
			{
				"x": 1.5709895727,
				"y": -0.4248600921,
				"z": 0.7104909009,
				"element": "C" 
			},
			{
				"x": 2.2565463859,
				"y": -0.0971491521,
				"z": 1.8802621211,
				"element": "C" 
			},
			{
				"x": 1.5519818215,
				"y": 0.2870814989,
				"z": 3.0220540106,
				"element": "C" 
			},
			{
				"x": 0.15523715,
				"y": 0.322816712,
				"z": 2.9966125834,
				"element": "C" 
			},
			{
				"x": -0.5327224705,
				"y": -0.0184547855,
				"z": 1.8352684982,
				"element": "C" 
			},
			{
				"x": 1.3791828333,
				"y": 1.0019894406,
				"z": -1.4268008756,
				"element": "H" 
			},
			{
				"x": 1.87615287,
				"y": 1.5028173689,
				"z": -3.7843167175,
				"element": "H" 
			},
			{
				"x": 0.5534230365,
				"y": 0.4438921749,
				"z": -5.605205644,
				"element": "H" 
			},
			{
				"x": -1.3373339942,
				"y": -1.0879093324,
				"z": -5.044173082,
				"element": "H" 
			},
			{
				"x": 2.1257345708,
				"y": -0.7542098441,
				"z": -0.1618628854,
				"element": "H" 
			},
			{
				"x": 3.3410271886,
				"y": -0.1513240686,
				"z": 1.9006637395,
				"element": "H" 
			},
			{
				"x": 2.0874789653,
				"y": 0.5477870377,
				"z": 3.9303260826,
				"element": "H" 
			},
			{
				"x": -0.3983528718,
				"y": 0.6114899442,
				"z": 3.8852269178,
				"element": "H" 
			},
			{
				"x": -1.6170344153,
				"y": -0.0135704022,
				"z": 1.8116185775,
				"element": "H" 
			}
		],
		 "valence_orbital": [ 
			{
				"type": "occ",
				"energy": -0.27349,
				"method": "rhf"
			},
			{
				"type": "occ",
				"energy": -0.26656,
				"method": "rhf"
			},
			{
				"type": "occ",
				"energy": -0.26408,
				"method": "rhf"
			},
			{
				"type": "occ",
				"energy": -0.25818,
				"method": "rhf"
			},
			{
				"type": "occ",
				"energy": -0.24081,
				"method": "rhf"
			},
			{
				"type": "unocc",
				"energy": -0.07971,
				"method": "rhf"
			},
			{
				"type": "unocc",
				"energy": -0.03656,
				"method": "rhf"
			},
			{
				"type": "unocc",
				"energy": -0.02165,
				"method": "rhf"
			},
			{
				"type": "unocc",
				"energy": -0.01346,
				"method": "rhf"
			},
			{
				"type": "unocc",
				"energy": 0.01773,
				"method": "rhf"
			}
		],
		"cosmo_sigma_profile": { 
			"-0.025": 0.0,
			"-0.024": 0.0,
			"-0.023": 0.0,
			"-0.022": 0.0,
			"-0.021": 0.0,
			"-0.02": 0.0,
			"-0.019": 0.0,
			"-0.018": 0.0,
			"-0.017": 0.0,
			"-0.016": 0.0,
			"-0.015": 0.0,
			"-0.014": 0.0,
			"-0.013": 0.0,
			"-0.012": 0.0,
			"-0.011": 0.0,
			"-0.01": 0.0,
			"-0.009": 0.0,
			"-0.008": 0.229413407973,
			"-0.007": 6.30893082783,
			"-0.006": 17.3672230226,
			"-0.005": 21.4066113023,
			"-0.004": 20.5967386056,
			"-0.003": 17.4569074487,
			"-0.002": 19.1609089488,
			"-0.001": 19.9968166758,
			"0.0": 19.4843018193,
			"0.001": 21.8266221158,
			"0.002": 23.9679234982,
			"0.003": 21.2765375381,
			"0.004": 22.6552814735,
			"0.005": 10.3128565964,
			"0.006": 5.10771683639,
			"0.007": 3.63212694013,
			"0.008": 2.91055998216,
			"0.009": 2.28151478517,
			"0.01": 1.66905393536,
			"0.011": 1.796663521,
			"0.012": 1.76331497858,
			"0.013": 1.15713094793,
			"0.014": 0.140545918274,
			"0.015": 0.0,
			"0.016": 0.0,
			"0.017": 0.0,
			"0.018": 0.0,
			"0.019": 0.0,
			"0.02": 0.0,
			"0.021": 0.0,
			"0.022": 0.0,
			"0.023": 0.0,
			"0.024": 0.0,
			"0.025": 0.0
		}
	}
}
