{
	 "smiles": "CS(=O)(=O)C1=C(SC=C1)C(O)=O", 
	 "Tm": 453.15, 
	 "num_atms": 18, 
	 "gaussian": { 
		 "optdone": 1, 
		 "sigma_profile": "yes", 
		 "theory": "DFT", 
		 "functional": "B3LYP", 
		 "basiset": "6-31G**", 
		 "properties": { 
			 "R2extent": 2624.9534, 
			 "electric_dipole_moment_norm": 3.82327020363, 
			 "electric_quadrupole_moment_norm": 22.3529588952, 
			 "total_energy": -1329.4509208, 
			 "HOMO_LUMO_gap": 0.1858, 
			 "cosmo_polarized_energy": -18.75, 
			 "cosmo_cavitation_energy": 25.33, 
			 "cosmo_dispersion_energy": -19.62, 
			 "cosmo_repulsion_energy": 1.46, 
			 "cosmo_total_nonelectrostatic_energy": 7.17, 
			 "SMD_solvation_energy": 5.57 
		},
		"coords": [
			{
				"x": -2.2658434782,
				"y": -1.8697252715,
				"z": 1.8097582017,
				"element": "C" 
			},
			{
				"x": -0.685903927,
				"y": -2.0261181196,
				"z": 0.9537153144,
				"element": "S" 
			},
			{
				"x": 0.2704336435,
				"y": -2.6091085369,
				"z": 1.908372497,
				"element": "O" 
			},
			{
				"x": -0.9061944416,
				"y": -2.656136322,
				"z": -0.3519203623,
				"element": "O" 
			},
			{
				"x": -0.1300053759,
				"y": -0.3168139084,
				"z": 0.7085733301,
				"element": "C" 
			},
			{
				"x": -0.634260678,
				"y": 0.6502487242,
				"z": -0.1472691769,
				"element": "C" 
			},
			{
				"x": 0.3593263967,
				"y": 2.0787617513,
				"z": -0.1072308342,
				"element": "S" 
			},
			{
				"x": 1.4175913398,
				"y": 1.3745973218,
				"z": 1.0528750168,
				"element": "C" 
			},
			{
				"x": 1.0454393684,
				"y": 0.1002175759,
				"z": 1.3929971337,
				"element": "C" 
			},
			{
				"x": -1.7834685052,
				"y": 0.7064220445,
				"z": -1.0696787911,
				"element": "C" 
			},
			{
				"x": -2.6637624402,
				"y": -0.3034778581,
				"z": -0.9035144209,
				"element": "O" 
			},
			{
				"x": -1.9411137313,
				"y": 1.5909959853,
				"z": -1.8875683712,
				"element": "O" 
			},
			{
				"x": -2.96638364,
				"y": -1.3352025057,
				"z": 1.1710098662,
				"element": "H" 
			},
			{
				"x": -2.6050145942,
				"y": -2.89195732,
				"z": 1.9911706072,
				"element": "H" 
			},
			{
				"x": -2.0989569612,
				"y": -1.3536528393,
				"z": 2.7561945489,
				"element": "H" 
			},
			{
				"x": 2.2658122071,
				"y": 1.9351508523,
				"z": 1.4222252703,
				"element": "H" 
			},
			{
				"x": 1.5733111843,
				"y": -0.5399784393,
				"z": 2.0873511791,
				"element": "H" 
			},
			{
				"x": -3.338606367,
				"y": -0.1951231344,
				"z": -1.5944610087,
				"element": "H" 
			}
		],
		 "valence_orbital": [ 
			{
				"type": "occ",
				"energy": -0.30272,
				"method": "rhf"
			},
			{
				"type": "occ",
				"energy": -0.2998,
				"method": "rhf"
			},
			{
				"type": "occ",
				"energy": -0.29491,
				"method": "rhf"
			},
			{
				"type": "occ",
				"energy": -0.2838,
				"method": "rhf"
			},
			{
				"type": "occ",
				"energy": -0.27061,
				"method": "rhf"
			},
			{
				"type": "unocc",
				"energy": -0.08481,
				"method": "rhf"
			},
			{
				"type": "unocc",
				"energy": -0.00285,
				"method": "rhf"
			},
			{
				"type": "unocc",
				"energy": 0.00575,
				"method": "rhf"
			},
			{
				"type": "unocc",
				"energy": 0.04383,
				"method": "rhf"
			},
			{
				"type": "unocc",
				"energy": 0.05692,
				"method": "rhf"
			}
		],
		"cosmo_sigma_profile": { 
			"-0.025": 0.0,
			"-0.024": 0.0,
			"-0.023": 0.0,
			"-0.022": 0.0,
			"-0.021": 0.0,
			"-0.02": 0.0493934820907,
			"-0.019": 0.9329760228,
			"-0.018": 1.01828364617,
			"-0.017": 0.748899824254,
			"-0.016": 0.955971738865,
			"-0.015": 1.05291383822,
			"-0.014": 0.0424112076007,
			"-0.013": 0.419899454728,
			"-0.012": 1.12938367889,
			"-0.011": 1.339912946,
			"-0.01": 3.43475193607,
			"-0.009": 5.90214760926,
			"-0.008": 7.39236918528,
			"-0.007": 7.34353714053,
			"-0.006": 8.61318730022,
			"-0.005": 10.7979727894,
			"-0.004": 13.753686997,
			"-0.003": 13.5124089636,
			"-0.002": 11.2100936996,
			"-0.001": 13.593025323,
			"0.0": 17.6805279067,
			"0.001": 15.3831801956,
			"0.002": 7.89471486827,
			"0.003": 4.31987472425,
			"0.004": 4.15193802839,
			"0.005": 4.02300852816,
			"0.006": 4.17236336717,
			"0.007": 3.21292210708,
			"0.008": 5.15988966192,
			"0.009": 4.9889105186,
			"0.01": 9.68671321834,
			"0.011": 15.27231572,
			"0.012": 5.99412874807,
			"0.013": 0.0542987829389,
			"0.014": 0.0,
			"0.015": 0.0,
			"0.016": 0.0,
			"0.017": 0.0,
			"0.018": 0.0,
			"0.019": 0.0,
			"0.02": 0.0,
			"0.021": 0.0,
			"0.022": 0.0,
			"0.023": 0.0,
			"0.024": 0.0,
			"0.025": 0.0
		}
	}
}
