{
	 "smiles": "CC(=NNC(=O)C1=CC=NC=C1)C1=CC=CO1", 
	 "Tm": 472.15, 
	 "num_atms": 28, 
	 "gaussian": { 
		 "optdone": 1, 
		 "sigma_profile": "yes", 
		 "theory": "DFT", 
		 "functional": "B3LYP", 
		 "basiset": "6-31G**", 
		 "properties": { 
			 "R2extent": 5242.1301, 
			 "electric_dipole_moment_norm": 5.46754983151, 
			 "electric_quadrupole_moment_norm": 10.5770027319, 
			 "total_energy": -778.550951336, 
			 "HOMO_LUMO_gap": 0.1602, 
			 "cosmo_polarized_energy": -19.74, 
			 "cosmo_cavitation_energy": 33.7, 
			 "cosmo_dispersion_energy": -23.96, 
			 "cosmo_repulsion_energy": 1.84, 
			 "cosmo_total_nonelectrostatic_energy": 11.58, 
			 "SMD_solvation_energy": 5.49 
		},
		"coords": [
			{
				"x": -2.5764365604,
				"y": 3.0295576565,
				"z": -0.7600079642,
				"element": "C" 
			},
			{
				"x": -1.4210022569,
				"y": 2.1250261634,
				"z": -0.4118901304,
				"element": "C" 
			},
			{
				"x": -1.3009234141,
				"y": 1.0469963724,
				"z": -1.1149509341,
				"element": "N" 
			},
			{
				"x": -0.3251700112,
				"y": 0.1482996002,
				"z": -0.7904493866,
				"element": "N" 
			},
			{
				"x": -0.2393363814,
				"y": -1.03612857,
				"z": -1.5100943185,
				"element": "C" 
			},
			{
				"x": -0.8919796735,
				"y": -1.2665561957,
				"z": -2.5113538642,
				"element": "O" 
			},
			{
				"x": 0.750188117,
				"y": -2.0346678204,
				"z": -0.9624277182,
				"element": "C" 
			},
			{
				"x": 1.7991389824,
				"y": -1.7331352974,
				"z": -0.0856543038,
				"element": "C" 
			},
			{
				"x": 2.6452956175,
				"y": -2.7627896522,
				"z": 0.3299404019,
				"element": "C" 
			},
			{
				"x": 2.5164767116,
				"y": -4.0360148811,
				"z": -0.0586986328,
				"element": "N" 
			},
			{
				"x": 1.5163019786,
				"y": -4.313615516,
				"z": -0.907027438,
				"element": "C" 
			},
			{
				"x": 0.6211574024,
				"y": -3.3607210548,
				"z": -1.3881338242,
				"element": "C" 
			},
			{
				"x": -0.542001989,
				"y": 2.5420589617,
				"z": 0.6831157476,
				"element": "C" 
			},
			{
				"x": 0.7866054568,
				"y": 2.3562556056,
				"z": 0.9943625002,
				"element": "C" 
			},
			{
				"x": 1.0475347426,
				"y": 3.1153493411,
				"z": 2.1758176576,
				"element": "C" 
			},
			{
				"x": -0.1322446855,
				"y": 3.7100130418,
				"z": 2.5081744913,
				"element": "C" 
			},
			{
				"x": -1.1018380299,
				"y": 3.3814729194,
				"z": 1.6156593886,
				"element": "O" 
			},
			{
				"x": -2.227061326,
				"y": 4.0353043866,
				"z": -1.0183062946,
				"element": "H" 
			},
			{
				"x": -3.2593337754,
				"y": 3.1345762527,
				"z": 0.089648236,
				"element": "H" 
			},
			{
				"x": -3.1179452926,
				"y": 2.6035629067,
				"z": -1.6052028916,
				"element": "H" 
			},
			{
				"x": 0.0843155725,
				"y": 0.1847402617,
				"z": 0.1389853771,
				"element": "H" 
			},
			{
				"x": 1.9913708593,
				"y": -0.7221234524,
				"z": 0.2600118555,
				"element": "H" 
			},
			{
				"x": 3.4703797009,
				"y": -2.5481430987,
				"z": 1.0069552633,
				"element": "H" 
			},
			{
				"x": 1.4280984183,
				"y": -5.3526526647,
				"z": -1.2185746024,
				"element": "H" 
			},
			{
				"x": -0.1680896047,
				"y": -3.6197285261,
				"z": -2.0847751786,
				"element": "H" 
			},
			{
				"x": 1.5087408051,
				"y": 1.8037875277,
				"z": 0.411268687,
				"element": "H" 
			},
			{
				"x": 1.9874838852,
				"y": 3.2072672694,
				"z": 2.7001171371,
				"element": "H" 
			},
			{
				"x": -0.4348252494,
				"y": 4.3627084625,
				"z": 3.3123907387,
				"element": "H" 
			}
		],
		 "valence_orbital": [ 
			{
				"type": "occ",
				"energy": -0.27444,
				"method": "rhf"
			},
			{
				"type": "occ",
				"energy": -0.27138,
				"method": "rhf"
			},
			{
				"type": "occ",
				"energy": -0.26547,
				"method": "rhf"
			},
			{
				"type": "occ",
				"energy": -0.25849,
				"method": "rhf"
			},
			{
				"type": "occ",
				"energy": -0.22687,
				"method": "rhf"
			},
			{
				"type": "unocc",
				"energy": -0.06667,
				"method": "rhf"
			},
			{
				"type": "unocc",
				"energy": -0.04058,
				"method": "rhf"
			},
			{
				"type": "unocc",
				"energy": -0.02081,
				"method": "rhf"
			},
			{
				"type": "unocc",
				"energy": 0.02124,
				"method": "rhf"
			},
			{
				"type": "unocc",
				"energy": 0.04839,
				"method": "rhf"
			}
		],
		"cosmo_sigma_profile": { 
			"-0.025": 0.0,
			"-0.024": 0.0,
			"-0.023": 0.0,
			"-0.022": 0.0,
			"-0.021": 0.0,
			"-0.02": 0.0,
			"-0.019": 0.0,
			"-0.018": 0.0,
			"-0.017": 0.0,
			"-0.016": 0.0,
			"-0.015": 0.0,
			"-0.014": 0.0,
			"-0.013": 0.361395400088,
			"-0.012": 1.60520983739,
			"-0.011": 2.01739302407,
			"-0.01": 2.72353098146,
			"-0.009": 5.10228055117,
			"-0.008": 6.48619076063,
			"-0.007": 10.9086130801,
			"-0.006": 13.6658181189,
			"-0.005": 16.5260572459,
			"-0.004": 16.1601613243,
			"-0.003": 18.6662414606,
			"-0.002": 18.4179511616,
			"-0.001": 23.4810658234,
			"0.0": 21.5534607778,
			"0.001": 26.8189772401,
			"0.002": 17.9980460678,
			"0.003": 13.4703076507,
			"0.004": 10.5715270669,
			"0.005": 5.48769756244,
			"0.006": 5.07252701441,
			"0.007": 3.67551295812,
			"0.008": 3.2079547868,
			"0.009": 3.77202357543,
			"0.01": 2.39070693985,
			"0.011": 3.70597319045,
			"0.012": 5.13110579618,
			"0.013": 4.64489523594,
			"0.014": 2.1727449261,
			"0.015": 1.85036433434,
			"0.016": 2.09093397841,
			"0.017": 0.974246644288,
			"0.018": 0.433017699235,
			"0.019": 0.0,
			"0.02": 0.0,
			"0.021": 0.0,
			"0.022": 0.0,
			"0.023": 0.0,
			"0.024": 0.0,
			"0.025": 0.0
		}
	}
}
