{
	 "smiles": "CC(=O)CC(=O)C1=C(C)C(C)=C(C)C(C)=C1C", 
	 "Tm": 347.55, 
	 "num_atms": 37, 
	 "gaussian": { 
		 "optdone": 1, 
		 "sigma_profile": "yes", 
		 "theory": "DFT", 
		 "functional": "B3LYP", 
		 "basiset": "6-31G**", 
		 "properties": { 
			 "R2extent": 5158.1485, 
			 "electric_dipole_moment_norm": 3.53398402656, 
			 "electric_quadrupole_moment_norm": 10.1441372309, 
			 "total_energy": -734.11407963, 
			 "HOMO_LUMO_gap": 0.18943, 
			 "cosmo_polarized_energy": -11.27, 
			 "cosmo_cavitation_energy": 37.46, 
			 "cosmo_dispersion_energy": -26.07, 
			 "cosmo_repulsion_energy": 2.01, 
			 "cosmo_total_nonelectrostatic_energy": 13.4, 
			 "SMD_solvation_energy": 7.35 
		},
		"coords": [
			{
				"x": -1.0037324594,
				"y": -2.3656816297,
				"z": -3.3894031728,
				"element": "C" 
			},
			{
				"x": 0.2470187207,
				"y": -1.8078241654,
				"z": -2.7533588912,
				"element": "C" 
			},
			{
				"x": 1.2762854514,
				"y": -2.4482385591,
				"z": -2.6463095045,
				"element": "O" 
			},
			{
				"x": 0.1680558111,
				"y": -0.3862971933,
				"z": -2.1900446879,
				"element": "C" 
			},
			{
				"x": -0.5323128216,
				"y": -0.3294402933,
				"z": -0.8178089062,
				"element": "C" 
			},
			{
				"x": -1.5094088743,
				"y": -1.0210564212,
				"z": -0.5873697231,
				"element": "O" 
			},
			{
				"x": -0.0135137326,
				"y": 0.6862458908,
				"z": 0.1678718798,
				"element": "C" 
			},
			{
				"x": 1.2544582803,
				"y": 0.502585356,
				"z": 0.7532080275,
				"element": "C" 
			},
			{
				"x": 2.0725825281,
				"y": -0.7419574018,
				"z": 0.460699516,
				"element": "C" 
			},
			{
				"x": 1.7350413207,
				"y": 1.4684674579,
				"z": 1.6575832897,
				"element": "C" 
			},
			{
				"x": 3.081136611,
				"y": 1.2901544652,
				"z": 2.3324584546,
				"element": "C" 
			},
			{
				"x": 0.9582299316,
				"y": 2.6086459169,
				"z": 1.944617675,
				"element": "C" 
			},
			{
				"x": 1.5019424708,
				"y": 3.6803168135,
				"z": 2.8683752976,
				"element": "C" 
			},
			{
				"x": -0.3283037772,
				"y": 2.7568857456,
				"z": 1.3898398549,
				"element": "C" 
			},
			{
				"x": -1.1710245446,
				"y": 3.9588055888,
				"z": 1.7691075216,
				"element": "C" 
			},
			{
				"x": -0.8245081098,
				"y": 1.7928301336,
				"z": 0.4914100545,
				"element": "C" 
			},
			{
				"x": -2.1930385659,
				"y": 1.9794266412,
				"z": -0.1363043489,
				"element": "C" 
			},
			{
				"x": -0.8314170243,
				"y": -3.3894963445,
				"z": -3.7240600369,
				"element": "H" 
			},
			{
				"x": -1.8107275549,
				"y": -2.3305358135,
				"z": -2.6492182038,
				"element": "H" 
			},
			{
				"x": -1.3125509685,
				"y": -1.7423662981,
				"z": -4.2371160205,
				"element": "H" 
			},
			{
				"x": 1.1724004288,
				"y": 0.0352901437,
				"z": -2.1327179871,
				"element": "H" 
			},
			{
				"x": -0.4335472908,
				"y": 0.2560506502,
				"z": -2.8481236772,
				"element": "H" 
			},
			{
				"x": 2.195472256,
				"y": -1.348730932,
				"z": 1.3655121917,
				"element": "H" 
			},
			{
				"x": 1.6230205538,
				"y": -1.3922236239,
				"z": -0.2899368293,
				"element": "H" 
			},
			{
				"x": 3.0777986374,
				"y": -0.4936237,
				"z": 0.1031990773,
				"element": "H" 
			},
			{
				"x": 3.8405786993,
				"y": 1.958794086,
				"z": 1.9058372649,
				"element": "H" 
			},
			{
				"x": 3.4599619241,
				"y": 0.2732478368,
				"z": 2.234643024,
				"element": "H" 
			},
			{
				"x": 3.025815861,
				"y": 1.5129721654,
				"z": 3.4023187359,
				"element": "H" 
			},
			{
				"x": 2.5927311648,
				"y": 3.7080443929,
				"z": 2.8625025049,
				"element": "H" 
			},
			{
				"x": 1.1518896358,
				"y": 4.6746464713,
				"z": 2.5822388424,
				"element": "H" 
			},
			{
				"x": 1.1888869524,
				"y": 3.5175373245,
				"z": 3.9090793343,
				"element": "H" 
			},
			{
				"x": -0.8544013556,
				"y": 4.8645399994,
				"z": 1.234056809,
				"element": "H" 
			},
			{
				"x": -2.2271450377,
				"y": 3.8073127908,
				"z": 1.5460292271,
				"element": "H" 
			},
			{
				"x": -1.0956041794,
				"y": 4.1784859035,
				"z": 2.8378401733,
				"element": "H" 
			},
			{
				"x": -2.9877366643,
				"y": 1.9023995844,
				"z": 0.6149241592,
				"element": "H" 
			},
			{
				"x": -2.2854512224,
				"y": 2.9661113287,
				"z": -0.6026176674,
				"element": "H" 
			},
			{
				"x": -2.4121830558,
				"y": 1.2279756888,
				"z": -0.8932632586,
				"element": "H" 
			}
		],
		 "valence_orbital": [ 
			{
				"type": "occ",
				"energy": -0.32382,
				"method": "rhf"
			},
			{
				"type": "occ",
				"energy": -0.25847,
				"method": "rhf"
			},
			{
				"type": "occ",
				"energy": -0.24397,
				"method": "rhf"
			},
			{
				"type": "occ",
				"energy": -0.23083,
				"method": "rhf"
			},
			{
				"type": "occ",
				"energy": -0.2262,
				"method": "rhf"
			},
			{
				"type": "unocc",
				"energy": -0.03677,
				"method": "rhf"
			},
			{
				"type": "unocc",
				"energy": -0.01516,
				"method": "rhf"
			},
			{
				"type": "unocc",
				"energy": 0.00055,
				"method": "rhf"
			},
			{
				"type": "unocc",
				"energy": 0.00996,
				"method": "rhf"
			},
			{
				"type": "unocc",
				"energy": 0.08364,
				"method": "rhf"
			}
		],
		"cosmo_sigma_profile": { 
			"-0.025": 0.0,
			"-0.024": 0.0,
			"-0.023": 0.0,
			"-0.022": 0.0,
			"-0.021": 0.0,
			"-0.02": 0.0,
			"-0.019": 0.0,
			"-0.018": 0.0,
			"-0.017": 0.0,
			"-0.016": 0.0,
			"-0.015": 0.0,
			"-0.014": 0.0,
			"-0.013": 0.0,
			"-0.012": 0.0,
			"-0.011": 0.0,
			"-0.01": 0.0,
			"-0.009": 1.7592758301e-05,
			"-0.008": 2.59580390704,
			"-0.007": 5.21148338675,
			"-0.006": 5.56221033656,
			"-0.005": 7.67666348453,
			"-0.004": 26.6017141672,
			"-0.003": 39.8619963986,
			"-0.002": 39.71713193,
			"-0.001": 37.8121942301,
			"0.0": 34.7743496081,
			"0.001": 21.1550931633,
			"0.002": 10.2434950008,
			"0.003": 9.49998211481,
			"0.004": 7.33353327326,
			"0.005": 9.7546688835,
			"0.006": 8.80697956117,
			"0.007": 3.96691496746,
			"0.008": 3.18015033883,
			"0.009": 3.65840578167,
			"0.01": 4.7547028545,
			"0.011": 5.57399045794,
			"0.012": 5.12354870211,
			"0.013": 1.06071484101,
			"0.014": 0.0,
			"0.015": 0.0,
			"0.016": 0.0,
			"0.017": 0.0,
			"0.018": 0.0,
			"0.019": 0.0,
			"0.02": 0.0,
			"0.021": 0.0,
			"0.022": 0.0,
			"0.023": 0.0,
			"0.024": 0.0,
			"0.025": 0.0
		}
	}
}
