{
	 "smiles": "CC1=CC(=NN1C1=C(F)C=C(F)C=C1)C(O)=O", 
	 "Tm": 495.15, 
	 "num_atms": 25, 
	 "gaussian": { 
		 "optdone": 1, 
		 "sigma_profile": "yes", 
		 "theory": "DFT", 
		 "functional": "B3LYP", 
		 "basiset": "6-31G**", 
		 "properties": { 
			 "R2extent": 5133.9814, 
			 "electric_dipole_moment_norm": 6.46840936707, 
			 "electric_quadrupole_moment_norm": 31.3526394817, 
			 "total_energy": -883.606636199, 
			 "HOMO_LUMO_gap": 0.20782, 
			 "cosmo_polarized_energy": -13.75, 
			 "cosmo_cavitation_energy": 31.35, 
			 "cosmo_dispersion_energy": -22.15, 
			 "cosmo_repulsion_energy": 1.68, 
			 "cosmo_total_nonelectrostatic_energy": 10.88, 
			 "SMD_solvation_energy": 7.1 
		},
		"coords": [
			{
				"x": 2.5392812685,
				"y": 0.7961552442,
				"z": -0.5199190442,
				"element": "C" 
			},
			{
				"x": 1.2318915039,
				"y": 1.4285575337,
				"z": -0.8721943883,
				"element": "C" 
			},
			{
				"x": 0.9225733629,
				"y": 2.7382349278,
				"z": -1.1792759578,
				"element": "C" 
			},
			{
				"x": -0.4744781228,
				"y": 2.7543180299,
				"z": -1.3718653842,
				"element": "C" 
			},
			{
				"x": -1.0118016702,
				"y": 1.5459035118,
				"z": -1.2008856959,
				"element": "N" 
			},
			{
				"x": 0.0353396414,
				"y": 0.7394076629,
				"z": -0.9055897345,
				"element": "N" 
			},
			{
				"x": -0.2123450333,
				"y": -0.6266291712,
				"z": -0.6036574519,
				"element": "C" 
			},
			{
				"x": 0.4343918074,
				"y": -1.652778872,
				"z": -1.2996694158,
				"element": "C" 
			},
			{
				"x": 1.3146225068,
				"y": -1.3418884573,
				"z": -2.2687023946,
				"element": "F" 
			},
			{
				"x": 0.1922827753,
				"y": -2.9924044422,
				"z": -1.0257270768,
				"element": "C" 
			},
			{
				"x": -0.7479509062,
				"y": -3.2942015154,
				"z": -0.0469866967,
				"element": "C" 
			},
			{
				"x": -0.9991647269,
				"y": -4.5852742517,
				"z": 0.2256014803,
				"element": "F" 
			},
			{
				"x": -1.4346116451,
				"y": -2.3063159325,
				"z": 0.6534926283,
				"element": "C" 
			},
			{
				"x": -1.1562760741,
				"y": -0.9724601369,
				"z": 0.3694730613,
				"element": "C" 
			},
			{
				"x": -1.3469449404,
				"y": 3.9051105393,
				"z": -1.721488203,
				"element": "C" 
			},
			{
				"x": -2.6552138501,
				"y": 3.5923412749,
				"z": -1.8574608366,
				"element": "O" 
			},
			{
				"x": -0.9340570745,
				"y": 5.0314136501,
				"z": -1.8725970331,
				"element": "O" 
			},
			{
				"x": 3.2806960126,
				"y": 1.5757282248,
				"z": -0.3349383535,
				"element": "H" 
			},
			{
				"x": 2.4573855655,
				"y": 0.1836756759,
				"z": 0.3844950811,
				"element": "H" 
			},
			{
				"x": 2.9083731287,
				"y": 0.1530834862,
				"z": -1.323640599,
				"element": "H" 
			},
			{
				"x": 1.5993129154,
				"y": 3.5757345389,
				"z": -1.2475304966,
				"element": "H" 
			},
			{
				"x": 0.7063286044,
				"y": -3.7716525846,
				"z": -1.5747566542,
				"element": "H" 
			},
			{
				"x": -2.1628870052,
				"y": -2.5869652137,
				"z": 1.4052148128,
				"element": "H" 
			},
			{
				"x": -1.6721411047,
				"y": -0.1754773654,
				"z": 0.8927034679,
				"element": "H" 
			},
			{
				"x": -2.7539069392,
				"y": 2.6361836427,
				"z": -1.7008951151,
				"element": "H" 
			}
		],
		 "valence_orbital": [ 
			{
				"type": "occ",
				"energy": -0.29517,
				"method": "rhf"
			},
			{
				"type": "occ",
				"energy": -0.2846,
				"method": "rhf"
			},
			{
				"type": "occ",
				"energy": -0.2667,
				"method": "rhf"
			},
			{
				"type": "occ",
				"energy": -0.2625,
				"method": "rhf"
			},
			{
				"type": "occ",
				"energy": -0.25565,
				"method": "rhf"
			},
			{
				"type": "unocc",
				"energy": -0.04783,
				"method": "rhf"
			},
			{
				"type": "unocc",
				"energy": -0.03751,
				"method": "rhf"
			},
			{
				"type": "unocc",
				"energy": -0.02033,
				"method": "rhf"
			},
			{
				"type": "unocc",
				"energy": 0.01839,
				"method": "rhf"
			},
			{
				"type": "unocc",
				"energy": 0.05425,
				"method": "rhf"
			}
		],
		"cosmo_sigma_profile": { 
			"-0.025": 0.0,
			"-0.024": 0.0,
			"-0.023": 0.0,
			"-0.022": 0.0,
			"-0.021": 0.0,
			"-0.02": 0.0,
			"-0.019": 0.0,
			"-0.018": 0.0,
			"-0.017": 0.0,
			"-0.016": 0.0,
			"-0.015": 0.063070506903,
			"-0.014": 0.782497925845,
			"-0.013": 0.258484839633,
			"-0.012": 0.677981042343,
			"-0.011": 0.740606570948,
			"-0.01": 0.971631962838,
			"-0.009": 2.32127257603,
			"-0.008": 6.34900240707,
			"-0.007": 7.03534203161,
			"-0.006": 11.8301330192,
			"-0.005": 12.983403369,
			"-0.004": 14.0794187886,
			"-0.003": 16.6928772727,
			"-0.002": 22.1430841901,
			"-0.001": 25.277839909,
			"0.0": 26.2495299245,
			"0.001": 21.1497336856,
			"0.002": 17.4789187087,
			"0.003": 20.0075366191,
			"0.004": 10.8170352546,
			"0.005": 3.31925409565,
			"0.006": 3.93237990579,
			"0.007": 3.07446841726,
			"0.008": 3.25175810518,
			"0.009": 3.70738945683,
			"0.01": 4.80958770645,
			"0.011": 5.3228066811,
			"0.012": 5.18875529296,
			"0.013": 1.6935198917,
			"0.014": 0.07157362003,
			"0.015": 0.0,
			"0.016": 0.0,
			"0.017": 0.0,
			"0.018": 0.0,
			"0.019": 0.0,
			"0.02": 0.0,
			"0.021": 0.0,
			"0.022": 0.0,
			"0.023": 0.0,
			"0.024": 0.0,
			"0.025": 0.0
		}
	}
}
