{
	 "smiles": "CC(C)(C)OC(=O)N1CCC(=O)CC1", 
	 "Tm": 347.65, 
	 "num_atms": 31, 
	 "gaussian": { 
		 "optdone": 1, 
		 "sigma_profile": "yes", 
		 "theory": "DFT", 
		 "functional": "B3LYP", 
		 "basiset": "6-31G**", 
		 "properties": { 
			 "R2extent": 3757.9943, 
			 "electric_dipole_moment_norm": 2.81484142004, 
			 "electric_quadrupole_moment_norm": 13.3001894795, 
			 "total_energy": -671.769838112, 
			 "HOMO_LUMO_gap": 0.22227, 
			 "cosmo_polarized_energy": -11.71, 
			 "cosmo_cavitation_energy": 32.25, 
			 "cosmo_dispersion_energy": -22.5, 
			 "cosmo_repulsion_energy": 1.79, 
			 "cosmo_total_nonelectrostatic_energy": 11.54, 
			 "SMD_solvation_energy": 6.34 
		},
		"coords": [
			{
				"x": -2.073500528,
				"y": 1.6858095715,
				"z": 2.4611426425,
				"element": "C" 
			},
			{
				"x": -1.4818627955,
				"y": 0.3808479984,
				"z": 1.9216428939,
				"element": "C" 
			},
			{
				"x": -0.4770366857,
				"y": -0.2114990331,
				"z": 2.9153113867,
				"element": "C" 
			},
			{
				"x": -2.5928563944,
				"y": -0.6090163914,
				"z": 1.556476121,
				"element": "C" 
			},
			{
				"x": -0.7837998047,
				"y": 0.8285813449,
				"z": 0.7039112634,
				"element": "O" 
			},
			{
				"x": -0.1265860089,
				"y": -0.0545400661,
				"z": -0.0846894317,
				"element": "C" 
			},
			{
				"x": -0.0203993321,
				"y": -1.2541373905,
				"z": 0.1276904004,
				"element": "O" 
			},
			{
				"x": 0.4081102191,
				"y": 0.5699996206,
				"z": -1.1889769048,
				"element": "N" 
			},
			{
				"x": 1.2709990099,
				"y": -0.1940041716,
				"z": -2.0824757191,
				"element": "C" 
			},
			{
				"x": 2.7435995121,
				"y": 0.2515244965,
				"z": -1.9401948131,
				"element": "C" 
			},
			{
				"x": 2.8841530363,
				"y": 1.765233495,
				"z": -2.0388982666,
				"element": "C" 
			},
			{
				"x": 3.7311512261,
				"y": 2.3018762225,
				"z": -2.7267399678,
				"element": "O" 
			},
			{
				"x": 1.8772928685,
				"y": 2.5596335925,
				"z": -1.2142199522,
				"element": "C" 
			},
			{
				"x": 0.4423867138,
				"y": 2.0142027679,
				"z": -1.3928135793,
				"element": "C" 
			},
			{
				"x": -2.7577752271,
				"y": 2.1308555293,
				"z": 1.7328099557,
				"element": "H" 
			},
			{
				"x": -1.2820127253,
				"y": 2.4089502886,
				"z": 2.679237763,
				"element": "H" 
			},
			{
				"x": -2.6285524733,
				"y": 1.4927516855,
				"z": 3.3838421907,
				"element": "H" 
			},
			{
				"x": 0.3229565887,
				"y": 0.5071612573,
				"z": 3.1206495386,
				"element": "H" 
			},
			{
				"x": -0.0378630636,
				"y": -1.1299272093,
				"z": 2.5259132735,
				"element": "H" 
			},
			{
				"x": -0.9833302155,
				"y": -0.4331110399,
				"z": 3.8604097767,
				"element": "H" 
			},
			{
				"x": -3.1801763515,
				"y": -0.8458536364,
				"z": 2.4495795439,
				"element": "H" 
			},
			{
				"x": -3.2663239541,
				"y": -0.16746891,
				"z": 0.8150162171,
				"element": "H" 
			},
			{
				"x": -2.1768284905,
				"y": -1.5319611374,
				"z": 1.1524980779,
				"element": "H" 
			},
			{
				"x": 0.9359466064,
				"y": -0.0346864176,
				"z": -3.1160171512,
				"element": "H" 
			},
			{
				"x": 1.1565434023,
				"y": -1.2503624344,
				"z": -1.8431339124,
				"element": "H" 
			},
			{
				"x": 3.3792167401,
				"y": -0.2123201284,
				"z": -2.699126883,
				"element": "H" 
			},
			{
				"x": 3.1053343632,
				"y": -0.0617613409,
				"z": -0.9513188421,
				"element": "H" 
			},
			{
				"x": 2.1543491051,
				"y": 2.4676846385,
				"z": -0.1551509319,
				"element": "H" 
			},
			{
				"x": 1.9444971944,
				"y": 3.6138704201,
				"z": -1.4959912811,
				"element": "H" 
			},
			{
				"x": 0.0956448106,
				"y": 2.228826662,
				"z": -2.41281975,
				"element": "H" 
			},
			{
				"x": -0.2451773462,
				"y": 2.4925397163,
				"z": -0.6991636585,
				"element": "H" 
			}
		],
		 "valence_orbital": [ 
			{
				"type": "occ",
				"energy": -0.33523,
				"method": "rhf"
			},
			{
				"type": "occ",
				"energy": -0.29276,
				"method": "rhf"
			},
			{
				"type": "occ",
				"energy": -0.26727,
				"method": "rhf"
			},
			{
				"type": "occ",
				"energy": -0.24568,
				"method": "rhf"
			},
			{
				"type": "occ",
				"energy": -0.24304,
				"method": "rhf"
			},
			{
				"type": "unocc",
				"energy": -0.02077,
				"method": "rhf"
			},
			{
				"type": "unocc",
				"energy": 0.04864,
				"method": "rhf"
			},
			{
				"type": "unocc",
				"energy": 0.07924,
				"method": "rhf"
			},
			{
				"type": "unocc",
				"energy": 0.09722,
				"method": "rhf"
			},
			{
				"type": "unocc",
				"energy": 0.10342,
				"method": "rhf"
			}
		],
		"cosmo_sigma_profile": { 
			"-0.025": 0.0,
			"-0.024": 0.0,
			"-0.023": 0.0,
			"-0.022": 0.0,
			"-0.021": 0.0,
			"-0.02": 0.0,
			"-0.019": 0.0,
			"-0.018": 0.0,
			"-0.017": 0.0,
			"-0.016": 0.0,
			"-0.015": 0.0,
			"-0.014": 0.0,
			"-0.013": 0.0,
			"-0.012": 0.0,
			"-0.011": 0.0,
			"-0.01": 0.0,
			"-0.009": 0.0,
			"-0.008": 0.392778173044,
			"-0.007": 3.67532840355,
			"-0.006": 9.30068034305,
			"-0.005": 15.9733533109,
			"-0.004": 28.6210331053,
			"-0.003": 32.1655249744,
			"-0.002": 26.3941651872,
			"-0.001": 22.7952200402,
			"0.0": 27.1134511307,
			"0.001": 22.9430040613,
			"0.002": 9.79230801132,
			"0.003": 7.6266243934,
			"0.004": 5.17029408238,
			"0.005": 5.631330491,
			"0.006": 3.63755646969,
			"0.007": 2.98749049405,
			"0.008": 3.00380584211,
			"0.009": 2.31296437509,
			"0.01": 4.38555215331,
			"0.011": 4.84606838151,
			"0.012": 6.00290002173,
			"0.013": 5.44133533607,
			"0.014": 0.803947710586,
			"0.015": 0.0,
			"0.016": 0.0,
			"0.017": 0.0,
			"0.018": 0.0,
			"0.019": 0.0,
			"0.02": 0.0,
			"0.021": 0.0,
			"0.022": 0.0,
			"0.023": 0.0,
			"0.024": 0.0,
			"0.025": 0.0
		}
	}
}
