{
	 "smiles": "CC1=CC=C(C=C1)C1=CC=C(O1)C=C1N=C(OC1=O)C1=CC=CC=C1", 
	 "Tm": 423.15, 
	 "num_atms": 40, 
	 "gaussian": { 
		 "optdone": 1, 
		 "sigma_profile": "yes", 
		 "theory": "DFT", 
		 "functional": "B3LYP", 
		 "basiset": "6-31G**", 
		 "properties": { 
			 "R2extent": 17094.0954, 
			 "electric_dipole_moment_norm": 2.91045067644, 
			 "electric_quadrupole_moment_norm": 33.9243652319, 
			 "total_energy": -1089.70354636, 
			 "HOMO_LUMO_gap": 0.10434, 
			 "cosmo_polarized_energy": -11.63, 
			 "cosmo_cavitation_energy": 46.2, 
			 "cosmo_dispersion_energy": -33.74, 
			 "cosmo_repulsion_energy": 2.48, 
			 "cosmo_total_nonelectrostatic_energy": 14.94, 
			 "SMD_solvation_energy": 7.49 
		},
		"coords": [
			{
				"x": 0.1671609157,
				"y": -8.2417833816,
				"z": -0.3811736699,
				"element": "C" 
			},
			{
				"x": 0.2160815997,
				"y": -6.7493471467,
				"z": -0.6001380944,
				"element": "C" 
			},
			{
				"x": -0.4435823,
				"y": -5.8665989871,
				"z": 0.266128674,
				"element": "C" 
			},
			{
				"x": -0.4257117586,
				"y": -4.4921134451,
				"z": 0.0522140975,
				"element": "C" 
			},
			{
				"x": 0.2630490683,
				"y": -3.9492006609,
				"z": -1.0472704428,
				"element": "C" 
			},
			{
				"x": 0.9303519773,
				"y": -4.8309265534,
				"z": -1.9178133349,
				"element": "C" 
			},
			{
				"x": 0.9049762243,
				"y": -6.2020178134,
				"z": -1.6933670944,
				"element": "C" 
			},
			{
				"x": 0.2919058416,
				"y": -2.5147250287,
				"z": -1.280498807,
				"element": "C" 
			},
			{
				"x": 0.8743143956,
				"y": -1.7275686431,
				"z": -2.2585915699,
				"element": "C" 
			},
			{
				"x": 0.5548404698,
				"y": -0.3878507734,
				"z": -1.9594450912,
				"element": "C" 
			},
			{
				"x": -0.2143253526,
				"y": -0.4057987496,
				"z": -0.8044828669,
				"element": "C" 
			},
			{
				"x": -0.3676364879,
				"y": -1.7197412551,
				"z": -0.3988297754,
				"element": "O" 
			},
			{
				"x": -0.8544525713,
				"y": 0.5469415646,
				"z": 0.0274785037,
				"element": "C" 
			},
			{
				"x": -0.9109917884,
				"y": 1.9119087268,
				"z": -0.0704158111,
				"element": "C" 
			},
			{
				"x": -1.5987777136,
				"y": 2.6970126729,
				"z": 0.8554146699,
				"element": "N" 
			},
			{
				"x": -1.4465601536,
				"y": 3.9210393226,
				"z": 0.4634684296,
				"element": "C" 
			},
			{
				"x": -0.6962972784,
				"y": 4.0856736457,
				"z": -0.6831218073,
				"element": "O" 
			},
			{
				"x": -0.3138631882,
				"y": 2.7997555952,
				"z": -1.084305094,
				"element": "C" 
			},
			{
				"x": 0.3606304051,
				"y": 2.6182513284,
				"z": -2.0710578437,
				"element": "O" 
			},
			{
				"x": -1.9758698146,
				"y": 5.1222092404,
				"z": 1.0959405668,
				"element": "C" 
			},
			{
				"x": -2.7458566758,
				"y": 5.0010232183,
				"z": 2.2663391509,
				"element": "C" 
			},
			{
				"x": -3.257739505,
				"y": 6.138214104,
				"z": 2.8812130015,
				"element": "C" 
			},
			{
				"x": -3.0092254802,
				"y": 7.4038923085,
				"z": 2.3391088382,
				"element": "C" 
			},
			{
				"x": -2.2448771908,
				"y": 7.5275699636,
				"z": 1.1768439654,
				"element": "C" 
			},
			{
				"x": -1.7276706084,
				"y": 6.3938186299,
				"z": 0.5535171856,
				"element": "C" 
			},
			{
				"x": 1.0968770843,
				"y": -8.7241630588,
				"z": -0.6983639795,
				"element": "H" 
			},
			{
				"x": -0.6476067774,
				"y": -8.6993234075,
				"z": -0.9568110941,
				"element": "H" 
			},
			{
				"x": -0.0011807751,
				"y": -8.4867841604,
				"z": 0.671528505,
				"element": "H" 
			},
			{
				"x": -0.9796808759,
				"y": -6.2632382087,
				"z": 1.1246854891,
				"element": "H" 
			},
			{
				"x": -0.9418963721,
				"y": -3.8283694397,
				"z": 0.7370296231,
				"element": "H" 
			},
			{
				"x": 1.4751115447,
				"y": -4.4402346589,
				"z": -2.771829271,
				"element": "H" 
			},
			{
				"x": 1.4311216023,
				"y": -6.8626671915,
				"z": -2.3778946628,
				"element": "H" 
			},
			{
				"x": 1.4625734939,
				"y": -2.0776515536,
				"z": -3.0939773471,
				"element": "H" 
			},
			{
				"x": 0.8330338117,
				"y": 0.5056669285,
				"z": -2.4959499168,
				"element": "H" 
			},
			{
				"x": -1.3840451879,
				"y": 0.1244107908,
				"z": 0.8776650976,
				"element": "H" 
			},
			{
				"x": -2.9282197546,
				"y": 4.0118175772,
				"z": 2.6722821904,
				"element": "H" 
			},
			{
				"x": -3.8520049213,
				"y": 6.0410489749,
				"z": 3.7849993044,
				"element": "H" 
			},
			{
				"x": -3.4107395406,
				"y": 8.2899888232,
				"z": 2.8222226496,
				"element": "H" 
			},
			{
				"x": -2.0509268544,
				"y": 8.5090732824,
				"z": 0.7545973666,
				"element": "H" 
			},
			{
				"x": -1.1333895075,
				"y": 6.4823874197,
				"z": -0.3491397348,
				"element": "H" 
			}
		],
		 "valence_orbital": [ 
			{
				"type": "occ",
				"energy": -0.26735,
				"method": "rhf"
			},
			{
				"type": "occ",
				"energy": -0.25984,
				"method": "rhf"
			},
			{
				"type": "occ",
				"energy": -0.25902,
				"method": "rhf"
			},
			{
				"type": "occ",
				"energy": -0.24396,
				"method": "rhf"
			},
			{
				"type": "occ",
				"energy": -0.19477,
				"method": "rhf"
			},
			{
				"type": "unocc",
				"energy": -0.09043,
				"method": "rhf"
			},
			{
				"type": "unocc",
				"energy": -0.03549,
				"method": "rhf"
			},
			{
				"type": "unocc",
				"energy": -0.0222,
				"method": "rhf"
			},
			{
				"type": "unocc",
				"energy": -0.00954,
				"method": "rhf"
			},
			{
				"type": "unocc",
				"energy": -0.00756,
				"method": "rhf"
			}
		],
		"cosmo_sigma_profile": { 
			"-0.025": 0.0,
			"-0.024": 0.0,
			"-0.023": 0.0,
			"-0.022": 0.0,
			"-0.021": 0.0,
			"-0.02": 0.0,
			"-0.019": 0.0,
			"-0.018": 0.0,
			"-0.017": 0.0,
			"-0.016": 0.0,
			"-0.015": 0.0,
			"-0.014": 0.0,
			"-0.013": 0.0,
			"-0.012": 0.0,
			"-0.011": 0.0,
			"-0.01": 0.0,
			"-0.009": 0.647233707863,
			"-0.008": 4.19529547779,
			"-0.007": 5.52296941818,
			"-0.006": 15.954088762,
			"-0.005": 24.940571365,
			"-0.004": 32.4177510957,
			"-0.003": 24.8435352832,
			"-0.002": 26.5354593275,
			"-0.001": 29.9072945722,
			"0.0": 38.269856287,
			"0.001": 39.9288382291,
			"0.002": 35.0153656823,
			"0.003": 29.6426788838,
			"0.004": 27.4773682321,
			"0.005": 13.1640873666,
			"0.006": 4.24932429546,
			"0.007": 4.11554539909,
			"0.008": 3.50703209069,
			"0.009": 3.19649784507,
			"0.01": 3.16533617842,
			"0.011": 3.87544436588,
			"0.012": 1.77747178502,
			"0.013": 0.267823673157,
			"0.014": 0.0,
			"0.015": 0.0,
			"0.016": 0.0,
			"0.017": 0.0,
			"0.018": 0.0,
			"0.019": 0.0,
			"0.02": 0.0,
			"0.021": 0.0,
			"0.022": 0.0,
			"0.023": 0.0,
			"0.024": 0.0,
			"0.025": 0.0
		}
	}
}
