{
	 "smiles": "O=S1(=O)CCNC2=C1C=CC=C2", 
	 "Tm": 413.15, 
	 "num_atms": 21, 
	 "gaussian": { 
		 "optdone": 1, 
		 "sigma_profile": "yes", 
		 "theory": "DFT", 
		 "functional": "B3LYP", 
		 "basiset": "6-31G**", 
		 "properties": { 
			 "R2extent": 2517.5287, 
			 "electric_dipole_moment_norm": 5.83233555705, 
			 "electric_quadrupole_moment_norm": 13.1285015207, 
			 "total_energy": -913.595474271, 
			 "HOMO_LUMO_gap": 0.18934, 
			 "cosmo_polarized_energy": -18.52, 
			 "cosmo_cavitation_energy": 24.88, 
			 "cosmo_dispersion_energy": -19.43, 
			 "cosmo_repulsion_energy": 1.48, 
			 "cosmo_total_nonelectrostatic_energy": 6.92, 
			 "SMD_solvation_energy": 2.43 
		},
		"coords": [
			{
				"x": 1.3325904924,
				"y": 0.1844627886,
				"z": -1.4481911419,
				"element": "O" 
			},
			{
				"x": 0.2049172694,
				"y": 0.0598406233,
				"z": -0.506124535,
				"element": "S" 
			},
			{
				"x": -1.1735580433,
				"y": 0.2147033326,
				"z": -0.9960285876,
				"element": "O" 
			},
			{
				"x": 0.3954292353,
				"y": -1.5426999331,
				"z": 0.3177525585,
				"element": "C" 
			},
			{
				"x": 1.7198206204,
				"y": -1.5429989869,
				"z": 1.07863193,
				"element": "C" 
			},
			{
				"x": 1.6935578152,
				"y": -0.562099073,
				"z": 2.1542723412,
				"element": "N" 
			},
			{
				"x": 1.2250907507,
				"y": 0.7321082961,
				"z": 1.9980409403,
				"element": "C" 
			},
			{
				"x": 0.4570366719,
				"y": 1.1484320978,
				"z": 0.8868131546,
				"element": "C" 
			},
			{
				"x": -0.0901019823,
				"y": 2.4335251393,
				"z": 0.8188507206,
				"element": "C" 
			},
			{
				"x": 0.1398731964,
				"y": 3.3503773258,
				"z": 1.8368321776,
				"element": "C" 
			},
			{
				"x": 0.9184773719,
				"y": 2.9612274222,
				"z": 2.9341507734,
				"element": "C" 
			},
			{
				"x": 1.4439924229,
				"y": 1.6796052191,
				"z": 3.0205577993,
				"element": "C" 
			},
			{
				"x": -0.4644319011,
				"y": -1.6891990762,
				"z": 0.9761599389,
				"element": "H" 
			},
			{
				"x": 0.3898899938,
				"y": -2.289900624,
				"z": -0.4792877444,
				"element": "H" 
			},
			{
				"x": 1.877091121,
				"y": -2.5302059816,
				"z": 1.5246050089,
				"element": "H" 
			},
			{
				"x": 2.5352862189,
				"y": -1.3622101856,
				"z": 0.3629102333,
				"element": "H" 
			},
			{
				"x": 2.4041270191,
				"y": -0.674809383,
				"z": 2.862063816,
				"element": "H" 
			},
			{
				"x": -0.7002487964,
				"y": 2.6927716995,
				"z": -0.0405813527,
				"element": "H" 
			},
			{
				"x": -0.280263325,
				"y": 4.3487925695,
				"z": 1.7820818193,
				"element": "H" 
			},
			{
				"x": 1.1116367166,
				"y": 3.6652028466,
				"z": 3.7385930778,
				"element": "H" 
			},
			{
				"x": 2.0289871322,
				"y": 1.3875738831,
				"z": 3.8892970719,
				"element": "H" 
			}
		],
		 "valence_orbital": [ 
			{
				"type": "occ",
				"energy": -0.31082,
				"method": "rhf"
			},
			{
				"type": "occ",
				"energy": -0.2937,
				"method": "rhf"
			},
			{
				"type": "occ",
				"energy": -0.28144,
				"method": "rhf"
			},
			{
				"type": "occ",
				"energy": -0.26106,
				"method": "rhf"
			},
			{
				"type": "occ",
				"energy": -0.21705,
				"method": "rhf"
			},
			{
				"type": "unocc",
				"energy": -0.02771,
				"method": "rhf"
			},
			{
				"type": "unocc",
				"energy": -0.00381,
				"method": "rhf"
			},
			{
				"type": "unocc",
				"energy": 0.05438,
				"method": "rhf"
			},
			{
				"type": "unocc",
				"energy": 0.06791,
				"method": "rhf"
			},
			{
				"type": "unocc",
				"energy": 0.07721,
				"method": "rhf"
			}
		],
		"cosmo_sigma_profile": { 
			"-0.025": 0.0,
			"-0.024": 0.0,
			"-0.023": 0.0,
			"-0.022": 0.0,
			"-0.021": 0.0,
			"-0.02": 0.0,
			"-0.019": 0.0,
			"-0.018": 0.0,
			"-0.017": 0.0,
			"-0.016": 0.0,
			"-0.015": 0.0807359507654,
			"-0.014": 1.54106584165,
			"-0.013": 1.12566428205,
			"-0.012": 1.78314831095,
			"-0.011": 1.53741856797,
			"-0.01": 1.58522112257,
			"-0.009": 3.4347479059,
			"-0.008": 7.23973211399,
			"-0.007": 10.8952860361,
			"-0.006": 14.152496277,
			"-0.005": 17.3614932276,
			"-0.004": 15.7598032116,
			"-0.003": 9.78362501331,
			"-0.002": 7.60128283528,
			"-0.001": 7.6176411929,
			"0.0": 7.8351064455,
			"0.001": 7.95609452432,
			"0.002": 8.90534534538,
			"0.003": 12.4468374338,
			"0.004": 13.843265354,
			"0.005": 7.56268507559,
			"0.006": 2.88001990129,
			"0.007": 2.96044376555,
			"0.008": 2.60607892938,
			"0.009": 3.42496745852,
			"0.01": 4.01544470149,
			"0.011": 9.57239725279,
			"0.012": 9.9611307571,
			"0.013": 2.31911684663,
			"0.014": 0.0,
			"0.015": 0.0,
			"0.016": 0.0,
			"0.017": 0.0,
			"0.018": 0.0,
			"0.019": 0.0,
			"0.02": 0.0,
			"0.021": 0.0,
			"0.022": 0.0,
			"0.023": 0.0,
			"0.024": 0.0,
			"0.025": 0.0
		}
	}
}
