{
	 "smiles": "CC1(C)C2CC1C(C)(O)C(=O)C2", 
	 "Tm": 311.65, 
	 "num_atms": 28, 
	 "gaussian": { 
		 "optdone": 1, 
		 "sigma_profile": "yes", 
		 "theory": "DFT", 
		 "functional": "B3LYP", 
		 "basiset": "6-31G**", 
		 "properties": { 
			 "R2extent": 2172.693, 
			 "electric_dipole_moment_norm": 2.10261956616, 
			 "electric_quadrupole_moment_norm": 5.3677751881, 
			 "total_energy": -541.127139658, 
			 "HOMO_LUMO_gap": 0.20846, 
			 "cosmo_polarized_energy": -7.99, 
			 "cosmo_cavitation_energy": 26.94, 
			 "cosmo_dispersion_energy": -19.72, 
			 "cosmo_repulsion_energy": 1.53, 
			 "cosmo_total_nonelectrostatic_energy": 8.76, 
			 "SMD_solvation_energy": 4.85 
		},
		"coords": [
			{
				"x": -0.4063705973,
				"y": -1.020319556,
				"z": 1.5054416551,
				"element": "C" 
			},
			{
				"x": -0.253908104,
				"y": -1.0987108139,
				"z": -0.0189786126,
				"element": "C" 
			},
			{
				"x": 0.161314465,
				"y": -2.5368166288,
				"z": -0.3716527104,
				"element": "C" 
			},
			{
				"x": 0.6551283582,
				"y": -0.032929862,
				"z": -0.7264142878,
				"element": "C" 
			},
			{
				"x": -0.255482596,
				"y": -0.1645267473,
				"z": -1.9754272374,
				"element": "C" 
			},
			{
				"x": -1.3863283763,
				"y": -0.588281223,
				"z": -0.9959991077,
				"element": "C" 
			},
			{
				"x": -2.0941483072,
				"y": 0.6792200122,
				"z": -0.4950285669,
				"element": "C" 
			},
			{
				"x": -3.219130926,
				"y": 0.4197183506,
				"z": 0.51146116,
				"element": "C" 
			},
			{
				"x": -2.657779313,
				"y": 1.3181347931,
				"z": -1.6551241087,
				"element": "O" 
			},
			{
				"x": -1.0451196982,
				"y": 1.692647851,
				"z": 0.052704803,
				"element": "C" 
			},
			{
				"x": -1.4194578009,
				"y": 2.7473897834,
				"z": 0.5317861063,
				"element": "O" 
			},
			{
				"x": 0.4403177509,
				"y": 1.3581425113,
				"z": -0.1163222281,
				"element": "C" 
			},
			{
				"x": -1.1589815013,
				"y": -1.7327819266,
				"z": 1.8617820612,
				"element": "H" 
			},
			{
				"x": 0.5438572605,
				"y": -1.2886668672,
				"z": 1.9830074776,
				"element": "H" 
			},
			{
				"x": -0.6856521814,
				"y": -0.0333662287,
				"z": 1.881458579,
				"element": "H" 
			},
			{
				"x": 1.0986023682,
				"y": -2.7986721592,
				"z": 0.1328496023,
				"element": "H" 
			},
			{
				"x": 0.3086960955,
				"y": -2.6901442795,
				"z": -1.4434408263,
				"element": "H" 
			},
			{
				"x": -0.6034105527,
				"y": -3.2480238512,
				"z": -0.0387902492,
				"element": "H" 
			},
			{
				"x": 1.7212473711,
				"y": -0.2664333154,
				"z": -0.8260599689,
				"element": "H" 
			},
			{
				"x": -0.440935555,
				"y": 0.7364181587,
				"z": -2.5643354682,
				"element": "H" 
			},
			{
				"x": 0.048049892,
				"y": -0.9683210012,
				"z": -2.6474268233,
				"element": "H" 
			},
			{
				"x": -2.1224107383,
				"y": -1.3228180697,
				"z": -1.3406330949,
				"element": "H" 
			},
			{
				"x": -2.8922908656,
				"y": -0.1577570518,
				"z": 1.3781649612,
				"element": "H" 
			},
			{
				"x": -4.0192595021,
				"y": -0.1289829862,
				"z": 0.0064319489,
				"element": "H" 
			},
			{
				"x": -3.6157702686,
				"y": 1.373879329,
				"z": 0.8718058444,
				"element": "H" 
			},
			{
				"x": -3.0031657578,
				"y": 2.1711747572,
				"z": -1.3519979336,
				"element": "H" 
			},
			{
				"x": 0.8748728218,
				"y": 2.1349351765,
				"z": -0.7587490758,
				"element": "H" 
			},
			{
				"x": 0.9211162585,
				"y": 1.4720918448,
				"z": 0.862586101,
				"element": "H" 
			}
		],
		 "valence_orbital": [ 
			{
				"type": "occ",
				"energy": -0.30846,
				"method": "rhf"
			},
			{
				"type": "occ",
				"energy": -0.30061,
				"method": "rhf"
			},
			{
				"type": "occ",
				"energy": -0.29151,
				"method": "rhf"
			},
			{
				"type": "occ",
				"energy": -0.28456,
				"method": "rhf"
			},
			{
				"type": "occ",
				"energy": -0.23542,
				"method": "rhf"
			},
			{
				"type": "unocc",
				"energy": -0.02696,
				"method": "rhf"
			},
			{
				"type": "unocc",
				"energy": 0.07522,
				"method": "rhf"
			},
			{
				"type": "unocc",
				"energy": 0.09223,
				"method": "rhf"
			},
			{
				"type": "unocc",
				"energy": 0.1105,
				"method": "rhf"
			},
			{
				"type": "unocc",
				"energy": 0.11285,
				"method": "rhf"
			}
		],
		"cosmo_sigma_profile": { 
			"-0.025": 0.0,
			"-0.024": 0.0,
			"-0.023": 0.0,
			"-0.022": 0.0,
			"-0.021": 0.0,
			"-0.02": 0.0,
			"-0.019": 0.0,
			"-0.018": 0.0,
			"-0.017": 0.0,
			"-0.016": 0.0,
			"-0.015": 0.0349239991012,
			"-0.014": 0.472215420916,
			"-0.013": 0.703684521676,
			"-0.012": 0.708345687307,
			"-0.011": 0.495045418601,
			"-0.01": 0.857840531647,
			"-0.009": 0.460841742104,
			"-0.008": 0.48739512326,
			"-0.007": 1.13936701387,
			"-0.006": 1.99665335169,
			"-0.005": 6.09423870805,
			"-0.004": 11.9154142807,
			"-0.003": 27.9645190162,
			"-0.002": 32.5504784153,
			"-0.001": 32.2456875355,
			"0.0": 25.8288329627,
			"0.001": 21.4827552825,
			"0.002": 7.19284740361,
			"0.003": 2.98749240616,
			"0.004": 3.73793235508,
			"0.005": 2.19780262911,
			"0.006": 3.40155033666,
			"0.007": 2.42049298382,
			"0.008": 3.10270396559,
			"0.009": 2.85590271286,
			"0.01": 2.81169343999,
			"0.011": 4.5681981815,
			"0.012": 4.55358629476,
			"0.013": 2.18857606309,
			"0.014": 0.456496555561,
			"0.015": 0.0,
			"0.016": 0.0,
			"0.017": 0.0,
			"0.018": 0.0,
			"0.019": 0.0,
			"0.02": 0.0,
			"0.021": 0.0,
			"0.022": 0.0,
			"0.023": 0.0,
			"0.024": 0.0,
			"0.025": 0.0
		}
	}
}
