{
	 "smiles": "CC1=NC(C)=C(C)N=C1C", 
	 "Tm": 358.15, 
	 "num_atms": 22, 
	 "gaussian": { 
		 "optdone": 1, 
		 "sigma_profile": "yes", 
		 "theory": "DFT", 
		 "functional": "B3LYP", 
		 "basiset": "6-31G**", 
		 "properties": { 
			 "R2extent": 2279.1727, 
			 "electric_dipole_moment_norm": 0.0, 
			 "electric_quadrupole_moment_norm": 7.51023250705, 
			 "total_energy": -421.609256128, 
			 "HOMO_LUMO_gap": 0.20601, 
			 "cosmo_polarized_energy": -6.41, 
			 "cosmo_cavitation_energy": 24.77, 
			 "cosmo_dispersion_energy": -18.09, 
			 "cosmo_repulsion_energy": 1.48, 
			 "cosmo_total_nonelectrostatic_energy": 8.16, 
			 "SMD_solvation_energy": 1.94 
		},
		"coords": [
			{
				"x": 0.8781275854,
				"y": 2.5214192505,
				"z": -2.616431855,
				"element": "C" 
			},
			{
				"x": 0.9358820812,
				"y": 1.8805811144,
				"z": -1.2535042834,
				"element": "C" 
			},
			{
				"x": 0.945948994,
				"y": 0.5417803822,
				"z": -1.2059658312,
				"element": "N" 
			},
			{
				"x": 0.996977147,
				"y": -0.0579913533,
				"z": -0.0091290736,
				"element": "C" 
			},
			{
				"x": 1.0067647237,
				"y": -1.5650446153,
				"z": 0.0067411926,
				"element": "C" 
			},
			{
				"x": 1.0391796876,
				"y": 0.7035828168,
				"z": 1.1752414267,
				"element": "C" 
			},
			{
				"x": 1.0969446653,
				"y": 0.0627447028,
				"z": 2.5381684877,
				"element": "C" 
			},
			{
				"x": 1.0291147296,
				"y": 2.042383632,
				"z": 1.1277028901,
				"element": "N" 
			},
			{
				"x": 0.978088485,
				"y": 2.6421553207,
				"z": -0.0691334866,
				"element": "C" 
			},
			{
				"x": 0.9683125452,
				"y": 4.1492085999,
				"z": -0.0850046173,
				"element": "C" 
			},
			{
				"x": 1.7480575667,
				"y": 3.1643358435,
				"z": -2.7971604282,
				"element": "H" 
			},
			{
				"x": -0.0113554784,
				"y": 3.1532285751,
				"z": -2.7278731983,
				"element": "H" 
			},
			{
				"x": 0.8529422942,
				"y": 1.7427136161,
				"z": -3.3803095568,
				"element": "H" 
			},
			{
				"x": 1.9094671716,
				"y": -1.9575581956,
				"z": 0.4903109788,
				"element": "H" 
			},
			{
				"x": 0.9683220911,
				"y": -1.9367797657,
				"z": -1.018373399,
				"element": "H" 
			},
			{
				"x": 0.1500815153,
				"y": -1.9682661504,
				"z": 0.5601715232,
				"element": "H" 
			},
			{
				"x": 0.2270223111,
				"y": -0.5801833157,
				"z": 2.7188947462,
				"element": "H" 
			},
			{
				"x": 1.9864352867,
				"y": -0.5690541082,
				"z": 2.6496089211,
				"element": "H" 
			},
			{
				"x": 1.1221195859,
				"y": 0.8414492081,
				"z": 3.3020472351,
				"element": "H" 
			},
			{
				"x": 0.0655981,
				"y": 4.5417270432,
				"z": -0.5685481641,
				"element": "H" 
			},
			{
				"x": 1.0067867629,
				"y": 4.5209444237,
				"z": 0.940108142,
				"element": "H" 
			},
			{
				"x": 1.824982149,
				"y": 4.5524229751,
				"z": -0.63846165,
				"element": "H" 
			}
		],
		 "valence_orbital": [ 
			{
				"type": "occ",
				"energy": -0.35424,
				"method": "rhf"
			},
			{
				"type": "occ",
				"energy": -0.30203,
				"method": "rhf"
			},
			{
				"type": "occ",
				"energy": -0.28387,
				"method": "rhf"
			},
			{
				"type": "occ",
				"energy": -0.23567,
				"method": "rhf"
			},
			{
				"type": "occ",
				"energy": -0.23345,
				"method": "rhf"
			},
			{
				"type": "unocc",
				"energy": -0.02744,
				"method": "rhf"
			},
			{
				"type": "unocc",
				"energy": -0.00799,
				"method": "rhf"
			},
			{
				"type": "unocc",
				"energy": 0.09622,
				"method": "rhf"
			},
			{
				"type": "unocc",
				"energy": 0.09723,
				"method": "rhf"
			},
			{
				"type": "unocc",
				"energy": 0.12699,
				"method": "rhf"
			}
		],
		"cosmo_sigma_profile": { 
			"-0.025": 0.0,
			"-0.024": 0.0,
			"-0.023": 0.0,
			"-0.022": 0.0,
			"-0.021": 0.0,
			"-0.02": 0.0,
			"-0.019": 0.0,
			"-0.018": 0.0,
			"-0.017": 0.0,
			"-0.016": 0.0,
			"-0.015": 0.0,
			"-0.014": 0.0,
			"-0.013": 0.0,
			"-0.012": 0.0,
			"-0.011": 0.0,
			"-0.01": 0.0,
			"-0.009": 0.0,
			"-0.008": 0.0,
			"-0.007": 0.0,
			"-0.006": 0.0,
			"-0.005": 10.6891224405,
			"-0.004": 23.6488308436,
			"-0.003": 21.2889998992,
			"-0.002": 21.6845338629,
			"-0.001": 26.3831498947,
			"0.0": 32.0841591114,
			"0.001": 16.7534599865,
			"0.002": 6.88784489585,
			"0.003": 5.61368403856,
			"0.004": 4.29491657221,
			"0.005": 4.5085814506,
			"0.006": 3.95471622227,
			"0.007": 3.18778433258,
			"0.008": 1.82101024544,
			"0.009": 1.69294230444,
			"0.01": 3.23062909313,
			"0.011": 2.08442418674,
			"0.012": 1.29976895522,
			"0.013": 1.14918390008,
			"0.014": 1.67442727242,
			"0.015": 0.654998366628,
			"0.016": 0.0,
			"0.017": 0.0,
			"0.018": 0.0,
			"0.019": 0.0,
			"0.02": 0.0,
			"0.021": 0.0,
			"0.022": 0.0,
			"0.023": 0.0,
			"0.024": 0.0,
			"0.025": 0.0
		}
	}
}
