{
	 "smiles": "BrC1=CC=CC=C1C=C", 
	 "Tm": 220.35, 
	 "num_atms": 16, 
	 "gaussian": { 
		 "optdone": 1, 
		 "sigma_profile": "yes", 
		 "theory": "DFT", 
		 "functional": "B3LYP", 
		 "basiset": "6-31G**", 
		 "properties": { 
			 "R2extent": 2226.5731, 
			 "electric_dipole_moment_norm": 1.68602070272, 
			 "electric_quadrupole_moment_norm": 7.75632406878, 
			 "total_energy": -2880.45401294, 
			 "HOMO_LUMO_gap": 0.19151, 
			 "cosmo_polarized_energy": -4.07, 
			 "cosmo_cavitation_energy": 22.04, 
			 "cosmo_dispersion_energy": -16.6, 
			 "cosmo_repulsion_energy": 1.34, 
			 "cosmo_total_nonelectrostatic_energy": 6.78, 
			 "SMD_solvation_energy": 3.37 
		},
		"coords": [
			{
				"x": 0.3185164042,
				"y": -3.0955690335,
				"z": -0.0597931339,
				"element": "Br" 
			},
			{
				"x": 0.6593015876,
				"y": -1.2088653111,
				"z": 0.0468769559,
				"element": "C" 
			},
			{
				"x": 1.9946302022,
				"y": -0.8113370242,
				"z": 0.0969139797,
				"element": "C" 
			},
			{
				"x": 2.3090752093,
				"y": 0.5429629497,
				"z": 0.1892777773,
				"element": "C" 
			},
			{
				"x": 1.283016673,
				"y": 1.4895484523,
				"z": 0.2252708774,
				"element": "C" 
			},
			{
				"x": -0.0433818843,
				"y": 1.0767234874,
				"z": 0.1698365276,
				"element": "C" 
			},
			{
				"x": -0.4009974311,
				"y": -0.284014765,
				"z": 0.0905281694,
				"element": "C" 
			},
			{
				"x": -1.8134925588,
				"y": -0.6979864695,
				"z": 0.0355175459,
				"element": "C" 
			},
			{
				"x": -2.8525777373,
				"y": 0.0068831301,
				"z": 0.4986696251,
				"element": "C" 
			},
			{
				"x": 2.7772796287,
				"y": -1.5606339554,
				"z": 0.0660800794,
				"element": "H" 
			},
			{
				"x": 3.3492039684,
				"y": 0.8524016282,
				"z": 0.2248383871,
				"element": "H" 
			},
			{
				"x": 1.5167674888,
				"y": 2.5483198225,
				"z": 0.2833781648,
				"element": "H" 
			},
			{
				"x": -0.835142968,
				"y": 1.8190799229,
				"z": 0.16460549,
				"element": "H" 
			},
			{
				"x": -2.0006818715,
				"y": -1.6705532056,
				"z": -0.4109569286,
				"element": "H" 
			},
			{
				"x": -3.8660090229,
				"y": -0.368525934,
				"z": 0.4014784255,
				"element": "H" 
			},
			{
				"x": -2.7364076883,
				"y": 0.9633663053,
				"z": 1.0003780576,
				"element": "H" 
			}
		],
		 "valence_orbital": [ 
			{
				"type": "occ",
				"energy": -0.31243,
				"method": "rhf"
			},
			{
				"type": "occ",
				"energy": -0.30294,
				"method": "rhf"
			},
			{
				"type": "occ",
				"energy": -0.28422,
				"method": "rhf"
			},
			{
				"type": "occ",
				"energy": -0.24841,
				"method": "rhf"
			},
			{
				"type": "occ",
				"energy": -0.23143,
				"method": "rhf"
			},
			{
				"type": "unocc",
				"energy": -0.03992,
				"method": "rhf"
			},
			{
				"type": "unocc",
				"energy": -0.01316,
				"method": "rhf"
			},
			{
				"type": "unocc",
				"energy": 0.00825,
				"method": "rhf"
			},
			{
				"type": "unocc",
				"energy": 0.04596,
				"method": "rhf"
			},
			{
				"type": "unocc",
				"energy": 0.10211,
				"method": "rhf"
			}
		],
		"cosmo_sigma_profile": { 
			"-0.025": 0.0,
			"-0.024": 0.0,
			"-0.023": 0.0,
			"-0.022": 0.0,
			"-0.021": 0.0,
			"-0.02": 0.0,
			"-0.019": 0.0,
			"-0.018": 0.0,
			"-0.017": 0.0,
			"-0.016": 0.0,
			"-0.015": 0.0,
			"-0.014": 0.0,
			"-0.013": 0.0,
			"-0.012": 0.0,
			"-0.011": 0.0,
			"-0.01": 0.0,
			"-0.009": 0.0,
			"-0.008": 0.0,
			"-0.007": 2.79823706068,
			"-0.006": 10.8133410194,
			"-0.005": 12.8015092288,
			"-0.004": 13.2253188724,
			"-0.003": 12.2572876955,
			"-0.002": 12.2940157293,
			"-0.001": 12.2073109539,
			"0.0": 12.6242967071,
			"0.001": 14.2715353597,
			"0.002": 19.3130704842,
			"0.003": 23.8630735859,
			"0.004": 22.3102452158,
			"0.005": 9.93316434089,
			"0.006": 1.53903023467,
			"0.007": 0.0234987826668,
			"0.008": 0.0,
			"0.009": 0.0,
			"0.01": 0.0,
			"0.011": 0.0,
			"0.012": 0.0,
			"0.013": 0.0,
			"0.014": 0.0,
			"0.015": 0.0,
			"0.016": 0.0,
			"0.017": 0.0,
			"0.018": 0.0,
			"0.019": 0.0,
			"0.02": 0.0,
			"0.021": 0.0,
			"0.022": 0.0,
			"0.023": 0.0,
			"0.024": 0.0,
			"0.025": 0.0
		}
	}
}
