{
	 "smiles": "COC(=O)COC1=C2C=CC=CC2=C(N)C=C1", 
	 "Tm": 357.15, 
	 "num_atms": 30, 
	 "gaussian": { 
		 "optdone": 1, 
		 "sigma_profile": "yes", 
		 "theory": "DFT", 
		 "functional": "B3LYP", 
		 "basiset": "6-31G**", 
		 "properties": { 
			 "R2extent": 4963.376, 
			 "electric_dipole_moment_norm": 2.32023536953, 
			 "electric_quadrupole_moment_norm": 9.44743377643, 
			 "total_energy": -783.642371897, 
			 "HOMO_LUMO_gap": 0.15525, 
			 "cosmo_polarized_energy": -15.04, 
			 "cosmo_cavitation_energy": 33.84, 
			 "cosmo_dispersion_energy": -24.29, 
			 "cosmo_repulsion_energy": 1.9, 
			 "cosmo_total_nonelectrostatic_energy": 11.45, 
			 "SMD_solvation_energy": 7.2 
		},
		"coords": [
			{
				"x": 2.2371565366,
				"y": -1.543887742,
				"z": 3.6148056486,
				"element": "C" 
			},
			{
				"x": 1.034079314,
				"y": -0.7869662576,
				"z": 3.3936032799,
				"element": "O" 
			},
			{
				"x": -0.105663592,
				"y": -1.4891364886,
				"z": 3.4688010796,
				"element": "C" 
			},
			{
				"x": -0.1744060532,
				"y": -2.6697912055,
				"z": 3.735866571,
				"element": "O" 
			},
			{
				"x": -1.3414623362,
				"y": -0.6166348948,
				"z": 3.241802991,
				"element": "C" 
			},
			{
				"x": -1.1422770822,
				"y": 0.5169527833,
				"z": 2.4308032659,
				"element": "O" 
			},
			{
				"x": -0.967877075,
				"y": 0.3240077832,
				"z": 1.0784285454,
				"element": "C" 
			},
			{
				"x": -0.8163727753,
				"y": 1.5231572676,
				"z": 0.3129974219,
				"element": "C" 
			},
			{
				"x": -0.8378621492,
				"y": 2.8028076578,
				"z": 0.9251207373,
				"element": "C" 
			},
			{
				"x": -0.720527936,
				"y": 3.9501682255,
				"z": 0.170462289,
				"element": "C" 
			},
			{
				"x": -0.5915830374,
				"y": 3.865876589,
				"z": -1.2333061899,
				"element": "C" 
			},
			{
				"x": -0.561658348,
				"y": 2.6348901265,
				"z": -1.8537383475,
				"element": "C" 
			},
			{
				"x": -0.653191271,
				"y": 1.4312092922,
				"z": -1.1068006163,
				"element": "C" 
			},
			{
				"x": -0.5946912484,
				"y": 0.138249744,
				"z": -1.731166311,
				"element": "C" 
			},
			{
				"x": -0.4426178045,
				"y": 0.0493658067,
				"z": -3.127415202,
				"element": "N" 
			},
			{
				"x": -0.7446343403,
				"y": -0.9867322473,
				"z": -0.9459040786,
				"element": "C" 
			},
			{
				"x": -0.9451980789,
				"y": -0.9026762312,
				"z": 0.4532290102,
				"element": "C" 
			},
			{
				"x": 3.054982187,
				"y": -0.832707434,
				"z": 3.5039653994,
				"element": "H" 
			},
			{
				"x": 2.3233740801,
				"y": -2.3473440631,
				"z": 2.8793148559,
				"element": "H" 
			},
			{
				"x": 2.2373832857,
				"y": -1.9797903387,
				"z": 4.6168816139,
				"element": "H" 
			},
			{
				"x": -2.1389418896,
				"y": -1.2667058025,
				"z": 2.8640328544,
				"element": "H" 
			},
			{
				"x": -1.6543578357,
				"y": -0.2316731797,
				"z": 4.2182700949,
				"element": "H" 
			},
			{
				"x": -0.9522691069,
				"y": 2.8581360632,
				"z": 2.0013239712,
				"element": "H" 
			},
			{
				"x": -0.7389880647,
				"y": 4.9224280205,
				"z": 0.6544984146,
				"element": "H" 
			},
			{
				"x": -0.525708745,
				"y": 4.7734672289,
				"z": -1.8265712823,
				"element": "H" 
			},
			{
				"x": -0.5010589712,
				"y": 2.5838474758,
				"z": -2.9360094823,
				"element": "H" 
			},
			{
				"x": -0.2719839679,
				"y": -0.8976330104,
				"z": -3.4423935347,
				"element": "H" 
			},
			{
				"x": 0.2681561568,
				"y": 0.6670975224,
				"z": -3.5009736691,
				"element": "H" 
			},
			{
				"x": -0.7010006877,
				"y": -1.9709631426,
				"z": -1.4059012703,
				"element": "H" 
			},
			{
				"x": -1.0536991639,
				"y": -1.8251195486,
				"z": 1.0118719397,
				"element": "H" 
			}
		],
		 "valence_orbital": [ 
			{
				"type": "occ",
				"energy": -0.28689,
				"method": "rhf"
			},
			{
				"type": "occ",
				"energy": -0.26749,
				"method": "rhf"
			},
			{
				"type": "occ",
				"energy": -0.24792,
				"method": "rhf"
			},
			{
				"type": "occ",
				"energy": -0.23866,
				"method": "rhf"
			},
			{
				"type": "occ",
				"energy": -0.18031,
				"method": "rhf"
			},
			{
				"type": "unocc",
				"energy": -0.02506,
				"method": "rhf"
			},
			{
				"type": "unocc",
				"energy": -0.00797,
				"method": "rhf"
			},
			{
				"type": "unocc",
				"energy": 0.00599,
				"method": "rhf"
			},
			{
				"type": "unocc",
				"energy": 0.05501,
				"method": "rhf"
			},
			{
				"type": "unocc",
				"energy": 0.08008,
				"method": "rhf"
			}
		],
		"cosmo_sigma_profile": { 
			"-0.025": 0.0,
			"-0.024": 0.0,
			"-0.023": 0.0,
			"-0.022": 0.0,
			"-0.021": 0.0,
			"-0.02": 0.0,
			"-0.019": 0.0,
			"-0.018": 0.0,
			"-0.017": 0.0,
			"-0.016": 0.0,
			"-0.015": 0.0,
			"-0.014": 0.0,
			"-0.013": 0.0,
			"-0.012": 1.71587026866,
			"-0.011": 2.76804411751,
			"-0.01": 3.19974971258,
			"-0.009": 4.76622666942,
			"-0.008": 5.61149559454,
			"-0.007": 8.44834548054,
			"-0.006": 16.9320643009,
			"-0.005": 20.3408085797,
			"-0.004": 24.7807294578,
			"-0.003": 20.02725199,
			"-0.002": 14.1280518381,
			"-0.001": 12.3937871687,
			"0.0": 9.739185673,
			"0.001": 12.0200013028,
			"0.002": 11.0464433778,
			"0.003": 15.2438337104,
			"0.004": 23.5255244305,
			"0.005": 22.4594689641,
			"0.006": 12.4246582805,
			"0.007": 5.77039859558,
			"0.008": 3.68029454865,
			"0.009": 3.25090956979,
			"0.01": 3.71055976131,
			"0.011": 4.60321333516,
			"0.012": 4.75864503138,
			"0.013": 0.744600254079,
			"0.014": 0.605893404283,
			"0.015": 0.406942993849,
			"0.016": 0.163055854497,
			"0.017": 0.0,
			"0.018": 0.0,
			"0.019": 0.0,
			"0.02": 0.0,
			"0.021": 0.0,
			"0.022": 0.0,
			"0.023": 0.0,
			"0.024": 0.0,
			"0.025": 0.0
		}
	}
}
