{
	 "smiles": "O=C(COC(=O)C1=CC=CC=C1)N1CCCCC1", 
	 "Tm": 361.15, 
	 "num_atms": 35, 
	 "gaussian": { 
		 "optdone": 1, 
		 "sigma_profile": "yes", 
		 "theory": "DFT", 
		 "functional": "B3LYP", 
		 "basiset": "6-31G**", 
		 "properties": { 
			 "R2extent": 5714.4379, 
			 "electric_dipole_moment_norm": 5.39291655693, 
			 "electric_quadrupole_moment_norm": 13.0026122856, 
			 "total_energy": -824.181882011, 
			 "HOMO_LUMO_gap": 0.18084, 
			 "cosmo_polarized_energy": -15.35, 
			 "cosmo_cavitation_energy": 37.41, 
			 "cosmo_dispersion_energy": -26.13, 
			 "cosmo_repulsion_energy": 2.03, 
			 "cosmo_total_nonelectrostatic_energy": 13.31, 
			 "SMD_solvation_energy": 6.62 
		},
		"coords": [
			{
				"x": -3.5165072957,
				"y": 0.3671446565,
				"z": 1.1438273885,
				"element": "O" 
			},
			{
				"x": -2.5440144002,
				"y": 0.1342595474,
				"z": 0.4330962685,
				"element": "C" 
			},
			{
				"x": -2.0831049805,
				"y": 1.2372217026,
				"z": -0.5323134038,
				"element": "C" 
			},
			{
				"x": -0.6654919464,
				"y": 1.3466014256,
				"z": -0.7506024496,
				"element": "O" 
			},
			{
				"x": 0.0489190261,
				"y": 1.8924158629,
				"z": 0.2708309732,
				"element": "C" 
			},
			{
				"x": -0.4581456039,
				"y": 2.2573366567,
				"z": 1.3111153107,
				"element": "O" 
			},
			{
				"x": 1.5030087483,
				"y": 1.9834677112,
				"z": -0.0406420446,
				"element": "C" 
			},
			{
				"x": 2.0373921593,
				"y": 1.5854454727,
				"z": -1.2745435787,
				"element": "C" 
			},
			{
				"x": 3.4075857255,
				"y": 1.6967240389,
				"z": -1.5060839803,
				"element": "C" 
			},
			{
				"x": 4.2477956446,
				"y": 2.2036177648,
				"z": -0.5116374727,
				"element": "C" 
			},
			{
				"x": 3.7171051062,
				"y": 2.602387204,
				"z": 0.7183742793,
				"element": "C" 
			},
			{
				"x": 2.3490693554,
				"y": 2.4938193654,
				"z": 0.9540316465,
				"element": "C" 
			},
			{
				"x": -1.8817603406,
				"y": -1.0638538209,
				"z": 0.4386455166,
				"element": "N" 
			},
			{
				"x": -0.9082700349,
				"y": -1.5078066979,
				"z": -0.5723506501,
				"element": "C" 
			},
			{
				"x": -1.0374050343,
				"y": -3.0262408533,
				"z": -0.8173256091,
				"element": "C" 
			},
			{
				"x": -2.5054880446,
				"y": -3.4642131975,
				"z": -0.748003937,
				"element": "C" 
			},
			{
				"x": -3.0779037479,
				"y": -3.2249199592,
				"z": 0.6705509523,
				"element": "C" 
			},
			{
				"x": -2.3169703266,
				"y": -2.0915709459,
				"z": 1.3888524245,
				"element": "C" 
			},
			{
				"x": -2.5063164357,
				"y": 1.0652947404,
				"z": -1.5264142792,
				"element": "H" 
			},
			{
				"x": -2.4757772978,
				"y": 2.1672929379,
				"z": -0.1220579091,
				"element": "H" 
			},
			{
				"x": 1.3786017872,
				"y": 1.1979518491,
				"z": -2.0430558588,
				"element": "H" 
			},
			{
				"x": 3.8203462231,
				"y": 1.3899088094,
				"z": -2.4626310989,
				"element": "H" 
			},
			{
				"x": 5.3150481569,
				"y": 2.2891154668,
				"z": -0.6955261769,
				"element": "H" 
			},
			{
				"x": 4.3700953088,
				"y": 2.9974440365,
				"z": 1.4908996688,
				"element": "H" 
			},
			{
				"x": 1.912538776,
				"y": 2.7975827906,
				"z": 1.8994536788,
				"element": "H" 
			},
			{
				"x": -1.1020195723,
				"y": -0.9759203169,
				"z": -1.5069483412,
				"element": "H" 
			},
			{
				"x": 0.1166031111,
				"y": -1.2570032041,
				"z": -0.2690582138,
				"element": "H" 
			},
			{
				"x": -0.4515620504,
				"y": -3.5809574381,
				"z": -0.0742873238,
				"element": "H" 
			},
			{
				"x": -0.5971573744,
				"y": -3.2602057048,
				"z": -1.792683719,
				"element": "H" 
			},
			{
				"x": -2.6088063915,
				"y": -4.5158952303,
				"z": -1.0345220339,
				"element": "H" 
			},
			{
				"x": -3.0804476292,
				"y": -2.8857786275,
				"z": -1.4820784442,
				"element": "H" 
			},
			{
				"x": -3.0007840171,
				"y": -4.1361220662,
				"z": 1.2756507402,
				"element": "H" 
			},
			{
				"x": -4.1413875717,
				"y": -2.9738372366,
				"z": 0.6071214306,
				"element": "H" 
			},
			{
				"x": -1.4252645257,
				"y": -2.4871622587,
				"z": 1.8906516922,
				"element": "H" 
			},
			{
				"x": -2.9390245071,
				"y": -1.6027444815,
				"z": 2.1372645539,
				"element": "H" 
			}
		],
		 "valence_orbital": [ 
			{
				"type": "occ",
				"energy": -0.27676,
				"method": "rhf"
			},
			{
				"type": "occ",
				"energy": -0.26432,
				"method": "rhf"
			},
			{
				"type": "occ",
				"energy": -0.26224,
				"method": "rhf"
			},
			{
				"type": "occ",
				"energy": -0.24211,
				"method": "rhf"
			},
			{
				"type": "occ",
				"energy": -0.2305,
				"method": "rhf"
			},
			{
				"type": "unocc",
				"energy": -0.04966,
				"method": "rhf"
			},
			{
				"type": "unocc",
				"energy": -0.0122,
				"method": "rhf"
			},
			{
				"type": "unocc",
				"energy": 0.02396,
				"method": "rhf"
			},
			{
				"type": "unocc",
				"energy": 0.05391,
				"method": "rhf"
			},
			{
				"type": "unocc",
				"energy": 0.07444,
				"method": "rhf"
			}
		],
		"cosmo_sigma_profile": { 
			"-0.025": 0.0,
			"-0.024": 0.0,
			"-0.023": 0.0,
			"-0.022": 0.0,
			"-0.021": 0.0,
			"-0.02": 0.0,
			"-0.019": 0.0,
			"-0.018": 0.0,
			"-0.017": 0.0,
			"-0.016": 0.0,
			"-0.015": 0.0,
			"-0.014": 0.0,
			"-0.013": 0.0,
			"-0.012": 0.0,
			"-0.011": 0.0,
			"-0.01": 0.0,
			"-0.009": 0.328890382519,
			"-0.008": 3.62296631164,
			"-0.007": 4.29450457341,
			"-0.006": 12.5272734092,
			"-0.005": 15.7248174949,
			"-0.004": 26.2689699602,
			"-0.003": 34.9419816334,
			"-0.002": 35.5169887836,
			"-0.001": 31.7191650617,
			"0.0": 26.6527485673,
			"0.001": 20.8524823367,
			"0.002": 15.1554876588,
			"0.003": 15.0933776334,
			"0.004": 14.1010835637,
			"0.005": 3.72747778201,
			"0.006": 2.97520025972,
			"0.007": 2.83498061584,
			"0.008": 2.76011087661,
			"0.009": 3.46153276299,
			"0.01": 4.11356616228,
			"0.011": 5.92480263608,
			"0.012": 3.27503027329,
			"0.013": 3.79691899417,
			"0.014": 4.66222907732,
			"0.015": 0.486796563285,
			"0.016": 0.0,
			"0.017": 0.0,
			"0.018": 0.0,
			"0.019": 0.0,
			"0.02": 0.0,
			"0.021": 0.0,
			"0.022": 0.0,
			"0.023": 0.0,
			"0.024": 0.0,
			"0.025": 0.0
		}
	}
}
