{
	 "smiles": "CCN1C(CCl)=NC2=C1C=CC=C2F", 
	 "Tm": 389.15, 
	 "num_atms": 24, 
	 "gaussian": { 
		 "optdone": 1, 
		 "sigma_profile": "yes", 
		 "theory": "DFT", 
		 "functional": "B3LYP", 
		 "basiset": "6-31G**", 
		 "properties": { 
			 "R2extent": 3998.6447, 
			 "electric_dipole_moment_norm": 4.76132938684, 
			 "electric_quadrupole_moment_norm": 10.8723031934, 
			 "total_energy": -1056.63909147, 
			 "HOMO_LUMO_gap": 0.18501, 
			 "cosmo_polarized_energy": -12.0, 
			 "cosmo_cavitation_energy": 29.85, 
			 "cosmo_dispersion_energy": -21.21, 
			 "cosmo_repulsion_energy": 1.65, 
			 "cosmo_total_nonelectrostatic_energy": 10.29, 
			 "SMD_solvation_energy": 3.07 
		},
		"coords": [
			{
				"x": 1.3428718337,
				"y": 1.2550078231,
				"z": 1.8971713308,
				"element": "C" 
			},
			{
				"x": 0.414173592,
				"y": 0.1013143663,
				"z": 2.2870115732,
				"element": "C" 
			},
			{
				"x": -0.3785008894,
				"y": -0.3992751347,
				"z": 1.1655982498,
				"element": "N" 
			},
			{
				"x": -1.6698282957,
				"y": -0.0478280937,
				"z": 0.8089792518,
				"element": "C" 
			},
			{
				"x": -2.506248425,
				"y": 0.9124025289,
				"z": 1.574139524,
				"element": "C" 
			},
			{
				"x": -3.096954917,
				"y": 0.2310028144,
				"z": 3.1739574601,
				"element": "Cl" 
			},
			{
				"x": -2.0938049647,
				"y": -0.6399128722,
				"z": -0.2857518863,
				"element": "N" 
			},
			{
				"x": -1.0328828258,
				"y": -1.4227296247,
				"z": -0.6910419542,
				"element": "C" 
			},
			{
				"x": 0.0585400399,
				"y": -1.2921202646,
				"z": 0.2008573826,
				"element": "C" 
			},
			{
				"x": 1.2661213694,
				"y": -1.9803834092,
				"z": 0.0323086881,
				"element": "C" 
			},
			{
				"x": 1.3543429581,
				"y": -2.8205732796,
				"z": -1.0729198035,
				"element": "C" 
			},
			{
				"x": 0.2876621581,
				"y": -2.9739700777,
				"z": -1.9822168353,
				"element": "C" 
			},
			{
				"x": -0.8948087946,
				"y": -2.2799381489,
				"z": -1.7913656509,
				"element": "C" 
			},
			{
				"x": -1.9119931631,
				"y": -2.4250703784,
				"z": -2.656086089,
				"element": "F" 
			},
			{
				"x": 0.7729673713,
				"y": 2.1159501833,
				"z": 1.5344772795,
				"element": "H" 
			},
			{
				"x": 2.0367255315,
				"y": 0.9528415062,
				"z": 1.1076328444,
				"element": "H" 
			},
			{
				"x": 1.9280499414,
				"y": 1.5745944101,
				"z": 2.7650858834,
				"element": "H" 
			},
			{
				"x": 0.9920649298,
				"y": -0.7407272528,
				"z": 2.681538881,
				"element": "H" 
			},
			{
				"x": -0.2768388837,
				"y": 0.4018963353,
				"z": 3.0776345744,
				"element": "H" 
			},
			{
				"x": -3.3931800648,
				"y": 1.1376465607,
				"z": 0.9864212426,
				"element": "H" 
			},
			{
				"x": -1.9796026484,
				"y": 1.8327955503,
				"z": 1.8294373241,
				"element": "H" 
			},
			{
				"x": 2.0959803968,
				"y": -1.8709082744,
				"z": 0.7223502406,
				"element": "H" 
			},
			{
				"x": 2.270465696,
				"y": -3.3766109024,
				"z": -1.2463196691,
				"element": "H" 
			},
			{
				"x": 0.3760780541,
				"y": -3.6335043652,
				"z": -2.838399842,
				"element": "H" 
			}
		],
		 "valence_orbital": [ 
			{
				"type": "occ",
				"energy": -0.30543,
				"method": "rhf"
			},
			{
				"type": "occ",
				"energy": -0.29958,
				"method": "rhf"
			},
			{
				"type": "occ",
				"energy": -0.28231,
				"method": "rhf"
			},
			{
				"type": "occ",
				"energy": -0.23707,
				"method": "rhf"
			},
			{
				"type": "occ",
				"energy": -0.22436,
				"method": "rhf"
			},
			{
				"type": "unocc",
				"energy": -0.03935,
				"method": "rhf"
			},
			{
				"type": "unocc",
				"energy": 0.01124,
				"method": "rhf"
			},
			{
				"type": "unocc",
				"energy": 0.01582,
				"method": "rhf"
			},
			{
				"type": "unocc",
				"energy": 0.04886,
				"method": "rhf"
			},
			{
				"type": "unocc",
				"energy": 0.07959,
				"method": "rhf"
			}
		],
		"cosmo_sigma_profile": { 
			"-0.025": 0.0,
			"-0.024": 0.0,
			"-0.023": 0.0,
			"-0.022": 0.0,
			"-0.021": 0.0,
			"-0.02": 0.0,
			"-0.019": 0.0,
			"-0.018": 0.0,
			"-0.017": 0.0,
			"-0.016": 0.0,
			"-0.015": 0.0,
			"-0.014": 0.0,
			"-0.013": 0.0,
			"-0.012": 0.0,
			"-0.011": 0.0,
			"-0.01": 0.0,
			"-0.009": 1.57111604696,
			"-0.008": 5.87522353356,
			"-0.007": 8.96110604223,
			"-0.006": 14.0490213807,
			"-0.005": 15.9314499974,
			"-0.004": 19.2162547812,
			"-0.003": 15.1528905531,
			"-0.002": 14.9052227329,
			"-0.001": 14.4903420889,
			"0.0": 19.1789995905,
			"0.001": 16.5086049618,
			"0.002": 17.6090769376,
			"0.003": 17.7075659183,
			"0.004": 22.7041644001,
			"0.005": 16.5009072562,
			"0.006": 8.35786281453,
			"0.007": 1.92483317486,
			"0.008": 1.51688187316,
			"0.009": 1.10086206302,
			"0.01": 1.61237954955,
			"0.011": 1.04727164141,
			"0.012": 0.847144940692,
			"0.013": 0.785745355492,
			"0.014": 1.47516260093,
			"0.015": 0.527584455099,
			"0.016": 0.657138671514,
			"0.017": 0.03776511224,
			"0.018": 0.0,
			"0.019": 0.0,
			"0.02": 0.0,
			"0.021": 0.0,
			"0.022": 0.0,
			"0.023": 0.0,
			"0.024": 0.0,
			"0.025": 0.0
		}
	}
}
