{
	 "smiles": "FC(F)(F)CNC(=O)C1=CC=C(Br)C=C1", 
	 "Tm": 393.15, 
	 "num_atms": 22, 
	 "gaussian": { 
		 "optdone": 1, 
		 "sigma_profile": "yes", 
		 "theory": "DFT", 
		 "functional": "B3LYP", 
		 "basiset": "6-31G**", 
		 "properties": { 
			 "R2extent": 7420.1156, 
			 "electric_dipole_moment_norm": 2.36997129308, 
			 "electric_quadrupole_moment_norm": 9.83584811036, 
			 "total_energy": -3348.0962051, 
			 "HOMO_LUMO_gap": 0.20034, 
			 "cosmo_polarized_energy": -11.78, 
			 "cosmo_cavitation_energy": 30.34, 
			 "cosmo_dispersion_energy": -21.78, 
			 "cosmo_repulsion_energy": 1.66, 
			 "cosmo_total_nonelectrostatic_energy": 10.21, 
			 "SMD_solvation_energy": 5.44 
		},
		"coords": [
			{
				"x": -3.0491251244,
				"y": -1.027949597,
				"z": -0.6810866742,
				"element": "F" 
			},
			{
				"x": -1.9435131519,
				"y": -1.6204768766,
				"z": -0.1870958956,
				"element": "C" 
			},
			{
				"x": -0.9130800017,
				"y": -1.3180959927,
				"z": -1.0059216544,
				"element": "F" 
			},
			{
				"x": -2.1249234586,
				"y": -2.9562404259,
				"z": -0.2443137394,
				"element": "F" 
			},
			{
				"x": -1.701536254,
				"y": -1.1649722094,
				"z": 1.2448683102,
				"element": "C" 
			},
			{
				"x": -0.5676536016,
				"y": -1.8362938051,
				"z": 1.8416596486,
				"element": "N" 
			},
			{
				"x": 0.4776396328,
				"y": -1.2736064601,
				"z": 2.55535797,
				"element": "C" 
			},
			{
				"x": 1.0755927119,
				"y": -1.9410411181,
				"z": 3.389509256,
				"element": "O" 
			},
			{
				"x": 0.8824969515,
				"y": 0.1426468521,
				"z": 2.2655552451,
				"element": "C" 
			},
			{
				"x": 0.8967768416,
				"y": 0.6968613082,
				"z": 0.9775980724,
				"element": "C" 
			},
			{
				"x": 1.3646918023,
				"y": 1.9948254216,
				"z": 0.7699871784,
				"element": "C" 
			},
			{
				"x": 1.8132901879,
				"y": 2.7390861434,
				"z": 1.8595394608,
				"element": "C" 
			},
			{
				"x": 2.4384246825,
				"y": 4.5210675128,
				"z": 1.5831867046,
				"element": "Br" 
			},
			{
				"x": 1.822635521,
				"y": 2.2015436989,
				"z": 3.147682032,
				"element": "C" 
			},
			{
				"x": 1.3697950282,
				"y": 0.8998926533,
				"z": 3.3403336217,
				"element": "C" 
			},
			{
				"x": -1.5468976039,
				"y": -0.0862671766,
				"z": 1.2417272826,
				"element": "H" 
			},
			{
				"x": -2.6262329767,
				"y": -1.3675160278,
				"z": 1.7997095566,
				"element": "H" 
			},
			{
				"x": -0.7207216334,
				"y": -2.7980190228,
				"z": 2.1210778553,
				"element": "H" 
			},
			{
				"x": 0.5688441397,
				"y": 0.1114297,
				"z": 0.1260695493,
				"element": "H" 
			},
			{
				"x": 1.3865802308,
				"y": 2.4190198451,
				"z": -0.2272291445,
				"element": "H" 
			},
			{
				"x": 2.1868162803,
				"y": 2.7903256163,
				"z": 3.9817013485,
				"element": "H" 
			},
			{
				"x": 1.3957997956,
				"y": 0.4499799604,
				"z": 4.327084016,
				"element": "H" 
			}
		],
		 "valence_orbital": [ 
			{
				"type": "occ",
				"energy": -0.29603,
				"method": "rhf"
			},
			{
				"type": "occ",
				"energy": -0.28056,
				"method": "rhf"
			},
			{
				"type": "occ",
				"energy": -0.27663,
				"method": "rhf"
			},
			{
				"type": "occ",
				"energy": -0.26623,
				"method": "rhf"
			},
			{
				"type": "occ",
				"energy": -0.25106,
				"method": "rhf"
			},
			{
				"type": "unocc",
				"energy": -0.05072,
				"method": "rhf"
			},
			{
				"type": "unocc",
				"energy": -0.02719,
				"method": "rhf"
			},
			{
				"type": "unocc",
				"energy": -0.0012,
				"method": "rhf"
			},
			{
				"type": "unocc",
				"energy": 0.03296,
				"method": "rhf"
			},
			{
				"type": "unocc",
				"energy": 0.07577,
				"method": "rhf"
			}
		],
		"cosmo_sigma_profile": { 
			"-0.025": 0.0,
			"-0.024": 0.0,
			"-0.023": 0.0,
			"-0.022": 0.0,
			"-0.021": 0.0,
			"-0.02": 0.0,
			"-0.019": 0.0,
			"-0.018": 0.0,
			"-0.017": 0.0,
			"-0.016": 0.0,
			"-0.015": 0.0123518322766,
			"-0.014": 0.705212813865,
			"-0.013": 0.9005693153,
			"-0.012": 0.923803674335,
			"-0.011": 1.44884289174,
			"-0.01": 0.952526215275,
			"-0.009": 2.47577473584,
			"-0.008": 7.83933700246,
			"-0.007": 9.48816022008,
			"-0.006": 11.5917618442,
			"-0.005": 13.0842606133,
			"-0.004": 11.1970197079,
			"-0.003": 13.7195660418,
			"-0.002": 11.8983906551,
			"-0.001": 13.3972407393,
			"0.0": 15.5692310555,
			"0.001": 24.4619189647,
			"0.002": 39.9328537464,
			"0.003": 32.2412583062,
			"0.004": 13.000227047,
			"0.005": 3.74171755248,
			"0.006": 1.56273689808,
			"0.007": 0.774196460896,
			"0.008": 1.56656655824,
			"0.009": 1.49911142388,
			"0.01": 1.35859077598,
			"0.011": 2.0219602763,
			"0.012": 3.21442444959,
			"0.013": 5.02317616897,
			"0.014": 0.909763891099,
			"0.015": 0.0,
			"0.016": 0.0,
			"0.017": 0.0,
			"0.018": 0.0,
			"0.019": 0.0,
			"0.02": 0.0,
			"0.021": 0.0,
			"0.022": 0.0,
			"0.023": 0.0,
			"0.024": 0.0,
			"0.025": 0.0
		}
	}
}
