{
	 "smiles": "CCCCC(N)P(O)(O)=O", 
	 "Tm": 541.15, 
	 "num_atms": 24, 
	 "gaussian": { 
		 "optdone": 1, 
		 "sigma_profile": "yes", 
		 "theory": "DFT", 
		 "functional": "B3LYP", 
		 "basiset": "6-31G**", 
		 "properties": { 
			 "R2extent": 2334.9134, 
			 "electric_dipole_moment_norm": 1.42185855133, 
			 "electric_quadrupole_moment_norm": 8.9601538787, 
			 "total_energy": -820.82685638, 
			 "HOMO_LUMO_gap": 0.27596, 
			 "cosmo_polarized_energy": -16.15, 
			 "cosmo_cavitation_energy": 27.63, 
			 "cosmo_dispersion_energy": -20.11, 
			 "cosmo_repulsion_energy": 1.66, 
			 "cosmo_total_nonelectrostatic_energy": 9.18, 
			 "SMD_solvation_energy": 5.42 
		},
		"coords": [
			{
				"x": -3.617720891,
				"y": -2.4167448355,
				"z": -0.0096159066,
				"element": "C" 
			},
			{
				"x": -2.2671417418,
				"y": -2.5220163005,
				"z": 0.7089885964,
				"element": "C" 
			},
			{
				"x": -1.0771298379,
				"y": -1.9399027343,
				"z": -0.0716432551,
				"element": "C" 
			},
			{
				"x": -1.1651187217,
				"y": -0.4218677806,
				"z": -0.2922570237,
				"element": "C" 
			},
			{
				"x": 0.0398384703,
				"y": 0.1921076961,
				"z": -1.0269143564,
				"element": "C" 
			},
			{
				"x": -0.2834613453,
				"y": 1.5403148158,
				"z": -1.5020545329,
				"element": "N" 
			},
			{
				"x": 1.572159755,
				"y": 0.1747649055,
				"z": -0.0051491845,
				"element": "P" 
			},
			{
				"x": 1.2125194728,
				"y": 1.2945137462,
				"z": 1.1294412118,
				"element": "O" 
			},
			{
				"x": 2.6204059763,
				"y": 0.9306369491,
				"z": -1.006310299,
				"element": "O" 
			},
			{
				"x": 2.1223638482,
				"y": -1.0888402598,
				"z": 0.5622508945,
				"element": "O" 
			},
			{
				"x": -4.4115779184,
				"y": -2.8964256082,
				"z": 0.5724475926,
				"element": "H" 
			},
			{
				"x": -3.9164342955,
				"y": -1.376058886,
				"z": -0.1728989346,
				"element": "H" 
			},
			{
				"x": -3.5819099817,
				"y": -2.9077931238,
				"z": -0.9892337096,
				"element": "H" 
			},
			{
				"x": -2.3334890697,
				"y": -2.02655438,
				"z": 1.6875582531,
				"element": "H" 
			},
			{
				"x": -2.0574758443,
				"y": -3.5780288616,
				"z": 0.920331639,
				"element": "H" 
			},
			{
				"x": -0.1486057666,
				"y": -2.178791594,
				"z": 0.4575179546,
				"element": "H" 
			},
			{
				"x": -1.0098217226,
				"y": -2.4384624578,
				"z": -1.0495191482,
				"element": "H" 
			},
			{
				"x": -2.0397044599,
				"y": -0.1692236224,
				"z": -0.9012132932,
				"element": "H" 
			},
			{
				"x": -1.2976630512,
				"y": 0.089705878,
				"z": 0.6712272161,
				"element": "H" 
			},
			{
				"x": 0.2727941907,
				"y": -0.4257494545,
				"z": -1.9035934514,
				"element": "H" 
			},
			{
				"x": -0.4452525873,
				"y": 2.1563737855,
				"z": -0.7081542983,
				"element": "H" 
			},
			{
				"x": 0.497621363,
				"y": 1.930130808,
				"z": -2.0238594353,
				"element": "H" 
			},
			{
				"x": 1.624335896,
				"y": 1.0482385125,
				"z": 1.9700858365,
				"element": "H" 
			},
			{
				"x": 3.4941682627,
				"y": 0.5229728022,
				"z": -0.9189323656,
				"element": "H" 
			}
		],
		 "valence_orbital": [ 
			{
				"type": "occ",
				"energy": -0.32171,
				"method": "rhf"
			},
			{
				"type": "occ",
				"energy": -0.31926,
				"method": "rhf"
			},
			{
				"type": "occ",
				"energy": -0.29748,
				"method": "rhf"
			},
			{
				"type": "occ",
				"energy": -0.29031,
				"method": "rhf"
			},
			{
				"type": "occ",
				"energy": -0.2376,
				"method": "rhf"
			},
			{
				"type": "unocc",
				"energy": 0.03836,
				"method": "rhf"
			},
			{
				"type": "unocc",
				"energy": 0.06794,
				"method": "rhf"
			},
			{
				"type": "unocc",
				"energy": 0.08093,
				"method": "rhf"
			},
			{
				"type": "unocc",
				"energy": 0.09971,
				"method": "rhf"
			},
			{
				"type": "unocc",
				"energy": 0.10842,
				"method": "rhf"
			}
		],
		"cosmo_sigma_profile": { 
			"-0.025": 0.0,
			"-0.024": 0.0,
			"-0.023": 0.0,
			"-0.022": 0.0,
			"-0.021": 0.0,
			"-0.02": 0.0,
			"-0.019": 0.397656777329,
			"-0.018": 1.67807999307,
			"-0.017": 1.73887843726,
			"-0.016": 1.30880878947,
			"-0.015": 2.05512850049,
			"-0.014": 1.41154026441,
			"-0.013": 0.868275208143,
			"-0.012": 0.62837006855,
			"-0.011": 1.82641778431,
			"-0.01": 3.52202296214,
			"-0.009": 3.27123018754,
			"-0.008": 3.37775643451,
			"-0.007": 3.17788804115,
			"-0.006": 5.89572044419,
			"-0.005": 7.30722676228,
			"-0.004": 6.35320767388,
			"-0.003": 10.8519159557,
			"-0.002": 23.8690957136,
			"-0.001": 22.7182373713,
			"0.0": 26.3391027677,
			"0.001": 21.2493309582,
			"0.002": 10.5688529712,
			"0.003": 3.88096792385,
			"0.004": 4.26800805435,
			"0.005": 3.67527764551,
			"0.006": 4.47264028003,
			"0.007": 4.65610734501,
			"0.008": 5.21153300244,
			"0.009": 3.78852745517,
			"0.01": 3.41382699585,
			"0.011": 2.3423560074,
			"0.012": 1.45654318708,
			"0.013": 2.23932197041,
			"0.014": 3.90395605562,
			"0.015": 5.63921080065,
			"0.016": 0.499695731293,
			"0.017": 0.469403818205,
			"0.018": 0.361485215795,
			"0.019": 0.0,
			"0.02": 0.0,
			"0.021": 0.0,
			"0.022": 0.0,
			"0.023": 0.0,
			"0.024": 0.0,
			"0.025": 0.0
		}
	}
}
