{
	 "smiles": "COC(=O)C1=CC=C(C=C1)N1N=N1", 
	 "Tm": 313.15, 
	 "num_atms": 20, 
	 "gaussian": { 
		 "optdone": 1, 
		 "sigma_profile": "yes", 
		 "theory": "DFT", 
		 "functional": "B3LYP", 
		 "basiset": "6-31G**", 
		 "properties": { 
			 "R2extent": 3555.5589, 
			 "electric_dipole_moment_norm": 2.26221930634, 
			 "electric_quadrupole_moment_norm": 7.30151908715, 
			 "total_energy": -623.646814922, 
			 "HOMO_LUMO_gap": 0.16659, 
			 "cosmo_polarized_energy": -7.7, 
			 "cosmo_cavitation_energy": 26.13, 
			 "cosmo_dispersion_energy": -18.77, 
			 "cosmo_repulsion_energy": 1.47, 
			 "cosmo_total_nonelectrostatic_energy": 8.82, 
			 "SMD_solvation_energy": 4.42 
		},
		"coords": [
			{
				"x": 3.5401553439,
				"y": 1.9331376597,
				"z": -0.3277292099,
				"element": "C" 
			},
			{
				"x": 2.5725190658,
				"y": 0.9209423081,
				"z": -0.6473730085,
				"element": "O" 
			},
			{
				"x": 1.7070045297,
				"y": 0.6181048455,
				"z": 0.346552631,
				"element": "C" 
			},
			{
				"x": 1.7317199427,
				"y": 1.1548969719,
				"z": 1.4371170634,
				"element": "O" 
			},
			{
				"x": 0.7310729742,
				"y": -0.4356374099,
				"z": -0.0494952741,
				"element": "C" 
			},
			{
				"x": 0.7353810574,
				"y": -1.0288045081,
				"z": -1.3176080276,
				"element": "C" 
			},
			{
				"x": -0.1983074132,
				"y": -2.0111890043,
				"z": -1.6418196535,
				"element": "C" 
			},
			{
				"x": -1.1463164558,
				"y": -2.4048959744,
				"z": -0.6885645107,
				"element": "C" 
			},
			{
				"x": -1.1556089315,
				"y": -1.814268753,
				"z": 0.5835053417,
				"element": "C" 
			},
			{
				"x": -0.2224487293,
				"y": -0.8366716462,
				"z": 0.8985311917,
				"element": "C" 
			},
			{
				"x": -2.1690335243,
				"y": -3.3977514562,
				"z": -0.8668275375,
				"element": "N" 
			},
			{
				"x": -1.7502551807,
				"y": -4.3946252656,
				"z": -1.9678750606,
				"element": "N" 
			},
			{
				"x": -2.5017417426,
				"y": -3.5489358826,
				"z": -2.3661117413,
				"element": "N" 
			},
			{
				"x": 4.148152559,
				"y": 2.052156155,
				"z": -1.224433504,
				"element": "H" 
			},
			{
				"x": 4.1584933652,
				"y": 1.6206470692,
				"z": 0.5173851084,
				"element": "H" 
			},
			{
				"x": 3.0437241744,
				"y": 2.8725710889,
				"z": -0.0723162546,
				"element": "H" 
			},
			{
				"x": 1.4716763171,
				"y": -0.7193557855,
				"z": -2.0501369944,
				"element": "H" 
			},
			{
				"x": -0.1818260224,
				"y": -2.4605497088,
				"z": -2.6273972674,
				"element": "H" 
			},
			{
				"x": -1.8998896168,
				"y": -2.1364281868,
				"z": 1.3041848232,
				"element": "H" 
			},
			{
				"x": -0.2123717128,
				"y": -0.3674425166,
				"z": 1.8762118846,
				"element": "H" 
			}
		],
		 "valence_orbital": [ 
			{
				"type": "occ",
				"energy": -0.3095,
				"method": "rhf"
			},
			{
				"type": "occ",
				"energy": -0.30709,
				"method": "rhf"
			},
			{
				"type": "occ",
				"energy": -0.2795,
				"method": "rhf"
			},
			{
				"type": "occ",
				"energy": -0.27261,
				"method": "rhf"
			},
			{
				"type": "occ",
				"energy": -0.25457,
				"method": "rhf"
			},
			{
				"type": "unocc",
				"energy": -0.08798,
				"method": "rhf"
			},
			{
				"type": "unocc",
				"energy": -0.05699,
				"method": "rhf"
			},
			{
				"type": "unocc",
				"energy": -0.01948,
				"method": "rhf"
			},
			{
				"type": "unocc",
				"energy": 0.02327,
				"method": "rhf"
			},
			{
				"type": "unocc",
				"energy": 0.02922,
				"method": "rhf"
			}
		],
		"cosmo_sigma_profile": { 
			"-0.025": 0.0,
			"-0.024": 0.0,
			"-0.023": 0.0,
			"-0.022": 0.0,
			"-0.021": 0.0,
			"-0.02": 0.0,
			"-0.019": 0.0,
			"-0.018": 0.0,
			"-0.017": 0.0,
			"-0.016": 0.0,
			"-0.015": 0.0,
			"-0.014": 0.0,
			"-0.013": 0.0,
			"-0.012": 0.0,
			"-0.011": 0.0,
			"-0.01": 0.0,
			"-0.009": 0.207178049248,
			"-0.008": 1.78808201531,
			"-0.007": 6.38181686454,
			"-0.006": 11.8272889573,
			"-0.005": 13.6037844611,
			"-0.004": 16.8315871265,
			"-0.003": 17.1550866379,
			"-0.002": 14.8963147753,
			"-0.001": 15.3488173196,
			"0.0": 20.2529341584,
			"0.001": 21.2897633276,
			"0.002": 23.5762323046,
			"0.003": 11.272011962,
			"0.004": 8.47938503513,
			"0.005": 7.23959973999,
			"0.006": 2.72204312503,
			"0.007": 2.63675931262,
			"0.008": 2.47334491466,
			"0.009": 2.38961413257,
			"0.01": 2.50885741848,
			"0.011": 4.24464641439,
			"0.012": 3.46426828678,
			"0.013": 0.068625166961,
			"0.014": 0.0,
			"0.015": 0.0,
			"0.016": 0.0,
			"0.017": 0.0,
			"0.018": 0.0,
			"0.019": 0.0,
			"0.02": 0.0,
			"0.021": 0.0,
			"0.022": 0.0,
			"0.023": 0.0,
			"0.024": 0.0,
			"0.025": 0.0
		}
	}
}
