{
	 "smiles": "CN1N=C(C)C2=C1SC(=C2)C(O)=O", 
	 "Tm": 533.15, 
	 "num_atms": 21, 
	 "gaussian": { 
		 "optdone": 1, 
		 "sigma_profile": "yes", 
		 "theory": "DFT", 
		 "functional": "B3LYP", 
		 "basiset": "6-31G**", 
		 "properties": { 
			 "R2extent": 3327.2002, 
			 "electric_dipole_moment_norm": 5.05348534974, 
			 "electric_quadrupole_moment_norm": 25.4906368936, 
			 "total_energy": -967.786444177, 
			 "HOMO_LUMO_gap": 0.17662, 
			 "cosmo_polarized_energy": -16.13, 
			 "cosmo_cavitation_energy": 27.36, 
			 "cosmo_dispersion_energy": -20.54, 
			 "cosmo_repulsion_energy": 1.59, 
			 "cosmo_total_nonelectrostatic_energy": 8.4, 
			 "SMD_solvation_energy": 4.81 
		},
		"coords": [
			{
				"x": 2.1329778954,
				"y": -1.4997582666,
				"z": 0.7742815046,
				"element": "C" 
			},
			{
				"x": 1.4146129179,
				"y": -0.4032438254,
				"z": 0.1569082762,
				"element": "N" 
			},
			{
				"x": 2.0486706733,
				"y": 0.7957732514,
				"z": -0.0498370244,
				"element": "N" 
			},
			{
				"x": 1.1670063461,
				"y": 1.6096713328,
				"z": -0.6230472838,
				"element": "C" 
			},
			{
				"x": 1.5442518929,
				"y": 3.0115747791,
				"z": -0.9848822986,
				"element": "C" 
			},
			{
				"x": -0.0820939435,
				"y": 0.9398083757,
				"z": -0.802774111,
				"element": "C" 
			},
			{
				"x": 0.1418177015,
				"y": -0.3401060599,
				"z": -0.2849108508,
				"element": "C" 
			},
			{
				"x": -1.2452184379,
				"y": -1.3807864665,
				"z": -0.3814996036,
				"element": "S" 
			},
			{
				"x": -2.1635315392,
				"y": -0.0438573653,
				"z": -1.148427253,
				"element": "C" 
			},
			{
				"x": -1.4090969363,
				"y": 1.0921128746,
				"z": -1.2933989924,
				"element": "C" 
			},
			{
				"x": -3.5734838199,
				"y": -0.1577855481,
				"z": -1.5743959319,
				"element": "C" 
			},
			{
				"x": -4.2114237833,
				"y": -1.3435385267,
				"z": -1.3724081238,
				"element": "O" 
			},
			{
				"x": -4.1680285976,
				"y": 0.7629765405,
				"z": -2.0876999823,
				"element": "O" 
			},
			{
				"x": 3.0009410066,
				"y": -1.7702167786,
				"z": 0.1672186674,
				"element": "H" 
			},
			{
				"x": 2.4713783612,
				"y": -1.2128056124,
				"z": 1.7733676764,
				"element": "H" 
			},
			{
				"x": 1.4664109284,
				"y": -2.3602937769,
				"z": 0.8531543548,
				"element": "H" 
			},
			{
				"x": 2.5834183654,
				"y": 3.198173512,
				"z": -0.7067936055,
				"element": "H" 
			},
			{
				"x": 1.434266209,
				"y": 3.1871377714,
				"z": -2.0607432712,
				"element": "H" 
			},
			{
				"x": 0.9089286482,
				"y": 3.7395124134,
				"z": -0.4682912272,
				"element": "H" 
			},
			{
				"x": -1.8309455992,
				"y": 1.9833622152,
				"z": -1.7417938138,
				"element": "H" 
			},
			{
				"x": -3.638358289,
				"y": -2.0022108397,
				"z": -0.9555271059,
				"element": "H" 
			}
		],
		 "valence_orbital": [ 
			{
				"type": "occ",
				"energy": -0.30345,
				"method": "rhf"
			},
			{
				"type": "occ",
				"energy": -0.2943,
				"method": "rhf"
			},
			{
				"type": "occ",
				"energy": -0.27375,
				"method": "rhf"
			},
			{
				"type": "occ",
				"energy": -0.24912,
				"method": "rhf"
			},
			{
				"type": "occ",
				"energy": -0.23,
				"method": "rhf"
			},
			{
				"type": "unocc",
				"energy": -0.05338,
				"method": "rhf"
			},
			{
				"type": "unocc",
				"energy": -0.01913,
				"method": "rhf"
			},
			{
				"type": "unocc",
				"energy": 0.004,
				"method": "rhf"
			},
			{
				"type": "unocc",
				"energy": 0.03308,
				"method": "rhf"
			},
			{
				"type": "unocc",
				"energy": 0.06257,
				"method": "rhf"
			}
		],
		"cosmo_sigma_profile": { 
			"-0.025": 0.0,
			"-0.024": 0.0,
			"-0.023": 0.0,
			"-0.022": 0.0,
			"-0.021": 0.0,
			"-0.02": 0.0,
			"-0.019": 0.0386640839085,
			"-0.018": 0.604143701469,
			"-0.017": 0.960306435309,
			"-0.016": 0.722837815705,
			"-0.015": 0.67977339481,
			"-0.014": 0.709255092778,
			"-0.013": 0.898501741122,
			"-0.012": 1.67382176568,
			"-0.011": 0.883309223978,
			"-0.01": 0.637669472627,
			"-0.009": 1.04575320807,
			"-0.008": 5.01743270948,
			"-0.007": 6.91516715601,
			"-0.006": 9.86944595033,
			"-0.005": 13.7515811923,
			"-0.004": 19.9090922333,
			"-0.003": 17.6301255012,
			"-0.002": 13.5638338052,
			"-0.001": 15.3370603362,
			"0.0": 17.1982325551,
			"0.001": 17.3101772135,
			"0.002": 17.8001482195,
			"0.003": 10.5807187373,
			"0.004": 4.46765571796,
			"0.005": 4.15632211269,
			"0.006": 4.46299704898,
			"0.007": 3.92250058115,
			"0.008": 3.52882191398,
			"0.009": 3.62419405425,
			"0.01": 6.23323489338,
			"0.011": 5.5049616862,
			"0.012": 6.94856046306,
			"0.013": 2.98847368825,
			"0.014": 0.577841404649,
			"0.015": 0.727359914789,
			"0.016": 0.0111583657526,
			"0.017": 0.0,
			"0.018": 0.0,
			"0.019": 0.0,
			"0.02": 0.0,
			"0.021": 0.0,
			"0.022": 0.0,
			"0.023": 0.0,
			"0.024": 0.0,
			"0.025": 0.0
		}
	}
}
