{
	 "smiles": "CC(C)(C)OC(=O)N[C@@H](CC1=CC=C(N)C=C1)C(O)=O", 
	 "Tm": 398.15, 
	 "num_atms": 40, 
	 "gaussian": { 
		 "optdone": 1, 
		 "sigma_profile": "yes", 
		 "theory": "DFT", 
		 "functional": "B3LYP", 
		 "basiset": "6-31G**", 
		 "properties": { 
			 "R2extent": 7316.9318, 
			 "electric_dipole_moment_norm": 8.20853922693, 
			 "electric_quadrupole_moment_norm": 13.4891627364, 
			 "total_energy": -956.000489536, 
			 "HOMO_LUMO_gap": 0.19792, 
			 "cosmo_polarized_energy": -20.11, 
			 "cosmo_cavitation_energy": 42.66, 
			 "cosmo_dispersion_energy": -28.45, 
			 "cosmo_repulsion_energy": 2.19, 
			 "cosmo_total_nonelectrostatic_energy": 16.4, 
			 "SMD_solvation_energy": 8.49 
		},
		"coords": [
			{
				"x": -2.0476717363,
				"y": 3.1957220652,
				"z": 0.3934387133,
				"element": "C" 
			},
			{
				"x": -0.6744652114,
				"y": 3.754475657,
				"z": 0.7762354489,
				"element": "C" 
			},
			{
				"x": -0.2322252369,
				"y": 4.834324919,
				"z": -0.2171088734,
				"element": "C" 
			},
			{
				"x": -0.6817513932,
				"y": 4.2626885214,
				"z": 2.2221060271,
				"element": "C" 
			},
			{
				"x": 0.1985349839,
				"y": 2.5748238675,
				"z": 0.6596585215,
				"element": "O" 
			},
			{
				"x": 1.5289397427,
				"y": 2.6693255422,
				"z": 0.934965144,
				"element": "C" 
			},
			{
				"x": 2.1188726083,
				"y": 3.6787691607,
				"z": 1.2804553216,
				"element": "O" 
			},
			{
				"x": 2.143079889,
				"y": 1.4609276419,
				"z": 0.7549831833,
				"element": "N" 
			},
			{
				"x": 1.4811655531,
				"y": 0.197476625,
				"z": 0.510972661,
				"element": "C" 
			},
			{
				"x": 1.1008731581,
				"y": 0.0116496208,
				"z": -0.9926292435,
				"element": "C" 
			},
			{
				"x": 0.1260080276,
				"y": -1.115066042,
				"z": -1.266762139,
				"element": "C" 
			},
			{
				"x": 0.5068843107,
				"y": -2.2791989926,
				"z": -1.9535737254,
				"element": "C" 
			},
			{
				"x": -0.4004552242,
				"y": -3.3028652876,
				"z": -2.2170014244,
				"element": "C" 
			},
			{
				"x": -1.7377956955,
				"y": -3.1994691148,
				"z": -1.7976044973,
				"element": "C" 
			},
			{
				"x": -2.6361573829,
				"y": -4.2402821607,
				"z": -2.0058464659,
				"element": "N" 
			},
			{
				"x": -2.1299225887,
				"y": -2.0354922268,
				"z": -1.1088407492,
				"element": "C" 
			},
			{
				"x": -1.2154901145,
				"y": -1.0204070054,
				"z": -0.8542645962,
				"element": "C" 
			},
			{
				"x": 2.4242087816,
				"y": -0.9085038637,
				"z": 1.0112471526,
				"element": "C" 
			},
			{
				"x": 1.9666489912,
				"y": -2.1689221684,
				"z": 0.9034473764,
				"element": "O" 
			},
			{
				"x": 3.5161838504,
				"y": -0.6819505164,
				"z": 1.4790085469,
				"element": "O" 
			},
			{
				"x": -2.0333889859,
				"y": 2.7936109657,
				"z": -0.6242023569,
				"element": "H" 
			},
			{
				"x": -2.801519241,
				"y": 3.9872313354,
				"z": 0.4396673485,
				"element": "H" 
			},
			{
				"x": -2.3457416356,
				"y": 2.3974022974,
				"z": 1.0801947703,
				"element": "H" 
			},
			{
				"x": 0.7560538147,
				"y": 5.2161555397,
				"z": 0.038830243,
				"element": "H" 
			},
			{
				"x": -0.2042182625,
				"y": 4.4279146969,
				"z": -1.2333530024,
				"element": "H" 
			},
			{
				"x": -0.948277418,
				"y": 5.662509879,
				"z": -0.2026331775,
				"element": "H" 
			},
			{
				"x": -0.9605322561,
				"y": 3.4555103851,
				"z": 2.9071782365,
				"element": "H" 
			},
			{
				"x": 0.2989441874,
				"y": 4.644303647,
				"z": 2.5056653292,
				"element": "H" 
			},
			{
				"x": -1.41935786,
				"y": 5.0652489157,
				"z": 2.3253292366,
				"element": "H" 
			},
			{
				"x": 3.0980492696,
				"y": 1.3996944887,
				"z": 1.087032854,
				"element": "H" 
			},
			{
				"x": 0.5564935944,
				"y": 0.1391745811,
				"z": 1.0999784208,
				"element": "H" 
			},
			{
				"x": 0.6603314895,
				"y": 0.9633480395,
				"z": -1.3022779365,
				"element": "H" 
			},
			{
				"x": 2.0188375182,
				"y": -0.1212680487,
				"z": -1.5751578052,
				"element": "H" 
			},
			{
				"x": 1.5337066032,
				"y": -2.3850558327,
				"z": -2.2949350599,
				"element": "H" 
			},
			{
				"x": -0.0720786427,
				"y": -4.1914355117,
				"z": -2.7501310077,
				"element": "H" 
			},
			{
				"x": -3.6143808543,
				"y": -3.9889708419,
				"z": -1.9930638237,
				"element": "H" 
			},
			{
				"x": -2.40904154,
				"y": -4.8761551515,
				"z": -2.7570898458,
				"element": "H" 
			},
			{
				"x": -3.1599196432,
				"y": -1.9324186598,
				"z": -0.7762951392,
				"element": "H" 
			},
			{
				"x": -1.5505937595,
				"y": -0.1251623162,
				"z": -0.3356651182,
				"element": "H" 
			},
			{
				"x": 1.1212683086,
				"y": -2.189164651,
				"z": 0.420241452,
				"element": "H" 
			}
		],
		 "valence_orbital": [ 
			{
				"type": "occ",
				"energy": -0.27864,
				"method": "rhf"
			},
			{
				"type": "occ",
				"energy": -0.26538,
				"method": "rhf"
			},
			{
				"type": "occ",
				"energy": -0.25986,
				"method": "rhf"
			},
			{
				"type": "occ",
				"energy": -0.2509,
				"method": "rhf"
			},
			{
				"type": "occ",
				"energy": -0.2164,
				"method": "rhf"
			},
			{
				"type": "unocc",
				"energy": -0.01848,
				"method": "rhf"
			},
			{
				"type": "unocc",
				"energy": -0.00736,
				"method": "rhf"
			},
			{
				"type": "unocc",
				"energy": 0.00911,
				"method": "rhf"
			},
			{
				"type": "unocc",
				"energy": 0.056,
				"method": "rhf"
			},
			{
				"type": "unocc",
				"energy": 0.06724,
				"method": "rhf"
			}
		],
		"cosmo_sigma_profile": { 
			"-0.025": 0.0,
			"-0.024": 0.0,
			"-0.023": 0.0,
			"-0.022": 0.0,
			"-0.021": 0.0,
			"-0.02": 0.0,
			"-0.019": 0.0,
			"-0.018": 0.0,
			"-0.017": 0.0,
			"-0.016": 0.0,
			"-0.015": 0.0,
			"-0.014": 0.0,
			"-0.013": 0.661256412609,
			"-0.012": 2.87027970609,
			"-0.011": 3.57476545959,
			"-0.01": 4.64567272874,
			"-0.009": 4.72550423053,
			"-0.008": 5.1754831496,
			"-0.007": 7.76022576526,
			"-0.006": 11.3586855613,
			"-0.005": 13.0617904058,
			"-0.004": 23.4350545334,
			"-0.003": 31.0203745983,
			"-0.002": 29.5878364468,
			"-0.001": 33.3996254177,
			"0.0": 35.1400285104,
			"0.001": 26.1625151353,
			"0.002": 14.8612634537,
			"0.003": 13.378441819,
			"0.004": 11.6906227074,
			"0.005": 11.0722069455,
			"0.006": 9.96018834937,
			"0.007": 4.59450305179,
			"0.008": 5.44677911441,
			"0.009": 6.40962753303,
			"0.01": 7.02100247019,
			"0.011": 6.36187057903,
			"0.012": 4.45707173842,
			"0.013": 4.43970532231,
			"0.014": 2.27013238987,
			"0.015": 0.0234996024701,
			"0.016": 0.0,
			"0.017": 0.0,
			"0.018": 0.0,
			"0.019": 0.0,
			"0.02": 0.0,
			"0.021": 0.0,
			"0.022": 0.0,
			"0.023": 0.0,
			"0.024": 0.0,
			"0.025": 0.0
		}
	}
}
