{
	 "smiles": "[O-][N+](=O)C1=CC=C(C=C1)N1CCCC1=O", 
	 "Tm": 402.15, 
	 "num_atms": 25, 
	 "gaussian": { 
		 "optdone": 1, 
		 "sigma_profile": "yes", 
		 "theory": "DFT", 
		 "functional": "B3LYP", 
		 "basiset": "6-31G**", 
		 "properties": { 
			 "R2extent": 4397.8739, 
			 "electric_dipole_moment_norm": 7.64294111583, 
			 "electric_quadrupole_moment_norm": 19.4931953184, 
			 "total_energy": -722.188286008, 
			 "HOMO_LUMO_gap": 0.16008, 
			 "cosmo_polarized_energy": -14.67, 
			 "cosmo_cavitation_energy": 28.92, 
			 "cosmo_dispersion_energy": -21.66, 
			 "cosmo_repulsion_energy": 1.67, 
			 "cosmo_total_nonelectrostatic_energy": 8.93, 
			 "SMD_solvation_energy": 7.14 
		},
		"coords": [
			{
				"x": -4.1071524861,
				"y": -2.7504546948,
				"z": 0.7352564245,
				"element": "O" 
			},
			{
				"x": -3.7685926257,
				"y": -2.3652064969,
				"z": -0.3848226436,
				"element": "N" 
			},
			{
				"x": -4.3567007067,
				"y": -2.6515893631,
				"z": -1.4297620112,
				"element": "O" 
			},
			{
				"x": -2.5859955586,
				"y": -1.5086291147,
				"z": -0.4822050192,
				"element": "C" 
			},
			{
				"x": -2.1770313005,
				"y": -1.0513161202,
				"z": -1.732058397,
				"element": "C" 
			},
			{
				"x": -1.0536251162,
				"y": -0.2399582754,
				"z": -1.8224328908,
				"element": "C" 
			},
			{
				"x": -0.3279369275,
				"y": 0.1203590641,
				"z": -0.6675989319,
				"element": "C" 
			},
			{
				"x": -0.7648738248,
				"y": -0.3537222257,
				"z": 0.5887377768,
				"element": "C" 
			},
			{
				"x": -1.8888551039,
				"y": -1.1631182477,
				"z": 0.6752965412,
				"element": "C" 
			},
			{
				"x": 0.8146474609,
				"y": 0.9294405366,
				"z": -0.7965607751,
				"element": "N" 
			},
			{
				"x": 1.3586669769,
				"y": 1.2910470437,
				"z": -2.1148514874,
				"element": "C" 
			},
			{
				"x": 2.7327583209,
				"y": 1.9056485102,
				"z": -1.7960078673,
				"element": "C" 
			},
			{
				"x": 2.553993185,
				"y": 2.4721136824,
				"z": -0.3847101385,
				"element": "C" 
			},
			{
				"x": 1.4754731346,
				"y": 1.5955843791,
				"z": 0.2422071662,
				"element": "C" 
			},
			{
				"x": 1.2240081724,
				"y": 1.5120512207,
				"z": 1.4298545,
				"element": "O" 
			},
			{
				"x": -2.741156274,
				"y": -1.3309366931,
				"z": -2.6128966336,
				"element": "H" 
			},
			{
				"x": -0.7527317697,
				"y": 0.1196822796,
				"z": -2.7982073898,
				"element": "H" 
			},
			{
				"x": -0.2224187921,
				"y": -0.0735188775,
				"z": 1.4790724882,
				"element": "H" 
			},
			{
				"x": -2.2329636646,
				"y": -1.535453396,
				"z": 1.6321817581,
				"element": "H" 
			},
			{
				"x": 1.4379247337,
				"y": 0.4047016007,
				"z": -2.750188292,
				"element": "H" 
			},
			{
				"x": 0.6972112038,
				"y": 2.0104471768,
				"z": -2.6168820899,
				"element": "H" 
			},
			{
				"x": 3.4950418951,
				"y": 1.1204605469,
				"z": -1.7927851198,
				"element": "H" 
			},
			{
				"x": 3.0249579128,
				"y": 2.6526691757,
				"z": -2.5371267205,
				"element": "H" 
			},
			{
				"x": 2.1796443643,
				"y": 3.5035590857,
				"z": -0.3982455861,
				"element": "H" 
			},
			{
				"x": 3.45350679,
				"y": 2.459139203,
				"z": 0.2335353388,
				"element": "H" 
			}
		],
		 "valence_orbital": [ 
			{
				"type": "occ",
				"energy": -0.29956,
				"method": "rhf"
			},
			{
				"type": "occ",
				"energy": -0.28214,
				"method": "rhf"
			},
			{
				"type": "occ",
				"energy": -0.2756,
				"method": "rhf"
			},
			{
				"type": "occ",
				"energy": -0.26783,
				"method": "rhf"
			},
			{
				"type": "occ",
				"energy": -0.2424,
				"method": "rhf"
			},
			{
				"type": "unocc",
				"energy": -0.08232,
				"method": "rhf"
			},
			{
				"type": "unocc",
				"energy": -0.02363,
				"method": "rhf"
			},
			{
				"type": "unocc",
				"energy": -0.01384,
				"method": "rhf"
			},
			{
				"type": "unocc",
				"energy": 0.03273,
				"method": "rhf"
			},
			{
				"type": "unocc",
				"energy": 0.06577,
				"method": "rhf"
			}
		],
		"cosmo_sigma_profile": { 
			"-0.025": 0.0,
			"-0.024": 0.0,
			"-0.023": 0.0,
			"-0.022": 0.0,
			"-0.021": 0.0,
			"-0.02": 0.0,
			"-0.019": 0.0,
			"-0.018": 0.0,
			"-0.017": 0.0,
			"-0.016": 0.0,
			"-0.015": 0.0,
			"-0.014": 0.0,
			"-0.013": 0.0,
			"-0.012": 0.0,
			"-0.011": 0.0,
			"-0.01": 0.0,
			"-0.009": 0.0,
			"-0.008": 2.16275459112,
			"-0.007": 7.4927018347,
			"-0.006": 16.5203921802,
			"-0.005": 24.412975136,
			"-0.004": 24.0573562498,
			"-0.003": 17.7009772168,
			"-0.002": 16.6084848515,
			"-0.001": 17.8927623726,
			"0.0": 13.9265055275,
			"0.001": 15.830487064,
			"0.002": 14.8838788269,
			"0.003": 7.14301123501,
			"0.004": 4.06979616044,
			"0.005": 3.39425694289,
			"0.006": 5.25522513304,
			"0.007": 6.71128636031,
			"0.008": 11.3526678983,
			"0.009": 6.69975996321,
			"0.01": 6.0837088781,
			"0.011": 3.34134905037,
			"0.012": 2.9392591888,
			"0.013": 1.97361851686,
			"0.014": 0.220561299492,
			"0.015": 0.0,
			"0.016": 0.0,
			"0.017": 0.0,
			"0.018": 0.0,
			"0.019": 0.0,
			"0.02": 0.0,
			"0.021": 0.0,
			"0.022": 0.0,
			"0.023": 0.0,
			"0.024": 0.0,
			"0.025": 0.0
		}
	}
}
