{
	 "smiles": "COC1=CC(=CC=C1S(Cl)(=O)=O)[N+]([O-])=O", 
	 "Tm": 370.15, 
	 "num_atms": 21, 
	 "gaussian": { 
		 "optdone": 1, 
		 "sigma_profile": "yes", 
		 "theory": "DFT", 
		 "functional": "B3LYP", 
		 "basiset": "6-31G**", 
		 "properties": { 
			 "R2extent": 5243.3708, 
			 "electric_dipole_moment_norm": 2.74210439079, 
			 "electric_quadrupole_moment_norm": 23.2732215969, 
			 "total_energy": -1559.419873, 
			 "HOMO_LUMO_gap": 0.15503, 
			 "cosmo_polarized_energy": -14.0, 
			 "cosmo_cavitation_energy": 29.88, 
			 "cosmo_dispersion_energy": -21.93, 
			 "cosmo_repulsion_energy": 1.67, 
			 "cosmo_total_nonelectrostatic_energy": 9.63, 
			 "SMD_solvation_energy": 7.04 
		},
		"coords": [
			{
				"x": -1.0767161775,
				"y": -1.1450563341,
				"z": -1.5151067008,
				"element": "C" 
			},
			{
				"x": -1.1781418613,
				"y": -0.5910921636,
				"z": -0.2022383274,
				"element": "O" 
			},
			{
				"x": -0.0975656034,
				"y": -0.5864530864,
				"z": 0.5923655086,
				"element": "C" 
			},
			{
				"x": 1.1508256327,
				"y": -1.1107533813,
				"z": 0.2365527641,
				"element": "C" 
			},
			{
				"x": 2.1891717968,
				"y": -1.0611710845,
				"z": 1.1609379266,
				"element": "C" 
			},
			{
				"x": 2.0584002996,
				"y": -0.5187739855,
				"z": 2.4340520515,
				"element": "C" 
			},
			{
				"x": 0.8169963182,
				"y": 0.0024244282,
				"z": 2.7914539483,
				"element": "C" 
			},
			{
				"x": -0.2401371802,
				"y": -0.025988273,
				"z": 1.8830424736,
				"element": "C" 
			},
			{
				"x": -1.780043962,
				"y": 0.7350708827,
				"z": 2.4008559817,
				"element": "S" 
			},
			{
				"x": -3.0641248742,
				"y": -0.9521979324,
				"z": 2.5163101749,
				"element": "Cl" 
			},
			{
				"x": -2.3023183444,
				"y": 1.6015191406,
				"z": 1.3556816022,
				"element": "O" 
			},
			{
				"x": -1.6063387789,
				"y": 1.2058352096,
				"z": 3.7698121114,
				"element": "O" 
			},
			{
				"x": 3.4987424885,
				"y": -1.6219827198,
				"z": 0.7579556905,
				"element": "N" 
			},
			{
				"x": 4.4085246945,
				"y": -1.5768530691,
				"z": 1.5810113755,
				"element": "O" 
			},
			{
				"x": 3.588969639,
				"y": -2.0952995914,
				"z": -0.3728835112,
				"element": "O" 
			},
			{
				"x": -0.3388278776,
				"y": -0.6016679068,
				"z": -2.1152117736,
				"element": "H" 
			},
			{
				"x": -2.0657457472,
				"y": -1.026799741,
				"z": -1.9557353196,
				"element": "H" 
			},
			{
				"x": -0.8151374863,
				"y": -2.2081508778,
				"z": -1.475489095,
				"element": "H" 
			},
			{
				"x": 1.3342676636,
				"y": -1.5544080011,
				"z": -0.7315757989,
				"element": "H" 
			},
			{
				"x": 2.901271363,
				"y": -0.5091497563,
				"z": 3.1117834508,
				"element": "H" 
			},
			{
				"x": 0.6569279971,
				"y": 0.4369482428,
				"z": 3.7710254667,
				"element": "H" 
			}
		],
		 "valence_orbital": [ 
			{
				"type": "occ",
				"energy": -0.3287,
				"method": "rhf"
			},
			{
				"type": "occ",
				"energy": -0.31896,
				"method": "rhf"
			},
			{
				"type": "occ",
				"energy": -0.31376,
				"method": "rhf"
			},
			{
				"type": "occ",
				"energy": -0.3117,
				"method": "rhf"
			},
			{
				"type": "occ",
				"energy": -0.27543,
				"method": "rhf"
			},
			{
				"type": "unocc",
				"energy": -0.1204,
				"method": "rhf"
			},
			{
				"type": "unocc",
				"energy": -0.08536,
				"method": "rhf"
			},
			{
				"type": "unocc",
				"energy": -0.04665,
				"method": "rhf"
			},
			{
				"type": "unocc",
				"energy": -0.03409,
				"method": "rhf"
			},
			{
				"type": "unocc",
				"energy": 0.03606,
				"method": "rhf"
			}
		],
		"cosmo_sigma_profile": { 
			"-0.025": 0.0,
			"-0.024": 0.0,
			"-0.023": 0.0,
			"-0.022": 0.0,
			"-0.021": 0.0,
			"-0.02": 0.0,
			"-0.019": 0.0,
			"-0.018": 0.0,
			"-0.017": 0.0,
			"-0.016": 0.0,
			"-0.015": 0.0,
			"-0.014": 0.0,
			"-0.013": 0.0,
			"-0.012": 0.0,
			"-0.011": 0.0,
			"-0.01": 0.296758978031,
			"-0.009": 4.47229506916,
			"-0.008": 8.73352702891,
			"-0.007": 13.1046424501,
			"-0.006": 13.1301000187,
			"-0.005": 15.3233427978,
			"-0.004": 15.2665436109,
			"-0.003": 17.9977588373,
			"-0.002": 21.7582670664,
			"-0.001": 15.3959653077,
			"0.0": 10.25195099,
			"0.001": 10.8690178487,
			"0.002": 11.9246858058,
			"0.003": 15.5750636495,
			"0.004": 10.2724132625,
			"0.005": 9.20261063251,
			"0.006": 10.619601312,
			"0.007": 15.0205270042,
			"0.008": 15.4006406622,
			"0.009": 7.45291979931,
			"0.01": 0.724888476129,
			"0.011": 0.0,
			"0.012": 0.0,
			"0.013": 0.0,
			"0.014": 0.0,
			"0.015": 0.0,
			"0.016": 0.0,
			"0.017": 0.0,
			"0.018": 0.0,
			"0.019": 0.0,
			"0.02": 0.0,
			"0.021": 0.0,
			"0.022": 0.0,
			"0.023": 0.0,
			"0.024": 0.0,
			"0.025": 0.0
		}
	}
}
