{
	 "smiles": "CCOC(=O)C1=C2NC3=CC=CC=C3N2C=NC1=S", 
	 "Tm": 469.15, 
	 "num_atms": 30, 
	 "gaussian": { 
		 "optdone": 1, 
		 "sigma_profile": "yes", 
		 "theory": "DFT", 
		 "functional": "B3LYP", 
		 "basiset": "6-31G**", 
		 "properties": { 
			 "R2extent": 7091.3533, 
			 "electric_dipole_moment_norm": 11.0355933551, 
			 "electric_quadrupole_moment_norm": 31.5376813092, 
			 "total_energy": -1214.90784952, 
			 "HOMO_LUMO_gap": 0.11451, 
			 "cosmo_polarized_energy": -34.92, 
			 "cosmo_cavitation_energy": 36.26, 
			 "cosmo_dispersion_energy": -26.56, 
			 "cosmo_repulsion_energy": 1.97, 
			 "cosmo_total_nonelectrostatic_energy": 11.68, 
			 "SMD_solvation_energy": 4.51 
		},
		"coords": [
			{
				"x": 0.1637037608,
				"y": 1.9942959951,
				"z": -2.6765123347,
				"element": "C" 
			},
			{
				"x": 1.3512218101,
				"y": 1.5822380975,
				"z": -1.8263558691,
				"element": "C" 
			},
			{
				"x": 0.8390997755,
				"y": 0.9555588202,
				"z": -0.6269404263,
				"element": "O" 
			},
			{
				"x": 1.809405481,
				"y": 0.5027827363,
				"z": 0.2517504299,
				"element": "C" 
			},
			{
				"x": 2.9841064883,
				"y": 0.6386210041,
				"z": 0.007002212,
				"element": "O" 
			},
			{
				"x": 1.215143911,
				"y": -0.0940317589,
				"z": 1.4670582052,
				"element": "C" 
			},
			{
				"x": -0.1218991713,
				"y": 0.1194366069,
				"z": 1.7786298265,
				"element": "C" 
			},
			{
				"x": -1.1428026904,
				"y": 0.7250696446,
				"z": 1.1002411724,
				"element": "N" 
			},
			{
				"x": -2.3154875598,
				"y": 0.6842695677,
				"z": 1.8477539002,
				"element": "C" 
			},
			{
				"x": -3.5987413917,
				"y": 1.1520984499,
				"z": 1.5842470241,
				"element": "C" 
			},
			{
				"x": -4.5690768996,
				"y": 0.9475389153,
				"z": 2.5702223528,
				"element": "C" 
			},
			{
				"x": -4.2652119517,
				"y": 0.2977392496,
				"z": 3.7737451959,
				"element": "C" 
			},
			{
				"x": -2.9757639778,
				"y": -0.1757698289,
				"z": 4.0378531156,
				"element": "C" 
			},
			{
				"x": -2.0140521851,
				"y": 0.0315887433,
				"z": 3.0567362447,
				"element": "C" 
			},
			{
				"x": -0.6520345338,
				"y": -0.3081338162,
				"z": 2.9868055609,
				"element": "N" 
			},
			{
				"x": 0.2087119359,
				"y": -0.8463968741,
				"z": 3.9309157871,
				"element": "C" 
			},
			{
				"x": 1.4349516865,
				"y": -1.1167569209,
				"z": 3.6854413369,
				"element": "N" 
			},
			{
				"x": 1.987733774,
				"y": -0.9143097199,
				"z": 2.4023800398,
				"element": "C" 
			},
			{
				"x": 3.4271080912,
				"y": -1.6709841802,
				"z": 2.0685946527,
				"element": "S" 
			},
			{
				"x": 0.515310371,
				"y": 2.458670431,
				"z": -3.6028560201,
				"element": "H" 
			},
			{
				"x": -0.4498185531,
				"y": 1.1282093363,
				"z": -2.9432770947,
				"element": "H" 
			},
			{
				"x": -0.4655594991,
				"y": 2.7234714601,
				"z": -2.1549988454,
				"element": "H" 
			},
			{
				"x": 1.9706969174,
				"y": 2.4383954508,
				"z": -1.5428575379,
				"element": "H" 
			},
			{
				"x": 1.9972397058,
				"y": 0.8681422603,
				"z": -2.3446244065,
				"element": "H" 
			},
			{
				"x": -0.9900881864,
				"y": 1.0804842243,
				"z": 0.1666416853,
				"element": "H" 
			},
			{
				"x": -3.8368824522,
				"y": 1.6550585204,
				"z": 0.6530566692,
				"element": "H" 
			},
			{
				"x": -5.5804375546,
				"y": 1.3005448268,
				"z": 2.3962045014,
				"element": "H" 
			},
			{
				"x": -5.0433253462,
				"y": 0.1548628419,
				"z": 4.516167855,
				"element": "H" 
			},
			{
				"x": -2.7451293398,
				"y": -0.6847307044,
				"z": 4.9672752111,
				"element": "H" 
			},
			{
				"x": -0.219322416,
				"y": -1.0194633789,
				"z": 4.915499556,
				"element": "H" 
			}
		],
		 "valence_orbital": [ 
			{
				"type": "occ",
				"energy": -0.27751,
				"method": "rhf"
			},
			{
				"type": "occ",
				"energy": -0.26916,
				"method": "rhf"
			},
			{
				"type": "occ",
				"energy": -0.25818,
				"method": "rhf"
			},
			{
				"type": "occ",
				"energy": -0.19876,
				"method": "rhf"
			},
			{
				"type": "occ",
				"energy": -0.18081,
				"method": "rhf"
			},
			{
				"type": "unocc",
				"energy": -0.0663,
				"method": "rhf"
			},
			{
				"type": "unocc",
				"energy": -0.04805,
				"method": "rhf"
			},
			{
				"type": "unocc",
				"energy": -0.01956,
				"method": "rhf"
			},
			{
				"type": "unocc",
				"energy": -0.0117,
				"method": "rhf"
			},
			{
				"type": "unocc",
				"energy": 0.03127,
				"method": "rhf"
			}
		],
		"cosmo_sigma_profile": { 
			"-0.025": 0.0,
			"-0.024": 0.0,
			"-0.023": 0.0,
			"-0.022": 0.0,
			"-0.021": 0.0,
			"-0.02": 0.0,
			"-0.019": 0.0,
			"-0.018": 0.0,
			"-0.017": 0.0,
			"-0.016": 0.0,
			"-0.015": 0.00305633465449,
			"-0.014": 0.476364334647,
			"-0.013": 1.04748679715,
			"-0.012": 1.90463985471,
			"-0.011": 4.71919498566,
			"-0.01": 3.61471256122,
			"-0.009": 4.55766800518,
			"-0.008": 6.74150152923,
			"-0.007": 9.70370400433,
			"-0.006": 16.7091188384,
			"-0.005": 22.8047389912,
			"-0.004": 28.8687962288,
			"-0.003": 22.7838495703,
			"-0.002": 24.3068593287,
			"-0.001": 19.0519273925,
			"0.0": 17.0766785685,
			"0.001": 13.2917297376,
			"0.002": 11.542447214,
			"0.003": 12.0736902339,
			"0.004": 8.50420924532,
			"0.005": 4.97460073529,
			"0.006": 4.89378361283,
			"0.007": 5.25903036009,
			"0.008": 6.04207462139,
			"0.009": 8.22083771633,
			"0.01": 5.71232391776,
			"0.011": 5.98722247802,
			"0.012": 6.94325313938,
			"0.013": 5.18946233673,
			"0.014": 3.36364188513,
			"0.015": 3.71367035505,
			"0.016": 3.05444932758,
			"0.017": 0.790860709374,
			"0.018": 0.0,
			"0.019": 0.0,
			"0.02": 0.0,
			"0.021": 0.0,
			"0.022": 0.0,
			"0.023": 0.0,
			"0.024": 0.0,
			"0.025": 0.0
		}
	}
}
