{
	 "smiles": "CN(C)C1=CC(=NC=C1)C(O)=O", 
	 "Tm": 508.15, 
	 "num_atms": 22, 
	 "gaussian": { 
		 "optdone": 1, 
		 "sigma_profile": "yes", 
		 "theory": "DFT", 
		 "functional": "B3LYP", 
		 "basiset": "6-31G**", 
		 "properties": { 
			 "R2extent": 3210.8366, 
			 "electric_dipole_moment_norm": 4.49023116331, 
			 "electric_quadrupole_moment_norm": 5.48414472366, 
			 "total_energy": -570.834865347, 
			 "HOMO_LUMO_gap": 0.17202, 
			 "cosmo_polarized_energy": -15.38, 
			 "cosmo_cavitation_energy": 25.88, 
			 "cosmo_dispersion_energy": -19.08, 
			 "cosmo_repulsion_energy": 1.52, 
			 "cosmo_total_nonelectrostatic_energy": 8.32, 
			 "SMD_solvation_energy": 4.44 
		},
		"coords": [
			{
				"x": 1.3746929309,
				"y": -1.5193577323,
				"z": -0.5629298414,
				"element": "C" 
			},
			{
				"x": 1.2762376859,
				"y": -0.0693107382,
				"z": -0.642818805,
				"element": "N" 
			},
			{
				"x": 1.5865202452,
				"y": 0.6051977777,
				"z": -1.8929053841,
				"element": "C" 
			},
			{
				"x": 0.7194122407,
				"y": 0.6371400728,
				"z": 0.3962586094,
				"element": "C" 
			},
			{
				"x": 0.3158505099,
				"y": 0.0072533282,
				"z": 1.5947052564,
				"element": "C" 
			},
			{
				"x": -0.2288182201,
				"y": 0.7759542703,
				"z": 2.619494654,
				"element": "C" 
			},
			{
				"x": -0.4159617753,
				"y": 2.1037869284,
				"z": 2.5691399828,
				"element": "N" 
			},
			{
				"x": -0.0392432947,
				"y": 2.693118594,
				"z": 1.4299537922,
				"element": "C" 
			},
			{
				"x": 0.5161845426,
				"y": 2.0353446008,
				"z": 0.3366828144,
				"element": "C" 
			},
			{
				"x": -0.6353142045,
				"y": 0.0466781481,
				"z": 3.8674110596,
				"element": "C" 
			},
			{
				"x": -1.1526716672,
				"y": 0.8470638904,
				"z": 4.8186400691,
				"element": "O" 
			},
			{
				"x": -0.514027157,
				"y": -1.1554251716,
				"z": 4.0185145766,
				"element": "O" 
			},
			{
				"x": 1.9681278663,
				"y": -1.8310386915,
				"z": 0.3045583847,
				"element": "H" 
			},
			{
				"x": 0.3895708189,
				"y": -2.0010623761,
				"z": -0.4911622002,
				"element": "H" 
			},
			{
				"x": 1.8719672317,
				"y": -1.8932488082,
				"z": -1.4585048345,
				"element": "H" 
			},
			{
				"x": 2.3008992343,
				"y": 1.4233054771,
				"z": -1.7389358881,
				"element": "H" 
			},
			{
				"x": 2.0419890237,
				"y": -0.1075520593,
				"z": -2.5810503696,
				"element": "H" 
			},
			{
				"x": 0.6913099479,
				"y": 1.0219871725,
				"z": -2.3763480936,
				"element": "H" 
			},
			{
				"x": 0.4105298132,
				"y": -1.0579738888,
				"z": 1.7540702314,
				"element": "H" 
			},
			{
				"x": -0.1909877481,
				"y": 3.7703316819,
				"z": 1.377883555,
				"element": "H" 
			},
			{
				"x": 0.7821404003,
				"y": 2.608724841,
				"z": -0.5425192245,
				"element": "H" 
			},
			{
				"x": -1.3694084247,
				"y": 0.2563826828,
				"z": 5.5591616554,
				"element": "H" 
			}
		],
		 "valence_orbital": [ 
			{
				"type": "occ",
				"energy": -0.30851,
				"method": "rhf"
			},
			{
				"type": "occ",
				"energy": -0.276,
				"method": "rhf"
			},
			{
				"type": "occ",
				"energy": -0.25925,
				"method": "rhf"
			},
			{
				"type": "occ",
				"energy": -0.2464,
				"method": "rhf"
			},
			{
				"type": "occ",
				"energy": -0.21465,
				"method": "rhf"
			},
			{
				"type": "unocc",
				"energy": -0.04263,
				"method": "rhf"
			},
			{
				"type": "unocc",
				"energy": -0.00315,
				"method": "rhf"
			},
			{
				"type": "unocc",
				"energy": 0.06648,
				"method": "rhf"
			},
			{
				"type": "unocc",
				"energy": 0.07777,
				"method": "rhf"
			},
			{
				"type": "unocc",
				"energy": 0.08981,
				"method": "rhf"
			}
		],
		"cosmo_sigma_profile": { 
			"-0.025": 0.0,
			"-0.024": 0.0,
			"-0.023": 0.0,
			"-0.022": 0.0,
			"-0.021": 0.0,
			"-0.02": 0.0,
			"-0.019": 0.0616610309503,
			"-0.018": 1.04813562192,
			"-0.017": 0.697550356135,
			"-0.016": 0.543043495927,
			"-0.015": 0.942518716604,
			"-0.014": 0.763706195712,
			"-0.013": 0.757012037624,
			"-0.012": 0.596084483131,
			"-0.011": 0.629158882051,
			"-0.01": 0.670897521587,
			"-0.009": 0.529407743832,
			"-0.008": 1.19698259792,
			"-0.007": 4.5839543953,
			"-0.006": 10.532718663,
			"-0.005": 16.7414128457,
			"-0.004": 18.7495013242,
			"-0.003": 19.897793887,
			"-0.002": 21.3507157676,
			"-0.001": 13.2506122915,
			"0.0": 10.099018834,
			"0.001": 9.54930551601,
			"0.002": 15.2096292435,
			"0.003": 13.8003439164,
			"0.004": 5.40261348931,
			"0.005": 4.03407893972,
			"0.006": 3.28969188514,
			"0.007": 2.91465243308,
			"0.008": 3.75224893435,
			"0.009": 2.86237993956,
			"0.01": 3.84238644309,
			"0.011": 5.20312876285,
			"0.012": 5.51460574011,
			"0.013": 1.12465932308,
			"0.014": 1.26984433554,
			"0.015": 1.1827584091,
			"0.016": 1.16128105991,
			"0.017": 0.997259894552,
			"0.018": 0.619486931704,
			"0.019": 0.00813160025188,
			"0.02": 0.0,
			"0.021": 0.0,
			"0.022": 0.0,
			"0.023": 0.0,
			"0.024": 0.0,
			"0.025": 0.0
		}
	}
}
