{
	 "smiles": "CC1=C(C=C2C=CC(F)=CC2=N1)C(O)=O", 
	 "Tm": 536.15, 
	 "num_atms": 23, 
	 "gaussian": { 
		 "optdone": 1, 
		 "sigma_profile": "yes", 
		 "theory": "DFT", 
		 "functional": "B3LYP", 
		 "basiset": "6-31G**", 
		 "properties": { 
			 "R2extent": 3852.1355, 
			 "electric_dipole_moment_norm": 3.03640440159, 
			 "electric_quadrupole_moment_norm": 6.10786446313, 
			 "total_energy": -729.057327898, 
			 "HOMO_LUMO_gap": 0.17105, 
			 "cosmo_polarized_energy": -10.71, 
			 "cosmo_cavitation_energy": 28.12, 
			 "cosmo_dispersion_energy": -20.76, 
			 "cosmo_repulsion_energy": 1.57, 
			 "cosmo_total_nonelectrostatic_energy": 8.93, 
			 "SMD_solvation_energy": 4.94 
		},
		"coords": [
			{
				"x": -1.9792050095,
				"y": -1.3197565674,
				"z": 0.9464821267,
				"element": "C" 
			},
			{
				"x": -0.7802257386,
				"y": -0.49841813,
				"z": 0.5485269449,
				"element": "C" 
			},
			{
				"x": 0.0771165886,
				"y": -0.8516836071,
				"z": -0.5565128487,
				"element": "C" 
			},
			{
				"x": 1.1554943354,
				"y": -0.0347672578,
				"z": -0.846070757,
				"element": "C" 
			},
			{
				"x": 1.4070395185,
				"y": 1.1178050087,
				"z": -0.0744067345,
				"element": "C" 
			},
			{
				"x": 2.4944971693,
				"y": 1.9997670244,
				"z": -0.3157206777,
				"element": "C" 
			},
			{
				"x": 2.6828882649,
				"y": 3.1081053364,
				"z": 0.4760167354,
				"element": "C" 
			},
			{
				"x": 1.776738144,
				"y": 3.3531320762,
				"z": 1.5319521428,
				"element": "C" 
			},
			{
				"x": 1.9870991487,
				"y": 4.4459442533,
				"z": 2.2897510287,
				"element": "F" 
			},
			{
				"x": 0.7105559899,
				"y": 2.5335961221,
				"z": 1.8079547274,
				"element": "C" 
			},
			{
				"x": 0.5032306803,
				"y": 1.3871587296,
				"z": 1.0005604115,
				"element": "C" 
			},
			{
				"x": -0.5573492541,
				"y": 0.5791428866,
				"z": 1.2813991446,
				"element": "N" 
			},
			{
				"x": -0.1717337133,
				"y": -2.0619539567,
				"z": -1.3811905671,
				"element": "C" 
			},
			{
				"x": 0.7481530012,
				"y": -2.2176143051,
				"z": -2.3717667002,
				"element": "O" 
			},
			{
				"x": -1.0779323034,
				"y": -2.8593703946,
				"z": -1.2347981526,
				"element": "O" 
			},
			{
				"x": -2.694397002,
				"y": -1.4049601525,
				"z": 0.1235961269,
				"element": "H" 
			},
			{
				"x": -2.4526610447,
				"y": -0.8408582147,
				"z": 1.8043046502,
				"element": "H" 
			},
			{
				"x": -1.6934601944,
				"y": -2.3443227002,
				"z": 1.2005009369,
				"element": "H" 
			},
			{
				"x": 1.8122350999,
				"y": -0.2829841753,
				"z": -1.6729797073,
				"element": "H" 
			},
			{
				"x": 3.1764772795,
				"y": 1.7877166389,
				"z": -1.1345069034,
				"element": "H" 
			},
			{
				"x": 3.5032458016,
				"y": 3.7989729661,
				"z": 0.3162465464,
				"element": "H" 
			},
			{
				"x": 0.0306367037,
				"y": 2.7451268331,
				"z": 2.6244017261,
				"element": "H" 
			},
			{
				"x": 0.4886565344,
				"y": -3.0287784142,
				"z": -2.8383401999,
				"element": "H" 
			}
		],
		 "valence_orbital": [ 
			{
				"type": "occ",
				"energy": -0.31474,
				"method": "rhf"
			},
			{
				"type": "occ",
				"energy": -0.28144,
				"method": "rhf"
			},
			{
				"type": "occ",
				"energy": -0.26038,
				"method": "rhf"
			},
			{
				"type": "occ",
				"energy": -0.25583,
				"method": "rhf"
			},
			{
				"type": "occ",
				"energy": -0.244,
				"method": "rhf"
			},
			{
				"type": "unocc",
				"energy": -0.07295,
				"method": "rhf"
			},
			{
				"type": "unocc",
				"energy": -0.04249,
				"method": "rhf"
			},
			{
				"type": "unocc",
				"energy": 0.00812,
				"method": "rhf"
			},
			{
				"type": "unocc",
				"energy": 0.02775,
				"method": "rhf"
			},
			{
				"type": "unocc",
				"energy": 0.07425,
				"method": "rhf"
			}
		],
		"cosmo_sigma_profile": { 
			"-0.025": 0.0,
			"-0.024": 0.0,
			"-0.023": 0.0,
			"-0.022": 0.0,
			"-0.021": 0.0,
			"-0.02": 0.0,
			"-0.019": 0.0,
			"-0.018": 0.786563501825,
			"-0.017": 0.86038089053,
			"-0.016": 0.662066950575,
			"-0.015": 0.93263646115,
			"-0.014": 0.78994844196,
			"-0.013": 0.392508454959,
			"-0.012": 0.725601132556,
			"-0.011": 0.983082528748,
			"-0.01": 0.847044432292,
			"-0.009": 0.805604710308,
			"-0.008": 5.43996228381,
			"-0.007": 6.94810331632,
			"-0.006": 7.0024942312,
			"-0.005": 7.38171236288,
			"-0.004": 7.90863316838,
			"-0.003": 14.6007688034,
			"-0.002": 17.1707716933,
			"-0.001": 21.899265297,
			"0.0": 31.8985542392,
			"0.001": 24.19763451,
			"0.002": 17.1542872342,
			"0.003": 11.6252073224,
			"0.004": 13.9489581898,
			"0.005": 4.59738855808,
			"0.006": 5.90723187388,
			"0.007": 3.74571157228,
			"0.008": 2.14457595436,
			"0.009": 2.90713280773,
			"0.01": 3.02275454714,
			"0.011": 3.58799914432,
			"0.012": 3.33154956074,
			"0.013": 0.773338892363,
			"0.014": 0.591802556039,
			"0.015": 0.148004620249,
			"0.016": 0.0,
			"0.017": 0.0,
			"0.018": 0.0,
			"0.019": 0.0,
			"0.02": 0.0,
			"0.021": 0.0,
			"0.022": 0.0,
			"0.023": 0.0,
			"0.024": 0.0,
			"0.025": 0.0
		}
	}
}
