{
	 "smiles": "OC1=CC(OC(=O)C2=CC=CC=C2)=CC=C1", 
	 "Tm": 406.15, 
	 "num_atms": 26, 
	 "gaussian": { 
		 "optdone": 1, 
		 "sigma_profile": "yes", 
		 "theory": "DFT", 
		 "functional": "B3LYP", 
		 "basiset": "6-31G**", 
		 "properties": { 
			 "R2extent": 5234.2773, 
			 "electric_dipole_moment_norm": 2.30542313036, 
			 "electric_quadrupole_moment_norm": 6.882956444, 
			 "total_energy": -727.088239459, 
			 "HOMO_LUMO_gap": 0.16496, 
			 "cosmo_polarized_energy": -10.65, 
			 "cosmo_cavitation_energy": 31.18, 
			 "cosmo_dispersion_energy": -22.95, 
			 "cosmo_repulsion_energy": 1.76, 
			 "cosmo_total_nonelectrostatic_energy": 9.99, 
			 "SMD_solvation_energy": 6.68 
		},
		"coords": [
			{
				"x": 3.3746100124,
				"y": 0.5882923107,
				"z": 4.4403309034,
				"element": "O" 
			},
			{
				"x": 2.3126553844,
				"y": -0.1302106067,
				"z": 3.9716109518,
				"element": "C" 
			},
			{
				"x": 1.7737594825,
				"y": 0.1083166375,
				"z": 2.700936703,
				"element": "C" 
			},
			{
				"x": 0.6870969158,
				"y": -0.6638723616,
				"z": 2.2841968292,
				"element": "C" 
			},
			{
				"x": 0.0415284007,
				"y": -0.5469103861,
				"z": 1.0551701703,
				"element": "O" 
			},
			{
				"x": 0.3695524352,
				"y": 0.3242937825,
				"z": 0.0612612174,
				"element": "C" 
			},
			{
				"x": 1.2792842031,
				"y": 1.1272280183,
				"z": 0.1105426574,
				"element": "O" 
			},
			{
				"x": -0.5386166314,
				"y": 0.1679490538,
				"z": -1.110151824,
				"element": "C" 
			},
			{
				"x": -1.5837548493,
				"y": -0.7667506805,
				"z": -1.1435676934,
				"element": "C" 
			},
			{
				"x": -2.396149595,
				"y": -0.8600384247,
				"z": -2.2721943441,
				"element": "C" 
			},
			{
				"x": -2.1719000026,
				"y": -0.0251722646,
				"z": -3.3696455692,
				"element": "C" 
			},
			{
				"x": -1.1312025435,
				"y": 0.907136745,
				"z": -3.3391694832,
				"element": "C" 
			},
			{
				"x": -0.3169564938,
				"y": 1.0042297841,
				"z": -2.2140782972,
				"element": "C" 
			},
			{
				"x": 0.1414997109,
				"y": -1.6533710402,
				"z": 3.1058713538,
				"element": "C" 
			},
			{
				"x": 0.6982023025,
				"y": -1.8685897819,
				"z": 4.3652076211,
				"element": "C" 
			},
			{
				"x": 1.7823597346,
				"y": -1.1152846142,
				"z": 4.8099350233,
				"element": "C" 
			},
			{
				"x": 3.6422999483,
				"y": 1.2297628068,
				"z": 3.7692344245,
				"element": "H" 
			},
			{
				"x": 2.1843227418,
				"y": 0.8695442705,
				"z": 2.052777366,
				"element": "H" 
			},
			{
				"x": -1.7532716165,
				"y": -1.4117274892,
				"z": -0.2897159884,
				"element": "H" 
			},
			{
				"x": -3.2048202384,
				"y": -1.5844635851,
				"z": -2.2959142261,
				"element": "H" 
			},
			{
				"x": -2.8073207458,
				"y": -0.1010288775,
				"z": -4.2474700381,
				"element": "H" 
			},
			{
				"x": -0.9561872951,
				"y": 1.5565038357,
				"z": -4.1917603305,
				"element": "H" 
			},
			{
				"x": 0.4965125674,
				"y": 1.7200812585,
				"z": -2.1676532679,
				"element": "H" 
			},
			{
				"x": -0.7021258373,
				"y": -2.2331860911,
				"z": 2.7492113512,
				"element": "H" 
			},
			{
				"x": 0.2792951897,
				"y": -2.6360362961,
				"z": 5.0091969024,
				"element": "H" 
			},
			{
				"x": 2.2250268195,
				"y": -1.2724960039,
				"z": 5.7872375873,
				"element": "H" 
			}
		],
		 "valence_orbital": [ 
			{
				"type": "occ",
				"energy": -0.27934,
				"method": "rhf"
			},
			{
				"type": "occ",
				"energy": -0.26597,
				"method": "rhf"
			},
			{
				"type": "occ",
				"energy": -0.26232,
				"method": "rhf"
			},
			{
				"type": "occ",
				"energy": -0.24418,
				"method": "rhf"
			},
			{
				"type": "occ",
				"energy": -0.21984,
				"method": "rhf"
			},
			{
				"type": "unocc",
				"energy": -0.05488,
				"method": "rhf"
			},
			{
				"type": "unocc",
				"energy": -0.01173,
				"method": "rhf"
			},
			{
				"type": "unocc",
				"energy": 0.00133,
				"method": "rhf"
			},
			{
				"type": "unocc",
				"energy": 0.01292,
				"method": "rhf"
			},
			{
				"type": "unocc",
				"energy": 0.05627,
				"method": "rhf"
			}
		],
		"cosmo_sigma_profile": { 
			"-0.025": 0.0,
			"-0.024": 0.0,
			"-0.023": 0.0,
			"-0.022": 0.0,
			"-0.021": 0.0,
			"-0.02": 0.0,
			"-0.019": 0.0,
			"-0.018": 0.350585377159,
			"-0.017": 1.41026531511,
			"-0.016": 0.92173926248,
			"-0.015": 1.08931798021,
			"-0.014": 0.912907374967,
			"-0.013": 1.57554129837,
			"-0.012": 0.682097803864,
			"-0.011": 0.483306845793,
			"-0.01": 0.646754858228,
			"-0.009": 1.42187143717,
			"-0.008": 0.472575947025,
			"-0.007": 2.76630882952,
			"-0.006": 15.5851044081,
			"-0.005": 16.8610262545,
			"-0.004": 16.6068523382,
			"-0.003": 15.177336039,
			"-0.002": 15.0990827903,
			"-0.001": 14.1767581477,
			"0.0": 16.8733828984,
			"0.001": 21.5477721612,
			"0.002": 22.4653840887,
			"0.003": 27.3466288221,
			"0.004": 24.8941748449,
			"0.005": 10.404191202,
			"0.006": 3.86783798006,
			"0.007": 2.32964127915,
			"0.008": 3.18470541889,
			"0.009": 3.07510408375,
			"0.01": 3.8305911058,
			"0.011": 4.35506349017,
			"0.012": 0.42743473523,
			"0.013": 0.0,
			"0.014": 0.0,
			"0.015": 0.0,
			"0.016": 0.0,
			"0.017": 0.0,
			"0.018": 0.0,
			"0.019": 0.0,
			"0.02": 0.0,
			"0.021": 0.0,
			"0.022": 0.0,
			"0.023": 0.0,
			"0.024": 0.0,
			"0.025": 0.0
		}
	}
}
