{
	 "smiles": "C1=CC=C(C=C1)C1=NC(=NC(=N1)C1=CC=CC=C1)C1=CC=CC=C1", 
	 "Tm": 508.15, 
	 "num_atms": 39, 
	 "gaussian": { 
		 "optdone": 1, 
		 "sigma_profile": "yes", 
		 "theory": "DFT", 
		 "functional": "B3LYP", 
		 "basiset": "6-31G**", 
		 "properties": { 
			 "R2extent": 9838.8334, 
			 "electric_dipole_moment_norm": 0.0001, 
			 "electric_quadrupole_moment_norm": 19.8259137683, 
			 "total_energy": -973.565436717, 
			 "HOMO_LUMO_gap": 0.17801, 
			 "cosmo_polarized_energy": -8.6, 
			 "cosmo_cavitation_energy": 44.05, 
			 "cosmo_dispersion_energy": -31.62, 
			 "cosmo_repulsion_energy": 2.33, 
			 "cosmo_total_nonelectrostatic_energy": 14.76, 
			 "SMD_solvation_energy": 4.95 
		},
		"coords": [
			{
				"x": 5.4924257967,
				"y": -1.6230661697,
				"z": 1.0533488603,
				"element": "C" 
			},
			{
				"x": 4.6583603608,
				"y": -2.6218340576,
				"z": 0.5443667222,
				"element": "C" 
			},
			{
				"x": 3.3028294668,
				"y": -2.3691019794,
				"z": 0.3486265911,
				"element": "C" 
			},
			{
				"x": 2.7648014422,
				"y": -1.1105127299,
				"z": 0.66076512,
				"element": "C" 
			},
			{
				"x": 3.608565274,
				"y": -0.1115900199,
				"z": 1.1718112659,
				"element": "C" 
			},
			{
				"x": 4.9635695797,
				"y": -0.3681948226,
				"z": 1.366181864,
				"element": "C" 
			},
			{
				"x": 1.3211518792,
				"y": -0.8392465238,
				"z": 0.4529506122,
				"element": "C" 
			},
			{
				"x": 0.5598214713,
				"y": -1.8296279375,
				"z": -0.0376849929,
				"element": "N" 
			},
			{
				"x": -0.7392569823,
				"y": -1.5391721561,
				"z": -0.20871001,
				"element": "C" 
			},
			{
				"x": -1.2892794255,
				"y": -0.3489798836,
				"z": 0.0778663509,
				"element": "N" 
			},
			{
				"x": -0.4521432009,
				"y": 0.5806393501,
				"z": 0.5639145871,
				"element": "C" 
			},
			{
				"x": 0.8592062983,
				"y": 0.3808370464,
				"z": 0.7679622116,
				"element": "N" 
			},
			{
				"x": -1.0117401726,
				"y": 1.9138173778,
				"z": 0.8961647305,
				"element": "C" 
			},
			{
				"x": -0.1825215203,
				"y": 2.9243690213,
				"z": 1.4081551503,
				"element": "C" 
			},
			{
				"x": -0.7097730039,
				"y": 4.1752555434,
				"z": 1.7195299778,
				"element": "C" 
			},
			{
				"x": -2.0690973606,
				"y": 4.4326616383,
				"z": 1.5240061429,
				"element": "C" 
			},
			{
				"x": -2.9000913747,
				"y": 3.4314790442,
				"z": 1.0147397917,
				"element": "C" 
			},
			{
				"x": -2.3766023108,
				"y": 2.1793143167,
				"z": 0.702182275,
				"element": "C" 
			},
			{
				"x": -1.6232913955,
				"y": -2.601063999,
				"z": -0.7488753526,
				"element": "C" 
			},
			{
				"x": -2.9907783694,
				"y": -2.3533404243,
				"z": -0.9477738029,
				"element": "C" 
			},
			{
				"x": -3.8190813589,
				"y": -3.3514874065,
				"z": -1.4550031149,
				"element": "C" 
			},
			{
				"x": -3.2935853184,
				"y": -4.6073363129,
				"z": -1.7695620474,
				"element": "C" 
			},
			{
				"x": -1.9334911895,
				"y": -4.8607138205,
				"z": -1.5740951037,
				"element": "C" 
			},
			{
				"x": -1.1019653113,
				"y": -3.8651665975,
				"z": -1.0670348038,
				"element": "C" 
			},
			{
				"x": 6.5495877316,
				"y": -1.8217195624,
				"z": 1.2054989539,
				"element": "H" 
			},
			{
				"x": 5.0654649649,
				"y": -3.5987339843,
				"z": 0.2998833408,
				"element": "H" 
			},
			{
				"x": 2.6453765452,
				"y": -3.1351030458,
				"z": -0.045362495,
				"element": "H" 
			},
			{
				"x": 3.1860859062,
				"y": 0.8573379807,
				"z": 1.4103775208,
				"element": "H" 
			},
			{
				"x": 5.6084964888,
				"y": 0.4110211562,
				"z": 1.7620770789,
				"element": "H" 
			},
			{
				"x": 0.8698776812,
				"y": 2.7120494389,
				"z": 1.5551431668,
				"element": "H" 
			},
			{
				"x": -0.0602931196,
				"y": 4.9507927285,
				"z": 2.1152048666,
				"element": "H" 
			},
			{
				"x": -2.4789104752,
				"y": 5.408900527,
				"z": 1.7673484848,
				"element": "H" 
			},
			{
				"x": -3.957381802,
				"y": 3.6274541881,
				"z": 0.86120946,
				"element": "H" 
			},
			{
				"x": -3.010347399,
				"y": 1.3943852476,
				"z": 0.3066063169,
				"element": "H" 
			},
			{
				"x": -3.3859169039,
				"y": -1.3752572265,
				"z": -0.6998892586,
				"element": "H" 
			},
			{
				"x": -4.8758516454,
				"y": -3.1503671435,
				"z": -1.6054266217,
				"element": "H" 
			},
			{
				"x": -3.940944635,
				"y": -5.3849209497,
				"z": -2.1651543096,
				"element": "H" 
			},
			{
				"x": -1.5209437113,
				"y": -5.8356398133,
				"z": -1.817333991,
				"element": "H" 
			},
			{
				"x": -0.0455329008,
				"y": -4.0489380387,
				"z": -0.9108155388,
				"element": "H" 
			}
		],
		 "valence_orbital": [ 
			{
				"type": "occ",
				"energy": -0.25411,
				"method": "rhf"
			},
			{
				"type": "occ",
				"energy": -0.25325,
				"method": "rhf"
			},
			{
				"type": "occ",
				"energy": -0.25017,
				"method": "rhf"
			},
			{
				"type": "occ",
				"energy": -0.24456,
				"method": "rhf"
			},
			{
				"type": "occ",
				"energy": -0.24456,
				"method": "rhf"
			},
			{
				"type": "unocc",
				"energy": -0.06655,
				"method": "rhf"
			},
			{
				"type": "unocc",
				"energy": -0.06655,
				"method": "rhf"
			},
			{
				"type": "unocc",
				"energy": -0.01687,
				"method": "rhf"
			},
			{
				"type": "unocc",
				"energy": -0.00197,
				"method": "rhf"
			},
			{
				"type": "unocc",
				"energy": -0.00157,
				"method": "rhf"
			}
		],
		"cosmo_sigma_profile": { 
			"-0.025": 0.0,
			"-0.024": 0.0,
			"-0.023": 0.0,
			"-0.022": 0.0,
			"-0.021": 0.0,
			"-0.02": 0.0,
			"-0.019": 0.0,
			"-0.018": 0.0,
			"-0.017": 0.0,
			"-0.016": 0.0,
			"-0.015": 0.0,
			"-0.014": 0.0,
			"-0.013": 0.0,
			"-0.012": 0.0,
			"-0.011": 0.0,
			"-0.01": 0.0,
			"-0.009": 0.0,
			"-0.008": 0.0,
			"-0.007": 1.90223689822,
			"-0.006": 17.5410962762,
			"-0.005": 25.2934173701,
			"-0.004": 35.6471631805,
			"-0.003": 25.6143182912,
			"-0.002": 23.3133749207,
			"-0.001": 26.4000730946,
			"0.0": 23.0095533349,
			"0.001": 29.7936296885,
			"0.002": 37.0307321072,
			"0.003": 40.1062989165,
			"0.004": 44.089493594,
			"0.005": 19.9527589702,
			"0.006": 3.7802222795,
			"0.007": 2.52677221431,
			"0.008": 0.0530683884828,
			"0.009": 0.0,
			"0.01": 0.0,
			"0.011": 0.0,
			"0.012": 0.0,
			"0.013": 0.0,
			"0.014": 0.0,
			"0.015": 0.0,
			"0.016": 0.0,
			"0.017": 0.0,
			"0.018": 0.0,
			"0.019": 0.0,
			"0.02": 0.0,
			"0.021": 0.0,
			"0.022": 0.0,
			"0.023": 0.0,
			"0.024": 0.0,
			"0.025": 0.0
		}
	}
}
