{
	 "smiles": "CC1=CC(=CC(C)=C1N)[N+]([O-])=O", 
	 "Tm": 435.15, 
	 "num_atms": 22, 
	 "gaussian": { 
		 "optdone": 1, 
		 "sigma_profile": "yes", 
		 "theory": "DFT", 
		 "functional": "B3LYP", 
		 "basiset": "6-31G**", 
		 "properties": { 
			 "R2extent": 3166.8741, 
			 "electric_dipole_moment_norm": 7.39778192231, 
			 "electric_quadrupole_moment_norm": 20.1038983988, 
			 "total_energy": -570.752255962, 
			 "HOMO_LUMO_gap": 0.1547, 
			 "cosmo_polarized_energy": -14.98, 
			 "cosmo_cavitation_energy": 25.71, 
			 "cosmo_dispersion_energy": -18.98, 
			 "cosmo_repulsion_energy": 1.5, 
			 "cosmo_total_nonelectrostatic_energy": 8.23, 
			 "SMD_solvation_energy": 6.58 
		},
		"coords": [
			{
				"x": -2.0527560003,
				"y": 3.1375252501,
				"z": -0.717056631,
				"element": "C" 
			},
			{
				"x": -1.2448980369,
				"y": 1.8973722321,
				"z": -1.0096452236,
				"element": "C" 
			},
			{
				"x": -0.3853011181,
				"y": 1.8468645509,
				"z": -2.0996828598,
				"element": "C" 
			},
			{
				"x": 0.3473659886,
				"y": 0.689432232,
				"z": -2.3616381318,
				"element": "C" 
			},
			{
				"x": 0.2328962464,
				"y": -0.4368544332,
				"z": -1.5471143589,
				"element": "C" 
			},
			{
				"x": -0.617405094,
				"y": -0.4207457541,
				"z": -0.4487540083,
				"element": "C" 
			},
			{
				"x": -0.7613579742,
				"y": -1.633372884,
				"z": 0.4372432129,
				"element": "C" 
			},
			{
				"x": -1.3607125201,
				"y": 0.7566768874,
				"z": -0.1727261009,
				"element": "C" 
			},
			{
				"x": -2.2428930997,
				"y": 0.7754049107,
				"z": 0.8913759243,
				"element": "N" 
			},
			{
				"x": 1.2453679903,
				"y": 0.6554432986,
				"z": -3.5068381845,
				"element": "N" 
			},
			{
				"x": 1.8797190824,
				"y": -0.3835282694,
				"z": -3.7136799007,
				"element": "O" 
			},
			{
				"x": 1.324662734,
				"y": 1.6674711624,
				"z": -4.2098060728,
				"element": "O" 
			},
			{
				"x": -1.8660815704,
				"y": 3.9096371804,
				"z": -1.4664741389,
				"element": "H" 
			},
			{
				"x": -3.1299904093,
				"y": 2.9277800213,
				"z": -0.7152977023,
				"element": "H" 
			},
			{
				"x": -1.8032044681,
				"y": 3.5699521572,
				"z": 0.2623139549,
				"element": "H" 
			},
			{
				"x": -0.271721857,
				"y": 2.6997654281,
				"z": -2.7580859606,
				"element": "H" 
			},
			{
				"x": 0.8159404393,
				"y": -1.3182663951,
				"z": -1.7858927727,
				"element": "H" 
			},
			{
				"x": -0.142639735,
				"y": -2.4566911201,
				"z": 0.0739731098,
				"element": "H" 
			},
			{
				"x": -0.4508274885,
				"y": -1.4269728768,
				"z": 1.4713574945,
				"element": "H" 
			},
			{
				"x": -1.7996114125,
				"y": -1.9871116628,
				"z": 0.4735972242,
				"element": "H" 
			},
			{
				"x": -2.5467591996,
				"y": 1.6746935215,
				"z": 1.2306013244,
				"element": "H" 
			},
			{
				"x": -2.1165924972,
				"y": 0.0854245627,
				"z": 1.6153298018,
				"element": "H" 
			}
		],
		 "valence_orbital": [ 
			{
				"type": "occ",
				"energy": -0.28929,
				"method": "rhf"
			},
			{
				"type": "occ",
				"energy": -0.28815,
				"method": "rhf"
			},
			{
				"type": "occ",
				"energy": -0.26987,
				"method": "rhf"
			},
			{
				"type": "occ",
				"energy": -0.25608,
				"method": "rhf"
			},
			{
				"type": "occ",
				"energy": -0.22189,
				"method": "rhf"
			},
			{
				"type": "unocc",
				"energy": -0.06719,
				"method": "rhf"
			},
			{
				"type": "unocc",
				"energy": -0.01002,
				"method": "rhf"
			},
			{
				"type": "unocc",
				"energy": 0.02357,
				"method": "rhf"
			},
			{
				"type": "unocc",
				"energy": 0.05503,
				"method": "rhf"
			},
			{
				"type": "unocc",
				"energy": 0.08951,
				"method": "rhf"
			}
		],
		"cosmo_sigma_profile": { 
			"-0.025": 0.0,
			"-0.024": 0.0,
			"-0.023": 0.0,
			"-0.022": 0.0,
			"-0.021": 0.0,
			"-0.02": 0.0,
			"-0.019": 0.0,
			"-0.018": 0.0,
			"-0.017": 0.0,
			"-0.016": 0.0,
			"-0.015": 0.0,
			"-0.014": 0.0904024979491,
			"-0.013": 1.37545277071,
			"-0.012": 2.62962542034,
			"-0.011": 2.93379321726,
			"-0.01": 2.72642696682,
			"-0.009": 3.16810474885,
			"-0.008": 3.02126157882,
			"-0.007": 2.22520577428,
			"-0.006": 8.34532904442,
			"-0.005": 12.2529747187,
			"-0.004": 13.1241448613,
			"-0.003": 14.0642977587,
			"-0.002": 14.5973730957,
			"-0.001": 19.2718617583,
			"0.0": 18.8585852567,
			"0.001": 12.9396471215,
			"0.002": 11.9713186646,
			"0.003": 15.0493765529,
			"0.004": 6.80129519362,
			"0.005": 2.92302722317,
			"0.006": 3.77253336636,
			"0.007": 3.42941164814,
			"0.008": 6.79317643655,
			"0.009": 10.5592380558,
			"0.01": 5.50605430084,
			"0.011": 4.13088591726,
			"0.012": 0.781415552465,
			"0.013": 0.0,
			"0.014": 0.0,
			"0.015": 0.0,
			"0.016": 0.0,
			"0.017": 0.0,
			"0.018": 0.0,
			"0.019": 0.0,
			"0.02": 0.0,
			"0.021": 0.0,
			"0.022": 0.0,
			"0.023": 0.0,
			"0.024": 0.0,
			"0.025": 0.0
		}
	}
}
