{
	 "smiles": "CCOC1=C(C=C(Br)C=C1)S(Cl)(=O)=O", 
	 "Tm": 383.15, 
	 "num_atms": 22, 
	 "gaussian": { 
		 "optdone": 1, 
		 "sigma_profile": "yes", 
		 "theory": "DFT", 
		 "functional": "B3LYP", 
		 "basiset": "6-31G**", 
		 "properties": { 
			 "R2extent": 6401.1176, 
			 "electric_dipole_moment_norm": 6.19637872793, 
			 "electric_quadrupole_moment_norm": 8.2006627659, 
			 "total_energy": -3965.0496051, 
			 "HOMO_LUMO_gap": 0.16149, 
			 "cosmo_polarized_energy": -11.86, 
			 "cosmo_cavitation_energy": 31.99, 
			 "cosmo_dispersion_energy": -23.52, 
			 "cosmo_repulsion_energy": 1.83, 
			 "cosmo_total_nonelectrostatic_energy": 10.3, 
			 "SMD_solvation_energy": 3.46 
		},
		"coords": [
			{
				"x": -2.5863363346,
				"y": -1.4428773019,
				"z": 1.9737650643,
				"element": "C" 
			},
			{
				"x": -1.1311472418,
				"y": -1.2802842662,
				"z": 1.5775669749,
				"element": "C" 
			},
			{
				"x": -1.064079922,
				"y": -0.185276003,
				"z": 0.6498898265,
				"element": "O" 
			},
			{
				"x": 0.1221511154,
				"y": 0.189917893,
				"z": 0.1438282294,
				"element": "C" 
			},
			{
				"x": 0.1296197374,
				"y": 1.2807529873,
				"z": -0.7534459155,
				"element": "C" 
			},
			{
				"x": 1.3028855266,
				"y": 1.7313661173,
				"z": -1.3581045883,
				"element": "C" 
			},
			{
				"x": 2.502859633,
				"y": 1.0954628624,
				"z": -1.0558888693,
				"element": "C" 
			},
			{
				"x": 4.1205506845,
				"y": 1.6991223135,
				"z": -1.8617387884,
				"element": "Br" 
			},
			{
				"x": 2.526243829,
				"y": 0.0219873745,
				"z": -0.1671243094,
				"element": "C" 
			},
			{
				"x": 1.3488372179,
				"y": -0.4294933373,
				"z": 0.4263618286,
				"element": "C" 
			},
			{
				"x": -1.3674805064,
				"y": 2.1859224448,
				"z": -1.1293927829,
				"element": "S" 
			},
			{
				"x": -2.4776878538,
				"y": 0.7424619394,
				"z": -2.2362639666,
				"element": "Cl" 
			},
			{
				"x": -1.0315353329,
				"y": 3.2427954547,
				"z": -2.076750354,
				"element": "O" 
			},
			{
				"x": -2.1276907015,
				"y": 2.4633884727,
				"z": 0.0803029295,
				"element": "O" 
			},
			{
				"x": -3.2014384856,
				"y": -1.6632621076,
				"z": 1.0976969372,
				"element": "H" 
			},
			{
				"x": -2.9619773463,
				"y": -0.5279026589,
				"z": 2.4384841352,
				"element": "H" 
			},
			{
				"x": -2.685636133,
				"y": -2.2661440836,
				"z": 2.6875325763,
				"element": "H" 
			},
			{
				"x": -0.744128117,
				"y": -2.1881411801,
				"z": 1.0966955376,
				"element": "H" 
			},
			{
				"x": -0.5032403208,
				"y": -1.0548840173,
				"z": 2.4492777884,
				"element": "H" 
			},
			{
				"x": 1.2628562496,
				"y": 2.566559577,
				"z": -2.0458660967,
				"element": "H" 
			},
			{
				"x": 3.4653584369,
				"y": -0.4685570531,
				"z": 0.0629766748,
				"element": "H" 
			},
			{
				"x": 1.3908158653,
				"y": -1.2689154276,
				"z": 1.1088971683,
				"element": "H" 
			}
		],
		 "valence_orbital": [ 
			{
				"type": "occ",
				"energy": -0.31263,
				"method": "rhf"
			},
			{
				"type": "occ",
				"energy": -0.308,
				"method": "rhf"
			},
			{
				"type": "occ",
				"energy": -0.30227,
				"method": "rhf"
			},
			{
				"type": "occ",
				"energy": -0.29575,
				"method": "rhf"
			},
			{
				"type": "occ",
				"energy": -0.24763,
				"method": "rhf"
			},
			{
				"type": "unocc",
				"energy": -0.08614,
				"method": "rhf"
			},
			{
				"type": "unocc",
				"energy": -0.05063,
				"method": "rhf"
			},
			{
				"type": "unocc",
				"energy": -0.0306,
				"method": "rhf"
			},
			{
				"type": "unocc",
				"energy": -0.00804,
				"method": "rhf"
			},
			{
				"type": "unocc",
				"energy": 0.04835,
				"method": "rhf"
			}
		],
		"cosmo_sigma_profile": { 
			"-0.025": 0.0,
			"-0.024": 0.0,
			"-0.023": 0.0,
			"-0.022": 0.0,
			"-0.021": 0.0,
			"-0.02": 0.0,
			"-0.019": 0.0,
			"-0.018": 0.0,
			"-0.017": 0.0,
			"-0.016": 0.0,
			"-0.015": 0.0,
			"-0.014": 0.0,
			"-0.013": 0.0,
			"-0.012": 0.0,
			"-0.011": 0.0,
			"-0.01": 0.0,
			"-0.009": 2.10462314859,
			"-0.008": 6.47029212666,
			"-0.007": 7.0626511042,
			"-0.006": 11.7888741961,
			"-0.005": 14.3570873687,
			"-0.004": 19.0572466068,
			"-0.003": 17.2629873842,
			"-0.002": 18.9255882275,
			"-0.001": 25.2867276501,
			"0.0": 26.673700978,
			"0.001": 20.2812140687,
			"0.002": 14.8933355504,
			"0.003": 21.009593014,
			"0.004": 20.8204392715,
			"0.005": 5.97883799623,
			"0.006": 5.58780280524,
			"0.007": 5.64997806954,
			"0.008": 10.696209672,
			"0.009": 7.51596291991,
			"0.01": 0.141994042881,
			"0.011": 0.0,
			"0.012": 0.0,
			"0.013": 0.0,
			"0.014": 0.0,
			"0.015": 0.0,
			"0.016": 0.0,
			"0.017": 0.0,
			"0.018": 0.0,
			"0.019": 0.0,
			"0.02": 0.0,
			"0.021": 0.0,
			"0.022": 0.0,
			"0.023": 0.0,
			"0.024": 0.0,
			"0.025": 0.0
		}
	}
}
