{
	 "smiles": "CN1N=C(N)C=C1C", 
	 "Tm": 323.15, 
	 "num_atms": 17, 
	 "gaussian": { 
		 "optdone": 1, 
		 "sigma_profile": "yes", 
		 "theory": "DFT", 
		 "functional": "B3LYP", 
		 "basiset": "6-31G**", 
		 "properties": { 
			 "R2extent": 1686.7651, 
			 "electric_dipole_moment_norm": 2.21402293123, 
			 "electric_quadrupole_moment_norm": 12.4719321518, 
			 "total_energy": -360.195750256, 
			 "HOMO_LUMO_gap": 0.22552, 
			 "cosmo_polarized_energy": -10.91, 
			 "cosmo_cavitation_energy": 20.3, 
			 "cosmo_dispersion_energy": -15.15, 
			 "cosmo_repulsion_energy": 1.28, 
			 "cosmo_total_nonelectrostatic_energy": 6.43, 
			 "SMD_solvation_energy": 2.74 
		},
		"coords": [
			{
				"x": -0.0832743284,
				"y": 0.5552800596,
				"z": -2.7446681797,
				"element": "C" 
			},
			{
				"x": -0.814735256,
				"y": 0.9121049461,
				"z": -1.5493067471,
				"element": "N" 
			},
			{
				"x": -1.8031441728,
				"y": 0.0744666572,
				"z": -1.1126742516,
				"element": "N" 
			},
			{
				"x": -2.2095001179,
				"y": 0.6070864888,
				"z": 0.0373947287,
				"element": "C" 
			},
			{
				"x": -3.2922419656,
				"y": 0.0608765314,
				"z": 0.7345517397,
				"element": "N" 
			},
			{
				"x": -1.4710005415,
				"y": 1.7716820027,
				"z": 0.3664917839,
				"element": "C" 
			},
			{
				"x": -0.5739519955,
				"y": 1.9307349242,
				"z": -0.6768597153,
				"element": "C" 
			},
			{
				"x": 0.4734251017,
				"y": 2.9761629738,
				"z": -0.9005951436,
				"element": "C" 
			},
			{
				"x": 0.7252695928,
				"y": -0.1554963841,
				"z": -2.5321028956,
				"element": "H" 
			},
			{
				"x": -0.7785212085,
				"y": 0.09326888,
				"z": -3.4473833751,
				"element": "H" 
			},
			{
				"x": 0.3445422924,
				"y": 1.4505956712,
				"z": -3.2010353643,
				"element": "H" 
			},
			{
				"x": -3.5115015712,
				"y": -0.8700624892,
				"z": 0.3990987655,
				"element": "H" 
			},
			{
				"x": -3.1558665049,
				"y": 0.0537342669,
				"z": 1.7378785016,
				"element": "H" 
			},
			{
				"x": -1.5940520273,
				"y": 2.420960874,
				"z": 1.2210775768,
				"element": "H" 
			},
			{
				"x": 1.4833158382,
				"y": 2.5501138263,
				"z": -0.9373378031,
				"element": "H" 
			},
			{
				"x": 0.314326204,
				"y": 3.5247017535,
				"z": -1.8367379205,
				"element": "H" 
			},
			{
				"x": 0.4493106606,
				"y": 3.7018890177,
				"z": -0.0847917003,
				"element": "H" 
			}
		],
		 "valence_orbital": [ 
			{
				"type": "occ",
				"energy": -0.36894,
				"method": "rhf"
			},
			{
				"type": "occ",
				"energy": -0.29963,
				"method": "rhf"
			},
			{
				"type": "occ",
				"energy": -0.27031,
				"method": "rhf"
			},
			{
				"type": "occ",
				"energy": -0.22197,
				"method": "rhf"
			},
			{
				"type": "occ",
				"energy": -0.19,
				"method": "rhf"
			},
			{
				"type": "unocc",
				"energy": 0.03552,
				"method": "rhf"
			},
			{
				"type": "unocc",
				"energy": 0.08761,
				"method": "rhf"
			},
			{
				"type": "unocc",
				"energy": 0.09133,
				"method": "rhf"
			},
			{
				"type": "unocc",
				"energy": 0.11383,
				"method": "rhf"
			},
			{
				"type": "unocc",
				"energy": 0.12948,
				"method": "rhf"
			}
		],
		"cosmo_sigma_profile": { 
			"-0.025": 0.0,
			"-0.024": 0.0,
			"-0.023": 0.0,
			"-0.022": 0.0,
			"-0.021": 0.0,
			"-0.02": 0.0,
			"-0.019": 0.0,
			"-0.018": 0.0,
			"-0.017": 0.0,
			"-0.016": 0.0,
			"-0.015": 0.0,
			"-0.014": 0.0,
			"-0.013": 0.00714553536371,
			"-0.012": 1.11389296939,
			"-0.011": 1.92563738576,
			"-0.01": 2.59523905536,
			"-0.009": 2.53567529408,
			"-0.008": 2.26461064569,
			"-0.007": 2.13337358447,
			"-0.006": 6.00581397423,
			"-0.005": 14.7907565649,
			"-0.004": 16.731862811,
			"-0.003": 18.0967967814,
			"-0.002": 15.8704942051,
			"-0.001": 10.8001509982,
			"0.0": 7.87068484807,
			"0.001": 5.14145003746,
			"0.002": 4.67019444541,
			"0.003": 5.00455719235,
			"0.004": 3.90876391771,
			"0.005": 4.52590623939,
			"0.006": 6.49639363119,
			"0.007": 6.52259158903,
			"0.008": 3.72375234539,
			"0.009": 3.41269978289,
			"0.01": 2.47137546574,
			"0.011": 1.27909908768,
			"0.012": 2.29468561499,
			"0.013": 2.11989951492,
			"0.014": 1.67113115204,
			"0.015": 1.83954513732,
			"0.016": 1.15738095826,
			"0.017": 0.68171963036,
			"0.018": 0.0,
			"0.019": 0.0,
			"0.02": 0.0,
			"0.021": 0.0,
			"0.022": 0.0,
			"0.023": 0.0,
			"0.024": 0.0,
			"0.025": 0.0
		}
	}
}
