{
	 "smiles": "CCSC1=NN=C(NC(=O)C(C(F)(F)F)C(F)(F)F)S1", 
	 "Tm": 432.15, 
	 "num_atms": 27, 
	 "gaussian": { 
		 "optdone": 1, 
		 "sigma_profile": "yes", 
		 "theory": "DFT", 
		 "functional": "B3LYP", 
		 "basiset": "6-31G**", 
		 "properties": { 
			 "R2extent": 11902.1701, 
			 "electric_dipole_moment_norm": 0.248423710624, 
			 "electric_quadrupole_moment_norm": 16.2638420077, 
			 "total_energy": -1943.95802567, 
			 "HOMO_LUMO_gap": 0.17328, 
			 "cosmo_polarized_energy": -11.96, 
			 "cosmo_cavitation_energy": 37.6, 
			 "cosmo_dispersion_energy": -26.86, 
			 "cosmo_repulsion_energy": 1.88, 
			 "cosmo_total_nonelectrostatic_energy": 12.63, 
			 "SMD_solvation_energy": 6.98 
		},
		"coords": [
			{
				"x": 4.4775665515,
				"y": 0.3011121674,
				"z": 0.4504814628,
				"element": "C" 
			},
			{
				"x": 3.8882458588,
				"y": 0.2030481667,
				"z": 1.8539546333,
				"element": "C" 
			},
			{
				"x": 3.0434210609,
				"y": -1.3976768656,
				"z": 2.2126563847,
				"element": "S" 
			},
			{
				"x": 1.5294889413,
				"y": -1.163582499,
				"z": 1.3477454432,
				"element": "C" 
			},
			{
				"x": 1.1843416457,
				"y": -0.0785543954,
				"z": 0.7122488011,
				"element": "N" 
			},
			{
				"x": -0.0605421718,
				"y": -0.167182251,
				"z": 0.142090644,
				"element": "N" 
			},
			{
				"x": -0.6246788386,
				"y": -1.3188196402,
				"z": 0.3608827242,
				"element": "C" 
			},
			{
				"x": -1.8926372713,
				"y": -1.584188294,
				"z": -0.1409377963,
				"element": "N" 
			},
			{
				"x": -2.5692389441,
				"y": -2.7620863894,
				"z": 0.0271871871,
				"element": "C" 
			},
			{
				"x": -2.1205332846,
				"y": -3.7120905773,
				"z": 0.6455595888,
				"element": "O" 
			},
			{
				"x": -3.9657716274,
				"y": -2.8262425557,
				"z": -0.62391248,
				"element": "C" 
			},
			{
				"x": -3.8966066921,
				"y": -2.7242438953,
				"z": -2.1506708597,
				"element": "C" 
			},
			{
				"x": -3.0119685664,
				"y": -3.6185262214,
				"z": -2.6245500691,
				"element": "F" 
			},
			{
				"x": -3.4985488649,
				"y": -1.4970375306,
				"z": -2.5568921626,
				"element": "F" 
			},
			{
				"x": -5.0879830184,
				"y": -2.9732058308,
				"z": -2.7134670852,
				"element": "F" 
			},
			{
				"x": -4.9398573236,
				"y": -1.8210130531,
				"z": -0.0018918636,
				"element": "C" 
			},
			{
				"x": -4.5987051011,
				"y": -0.5440245822,
				"z": -0.2887174959,
				"element": "F" 
			},
			{
				"x": -6.1921991388,
				"y": -2.0164024801,
				"z": -0.4396681395,
				"element": "F" 
			},
			{
				"x": -4.9356922874,
				"y": -1.9547364936,
				"z": 1.3356015186,
				"element": "F" 
			},
			{
				"x": 0.3198996378,
				"y": -2.453825552,
				"z": 1.3049912717,
				"element": "S" 
			},
			{
				"x": 4.9984778877,
				"y": 1.2591379409,
				"z": 0.3402712173,
				"element": "H" 
			},
			{
				"x": 3.6879188671,
				"y": 0.2564564506,
				"z": -0.3019952647,
				"element": "H" 
			},
			{
				"x": 5.1947514978,
				"y": -0.5023523249,
				"z": 0.261138453,
				"element": "H" 
			},
			{
				"x": 3.1634067632,
				"y": 0.9970991034,
				"z": 2.0428987557,
				"element": "H" 
			},
			{
				"x": 4.6638362476,
				"y": 0.2513743806,
				"z": 2.6241637187,
				"element": "H" 
			},
			{
				"x": -2.308794861,
				"y": -0.8233889181,
				"z": -0.6651170249,
				"element": "H" 
			},
			{
				"x": -4.3450969678,
				"y": -3.8225478598,
				"z": -0.3892515627,
				"element": "H" 
			}
		],
		 "valence_orbital": [ 
			{
				"type": "occ",
				"energy": -0.30792,
				"method": "rhf"
			},
			{
				"type": "occ",
				"energy": -0.30533,
				"method": "rhf"
			},
			{
				"type": "occ",
				"energy": -0.28733,
				"method": "rhf"
			},
			{
				"type": "occ",
				"energy": -0.27347,
				"method": "rhf"
			},
			{
				"type": "occ",
				"energy": -0.22897,
				"method": "rhf"
			},
			{
				"type": "unocc",
				"energy": -0.05569,
				"method": "rhf"
			},
			{
				"type": "unocc",
				"energy": -0.01089,
				"method": "rhf"
			},
			{
				"type": "unocc",
				"energy": -0.00543,
				"method": "rhf"
			},
			{
				"type": "unocc",
				"energy": 0.02357,
				"method": "rhf"
			},
			{
				"type": "unocc",
				"energy": 0.0354,
				"method": "rhf"
			}
		],
		"cosmo_sigma_profile": { 
			"-0.025": 0.0,
			"-0.024": 0.0,
			"-0.023": 0.0,
			"-0.022": 0.0,
			"-0.021": 0.0,
			"-0.02": 0.0,
			"-0.019": 0.0,
			"-0.018": 0.0,
			"-0.017": 0.0,
			"-0.016": 0.0,
			"-0.015": 0.120706395538,
			"-0.014": 0.295422783821,
			"-0.013": 1.38555838427,
			"-0.012": 2.98249474547,
			"-0.011": 2.44229288477,
			"-0.01": 1.82473241439,
			"-0.009": 2.23741662358,
			"-0.008": 2.42459569646,
			"-0.007": 4.98222274057,
			"-0.006": 6.09713749569,
			"-0.005": 12.7753707675,
			"-0.004": 17.1840480534,
			"-0.003": 23.694342395,
			"-0.002": 22.3286972178,
			"-0.001": 26.0768048449,
			"0.0": 35.4660346432,
			"0.001": 54.0451932293,
			"0.002": 36.5190744338,
			"0.003": 7.26092984782,
			"0.004": 6.30238173261,
			"0.005": 7.65118020556,
			"0.006": 5.16762935751,
			"0.007": 4.33836854294,
			"0.008": 5.04364475078,
			"0.009": 4.36800514646,
			"0.01": 4.50483875332,
			"0.011": 4.28494999728,
			"0.012": 2.1389664517,
			"0.013": 0.869570371349,
			"0.014": 0.150654610117,
			"0.015": 0.0,
			"0.016": 0.0,
			"0.017": 0.0,
			"0.018": 0.0,
			"0.019": 0.0,
			"0.02": 0.0,
			"0.021": 0.0,
			"0.022": 0.0,
			"0.023": 0.0,
			"0.024": 0.0,
			"0.025": 0.0
		}
	}
}
