{
	 "smiles": "CCOC(=O)C(Br)CC", 
	 "Tm": 269.15, 
	 "num_atms": 20, 
	 "gaussian": { 
		 "optdone": 1, 
		 "sigma_profile": "yes", 
		 "theory": "DFT", 
		 "functional": "B3LYP", 
		 "basiset": "6-31G**", 
		 "properties": { 
			 "R2extent": 2606.6531, 
			 "electric_dipole_moment_norm": 2.67201802763, 
			 "electric_quadrupole_moment_norm": 8.48525596903, 
			 "total_energy": -2957.14250365, 
			 "HOMO_LUMO_gap": 0.23011, 
			 "cosmo_polarized_energy": -7.12, 
			 "cosmo_cavitation_energy": 25.45, 
			 "cosmo_dispersion_energy": -18.01, 
			 "cosmo_repulsion_energy": 1.52, 
			 "cosmo_total_nonelectrostatic_energy": 8.96, 
			 "SMD_solvation_energy": 4.24 
		},
		"coords": [
			{
				"x": -1.8959265832,
				"y": 0.2212873122,
				"z": 2.8136431614,
				"element": "C" 
			},
			{
				"x": -1.2545040695,
				"y": 1.4869667842,
				"z": 2.2664788391,
				"element": "C" 
			},
			{
				"x": -0.1576742583,
				"y": 1.1789527992,
				"z": 1.3686748106,
				"element": "O" 
			},
			{
				"x": -0.4778066438,
				"y": 0.9558168086,
				"z": 0.08189363,
				"element": "C" 
			},
			{
				"x": -1.6061006145,
				"y": 0.9477736108,
				"z": -0.3607073285,
				"element": "O" 
			},
			{
				"x": 0.7558910681,
				"y": 0.6924516983,
				"z": -0.7711478003,
				"element": "C" 
			},
			{
				"x": 1.6494741349,
				"y": 2.4515917709,
				"z": -1.0792780189,
				"element": "Br" 
			},
			{
				"x": 1.7511800736,
				"y": -0.3061899255,
				"z": -0.1856720291,
				"element": "C" 
			},
			{
				"x": 1.1349276004,
				"y": -1.7028741078,
				"z": -0.020654435,
				"element": "C" 
			},
			{
				"x": -2.6683188371,
				"y": 0.4844871328,
				"z": 3.5439171162,
				"element": "H" 
			},
			{
				"x": -1.1537897306,
				"y": -0.4085747018,
				"z": 3.3131975542,
				"element": "H" 
			},
			{
				"x": -2.3665399958,
				"y": -0.350021549,
				"z": 2.009807531,
				"element": "H" 
			},
			{
				"x": -1.9827042735,
				"y": 2.0992619907,
				"z": 1.7297270031,
				"element": "H" 
			},
			{
				"x": -0.793305395,
				"y": 2.0800465162,
				"z": 3.0592223191,
				"element": "H" 
			},
			{
				"x": 0.4038915948,
				"y": 0.3964325994,
				"z": -1.75821712,
				"element": "H" 
			},
			{
				"x": 2.1054366786,
				"y": 0.0702100357,
				"z": 0.7777397776,
				"element": "H" 
			},
			{
				"x": 2.6171015001,
				"y": -0.3553472599,
				"z": -0.8531431392,
				"element": "H" 
			},
			{
				"x": 0.7686966218,
				"y": -2.0969507532,
				"z": -0.9746434855,
				"element": "H" 
			},
			{
				"x": 0.2977494883,
				"y": -1.6937977713,
				"z": 0.6845256057,
				"element": "H" 
			},
			{
				"x": 1.8835216404,
				"y": -2.4018229906,
				"z": 0.3641360085,
				"element": "H" 
			}
		],
		 "valence_orbital": [ 
			{
				"type": "occ",
				"energy": -0.34294,
				"method": "rhf"
			},
			{
				"type": "occ",
				"energy": -0.30752,
				"method": "rhf"
			},
			{
				"type": "occ",
				"energy": -0.29051,
				"method": "rhf"
			},
			{
				"type": "occ",
				"energy": -0.27566,
				"method": "rhf"
			},
			{
				"type": "occ",
				"energy": -0.26868,
				"method": "rhf"
			},
			{
				"type": "unocc",
				"energy": -0.03857,
				"method": "rhf"
			},
			{
				"type": "unocc",
				"energy": 0.04025,
				"method": "rhf"
			},
			{
				"type": "unocc",
				"energy": 0.0863,
				"method": "rhf"
			},
			{
				"type": "unocc",
				"energy": 0.09973,
				"method": "rhf"
			},
			{
				"type": "unocc",
				"energy": 0.11982,
				"method": "rhf"
			}
		],
		"cosmo_sigma_profile": { 
			"-0.025": 0.0,
			"-0.024": 0.0,
			"-0.023": 0.0,
			"-0.022": 0.0,
			"-0.021": 0.0,
			"-0.02": 0.0,
			"-0.019": 0.0,
			"-0.018": 0.0,
			"-0.017": 0.0,
			"-0.016": 0.0,
			"-0.015": 0.0,
			"-0.014": 0.0,
			"-0.013": 0.0,
			"-0.012": 0.0,
			"-0.011": 0.0,
			"-0.01": 0.0,
			"-0.009": 0.0124981795705,
			"-0.008": 1.34739715258,
			"-0.007": 2.12712185035,
			"-0.006": 4.44570158268,
			"-0.005": 9.9353539002,
			"-0.004": 20.0805206174,
			"-0.003": 25.5659721667,
			"-0.002": 25.0865581745,
			"-0.001": 21.3199415177,
			"0.0": 21.6263663838,
			"0.001": 11.9832902337,
			"0.002": 7.00828924662,
			"0.003": 8.91018852407,
			"0.004": 10.1140456174,
			"0.005": 11.7372106351,
			"0.006": 6.98736424522,
			"0.007": 2.59284274893,
			"0.008": 1.31021085669,
			"0.009": 1.57404491141,
			"0.01": 2.34948816724,
			"0.011": 4.02531092576,
			"0.012": 2.0643615112,
			"0.013": 0.0690554783244,
			"0.014": 0.0,
			"0.015": 0.0,
			"0.016": 0.0,
			"0.017": 0.0,
			"0.018": 0.0,
			"0.019": 0.0,
			"0.02": 0.0,
			"0.021": 0.0,
			"0.022": 0.0,
			"0.023": 0.0,
			"0.024": 0.0,
			"0.025": 0.0
		}
	}
}
