{
	 "smiles": "[O-][N+](=O)C1=CC(C#N)=C(Cl)C=C1", 
	 "Tm": 378.65, 
	 "num_atms": 15, 
	 "gaussian": { 
		 "optdone": 1, 
		 "sigma_profile": "yes", 
		 "theory": "DFT", 
		 "functional": "B3LYP", 
		 "basiset": "6-31G**", 
		 "properties": { 
			 "R2extent": 2972.2737, 
			 "electric_dipole_moment_norm": 3.74254284945, 
			 "electric_quadrupole_moment_norm": 17.3550552298, 
			 "total_energy": -988.568783487, 
			 "HOMO_LUMO_gap": 0.17889, 
			 "cosmo_polarized_energy": -11.86, 
			 "cosmo_cavitation_energy": 23.78, 
			 "cosmo_dispersion_energy": -16.97, 
			 "cosmo_repulsion_energy": 1.35, 
			 "cosmo_total_nonelectrostatic_energy": 8.16, 
			 "SMD_solvation_energy": 7.49 
		},
		"coords": [
			{
				"x": -2.5773211748,
				"y": -2.0963753878,
				"z": 1.2323259354,
				"element": "O" 
			},
			{
				"x": -2.1657073278,
				"y": -1.0043599746,
				"z": 0.8467865306,
				"element": "N" 
			},
			{
				"x": -2.8560552193,
				"y": -0.1237292555,
				"z": 0.3393312818,
				"element": "O" 
			},
			{
				"x": -0.726893387,
				"y": -0.730567774,
				"z": 1.0073812759,
				"element": "C" 
			},
			{
				"x": -0.2279499712,
				"y": 0.4933942021,
				"z": 0.5829980809,
				"element": "C" 
			},
			{
				"x": 1.1402366695,
				"y": 0.760985329,
				"z": 0.7326789618,
				"element": "C" 
			},
			{
				"x": 1.6591704481,
				"y": 2.0227433152,
				"z": 0.2960568285,
				"element": "C" 
			},
			{
				"x": 2.0502871706,
				"y": 3.055107597,
				"z": -0.0676457506,
				"element": "N" 
			},
			{
				"x": 1.9733106263,
				"y": -0.2210577342,
				"z": 1.3106921768,
				"element": "C" 
			},
			{
				"x": 3.6720885068,
				"y": 0.0823550414,
				"z": 1.508734388,
				"element": "Cl" 
			},
			{
				"x": 1.4465257665,
				"y": -1.4444237494,
				"z": 1.7294635891,
				"element": "C" 
			},
			{
				"x": 0.0886468947,
				"y": -1.7054556103,
				"z": 1.578987309,
				"element": "C" 
			},
			{
				"x": -0.8923030872,
				"y": 1.2263587603,
				"z": 0.143416278,
				"element": "H" 
			},
			{
				"x": 2.1038138616,
				"y": -2.1844352714,
				"z": 2.1707070936,
				"element": "H" 
			},
			{
				"x": -0.3456497767,
				"y": -2.6456394878,
				"z": 1.8951860212,
				"element": "H" 
			}
		],
		 "valence_orbital": [ 
			{
				"type": "occ",
				"energy": -0.33192,
				"method": "rhf"
			},
			{
				"type": "occ",
				"energy": -0.32949,
				"method": "rhf"
			},
			{
				"type": "occ",
				"energy": -0.31406,
				"method": "rhf"
			},
			{
				"type": "occ",
				"energy": -0.30667,
				"method": "rhf"
			},
			{
				"type": "occ",
				"energy": -0.29441,
				"method": "rhf"
			},
			{
				"type": "unocc",
				"energy": -0.11552,
				"method": "rhf"
			},
			{
				"type": "unocc",
				"energy": -0.08441,
				"method": "rhf"
			},
			{
				"type": "unocc",
				"energy": -0.03778,
				"method": "rhf"
			},
			{
				"type": "unocc",
				"energy": -0.00612,
				"method": "rhf"
			},
			{
				"type": "unocc",
				"energy": 0.01133,
				"method": "rhf"
			}
		],
		"cosmo_sigma_profile": { 
			"-0.025": 0.0,
			"-0.024": 0.0,
			"-0.023": 0.0,
			"-0.022": 0.0,
			"-0.021": 0.0,
			"-0.02": 0.0,
			"-0.019": 0.0,
			"-0.018": 0.0,
			"-0.017": 0.0,
			"-0.016": 0.0,
			"-0.015": 0.0,
			"-0.014": 0.0,
			"-0.013": 0.0,
			"-0.012": 0.0,
			"-0.011": 0.235535797042,
			"-0.01": 2.58543198417,
			"-0.009": 5.75347242085,
			"-0.008": 6.10323760957,
			"-0.007": 6.13935786545,
			"-0.006": 6.89437792874,
			"-0.005": 9.82957048539,
			"-0.004": 16.8811745762,
			"-0.003": 23.4462537124,
			"-0.002": 14.5151860319,
			"-0.001": 11.6267514198,
			"0.0": 9.03554295872,
			"0.001": 8.53875982734,
			"0.002": 13.6987564821,
			"0.003": 7.4642199478,
			"0.004": 5.06749507201,
			"0.005": 6.58064057962,
			"0.006": 8.57780529107,
			"0.007": 12.090631806,
			"0.008": 7.69129547644,
			"0.009": 6.51254122912,
			"0.01": 2.59237131574,
			"0.011": 2.58950320954,
			"0.012": 1.39751477394,
			"0.013": 0.0,
			"0.014": 0.0,
			"0.015": 0.0,
			"0.016": 0.0,
			"0.017": 0.0,
			"0.018": 0.0,
			"0.019": 0.0,
			"0.02": 0.0,
			"0.021": 0.0,
			"0.022": 0.0,
			"0.023": 0.0,
			"0.024": 0.0,
			"0.025": 0.0
		}
	}
}
