{
	 "smiles": "CN1N=NN=C1C1=CC(=CC=C1)S(Cl)(=O)=O", 
	 "Tm": 360.15, 
	 "num_atms": 23, 
	 "gaussian": { 
		 "optdone": 1, 
		 "sigma_profile": "yes", 
		 "theory": "DFT", 
		 "functional": "B3LYP", 
		 "basiset": "6-31G**", 
		 "properties": { 
			 "R2extent": 5567.0761, 
			 "electric_dipole_moment_norm": 1.75099188462, 
			 "electric_quadrupole_moment_norm": 29.4169052463, 
			 "total_energy": -1536.78148537, 
			 "HOMO_LUMO_gap": 0.1772, 
			 "cosmo_polarized_energy": -18.83, 
			 "cosmo_cavitation_energy": 31.7, 
			 "cosmo_dispersion_energy": -23.16, 
			 "cosmo_repulsion_energy": 1.74, 
			 "cosmo_total_nonelectrostatic_energy": 10.28, 
			 "SMD_solvation_energy": 2.28 
		},
		"coords": [
			{
				"x": -0.7663947577,
				"y": -2.8485589971,
				"z": 1.731593354,
				"element": "C" 
			},
			{
				"x": -1.4678274208,
				"y": -2.4780308497,
				"z": 0.5099903983,
				"element": "N" 
			},
			{
				"x": -2.0950039772,
				"y": -3.442350083,
				"z": -0.2076175481,
				"element": "N" 
			},
			{
				"x": -2.6679030833,
				"y": -2.8527412361,
				"z": -1.2056379814,
				"element": "N" 
			},
			{
				"x": -2.4436550022,
				"y": -1.5215444794,
				"z": -1.1755322407,
				"element": "N" 
			},
			{
				"x": -1.6929334425,
				"y": -1.2881658823,
				"z": -0.1048910566,
				"element": "C" 
			},
			{
				"x": -1.2461249404,
				"y": 0.0521943796,
				"z": 0.2942384095,
				"element": "C" 
			},
			{
				"x": -0.1664852284,
				"y": 0.2764653963,
				"z": 1.1576091126,
				"element": "C" 
			},
			{
				"x": 0.1781171208,
				"y": 1.5893211949,
				"z": 1.4747690464,
				"element": "C" 
			},
			{
				"x": -0.5007181959,
				"y": 2.6936017253,
				"z": 0.9641811893,
				"element": "C" 
			},
			{
				"x": -1.5656273891,
				"y": 2.4593714154,
				"z": 0.0922147185,
				"element": "C" 
			},
			{
				"x": -1.9336703859,
				"y": 1.1589009257,
				"z": -0.2405943425,
				"element": "C" 
			},
			{
				"x": 1.5410619711,
				"y": 1.8517756324,
				"z": 2.6037072676,
				"element": "S" 
			},
			{
				"x": 3.1805240175,
				"y": 2.0079666699,
				"z": 1.255532714,
				"element": "Cl" 
			},
			{
				"x": 1.7612942085,
				"y": 0.6324894978,
				"z": 3.3731024789,
				"element": "O" 
			},
			{
				"x": 1.400008536,
				"y": 3.1580811894,
				"z": 3.2325936429,
				"element": "O" 
			},
			{
				"x": -1.032460905,
				"y": -2.1672372808,
				"z": 2.5420744635,
				"element": "H" 
			},
			{
				"x": 0.3165032885,
				"y": -2.8396205646,
				"z": 1.580837429,
				"element": "H" 
			},
			{
				"x": -1.0837300722,
				"y": -3.8597189114,
				"z": 1.9838268824,
				"element": "H" 
			},
			{
				"x": 0.4136145536,
				"y": -0.5339972995,
				"z": 1.5778732954,
				"element": "H" 
			},
			{
				"x": -0.2075470746,
				"y": 3.6980464079,
				"z": 1.2475923572,
				"element": "H" 
			},
			{
				"x": -2.1146475784,
				"y": 3.2978136767,
				"z": -0.3237053254,
				"element": "H" 
			},
			{
				"x": -2.7583942426,
				"y": 0.9729374727,
				"z": -0.9193582648,
				"element": "H" 
			}
		],
		 "valence_orbital": [ 
			{
				"type": "occ",
				"energy": -0.32459,
				"method": "rhf"
			},
			{
				"type": "occ",
				"energy": -0.30932,
				"method": "rhf"
			},
			{
				"type": "occ",
				"energy": -0.30531,
				"method": "rhf"
			},
			{
				"type": "occ",
				"energy": -0.29315,
				"method": "rhf"
			},
			{
				"type": "occ",
				"energy": -0.27987,
				"method": "rhf"
			},
			{
				"type": "unocc",
				"energy": -0.10267,
				"method": "rhf"
			},
			{
				"type": "unocc",
				"energy": -0.07764,
				"method": "rhf"
			},
			{
				"type": "unocc",
				"energy": -0.05812,
				"method": "rhf"
			},
			{
				"type": "unocc",
				"energy": -0.01431,
				"method": "rhf"
			},
			{
				"type": "unocc",
				"energy": 0.01677,
				"method": "rhf"
			}
		],
		"cosmo_sigma_profile": { 
			"-0.025": 0.0,
			"-0.024": 0.0,
			"-0.023": 0.0,
			"-0.022": 0.0,
			"-0.021": 0.0,
			"-0.02": 0.0,
			"-0.019": 0.0,
			"-0.018": 0.0,
			"-0.017": 0.0,
			"-0.016": 0.0,
			"-0.015": 0.0,
			"-0.014": 0.0,
			"-0.013": 0.0,
			"-0.012": 0.254123279374,
			"-0.011": 1.25580502266,
			"-0.01": 1.68324734727,
			"-0.009": 5.3650618248,
			"-0.008": 14.2240791818,
			"-0.007": 15.5833559245,
			"-0.006": 13.8530686449,
			"-0.005": 16.0593500711,
			"-0.004": 13.6624057573,
			"-0.003": 12.9919701721,
			"-0.002": 15.3522448047,
			"-0.001": 20.1378325439,
			"0.0": 18.9014111459,
			"0.001": 12.442068257,
			"0.002": 12.287937484,
			"0.003": 16.7021231579,
			"0.004": 8.75894638852,
			"0.005": 5.47086620633,
			"0.006": 6.86314130871,
			"0.007": 10.0707176324,
			"0.008": 14.2285615248,
			"0.009": 7.70128610037,
			"0.01": 5.17030158026,
			"0.011": 3.80059433418,
			"0.012": 2.71277134144,
			"0.013": 2.30684021514,
			"0.014": 0.612768153744,
			"0.015": 0.0,
			"0.016": 0.0,
			"0.017": 0.0,
			"0.018": 0.0,
			"0.019": 0.0,
			"0.02": 0.0,
			"0.021": 0.0,
			"0.022": 0.0,
			"0.023": 0.0,
			"0.024": 0.0,
			"0.025": 0.0
		}
	}
}
