{
	 "smiles": "OC(=O)CCC1=CC=C(C=C1)S(=O)(=O)N1CCCCCC1", 
	 "Tm": 396.15, 
	 "num_atms": 42, 
	 "gaussian": { 
		 "optdone": 1, 
		 "sigma_profile": "yes", 
		 "theory": "DFT", 
		 "functional": "B3LYP", 
		 "basiset": "6-31G**", 
		 "properties": { 
			 "R2extent": 7598.1713, 
			 "electric_dipole_moment_norm": 5.20349048524, 
			 "electric_quadrupole_moment_norm": 34.7829971154, 
			 "total_energy": -1338.03964955, 
			 "HOMO_LUMO_gap": 0.20035, 
			 "cosmo_polarized_energy": -19.99, 
			 "cosmo_cavitation_energy": 43.73, 
			 "cosmo_dispersion_energy": -29.66, 
			 "cosmo_repulsion_energy": 2.24, 
			 "cosmo_total_nonelectrostatic_energy": 16.32, 
			 "SMD_solvation_energy": 6.02 
		},
		"coords": [
			{
				"x": 2.2226211298,
				"y": -3.6139829855,
				"z": 2.7255825955,
				"element": "O" 
			},
			{
				"x": 0.9402331385,
				"y": -3.5345322736,
				"z": 2.2819956219,
				"element": "C" 
			},
			{
				"x": 0.6186818871,
				"y": -3.8842092791,
				"z": 1.1692156504,
				"element": "O" 
			},
			{
				"x": 0.0046263342,
				"y": -2.9985652751,
				"z": 3.3456831147,
				"element": "C" 
			},
			{
				"x": 0.4858874923,
				"y": -1.694490005,
				"z": 4.0235260686,
				"element": "C" 
			},
			{
				"x": 0.5949363698,
				"y": -0.5287030196,
				"z": 3.0633865877,
				"element": "C" 
			},
			{
				"x": -0.5329393523,
				"y": 0.2460069719,
				"z": 2.7514531423,
				"element": "C" 
			},
			{
				"x": -0.4546988726,
				"y": 1.2971197272,
				"z": 1.8416211185,
				"element": "C" 
			},
			{
				"x": 0.7696155191,
				"y": 1.5829517559,
				"z": 1.2307781091,
				"element": "C" 
			},
			{
				"x": 1.9113385347,
				"y": 0.8419651042,
				"z": 1.5422234089,
				"element": "C" 
			},
			{
				"x": 1.8156974301,
				"y": -0.2103999066,
				"z": 2.4535006115,
				"element": "C" 
			},
			{
				"x": 0.8676136542,
				"y": 2.9059679422,
				"z": 0.0135204528,
				"element": "S" 
			},
			{
				"x": 2.2711644288,
				"y": 3.3269810845,
				"z": -0.028695896,
				"element": "O" 
			},
			{
				"x": -0.2176173324,
				"y": 3.8453992548,
				"z": 0.3142547988,
				"element": "O" 
			},
			{
				"x": 0.5292950064,
				"y": 2.220032156,
				"z": -1.4690516418,
				"element": "N" 
			},
			{
				"x": 1.613220058,
				"y": 1.4320062711,
				"z": -2.1036261593,
				"element": "C" 
			},
			{
				"x": 1.1735692829,
				"y": 0.7727474365,
				"z": -3.4149419649,
				"element": "C" 
			},
			{
				"x": 0.1714083181,
				"y": -0.4050219864,
				"z": -3.2709829969,
				"element": "C" 
			},
			{
				"x": -0.6961446449,
				"y": -0.3912474423,
				"z": -2.0007642206,
				"element": "C" 
			},
			{
				"x": -1.5862412974,
				"y": 0.8453047594,
				"z": -1.8086531916,
				"element": "C" 
			},
			{
				"x": -0.8493826465,
				"y": 2.1888870904,
				"z": -1.9791041007,
				"element": "C" 
			},
			{
				"x": 2.7379812203,
				"y": -3.9815523116,
				"z": 1.987858267,
				"element": "H" 
			},
			{
				"x": -0.9694626715,
				"y": -2.8612760298,
				"z": 2.8713145251,
				"element": "H" 
			},
			{
				"x": -0.100858909,
				"y": -3.7784823961,
				"z": 4.1106017051,
				"element": "H" 
			},
			{
				"x": -0.2254097612,
				"y": -1.449683428,
				"z": 4.8199652437,
				"element": "H" 
			},
			{
				"x": 1.4521909013,
				"y": -1.8788243413,
				"z": 4.5012420212,
				"element": "H" 
			},
			{
				"x": -1.481747432,
				"y": 0.030651575,
				"z": 3.2368670364,
				"element": "H" 
			},
			{
				"x": -1.3211310238,
				"y": 1.9118871614,
				"z": 1.6228837586,
				"element": "H" 
			},
			{
				"x": 2.8631988745,
				"y": 1.1104258543,
				"z": 1.0975335776,
				"element": "H" 
			},
			{
				"x": 2.7009753041,
				"y": -0.7895833995,
				"z": 2.6995711726,
				"element": "H" 
			},
			{
				"x": 2.4559554484,
				"y": 2.1020559936,
				"z": -2.2941633375,
				"element": "H" 
			},
			{
				"x": 1.9685950681,
				"y": 0.6551969526,
				"z": -1.4111303552,
				"element": "H" 
			},
			{
				"x": 2.0859398301,
				"y": 0.4098168376,
				"z": -3.90170684,
				"element": "H" 
			},
			{
				"x": 0.7771494107,
				"y": 1.5425653492,
				"z": -4.0845113331,
				"element": "H" 
			},
			{
				"x": 0.7309947789,
				"y": -1.3480250738,
				"z": -3.2736633809,
				"element": "H" 
			},
			{
				"x": -0.4710004986,
				"y": -0.4359434731,
				"z": -4.1599870563,
				"element": "H" 
			},
			{
				"x": -1.327959835,
				"y": -1.2873210472,
				"z": -1.9986554414,
				"element": "H" 
			},
			{
				"x": -0.0446927129,
				"y": -0.4924412525,
				"z": -1.1246659191,
				"element": "H" 
			},
			{
				"x": -2.4201244748,
				"y": 0.830455573,
				"z": -2.5233403222,
				"element": "H" 
			},
			{
				"x": -2.0356473069,
				"y": 0.7946134242,
				"z": -0.8097394024,
				"element": "H" 
			},
			{
				"x": -0.8087403652,
				"y": 2.4618506494,
				"z": -3.0379076347,
				"element": "H" 
			},
			{
				"x": -1.3905902836,
				"y": 2.9940960014,
				"z": -1.4810873931,
				"element": "H" 
			}
		],
		 "valence_orbital": [ 
			{
				"type": "occ",
				"energy": -0.29121,
				"method": "rhf"
			},
			{
				"type": "occ",
				"energy": -0.28228,
				"method": "rhf"
			},
			{
				"type": "occ",
				"energy": -0.26889,
				"method": "rhf"
			},
			{
				"type": "occ",
				"energy": -0.26639,
				"method": "rhf"
			},
			{
				"type": "occ",
				"energy": -0.23477,
				"method": "rhf"
			},
			{
				"type": "unocc",
				"energy": -0.03442,
				"method": "rhf"
			},
			{
				"type": "unocc",
				"energy": -0.02198,
				"method": "rhf"
			},
			{
				"type": "unocc",
				"energy": -1e-05,
				"method": "rhf"
			},
			{
				"type": "unocc",
				"energy": 0.05892,
				"method": "rhf"
			},
			{
				"type": "unocc",
				"energy": 0.0677,
				"method": "rhf"
			}
		],
		"cosmo_sigma_profile": { 
			"-0.025": 0.0,
			"-0.024": 0.0,
			"-0.023": 0.0,
			"-0.022": 0.0,
			"-0.021": 0.0,
			"-0.02": 0.0,
			"-0.019": 0.0,
			"-0.018": 0.518414487427,
			"-0.017": 0.839410924325,
			"-0.016": 1.26542078401,
			"-0.015": 0.478893792528,
			"-0.014": 0.554954945286,
			"-0.013": 0.943365503135,
			"-0.012": 0.739888989165,
			"-0.011": 0.664327639205,
			"-0.01": 0.653902768958,
			"-0.009": 0.334305853428,
			"-0.008": 0.822550687429,
			"-0.007": 4.26698407546,
			"-0.006": 12.3355938664,
			"-0.005": 20.7177049367,
			"-0.004": 29.4827491479,
			"-0.003": 39.2562335414,
			"-0.002": 44.2071347893,
			"-0.001": 33.6875130588,
			"0.0": 31.2241610213,
			"0.001": 21.6424261196,
			"0.002": 15.9344070694,
			"0.003": 14.6984382504,
			"0.004": 8.24821327093,
			"0.005": 6.48006640647,
			"0.006": 4.75902973776,
			"0.007": 5.68284561062,
			"0.008": 6.13388920204,
			"0.009": 5.47529135175,
			"0.01": 6.93559780866,
			"0.011": 10.9880044228,
			"0.012": 10.7824695162,
			"0.013": 1.72847293479,
			"0.014": 0.000574402674573,
			"0.015": 0.0,
			"0.016": 0.0,
			"0.017": 0.0,
			"0.018": 0.0,
			"0.019": 0.0,
			"0.02": 0.0,
			"0.021": 0.0,
			"0.022": 0.0,
			"0.023": 0.0,
			"0.024": 0.0,
			"0.025": 0.0
		}
	}
}
