{
	 "smiles": "OC1=C(F)C=CC=N1", 
	 "Tm": 432.15, 
	 "num_atms": 12, 
	 "gaussian": { 
		 "optdone": 1, 
		 "sigma_profile": "yes", 
		 "theory": "DFT", 
		 "functional": "B3LYP", 
		 "basiset": "6-31G**", 
		 "properties": { 
			 "R2extent": 1560.7107, 
			 "electric_dipole_moment_norm": 1.77920410858, 
			 "electric_quadrupole_moment_norm": 7.66744522771, 
			 "total_energy": -422.745287409, 
			 "HOMO_LUMO_gap": 0.21009, 
			 "cosmo_polarized_energy": -7.05, 
			 "cosmo_cavitation_energy": 16.91, 
			 "cosmo_dispersion_energy": -12.76, 
			 "cosmo_repulsion_energy": 1.04, 
			 "cosmo_total_nonelectrostatic_energy": 5.19, 
			 "SMD_solvation_energy": 2.74 
		},
		"coords": [
			{
				"x": 2.8255797445,
				"y": 1.7604663949,
				"z": 0.9827622303,
				"element": "O" 
			},
			{
				"x": 1.9410585797,
				"y": 0.7639818005,
				"z": 1.1933437741,
				"element": "C" 
			},
			{
				"x": 2.0494296015,
				"y": -0.410913561,
				"z": 0.4282174458,
				"element": "C" 
			},
			{
				"x": 3.0253123873,
				"y": -0.5154773119,
				"z": -0.490418701,
				"element": "F" 
			},
			{
				"x": 1.1509090228,
				"y": -1.438332846,
				"z": 0.633432667,
				"element": "C" 
			},
			{
				"x": 0.154817668,
				"y": -1.2709226777,
				"z": 1.605643279,
				"element": "C" 
			},
			{
				"x": 0.1232914788,
				"y": -0.0764305773,
				"z": 2.3142927109,
				"element": "C" 
			},
			{
				"x": 0.9995461644,
				"y": 0.9225985154,
				"z": 2.1124913714,
				"element": "N" 
			},
			{
				"x": 2.5794166616,
				"y": 2.4662602239,
				"z": 1.6018239181,
				"element": "H" 
			},
			{
				"x": 1.2361061787,
				"y": -2.3440610409,
				"z": 0.0421305869,
				"element": "H" 
			},
			{
				"x": -0.5717961964,
				"y": -2.0519782917,
				"z": 1.8000047428,
				"element": "H" 
			},
			{
				"x": -0.6302712909,
				"y": 0.0996093718,
				"z": 3.0779759746,
				"element": "H" 
			}
		],
		 "valence_orbital": [ 
			{
				"type": "occ",
				"energy": -0.37886,
				"method": "rhf"
			},
			{
				"type": "occ",
				"energy": -0.35644,
				"method": "rhf"
			},
			{
				"type": "occ",
				"energy": -0.28762,
				"method": "rhf"
			},
			{
				"type": "occ",
				"energy": -0.27924,
				"method": "rhf"
			},
			{
				"type": "occ",
				"energy": -0.23676,
				"method": "rhf"
			},
			{
				"type": "unocc",
				"energy": -0.02667,
				"method": "rhf"
			},
			{
				"type": "unocc",
				"energy": -0.00224,
				"method": "rhf"
			},
			{
				"type": "unocc",
				"energy": 0.07893,
				"method": "rhf"
			},
			{
				"type": "unocc",
				"energy": 0.09392,
				"method": "rhf"
			},
			{
				"type": "unocc",
				"energy": 0.14698,
				"method": "rhf"
			}
		],
		"cosmo_sigma_profile": { 
			"-0.025": 0.0,
			"-0.024": 0.0,
			"-0.023": 0.0,
			"-0.022": 0.0,
			"-0.021": 0.0,
			"-0.02": 0.0,
			"-0.019": 0.0,
			"-0.018": 0.208282340214,
			"-0.017": 0.665230617951,
			"-0.016": 0.740158908704,
			"-0.015": 1.00732692213,
			"-0.014": 0.355104231935,
			"-0.013": 1.00311362306,
			"-0.012": 0.711167567732,
			"-0.011": 0.312959546994,
			"-0.01": 0.595660524276,
			"-0.009": 0.885625921038,
			"-0.008": 2.40833973317,
			"-0.007": 5.92782629721,
			"-0.006": 7.48928069981,
			"-0.005": 6.65894888263,
			"-0.004": 5.44553400967,
			"-0.003": 4.75797166671,
			"-0.002": 6.08373746611,
			"-0.001": 10.767058485,
			"0.0": 13.2990605674,
			"0.001": 10.9678905633,
			"0.002": 11.6047528627,
			"0.003": 11.2894211476,
			"0.004": 11.325469853,
			"0.005": 3.75919040347,
			"0.006": 3.47413952402,
			"0.007": 3.53894126286,
			"0.008": 2.7536610833,
			"0.009": 2.43547738783,
			"0.01": 2.67423575173,
			"0.011": 0.76459630272,
			"0.012": 1.49864012551,
			"0.013": 0.267882836032,
			"0.014": 0.303993430198,
			"0.015": 0.0,
			"0.016": 0.0,
			"0.017": 0.0,
			"0.018": 0.0,
			"0.019": 0.0,
			"0.02": 0.0,
			"0.021": 0.0,
			"0.022": 0.0,
			"0.023": 0.0,
			"0.024": 0.0,
			"0.025": 0.0
		}
	}
}
