{
	 "smiles": "NCC(O)C1=CC2=C(S1)C=CC=C2", 
	 "Tm": 402.15, 
	 "num_atms": 24, 
	 "gaussian": { 
		 "optdone": 1, 
		 "sigma_profile": "yes", 
		 "theory": "DFT", 
		 "functional": "B3LYP", 
		 "basiset": "6-31G**", 
		 "properties": { 
			 "R2extent": 3301.9571, 
			 "electric_dipole_moment_norm": 1.48064148598, 
			 "electric_quadrupole_moment_norm": 16.1974497511, 
			 "total_energy": -915.845891015, 
			 "HOMO_LUMO_gap": 0.18603, 
			 "cosmo_polarized_energy": -12.96, 
			 "cosmo_cavitation_energy": 28.54, 
			 "cosmo_dispersion_energy": -21.28, 
			 "cosmo_repulsion_energy": 1.64, 
			 "cosmo_total_nonelectrostatic_energy": 8.9, 
			 "SMD_solvation_energy": 2.77 
		},
		"coords": [
			{
				"x": 2.0619530835,
				"y": -2.5441994557,
				"z": -0.8070853013,
				"element": "N" 
			},
			{
				"x": 2.5458666256,
				"y": -1.1793289882,
				"z": -0.6648588455,
				"element": "C" 
			},
			{
				"x": 2.1404591365,
				"y": -0.4294260026,
				"z": 0.6334224116,
				"element": "C" 
			},
			{
				"x": 2.5625359302,
				"y": -1.1641261362,
				"z": 1.7826280075,
				"element": "O" 
			},
			{
				"x": 0.6578632964,
				"y": -0.2125421655,
				"z": 0.7521733885,
				"element": "C" 
			},
			{
				"x": -0.0707629742,
				"y": 0.8127083243,
				"z": 0.2307160551,
				"element": "C" 
			},
			{
				"x": -1.4868726119,
				"y": 0.6879529785,
				"z": 0.4557189129,
				"element": "C" 
			},
			{
				"x": -1.8011338761,
				"y": -0.4873316086,
				"z": 1.1831567429,
				"element": "C" 
			},
			{
				"x": -0.3529258063,
				"y": -1.4020958772,
				"z": 1.571120952,
				"element": "S" 
			},
			{
				"x": -3.1194059742,
				"y": -0.8058207365,
				"z": 1.5258113185,
				"element": "C" 
			},
			{
				"x": -4.1340618221,
				"y": 0.0590114499,
				"z": 1.1292075164,
				"element": "C" 
			},
			{
				"x": -3.8410849703,
				"y": 1.2289224661,
				"z": 0.4042957316,
				"element": "C" 
			},
			{
				"x": -2.5323296178,
				"y": 1.5472488751,
				"z": 0.0685994819,
				"element": "C" 
			},
			{
				"x": 2.2647286918,
				"y": -3.0595495158,
				"z": 0.0470290616,
				"element": "H" 
			},
			{
				"x": 1.0490493062,
				"y": -2.5467286496,
				"z": -0.9010196792,
				"element": "H" 
			},
			{
				"x": 2.2190087991,
				"y": -0.5900580028,
				"z": -1.5289021866,
				"element": "H" 
			},
			{
				"x": 3.6461820241,
				"y": -1.1971039897,
				"z": -0.6989259881,
				"element": "H" 
			},
			{
				"x": 2.6192144464,
				"y": 0.5639240484,
				"z": 0.6089836656,
				"element": "H" 
			},
			{
				"x": 3.5159789396,
				"y": -1.3057511287,
				"z": 1.7112572292,
				"element": "H" 
			},
			{
				"x": 0.3771213456,
				"y": 1.6474673073,
				"z": -0.2990482193,
				"element": "H" 
			},
			{
				"x": -3.346928307,
				"y": -1.7073008694,
				"z": 2.0867715153,
				"element": "H" 
			},
			{
				"x": -5.1642370906,
				"y": -0.1723722622,
				"z": 1.3833195716,
				"element": "H" 
			},
			{
				"x": -4.6497989648,
				"y": 1.8895366239,
				"z": 0.1058428102,
				"element": "H" 
			},
			{
				"x": -2.3098196097,
				"y": 2.4524633152,
				"z": -0.4898141525,
				"element": "H" 
			}
		],
		 "valence_orbital": [ 
			{
				"type": "occ",
				"energy": -0.291,
				"method": "rhf"
			},
			{
				"type": "occ",
				"energy": -0.2807,
				"method": "rhf"
			},
			{
				"type": "occ",
				"energy": -0.24042,
				"method": "rhf"
			},
			{
				"type": "occ",
				"energy": -0.22986,
				"method": "rhf"
			},
			{
				"type": "occ",
				"energy": -0.21056,
				"method": "rhf"
			},
			{
				"type": "unocc",
				"energy": -0.02453,
				"method": "rhf"
			},
			{
				"type": "unocc",
				"energy": 0.00135,
				"method": "rhf"
			},
			{
				"type": "unocc",
				"energy": 0.0288,
				"method": "rhf"
			},
			{
				"type": "unocc",
				"energy": 0.04748,
				"method": "rhf"
			},
			{
				"type": "unocc",
				"energy": 0.05533,
				"method": "rhf"
			}
		],
		"cosmo_sigma_profile": { 
			"-0.025": 0.0,
			"-0.024": 0.0,
			"-0.023": 0.0,
			"-0.022": 0.0,
			"-0.021": 0.0,
			"-0.02": 0.0,
			"-0.019": 0.0,
			"-0.018": 0.0,
			"-0.017": 0.0442231380337,
			"-0.016": 0.703162085346,
			"-0.015": 1.29150553922,
			"-0.014": 0.548312629441,
			"-0.013": 1.04878902934,
			"-0.012": 1.39771804038,
			"-0.011": 0.995140666199,
			"-0.01": 0.802413528329,
			"-0.009": 1.55898328257,
			"-0.008": 3.09779041532,
			"-0.007": 4.82508832449,
			"-0.006": 14.7740769819,
			"-0.005": 19.4516986069,
			"-0.004": 19.394733917,
			"-0.003": 17.5106116542,
			"-0.002": 13.1477849653,
			"-0.001": 12.5162985933,
			"0.0": 10.5844383667,
			"0.001": 10.76895789,
			"0.002": 12.1203327652,
			"0.003": 17.4796131157,
			"0.004": 19.2498408388,
			"0.005": 16.3242876963,
			"0.006": 9.30976861122,
			"0.007": 2.31684347829,
			"0.008": 1.69301753269,
			"0.009": 1.92853985883,
			"0.01": 2.75421204336,
			"0.011": 2.63375105703,
			"0.012": 1.6585470756,
			"0.013": 1.94841947354,
			"0.014": 0.548261491953,
			"0.015": 0.717634893798,
			"0.016": 0.328199782993,
			"0.017": 0.862969358826,
			"0.018": 0.781289632017,
			"0.019": 0.479622073342,
			"0.02": 0.109017666471,
			"0.021": 0.0,
			"0.022": 0.0,
			"0.023": 0.0,
			"0.024": 0.0,
			"0.025": 0.0
		}
	}
}
