{
	 "smiles": "CC1=CC=C(NC(=S)NC2=CC=C(C)C=C2)C=C1", 
	 "Tm": 456.15, 
	 "num_atms": 34, 
	 "gaussian": { 
		 "optdone": 1, 
		 "sigma_profile": "yes", 
		 "theory": "DFT", 
		 "functional": "B3LYP", 
		 "basiset": "6-31G**", 
		 "properties": { 
			 "R2extent": 8442.6023, 
			 "electric_dipole_moment_norm": 5.63796872109, 
			 "electric_quadrupole_moment_norm": 26.4584773067, 
			 "total_energy": -1088.95926346, 
			 "HOMO_LUMO_gap": 0.1671, 
			 "cosmo_polarized_energy": -16.1, 
			 "cosmo_cavitation_energy": 39.23, 
			 "cosmo_dispersion_energy": -28.31, 
			 "cosmo_repulsion_energy": 2.16, 
			 "cosmo_total_nonelectrostatic_energy": 13.08, 
			 "SMD_solvation_energy": 5.77 
		},
		"coords": [
			{
				"x": 4.1117644717,
				"y": 3.016613116,
				"z": 3.5127303755,
				"element": "C" 
			},
			{
				"x": 2.8988204896,
				"y": 2.1994213545,
				"z": 3.1361369434,
				"element": "C" 
			},
			{
				"x": 2.9288616745,
				"y": 1.3082172138,
				"z": 2.0565497324,
				"element": "C" 
			},
			{
				"x": 1.8215070523,
				"y": 0.528664962,
				"z": 1.735058176,
				"element": "C" 
			},
			{
				"x": 0.6401874025,
				"y": 0.6229345803,
				"z": 2.4849562091,
				"element": "C" 
			},
			{
				"x": -0.4540444502,
				"y": -0.1627749244,
				"z": 2.0485847497,
				"element": "N" 
			},
			{
				"x": -1.532725412,
				"y": -0.6582238793,
				"z": 2.719391131,
				"element": "C" 
			},
			{
				"x": -1.8419059264,
				"y": -0.5418963576,
				"z": 4.3677880584,
				"element": "S" 
			},
			{
				"x": -2.4227495675,
				"y": -1.3558540068,
				"z": 1.9292740765,
				"element": "N" 
			},
			{
				"x": -2.4438595554,
				"y": -1.5565570092,
				"z": 0.5269038981,
				"element": "C" 
			},
			{
				"x": -2.7343044407,
				"y": -2.8365191124,
				"z": 0.0311009485,
				"element": "C" 
			},
			{
				"x": -2.8216858992,
				"y": -3.0574385741,
				"z": -1.3400715167,
				"element": "C" 
			},
			{
				"x": -2.6013206492,
				"y": -2.0242987768,
				"z": -2.26263167,
				"element": "C" 
			},
			{
				"x": -2.6533198519,
				"y": -2.2829140544,
				"z": -3.7494410017,
				"element": "C" 
			},
			{
				"x": -2.3171496255,
				"y": -0.750490764,
				"z": -1.755973059,
				"element": "C" 
			},
			{
				"x": -2.2515602079,
				"y": -0.5060798729,
				"z": -0.3841824105,
				"element": "C" 
			},
			{
				"x": 0.5863847684,
				"y": 1.5214942858,
				"z": 3.5580496315,
				"element": "C" 
			},
			{
				"x": 1.7081951224,
				"y": 2.2876143947,
				"z": 3.8687578294,
				"element": "C" 
			},
			{
				"x": 4.7643785813,
				"y": 3.1863629772,
				"z": 2.6509217844,
				"element": "H" 
			},
			{
				"x": 4.7110210177,
				"y": 2.5105379292,
				"z": 4.280325951,
				"element": "H" 
			},
			{
				"x": 3.8266875437,
				"y": 3.9925709058,
				"z": 3.9179684058,
				"element": "H" 
			},
			{
				"x": 3.8323127559,
				"y": 1.2163559457,
				"z": 1.4588959573,
				"element": "H" 
			},
			{
				"x": 1.8739876748,
				"y": -0.1632999282,
				"z": 0.8971756351,
				"element": "H" 
			},
			{
				"x": -0.3515520249,
				"y": -0.5007077991,
				"z": 1.0990034684,
				"element": "H" 
			},
			{
				"x": -3.1083538483,
				"y": -1.8529531493,
				"z": 2.4813140697,
				"element": "H" 
			},
			{
				"x": -2.8889153488,
				"y": -3.6553946419,
				"z": 0.7282405609,
				"element": "H" 
			},
			{
				"x": -3.0551634102,
				"y": -4.0560186126,
				"z": -1.700866764,
				"element": "H" 
			},
			{
				"x": -1.6955558773,
				"y": -2.6699999996,
				"z": -4.1194960354,
				"element": "H" 
			},
			{
				"x": -2.8718363045,
				"y": -1.367585817,
				"z": -4.3070000331,
				"element": "H" 
			},
			{
				"x": -3.4193183721,
				"y": -3.0230448387,
				"z": -4.0006010728,
				"element": "H" 
			},
			{
				"x": -2.167161611,
				"y": 0.0771167831,
				"z": -2.4446666286,
				"element": "H" 
			},
			{
				"x": -2.086204843,
				"y": 0.5029952229,
				"z": -0.0210865627,
				"element": "H" 
			},
			{
				"x": -0.3191632767,
				"y": 1.6103715501,
				"z": 4.1415465423,
				"element": "H" 
			},
			{
				"x": 1.648241948,
				"y": 2.9795808972,
				"z": 4.7053426204,
				"element": "H" 
			}
		],
		 "valence_orbital": [ 
			{
				"type": "occ",
				"energy": -0.26025,
				"method": "rhf"
			},
			{
				"type": "occ",
				"energy": -0.24914,
				"method": "rhf"
			},
			{
				"type": "occ",
				"energy": -0.21557,
				"method": "rhf"
			},
			{
				"type": "occ",
				"energy": -0.20567,
				"method": "rhf"
			},
			{
				"type": "occ",
				"energy": -0.20181,
				"method": "rhf"
			},
			{
				"type": "unocc",
				"energy": -0.03471,
				"method": "rhf"
			},
			{
				"type": "unocc",
				"energy": -0.02173,
				"method": "rhf"
			},
			{
				"type": "unocc",
				"energy": -0.0015,
				"method": "rhf"
			},
			{
				"type": "unocc",
				"energy": 0.00062,
				"method": "rhf"
			},
			{
				"type": "unocc",
				"energy": 0.03306,
				"method": "rhf"
			}
		],
		"cosmo_sigma_profile": { 
			"-0.025": 0.0,
			"-0.024": 0.0,
			"-0.023": 0.0,
			"-0.022": 0.0,
			"-0.021": 0.0,
			"-0.02": 0.0,
			"-0.019": 0.0,
			"-0.018": 0.0,
			"-0.017": 0.0,
			"-0.016": 0.0,
			"-0.015": 0.04076011436,
			"-0.014": 0.644234555806,
			"-0.013": 1.56210442739,
			"-0.012": 2.06443563926,
			"-0.011": 1.92053923733,
			"-0.01": 2.71107491647,
			"-0.009": 2.52894840319,
			"-0.008": 2.81460599414,
			"-0.007": 4.11888092974,
			"-0.006": 10.2453107921,
			"-0.005": 18.2810633725,
			"-0.004": 30.874825339,
			"-0.003": 25.2294605044,
			"-0.002": 24.3667452173,
			"-0.001": 25.4123648663,
			"0.0": 31.2800411537,
			"0.001": 20.5865500151,
			"0.002": 18.1211427394,
			"0.003": 16.4967902514,
			"0.004": 19.1888062858,
			"0.005": 19.0797759329,
			"0.006": 8.63904074355,
			"0.007": 5.42546040377,
			"0.008": 4.6527016984,
			"0.009": 4.33518173167,
			"0.01": 5.3131421373,
			"0.011": 7.06437931248,
			"0.012": 1.89257828704,
			"0.013": 0.0,
			"0.014": 0.0,
			"0.015": 0.0,
			"0.016": 0.0,
			"0.017": 0.0,
			"0.018": 0.0,
			"0.019": 0.0,
			"0.02": 0.0,
			"0.021": 0.0,
			"0.022": 0.0,
			"0.023": 0.0,
			"0.024": 0.0,
			"0.025": 0.0
		}
	}
}
