{
	 "smiles": "COC(=O)C1=CSC=C1N", 
	 "Tm": 309.65, 
	 "num_atms": 17, 
	 "gaussian": { 
		 "optdone": 1, 
		 "sigma_profile": "yes", 
		 "theory": "DFT", 
		 "functional": "B3LYP", 
		 "basiset": "6-31G**", 
		 "properties": { 
			 "R2extent": 2118.5708, 
			 "electric_dipole_moment_norm": 1.01536443704, 
			 "electric_quadrupole_moment_norm": 11.627589592, 
			 "total_energy": -836.241257135, 
			 "HOMO_LUMO_gap": 0.15765, 
			 "cosmo_polarized_energy": -8.64, 
			 "cosmo_cavitation_energy": 22.71, 
			 "cosmo_dispersion_energy": -17.74, 
			 "cosmo_repulsion_energy": 1.4, 
			 "cosmo_total_nonelectrostatic_energy": 6.37, 
			 "SMD_solvation_energy": 5.51 
		},
		"coords": [
			{
				"x": -1.3134974232,
				"y": -2.8013922919,
				"z": 0.1031322014,
				"element": "C" 
			},
			{
				"x": -1.3460434895,
				"y": -1.3663999686,
				"z": 0.1277215144,
				"element": "O" 
			},
			{
				"x": -0.2963269194,
				"y": -0.773874033,
				"z": 0.7402610123,
				"element": "C" 
			},
			{
				"x": 0.6170361677,
				"y": -1.4144830861,
				"z": 1.2438931703,
				"element": "O" 
			},
			{
				"x": -0.3776382312,
				"y": 0.6927161973,
				"z": 0.7149948702,
				"element": "C" 
			},
			{
				"x": -1.3549014251,
				"y": 1.4022680499,
				"z": 0.0523594968,
				"element": "C" 
			},
			{
				"x": -1.1089690556,
				"y": 3.0935896719,
				"z": 0.1691924831,
				"element": "S" 
			},
			{
				"x": 0.3269197648,
				"y": 2.8801492194,
				"z": 1.1270233892,
				"element": "C" 
			},
			{
				"x": 0.6031895391,
				"y": 1.5506583641,
				"z": 1.3543014808,
				"element": "C" 
			},
			{
				"x": 1.6314023184,
				"y": 1.0547935925,
				"z": 2.1352974505,
				"element": "N" 
			},
			{
				"x": -1.300084868,
				"y": -3.2050004004,
				"z": 1.1186561767,
				"element": "H" 
			},
			{
				"x": -2.2215937556,
				"y": -3.105746924,
				"z": -0.4172254939,
				"element": "H" 
			},
			{
				"x": -0.4285718042,
				"y": -3.1594571529,
				"z": -0.4291966051,
				"element": "H" 
			},
			{
				"x": -2.1856072169,
				"y": 0.9944590401,
				"z": -0.5038022249,
				"element": "H" 
			},
			{
				"x": 0.8696014618,
				"y": 3.7406429843,
				"z": 1.4906954445,
				"element": "H" 
			},
			{
				"x": 1.8200628466,
				"y": 0.0702018557,
				"z": 1.9902809336,
				"element": "H" 
			},
			{
				"x": 2.4456220901,
				"y": 1.6435748818,
				"z": 2.2255147002,
				"element": "H" 
			}
		],
		 "valence_orbital": [ 
			{
				"type": "occ",
				"energy": -0.31468,
				"method": "rhf"
			},
			{
				"type": "occ",
				"energy": -0.30219,
				"method": "rhf"
			},
			{
				"type": "occ",
				"energy": -0.27824,
				"method": "rhf"
			},
			{
				"type": "occ",
				"energy": -0.24649,
				"method": "rhf"
			},
			{
				"type": "occ",
				"energy": -0.19698,
				"method": "rhf"
			},
			{
				"type": "unocc",
				"energy": -0.03933,
				"method": "rhf"
			},
			{
				"type": "unocc",
				"energy": 0.02729,
				"method": "rhf"
			},
			{
				"type": "unocc",
				"energy": 0.03275,
				"method": "rhf"
			},
			{
				"type": "unocc",
				"energy": 0.08807,
				"method": "rhf"
			},
			{
				"type": "unocc",
				"energy": 0.10936,
				"method": "rhf"
			}
		],
		"cosmo_sigma_profile": { 
			"-0.025": 0.0,
			"-0.024": 0.0,
			"-0.023": 0.0,
			"-0.022": 0.0,
			"-0.021": 0.0,
			"-0.02": 0.0,
			"-0.019": 0.0,
			"-0.018": 0.0,
			"-0.017": 0.0,
			"-0.016": 0.0,
			"-0.015": 0.0,
			"-0.014": 0.0,
			"-0.013": 0.387368391268,
			"-0.012": 1.2855627551,
			"-0.011": 1.27844305684,
			"-0.01": 1.32887762331,
			"-0.009": 2.4891712111,
			"-0.008": 4.74737656554,
			"-0.007": 6.05209181879,
			"-0.006": 9.4073965835,
			"-0.005": 10.2587657919,
			"-0.004": 13.3483196437,
			"-0.003": 13.0771018965,
			"-0.002": 10.9953072738,
			"-0.001": 9.90670212131,
			"0.0": 10.9942985298,
			"0.001": 12.0245788392,
			"0.002": 15.1547911201,
			"0.003": 17.0797581545,
			"0.004": 13.7252269617,
			"0.005": 7.54866385593,
			"0.006": 5.48943588224,
			"0.007": 3.20701619658,
			"0.008": 2.64889280441,
			"0.009": 1.92024190832,
			"0.01": 2.93790278062,
			"0.011": 2.92440917402,
			"0.012": 1.81328821076,
			"0.013": 0.973281173616,
			"0.014": 0.402021506611,
			"0.015": 0.0,
			"0.016": 0.0,
			"0.017": 0.0,
			"0.018": 0.0,
			"0.019": 0.0,
			"0.02": 0.0,
			"0.021": 0.0,
			"0.022": 0.0,
			"0.023": 0.0,
			"0.024": 0.0,
			"0.025": 0.0
		}
	}
}
