{
	 "smiles": "OC1=CC=C(C=C1)C1=CC=C(Br)C=C1", 
	 "Tm": 438.65, 
	 "num_atms": 23, 
	 "gaussian": { 
		 "optdone": 1, 
		 "sigma_profile": "yes", 
		 "theory": "DFT", 
		 "functional": "B3LYP", 
		 "basiset": "6-31G**", 
		 "properties": { 
			 "R2extent": 7753.6756, 
			 "electric_dipole_moment_norm": 2.80880180148, 
			 "electric_quadrupole_moment_norm": 10.8843203853, 
			 "total_energy": -3109.33337434, 
			 "HOMO_LUMO_gap": 0.18224, 
			 "cosmo_polarized_energy": -10.13, 
			 "cosmo_cavitation_energy": 29.69, 
			 "cosmo_dispersion_energy": -22.34, 
			 "cosmo_repulsion_energy": 1.74, 
			 "cosmo_total_nonelectrostatic_energy": 9.1, 
			 "SMD_solvation_energy": 4.01 
		},
		"coords": [
			{
				"x": 3.3231683379,
				"y": -1.8968802285,
				"z": 1.9653037556,
				"element": "O" 
			},
			{
				"x": 2.3483603651,
				"y": -1.2258535356,
				"z": 1.285183778,
				"element": "C" 
			},
			{
				"x": 0.9860317448,
				"y": -1.5030679449,
				"z": 1.4394344482,
				"element": "C" 
			},
			{
				"x": 0.0417253122,
				"y": -0.7796494245,
				"z": 0.714488592,
				"element": "C" 
			},
			{
				"x": 0.4243720529,
				"y": 0.2329225737,
				"z": -0.1794335445,
				"element": "C" 
			},
			{
				"x": 1.8002598963,
				"y": 0.4932063527,
				"z": -0.3182095065,
				"element": "C" 
			},
			{
				"x": 2.7527484916,
				"y": -0.2203271408,
				"z": 0.3995274405,
				"element": "C" 
			},
			{
				"x": -0.5850171673,
				"y": 1.0005466369,
				"z": -0.9490041759,
				"element": "C" 
			},
			{
				"x": -0.4155136153,
				"y": 2.3726729221,
				"z": -1.2027458999,
				"element": "C" 
			},
			{
				"x": -1.3581230973,
				"y": 3.1007770976,
				"z": -1.9261892337,
				"element": "C" 
			},
			{
				"x": -2.4963468769,
				"y": 2.4545377843,
				"z": -2.4042038819,
				"element": "C" 
			},
			{
				"x": -3.7981976984,
				"y": 3.4449238155,
				"z": -3.3954521728,
				"element": "Br" 
			},
			{
				"x": -2.6980774119,
				"y": 1.095891524,
				"z": -2.1695986997,
				"element": "C" 
			},
			{
				"x": -1.7434430788,
				"y": 0.3808876003,
				"z": -1.4488642459,
				"element": "C" 
			},
			{
				"x": 2.9136917002,
				"y": -2.5614183709,
				"z": 2.5344492445,
				"element": "H" 
			},
			{
				"x": 0.6630247898,
				"y": -2.2755655517,
				"z": 2.1344676574,
				"element": "H" 
			},
			{
				"x": -1.0126388793,
				"y": -0.9893231274,
				"z": 0.8679861217,
				"element": "H" 
			},
			{
				"x": 2.1314526286,
				"y": 1.2514258543,
				"z": -1.0215705767,
				"element": "H" 
			},
			{
				"x": 3.8128469675,
				"y": -0.0222959776,
				"z": 0.2804832142,
				"element": "H" 
			},
			{
				"x": 0.454826726,
				"y": 2.8871206365,
				"z": -0.8068090986,
				"element": "H" 
			},
			{
				"x": -1.2159588452,
				"y": 4.1602741915,
				"z": -2.1068561166,
				"element": "H" 
			},
			{
				"x": -3.5825952553,
				"y": 0.6012388218,
				"z": -2.5547645209,
				"element": "H" 
			},
			{
				"x": -1.889997087,
				"y": -0.6839445093,
				"z": -1.2951225788,
				"element": "H" 
			}
		],
		 "valence_orbital": [ 
			{
				"type": "occ",
				"energy": -0.28434,
				"method": "rhf"
			},
			{
				"type": "occ",
				"energy": -0.26164,
				"method": "rhf"
			},
			{
				"type": "occ",
				"energy": -0.25868,
				"method": "rhf"
			},
			{
				"type": "occ",
				"energy": -0.25257,
				"method": "rhf"
			},
			{
				"type": "occ",
				"energy": -0.21174,
				"method": "rhf"
			},
			{
				"type": "unocc",
				"energy": -0.0295,
				"method": "rhf"
			},
			{
				"type": "unocc",
				"energy": -0.01404,
				"method": "rhf"
			},
			{
				"type": "unocc",
				"energy": -0.00877,
				"method": "rhf"
			},
			{
				"type": "unocc",
				"energy": 0.01105,
				"method": "rhf"
			},
			{
				"type": "unocc",
				"energy": 0.02929,
				"method": "rhf"
			}
		],
		"cosmo_sigma_profile": { 
			"-0.025": 0.0,
			"-0.024": 0.0,
			"-0.023": 0.0,
			"-0.022": 0.0,
			"-0.021": 0.0,
			"-0.02": 0.0,
			"-0.019": 0.0,
			"-0.018": 0.384650718021,
			"-0.017": 1.24811690171,
			"-0.016": 1.37897758082,
			"-0.015": 0.655710446501,
			"-0.014": 0.880947697352,
			"-0.013": 0.98730446241,
			"-0.012": 0.802758114312,
			"-0.011": 1.09363034799,
			"-0.01": 1.48439356255,
			"-0.009": 1.22441909108,
			"-0.008": 0.769760983569,
			"-0.007": 4.19026029029,
			"-0.006": 14.8755259802,
			"-0.005": 15.6840802646,
			"-0.004": 15.3166666136,
			"-0.003": 13.5099190824,
			"-0.002": 12.2503778564,
			"-0.001": 12.3617164126,
			"0.0": 13.0959305573,
			"0.001": 16.6232083411,
			"0.002": 19.9885548922,
			"0.003": 28.6697499195,
			"0.004": 31.814007116,
			"0.005": 20.8122561462,
			"0.006": 2.95903620006,
			"0.007": 1.80617596955,
			"0.008": 1.295844132,
			"0.009": 1.11946722313,
			"0.01": 1.80527472865,
			"0.011": 1.98373430282,
			"0.012": 0.432159108939,
			"0.013": 0.0,
			"0.014": 0.0,
			"0.015": 0.0,
			"0.016": 0.0,
			"0.017": 0.0,
			"0.018": 0.0,
			"0.019": 0.0,
			"0.02": 0.0,
			"0.021": 0.0,
			"0.022": 0.0,
			"0.023": 0.0,
			"0.024": 0.0,
			"0.025": 0.0
		}
	}
}
