{
	 "smiles": "NC(=O)C1=CC=C(NCC(O)=O)C=C1", 
	 "Tm": 545.15, 
	 "num_atms": 24, 
	 "gaussian": { 
		 "optdone": 1, 
		 "sigma_profile": "yes", 
		 "theory": "DFT", 
		 "functional": "B3LYP", 
		 "basiset": "6-31G**", 
		 "properties": { 
			 "R2extent": 4679.2378, 
			 "electric_dipole_moment_norm": 3.50321896689, 
			 "electric_quadrupole_moment_norm": 39.3609766904, 
			 "total_energy": -684.188190941, 
			 "HOMO_LUMO_gap": 0.19396, 
			 "cosmo_polarized_energy": -25.8, 
			 "cosmo_cavitation_energy": 28.7, 
			 "cosmo_dispersion_energy": -20.98, 
			 "cosmo_repulsion_energy": 1.67, 
			 "cosmo_total_nonelectrostatic_energy": 9.38, 
			 "SMD_solvation_energy": 6.63 
		},
		"coords": [
			{
				"x": -2.1622608542,
				"y": 3.988214653,
				"z": 2.7553235997,
				"element": "N" 
			},
			{
				"x": -1.9449625543,
				"y": 2.6329550397,
				"z": 2.8582540619,
				"element": "C" 
			},
			{
				"x": -2.4622551181,
				"y": 1.9660716755,
				"z": 3.7473294773,
				"element": "O" 
			},
			{
				"x": -1.0683565585,
				"y": 2.013951041,
				"z": 1.8126379768,
				"element": "C" 
			},
			{
				"x": -0.719679314,
				"y": 2.6385083127,
				"z": 0.6090675138,
				"element": "C" 
			},
			{
				"x": 0.0973622983,
				"y": 2.0040354924,
				"z": -0.3246069856,
				"element": "C" 
			},
			{
				"x": 0.5887745577,
				"y": 0.7145171588,
				"z": -0.06574331,
				"element": "C" 
			},
			{
				"x": 1.3855841742,
				"y": 0.0250889656,
				"z": -1.0005985477,
				"element": "N" 
			},
			{
				"x": 2.1984158884,
				"y": 0.7600619244,
				"z": -1.9651133763,
				"element": "C" 
			},
			{
				"x": 1.4632549429,
				"y": 1.0257204355,
				"z": -3.290644876,
				"element": "C" 
			},
			{
				"x": 0.3612213397,
				"y": 0.2790810877,
				"z": -3.4720852488,
				"element": "O" 
			},
			{
				"x": 1.8669926274,
				"y": 1.8176560331,
				"z": -4.1059364238,
				"element": "O" 
			},
			{
				"x": 0.2278289736,
				"y": 0.0772481117,
				"z": 1.1352689854,
				"element": "C" 
			},
			{
				"x": -0.591874366,
				"y": 0.7164957237,
				"z": 2.0524734106,
				"element": "C" 
			},
			{
				"x": -1.49895351,
				"y": 4.5766924288,
				"z": 2.2761100734,
				"element": "H" 
			},
			{
				"x": -2.6538686203,
				"y": 4.4014092061,
				"z": 3.5348024595,
				"element": "H" 
			},
			{
				"x": -1.1124435693,
				"y": 3.6211227772,
				"z": 0.3647885161,
				"element": "H" 
			},
			{
				"x": 0.3308208528,
				"y": 2.5103896907,
				"z": -1.2549326021,
				"element": "H" 
			},
			{
				"x": 1.8583385774,
				"y": -0.770849686,
				"z": -0.5930069918,
				"element": "H" 
			},
			{
				"x": 2.5575953143,
				"y": 1.7207311287,
				"z": -1.579797542,
				"element": "H" 
			},
			{
				"x": 3.0803738765,
				"y": 0.1603738595,
				"z": -2.2112050148,
				"element": "H" 
			},
			{
				"x": 0.2460156931,
				"y": -0.2472430667,
				"z": -2.6548678964,
				"element": "H" 
			},
			{
				"x": 0.5956549329,
				"y": -0.9253211445,
				"z": 1.341769728,
				"element": "H" 
			},
			{
				"x": -0.8801795846,
				"y": 0.2290891516,
				"z": 2.9776130128,
				"element": "H" 
			}
		],
		 "valence_orbital": [ 
			{
				"type": "occ",
				"energy": -0.27469,
				"method": "rhf"
			},
			{
				"type": "occ",
				"energy": -0.2735,
				"method": "rhf"
			},
			{
				"type": "occ",
				"energy": -0.26804,
				"method": "rhf"
			},
			{
				"type": "occ",
				"energy": -0.25167,
				"method": "rhf"
			},
			{
				"type": "occ",
				"energy": -0.2315,
				"method": "rhf"
			},
			{
				"type": "unocc",
				"energy": -0.03754,
				"method": "rhf"
			},
			{
				"type": "unocc",
				"energy": -0.01996,
				"method": "rhf"
			},
			{
				"type": "unocc",
				"energy": 0.0044,
				"method": "rhf"
			},
			{
				"type": "unocc",
				"energy": 0.0549,
				"method": "rhf"
			},
			{
				"type": "unocc",
				"energy": 0.05701,
				"method": "rhf"
			}
		],
		"cosmo_sigma_profile": { 
			"-0.025": 0.0,
			"-0.024": 0.0,
			"-0.023": 0.0,
			"-0.022": 0.0,
			"-0.021": 0.0,
			"-0.02": 0.0,
			"-0.019": 0.0,
			"-0.018": 0.0,
			"-0.017": 0.0,
			"-0.016": 0.0,
			"-0.015": 0.198634514496,
			"-0.014": 2.89604713196,
			"-0.013": 4.71065921952,
			"-0.012": 4.35664342096,
			"-0.011": 4.3955764533,
			"-0.01": 5.79552907075,
			"-0.009": 8.78066925239,
			"-0.008": 7.29227897233,
			"-0.007": 10.0155007063,
			"-0.006": 11.478696591,
			"-0.005": 12.1623919715,
			"-0.004": 12.1135432709,
			"-0.003": 9.87295432032,
			"-0.002": 8.87939011936,
			"-0.001": 9.40723388469,
			"0.0": 7.87778365954,
			"0.001": 11.0016059024,
			"0.002": 10.6735714376,
			"0.003": 11.3238626986,
			"0.004": 14.3429663251,
			"0.005": 9.34813793823,
			"0.006": 4.30181031647,
			"0.007": 4.15100365985,
			"0.008": 5.12872215603,
			"0.009": 4.98681428289,
			"0.01": 6.28569623429,
			"0.011": 6.0250391049,
			"0.012": 7.78762912401,
			"0.013": 6.25326307059,
			"0.014": 5.38477655283,
			"0.015": 0.668716064901,
			"0.016": 0.0,
			"0.017": 0.0,
			"0.018": 0.0,
			"0.019": 0.0,
			"0.02": 0.0,
			"0.021": 0.0,
			"0.022": 0.0,
			"0.023": 0.0,
			"0.024": 0.0,
			"0.025": 0.0
		}
	}
}
