{
	 "smiles": "CC1=CC(C)=C(C(C)=C1)S(Cl)(=O)=O", 
	 "Tm": 328.65, 
	 "num_atms": 24, 
	 "gaussian": { 
		 "optdone": 1, 
		 "sigma_profile": "yes", 
		 "theory": "DFT", 
		 "functional": "B3LYP", 
		 "basiset": "6-31G**", 
		 "properties": { 
			 "R2extent": 3610.7303, 
			 "electric_dipole_moment_norm": 5.76866958926, 
			 "electric_quadrupole_moment_norm": 11.9061015954, 
			 "total_energy": -1358.36261274, 
			 "HOMO_LUMO_gap": 0.17952, 
			 "cosmo_polarized_energy": -8.48, 
			 "cosmo_cavitation_energy": 29.55, 
			 "cosmo_dispersion_energy": -21.99, 
			 "cosmo_repulsion_energy": 1.68, 
			 "cosmo_total_nonelectrostatic_energy": 9.24, 
			 "SMD_solvation_energy": 4.02 
		},
		"coords": [
			{
				"x": -1.9657656578,
				"y": -0.1791245767,
				"z": -2.6716851173,
				"element": "C" 
			},
			{
				"x": -1.1301732076,
				"y": -0.1555922594,
				"z": -1.4163227582,
				"element": "C" 
			},
			{
				"x": -0.8090762466,
				"y": 1.048596712,
				"z": -0.7892035012,
				"element": "C" 
			},
			{
				"x": -0.0122437966,
				"y": 1.1182848183,
				"z": 0.359534789,
				"element": "C" 
			},
			{
				"x": 0.2280987473,
				"y": 2.4894942855,
				"z": 0.9526439282,
				"element": "C" 
			},
			{
				"x": 0.488422513,
				"y": -0.1060874621,
				"z": 0.8650541897,
				"element": "C" 
			},
			{
				"x": 0.1553354812,
				"y": -1.3572738819,
				"z": 0.2891897833,
				"element": "C" 
			},
			{
				"x": 0.5868128093,
				"y": -2.7059553965,
				"z": 0.8219782442,
				"element": "C" 
			},
			{
				"x": -0.6498479779,
				"y": -1.3394084026,
				"z": -0.8526221478,
				"element": "C" 
			},
			{
				"x": 1.5692082901,
				"y": -0.097838893,
				"z": 2.303855723,
				"element": "S" 
			},
			{
				"x": 0.1791434034,
				"y": -0.5807604728,
				"z": 3.8821385088,
				"element": "Cl" 
			},
			{
				"x": 2.0443617222,
				"y": 1.245608088,
				"z": 2.6074472301,
				"element": "O" 
			},
			{
				"x": 2.5085691963,
				"y": -1.2110454214,
				"z": 2.2463162793,
				"element": "O" 
			},
			{
				"x": -2.6197037492,
				"y": 0.6949383096,
				"z": -2.7345678949,
				"element": "H" 
			},
			{
				"x": -1.3258335761,
				"y": -0.1749299103,
				"z": -3.5627033943,
				"element": "H" 
			},
			{
				"x": -2.5866939865,
				"y": -1.0782040811,
				"z": -2.7219861148,
				"element": "H" 
			},
			{
				"x": -1.1972012154,
				"y": 1.9776042776,
				"z": -1.1978089755,
				"element": "H" 
			},
			{
				"x": -0.0405642766,
				"y": 2.5343040027,
				"z": 2.0104338128,
				"element": "H" 
			},
			{
				"x": 1.2784243424,
				"y": 2.78228226,
				"z": 0.8877245798,
				"element": "H" 
			},
			{
				"x": -0.3722098363,
				"y": 3.2246511736,
				"z": 0.4119584231,
				"element": "H" 
			},
			{
				"x": 1.6570602034,
				"y": -2.8706057979,
				"z": 0.6784455585,
				"element": "H" 
			},
			{
				"x": 0.3944122707,
				"y": -2.8083260595,
				"z": 1.8928729559,
				"element": "H" 
			},
			{
				"x": 0.0383132438,
				"y": -3.4929411507,
				"z": 0.2995841886,
				"element": "H" 
			},
			{
				"x": -0.9134486965,
				"y": -2.289970161,
				"z": -1.3085782903,
				"element": "H" 
			}
		],
		 "valence_orbital": [ 
			{
				"type": "occ",
				"energy": -0.32594,
				"method": "rhf"
			},
			{
				"type": "occ",
				"energy": -0.31977,
				"method": "rhf"
			},
			{
				"type": "occ",
				"energy": -0.30627,
				"method": "rhf"
			},
			{
				"type": "occ",
				"energy": -0.27052,
				"method": "rhf"
			},
			{
				"type": "occ",
				"energy": -0.26351,
				"method": "rhf"
			},
			{
				"type": "unocc",
				"energy": -0.08399,
				"method": "rhf"
			},
			{
				"type": "unocc",
				"energy": -0.03974,
				"method": "rhf"
			},
			{
				"type": "unocc",
				"energy": -0.02341,
				"method": "rhf"
			},
			{
				"type": "unocc",
				"energy": 0.05895,
				"method": "rhf"
			},
			{
				"type": "unocc",
				"energy": 0.0747,
				"method": "rhf"
			}
		],
		"cosmo_sigma_profile": { 
			"-0.025": 0.0,
			"-0.024": 0.0,
			"-0.023": 0.0,
			"-0.022": 0.0,
			"-0.021": 0.0,
			"-0.02": 0.0,
			"-0.019": 0.0,
			"-0.018": 0.0,
			"-0.017": 0.0,
			"-0.016": 0.0,
			"-0.015": 0.0,
			"-0.014": 0.0,
			"-0.013": 0.0,
			"-0.012": 0.0,
			"-0.011": 0.0,
			"-0.01": 0.0,
			"-0.009": 0.0,
			"-0.008": 0.0,
			"-0.007": 2.37271594335,
			"-0.006": 7.87877302122,
			"-0.005": 14.9385182425,
			"-0.004": 20.521230437,
			"-0.003": 18.8916700421,
			"-0.002": 22.9200582634,
			"-0.001": 33.7056165484,
			"0.0": 23.3456411459,
			"0.001": 16.0811130724,
			"0.002": 18.7414688479,
			"0.003": 16.7534759547,
			"0.004": 12.7028841218,
			"0.005": 6.35992366158,
			"0.006": 4.02515044722,
			"0.007": 4.30343170067,
			"0.008": 6.24975389498,
			"0.009": 6.47794560674,
			"0.01": 0.558319868043,
			"0.011": 0.0,
			"0.012": 0.0,
			"0.013": 0.0,
			"0.014": 0.0,
			"0.015": 0.0,
			"0.016": 0.0,
			"0.017": 0.0,
			"0.018": 0.0,
			"0.019": 0.0,
			"0.02": 0.0,
			"0.021": 0.0,
			"0.022": 0.0,
			"0.023": 0.0,
			"0.024": 0.0,
			"0.025": 0.0
		}
	}
}
