{
	 "smiles": "OC1=CC(Br)=CC=C1", 
	 "Tm": 304.65, 
	 "num_atms": 13, 
	 "gaussian": { 
		 "optdone": 1, 
		 "sigma_profile": "yes", 
		 "theory": "DFT", 
		 "functional": "B3LYP", 
		 "basiset": "6-31G**", 
		 "properties": { 
			 "R2extent": 1912.6357, 
			 "electric_dipole_moment_norm": 3.09037684595, 
			 "electric_quadrupole_moment_norm": 6.14306916533, 
			 "total_energy": -2878.27422808, 
			 "HOMO_LUMO_gap": 0.21634, 
			 "cosmo_polarized_energy": -8.38, 
			 "cosmo_cavitation_energy": 19.47, 
			 "cosmo_dispersion_energy": -15.12, 
			 "cosmo_repulsion_energy": 1.25, 
			 "cosmo_total_nonelectrostatic_energy": 5.6, 
			 "SMD_solvation_energy": 2.62 
		},
		"coords": [
			{
				"x": -2.3254791644,
				"y": -0.4175583055,
				"z": 2.3625894388,
				"element": "O" 
			},
			{
				"x": -1.4633654104,
				"y": -0.1282222548,
				"z": 1.3458052158,
				"element": "C" 
			},
			{
				"x": -0.813863271,
				"y": -1.2108598964,
				"z": 0.740133616,
				"element": "C" 
			},
			{
				"x": 0.0734949537,
				"y": -0.9610606328,
				"z": -0.3003462645,
				"element": "C" 
			},
			{
				"x": 0.9615697359,
				"y": -2.4395216523,
				"z": -1.1284541256,
				"element": "Br" 
			},
			{
				"x": 0.3355121826,
				"y": 0.3308879845,
				"z": -0.757706523,
				"element": "C" 
			},
			{
				"x": -0.3223135933,
				"y": 1.3946727706,
				"z": -0.1402771416,
				"element": "C" 
			},
			{
				"x": -1.2184491355,
				"y": 1.1775393455,
				"z": 0.9061793475,
				"element": "C" 
			},
			{
				"x": -2.709063809,
				"y": 0.4029658118,
				"z": 2.6983411044,
				"element": "H" 
			},
			{
				"x": -1.0121019258,
				"y": -2.2164973242,
				"z": 1.0896611765,
				"element": "H" 
			},
			{
				"x": 1.031765301,
				"y": 0.4972260576,
				"z": -1.5704350295,
				"element": "H" 
			},
			{
				"x": -0.1333728704,
				"y": 2.4086858968,
				"z": -0.480223213,
				"element": "H" 
			},
			{
				"x": -1.7249329936,
				"y": 2.0156421989,
				"z": 1.379232398,
				"element": "H" 
			}
		],
		 "valence_orbital": [ 
			{
				"type": "occ",
				"energy": -0.34992,
				"method": "rhf"
			},
			{
				"type": "occ",
				"energy": -0.30414,
				"method": "rhf"
			},
			{
				"type": "occ",
				"energy": -0.28435,
				"method": "rhf"
			},
			{
				"type": "occ",
				"energy": -0.24781,
				"method": "rhf"
			},
			{
				"type": "occ",
				"energy": -0.23106,
				"method": "rhf"
			},
			{
				"type": "unocc",
				"energy": -0.01472,
				"method": "rhf"
			},
			{
				"type": "unocc",
				"energy": 0.00086,
				"method": "rhf"
			},
			{
				"type": "unocc",
				"energy": 0.00845,
				"method": "rhf"
			},
			{
				"type": "unocc",
				"energy": 0.06287,
				"method": "rhf"
			},
			{
				"type": "unocc",
				"energy": 0.10665,
				"method": "rhf"
			}
		],
		"cosmo_sigma_profile": { 
			"-0.025": 0.0,
			"-0.024": 0.0,
			"-0.023": 0.0,
			"-0.022": 0.0,
			"-0.021": 0.0,
			"-0.02": 0.0,
			"-0.019": 0.0,
			"-0.018": 0.918206007745,
			"-0.017": 1.00150690682,
			"-0.016": 1.44999825193,
			"-0.015": 0.98641004521,
			"-0.014": 0.47086150987,
			"-0.013": 0.744374792704,
			"-0.012": 1.27189769054,
			"-0.011": 1.18221092453,
			"-0.01": 1.25842696933,
			"-0.009": 0.912673557219,
			"-0.008": 0.927547086122,
			"-0.007": 4.24064471095,
			"-0.006": 8.23732091939,
			"-0.005": 7.11667733557,
			"-0.004": 7.80275741671,
			"-0.003": 7.21327735529,
			"-0.002": 7.25989250381,
			"-0.001": 7.51698473138,
			"0.0": 8.89981458482,
			"0.001": 10.2204463022,
			"0.002": 15.2833309742,
			"0.003": 21.6216310754,
			"0.004": 21.1399497306,
			"0.005": 12.7452772637,
			"0.006": 1.22442488988,
			"0.007": 0.965140372099,
			"0.008": 1.73458112386,
			"0.009": 1.43569831723,
			"0.01": 1.6030937743,
			"0.011": 1.63173579287,
			"0.012": 0.141794952672,
			"0.013": 0.0,
			"0.014": 0.0,
			"0.015": 0.0,
			"0.016": 0.0,
			"0.017": 0.0,
			"0.018": 0.0,
			"0.019": 0.0,
			"0.02": 0.0,
			"0.021": 0.0,
			"0.022": 0.0,
			"0.023": 0.0,
			"0.024": 0.0,
			"0.025": 0.0
		}
	}
}
