{
	 "smiles": "O=C1[C@@H](OC2=CC=CC=C2)[C@H](N1[C@@H](SC1=CC=CC=C1)C1=CC=CC=C1)C1=CC=CC=C1", 
	 "Tm": 467.15, 
	 "num_atms": 55, 
	 "gaussian": { 
		 "optdone": 1, 
		 "sigma_profile": "yes", 
		 "theory": "DFT", 
		 "functional": "B3LYP", 
		 "basiset": "6-31G**", 
		 "properties": { 
			 "R2extent": 14197.3548, 
			 "electric_dipole_moment_norm": 3.63940294554, 
			 "electric_quadrupole_moment_norm": 16.660691681, 
			 "total_energy": -1684.20212618, 
			 "HOMO_LUMO_gap": 0.1858, 
			 "cosmo_polarized_energy": -17.77, 
			 "cosmo_cavitation_energy": 59.83, 
			 "cosmo_dispersion_energy": -37.85, 
			 "cosmo_repulsion_energy": 2.85, 
			 "cosmo_total_nonelectrostatic_energy": 24.82, 
			 "SMD_solvation_energy": 9.74 
		},
		"coords": [
			{
				"x": -2.4347529209,
				"y": -0.5497337004,
				"z": -0.0544810768,
				"element": "O" 
			},
			{
				"x": -1.2537371281,
				"y": -0.2994632191,
				"z": -0.1902437748,
				"element": "C" 
			},
			{
				"x": -0.4113911753,
				"y": 0.5028213836,
				"z": -1.2200769111,
				"element": "C" 
			},
			{
				"x": -0.5118513244,
				"y": 1.903478653,
				"z": -1.2202184594,
				"element": "O" 
			},
			{
				"x": -1.4864670644,
				"y": 2.4893360075,
				"z": -2.0011350991,
				"element": "C" 
			},
			{
				"x": -2.6907657996,
				"y": 1.8623503138,
				"z": -2.3347489784,
				"element": "C" 
			},
			{
				"x": -3.6145325926,
				"y": 2.5505426607,
				"z": -3.1269000379,
				"element": "C" 
			},
			{
				"x": -3.3536083498,
				"y": 3.8465153206,
				"z": -3.5710094329,
				"element": "C" 
			},
			{
				"x": -2.1514131961,
				"y": 4.4655671442,
				"z": -3.2151954944,
				"element": "C" 
			},
			{
				"x": -1.2147593599,
				"y": 3.7912049897,
				"z": -2.436138394,
				"element": "C" 
			},
			{
				"x": 0.8407994982,
				"y": -0.0303209173,
				"z": -0.4378005011,
				"element": "C" 
			},
			{
				"x": -0.1201052977,
				"y": -0.6824862231,
				"z": 0.4886798851,
				"element": "N" 
			},
			{
				"x": 0.1910419584,
				"y": -1.6729094065,
				"z": 1.5082210346,
				"element": "C" 
			},
			{
				"x": -1.0268585912,
				"y": -1.7024252005,
				"z": 2.9171104685,
				"element": "S" 
			},
			{
				"x": -0.9821743248,
				"y": -0.0084209159,
				"z": 3.5096040381,
				"element": "C" 
			},
			{
				"x": -0.0495576747,
				"y": 0.3790902294,
				"z": 4.4815258854,
				"element": "C" 
			},
			{
				"x": -0.0533680744,
				"y": 1.6856657117,
				"z": 4.9721840331,
				"element": "C" 
			},
			{
				"x": -0.9909159728,
				"y": 2.6077635641,
				"z": 4.5005605587,
				"element": "C" 
			},
			{
				"x": -1.9269622226,
				"y": 2.2216837163,
				"z": 3.5379644046,
				"element": "C" 
			},
			{
				"x": -1.9274624587,
				"y": 0.9161214938,
				"z": 3.0420386145,
				"element": "C" 
			},
			{
				"x": 0.2830748782,
				"y": -3.0874465472,
				"z": 0.9627569513,
				"element": "C" 
			},
			{
				"x": -0.7938552823,
				"y": -3.6588206892,
				"z": 0.2677711475,
				"element": "C" 
			},
			{
				"x": -0.694455869,
				"y": -4.9583533193,
				"z": -0.2279060497,
				"element": "C" 
			},
			{
				"x": 0.4734706342,
				"y": -5.7005669009,
				"z": -0.0336257441,
				"element": "C" 
			},
			{
				"x": 1.5451171803,
				"y": -5.1380830926,
				"z": 0.6607909727,
				"element": "C" 
			},
			{
				"x": 1.4487892441,
				"y": -3.8369167416,
				"z": 1.1571925621,
				"element": "C" 
			},
			{
				"x": 1.8180324128,
				"y": 0.9448226091,
				"z": 0.1661876677,
				"element": "C" 
			},
			{
				"x": 1.4344312939,
				"y": 1.8554203616,
				"z": 1.1605657546,
				"element": "C" 
			},
			{
				"x": 2.3641657538,
				"y": 2.7473955068,
				"z": 1.69287507,
				"element": "C" 
			},
			{
				"x": 3.6851077801,
				"y": 2.7465682962,
				"z": 1.237709198,
				"element": "C" 
			},
			{
				"x": 4.0750069883,
				"y": 1.8437525009,
				"z": 0.2477782105,
				"element": "C" 
			},
			{
				"x": 3.1458397837,
				"y": 0.9456697489,
				"z": -0.279197693,
				"element": "C" 
			},
			{
				"x": -0.5024734898,
				"y": 0.1005690323,
				"z": -2.2372001897,
				"element": "H" 
			},
			{
				"x": -2.9238257167,
				"y": 0.8759605898,
				"z": -1.9474894543,
				"element": "H" 
			},
			{
				"x": -4.5517399054,
				"y": 2.0654075866,
				"z": -3.3848586406,
				"element": "H" 
			},
			{
				"x": -4.0801427886,
				"y": 4.3727603917,
				"z": -4.1826171816,
				"element": "H" 
			},
			{
				"x": -1.9372397267,
				"y": 5.4758489828,
				"z": -3.5524527341,
				"element": "H" 
			},
			{
				"x": -0.2706449836,
				"y": 4.2479605822,
				"z": -2.1577900512,
				"element": "H" 
			},
			{
				"x": 1.3867489004,
				"y": -0.7739766306,
				"z": -1.0317947691,
				"element": "H" 
			},
			{
				"x": 1.1590748237,
				"y": -1.3760072592,
				"z": 1.921794062,
				"element": "H" 
			},
			{
				"x": 0.6690502765,
				"y": -0.3451501639,
				"z": 4.8526363514,
				"element": "H" 
			},
			{
				"x": 0.6707469164,
				"y": 1.9809210332,
				"z": 5.7262406803,
				"element": "H" 
			},
			{
				"x": -0.996457406,
				"y": 3.622964947,
				"z": 4.8873186515,
				"element": "H" 
			},
			{
				"x": -2.6593728551,
				"y": 2.9357314276,
				"z": 3.1724978799,
				"element": "H" 
			},
			{
				"x": -2.6464942267,
				"y": 0.6073160764,
				"z": 2.2902247155,
				"element": "H" 
			},
			{
				"x": -1.7041292493,
				"y": -3.0844046518,
				"z": 0.1229068704,
				"element": "H" 
			},
			{
				"x": -1.5325041007,
				"y": -5.3939586537,
				"z": -0.7643364403,
				"element": "H" 
			},
			{
				"x": 0.5465403851,
				"y": -6.7126709955,
				"z": -0.4211495687,
				"element": "H" 
			},
			{
				"x": 2.4558977589,
				"y": -5.7092823299,
				"z": 0.815973499,
				"element": "H" 
			},
			{
				"x": 2.2839931315,
				"y": -3.4007948229,
				"z": 1.6997753048,
				"element": "H" 
			},
			{
				"x": 0.4103856891,
				"y": 1.8647929002,
				"z": 1.51653196,
				"element": "H" 
			},
			{
				"x": 2.0536652826,
				"y": 3.4435769538,
				"z": 2.4664229102,
				"element": "H" 
			},
			{
				"x": 4.406589027,
				"y": 3.4433823209,
				"z": 1.654932837,
				"element": "H" 
			},
			{
				"x": 5.1009339177,
				"y": 1.8321678325,
				"z": -0.1090108601,
				"element": "H" 
			},
			{
				"x": 3.4543156131,
				"y": 0.2376615119,
				"z": -1.0450946425,
				"element": "H" 
			}
		],
		 "valence_orbital": [ 
			{
				"type": "occ",
				"energy": -0.24738,
				"method": "rhf"
			},
			{
				"type": "occ",
				"energy": -0.24633,
				"method": "rhf"
			},
			{
				"type": "occ",
				"energy": -0.24426,
				"method": "rhf"
			},
			{
				"type": "occ",
				"energy": -0.22813,
				"method": "rhf"
			},
			{
				"type": "occ",
				"energy": -0.21613,
				"method": "rhf"
			},
			{
				"type": "unocc",
				"energy": -0.03033,
				"method": "rhf"
			},
			{
				"type": "unocc",
				"energy": -0.01343,
				"method": "rhf"
			},
			{
				"type": "unocc",
				"energy": -0.01232,
				"method": "rhf"
			},
			{
				"type": "unocc",
				"energy": -0.00733,
				"method": "rhf"
			},
			{
				"type": "unocc",
				"energy": -0.00685,
				"method": "rhf"
			}
		],
		"cosmo_sigma_profile": { 
			"-0.025": 0.0,
			"-0.024": 0.0,
			"-0.023": 0.0,
			"-0.022": 0.0,
			"-0.021": 0.0,
			"-0.02": 0.0,
			"-0.019": 0.0,
			"-0.018": 0.0,
			"-0.017": 0.0,
			"-0.016": 0.0,
			"-0.015": 0.0,
			"-0.014": 0.0,
			"-0.013": 0.0,
			"-0.012": 0.0,
			"-0.011": 0.0,
			"-0.01": 0.0,
			"-0.009": 0.18255883073,
			"-0.008": 3.91484419867,
			"-0.007": 9.57097211037,
			"-0.006": 30.9064963882,
			"-0.005": 39.6208817772,
			"-0.004": 44.1046097049,
			"-0.003": 37.3203293519,
			"-0.002": 30.6815902678,
			"-0.001": 29.40727083,
			"0.0": 31.8117721159,
			"0.001": 35.4502512012,
			"0.002": 34.8375569901,
			"0.003": 37.1467497708,
			"0.004": 40.9943765303,
			"0.005": 35.9447268964,
			"0.006": 16.8651298201,
			"0.007": 5.5118946989,
			"0.008": 4.63730851669,
			"0.009": 3.90967099356,
			"0.01": 2.13013641041,
			"0.011": 2.1915073439,
			"0.012": 3.0516690425,
			"0.013": 0.851171049569,
			"0.014": 0.0,
			"0.015": 0.0,
			"0.016": 0.0,
			"0.017": 0.0,
			"0.018": 0.0,
			"0.019": 0.0,
			"0.02": 0.0,
			"0.021": 0.0,
			"0.022": 0.0,
			"0.023": 0.0,
			"0.024": 0.0,
			"0.025": 0.0
		}
	}
}
