{
	 "smiles": "CC1=CC(=NN1C1CCCCC1)C(O)=O", 
	 "Tm": 419.15, 
	 "num_atms": 31, 
	 "gaussian": { 
		 "optdone": 1, 
		 "sigma_profile": "yes", 
		 "theory": "DFT", 
		 "functional": "B3LYP", 
		 "basiset": "6-31G**", 
		 "properties": { 
			 "R2extent": 4973.2017, 
			 "electric_dipole_moment_norm": 7.93406131436, 
			 "electric_quadrupole_moment_norm": 37.642545074, 
			 "total_energy": -688.776215622, 
			 "HOMO_LUMO_gap": 0.22982, 
			 "cosmo_polarized_energy": -13.81, 
			 "cosmo_cavitation_energy": 32.39, 
			 "cosmo_dispersion_energy": -23.42, 
			 "cosmo_repulsion_energy": 1.84, 
			 "cosmo_total_nonelectrostatic_energy": 10.82, 
			 "SMD_solvation_energy": 5.17 
		},
		"coords": [
			{
				"x": 1.3679063105,
				"y": 0.2408869677,
				"z": -3.0287433301,
				"element": "C" 
			},
			{
				"x": 1.4204960153,
				"y": -0.9869188349,
				"z": -2.1721723776,
				"element": "C" 
			},
			{
				"x": 1.8520611185,
				"y": -2.2571104063,
				"z": -2.511326422,
				"element": "C" 
			},
			{
				"x": 1.6660134233,
				"y": -3.0307489532,
				"z": -1.3510016259,
				"element": "C" 
			},
			{
				"x": 1.156137334,
				"y": -2.2989635606,
				"z": -0.3562443937,
				"element": "N" 
			},
			{
				"x": 1.0048520335,
				"y": -1.0584612465,
				"z": -0.8609348925,
				"element": "N" 
			},
			{
				"x": 0.5019343472,
				"y": -0.015815006,
				"z": 0.0478240413,
				"element": "C" 
			},
			{
				"x": -0.7264513976,
				"y": 0.7381332139,
				"z": -0.4820380286,
				"element": "C" 
			},
			{
				"x": -1.3710969187,
				"y": 1.5525908632,
				"z": 0.666604967,
				"element": "C" 
			},
			{
				"x": -0.3241227844,
				"y": 2.0922489071,
				"z": 1.6744210861,
				"element": "C" 
			},
			{
				"x": 1.040320512,
				"y": 2.3009577766,
				"z": 1.0028281858,
				"element": "C" 
			},
			{
				"x": 1.6206934994,
				"y": 0.9635072549,
				"z": 0.4874272485,
				"element": "C" 
			},
			{
				"x": 1.95496174,
				"y": -4.4694352218,
				"z": -1.1344060068,
				"element": "C" 
			},
			{
				"x": 1.656825433,
				"y": -4.9149815709,
				"z": 0.108577043,
				"element": "O" 
			},
			{
				"x": 2.4173064696,
				"y": -5.1965074251,
				"z": -1.983534279,
				"element": "O" 
			},
			{
				"x": 0.3411460557,
				"y": 0.5139753651,
				"z": -3.2947399598,
				"element": "H" 
			},
			{
				"x": 1.9090428405,
				"y": 0.0475567221,
				"z": -3.9575499243,
				"element": "H" 
			},
			{
				"x": 1.8285528634,
				"y": 1.1106926932,
				"z": -2.5505128807,
				"element": "H" 
			},
			{
				"x": 2.2424853572,
				"y": -2.5865284949,
				"z": -3.4619617199,
				"element": "H" 
			},
			{
				"x": 0.1822314831,
				"y": -0.5957372015,
				"z": 0.9173737939,
				"element": "H" 
			},
			{
				"x": -0.4297517449,
				"y": 1.4136474212,
				"z": -1.2908525947,
				"element": "H" 
			},
			{
				"x": -1.4484508865,
				"y": 0.0322754407,
				"z": -0.9049264492,
				"element": "H" 
			},
			{
				"x": -2.0999972191,
				"y": 0.9287474924,
				"z": 1.1960954482,
				"element": "H" 
			},
			{
				"x": -1.9362241254,
				"y": 2.3842005958,
				"z": 0.2317031309,
				"element": "H" 
			},
			{
				"x": -0.680003437,
				"y": 3.0264271589,
				"z": 2.1212904312,
				"element": "H" 
			},
			{
				"x": -0.2052332247,
				"y": 1.3848113111,
				"z": 2.505312395,
				"element": "H" 
			},
			{
				"x": 0.9234948133,
				"y": 3.003124097,
				"z": 0.1673505252,
				"element": "H" 
			},
			{
				"x": 1.7474058901,
				"y": 2.7679424573,
				"z": 1.6964315671,
				"element": "H" 
			},
			{
				"x": 2.2184991924,
				"y": 0.476824936,
				"z": 1.2657434505,
				"element": "H" 
			},
			{
				"x": 2.3016255338,
				"y": 1.1503820604,
				"z": -0.3491275381,
				"element": "H" 
			},
			{
				"x": 1.3012394725,
				"y": -4.162824813,
				"z": 0.6151891093,
				"element": "H" 
			}
		],
		 "valence_orbital": [ 
			{
				"type": "occ",
				"energy": -0.3103,
				"method": "rhf"
			},
			{
				"type": "occ",
				"energy": -0.29783,
				"method": "rhf"
			},
			{
				"type": "occ",
				"energy": -0.25839,
				"method": "rhf"
			},
			{
				"type": "occ",
				"energy": -0.25684,
				"method": "rhf"
			},
			{
				"type": "occ",
				"energy": -0.25311,
				"method": "rhf"
			},
			{
				"type": "unocc",
				"energy": -0.02329,
				"method": "rhf"
			},
			{
				"type": "unocc",
				"energy": 0.02222,
				"method": "rhf"
			},
			{
				"type": "unocc",
				"energy": 0.05267,
				"method": "rhf"
			},
			{
				"type": "unocc",
				"energy": 0.07646,
				"method": "rhf"
			},
			{
				"type": "unocc",
				"energy": 0.09265,
				"method": "rhf"
			}
		],
		"cosmo_sigma_profile": { 
			"-0.025": 0.0,
			"-0.024": 0.0,
			"-0.023": 0.0,
			"-0.022": 0.0,
			"-0.021": 0.0,
			"-0.02": 0.0,
			"-0.019": 0.0,
			"-0.018": 0.0,
			"-0.017": 0.0,
			"-0.016": 0.0,
			"-0.015": 0.0,
			"-0.014": 0.363614026814,
			"-0.013": 0.446020177186,
			"-0.012": 0.736188811237,
			"-0.011": 0.543230347482,
			"-0.01": 0.59225275768,
			"-0.009": 0.551624032089,
			"-0.008": 0.527996247689,
			"-0.007": 1.47591437384,
			"-0.006": 6.62713070291,
			"-0.005": 13.319692854,
			"-0.004": 17.6424861363,
			"-0.003": 31.5616636789,
			"-0.002": 37.8014956533,
			"-0.001": 33.9162137511,
			"0.0": 27.3680671529,
			"0.001": 17.2393963708,
			"0.002": 9.71566503972,
			"0.003": 9.04599713437,
			"0.004": 6.90789091994,
			"0.005": 3.78701977057,
			"0.006": 3.95446237226,
			"0.007": 3.8984801442,
			"0.008": 3.36614684038,
			"0.009": 3.35946100071,
			"0.01": 4.42681442706,
			"0.011": 5.45399883142,
			"0.012": 5.87989765439,
			"0.013": 2.63820693454,
			"0.014": 0.297084660226,
			"0.015": 0.0,
			"0.016": 0.0,
			"0.017": 0.0,
			"0.018": 0.0,
			"0.019": 0.0,
			"0.02": 0.0,
			"0.021": 0.0,
			"0.022": 0.0,
			"0.023": 0.0,
			"0.024": 0.0,
			"0.025": 0.0
		}
	}
}
