{
	 "smiles": "CCCCCCCCCCCCCCCC(=O)OC", 
	 "Tm": 303.65, 
	 "num_atms": 53, 
	 "gaussian": { 
		 "optdone": 1, 
		 "sigma_profile": "yes", 
		 "theory": "DFT", 
		 "functional": "B3LYP", 
		 "basiset": "6-31G**", 
		 "properties": { 
			 "R2extent": 10997.1306, 
			 "electric_dipole_moment_norm": 1.49393912192, 
			 "electric_quadrupole_moment_norm": 12.5864576915, 
			 "total_energy": -818.802159112, 
			 "HOMO_LUMO_gap": 0.28315, 
			 "cosmo_polarized_energy": -6.76, 
			 "cosmo_cavitation_energy": 52.37, 
			 "cosmo_dispersion_energy": -34.12, 
			 "cosmo_repulsion_energy": 2.79, 
			 "cosmo_total_nonelectrostatic_energy": 21.05, 
			 "SMD_solvation_energy": 8.47 
		},
		"coords": [
			{
				"x": 3.5282046255,
				"y": 3.5987147763,
				"z": -3.136570657,
				"element": "C" 
			},
			{
				"x": 3.4751702429,
				"y": 2.6703516422,
				"z": -1.9174950219,
				"element": "C" 
			},
			{
				"x": 3.5756176247,
				"y": 1.1722646554,
				"z": -2.2563577714,
				"element": "C" 
			},
			{
				"x": 2.4375147785,
				"y": 0.5995059055,
				"z": -3.1192739612,
				"element": "C" 
			},
			{
				"x": 1.049475782,
				"y": 0.6466993772,
				"z": -2.464619994,
				"element": "C" 
			},
			{
				"x": -0.0378601926,
				"y": -0.0191870373,
				"z": -3.3199785246,
				"element": "C" 
			},
			{
				"x": -1.462733608,
				"y": 0.0882056182,
				"z": -2.7478940514,
				"element": "C" 
			},
			{
				"x": -1.7064782488,
				"y": -0.6156123513,
				"z": -1.4004997704,
				"element": "C" 
			},
			{
				"x": -1.5666674425,
				"y": -2.1461333802,
				"z": -1.454046617,
				"element": "C" 
			},
			{
				"x": -1.9278573958,
				"y": -2.8863542197,
				"z": -0.1464454717,
				"element": "C" 
			},
			{
				"x": -0.7724868196,
				"y": -3.1330220939,
				"z": 0.8405654081,
				"element": "C" 
			},
			{
				"x": -0.1294221899,
				"y": -1.8867220331,
				"z": 1.4653858866,
				"element": "C" 
			},
			{
				"x": 0.9173342929,
				"y": -2.2379861365,
				"z": 2.5330895519,
				"element": "C" 
			},
			{
				"x": 1.6559663124,
				"y": -1.0311818546,
				"z": 3.1358832085,
				"element": "C" 
			},
			{
				"x": 0.7807564909,
				"y": -0.0875641124,
				"z": 3.9703254024,
				"element": "C" 
			},
			{
				"x": 0.3076710716,
				"y": -0.7045211059,
				"z": 5.2732439733,
				"element": "C" 
			},
			{
				"x": 0.7788124655,
				"y": -1.6871381444,
				"z": 5.805897164,
				"element": "O" 
			},
			{
				"x": -0.7134175933,
				"y": 0.0079298451,
				"z": 5.8039071748,
				"element": "O" 
			},
			{
				"x": -1.2019271389,
				"y": -0.4673520594,
				"z": 7.0685489546,
				"element": "C" 
			},
			{
				"x": 3.5166511081,
				"y": 4.6505135458,
				"z": -2.8320020967,
				"element": "H" 
			},
			{
				"x": 4.4412147201,
				"y": 3.4321374945,
				"z": -3.7203518295,
				"element": "H" 
			},
			{
				"x": 2.6761938687,
				"y": 3.4433696963,
				"z": -3.8066833476,
				"element": "H" 
			},
			{
				"x": 4.300386819,
				"y": 2.9249630568,
				"z": -1.2400022164,
				"element": "H" 
			},
			{
				"x": 2.5551198817,
				"y": 2.8637296149,
				"z": -1.3512225537,
				"element": "H" 
			},
			{
				"x": 4.5298848966,
				"y": 0.9935473646,
				"z": -2.7709768722,
				"element": "H" 
			},
			{
				"x": 3.6269374058,
				"y": 0.6020223445,
				"z": -1.3184003208,
				"element": "H" 
			},
			{
				"x": 2.6786686171,
				"y": -0.4454255779,
				"z": -3.3579391033,
				"element": "H" 
			},
			{
				"x": 2.4003261912,
				"y": 1.1220991792,
				"z": -4.0846081104,
				"element": "H" 
			},
			{
				"x": 1.1044979708,
				"y": 0.1598307959,
				"z": -1.4810852129,
				"element": "H" 
			},
			{
				"x": 0.7604882668,
				"y": 1.6887713542,
				"z": -2.2708131384,
				"element": "H" 
			},
			{
				"x": 0.2234238395,
				"y": -1.0736166813,
				"z": -3.4814897348,
				"element": "H" 
			},
			{
				"x": -0.031997274,
				"y": 0.4429687212,
				"z": -4.3167353723,
				"element": "H" 
			},
			{
				"x": -1.7165696893,
				"y": 1.1517309958,
				"z": -2.6390308122,
				"element": "H" 
			},
			{
				"x": -2.1685085344,
				"y": -0.316054339,
				"z": -3.486823948,
				"element": "H" 
			},
			{
				"x": -2.7255474134,
				"y": -0.3749843304,
				"z": -1.067891473,
				"element": "H" 
			},
			{
				"x": -1.0404811077,
				"y": -0.1975541975,
				"z": -0.6372891266,
				"element": "H" 
			},
			{
				"x": -0.5474441231,
				"y": -2.4253575344,
				"z": -1.7535650541,
				"element": "H" 
			},
			{
				"x": -2.2213265464,
				"y": -2.5108453205,
				"z": -2.2574150099,
				"element": "H" 
			},
			{
				"x": -2.3448609321,
				"y": -3.8672992955,
				"z": -0.4070592657,
				"element": "H" 
			},
			{
				"x": -2.7375982755,
				"y": -2.3468548674,
				"z": 0.3655818844,
				"element": "H" 
			},
			{
				"x": -1.1474248545,
				"y": -3.7720726364,
				"z": 1.6521732487,
				"element": "H" 
			},
			{
				"x": 0.0073689297,
				"y": -3.7205940119,
				"z": 0.3348159147,
				"element": "H" 
			},
			{
				"x": 0.3496037126,
				"y": -1.2812837019,
				"z": 0.6844648499,
				"element": "H" 
			},
			{
				"x": -0.9189104945,
				"y": -1.2577073064,
				"z": 1.8995842447,
				"element": "H" 
			},
			{
				"x": 1.6642649492,
				"y": -2.9069061338,
				"z": 2.0850278643,
				"element": "H" 
			},
			{
				"x": 0.4469822099,
				"y": -2.8118766394,
				"z": 3.3412177632,
				"element": "H" 
			},
			{
				"x": 2.4686687106,
				"y": -1.3946945339,
				"z": 3.7733096493,
				"element": "H" 
			},
			{
				"x": 2.1197294099,
				"y": -0.4484642766,
				"z": 2.3296578323,
				"element": "H" 
			},
			{
				"x": -0.0932794036,
				"y": 0.2711591862,
				"z": 3.4176706866,
				"element": "H" 
			},
			{
				"x": 1.347589318,
				"y": 0.8137047601,
				"z": 4.2403727603,
				"element": "H" 
			},
			{
				"x": -0.4099084354,
				"y": -0.4471137315,
				"z": 7.8216587156,
				"element": "H" 
			},
			{
				"x": -2.0103001349,
				"y": 0.2092348402,
				"z": 7.3460885653,
				"element": "H" 
			},
			{
				"x": -1.5730166638,
				"y": -1.4914751258,
				"z": 6.9786957354,
				"element": "H" 
			}
		],
		 "valence_orbital": [ 
			{
				"type": "occ",
				"energy": -0.3004,
				"method": "rhf"
			},
			{
				"type": "occ",
				"energy": -0.29889,
				"method": "rhf"
			},
			{
				"type": "occ",
				"energy": -0.29778,
				"method": "rhf"
			},
			{
				"type": "occ",
				"energy": -0.29408,
				"method": "rhf"
			},
			{
				"type": "occ",
				"energy": -0.26807,
				"method": "rhf"
			},
			{
				"type": "unocc",
				"energy": 0.01508,
				"method": "rhf"
			},
			{
				"type": "unocc",
				"energy": 0.06741,
				"method": "rhf"
			},
			{
				"type": "unocc",
				"energy": 0.08822,
				"method": "rhf"
			},
			{
				"type": "unocc",
				"energy": 0.09505,
				"method": "rhf"
			},
			{
				"type": "unocc",
				"energy": 0.09996,
				"method": "rhf"
			}
		],
		"cosmo_sigma_profile": { 
			"-0.025": 0.0,
			"-0.024": 0.0,
			"-0.023": 0.0,
			"-0.022": 0.0,
			"-0.021": 0.0,
			"-0.02": 0.0,
			"-0.019": 0.0,
			"-0.018": 0.0,
			"-0.017": 0.0,
			"-0.016": 0.0,
			"-0.015": 0.0,
			"-0.014": 0.0,
			"-0.013": 0.0,
			"-0.012": 0.0,
			"-0.011": 0.0,
			"-0.01": 0.0,
			"-0.009": 0.0,
			"-0.008": 0.0,
			"-0.007": 0.285286822569,
			"-0.006": 5.34866591225,
			"-0.005": 9.80812808524,
			"-0.004": 12.8216908648,
			"-0.003": 18.4144875905,
			"-0.002": 49.9032524917,
			"-0.001": 85.7801108195,
			"0.0": 85.1074352449,
			"0.001": 70.289961821,
			"0.002": 32.197938993,
			"0.003": 4.2624259122,
			"0.004": 3.71081882208,
			"0.005": 2.44919754538,
			"0.006": 2.53639532224,
			"0.007": 3.30154071463,
			"0.008": 3.15988908547,
			"0.009": 2.35248430403,
			"0.01": 2.12122485509,
			"0.011": 2.13177127939,
			"0.012": 4.29945683614,
			"0.013": 1.42461446386,
			"0.014": 0.0,
			"0.015": 0.0,
			"0.016": 0.0,
			"0.017": 0.0,
			"0.018": 0.0,
			"0.019": 0.0,
			"0.02": 0.0,
			"0.021": 0.0,
			"0.022": 0.0,
			"0.023": 0.0,
			"0.024": 0.0,
			"0.025": 0.0
		}
	}
}
