{
	 "smiles": "CCOC(=O)C1=C(C)SC(NCC2=CC=CC=C2)=N1", 
	 "Tm": 372.15, 
	 "num_atms": 35, 
	 "gaussian": { 
		 "optdone": 1, 
		 "sigma_profile": "yes", 
		 "theory": "DFT", 
		 "functional": "B3LYP", 
		 "basiset": "6-31G**", 
		 "properties": { 
			 "R2extent": 9095.4532, 
			 "electric_dipole_moment_norm": 3.14614027341, 
			 "electric_quadrupole_moment_norm": 5.22534822285, 
			 "total_energy": -1201.28809034, 
			 "HOMO_LUMO_gap": 0.17459, 
			 "cosmo_polarized_energy": -13.56, 
			 "cosmo_cavitation_energy": 40.84, 
			 "cosmo_dispersion_energy": -29.9, 
			 "cosmo_repulsion_energy": 2.3, 
			 "cosmo_total_nonelectrostatic_energy": 13.25, 
			 "SMD_solvation_energy": 5.83 
		},
		"coords": [
			{
				"x": 1.7564174461,
				"y": 4.6100899137,
				"z": 2.8761681629,
				"element": "C" 
			},
			{
				"x": 2.579237212,
				"y": 3.3362559671,
				"z": 2.7468110187,
				"element": "C" 
			},
			{
				"x": 1.905266788,
				"y": 2.3546808479,
				"z": 1.9280059935,
				"element": "O" 
			},
			{
				"x": 2.0857926782,
				"y": 2.4626115746,
				"z": 0.5967432758,
				"element": "C" 
			},
			{
				"x": 2.7789028801,
				"y": 3.3253421183,
				"z": 0.0811656587,
				"element": "O" 
			},
			{
				"x": 1.3465141348,
				"y": 1.4078273458,
				"z": -0.1472018093,
				"element": "C" 
			},
			{
				"x": 1.3750604173,
				"y": 1.2802544561,
				"z": -1.516675604,
				"element": "C" 
			},
			{
				"x": 2.0824071996,
				"y": 2.0724824307,
				"z": -2.5724530949,
				"element": "C" 
			},
			{
				"x": 0.3759384376,
				"y": -0.0927282458,
				"z": -1.9694226504,
				"element": "S" 
			},
			{
				"x": 0.0096021201,
				"y": -0.3511720311,
				"z": -0.2510640808,
				"element": "C" 
			},
			{
				"x": -0.8553952129,
				"y": -1.3320546954,
				"z": 0.159842778,
				"element": "N" 
			},
			{
				"x": -1.1644574317,
				"y": -2.5017006681,
				"z": -0.6555355861,
				"element": "C" 
			},
			{
				"x": -2.2819653594,
				"y": -3.3187873074,
				"z": -0.0405388128,
				"element": "C" 
			},
			{
				"x": -3.4749359502,
				"y": -2.7041290792,
				"z": 0.3654703219,
				"element": "C" 
			},
			{
				"x": -4.5105687059,
				"y": -3.462238643,
				"z": 0.910026402,
				"element": "C" 
			},
			{
				"x": -4.3695272244,
				"y": -4.8452514602,
				"z": 1.0524588963,
				"element": "C" 
			},
			{
				"x": -3.1856981975,
				"y": -5.4642517277,
				"z": 0.6509350009,
				"element": "C" 
			},
			{
				"x": -2.1468091722,
				"y": -4.7027649765,
				"z": 0.110942763,
				"element": "C" 
			},
			{
				"x": 0.5863269473,
				"y": 0.4871267802,
				"z": 0.5552250674,
				"element": "N" 
			},
			{
				"x": 1.6594701345,
				"y": 5.1036294182,
				"z": 1.9062146889,
				"element": "H" 
			},
			{
				"x": 0.7574780705,
				"y": 4.3892806583,
				"z": 3.263536957,
				"element": "H" 
			},
			{
				"x": 2.2489775974,
				"y": 5.3028152068,
				"z": 3.5670029125,
				"element": "H" 
			},
			{
				"x": 2.7021235079,
				"y": 2.8410676275,
				"z": 3.7131430055,
				"element": "H" 
			},
			{
				"x": 3.5619826378,
				"y": 3.5455790347,
				"z": 2.3172569385,
				"element": "H" 
			},
			{
				"x": 2.7591563306,
				"y": 1.4384677277,
				"z": -3.1574222173,
				"element": "H" 
			},
			{
				"x": 1.3703117948,
				"y": 2.5241201869,
				"z": -3.273243946,
				"element": "H" 
			},
			{
				"x": 2.660510523,
				"y": 2.8644241533,
				"z": -2.0986936457,
				"element": "H" 
			},
			{
				"x": -0.8179272636,
				"y": -1.4834467963,
				"z": 1.1608483763,
				"element": "H" 
			},
			{
				"x": -0.280798619,
				"y": -3.1391728266,
				"z": -0.81409928,
				"element": "H" 
			},
			{
				"x": -1.4751843546,
				"y": -2.1434747511,
				"z": -1.6466475197,
				"element": "H" 
			},
			{
				"x": -3.5824031231,
				"y": -1.6285571244,
				"z": 0.2576370791,
				"element": "H" 
			},
			{
				"x": -5.4296659195,
				"y": -2.9742213447,
				"z": 1.22170452,
				"element": "H" 
			},
			{
				"x": -5.1771758111,
				"y": -5.4349322243,
				"z": 1.4763969124,
				"element": "H" 
			},
			{
				"x": -3.0657678358,
				"y": -6.53797985,
				"z": 0.763073556,
				"element": "H" 
			},
			{
				"x": -1.2227966768,
				"y": -5.1878916963,
				"z": -0.1940120383,
				"element": "H" 
			}
		],
		 "valence_orbital": [ 
			{
				"type": "occ",
				"energy": -0.27285,
				"method": "rhf"
			},
			{
				"type": "occ",
				"energy": -0.25868,
				"method": "rhf"
			},
			{
				"type": "occ",
				"energy": -0.25824,
				"method": "rhf"
			},
			{
				"type": "occ",
				"energy": -0.25363,
				"method": "rhf"
			},
			{
				"type": "occ",
				"energy": -0.20508,
				"method": "rhf"
			},
			{
				"type": "unocc",
				"energy": -0.03049,
				"method": "rhf"
			},
			{
				"type": "unocc",
				"energy": -0.01595,
				"method": "rhf"
			},
			{
				"type": "unocc",
				"energy": -0.00967,
				"method": "rhf"
			},
			{
				"type": "unocc",
				"energy": 0.01425,
				"method": "rhf"
			},
			{
				"type": "unocc",
				"energy": 0.02237,
				"method": "rhf"
			}
		],
		"cosmo_sigma_profile": { 
			"-0.025": 0.0,
			"-0.024": 0.0,
			"-0.023": 0.0,
			"-0.022": 0.0,
			"-0.021": 0.0,
			"-0.02": 0.0,
			"-0.019": 0.0,
			"-0.018": 0.0,
			"-0.017": 0.0,
			"-0.016": 0.0,
			"-0.015": 0.0,
			"-0.014": 0.18279330522,
			"-0.013": 0.7236429342,
			"-0.012": 0.873826024199,
			"-0.011": 0.912223194548,
			"-0.01": 0.678820234999,
			"-0.009": 0.84595980167,
			"-0.008": 0.925450446232,
			"-0.007": 1.01232039998,
			"-0.006": 10.4021640369,
			"-0.005": 26.1000679659,
			"-0.004": 34.4541150659,
			"-0.003": 34.0479416176,
			"-0.002": 28.7953442589,
			"-0.001": 28.1528912197,
			"0.0": 28.9858529412,
			"0.001": 26.1779015515,
			"0.002": 22.5620776394,
			"0.003": 16.3622439588,
			"0.004": 14.9789197829,
			"0.005": 14.3773517406,
			"0.006": 10.8377592547,
			"0.007": 2.75836474791,
			"0.008": 2.46845804631,
			"0.009": 2.77295649414,
			"0.01": 3.77100203185,
			"0.011": 3.46896293812,
			"0.012": 3.80256551042,
			"0.013": 1.04864366471,
			"0.014": 0.685039262538,
			"0.015": 1.51649627812,
			"0.016": 1.15178174397,
			"0.017": 0.648908188015,
			"0.018": 0.0,
			"0.019": 0.0,
			"0.02": 0.0,
			"0.021": 0.0,
			"0.022": 0.0,
			"0.023": 0.0,
			"0.024": 0.0,
			"0.025": 0.0
		}
	}
}
