{
	 "smiles": "OC(=O)C1CC2CCCCC2N1C(=O)C1=C(F)C=C(F)C=C1", 
	 "Tm": 463.15, 
	 "num_atms": 39, 
	 "gaussian": { 
		 "optdone": 1, 
		 "sigma_profile": "yes", 
		 "theory": "DFT", 
		 "functional": "B3LYP", 
		 "basiset": "6-31G**", 
		 "properties": { 
			 "R2extent": 8131.3905, 
			 "electric_dipole_moment_norm": 4.70306368339, 
			 "electric_quadrupole_moment_norm": 12.2053776537, 
			 "total_energy": -1100.06040155, 
			 "HOMO_LUMO_gap": 0.21265, 
			 "cosmo_polarized_energy": -20.13, 
			 "cosmo_cavitation_energy": 41.44, 
			 "cosmo_dispersion_energy": -27.89, 
			 "cosmo_repulsion_energy": 2.08, 
			 "cosmo_total_nonelectrostatic_energy": 15.63, 
			 "SMD_solvation_energy": 8.19 
		},
		"coords": [
			{
				"x": 1.5768999976,
				"y": 0.7197454048,
				"z": -2.9655498767,
				"element": "O" 
			},
			{
				"x": 0.7737320573,
				"y": 1.1074525835,
				"z": -1.9402857756,
				"element": "C" 
			},
			{
				"x": 0.4920105226,
				"y": 2.2694169446,
				"z": -1.7937333467,
				"element": "O" 
			},
			{
				"x": 0.3281264087,
				"y": -0.0360206418,
				"z": -1.0107590654,
				"element": "C" 
			},
			{
				"x": 1.5071292531,
				"y": -0.4632240488,
				"z": -0.0870315596,
				"element": "C" 
			},
			{
				"x": 1.3516846051,
				"y": 0.516051501,
				"z": 1.080617681,
				"element": "C" 
			},
			{
				"x": 2.0637901121,
				"y": 0.2435221908,
				"z": 2.4127698644,
				"element": "C" 
			},
			{
				"x": 1.3148178073,
				"y": 0.9604372883,
				"z": 3.5743952325,
				"element": "C" 
			},
			{
				"x": 0.5298147477,
				"y": 2.1976400655,
				"z": 3.0921430636,
				"element": "C" 
			},
			{
				"x": -0.5604945892,
				"y": 1.84331869,
				"z": 2.0395806106,
				"element": "C" 
			},
			{
				"x": -0.1642275155,
				"y": 0.5594328656,
				"z": 1.2949057899,
				"element": "C" 
			},
			{
				"x": -0.709605596,
				"y": 0.3789940734,
				"z": -0.0661868402,
				"element": "N" 
			},
			{
				"x": -2.054108184,
				"y": 0.130816246,
				"z": -0.211346059,
				"element": "C" 
			},
			{
				"x": -2.8153041479,
				"y": 0.1353187007,
				"z": 0.7486757864,
				"element": "O" 
			},
			{
				"x": -2.5654522311,
				"y": -0.1036338865,
				"z": -1.6098881551,
				"element": "C" 
			},
			{
				"x": -3.2834084924,
				"y": -1.2662747437,
				"z": -1.909041325,
				"element": "C" 
			},
			{
				"x": -3.386810864,
				"y": -2.2323955563,
				"z": -0.9795937074,
				"element": "F" 
			},
			{
				"x": -3.8711093189,
				"y": -1.4843764636,
				"z": -3.1485009576,
				"element": "C" 
			},
			{
				"x": -3.7428326362,
				"y": -0.4850367541,
				"z": -4.107515599,
				"element": "C" 
			},
			{
				"x": -4.3104663359,
				"y": -0.6761784956,
				"z": -5.3125540716,
				"element": "F" 
			},
			{
				"x": -3.0471278496,
				"y": 0.69401317,
				"z": -3.8636512594,
				"element": "C" 
			},
			{
				"x": -2.4598063305,
				"y": 0.872978503,
				"z": -2.6112522118,
				"element": "C" 
			},
			{
				"x": 1.6874765819,
				"y": -0.2423710381,
				"z": -2.968008168,
				"element": "H" 
			},
			{
				"x": -0.0245192846,
				"y": -0.8665526702,
				"z": -1.6333387443,
				"element": "H" 
			},
			{
				"x": 1.3516184281,
				"y": -1.4959565476,
				"z": 0.2457590862,
				"element": "H" 
			},
			{
				"x": 2.4784644955,
				"y": -0.4076202627,
				"z": -0.5882141567,
				"element": "H" 
			},
			{
				"x": 1.6546911125,
				"y": 1.5071406885,
				"z": 0.7173126032,
				"element": "H" 
			},
			{
				"x": 3.102101703,
				"y": 0.5891374966,
				"z": 2.3538860679,
				"element": "H" 
			},
			{
				"x": 2.1031858685,
				"y": -0.8356183859,
				"z": 2.6088459446,
				"element": "H" 
			},
			{
				"x": 0.6147200617,
				"y": 0.2589584224,
				"z": 4.044523235,
				"element": "H" 
			},
			{
				"x": 2.0258770522,
				"y": 1.2483718359,
				"z": 4.3559131936,
				"element": "H" 
			},
			{
				"x": 1.2365470735,
				"y": 2.9197253763,
				"z": 2.6645672391,
				"element": "H" 
			},
			{
				"x": 0.0684624886,
				"y": 2.6990983826,
				"z": 3.9492277543,
				"element": "H" 
			},
			{
				"x": -0.6617208389,
				"y": 2.6569560193,
				"z": 1.3134011821,
				"element": "H" 
			},
			{
				"x": -1.5369813626,
				"y": 1.7022752414,
				"z": 2.5082317764,
				"element": "H" 
			},
			{
				"x": -0.4784180975,
				"y": -0.3081874054,
				"z": 1.8932590272,
				"element": "H" 
			},
			{
				"x": -4.4110442989,
				"y": -2.4000409445,
				"z": -3.3562259598,
				"element": "H" 
			},
			{
				"x": -2.9774755112,
				"y": 1.4493172342,
				"z": -4.637858455,
				"element": "H" 
			},
			{
				"x": -1.9182368921,
				"y": 1.7881689205,
				"z": -2.397079844,
				"element": "H" 
			}
		],
		 "valence_orbital": [ 
			{
				"type": "occ",
				"energy": -0.28573,
				"method": "rhf"
			},
			{
				"type": "occ",
				"energy": -0.26946,
				"method": "rhf"
			},
			{
				"type": "occ",
				"energy": -0.26373,
				"method": "rhf"
			},
			{
				"type": "occ",
				"energy": -0.25007,
				"method": "rhf"
			},
			{
				"type": "occ",
				"energy": -0.24388,
				"method": "rhf"
			},
			{
				"type": "unocc",
				"energy": -0.03123,
				"method": "rhf"
			},
			{
				"type": "unocc",
				"energy": -0.01875,
				"method": "rhf"
			},
			{
				"type": "unocc",
				"energy": -0.00484,
				"method": "rhf"
			},
			{
				"type": "unocc",
				"energy": 0.02666,
				"method": "rhf"
			},
			{
				"type": "unocc",
				"energy": 0.04128,
				"method": "rhf"
			}
		],
		"cosmo_sigma_profile": { 
			"-0.025": 0.0,
			"-0.024": 0.0,
			"-0.023": 0.0,
			"-0.022": 0.0,
			"-0.021": 0.0493199797641,
			"-0.02": 0.822355436856,
			"-0.019": 0.710716179447,
			"-0.018": 1.33799892733,
			"-0.017": 1.28650324235,
			"-0.016": 0.412188968903,
			"-0.015": 0.689299657073,
			"-0.014": 0.753708303105,
			"-0.013": 1.31043290978,
			"-0.012": 0.788452429461,
			"-0.011": 1.30067818585,
			"-0.01": 0.559364904,
			"-0.009": 2.93235652429,
			"-0.008": 5.48477497573,
			"-0.007": 5.54931658533,
			"-0.006": 10.0601708477,
			"-0.005": 11.7901867875,
			"-0.004": 16.6505431355,
			"-0.003": 30.4107874635,
			"-0.002": 33.8337297857,
			"-0.001": 35.5101993062,
			"0.0": 35.7866212393,
			"0.001": 29.6117810796,
			"0.002": 12.7361241206,
			"0.003": 17.4712056081,
			"0.004": 17.1892687036,
			"0.005": 5.84473345082,
			"0.006": 5.57901819669,
			"0.007": 5.71201388933,
			"0.008": 5.69285599575,
			"0.009": 6.89468620738,
			"0.01": 5.29085616381,
			"0.011": 6.42606623503,
			"0.012": 4.02130766397,
			"0.013": 4.27093147992,
			"0.014": 1.05280794774,
			"0.015": 0.0,
			"0.016": 0.0,
			"0.017": 0.0,
			"0.018": 0.0,
			"0.019": 0.0,
			"0.02": 0.0,
			"0.021": 0.0,
			"0.022": 0.0,
			"0.023": 0.0,
			"0.024": 0.0,
			"0.025": 0.0
		}
	}
}
