{
	 "smiles": "OC(=O)CCOC1=CC(=CC=C1)[N+]([O-])=O", 
	 "Tm": 385.15, 
	 "num_atms": 24, 
	 "gaussian": { 
		 "optdone": 1, 
		 "sigma_profile": "yes", 
		 "theory": "DFT", 
		 "functional": "B3LYP", 
		 "basiset": "6-31G**", 
		 "properties": { 
			 "R2extent": 4977.002, 
			 "electric_dipole_moment_norm": 5.33565474333, 
			 "electric_quadrupole_moment_norm": 20.903084842, 
			 "total_energy": -779.148609328, 
			 "HOMO_LUMO_gap": 0.15696, 
			 "cosmo_polarized_energy": -20.38, 
			 "cosmo_cavitation_energy": 29.86, 
			 "cosmo_dispersion_energy": -21.32, 
			 "cosmo_repulsion_energy": 1.69, 
			 "cosmo_total_nonelectrostatic_energy": 10.23, 
			 "SMD_solvation_energy": 8.8 
		},
		"coords": [
			{
				"x": 0.5573580532,
				"y": -5.4307280562,
				"z": 0.3298974897,
				"element": "O" 
			},
			{
				"x": 0.0651515435,
				"y": -4.4279617177,
				"z": -0.4403723622,
				"element": "C" 
			},
			{
				"x": -0.2111693327,
				"y": -4.6266679726,
				"z": -1.5971269095,
				"element": "O" 
			},
			{
				"x": -0.1136546306,
				"y": -3.0849705361,
				"z": 0.2552553446,
				"element": "C" 
			},
			{
				"x": -0.6073938274,
				"y": -2.018023108,
				"z": -0.7246717028,
				"element": "C" 
			},
			{
				"x": -0.9311060091,
				"y": -0.7965145205,
				"z": -0.0574001402,
				"element": "O" 
			},
			{
				"x": 0.0525731217,
				"y": 0.0874752002,
				"z": 0.2657012931,
				"element": "C" 
			},
			{
				"x": 1.4104259335,
				"y": -0.0872654871,
				"z": -0.0136246378,
				"element": "C" 
			},
			{
				"x": 2.2987973483,
				"y": 0.9169248385,
				"z": 0.3746003137,
				"element": "C" 
			},
			{
				"x": 1.8995646885,
				"y": 2.0792632502,
				"z": 1.0223281795,
				"element": "C" 
			},
			{
				"x": 0.5374566781,
				"y": 2.2339727281,
				"z": 1.2924061486,
				"element": "C" 
			},
			{
				"x": -0.3772270454,
				"y": 1.2544602122,
				"z": 0.9225671935,
				"element": "C" 
			},
			{
				"x": 3.7313059937,
				"y": 0.7195826435,
				"z": 0.0851999195,
				"element": "N" 
			},
			{
				"x": 4.0651893826,
				"y": -0.3343085975,
				"z": -0.4571576127,
				"element": "O" 
			},
			{
				"x": 4.5074962579,
				"y": 1.6178041126,
				"z": 0.4057365044,
				"element": "O" 
			},
			{
				"x": 0.7390310504,
				"y": -5.1151791768,
				"z": 1.2267299546,
				"element": "H" 
			},
			{
				"x": -0.8431508919,
				"y": -3.195269313,
				"z": 1.0680558475,
				"element": "H" 
			},
			{
				"x": 0.8326130414,
				"y": -2.7864292914,
				"z": 0.7231155281,
				"element": "H" 
			},
			{
				"x": -1.5369738043,
				"y": -2.3481052586,
				"z": -1.1897757804,
				"element": "H" 
			},
			{
				"x": 0.1173910335,
				"y": -1.8508290941,
				"z": -1.5276141144,
				"element": "H" 
			},
			{
				"x": 1.8062839532,
				"y": -0.9570621289,
				"z": -0.5182568698,
				"element": "H" 
			},
			{
				"x": 2.6346924715,
				"y": 2.8228525637,
				"z": 1.2997169416,
				"element": "H" 
			},
			{
				"x": 0.1880811979,
				"y": 3.1294393356,
				"z": 1.7964552874,
				"element": "H" 
			},
			{
				"x": -1.4369362073,
				"y": 1.3671393741,
				"z": 1.1258341839,
				"element": "H" 
			}
		],
		 "valence_orbital": [ 
			{
				"type": "occ",
				"energy": -0.3107,
				"method": "rhf"
			},
			{
				"type": "occ",
				"energy": -0.29448,
				"method": "rhf"
			},
			{
				"type": "occ",
				"energy": -0.2888,
				"method": "rhf"
			},
			{
				"type": "occ",
				"energy": -0.28542,
				"method": "rhf"
			},
			{
				"type": "occ",
				"energy": -0.24991,
				"method": "rhf"
			},
			{
				"type": "unocc",
				"energy": -0.09295,
				"method": "rhf"
			},
			{
				"type": "unocc",
				"energy": -0.02288,
				"method": "rhf"
			},
			{
				"type": "unocc",
				"energy": -0.00547,
				"method": "rhf"
			},
			{
				"type": "unocc",
				"energy": 0.00139,
				"method": "rhf"
			},
			{
				"type": "unocc",
				"energy": 0.04063,
				"method": "rhf"
			}
		],
		"cosmo_sigma_profile": { 
			"-0.025": 0.0,
			"-0.024": 0.0,
			"-0.023": 0.0,
			"-0.022": 0.0,
			"-0.021": 0.0,
			"-0.02": 0.136503540178,
			"-0.019": 0.928068558025,
			"-0.018": 1.3943915633,
			"-0.017": 0.940014975406,
			"-0.016": 1.29923208253,
			"-0.015": 0.833522233276,
			"-0.014": 0.750783121836,
			"-0.013": 1.49882040329,
			"-0.012": 1.38368222691,
			"-0.011": 1.3967959482,
			"-0.01": 2.4528221724,
			"-0.009": 3.43424155977,
			"-0.008": 6.71496231464,
			"-0.007": 11.4354039871,
			"-0.006": 15.0285725817,
			"-0.005": 13.4040727838,
			"-0.004": 12.1631225824,
			"-0.003": 11.8726838141,
			"-0.002": 11.3796589664,
			"-0.001": 14.1248125832,
			"0.0": 14.0110989484,
			"0.001": 18.4921702659,
			"0.002": 14.3644050084,
			"0.003": 9.35744173306,
			"0.004": 6.43708504793,
			"0.005": 5.63181913173,
			"0.006": 7.23668105783,
			"0.007": 10.7075259014,
			"0.008": 12.4077867101,
			"0.009": 8.79007761602,
			"0.01": 7.57323284691,
			"0.011": 5.57020247646,
			"0.012": 3.90281634458,
			"0.013": 0.924060523775,
			"0.014": 0.0,
			"0.015": 0.0,
			"0.016": 0.0,
			"0.017": 0.0,
			"0.018": 0.0,
			"0.019": 0.0,
			"0.02": 0.0,
			"0.021": 0.0,
			"0.022": 0.0,
			"0.023": 0.0,
			"0.024": 0.0,
			"0.025": 0.0
		}
	}
}
