{
	 "smiles": "CC1=CC=C(C=C1)C(=O)C1CC1", 
	 "Tm": 321.15, 
	 "num_atms": 24, 
	 "gaussian": { 
		 "optdone": 1, 
		 "sigma_profile": "yes", 
		 "theory": "DFT", 
		 "functional": "B3LYP", 
		 "basiset": "6-31G**", 
		 "properties": { 
			 "R2extent": 3060.8494, 
			 "electric_dipole_moment_norm": 3.01751389226, 
			 "electric_quadrupole_moment_norm": 12.89879071, 
			 "total_energy": -501.609634348, 
			 "HOMO_LUMO_gap": 0.19428, 
			 "cosmo_polarized_energy": -8.21, 
			 "cosmo_cavitation_energy": 27.25, 
			 "cosmo_dispersion_energy": -19.97, 
			 "cosmo_repulsion_energy": 1.58, 
			 "cosmo_total_nonelectrostatic_energy": 8.86, 
			 "SMD_solvation_energy": 4.81 
		},
		"coords": [
			{
				"x": 0.0406550285,
				"y": 2.0285242746,
				"z": 4.1666813333,
				"element": "C" 
			},
			{
				"x": -0.3560663348,
				"y": 1.3483633436,
				"z": 2.8790653537,
				"element": "C" 
			},
			{
				"x": -1.2132001639,
				"y": 0.2349122142,
				"z": 2.891237,
				"element": "C" 
			},
			{
				"x": -1.5701363153,
				"y": -0.4056198876,
				"z": 1.7128853493,
				"element": "C" 
			},
			{
				"x": -1.0842204509,
				"y": 0.0433951714,
				"z": 0.472087414,
				"element": "C" 
			},
			{
				"x": -0.2305220018,
				"y": 1.1552927703,
				"z": 0.4558228916,
				"element": "C" 
			},
			{
				"x": 0.124954301,
				"y": 1.7953851304,
				"z": 1.6431188882,
				"element": "C" 
			},
			{
				"x": -1.5190738195,
				"y": -0.7025454247,
				"z": -0.7526629917,
				"element": "C" 
			},
			{
				"x": -2.2749268979,
				"y": -1.6654947353,
				"z": -0.6510565275,
				"element": "O" 
			},
			{
				"x": -1.0354486578,
				"y": -0.2790341791,
				"z": -2.1022808984,
				"element": "C" 
			},
			{
				"x": -2.0002730595,
				"y": -0.4735317772,
				"z": -3.2664354717,
				"element": "C" 
			},
			{
				"x": -0.8289105029,
				"y": -1.3835349658,
				"z": -3.1323474965,
				"element": "C" 
			},
			{
				"x": -0.8336331632,
				"y": 2.2361633405,
				"z": 4.7929271782,
				"element": "H" 
			},
			{
				"x": 0.5561592234,
				"y": 2.9743695998,
				"z": 3.9796587858,
				"element": "H" 
			},
			{
				"x": 0.713588757,
				"y": 1.3940292559,
				"z": 4.7562919136,
				"element": "H" 
			},
			{
				"x": -1.6026399098,
				"y": -0.1281272042,
				"z": 3.8394776924,
				"element": "H" 
			},
			{
				"x": -2.2323432207,
				"y": -1.2647369643,
				"z": 1.7182648436,
				"element": "H" 
			},
			{
				"x": 0.1654530998,
				"y": 1.5380892298,
				"z": -0.4784008559,
				"element": "H" 
			},
			{
				"x": 0.7865240838,
				"y": 2.6571891814,
				"z": 1.6079142,
				"element": "H" 
			},
			{
				"x": -0.3676186492,
				"y": 0.5710341675,
				"z": -2.1649217829,
				"element": "H" 
			},
			{
				"x": -2.9738876568,
				"y": -0.872728397,
				"z": -3.0021267621,
				"element": "H" 
			},
			{
				"x": -1.9950197133,
				"y": 0.2842446678,
				"z": -4.0436098305,
				"element": "H" 
			},
			{
				"x": 0.0081210943,
				"y": -1.2719020124,
				"z": -3.8143791272,
				"element": "H" 
			},
			{
				"x": -1.0191350705,
				"y": -2.3913367994,
				"z": -2.7784110992,
				"element": "H" 
			}
		],
		 "valence_orbital": [ 
			{
				"type": "occ",
				"energy": -0.30593,
				"method": "rhf"
			},
			{
				"type": "occ",
				"energy": -0.28703,
				"method": "rhf"
			},
			{
				"type": "occ",
				"energy": -0.25539,
				"method": "rhf"
			},
			{
				"type": "occ",
				"energy": -0.24591,
				"method": "rhf"
			},
			{
				"type": "occ",
				"energy": -0.24398,
				"method": "rhf"
			},
			{
				"type": "unocc",
				"energy": -0.0497,
				"method": "rhf"
			},
			{
				"type": "unocc",
				"energy": -0.00564,
				"method": "rhf"
			},
			{
				"type": "unocc",
				"energy": 0.04276,
				"method": "rhf"
			},
			{
				"type": "unocc",
				"energy": 0.08594,
				"method": "rhf"
			},
			{
				"type": "unocc",
				"energy": 0.10066,
				"method": "rhf"
			}
		],
		"cosmo_sigma_profile": { 
			"-0.025": 0.0,
			"-0.024": 0.0,
			"-0.023": 0.0,
			"-0.022": 0.0,
			"-0.021": 0.0,
			"-0.02": 0.0,
			"-0.019": 0.0,
			"-0.018": 0.0,
			"-0.017": 0.0,
			"-0.016": 0.0,
			"-0.015": 0.0,
			"-0.014": 0.0,
			"-0.013": 0.0,
			"-0.012": 0.0,
			"-0.011": 0.0,
			"-0.01": 0.0,
			"-0.009": 0.247341938919,
			"-0.008": 1.60129951833,
			"-0.007": 1.86983471204,
			"-0.006": 6.09685015606,
			"-0.005": 15.8009215509,
			"-0.004": 23.2433993815,
			"-0.003": 18.8355265657,
			"-0.002": 19.0317959506,
			"-0.001": 21.2718607437,
			"0.0": 21.3725015473,
			"0.001": 18.2727381133,
			"0.002": 15.0798316302,
			"0.003": 15.2709368125,
			"0.004": 14.4841299567,
			"0.005": 7.75040048069,
			"0.006": 2.03275190313,
			"0.007": 1.65052718071,
			"0.008": 1.72184970966,
			"0.009": 1.10509563419,
			"0.01": 1.95182496055,
			"0.011": 2.01006315467,
			"0.012": 2.89809766661,
			"0.013": 2.72984623027,
			"0.014": 0.0827856138183,
			"0.015": 0.0,
			"0.016": 0.0,
			"0.017": 0.0,
			"0.018": 0.0,
			"0.019": 0.0,
			"0.02": 0.0,
			"0.021": 0.0,
			"0.022": 0.0,
			"0.023": 0.0,
			"0.024": 0.0,
			"0.025": 0.0
		}
	}
}
