{
	 "smiles": "OCC1=C(CN2C=NC=N2)C=CC=C1", 
	 "Tm": 372.15, 
	 "num_atms": 25, 
	 "gaussian": { 
		 "optdone": 1, 
		 "sigma_profile": "yes", 
		 "theory": "DFT", 
		 "functional": "B3LYP", 
		 "basiset": "6-31G**", 
		 "properties": { 
			 "R2extent": 2907.2019, 
			 "electric_dipole_moment_norm": 2.86484864173, 
			 "electric_quadrupole_moment_norm": 12.0497348261, 
			 "total_energy": -627.148729781, 
			 "HOMO_LUMO_gap": 0.22615, 
			 "cosmo_polarized_energy": -12.3, 
			 "cosmo_cavitation_energy": 28.09, 
			 "cosmo_dispersion_energy": -20.53, 
			 "cosmo_repulsion_energy": 1.59, 
			 "cosmo_total_nonelectrostatic_energy": 9.15, 
			 "SMD_solvation_energy": 2.92 
		},
		"coords": [
			{
				"x": 1.0543889667,
				"y": -2.4380514088,
				"z": -0.8283097236,
				"element": "O" 
			},
			{
				"x": -0.030141793,
				"y": -1.9947635889,
				"z": -1.6089271447,
				"element": "C" 
			},
			{
				"x": -0.6184261064,
				"y": -0.6148692922,
				"z": -1.302758559,
				"element": "C" 
			},
			{
				"x": -0.4409279551,
				"y": 0.1200930377,
				"z": -0.1140285533,
				"element": "C" 
			},
			{
				"x": 0.4597060604,
				"y": -0.330092933,
				"z": 1.024944697,
				"element": "C" 
			},
			{
				"x": 1.8310614667,
				"y": 0.1870177563,
				"z": 0.89139226,
				"element": "N" 
			},
			{
				"x": 2.471282819,
				"y": 1.1267949636,
				"z": 1.6175247403,
				"element": "C" 
			},
			{
				"x": 3.6928789468,
				"y": 1.3356635819,
				"z": 1.1476133078,
				"element": "N" 
			},
			{
				"x": 3.7523315143,
				"y": 0.4772341914,
				"z": 0.0978576938,
				"element": "C" 
			},
			{
				"x": 2.6521989078,
				"y": -0.2381691786,
				"z": -0.1025514601,
				"element": "N" 
			},
			{
				"x": -1.0970378688,
				"y": 1.35237854,
				"z": 0.0355564946,
				"element": "C" 
			},
			{
				"x": -1.9227489038,
				"y": 1.8693195457,
				"z": -0.9570623092,
				"element": "C" 
			},
			{
				"x": -2.0985369426,
				"y": 1.1453606027,
				"z": -2.1373063229,
				"element": "C" 
			},
			{
				"x": -1.4483209154,
				"y": -0.0739501611,
				"z": -2.2981610984,
				"element": "C" 
			},
			{
				"x": 1.7673076006,
				"y": -1.7689715909,
				"z": -0.8619910276,
				"element": "H" 
			},
			{
				"x": -0.8239495891,
				"y": -2.7407545507,
				"z": -1.4680140781,
				"element": "H" 
			},
			{
				"x": 0.2165550747,
				"y": -2.0143379976,
				"z": -2.6834947598,
				"element": "H" 
			},
			{
				"x": 0.0856275884,
				"y": 0.0615663446,
				"z": 1.9743720186,
				"element": "H" 
			},
			{
				"x": 0.5227949977,
				"y": -1.4153573998,
				"z": 1.0835416232,
				"element": "H" 
			},
			{
				"x": 2.019334479,
				"y": 1.6189455831,
				"z": 2.467677824,
				"element": "H" 
			},
			{
				"x": 4.6216013135,
				"y": 0.3692516234,
				"z": -0.5360375878,
				"element": "H" 
			},
			{
				"x": -0.9539820256,
				"y": 1.9130382974,
				"z": 0.9568298528,
				"element": "H" 
			},
			{
				"x": -2.4206472332,
				"y": 2.8234125106,
				"z": -0.8128841123,
				"element": "H" 
			},
			{
				"x": -2.7340892302,
				"y": 1.5306718426,
				"z": -2.9294664115,
				"element": "H" 
			},
			{
				"x": -1.5832611726,
				"y": -0.6310303194,
				"z": -3.2229173637,
				"element": "H" 
			}
		],
		 "valence_orbital": [ 
			{
				"type": "occ",
				"energy": -0.28409,
				"method": "rhf"
			},
			{
				"type": "occ",
				"energy": -0.27542,
				"method": "rhf"
			},
			{
				"type": "occ",
				"energy": -0.26369,
				"method": "rhf"
			},
			{
				"type": "occ",
				"energy": -0.25627,
				"method": "rhf"
			},
			{
				"type": "occ",
				"energy": -0.2438,
				"method": "rhf"
			},
			{
				"type": "unocc",
				"energy": -0.01765,
				"method": "rhf"
			},
			{
				"type": "unocc",
				"energy": -0.01193,
				"method": "rhf"
			},
			{
				"type": "unocc",
				"energy": 0.00298,
				"method": "rhf"
			},
			{
				"type": "unocc",
				"energy": 0.04731,
				"method": "rhf"
			},
			{
				"type": "unocc",
				"energy": 0.08053,
				"method": "rhf"
			}
		],
		"cosmo_sigma_profile": { 
			"-0.025": 0.0,
			"-0.024": 0.0,
			"-0.023": 0.0,
			"-0.022": 0.0,
			"-0.021": 0.0,
			"-0.02": 0.0,
			"-0.019": 0.0,
			"-0.018": 0.0,
			"-0.017": 0.0,
			"-0.016": 0.0,
			"-0.015": 0.0,
			"-0.014": 0.0,
			"-0.013": 0.0,
			"-0.012": 0.0,
			"-0.011": 0.633812466717,
			"-0.01": 3.74472897734,
			"-0.009": 4.0116085323,
			"-0.008": 5.71446613805,
			"-0.007": 5.20531002964,
			"-0.006": 9.78868134306,
			"-0.005": 15.6298416524,
			"-0.004": 20.9553653832,
			"-0.003": 19.246093146,
			"-0.002": 15.1604275696,
			"-0.001": 14.2535282379,
			"0.0": 13.7254925609,
			"0.001": 15.4120999369,
			"0.002": 13.4754384233,
			"0.003": 11.9476703717,
			"0.004": 14.0422640868,
			"0.005": 12.718930844,
			"0.006": 6.75796800087,
			"0.007": 2.64902312809,
			"0.008": 2.6746253924,
			"0.009": 2.08728945408,
			"0.01": 2.19662538759,
			"0.011": 1.90197037079,
			"0.012": 2.38008780319,
			"0.013": 2.36733794414,
			"0.014": 2.71950892512,
			"0.015": 1.73263213923,
			"0.016": 1.01671836249,
			"0.017": 0.261177691248,
			"0.018": 0.0,
			"0.019": 0.0,
			"0.02": 0.0,
			"0.021": 0.0,
			"0.022": 0.0,
			"0.023": 0.0,
			"0.024": 0.0,
			"0.025": 0.0
		}
	}
}
