{
	 "smiles": "CC1=CC=C(CCl)C2=CC=CC=C12", 
	 "Tm": 332.15, 
	 "num_atms": 24, 
	 "gaussian": { 
		 "optdone": 1, 
		 "sigma_profile": "yes", 
		 "theory": "DFT", 
		 "functional": "B3LYP", 
		 "basiset": "6-31G**", 
		 "properties": { 
			 "R2extent": 3513.0051, 
			 "electric_dipole_moment_norm": 2.72718495706, 
			 "electric_quadrupole_moment_norm": 15.9781316242, 
			 "total_energy": -924.122699426, 
			 "HOMO_LUMO_gap": 0.16711, 
			 "cosmo_polarized_energy": -7.33, 
			 "cosmo_cavitation_energy": 28.28, 
			 "cosmo_dispersion_energy": -20.86, 
			 "cosmo_repulsion_energy": 1.63, 
			 "cosmo_total_nonelectrostatic_energy": 9.05, 
			 "SMD_solvation_energy": 4.14 
		},
		"coords": [
			{
				"x": -3.4547840476,
				"y": -0.5770256968,
				"z": 1.3121120626,
				"element": "C" 
			},
			{
				"x": -2.4195512354,
				"y": -0.7619567841,
				"z": 0.2295002396,
				"element": "C" 
			},
			{
				"x": -2.8096151975,
				"y": -0.9937573791,
				"z": -1.0729427014,
				"element": "C" 
			},
			{
				"x": -1.8643416988,
				"y": -1.1659372073,
				"z": -2.1070028518,
				"element": "C" 
			},
			{
				"x": -0.5082149283,
				"y": -1.1113143572,
				"z": -1.8602833237,
				"element": "C" 
			},
			{
				"x": 0.4450516391,
				"y": -1.2590572172,
				"z": -3.0050305007,
				"element": "C" 
			},
			{
				"x": 1.255499253,
				"y": -2.9151802912,
				"z": -3.074589056,
				"element": "Cl" 
			},
			{
				"x": -0.0520958482,
				"y": -0.8850123741,
				"z": -0.5191203095,
				"element": "C" 
			},
			{
				"x": 1.3288957136,
				"y": -0.8334390714,
				"z": -0.1872652641,
				"element": "C" 
			},
			{
				"x": 1.7462764942,
				"y": -0.6003797002,
				"z": 1.1048795912,
				"element": "C" 
			},
			{
				"x": 0.7987775211,
				"y": -0.4103222006,
				"z": 2.1339817443,
				"element": "C" 
			},
			{
				"x": -0.5480012355,
				"y": -0.4627437894,
				"z": 1.8494810852,
				"element": "C" 
			},
			{
				"x": -1.0173387732,
				"y": -0.7015222561,
				"z": 0.5289155988,
				"element": "C" 
			},
			{
				"x": -4.4635320797,
				"y": -0.6576458782,
				"z": 0.8996687161,
				"element": "H" 
			},
			{
				"x": -3.3556307471,
				"y": -1.3315490062,
				"z": 2.1012171902,
				"element": "H" 
			},
			{
				"x": -3.3684387134,
				"y": 0.4042622966,
				"z": 1.7934028431,
				"element": "H" 
			},
			{
				"x": -3.8682122402,
				"y": -1.0424325346,
				"z": -1.3135331621,
				"element": "H" 
			},
			{
				"x": -2.2166958825,
				"y": -1.3421326736,
				"z": -3.1201495538,
				"element": "H" 
			},
			{
				"x": 1.2688270252,
				"y": -0.5461952764,
				"z": -2.9673712191,
				"element": "H" 
			},
			{
				"x": -0.0699863884,
				"y": -1.1565955486,
				"z": -3.9592877639,
				"element": "H" 
			},
			{
				"x": 2.0695961662,
				"y": -1.0017377067,
				"z": -0.9610127309,
				"element": "H" 
			},
			{
				"x": 2.8075398411,
				"y": -0.5683549372,
				"z": 1.3335724165,
				"element": "H" 
			},
			{
				"x": 1.1332426901,
				"y": -0.2270769199,
				"z": 3.1509772417,
				"element": "H" 
			},
			{
				"x": -1.267067328,
				"y": -0.3200934903,
				"z": 2.6487797077,
				"element": "H" 
			}
		],
		 "valence_orbital": [ 
			{
				"type": "occ",
				"energy": -0.29213,
				"method": "rhf"
			},
			{
				"type": "occ",
				"energy": -0.28923,
				"method": "rhf"
			},
			{
				"type": "occ",
				"energy": -0.27416,
				"method": "rhf"
			},
			{
				"type": "occ",
				"energy": -0.24666,
				"method": "rhf"
			},
			{
				"type": "occ",
				"energy": -0.21696,
				"method": "rhf"
			},
			{
				"type": "unocc",
				"energy": -0.04985,
				"method": "rhf"
			},
			{
				"type": "unocc",
				"energy": -0.01279,
				"method": "rhf"
			},
			{
				"type": "unocc",
				"energy": 0.00872,
				"method": "rhf"
			},
			{
				"type": "unocc",
				"energy": 0.05343,
				"method": "rhf"
			},
			{
				"type": "unocc",
				"energy": 0.0846,
				"method": "rhf"
			}
		],
		"cosmo_sigma_profile": { 
			"-0.025": 0.0,
			"-0.024": 0.0,
			"-0.023": 0.0,
			"-0.022": 0.0,
			"-0.021": 0.0,
			"-0.02": 0.0,
			"-0.019": 0.0,
			"-0.018": 0.0,
			"-0.017": 0.0,
			"-0.016": 0.0,
			"-0.015": 0.0,
			"-0.014": 0.0,
			"-0.013": 0.0,
			"-0.012": 0.0,
			"-0.011": 0.0,
			"-0.01": 0.0,
			"-0.009": 0.0,
			"-0.008": 2.04539887435,
			"-0.007": 5.67289625878,
			"-0.006": 10.8174628565,
			"-0.005": 18.0089226425,
			"-0.004": 23.9995326699,
			"-0.003": 16.8774124151,
			"-0.002": 15.4081962712,
			"-0.001": 14.9586983799,
			"0.0": 15.4131464796,
			"0.001": 12.7336675895,
			"0.002": 13.2243606883,
			"0.003": 16.3619976206,
			"0.004": 24.1130673632,
			"0.005": 20.7288519584,
			"0.006": 8.9854585735,
			"0.007": 8.10298701443,
			"0.008": 0.177600572371,
			"0.009": 0.0,
			"0.01": 0.0,
			"0.011": 0.0,
			"0.012": 0.0,
			"0.013": 0.0,
			"0.014": 0.0,
			"0.015": 0.0,
			"0.016": 0.0,
			"0.017": 0.0,
			"0.018": 0.0,
			"0.019": 0.0,
			"0.02": 0.0,
			"0.021": 0.0,
			"0.022": 0.0,
			"0.023": 0.0,
			"0.024": 0.0,
			"0.025": 0.0
		}
	}
}
