{
	 "smiles": "CC1=C(C)C=C(C=O)C(O)=C1", 
	 "Tm": 338.15, 
	 "num_atms": 21, 
	 "gaussian": { 
		 "optdone": 1, 
		 "sigma_profile": "yes", 
		 "theory": "DFT", 
		 "functional": "B3LYP", 
		 "basiset": "6-31G**", 
		 "properties": { 
			 "R2extent": 2302.6077, 
			 "electric_dipole_moment_norm": 3.81246755396, 
			 "electric_quadrupole_moment_norm": 10.3856859619, 
			 "total_energy": -499.449342242, 
			 "HOMO_LUMO_gap": 0.15959, 
			 "cosmo_polarized_energy": -7.54, 
			 "cosmo_cavitation_energy": 24.28, 
			 "cosmo_dispersion_energy": -18.0, 
			 "cosmo_repulsion_energy": 1.42, 
			 "cosmo_total_nonelectrostatic_energy": 7.71, 
			 "SMD_solvation_energy": 5.45 
		},
		"coords": [
			{
				"x": -1.5328998231,
				"y": 1.0637144441,
				"z": 0.8336775633,
				"element": "C" 
			},
			{
				"x": -0.540673297,
				"y": 0.1474422419,
				"z": 0.1617866009,
				"element": "C" 
			},
			{
				"x": -0.5610885281,
				"y": -1.2502784326,
				"z": 0.4330831837,
				"element": "C" 
			},
			{
				"x": -1.5668551537,
				"y": -1.8431497981,
				"z": 1.3907134097,
				"element": "C" 
			},
			{
				"x": 0.3698636584,
				"y": -2.0529210822,
				"z": -0.2077208808,
				"element": "C" 
			},
			{
				"x": 1.322095841,
				"y": -1.5327229779,
				"z": -1.1070181812,
				"element": "C" 
			},
			{
				"x": 2.2822997808,
				"y": -2.399683514,
				"z": -1.7611256768,
				"element": "C" 
			},
			{
				"x": 3.1425510646,
				"y": -2.0098443764,
				"z": -2.5587572271,
				"element": "O" 
			},
			{
				"x": 1.3322773796,
				"y": -0.1392477838,
				"z": -1.3689269662,
				"element": "C" 
			},
			{
				"x": 2.2123878215,
				"y": 0.4158803488,
				"z": -2.2137313855,
				"element": "O" 
			},
			{
				"x": 0.3936098137,
				"y": 0.6781181248,
				"z": -0.7242046823,
				"element": "C" 
			},
			{
				"x": -2.5643657092,
				"y": 0.7779832413,
				"z": 0.5950191378,
				"element": "H" 
			},
			{
				"x": -1.4402979239,
				"y": 1.019712899,
				"z": 1.9254712768,
				"element": "H" 
			},
			{
				"x": -1.3894936045,
				"y": 2.1012811561,
				"z": 0.5240094481,
				"element": "H" 
			},
			{
				"x": -1.4729638829,
				"y": -1.418679392,
				"z": 2.3977823067,
				"element": "H" 
			},
			{
				"x": -1.4346191577,
				"y": -2.9250256825,
				"z": 1.474988557,
				"element": "H" 
			},
			{
				"x": -2.5985309146,
				"y": -1.6599673933,
				"z": 1.0662657199,
				"element": "H" 
			},
			{
				"x": 0.3753032503,
				"y": -3.124830331,
				"z": -0.0174817187,
				"element": "H" 
			},
			{
				"x": 2.2183107187,
				"y": -3.4771916047,
				"z": -1.5106215059,
				"element": "H" 
			},
			{
				"x": 2.7783643923,
				"y": -0.3191497392,
				"z": -2.5585982913,
				"element": "H" 
			},
			{
				"x": 0.4140242736,
				"y": 1.7427596516,
				"z": -0.9350106883,
				"element": "H" 
			}
		],
		 "valence_orbital": [ 
			{
				"type": "occ",
				"energy": -0.34565,
				"method": "rhf"
			},
			{
				"type": "occ",
				"energy": -0.32633,
				"method": "rhf"
			},
			{
				"type": "occ",
				"energy": -0.26521,
				"method": "rhf"
			},
			{
				"type": "occ",
				"energy": -0.2586,
				"method": "rhf"
			},
			{
				"type": "occ",
				"energy": -0.22321,
				"method": "rhf"
			},
			{
				"type": "unocc",
				"energy": -0.06362,
				"method": "rhf"
			},
			{
				"type": "unocc",
				"energy": 0.00321,
				"method": "rhf"
			},
			{
				"type": "unocc",
				"energy": 0.03667,
				"method": "rhf"
			},
			{
				"type": "unocc",
				"energy": 0.08531,
				"method": "rhf"
			},
			{
				"type": "unocc",
				"energy": 0.10465,
				"method": "rhf"
			}
		],
		"cosmo_sigma_profile": { 
			"-0.025": 0.0,
			"-0.024": 0.0,
			"-0.023": 0.0,
			"-0.022": 0.0,
			"-0.021": 0.0,
			"-0.02": 0.0,
			"-0.019": 0.0,
			"-0.018": 0.0,
			"-0.017": 0.0,
			"-0.016": 0.0,
			"-0.015": 0.0,
			"-0.014": 0.0,
			"-0.013": 0.0,
			"-0.012": 0.0,
			"-0.011": 0.0,
			"-0.01": 0.0,
			"-0.009": 0.0,
			"-0.008": 1.06105526623,
			"-0.007": 5.08087479281,
			"-0.006": 6.9762141613,
			"-0.005": 11.7221420943,
			"-0.004": 18.9074811018,
			"-0.003": 16.937218868,
			"-0.002": 19.3158257252,
			"-0.001": 20.1556805108,
			"0.0": 21.5828176905,
			"0.001": 11.688917883,
			"0.002": 10.3148692636,
			"0.003": 14.3417735664,
			"0.004": 9.92632919202,
			"0.005": 3.17274614728,
			"0.006": 2.7546497363,
			"0.007": 2.78453453675,
			"0.008": 2.65033907343,
			"0.009": 3.14290366273,
			"0.01": 3.71516241437,
			"0.011": 3.4260757278,
			"0.012": 2.1700211684,
			"0.013": 0.676833418087,
			"0.014": 0.0,
			"0.015": 0.0,
			"0.016": 0.0,
			"0.017": 0.0,
			"0.018": 0.0,
			"0.019": 0.0,
			"0.02": 0.0,
			"0.021": 0.0,
			"0.022": 0.0,
			"0.023": 0.0,
			"0.024": 0.0,
			"0.025": 0.0
		}
	}
}
