{
	 "smiles": "CCOC(=O)C1=C(N)N(N=C1SC)C(N)=S", 
	 "Tm": 422.15, 
	 "num_atms": 28, 
	 "gaussian": { 
		 "optdone": 1, 
		 "sigma_profile": "yes", 
		 "theory": "DFT", 
		 "functional": "B3LYP", 
		 "basiset": "6-31G**", 
		 "properties": { 
			 "R2extent": 5357.9418, 
			 "electric_dipole_moment_norm": 0.596591133022, 
			 "electric_quadrupole_moment_norm": 27.2216339372, 
			 "total_energy": -1477.93908294, 
			 "HOMO_LUMO_gap": 0.16962, 
			 "cosmo_polarized_energy": -16.98, 
			 "cosmo_cavitation_energy": 35.07, 
			 "cosmo_dispersion_energy": -26.45, 
			 "cosmo_repulsion_energy": 2.0, 
			 "cosmo_total_nonelectrostatic_energy": 10.62, 
			 "SMD_solvation_energy": 5.82 
		},
		"coords": [
			{
				"x": -4.1732247653,
				"y": 0.8925540277,
				"z": -2.3384864427,
				"element": "C" 
			},
			{
				"x": -3.7572012341,
				"y": 1.005494949,
				"z": -0.8840034159,
				"element": "C" 
			},
			{
				"x": -2.3612690311,
				"y": 0.6364791473,
				"z": -0.7975440074,
				"element": "O" 
			},
			{
				"x": -1.815865621,
				"y": 0.6833964046,
				"z": 0.4584455869,
				"element": "C" 
			},
			{
				"x": -2.4584654468,
				"y": 1.0131091103,
				"z": 1.4398920015,
				"element": "O" 
			},
			{
				"x": -0.4183886432,
				"y": 0.3017212051,
				"z": 0.4680516004,
				"element": "C" 
			},
			{
				"x": 0.3919188217,
				"y": -0.0893705797,
				"z": -0.6076207199,
				"element": "C" 
			},
			{
				"x": 0.0850573972,
				"y": -0.2081825666,
				"z": -1.903177524,
				"element": "N" 
			},
			{
				"x": 1.6467978936,
				"y": -0.3499822739,
				"z": -0.0719798219,
				"element": "N" 
			},
			{
				"x": 1.6613370598,
				"y": -0.1359500925,
				"z": 1.3175648234,
				"element": "N" 
			},
			{
				"x": 0.4367401111,
				"y": 0.2470818961,
				"z": 1.6157735873,
				"element": "C" 
			},
			{
				"x": -0.056723295,
				"y": 0.6397732658,
				"z": 3.2538920819,
				"element": "S" 
			},
			{
				"x": 1.5198000751,
				"y": 0.3455085409,
				"z": 4.1294595398,
				"element": "C" 
			},
			{
				"x": 2.8260651868,
				"y": -0.7694844915,
				"z": -0.6817948499,
				"element": "C" 
			},
			{
				"x": 3.8351100068,
				"y": -0.911192061,
				"z": 0.1898357627,
				"element": "N" 
			},
			{
				"x": 3.0050018668,
				"y": -1.0757587427,
				"z": -2.3285422329,
				"element": "S" 
			},
			{
				"x": -3.583707542,
				"y": 1.5642650526,
				"z": -2.9700177175,
				"element": "H" 
			},
			{
				"x": -5.2278292042,
				"y": 1.164884172,
				"z": -2.4442089477,
				"element": "H" 
			},
			{
				"x": -4.0479591065,
				"y": -0.1307352471,
				"z": -2.7055828118,
				"element": "H" 
			},
			{
				"x": -3.8768404276,
				"y": 2.0232356684,
				"z": -0.5004777359,
				"element": "H" 
			},
			{
				"x": -4.3380243214,
				"y": 0.3403018659,
				"z": -0.2379526208,
				"element": "H" 
			},
			{
				"x": 0.8038507111,
				"y": -0.5077513707,
				"z": -2.5560012273,
				"element": "H" 
			},
			{
				"x": -0.8637648973,
				"y": 0.0108865549,
				"z": -2.1676061686,
				"element": "H" 
			},
			{
				"x": 2.3024466182,
				"y": 1.0084724768,
				"z": 3.7572232289,
				"element": "H" 
			},
			{
				"x": 1.8358790317,
				"y": -0.693634297,
				"z": 4.0251986233,
				"element": "H" 
			},
			{
				"x": 1.3182593871,
				"y": 0.5660966372,
				"z": 5.179569765,
				"element": "H" 
			},
			{
				"x": 3.6681138415,
				"y": -0.7105645659,
				"z": 1.1680962668,
				"element": "H" 
			},
			{
				"x": 4.7299855269,
				"y": -1.2098546858,
				"z": -0.1612066238,
				"element": "H" 
			}
		],
		 "valence_orbital": [ 
			{
				"type": "occ",
				"energy": -0.27131,
				"method": "rhf"
			},
			{
				"type": "occ",
				"energy": -0.2457,
				"method": "rhf"
			},
			{
				"type": "occ",
				"energy": -0.23438,
				"method": "rhf"
			},
			{
				"type": "occ",
				"energy": -0.22857,
				"method": "rhf"
			},
			{
				"type": "occ",
				"energy": -0.21857,
				"method": "rhf"
			},
			{
				"type": "unocc",
				"energy": -0.04895,
				"method": "rhf"
			},
			{
				"type": "unocc",
				"energy": -0.008,
				"method": "rhf"
			},
			{
				"type": "unocc",
				"energy": 0.03742,
				"method": "rhf"
			},
			{
				"type": "unocc",
				"energy": 0.04224,
				"method": "rhf"
			},
			{
				"type": "unocc",
				"energy": 0.07127,
				"method": "rhf"
			}
		],
		"cosmo_sigma_profile": { 
			"-0.025": 0.0,
			"-0.024": 0.0,
			"-0.023": 0.0,
			"-0.022": 0.0,
			"-0.021": 0.0,
			"-0.02": 0.0,
			"-0.019": 0.0,
			"-0.018": 0.0,
			"-0.017": 0.0,
			"-0.016": 0.465501478635,
			"-0.015": 1.1103731218,
			"-0.014": 0.886290049234,
			"-0.013": 2.02254400555,
			"-0.012": 1.8973115646,
			"-0.011": 2.94173599845,
			"-0.01": 2.3772074731,
			"-0.009": 2.97541947686,
			"-0.008": 3.09946977515,
			"-0.007": 4.93263327159,
			"-0.006": 6.77785437254,
			"-0.005": 12.9996848795,
			"-0.004": 20.3572520941,
			"-0.003": 24.0906082011,
			"-0.002": 28.74748341,
			"-0.001": 27.1785796223,
			"0.0": 25.3242974102,
			"0.001": 20.563531803,
			"0.002": 17.4726209391,
			"0.003": 12.7016184833,
			"0.004": 8.99519882298,
			"0.005": 8.80574535895,
			"0.006": 7.89368443151,
			"0.007": 8.74909551799,
			"0.008": 7.65943381924,
			"0.009": 8.03604230256,
			"0.01": 4.8003850711,
			"0.011": 2.86012275984,
			"0.012": 4.64397946352,
			"0.013": 1.58254225712,
			"0.014": 0.0,
			"0.015": 0.0,
			"0.016": 0.0,
			"0.017": 0.0,
			"0.018": 0.0,
			"0.019": 0.0,
			"0.02": 0.0,
			"0.021": 0.0,
			"0.022": 0.0,
			"0.023": 0.0,
			"0.024": 0.0,
			"0.025": 0.0
		}
	}
}
