{
	 "smiles": "ClC(=O)C1=C2OCCOC2=C(Br)S1", 
	 "Tm": 427.15, 
	 "num_atms": 17, 
	 "gaussian": { 
		 "optdone": 1, 
		 "sigma_profile": "yes", 
		 "theory": "DFT", 
		 "functional": "B3LYP", 
		 "basiset": "6-31G**", 
		 "properties": { 
			 "R2extent": 4580.4341, 
			 "electric_dipole_moment_norm": 5.64069304519, 
			 "electric_quadrupole_moment_norm": 17.8558795045, 
			 "total_energy": -3924.56497112, 
			 "HOMO_LUMO_gap": 0.16332, 
			 "cosmo_polarized_energy": -11.27, 
			 "cosmo_cavitation_energy": 27.34, 
			 "cosmo_dispersion_energy": -21.5, 
			 "cosmo_repulsion_energy": 1.68, 
			 "cosmo_total_nonelectrostatic_energy": 7.53, 
			 "SMD_solvation_energy": 4.39 
		},
		"coords": [
			{
				"x": 0.7444262067,
				"y": -4.2352532479,
				"z": 0.9761256376,
				"element": "Cl" 
			},
			{
				"x": 1.3915178097,
				"y": -2.8294537312,
				"z": -0.034960386,
				"element": "C" 
			},
			{
				"x": 2.4814803107,
				"y": -2.9041014076,
				"z": -0.5193948641,
				"element": "O" 
			},
			{
				"x": 0.4537832086,
				"y": -1.7351034307,
				"z": -0.1336354811,
				"element": "C" 
			},
			{
				"x": 0.6669707011,
				"y": -0.5663506608,
				"z": -0.8540014091,
				"element": "C" 
			},
			{
				"x": 1.7856784737,
				"y": -0.2914769749,
				"z": -1.5525755592,
				"element": "O" 
			},
			{
				"x": 1.6497847266,
				"y": 0.8338197243,
				"z": -2.442151216,
				"element": "C" 
			},
			{
				"x": 0.8997583209,
				"y": 1.9720569142,
				"z": -1.7693782288,
				"element": "C" 
			},
			{
				"x": -0.4259774946,
				"y": 1.5558292394,
				"z": -1.4052796275,
				"element": "O" 
			},
			{
				"x": -0.4288313148,
				"y": 0.3478783738,
				"z": -0.7816635075,
				"element": "C" 
			},
			{
				"x": -1.4579448735,
				"y": -0.1436957632,
				"z": -0.019309645,
				"element": "C" 
			},
			{
				"x": -3.0722460496,
				"y": 0.7396933161,
				"z": 0.3317293697,
				"element": "Br" 
			},
			{
				"x": -1.1287663282,
				"y": -1.7183726147,
				"z": 0.6311119025,
				"element": "S" 
			},
			{
				"x": 2.6671083384,
				"y": 1.1308744528,
				"z": -2.7036153789,
				"element": "H" 
			},
			{
				"x": 1.1225546403,
				"y": 0.5113257952,
				"z": -3.3479827552,
				"element": "H" 
			},
			{
				"x": 0.7775660425,
				"y": 2.8146662466,
				"z": -2.4527807233,
				"element": "H" 
			},
			{
				"x": 1.4386372814,
				"y": 2.3081637686,
				"z": -0.8742381282,
				"element": "H" 
			}
		],
		 "valence_orbital": [ 
			{
				"type": "occ",
				"energy": -0.3121,
				"method": "rhf"
			},
			{
				"type": "occ",
				"energy": -0.31152,
				"method": "rhf"
			},
			{
				"type": "occ",
				"energy": -0.28652,
				"method": "rhf"
			},
			{
				"type": "occ",
				"energy": -0.24725,
				"method": "rhf"
			},
			{
				"type": "occ",
				"energy": -0.24239,
				"method": "rhf"
			},
			{
				"type": "unocc",
				"energy": -0.07907,
				"method": "rhf"
			},
			{
				"type": "unocc",
				"energy": -0.01956,
				"method": "rhf"
			},
			{
				"type": "unocc",
				"energy": -0.00496,
				"method": "rhf"
			},
			{
				"type": "unocc",
				"energy": 0.01356,
				"method": "rhf"
			},
			{
				"type": "unocc",
				"energy": 0.02842,
				"method": "rhf"
			}
		],
		"cosmo_sigma_profile": { 
			"-0.025": 0.0,
			"-0.024": 0.0,
			"-0.023": 0.0,
			"-0.022": 0.0,
			"-0.021": 0.0,
			"-0.02": 0.0,
			"-0.019": 0.0,
			"-0.018": 0.0,
			"-0.017": 0.0,
			"-0.016": 0.0,
			"-0.015": 0.0,
			"-0.014": 0.0,
			"-0.013": 0.0,
			"-0.012": 0.0,
			"-0.011": 0.0,
			"-0.01": 0.0,
			"-0.009": 1.65870932724,
			"-0.008": 10.3218131781,
			"-0.007": 15.3302879547,
			"-0.006": 10.5420086214,
			"-0.005": 8.40628546259,
			"-0.004": 7.03538983461,
			"-0.003": 12.9257154499,
			"-0.002": 13.6185067396,
			"-0.001": 21.4976466244,
			"0.0": 18.5046048034,
			"0.001": 19.910359134,
			"0.002": 23.4991549063,
			"0.003": 16.5357509793,
			"0.004": 11.4972072859,
			"0.005": 9.72072528155,
			"0.006": 4.99530821629,
			"0.007": 4.96174136669,
			"0.008": 5.58512766825,
			"0.009": 6.48904772228,
			"0.01": 2.72331759498,
			"0.011": 1.47557229105,
			"0.012": 0.21625071648,
			"0.013": 0.0,
			"0.014": 0.0,
			"0.015": 0.0,
			"0.016": 0.0,
			"0.017": 0.0,
			"0.018": 0.0,
			"0.019": 0.0,
			"0.02": 0.0,
			"0.021": 0.0,
			"0.022": 0.0,
			"0.023": 0.0,
			"0.024": 0.0,
			"0.025": 0.0
		}
	}
}
