{
	 "smiles": "CC1=CC2=C(N1)C=CC(Cl)=C2", 
	 "Tm": 388.15, 
	 "num_atms": 19, 
	 "gaussian": { 
		 "optdone": 1, 
		 "sigma_profile": "yes", 
		 "theory": "DFT", 
		 "functional": "B3LYP", 
		 "basiset": "6-31G**", 
		 "properties": { 
			 "R2extent": 2937.3289, 
			 "electric_dipole_moment_norm": 4.83857606636, 
			 "electric_quadrupole_moment_norm": 10.2614986795, 
			 "total_energy": -862.737396704, 
			 "HOMO_LUMO_gap": 0.1923, 
			 "cosmo_polarized_energy": -9.41, 
			 "cosmo_cavitation_energy": 24.54, 
			 "cosmo_dispersion_energy": -18.55, 
			 "cosmo_repulsion_energy": 1.49, 
			 "cosmo_total_nonelectrostatic_energy": 7.48, 
			 "SMD_solvation_energy": 3.64 
		},
		"coords": [
			{
				"x": -1.2215528617,
				"y": 2.7292238349,
				"z": -1.2083882138,
				"element": "C" 
			},
			{
				"x": -0.9022117667,
				"y": 1.4892733322,
				"z": -0.4382757802,
				"element": "C" 
			},
			{
				"x": -0.4770236482,
				"y": 0.2577822111,
				"z": -0.8732007739,
				"element": "C" 
			},
			{
				"x": -0.3178626565,
				"y": -0.5816219611,
				"z": 0.2807089898,
				"element": "C" 
			},
			{
				"x": -0.6669096366,
				"y": 0.2063212728,
				"z": 1.4135272168,
				"element": "C" 
			},
			{
				"x": -1.0166605131,
				"y": 1.4569704015,
				"z": 0.944335975,
				"element": "N" 
			},
			{
				"x": -0.6252374095,
				"y": -0.3007453656,
				"z": 2.7143975979,
				"element": "C" 
			},
			{
				"x": -0.2266687373,
				"y": -1.6220552439,
				"z": 2.8866769468,
				"element": "C" 
			},
			{
				"x": 0.1193593612,
				"y": -2.4049839031,
				"z": 1.7696737157,
				"element": "C" 
			},
			{
				"x": 0.618900191,
				"y": -4.0770182429,
				"z": 2.0413176986,
				"element": "Cl" 
			},
			{
				"x": 0.082638601,
				"y": -1.9146868384,
				"z": 0.4724886715,
				"element": "C" 
			},
			{
				"x": -0.5813962617,
				"y": 3.5690903467,
				"z": -0.9106531255,
				"element": "H" 
			},
			{
				"x": -1.0714275402,
				"y": 2.5567865715,
				"z": -2.2761021695,
				"element": "H" 
			},
			{
				"x": -2.2629733882,
				"y": 3.0420080067,
				"z": -1.061981665,
				"element": "H" 
			},
			{
				"x": -0.2987951216,
				"y": -0.014648265,
				"z": -1.9039829585,
				"element": "H" 
			},
			{
				"x": -1.3112125536,
				"y": 2.2321339426,
				"z": 1.5160982757,
				"element": "H" 
			},
			{
				"x": -0.8938092893,
				"y": 0.3095784556,
				"z": 3.5719168027,
				"element": "H" 
			},
			{
				"x": -0.1797035782,
				"y": -2.0570298756,
				"z": 3.8783247133,
				"element": "H" 
			},
			{
				"x": 0.3564468089,
				"y": -2.5476786799,
				"z": -0.3644819172,
				"element": "H" 
			}
		],
		 "valence_orbital": [ 
			{
				"type": "occ",
				"energy": -0.30031,
				"method": "rhf"
			},
			{
				"type": "occ",
				"energy": -0.29801,
				"method": "rhf"
			},
			{
				"type": "occ",
				"energy": -0.27993,
				"method": "rhf"
			},
			{
				"type": "occ",
				"energy": -0.21448,
				"method": "rhf"
			},
			{
				"type": "occ",
				"energy": -0.20631,
				"method": "rhf"
			},
			{
				"type": "unocc",
				"energy": -0.01401,
				"method": "rhf"
			},
			{
				"type": "unocc",
				"energy": 0.02127,
				"method": "rhf"
			},
			{
				"type": "unocc",
				"energy": 0.04288,
				"method": "rhf"
			},
			{
				"type": "unocc",
				"energy": 0.06567,
				"method": "rhf"
			},
			{
				"type": "unocc",
				"energy": 0.07329,
				"method": "rhf"
			}
		],
		"cosmo_sigma_profile": { 
			"-0.025": 0.0,
			"-0.024": 0.0,
			"-0.023": 0.0,
			"-0.022": 0.0,
			"-0.021": 0.0,
			"-0.02": 0.0,
			"-0.019": 0.0,
			"-0.018": 0.0,
			"-0.017": 0.0,
			"-0.016": 0.128911589676,
			"-0.015": 1.41020834976,
			"-0.014": 1.38191270659,
			"-0.013": 1.02039879031,
			"-0.012": 1.30108207237,
			"-0.011": 1.23108769693,
			"-0.01": 1.63524358669,
			"-0.009": 1.4167533154,
			"-0.008": 1.03938395413,
			"-0.007": 2.65426165507,
			"-0.006": 7.38772141182,
			"-0.005": 13.1549685961,
			"-0.004": 14.7702329371,
			"-0.003": 13.1332121826,
			"-0.002": 11.3208898458,
			"-0.001": 15.0324834109,
			"0.0": 12.2779076507,
			"0.001": 9.56438267243,
			"0.002": 11.2268015517,
			"0.003": 15.2837045964,
			"0.004": 20.0827280359,
			"0.005": 26.5057947712,
			"0.006": 13.4921116867,
			"0.007": 1.88434200474,
			"0.008": 0.0,
			"0.009": 0.0,
			"0.01": 0.0,
			"0.011": 0.0,
			"0.012": 0.0,
			"0.013": 0.0,
			"0.014": 0.0,
			"0.015": 0.0,
			"0.016": 0.0,
			"0.017": 0.0,
			"0.018": 0.0,
			"0.019": 0.0,
			"0.02": 0.0,
			"0.021": 0.0,
			"0.022": 0.0,
			"0.023": 0.0,
			"0.024": 0.0,
			"0.025": 0.0
		}
	}
}
