{
	 "smiles": "CS(=O)(=O)CC(O)=O", 
	 "Tm": 390.15, 
	 "num_atms": 14, 
	 "gaussian": { 
		 "optdone": 1, 
		 "sigma_profile": "yes", 
		 "theory": "DFT", 
		 "functional": "B3LYP", 
		 "basiset": "6-31G**", 
		 "properties": { 
			 "R2extent": 1333.4286, 
			 "electric_dipole_moment_norm": 2.62815046944, 
			 "electric_quadrupole_moment_norm": 17.4485328913, 
			 "total_energy": -816.96363233, 
			 "HOMO_LUMO_gap": 0.26531, 
			 "cosmo_polarized_energy": -18.63, 
			 "cosmo_cavitation_energy": 19.33, 
			 "cosmo_dispersion_energy": -14.9, 
			 "cosmo_repulsion_energy": 1.19, 
			 "cosmo_total_nonelectrostatic_energy": 5.62, 
			 "SMD_solvation_energy": 4.44 
		},
		"coords": [
			{
				"x": 1.3895162639,
				"y": 0.4267105594,
				"z": 0.5928111259,
				"element": "C" 
			},
			{
				"x": -0.2782675109,
				"y": 1.042593999,
				"z": 0.8892623857,
				"element": "S" 
			},
			{
				"x": -1.1415003857,
				"y": -0.1235595544,
				"z": 1.2069900095,
				"element": "O" 
			},
			{
				"x": -0.2104598347,
				"y": 2.1785504385,
				"z": 1.8122819314,
				"element": "O" 
			},
			{
				"x": -0.8441227581,
				"y": 1.642926041,
				"z": -0.7329377742,
				"element": "C" 
			},
			{
				"x": -1.0525981021,
				"y": 0.5778364251,
				"z": -1.8241956379,
				"element": "C" 
			},
			{
				"x": -1.5799944097,
				"y": -0.5880173002,
				"z": -1.4356784051,
				"element": "O" 
			},
			{
				"x": -0.7813404003,
				"y": 0.8216724929,
				"z": -2.9734868787,
				"element": "O" 
			},
			{
				"x": 1.7294701061,
				"y": 0.0093575954,
				"z": 1.542521344,
				"element": "H" 
			},
			{
				"x": 2.0294406928,
				"y": 1.2575011616,
				"z": 0.2922155654,
				"element": "H" 
			},
			{
				"x": 1.3568550241,
				"y": -0.3510349209,
				"z": -0.1722069631,
				"element": "H" 
			},
			{
				"x": -1.8006518716,
				"y": 2.1246419395,
				"z": -0.5002234817,
				"element": "H" 
			},
			{
				"x": -0.1498075094,
				"y": 2.4019928052,
				"z": -1.0943412627,
				"element": "H" 
			},
			{
				"x": -1.6763393045,
				"y": -0.6183716821,
				"z": -0.4563119585,
				"element": "H" 
			}
		],
		 "valence_orbital": [ 
			{
				"type": "occ",
				"energy": -0.34856,
				"method": "rhf"
			},
			{
				"type": "occ",
				"energy": -0.33344,
				"method": "rhf"
			},
			{
				"type": "occ",
				"energy": -0.32922,
				"method": "rhf"
			},
			{
				"type": "occ",
				"energy": -0.32344,
				"method": "rhf"
			},
			{
				"type": "occ",
				"energy": -0.28614,
				"method": "rhf"
			},
			{
				"type": "unocc",
				"energy": -0.02083,
				"method": "rhf"
			},
			{
				"type": "unocc",
				"energy": 0.03107,
				"method": "rhf"
			},
			{
				"type": "unocc",
				"energy": 0.04878,
				"method": "rhf"
			},
			{
				"type": "unocc",
				"energy": 0.05575,
				"method": "rhf"
			},
			{
				"type": "unocc",
				"energy": 0.06717,
				"method": "rhf"
			}
		],
		"cosmo_sigma_profile": { 
			"-0.025": 0.0,
			"-0.024": 0.0,
			"-0.023": 0.0,
			"-0.022": 0.0,
			"-0.021": 0.0,
			"-0.02": 0.0,
			"-0.019": 0.0,
			"-0.018": 0.0,
			"-0.017": 0.0,
			"-0.016": 0.0,
			"-0.015": 0.0,
			"-0.014": 0.0928904438776,
			"-0.013": 0.837276115879,
			"-0.012": 3.59388039652,
			"-0.011": 4.69345706126,
			"-0.01": 7.75934477991,
			"-0.009": 10.8428824869,
			"-0.008": 9.36357500587,
			"-0.007": 9.24111174729,
			"-0.006": 7.82818324792,
			"-0.005": 7.88489037511,
			"-0.004": 6.64417836799,
			"-0.003": 4.26258370753,
			"-0.002": 3.31833007746,
			"-0.001": 3.31315804062,
			"0.0": 3.31909379888,
			"0.001": 3.10706098606,
			"0.002": 2.83201600468,
			"0.003": 3.67916897125,
			"0.004": 3.06835387752,
			"0.005": 4.57333410116,
			"0.006": 4.09367770101,
			"0.007": 5.50539185255,
			"0.008": 5.97434159781,
			"0.009": 8.04067517722,
			"0.01": 13.4510076356,
			"0.011": 12.9212983013,
			"0.012": 2.96851195571,
			"0.013": 0.146649745134,
			"0.014": 0.0,
			"0.015": 0.0,
			"0.016": 0.0,
			"0.017": 0.0,
			"0.018": 0.0,
			"0.019": 0.0,
			"0.02": 0.0,
			"0.021": 0.0,
			"0.022": 0.0,
			"0.023": 0.0,
			"0.024": 0.0,
			"0.025": 0.0
		}
	}
}
