{
	 "smiles": "CC1(C)CC(O)CC(C)(C)N1", 
	 "Tm": 404.15, 
	 "num_atms": 30, 
	 "gaussian": { 
		 "optdone": 1, 
		 "sigma_profile": "yes", 
		 "theory": "DFT", 
		 "functional": "B3LYP", 
		 "basiset": "6-31G**", 
		 "properties": { 
			 "R2extent": 2170.7369, 
			 "electric_dipole_moment_norm": 1.67902422258, 
			 "electric_quadrupole_moment_norm": 10.7980971509, 
			 "total_energy": -484.392375873, 
			 "HOMO_LUMO_gap": 0.28228, 
			 "cosmo_polarized_energy": -8.87, 
			 "cosmo_cavitation_energy": 28.35, 
			 "cosmo_dispersion_energy": -20.29, 
			 "cosmo_repulsion_energy": 1.59, 
			 "cosmo_total_nonelectrostatic_energy": 9.65, 
			 "SMD_solvation_energy": 3.4 
		},
		"coords": [
			{
				"x": 1.3341026447,
				"y": -1.4101799275,
				"z": -1.5786760722,
				"element": "C" 
			},
			{
				"x": 1.3824353171,
				"y": -0.8904856666,
				"z": -0.1259416752,
				"element": "C" 
			},
			{
				"x": 2.8003347864,
				"y": -0.3498374867,
				"z": 0.1280600616,
				"element": "C" 
			},
			{
				"x": 1.0823910428,
				"y": -2.0381381408,
				"z": 0.8755886523,
				"element": "C" 
			},
			{
				"x": -0.40408627,
				"y": -2.3964119769,
				"z": 0.9526570157,
				"element": "C" 
			},
			{
				"x": -0.6461340059,
				"y": -3.45084996,
				"z": 1.8838086054,
				"element": "O" 
			},
			{
				"x": -1.2244876253,
				"y": -1.1472281821,
				"z": 1.2848862274,
				"element": "C" 
			},
			{
				"x": -0.9826211742,
				"y": 0.0232030229,
				"z": 0.2939822868,
				"element": "C" 
			},
			{
				"x": -1.5361995629,
				"y": 1.3254608775,
				"z": 0.8981051414,
				"element": "C" 
			},
			{
				"x": -1.7261321826,
				"y": -0.2275887442,
				"z": -1.0353884337,
				"element": "C" 
			},
			{
				"x": 0.4622706382,
				"y": 0.2601181241,
				"z": 0.0521459565,
				"element": "N" 
			},
			{
				"x": 0.4019208168,
				"y": -1.9253039907,
				"z": -1.8183200816,
				"element": "H" 
			},
			{
				"x": 2.1499504757,
				"y": -2.1203488432,
				"z": -1.7511949131,
				"element": "H" 
			},
			{
				"x": 1.4454412223,
				"y": -0.5744866027,
				"z": -2.2749913171,
				"element": "H" 
			},
			{
				"x": 2.8980963654,
				"y": 0.0380961722,
				"z": 1.1495235785,
				"element": "H" 
			},
			{
				"x": 3.0307734797,
				"y": 0.4617199011,
				"z": -0.569240282,
				"element": "H" 
			},
			{
				"x": 3.5468461817,
				"y": -1.1396851477,
				"z": 0.0003018644,
				"element": "H" 
			},
			{
				"x": 1.6643333598,
				"y": -2.933008396,
				"z": 0.6255404211,
				"element": "H" 
			},
			{
				"x": 1.4027858191,
				"y": -1.7195845395,
				"z": 1.8802845354,
				"element": "H" 
			},
			{
				"x": -0.7345712805,
				"y": -2.8116809457,
				"z": -0.0059300511,
				"element": "H" 
			},
			{
				"x": -0.369142264,
				"y": -3.1342306882,
				"z": 2.7548325878,
				"element": "H" 
			},
			{
				"x": -0.9368095361,
				"y": -0.8163850071,
				"z": 2.295487467,
				"element": "H" 
			},
			{
				"x": -2.2890111821,
				"y": -1.4061619225,
				"z": 1.3264857056,
				"element": "H" 
			},
			{
				"x": -2.6093434745,
				"y": 1.2384410204,
				"z": 1.0937103652,
				"element": "H" 
			},
			{
				"x": -1.3750899129,
				"y": 2.1636159677,
				"z": 0.2129007722,
				"element": "H" 
			},
			{
				"x": -1.0428194537,
				"y": 1.560865458,
				"z": 1.8492091634,
				"element": "H" 
			},
			{
				"x": -1.4646019653,
				"y": 0.5497889065,
				"z": -1.7585097996,
				"element": "H" 
			},
			{
				"x": -1.490029262,
				"y": -1.1952669965,
				"z": -1.4821898925,
				"element": "H" 
			},
			{
				"x": -2.8087657045,
				"y": -0.2025975056,
				"z": -0.8711153105,
				"element": "H" 
			},
			{
				"x": 0.8118627069,
				"y": 0.8040512198,
				"z": 0.8373874211,
				"element": "H" 
			}
		],
		 "valence_orbital": [ 
			{
				"type": "occ",
				"energy": -0.32669,
				"method": "rhf"
			},
			{
				"type": "occ",
				"energy": -0.31878,
				"method": "rhf"
			},
			{
				"type": "occ",
				"energy": -0.29982,
				"method": "rhf"
			},
			{
				"type": "occ",
				"energy": -0.25501,
				"method": "rhf"
			},
			{
				"type": "occ",
				"energy": -0.21616,
				"method": "rhf"
			},
			{
				"type": "unocc",
				"energy": 0.06612,
				"method": "rhf"
			},
			{
				"type": "unocc",
				"energy": 0.08125,
				"method": "rhf"
			},
			{
				"type": "unocc",
				"energy": 0.09959,
				"method": "rhf"
			},
			{
				"type": "unocc",
				"energy": 0.10532,
				"method": "rhf"
			},
			{
				"type": "unocc",
				"energy": 0.11867,
				"method": "rhf"
			}
		],
		"cosmo_sigma_profile": { 
			"-0.025": 0.0,
			"-0.024": 0.0,
			"-0.023": 0.0,
			"-0.022": 0.0,
			"-0.021": 0.0,
			"-0.02": 0.0,
			"-0.019": 0.0,
			"-0.018": 0.0,
			"-0.017": 0.0,
			"-0.016": 0.0,
			"-0.015": 0.10208175648,
			"-0.014": 0.668382860921,
			"-0.013": 0.95575003929,
			"-0.012": 0.893065318568,
			"-0.011": 0.778254759299,
			"-0.01": 1.11557081897,
			"-0.009": 1.1378566093,
			"-0.008": 2.0269877333,
			"-0.007": 2.19092854118,
			"-0.006": 3.43185167857,
			"-0.005": 6.30369503169,
			"-0.004": 7.92715930169,
			"-0.003": 20.8553352035,
			"-0.002": 33.4894564653,
			"-0.001": 26.9247002425,
			"0.0": 28.012793202,
			"0.001": 32.466098924,
			"0.002": 16.634295789,
			"0.003": 3.48928303436,
			"0.004": 2.59440009213,
			"0.005": 2.59263629023,
			"0.006": 2.16960260262,
			"0.007": 1.88783149553,
			"0.008": 2.26573813657,
			"0.009": 2.27093290323,
			"0.01": 1.69612271125,
			"0.011": 1.75827039401,
			"0.012": 1.87533352217,
			"0.013": 2.16905504702,
			"0.014": 2.1022217331,
			"0.015": 2.63624138024,
			"0.016": 0.394650791908,
			"0.017": 0.267754767559,
			"0.018": 0.135737901428,
			"0.019": 0.0,
			"0.02": 0.0,
			"0.021": 0.0,
			"0.022": 0.0,
			"0.023": 0.0,
			"0.024": 0.0,
			"0.025": 0.0
		}
	}
}
