{
	 "smiles": "[O-][N+](=O)C1=NNC2=C1C=C(C=C2[N+]([O-])=O)[N+]([O-])=O", 
	 "Tm": 508.15, 
	 "num_atms": 21, 
	 "gaussian": { 
		 "optdone": 1, 
		 "sigma_profile": "yes", 
		 "theory": "DFT", 
		 "functional": "B3LYP", 
		 "basiset": "6-31G**", 
		 "properties": { 
			 "R2extent": 4721.6417, 
			 "electric_dipole_moment_norm": 2.52089830418, 
			 "electric_quadrupole_moment_norm": 20.4840256964, 
			 "total_energy": -993.321645683, 
			 "HOMO_LUMO_gap": 0.15863, 
			 "cosmo_polarized_energy": -18.36, 
			 "cosmo_cavitation_energy": 29.05, 
			 "cosmo_dispersion_energy": -21.37, 
			 "cosmo_repulsion_energy": 1.62, 
			 "cosmo_total_nonelectrostatic_energy": 9.3, 
			 "SMD_solvation_energy": 10.59 
		},
		"coords": [
			{
				"x": -0.9707387624,
				"y": 3.050754324,
				"z": 0.3220686824,
				"element": "O" 
			},
			{
				"x": -0.6428726597,
				"y": 2.4753512286,
				"z": 1.364196981,
				"element": "N" 
			},
			{
				"x": -0.6030924015,
				"y": 2.9689491071,
				"z": 2.4814266018,
				"element": "O" 
			},
			{
				"x": -0.2756224269,
				"y": 1.0798746784,
				"z": 1.2108625488,
				"element": "C" 
			},
			{
				"x": 0.0911679584,
				"y": 0.3679799153,
				"z": 2.2550787318,
				"element": "N" 
			},
			{
				"x": 0.3588661451,
				"y": -0.8587328611,
				"z": 1.7751888891,
				"element": "N" 
			},
			{
				"x": 0.1711572127,
				"y": -0.9555046948,
				"z": 0.4311647929,
				"element": "C" 
			},
			{
				"x": -0.2580663156,
				"y": 0.3251266166,
				"z": -0.0047673124,
				"element": "C" 
			},
			{
				"x": -0.5406232154,
				"y": 0.5624230594,
				"z": -1.3556729451,
				"element": "C" 
			},
			{
				"x": -0.3805211841,
				"y": -0.5048944458,
				"z": -2.2279973685,
				"element": "C" 
			},
			{
				"x": 0.0427014004,
				"y": -1.7824779932,
				"z": -1.8239062231,
				"element": "C" 
			},
			{
				"x": 0.3201864025,
				"y": -2.010849904,
				"z": -0.4897178422,
				"element": "C" 
			},
			{
				"x": 0.7610497669,
				"y": -3.3245972319,
				"z": -0.0400079249,
				"element": "N" 
			},
			{
				"x": 0.9878304104,
				"y": -3.4419393673,
				"z": 1.1722115017,
				"element": "O" 
			},
			{
				"x": 0.8791970057,
				"y": -4.2171129046,
				"z": -0.8688393863,
				"element": "O" 
			},
			{
				"x": -0.6683892572,
				"y": -0.2953499674,
				"z": -3.6610035709,
				"element": "N" 
			},
			{
				"x": -1.0370142813,
				"y": 0.8244869659,
				"z": -4.0025506469,
				"element": "O" 
			},
			{
				"x": -0.5186064251,
				"y": -1.2570148288,
				"z": -4.4108308842,
				"element": "O" 
			},
			{
				"x": 0.6659042486,
				"y": -1.6059185076,
				"z": 2.3836053555,
				"element": "H" 
			},
			{
				"x": -0.8688644205,
				"y": 1.5303536595,
				"z": -1.7096799932,
				"element": "H" 
			},
			{
				"x": 0.149850799,
				"y": -2.5779068484,
				"z": -2.5499299874,
				"element": "H" 
			}
		],
		 "valence_orbital": [ 
			{
				"type": "occ",
				"energy": -0.33091,
				"method": "rhf"
			},
			{
				"type": "occ",
				"energy": -0.31982,
				"method": "rhf"
			},
			{
				"type": "occ",
				"energy": -0.31896,
				"method": "rhf"
			},
			{
				"type": "occ",
				"energy": -0.31847,
				"method": "rhf"
			},
			{
				"type": "occ",
				"energy": -0.30141,
				"method": "rhf"
			},
			{
				"type": "unocc",
				"energy": -0.14278,
				"method": "rhf"
			},
			{
				"type": "unocc",
				"energy": -0.1197,
				"method": "rhf"
			},
			{
				"type": "unocc",
				"energy": -0.1031,
				"method": "rhf"
			},
			{
				"type": "unocc",
				"energy": -0.065,
				"method": "rhf"
			},
			{
				"type": "unocc",
				"energy": -0.02092,
				"method": "rhf"
			}
		],
		"cosmo_sigma_profile": { 
			"-0.025": 0.0,
			"-0.024": 0.0,
			"-0.023": 0.0,
			"-0.022": 0.0,
			"-0.021": 0.0,
			"-0.02": 0.0,
			"-0.019": 0.00774013825068,
			"-0.018": 0.647159228885,
			"-0.017": 0.676954624075,
			"-0.016": 0.243562986893,
			"-0.015": 1.07131939468,
			"-0.014": 1.31863052981,
			"-0.013": 0.235176512027,
			"-0.012": 0.460557496678,
			"-0.011": 0.670501080739,
			"-0.01": 1.7143324923,
			"-0.009": 3.95715701216,
			"-0.008": 7.40888334211,
			"-0.007": 11.0515616227,
			"-0.006": 18.0102757554,
			"-0.005": 22.7206275173,
			"-0.004": 20.6326053411,
			"-0.003": 13.8448521247,
			"-0.002": 8.15824715568,
			"-0.001": 6.41164953548,
			"0.0": 6.18522259766,
			"0.001": 7.04685925927,
			"0.002": 7.22032878957,
			"0.003": 9.65248757487,
			"0.004": 7.277947175,
			"0.005": 11.9414273945,
			"0.006": 19.9844897105,
			"0.007": 21.2629411586,
			"0.008": 14.1961793594,
			"0.009": 8.31019096496,
			"0.01": 1.70900132578,
			"0.011": 1.51458332684,
			"0.012": 0.176094039955,
			"0.013": 0.0,
			"0.014": 0.0,
			"0.015": 0.0,
			"0.016": 0.0,
			"0.017": 0.0,
			"0.018": 0.0,
			"0.019": 0.0,
			"0.02": 0.0,
			"0.021": 0.0,
			"0.022": 0.0,
			"0.023": 0.0,
			"0.024": 0.0,
			"0.025": 0.0
		}
	}
}
