{
	 "smiles": "CC(C)OC1=CC=C(C=C1)C(C)=O", 
	 "Tm": 316.15, 
	 "num_atms": 27, 
	 "gaussian": { 
		 "optdone": 1, 
		 "sigma_profile": "yes", 
		 "theory": "DFT", 
		 "functional": "B3LYP", 
		 "basiset": "6-31G**", 
		 "properties": { 
			 "R2extent": 3432.2216, 
			 "electric_dipole_moment_norm": 3.55623015425, 
			 "electric_quadrupole_moment_norm": 14.0396156757, 
			 "total_energy": -578.058033217, 
			 "HOMO_LUMO_gap": 0.19284, 
			 "cosmo_polarized_energy": -9.67, 
			 "cosmo_cavitation_energy": 29.91, 
			 "cosmo_dispersion_energy": -21.26, 
			 "cosmo_repulsion_energy": 1.68, 
			 "cosmo_total_nonelectrostatic_energy": 10.33, 
			 "SMD_solvation_energy": 5.92 
		},
		"coords": [
			{
				"x": -2.4305488416,
				"y": 1.177402524,
				"z": 1.9664337393,
				"element": "C" 
			},
			{
				"x": -1.4130214359,
				"y": 2.3164415003,
				"z": 1.9184406717,
				"element": "C" 
			},
			{
				"x": -0.265040069,
				"y": 2.1225912896,
				"z": 2.9081350596,
				"element": "C" 
			},
			{
				"x": -0.9339491311,
				"y": 2.5696015345,
				"z": 0.5695506958,
				"element": "O" 
			},
			{
				"x": -0.2111844111,
				"y": 1.6033323246,
				"z": -0.0863468903,
				"element": "C" 
			},
			{
				"x": -0.8618254938,
				"y": 0.6562595482,
				"z": -0.8920455574,
				"element": "C" 
			},
			{
				"x": -0.1191116385,
				"y": -0.2670048769,
				"z": -1.6169456088,
				"element": "C" 
			},
			{
				"x": 1.2845706226,
				"y": -0.2650968227,
				"z": -1.5636066027,
				"element": "C" 
			},
			{
				"x": 1.9270726553,
				"y": 0.6970173019,
				"z": -0.7690317987,
				"element": "C" 
			},
			{
				"x": 1.1888008163,
				"y": 1.624421076,
				"z": -0.0377554537,
				"element": "C" 
			},
			{
				"x": 2.0258502308,
				"y": -1.2858141525,
				"z": -2.3683515088,
				"element": "C" 
			},
			{
				"x": 3.5460801666,
				"y": -1.2862069041,
				"z": -2.3330739866,
				"element": "C" 
			},
			{
				"x": 1.422937901,
				"y": -2.1075975161,
				"z": -3.0439048766,
				"element": "O" 
			},
			{
				"x": -2.8638952266,
				"y": 1.1092114008,
				"z": 2.96963552,
				"element": "H" 
			},
			{
				"x": -3.2427310573,
				"y": 1.3528408765,
				"z": 1.2552658201,
				"element": "H" 
			},
			{
				"x": -1.9664503657,
				"y": 0.2137499812,
				"z": 1.7350171164,
				"element": "H" 
			},
			{
				"x": -1.9254004821,
				"y": 3.255084056,
				"z": 2.1534987096,
				"element": "H" 
			},
			{
				"x": 0.4349278663,
				"y": 2.9616481149,
				"z": 2.8595585537,
				"element": "H" 
			},
			{
				"x": -0.6590620698,
				"y": 2.0650384274,
				"z": 3.9280159391,
				"element": "H" 
			},
			{
				"x": 0.285111118,
				"y": 1.1979778327,
				"z": 2.7076463678,
				"element": "H" 
			},
			{
				"x": -1.9448715931,
				"y": 0.6700283034,
				"z": -0.9508086965,
				"element": "H" 
			},
			{
				"x": -0.6044595935,
				"y": -1.0064870621,
				"z": -2.2452665743,
				"element": "H" 
			},
			{
				"x": 3.0107380086,
				"y": 0.7318310811,
				"z": -0.718917057,
				"element": "H" 
			},
			{
				"x": 1.6827390951,
				"y": 2.3811030428,
				"z": 0.5622328886,
				"element": "H" 
			},
			{
				"x": 3.908486363,
				"y": -2.0930639311,
				"z": -2.9705556922,
				"element": "H" 
			},
			{
				"x": 3.9483654388,
				"y": -0.3320240723,
				"z": -2.6910115827,
				"element": "H" 
			},
			{
				"x": 3.9170711267,
				"y": -1.4346848782,
				"z": -1.3129091954,
				"element": "H" 
			}
		],
		 "valence_orbital": [ 
			{
				"type": "occ",
				"energy": -0.32361,
				"method": "rhf"
			},
			{
				"type": "occ",
				"energy": -0.2734,
				"method": "rhf"
			},
			{
				"type": "occ",
				"energy": -0.25973,
				"method": "rhf"
			},
			{
				"type": "occ",
				"energy": -0.2439,
				"method": "rhf"
			},
			{
				"type": "occ",
				"energy": -0.24296,
				"method": "rhf"
			},
			{
				"type": "unocc",
				"energy": -0.05012,
				"method": "rhf"
			},
			{
				"type": "unocc",
				"energy": -0.00951,
				"method": "rhf"
			},
			{
				"type": "unocc",
				"energy": 0.04324,
				"method": "rhf"
			},
			{
				"type": "unocc",
				"energy": 0.08153,
				"method": "rhf"
			},
			{
				"type": "unocc",
				"energy": 0.09152,
				"method": "rhf"
			}
		],
		"cosmo_sigma_profile": { 
			"-0.025": 0.0,
			"-0.024": 0.0,
			"-0.023": 0.0,
			"-0.022": 0.0,
			"-0.021": 0.0,
			"-0.02": 0.0,
			"-0.019": 0.0,
			"-0.018": 0.0,
			"-0.017": 0.0,
			"-0.016": 0.0,
			"-0.015": 0.0,
			"-0.014": 0.0,
			"-0.013": 0.0,
			"-0.012": 0.0,
			"-0.011": 0.0,
			"-0.01": 0.0,
			"-0.009": 0.0,
			"-0.008": 0.0,
			"-0.007": 1.06421775839,
			"-0.006": 10.7923408566,
			"-0.005": 15.2887239873,
			"-0.004": 22.8890142667,
			"-0.003": 27.4957876839,
			"-0.002": 25.6597672469,
			"-0.001": 25.5218105061,
			"0.0": 25.2589736819,
			"0.001": 13.9586466702,
			"0.002": 11.9600334034,
			"0.003": 15.4875583124,
			"0.004": 10.3582923549,
			"0.005": 3.16656195217,
			"0.006": 3.79168697091,
			"0.007": 2.82427470296,
			"0.008": 2.28034410739,
			"0.009": 2.31265803258,
			"0.01": 4.03293752922,
			"0.011": 3.63517304912,
			"0.012": 5.36815029798,
			"0.013": 2.08205967302,
			"0.014": 0.283144048843,
			"0.015": 0.0,
			"0.016": 0.0,
			"0.017": 0.0,
			"0.018": 0.0,
			"0.019": 0.0,
			"0.02": 0.0,
			"0.021": 0.0,
			"0.022": 0.0,
			"0.023": 0.0,
			"0.024": 0.0,
			"0.025": 0.0
		}
	}
}
