{
	 "smiles": "CC1=C(C=C(C=C1)C#N)S(N)(=O)=O", 
	 "Tm": 468.15, 
	 "num_atms": 21, 
	 "gaussian": { 
		 "optdone": 1, 
		 "sigma_profile": "yes", 
		 "theory": "DFT", 
		 "functional": "B3LYP", 
		 "basiset": "6-31G**", 
		 "properties": { 
			 "R2extent": 3844.7946, 
			 "electric_dipole_moment_norm": 5.96623970269, 
			 "electric_quadrupole_moment_norm": 26.7524870905, 
			 "total_energy": -967.729978031, 
			 "HOMO_LUMO_gap": 0.20416, 
			 "cosmo_polarized_energy": -18.52, 
			 "cosmo_cavitation_energy": 27.29, 
			 "cosmo_dispersion_energy": -20.01, 
			 "cosmo_repulsion_energy": 1.53, 
			 "cosmo_total_nonelectrostatic_energy": 8.81, 
			 "SMD_solvation_energy": 5.93 
		},
		"coords": [
			{
				"x": 0.2355768101,
				"y": -1.286340835,
				"z": 2.0808479265,
				"element": "C" 
			},
			{
				"x": -0.5599217395,
				"y": -0.0244568746,
				"z": 1.8710063385,
				"element": "C" 
			},
			{
				"x": -1.4232383349,
				"y": 0.1775345495,
				"z": 0.7729722887,
				"element": "C" 
			},
			{
				"x": -2.1493270848,
				"y": 1.3539076847,
				"z": 0.6070563448,
				"element": "C" 
			},
			{
				"x": -2.0223341661,
				"y": 2.3861300503,
				"z": 1.5478834591,
				"element": "C" 
			},
			{
				"x": -1.166484882,
				"y": 2.2145395847,
				"z": 2.6458229832,
				"element": "C" 
			},
			{
				"x": -0.455788958,
				"y": 1.0279793292,
				"z": 2.7920267876,
				"element": "C" 
			},
			{
				"x": -2.7596803488,
				"y": 3.6049957048,
				"z": 1.3856394288,
				"element": "C" 
			},
			{
				"x": -3.3520061052,
				"y": 4.5979031798,
				"z": 1.2592091586,
				"element": "N" 
			},
			{
				"x": -1.6999845025,
				"y": -1.0969047055,
				"z": -0.4722896863,
				"element": "S" 
			},
			{
				"x": -0.1662004814,
				"y": -1.2618935267,
				"z": -1.1762367871,
				"element": "N" 
			},
			{
				"x": -1.9707555731,
				"y": -2.3748319097,
				"z": 0.1912234221,
				"element": "O" 
			},
			{
				"x": -2.6286807427,
				"y": -0.5397539287,
				"z": -1.4598039342,
				"element": "O" 
			},
			{
				"x": -0.420273868,
				"y": -2.1590206322,
				"z": 2.1368780242,
				"element": "H" 
			},
			{
				"x": 0.8208225941,
				"y": -1.2208703377,
				"z": 3.0005695741,
				"element": "H" 
			},
			{
				"x": 0.9204662309,
				"y": -1.4524641345,
				"z": 1.2430034916,
				"element": "H" 
			},
			{
				"x": -2.8074191813,
				"y": 1.4603907447,
				"z": -0.2471242863,
				"element": "H" 
			},
			{
				"x": -1.0641441238,
				"y": 3.0090913433,
				"z": 3.3773119603,
				"element": "H" 
			},
			{
				"x": 0.2018330776,
				"y": 0.9065385652,
				"z": 3.6475665436,
				"element": "H" 
			},
			{
				"x": 0.0015636841,
				"y": -2.2517543595,
				"z": -1.3426480287,
				"element": "H" 
			},
			{
				"x": -0.1224223047,
				"y": -0.7346194922,
				"z": -2.0455150092,
				"element": "H" 
			}
		],
		 "valence_orbital": [ 
			{
				"type": "occ",
				"energy": -0.32474,
				"method": "rhf"
			},
			{
				"type": "occ",
				"energy": -0.31923,
				"method": "rhf"
			},
			{
				"type": "occ",
				"energy": -0.31398,
				"method": "rhf"
			},
			{
				"type": "occ",
				"energy": -0.28775,
				"method": "rhf"
			},
			{
				"type": "occ",
				"energy": -0.27289,
				"method": "rhf"
			},
			{
				"type": "unocc",
				"energy": -0.06873,
				"method": "rhf"
			},
			{
				"type": "unocc",
				"energy": -0.0489,
				"method": "rhf"
			},
			{
				"type": "unocc",
				"energy": 0.02626,
				"method": "rhf"
			},
			{
				"type": "unocc",
				"energy": 0.0396,
				"method": "rhf"
			},
			{
				"type": "unocc",
				"energy": 0.04748,
				"method": "rhf"
			}
		],
		"cosmo_sigma_profile": { 
			"-0.025": 0.0,
			"-0.024": 0.0,
			"-0.023": 0.0,
			"-0.022": 0.0,
			"-0.021": 0.0,
			"-0.02": 0.0,
			"-0.019": 0.0,
			"-0.018": 0.0,
			"-0.017": 0.0,
			"-0.016": 0.0407915778599,
			"-0.015": 2.113782591,
			"-0.014": 2.63485887735,
			"-0.013": 2.15180874997,
			"-0.012": 2.81521122879,
			"-0.011": 2.32300197244,
			"-0.01": 2.22522530465,
			"-0.009": 3.33288583778,
			"-0.008": 6.45768879898,
			"-0.007": 7.81414253494,
			"-0.006": 8.20275140145,
			"-0.005": 10.1528409159,
			"-0.004": 10.071053881,
			"-0.003": 15.4461351861,
			"-0.002": 19.3548708489,
			"-0.001": 20.3150192232,
			"0.0": 18.8641862092,
			"0.001": 11.4491268063,
			"0.002": 5.63498832972,
			"0.003": 5.23153642083,
			"0.004": 4.79581729995,
			"0.005": 6.83601426215,
			"0.006": 5.05048875564,
			"0.007": 6.51651523863,
			"0.008": 6.1836218556,
			"0.009": 8.60175447478,
			"0.01": 10.3685025244,
			"0.011": 9.73624473051,
			"0.012": 3.49157162683,
			"0.013": 0.913847906218,
			"0.014": 0.0,
			"0.015": 0.0,
			"0.016": 0.0,
			"0.017": 0.0,
			"0.018": 0.0,
			"0.019": 0.0,
			"0.02": 0.0,
			"0.021": 0.0,
			"0.022": 0.0,
			"0.023": 0.0,
			"0.024": 0.0,
			"0.025": 0.0
		}
	}
}
