{
	 "smiles": "BrC1=CC=C(C=O)C=C1", 
	 "Tm": 340.15, 
	 "num_atms": 14, 
	 "gaussian": { 
		 "optdone": 1, 
		 "sigma_profile": "yes", 
		 "theory": "DFT", 
		 "functional": "B3LYP", 
		 "basiset": "6-31G**", 
		 "properties": { 
			 "R2extent": 3248.7763, 
			 "electric_dipole_moment_norm": 2.04216548301, 
			 "electric_quadrupole_moment_norm": 12.9227552167, 
			 "total_energy": -2916.37669344, 
			 "HOMO_LUMO_gap": 0.18448, 
			 "cosmo_polarized_energy": -7.27, 
			 "cosmo_cavitation_energy": 21.16, 
			 "cosmo_dispersion_energy": -15.94, 
			 "cosmo_repulsion_energy": 1.3, 
			 "cosmo_total_nonelectrostatic_energy": 6.51, 
			 "SMD_solvation_energy": 3.61 
		},
		"coords": [
			{
				"x": -1.4914910131,
				"y": 1.5092328082,
				"z": 3.0607686368,
				"element": "Br" 
			},
			{
				"x": -0.1360652928,
				"y": 1.0658638162,
				"z": 1.7948670862,
				"element": "C" 
			},
			{
				"x": -0.505579091,
				"y": 0.7237262894,
				"z": 0.4934915924,
				"element": "C" 
			},
			{
				"x": 0.4921362694,
				"y": 0.4010960766,
				"z": -0.423948973,
				"element": "C" 
			},
			{
				"x": 1.8405632415,
				"y": 0.4200704507,
				"z": -0.0462135739,
				"element": "C" 
			},
			{
				"x": 2.8920233201,
				"y": 0.0752598684,
				"z": -1.0296127701,
				"element": "C" 
			},
			{
				"x": 4.0837904443,
				"y": 0.0659879309,
				"z": -0.7880701345,
				"element": "O" 
			},
			{
				"x": 2.1889958394,
				"y": 0.7672635793,
				"z": 1.2679991964,
				"element": "C" 
			},
			{
				"x": 1.2043730382,
				"y": 1.0913574887,
				"z": 2.1936106908,
				"element": "C" 
			},
			{
				"x": -1.5513192816,
				"y": 0.7113811431,
				"z": 0.2091086062,
				"element": "H" 
			},
			{
				"x": 0.2213780476,
				"y": 0.1321518925,
				"z": -1.4423420178,
				"element": "H" 
			},
			{
				"x": 2.5111476784,
				"y": -0.184972338,
				"z": -2.0423959264,
				"element": "H" 
			},
			{
				"x": 3.2393633635,
				"y": 0.7762883918,
				"z": 1.5417719456,
				"element": "H" 
			},
			{
				"x": 1.4626834361,
				"y": 1.3608926022,
				"z": 3.2112656413,
				"element": "H" 
			}
		],
		 "valence_orbital": [ 
			{
				"type": "occ",
				"energy": -0.32322,
				"method": "rhf"
			},
			{
				"type": "occ",
				"energy": -0.29957,
				"method": "rhf"
			},
			{
				"type": "occ",
				"energy": -0.28046,
				"method": "rhf"
			},
			{
				"type": "occ",
				"energy": -0.26287,
				"method": "rhf"
			},
			{
				"type": "occ",
				"energy": -0.2581,
				"method": "rhf"
			},
			{
				"type": "unocc",
				"energy": -0.07362,
				"method": "rhf"
			},
			{
				"type": "unocc",
				"energy": -0.02892,
				"method": "rhf"
			},
			{
				"type": "unocc",
				"energy": -0.0045,
				"method": "rhf"
			},
			{
				"type": "unocc",
				"energy": 0.02577,
				"method": "rhf"
			},
			{
				"type": "unocc",
				"energy": 0.10428,
				"method": "rhf"
			}
		],
		"cosmo_sigma_profile": { 
			"-0.025": 0.0,
			"-0.024": 0.0,
			"-0.023": 0.0,
			"-0.022": 0.0,
			"-0.021": 0.0,
			"-0.02": 0.0,
			"-0.019": 0.0,
			"-0.018": 0.0,
			"-0.017": 0.0,
			"-0.016": 0.0,
			"-0.015": 0.0,
			"-0.014": 0.0,
			"-0.013": 0.0,
			"-0.012": 0.0,
			"-0.011": 0.0,
			"-0.01": 0.0,
			"-0.009": 0.283680558007,
			"-0.008": 4.67766925214,
			"-0.007": 9.69255403874,
			"-0.006": 10.5081025461,
			"-0.005": 9.96685455093,
			"-0.004": 9.65747164419,
			"-0.003": 10.012694457,
			"-0.002": 8.78318888247,
			"-0.001": 12.026239234,
			"0.0": 14.7362109915,
			"0.001": 20.2354567361,
			"0.002": 20.7924080799,
			"0.003": 10.8795477095,
			"0.004": 12.5544342372,
			"0.005": 2.25936098688,
			"0.006": 1.42795357697,
			"0.007": 1.34875181552,
			"0.008": 1.88626157233,
			"0.009": 2.08939958702,
			"0.01": 2.79551428122,
			"0.011": 4.11473291393,
			"0.012": 2.45482735105,
			"0.013": 0.520014493371,
			"0.014": 0.0,
			"0.015": 0.0,
			"0.016": 0.0,
			"0.017": 0.0,
			"0.018": 0.0,
			"0.019": 0.0,
			"0.02": 0.0,
			"0.021": 0.0,
			"0.022": 0.0,
			"0.023": 0.0,
			"0.024": 0.0,
			"0.025": 0.0
		}
	}
}
