{
	 "smiles": "NC1=CC(=C(F)C=C1)[N+]([O-])=O", 
	 "Tm": 369.95, 
	 "num_atms": 16, 
	 "gaussian": { 
		 "optdone": 1, 
		 "sigma_profile": "yes", 
		 "theory": "DFT", 
		 "functional": "B3LYP", 
		 "basiset": "6-31G**", 
		 "properties": { 
			 "R2extent": 2598.0548, 
			 "electric_dipole_moment_norm": 6.34701153379, 
			 "electric_quadrupole_moment_norm": 15.4905354326, 
			 "total_energy": -591.327017989, 
			 "HOMO_LUMO_gap": 0.13961, 
			 "cosmo_polarized_energy": -13.55, 
			 "cosmo_cavitation_energy": 21.6, 
			 "cosmo_dispersion_energy": -16.03, 
			 "cosmo_repulsion_energy": 1.27, 
			 "cosmo_total_nonelectrostatic_energy": 6.85, 
			 "SMD_solvation_energy": 6.43 
		},
		"coords": [
			{
				"x": 0.8189792064,
				"y": -0.3185059911,
				"z": -4.5936642589,
				"element": "N" 
			},
			{
				"x": 0.0049959326,
				"y": -0.0240335978,
				"z": -3.5030440731,
				"element": "C" 
			},
			{
				"x": 0.5575603846,
				"y": 0.3471384005,
				"z": -2.2724824857,
				"element": "C" 
			},
			{
				"x": -0.2600001536,
				"y": 0.7050269434,
				"z": -1.1987415034,
				"element": "C" 
			},
			{
				"x": -1.6543387249,
				"y": 0.6920855763,
				"z": -1.3330162606,
				"element": "C" 
			},
			{
				"x": -2.4845870342,
				"y": 1.0088693189,
				"z": -0.3333607672,
				"element": "F" 
			},
			{
				"x": -2.2098786415,
				"y": 0.3178651481,
				"z": -2.5537558464,
				"element": "C" 
			},
			{
				"x": -1.3985335563,
				"y": -0.0321296345,
				"z": -3.6253375574,
				"element": "C" 
			},
			{
				"x": 0.4014038714,
				"y": 1.0853963481,
				"z": 0.0577422979,
				"element": "N" 
			},
			{
				"x": -0.294118588,
				"y": 1.5233557757,
				"z": 0.9695063806,
				"element": "O" 
			},
			{
				"x": 1.6247765736,
				"y": 0.9435448093,
				"z": 0.115560195,
				"element": "O" 
			},
			{
				"x": 1.7645405952,
				"y": -0.5957150436,
				"z": -4.3708533931,
				"element": "H" 
			},
			{
				"x": 0.4047370677,
				"y": -0.9062802512,
				"z": -5.3031552648,
				"element": "H" 
			},
			{
				"x": 1.6295179971,
				"y": 0.3701340371,
				"z": -2.1178835737,
				"element": "H" 
			},
			{
				"x": -3.2907503517,
				"y": 0.306753433,
				"z": -2.6421522391,
				"element": "H" 
			},
			{
				"x": -1.8539045783,
				"y": -0.3125052719,
				"z": -4.5711616502,
				"element": "H" 
			}
		],
		 "valence_orbital": [ 
			{
				"type": "occ",
				"energy": -0.30474,
				"method": "rhf"
			},
			{
				"type": "occ",
				"energy": -0.30236,
				"method": "rhf"
			},
			{
				"type": "occ",
				"energy": -0.28728,
				"method": "rhf"
			},
			{
				"type": "occ",
				"energy": -0.2824,
				"method": "rhf"
			},
			{
				"type": "occ",
				"energy": -0.22528,
				"method": "rhf"
			},
			{
				"type": "unocc",
				"energy": -0.08567,
				"method": "rhf"
			},
			{
				"type": "unocc",
				"energy": -0.01531,
				"method": "rhf"
			},
			{
				"type": "unocc",
				"energy": 0.00744,
				"method": "rhf"
			},
			{
				"type": "unocc",
				"energy": 0.05793,
				"method": "rhf"
			},
			{
				"type": "unocc",
				"energy": 0.0766,
				"method": "rhf"
			}
		],
		"cosmo_sigma_profile": { 
			"-0.025": 0.0,
			"-0.024": 0.0,
			"-0.023": 0.0,
			"-0.022": 0.0,
			"-0.021": 0.0,
			"-0.02": 0.0,
			"-0.019": 0.0,
			"-0.018": 0.0,
			"-0.017": 0.0,
			"-0.016": 0.0,
			"-0.015": 0.0,
			"-0.014": 0.167930337778,
			"-0.013": 2.8226109103,
			"-0.012": 2.88899386573,
			"-0.011": 3.67578766379,
			"-0.01": 3.94031976229,
			"-0.009": 3.76973211336,
			"-0.008": 5.06314385397,
			"-0.007": 5.87254041245,
			"-0.006": 7.14977318,
			"-0.005": 7.10211571254,
			"-0.004": 6.3167881916,
			"-0.003": 6.69623074813,
			"-0.002": 7.76577452291,
			"-0.001": 11.4456532125,
			"0.0": 12.7174922142,
			"0.001": 13.7348018715,
			"0.002": 12.806402477,
			"0.003": 10.4233854581,
			"0.004": 8.43410256866,
			"0.005": 4.35796778588,
			"0.006": 4.93630999786,
			"0.007": 7.85861815149,
			"0.008": 10.9539297769,
			"0.009": 6.24339815643,
			"0.01": 3.90515482999,
			"0.011": 0.815957294842,
			"0.012": 0.669414052303,
			"0.013": 0.409109885483,
			"0.014": 0.145712948017,
			"0.015": 0.0,
			"0.016": 0.0,
			"0.017": 0.0,
			"0.018": 0.0,
			"0.019": 0.0,
			"0.02": 0.0,
			"0.021": 0.0,
			"0.022": 0.0,
			"0.023": 0.0,
			"0.024": 0.0,
			"0.025": 0.0
		}
	}
}
