{
	 "smiles": "OC1=C(Cl)C=C(C=O)C=C1", 
	 "Tm": 412.15, 
	 "num_atms": 15, 
	 "gaussian": { 
		 "optdone": 1, 
		 "sigma_profile": "yes", 
		 "theory": "DFT", 
		 "functional": "B3LYP", 
		 "basiset": "6-31G**", 
		 "properties": { 
			 "R2extent": 2039.9902, 
			 "electric_dipole_moment_norm": 2.78068416581, 
			 "electric_quadrupole_moment_norm": 7.88479407467, 
			 "total_energy": -880.388631745, 
			 "HOMO_LUMO_gap": 0.18292, 
			 "cosmo_polarized_energy": -9.5, 
			 "cosmo_cavitation_energy": 21.63, 
			 "cosmo_dispersion_energy": -16.2, 
			 "cosmo_repulsion_energy": 1.3, 
			 "cosmo_total_nonelectrostatic_energy": 6.73, 
			 "SMD_solvation_energy": 4.94 
		},
		"coords": [
			{
				"x": -0.3303118137,
				"y": 2.9794699145,
				"z": -0.121383834,
				"element": "O" 
			},
			{
				"x": -0.3297004972,
				"y": 1.6483393652,
				"z": 0.0923521614,
				"element": "C" 
			},
			{
				"x": 0.1637515396,
				"y": 1.0580658533,
				"z": 1.270185849,
				"element": "C" 
			},
			{
				"x": 0.8117296432,
				"y": 2.11285835,
				"z": 2.5249584268,
				"element": "Cl" 
			},
			{
				"x": 0.1438690063,
				"y": -0.3182175299,
				"z": 1.4460768873,
				"element": "C" 
			},
			{
				"x": -0.3749381842,
				"y": -1.1389403794,
				"z": 0.4375794159,
				"element": "C" 
			},
			{
				"x": -0.3973636038,
				"y": -2.6034147776,
				"z": 0.6219553439,
				"element": "C" 
			},
			{
				"x": -0.827226116,
				"y": -3.3951463325,
				"z": -0.196145424,
				"element": "O" 
			},
			{
				"x": -0.8702488883,
				"y": -0.5576921203,
				"z": -0.7428783147,
				"element": "C" 
			},
			{
				"x": -0.8485203874,
				"y": 0.8156864771,
				"z": -0.9141901822,
				"element": "C" 
			},
			{
				"x": 0.0533907071,
				"y": 3.4266520304,
				"z": 0.649690985,
				"element": "H" 
			},
			{
				"x": 0.5304385296,
				"y": -0.751109519,
				"z": 2.3641676701,
				"element": "H" 
			},
			{
				"x": 0.0192019859,
				"y": -2.9539152649,
				"z": 1.592940674,
				"element": "H" 
			},
			{
				"x": -1.2678982596,
				"y": -1.2119851596,
				"z": -1.5117765075,
				"element": "H" 
			},
			{
				"x": -1.2252736614,
				"y": 1.2855490927,
				"z": -1.816533151,
				"element": "H" 
			}
		],
		 "valence_orbital": [ 
			{
				"type": "occ",
				"energy": -0.34598,
				"method": "rhf"
			},
			{
				"type": "occ",
				"energy": -0.34173,
				"method": "rhf"
			},
			{
				"type": "occ",
				"energy": -0.27315,
				"method": "rhf"
			},
			{
				"type": "occ",
				"energy": -0.2586,
				"method": "rhf"
			},
			{
				"type": "occ",
				"energy": -0.24695,
				"method": "rhf"
			},
			{
				"type": "unocc",
				"energy": -0.06403,
				"method": "rhf"
			},
			{
				"type": "unocc",
				"energy": -0.02944,
				"method": "rhf"
			},
			{
				"type": "unocc",
				"energy": 0.00643,
				"method": "rhf"
			},
			{
				"type": "unocc",
				"energy": 0.03744,
				"method": "rhf"
			},
			{
				"type": "unocc",
				"energy": 0.07449,
				"method": "rhf"
			}
		],
		"cosmo_sigma_profile": { 
			"-0.025": 0.0,
			"-0.024": 0.0,
			"-0.023": 0.0,
			"-0.022": 0.0,
			"-0.021": 0.0,
			"-0.02": 0.0,
			"-0.019": 0.0,
			"-0.018": 0.0,
			"-0.017": 0.0,
			"-0.016": 0.552609457315,
			"-0.015": 0.427794103997,
			"-0.014": 0.447523873822,
			"-0.013": 0.5360539191,
			"-0.012": 1.38750895935,
			"-0.011": 0.958253521574,
			"-0.01": 0.808606607786,
			"-0.009": 2.2028429053,
			"-0.008": 5.54751449034,
			"-0.007": 6.17218913988,
			"-0.006": 9.09894095336,
			"-0.005": 8.71824180048,
			"-0.004": 7.46762720123,
			"-0.003": 9.44540028118,
			"-0.002": 10.6506750128,
			"-0.001": 10.7904540845,
			"0.0": 17.7019386988,
			"0.001": 21.7600610445,
			"0.002": 15.2949445428,
			"0.003": 12.6817383368,
			"0.004": 6.52836288032,
			"0.005": 3.16111682908,
			"0.006": 2.57301623177,
			"0.007": 2.67637317003,
			"0.008": 3.01718100222,
			"0.009": 3.92363463102,
			"0.01": 3.40523661694,
			"0.011": 3.64385664188,
			"0.012": 3.62351841601,
			"0.013": 0.958641783035,
			"0.014": 0.000518696842157,
			"0.015": 0.0,
			"0.016": 0.0,
			"0.017": 0.0,
			"0.018": 0.0,
			"0.019": 0.0,
			"0.02": 0.0,
			"0.021": 0.0,
			"0.022": 0.0,
			"0.023": 0.0,
			"0.024": 0.0,
			"0.025": 0.0
		}
	}
}
