{
	 "smiles": "ClN1C(=O)C2=CC=CC=C2C1=O", 
	 "Tm": 460.15, 
	 "num_atms": 16, 
	 "gaussian": { 
		 "optdone": 1, 
		 "sigma_profile": "yes", 
		 "theory": "DFT", 
		 "functional": "B3LYP", 
		 "basiset": "6-31G**", 
		 "properties": { 
			 "R2extent": 2668.1767, 
			 "electric_dipole_moment_norm": 4.32897768763, 
			 "electric_quadrupole_moment_norm": 6.4578304476, 
			 "total_energy": -972.632213494, 
			 "HOMO_LUMO_gap": 0.1765, 
			 "cosmo_polarized_energy": -10.06, 
			 "cosmo_cavitation_energy": 23.42, 
			 "cosmo_dispersion_energy": -17.32, 
			 "cosmo_repulsion_energy": 1.36, 
			 "cosmo_total_nonelectrostatic_energy": 7.46, 
			 "SMD_solvation_energy": 5.04 
		},
		"coords": [
			{
				"x": 1.3460001539,
				"y": -1.9654235461,
				"z": -3.282281964,
				"element": "Cl" 
			},
			{
				"x": 0.7720696043,
				"y": -0.8891475489,
				"z": -2.0970656289,
				"element": "N" 
			},
			{
				"x": -0.073279898,
				"y": -1.2933516715,
				"z": -1.0321419902,
				"element": "C" 
			},
			{
				"x": -0.4827258603,
				"y": -2.4113796687,
				"z": -0.8323523939,
				"element": "O" 
			},
			{
				"x": -0.3074450982,
				"y": -0.0330483558,
				"z": -0.2673203777,
				"element": "C" 
			},
			{
				"x": -1.0628474173,
				"y": 0.1711924843,
				"z": 0.8778671653,
				"element": "C" 
			},
			{
				"x": -1.1116492003,
				"y": 1.4736150403,
				"z": 1.3934942769,
				"element": "C" 
			},
			{
				"x": -0.4232734826,
				"y": 2.5236047127,
				"z": 0.773344356,
				"element": "C" 
			},
			{
				"x": 0.3375612019,
				"y": 2.3072746961,
				"z": -0.3837608214,
				"element": "C" 
			},
			{
				"x": 0.3798235533,
				"y": 1.0152754915,
				"z": -0.8864891521,
				"element": "C" 
			},
			{
				"x": 1.0968605808,
				"y": 0.4915889584,
				"z": -2.0863966576,
				"element": "C" 
			},
			{
				"x": 1.7964151621,
				"y": 1.0652958609,
				"z": -2.885793844,
				"element": "O" 
			},
			{
				"x": -1.5918976912,
				"y": -0.6502944671,
				"z": 1.3495382205,
				"element": "H" 
			},
			{
				"x": -1.6925602107,
				"y": 1.6732541114,
				"z": 2.2887725397,
				"element": "H" 
			},
			{
				"x": -0.4808112632,
				"y": 3.5215780935,
				"z": 1.1971062578,
				"element": "H" 
			},
			{
				"x": 0.8751598655,
				"y": 3.1127658089,
				"z": -0.8730199862,
				"element": "H" 
			}
		],
		 "valence_orbital": [ 
			{
				"type": "occ",
				"energy": -0.30773,
				"method": "rhf"
			},
			{
				"type": "occ",
				"energy": -0.29514,
				"method": "rhf"
			},
			{
				"type": "occ",
				"energy": -0.28844,
				"method": "rhf"
			},
			{
				"type": "occ",
				"energy": -0.28156,
				"method": "rhf"
			},
			{
				"type": "occ",
				"energy": -0.27044,
				"method": "rhf"
			},
			{
				"type": "unocc",
				"energy": -0.09394,
				"method": "rhf"
			},
			{
				"type": "unocc",
				"energy": -0.05063,
				"method": "rhf"
			},
			{
				"type": "unocc",
				"energy": -0.04104,
				"method": "rhf"
			},
			{
				"type": "unocc",
				"energy": 0.01794,
				"method": "rhf"
			},
			{
				"type": "unocc",
				"energy": 0.06307,
				"method": "rhf"
			}
		],
		"cosmo_sigma_profile": { 
			"-0.025": 0.0,
			"-0.024": 0.0,
			"-0.023": 0.0,
			"-0.022": 0.0,
			"-0.021": 0.0,
			"-0.02": 0.0,
			"-0.019": 0.0,
			"-0.018": 0.0,
			"-0.017": 0.0,
			"-0.016": 0.0,
			"-0.015": 0.0,
			"-0.014": 0.0,
			"-0.013": 0.0,
			"-0.012": 0.0,
			"-0.011": 0.0,
			"-0.01": 0.0,
			"-0.009": 0.117926343125,
			"-0.008": 4.94881439441,
			"-0.007": 12.2919740662,
			"-0.006": 13.5984546345,
			"-0.005": 11.9685308704,
			"-0.004": 10.351953735,
			"-0.003": 12.7622064829,
			"-0.002": 15.5203705844,
			"-0.001": 12.7509379475,
			"0.0": 16.0451080256,
			"0.001": 19.4337340672,
			"0.002": 14.7552250816,
			"0.003": 7.48574710953,
			"0.004": 4.42427103176,
			"0.005": 3.43528613637,
			"0.006": 3.5261800657,
			"0.007": 4.04537508243,
			"0.008": 4.47668905669,
			"0.009": 5.87682197143,
			"0.01": 10.5093288154,
			"0.011": 3.8651148358,
			"0.012": 0.0,
			"0.013": 0.0,
			"0.014": 0.0,
			"0.015": 0.0,
			"0.016": 0.0,
			"0.017": 0.0,
			"0.018": 0.0,
			"0.019": 0.0,
			"0.02": 0.0,
			"0.021": 0.0,
			"0.022": 0.0,
			"0.023": 0.0,
			"0.024": 0.0,
			"0.025": 0.0
		}
	}
}
