{
	 "smiles": "CCC1(C)CCCC1", 
	 "Tm": 129.15, 
	 "num_atms": 24, 
	 "gaussian": { 
		 "optdone": 1, 
		 "sigma_profile": "yes", 
		 "theory": "DFT", 
		 "functional": "B3LYP", 
		 "basiset": "6-31G**", 
		 "properties": { 
			 "R2extent": 1232.916, 
			 "electric_dipole_moment_norm": 0.041771760796, 
			 "electric_quadrupole_moment_norm": 0.41942663244, 
			 "total_energy": -314.512772334, 
			 "HOMO_LUMO_gap": 0.37611, 
			 "cosmo_polarized_energy": -0.64, 
			 "cosmo_cavitation_energy": 23.19, 
			 "cosmo_dispersion_energy": -17.11, 
			 "cosmo_repulsion_energy": 1.4, 
			 "cosmo_total_nonelectrostatic_energy": 7.49, 
			 "SMD_solvation_energy": 3.46 
		},
		"coords": [
			{
				"x": 1.3122585557,
				"y": 0.8698167777,
				"z": -0.5633021732,
				"element": "C" 
			},
			{
				"x": 0.3392315165,
				"y": -0.0288047145,
				"z": -1.3364972699,
				"element": "C" 
			},
			{
				"x": -0.9589766409,
				"y": -0.4559056434,
				"z": -0.6051475184,
				"element": "C" 
			},
			{
				"x": -1.7175346711,
				"y": -1.4381711113,
				"z": -1.5182213156,
				"element": "C" 
			},
			{
				"x": -1.8726534629,
				"y": 0.7669111525,
				"z": -0.2586524017,
				"element": "C" 
			},
			{
				"x": -2.3845351165,
				"y": 0.5226129087,
				"z": 1.1718785503,
				"element": "C" 
			},
			{
				"x": -1.1867480198,
				"y": -0.1529048041,
				"z": 1.8571623105,
				"element": "C" 
			},
			{
				"x": -0.6733022787,
				"y": -1.1297943206,
				"z": 0.7829313715,
				"element": "C" 
			},
			{
				"x": 1.6675334339,
				"y": 0.392596901,
				"z": 0.3560582933,
				"element": "H" 
			},
			{
				"x": 2.1926491565,
				"y": 1.0920045975,
				"z": -1.1755056278,
				"element": "H" 
			},
			{
				"x": 0.861457169,
				"y": 1.8280943902,
				"z": -0.2854865336,
				"element": "H" 
			},
			{
				"x": 0.0554598135,
				"y": 0.4769725705,
				"z": -2.2700728191,
				"element": "H" 
			},
			{
				"x": 0.8734297375,
				"y": -0.9395574084,
				"z": -1.6411721682,
				"element": "H" 
			},
			{
				"x": -1.1428812893,
				"y": -2.35915364,
				"z": -1.6728463079,
				"element": "H" 
			},
			{
				"x": -1.9123539257,
				"y": -0.9970027989,
				"z": -2.5028519328,
				"element": "H" 
			},
			{
				"x": -2.6825389308,
				"y": -1.7193749644,
				"z": -1.081414675,
				"element": "H" 
			},
			{
				"x": -1.2923662751,
				"y": 1.6964019014,
				"z": -0.2787368395,
				"element": "H" 
			},
			{
				"x": -2.6822503517,
				"y": 0.8873457539,
				"z": -0.9866959605,
				"element": "H" 
			},
			{
				"x": -3.2397781652,
				"y": -0.1658873415,
				"z": 1.1584044458,
				"element": "H" 
			},
			{
				"x": -2.7151132577,
				"y": 1.4389413767,
				"z": 1.6723676824,
				"element": "H" 
			},
			{
				"x": -0.4215664997,
				"y": 0.5998560919,
				"z": 2.0861838974,
				"element": "H" 
			},
			{
				"x": -1.4452441409,
				"y": -0.6494066638,
				"z": 2.7985356089,
				"element": "H" 
			},
			{
				"x": -1.2321159835,
				"y": -2.0709622728,
				"z": 0.8527165967,
				"element": "H" 
			},
			{
				"x": 0.3829396268,
				"y": -1.3873287383,
				"z": 0.9133647866,
				"element": "H" 
			}
		],
		 "valence_orbital": [ 
			{
				"type": "occ",
				"energy": -0.32531,
				"method": "rhf"
			},
			{
				"type": "occ",
				"energy": -0.31333,
				"method": "rhf"
			},
			{
				"type": "occ",
				"energy": -0.30233,
				"method": "rhf"
			},
			{
				"type": "occ",
				"energy": -0.2984,
				"method": "rhf"
			},
			{
				"type": "occ",
				"energy": -0.29561,
				"method": "rhf"
			},
			{
				"type": "unocc",
				"energy": 0.0805,
				"method": "rhf"
			},
			{
				"type": "unocc",
				"energy": 0.09986,
				"method": "rhf"
			},
			{
				"type": "unocc",
				"energy": 0.11377,
				"method": "rhf"
			},
			{
				"type": "unocc",
				"energy": 0.12859,
				"method": "rhf"
			},
			{
				"type": "unocc",
				"energy": 0.13415,
				"method": "rhf"
			}
		],
		"cosmo_sigma_profile": { 
			"-0.025": 0.0,
			"-0.024": 0.0,
			"-0.023": 0.0,
			"-0.022": 0.0,
			"-0.021": 0.0,
			"-0.02": 0.0,
			"-0.019": 0.0,
			"-0.018": 0.0,
			"-0.017": 0.0,
			"-0.016": 0.0,
			"-0.015": 0.0,
			"-0.014": 0.0,
			"-0.013": 0.0,
			"-0.012": 0.0,
			"-0.011": 0.0,
			"-0.01": 0.0,
			"-0.009": 0.0,
			"-0.008": 0.0,
			"-0.007": 0.0,
			"-0.006": 0.0,
			"-0.005": 0.0,
			"-0.004": 0.0,
			"-0.003": 3.92241143726,
			"-0.002": 23.8577509683,
			"-0.001": 38.3333005985,
			"0.0": 44.3715971461,
			"0.001": 37.0265141658,
			"0.002": 28.119188155,
			"0.003": 1.81264523302,
			"0.004": 0.0,
			"0.005": 0.0,
			"0.006": 0.0,
			"0.007": 0.0,
			"0.008": 0.0,
			"0.009": 0.0,
			"0.01": 0.0,
			"0.011": 0.0,
			"0.012": 0.0,
			"0.013": 0.0,
			"0.014": 0.0,
			"0.015": 0.0,
			"0.016": 0.0,
			"0.017": 0.0,
			"0.018": 0.0,
			"0.019": 0.0,
			"0.02": 0.0,
			"0.021": 0.0,
			"0.022": 0.0,
			"0.023": 0.0,
			"0.024": 0.0,
			"0.025": 0.0
		}
	}
}
