{
	 "smiles": "CCOC1=CC=C(C=C1)N=NC1=CC=C(OCC)C=C1", 
	 "Tm": 435.15, 
	 "num_atms": 38, 
	 "gaussian": { 
		 "optdone": 1, 
		 "sigma_profile": "yes", 
		 "theory": "DFT", 
		 "functional": "B3LYP", 
		 "basiset": "6-31G**", 
		 "properties": { 
			 "R2extent": 13057.3301, 
			 "electric_dipole_moment_norm": 0.000860232526704, 
			 "electric_quadrupole_moment_norm": 35.6016081404, 
			 "total_energy": -880.458056772, 
			 "HOMO_LUMO_gap": 0.1325, 
			 "cosmo_polarized_energy": -10.99, 
			 "cosmo_cavitation_energy": 42.66, 
			 "cosmo_dispersion_energy": -31.18, 
			 "cosmo_repulsion_energy": 2.43, 
			 "cosmo_total_nonelectrostatic_energy": 13.9, 
			 "SMD_solvation_energy": 6.68 
		},
		"coords": [
			{
				"x": -1.1904371066,
				"y": -7.0582301686,
				"z": 2.7878482746,
				"element": "C" 
			},
			{
				"x": -1.4987497265,
				"y": -5.8290582356,
				"z": 1.9511515829,
				"element": "C" 
			},
			{
				"x": -0.4907449697,
				"y": -4.8558482164,
				"z": 2.2286010886,
				"element": "O" 
			},
			{
				"x": -0.5448752227,
				"y": -3.6530210884,
				"z": 1.5954539225,
				"element": "C" 
			},
			{
				"x": -1.5304958079,
				"y": -3.2800846932,
				"z": 0.6720562027,
				"element": "C" 
			},
			{
				"x": -1.4756538123,
				"y": -2.0142640034,
				"z": 0.089635948,
				"element": "C" 
			},
			{
				"x": -0.4565760662,
				"y": -1.1105495174,
				"z": 0.4092610636,
				"element": "C" 
			},
			{
				"x": 0.5305502403,
				"y": -1.4959871253,
				"z": 1.3400063973,
				"element": "C" 
			},
			{
				"x": 0.4852335875,
				"y": -2.7483701581,
				"z": 1.9229399791,
				"element": "C" 
			},
			{
				"x": -0.5102441313,
				"y": 0.1378871525,
				"z": -0.2461761717,
				"element": "N" 
			},
			{
				"x": 0.4193153038,
				"y": 0.9396749022,
				"z": 0.0568650558,
				"element": "N" 
			},
			{
				"x": 0.3656134682,
				"y": 2.188143965,
				"z": -0.5985279626,
				"element": "C" 
			},
			{
				"x": -0.6211921127,
				"y": 2.5735355041,
				"z": -1.5296170167,
				"element": "C" 
			},
			{
				"x": -0.5758694515,
				"y": 3.8260260107,
				"z": -2.1123218928,
				"element": "C" 
			},
			{
				"x": 0.453940172,
				"y": 4.7308157735,
				"z": -1.7842729116,
				"element": "C" 
			},
			{
				"x": 0.3997908141,
				"y": 5.9337702986,
				"z": -2.41718883,
				"element": "O" 
			},
			{
				"x": 1.4074522597,
				"y": 6.9071451654,
				"z": -2.1391488655,
				"element": "C" 
			},
			{
				"x": 1.099165,
				"y": 8.1364512695,
				"z": -2.9756681478,
				"element": "C" 
			},
			{
				"x": 1.4392748125,
				"y": 4.3579181679,
				"z": -0.8605611382,
				"element": "C" 
			},
			{
				"x": 1.3844208832,
				"y": 3.0919823173,
				"z": -0.2783678998,
				"element": "C" 
			},
			{
				"x": -1.1968021826,
				"y": -6.8110241909,
				"z": 3.8530420937,
				"element": "H" 
			},
			{
				"x": -0.2060644943,
				"y": -7.4607820783,
				"z": 2.5333943234,
				"element": "H" 
			},
			{
				"x": -1.9407017973,
				"y": -7.8339130791,
				"z": 2.6065039228,
				"element": "H" 
			},
			{
				"x": -2.4884135878,
				"y": -5.4218676365,
				"z": 2.2012862561,
				"element": "H" 
			},
			{
				"x": -1.496206239,
				"y": -6.0727123696,
				"z": 0.8794984813,
				"element": "H" 
			},
			{
				"x": -2.3319771034,
				"y": -3.9577724497,
				"z": 0.4044389697,
				"element": "H" 
			},
			{
				"x": -2.2279501522,
				"y": -1.7028413011,
				"z": -0.6283765332,
				"element": "H" 
			},
			{
				"x": 1.3180495279,
				"y": -0.7923448988,
				"z": 1.5843752692,
				"element": "H" 
			},
			{
				"x": 1.2347191166,
				"y": -3.0650053963,
				"z": 2.6413838609,
				"element": "H" 
			},
			{
				"x": -1.4084370461,
				"y": 1.8697614061,
				"z": -1.7744283903,
				"element": "H" 
			},
			{
				"x": -1.3251152073,
				"y": 4.1425871288,
				"z": -2.8310402747,
				"element": "H" 
			},
			{
				"x": 1.404479548,
				"y": 7.1505589252,
				"z": -1.0674405357,
				"element": "H" 
			},
			{
				"x": 2.3973110246,
				"y": 6.5002535168,
				"z": -2.3890166892,
				"element": "H" 
			},
			{
				"x": 1.8491991737,
				"y": 8.9122473479,
				"z": -2.7938647116,
				"element": "H" 
			},
			{
				"x": 1.1059620087,
				"y": 7.8895009136,
				"z": -4.0409190948,
				"element": "H" 
			},
			{
				"x": 0.1146109886,
				"y": 8.5387217769,
				"z": -2.7214682948,
				"element": "H" 
			},
			{
				"x": 2.2405223055,
				"y": 5.0357096626,
				"z": -0.5925159375,
				"element": "H" 
			},
			{
				"x": 2.1364959825,
				"y": 2.7805854018,
				"z": 0.4398786064,
				"element": "H" 
			}
		],
		 "valence_orbital": [ 
			{
				"type": "occ",
				"energy": -0.25145,
				"method": "rhf"
			},
			{
				"type": "occ",
				"energy": -0.25098,
				"method": "rhf"
			},
			{
				"type": "occ",
				"energy": -0.23559,
				"method": "rhf"
			},
			{
				"type": "occ",
				"energy": -0.21229,
				"method": "rhf"
			},
			{
				"type": "occ",
				"energy": -0.19608,
				"method": "rhf"
			},
			{
				"type": "unocc",
				"energy": -0.06358,
				"method": "rhf"
			},
			{
				"type": "unocc",
				"energy": 0.00018,
				"method": "rhf"
			},
			{
				"type": "unocc",
				"energy": 0.00154,
				"method": "rhf"
			},
			{
				"type": "unocc",
				"energy": 0.02781,
				"method": "rhf"
			},
			{
				"type": "unocc",
				"energy": 0.06341,
				"method": "rhf"
			}
		],
		"cosmo_sigma_profile": { 
			"-0.025": 0.0,
			"-0.024": 0.0,
			"-0.023": 0.0,
			"-0.022": 0.0,
			"-0.021": 0.0,
			"-0.02": 0.0,
			"-0.019": 0.0,
			"-0.018": 0.0,
			"-0.017": 0.0,
			"-0.016": 0.0,
			"-0.015": 0.0,
			"-0.014": 0.0,
			"-0.013": 0.0,
			"-0.012": 0.0,
			"-0.011": 0.0,
			"-0.01": 0.0,
			"-0.009": 0.0,
			"-0.008": 0.0,
			"-0.007": 2.58669116734,
			"-0.006": 12.7036397429,
			"-0.005": 26.4044061359,
			"-0.004": 36.7822969119,
			"-0.003": 33.2035718876,
			"-0.002": 27.3800036845,
			"-0.001": 22.5237662702,
			"0.0": 26.3111970393,
			"0.001": 18.0601263305,
			"0.002": 25.3790851668,
			"0.003": 39.3202648162,
			"0.004": 33.4927992561,
			"0.005": 10.1238772327,
			"0.006": 8.18718360891,
			"0.007": 5.27965267803,
			"0.008": 5.78538782523,
			"0.009": 4.84436299843,
			"0.01": 0.529729674474,
			"0.011": 0.0,
			"0.012": 0.0,
			"0.013": 0.0,
			"0.014": 0.0,
			"0.015": 0.0,
			"0.016": 0.0,
			"0.017": 0.0,
			"0.018": 0.0,
			"0.019": 0.0,
			"0.02": 0.0,
			"0.021": 0.0,
			"0.022": 0.0,
			"0.023": 0.0,
			"0.024": 0.0,
			"0.025": 0.0
		}
	}
}
