{
	 "smiles": "NC(=O)C1=C(O)C=CC(=C1)C(=O)CBr", 
	 "Tm": 476.15, 
	 "num_atms": 22, 
	 "gaussian": { 
		 "optdone": 1, 
		 "sigma_profile": "yes", 
		 "theory": "DFT", 
		 "functional": "B3LYP", 
		 "basiset": "6-31G**", 
		 "properties": { 
			 "R2extent": 5585.1252, 
			 "electric_dipole_moment_norm": 1.66172289808, 
			 "electric_quadrupole_moment_norm": 21.5762010305, 
			 "total_energy": -3199.63756107, 
			 "HOMO_LUMO_gap": 0.16594, 
			 "cosmo_polarized_energy": -15.99, 
			 "cosmo_cavitation_energy": 28.77, 
			 "cosmo_dispersion_energy": -21.7, 
			 "cosmo_repulsion_energy": 1.71, 
			 "cosmo_total_nonelectrostatic_energy": 8.78, 
			 "SMD_solvation_energy": 5.29 
		},
		"coords": [
			{
				"x": 2.2411298802,
				"y": -1.5042061258,
				"z": -1.5283575214,
				"element": "N" 
			},
			{
				"x": 1.1816881999,
				"y": -1.0324094109,
				"z": -2.2294143055,
				"element": "C" 
			},
			{
				"x": 1.1513905114,
				"y": -1.162373137,
				"z": -3.4695036807,
				"element": "O" 
			},
			{
				"x": 0.0747091799,
				"y": -0.3602693669,
				"z": -1.5007670717,
				"element": "C" 
			},
			{
				"x": -1.0544064707,
				"y": 0.0760743451,
				"z": -2.256664819,
				"element": "C" 
			},
			{
				"x": -1.1334773565,
				"y": -0.0847692081,
				"z": -3.5743594506,
				"element": "O" 
			},
			{
				"x": -2.1309035979,
				"y": 0.6990455686,
				"z": -1.5942361785,
				"element": "C" 
			},
			{
				"x": -2.0945258188,
				"y": 0.9009016531,
				"z": -0.2279918951,
				"element": "C" 
			},
			{
				"x": -0.978881156,
				"y": 0.4930131006,
				"z": 0.535004231,
				"element": "C" 
			},
			{
				"x": 0.0836672203,
				"y": -0.1325986888,
				"z": -0.1237066177,
				"element": "C" 
			},
			{
				"x": -0.8472345765,
				"y": 0.707293841,
				"z": 1.9965053232,
				"element": "C" 
			},
			{
				"x": 0.1445678495,
				"y": 0.3467014162,
				"z": 2.6168892012,
				"element": "O" 
			},
			{
				"x": -1.9482794145,
				"y": 1.4386463717,
				"z": 2.7595670093,
				"element": "C" 
			},
			{
				"x": -3.5456459163,
				"y": 0.2899547529,
				"z": 2.9905397995,
				"element": "Br" 
			},
			{
				"x": 2.9545238576,
				"y": -1.9918103062,
				"z": -2.048415871,
				"element": "H" 
			},
			{
				"x": 2.2761862231,
				"y": -1.5178791549,
				"z": -0.5234667591,
				"element": "H" 
			},
			{
				"x": -0.2775041537,
				"y": -0.5278447941,
				"z": -3.8496004946,
				"element": "H" 
			},
			{
				"x": -2.9813110387,
				"y": 1.009808838,
				"z": -2.1911269028,
				"element": "H" 
			},
			{
				"x": -2.9475822277,
				"y": 1.3650721179,
				"z": 0.2552433651,
				"element": "H" 
			},
			{
				"x": 0.9252316416,
				"y": -0.4208920885,
				"z": 0.4983991845,
				"element": "H" 
			},
			{
				"x": -1.5888285374,
				"y": 1.6616559775,
				"z": 3.7607488469,
				"element": "H" 
			},
			{
				"x": -2.296414299,
				"y": 2.3406842988,
				"z": 2.2567146068,
				"element": "H" 
			}
		],
		 "valence_orbital": [ 
			{
				"type": "occ",
				"energy": -0.28769,
				"method": "rhf"
			},
			{
				"type": "occ",
				"energy": -0.28298,
				"method": "rhf"
			},
			{
				"type": "occ",
				"energy": -0.27667,
				"method": "rhf"
			},
			{
				"type": "occ",
				"energy": -0.26113,
				"method": "rhf"
			},
			{
				"type": "occ",
				"energy": -0.23896,
				"method": "rhf"
			},
			{
				"type": "unocc",
				"energy": -0.07302,
				"method": "rhf"
			},
			{
				"type": "unocc",
				"energy": -0.05615,
				"method": "rhf"
			},
			{
				"type": "unocc",
				"energy": -0.01148,
				"method": "rhf"
			},
			{
				"type": "unocc",
				"energy": 0.0276,
				"method": "rhf"
			},
			{
				"type": "unocc",
				"energy": 0.05345,
				"method": "rhf"
			}
		],
		"cosmo_sigma_profile": { 
			"-0.025": 0.0,
			"-0.024": 0.0,
			"-0.023": 0.0,
			"-0.022": 0.0,
			"-0.021": 0.0,
			"-0.02": 0.0,
			"-0.019": 0.0,
			"-0.018": 0.0,
			"-0.017": 0.0266467691222,
			"-0.016": 1.1163073824,
			"-0.015": 1.59531826082,
			"-0.014": 2.79657191745,
			"-0.013": 2.03327719721,
			"-0.012": 2.35140877473,
			"-0.011": 2.83742989809,
			"-0.01": 1.7976681604,
			"-0.009": 5.71112526493,
			"-0.008": 5.80923491551,
			"-0.007": 9.07289159185,
			"-0.006": 8.00675318629,
			"-0.005": 9.49015347254,
			"-0.004": 8.83822676265,
			"-0.003": 10.4571484657,
			"-0.002": 13.5831302427,
			"-0.001": 13.2846063643,
			"0.0": 16.678181884,
			"0.001": 24.0632600863,
			"0.002": 19.1831307552,
			"0.003": 14.6546318996,
			"0.004": 13.3464815516,
			"0.005": 11.7640045809,
			"0.006": 4.21124150588,
			"0.007": 4.36053232216,
			"0.008": 3.76168629059,
			"0.009": 5.2548528011,
			"0.01": 5.29550532232,
			"0.011": 7.00535691209,
			"0.012": 3.55454555232,
			"0.013": 1.44527933388,
			"0.014": 0.0374681873517,
			"0.015": 0.0,
			"0.016": 0.0,
			"0.017": 0.0,
			"0.018": 0.0,
			"0.019": 0.0,
			"0.02": 0.0,
			"0.021": 0.0,
			"0.022": 0.0,
			"0.023": 0.0,
			"0.024": 0.0,
			"0.025": 0.0
		}
	}
}
