{
	 "smiles": "OC1=C(N=CC=C1)[N+]([O-])=O", 
	 "Tm": 344.15, 
	 "num_atms": 14, 
	 "gaussian": { 
		 "optdone": 1, 
		 "sigma_profile": "yes", 
		 "theory": "DFT", 
		 "functional": "B3LYP", 
		 "basiset": "6-31G**", 
		 "properties": { 
			 "R2extent": 1976.1704, 
			 "electric_dipole_moment_norm": 6.62956803042, 
			 "electric_quadrupole_moment_norm": 12.6775915808, 
			 "total_energy": -527.987725701, 
			 "HOMO_LUMO_gap": 0.19124, 
			 "cosmo_polarized_energy": -16.07, 
			 "cosmo_cavitation_energy": 20.01, 
			 "cosmo_dispersion_energy": -14.53, 
			 "cosmo_repulsion_energy": 1.19, 
			 "cosmo_total_nonelectrostatic_energy": 6.67, 
			 "SMD_solvation_energy": 5.23 
		},
		"coords": [
			{
				"x": -2.1975319938,
				"y": 1.2780776482,
				"z": -0.2370937253,
				"element": "O" 
			},
			{
				"x": -1.8802044599,
				"y": 0.2949376359,
				"z": 0.6385325611,
				"element": "C" 
			},
			{
				"x": -1.4238056222,
				"y": -0.9285149783,
				"z": 0.1311226114,
				"element": "C" 
			},
			{
				"x": -1.0777153778,
				"y": -1.9748923781,
				"z": 0.8483186526,
				"element": "N" 
			},
			{
				"x": -1.1671641504,
				"y": -1.8679468582,
				"z": 2.1812325618,
				"element": "C" 
			},
			{
				"x": -1.6071014991,
				"y": -0.7037081348,
				"z": 2.8094623353,
				"element": "C" 
			},
			{
				"x": -1.9689933905,
				"y": 0.3937908449,
				"z": 2.0283301854,
				"element": "C" 
			},
			{
				"x": -1.3106829347,
				"y": -1.0862607424,
				"z": -1.3425958793,
				"element": "N" 
			},
			{
				"x": -0.2382105285,
				"y": -0.7771849948,
				"z": -1.8468952814,
				"element": "O" 
			},
			{
				"x": -2.2988748478,
				"y": -1.513879997,
				"z": -1.9262547888,
				"element": "O" 
			},
			{
				"x": -2.4962412668,
				"y": 2.0635886029,
				"z": 0.2398684793,
				"element": "H" 
			},
			{
				"x": -0.8768627961,
				"y": -2.7427354128,
				"z": 2.7559455712,
				"element": "H" 
			},
			{
				"x": -1.6670506384,
				"y": -0.6524313458,
				"z": 3.8915487096,
				"element": "H" 
			},
			{
				"x": -2.316160494,
				"y": 1.3164601106,
				"z": 2.4872780071,
				"element": "H" 
			}
		],
		 "valence_orbital": [ 
			{
				"type": "occ",
				"energy": -0.31654,
				"method": "rhf"
			},
			{
				"type": "occ",
				"energy": -0.30981,
				"method": "rhf"
			},
			{
				"type": "occ",
				"energy": -0.29389,
				"method": "rhf"
			},
			{
				"type": "occ",
				"energy": -0.28121,
				"method": "rhf"
			},
			{
				"type": "occ",
				"energy": -0.25723,
				"method": "rhf"
			},
			{
				"type": "unocc",
				"energy": -0.06599,
				"method": "rhf"
			},
			{
				"type": "unocc",
				"energy": -0.05016,
				"method": "rhf"
			},
			{
				"type": "unocc",
				"energy": -0.02713,
				"method": "rhf"
			},
			{
				"type": "unocc",
				"energy": 0.04097,
				"method": "rhf"
			},
			{
				"type": "unocc",
				"energy": 0.07294,
				"method": "rhf"
			}
		],
		"cosmo_sigma_profile": { 
			"-0.025": 0.0,
			"-0.024": 0.0,
			"-0.023": 0.0,
			"-0.022": 0.0,
			"-0.021": 0.0,
			"-0.02": 0.31650936143,
			"-0.019": 1.44351576768,
			"-0.018": 1.35205099751,
			"-0.017": 1.08071103948,
			"-0.016": 1.17850318264,
			"-0.015": 1.21478841667,
			"-0.014": 0.983884708935,
			"-0.013": 0.581397118509,
			"-0.012": 1.24124464059,
			"-0.011": 0.926217543696,
			"-0.01": 1.50092744119,
			"-0.009": 2.36822551933,
			"-0.008": 5.26803677423,
			"-0.007": 7.08779103005,
			"-0.006": 7.09044220791,
			"-0.005": 4.97784327893,
			"-0.004": 4.18658474783,
			"-0.003": 4.49079201047,
			"-0.002": 7.45167201048,
			"-0.001": 11.3410739195,
			"0.0": 11.570493264,
			"0.001": 13.1784774189,
			"0.002": 8.43534651756,
			"0.003": 8.48298342082,
			"0.004": 6.60620391459,
			"0.005": 7.41626721197,
			"0.006": 11.1549869023,
			"0.007": 14.1432911423,
			"0.008": 7.91231784491,
			"0.009": 3.04699555239,
			"0.01": 0.536236815174,
			"0.011": 1.03158924715,
			"0.012": 0.852788632432,
			"0.013": 0.388513108465,
			"0.014": 0.0,
			"0.015": 0.0,
			"0.016": 0.0,
			"0.017": 0.0,
			"0.018": 0.0,
			"0.019": 0.0,
			"0.02": 0.0,
			"0.021": 0.0,
			"0.022": 0.0,
			"0.023": 0.0,
			"0.024": 0.0,
			"0.025": 0.0
		}
	}
}
