{
	 "smiles": "OCCOC1=C(C=CC=N1)C(O)=O", 
	 "Tm": 470.15, 
	 "num_atms": 22, 
	 "gaussian": { 
		 "optdone": 1, 
		 "sigma_profile": "yes", 
		 "theory": "DFT", 
		 "functional": "B3LYP", 
		 "basiset": "6-31G**", 
		 "properties": { 
			 "R2extent": 2621.0603, 
			 "electric_dipole_moment_norm": 5.16819493924, 
			 "electric_quadrupole_moment_norm": 22.2747212955, 
			 "total_energy": -665.912375914, 
			 "HOMO_LUMO_gap": 0.18194, 
			 "cosmo_polarized_energy": -17.86, 
			 "cosmo_cavitation_energy": 25.98, 
			 "cosmo_dispersion_energy": -19.25, 
			 "cosmo_repulsion_energy": 1.53, 
			 "cosmo_total_nonelectrostatic_energy": 8.26, 
			 "SMD_solvation_energy": 4.63 
		},
		"coords": [
			{
				"x": 1.5399811897,
				"y": -1.8701468471,
				"z": 0.5672516178,
				"element": "O" 
			},
			{
				"x": 2.2581853785,
				"y": -0.9413237188,
				"z": -0.2107540784,
				"element": "C" 
			},
			{
				"x": 1.5872142979,
				"y": 0.4288085724,
				"z": -0.2120439343,
				"element": "C" 
			},
			{
				"x": 0.2688601625,
				"y": 0.2262495077,
				"z": -0.7710786167,
				"element": "O" 
			},
			{
				"x": -0.8153626967,
				"y": 0.5669813215,
				"z": -0.0627780984,
				"element": "C" 
			},
			{
				"x": -1.9825289323,
				"y": -0.2141510674,
				"z": -0.2619712687,
				"element": "C" 
			},
			{
				"x": -3.1518642624,
				"y": 0.2104499147,
				"z": 0.3727012077,
				"element": "C" 
			},
			{
				"x": -3.1261094193,
				"y": 1.338998802,
				"z": 1.1925470664,
				"element": "C" 
			},
			{
				"x": -1.9071815039,
				"y": 1.9928674873,
				"z": 1.3563733031,
				"element": "C" 
			},
			{
				"x": -0.7772693599,
				"y": 1.6284356231,
				"z": 0.7369916061,
				"element": "N" 
			},
			{
				"x": -1.9230694739,
				"y": -1.5146005065,
				"z": -0.997942553,
				"element": "C" 
			},
			{
				"x": -3.0108852259,
				"y": -1.8176630089,
				"z": -1.7508735417,
				"element": "O" 
			},
			{
				"x": -1.0126423532,
				"y": -2.3100271803,
				"z": -0.921362491,
				"element": "O" 
			},
			{
				"x": 0.7131467074,
				"y": -2.0708010643,
				"z": 0.0939901347,
				"element": "H" 
			},
			{
				"x": 3.2589466807,
				"y": -0.8415187746,
				"z": 0.2271490935,
				"element": "H" 
			},
			{
				"x": 2.38399368,
				"y": -1.2821075788,
				"z": -1.2505048233,
				"element": "H" 
			},
			{
				"x": 2.1197378635,
				"y": 1.148352178,
				"z": -0.8432748753,
				"element": "H" 
			},
			{
				"x": 1.494657335,
				"y": 0.8347527251,
				"z": 0.7969824933,
				"element": "H" 
			},
			{
				"x": -4.0661739457,
				"y": -0.3689876922,
				"z": 0.2703190842,
				"element": "H" 
			},
			{
				"x": -4.014525308,
				"y": 1.6819591221,
				"z": 1.7104869959,
				"element": "H" 
			},
			{
				"x": -1.8287330572,
				"y": 2.8560491491,
				"z": 2.0145626662,
				"element": "H" 
			},
			{
				"x": -3.5760777567,
				"y": -1.0369769642,
				"z": -1.8394709879,
				"element": "H" 
			}
		],
		 "valence_orbital": [ 
			{
				"type": "occ",
				"energy": -0.30928,
				"method": "rhf"
			},
			{
				"type": "occ",
				"energy": -0.29083,
				"method": "rhf"
			},
			{
				"type": "occ",
				"energy": -0.27934,
				"method": "rhf"
			},
			{
				"type": "occ",
				"energy": -0.26026,
				"method": "rhf"
			},
			{
				"type": "occ",
				"energy": -0.24468,
				"method": "rhf"
			},
			{
				"type": "unocc",
				"energy": -0.06274,
				"method": "rhf"
			},
			{
				"type": "unocc",
				"energy": -0.03072,
				"method": "rhf"
			},
			{
				"type": "unocc",
				"energy": 0.01923,
				"method": "rhf"
			},
			{
				"type": "unocc",
				"energy": 0.05721,
				"method": "rhf"
			},
			{
				"type": "unocc",
				"energy": 0.09121,
				"method": "rhf"
			}
		],
		"cosmo_sigma_profile": { 
			"-0.025": 0.0,
			"-0.024": 0.0,
			"-0.023": 0.0,
			"-0.022": 0.0,
			"-0.021": 0.0,
			"-0.02": 0.031935820898,
			"-0.019": 0.699835300077,
			"-0.018": 1.04824855451,
			"-0.017": 1.01519807732,
			"-0.016": 0.797151159286,
			"-0.015": 0.836633882791,
			"-0.014": 1.07249296755,
			"-0.013": 0.915323876219,
			"-0.012": 1.71147903302,
			"-0.011": 0.965910188302,
			"-0.01": 1.25417860012,
			"-0.009": 2.54135221572,
			"-0.008": 3.05098209244,
			"-0.007": 7.94464698092,
			"-0.006": 10.4307271498,
			"-0.005": 15.7343571927,
			"-0.004": 15.2957289834,
			"-0.003": 12.1925459135,
			"-0.002": 11.1625976128,
			"-0.001": 14.0403509739,
			"0.0": 15.5595948747,
			"0.001": 14.2024185869,
			"0.002": 11.0284052181,
			"0.003": 7.84129593233,
			"0.004": 5.43418006194,
			"0.005": 5.88482196668,
			"0.006": 6.26109873222,
			"0.007": 6.82720801475,
			"0.008": 7.00102887609,
			"0.009": 4.98294599236,
			"0.01": 6.18090587202,
			"0.011": 3.84471502091,
			"0.012": 3.77660150725,
			"0.013": 1.43927782668,
			"0.014": 2.24530582437,
			"0.015": 1.61076049944,
			"0.016": 0.0,
			"0.017": 0.0,
			"0.018": 0.0,
			"0.019": 0.0,
			"0.02": 0.0,
			"0.021": 0.0,
			"0.022": 0.0,
			"0.023": 0.0,
			"0.024": 0.0,
			"0.025": 0.0
		}
	}
}
