{
	 "smiles": "CC1CC2=C(C=CC=C2)N1S(=O)(=O)C1=CC(=CC=C1)C(O)=O", 
	 "Tm": 444.15, 
	 "num_atms": 37, 
	 "gaussian": { 
		 "optdone": 1, 
		 "sigma_profile": "yes", 
		 "theory": "DFT", 
		 "functional": "B3LYP", 
		 "basiset": "6-31G**", 
		 "properties": { 
			 "R2extent": 7655.9144, 
			 "electric_dipole_moment_norm": 3.63334682352, 
			 "electric_quadrupole_moment_norm": 13.6263943136, 
			 "total_energy": -1372.53060779, 
			 "HOMO_LUMO_gap": 0.15334, 
			 "cosmo_polarized_energy": -17.99, 
			 "cosmo_cavitation_energy": 42.05, 
			 "cosmo_dispersion_energy": -28.91, 
			 "cosmo_repulsion_energy": 2.16, 
			 "cosmo_total_nonelectrostatic_energy": 15.3, 
			 "SMD_solvation_energy": 6.97 
		},
		"coords": [
			{
				"x": 2.2869512198,
				"y": -0.7490239619,
				"z": 1.3171287315,
				"element": "C" 
			},
			{
				"x": 1.5304701693,
				"y": 0.5676350014,
				"z": 1.1394165072,
				"element": "C" 
			},
			{
				"x": 1.3123225327,
				"y": 1.3231822416,
				"z": 2.4764356813,
				"element": "C" 
			},
			{
				"x": -0.0932925849,
				"y": 0.9275292402,
				"z": 2.8623239102,
				"element": "C" 
			},
			{
				"x": -0.7494761587,
				"y": 0.3739605783,
				"z": 1.7567700177,
				"element": "C" 
			},
			{
				"x": -2.0683460744,
				"y": -0.0691519389,
				"z": 1.8331494053,
				"element": "C" 
			},
			{
				"x": -2.7323620998,
				"y": 0.0690200055,
				"z": 3.055617196,
				"element": "C" 
			},
			{
				"x": -2.0881490843,
				"y": 0.6146235836,
				"z": 4.1695155394,
				"element": "C" 
			},
			{
				"x": -0.7596308644,
				"y": 1.0441916799,
				"z": 4.0777216885,
				"element": "C" 
			},
			{
				"x": 0.1405026404,
				"y": 0.2729417409,
				"z": 0.6312130819,
				"element": "N" 
			},
			{
				"x": -0.3127300752,
				"y": 1.0878354741,
				"z": -0.8070908291,
				"element": "S" 
			},
			{
				"x": -1.7349783083,
				"y": 0.8078477638,
				"z": -1.0127559426,
				"element": "O" 
			},
			{
				"x": 0.1825537129,
				"y": 2.4723223096,
				"z": -0.8245571497,
				"element": "O" 
			},
			{
				"x": 0.6453909865,
				"y": 0.1685470927,
				"z": -2.0199578268,
				"element": "C" 
			},
			{
				"x": 0.4091685549,
				"y": -1.1963633243,
				"z": -2.1861724632,
				"element": "C" 
			},
			{
				"x": 1.1233568728,
				"y": -1.888730141,
				"z": -3.1690226853,
				"element": "C" 
			},
			{
				"x": 2.050002962,
				"y": -1.209738603,
				"z": -3.9749329312,
				"element": "C" 
			},
			{
				"x": 2.2646300956,
				"y": 0.1542419018,
				"z": -3.8019940911,
				"element": "C" 
			},
			{
				"x": 1.5595148144,
				"y": 0.8552113908,
				"z": -2.8195884835,
				"element": "C" 
			},
			{
				"x": 0.932735291,
				"y": -3.3479602943,
				"z": -3.40245233,
				"element": "C" 
			},
			{
				"x": 0.0187909591,
				"y": -3.899881565,
				"z": -2.5704090951,
				"element": "O" 
			},
			{
				"x": 1.5251576278,
				"y": -3.9932085815,
				"z": -4.2433665862,
				"element": "O" 
			},
			{
				"x": 2.3499694579,
				"y": -1.2934466042,
				"z": 0.3713198796,
				"element": "H" 
			},
			{
				"x": 1.7817697079,
				"y": -1.3888098559,
				"z": 2.0477728668,
				"element": "H" 
			},
			{
				"x": 3.3038043706,
				"y": -0.5553543695,
				"z": 1.6751600958,
				"element": "H" 
			},
			{
				"x": 2.0454621128,
				"y": 1.1993815966,
				"z": 0.4128862596,
				"element": "H" 
			},
			{
				"x": 2.0613329122,
				"y": 1.0350288578,
				"z": 3.2209751795,
				"element": "H" 
			},
			{
				"x": 1.3856758964,
				"y": 2.4086677297,
				"z": 2.3361041034,
				"element": "H" 
			},
			{
				"x": -2.5622645204,
				"y": -0.490981042,
				"z": 0.9673093973,
				"element": "H" 
			},
			{
				"x": -3.7629112466,
				"y": -0.2634160057,
				"z": 3.1386919721,
				"element": "H" 
			},
			{
				"x": -2.619776226,
				"y": 0.7023852862,
				"z": 5.1123451792,
				"element": "H" 
			},
			{
				"x": -0.2571641398,
				"y": 1.4675261366,
				"z": 4.943325975,
				"element": "H" 
			},
			{
				"x": -0.3113121415,
				"y": -1.7121789169,
				"z": -1.5632455096,
				"element": "H" 
			},
			{
				"x": 2.5866857957,
				"y": -1.7741845793,
				"z": -4.7298744817,
				"element": "H" 
			},
			{
				"x": 2.9789739321,
				"y": 0.6771575464,
				"z": -4.4299401082,
				"element": "H" 
			},
			{
				"x": 1.7051330778,
				"y": 1.9189690618,
				"z": -2.666608916,
				"element": "H" 
			},
			{
				"x": -0.0302621782,
				"y": -4.8401764359,
				"z": -2.8090132381,
				"element": "H" 
			}
		],
		 "valence_orbital": [ 
			{
				"type": "occ",
				"energy": -0.28938,
				"method": "rhf"
			},
			{
				"type": "occ",
				"energy": -0.2839,
				"method": "rhf"
			},
			{
				"type": "occ",
				"energy": -0.27831,
				"method": "rhf"
			},
			{
				"type": "occ",
				"energy": -0.24783,
				"method": "rhf"
			},
			{
				"type": "occ",
				"energy": -0.22062,
				"method": "rhf"
			},
			{
				"type": "unocc",
				"energy": -0.06728,
				"method": "rhf"
			},
			{
				"type": "unocc",
				"energy": -0.04688,
				"method": "rhf"
			},
			{
				"type": "unocc",
				"energy": -0.00677,
				"method": "rhf"
			},
			{
				"type": "unocc",
				"energy": -0.00221,
				"method": "rhf"
			},
			{
				"type": "unocc",
				"energy": 0.03222,
				"method": "rhf"
			}
		],
		"cosmo_sigma_profile": { 
			"-0.025": 0.0,
			"-0.024": 0.0,
			"-0.023": 0.0,
			"-0.022": 0.0,
			"-0.021": 0.0,
			"-0.02": 0.0,
			"-0.019": 0.25769910095,
			"-0.018": 0.793089898843,
			"-0.017": 1.15210125615,
			"-0.016": 0.878577354421,
			"-0.015": 0.337952044606,
			"-0.014": 1.42017952532,
			"-0.013": 0.287403218152,
			"-0.012": 0.458313044407,
			"-0.011": 0.648572697882,
			"-0.01": 0.683842356375,
			"-0.009": 0.845496021972,
			"-0.008": 2.28468290993,
			"-0.007": 7.14258009634,
			"-0.006": 12.6688723655,
			"-0.005": 20.787722912,
			"-0.004": 28.809635731,
			"-0.003": 31.6454444465,
			"-0.002": 31.995100986,
			"-0.001": 30.6446195575,
			"0.0": 30.1788206543,
			"0.001": 24.2793740487,
			"0.002": 15.7291220505,
			"0.003": 13.0054781434,
			"0.004": 14.9502825235,
			"0.005": 14.482178969,
			"0.006": 8.97114591145,
			"0.007": 5.54578406294,
			"0.008": 5.54374064105,
			"0.009": 6.41858109221,
			"0.01": 9.09674476197,
			"0.011": 11.2670799348,
			"0.012": 2.12064526312,
			"0.013": 0.0,
			"0.014": 0.0,
			"0.015": 0.0,
			"0.016": 0.0,
			"0.017": 0.0,
			"0.018": 0.0,
			"0.019": 0.0,
			"0.02": 0.0,
			"0.021": 0.0,
			"0.022": 0.0,
			"0.023": 0.0,
			"0.024": 0.0,
			"0.0": 0.0
		}
	}
}
