{
	 "smiles": "CCN(C1=CC=CC=C1)S(=O)(=O)C1=CN=C(NN)C=C1", 
	 "Tm": 449.15, 
	 "num_atms": 36, 
	 "gaussian": { 
		 "optdone": 1, 
		 "sigma_profile": "yes", 
		 "theory": "DFT", 
		 "functional": "B3LYP", 
		 "basiset": "6-31G**", 
		 "properties": { 
			 "R2extent": 6668.6475, 
			 "electric_dipole_moment_norm": 5.33893757502, 
			 "electric_quadrupole_moment_norm": 12.6093712159, 
			 "total_energy": -1272.56570673, 
			 "HOMO_LUMO_gap": 0.18847, 
			 "cosmo_polarized_energy": -19.39, 
			 "cosmo_cavitation_energy": 40.44, 
			 "cosmo_dispersion_energy": -28.06, 
			 "cosmo_repulsion_energy": 2.16, 
			 "cosmo_total_nonelectrostatic_energy": 14.54, 
			 "SMD_solvation_energy": 5.05 
		},
		"coords": [
			{
				"x": -1.4335742609,
				"y": 0.1030025637,
				"z": -2.8962153542,
				"element": "C" 
			},
			{
				"x": -0.6465442552,
				"y": -0.6319951553,
				"z": -1.812489553,
				"element": "C" 
			},
			{
				"x": -1.1497976253,
				"y": -0.2966480467,
				"z": -0.4630154969,
				"element": "N" 
			},
			{
				"x": -1.076322643,
				"y": 1.0692618829,
				"z": -0.019958278,
				"element": "C" 
			},
			{
				"x": 0.0421410016,
				"y": 1.8696713012,
				"z": -0.2943117211,
				"element": "C" 
			},
			{
				"x": 0.0693839652,
				"y": 3.2021385967,
				"z": 0.1199919535,
				"element": "C" 
			},
			{
				"x": -1.0064879611,
				"y": 3.7413029422,
				"z": 0.8265913099,
				"element": "C" 
			},
			{
				"x": -2.1170434599,
				"y": 2.942179423,
				"z": 1.1087466647,
				"element": "C" 
			},
			{
				"x": -2.1603936053,
				"y": 1.6166765744,
				"z": 0.6799199526,
				"element": "C" 
			},
			{
				"x": -0.9583044552,
				"y": -1.5025151315,
				"z": 0.7355098428,
				"element": "S" 
			},
			{
				"x": -1.1985090023,
				"y": -2.7805253151,
				"z": 0.0601647777,
				"element": "O" 
			},
			{
				"x": -1.7550036856,
				"y": -1.07475057,
				"z": 1.8858081724,
				"element": "O" 
			},
			{
				"x": 0.7516704603,
				"y": -1.4695260728,
				"z": 1.2354701505,
				"element": "C" 
			},
			{
				"x": 1.6840244328,
				"y": -2.3126016654,
				"z": 0.6338060493,
				"element": "C" 
			},
			{
				"x": 2.9827295921,
				"y": -2.3187649925,
				"z": 0.952476277,
				"element": "N" 
			},
			{
				"x": 3.3982664642,
				"y": -1.4692459063,
				"z": 1.9079541447,
				"element": "C" 
			},
			{
				"x": 4.7291372505,
				"y": -1.5087025076,
				"z": 2.235501787,
				"element": "N" 
			},
			{
				"x": 5.6754631289,
				"y": -2.2433156648,
				"z": 1.4982159955,
				"element": "N" 
			},
			{
				"x": 2.5237043524,
				"y": -0.5779137532,
				"z": 2.5803400898,
				"element": "C" 
			},
			{
				"x": 1.1884562314,
				"y": -0.5829576961,
				"z": 2.236980299,
				"element": "C" 
			},
			{
				"x": -2.4967801981,
				"y": -0.1431012729,
				"z": -2.8291496722,
				"element": "H" 
			},
			{
				"x": -1.0675628678,
				"y": -0.1998371663,
				"z": -3.8824412811,
				"element": "H" 
			},
			{
				"x": -1.3252184864,
				"y": 1.187759455,
				"z": -2.8133602699,
				"element": "H" 
			},
			{
				"x": -0.7786775337,
				"y": -1.7077753059,
				"z": -1.9302556291,
				"element": "H" 
			},
			{
				"x": 0.4289734745,
				"y": -0.4196933578,
				"z": -1.9063537641,
				"element": "H" 
			},
			{
				"x": 0.8883762823,
				"y": 1.4562113286,
				"z": -0.8331663711,
				"element": "H" 
			},
			{
				"x": 0.9371512809,
				"y": 3.8155510048,
				"z": -0.1053841544,
				"element": "H" 
			},
			{
				"x": -0.9822607929,
				"y": 4.7776306106,
				"z": 1.1505397222,
				"element": "H" 
			},
			{
				"x": -2.9608148244,
				"y": 3.3551904745,
				"z": 1.653784087,
				"element": "H" 
			},
			{
				"x": -3.0190966847,
				"y": 0.9895841154,
				"z": 0.8860241186,
				"element": "H" 
			},
			{
				"x": 1.3646992861,
				"y": -3.0242701935,
				"z": -0.1231798381,
				"element": "H" 
			},
			{
				"x": 5.120502259,
				"y": -0.7427199869,
				"z": 2.7620755976,
				"element": "H" 
			},
			{
				"x": 5.5455249127,
				"y": -3.2280776927,
				"z": 1.7270386969,
				"element": "H" 
			},
			{
				"x": 5.4345387965,
				"y": -2.1648957363,
				"z": 0.5094731302,
				"element": "H" 
			},
			{
				"x": 2.9003925667,
				"y": 0.0811608133,
				"z": 3.3567545568,
				"element": "H" 
			},
			{
				"x": 0.4766566035,
				"y": 0.0644121032,
				"z": 2.7372140078,
				"element": "H" 
			}
		],
		 "valence_orbital": [ 
			{
				"type": "occ",
				"energy": -0.28006,
				"method": "rhf"
			},
			{
				"type": "occ",
				"energy": -0.27065,
				"method": "rhf"
			},
			{
				"type": "occ",
				"energy": -0.25682,
				"method": "rhf"
			},
			{
				"type": "occ",
				"energy": -0.24038,
				"method": "rhf"
			},
			{
				"type": "occ",
				"energy": -0.2237,
				"method": "rhf"
			},
			{
				"type": "unocc",
				"energy": -0.03523,
				"method": "rhf"
			},
			{
				"type": "unocc",
				"energy": -0.03021,
				"method": "rhf"
			},
			{
				"type": "unocc",
				"energy": -0.01232,
				"method": "rhf"
			},
			{
				"type": "unocc",
				"energy": -0.00739,
				"method": "rhf"
			},
			{
				"type": "unocc",
				"energy": 0.06562,
				"method": "rhf"
			}
		],
		"cosmo_sigma_profile": { 
			"-0.025": 0.0,
			"-0.024": 0.0,
			"-0.023": 0.0,
			"-0.022": 0.0,
			"-0.021": 0.0,
			"-0.02": 0.0,
			"-0.019": 0.0,
			"-0.018": 0.0,
			"-0.017": 0.0,
			"-0.016": 0.0,
			"-0.015": 0.232540738096,
			"-0.014": 1.45802655579,
			"-0.013": 1.2165821917,
			"-0.012": 1.28854417031,
			"-0.011": 2.72406816219,
			"-0.01": 3.30029306027,
			"-0.009": 3.50593552993,
			"-0.008": 5.27378753266,
			"-0.007": 7.91733058533,
			"-0.006": 14.3072152651,
			"-0.005": 19.3529391939,
			"-0.004": 24.6594893266,
			"-0.003": 25.4017102841,
			"-0.002": 24.4816812616,
			"-0.001": 21.6738333073,
			"0.0": 26.1425208292,
			"0.001": 24.553424834,
			"0.002": 20.183548641,
			"0.003": 18.0651836231,
			"0.004": 16.8725693674,
			"0.005": 13.7118271261,
			"0.006": 6.18539364,
			"0.007": 4.05610876679,
			"0.008": 5.92624661703,
			"0.009": 5.27621552686,
			"0.01": 7.73235236793,
			"0.011": 8.93226882137,
			"0.012": 3.62521335825,
			"0.013": 0.795267541484,
			"0.014": 0.802122570576,
			"0.015": 0.547884405324,
			"0.016": 0.546162513362,
			"0.017": 0.228452785296,
			"0.018": 0.0,
			"0.019": 0.0,
			"0.02": 0.0,
			"0.021": 0.0,
			"0.022": 0.0,
			"0.023": 0.0,
			"0.024": 0.0,
			"0.025": 0.0
		}
	}
}
