{
	 "smiles": "CC1=C(CCC(=O)N1)C#N", 
	 "Tm": 475.15, 
	 "num_atms": 18, 
	 "gaussian": { 
		 "optdone": 1, 
		 "sigma_profile": "yes", 
		 "theory": "DFT", 
		 "functional": "B3LYP", 
		 "basiset": "6-31G**", 
		 "properties": { 
			 "R2extent": 2867.6693, 
			 "electric_dipole_moment_norm": 2.24207675605, 
			 "electric_quadrupole_moment_norm": 22.3824736852, 
			 "total_energy": -456.294071774, 
			 "HOMO_LUMO_gap": 0.18852, 
			 "cosmo_polarized_energy": -16.06, 
			 "cosmo_cavitation_energy": 22.4, 
			 "cosmo_dispersion_energy": -16.09, 
			 "cosmo_repulsion_energy": 1.33, 
			 "cosmo_total_nonelectrostatic_energy": 7.65, 
			 "SMD_solvation_energy": 5.73 
		},
		"coords": [
			{
				"x": -1.3745401755,
				"y": -0.2002292416,
				"z": 1.2629621262,
				"element": "C" 
			},
			{
				"x": -0.1474759706,
				"y": -1.0552310661,
				"z": 1.3805779867,
				"element": "C" 
			},
			{
				"x": -0.1055072296,
				"y": -2.3023599965,
				"z": 1.9183999772,
				"element": "C" 
			},
			{
				"x": 1.2217283859,
				"y": -3.0306193052,
				"z": 2.0472977932,
				"element": "C" 
			},
			{
				"x": 2.1708193391,
				"y": -2.6383119292,
				"z": 0.9065666498,
				"element": "C" 
			},
			{
				"x": 2.2287649137,
				"y": -1.1398559231,
				"z": 0.6670350719,
				"element": "C" 
			},
			{
				"x": 3.2018976944,
				"y": -0.5391352588,
				"z": 0.2512576634,
				"element": "O" 
			},
			{
				"x": 1.0264620623,
				"y": -0.477478648,
				"z": 0.8998859255,
				"element": "N" 
			},
			{
				"x": -1.2842742919,
				"y": -2.9204802942,
				"z": 2.4184821287,
				"element": "C" 
			},
			{
				"x": -2.2311226667,
				"y": -3.4572593273,
				"z": 2.8371915588,
				"element": "N" 
			},
			{
				"x": -2.2486845413,
				"y": -0.7103098643,
				"z": 1.6679487468,
				"element": "H" 
			},
			{
				"x": -1.2397965756,
				"y": 0.7404347592,
				"z": 1.8108816621,
				"element": "H" 
			},
			{
				"x": -1.5693571821,
				"y": 0.0533007668,
				"z": 0.2143974068,
				"element": "H" 
			},
			{
				"x": 1.0632894029,
				"y": -4.1123358293,
				"z": 2.0456060625,
				"element": "H" 
			},
			{
				"x": 1.677152918,
				"y": -2.7848371417,
				"z": 3.017139429,
				"element": "H" 
			},
			{
				"x": 1.8272201782,
				"y": -3.0894585447,
				"z": -0.0346268524,
				"element": "H" 
			},
			{
				"x": 3.1903281832,
				"y": -2.9879303027,
				"z": 1.0800085312,
				"element": "H" 
			},
			{
				"x": 1.0232955556,
				"y": 0.4986971467,
				"z": 0.6320881328,
				"element": "H" 
			}
		],
		 "valence_orbital": [ 
			{
				"type": "occ",
				"energy": -0.35173,
				"method": "rhf"
			},
			{
				"type": "occ",
				"energy": -0.32857,
				"method": "rhf"
			},
			{
				"type": "occ",
				"energy": -0.32342,
				"method": "rhf"
			},
			{
				"type": "occ",
				"energy": -0.27286,
				"method": "rhf"
			},
			{
				"type": "occ",
				"energy": -0.23625,
				"method": "rhf"
			},
			{
				"type": "unocc",
				"energy": -0.04773,
				"method": "rhf"
			},
			{
				"type": "unocc",
				"energy": 0.0157,
				"method": "rhf"
			},
			{
				"type": "unocc",
				"energy": 0.03383,
				"method": "rhf"
			},
			{
				"type": "unocc",
				"energy": 0.06432,
				"method": "rhf"
			},
			{
				"type": "unocc",
				"energy": 0.09034,
				"method": "rhf"
			}
		],
		"cosmo_sigma_profile": { 
			"-0.025": 0.0,
			"-0.024": 0.0,
			"-0.023": 0.0,
			"-0.022": 0.0,
			"-0.021": 0.0,
			"-0.02": 0.0,
			"-0.019": 0.0,
			"-0.018": 0.0,
			"-0.017": 0.0,
			"-0.016": 0.27223409713,
			"-0.015": 0.893514614808,
			"-0.014": 1.13413957621,
			"-0.013": 1.23281643483,
			"-0.012": 0.813481509202,
			"-0.011": 1.10479757117,
			"-0.01": 1.38929527053,
			"-0.009": 1.60164055196,
			"-0.008": 1.25500565571,
			"-0.007": 4.80695151976,
			"-0.006": 12.4641236204,
			"-0.005": 18.0564527136,
			"-0.004": 18.4980616861,
			"-0.003": 17.5004042394,
			"-0.002": 17.9294369103,
			"-0.001": 11.1610853713,
			"0.0": 8.68269639824,
			"0.001": 5.34249851377,
			"0.002": 2.71889370695,
			"0.003": 3.09395851442,
			"0.004": 3.4136037517,
			"0.005": 2.90874640486,
			"0.006": 2.99707304595,
			"0.007": 4.35181588571,
			"0.008": 3.47607781779,
			"0.009": 3.54505441768,
			"0.01": 6.0754968425,
			"0.011": 5.42832119212,
			"0.012": 8.23206893661,
			"0.013": 5.80160544729,
			"0.014": 1.92793518771,
			"0.015": 0.0511215862688,
			"0.016": 0.0,
			"0.017": 0.0,
			"0.018": 0.0,
			"0.019": 0.0,
			"0.02": 0.0,
			"0.021": 0.0,
			"0.022": 0.0,
			"0.023": 0.0,
			"0.024": 0.0,
			"0.025": 0.0
		}
	}
}
