{
	 "smiles": "CC1=C(C)C(C)=C(C(=C)O[Si](C)(C)C)C(C)=C1C", 
	 "Tm": 314.15, 
	 "num_atms": 44, 
	 "gaussian": { 
		 "optdone": 1, 
		 "sigma_profile": "yes", 
		 "theory": "DFT", 
		 "functional": "B3LYP", 
		 "basiset": "6-31G**", 
		 "properties": { 
			 "R2extent": 5459.7925, 
			 "electric_dipole_moment_norm": 1.69012230918, 
			 "electric_quadrupole_moment_norm": 4.17829861786, 
			 "total_energy": -990.174581636, 
			 "HOMO_LUMO_gap": 0.21413, 
			 "cosmo_polarized_energy": -5.43, 
			 "cosmo_cavitation_energy": 44.48, 
			 "cosmo_dispersion_energy": -26.92, 
			 "cosmo_repulsion_energy": 2.18, 
			 "cosmo_total_nonelectrostatic_energy": 19.74, 
			 "SMD_solvation_energy": 9.19 
		},
		"coords": [
			{
				"x": -2.1109323837,
				"y": 2.1326737811,
				"z": 2.8185314406,
				"element": "C" 
			},
			{
				"x": -1.229875193,
				"y": 1.694917387,
				"z": 1.6647446367,
				"element": "C" 
			},
			{
				"x": 0.080830233,
				"y": 1.2431460742,
				"z": 1.9094211344,
				"element": "C" 
			},
			{
				"x": 0.5842790234,
				"y": 1.1592432522,
				"z": 3.3382729433,
				"element": "C" 
			},
			{
				"x": 0.9151806425,
				"y": 0.8757533086,
				"z": 0.8321749841,
				"element": "C" 
			},
			{
				"x": 2.3287717596,
				"y": 0.3973928289,
				"z": 1.1061699982,
				"element": "C" 
			},
			{
				"x": 0.4173515336,
				"y": 0.9610268278,
				"z": -0.4858630765,
				"element": "C" 
			},
			{
				"x": 1.2643580356,
				"y": 0.568852018,
				"z": -1.6610916349,
				"element": "C" 
			},
			{
				"x": 2.2792736731,
				"y": 1.3043707011,
				"z": -2.1299508157,
				"element": "C" 
			},
			{
				"x": 0.8851341909,
				"y": -0.56543814,
				"z": -2.3395311903,
				"element": "O" 
			},
			{
				"x": 0.5973132057,
				"y": -2.1585068505,
				"z": -1.8538918966,
				"element": "Si" 
			},
			{
				"x": 2.1583589814,
				"y": -2.8824922208,
				"z": -1.0829068388,
				"element": "C" 
			},
			{
				"x": 0.1882683647,
				"y": -3.0322242605,
				"z": -3.4673093253,
				"element": "C" 
			},
			{
				"x": -0.8469306224,
				"y": -2.2955265326,
				"z": -0.6511720382,
				"element": "C" 
			},
			{
				"x": -0.9022328483,
				"y": 1.4001346644,
				"z": -0.7328373655,
				"element": "C" 
			},
			{
				"x": -1.4136826797,
				"y": 1.5325843637,
				"z": -2.1544387195,
				"element": "C" 
			},
			{
				"x": -1.7308696034,
				"y": 1.7476076579,
				"z": 0.3486436964,
				"element": "C" 
			},
			{
				"x": -3.1626997647,
				"y": 2.1852379897,
				"z": 0.108023705,
				"element": "C" 
			},
			{
				"x": -1.5250186098,
				"y": 2.4829625978,
				"z": 3.6697858172,
				"element": "H" 
			},
			{
				"x": -2.7469165376,
				"y": 1.3128734939,
				"z": 3.1809578855,
				"element": "H" 
			},
			{
				"x": -2.7776132614,
				"y": 2.9483513253,
				"z": 2.5292999881,
				"element": "H" 
			},
			{
				"x": 0.7828427414,
				"y": 2.1547798975,
				"z": 3.7572554173,
				"element": "H" 
			},
			{
				"x": 1.5097974502,
				"y": 0.5902493232,
				"z": 3.418759384,
				"element": "H" 
			},
			{
				"x": -0.14814263,
				"y": 0.6794488869,
				"z": 3.9951065199,
				"element": "H" 
			},
			{
				"x": 2.3360458329,
				"y": -0.5016320811,
				"z": 1.7342548119,
				"element": "H" 
			},
			{
				"x": 2.9138668769,
				"y": 1.1575796268,
				"z": 1.6367098421,
				"element": "H" 
			},
			{
				"x": 2.8585909051,
				"y": 0.1683518939,
				"z": 0.1830798729,
				"element": "H" 
			},
			{
				"x": 2.5470364359,
				"y": 2.2385027536,
				"z": -1.6511135549,
				"element": "H" 
			},
			{
				"x": 2.8413898701,
				"y": 0.988154384,
				"z": -3.0020597052,
				"element": "H" 
			},
			{
				"x": 3.0134422468,
				"y": -2.7900313445,
				"z": -1.7607824829,
				"element": "H" 
			},
			{
				"x": 2.019925826,
				"y": -3.9477564994,
				"z": -0.8635937026,
				"element": "H" 
			},
			{
				"x": 2.4208820778,
				"y": -2.3842207305,
				"z": -0.1444049027,
				"element": "H" 
			},
			{
				"x": 1.0195978548,
				"y": -2.9614033145,
				"z": -4.1760294591,
				"element": "H" 
			},
			{
				"x": -0.6932332616,
				"y": -2.5894683494,
				"z": -3.9425209086,
				"element": "H" 
			},
			{
				"x": -0.0209287238,
				"y": -4.094664582,
				"z": -3.2985670089,
				"element": "H" 
			},
			{
				"x": -1.7620619231,
				"y": -1.8720153912,
				"z": -1.0776305981,
				"element": "H" 
			},
			{
				"x": -0.6494134559,
				"y": -1.7759475837,
				"z": 0.290709939,
				"element": "H" 
			},
			{
				"x": -1.0432963533,
				"y": -3.3500102927,
				"z": -0.422083002,
				"element": "H" 
			},
			{
				"x": -0.60733532,
				"y": 1.4438887372,
				"z": -2.8815789362,
				"element": "H" 
			},
			{
				"x": -2.1567719215,
				"y": 0.7617761423,
				"z": -2.3947325418,
				"element": "H" 
			},
			{
				"x": -1.8968340622,
				"y": 2.5025048969,
				"z": -2.3106487568,
				"element": "H" 
			},
			{
				"x": -3.5316701645,
				"y": 1.8578890499,
				"z": -0.8645099965,
				"element": "H" 
			},
			{
				"x": -3.8389146121,
				"y": 1.7759085865,
				"z": 0.8637742373,
				"element": "H" 
			},
			{
				"x": -3.2694638297,
				"y": 3.2782757231,
				"z": 0.1426722038,
				"element": "H" 
			}
		],
		 "valence_orbital": [ 
			{
				"type": "occ",
				"energy": -0.29225,
				"method": "rhf"
			},
			{
				"type": "occ",
				"energy": -0.27321,
				"method": "rhf"
			},
			{
				"type": "occ",
				"energy": -0.22984,
				"method": "rhf"
			},
			{
				"type": "occ",
				"energy": -0.21772,
				"method": "rhf"
			},
			{
				"type": "occ",
				"energy": -0.21315,
				"method": "rhf"
			},
			{
				"type": "unocc",
				"energy": 0.00098,
				"method": "rhf"
			},
			{
				"type": "unocc",
				"energy": 0.00924,
				"method": "rhf"
			},
			{
				"type": "unocc",
				"energy": 0.04175,
				"method": "rhf"
			},
			{
				"type": "unocc",
				"energy": 0.07133,
				"method": "rhf"
			},
			{
				"type": "unocc",
				"energy": 0.08654,
				"method": "rhf"
			}
		],
		"cosmo_sigma_profile": { 
			"-0.025": 0.0,
			"-0.024": 0.0,
			"-0.023": 0.0,
			"-0.022": 0.0,
			"-0.021": 0.0,
			"-0.02": 0.0,
			"-0.019": 0.0,
			"-0.018": 0.0,
			"-0.017": 0.0,
			"-0.016": 0.0,
			"-0.015": 0.0,
			"-0.014": 0.0,
			"-0.013": 0.0,
			"-0.012": 0.0,
			"-0.011": 0.0,
			"-0.01": 0.0,
			"-0.009": 0.0,
			"-0.008": 0.0,
			"-0.007": 0.0,
			"-0.006": 0.0,
			"-0.005": 1.28053073594,
			"-0.004": 16.8404803238,
			"-0.003": 45.6056742646,
			"-0.002": 47.5404511738,
			"-0.001": 50.9694836548,
			"0.0": 48.8817814641,
			"0.001": 51.1745614678,
			"0.002": 26.561875595,
			"0.003": 16.3020020829,
			"0.004": 12.1409002974,
			"0.005": 11.1915761871,
			"0.006": 5.03373561165,
			"0.007": 3.8509576145,
			"0.008": 1.36649086226,
			"0.009": 0.990875606878,
			"0.01": 0.920051517481,
			"0.011": 0.636638131672,
			"0.012": 0.377420586291,
			"0.013": 0.0,
			"0.014": 0.0,
			"0.015": 0.0,
			"0.016": 0.0,
			"0.017": 0.0,
			"0.018": 0.0,
			"0.019": 0.0,
			"0.02": 0.0,
			"0.021": 0.0,
			"0.022": 0.0,
			"0.023": 0.0,
			"0.024": 0.0,
			"0.025": 0.0
		}
	}
}
