{
	 "smiles": "CCNC1=NC2=NN=C(S)N2C(NCC)=N1", 
	 "Tm": 372.15, 
	 "num_atms": 29, 
	 "gaussian": { 
		 "optdone": 1, 
		 "sigma_profile": "yes", 
		 "theory": "DFT", 
		 "functional": "B3LYP", 
		 "basiset": "6-31G**", 
		 "properties": { 
			 "R2extent": 5759.5016, 
			 "electric_dipole_moment_norm": 8.05905402513, 
			 "electric_quadrupole_moment_norm": 40.4404934329, 
			 "total_energy": -1094.13269431, 
			 "HOMO_LUMO_gap": 0.17486, 
			 "cosmo_polarized_energy": -24.44, 
			 "cosmo_cavitation_energy": 34.34, 
			 "cosmo_dispersion_energy": -24.81, 
			 "cosmo_repulsion_energy": 1.93, 
			 "cosmo_total_nonelectrostatic_energy": 11.45, 
			 "SMD_solvation_energy": 0.5 
		},
		"coords": [
			{
				"x": 1.4620298051,
				"y": -3.1196161688,
				"z": 0.0003299726,
				"element": "C" 
			},
			{
				"x": 0.5440181964,
				"y": -2.4091916681,
				"z": 1.0014379171,
				"element": "C" 
			},
			{
				"x": -0.8296226854,
				"y": -2.2721981702,
				"z": 0.5412102328,
				"element": "N" 
			},
			{
				"x": -1.3032318924,
				"y": -1.2775693221,
				"z": -0.2532731791,
				"element": "C" 
			},
			{
				"x": -2.5488596884,
				"y": -1.4063263991,
				"z": -0.6989176657,
				"element": "N" 
			},
			{
				"x": -2.9913738895,
				"y": -0.3866985237,
				"z": -1.4469133155,
				"element": "C" 
			},
			{
				"x": -4.1774758322,
				"y": -0.2377591696,
				"z": -2.0251710515,
				"element": "N" 
			},
			{
				"x": -4.160837223,
				"y": 0.9577957485,
				"z": -2.6891385875,
				"element": "N" 
			},
			{
				"x": -3.0021641122,
				"y": 1.5467727188,
				"z": -2.5250931997,
				"element": "C" 
			},
			{
				"x": -2.5638908842,
				"y": 3.1102316344,
				"z": -3.2217928639,
				"element": "S" 
			},
			{
				"x": -2.1832438403,
				"y": 0.7318828101,
				"z": -1.7321653751,
				"element": "N" 
			},
			{
				"x": -0.8840286255,
				"y": 0.7538426428,
				"z": -1.2447643882,
				"element": "C" 
			},
			{
				"x": -0.0926668532,
				"y": 1.7931827473,
				"z": -1.5666981848,
				"element": "N" 
			},
			{
				"x": 1.2783854384,
				"y": 1.9293706019,
				"z": -1.0783792159,
				"element": "C" 
			},
			{
				"x": 1.3669444633,
				"y": 2.5915564825,
				"z": 0.2990573888,
				"element": "C" 
			},
			{
				"x": -0.4471141346,
				"y": -0.2364372595,
				"z": -0.4999256928,
				"element": "N" 
			},
			{
				"x": 2.4749619268,
				"y": -3.2104520749,
				"z": 0.4074315027,
				"element": "H" 
			},
			{
				"x": 1.0965117576,
				"y": -4.1263327981,
				"z": -0.2273131983,
				"element": "H" 
			},
			{
				"x": 1.5164974352,
				"y": -2.5559886633,
				"z": -0.9354398487,
				"element": "H" 
			},
			{
				"x": 0.5180360812,
				"y": -2.9591429167,
				"z": 1.9485000662,
				"element": "H" 
			},
			{
				"x": 0.9247547011,
				"y": -1.4085897876,
				"z": 1.2160231742,
				"element": "H" 
			},
			{
				"x": -1.4609172714,
				"y": -3.0552794283,
				"z": 0.6319831195,
				"element": "H" 
			},
			{
				"x": -3.0904022768,
				"y": 3.9038242947,
				"z": -2.2600859931,
				"element": "H" 
			},
			{
				"x": -0.5048147397,
				"y": 2.5360860135,
				"z": -2.1201124632,
				"element": "H" 
			},
			{
				"x": 1.8242671043,
				"y": 2.5153806537,
				"z": -1.8242827568,
				"element": "H" 
			},
			{
				"x": 1.7216858484,
				"y": 0.9317057714,
				"z": -1.0483048805,
				"element": "H" 
			},
			{
				"x": 2.4134487837,
				"y": 2.6784317756,
				"z": 0.6090536965,
				"element": "H" 
			},
			{
				"x": 0.9320399238,
				"y": 3.595998988,
				"z": 0.285625405,
				"element": "H" 
			},
			{
				"x": 0.8361624834,
				"y": 1.9937194669,
				"z": 1.044619385,
				"element": "H" 
			}
		],
		 "valence_orbital": [ 
			{
				"type": "occ",
				"energy": -0.28347,
				"method": "rhf"
			},
			{
				"type": "occ",
				"energy": -0.26821,
				"method": "rhf"
			},
			{
				"type": "occ",
				"energy": -0.25778,
				"method": "rhf"
			},
			{
				"type": "occ",
				"energy": -0.24528,
				"method": "rhf"
			},
			{
				"type": "occ",
				"energy": -0.2081,
				"method": "rhf"
			},
			{
				"type": "unocc",
				"energy": -0.03324,
				"method": "rhf"
			},
			{
				"type": "unocc",
				"energy": -0.00907,
				"method": "rhf"
			},
			{
				"type": "unocc",
				"energy": 0.01823,
				"method": "rhf"
			},
			{
				"type": "unocc",
				"energy": 0.04014,
				"method": "rhf"
			},
			{
				"type": "unocc",
				"energy": 0.06798,
				"method": "rhf"
			}
		],
		"cosmo_sigma_profile": { 
			"-0.025": 0.0,
			"-0.024": 0.0,
			"-0.023": 0.0,
			"-0.022": 0.0,
			"-0.021": 0.0,
			"-0.02": 0.0,
			"-0.019": 0.0,
			"-0.018": 0.0,
			"-0.017": 0.0,
			"-0.016": 0.0,
			"-0.015": 0.0,
			"-0.014": 0.38825700571,
			"-0.013": 1.23912496339,
			"-0.012": 2.17618316094,
			"-0.011": 4.43207001487,
			"-0.01": 3.84508910127,
			"-0.009": 4.16213600488,
			"-0.008": 5.72241616327,
			"-0.007": 5.45650654633,
			"-0.006": 8.59929008646,
			"-0.005": 14.4159718064,
			"-0.004": 20.7426579604,
			"-0.003": 26.1538014014,
			"-0.002": 27.1701061739,
			"-0.001": 24.234390092,
			"0.0": 26.9224309305,
			"0.001": 20.7870628567,
			"0.002": 11.1168904831,
			"0.003": 7.61571933474,
			"0.004": 8.36107137588,
			"0.005": 6.60375636656,
			"0.006": 5.6192081726,
			"0.007": 3.51144190576,
			"0.008": 3.61845644994,
			"0.009": 2.93888240855,
			"0.01": 3.9237191077,
			"0.011": 2.83035370576,
			"0.012": 5.20920591542,
			"0.013": 5.59357715082,
			"0.014": 4.13857798997,
			"0.015": 3.86497863319,
			"0.016": 1.96420950831,
			"0.017": 1.27878514858,
			"0.018": 0.0416538285402,
			"0.019": 0.0,
			"0.02": 0.0,
			"0.021": 0.0,
			"0.022": 0.0,
			"0.023": 0.0,
			"0.024": 0.0,
			"0.025": 0.0
		}
	}
}
