{
	 "smiles": "CNNC", 
	 "Tm": 264.15, 
	 "num_atms": 12, 
	 "gaussian": { 
		 "optdone": 1, 
		 "sigma_profile": "yes", 
		 "theory": "DFT", 
		 "functional": "B3LYP", 
		 "basiset": "6-31G**", 
		 "properties": { 
			 "R2extent": 546.8696, 
			 "electric_dipole_moment_norm": 0.0, 
			 "electric_quadrupole_moment_norm": 4.74737256701, 
			 "total_energy": -190.485893667, 
			 "HOMO_LUMO_gap": 0.27253, 
			 "cosmo_polarized_energy": -6.18, 
			 "cosmo_cavitation_energy": 14.54, 
			 "cosmo_dispersion_energy": -11.01, 
			 "cosmo_repulsion_energy": 1.01, 
			 "cosmo_total_nonelectrostatic_energy": 4.54, 
			 "SMD_solvation_energy": 1.52 
		},
		"coords": [
			{
				"x": -0.6927595287,
				"y": -1.3531567267,
				"z": -2.0984252095,
				"element": "C" 
			},
			{
				"x": 0.3707522239,
				"y": -1.5286142639,
				"z": -1.1089757293,
				"element": "N" 
			},
			{
				"x": 0.1593557309,
				"y": -0.5480584007,
				"z": -0.0288505931,
				"element": "N" 
			},
			{
				"x": 1.2228540092,
				"y": -0.7235298899,
				"z": 0.9606104824,
				"element": "C" 
			},
			{
				"x": -0.6406428452,
				"y": -2.1773330877,
				"z": -2.8160278949,
				"element": "H" 
			},
			{
				"x": -0.523777251,
				"y": -0.4225459979,
				"z": -2.6538625501,
				"element": "H" 
			},
			{
				"x": -1.7024156431,
				"y": -1.3100284924,
				"z": -1.6614559679,
				"element": "H" 
			},
			{
				"x": 0.1941124053,
				"y": -2.4234623328,
				"z": -0.6492787332,
				"element": "H" 
			},
			{
				"x": 0.3360109385,
				"y": 0.3467886833,
				"z": -0.4885434328,
				"element": "H" 
			},
			{
				"x": 1.0538414095,
				"y": -1.6541259968,
				"z": 1.5160636848,
				"element": "H" 
			},
			{
				"x": 2.232511516,
				"y": -0.7666941812,
				"z": 0.5236476313,
				"element": "H" 
			},
			{
				"x": 1.1707570346,
				"y": 0.1006606869,
				"z": 1.6781983124,
				"element": "H" 
			}
		],
		 "valence_orbital": [ 
			{
				"type": "occ",
				"energy": -0.3839,
				"method": "rhf"
			},
			{
				"type": "occ",
				"energy": -0.37277,
				"method": "rhf"
			},
			{
				"type": "occ",
				"energy": -0.35624,
				"method": "rhf"
			},
			{
				"type": "occ",
				"energy": -0.29546,
				"method": "rhf"
			},
			{
				"type": "occ",
				"energy": -0.18761,
				"method": "rhf"
			},
			{
				"type": "unocc",
				"energy": 0.08492,
				"method": "rhf"
			},
			{
				"type": "unocc",
				"energy": 0.11774,
				"method": "rhf"
			},
			{
				"type": "unocc",
				"energy": 0.12261,
				"method": "rhf"
			},
			{
				"type": "unocc",
				"energy": 0.1465,
				"method": "rhf"
			},
			{
				"type": "unocc",
				"energy": 0.15948,
				"method": "rhf"
			}
		],
		"cosmo_sigma_profile": { 
			"-0.025": 0.0,
			"-0.024": 0.0,
			"-0.023": 0.0,
			"-0.022": 0.0,
			"-0.021": 0.0,
			"-0.02": 0.0,
			"-0.019": 0.0,
			"-0.018": 0.0,
			"-0.017": 0.0,
			"-0.016": 0.0,
			"-0.015": 0.0,
			"-0.014": 0.0,
			"-0.013": 0.0,
			"-0.012": 0.0,
			"-0.011": 0.0475662657978,
			"-0.01": 1.8374933639,
			"-0.009": 2.55684469963,
			"-0.008": 2.28812005246,
			"-0.007": 2.61861315005,
			"-0.006": 3.2043225987,
			"-0.005": 4.33323474102,
			"-0.004": 9.57733503989,
			"-0.003": 10.6861032793,
			"-0.002": 12.6909442073,
			"-0.001": 15.7278435412,
			"0.0": 15.1692185273,
			"0.001": 5.41534893955,
			"0.002": 3.29584455856,
			"0.003": 1.84966474516,
			"0.004": 1.70017392667,
			"0.005": 2.35040350142,
			"0.006": 2.42797609596,
			"0.007": 1.44752914808,
			"0.008": 0.828415744408,
			"0.009": 1.80875430076,
			"0.01": 1.1670392086,
			"0.011": 2.14156485788,
			"0.012": 1.06467980131,
			"0.013": 0.538087052953,
			"0.014": 0.94389752205,
			"0.015": 0.94558498988,
			"0.016": 1.37878202397,
			"0.017": 1.1913054497,
			"0.018": 0.630453732551,
			"0.019": 0.472485135063,
			"0.02": 0.0,
			"0.021": 0.0,
			"0.022": 0.0,
			"0.023": 0.0,
			"0.024": 0.0,
			"0.025": 0.0
		}
	}
}
