{
	 "smiles": "CC1=C(C)C(C)=C(CCl)C(C)=C1C", 
	 "Tm": 355.65, 
	 "num_atms": 30, 
	 "gaussian": { 
		 "optdone": 1, 
		 "sigma_profile": "yes", 
		 "theory": "DFT", 
		 "functional": "B3LYP", 
		 "basiset": "6-31G**", 
		 "properties": { 
			 "R2extent": 3521.3547, 
			 "electric_dipole_moment_norm": 2.83358091114, 
			 "electric_quadrupole_moment_norm": 14.1230253558, 
			 "total_energy": -927.743352744, 
			 "HOMO_LUMO_gap": 0.20396, 
			 "cosmo_polarized_energy": -5.92, 
			 "cosmo_cavitation_energy": 31.25, 
			 "cosmo_dispersion_energy": -22.85, 
			 "cosmo_repulsion_energy": 1.78, 
			 "cosmo_total_nonelectrostatic_energy": 10.18, 
			 "SMD_solvation_energy": 4.72 
		},
		"coords": [
			{
				"x": 1.2668140439,
				"y": -1.5090609063,
				"z": -2.5937956206,
				"element": "C" 
			},
			{
				"x": 0.8654640917,
				"y": -0.5755312532,
				"z": -1.4673679121,
				"element": "C" 
			},
			{
				"x": -0.3714529106,
				"y": 0.0981174511,
				"z": -1.5223334546,
				"element": "C" 
			},
			{
				"x": -1.3412773086,
				"y": -0.1893427993,
				"z": -2.6534233325,
				"element": "C" 
			},
			{
				"x": -0.7107066198,
				"y": 1.025796463,
				"z": -0.5199552423,
				"element": "C" 
			},
			{
				"x": -2.0007945899,
				"y": 1.8182828583,
				"z": -0.6239418064,
				"element": "C" 
			},
			{
				"x": 0.1664737484,
				"y": 1.225658112,
				"z": 0.5660151615,
				"element": "C" 
			},
			{
				"x": -0.2506291555,
				"y": 2.1127869918,
				"z": 1.7018880037,
				"element": "C" 
			},
			{
				"x": 0.2594568926,
				"y": 3.8823444883,
				"z": 1.4882527415,
				"element": "Cl" 
			},
			{
				"x": 1.4052856857,
				"y": 0.5543908548,
				"z": 0.6249652732,
				"element": "C" 
			},
			{
				"x": 2.3840877525,
				"y": 0.8415632549,
				"z": 1.7487151718,
				"element": "C" 
			},
			{
				"x": 1.7393267835,
				"y": -0.3721019009,
				"z": -0.3803014183,
				"element": "C" 
			},
			{
				"x": 3.0309150193,
				"y": -1.1631133467,
				"z": -0.2878191879,
				"element": "C" 
			},
			{
				"x": 0.8357053453,
				"y": -1.1981605827,
				"z": -3.5473192684,
				"element": "H" 
			},
			{
				"x": 0.9382674549,
				"y": -2.5418399486,
				"z": -2.4120312003,
				"element": "H" 
			},
			{
				"x": 2.3498360765,
				"y": -1.5356644209,
				"z": -2.728243013,
				"element": "H" 
			},
			{
				"x": -1.2783169714,
				"y": -1.2291675728,
				"z": -2.9816464263,
				"element": "H" 
			},
			{
				"x": -2.3757854296,
				"y": -0.0150690739,
				"z": -2.3526426027,
				"element": "H" 
			},
			{
				"x": -1.1502389707,
				"y": 0.4393558515,
				"z": -3.5341070721,
				"element": "H" 
			},
			{
				"x": -2.2382087621,
				"y": 2.0497683708,
				"z": -1.6645967739,
				"element": "H" 
			},
			{
				"x": -1.9350221667,
				"y": 2.7741745427,
				"z": -0.1022257115,
				"element": "H" 
			},
			{
				"x": -2.8600623583,
				"y": 1.2703081307,
				"z": -0.213381727,
				"element": "H" 
			},
			{
				"x": 0.1924310134,
				"y": 1.8136296646,
				"z": 2.6486673408,
				"element": "H" 
			},
			{
				"x": -1.3302367053,
				"y": 2.1530507623,
				"z": 1.8244063619,
				"element": "H" 
			},
			{
				"x": 3.4161636876,
				"y": 0.7919608645,
				"z": 1.3947322061,
				"element": "H" 
			},
			{
				"x": 2.2474080482,
				"y": 1.8417033607,
				"z": 2.1625053858,
				"element": "H" 
			},
			{
				"x": 2.293214836,
				"y": 0.1216980943,
				"z": 2.5737721441,
				"element": "H" 
			},
			{
				"x": 2.9196222568,
				"y": -2.1643478207,
				"z": -0.7098421882,
				"element": "H" 
			},
			{
				"x": 3.3533372889,
				"y": -1.2905010783,
				"z": 0.7469807876,
				"element": "H" 
			},
			{
				"x": 3.8557219232,
				"y": -0.6757894122,
				"z": -0.8259266198,
				"element": "H" 
			}
		],
		 "valence_orbital": [ 
			{
				"type": "occ",
				"energy": -0.31953,
				"method": "rhf"
			},
			{
				"type": "occ",
				"energy": -0.28586,
				"method": "rhf"
			},
			{
				"type": "occ",
				"energy": -0.2851,
				"method": "rhf"
			},
			{
				"type": "occ",
				"energy": -0.22631,
				"method": "rhf"
			},
			{
				"type": "occ",
				"energy": -0.2224,
				"method": "rhf"
			},
			{
				"type": "unocc",
				"energy": -0.01844,
				"method": "rhf"
			},
			{
				"type": "unocc",
				"energy": 0.00564,
				"method": "rhf"
			},
			{
				"type": "unocc",
				"energy": 0.04838,
				"method": "rhf"
			},
			{
				"type": "unocc",
				"energy": 0.08271,
				"method": "rhf"
			},
			{
				"type": "unocc",
				"energy": 0.10569,
				"method": "rhf"
			}
		],
		"cosmo_sigma_profile": { 
			"-0.025": 0.0,
			"-0.024": 0.0,
			"-0.023": 0.0,
			"-0.022": 0.0,
			"-0.021": 0.0,
			"-0.02": 0.0,
			"-0.019": 0.0,
			"-0.018": 0.0,
			"-0.017": 0.0,
			"-0.016": 0.0,
			"-0.015": 0.0,
			"-0.014": 0.0,
			"-0.013": 0.0,
			"-0.012": 0.0,
			"-0.011": 0.0,
			"-0.01": 0.0,
			"-0.009": 0.0,
			"-0.008": 0.0,
			"-0.007": 1.35384811477,
			"-0.006": 3.81171535031,
			"-0.005": 5.29298331033,
			"-0.004": 15.1112835759,
			"-0.003": 38.6671539235,
			"-0.002": 36.3028860058,
			"-0.001": 26.7314723537,
			"0.0": 30.8182998079,
			"0.001": 21.9723384421,
			"0.002": 11.4865979142,
			"0.003": 9.72845481964,
			"0.004": 9.7916809552,
			"0.005": 10.1082787037,
			"0.006": 14.0122567636,
			"0.007": 11.1453306703,
			"0.008": 0.853965915966,
			"0.009": 0.0,
			"0.01": 0.0,
			"0.011": 0.0,
			"0.012": 0.0,
			"0.013": 0.0,
			"0.014": 0.0,
			"0.015": 0.0,
			"0.016": 0.0,
			"0.017": 0.0,
			"0.018": 0.0,
			"0.019": 0.0,
			"0.02": 0.0,
			"0.021": 0.0,
			"0.022": 0.0,
			"0.023": 0.0,
			"0.024": 0.0,
			"0.025": 0.0
		}
	}
}
