{
	 "smiles": "BrC1=CN=CC(Br)=C1C#N", 
	 "Tm": 423.15, 
	 "num_atms": 12, 
	 "gaussian": { 
		 "optdone": 1, 
		 "sigma_profile": "yes", 
		 "theory": "DFT", 
		 "functional": "B3LYP", 
		 "basiset": "6-31G**", 
		 "properties": { 
			 "R2extent": 3158.9034, 
			 "electric_dipole_moment_norm": 2.57376619956, 
			 "electric_quadrupole_moment_norm": 9.69739805515, 
			 "total_energy": -5482.11466512, 
			 "HOMO_LUMO_gap": 0.18104, 
			 "cosmo_polarized_energy": -7.8, 
			 "cosmo_cavitation_energy": 22.66, 
			 "cosmo_dispersion_energy": -16.93, 
			 "cosmo_repulsion_energy": 1.36, 
			 "cosmo_total_nonelectrostatic_energy": 7.09, 
			 "SMD_solvation_energy": 1.58 
		},
		"coords": [
			{
				"x": 1.9583979992,
				"y": -0.8429865571,
				"z": -1.5766338736,
				"element": "Br" 
			},
			{
				"x": 1.0581172557,
				"y": -0.267885385,
				"z": -0.0137041247,
				"element": "C" 
			},
			{
				"x": 1.7958430753,
				"y": 0.2522418245,
				"z": 1.0503336648,
				"element": "C" 
			},
			{
				"x": 1.2301024332,
				"y": 0.6764883119,
				"z": 2.1819547308,
				"element": "N" 
			},
			{
				"x": -0.0966355275,
				"y": 0.6009722467,
				"z": 2.3031304868,
				"element": "C" 
			},
			{
				"x": -0.9192780186,
				"y": 0.096506997,
				"z": 1.2953120205,
				"element": "C" 
			},
			{
				"x": -2.7916318826,
				"y": 0.0326756343,
				"z": 1.5676898829,
				"element": "Br" 
			},
			{
				"x": -0.3425587867,
				"y": -0.3562112855,
				"z": 0.0937604772,
				"element": "C" 
			},
			{
				"x": -1.1429830856,
				"y": -0.8816844422,
				"z": -0.9691008953,
				"element": "C" 
			},
			{
				"x": -1.793208033,
				"y": -1.3086052015,
				"z": -1.8326072599,
				"element": "N" 
			},
			{
				"x": 2.8768281376,
				"y": 0.324572432,
				"z": 0.9771405382,
				"element": "H" 
			},
			{
				"x": -0.531893567,
				"y": 0.9526154249,
				"z": 3.2337243524,
				"element": "H" 
			}
		],
		 "valence_orbital": [ 
			{
				"type": "occ",
				"energy": -0.32784,
				"method": "rhf"
			},
			{
				"type": "occ",
				"energy": -0.31198,
				"method": "rhf"
			},
			{
				"type": "occ",
				"energy": -0.29455,
				"method": "rhf"
			},
			{
				"type": "occ",
				"energy": -0.29443,
				"method": "rhf"
			},
			{
				"type": "occ",
				"energy": -0.27587,
				"method": "rhf"
			},
			{
				"type": "unocc",
				"energy": -0.09483,
				"method": "rhf"
			},
			{
				"type": "unocc",
				"energy": -0.05773,
				"method": "rhf"
			},
			{
				"type": "unocc",
				"energy": -0.03886,
				"method": "rhf"
			},
			{
				"type": "unocc",
				"energy": -0.00399,
				"method": "rhf"
			},
			{
				"type": "unocc",
				"energy": 0.01387,
				"method": "rhf"
			}
		],
		"cosmo_sigma_profile": { 
			"-0.025": 0.0,
			"-0.024": 0.0,
			"-0.023": 0.0,
			"-0.022": 0.0,
			"-0.021": 0.0,
			"-0.02": 0.0,
			"-0.019": 0.0,
			"-0.018": 0.0,
			"-0.017": 0.0,
			"-0.016": 0.0,
			"-0.015": 0.0,
			"-0.014": 0.0,
			"-0.013": 0.0,
			"-0.012": 0.0,
			"-0.011": 0.0,
			"-0.01": 0.231830589923,
			"-0.009": 3.17705430298,
			"-0.008": 2.6301116534,
			"-0.007": 4.6775673994,
			"-0.006": 6.43696166895,
			"-0.005": 13.4213433986,
			"-0.004": 16.209504419,
			"-0.003": 18.1851749178,
			"-0.002": 15.7881678832,
			"-0.001": 12.6825829956,
			"0.0": 13.5096929798,
			"0.001": 15.0968725449,
			"0.002": 23.5280117081,
			"0.003": 11.4414096999,
			"0.004": 5.41287377851,
			"0.005": 4.19570728332,
			"0.006": 4.24078623869,
			"0.007": 3.72211492574,
			"0.008": 4.84702264516,
			"0.009": 3.39123314297,
			"0.01": 3.16272019093,
			"0.011": 3.17623125825,
			"0.012": 1.16272596545,
			"0.013": 0.706435825276,
			"0.014": 0.161726679281,
			"0.015": 0.0,
			"0.016": 0.0,
			"0.017": 0.0,
			"0.018": 0.0,
			"0.019": 0.0,
			"0.02": 0.0,
			"0.021": 0.0,
			"0.022": 0.0,
			"0.023": 0.0,
			"0.024": 0.0,
			"0.025": 0.0
		}
	}
}
