{
	 "smiles": "CCOC1=CC(C=O)=CC(Br)=C1O", 
	 "Tm": 415.15, 
	 "num_atms": 22, 
	 "gaussian": { 
		 "optdone": 1, 
		 "sigma_profile": "yes", 
		 "theory": "DFT", 
		 "functional": "B3LYP", 
		 "basiset": "6-31G**", 
		 "properties": { 
			 "R2extent": 5934.0927, 
			 "electric_dipole_moment_norm": 6.37350715227, 
			 "electric_quadrupole_moment_norm": 10.1372108467, 
			 "total_energy": -3145.44182253, 
			 "HOMO_LUMO_gap": 0.16976, 
			 "cosmo_polarized_energy": -12.92, 
			 "cosmo_cavitation_energy": 28.95, 
			 "cosmo_dispersion_energy": -21.42, 
			 "cosmo_repulsion_energy": 1.72, 
			 "cosmo_total_nonelectrostatic_energy": 9.25, 
			 "SMD_solvation_energy": 5.63 
		},
		"coords": [
			{
				"x": -0.0486734097,
				"y": -0.0107444727,
				"z": 3.6464332889,
				"element": "C" 
			},
			{
				"x": 0.3326806148,
				"y": -0.5511744596,
				"z": 2.2806704482,
				"element": "C" 
			},
			{
				"x": 0.7636221008,
				"y": 0.5537623004,
				"z": 1.4780154689,
				"element": "O" 
			},
			{
				"x": 1.1630831906,
				"y": 0.315848345,
				"z": 0.1890761228,
				"element": "C" 
			},
			{
				"x": 1.1996290908,
				"y": -0.9134144226,
				"z": -0.4518511618,
				"element": "C" 
			},
			{
				"x": 1.6386284918,
				"y": -0.9854374439,
				"z": -1.7862469529,
				"element": "C" 
			},
			{
				"x": 1.6785440729,
				"y": -2.292242884,
				"z": -2.4708992592,
				"element": "C" 
			},
			{
				"x": 2.0402467908,
				"y": -2.4661065932,
				"z": -3.6197334835,
				"element": "O" 
			},
			{
				"x": 2.0360397901,
				"y": 0.1712751798,
				"z": -2.4648822685,
				"element": "C" 
			},
			{
				"x": 1.9969086723,
				"y": 1.3997019705,
				"z": -1.8166034364,
				"element": "C" 
			},
			{
				"x": 2.5344227569,
				"y": 2.9818925962,
				"z": -2.7261152436,
				"element": "Br" 
			},
			{
				"x": 1.5632449013,
				"y": 1.4923555084,
				"z": -0.4892420817,
				"element": "C" 
			},
			{
				"x": 1.5213293964,
				"y": 2.679116799,
				"z": 0.149297826,
				"element": "O" 
			},
			{
				"x": -0.3842003749,
				"y": -0.8293317267,
				"z": 4.289964622,
				"element": "H" 
			},
			{
				"x": 0.8069693486,
				"y": 0.4748241879,
				"z": 4.1238945229,
				"element": "H" 
			},
			{
				"x": -0.8606025523,
				"y": 0.7169861769,
				"z": 3.5624732632,
				"element": "H" 
			},
			{
				"x": 1.1473230234,
				"y": -1.2837410356,
				"z": 2.357898372,
				"element": "H" 
			},
			{
				"x": -0.5223335742,
				"y": -1.041021521,
				"z": 1.7956402358,
				"element": "H" 
			},
			{
				"x": 0.8950006564,
				"y": -1.8204279666,
				"z": 0.0594745004,
				"element": "H" 
			},
			{
				"x": 1.3422467075,
				"y": -3.1491583888,
				"z": -1.8433865515,
				"element": "H" 
			},
			{
				"x": 2.3705219801,
				"y": 0.0909224017,
				"z": -3.4925128923,
				"element": "H" 
			},
			{
				"x": 1.1936683256,
				"y": 2.5064154488,
				"z": 1.0472346603,
				"element": "H" 
			}
		],
		 "valence_orbital": [ 
			{
				"type": "occ",
				"energy": -0.30563,
				"method": "rhf"
			},
			{
				"type": "occ",
				"energy": -0.28487,
				"method": "rhf"
			},
			{
				"type": "occ",
				"energy": -0.25429,
				"method": "rhf"
			},
			{
				"type": "occ",
				"energy": -0.2461,
				"method": "rhf"
			},
			{
				"type": "occ",
				"energy": -0.22923,
				"method": "rhf"
			},
			{
				"type": "unocc",
				"energy": -0.05947,
				"method": "rhf"
			},
			{
				"type": "unocc",
				"energy": -0.01468,
				"method": "rhf"
			},
			{
				"type": "unocc",
				"energy": 0.00636,
				"method": "rhf"
			},
			{
				"type": "unocc",
				"energy": 0.04488,
				"method": "rhf"
			},
			{
				"type": "unocc",
				"energy": 0.06971,
				"method": "rhf"
			}
		],
		"cosmo_sigma_profile": { 
			"-0.025": 0.0,
			"-0.024": 0.0,
			"-0.023": 0.0,
			"-0.022": 0.0,
			"-0.021": 0.0,
			"-0.02": 0.0,
			"-0.019": 0.0,
			"-0.018": 0.0,
			"-0.017": 0.0,
			"-0.016": 0.0310948627624,
			"-0.015": 0.703448554521,
			"-0.014": 0.204394001723,
			"-0.013": 0.527773756971,
			"-0.012": 0.888637915407,
			"-0.011": 0.91706486568,
			"-0.01": 0.251580408165,
			"-0.009": 0.982999216244,
			"-0.008": 4.30283730034,
			"-0.007": 5.30670594646,
			"-0.006": 10.3474732694,
			"-0.005": 14.4334054763,
			"-0.004": 19.5135950706,
			"-0.003": 16.5335464266,
			"-0.002": 17.563383746,
			"-0.001": 17.6482131867,
			"0.0": 22.1233312461,
			"0.001": 22.7815996632,
			"0.002": 19.790201418,
			"0.003": 11.6761756835,
			"0.004": 12.083190689,
			"0.005": 7.6520583274,
			"0.006": 3.30398542732,
			"0.007": 3.16458343183,
			"0.008": 3.82938265792,
			"0.009": 4.2999009355,
			"0.01": 4.11034901326,
			"0.011": 4.44483033123,
			"0.012": 3.22487703383,
			"0.013": 1.12839678122,
			"0.014": 0.00184927880016,
			"0.015": 0.0,
			"0.016": 0.0,
			"0.017": 0.0,
			"0.018": 0.0,
			"0.019": 0.0,
			"0.02": 0.0,
			"0.021": 0.0,
			"0.022": 0.0,
			"0.023": 0.0,
			"0.024": 0.0,
			"0.025": 0.0
		}
	}
}
