{
	 "smiles": "FC(F)(F)CN1C(S)=NN=C1C1=CC=NC=C1", 
	 "Tm": 517.15, 
	 "num_atms": 24, 
	 "gaussian": { 
		 "optdone": 1, 
		 "sigma_profile": "yes", 
		 "theory": "DFT", 
		 "functional": "B3LYP", 
		 "basiset": "6-31G**", 
		 "properties": { 
			 "R2extent": 4562.9927, 
			 "electric_dipole_moment_norm": 3.81319725427, 
			 "electric_quadrupole_moment_norm": 8.17322550038, 
			 "total_energy": -1263.86041868, 
			 "HOMO_LUMO_gap": 0.18349, 
			 "cosmo_polarized_energy": -17.21, 
			 "cosmo_cavitation_energy": 31.15, 
			 "cosmo_dispersion_energy": -22.7, 
			 "cosmo_repulsion_energy": 1.63, 
			 "cosmo_total_nonelectrostatic_energy": 10.08, 
			 "SMD_solvation_energy": 2.67 
		},
		"coords": [
			{
				"x": -3.2216763838,
				"y": 0.4706588967,
				"z": -0.5497505198,
				"element": "F" 
			},
			{
				"x": -2.4374084272,
				"y": -0.3582393218,
				"z": 0.1641510931,
				"element": "C" 
			},
			{
				"x": -3.1123824857,
				"y": -1.5043790163,
				"z": 0.3680701821,
				"element": "F" 
			},
			{
				"x": -2.2277090574,
				"y": 0.2233464672,
				"z": 1.3630150093,
				"element": "F" 
			},
			{
				"x": -1.1336166213,
				"y": -0.6708813108,
				"z": -0.5658898836,
				"element": "C" 
			},
			{
				"x": -0.3014558899,
				"y": 0.4920310777,
				"z": -0.8076077369,
				"element": "N" 
			},
			{
				"x": -0.4055174341,
				"y": 1.3668762191,
				"z": -1.870624123,
				"element": "C" 
			},
			{
				"x": -1.7309597252,
				"y": 1.3337725293,
				"z": -3.0388195879,
				"element": "S" 
			},
			{
				"x": 0.6233809439,
				"y": 2.1790829066,
				"z": -1.9131578064,
				"element": "N" 
			},
			{
				"x": 1.4548168777,
				"y": 1.8354080716,
				"z": -0.8749676487,
				"element": "N" 
			},
			{
				"x": 0.9096587168,
				"y": 0.8388011608,
				"z": -0.21248304,
				"element": "C" 
			},
			{
				"x": 1.5617260809,
				"y": 0.1838411946,
				"z": 0.9307029856,
				"element": "C" 
			},
			{
				"x": 2.9651556533,
				"y": 0.1307934503,
				"z": 0.9452123764,
				"element": "C" 
			},
			{
				"x": 3.6055982899,
				"y": -0.4696810579,
				"z": 2.024963769,
				"element": "C" 
			},
			{
				"x": 2.9637533375,
				"y": -1.0167269819,
				"z": 3.0678396218,
				"element": "N" 
			},
			{
				"x": 1.6287168098,
				"y": -0.9498624554,
				"z": 3.0536993009,
				"element": "C" 
			},
			{
				"x": 0.8831072807,
				"y": -0.3636264166,
				"z": 2.0289131606,
				"element": "C" 
			},
			{
				"x": -0.5743398297,
				"y": -1.3950413962,
				"z": 0.0275001061,
				"element": "H" 
			},
			{
				"x": -1.3996365158,
				"y": -1.1333739516,
				"z": -1.5208568309,
				"element": "H" 
			},
			{
				"x": -0.9800067084,
				"y": 1.8964328598,
				"z": -4.0042418454,
				"element": "H" 
			},
			{
				"x": 3.5297625277,
				"y": 0.5565147426,
				"z": 0.1238596737,
				"element": "H" 
			},
			{
				"x": 4.6923878125,
				"y": -0.5202717619,
				"z": 2.0516134317,
				"element": "H" 
			},
			{
				"x": 1.1169823814,
				"y": -1.3801671834,
				"z": 3.9128110966,
				"element": "H" 
			},
			{
				"x": -0.1937376336,
				"y": -0.3061087224,
				"z": 2.1186472154,
				"element": "H" 
			}
		],
		 "valence_orbital": [ 
			{
				"type": "occ",
				"energy": -0.29853,
				"method": "rhf"
			},
			{
				"type": "occ",
				"energy": -0.27537,
				"method": "rhf"
			},
			{
				"type": "occ",
				"energy": -0.27158,
				"method": "rhf"
			},
			{
				"type": "occ",
				"energy": -0.26436,
				"method": "rhf"
			},
			{
				"type": "occ",
				"energy": -0.24299,
				"method": "rhf"
			},
			{
				"type": "unocc",
				"energy": -0.0595,
				"method": "rhf"
			},
			{
				"type": "unocc",
				"energy": -0.02515,
				"method": "rhf"
			},
			{
				"type": "unocc",
				"energy": -0.00568,
				"method": "rhf"
			},
			{
				"type": "unocc",
				"energy": 0.00678,
				"method": "rhf"
			},
			{
				"type": "unocc",
				"energy": 0.03836,
				"method": "rhf"
			}
		],
		"cosmo_sigma_profile": { 
			"-0.025": 0.0,
			"-0.024": 0.0,
			"-0.023": 0.0,
			"-0.022": 0.0,
			"-0.021": 0.0,
			"-0.02": 0.0,
			"-0.019": 0.0,
			"-0.018": 0.0,
			"-0.017": 0.0,
			"-0.016": 0.0,
			"-0.015": 0.0,
			"-0.014": 0.0,
			"-0.013": 0.289623015801,
			"-0.012": 1.95337219234,
			"-0.011": 2.51544588229,
			"-0.01": 5.57702816879,
			"-0.009": 6.59654897777,
			"-0.008": 5.57834712747,
			"-0.007": 11.0950402141,
			"-0.006": 12.147598972,
			"-0.005": 12.1661687367,
			"-0.004": 11.729637189,
			"-0.003": 13.536984348,
			"-0.002": 14.4365008918,
			"-0.001": 15.0081921952,
			"0.0": 18.657207525,
			"0.001": 28.5037569834,
			"0.002": 34.6561995232,
			"0.003": 12.0269121605,
			"0.004": 6.09139514716,
			"0.005": 6.5822829074,
			"0.006": 3.83445858648,
			"0.007": 3.43163572727,
			"0.008": 3.1861304189,
			"0.009": 3.33118361089,
			"0.01": 2.93153652896,
			"0.011": 2.74865399981,
			"0.012": 4.49676130966,
			"0.013": 3.64108934747,
			"0.014": 3.34689664749,
			"0.015": 2.48926741131,
			"0.016": 0.914578332371,
			"0.017": 0.101270506428,
			"0.018": 0.0,
			"0.019": 0.0,
			"0.02": 0.0,
			"0.021": 0.0,
			"0.022": 0.0,
			"0.023": 0.0,
			"0.024": 0.0,
			"0.025": 0.0
		}
	}
}
