{
	 "smiles": "COC(=O)C1CCC2=C(C1)C=NN2", 
	 "Tm": 353.15, 
	 "num_atms": 25, 
	 "gaussian": { 
		 "optdone": 1, 
		 "sigma_profile": "yes", 
		 "theory": "DFT", 
		 "functional": "B3LYP", 
		 "basiset": "6-31G**", 
		 "properties": { 
			 "R2extent": 2481.6066, 
			 "electric_dipole_moment_norm": 2.04101791761, 
			 "electric_quadrupole_moment_norm": 17.1738190627, 
			 "total_energy": -610.137367745, 
			 "HOMO_LUMO_gap": 0.22917, 
			 "cosmo_polarized_energy": -13.0, 
			 "cosmo_cavitation_energy": 27.37, 
			 "cosmo_dispersion_energy": -20.13, 
			 "cosmo_repulsion_energy": 1.62, 
			 "cosmo_total_nonelectrostatic_energy": 8.86, 
			 "SMD_solvation_energy": 4.71 
		},
		"coords": [
			{
				"x": 2.2626730918,
				"y": -2.6354103429,
				"z": -1.6101308563,
				"element": "C" 
			},
			{
				"x": 1.1246036202,
				"y": -2.3652771224,
				"z": -0.7748430123,
				"element": "O" 
			},
			{
				"x": 0.4195730804,
				"y": -1.2581032062,
				"z": -1.0950589405,
				"element": "C" 
			},
			{
				"x": 0.706760744,
				"y": -0.5429220049,
				"z": -2.0334213875,
				"element": "O" 
			},
			{
				"x": -0.7849566963,
				"y": -1.0726280671,
				"z": -0.1750086939,
				"element": "C" 
			},
			{
				"x": -1.5104630404,
				"y": 0.2549467478,
				"z": -0.4785418352,
				"element": "C" 
			},
			{
				"x": -0.6576781922,
				"y": 1.5032434492,
				"z": -0.1580020859,
				"element": "C" 
			},
			{
				"x": 0.0598480991,
				"y": 1.2892395354,
				"z": 1.1379020012,
				"element": "C" 
			},
			{
				"x": 0.1988463578,
				"y": 0.0888573583,
				"z": 1.8130327135,
				"element": "C" 
			},
			{
				"x": -0.4157020303,
				"y": -1.1927667665,
				"z": 1.3276147952,
				"element": "C" 
			},
			{
				"x": 0.9788195774,
				"y": 0.4090462266,
				"z": 2.9515496966,
				"element": "C" 
			},
			{
				"x": 1.3054945411,
				"y": 1.6998955378,
				"z": 2.987719678,
				"element": "N" 
			},
			{
				"x": 0.7339617359,
				"y": 2.2149606942,
				"z": 1.8720575348,
				"element": "N" 
			},
			{
				"x": 1.9523292756,
				"y": -2.7818841838,
				"z": -2.6477555456,
				"element": "H" 
			},
			{
				"x": 2.9743991767,
				"y": -1.8073735668,
				"z": -1.5688360849,
				"element": "H" 
			},
			{
				"x": 2.7106736136,
				"y": -3.545714885,
				"z": -1.2119119876,
				"element": "H" 
			},
			{
				"x": -1.4607974509,
				"y": -1.9040170322,
				"z": -0.4183311498,
				"element": "H" 
			},
			{
				"x": -2.4268235458,
				"y": 0.2768761343,
				"z": 0.1229728972,
				"element": "H" 
			},
			{
				"x": -1.8083645451,
				"y": 0.2812580571,
				"z": -1.5299566174,
				"element": "H" 
			},
			{
				"x": 0.060439534,
				"y": 1.6665678609,
				"z": -0.9697081071,
				"element": "H" 
			},
			{
				"x": -1.3030599759,
				"y": 2.3897902497,
				"z": -0.1148733204,
				"element": "H" 
			},
			{
				"x": 0.2553128284,
				"y": -2.0432060871,
				"z": 1.4760873169,
				"element": "H" 
			},
			{
				"x": -1.3330686097,
				"y": -1.4184421439,
				"z": 1.8886415673,
				"element": "H" 
			},
			{
				"x": 1.3160514472,
				"y": -0.2473050354,
				"z": 3.7438684475,
				"element": "H" 
			},
			{
				"x": 0.8539273635,
				"y": 3.1957685931,
				"z": 1.6726329761,
				"element": "H" 
			}
		],
		 "valence_orbital": [ 
			{
				"type": "occ",
				"energy": -0.30293,
				"method": "rhf"
			},
			{
				"type": "occ",
				"energy": -0.27531,
				"method": "rhf"
			},
			{
				"type": "occ",
				"energy": -0.27134,
				"method": "rhf"
			},
			{
				"type": "occ",
				"energy": -0.2426,
				"method": "rhf"
			},
			{
				"type": "occ",
				"energy": -0.22296,
				"method": "rhf"
			},
			{
				"type": "unocc",
				"energy": 0.00621,
				"method": "rhf"
			},
			{
				"type": "unocc",
				"energy": 0.02985,
				"method": "rhf"
			},
			{
				"type": "unocc",
				"energy": 0.07326,
				"method": "rhf"
			},
			{
				"type": "unocc",
				"energy": 0.08978,
				"method": "rhf"
			},
			{
				"type": "unocc",
				"energy": 0.09349,
				"method": "rhf"
			}
		],
		"cosmo_sigma_profile": { 
			"-0.025": 0.0,
			"-0.024": 0.0,
			"-0.023": 0.0,
			"-0.022": 0.0,
			"-0.021": 0.0,
			"-0.02": 0.0,
			"-0.019": 0.0,
			"-0.018": 0.0,
			"-0.017": 0.0,
			"-0.016": 0.830558988663,
			"-0.015": 1.1373190556,
			"-0.014": 1.39090396862,
			"-0.013": 1.08956068224,
			"-0.012": 0.35664829916,
			"-0.011": 1.22414969801,
			"-0.01": 1.35153341514,
			"-0.009": 1.15391761937,
			"-0.008": 0.739444803207,
			"-0.007": 1.59492013045,
			"-0.006": 9.62030989253,
			"-0.005": 13.7988684855,
			"-0.004": 21.2523033061,
			"-0.003": 29.2115910035,
			"-0.002": 19.7772795755,
			"-0.001": 18.6763718418,
			"0.0": 12.3295358122,
			"0.001": 8.77722462143,
			"0.002": 9.72257214123,
			"0.003": 7.69890531542,
			"0.004": 8.45057564849,
			"0.005": 7.6130364036,
			"0.006": 7.26955208922,
			"0.007": 5.19290694605,
			"0.008": 3.90708899946,
			"0.009": 3.84586541247,
			"0.01": 3.00492020097,
			"0.011": 3.76058350232,
			"0.012": 5.06119254342,
			"0.013": 1.10859677319,
			"0.014": 1.23414948797,
			"0.015": 1.40559032971,
			"0.016": 0.951468485865,
			"0.017": 0.684876509632,
			"0.018": 0.0,
			"0.019": 0.0,
			"0.02": 0.0,
			"0.021": 0.0,
			"0.022": 0.0,
			"0.023": 0.0,
			"0.024": 0.0,
			"0.025": 0.0
		}
	}
}
