{
	 "smiles": "CCCCCCCCCCCCCCCCCCCCCCCCCC", 
	 "Tm": 329.85, 
	 "num_atms": 80, 
	 "gaussian": { 
		 "optdone": 1, 
		 "sigma_profile": "yes", 
		 "theory": "DFT", 
		 "functional": "B3LYP", 
		 "basiset": "6-31G**", 
		 "properties": { 
			 "R2extent": 24047.9021, 
			 "electric_dipole_moment_norm": 0.0407605201144, 
			 "electric_quadrupole_moment_norm": 1.47038779919, 
			 "total_energy": -1023.39106702, 
			 "HOMO_LUMO_gap": 0.36557, 
			 "cosmo_polarized_energy": -1.58, 
			 "cosmo_cavitation_energy": 74.91, 
			 "cosmo_dispersion_energy": -48.93, 
			 "cosmo_repulsion_energy": 3.99, 
			 "cosmo_total_nonelectrostatic_energy": 29.97, 
			 "SMD_solvation_energy": 9.12 
		},
		"coords": [
			{
				"x": -4.8067492284,
				"y": -0.3276256396,
				"z": 1.7887613154,
				"element": "C" 
			},
			{
				"x": -6.2030237996,
				"y": 0.1112642761,
				"z": 2.244835693,
				"element": "C" 
			},
			{
				"x": -6.4259550297,
				"y": 1.6316412566,
				"z": 2.3377894526,
				"element": "C" 
			},
			{
				"x": -5.5532181859,
				"y": 2.3667264897,
				"z": 3.3825874776,
				"element": "C" 
			},
			{
				"x": -4.2461285368,
				"y": 2.9875447431,
				"z": 2.8518716078,
				"element": "C" 
			},
			{
				"x": -4.4612096071,
				"y": 4.2355313814,
				"z": 1.9812143723,
				"element": "C" 
			},
			{
				"x": -3.1652148144,
				"y": 4.9171945798,
				"z": 1.5098696303,
				"element": "C" 
			},
			{
				"x": -2.3319009484,
				"y": 4.0879622034,
				"z": 0.5205361189,
				"element": "C" 
			},
			{
				"x": -1.1298695555,
				"y": 4.8380942894,
				"z": -0.0807947275,
				"element": "C" 
			},
			{
				"x": -0.0514063411,
				"y": 5.2910564662,
				"z": 0.9219367587,
				"element": "C" 
			},
			{
				"x": 0.634197642,
				"y": 4.1706665206,
				"z": 1.7235809448,
				"element": "C" 
			},
			{
				"x": 1.4284237121,
				"y": 3.1673824909,
				"z": 0.8754881819,
				"element": "C" 
			},
			{
				"x": 2.1808415391,
				"y": 2.1268821804,
				"z": 1.7153320868,
				"element": "C" 
			},
			{
				"x": 2.9845642776,
				"y": 1.1232507462,
				"z": 0.8774751825,
				"element": "C" 
			},
			{
				"x": 3.7260606074,
				"y": 0.0864377987,
				"z": 1.7326417232,
				"element": "C" 
			},
			{
				"x": 4.6652730959,
				"y": -0.8743292987,
				"z": 0.9808815199,
				"element": "C" 
			},
			{
				"x": 3.9946180239,
				"y": -1.8387334122,
				"z": -0.0227523299,
				"element": "C" 
			},
			{
				"x": 3.8988400333,
				"y": -1.3238888348,
				"z": -1.4675018569,
				"element": "C" 
			},
			{
				"x": 3.2476509375,
				"y": -2.3299978407,
				"z": -2.4258877198,
				"element": "C" 
			},
			{
				"x": 3.1933203681,
				"y": -1.8305840736,
				"z": -3.8782379723,
				"element": "C" 
			},
			{
				"x": 2.6103482802,
				"y": -2.8195086823,
				"z": -4.9114170911,
				"element": "C" 
			},
			{
				"x": 1.0852939059,
				"y": -2.7637579213,
				"z": -5.1294315261,
				"element": "C" 
			},
			{
				"x": 0.1815060738,
				"y": -3.1937855744,
				"z": -3.9589357972,
				"element": "C" 
			},
			{
				"x": 0.3527998982,
				"y": -4.6432028121,
				"z": -3.471971945,
				"element": "C" 
			},
			{
				"x": 0.0151703376,
				"y": -5.7161064664,
				"z": -4.5169567231,
				"element": "C" 
			},
			{
				"x": 0.1081631556,
				"y": -7.1407770224,
				"z": -3.9602779096,
				"element": "C" 
			},
			{
				"x": -4.7539244593,
				"y": -1.4167993482,
				"z": 1.685154247,
				"element": "H" 
			},
			{
				"x": -4.5491044673,
				"y": 0.1105065323,
				"z": 0.8173951275,
				"element": "H" 
			},
			{
				"x": -4.032154891,
				"y": -0.0306518321,
				"z": 2.5030424506,
				"element": "H" 
			},
			{
				"x": -6.4188068811,
				"y": -0.3375755015,
				"z": 3.2244807944,
				"element": "H" 
			},
			{
				"x": -6.9476610573,
				"y": -0.3046315952,
				"z": 1.5533523237,
				"element": "H" 
			},
			{
				"x": -6.2790365382,
				"y": 2.0793895359,
				"z": 1.3456195753,
				"element": "H" 
			},
			{
				"x": -7.483306502,
				"y": 1.7953588587,
				"z": 2.5804834518,
				"element": "H" 
			},
			{
				"x": -6.1434082832,
				"y": 3.1698709076,
				"z": 3.8438205173,
				"element": "H" 
			},
			{
				"x": -5.3164767218,
				"y": 1.6700470838,
				"z": 4.1983055414,
				"element": "H" 
			},
			{
				"x": -3.6781896556,
				"y": 2.2355371342,
				"z": 2.2926128497,
				"element": "H" 
			},
			{
				"x": -3.6171117836,
				"y": 3.2685072999,
				"z": 3.7083384846,
				"element": "H" 
			},
			{
				"x": -5.0526537262,
				"y": 4.9616796965,
				"z": 2.5560439952,
				"element": "H" 
			},
			{
				"x": -5.0692412981,
				"y": 3.980022548,
				"z": 1.102399781,
				"element": "H" 
			},
			{
				"x": -2.5580965313,
				"y": 5.1729946353,
				"z": 2.3888076469,
				"element": "H" 
			},
			{
				"x": -3.4239344771,
				"y": 5.872990988,
				"z": 1.0330209118,
				"element": "H" 
			},
			{
				"x": -1.9861069578,
				"y": 3.1655607275,
				"z": 1.0035255826,
				"element": "H" 
			},
			{
				"x": -2.9843366663,
				"y": 3.7661732113,
				"z": -0.3032604732,
				"element": "H" 
			},
			{
				"x": -1.4996291321,
				"y": 5.7265166372,
				"z": -0.6112071658,
				"element": "H" 
			},
			{
				"x": -0.6685358699,
				"y": 4.2044068051,
				"z": -0.8488107757,
				"element": "H" 
			},
			{
				"x": 0.7175077545,
				"y": 5.8493316005,
				"z": 0.3702616516,
				"element": "H" 
			},
			{
				"x": -0.4901114007,
				"y": 6.0086314071,
				"z": 1.6266808997,
				"element": "H" 
			},
			{
				"x": 1.3159679716,
				"y": 4.6348269958,
				"z": 2.4493732255,
				"element": "H" 
			},
			{
				"x": -0.1105186921,
				"y": 3.6285446365,
				"z": 2.3221999693,
				"element": "H" 
			},
			{
				"x": 0.7552112395,
				"y": 2.6468336274,
				"z": 0.1812988206,
				"element": "H" 
			},
			{
				"x": 2.146572289,
				"y": 3.7145067295,
				"z": 0.2473269247,
				"element": "H" 
			},
			{
				"x": 1.4632480353,
				"y": 1.5810424981,
				"z": 2.3448980733,
				"element": "H" 
			},
			{
				"x": 2.858691996,
				"y": 2.6432869689,
				"z": 2.4101949235,
				"element": "H" 
			},
			{
				"x": 2.3037805565,
				"y": 0.6164783489,
				"z": 0.1813048035,
				"element": "H" 
			},
			{
				"x": 3.7084599156,
				"y": 1.6684882317,
				"z": 0.2547518956,
				"element": "H" 
			},
			{
				"x": 2.9891275838,
				"y": -0.5056998473,
				"z": 2.2944594669,
				"element": "H" 
			},
			{
				"x": 4.3187287562,
				"y": 0.6201668231,
				"z": 2.488888014,
				"element": "H" 
			},
			{
				"x": 5.4431703963,
				"y": -0.2947719182,
				"z": 0.4634864355,
				"element": "H" 
			},
			{
				"x": 5.1933015639,
				"y": -1.469055435,
				"z": 1.7368802541,
				"element": "H" 
			},
			{
				"x": 4.5599307935,
				"y": -2.7801536217,
				"z": -0.0403705197,
				"element": "H" 
			},
			{
				"x": 2.9913370117,
				"y": -2.1039865962,
				"z": 0.3410778332,
				"element": "H" 
			},
			{
				"x": 4.9103478816,
				"y": -1.0849556574,
				"z": -1.8267239864,
				"element": "H" 
			},
			{
				"x": 3.3389830317,
				"y": -0.381131007,
				"z": -1.4997107169,
				"element": "H" 
			},
			{
				"x": 2.2398834545,
				"y": -2.5678982284,
				"z": -2.0641503674,
				"element": "H" 
			},
			{
				"x": 3.810290285,
				"y": -3.2744442176,
				"z": -2.3946782371,
				"element": "H" 
			},
			{
				"x": 2.6304860974,
				"y": -0.8867805238,
				"z": -3.9211235178,
				"element": "H" 
			},
			{
				"x": 4.2184622545,
				"y": -1.5762867869,
				"z": -4.180017837,
				"element": "H" 
			},
			{
				"x": 2.920190447,
				"y": -3.8412349512,
				"z": -4.6528301436,
				"element": "H" 
			},
			{
				"x": 3.075684435,
				"y": -2.6117749087,
				"z": -5.8833721612,
				"element": "H" 
			},
			{
				"x": 0.8447894127,
				"y": -3.3775908287,
				"z": -6.0071464895,
				"element": "H" 
			},
			{
				"x": 0.8164810277,
				"y": -1.7354650001,
				"z": -5.4083180767,
				"element": "H" 
			},
			{
				"x": -0.8634655852,
				"y": -3.0514203838,
				"z": -4.2684456033,
				"element": "H" 
			},
			{
				"x": 0.3317767823,
				"y": -2.5135802478,
				"z": -3.1116317575,
				"element": "H" 
			},
			{
				"x": -0.2935064136,
				"y": -4.7918434449,
				"z": -2.5957674185,
				"element": "H" 
			},
			{
				"x": 1.3788191161,
				"y": -4.8006639342,
				"z": -3.113354402,
				"element": "H" 
			},
			{
				"x": 0.6869575339,
				"y": -5.6225327083,
				"z": -5.379530967,
				"element": "H" 
			},
			{
				"x": -0.9988211442,
				"y": -5.5383984149,
				"z": -4.9017134011,
				"element": "H" 
			},
			{
				"x": -0.1366558283,
				"y": -7.8872880371,
				"z": -4.7231315834,
				"element": "H" 
			},
			{
				"x": 1.1187059227,
				"y": -7.3581759156,
				"z": -3.5953762403,
				"element": "H" 
			},
			{
				"x": -0.5818944236,
				"y": -7.284147421,
				"z": -3.1207510977,
				"element": "H" 
			}
		],
		 "valence_orbital": [ 
			{
				"type": "occ",
				"energy": -0.29989,
				"method": "rhf"
			},
			{
				"type": "occ",
				"energy": -0.29848,
				"method": "rhf"
			},
			{
				"type": "occ",
				"energy": -0.29597,
				"method": "rhf"
			},
			{
				"type": "occ",
				"energy": -0.28955,
				"method": "rhf"
			},
			{
				"type": "occ",
				"energy": -0.28757,
				"method": "rhf"
			},
			{
				"type": "unocc",
				"energy": 0.078,
				"method": "rhf"
			},
			{
				"type": "unocc",
				"energy": 0.08015,
				"method": "rhf"
			},
			{
				"type": "unocc",
				"energy": 0.08781,
				"method": "rhf"
			},
			{
				"type": "unocc",
				"energy": 0.08938,
				"method": "rhf"
			},
			{
				"type": "unocc",
				"energy": 0.09977,
				"method": "rhf"
			}
		],
		"cosmo_sigma_profile": { 
			"-0.025": 0.0,
			"-0.024": 0.0,
			"-0.023": 0.0,
			"-0.022": 0.0,
			"-0.021": 0.0,
			"-0.02": 0.0,
			"-0.019": 0.0,
			"-0.018": 0.0,
			"-0.017": 0.0,
			"-0.016": 0.0,
			"-0.015": 0.0,
			"-0.014": 0.0,
			"-0.013": 0.0,
			"-0.012": 0.0,
			"-0.011": 0.0,
			"-0.01": 0.0,
			"-0.009": 0.0,
			"-0.008": 0.0,
			"-0.007": 0.0,
			"-0.006": 0.0,
			"-0.005": 0.0,
			"-0.004": 0.0,
			"-0.003": 2.23875771599,
			"-0.002": 54.5226764101,
			"-0.001": 148.391016602,
			"0.0": 167.842966933,
			"0.001": 131.789094165,
			"0.002": 63.3425939688,
			"0.003": 2.21582861101,
			"0.004": 0.0,
			"0.005": 0.0,
			"0.006": 0.0,
			"0.007": 0.0,
			"0.008": 0.0,
			"0.009": 0.0,
			"0.01": 0.0,
			"0.011": 0.0,
			"0.012": 0.0,
			"0.013": 0.0,
			"0.014": 0.0,
			"0.015": 0.0,
			"0.016": 0.0,
			"0.017": 0.0,
			"0.018": 0.0,
			"0.019": 0.0,
			"0.02": 0.0,
			"0.021": 0.0,
			"0.022": 0.0,
			"0.023": 0.0,
			"0.024": 0.0,
			"0.025": 0.0
		}
	}
}
