{
	 "smiles": "CCC(C=C1C2CCC(C)(C1=O)C2(C)C)C(O)=O", 
	 "Tm": 391.15, 
	 "num_atms": 40, 
	 "gaussian": { 
		 "optdone": 1, 
		 "sigma_profile": "yes", 
		 "theory": "DFT", 
		 "functional": "B3LYP", 
		 "basiset": "6-31G**", 
		 "properties": { 
			 "R2extent": 5089.4158, 
			 "electric_dipole_moment_norm": 1.3456095942, 
			 "electric_quadrupole_moment_norm": 21.5612667895, 
			 "total_energy": -810.531923856, 
			 "HOMO_LUMO_gap": 0.18151, 
			 "cosmo_polarized_energy": -15.4, 
			 "cosmo_cavitation_energy": 39.18, 
			 "cosmo_dispersion_energy": -26.08, 
			 "cosmo_repulsion_energy": 1.99, 
			 "cosmo_total_nonelectrostatic_energy": 15.1, 
			 "SMD_solvation_energy": 7.67 
		},
		"coords": [
			{
				"x": -0.2074165152,
				"y": -3.3670056337,
				"z": 4.1913741529,
				"element": "C" 
			},
			{
				"x": -0.1848587005,
				"y": -2.6613127398,
				"z": 2.8318170826,
				"element": "C" 
			},
			{
				"x": -1.0348591667,
				"y": -1.369024185,
				"z": 2.7825860656,
				"element": "C" 
			},
			{
				"x": -1.358053069,
				"y": -0.9601932593,
				"z": 1.3583118578,
				"element": "C" 
			},
			{
				"x": -0.63445858,
				"y": -0.1891571319,
				"z": 0.5338232698,
				"element": "C" 
			},
			{
				"x": 0.6876315299,
				"y": 0.5387622788,
				"z": 0.6686036893,
				"element": "C" 
			},
			{
				"x": 1.6925322043,
				"y": -0.2596306297,
				"z": -0.2150378799,
				"element": "C" 
			},
			{
				"x": 1.2087222047,
				"y": 0.0474863285,
				"z": -1.6648485329,
				"element": "C" 
			},
			{
				"x": -0.0022598548,
				"y": 1.0211850198,
				"z": -1.4712821106,
				"element": "C" 
			},
			{
				"x": -0.4368512205,
				"y": 1.7711747533,
				"z": -2.7176314213,
				"element": "C" 
			},
			{
				"x": -1.0868614537,
				"y": 0.1136742853,
				"z": -0.8744393264,
				"element": "C" 
			},
			{
				"x": -2.0979191171,
				"y": -0.2885610586,
				"z": -1.4181053567,
				"element": "O" 
			},
			{
				"x": 0.428273493,
				"y": 1.8272548341,
				"z": -0.1885582389,
				"element": "C" 
			},
			{
				"x": 1.6770870331,
				"y": 2.7031790999,
				"z": -0.3747404852,
				"element": "C" 
			},
			{
				"x": -0.690385835,
				"y": 2.7188519545,
				"z": 0.3808364519,
				"element": "C" 
			},
			{
				"x": -0.4027239928,
				"y": -0.2308945254,
				"z": 3.5985251114,
				"element": "C" 
			},
			{
				"x": -1.0812842055,
				"y": 0.9465079065,
				"z": 3.56762245,
				"element": "O" 
			},
			{
				"x": 0.6031122252,
				"y": -0.3265589627,
				"z": 4.2581539589,
				"element": "O" 
			},
			{
				"x": 0.3953866023,
				"y": -4.2801366742,
				"z": 4.1588100455,
				"element": "H" 
			},
			{
				"x": -1.2279538251,
				"y": -3.654799946,
				"z": 4.4706113186,
				"element": "H" 
			},
			{
				"x": 0.1970678342,
				"y": -2.7207513498,
				"z": 4.973004597,
				"element": "H" 
			},
			{
				"x": -0.5601865315,
				"y": -3.3405182221,
				"z": 2.0576388005,
				"element": "H" 
			},
			{
				"x": 0.8437297492,
				"y": -2.4038466742,
				"z": 2.5578763492,
				"element": "H" 
			},
			{
				"x": -1.9937598797,
				"y": -1.5821495262,
				"z": 3.2801438819,
				"element": "H" 
			},
			{
				"x": -2.2706504295,
				"y": -1.3779696604,
				"z": 0.9322436843,
				"element": "H" 
			},
			{
				"x": 1.0370963926,
				"y": 0.7147661141,
				"z": 1.6868463148,
				"element": "H" 
			},
			{
				"x": 1.6706721452,
				"y": -1.3272728066,
				"z": 0.0180283997,
				"element": "H" 
			},
			{
				"x": 2.7156568205,
				"y": 0.0866971957,
				"z": -0.0457183511,
				"element": "H" 
			},
			{
				"x": 0.9123598363,
				"y": -0.8519231466,
				"z": -2.2133197924,
				"element": "H" 
			},
			{
				"x": 1.9847779707,
				"y": 0.5393542284,
				"z": -2.2591956827,
				"element": "H" 
			},
			{
				"x": -1.2619651642,
				"y": 2.4577687286,
				"z": -2.503963927,
				"element": "H" 
			},
			{
				"x": 0.3901193179,
				"y": 2.3488153978,
				"z": -3.1429978458,
				"element": "H" 
			},
			{
				"x": -0.7917283181,
				"y": 1.0686999761,
				"z": -3.4778035091,
				"element": "H" 
			},
			{
				"x": 2.5337595825,
				"y": 2.1674824774,
				"z": -0.7880447076,
				"element": "H" 
			},
			{
				"x": 1.9850085312,
				"y": 3.1251181097,
				"z": 0.5885122308,
				"element": "H" 
			},
			{
				"x": 1.4589955235,
				"y": 3.5424079551,
				"z": -1.0437226307,
				"element": "H" 
			},
			{
				"x": -0.8555812556,
				"y": 3.590429101,
				"z": -0.2609214944,
				"element": "H" 
			},
			{
				"x": -0.4162984534,
				"y": 3.0861130739,
				"z": 1.375560134,
				"element": "H" 
			},
			{
				"x": -1.6485268762,
				"y": 2.197724827,
				"z": 0.471039193,
				"element": "H" 
			},
			{
				"x": -1.7954065518,
				"y": 0.8924524867,
				"z": 2.914162253,
				"element": "H" 
			}
		],
		 "valence_orbital": [ 
			{
				"type": "occ",
				"energy": -0.31891,
				"method": "rhf"
			},
			{
				"type": "occ",
				"energy": -0.30486,
				"method": "rhf"
			},
			{
				"type": "occ",
				"energy": -0.27594,
				"method": "rhf"
			},
			{
				"type": "occ",
				"energy": -0.26346,
				"method": "rhf"
			},
			{
				"type": "occ",
				"energy": -0.2418,
				"method": "rhf"
			},
			{
				"type": "unocc",
				"energy": -0.06029,
				"method": "rhf"
			},
			{
				"type": "unocc",
				"energy": 0.00281,
				"method": "rhf"
			},
			{
				"type": "unocc",
				"energy": 0.052,
				"method": "rhf"
			},
			{
				"type": "unocc",
				"energy": 0.05894,
				"method": "rhf"
			},
			{
				"type": "unocc",
				"energy": 0.07814,
				"method": "rhf"
			}
		],
		"cosmo_sigma_profile": { 
			"-0.025": 0.0,
			"-0.024": 0.0,
			"-0.023": 0.0,
			"-0.022": 0.0,
			"-0.021": 0.0,
			"-0.02": 0.0,
			"-0.019": 0.0,
			"-0.018": 0.00845774325075,
			"-0.017": 0.270313365279,
			"-0.016": 0.990198363062,
			"-0.015": 0.304972599963,
			"-0.014": 0.903666050403,
			"-0.013": 0.852283400763,
			"-0.012": 0.956227971454,
			"-0.011": 0.778826944827,
			"-0.01": 1.28397037246,
			"-0.009": 1.48463682249,
			"-0.008": 2.43595958439,
			"-0.007": 4.08361621021,
			"-0.006": 5.31124678506,
			"-0.005": 6.17662205309,
			"-0.004": 15.0840721328,
			"-0.003": 39.5157511936,
			"-0.002": 47.1182269266,
			"-0.001": 41.1734456761,
			"0.0": 38.2711937204,
			"0.001": 30.6840888773,
			"0.002": 9.81113578325,
			"0.003": 4.94434340195,
			"0.004": 3.60050734326,
			"0.005": 5.0372554786,
			"0.006": 4.85914762275,
			"0.007": 3.08878009783,
			"0.008": 4.14843732028,
			"0.009": 5.24463434153,
			"0.01": 6.18208885723,
			"0.011": 7.78035533342,
			"0.012": 8.50472264291,
			"0.013": 2.66203434056,
			"0.014": 0.0,
			"0.015": 0.0,
			"0.016": 0.0,
			"0.017": 0.0,
			"0.018": 0.0,
			"0.019": 0.0,
			"0.02": 0.0,
			"0.021": 0.0,
			"0.022": 0.0,
			"0.023": 0.0,
			"0.024": 0.0,
			"0.025": 0.0
		}
	}
}
