{
	 "smiles": "CC1CCC2=CC3=C(C=CC(C)=N3)C=C2N1C(=O)C1=CC=CC=C1", 
	 "Tm": 428.15, 
	 "num_atms": 44, 
	 "gaussian": { 
		 "optdone": 1, 
		 "sigma_profile": "yes", 
		 "theory": "DFT", 
		 "functional": "B3LYP", 
		 "basiset": "6-31G**", 
		 "properties": { 
			 "R2extent": 8450.8683, 
			 "electric_dipole_moment_norm": 1.7998733761, 
			 "electric_quadrupole_moment_norm": 22.9171169952, 
			 "total_energy": -997.05868686, 
			 "HOMO_LUMO_gap": 0.15785, 
			 "cosmo_polarized_energy": -13.39, 
			 "cosmo_cavitation_energy": 45.49, 
			 "cosmo_dispersion_energy": -31.11, 
			 "cosmo_repulsion_energy": 2.36, 
			 "cosmo_total_nonelectrostatic_energy": 16.73, 
			 "SMD_solvation_energy": 6.11 
		},
		"coords": [
			{
				"x": 2.8518002666,
				"y": 2.2835378936,
				"z": 2.6044517544,
				"element": "C" 
			},
			{
				"x": 2.5425449377,
				"y": 2.7877019268,
				"z": 1.1904038278,
				"element": "C" 
			},
			{
				"x": 3.5814584275,
				"y": 2.3979555108,
				"z": 0.1289534589,
				"element": "C" 
			},
			{
				"x": 3.6340850428,
				"y": 0.8804312859,
				"z": -0.0838405653,
				"element": "C" 
			},
			{
				"x": 2.2711126886,
				"y": 0.2124657075,
				"z": -0.0328492844,
				"element": "C" 
			},
			{
				"x": 2.1553475905,
				"y": -1.1261685381,
				"z": -0.3507299758,
				"element": "C" 
			},
			{
				"x": 0.9346842512,
				"y": -1.8308920612,
				"z": -0.2292687051,
				"element": "C" 
			},
			{
				"x": -0.2012078572,
				"y": -1.1279313078,
				"z": 0.2741092523,
				"element": "C" 
			},
			{
				"x": -1.4038541715,
				"y": -1.8695223444,
				"z": 0.4233109433,
				"element": "C" 
			},
			{
				"x": -1.4221700927,
				"y": -3.1959669617,
				"z": 0.0755305159,
				"element": "C" 
			},
			{
				"x": -0.2363732326,
				"y": -3.811504211,
				"z": -0.4290218892,
				"element": "C" 
			},
			{
				"x": -0.2524689885,
				"y": -5.269124227,
				"z": -0.818080718,
				"element": "C" 
			},
			{
				"x": 0.8990296556,
				"y": -3.1526399671,
				"z": -0.5735872545,
				"element": "N" 
			},
			{
				"x": -0.0806736868,
				"y": 0.2386355078,
				"z": 0.6083718623,
				"element": "C" 
			},
			{
				"x": 1.1097472171,
				"y": 0.9238687233,
				"z": 0.415763465,
				"element": "C" 
			},
			{
				"x": 1.2249939733,
				"y": 2.3090030637,
				"z": 0.7073217383,
				"element": "N" 
			},
			{
				"x": 0.1873378855,
				"y": 3.2391634006,
				"z": 0.6847851771,
				"element": "C" 
			},
			{
				"x": 0.2545647334,
				"y": 4.2675685096,
				"z": 1.353470401,
				"element": "O" 
			},
			{
				"x": -0.9768487512,
				"y": 3.0406384443,
				"z": -0.2462951619,
				"element": "C" 
			},
			{
				"x": -0.8388094492,
				"y": 2.497624956,
				"z": -1.5316536196,
				"element": "C" 
			},
			{
				"x": -1.9316914791,
				"y": 2.4564201727,
				"z": -2.3961944782,
				"element": "C" 
			},
			{
				"x": -3.1736815916,
				"y": 2.9436923228,
				"z": -1.9819435083,
				"element": "C" 
			},
			{
				"x": -3.3149059566,
				"y": 3.4936047653,
				"z": -0.7056985331,
				"element": "C" 
			},
			{
				"x": -2.2179350723,
				"y": 3.5562050215,
				"z": 0.1517695079,
				"element": "C" 
			},
			{
				"x": 3.8296195174,
				"y": 2.652733624,
				"z": 2.9316645274,
				"element": "H" 
			},
			{
				"x": 2.0957173678,
				"y": 2.6533426313,
				"z": 3.3020496114,
				"element": "H" 
			},
			{
				"x": 2.8642394549,
				"y": 1.1908439362,
				"z": 2.6613199409,
				"element": "H" 
			},
			{
				"x": 2.4566314352,
				"y": 3.8737140212,
				"z": 1.2295511705,
				"element": "H" 
			},
			{
				"x": 3.3104275657,
				"y": 2.9005378902,
				"z": -0.8067348381,
				"element": "H" 
			},
			{
				"x": 4.5689915478,
				"y": 2.7733806066,
				"z": 0.418936145,
				"element": "H" 
			},
			{
				"x": 4.1274883279,
				"y": 0.6465087632,
				"z": -1.0339856531,
				"element": "H" 
			},
			{
				"x": 4.2595338323,
				"y": 0.4237813047,
				"z": 0.6946409824,
				"element": "H" 
			},
			{
				"x": 3.0205125445,
				"y": -1.6843829344,
				"z": -0.6979966497,
				"element": "H" 
			},
			{
				"x": -2.2941411881,
				"y": -1.3770631148,
				"z": 0.8066595834,
				"element": "H" 
			},
			{
				"x": -2.3284594919,
				"y": -3.7860860699,
				"z": 0.177052305,
				"element": "H" 
			},
			{
				"x": -0.9917708011,
				"y": -5.460540866,
				"z": -1.6049630313,
				"element": "H" 
			},
			{
				"x": -0.5207693481,
				"y": -5.9033102984,
				"z": 0.0352885123,
				"element": "H" 
			},
			{
				"x": 0.7332135067,
				"y": -5.5642855831,
				"z": -1.1805947337,
				"element": "H" 
			},
			{
				"x": -0.9452047642,
				"y": 0.7537296673,
				"z": 1.0113147753,
				"element": "H" 
			},
			{
				"x": 0.1230948261,
				"y": 2.1170115086,
				"z": -1.8581277732,
				"element": "H" 
			},
			{
				"x": -1.8135564557,
				"y": 2.0440745301,
				"z": -3.3940197552,
				"element": "H" 
			},
			{
				"x": -4.0255972476,
				"y": 2.9024754143,
				"z": -2.6547266228,
				"element": "H" 
			},
			{
				"x": -4.2759142665,
				"y": 3.8841528894,
				"z": -0.3836370487,
				"element": "H" 
			},
			{
				"x": -2.3012427034,
				"y": 4.0128144856,
				"z": 1.1324303413,
				"element": "H" 
			}
		],
		 "valence_orbital": [ 
			{
				"type": "occ",
				"energy": -0.25652,
				"method": "rhf"
			},
			{
				"type": "occ",
				"energy": -0.24819,
				"method": "rhf"
			},
			{
				"type": "occ",
				"energy": -0.24448,
				"method": "rhf"
			},
			{
				"type": "occ",
				"energy": -0.23136,
				"method": "rhf"
			},
			{
				"type": "occ",
				"energy": -0.20822,
				"method": "rhf"
			},
			{
				"type": "unocc",
				"energy": -0.05037,
				"method": "rhf"
			},
			{
				"type": "unocc",
				"energy": -0.0372,
				"method": "rhf"
			},
			{
				"type": "unocc",
				"energy": -0.01088,
				"method": "rhf"
			},
			{
				"type": "unocc",
				"energy": -0.00322,
				"method": "rhf"
			},
			{
				"type": "unocc",
				"energy": 0.02073,
				"method": "rhf"
			}
		],
		"cosmo_sigma_profile": { 
			"-0.025": 0.0,
			"-0.024": 0.0,
			"-0.023": 0.0,
			"-0.022": 0.0,
			"-0.021": 0.0,
			"-0.02": 0.0,
			"-0.019": 0.0,
			"-0.018": 0.0,
			"-0.017": 0.0,
			"-0.016": 0.0,
			"-0.015": 0.0,
			"-0.014": 0.0,
			"-0.013": 0.0,
			"-0.012": 0.0,
			"-0.011": 0.0,
			"-0.01": 0.0,
			"-0.009": 0.0,
			"-0.008": 0.0,
			"-0.007": 2.71534322595,
			"-0.006": 12.8603803272,
			"-0.005": 21.5369192754,
			"-0.004": 37.371400939,
			"-0.003": 44.3375620225,
			"-0.002": 40.3953342508,
			"-0.001": 33.170098177,
			"0.0": 30.4982455251,
			"0.001": 22.8566821719,
			"0.002": 25.1509715377,
			"0.003": 27.6280540269,
			"0.004": 21.7760691015,
			"0.005": 10.4898323096,
			"0.006": 4.04185461991,
			"0.007": 2.65456541557,
			"0.008": 3.57550676145,
			"0.009": 2.88320602421,
			"0.01": 3.39356272171,
			"0.011": 2.44351940244,
			"0.012": 2.85252055605,
			"0.013": 5.70704835393,
			"0.014": 1.44201875262,
			"0.015": 0.690960507491,
			"0.016": 0.473142171984,
			"0.017": 0.0,
			"0.018": 0.0,
			"0.019": 0.0,
			"0.02": 0.0,
			"0.021": 0.0,
			"0.022": 0.0,
			"0.023": 0.0,
			"0.024": 0.0,
			"0.025": 0.0
		}
	}
}
