{
	 "smiles": "CN1C2=C(C=C(Cl)C=C2)C(=NCC1=O)C1=CC=CC=C1", 
	 "Tm": 405.15, 
	 "num_atms": 33, 
	 "gaussian": { 
		 "optdone": 1, 
		 "sigma_profile": "yes", 
		 "theory": "DFT", 
		 "functional": "B3LYP", 
		 "basiset": "6-31G**", 
		 "properties": { 
			 "R2extent": 6503.0305, 
			 "electric_dipole_moment_norm": 2.85611448475, 
			 "electric_quadrupole_moment_norm": 20.4878693746, 
			 "total_energy": -1262.45844618, 
			 "HOMO_LUMO_gap": 0.17107, 
			 "cosmo_polarized_energy": -13.19, 
			 "cosmo_cavitation_energy": 37.92, 
			 "cosmo_dispersion_energy": -26.99, 
			 "cosmo_repulsion_energy": 2.07, 
			 "cosmo_total_nonelectrostatic_energy": 13.0, 
			 "SMD_solvation_energy": 4.15 
		},
		"coords": [
			{
				"x": -3.3005416937,
				"y": 1.3536031489,
				"z": 1.0004419144,
				"element": "C" 
			},
			{
				"x": -2.1075516536,
				"y": 0.9528166094,
				"z": 0.2477895795,
				"element": "N" 
			},
			{
				"x": -0.8349256865,
				"y": 1.3930055323,
				"z": 0.6818889668,
				"element": "C" 
			},
			{
				"x": 0.3208699274,
				"y": 0.5797102255,
				"z": 0.5784919883,
				"element": "C" 
			},
			{
				"x": 1.5491159432,
				"y": 1.0798167841,
				"z": 1.0453659189,
				"element": "C" 
			},
			{
				"x": 1.6339747786,
				"y": 2.342274796,
				"z": 1.6156828697,
				"element": "C" 
			},
			{
				"x": 3.1851615751,
				"y": 2.9422615289,
				"z": 2.1786544271,
				"element": "Cl" 
			},
			{
				"x": 0.494890008,
				"y": 3.136847422,
				"z": 1.7513396984,
				"element": "C" 
			},
			{
				"x": -0.7228931519,
				"y": 2.6589709616,
				"z": 1.2849627551,
				"element": "C" 
			},
			{
				"x": 0.2770113642,
				"y": -0.7848708186,
				"z": -0.0228858222,
				"element": "C" 
			},
			{
				"x": -0.3610254245,
				"y": -1.0654696114,
				"z": -1.1040376209,
				"element": "N" 
			},
			{
				"x": -1.0797889396,
				"y": -0.0009670489,
				"z": -1.7849234535,
				"element": "C" 
			},
			{
				"x": -2.3352491144,
				"y": 0.3749991246,
				"z": -1.0012668832,
				"element": "C" 
			},
			{
				"x": -3.4636559487,
				"y": 0.1724241656,
				"z": -1.4141868169,
				"element": "O" 
			},
			{
				"x": 1.0229815911,
				"y": -1.8953096019,
				"z": 0.6415771336,
				"element": "C" 
			},
			{
				"x": 1.2667937764,
				"y": -1.9045856602,
				"z": 2.0243762582,
				"element": "C" 
			},
			{
				"x": 1.9262873475,
				"y": -2.9796636045,
				"z": 2.6215876209,
				"element": "C" 
			},
			{
				"x": 2.3561321968,
				"y": -4.0566290394,
				"z": 1.8460736057,
				"element": "C" 
			},
			{
				"x": 2.1150184046,
				"y": -4.058424682,
				"z": 0.4687640295,
				"element": "C" 
			},
			{
				"x": 1.4511066669,
				"y": -2.9908069783,
				"z": -0.1277542721,
				"element": "C" 
			},
			{
				"x": -3.0693810356,
				"y": 1.3576337802,
				"z": 2.0669097708,
				"element": "H" 
			},
			{
				"x": -4.0874882746,
				"y": 0.6307877567,
				"z": 0.788793397,
				"element": "H" 
			},
			{
				"x": -3.6659761288,
				"y": 2.343663761,
				"z": 0.7024583203,
				"element": "H" 
			},
			{
				"x": 2.4376356314,
				"y": 0.4652331815,
				"z": 0.9619645458,
				"element": "H" 
			},
			{
				"x": 0.5637582195,
				"y": 4.120141633,
				"z": 2.2030988245,
				"element": "H" 
			},
			{
				"x": -1.6019102803,
				"y": 3.2868829413,
				"z": 1.3740211337,
				"element": "H" 
			},
			{
				"x": -0.4589836641,
				"y": 0.8975773308,
				"z": -1.9279817472,
				"element": "H" 
			},
			{
				"x": -1.4152230667,
				"y": -0.356885265,
				"z": -2.7593093309,
				"element": "H" 
			},
			{
				"x": 0.9261100707,
				"y": -1.0781503515,
				"z": 2.6394018756,
				"element": "H" 
			},
			{
				"x": 2.1000603284,
				"y": -2.9751395238,
				"z": 3.6937150467,
				"element": "H" 
			},
			{
				"x": 2.8748825133,
				"y": -4.8904522512,
				"z": 2.3103814112,
				"element": "H" 
			},
			{
				"x": 2.4476836729,
				"y": -4.894018441,
				"z": -0.140380165,
				"element": "H" 
			},
			{
				"x": 1.2483200475,
				"y": -2.9842778057,
				"z": -1.19291498,
				"element": "H" 
			}
		],
		 "valence_orbital": [ 
			{
				"type": "occ",
				"energy": -0.26835,
				"method": "rhf"
			},
			{
				"type": "occ",
				"energy": -0.25813,
				"method": "rhf"
			},
			{
				"type": "occ",
				"energy": -0.25426,
				"method": "rhf"
			},
			{
				"type": "occ",
				"energy": -0.24032,
				"method": "rhf"
			},
			{
				"type": "occ",
				"energy": -0.23204,
				"method": "rhf"
			},
			{
				"type": "unocc",
				"energy": -0.06097,
				"method": "rhf"
			},
			{
				"type": "unocc",
				"energy": -0.03195,
				"method": "rhf"
			},
			{
				"type": "unocc",
				"energy": -0.02592,
				"method": "rhf"
			},
			{
				"type": "unocc",
				"energy": -0.00435,
				"method": "rhf"
			},
			{
				"type": "unocc",
				"energy": 0.01491,
				"method": "rhf"
			}
		],
		"cosmo_sigma_profile": { 
			"-0.025": 0.0,
			"-0.024": 0.0,
			"-0.023": 0.0,
			"-0.022": 0.0,
			"-0.021": 0.0,
			"-0.02": 0.0,
			"-0.019": 0.0,
			"-0.018": 0.0,
			"-0.017": 0.0,
			"-0.016": 0.0,
			"-0.015": 0.0,
			"-0.014": 0.0,
			"-0.013": 0.0,
			"-0.012": 0.0,
			"-0.011": 0.0,
			"-0.01": 0.0,
			"-0.009": 0.0218858883971,
			"-0.008": 2.61940451702,
			"-0.007": 7.41726887627,
			"-0.006": 17.9189975666,
			"-0.005": 23.8311023303,
			"-0.004": 27.4725629454,
			"-0.003": 25.4204889832,
			"-0.002": 26.5542288727,
			"-0.001": 21.3686000287,
			"0.0": 23.1612578791,
			"0.001": 24.0523065663,
			"0.002": 22.1542047092,
			"0.003": 18.9531040256,
			"0.004": 22.4469034812,
			"0.005": 15.8560624292,
			"0.006": 3.75515258038,
			"0.007": 2.65986972443,
			"0.008": 2.66829591717,
			"0.009": 2.21360920247,
			"0.01": 3.15306566539,
			"0.011": 2.52231171838,
			"0.012": 4.54731171661,
			"0.013": 4.24276892094,
			"0.014": 0.941393064019,
			"0.015": 0.0,
			"0.016": 0.0,
			"0.017": 0.0,
			"0.018": 0.0,
			"0.019": 0.0,
			"0.02": 0.0,
			"0.021": 0.0,
			"0.022": 0.0,
			"0.023": 0.0,
			"0.024": 0.0,
			"0.025": 0.0
		}
	}
}
