{
	 "smiles": "COC(=O)C1=C(F)C=C(F)C(=C1)S(Cl)(=O)=O", 
	 "Tm": 378.15, 
	 "num_atms": 21, 
	 "gaussian": { 
		 "optdone": 1, 
		 "sigma_profile": "yes", 
		 "theory": "DFT", 
		 "functional": "B3LYP", 
		 "basiset": "6-31G**", 
		 "properties": { 
			 "R2extent": 6235.2276, 
			 "electric_dipole_moment_norm": 3.08765048054, 
			 "electric_quadrupole_moment_norm": 23.9205819743, 
			 "total_energy": -1666.7336706, 
			 "HOMO_LUMO_gap": 0.19684, 
			 "cosmo_polarized_energy": -11.96, 
			 "cosmo_cavitation_energy": 31.0, 
			 "cosmo_dispersion_energy": -22.66, 
			 "cosmo_repulsion_energy": 1.69, 
			 "cosmo_total_nonelectrostatic_energy": 10.03, 
			 "SMD_solvation_energy": 6.56 
		},
		"coords": [
			{
				"x": -0.8452309608,
				"y": 0.3452250882,
				"z": -3.7803803876,
				"element": "C" 
			},
			{
				"x": -0.4911103214,
				"y": -0.2230199567,
				"z": -2.5067694493,
				"element": "O" 
			},
			{
				"x": 0.515404797,
				"y": 0.4014060373,
				"z": -1.8579190264,
				"element": "C" 
			},
			{
				"x": 1.0966037325,
				"y": 1.3717129635,
				"z": -2.29171399,
				"element": "O" 
			},
			{
				"x": 0.8053909746,
				"y": -0.2643734032,
				"z": -0.551256386,
				"element": "C" 
			},
			{
				"x": 1.8134193426,
				"y": 0.2128517903,
				"z": 0.3059487829,
				"element": "C" 
			},
			{
				"x": 2.5410310762,
				"y": 1.2745486541,
				"z": -0.0262702963,
				"element": "F" 
			},
			{
				"x": 2.1009703756,
				"y": -0.3929390235,
				"z": 1.5268027339,
				"element": "C" 
			},
			{
				"x": 1.3643425388,
				"y": -1.5014270553,
				"z": 1.9105053047,
				"element": "C" 
			},
			{
				"x": 1.6426480263,
				"y": -2.0957359034,
				"z": 3.0687748959,
				"element": "F" 
			},
			{
				"x": 0.3496021614,
				"y": -2.0032673081,
				"z": 1.0849932048,
				"element": "C" 
			},
			{
				"x": 0.0809706174,
				"y": -1.3880098092,
				"z": -0.1344459349,
				"element": "C" 
			},
			{
				"x": -0.6559938819,
				"y": -3.3915850616,
				"z": 1.5822929025,
				"element": "S" 
			},
			{
				"x": 0.7450905567,
				"y": -4.9798173436,
				"z": 1.4577489511,
				"element": "Cl" 
			},
			{
				"x": -1.0216299428,
				"y": -3.2645778918,
				"z": 2.9843904402,
				"element": "O" 
			},
			{
				"x": -1.645570713,
				"y": -3.6286832335,
				"z": 0.5395729857,
				"element": "O" 
			},
			{
				"x": 0.0079998312,
				"y": 0.3152282621,
				"z": -4.4619761362,
				"element": "H" 
			},
			{
				"x": -1.1666027047,
				"y": 1.3822776612,
				"z": -3.6593350351,
				"element": "H" 
			},
			{
				"x": -1.6614198057,
				"y": -0.2702355088,
				"z": -4.1567435138,
				"element": "H" 
			},
			{
				"x": 2.8869029672,
				"y": -0.0039609852,
				"z": 2.1624298881,
				"element": "H" 
			},
			{
				"x": -0.702618667,
				"y": -1.7836179729,
				"z": -0.7679499341,
				"element": "H" 
			}
		],
		 "valence_orbital": [ 
			{
				"type": "occ",
				"energy": -0.32263,
				"method": "rhf"
			},
			{
				"type": "occ",
				"energy": -0.32183,
				"method": "rhf"
			},
			{
				"type": "occ",
				"energy": -0.30466,
				"method": "rhf"
			},
			{
				"type": "occ",
				"energy": -0.29449,
				"method": "rhf"
			},
			{
				"type": "occ",
				"energy": -0.29348,
				"method": "rhf"
			},
			{
				"type": "unocc",
				"energy": -0.09664,
				"method": "rhf"
			},
			{
				"type": "unocc",
				"energy": -0.07826,
				"method": "rhf"
			},
			{
				"type": "unocc",
				"energy": -0.05863,
				"method": "rhf"
			},
			{
				"type": "unocc",
				"energy": 0.01166,
				"method": "rhf"
			},
			{
				"type": "unocc",
				"energy": 0.03412,
				"method": "rhf"
			}
		],
		"cosmo_sigma_profile": { 
			"-0.025": 0.0,
			"-0.024": 0.0,
			"-0.023": 0.0,
			"-0.022": 0.0,
			"-0.021": 0.0,
			"-0.02": 0.0,
			"-0.019": 0.0,
			"-0.018": 0.0,
			"-0.017": 0.0,
			"-0.016": 0.0,
			"-0.015": 0.0,
			"-0.014": 0.0,
			"-0.013": 0.0,
			"-0.012": 0.0,
			"-0.011": 1.09485648898,
			"-0.01": 1.90167024816,
			"-0.009": 1.18241277785,
			"-0.008": 2.14442537319,
			"-0.007": 4.47899801297,
			"-0.006": 9.41767876005,
			"-0.005": 18.152817648,
			"-0.004": 32.1024768714,
			"-0.003": 26.3995093747,
			"-0.002": 18.4665798735,
			"-0.001": 11.849629025,
			"0.0": 13.0177737772,
			"0.001": 15.5192686577,
			"0.002": 26.8085566177,
			"0.003": 19.3265610364,
			"0.004": 6.83125284693,
			"0.005": 5.17190765134,
			"0.006": 6.38127099394,
			"0.007": 10.4255864664,
			"0.008": 10.1672047279,
			"0.009": 3.14852505068,
			"0.01": 2.90902745991,
			"0.011": 4.93560435827,
			"0.012": 0.765809376973,
			"0.013": 0.0,
			"0.014": 0.0,
			"0.015": 0.0,
			"0.016": 0.0,
			"0.017": 0.0,
			"0.018": 0.0,
			"0.019": 0.0,
			"0.02": 0.0,
			"0.021": 0.0,
			"0.022": 0.0,
			"0.023": 0.0,
			"0.024": 0.0,
			"0.025": 0.0
		}
	}
}
