{
	 "smiles": "CC1=CC=C(C=C1)S(=O)(=O)NCCN(CCNS(=O)(=O)C1=CC=C(C)C=C1)S(=O)(=O)C1=CC=C(C)C=C1", 
	 "Tm": 448.15, 
	 "num_atms": 68, 
	 "gaussian": { 
		 "optdone": 1, 
		 "sigma_profile": "yes", 
		 "theory": "DFT", 
		 "functional": "B3LYP", 
		 "basiset": "6-31G**", 
		 "properties": { 
			 "R2extent": 23559.9321, 
			 "electric_dipole_moment_norm": 7.58157892131, 
			 "electric_quadrupole_moment_norm": 26.2661512382, 
			 "total_energy": -2781.32528834, 
			 "HOMO_LUMO_gap": 0.20358, 
			 "cosmo_polarized_energy": -30.99, 
			 "cosmo_cavitation_energy": 72.79, 
			 "cosmo_dispersion_energy": -46.87, 
			 "cosmo_repulsion_energy": 3.36, 
			 "cosmo_total_nonelectrostatic_energy": 29.28, 
			 "SMD_solvation_energy": 8.5 
		},
		"coords": [
			{
				"x": 0.6752245986,
				"y": 6.4622711894,
				"z": -4.877254428,
				"element": "C" 
			},
			{
				"x": 0.6262600195,
				"y": 5.3693821379,
				"z": -3.8369949111,
				"element": "C" 
			},
			{
				"x": 0.118033941,
				"y": 4.1016335769,
				"z": -4.1412479297,
				"element": "C" 
			},
			{
				"x": 0.083602555,
				"y": 3.0869264663,
				"z": -3.1824634839,
				"element": "C" 
			},
			{
				"x": 0.5616606939,
				"y": 3.3505609307,
				"z": -1.9012261827,
				"element": "C" 
			},
			{
				"x": 1.080019613,
				"y": 4.6063658778,
				"z": -1.5691266939,
				"element": "C" 
			},
			{
				"x": 1.106201387,
				"y": 5.603779097,
				"z": -2.5367382824,
				"element": "C" 
			},
			{
				"x": 0.5472025828,
				"y": 2.0593376237,
				"z": -0.6609945448,
				"element": "S" 
			},
			{
				"x": 0.030277467,
				"y": 0.8476533908,
				"z": -1.331031341,
				"element": "O" 
			},
			{
				"x": 1.8524540088,
				"y": 2.0405538478,
				"z": 0.0104040372,
				"element": "O" 
			},
			{
				"x": -0.5402992213,
				"y": 2.6028248485,
				"z": 0.4870060239,
				"element": "N" 
			},
			{
				"x": -1.9377736474,
				"y": 2.1560443566,
				"z": 0.4276191943,
				"element": "C" 
			},
			{
				"x": -2.3563644516,
				"y": 1.3940693064,
				"z": 1.6929335223,
				"element": "C" 
			},
			{
				"x": -1.5086932154,
				"y": 0.211292616,
				"z": 1.96675811,
				"element": "N" 
			},
			{
				"x": -2.1774468212,
				"y": -1.0971938848,
				"z": 1.8389879947,
				"element": "C" 
			},
			{
				"x": -2.3988240652,
				"y": -1.4917890255,
				"z": 0.3704771129,
				"element": "C" 
			},
			{
				"x": -1.188943883,
				"y": -1.7331691653,
				"z": -0.4077485896,
				"element": "N" 
			},
			{
				"x": -0.3906872392,
				"y": -3.1927394933,
				"z": -0.2971326979,
				"element": "S" 
			},
			{
				"x": -0.8001144686,
				"y": -3.873954535,
				"z": 0.9410665508,
				"element": "O" 
			},
			{
				"x": 1.0172225977,
				"y": -2.9153873901,
				"z": -0.5959882129,
				"element": "O" 
			},
			{
				"x": -1.0614323837,
				"y": -4.1585858452,
				"z": -1.6541873013,
				"element": "C" 
			},
			{
				"x": -1.9459545063,
				"y": -5.2021877085,
				"z": -1.3907827017,
				"element": "C" 
			},
			{
				"x": -2.4603489935,
				"y": -5.9445405353,
				"z": -2.4560428657,
				"element": "C" 
			},
			{
				"x": -2.0984442202,
				"y": -5.6612833534,
				"z": -3.7778011842,
				"element": "C" 
			},
			{
				"x": -2.6386339088,
				"y": -6.4775039012,
				"z": -4.927584035,
				"element": "C" 
			},
			{
				"x": -1.1992345768,
				"y": -4.6072710782,
				"z": -4.01326895,
				"element": "C" 
			},
			{
				"x": -0.6780235072,
				"y": -3.8573405452,
				"z": -2.9647360502,
				"element": "C" 
			},
			{
				"x": -0.5729820481,
				"y": 0.3985269415,
				"z": 3.3954195931,
				"element": "S" 
			},
			{
				"x": -0.0245071194,
				"y": 1.7655662644,
				"z": 3.2859481574,
				"element": "O" 
			},
			{
				"x": -1.3536327713,
				"y": 0.0372331429,
				"z": 4.5870759334,
				"element": "O" 
			},
			{
				"x": 0.7305708984,
				"y": -0.7970634208,
				"z": 3.1832294164,
				"element": "C" 
			},
			{
				"x": 0.716348273,
				"y": -1.9544477053,
				"z": 3.9633074454,
				"element": "C" 
			},
			{
				"x": 1.7253679622,
				"y": -2.8986418194,
				"z": 3.7834897586,
				"element": "C" 
			},
			{
				"x": 2.739190907,
				"y": -2.7021107171,
				"z": 2.8375414472,
				"element": "C" 
			},
			{
				"x": 3.7920849198,
				"y": -3.7541035383,
				"z": 2.5949800344,
				"element": "C" 
			},
			{
				"x": 2.7397389296,
				"y": -1.5144064682,
				"z": 2.0895678977,
				"element": "C" 
			},
			{
				"x": 1.746614347,
				"y": -0.555296126,
				"z": 2.2530344739,
				"element": "C" 
			},
			{
				"x": 0.1583730744,
				"y": 6.1670595278,
				"z": -5.7940124064,
				"element": "H" 
			},
			{
				"x": 1.7105092661,
				"y": 6.7076694821,
				"z": -5.1417347011,
				"element": "H" 
			},
			{
				"x": 0.2112795521,
				"y": 7.3833362319,
				"z": -4.5081516762,
				"element": "H" 
			},
			{
				"x": -0.2540679942,
				"y": 3.9004148591,
				"z": -5.142170947,
				"element": "H" 
			},
			{
				"x": -0.3006282609,
				"y": 2.1014090868,
				"z": -3.4198073553,
				"element": "H" 
			},
			{
				"x": 1.4584435561,
				"y": 4.7935789722,
				"z": -0.5698457815,
				"element": "H" 
			},
			{
				"x": 1.507388497,
				"y": 6.5815638882,
				"z": -2.2829340374,
				"element": "H" 
			},
			{
				"x": -0.1125408741,
				"y": 2.5278975641,
				"z": 1.4152563824,
				"element": "H" 
			},
			{
				"x": -2.0690305822,
				"y": 1.5228054322,
				"z": -0.4534471502,
				"element": "H" 
			},
			{
				"x": -2.5989462161,
				"y": 3.0253761326,
				"z": 0.3158640115,
				"element": "H" 
			},
			{
				"x": -3.3980770658,
				"y": 1.0709080191,
				"z": 1.5820395136,
				"element": "H" 
			},
			{
				"x": -2.3335078657,
				"y": 2.0809908517,
				"z": 2.5437390677,
				"element": "H" 
			},
			{
				"x": -3.1432353835,
				"y": -1.0954980957,
				"z": 2.3664705803,
				"element": "H" 
			},
			{
				"x": -1.5505212414,
				"y": -1.8641709126,
				"z": 2.2959014053,
				"element": "H" 
			},
			{
				"x": -2.9778748592,
				"y": -0.7241380566,
				"z": -0.1551277666,
				"element": "H" 
			},
			{
				"x": -3.0079093607,
				"y": -2.4007345893,
				"z": 0.3565976986,
				"element": "H" 
			},
			{
				"x": -0.5637745506,
				"y": -0.943242967,
				"z": -0.5765324576,
				"element": "H" 
			},
			{
				"x": -2.2119769007,
				"y": -5.4319885852,
				"z": -0.3649933998,
				"element": "H" 
			},
			{
				"x": -3.1499281503,
				"y": -6.7597788582,
				"z": -2.2532345975,
				"element": "H" 
			},
			{
				"x": -3.4613116567,
				"y": -7.1232892679,
				"z": -4.6092582231,
				"element": "H" 
			},
			{
				"x": -3.0046085432,
				"y": -5.835089251,
				"z": -5.7355400521,
				"element": "H" 
			},
			{
				"x": -1.8591998445,
				"y": -7.1195396497,
				"z": -5.3553724598,
				"element": "H" 
			},
			{
				"x": -0.9023718591,
				"y": -4.3761993594,
				"z": -5.0332721913,
				"element": "H" 
			},
			{
				"x": 0.0250260023,
				"y": -3.052650051,
				"z": -3.1527746558,
				"element": "H" 
			},
			{
				"x": -0.0705332348,
				"y": -2.1037296912,
				"z": 4.6941184518,
				"element": "H" 
			},
			{
				"x": 1.7165744946,
				"y": -3.8067478099,
				"z": 4.3796302202,
				"element": "H" 
			},
			{
				"x": 4.786937019,
				"y": -3.3089827598,
				"z": 2.4920988837,
				"element": "H" 
			},
			{
				"x": 3.8256185261,
				"y": -4.4868899262,
				"z": 3.4057181638,
				"element": "H" 
			},
			{
				"x": 3.57846777,
				"y": -4.2924275445,
				"z": 1.6639782338,
				"element": "H" 
			},
			{
				"x": 3.521922794,
				"y": -1.3424510318,
				"z": 1.3560987229,
				"element": "H" 
			},
			{
				"x": 1.7699692392,
				"y": 0.3583330009,
				"z": 1.6690022057,
				"element": "H" 
			}
		],
		 "valence_orbital": [ 
			{
				"type": "occ",
				"energy": -0.25919,
				"method": "rhf"
			},
			{
				"type": "occ",
				"energy": -0.25232,
				"method": "rhf"
			},
			{
				"type": "occ",
				"energy": -0.25047,
				"method": "rhf"
			},
			{
				"type": "occ",
				"energy": -0.24546,
				"method": "rhf"
			},
			{
				"type": "occ",
				"energy": -0.23897,
				"method": "rhf"
			},
			{
				"type": "unocc",
				"energy": -0.03539,
				"method": "rhf"
			},
			{
				"type": "unocc",
				"energy": -0.02641,
				"method": "rhf"
			},
			{
				"type": "unocc",
				"energy": -0.02556,
				"method": "rhf"
			},
			{
				"type": "unocc",
				"energy": -0.01928,
				"method": "rhf"
			},
			{
				"type": "unocc",
				"energy": -0.01252,
				"method": "rhf"
			}
		],
		"cosmo_sigma_profile": { 
			"-0.025": 0.0,
			"-0.024": 0.0,
			"-0.023": 0.0,
			"-0.022": 0.0,
			"-0.021": 0.0,
			"-0.02": 0.0,
			"-0.019": 0.0,
			"-0.018": 0.0,
			"-0.017": 0.0,
			"-0.016": 0.0,
			"-0.015": 0.0,
			"-0.014": 0.0,
			"-0.013": 0.0,
			"-0.012": 0.0,
			"-0.011": 0.0,
			"-0.01": 0.0,
			"-0.009": 0.44843185046,
			"-0.008": 3.57094336133,
			"-0.007": 13.5688505556,
			"-0.006": 35.5814650187,
			"-0.005": 53.9565269822,
			"-0.004": 52.6225854531,
			"-0.003": 46.7064229931,
			"-0.002": 41.9691637898,
			"-0.001": 49.4679237987,
			"0.0": 47.9768650267,
			"0.001": 34.4177618649,
			"0.002": 35.5114705933,
			"0.003": 41.753086917,
			"0.004": 26.1963803893,
			"0.005": 14.4157938321,
			"0.006": 13.4907066179,
			"0.007": 11.8580499867,
			"0.008": 12.4076780572,
			"0.009": 11.147099388,
			"0.01": 14.0372063642,
			"0.011": 13.8420289617,
			"0.012": 3.32801102103,
			"0.013": 0.0,
			"0.014": 0.0,
			"0.015": 0.0,
			"0.016": 0.0,
			"0.017": 0.0,
			"0.018": 0.0,
			"0.019": 0.0,
			"0.02": 0.0,
			"0.021": 0.0,
			"0.022": 0.0,
			"0.023": 0.0,
			"0.024": 0.0,
			"0.025": 0.0
		}
	}
}
