{
	 "smiles": "CC(C)CCN1N=CC(N)=C1C", 
	 "Tm": 320.15, 
	 "num_atms": 29, 
	 "gaussian": { 
		 "optdone": 1, 
		 "sigma_profile": "yes", 
		 "theory": "DFT", 
		 "functional": "B3LYP", 
		 "basiset": "6-31G**", 
		 "properties": { 
			 "R2extent": 2393.6904, 
			 "electric_dipole_moment_norm": 1.86752018998, 
			 "electric_quadrupole_moment_norm": 8.62097662855, 
			 "total_energy": -517.450676167, 
			 "HOMO_LUMO_gap": 0.22803, 
			 "cosmo_polarized_energy": -10.2, 
			 "cosmo_cavitation_energy": 29.85, 
			 "cosmo_dispersion_energy": -20.86, 
			 "cosmo_repulsion_energy": 1.68, 
			 "cosmo_total_nonelectrostatic_energy": 10.68, 
			 "SMD_solvation_energy": 4.66 
		},
		"coords": [
			{
				"x": 1.1951214295,
				"y": -0.3925033478,
				"z": -1.8240047391,
				"element": "C" 
			},
			{
				"x": 2.0772415295,
				"y": -0.7360950347,
				"z": -0.6118693319,
				"element": "C" 
			},
			{
				"x": 1.9987504651,
				"y": -2.2342586549,
				"z": -0.2786172257,
				"element": "C" 
			},
			{
				"x": 1.8090581269,
				"y": 0.161954622,
				"z": 0.6197920659,
				"element": "C" 
			},
			{
				"x": 0.555064926,
				"y": -0.1194345877,
				"z": 1.4671677068,
				"element": "C" 
			},
			{
				"x": -0.7242049054,
				"y": 0.0612746893,
				"z": 0.7933748691,
				"element": "N" 
			},
			{
				"x": -1.4092256151,
				"y": -1.0290390651,
				"z": 0.3784652111,
				"element": "N" 
			},
			{
				"x": -2.4970446149,
				"y": -0.5422196493,
				"z": -0.2219459244,
				"element": "C" 
			},
			{
				"x": -2.5290341131,
				"y": 0.8698906767,
				"z": -0.1797005346,
				"element": "C" 
			},
			{
				"x": -3.5198335471,
				"y": 1.7738571047,
				"z": -0.6433002431,
				"element": "N" 
			},
			{
				"x": -1.3676320306,
				"y": 1.2317635432,
				"z": 0.4951233675,
				"element": "C" 
			},
			{
				"x": -0.8877907515,
				"y": 2.5940293642,
				"z": 0.8737227778,
				"element": "C" 
			},
			{
				"x": 1.5261075756,
				"y": -0.9532253219,
				"z": -2.7055767637,
				"element": "H" 
			},
			{
				"x": 1.25505855,
				"y": 0.6741005771,
				"z": -2.0697647253,
				"element": "H" 
			},
			{
				"x": 0.146920497,
				"y": -0.6447909355,
				"z": -1.6444122863,
				"element": "H" 
			},
			{
				"x": 3.1155874424,
				"y": -0.5171692325,
				"z": -0.9016082141,
				"element": "H" 
			},
			{
				"x": 0.9696639631,
				"y": -2.5352052466,
				"z": -0.0579568713,
				"element": "H" 
			},
			{
				"x": 2.3452738415,
				"y": -2.8348745112,
				"z": -1.1265518337,
				"element": "H" 
			},
			{
				"x": 2.6250136262,
				"y": -2.4894189535,
				"z": 0.5847528547,
				"element": "H" 
			},
			{
				"x": 2.6580250262,
				"y": 0.0622500416,
				"z": 1.3103369985,
				"element": "H" 
			},
			{
				"x": 1.802214445,
				"y": 1.2126516708,
				"z": 0.3024250005,
				"element": "H" 
			},
			{
				"x": 0.5504616165,
				"y": -1.14990132,
				"z": 1.8266368063,
				"element": "H" 
			},
			{
				"x": 0.5728282136,
				"y": 0.5326236642,
				"z": 2.3481925296,
				"element": "H" 
			},
			{
				"x": -3.2290088577,
				"y": -1.2199859505,
				"z": -0.6437946971,
				"element": "H" 
			},
			{
				"x": -4.3918300623,
				"y": 1.2930993369,
				"z": -0.8362289823,
				"element": "H" 
			},
			{
				"x": -3.2355341162,
				"y": 2.2483763907,
				"z": -1.49580279,
				"element": "H" 
			},
			{
				"x": -0.0810353183,
				"y": 2.959603672,
				"z": 0.2257502603,
				"element": "H" 
			},
			{
				"x": -0.519167105,
				"y": 2.6277288145,
				"z": 1.9050862528,
				"element": "H" 
			},
			{
				"x": -1.7262502367,
				"y": 3.2910176432,
				"z": 0.7903084615,
				"element": "H" 
			}
		],
		 "valence_orbital": [ 
			{
				"type": "occ",
				"energy": -0.31116,
				"method": "rhf"
			},
			{
				"type": "occ",
				"energy": -0.29452,
				"method": "rhf"
			},
			{
				"type": "occ",
				"energy": -0.26444,
				"method": "rhf"
			},
			{
				"type": "occ",
				"energy": -0.23096,
				"method": "rhf"
			},
			{
				"type": "occ",
				"energy": -0.19868,
				"method": "rhf"
			},
			{
				"type": "unocc",
				"energy": 0.02935,
				"method": "rhf"
			},
			{
				"type": "unocc",
				"energy": 0.07133,
				"method": "rhf"
			},
			{
				"type": "unocc",
				"energy": 0.0821,
				"method": "rhf"
			},
			{
				"type": "unocc",
				"energy": 0.09425,
				"method": "rhf"
			},
			{
				"type": "unocc",
				"energy": 0.11188,
				"method": "rhf"
			}
		],
		"cosmo_sigma_profile": { 
			"-0.025": 0.0,
			"-0.024": 0.0,
			"-0.023": 0.0,
			"-0.022": 0.0,
			"-0.021": 0.0,
			"-0.02": 0.0,
			"-0.019": 0.0,
			"-0.018": 0.0,
			"-0.017": 0.0,
			"-0.016": 0.0,
			"-0.015": 0.0,
			"-0.014": 0.0,
			"-0.013": 0.0,
			"-0.012": 0.0343161678517,
			"-0.011": 1.79567662152,
			"-0.01": 2.88463476713,
			"-0.009": 2.54519707365,
			"-0.008": 3.14203412969,
			"-0.007": 2.42509120956,
			"-0.006": 5.94639852143,
			"-0.005": 8.45491666847,
			"-0.004": 12.7326662729,
			"-0.003": 20.1889700721,
			"-0.002": 31.7415914446,
			"-0.001": 27.4706092263,
			"0.0": 26.7585035323,
			"0.001": 18.9956179189,
			"0.002": 16.8410226129,
			"0.003": 9.15109374475,
			"0.004": 7.83454830532,
			"0.005": 6.47581555594,
			"0.006": 5.04684947858,
			"0.007": 4.0481377169,
			"0.008": 3.141830586,
			"0.009": 3.18620831926,
			"0.01": 2.03985008033,
			"0.011": 1.96761250056,
			"0.012": 1.48787857151,
			"0.013": 1.61304427867,
			"0.014": 1.54422215941,
			"0.015": 1.18280741342,
			"0.016": 0.976760718801,
			"0.017": 0.177993128219,
			"0.018": 0.0,
			"0.019": 0.0,
			"0.02": 0.0,
			"0.021": 0.0,
			"0.022": 0.0,
			"0.023": 0.0,
			"0.024": 0.0,
			"0.025": 0.0
		}
	}
}
