{
	 "smiles": "CCCC1=CC(=O)C2=C(N1)C=CC(OC1=CC=CC=C1)=C2", 
	 "Tm": 481.15, 
	 "num_atms": 38, 
	 "gaussian": { 
		 "optdone": 1, 
		 "sigma_profile": "yes", 
		 "theory": "DFT", 
		 "functional": "B3LYP", 
		 "basiset": "6-31G**", 
		 "properties": { 
			 "R2extent": 8813.8313, 
			 "electric_dipole_moment_norm": 5.58404336122, 
			 "electric_quadrupole_moment_norm": 22.1120350294, 
			 "total_energy": -901.378499197, 
			 "HOMO_LUMO_gap": 0.16016, 
			 "cosmo_polarized_energy": -20.7, 
			 "cosmo_cavitation_energy": 41.76, 
			 "cosmo_dispersion_energy": -29.39, 
			 "cosmo_repulsion_energy": 2.26, 
			 "cosmo_total_nonelectrostatic_energy": 14.63, 
			 "SMD_solvation_energy": 7.23 
		},
		"coords": [
			{
				"x": -3.5835321227,
				"y": 2.7530213967,
				"z": -3.5902820019,
				"element": "C" 
			},
			{
				"x": -3.8793318866,
				"y": 3.6388067796,
				"z": -2.3770546823,
				"element": "C" 
			},
			{
				"x": -2.6125911223,
				"y": 4.0989534841,
				"z": -1.6195276194,
				"element": "C" 
			},
			{
				"x": -1.8340802028,
				"y": 2.9774578209,
				"z": -0.9765159328,
				"element": "C" 
			},
			{
				"x": -0.6129110731,
				"y": 2.5492942468,
				"z": -1.41118766,
				"element": "C" 
			},
			{
				"x": 0.1054422394,
				"y": 1.4517092805,
				"z": -0.7815275243,
				"element": "C" 
			},
			{
				"x": 1.2087538382,
				"y": 1.0493909729,
				"z": -1.1631421351,
				"element": "O" 
			},
			{
				"x": -0.5982074511,
				"y": 0.8343787331,
				"z": 0.3751639383,
				"element": "C" 
			},
			{
				"x": -1.8565544821,
				"y": 1.314837942,
				"z": 0.7880796462,
				"element": "C" 
			},
			{
				"x": -2.4372044123,
				"y": 2.3694920645,
				"z": 0.0972244375,
				"element": "N" 
			},
			{
				"x": -2.5047534112,
				"y": 0.7256259515,
				"z": 1.8888066992,
				"element": "C" 
			},
			{
				"x": -1.9073427689,
				"y": -0.3291148655,
				"z": 2.5568830632,
				"element": "C" 
			},
			{
				"x": -0.6501766747,
				"y": -0.8101512196,
				"z": 2.1466260795,
				"element": "C" 
			},
			{
				"x": -0.113934522,
				"y": -1.8133163218,
				"z": 2.9261481162,
				"element": "O" 
			},
			{
				"x": 0.7506180627,
				"y": -2.7523084553,
				"z": 2.3906451597,
				"element": "C" 
			},
			{
				"x": 0.516185287,
				"y": -3.3749428886,
				"z": 1.1613868933,
				"element": "C" 
			},
			{
				"x": 1.3907966268,
				"y": -4.3710273411,
				"z": 0.7262504439,
				"element": "C" 
			},
			{
				"x": 2.4817561092,
				"y": -4.753155283,
				"z": 1.5100198823,
				"element": "C" 
			},
			{
				"x": 2.6979625537,
				"y": -4.1294561246,
				"z": 2.7404754285,
				"element": "C" 
			},
			{
				"x": 1.837054013,
				"y": -3.1254285254,
				"z": 3.1835798425,
				"element": "C" 
			},
			{
				"x": 0.0007636329,
				"y": -0.2284383268,
				"z": 1.0685401226,
				"element": "C" 
			},
			{
				"x": -4.5092914473,
				"y": 2.4591092884,
				"z": -4.0946101952,
				"element": "H" 
			},
			{
				"x": -3.0519250541,
				"y": 1.8412901404,
				"z": -3.3015811828,
				"element": "H" 
			},
			{
				"x": -2.9594010313,
				"y": 3.281663977,
				"z": -4.319382154,
				"element": "H" 
			},
			{
				"x": -4.5496071585,
				"y": 3.1077283718,
				"z": -1.6876766092,
				"element": "H" 
			},
			{
				"x": -4.4249312169,
				"y": 4.5348017098,
				"z": -2.6964676285,
				"element": "H" 
			},
			{
				"x": -1.9470923795,
				"y": 4.6267605945,
				"z": -2.3090494851,
				"element": "H" 
			},
			{
				"x": -2.8997756232,
				"y": 4.8233450468,
				"z": -0.8444531759,
				"element": "H" 
			},
			{
				"x": -0.142504859,
				"y": 3.0336831914,
				"z": -2.2589155802,
				"element": "H" 
			},
			{
				"x": -3.3318147922,
				"y": 2.7133230022,
				"z": 0.4135646936,
				"element": "H" 
			},
			{
				"x": -3.4754790814,
				"y": 1.0946044434,
				"z": 2.2108745888,
				"element": "H" 
			},
			{
				"x": -2.3917755367,
				"y": -0.7984282659,
				"z": 3.4066216986,
				"element": "H" 
			},
			{
				"x": -0.3354046468,
				"y": -3.0819370412,
				"z": 0.5571090171,
				"element": "H" 
			},
			{
				"x": 1.2121177634,
				"y": -4.8534646946,
				"z": -0.2303729932,
				"element": "H" 
			},
			{
				"x": 3.1569944329,
				"y": -5.5297754586,
				"z": 1.1642610807,
				"element": "H" 
			},
			{
				"x": 3.543344361,
				"y": -4.4189959901,
				"z": 3.3579727172,
				"element": "H" 
			},
			{
				"x": 1.9879651688,
				"y": -2.6257819143,
				"z": 4.1347583341,
				"element": "H" 
			},
			{
				"x": 0.9739688675,
				"y": -0.5630557217,
				"z": 0.727554677,
				"element": "H" 
			}
		],
		 "valence_orbital": [ 
			{
				"type": "occ",
				"energy": -0.25383,
				"method": "rhf"
			},
			{
				"type": "occ",
				"energy": -0.24886,
				"method": "rhf"
			},
			{
				"type": "occ",
				"energy": -0.22896,
				"method": "rhf"
			},
			{
				"type": "occ",
				"energy": -0.2209,
				"method": "rhf"
			},
			{
				"type": "occ",
				"energy": -0.20052,
				"method": "rhf"
			},
			{
				"type": "unocc",
				"energy": -0.04036,
				"method": "rhf"
			},
			{
				"type": "unocc",
				"energy": -0.01001,
				"method": "rhf"
			},
			{
				"type": "unocc",
				"energy": -0.00039,
				"method": "rhf"
			},
			{
				"type": "unocc",
				"energy": 0.00822,
				"method": "rhf"
			},
			{
				"type": "unocc",
				"energy": 0.02054,
				"method": "rhf"
			}
		],
		"cosmo_sigma_profile": { 
			"-0.025": 0.0,
			"-0.024": 0.0,
			"-0.023": 0.0,
			"-0.022": 0.0,
			"-0.021": 0.0,
			"-0.02": 0.0,
			"-0.019": 0.0,
			"-0.018": 0.0,
			"-0.017": 0.0,
			"-0.016": 0.594279105008,
			"-0.015": 1.18764693876,
			"-0.014": 1.41862230646,
			"-0.013": 1.42856318162,
			"-0.012": 1.3739492739,
			"-0.011": 1.54059297748,
			"-0.01": 1.28934792254,
			"-0.009": 2.24743662319,
			"-0.008": 3.28078362122,
			"-0.007": 4.82597097549,
			"-0.006": 12.9523558987,
			"-0.005": 19.7896045031,
			"-0.004": 22.8182273082,
			"-0.003": 26.1052613081,
			"-0.002": 28.6152008486,
			"-0.001": 28.218166133,
			"0.0": 29.6416481386,
			"0.001": 30.2723525386,
			"0.002": 27.1681367242,
			"0.003": 26.5920247103,
			"0.004": 18.6806713966,
			"0.005": 11.5362397618,
			"0.006": 5.83440674834,
			"0.007": 3.07934980023,
			"0.008": 2.64041309897,
			"0.009": 2.34747974268,
			"0.01": 1.43613727099,
			"0.011": 1.03084205858,
			"0.012": 1.61969312672,
			"0.013": 2.4353813106,
			"0.014": 3.43131906622,
			"0.015": 4.89489980124,
			"0.016": 1.6814993902,
			"0.017": 0.0677012036971,
			"0.018": 0.0,
			"0.019": 0.0,
			"0.02": 0.0,
			"0.021": 0.0,
			"0.022": 0.0,
			"0.023": 0.0,
			"0.024": 0.0,
			"0.025": 0.0
		}
	}
}
