{
	 "smiles": "COC1=CC2=C(SC(C)=N2)C=C1", 
	 "Tm": 309.15, 
	 "num_atms": 21, 
	 "gaussian": { 
		 "optdone": 1, 
		 "sigma_profile": "yes", 
		 "theory": "DFT", 
		 "functional": "B3LYP", 
		 "basiset": "6-31G**", 
		 "properties": { 
			 "R2extent": 3070.3842, 
			 "electric_dipole_moment_norm": 0.580812577343, 
			 "electric_quadrupole_moment_norm": 8.0215471388, 
			 "total_energy": -876.54597035, 
			 "HOMO_LUMO_gap": 0.1814, 
			 "cosmo_polarized_energy": -7.66, 
			 "cosmo_cavitation_energy": 26.37, 
			 "cosmo_dispersion_energy": -20.27, 
			 "cosmo_repulsion_energy": 1.56, 
			 "cosmo_total_nonelectrostatic_energy": 7.66, 
			 "SMD_solvation_energy": 3.17 
		},
		"coords": [
			{
				"x": -1.4242358459,
				"y": -3.2383034377,
				"z": 2.5227014914,
				"element": "C" 
			},
			{
				"x": -0.0785698503,
				"y": -3.3833850274,
				"z": 2.0988988417,
				"element": "O" 
			},
			{
				"x": 0.4664682082,
				"y": -2.3863512468,
				"z": 1.3412125577,
				"element": "C" 
			},
			{
				"x": -0.2094399228,
				"y": -1.2314730075,
				"z": 0.9532564557,
				"element": "C" 
			},
			{
				"x": 0.473181245,
				"y": -0.2845015287,
				"z": 0.1719716976,
				"element": "C" 
			},
			{
				"x": 1.814813838,
				"y": -0.5051844343,
				"z": -0.2079490113,
				"element": "C" 
			},
			{
				"x": 2.3710936352,
				"y": 0.8516164969,
				"z": -1.1694798649,
				"element": "S" 
			},
			{
				"x": 0.7598904619,
				"y": 1.5909916066,
				"z": -0.9765471922,
				"element": "C" 
			},
			{
				"x": 0.4557922564,
				"y": 2.9182000427,
				"z": -1.5994441682,
				"element": "C" 
			},
			{
				"x": -0.0856692283,
				"y": 0.903682727,
				"z": -0.2783239526,
				"element": "N" 
			},
			{
				"x": 2.4878740041,
				"y": -1.6668579056,
				"z": 0.1848330166,
				"element": "C" 
			},
			{
				"x": 1.8090193716,
				"y": -2.5983407531,
				"z": 0.9561017392,
				"element": "C" 
			},
			{
				"x": -2.1125726661,
				"y": -3.1746559244,
				"z": 1.6699054389,
				"element": "H" 
			},
			{
				"x": -1.6556257185,
				"y": -4.131353794,
				"z": 3.1053382985,
				"element": "H" 
			},
			{
				"x": -1.5561079361,
				"y": -2.3502656419,
				"z": 3.1544606197,
				"element": "H" 
			},
			{
				"x": -1.2373729437,
				"y": -1.0338621883,
				"z": 1.2285378432,
				"element": "H" 
			},
			{
				"x": 1.1235958518,
				"y": 3.6987029492,
				"z": -1.21928234,
				"element": "H" 
			},
			{
				"x": -0.5750485533,
				"y": 3.1870284857,
				"z": -1.3625280051,
				"element": "H" 
			},
			{
				"x": 0.5734557803,
				"y": 2.8834043272,
				"z": -2.6878444371,
				"element": "H" 
			},
			{
				"x": 3.519086111,
				"y": -1.8446783836,
				"z": -0.1026228348,
				"element": "H" 
			},
			{
				"x": 2.2937719017,
				"y": -3.5124133619,
				"z": 1.282003806,
				"element": "H" 
			}
		],
		 "valence_orbital": [ 
			{
				"type": "occ",
				"energy": -0.30908,
				"method": "rhf"
			},
			{
				"type": "occ",
				"energy": -0.28621,
				"method": "rhf"
			},
			{
				"type": "occ",
				"energy": -0.27063,
				"method": "rhf"
			},
			{
				"type": "occ",
				"energy": -0.233,
				"method": "rhf"
			},
			{
				"type": "occ",
				"energy": -0.21106,
				"method": "rhf"
			},
			{
				"type": "unocc",
				"energy": -0.02966,
				"method": "rhf"
			},
			{
				"type": "unocc",
				"energy": 0.00788,
				"method": "rhf"
			},
			{
				"type": "unocc",
				"energy": 0.01462,
				"method": "rhf"
			},
			{
				"type": "unocc",
				"energy": 0.04171,
				"method": "rhf"
			},
			{
				"type": "unocc",
				"energy": 0.09449,
				"method": "rhf"
			}
		],
		"cosmo_sigma_profile": { 
			"-0.025": 0.0,
			"-0.024": 0.0,
			"-0.023": 0.0,
			"-0.022": 0.0,
			"-0.021": 0.0,
			"-0.02": 0.0,
			"-0.019": 0.0,
			"-0.018": 0.0,
			"-0.017": 0.0,
			"-0.016": 0.0,
			"-0.015": 0.0,
			"-0.014": 0.0,
			"-0.013": 0.0,
			"-0.012": 0.0,
			"-0.011": 0.0,
			"-0.01": 0.0,
			"-0.009": 0.0,
			"-0.008": 0.242351396304,
			"-0.007": 3.41394009322,
			"-0.006": 13.4405566565,
			"-0.005": 19.8876280229,
			"-0.004": 21.311448851,
			"-0.003": 18.7214095827,
			"-0.002": 16.0925811214,
			"-0.001": 12.9510064374,
			"0.0": 12.257219871,
			"0.001": 13.4204502908,
			"0.002": 14.1979169438,
			"0.003": 19.6679892146,
			"0.004": 21.0549666215,
			"0.005": 8.02650727611,
			"0.006": 3.62037869523,
			"0.007": 2.03087506233,
			"0.008": 2.38846270652,
			"0.009": 3.35414573321,
			"0.01": 2.55466601011,
			"0.011": 0.806122122918,
			"0.012": 1.04167284773,
			"0.013": 1.04916069057,
			"0.014": 0.864896561383,
			"0.015": 0.417855496801,
			"0.016": 0.0,
			"0.017": 0.0,
			"0.018": 0.0,
			"0.019": 0.0,
			"0.02": 0.0,
			"0.021": 0.0,
			"0.022": 0.0,
			"0.023": 0.0,
			"0.024": 0.0,
			"0.025": 0.0
		}
	}
}
