{
	 "smiles": "OC(=O)C1=CC=CN1C1=CC(I)=CC=C1", 
	 "Tm": 439.15, 
	 "num_atms": 23, 
	 "gaussian": { 
		 "optdone": 1, 
		 "sigma_profile": "yes", 
		 "theory": "DFT", 
		 "functional": "B3LYP", 
		 "basiset": "6-31G**", 
		 "properties": { 
			 "R2extent": 3394.7513, 
			 "electric_dipole_moment_norm": 2.39261917989, 
			 "electric_quadrupole_moment_norm": 14.7757720441, 
			 "total_energy": -640.577108138, 
			 "HOMO_LUMO_gap": 0.18378, 
			 "cosmo_polarized_energy": -12.22, 
			 "cosmo_cavitation_energy": 31.38, 
			 "cosmo_dispersion_energy": -23.57, 
			 "cosmo_repulsion_energy": 1.83, 
			 "cosmo_total_nonelectrostatic_energy": 9.64, 
			 "SMD_solvation_energy": 6.05 
		},
		"coords": [
			{
				"x": 0.8013554749,
				"y": 2.1189506592,
				"z": -1.1295944472,
				"element": "O" 
			},
			{
				"x": 1.2107074741,
				"y": 2.4892710517,
				"z": 0.1128087376,
				"element": "C" 
			},
			{
				"x": 1.9817565077,
				"y": 3.415489472,
				"z": 0.2859843494,
				"element": "O" 
			},
			{
				"x": 0.6316612305,
				"y": 1.7064750522,
				"z": 1.2032669731,
				"element": "C" 
			},
			{
				"x": 0.7400084463,
				"y": 2.0385890532,
				"z": 2.5469786538,
				"element": "C" 
			},
			{
				"x": -0.0410661328,
				"y": 1.12811759,
				"z": 3.2884254372,
				"element": "C" 
			},
			{
				"x": -0.611390219,
				"y": 0.2549179106,
				"z": 2.3822997531,
				"element": "C" 
			},
			{
				"x": -0.2126170725,
				"y": 0.5956291359,
				"z": 1.1112919459,
				"element": "N" 
			},
			{
				"x": -0.5667337215,
				"y": -0.1839286554,
				"z": -0.033666048,
				"element": "C" 
			},
			{
				"x": -1.9208494002,
				"y": -0.3423686205,
				"z": -0.342189906,
				"element": "C" 
			},
			{
				"x": -2.2790131218,
				"y": -1.1549781793,
				"z": -1.4186654612,
				"element": "C" 
			},
			{
				"x": -4.3319087192,
				"y": -1.4027517897,
				"z": -1.8886019051,
				"element": "I" 
			},
			{
				"x": -1.3115549145,
				"y": -1.7969296677,
				"z": -2.1918158298,
				"element": "C" 
			},
			{
				"x": 0.0368744249,
				"y": -1.6205906976,
				"z": -1.8696830902,
				"element": "C" 
			},
			{
				"x": 0.4160372022,
				"y": -0.8250153603,
				"z": -0.7919309888,
				"element": "C" 
			},
			{
				"x": 1.2476301287,
				"y": 2.7313302572,
				"z": -1.7378183972,
				"element": "H" 
			},
			{
				"x": 1.3134077505,
				"y": 2.8773293224,
				"z": 2.9134771544,
				"element": "H" 
			},
			{
				"x": -0.1752155472,
				"y": 1.1025873297,
				"z": 4.3602641535,
				"element": "H" 
			},
			{
				"x": -1.2417886437,
				"y": -0.6088165623,
				"z": 2.5349582803,
				"element": "H" 
			},
			{
				"x": -2.6686523572,
				"y": 0.1745189583,
				"z": 0.2474272207,
				"element": "H" 
			},
			{
				"x": -1.5984241284,
				"y": -2.4241484661,
				"z": -3.0279280094,
				"element": "H" 
			},
			{
				"x": 0.7959768356,
				"y": -2.1213319541,
				"z": -2.4629404307,
				"element": "H" 
			},
			{
				"x": 1.4608985027,
				"y": -0.6988458393,
				"z": -0.5321481455,
				"element": "H" 
			}
		],
		 "valence_orbital": [ 
			{
				"type": "occ",
				"energy": -0.27553,
				"method": "rhf"
			},
			{
				"type": "occ",
				"energy": -0.27443,
				"method": "rhf"
			},
			{
				"type": "occ",
				"energy": -0.25416,
				"method": "rhf"
			},
			{
				"type": "occ",
				"energy": -0.24409,
				"method": "rhf"
			},
			{
				"type": "occ",
				"energy": -0.23094,
				"method": "rhf"
			},
			{
				"type": "unocc",
				"energy": -0.04716,
				"method": "rhf"
			},
			{
				"type": "unocc",
				"energy": -0.03961,
				"method": "rhf"
			},
			{
				"type": "unocc",
				"energy": -0.02862,
				"method": "rhf"
			},
			{
				"type": "unocc",
				"energy": -0.01946,
				"method": "rhf"
			},
			{
				"type": "unocc",
				"energy": 0.03868,
				"method": "rhf"
			}
		],
		"cosmo_sigma_profile": { 
			"-0.025": 0.0,
			"-0.024": 0.0,
			"-0.023": 0.0,
			"-0.022": 0.0,
			"-0.021": 0.0,
			"-0.02": 0.0,
			"-0.019": 0.0,
			"-0.018": 0.496014101244,
			"-0.017": 0.899063418997,
			"-0.016": 1.0732906388,
			"-0.015": 0.675394034387,
			"-0.014": 0.309434548199,
			"-0.013": 0.342198627168,
			"-0.012": 0.861440790244,
			"-0.011": 1.3001978843,
			"-0.01": 0.743420086728,
			"-0.009": 0.616423338835,
			"-0.008": 2.70479832827,
			"-0.007": 11.3897086901,
			"-0.006": 16.8736498506,
			"-0.005": 15.3308208975,
			"-0.004": 14.227445852,
			"-0.003": 14.1700204297,
			"-0.002": 14.2827949631,
			"-0.001": 17.3891926348,
			"0.0": 17.5577070883,
			"0.001": 18.2960894764,
			"0.002": 23.2099733037,
			"0.003": 23.1279567464,
			"0.004": 24.2334078665,
			"0.005": 12.2836629371,
			"0.006": 5.35358461754,
			"0.007": 3.35593953596,
			"0.008": 2.54994367783,
			"0.009": 2.11373198414,
			"0.01": 1.40579919448,
			"0.011": 2.55903416208,
			"0.012": 5.23613977268,
			"0.013": 2.21143493878,
			"0.014": 0.0,
			"0.015": 0.0,
			"0.016": 0.0,
			"0.017": 0.0,
			"0.018": 0.0,
			"0.019": 0.0,
			"0.02": 0.0,
			"0.021": 0.0,
			"0.022": 0.0,
			"0.023": 0.0,
			"0.024": 0.0,
			"0.025": 0.0
		}
	}
}
