{
	 "smiles": "ClC1=CC=C(C=C1)C1=NN(C=C1CC#N)C1=CC=CC=C1", 
	 "Tm": 400.15, 
	 "num_atms": 33, 
	 "gaussian": { 
		 "optdone": 1, 
		 "sigma_profile": "yes", 
		 "theory": "DFT", 
		 "functional": "B3LYP", 
		 "basiset": "6-31G**", 
		 "properties": { 
			 "R2extent": 10334.9744, 
			 "electric_dipole_moment_norm": 5.60824672514, 
			 "electric_quadrupole_moment_norm": 15.4157421009, 
			 "total_energy": -1279.45973656, 
			 "HOMO_LUMO_gap": 0.17925, 
			 "cosmo_polarized_energy": -15.72, 
			 "cosmo_cavitation_energy": 40.72, 
			 "cosmo_dispersion_energy": -28.53, 
			 "cosmo_repulsion_energy": 2.16, 
			 "cosmo_total_nonelectrostatic_energy": 14.35, 
			 "SMD_solvation_energy": 7.21 
		},
		"coords": [
			{
				"x": -2.1500220963,
				"y": 0.7377613617,
				"z": -6.8533803832,
				"element": "Cl" 
			},
			{
				"x": -1.7804667041,
				"y": 0.6999425708,
				"z": -5.1357605764,
				"element": "C" 
			},
			{
				"x": -1.400999393,
				"y": -0.5045756774,
				"z": -4.5412417608,
				"element": "C" 
			},
			{
				"x": -1.1011169249,
				"y": -0.5266946747,
				"z": -3.182843138,
				"element": "C" 
			},
			{
				"x": -1.1768493706,
				"y": 0.6405734762,
				"z": -2.4035727826,
				"element": "C" 
			},
			{
				"x": -1.576971203,
				"y": 1.8348600492,
				"z": -3.0244641719,
				"element": "C" 
			},
			{
				"x": -1.8747850326,
				"y": 1.8708396698,
				"z": -4.3865902698,
				"element": "C" 
			},
			{
				"x": -0.8539553476,
				"y": 0.5811295073,
				"z": -0.9668090614,
				"element": "C" 
			},
			{
				"x": -1.1122411821,
				"y": -0.5305991611,
				"z": -0.2723344945,
				"element": "N" 
			},
			{
				"x": -0.6844782512,
				"y": -0.2850849129,
				"z": 0.9877185814,
				"element": "N" 
			},
			{
				"x": -0.1461159194,
				"y": 0.9621470637,
				"z": 1.1042301484,
				"element": "C" 
			},
			{
				"x": -0.2334068145,
				"y": 1.5624178529,
				"z": -0.1341639627,
				"element": "C" 
			},
			{
				"x": 0.3091145414,
				"y": 2.9205817523,
				"z": -0.5033427103,
				"element": "C" 
			},
			{
				"x": -0.6766152137,
				"y": 4.0059632291,
				"z": -0.3779741385,
				"element": "C" 
			},
			{
				"x": -1.4640579673,
				"y": 4.8537968779,
				"z": -0.2848720282,
				"element": "N" 
			},
			{
				"x": -0.816631455,
				"y": -1.277617476,
				"z": 1.9969283747,
				"element": "C" 
			},
			{
				"x": -0.8274370397,
				"y": -0.9123592431,
				"z": 3.3474039749,
				"element": "C" 
			},
			{
				"x": -0.9340919477,
				"y": -1.9003270411,
				"z": 4.3257335813,
				"element": "C" 
			},
			{
				"x": -1.0478282426,
				"y": -3.243741898,
				"z": 3.9655284056,
				"element": "C" 
			},
			{
				"x": -1.0547649979,
				"y": -3.5957577665,
				"z": 2.6137944601,
				"element": "C" 
			},
			{
				"x": -0.9358604472,
				"y": -2.6210920718,
				"z": 1.6256578034,
				"element": "C" 
			},
			{
				"x": -1.3365008345,
				"y": -1.408112162,
				"z": -5.1374140633,
				"element": "H" 
			},
			{
				"x": -0.8009041843,
				"y": -1.4554042905,
				"z": -2.7099033382,
				"element": "H" 
			},
			{
				"x": -1.6993003963,
				"y": 2.7422705493,
				"z": -2.4421731255,
				"element": "H" 
			},
			{
				"x": -2.1897399704,
				"y": 2.7954963698,
				"z": -4.8571913527,
				"element": "H" 
			},
			{
				"x": 0.2857630352,
				"y": 1.316564862,
				"z": 2.027617231,
				"element": "H" 
			},
			{
				"x": 1.1669938359,
				"y": 3.1708222793,
				"z": 0.1310697061,
				"element": "H" 
			},
			{
				"x": 0.6739716167,
				"y": 2.9156687486,
				"z": -1.5368778641,
				"element": "H" 
			},
			{
				"x": -0.779131702,
				"y": 0.1321040973,
				"z": 3.6362216406,
				"element": "H" 
			},
			{
				"x": -0.9430780872,
				"y": -1.6125548965,
				"z": 5.3726924858,
				"element": "H" 
			},
			{
				"x": -1.137099102,
				"y": -4.0085784145,
				"z": 4.7307136922,
				"element": "H" 
			},
			{
				"x": -1.1476815651,
				"y": -4.6379105884,
				"z": 2.3230874875,
				"element": "H" 
			},
			{
				"x": -0.9380116373,
				"y": -2.8783300427,
				"z": 0.5738116491,
				"element": "H" 
			}
		],
		 "valence_orbital": [ 
			{
				"type": "occ",
				"energy": -0.27189,
				"method": "rhf"
			},
			{
				"type": "occ",
				"energy": -0.26695,
				"method": "rhf"
			},
			{
				"type": "occ",
				"energy": -0.26599,
				"method": "rhf"
			},
			{
				"type": "occ",
				"energy": -0.25275,
				"method": "rhf"
			},
			{
				"type": "occ",
				"energy": -0.22523,
				"method": "rhf"
			},
			{
				"type": "unocc",
				"energy": -0.04598,
				"method": "rhf"
			},
			{
				"type": "unocc",
				"energy": -0.02228,
				"method": "rhf"
			},
			{
				"type": "unocc",
				"energy": -0.01725,
				"method": "rhf"
			},
			{
				"type": "unocc",
				"energy": -0.01635,
				"method": "rhf"
			},
			{
				"type": "unocc",
				"energy": 0.01834,
				"method": "rhf"
			}
		],
		"cosmo_sigma_profile": { 
			"-0.025": 0.0,
			"-0.024": 0.0,
			"-0.023": 0.0,
			"-0.022": 0.0,
			"-0.021": 0.0,
			"-0.02": 0.0,
			"-0.019": 0.0,
			"-0.018": 0.0,
			"-0.017": 0.0,
			"-0.016": 0.0,
			"-0.015": 0.0,
			"-0.014": 0.0,
			"-0.013": 0.0,
			"-0.012": 0.0,
			"-0.011": 0.203702545108,
			"-0.01": 3.08893584765,
			"-0.009": 6.73113565208,
			"-0.008": 8.41164794488,
			"-0.007": 11.8167179373,
			"-0.006": 18.8320544258,
			"-0.005": 21.3544149977,
			"-0.004": 21.3013217149,
			"-0.003": 16.4824725869,
			"-0.002": 18.0885542547,
			"-0.001": 17.4917275373,
			"0.0": 21.7013622807,
			"0.001": 28.1565346719,
			"0.002": 31.6842007411,
			"0.003": 31.1309653744,
			"0.004": 30.0029761183,
			"0.005": 16.4010864308,
			"0.006": 3.64358363667,
			"0.007": 4.06196469456,
			"0.008": 3.9614191221,
			"0.009": 4.34858757696,
			"0.01": 3.90160547521,
			"0.011": 3.78240702877,
			"0.012": 2.81677550665,
			"0.013": 1.96199784442,
			"0.014": 0.124294836168,
			"0.015": 0.0,
			"0.016": 0.0,
			"0.017": 0.0,
			"0.018": 0.0,
			"0.019": 0.0,
			"0.02": 0.0,
			"0.021": 0.0,
			"0.022": 0.0,
			"0.023": 0.0,
			"0.024": 0.0,
			"0.025": 0.0
		}
	}
}
