{
	 "smiles": "CC1=C(N)C(Br)=NC=C1", 
	 "Tm": 350.15, 
	 "num_atms": 16, 
	 "gaussian": { 
		 "optdone": 1, 
		 "sigma_profile": "yes", 
		 "theory": "DFT", 
		 "functional": "B3LYP", 
		 "basiset": "6-31G**", 
		 "properties": { 
			 "R2extent": 1938.7076, 
			 "electric_dipole_moment_norm": 4.19801731059, 
			 "electric_quadrupole_moment_norm": 6.50189685784, 
			 "total_energy": -2913.77177844, 
			 "HOMO_LUMO_gap": 0.19474, 
			 "cosmo_polarized_energy": -10.18, 
			 "cosmo_cavitation_energy": 21.59, 
			 "cosmo_dispersion_energy": -16.81, 
			 "cosmo_repulsion_energy": 1.37, 
			 "cosmo_total_nonelectrostatic_energy": 6.16, 
			 "SMD_solvation_energy": 1.24 
		},
		"coords": [
			{
				"x": -2.5832575287,
				"y": 2.2187318169,
				"z": 1.3220720974,
				"element": "C" 
			},
			{
				"x": -1.6705276629,
				"y": 1.3952541609,
				"z": 0.451369219,
				"element": "C" 
			},
			{
				"x": -0.4400781796,
				"y": 0.9262829649,
				"z": 0.9668069067,
				"element": "C" 
			},
			{
				"x": -0.0685412723,
				"y": 1.1738563305,
				"z": 2.2762039055,
				"element": "N" 
			},
			{
				"x": 0.3435965449,
				"y": 0.1520779811,
				"z": 0.0855367352,
				"element": "C" 
			},
			{
				"x": 2.0490885931,
				"y": -0.5141077876,
				"z": 0.7283384402,
				"element": "Br" 
			},
			{
				"x": 0.0250090725,
				"y": -0.1647632415,
				"z": -1.1460818205,
				"element": "N" 
			},
			{
				"x": -1.1415750481,
				"y": 0.2840896323,
				"z": -1.6278647309,
				"element": "C" 
			},
			{
				"x": -2.0056059957,
				"y": 1.0618219365,
				"z": -0.8617839155,
				"element": "C" 
			},
			{
				"x": -2.8215954582,
				"y": 1.6914137439,
				"z": 2.2536687337,
				"element": "H" 
			},
			{
				"x": -2.1237212458,
				"y": 3.1770724119,
				"z": 1.6014276983,
				"element": "H" 
			},
			{
				"x": -3.5200895676,
				"y": 2.4442092001,
				"z": 0.8077885659,
				"element": "H" 
			},
			{
				"x": 0.9006646113,
				"y": 0.9795697603,
				"z": 2.4895983926,
				"element": "H" 
			},
			{
				"x": -0.414352027,
				"y": 2.0288766892,
				"z": 2.6862025353,
				"element": "H" 
			},
			{
				"x": -1.3813953419,
				"y": 0.0102508671,
				"z": -2.6517304645,
				"element": "H" 
			},
			{
				"x": -2.9453194941,
				"y": 1.4075635335,
				"z": -1.2828522983,
				"element": "H" 
			}
		],
		 "valence_orbital": [ 
			{
				"type": "occ",
				"energy": -0.30696,
				"method": "rhf"
			},
			{
				"type": "occ",
				"energy": -0.2871,
				"method": "rhf"
			},
			{
				"type": "occ",
				"energy": -0.26337,
				"method": "rhf"
			},
			{
				"type": "occ",
				"energy": -0.26132,
				"method": "rhf"
			},
			{
				"type": "occ",
				"energy": -0.2164,
				"method": "rhf"
			},
			{
				"type": "unocc",
				"energy": -0.02166,
				"method": "rhf"
			},
			{
				"type": "unocc",
				"energy": -0.00183,
				"method": "rhf"
			},
			{
				"type": "unocc",
				"energy": 0.01317,
				"method": "rhf"
			},
			{
				"type": "unocc",
				"energy": 0.0684,
				"method": "rhf"
			},
			{
				"type": "unocc",
				"energy": 0.10806,
				"method": "rhf"
			}
		],
		"cosmo_sigma_profile": { 
			"-0.025": 0.0,
			"-0.024": 0.0,
			"-0.023": 0.0,
			"-0.022": 0.0,
			"-0.021": 0.0,
			"-0.02": 0.0,
			"-0.019": 0.0,
			"-0.018": 0.0,
			"-0.017": 0.0,
			"-0.016": 0.0,
			"-0.015": 0.0,
			"-0.014": 0.0,
			"-0.013": 0.66329124623,
			"-0.012": 1.17467341982,
			"-0.011": 2.05640813823,
			"-0.01": 3.08138095988,
			"-0.009": 2.95183971523,
			"-0.008": 1.53071756138,
			"-0.007": 3.62369035641,
			"-0.006": 8.03390184668,
			"-0.005": 10.8967953683,
			"-0.004": 10.9881087285,
			"-0.003": 11.1650064317,
			"-0.002": 11.3118732496,
			"-0.001": 13.0881938252,
			"0.0": 11.8368992437,
			"0.001": 13.8415952142,
			"0.002": 14.3903140313,
			"0.003": 14.7355843399,
			"0.004": 10.15542738,
			"0.005": 10.7520338028,
			"0.006": 4.00056650004,
			"0.007": 2.59501914417,
			"0.008": 3.12652722723,
			"0.009": 1.73544764651,
			"0.01": 1.59723771751,
			"0.011": 1.64525756416,
			"0.012": 2.02350989451,
			"0.013": 0.671171068038,
			"0.014": 1.00423522025,
			"0.015": 0.489924979414,
			"0.016": 0.0394118779619,
			"0.017": 0.0,
			"0.018": 0.0,
			"0.019": 0.0,
			"0.02": 0.0,
			"0.021": 0.0,
			"0.022": 0.0,
			"0.023": 0.0,
			"0.024": 0.0,
			"0.025": 0.0
		}
	}
}
