{
	 "smiles": "CSC1=C(C#N)C(=CC(=N1)C1CC1)C(O)=O", 
	 "Tm": 455.15, 
	 "num_atms": 26, 
	 "gaussian": { 
		 "optdone": 1, 
		 "sigma_profile": "yes", 
		 "theory": "DFT", 
		 "functional": "B3LYP", 
		 "basiset": "6-31G**", 
		 "properties": { 
			 "R2extent": 5493.9889, 
			 "electric_dipole_moment_norm": 6.36319332804, 
			 "electric_quadrupole_moment_norm": 19.1295666896, 
			 "total_energy": -1083.30017381, 
			 "HOMO_LUMO_gap": 0.14869, 
			 "cosmo_polarized_energy": -13.49, 
			 "cosmo_cavitation_energy": 32.77, 
			 "cosmo_dispersion_energy": -23.21, 
			 "cosmo_repulsion_energy": 1.74, 
			 "cosmo_total_nonelectrostatic_energy": 11.3, 
			 "SMD_solvation_energy": 7.08 
		},
		"coords": [
			{
				"x": -0.0001236856,
				"y": 3.5958883889,
				"z": 0.1329636658,
				"element": "C" 
			},
			{
				"x": 0.4311178582,
				"y": 3.0425557204,
				"z": 1.8146933599,
				"element": "S" 
			},
			{
				"x": 0.2973255059,
				"y": 1.2804999814,
				"z": 1.6468596643,
				"element": "C" 
			},
			{
				"x": 0.5683842848,
				"y": 0.4696588297,
				"z": 2.7868755693,
				"element": "C" 
			},
			{
				"x": 0.9353658129,
				"y": 1.0940920859,
				"z": 4.014796735,
				"element": "C" 
			},
			{
				"x": 1.2372527694,
				"y": 1.5833303764,
				"z": 5.0298524625,
				"element": "N" 
			},
			{
				"x": 0.4604788225,
				"y": -0.9316420071,
				"z": 2.6482319381,
				"element": "C" 
			},
			{
				"x": 0.0951798526,
				"y": -1.437360564,
				"z": 1.4036746131,
				"element": "C" 
			},
			{
				"x": -0.1530502729,
				"y": -0.5665925498,
				"z": 0.3358255069,
				"element": "C" 
			},
			{
				"x": -0.0490109646,
				"y": 0.7692844212,
				"z": 0.4724817737,
				"element": "N" 
			},
			{
				"x": -0.5416775902,
				"y": -1.0934171955,
				"z": -0.9911686133,
				"element": "C" 
			},
			{
				"x": -1.5154345115,
				"y": -0.3111661437,
				"z": -1.8623497502,
				"element": "C" 
			},
			{
				"x": -0.0772844785,
				"y": -0.3824820033,
				"z": -2.2552842248,
				"element": "C" 
			},
			{
				"x": 0.7034795703,
				"y": -1.9787953218,
				"z": 3.729665445,
				"element": "C" 
			},
			{
				"x": 1.0590330208,
				"y": -1.5969137437,
				"z": 4.9648781508,
				"element": "O" 
			},
			{
				"x": 0.5750697744,
				"y": -3.1537793446,
				"z": 3.4721403051,
				"element": "O" 
			},
			{
				"x": -1.0126724381,
				"y": 3.2885798463,
				"z": -0.1281367086,
				"element": "H" 
			},
			{
				"x": 0.0634656001,
				"y": 4.6854985893,
				"z": 0.1660037739,
				"element": "H" 
			},
			{
				"x": 0.7068463862,
				"y": 3.202515152,
				"z": -0.5973439544,
				"element": "H" 
			},
			{
				"x": 0.0099977168,
				"y": -2.5104831452,
				"z": 1.288019705,
				"element": "H" 
			},
			{
				"x": -0.6081853805,
				"y": -2.1758539364,
				"z": -1.0379626074,
				"element": "H" 
			},
			{
				"x": -1.8797068737,
				"y": 0.6236193628,
				"z": -1.4496298863,
				"element": "H" 
			},
			{
				"x": -2.2446921442,
				"y": -0.8870839624,
				"z": -2.4232471472,
				"element": "H" 
			},
			{
				"x": 0.2099427753,
				"y": -1.0086921451,
				"z": -3.093995212,
				"element": "H" 
			},
			{
				"x": 0.5301591419,
				"y": 0.5041536919,
				"z": -2.1078281261,
				"element": "H" 
			},
			{
				"x": 1.1378394477,
				"y": -0.6351143838,
				"z": 5.0791835619,
				"element": "H" 
			}
		],
		 "valence_orbital": [ 
			{
				"type": "occ",
				"energy": -0.31324,
				"method": "rhf"
			},
			{
				"type": "occ",
				"energy": -0.29261,
				"method": "rhf"
			},
			{
				"type": "occ",
				"energy": -0.28933,
				"method": "rhf"
			},
			{
				"type": "occ",
				"energy": -0.28244,
				"method": "rhf"
			},
			{
				"type": "occ",
				"energy": -0.24297,
				"method": "rhf"
			},
			{
				"type": "unocc",
				"energy": -0.09428,
				"method": "rhf"
			},
			{
				"type": "unocc",
				"energy": -0.05664,
				"method": "rhf"
			},
			{
				"type": "unocc",
				"energy": -0.01497,
				"method": "rhf"
			},
			{
				"type": "unocc",
				"energy": 0.02513,
				"method": "rhf"
			},
			{
				"type": "unocc",
				"energy": 0.02931,
				"method": "rhf"
			}
		],
		"cosmo_sigma_profile": { 
			"-0.025": 0.0,
			"-0.024": 0.0,
			"-0.023": 0.0,
			"-0.022": 0.0,
			"-0.021": 0.0,
			"-0.02": 0.0,
			"-0.019": 0.0,
			"-0.018": 0.0,
			"-0.017": 0.0,
			"-0.016": 0.0,
			"-0.015": 0.0,
			"-0.014": 0.0,
			"-0.013": 0.00183539391363,
			"-0.012": 0.327846371835,
			"-0.011": 1.31943021998,
			"-0.01": 1.73199799257,
			"-0.009": 3.06156911148,
			"-0.008": 4.50656394976,
			"-0.007": 7.48646837597,
			"-0.006": 10.5437192154,
			"-0.005": 17.372715808,
			"-0.004": 19.7174081688,
			"-0.003": 24.1783868898,
			"-0.002": 24.4196382957,
			"-0.001": 22.9853094667,
			"0.0": 20.4474410378,
			"0.001": 19.0377008407,
			"0.002": 15.0666405724,
			"0.003": 14.0093873484,
			"0.004": 11.1658276943,
			"0.005": 7.1794349085,
			"0.006": 7.17260926524,
			"0.007": 5.74769621179,
			"0.008": 5.76368252566,
			"0.009": 6.75211422122,
			"0.01": 7.14818864822,
			"0.011": 5.85998727794,
			"0.012": 1.81076349122,
			"0.013": 0.0954142129147,
			"0.014": 0.0,
			"0.015": 0.0,
			"0.016": 0.0,
			"0.017": 0.0,
			"0.018": 0.0,
			"0.019": 0.0,
			"0.02": 0.0,
			"0.021": 0.0,
			"0.022": 0.0,
			"0.023": 0.0,
			"0.024": 0.0,
			"0.025": 0.0
		}
	}
}
