{
	 "smiles": "COC1=C(C=CC(N)=C1)N1CCCC1=O", 
	 "Tm": 400.15, 
	 "num_atms": 29, 
	 "gaussian": { 
		 "optdone": 1, 
		 "sigma_profile": "yes", 
		 "theory": "DFT", 
		 "functional": "B3LYP", 
		 "basiset": "6-31G**", 
		 "properties": { 
			 "R2extent": 3625.2049, 
			 "electric_dipole_moment_norm": 3.53595213769, 
			 "electric_quadrupole_moment_norm": 14.5457785089, 
			 "total_energy": -687.561901942, 
			 "HOMO_LUMO_gap": 0.197, 
			 "cosmo_polarized_energy": -17.08, 
			 "cosmo_cavitation_energy": 31.45, 
			 "cosmo_dispersion_energy": -22.69, 
			 "cosmo_repulsion_energy": 1.8, 
			 "cosmo_total_nonelectrostatic_energy": 10.57, 
			 "SMD_solvation_energy": 6.2 
		},
		"coords": [
			{
				"x": 2.3455097134,
				"y": 0.3704446035,
				"z": 2.3158117027,
				"element": "C" 
			},
			{
				"x": 2.3537232979,
				"y": -0.0843843809,
				"z": 0.9595634237,
				"element": "O" 
			},
			{
				"x": 1.3634242275,
				"y": -0.9600915418,
				"z": 0.6061567423,
				"element": "C" 
			},
			{
				"x": 0.5253201843,
				"y": -0.6234891718,
				"z": -0.4746500973,
				"element": "C" 
			},
			{
				"x": -0.4199184771,
				"y": -1.5608673376,
				"z": -0.9022792016,
				"element": "C" 
			},
			{
				"x": -0.5527512499,
				"y": -2.7974789923,
				"z": -0.2806813682,
				"element": "C" 
			},
			{
				"x": 0.2645275109,
				"y": -3.1258015497,
				"z": 0.8144004447,
				"element": "C" 
			},
			{
				"x": 0.099856882,
				"y": -4.3368907304,
				"z": 1.4903262076,
				"element": "N" 
			},
			{
				"x": 1.2199416014,
				"y": -2.1930083117,
				"z": 1.2450229142,
				"element": "C" 
			},
			{
				"x": 0.6522244935,
				"y": 0.632749495,
				"z": -1.1250471378,
				"element": "N" 
			},
			{
				"x": 0.8881878776,
				"y": 0.7561747469,
				"z": -2.5652116972,
				"element": "C" 
			},
			{
				"x": 1.309027598,
				"y": 2.2309339077,
				"z": -2.7300882845,
				"element": "C" 
			},
			{
				"x": 0.6246308641,
				"y": 2.9378549193,
				"z": -1.5514322858,
				"element": "C" 
			},
			{
				"x": 0.4642056068,
				"y": 1.8445104135,
				"z": -0.4925261271,
				"element": "C" 
			},
			{
				"x": 0.1883942597,
				"y": 2.0086167768,
				"z": 0.6847089462,
				"element": "O" 
			},
			{
				"x": 2.5008987018,
				"y": -0.4517782045,
				"z": 3.0254440399,
				"element": "H" 
			},
			{
				"x": 1.4066463129,
				"y": 0.8873942132,
				"z": 2.5315842449,
				"element": "H" 
			},
			{
				"x": 3.1784799818,
				"y": 1.0710513861,
				"z": 2.402528918,
				"element": "H" 
			},
			{
				"x": -1.0731668123,
				"y": -1.3077453444,
				"z": -1.7323708602,
				"element": "H" 
			},
			{
				"x": -1.301351492,
				"y": -3.5040743617,
				"z": -0.6284988674,
				"element": "H" 
			},
			{
				"x": 0.9091013814,
				"y": -4.6547126367,
				"z": 2.0057474877,
				"element": "H" 
			},
			{
				"x": -0.3109933509,
				"y": -5.0797854611,
				"z": 0.9419007506,
				"element": "H" 
			},
			{
				"x": 1.8804740311,
				"y": -2.4394180307,
				"z": 2.0712420262,
				"element": "H" 
			},
			{
				"x": -0.0243130664,
				"y": 0.5330891194,
				"z": -3.1381183903,
				"element": "H" 
			},
			{
				"x": 1.6624955531,
				"y": 0.0524363464,
				"z": -2.8857012957,
				"element": "H" 
			},
			{
				"x": 1.0291058805,
				"y": 2.632729312,
				"z": -3.7072207129,
				"element": "H" 
			},
			{
				"x": 2.3962578599,
				"y": 2.311367576,
				"z": -2.6329266381,
				"element": "H" 
			},
			{
				"x": 1.1833199777,
				"y": 3.7823060138,
				"z": -1.142223489,
				"element": "H" 
			},
			{
				"x": -0.3762593484,
				"y": 3.303867226,
				"z": -1.8127613956,
				"element": "H" 
			}
		],
		 "valence_orbital": [ 
			{
				"type": "occ",
				"energy": -0.27399,
				"method": "rhf"
			},
			{
				"type": "occ",
				"energy": -0.24247,
				"method": "rhf"
			},
			{
				"type": "occ",
				"energy": -0.2341,
				"method": "rhf"
			},
			{
				"type": "occ",
				"energy": -0.22637,
				"method": "rhf"
			},
			{
				"type": "occ",
				"energy": -0.19219,
				"method": "rhf"
			},
			{
				"type": "unocc",
				"energy": 0.00481,
				"method": "rhf"
			},
			{
				"type": "unocc",
				"energy": 0.01551,
				"method": "rhf"
			},
			{
				"type": "unocc",
				"energy": 0.04566,
				"method": "rhf"
			},
			{
				"type": "unocc",
				"energy": 0.08025,
				"method": "rhf"
			},
			{
				"type": "unocc",
				"energy": 0.08984,
				"method": "rhf"
			}
		],
		"cosmo_sigma_profile": { 
			"-0.025": 0.0,
			"-0.024": 0.0,
			"-0.023": 0.0,
			"-0.022": 0.0,
			"-0.021": 0.0,
			"-0.02": 0.0,
			"-0.019": 0.0,
			"-0.018": 0.0,
			"-0.017": 0.0,
			"-0.016": 0.0,
			"-0.015": 0.0,
			"-0.014": 0.0,
			"-0.013": 0.357329459635,
			"-0.012": 2.60788950643,
			"-0.011": 2.92148066273,
			"-0.01": 2.68691610264,
			"-0.009": 3.20885467357,
			"-0.008": 2.81416909819,
			"-0.007": 4.15884056294,
			"-0.006": 8.59613418595,
			"-0.005": 19.4019301279,
			"-0.004": 25.7701182552,
			"-0.003": 30.3974128178,
			"-0.002": 23.3715959106,
			"-0.001": 17.8086952883,
			"0.0": 12.5012938109,
			"0.001": 7.10877190278,
			"0.002": 8.72665313834,
			"0.003": 7.26976719535,
			"0.004": 8.81927431249,
			"0.005": 11.7379107283,
			"0.006": 11.9757873239,
			"0.007": 5.35059880245,
			"0.008": 5.42404026084,
			"0.009": 3.95985215005,
			"0.01": 4.06588835041,
			"0.011": 3.92288104268,
			"0.012": 3.77642083572,
			"0.013": 3.19658049666,
			"0.014": 3.89716913956,
			"0.015": 1.65107941005,
			"0.016": 0.127274176672,
			"0.017": 0.0,
			"0.018": 0.0,
			"0.019": 0.0,
			"0.02": 0.0,
			"0.021": 0.0,
			"0.022": 0.0,
			"0.023": 0.0,
			"0.024": 0.0,
			"0.025": 0.0
		}
	}
}
