{
	 "smiles": "CCCC(CC(OCC)OCC)OCC", 
	 "Tm": 173.15, 
	 "num_atms": 41, 
	 "gaussian": { 
		 "optdone": 1, 
		 "sigma_profile": "yes", 
		 "theory": "DFT", 
		 "functional": "B3LYP", 
		 "basiset": "6-31G**", 
		 "properties": { 
			 "R2extent": 4636.7646, 
			 "electric_dipole_moment_norm": 2.8138386823, 
			 "electric_quadrupole_moment_norm": 6.59542924987, 
			 "total_energy": -698.608793573, 
			 "HOMO_LUMO_gap": 0.30375, 
			 "cosmo_polarized_energy": -8.36, 
			 "cosmo_cavitation_energy": 40.39, 
			 "cosmo_dispersion_energy": -26.57, 
			 "cosmo_repulsion_energy": 2.16, 
			 "cosmo_total_nonelectrostatic_energy": 15.98, 
			 "SMD_solvation_energy": 6.97 
		},
		"coords": [
			{
				"x": 0.198069508,
				"y": 3.3201360482,
				"z": 0.4713726068,
				"element": "C" 
			},
			{
				"x": -0.3499110839,
				"y": 1.952619407,
				"z": 0.045260754,
				"element": "C" 
			},
			{
				"x": 0.528894902,
				"y": 1.2979256246,
				"z": -1.0325769628,
				"element": "C" 
			},
			{
				"x": 0.1615690236,
				"y": -0.1043292363,
				"z": -1.5606671572,
				"element": "C" 
			},
			{
				"x": -0.1477873955,
				"y": -1.1749147026,
				"z": -0.491936086,
				"element": "C" 
			},
			{
				"x": 1.0486023763,
				"y": -1.6175200494,
				"z": 0.3592473598,
				"element": "C" 
			},
			{
				"x": 2.1175151337,
				"y": -1.8719569205,
				"z": -0.4973746735,
				"element": "O" 
			},
			{
				"x": 3.2779923934,
				"y": -2.4605967063,
				"z": 0.1003019325,
				"element": "C" 
			},
			{
				"x": 4.3875387418,
				"y": -1.4371060298,
				"z": 0.3068368242,
				"element": "C" 
			},
			{
				"x": 1.4457638568,
				"y": -0.6407025592,
				"z": 1.322837678,
				"element": "O" 
			},
			{
				"x": 0.8064229506,
				"y": -0.7528635229,
				"z": 2.58825154,
				"element": "C" 
			},
			{
				"x": 1.4431457735,
				"y": 0.2481293789,
				"z": 3.5387615766,
				"element": "C" 
			},
			{
				"x": -0.8460414782,
				"y": -0.1087044262,
				"z": -2.5827787284,
				"element": "O" 
			},
			{
				"x": -2.1510568242,
				"y": 0.3552146917,
				"z": -2.2752307115,
				"element": "C" 
			},
			{
				"x": -3.0754364334,
				"y": -0.1026695081,
				"z": -3.3949923323,
				"element": "C" 
			},
			{
				"x": 1.2149745148,
				"y": 3.2299193806,
				"z": 0.8705120668,
				"element": "H" 
			},
			{
				"x": 0.2392068513,
				"y": 4.0133683558,
				"z": -0.3767360248,
				"element": "H" 
			},
			{
				"x": -0.42591354,
				"y": 3.7797464709,
				"z": 1.2454344432,
				"element": "H" 
			},
			{
				"x": -1.3799476694,
				"y": 2.0751747604,
				"z": -0.3058419287,
				"element": "H" 
			},
			{
				"x": -0.3968897162,
				"y": 1.2999909901,
				"z": 0.9235200156,
				"element": "H" 
			},
			{
				"x": 1.5451031894,
				"y": 1.2211296359,
				"z": -0.6276307415,
				"element": "H" 
			},
			{
				"x": 0.5903871014,
				"y": 1.9592373926,
				"z": -1.9073266818,
				"element": "H" 
			},
			{
				"x": 1.0389955754,
				"y": -0.4627152312,
				"z": -2.1050677188,
				"element": "H" 
			},
			{
				"x": -0.9467404117,
				"y": -0.8591257025,
				"z": 0.1877518153,
				"element": "H" 
			},
			{
				"x": -0.5148046169,
				"y": -2.0567389672,
				"z": -1.0286697731,
				"element": "H" 
			},
			{
				"x": 0.7796362755,
				"y": -2.5374049515,
				"z": 0.9145554735,
				"element": "H" 
			},
			{
				"x": 3.6080181347,
				"y": -3.2494139774,
				"z": -0.5861511987,
				"element": "H" 
			},
			{
				"x": 3.0078683912,
				"y": -2.9398075465,
				"z": 1.0513095505,
				"element": "H" 
			},
			{
				"x": 5.2876596056,
				"y": -1.9241311562,
				"z": 0.6991146761,
				"element": "H" 
			},
			{
				"x": 4.6442410221,
				"y": -0.9592841114,
				"z": -0.6434929216,
				"element": "H" 
			},
			{
				"x": 4.0661771145,
				"y": -0.663341215,
				"z": 1.006873418,
				"element": "H" 
			},
			{
				"x": -0.2740492855,
				"y": -0.556316094,
				"z": 2.4998228659,
				"element": "H" 
			},
			{
				"x": 0.916884515,
				"y": -1.7789007536,
				"z": 2.9763231095,
				"element": "H" 
			},
			{
				"x": 2.5126389364,
				"y": 0.0467300758,
				"z": 3.6494656924,
				"element": "H" 
			},
			{
				"x": 1.3244333248,
				"y": 1.2681124544,
				"z": 3.1622805646,
				"element": "H" 
			},
			{
				"x": 0.9739132482,
				"y": 0.1868248901,
				"z": 4.5258366492,
				"element": "H" 
			},
			{
				"x": -2.1710341146,
				"y": 1.4532493908,
				"z": -2.2035192485,
				"element": "H" 
			},
			{
				"x": -2.5046795232,
				"y": -0.040156001,
				"z": -1.3107187641,
				"element": "H" 
			},
			{
				"x": -4.0940534914,
				"y": 0.2634702968,
				"z": -3.2292148219,
				"element": "H" 
			},
			{
				"x": -2.7218460144,
				"y": 0.2783854796,
				"z": -4.3576563948,
				"element": "H" 
			},
			{
				"x": -3.1000608612,
				"y": -1.1949653553,
				"z": -3.4508877424,
				"element": "H" 
			}
		],
		 "valence_orbital": [ 
			{
				"type": "occ",
				"energy": -0.3101,
				"method": "rhf"
			},
			{
				"type": "occ",
				"energy": -0.27774,
				"method": "rhf"
			},
			{
				"type": "occ",
				"energy": -0.27287,
				"method": "rhf"
			},
			{
				"type": "occ",
				"energy": -0.25521,
				"method": "rhf"
			},
			{
				"type": "occ",
				"energy": -0.23484,
				"method": "rhf"
			},
			{
				"type": "unocc",
				"energy": 0.06891,
				"method": "rhf"
			},
			{
				"type": "unocc",
				"energy": 0.08833,
				"method": "rhf"
			},
			{
				"type": "unocc",
				"energy": 0.09828,
				"method": "rhf"
			},
			{
				"type": "unocc",
				"energy": 0.10732,
				"method": "rhf"
			},
			{
				"type": "unocc",
				"energy": 0.11435,
				"method": "rhf"
			}
		],
		"cosmo_sigma_profile": { 
			"-0.025": 0.0,
			"-0.024": 0.0,
			"-0.023": 0.0,
			"-0.022": 0.0,
			"-0.021": 0.0,
			"-0.02": 0.0,
			"-0.019": 0.0,
			"-0.018": 0.0,
			"-0.017": 0.0,
			"-0.016": 0.0,
			"-0.015": 0.0,
			"-0.014": 0.0,
			"-0.013": 0.0,
			"-0.012": 0.0,
			"-0.011": 0.0,
			"-0.01": 0.0,
			"-0.009": 0.0,
			"-0.008": 0.0,
			"-0.007": 0.0,
			"-0.006": 0.0106736175619,
			"-0.005": 2.42449058902,
			"-0.004": 22.5604951447,
			"-0.003": 40.3356289354,
			"-0.002": 49.1344840603,
			"-0.001": 49.8825684181,
			"0.0": 44.7306286382,
			"0.001": 39.7684875175,
			"0.002": 18.3878522738,
			"0.003": 6.04851064331,
			"0.004": 5.48633442586,
			"0.005": 5.75357853446,
			"0.006": 4.79735139937,
			"0.007": 5.94703946706,
			"0.008": 4.80579013142,
			"0.009": 3.3387815488,
			"0.01": 1.71114133546,
			"0.011": 2.15997366288,
			"0.012": 1.12060133443,
			"0.013": 0.992421458966,
			"0.014": 1.36265224731,
			"0.015": 0.0849753240314,
			"0.016": 0.0,
			"0.017": 0.0,
			"0.018": 0.0,
			"0.019": 0.0,
			"0.02": 0.0,
			"0.021": 0.0,
			"0.022": 0.0,
			"0.023": 0.0,
			"0.024": 0.0,
			"0.025": 0.0
		}
	}
}
