{
	 "smiles": "CCCCS(=O)(=O)NC1=CC=C(C=C1)S(Cl)(=O)=O", 
	 "Tm": 397.15, 
	 "num_atms": 32, 
	 "gaussian": { 
		 "optdone": 1, 
		 "sigma_profile": "yes", 
		 "theory": "DFT", 
		 "functional": "B3LYP", 
		 "basiset": "6-31G**", 
		 "properties": { 
			 "R2extent": 10837.3497, 
			 "electric_dipole_moment_norm": 5.99886620871, 
			 "electric_quadrupole_moment_norm": 32.4184160181, 
			 "total_energy": -2001.59516784, 
			 "HOMO_LUMO_gap": 0.17231, 
			 "cosmo_polarized_energy": -21.24, 
			 "cosmo_cavitation_energy": 40.42, 
			 "cosmo_dispersion_energy": -29.29, 
			 "cosmo_repulsion_energy": 2.22, 
			 "cosmo_total_nonelectrostatic_energy": 13.35, 
			 "SMD_solvation_energy": 4.56 
		},
		"coords": [
			{
				"x": -0.5415747871,
				"y": -1.4689303813,
				"z": 4.0748138495,
				"element": "C" 
			},
			{
				"x": -0.6767032953,
				"y": -0.2955062154,
				"z": 3.097645067,
				"element": "C" 
			},
			{
				"x": 0.5802956309,
				"y": -0.0205274773,
				"z": 2.2517073878,
				"element": "C" 
			},
			{
				"x": 0.9015229786,
				"y": -1.1584306403,
				"z": 1.2825073355,
				"element": "C" 
			},
			{
				"x": 2.3970058985,
				"y": -0.8783567416,
				"z": 0.2932578209,
				"element": "S" 
			},
			{
				"x": 3.46463463,
				"y": -0.3712717957,
				"z": 1.1533596513,
				"element": "O" 
			},
			{
				"x": 2.5774414774,
				"y": -2.0492860036,
				"z": -0.5632232052,
				"element": "O" 
			},
			{
				"x": 2.0199369011,
				"y": 0.4578943811,
				"z": -0.6888197591,
				"element": "N" 
			},
			{
				"x": 1.0535815071,
				"y": 0.5511887716,
				"z": -1.6966751548,
				"element": "C" 
			},
			{
				"x": 0.6067174508,
				"y": 1.8351987391,
				"z": -2.0659422662,
				"element": "C" 
			},
			{
				"x": -0.3413072296,
				"y": 1.9918291328,
				"z": -3.0662508094,
				"element": "C" 
			},
			{
				"x": -0.859400868,
				"y": 0.8542597233,
				"z": -3.6900998376,
				"element": "C" 
			},
			{
				"x": -0.4267020425,
				"y": -0.4267833255,
				"z": -3.3430622742,
				"element": "C" 
			},
			{
				"x": 0.5339343015,
				"y": -0.5821591922,
				"z": -2.3505967512,
				"element": "C" 
			},
			{
				"x": -2.0996348051,
				"y": 1.0448707432,
				"z": -4.9469632617,
				"element": "S" 
			},
			{
				"x": -0.9122534589,
				"y": 1.203710698,
				"z": -6.7180741406,
				"element": "Cl" 
			},
			{
				"x": -2.8505697327,
				"y": -0.1976743941,
				"z": -5.0798045336,
				"element": "O" 
			},
			{
				"x": -2.7529269673,
				"y": 2.3389340649,
				"z": -4.7884232717,
				"element": "O" 
			},
			{
				"x": -1.4396932504,
				"y": -1.563250303,
				"z": 4.6926820306,
				"element": "H" 
			},
			{
				"x": 0.3117117135,
				"y": -1.3269537114,
				"z": 4.7473845045,
				"element": "H" 
			},
			{
				"x": -0.4034637758,
				"y": -2.4251328768,
				"z": 3.5590006877,
				"element": "H" 
			},
			{
				"x": -0.9032823782,
				"y": 0.6167182349,
				"z": 3.6620730288,
				"element": "H" 
			},
			{
				"x": -1.5348579721,
				"y": -0.4614660113,
				"z": 2.4330501956,
				"element": "H" 
			},
			{
				"x": 0.4302393755,
				"y": 0.9032021691,
				"z": 1.6803910155,
				"element": "H" 
			},
			{
				"x": 1.4433859421,
				"y": 0.1439215993,
				"z": 2.905853799,
				"element": "H" 
			},
			{
				"x": 1.1115436643,
				"y": -2.1015226413,
				"z": 1.7953795301,
				"element": "H" 
			},
			{
				"x": 0.095329053,
				"y": -1.3381416575,
				"z": 0.5637355361,
				"element": "H" 
			},
			{
				"x": 2.4002524692,
				"y": 1.3170560537,
				"z": -0.311303842,
				"element": "H" 
			},
			{
				"x": 1.0041517781,
				"y": 2.7103828802,
				"z": -1.5596974492,
				"element": "H" 
			},
			{
				"x": -0.6930535343,
				"y": 2.9779951846,
				"z": -3.3475667534,
				"element": "H" 
			},
			{
				"x": -0.837238577,
				"y": -1.2943447752,
				"z": -3.8475738056,
				"element": "H" 
			},
			{
				"x": 0.9013779029,
				"y": -1.5692242321,
				"z": -2.0991643245,
				"element": "H" 
			}
		],
		 "valence_orbital": [ 
			{
				"type": "occ",
				"energy": -0.32387,
				"method": "rhf"
			},
			{
				"type": "occ",
				"energy": -0.32083,
				"method": "rhf"
			},
			{
				"type": "occ",
				"energy": -0.31125,
				"method": "rhf"
			},
			{
				"type": "occ",
				"energy": -0.29531,
				"method": "rhf"
			},
			{
				"type": "occ",
				"energy": -0.26111,
				"method": "rhf"
			},
			{
				"type": "unocc",
				"energy": -0.0888,
				"method": "rhf"
			},
			{
				"type": "unocc",
				"energy": -0.04481,
				"method": "rhf"
			},
			{
				"type": "unocc",
				"energy": -0.04297,
				"method": "rhf"
			},
			{
				"type": "unocc",
				"energy": 0.02761,
				"method": "rhf"
			},
			{
				"type": "unocc",
				"energy": 0.04703,
				"method": "rhf"
			}
		],
		"cosmo_sigma_profile": { 
			"-0.025": 0.0,
			"-0.024": 0.0,
			"-0.023": 0.0,
			"-0.022": 0.0,
			"-0.021": 0.0,
			"-0.02": 0.0,
			"-0.019": 0.0,
			"-0.018": 0.0,
			"-0.017": 0.607297012752,
			"-0.016": 0.847289730984,
			"-0.015": 1.31296091526,
			"-0.014": 0.966769409287,
			"-0.013": 1.49570842452,
			"-0.012": 1.14527859287,
			"-0.011": 0.568747825784,
			"-0.01": 1.19172081195,
			"-0.009": 4.12360605668,
			"-0.008": 8.15494605906,
			"-0.007": 11.4215279768,
			"-0.006": 14.1778859793,
			"-0.005": 15.1521427002,
			"-0.004": 14.9083909434,
			"-0.003": 25.1163957978,
			"-0.002": 26.0781308115,
			"-0.001": 28.042276156,
			"0.0": 28.674332331,
			"0.001": 31.1889253011,
			"0.002": 17.5719815132,
			"0.003": 14.6241060734,
			"0.004": 16.7192550461,
			"0.005": 4.86477920706,
			"0.006": 6.47178052053,
			"0.007": 7.45840272984,
			"0.008": 13.3112649716,
			"0.009": 11.1194550827,
			"0.01": 8.57778466421,
			"0.011": 6.93502288492,
			"0.012": 0.277049192951,
			"0.013": 0.0,
			"0.014": 0.0,
			"0.015": 0.0,
			"0.016": 0.0,
			"0.017": 0.0,
			"0.018": 0.0,
			"0.019": 0.0,
			"0.02": 0.0,
			"0.021": 0.0,
			"0.022": 0.0,
			"0.023": 0.0,
			"0.024": 0.0,
			"0.025": 0.0
		}
	}
}
