{
	 "smiles": "CN(C)P(=O)(OP(=O)(N(C)C)N(C)C)N(C)C", 
	 "Tm": 290.15, 
	 "num_atms": 41, 
	 "gaussian": { 
		 "optdone": 1, 
		 "sigma_profile": "yes", 
		 "theory": "DFT", 
		 "functional": "B3LYP", 
		 "basiset": "6-31G**", 
		 "properties": { 
			 "R2extent": 5433.7054, 
			 "electric_dipole_moment_norm": 3.25432558451, 
			 "electric_quadrupole_moment_norm": 11.7979608107, 
			 "total_energy": -1446.81890573, 
			 "HOMO_LUMO_gap": 0.28542, 
			 "cosmo_polarized_energy": -14.85, 
			 "cosmo_cavitation_energy": 43.19, 
			 "cosmo_dispersion_energy": -27.34, 
			 "cosmo_repulsion_energy": 2.05, 
			 "cosmo_total_nonelectrostatic_energy": 17.9, 
			 "SMD_solvation_energy": 10.23 
		},
		"coords": [
			{
				"x": 2.1837580552,
				"y": -1.9232531262,
				"z": 1.5857864726,
				"element": "C" 
			},
			{
				"x": 0.7337448189,
				"y": -2.1528101407,
				"z": 1.5494065802,
				"element": "N" 
			},
			{
				"x": 0.1468195185,
				"y": -2.465466083,
				"z": 2.8545560742,
				"element": "C" 
			},
			{
				"x": -0.1693287359,
				"y": -1.3446456173,
				"z": 0.4081267554,
				"element": "P" 
			},
			{
				"x": 0.6425404702,
				"y": -0.8614121992,
				"z": -0.7455470145,
				"element": "O" 
			},
			{
				"x": -0.9973504397,
				"y": -0.115376137,
				"z": 1.1511785453,
				"element": "O" 
			},
			{
				"x": -0.2868866043,
				"y": 1.2753520878,
				"z": 1.7081527533,
				"element": "P" 
			},
			{
				"x": 0.8560131842,
				"y": 0.9967230093,
				"z": 2.6244249153,
				"element": "O" 
			},
			{
				"x": -1.6790899755,
				"y": 2.0121838895,
				"z": 2.3071441026,
				"element": "N" 
			},
			{
				"x": -2.5759896608,
				"y": 1.2337219739,
				"z": 3.1669005701,
				"element": "C" 
			},
			{
				"x": -1.5236329149,
				"y": 3.3991263875,
				"z": 2.7616198155,
				"element": "C" 
			},
			{
				"x": 0.1356409947,
				"y": 2.2228432624,
				"z": 0.4061662623,
				"element": "N" 
			},
			{
				"x": -0.7946431331,
				"y": 2.3752145224,
				"z": -0.7151037028,
				"element": "C" 
			},
			{
				"x": 1.5513116811,
				"y": 2.2902406458,
				"z": 0.0210291947,
				"element": "C" 
			},
			{
				"x": -1.482706898,
				"y": -2.3654457778,
				"z": 0.1379626571,
				"element": "N" 
			},
			{
				"x": -1.1594025487,
				"y": -3.7024010921,
				"z": -0.3741365076,
				"element": "C" 
			},
			{
				"x": -2.6984709443,
				"y": -1.8093146094,
				"z": -0.4638605593,
				"element": "C" 
			},
			{
				"x": 2.5408497822,
				"y": -1.7081119177,
				"z": 0.5787750067,
				"element": "H" 
			},
			{
				"x": 2.4341864993,
				"y": -1.0819776153,
				"z": 2.2434406626,
				"element": "H" 
			},
			{
				"x": 2.6768720163,
				"y": -2.8309265932,
				"z": 1.9528443322,
				"element": "H" 
			},
			{
				"x": 0.288607886,
				"y": -1.6384394447,
				"z": 3.5625409997,
				"element": "H" 
			},
			{
				"x": 0.6270986977,
				"y": -3.3634636924,
				"z": 3.259935941,
				"element": "H" 
			},
			{
				"x": -0.9200361993,
				"y": -2.6674783282,
				"z": 2.7435057795,
				"element": "H" 
			},
			{
				"x": -2.2059843401,
				"y": 1.1603201945,
				"z": 4.2005060899,
				"element": "H" 
			},
			{
				"x": -2.7032696321,
				"y": 0.2289123078,
				"z": 2.765387775,
				"element": "H" 
			},
			{
				"x": -3.5554175663,
				"y": 1.7245946939,
				"z": 3.1899765114,
				"element": "H" 
			},
			{
				"x": -2.5055012276,
				"y": 3.8855374076,
				"z": 2.7591294482,
				"element": "H" 
			},
			{
				"x": -0.8666252142,
				"y": 3.9395204233,
				"z": 2.078876265,
				"element": "H" 
			},
			{
				"x": -1.1079253465,
				"y": 3.462565425,
				"z": 3.7778828956,
				"element": "H" 
			},
			{
				"x": -0.6594478391,
				"y": 1.5757485955,
				"z": -1.4553125486,
				"element": "H" 
			},
			{
				"x": -1.8229906831,
				"y": 2.359420374,
				"z": -0.3496052253,
				"element": "H" 
			},
			{
				"x": -0.6169021372,
				"y": 3.3409550376,
				"z": -1.2020538131,
				"element": "H" 
			},
			{
				"x": 1.8043251138,
				"y": 1.4975882419,
				"z": -0.693549922,
				"element": "H" 
			},
			{
				"x": 1.7478254895,
				"y": 3.2675079628,
				"z": -0.4350591375,
				"element": "H" 
			},
			{
				"x": 2.1730878902,
				"y": 2.1820368507,
				"z": 0.9096037241,
				"element": "H" 
			},
			{
				"x": -0.9928840714,
				"y": -3.7052885714,
				"z": -1.4612806184,
				"element": "H" 
			},
			{
				"x": -1.9918495463,
				"y": -4.3789203362,
				"z": -0.1504404736,
				"element": "H" 
			},
			{
				"x": -0.262955208,
				"y": -4.0797622601,
				"z": 0.1196528739,
				"element": "H" 
			},
			{
				"x": -2.6089057468,
				"y": -1.6888828553,
				"z": -1.5538651556,
				"element": "H" 
			},
			{
				"x": -2.9290868555,
				"y": -0.8415820981,
				"z": -0.0196302753,
				"element": "H" 
			},
			{
				"x": -3.533398629,
				"y": -2.490354798,
				"z": -0.2641680495,
				"element": "H" 
			}
		],
		 "valence_orbital": [ 
			{
				"type": "occ",
				"energy": -0.27779,
				"method": "rhf"
			},
			{
				"type": "occ",
				"energy": -0.23957,
				"method": "rhf"
			},
			{
				"type": "occ",
				"energy": -0.23709,
				"method": "rhf"
			},
			{
				"type": "occ",
				"energy": -0.23639,
				"method": "rhf"
			},
			{
				"type": "occ",
				"energy": -0.22751,
				"method": "rhf"
			},
			{
				"type": "unocc",
				"energy": 0.05791,
				"method": "rhf"
			},
			{
				"type": "unocc",
				"energy": 0.07978,
				"method": "rhf"
			},
			{
				"type": "unocc",
				"energy": 0.08273,
				"method": "rhf"
			},
			{
				"type": "unocc",
				"energy": 0.10187,
				"method": "rhf"
			},
			{
				"type": "unocc",
				"energy": 0.1052,
				"method": "rhf"
			}
		],
		"cosmo_sigma_profile": { 
			"-0.025": 0.0,
			"-0.024": 0.0,
			"-0.023": 0.0,
			"-0.022": 0.0,
			"-0.021": 0.0,
			"-0.02": 0.0,
			"-0.019": 0.0,
			"-0.018": 0.0,
			"-0.017": 0.0,
			"-0.016": 0.0,
			"-0.015": 0.0,
			"-0.014": 0.0,
			"-0.013": 0.0,
			"-0.012": 0.0,
			"-0.011": 0.0,
			"-0.01": 0.0,
			"-0.009": 0.0,
			"-0.008": 0.0,
			"-0.007": 0.0,
			"-0.006": 0.0,
			"-0.005": 10.9040407827,
			"-0.004": 35.2369068903,
			"-0.003": 43.6707701474,
			"-0.002": 58.1156760838,
			"-0.001": 62.570796789,
			"0.0": 24.8974726468,
			"0.001": 18.626057719,
			"0.002": 15.2458906146,
			"0.003": 11.6393478123,
			"0.004": 8.88034924181,
			"0.005": 5.1976968938,
			"0.006": 6.32348942765,
			"0.007": 5.18936316185,
			"0.008": 2.66851032481,
			"0.009": 3.33125688174,
			"0.01": 2.44778918228,
			"0.011": 1.52273961382,
			"0.012": 2.27171910538,
			"0.013": 3.02837739526,
			"0.014": 2.3749257568,
			"0.015": 5.14915211052,
			"0.016": 1.49129133222,
			"0.017": 0.0,
			"0.018": 0.0,
			"0.019": 0.0,
			"0.02": 0.0,
			"0.021": 0.0,
			"0.022": 0.0,
			"0.023": 0.0,
			"0.024": 0.0,
			"0.025": 0.0
		}
	}
}
