{
	 "smiles": "CC(=O)CC(=O)C1=CC=NC=C1", 
	 "Tm": 337.15, 
	 "num_atms": 21, 
	 "gaussian": { 
		 "optdone": 1, 
		 "sigma_profile": "yes", 
		 "theory": "DFT", 
		 "functional": "B3LYP", 
		 "basiset": "6-31G**", 
		 "properties": { 
			 "R2extent": 2446.9038, 
			 "electric_dipole_moment_norm": 2.33420115029, 
			 "electric_quadrupole_moment_norm": 8.30942610774, 
			 "total_energy": -553.57042387, 
			 "HOMO_LUMO_gap": 0.17605, 
			 "cosmo_polarized_energy": -11.3, 
			 "cosmo_cavitation_energy": 25.64, 
			 "cosmo_dispersion_energy": -18.29, 
			 "cosmo_repulsion_energy": 1.45, 
			 "cosmo_total_nonelectrostatic_energy": 8.8, 
			 "SMD_solvation_energy": 4.34 
		},
		"coords": [
			{
				"x": -0.6056130353,
				"y": 2.5472525529,
				"z": 2.864360999,
				"element": "C" 
			},
			{
				"x": -0.9046896373,
				"y": 1.0769290527,
				"z": 2.679497407,
				"element": "C" 
			},
			{
				"x": -2.0234077038,
				"y": 0.6102959389,
				"z": 2.7654463096,
				"element": "O" 
			},
			{
				"x": 0.3020577922,
				"y": 0.1802832115,
				"z": 2.3494834565,
				"element": "C" 
			},
			{
				"x": 0.637910867,
				"y": 0.2570824584,
				"z": 0.8556560451,
				"element": "C" 
			},
			{
				"x": 1.4527789975,
				"y": 1.0715070979,
				"z": 0.4537939706,
				"element": "O" 
			},
			{
				"x": -0.0607426555,
				"y": -0.6697951345,
				"z": -0.0941241346,
				"element": "C" 
			},
			{
				"x": 0.4314178926,
				"y": -0.7833847608,
				"z": -1.4010363543,
				"element": "C" 
			},
			{
				"x": -0.2141175386,
				"y": -1.6423160317,
				"z": -2.2861712877,
				"element": "C" 
			},
			{
				"x": -1.2988945888,
				"y": -2.3627185879,
				"z": -1.9647427921,
				"element": "N" 
			},
			{
				"x": -1.773171655,
				"y": -2.2328854584,
				"z": -0.7205591318,
				"element": "C" 
			},
			{
				"x": -1.1950962267,
				"y": -1.4141166884,
				"z": 0.2525190129,
				"element": "C" 
			},
			{
				"x": -0.0612610165,
				"y": 2.6923487892,
				"z": 3.8056457975,
				"element": "H" 
			},
			{
				"x": -1.5337907605,
				"y": 3.1192180681,
				"z": 2.893133079,
				"element": "H" 
			},
			{
				"x": 0.0483522648,
				"y": 2.9063104129,
				"z": 2.0625319455,
				"element": "H" 
			},
			{
				"x": 0.0660489601,
				"y": -0.8402178258,
				"z": 2.6552205204,
				"element": "H" 
			},
			{
				"x": 1.1872088701,
				"y": 0.5375955484,
				"z": 2.8813752683,
				"element": "H" 
			},
			{
				"x": 1.3011906433,
				"y": -0.2085321806,
				"z": -1.6992171513,
				"element": "H" 
			},
			{
				"x": 0.1537393587,
				"y": -1.7595220671,
				"z": -3.3036862643,
				"element": "H" 
			},
			{
				"x": -2.6620429785,
				"y": -2.8141404673,
				"z": -0.4830037535,
				"element": "H" 
			},
			{
				"x": -1.6466778497,
				"y": -1.3354939284,
				"z": 1.2356770583,
				"element": "H" 
			}
		],
		 "valence_orbital": [ 
			{
				"type": "occ",
				"energy": -0.29608,
				"method": "rhf"
			},
			{
				"type": "occ",
				"energy": -0.27945,
				"method": "rhf"
			},
			{
				"type": "occ",
				"energy": -0.27237,
				"method": "rhf"
			},
			{
				"type": "occ",
				"energy": -0.26323,
				"method": "rhf"
			},
			{
				"type": "occ",
				"energy": -0.2606,
				"method": "rhf"
			},
			{
				"type": "unocc",
				"energy": -0.08455,
				"method": "rhf"
			},
			{
				"type": "unocc",
				"energy": -0.03044,
				"method": "rhf"
			},
			{
				"type": "unocc",
				"energy": -0.0212,
				"method": "rhf"
			},
			{
				"type": "unocc",
				"energy": 0.02067,
				"method": "rhf"
			},
			{
				"type": "unocc",
				"energy": 0.09254,
				"method": "rhf"
			}
		],
		"cosmo_sigma_profile": { 
			"-0.025": 0.0,
			"-0.024": 0.0,
			"-0.023": 0.0,
			"-0.022": 0.0,
			"-0.021": 0.0,
			"-0.02": 0.0,
			"-0.019": 0.0,
			"-0.018": 0.0,
			"-0.017": 0.0,
			"-0.016": 0.0,
			"-0.015": 0.0,
			"-0.014": 0.0,
			"-0.013": 0.0,
			"-0.012": 0.0,
			"-0.011": 0.0,
			"-0.01": 0.0,
			"-0.009": 0.0,
			"-0.008": 2.14772050022,
			"-0.007": 12.2723765574,
			"-0.006": 17.659168457,
			"-0.005": 16.5057856054,
			"-0.004": 17.6787329703,
			"-0.003": 14.7613437925,
			"-0.002": 15.3412337791,
			"-0.001": 14.0942194166,
			"0.0": 14.0701154813,
			"0.001": 19.7239063134,
			"0.002": 8.28814544765,
			"0.003": 5.68556907233,
			"0.004": 4.72734139086,
			"0.005": 4.4019372548,
			"0.006": 4.59447160742,
			"0.007": 4.28505064358,
			"0.008": 4.26320148161,
			"0.009": 4.72831430511,
			"0.01": 6.4835012626,
			"0.011": 7.40874806817,
			"0.012": 2.51748238369,
			"0.013": 0.986487594823,
			"0.014": 0.669546506924,
			"0.015": 0.951614251325,
			"0.016": 0.608844571837,
			"0.017": 0.0,
			"0.018": 0.0,
			"0.019": 0.0,
			"0.02": 0.0,
			"0.021": 0.0,
			"0.022": 0.0,
			"0.023": 0.0,
			"0.024": 0.0,
			"0.025": 0.0
		}
	}
}
