{
	 "smiles": "CN(C)C1=CC(O)=C(C=C1)C(C)=O", 
	 "Tm": 394.15, 
	 "num_atms": 26, 
	 "gaussian": { 
		 "optdone": 1, 
		 "sigma_profile": "yes", 
		 "theory": "DFT", 
		 "functional": "B3LYP", 
		 "basiset": "6-31G**", 
		 "properties": { 
			 "R2extent": 3601.853, 
			 "electric_dipole_moment_norm": 6.83746587121, 
			 "electric_quadrupole_moment_norm": 18.572966507, 
			 "total_energy": -594.092823963, 
			 "HOMO_LUMO_gap": 0.17114, 
			 "cosmo_polarized_energy": -15.77, 
			 "cosmo_cavitation_energy": 28.64, 
			 "cosmo_dispersion_energy": -21.15, 
			 "cosmo_repulsion_energy": 1.65, 
			 "cosmo_total_nonelectrostatic_energy": 9.14, 
			 "SMD_solvation_energy": 5.76 
		},
		"coords": [
			{
				"x": -1.5729489328,
				"y": 4.2740309033,
				"z": -0.0940539724,
				"element": "C" 
			},
			{
				"x": -0.5776342223,
				"y": 3.2134466118,
				"z": -0.0816273432,
				"element": "N" 
			},
			{
				"x": 0.7845906011,
				"y": 3.5096953471,
				"z": -0.4882042202,
				"element": "C" 
			},
			{
				"x": -0.9621351309,
				"y": 1.9097819698,
				"z": 0.1520721247,
				"element": "C" 
			},
			{
				"x": -0.0322805828,
				"y": 0.8506287115,
				"z": 0.0865397595,
				"element": "C" 
			},
			{
				"x": -0.4113578854,
				"y": -0.4699267485,
				"z": 0.3354424043,
				"element": "C" 
			},
			{
				"x": 0.5254286922,
				"y": -1.4634280955,
				"z": 0.262652707,
				"element": "O" 
			},
			{
				"x": -1.7443216853,
				"y": -0.8033375227,
				"z": 0.6584471623,
				"element": "C" 
			},
			{
				"x": -2.6567918314,
				"y": 0.2679460208,
				"z": 0.711654548,
				"element": "C" 
			},
			{
				"x": -2.3049720685,
				"y": 1.5812038604,
				"z": 0.4703818946,
				"element": "C" 
			},
			{
				"x": -2.2831926331,
				"y": -2.1650514892,
				"z": 0.945124197,
				"element": "C" 
			},
			{
				"x": -1.3789237653,
				"y": -3.3838461551,
				"z": 0.9150603901,
				"element": "C" 
			},
			{
				"x": -3.4734300195,
				"y": -2.3053694636,
				"z": 1.2099583848,
				"element": "O" 
			},
			{
				"x": -2.3271057177,
				"y": 4.1296395032,
				"z": -0.8804107259,
				"element": "H" 
			},
			{
				"x": -1.0761624743,
				"y": 5.2283233586,
				"z": -0.272569524,
				"element": "H" 
			},
			{
				"x": -2.0955681023,
				"y": 4.3444828455,
				"z": 0.8675694936,
				"element": "H" 
			},
			{
				"x": 1.5097296411,
				"y": 3.1824536005,
				"z": 0.2682202704,
				"element": "H" 
			},
			{
				"x": 1.0497506843,
				"y": 3.0302687242,
				"z": -1.4419888007,
				"element": "H" 
			},
			{
				"x": 0.8980583179,
				"y": 4.5873777591,
				"z": -0.6100771394,
				"element": "H" 
			},
			{
				"x": 1.0057479053,
				"y": 1.0463399775,
				"z": -0.1618622882,
				"element": "H" 
			},
			{
				"x": 1.377977294,
				"y": -1.0706269477,
				"z": 0.0344702191,
				"element": "H" 
			},
			{
				"x": -3.6826981667,
				"y": 0.0132380797,
				"z": 0.9564683048,
				"element": "H" 
			},
			{
				"x": -3.0633957407,
				"y": 2.3512612486,
				"z": 0.5260110144,
				"element": "H" 
			},
			{
				"x": -0.9147843641,
				"y": -3.5051977354,
				"z": -0.0681565526,
				"element": "H" 
			},
			{
				"x": -0.5578102262,
				"y": -3.2826421318,
				"z": 1.630855924,
				"element": "H" 
			},
			{
				"x": -1.9838695867,
				"y": -4.2589922323,
				"z": 1.156621768,
				"element": "H" 
			}
		],
		 "valence_orbital": [ 
			{
				"type": "occ",
				"energy": -0.33207,
				"method": "rhf"
			},
			{
				"type": "occ",
				"energy": -0.2757,
				"method": "rhf"
			},
			{
				"type": "occ",
				"energy": -0.22974,
				"method": "rhf"
			},
			{
				"type": "occ",
				"energy": -0.22463,
				"method": "rhf"
			},
			{
				"type": "occ",
				"energy": -0.1974,
				"method": "rhf"
			},
			{
				"type": "unocc",
				"energy": -0.02626,
				"method": "rhf"
			},
			{
				"type": "unocc",
				"energy": 0.01269,
				"method": "rhf"
			},
			{
				"type": "unocc",
				"energy": 0.06113,
				"method": "rhf"
			},
			{
				"type": "unocc",
				"energy": 0.0625,
				"method": "rhf"
			},
			{
				"type": "unocc",
				"energy": 0.0785,
				"method": "rhf"
			}
		],
		"cosmo_sigma_profile": { 
			"-0.025": 0.0,
			"-0.024": 0.0,
			"-0.023": 0.0,
			"-0.022": 0.0,
			"-0.021": 0.0,
			"-0.02": 0.0,
			"-0.019": 0.0,
			"-0.018": 0.554163841473,
			"-0.017": 1.18097745204,
			"-0.016": 0.765337912924,
			"-0.015": 1.17661452401,
			"-0.014": 1.46002311169,
			"-0.013": 0.473711051644,
			"-0.012": 0.470481378301,
			"-0.011": 1.01787016167,
			"-0.01": 1.119747642,
			"-0.009": 1.28544992969,
			"-0.008": 1.31999916277,
			"-0.007": 2.97566237951,
			"-0.006": 5.34700325376,
			"-0.005": 12.0988105407,
			"-0.004": 21.3165612783,
			"-0.003": 23.0311474428,
			"-0.002": 25.1648326169,
			"-0.001": 17.43362468,
			"0.0": 15.2421241353,
			"0.001": 12.9025115418,
			"0.002": 8.92361816975,
			"0.003": 12.6935322632,
			"0.004": 14.2513016261,
			"0.005": 14.5746862129,
			"0.006": 8.71710415231,
			"0.007": 3.8951330162,
			"0.008": 1.60290284553,
			"0.009": 1.53432134932,
			"0.01": 1.8313974339,
			"0.011": 1.81797502504,
			"0.012": 2.57822517581,
			"0.013": 4.44124550618,
			"0.014": 2.27228634605,
			"0.015": 0.485437773446,
			"0.016": 0.0,
			"0.017": 0.0,
			"0.018": 0.0,
			"0.019": 0.0,
			"0.02": 0.0,
			"0.021": 0.0,
			"0.022": 0.0,
			"0.023": 0.0,
			"0.024": 0.0,
			"0.025": 0.0
		}
	}
}
