{
	 "smiles": "CCCCCCCCCCC1=CC=C(C=C1)C(C)=O", 
	 "Tm": 307.15, 
	 "num_atms": 47, 
	 "gaussian": { 
		 "optdone": 1, 
		 "sigma_profile": "yes", 
		 "theory": "DFT", 
		 "functional": "B3LYP", 
		 "basiset": "6-31G**", 
		 "properties": { 
			 "R2extent": 8407.9517, 
			 "electric_dipole_moment_norm": 3.28098861626, 
			 "electric_quadrupole_moment_norm": 20.9240889116, 
			 "total_energy": -778.056220174, 
			 "HOMO_LUMO_gap": 0.19261, 
			 "cosmo_polarized_energy": -8.41, 
			 "cosmo_cavitation_energy": 47.58, 
			 "cosmo_dispersion_energy": -30.99, 
			 "cosmo_repulsion_energy": 2.48, 
			 "cosmo_total_nonelectrostatic_energy": 19.07, 
			 "SMD_solvation_energy": 7.39 
		},
		"coords": [
			{
				"x": -3.3914326712,
				"y": -0.1719579094,
				"z": 4.3421671357,
				"element": "C" 
			},
			{
				"x": -1.8819576181,
				"y": -0.4016554682,
				"z": 4.1992072241,
				"element": "C" 
			},
			{
				"x": -1.4535441082,
				"y": -1.0057691327,
				"z": 2.8515072174,
				"element": "C" 
			},
			{
				"x": -1.6855531157,
				"y": -0.0969151156,
				"z": 1.6362756607,
				"element": "C" 
			},
			{
				"x": -1.1844697258,
				"y": -0.7061125601,
				"z": 0.320282252,
				"element": "C" 
			},
			{
				"x": -1.4121452127,
				"y": 0.1952714529,
				"z": -0.9003067465,
				"element": "C" 
			},
			{
				"x": -0.9105288494,
				"y": -0.4276994971,
				"z": -2.2101902826,
				"element": "C" 
			},
			{
				"x": -1.2046785182,
				"y": 0.4034908897,
				"z": -3.4721969689,
				"element": "C" 
			},
			{
				"x": -0.5390336971,
				"y": 1.7884514685,
				"z": -3.582358729,
				"element": "C" 
			},
			{
				"x": 0.9822927192,
				"y": 1.7947123533,
				"z": -3.8633624659,
				"element": "C" 
			},
			{
				"x": 1.889757531,
				"y": 1.4498066361,
				"z": -2.6995089666,
				"element": "C" 
			},
			{
				"x": 1.9147147818,
				"y": 2.2510461492,
				"z": -1.5474062096,
				"element": "C" 
			},
			{
				"x": 2.7611509017,
				"y": 1.9538816522,
				"z": -0.4821348053,
				"element": "C" 
			},
			{
				"x": 3.6174959406,
				"y": 0.8432063704,
				"z": -0.53911274,
				"element": "C" 
			},
			{
				"x": 3.6037451483,
				"y": 0.0448437743,
				"z": -1.6927459122,
				"element": "C" 
			},
			{
				"x": 2.7556611008,
				"y": 0.3460890108,
				"z": -2.7528551574,
				"element": "C" 
			},
			{
				"x": 4.5504461644,
				"y": 0.4725260794,
				"z": 0.5718596349,
				"element": "C" 
			},
			{
				"x": 4.5764328722,
				"y": 1.3317360196,
				"z": 1.8260048094,
				"element": "C" 
			},
			{
				"x": 5.2799842351,
				"y": -0.503757589,
				"z": 0.4755445866,
				"element": "O" 
			},
			{
				"x": -3.7664548292,
				"y": 0.5520156971,
				"z": 3.611500854,
				"element": "H" 
			},
			{
				"x": -3.9471555823,
				"y": -1.1059363251,
				"z": 4.1972252427,
				"element": "H" 
			},
			{
				"x": -3.6396186087,
				"y": 0.2098744214,
				"z": 5.338089798,
				"element": "H" 
			},
			{
				"x": -1.3518547928,
				"y": 0.5485876825,
				"z": 4.3532723297,
				"element": "H" 
			},
			{
				"x": -1.5467353719,
				"y": -1.0680180442,
				"z": 5.0043733541,
				"element": "H" 
			},
			{
				"x": -0.3858973259,
				"y": -1.2598560333,
				"z": 2.9019048745,
				"element": "H" 
			},
			{
				"x": -1.9829772862,
				"y": -1.9573989994,
				"z": 2.6983383259,
				"element": "H" 
			},
			{
				"x": -2.7548569498,
				"y": 0.1333701123,
				"z": 1.5390805853,
				"element": "H" 
			},
			{
				"x": -1.1818516622,
				"y": 0.8663013278,
				"z": 1.8051717123,
				"element": "H" 
			},
			{
				"x": -1.6820518897,
				"y": -1.6727498107,
				"z": 0.1559815435,
				"element": "H" 
			},
			{
				"x": -0.1118287042,
				"y": -0.929220961,
				"z": 0.4085305946,
				"element": "H" 
			},
			{
				"x": -0.9110091378,
				"y": 1.1566566202,
				"z": -0.7276532286,
				"element": "H" 
			},
			{
				"x": -2.484977674,
				"y": 0.4206298421,
				"z": -0.9920117988,
				"element": "H" 
			},
			{
				"x": 0.1643634301,
				"y": -0.6250956113,
				"z": -2.1281491677,
				"element": "H" 
			},
			{
				"x": -1.3883192769,
				"y": -1.4092266967,
				"z": -2.3357079314,
				"element": "H" 
			},
			{
				"x": -2.2918558735,
				"y": 0.5478126068,
				"z": -3.5417978031,
				"element": "H" 
			},
			{
				"x": -0.9258154881,
				"y": -0.1850212947,
				"z": -4.357401344,
				"element": "H" 
			},
			{
				"x": -0.7501453928,
				"y": 2.3844249254,
				"z": -2.6860386454,
				"element": "H" 
			},
			{
				"x": -1.0198373324,
				"y": 2.3223469454,
				"z": -4.4116770762,
				"element": "H" 
			},
			{
				"x": 1.1932863936,
				"y": 1.116108916,
				"z": -4.6988197961,
				"element": "H" 
			},
			{
				"x": 1.251634424,
				"y": 2.8001966728,
				"z": -4.2143216255,
				"element": "H" 
			},
			{
				"x": 1.2678924016,
				"y": 3.1227257461,
				"z": -1.4867091975,
				"element": "H" 
			},
			{
				"x": 2.7543294326,
				"y": 2.5964088932,
				"z": 0.392736853,
				"element": "H" 
			},
			{
				"x": 4.2720258056,
				"y": -0.8090708261,
				"z": -1.7317968167,
				"element": "H" 
			},
			{
				"x": 2.7598925272,
				"y": -0.2826866382,
				"z": -3.639783428,
				"element": "H" 
			},
			{
				"x": 3.591954827,
				"y": 1.3578592,
				"z": 2.306126979,
				"element": "H" 
			},
			{
				"x": 4.8512332053,
				"y": 2.3656189435,
				"z": 1.5892528902,
				"element": "H" 
			},
			{
				"x": 5.306292853,
				"y": 0.9134481037,
				"z": 2.5196123855,
				"element": "H" 
			}
		],
		 "valence_orbital": [ 
			{
				"type": "occ",
				"energy": -0.30998,
				"method": "rhf"
			},
			{
				"type": "occ",
				"energy": -0.29468,
				"method": "rhf"
			},
			{
				"type": "occ",
				"energy": -0.25782,
				"method": "rhf"
			},
			{
				"type": "occ",
				"energy": -0.24615,
				"method": "rhf"
			},
			{
				"type": "occ",
				"energy": -0.24414,
				"method": "rhf"
			},
			{
				"type": "unocc",
				"energy": -0.05153,
				"method": "rhf"
			},
			{
				"type": "unocc",
				"energy": -0.00919,
				"method": "rhf"
			},
			{
				"type": "unocc",
				"energy": 0.04018,
				"method": "rhf"
			},
			{
				"type": "unocc",
				"energy": 0.08236,
				"method": "rhf"
			},
			{
				"type": "unocc",
				"energy": 0.09151,
				"method": "rhf"
			}
		],
		"cosmo_sigma_profile": { 
			"-0.025": 0.0,
			"-0.024": 0.0,
			"-0.023": 0.0,
			"-0.022": 0.0,
			"-0.021": 0.0,
			"-0.02": 0.0,
			"-0.019": 0.0,
			"-0.018": 0.0,
			"-0.017": 0.0,
			"-0.016": 0.0,
			"-0.015": 0.0,
			"-0.014": 0.0,
			"-0.013": 0.0,
			"-0.012": 0.0,
			"-0.011": 0.0,
			"-0.01": 0.0,
			"-0.009": 0.0,
			"-0.008": 0.0,
			"-0.007": 0.190591225458,
			"-0.006": 7.33953865436,
			"-0.005": 15.7754811662,
			"-0.004": 17.5174492423,
			"-0.003": 20.918856051,
			"-0.002": 42.1911768973,
			"-0.001": 62.8212726822,
			"0.0": 68.330302772,
			"0.001": 57.068976706,
			"0.002": 29.9892319838,
			"0.003": 13.8041572978,
			"0.004": 11.458652184,
			"0.005": 3.22232188319,
			"0.006": 2.04191895771,
			"0.007": 2.07688245864,
			"0.008": 0.912023832869,
			"0.009": 1.55989506386,
			"0.01": 2.34735808069,
			"0.011": 2.36979146257,
			"0.012": 4.36093716016,
			"0.013": 2.21693805651,
			"0.014": 0.43232050351,
			"0.015": 0.0,
			"0.016": 0.0,
			"0.017": 0.0,
			"0.018": 0.0,
			"0.019": 0.0,
			"0.02": 0.0,
			"0.021": 0.0,
			"0.022": 0.0,
			"0.023": 0.0,
			"0.024": 0.0,
			"0.025": 0.0
		}
	}
}
