{
	 "smiles": "CC[C@H](C)C(=O)O[C@H]1C[C@@H](C)C=C2C=C[C@H](C)[C@H](CC[C@@H]3C[C@@H](O)CC(=O)O3)[C@@H]12", 
	 "Tm": 448.15, 
	 "num_atms": 65, 
	 "gaussian": { 
		 "optdone": 1, 
		 "sigma_profile": "yes", 
		 "theory": "DFT", 
		 "functional": "B3LYP", 
		 "basiset": "6-31G**", 
		 "properties": { 
			 "R2extent": 17766.2166, 
			 "electric_dipole_moment_norm": 5.24612337731, 
			 "electric_quadrupole_moment_norm": 28.5057092253, 
			 "total_energy": -1312.38058387, 
			 "HOMO_LUMO_gap": 0.1938, 
			 "cosmo_polarized_energy": -23.16, 
			 "cosmo_cavitation_energy": 62.42, 
			 "cosmo_dispersion_energy": -40.29, 
			 "cosmo_repulsion_energy": 3.09, 
			 "cosmo_total_nonelectrostatic_energy": 25.22, 
			 "SMD_solvation_energy": 10.84 
		},
		"coords": [
			{
				"x": 3.1065731181,
				"y": -0.6512333853,
				"z": 6.0474074626,
				"element": "C" 
			},
			{
				"x": 3.1049517484,
				"y": 0.1900916971,
				"z": 4.7670127056,
				"element": "C" 
			},
			{
				"x": 2.6512561814,
				"y": -0.5806849347,
				"z": 3.5152851249,
				"element": "C" 
			},
			{
				"x": 3.6145564167,
				"y": -1.7125751315,
				"z": 3.108014908,
				"element": "C" 
			},
			{
				"x": 2.4205542557,
				"y": 0.3833600849,
				"z": 2.3533282074,
				"element": "C" 
			},
			{
				"x": 2.5970634365,
				"y": 1.5834601331,
				"z": 2.3917525926,
				"element": "O" 
			},
			{
				"x": 1.962436916,
				"y": -0.2680604646,
				"z": 1.2553810116,
				"element": "O" 
			},
			{
				"x": 1.6026791378,
				"y": 0.5494438787,
				"z": 0.1049708993,
				"element": "C" 
			},
			{
				"x": 2.8166901589,
				"y": 0.886479664,
				"z": -0.7667170867,
				"element": "C" 
			},
			{
				"x": 3.4397296157,
				"y": -0.3140825638,
				"z": -1.5295502091,
				"element": "C" 
			},
			{
				"x": 4.7131748423,
				"y": -0.8454899539,
				"z": -0.837536017,
				"element": "C" 
			},
			{
				"x": 2.463517363,
				"y": -1.4448485537,
				"z": -1.7413412734,
				"element": "C" 
			},
			{
				"x": 1.1827016595,
				"y": -1.4625376234,
				"z": -1.3299806906,
				"element": "C" 
			},
			{
				"x": 0.3694241476,
				"y": -2.6768206812,
				"z": -1.4045664414,
				"element": "C" 
			},
			{
				"x": -0.599784617,
				"y": -2.903425825,
				"z": -0.504170852,
				"element": "C" 
			},
			{
				"x": -0.8669782469,
				"y": -1.9112415411,
				"z": 0.6075689203,
				"element": "C" 
			},
			{
				"x": -2.1510385501,
				"y": -2.2418178182,
				"z": 1.3796651406,
				"element": "C" 
			},
			{
				"x": -0.7983328674,
				"y": -0.4614104823,
				"z": 0.0435451367,
				"element": "C" 
			},
			{
				"x": -2.0239889226,
				"y": -0.1156571139,
				"z": -0.8526667911,
				"element": "C" 
			},
			{
				"x": -3.1403036662,
				"y": 0.6383686507,
				"z": -0.1124477244,
				"element": "C" 
			},
			{
				"x": -4.387704378,
				"y": 0.879054923,
				"z": -0.9606610358,
				"element": "C" 
			},
			{
				"x": -4.2057947415,
				"y": 1.8651381134,
				"z": -2.1145204625,
				"element": "C" 
			},
			{
				"x": -5.5249055632,
				"y": 2.1217853684,
				"z": -2.8854183393,
				"element": "C" 
			},
			{
				"x": -5.5333585739,
				"y": 1.5502965642,
				"z": -4.1882271083,
				"element": "O" 
			},
			{
				"x": -6.7393551167,
				"y": 1.638140844,
				"z": -2.0606898518,
				"element": "C" 
			},
			{
				"x": -6.5743665888,
				"y": 1.8354697083,
				"z": -0.564369324,
				"element": "C" 
			},
			{
				"x": -7.4094276709,
				"y": 2.3114998958,
				"z": 0.1650025457,
				"element": "O" 
			},
			{
				"x": -5.3885598101,
				"y": 1.4067859404,
				"z": -0.0504590981,
				"element": "O" 
			},
			{
				"x": 0.5521646804,
				"y": -0.2180093386,
				"z": -0.7044027296,
				"element": "C" 
			},
			{
				"x": 3.8186333763,
				"y": -1.4813332204,
				"z": 5.9989754457,
				"element": "H" 
			},
			{
				"x": 2.1152730195,
				"y": -1.0752945242,
				"z": 6.246996121,
				"element": "H" 
			},
			{
				"x": 3.381517399,
				"y": -0.0371539392,
				"z": 6.9107226164,
				"element": "H" 
			},
			{
				"x": 2.4484733135,
				"y": 1.0560870253,
				"z": 4.8978707832,
				"element": "H" 
			},
			{
				"x": 4.1053914242,
				"y": 0.6021472495,
				"z": 4.5862220582,
				"element": "H" 
			},
			{
				"x": 1.6706485129,
				"y": -1.0377708179,
				"z": 3.7170810671,
				"element": "H" 
			},
			{
				"x": 3.2506172877,
				"y": -2.2384137076,
				"z": 2.2228632251,
				"element": "H" 
			},
			{
				"x": 3.7178140163,
				"y": -2.4405369508,
				"z": 3.9169870923,
				"element": "H" 
			},
			{
				"x": 4.6112421636,
				"y": -1.3136850282,
				"z": 2.887649022,
				"element": "H" 
			},
			{
				"x": 1.1803224405,
				"y": 1.4808800192,
				"z": 0.4932936671,
				"element": "H" 
			},
			{
				"x": 3.5704526041,
				"y": 1.3841695835,
				"z": -0.1498799717,
				"element": "H" 
			},
			{
				"x": 2.4700720552,
				"y": 1.636455266,
				"z": -1.4882319357,
				"element": "H" 
			},
			{
				"x": 3.7554076648,
				"y": 0.0536350244,
				"z": -2.5182787712,
				"element": "H" 
			},
			{
				"x": 4.4855747095,
				"y": -1.2142012872,
				"z": 0.1665273845,
				"element": "H" 
			},
			{
				"x": 5.4661583246,
				"y": -0.0548117873,
				"z": -0.7510438033,
				"element": "H" 
			},
			{
				"x": 5.1562034134,
				"y": -1.6700405647,
				"z": -1.4066473747,
				"element": "H" 
			},
			{
				"x": 2.8756710369,
				"y": -2.3457927819,
				"z": -2.196841029,
				"element": "H" 
			},
			{
				"x": 0.6247115684,
				"y": -3.4226063051,
				"z": -2.1548400538,
				"element": "H" 
			},
			{
				"x": -1.1694266663,
				"y": -3.83045988,
				"z": -0.5256403252,
				"element": "H" 
			},
			{
				"x": -0.0336597499,
				"y": -1.9906182482,
				"z": 1.3205381805,
				"element": "H" 
			},
			{
				"x": -2.3216947415,
				"y": -1.5365835676,
				"z": 2.1996288811,
				"element": "H" 
			},
			{
				"x": -3.0360519094,
				"y": -2.2334594968,
				"z": 0.7348036504,
				"element": "H" 
			},
			{
				"x": -2.0791245302,
				"y": -3.2441748351,
				"z": 1.815739895,
				"element": "H" 
			},
			{
				"x": -0.8145513187,
				"y": 0.225463758,
				"z": 0.9010305744,
				"element": "H" 
			},
			{
				"x": -2.4230271907,
				"y": -1.0360476895,
				"z": -1.2992946433,
				"element": "H" 
			},
			{
				"x": -1.6922385559,
				"y": 0.4987878684,
				"z": -1.697325042,
				"element": "H" 
			},
			{
				"x": -3.4546897295,
				"y": 0.0859738299,
				"z": 0.7776920665,
				"element": "H" 
			},
			{
				"x": -2.7664984823,
				"y": 1.6078165968,
				"z": 0.241547002,
				"element": "H" 
			},
			{
				"x": -4.7496987137,
				"y": -0.0892321706,
				"z": -1.3409307801,
				"element": "H" 
			},
			{
				"x": -3.829204474,
				"y": 2.8037672546,
				"z": -1.6906629425,
				"element": "H" 
			},
			{
				"x": -3.4546728733,
				"y": 1.5070310595,
				"z": -2.8248177957,
				"element": "H" 
			},
			{
				"x": -5.626194248,
				"y": 3.1953715626,
				"z": -3.066725915,
				"element": "H" 
			},
			{
				"x": -5.4809349668,
				"y": 0.5888841824,
				"z": -4.0968572011,
				"element": "H" 
			},
			{
				"x": -6.8555643825,
				"y": 0.5571769127,
				"z": -2.2289289673,
				"element": "H" 
			},
			{
				"x": -7.6654205883,
				"y": 2.1173348726,
				"z": -2.3782886652,
				"element": "H" 
			},
			{
				"x": 0.3249944257,
				"y": 0.460554682,
				"z": -1.5382431361,
				"element": "H" 
			}
		],
		 "valence_orbital": [ 
			{
				"type": "occ",
				"energy": -0.28485,
				"method": "rhf"
			},
			{
				"type": "occ",
				"energy": -0.27976,
				"method": "rhf"
			},
			{
				"type": "occ",
				"energy": -0.26769,
				"method": "rhf"
			},
			{
				"type": "occ",
				"energy": -0.25903,
				"method": "rhf"
			},
			{
				"type": "occ",
				"energy": -0.21498,
				"method": "rhf"
			},
			{
				"type": "unocc",
				"energy": -0.02118,
				"method": "rhf"
			},
			{
				"type": "unocc",
				"energy": 0.00942,
				"method": "rhf"
			},
			{
				"type": "unocc",
				"energy": 0.01024,
				"method": "rhf"
			},
			{
				"type": "unocc",
				"energy": 0.05234,
				"method": "rhf"
			},
			{
				"type": "unocc",
				"energy": 0.05668,
				"method": "rhf"
			}
		],
		"cosmo_sigma_profile": { 
			"-0.025": 0.0,
			"-0.024": 0.0,
			"-0.023": 0.0,
			"-0.022": 0.0,
			"-0.021": 0.0,
			"-0.02": 0.0,
			"-0.019": 0.0,
			"-0.018": 0.0,
			"-0.017": 0.0,
			"-0.016": 0.149227084543,
			"-0.015": 1.0919994287,
			"-0.014": 1.57773285313,
			"-0.013": 1.33066984608,
			"-0.012": 1.80618384572,
			"-0.011": 1.51301736392,
			"-0.01": 0.924087687731,
			"-0.009": 2.02402131035,
			"-0.008": 3.19279457645,
			"-0.007": 3.77408135943,
			"-0.006": 6.65080121079,
			"-0.005": 17.4621258339,
			"-0.004": 38.7495301819,
			"-0.003": 61.2701917268,
			"-0.002": 70.4787451945,
			"-0.001": 61.1446016867,
			"0.0": 48.0372305809,
			"0.001": 40.2561455888,
			"0.002": 23.152717729,
			"0.003": 13.0847372278,
			"0.004": 10.6460700748,
			"0.005": 10.8729855856,
			"0.006": 9.45698867012,
			"0.007": 8.3441169826,
			"0.008": 6.03072340387,
			"0.009": 4.48858229684,
			"0.01": 5.27251316022,
			"0.011": 8.03154016641,
			"0.012": 11.9213705981,
			"0.013": 7.31945217985,
			"0.014": 2.34811175332,
			"0.015": 0.273546608051,
			"0.016": 0.0,
			"0.017": 0.0,
			"0.018": 0.0,
			"0.019": 0.0,
			"0.02": 0.0,
			"0.021": 0.0,
			"0.022": 0.0,
			"0.023": 0.0,
			"0.024": 0.0,
			"0.025": 0.0
		}
	}
}
