{
	 "smiles": "CC1=CC(=C(C)C=C1)C1=NC(N)=NN=C1", 
	 "Tm": 453.15, 
	 "num_atms": 27, 
	 "gaussian": { 
		 "optdone": 1, 
		 "sigma_profile": "yes", 
		 "theory": "DFT", 
		 "functional": "B3LYP", 
		 "basiset": "6-31G**", 
		 "properties": { 
			 "R2extent": 4479.2989, 
			 "electric_dipole_moment_norm": 3.28960263558, 
			 "electric_quadrupole_moment_norm": 23.1396475431, 
			 "total_energy": -645.394772127, 
			 "HOMO_LUMO_gap": 0.15805, 
			 "cosmo_polarized_energy": -13.18, 
			 "cosmo_cavitation_energy": 30.87, 
			 "cosmo_dispersion_energy": -22.37, 
			 "cosmo_repulsion_energy": 1.75, 
			 "cosmo_total_nonelectrostatic_energy": 10.25, 
			 "SMD_solvation_energy": 2.74 
		},
		"coords": [
			{
				"x": 1.3376444037,
				"y": -3.4612149996,
				"z": -0.8748602163,
				"element": "C" 
			},
			{
				"x": 0.5501119844,
				"y": -2.1728573398,
				"z": -0.9136779505,
				"element": "C" 
			},
			{
				"x": -0.2800067704,
				"y": -1.7978272952,
				"z": 0.1439488786,
				"element": "C" 
			},
			{
				"x": -0.9950823441,
				"y": -0.5871290313,
				"z": 0.1500925362,
				"element": "C" 
			},
			{
				"x": -0.8910628448,
				"y": 0.2922365501,
				"z": -0.9532310972,
				"element": "C" 
			},
			{
				"x": -1.6371345247,
				"y": 1.6030527674,
				"z": -1.0509582726,
				"element": "C" 
			},
			{
				"x": -0.0688793716,
				"y": -0.1014171605,
				"z": -2.0166257803,
				"element": "C" 
			},
			{
				"x": 0.6400264815,
				"y": -1.3000696805,
				"z": -2.0040702431,
				"element": "C" 
			},
			{
				"x": -1.8426069862,
				"y": -0.2948649328,
				"z": 1.3329986899,
				"element": "C" 
			},
			{
				"x": -1.9041243446,
				"y": 0.9500267638,
				"z": 1.8076175893,
				"element": "N" 
			},
			{
				"x": -2.674238501,
				"y": 1.1180315833,
				"z": 2.9010775194,
				"element": "C" 
			},
			{
				"x": -2.7247678064,
				"y": 2.3649211575,
				"z": 3.4433021379,
				"element": "N" 
			},
			{
				"x": -3.3895135093,
				"y": 0.1628612552,
				"z": 3.5371386537,
				"element": "N" 
			},
			{
				"x": -3.3346534103,
				"y": -1.0675385461,
				"z": 3.0451534117,
				"element": "N" 
			},
			{
				"x": -2.5829025786,
				"y": -1.3124201432,
				"z": 1.9744444744,
				"element": "C" 
			},
			{
				"x": 2.398137807,
				"y": -3.273036285,
				"z": -0.6671040816,
				"element": "H" 
			},
			{
				"x": 1.2860980237,
				"y": -3.9895581703,
				"z": -1.8326466701,
				"element": "H" 
			},
			{
				"x": 0.9656219829,
				"y": -4.1349758399,
				"z": -0.0979621904,
				"element": "H" 
			},
			{
				"x": -0.3544981965,
				"y": -2.4529351001,
				"z": 1.0077091476,
				"element": "H" 
			},
			{
				"x": -2.6899363634,
				"y": 1.4968103419,
				"z": -0.7729979244,
				"element": "H" 
			},
			{
				"x": -1.5911506301,
				"y": 1.9876472333,
				"z": -2.0738336712,
				"element": "H" 
			},
			{
				"x": -1.2138657092,
				"y": 2.3538192794,
				"z": -0.3783025065,
				"element": "H" 
			},
			{
				"x": 0.0108495066,
				"y": 0.552086846,
				"z": -2.8817034222,
				"element": "H" 
			},
			{
				"x": 1.2678170539,
				"y": -1.5604597508,
				"z": -2.8530254923,
				"element": "H" 
			},
			{
				"x": -3.4219225841,
				"y": 2.5374269435,
				"z": 4.1495482449,
				"element": "H" 
			},
			{
				"x": -2.3678624387,
				"y": 3.1338671609,
				"z": 2.9006115551,
				"element": "H" 
			},
			{
				"x": -2.5983983296,
				"y": -2.331483607,
				"z": 1.6037566797,
				"element": "H" 
			}
		],
		 "valence_orbital": [ 
			{
				"type": "occ",
				"energy": -0.3081,
				"method": "rhf"
			},
			{
				"type": "occ",
				"energy": -0.25449,
				"method": "rhf"
			},
			{
				"type": "occ",
				"energy": -0.24043,
				"method": "rhf"
			},
			{
				"type": "occ",
				"energy": -0.23169,
				"method": "rhf"
			},
			{
				"type": "occ",
				"energy": -0.22126,
				"method": "rhf"
			},
			{
				"type": "unocc",
				"energy": -0.06321,
				"method": "rhf"
			},
			{
				"type": "unocc",
				"energy": -0.02001,
				"method": "rhf"
			},
			{
				"type": "unocc",
				"energy": -0.00226,
				"method": "rhf"
			},
			{
				"type": "unocc",
				"energy": 0.01634,
				"method": "rhf"
			},
			{
				"type": "unocc",
				"energy": 0.08393,
				"method": "rhf"
			}
		],
		"cosmo_sigma_profile": { 
			"-0.025": 0.0,
			"-0.024": 0.0,
			"-0.023": 0.0,
			"-0.022": 0.0,
			"-0.021": 0.0,
			"-0.02": 0.0,
			"-0.019": 0.0,
			"-0.018": 0.0,
			"-0.017": 0.0,
			"-0.016": 0.0,
			"-0.015": 0.0953105025475,
			"-0.014": 1.64516803355,
			"-0.013": 2.35843300714,
			"-0.012": 1.25979991222,
			"-0.011": 2.73065607551,
			"-0.01": 1.86738739459,
			"-0.009": 1.85174538771,
			"-0.008": 1.69289024521,
			"-0.007": 3.42134351362,
			"-0.006": 6.51310078648,
			"-0.005": 11.6868041423,
			"-0.004": 19.187581163,
			"-0.003": 22.1726900057,
			"-0.002": 22.0385551303,
			"-0.001": 23.5892899518,
			"0.0": 26.2641256756,
			"0.001": 18.3331527604,
			"0.002": 12.2156829135,
			"0.003": 11.3393357759,
			"0.004": 14.4175370665,
			"0.005": 12.1224978515,
			"0.006": 4.75676146654,
			"0.007": 3.72633432963,
			"0.008": 3.11157693356,
			"0.009": 2.856630639,
			"0.01": 2.30700702735,
			"0.011": 1.83102071469,
			"0.012": 2.39580122924,
			"0.013": 2.3707527344,
			"0.014": 3.07647023571,
			"0.015": 1.85463789864,
			"0.016": 0.379480844152,
			"0.017": 0.0,
			"0.018": 0.0,
			"0.019": 0.0,
			"0.02": 0.0,
			"0.021": 0.0,
			"0.022": 0.0,
			"0.023": 0.0,
			"0.024": 0.0,
			"0.025": 0.0
		}
	}
}
