{
	 "smiles": "OC(=O)C1=C(C=C(Br)C=C1)C(F)(F)F", 
	 "Tm": 389.15, 
	 "num_atms": 18, 
	 "gaussian": { 
		 "optdone": 1, 
		 "sigma_profile": "yes", 
		 "theory": "DFT", 
		 "functional": "B3LYP", 
		 "basiset": "6-31G**", 
		 "properties": { 
			 "R2extent": 4977.8138, 
			 "electric_dipole_moment_norm": 1.14136427577, 
			 "electric_quadrupole_moment_norm": 6.47031715992, 
			 "total_energy": -3328.64888685, 
			 "HOMO_LUMO_gap": 0.19463, 
			 "cosmo_polarized_energy": -9.02, 
			 "cosmo_cavitation_energy": 26.61, 
			 "cosmo_dispersion_energy": -19.55, 
			 "cosmo_repulsion_energy": 1.49, 
			 "cosmo_total_nonelectrostatic_energy": 8.55, 
			 "SMD_solvation_energy": 5.7 
		},
		"coords": [
			{
				"x": 1.0706755954,
				"y": 0.3992375195,
				"z": -2.1006795503,
				"element": "O" 
			},
			{
				"x": 0.3998647417,
				"y": -0.760116009,
				"z": -1.9704750272,
				"element": "C" 
			},
			{
				"x": 0.4847368894,
				"y": -1.6624379794,
				"z": -2.7783681519,
				"element": "O" 
			},
			{
				"x": -0.3986568811,
				"y": -0.8646682042,
				"z": -0.7056295531,
				"element": "C" 
			},
			{
				"x": -1.013753543,
				"y": 0.1967939782,
				"z": -0.0071000706,
				"element": "C" 
			},
			{
				"x": -1.7146254358,
				"y": -0.0688561048,
				"z": 1.1714917595,
				"element": "C" 
			},
			{
				"x": -1.8037278535,
				"y": -1.3715911695,
				"z": 1.6572723288,
				"element": "C" 
			},
			{
				"x": -2.7518904559,
				"y": -1.6987731094,
				"z": 3.2755251891,
				"element": "Br" 
			},
			{
				"x": -1.2246847085,
				"y": -2.4336311102,
				"z": 0.9690389249,
				"element": "C" 
			},
			{
				"x": -0.5377619757,
				"y": -2.1681528834,
				"z": -0.2109449049,
				"element": "C" 
			},
			{
				"x": -1.0018878821,
				"y": 1.6378447423,
				"z": -0.4891642324,
				"element": "C" 
			},
			{
				"x": -1.2921249598,
				"y": 1.7252937485,
				"z": -1.8028519169,
				"element": "F" 
			},
			{
				"x": 0.1829458576,
				"y": 2.2387942486,
				"z": -0.278475214,
				"element": "F" 
			},
			{
				"x": -1.9315300119,
				"y": 2.3738189627,
				"z": 0.1645329136,
				"element": "F" 
			},
			{
				"x": 1.5371067287,
				"y": 0.3505779543,
				"z": -2.9520866684,
				"element": "H" 
			},
			{
				"x": -2.2014044618,
				"y": 0.7392046883,
				"z": 1.700257397,
				"element": "H" 
			},
			{
				"x": -1.3113029735,
				"y": -3.4466610864,
				"z": 1.3441387887,
				"element": "H" 
			},
			{
				"x": -0.0887786704,
				"y": -2.9770781861,
				"z": -0.776282012,
				"element": "H" 
			}
		],
		 "valence_orbital": [ 
			{
				"type": "occ",
				"energy": -0.32742,
				"method": "rhf"
			},
			{
				"type": "occ",
				"energy": -0.30488,
				"method": "rhf"
			},
			{
				"type": "occ",
				"energy": -0.29482,
				"method": "rhf"
			},
			{
				"type": "occ",
				"energy": -0.28957,
				"method": "rhf"
			},
			{
				"type": "occ",
				"energy": -0.26543,
				"method": "rhf"
			},
			{
				"type": "unocc",
				"energy": -0.0708,
				"method": "rhf"
			},
			{
				"type": "unocc",
				"energy": -0.04268,
				"method": "rhf"
			},
			{
				"type": "unocc",
				"energy": -0.0099,
				"method": "rhf"
			},
			{
				"type": "unocc",
				"energy": 0.02557,
				"method": "rhf"
			},
			{
				"type": "unocc",
				"energy": 0.07074,
				"method": "rhf"
			}
		],
		"cosmo_sigma_profile": { 
			"-0.025": 0.0,
			"-0.024": 0.0,
			"-0.023": 0.0,
			"-0.022": 0.0,
			"-0.021": 0.0,
			"-0.02": 0.0,
			"-0.019": 0.415409423898,
			"-0.018": 1.16047368782,
			"-0.017": 1.10377609094,
			"-0.016": 0.454886780153,
			"-0.015": 0.418291414218,
			"-0.014": 0.720795060692,
			"-0.013": 0.813583408024,
			"-0.012": 1.11577440578,
			"-0.011": 0.916949124583,
			"-0.01": 0.519424045297,
			"-0.009": 1.00356226476,
			"-0.008": 3.93243881346,
			"-0.007": 5.92966645133,
			"-0.006": 5.90532616486,
			"-0.005": 5.94439618352,
			"-0.004": 10.8440556457,
			"-0.003": 10.6502489898,
			"-0.002": 13.9798894013,
			"-0.001": 19.9499189287,
			"0.0": 25.5182350385,
			"0.001": 20.0601788572,
			"0.002": 25.681421716,
			"0.003": 27.0472234402,
			"0.004": 11.3351061827,
			"0.005": 3.62896640809,
			"0.006": 3.88429131441,
			"0.007": 2.3608706577,
			"0.008": 1.70249366015,
			"0.009": 2.08974543546,
			"0.01": 2.73459142736,
			"0.011": 4.68147721689,
			"0.012": 1.08391910438,
			"0.013": 0.0,
			"0.014": 0.0,
			"0.015": 0.0,
			"0.016": 0.0,
			"0.017": 0.0,
			"0.018": 0.0,
			"0.019": 0.0,
			"0.02": 0.0,
			"0.021": 0.0,
			"0.022": 0.0,
			"0.023": 0.0,
			"0.024": 0.0,
			"0.025": 0.0
		}
	}
}
