{
	 "smiles": "ClC1=CC=C(NN=C(C(=O)C2=C3C=CC=CC3=CC=C2)S(=O)(=O)C2=CC=CC=C2)C(Cl)=C1", 
	 "Tm": 435.15, 
	 "num_atms": 48, 
	 "gaussian": { 
		 "optdone": 1, 
		 "sigma_profile": "yes", 
		 "theory": "DFT", 
		 "functional": "B3LYP", 
		 "basiset": "6-31G**", 
		 "properties": { 
			 "R2extent": 21494.711, 
			 "electric_dipole_moment_norm": 4.74752488145, 
			 "electric_quadrupole_moment_norm": 18.6215186105, 
			 "total_energy": -2577.84488952, 
			 "HOMO_LUMO_gap": 0.13477, 
			 "cosmo_polarized_energy": -18.72, 
			 "cosmo_cavitation_energy": 58.27, 
			 "cosmo_dispersion_energy": -39.87, 
			 "cosmo_repulsion_energy": 2.95, 
			 "cosmo_total_nonelectrostatic_energy": 21.35, 
			 "SMD_solvation_energy": 8.1 
		},
		"coords": [
			{
				"x": 0.1201375184,
				"y": -8.1286992185,
				"z": 2.9307733594,
				"element": "Cl" 
			},
			{
				"x": 0.3345213272,
				"y": -6.3897721977,
				"z": 2.865548038,
				"element": "C" 
			},
			{
				"x": -0.0509318975,
				"y": -5.684185354,
				"z": 1.7244785436,
				"element": "C" 
			},
			{
				"x": 0.12240638,
				"y": -4.3065432882,
				"z": 1.678157667,
				"element": "C" 
			},
			{
				"x": 0.677607722,
				"y": -3.6144964182,
				"z": 2.7651210098,
				"element": "C" 
			},
			{
				"x": 0.8617343199,
				"y": -2.2262144828,
				"z": 2.735535652,
				"element": "N" 
			},
			{
				"x": 0.4596249896,
				"y": -1.5431567015,
				"z": 1.6896939091,
				"element": "N" 
			},
			{
				"x": 0.5872757925,
				"y": -0.2610792649,
				"z": 1.5290277937,
				"element": "C" 
			},
			{
				"x": 0.1677749394,
				"y": 0.3630342123,
				"z": 0.2428954226,
				"element": "C" 
			},
			{
				"x": 0.5527796229,
				"y": 1.5010405977,
				"z": -0.0122263462,
				"element": "O" 
			},
			{
				"x": -0.7103691582,
				"y": -0.403978277,
				"z": -0.6979907903,
				"element": "C" 
			},
			{
				"x": -0.4773788491,
				"y": -0.3583931696,
				"z": -2.116982129,
				"element": "C" 
			},
			{
				"x": 0.6317957053,
				"y": 0.3036068773,
				"z": -2.7141589851,
				"element": "C" 
			},
			{
				"x": 0.8176551141,
				"y": 0.2805233843,
				"z": -4.078957374,
				"element": "C" 
			},
			{
				"x": -0.09110458,
				"y": -0.3975674567,
				"z": -4.9248084272,
				"element": "C" 
			},
			{
				"x": -1.1737953322,
				"y": -1.0484131161,
				"z": -4.381917366,
				"element": "C" 
			},
			{
				"x": -1.3951699143,
				"y": -1.0505732738,
				"z": -2.9779933558,
				"element": "C" 
			},
			{
				"x": -2.5124243324,
				"y": -1.7249825822,
				"z": -2.4179841915,
				"element": "C" 
			},
			{
				"x": -2.7204948123,
				"y": -1.7393062125,
				"z": -1.0586939527,
				"element": "C" 
			},
			{
				"x": -1.8093145268,
				"y": -1.0870027196,
				"z": -0.2005383676,
				"element": "C" 
			},
			{
				"x": 1.4777643802,
				"y": 0.8274068094,
				"z": 2.7109385655,
				"element": "S" 
			},
			{
				"x": 1.4799315557,
				"y": 0.0419481533,
				"z": 3.9762067535,
				"element": "O" 
			},
			{
				"x": 2.7514332609,
				"y": 1.2653776523,
				"z": 2.1311180085,
				"element": "O" 
			},
			{
				"x": 0.4329693906,
				"y": 2.2570830489,
				"z": 3.0080126143,
				"element": "C" 
			},
			{
				"x": 0.6443883881,
				"y": 3.4266726569,
				"z": 2.2755331177,
				"element": "C" 
			},
			{
				"x": -0.1462597925,
				"y": 4.5405837069,
				"z": 2.5548535323,
				"element": "C" 
			},
			{
				"x": -1.1283224782,
				"y": 4.4755078786,
				"z": 3.546899844,
				"element": "C" 
			},
			{
				"x": -1.3227546567,
				"y": 3.2990666856,
				"z": 4.2747491793,
				"element": "C" 
			},
			{
				"x": -0.5361185731,
				"y": 2.1777922055,
				"z": 4.0113265458,
				"element": "C" 
			},
			{
				"x": 1.0583084963,
				"y": -4.3482248998,
				"z": 3.9020009774,
				"element": "C" 
			},
			{
				"x": 1.7565933136,
				"y": -3.5272337181,
				"z": 5.2860332615,
				"element": "Cl" 
			},
			{
				"x": 0.8904680556,
				"y": -5.7297344176,
				"z": 3.9584053684,
				"element": "C" 
			},
			{
				"x": -0.4798503631,
				"y": -6.2093524757,
				"z": 0.8788532308,
				"element": "H" 
			},
			{
				"x": -0.1692384231,
				"y": -3.7428112567,
				"z": 0.8003097853,
				"element": "H" 
			},
			{
				"x": 1.2712574973,
				"y": -1.7253429989,
				"z": 3.5320713833,
				"element": "H" 
			},
			{
				"x": 1.327268587,
				"y": 0.8427031659,
				"z": -2.0844645252,
				"element": "H" 
			},
			{
				"x": 1.6725063386,
				"y": 0.7925087956,
				"z": -4.5111479199,
				"element": "H" 
			},
			{
				"x": 0.0696956511,
				"y": -0.4028205607,
				"z": -5.998876872,
				"element": "H" 
			},
			{
				"x": -1.8786933153,
				"y": -1.5764353938,
				"z": -5.0189309414,
				"element": "H" 
			},
			{
				"x": -3.204561896,
				"y": -2.2298600253,
				"z": -3.0871054876,
				"element": "H" 
			},
			{
				"x": -3.5822204613,
				"y": -2.2484434858,
				"z": -0.6378586479,
				"element": "H" 
			},
			{
				"x": -1.9883573261,
				"y": -1.1038890218,
				"z": 0.8683896697,
				"element": "H" 
			},
			{
				"x": 1.4065542538,
				"y": 3.4486623525,
				"z": 1.506957541,
				"element": "H" 
			},
			{
				"x": 0.0048962132,
				"y": 5.4594703985,
				"z": 1.996917845,
				"element": "H" 
			},
			{
				"x": -1.7412974693,
				"y": 5.3471654588,
				"z": 3.7571768372,
				"element": "H" 
			},
			{
				"x": -2.0788209115,
				"y": 3.2562649324,
				"z": 5.0527470365,
				"element": "H" 
			},
			{
				"x": -0.65040909,
				"y": 1.2639893525,
				"z": 4.5837379629,
				"element": "H" 
			},
			{
				"x": 1.1909393459,
				"y": -6.2748963375,
				"z": 4.8445652241,
				"element": "H" 
			}
		],
		 "valence_orbital": [ 
			{
				"type": "occ",
				"energy": -0.26944,
				"method": "rhf"
			},
			{
				"type": "occ",
				"energy": -0.25414,
				"method": "rhf"
			},
			{
				"type": "occ",
				"energy": -0.25171,
				"method": "rhf"
			},
			{
				"type": "occ",
				"energy": -0.23064,
				"method": "rhf"
			},
			{
				"type": "occ",
				"energy": -0.22395,
				"method": "rhf"
			},
			{
				"type": "unocc",
				"energy": -0.08918,
				"method": "rhf"
			},
			{
				"type": "unocc",
				"energy": -0.05634,
				"method": "rhf"
			},
			{
				"type": "unocc",
				"energy": -0.03984,
				"method": "rhf"
			},
			{
				"type": "unocc",
				"energy": -0.03313,
				"method": "rhf"
			},
			{
				"type": "unocc",
				"energy": -0.01834,
				"method": "rhf"
			}
		],
		"cosmo_sigma_profile": { 
			"-0.025": 0.0,
			"-0.024": 0.0,
			"-0.023": 0.0,
			"-0.022": 0.0,
			"-0.021": 0.0,
			"-0.02": 0.0,
			"-0.019": 0.0,
			"-0.018": 0.0,
			"-0.017": 0.0,
			"-0.016": 0.0,
			"-0.015": 0.0,
			"-0.014": 0.0,
			"-0.013": 0.0,
			"-0.012": 0.0,
			"-0.011": 0.0,
			"-0.01": 0.0,
			"-0.009": 0.984245894752,
			"-0.008": 3.92985995786,
			"-0.007": 15.0333059313,
			"-0.006": 31.0320582804,
			"-0.005": 33.6198418367,
			"-0.004": 30.5864675229,
			"-0.003": 31.3589710816,
			"-0.002": 30.9565102224,
			"-0.001": 36.4493975383,
			"0.0": 39.2339300802,
			"0.001": 44.5661783899,
			"0.002": 46.7570767347,
			"0.003": 48.69580315,
			"0.004": 31.2413186585,
			"0.005": 12.0085878838,
			"0.006": 5.97808701796,
			"0.007": 4.07553606345,
			"0.008": 5.49546155544,
			"0.009": 5.36713995807,
			"0.01": 8.83604868746,
			"0.011": 8.13383469016,
			"0.012": 0.861365297271,
			"0.013": 0.0,
			"0.014": 0.0,
			"0.015": 0.0,
			"0.016": 0.0,
			"0.017": 0.0,
			"0.018": 0.0,
			"0.019": 0.0,
			"0.02": 0.0,
			"0.021": 0.0,
			"0.022": 0.0,
			"0.023": 0.0,
			"0.024": 0.0,
			"0.025": 0.0
		}
	}
}
