{
	 "smiles": "OC(CC1=CC=C(Cl)C=C1)C(F)(F)F", 
	 "Tm": 340.15, 
	 "num_atms": 22, 
	 "gaussian": { 
		 "optdone": 1, 
		 "sigma_profile": "yes", 
		 "theory": "DFT", 
		 "functional": "B3LYP", 
		 "basiset": "6-31G**", 
		 "properties": { 
			 "R2extent": 4718.309, 
			 "electric_dipole_moment_norm": 1.77124388213, 
			 "electric_quadrupole_moment_norm": 16.0240566818, 
			 "total_energy": -1182.72174525, 
			 "HOMO_LUMO_gap": 0.22428, 
			 "cosmo_polarized_energy": -9.05, 
			 "cosmo_cavitation_energy": 29.15, 
			 "cosmo_dispersion_energy": -20.59, 
			 "cosmo_repulsion_energy": 1.57, 
			 "cosmo_total_nonelectrostatic_energy": 10.13, 
			 "SMD_solvation_energy": 5.53 
		},
		"coords": [
			{
				"x": -1.3648828351,
				"y": -2.23746584,
				"z": 0.497580822,
				"element": "O" 
			},
			{
				"x": -0.7716109751,
				"y": -1.8902740118,
				"z": -0.7344506821,
				"element": "C" 
			},
			{
				"x": 0.5439918731,
				"y": -1.1014482138,
				"z": -0.5584068132,
				"element": "C" 
			},
			{
				"x": 0.3220342881,
				"y": 0.1997165937,
				"z": 0.1781338724,
				"element": "C" 
			},
			{
				"x": 0.3355910645,
				"y": 0.2420791748,
				"z": 1.5806380914,
				"element": "C" 
			},
			{
				"x": 0.0866704757,
				"y": 1.4289281473,
				"z": 2.272498943,
				"element": "C" 
			},
			{
				"x": -0.1805871156,
				"y": 2.5909906041,
				"z": 1.551207117,
				"element": "C" 
			},
			{
				"x": -0.4906548004,
				"y": 4.0920717965,
				"z": 2.4097722902,
				"element": "Cl" 
			},
			{
				"x": -0.1995407258,
				"y": 2.580941411,
				"z": 0.1562417974,
				"element": "C" 
			},
			{
				"x": 0.0494934562,
				"y": 1.3862650423,
				"z": -0.5176106554,
				"element": "C" 
			},
			{
				"x": -0.5273995968,
				"y": -3.2032670846,
				"z": -1.4739150846,
				"element": "C" 
			},
			{
				"x": 0.3365747149,
				"y": -4.0001464462,
				"z": -0.8165869388,
				"element": "F" 
			},
			{
				"x": -1.6679892043,
				"y": -3.8885645761,
				"z": -1.6559177071,
				"element": "F" 
			},
			{
				"x": -0.0009396738,
				"y": -2.9486066977,
				"z": -2.6964093763,
				"element": "F" 
			},
			{
				"x": -1.5716055819,
				"y": -1.4159872639,
				"z": 0.9633718075,
				"element": "H" 
			},
			{
				"x": -1.4625183751,
				"y": -1.3121850173,
				"z": -1.3676579477,
				"element": "H" 
			},
			{
				"x": 0.9744288381,
				"y": -0.9132019944,
				"z": -1.5465695304,
				"element": "H" 
			},
			{
				"x": 1.2421891672,
				"y": -1.7391720663,
				"z": -0.0075537068,
				"element": "H" 
			},
			{
				"x": 0.5594796824,
				"y": -0.6616573489,
				"z": 2.1410584627,
				"element": "H" 
			},
			{
				"x": 0.1066301069,
				"y": 1.4533387147,
				"z": 3.3564650483,
				"element": "H" 
			},
			{
				"x": -0.4027729376,
				"y": 3.4948311828,
				"z": -0.3909792529,
				"element": "H" 
			},
			{
				"x": 0.0389181544,
				"y": 1.3808138937,
				"z": -1.6046105564,
				"element": "H" 
			}
		],
		 "valence_orbital": [ 
			{
				"type": "occ",
				"energy": -0.33877,
				"method": "rhf"
			},
			{
				"type": "occ",
				"energy": -0.32074,
				"method": "rhf"
			},
			{
				"type": "occ",
				"energy": -0.29466,
				"method": "rhf"
			},
			{
				"type": "occ",
				"energy": -0.27675,
				"method": "rhf"
			},
			{
				"type": "occ",
				"energy": -0.25404,
				"method": "rhf"
			},
			{
				"type": "unocc",
				"energy": -0.02976,
				"method": "rhf"
			},
			{
				"type": "unocc",
				"energy": -0.02764,
				"method": "rhf"
			},
			{
				"type": "unocc",
				"energy": 0.02053,
				"method": "rhf"
			},
			{
				"type": "unocc",
				"energy": 0.0715,
				"method": "rhf"
			},
			{
				"type": "unocc",
				"energy": 0.099,
				"method": "rhf"
			}
		],
		"cosmo_sigma_profile": { 
			"-0.025": 0.0,
			"-0.024": 0.0,
			"-0.023": 0.0,
			"-0.022": 0.0,
			"-0.021": 0.0,
			"-0.02": 0.0,
			"-0.019": 0.0,
			"-0.018": 0.0,
			"-0.017": 0.0,
			"-0.016": 0.0,
			"-0.015": 0.0,
			"-0.014": 0.440463929211,
			"-0.013": 0.735982563655,
			"-0.012": 0.979947886943,
			"-0.011": 0.856428537253,
			"-0.01": 0.839191360972,
			"-0.009": 0.929206899005,
			"-0.008": 1.8801714639,
			"-0.007": 9.20306192227,
			"-0.006": 14.5328394084,
			"-0.005": 15.5694275496,
			"-0.004": 12.7723998438,
			"-0.003": 9.99814296462,
			"-0.002": 14.1168498722,
			"-0.001": 11.9256421793,
			"0.0": 13.8918369717,
			"0.001": 16.5952760983,
			"0.002": 29.0412025261,
			"0.003": 42.4461213027,
			"0.004": 16.5379911977,
			"0.005": 9.00671797796,
			"0.006": 2.30830427841,
			"0.007": 2.11864521296,
			"0.008": 1.30066062481,
			"0.009": 1.4858453378,
			"0.01": 1.4554663848,
			"0.011": 2.2658282779,
			"0.012": 0.951187028461,
			"0.013": 0.0,
			"0.014": 0.0,
			"0.015": 0.0,
			"0.016": 0.0,
			"0.017": 0.0,
			"0.018": 0.0,
			"0.019": 0.0,
			"0.02": 0.0,
			"0.021": 0.0,
			"0.022": 0.0,
			"0.023": 0.0,
			"0.024": 0.0,
			"0.025": 0.0
		}
	}
}
