{
	 "smiles": "OC(=O)CSC1=C2C(SC=C2C2=CC=CC=C2)=NC=N1", 
	 "Tm": 460.15, 
	 "num_atms": 30, 
	 "gaussian": { 
		 "optdone": 1, 
		 "sigma_profile": "yes", 
		 "theory": "DFT", 
		 "functional": "B3LYP", 
		 "basiset": "6-31G**", 
		 "properties": { 
			 "R2extent": 7095.808, 
			 "electric_dipole_moment_norm": 6.17521740994, 
			 "electric_quadrupole_moment_norm": 17.4473908763, 
			 "total_energy": -1595.85372403, 
			 "HOMO_LUMO_gap": 0.16752, 
			 "cosmo_polarized_energy": -16.05, 
			 "cosmo_cavitation_energy": 37.56, 
			 "cosmo_dispersion_energy": -27.53, 
			 "cosmo_repulsion_energy": 2.02, 
			 "cosmo_total_nonelectrostatic_energy": 12.05, 
			 "SMD_solvation_energy": 5.31 
		},
		"coords": [
			{
				"x": 3.9639651701,
				"y": 0.6287870239,
				"z": 0.5010505415,
				"element": "O" 
			},
			{
				"x": 3.3133849575,
				"y": 1.6958896278,
				"z": 0.0263909159,
				"element": "C" 
			},
			{
				"x": 3.6872115351,
				"y": 2.8294466654,
				"z": 0.2160935614,
				"element": "O" 
			},
			{
				"x": 2.0640996371,
				"y": 1.3884666214,
				"z": -0.8097640954,
				"element": "C" 
			},
			{
				"x": 0.6323475699,
				"y": 0.6979745136,
				"z": 0.1212910506,
				"element": "S" 
			},
			{
				"x": 1.0062163332,
				"y": -1.0333858211,
				"z": 0.1680419244,
				"element": "C" 
			},
			{
				"x": 0.0131269342,
				"y": -1.9990113353,
				"z": 0.4799935194,
				"element": "C" 
			},
			{
				"x": 0.4499727639,
				"y": -3.3406059096,
				"z": 0.3422804563,
				"element": "C" 
			},
			{
				"x": -0.8491063307,
				"y": -4.4776183502,
				"z": 0.6134137777,
				"element": "S" 
			},
			{
				"x": -1.9455705095,
				"y": -3.1594432475,
				"z": 0.92936751,
				"element": "C" 
			},
			{
				"x": -1.3894121048,
				"y": -1.91377922,
				"z": 0.8416786932,
				"element": "C" 
			},
			{
				"x": -2.1747905798,
				"y": -0.6875951197,
				"z": 1.1399064824,
				"element": "C" 
			},
			{
				"x": -1.8254947192,
				"y": 0.1461391287,
				"z": 2.2148014172,
				"element": "C" 
			},
			{
				"x": -2.5995927391,
				"y": 1.2642486094,
				"z": 2.5224406188,
				"element": "C" 
			},
			{
				"x": -3.7355645236,
				"y": 1.561510498,
				"z": 1.7666933702,
				"element": "C" 
			},
			{
				"x": -4.0960464375,
				"y": 0.7337359806,
				"z": 0.7019409598,
				"element": "C" 
			},
			{
				"x": -3.3218269813,
				"y": -0.3839274071,
				"z": 0.390510079,
				"element": "C" 
			},
			{
				"x": 1.6844706393,
				"y": -3.7355834348,
				"z": 0.0152093808,
				"element": "N" 
			},
			{
				"x": 2.5338053605,
				"y": -2.7407217242,
				"z": -0.1837053545,
				"element": "C" 
			},
			{
				"x": 2.2532385785,
				"y": -1.4239395227,
				"z": -0.1280073063,
				"element": "N" 
			},
			{
				"x": 3.4817759682,
				"y": -0.1955930991,
				"z": 0.2302343006,
				"element": "H" 
			},
			{
				"x": 2.2976332097,
				"y": 0.7072623588,
				"z": -1.6325253961,
				"element": "H" 
			},
			{
				"x": 1.689975596,
				"y": 2.3309545562,
				"z": -1.2104565109,
				"element": "H" 
			},
			{
				"x": -2.9681213873,
				"y": -3.3772931559,
				"z": 1.2070378579,
				"element": "H" 
			},
			{
				"x": -0.9527145668,
				"y": -0.0896645202,
				"z": 2.8163918274,
				"element": "H" 
			},
			{
				"x": -2.3177572494,
				"y": 1.8996016955,
				"z": 3.3567898202,
				"element": "H" 
			},
			{
				"x": -4.3371251045,
				"y": 2.4330188158,
				"z": 2.0075497324,
				"element": "H" 
			},
			{
				"x": -4.9779289745,
				"y": 0.9598782257,
				"z": 0.1096582656,
				"element": "H" 
			},
			{
				"x": -3.5946542503,
				"y": -1.0216088752,
				"z": -0.445193241,
				"element": "H" 
			},
			{
				"x": 3.5620822052,
				"y": -2.9996435781,
				"z": -0.4224141586,
				"element": "H" 
			}
		],
		 "valence_orbital": [ 
			{
				"type": "occ",
				"energy": -0.28054,
				"method": "rhf"
			},
			{
				"type": "occ",
				"energy": -0.26848,
				"method": "rhf"
			},
			{
				"type": "occ",
				"energy": -0.26392,
				"method": "rhf"
			},
			{
				"type": "occ",
				"energy": -0.25388,
				"method": "rhf"
			},
			{
				"type": "occ",
				"energy": -0.23776,
				"method": "rhf"
			},
			{
				"type": "unocc",
				"energy": -0.07024,
				"method": "rhf"
			},
			{
				"type": "unocc",
				"energy": -0.05645,
				"method": "rhf"
			},
			{
				"type": "unocc",
				"energy": -0.02934,
				"method": "rhf"
			},
			{
				"type": "unocc",
				"energy": -0.02164,
				"method": "rhf"
			},
			{
				"type": "unocc",
				"energy": -0.00285,
				"method": "rhf"
			}
		],
		"cosmo_sigma_profile": { 
			"-0.025": 0.0,
			"-0.024": 0.0,
			"-0.023": 0.0,
			"-0.022": 0.0,
			"-0.021": 0.0,
			"-0.02": 0.0,
			"-0.019": 0.0,
			"-0.018": 0.0,
			"-0.017": 0.0,
			"-0.016": 0.0,
			"-0.015": 0.0,
			"-0.014": 0.0,
			"-0.013": 0.0,
			"-0.012": 0.0,
			"-0.011": 0.0,
			"-0.01": 0.850787528392,
			"-0.009": 5.26820429005,
			"-0.008": 8.31316345286,
			"-0.007": 9.34406050532,
			"-0.006": 16.6332631956,
			"-0.005": 20.4634682791,
			"-0.004": 22.4608035799,
			"-0.003": 22.3209534877,
			"-0.002": 24.8418711566,
			"-0.001": 25.0401068168,
			"0.0": 23.8994095656,
			"0.001": 23.9237233342,
			"0.002": 18.587324645,
			"0.003": 16.2926062936,
			"0.004": 14.49455264,
			"0.005": 15.3059726779,
			"0.006": 5.62490991096,
			"0.007": 3.18650106898,
			"0.008": 3.23379356432,
			"0.009": 3.83696455783,
			"0.01": 4.63583825769,
			"0.011": 7.06225504288,
			"0.012": 7.53001737145,
			"0.013": 3.07344461384,
			"0.014": 0.33091079443,
			"0.015": 0.0,
			"0.016": 0.0,
			"0.017": 0.0,
			"0.018": 0.0,
			"0.019": 0.0,
			"0.02": 0.0,
			"0.021": 0.0,
			"0.022": 0.0,
			"0.023": 0.0,
			"0.024": 0.0,
			"0.025": 0.0
		}
	}
}
