{
	 "smiles": "OC(=O)CNC(=O)C1=C(OC(F)F)C=CC=C1", 
	 "Tm": 340.15, 
	 "num_atms": 26, 
	 "gaussian": { 
		 "optdone": 1, 
		 "sigma_profile": "yes", 
		 "theory": "DFT", 
		 "functional": "B3LYP", 
		 "basiset": "6-31G**", 
		 "properties": { 
			 "R2extent": 5256.2871, 
			 "electric_dipole_moment_norm": 5.96408612698, 
			 "electric_quadrupole_moment_norm": 14.2226140291, 
			 "total_energy": -941.82945276, 
			 "HOMO_LUMO_gap": 0.21295, 
			 "cosmo_polarized_energy": -17.23, 
			 "cosmo_cavitation_energy": 32.47, 
			 "cosmo_dispersion_energy": -22.6, 
			 "cosmo_repulsion_energy": 1.75, 
			 "cosmo_total_nonelectrostatic_energy": 11.61, 
			 "SMD_solvation_energy": 7.76 
		},
		"coords": [
			{
				"x": -1.0212536701,
				"y": 1.5209073821,
				"z": 3.4608782063,
				"element": "O" 
			},
			{
				"x": -0.6584231611,
				"y": 0.2497684754,
				"z": 3.2063042192,
				"element": "C" 
			},
			{
				"x": -0.2052508449,
				"y": -0.5039233293,
				"z": 4.0379990569,
				"element": "O" 
			},
			{
				"x": -0.9141710636,
				"y": -0.1100769129,
				"z": 1.7534428895,
				"element": "C" 
			},
			{
				"x": -0.4705659402,
				"y": -1.4672779415,
				"z": 1.5155772451,
				"element": "N" 
			},
			{
				"x": -0.0270892212,
				"y": -1.9909900112,
				"z": 0.3319192355,
				"element": "C" 
			},
			{
				"x": 0.6017580172,
				"y": -3.0441227577,
				"z": 0.2921708462,
				"element": "O" 
			},
			{
				"x": -0.3997658017,
				"y": -1.2509614627,
				"z": -0.9260661571,
				"element": "C" 
			},
			{
				"x": 0.5886805471,
				"y": -0.8901207906,
				"z": -1.8545310697,
				"element": "C" 
			},
			{
				"x": 1.930587595,
				"y": -1.0369807249,
				"z": -1.5296483288,
				"element": "O" 
			},
			{
				"x": 2.5332916886,
				"y": -2.2201612518,
				"z": -1.9285907806,
				"element": "C" 
			},
			{
				"x": 3.7812312294,
				"y": -2.1865918011,
				"z": -1.4320527499,
				"element": "F" 
			},
			{
				"x": 2.6271465803,
				"y": -2.2560485149,
				"z": -3.2908008154,
				"element": "F" 
			},
			{
				"x": 0.2490765492,
				"y": -0.2946596683,
				"z": -3.0681065318,
				"element": "C" 
			},
			{
				"x": -1.0918884831,
				"y": -0.0615073504,
				"z": -3.3733150484,
				"element": "C" 
			},
			{
				"x": -2.0895253021,
				"y": -0.4172657591,
				"z": -2.4637720677,
				"element": "C" 
			},
			{
				"x": -1.7415090422,
				"y": -1.0023618521,
				"z": -1.2466222953,
				"element": "C" 
			},
			{
				"x": -0.8424867044,
				"y": 1.681631262,
				"z": 4.4029163458,
				"element": "H" 
			},
			{
				"x": -0.3913476393,
				"y": 0.6128022608,
				"z": 1.1174179538,
				"element": "H" 
			},
			{
				"x": -1.9875302953,
				"y": 0.0307420094,
				"z": 1.5662719357,
				"element": "H" 
			},
			{
				"x": -0.1668258637,
				"y": -1.9715407951,
				"z": 2.3430726344,
				"element": "H" 
			},
			{
				"x": 1.9954914967,
				"y": -3.1031077025,
				"z": -1.5765316465,
				"element": "H" 
			},
			{
				"x": 1.0442651402,
				"y": -0.0218034179,
				"z": -3.7524013925,
				"element": "H" 
			},
			{
				"x": -1.3552323918,
				"y": 0.3979031585,
				"z": -4.3212442869,
				"element": "H" 
			},
			{
				"x": -3.1343221748,
				"y": -0.2427179568,
				"z": -2.7014493449,
				"element": "H" 
			},
			{
				"x": -2.5164412442,
				"y": -1.2960345474,
				"z": -0.5442380531,
				"element": "H" 
			}
		],
		 "valence_orbital": [ 
			{
				"type": "occ",
				"energy": -0.30885,
				"method": "rhf"
			},
			{
				"type": "occ",
				"energy": -0.27721,
				"method": "rhf"
			},
			{
				"type": "occ",
				"energy": -0.26872,
				"method": "rhf"
			},
			{
				"type": "occ",
				"energy": -0.26414,
				"method": "rhf"
			},
			{
				"type": "occ",
				"energy": -0.25197,
				"method": "rhf"
			},
			{
				"type": "unocc",
				"energy": -0.03902,
				"method": "rhf"
			},
			{
				"type": "unocc",
				"energy": -0.02047,
				"method": "rhf"
			},
			{
				"type": "unocc",
				"energy": -0.01371,
				"method": "rhf"
			},
			{
				"type": "unocc",
				"energy": 0.02753,
				"method": "rhf"
			},
			{
				"type": "unocc",
				"energy": 0.05636,
				"method": "rhf"
			}
		],
		"cosmo_sigma_profile": { 
			"-0.025": 0.0,
			"-0.024": 0.0,
			"-0.023": 0.0,
			"-0.022": 0.0,
			"-0.021": 0.0,
			"-0.02": 0.0317250637625,
			"-0.019": 0.600756696955,
			"-0.018": 1.37607641391,
			"-0.017": 0.687493457724,
			"-0.016": 0.740133905116,
			"-0.015": 0.719391049807,
			"-0.014": 0.637165799838,
			"-0.013": 0.212773522344,
			"-0.012": 1.53573490466,
			"-0.011": 0.936308850834,
			"-0.01": 0.88838563895,
			"-0.009": 1.53002165958,
			"-0.008": 7.10523964815,
			"-0.007": 14.2793203312,
			"-0.006": 15.4651714364,
			"-0.005": 16.7225414575,
			"-0.004": 15.5606354799,
			"-0.003": 13.38253894,
			"-0.002": 12.2894140941,
			"-0.001": 10.8481072524,
			"0.0": 11.966701271,
			"0.001": 15.8072490243,
			"0.002": 18.8781215928,
			"0.003": 27.9617387567,
			"0.004": 25.3479692442,
			"0.005": 7.64585643253,
			"0.006": 5.05281108653,
			"0.007": 5.77770072708,
			"0.008": 5.35840514812,
			"0.009": 4.72650540634,
			"0.01": 4.87160752867,
			"0.011": 3.98371196893,
			"0.012": 3.16248433711,
			"0.013": 2.27476608728,
			"0.014": 0.548646103185,
			"0.015": 0.0,
			"0.016": 0.0,
			"0.017": 0.0,
			"0.018": 0.0,
			"0.019": 0.0,
			"0.02": 0.0,
			"0.021": 0.0,
			"0.022": 0.0,
			"0.023": 0.0,
			"0.024": 0.0,
			"0.025": 0.0
		}
	}
}
