{
	 "smiles": "CCCCCC1=CCCC1", 
	 "Tm": 190.15, 
	 "num_atms": 28, 
	 "gaussian": { 
		 "optdone": 1, 
		 "sigma_profile": "yes", 
		 "theory": "DFT", 
		 "functional": "B3LYP", 
		 "basiset": "6-31G**", 
		 "properties": { 
			 "R2extent": 2347.147, 
			 "electric_dipole_moment_norm": 0.211150562396, 
			 "electric_quadrupole_moment_norm": 1.28989891464, 
			 "total_energy": -391.91841365, 
			 "HOMO_LUMO_gap": 0.25733, 
			 "cosmo_polarized_energy": -1.29, 
			 "cosmo_cavitation_energy": 28.57, 
			 "cosmo_dispersion_energy": -20.14, 
			 "cosmo_repulsion_energy": 1.69, 
			 "cosmo_total_nonelectrostatic_energy": 10.11, 
			 "SMD_solvation_energy": 4.0 
		},
		"coords": [
			{
				"x": -4.0616162519,
				"y": -0.7511924253,
				"z": 0.6680933213,
				"element": "C" 
			},
			{
				"x": -2.8475457067,
				"y": -1.6680805516,
				"z": 0.4852486505,
				"element": "C" 
			},
			{
				"x": -1.7281963223,
				"y": -1.3851857898,
				"z": 1.4968073499,
				"element": "C" 
			},
			{
				"x": -0.5217483608,
				"y": -2.3325183491,
				"z": 1.3995023561,
				"element": "C" 
			},
			{
				"x": 0.3007128913,
				"y": -2.215453384,
				"z": 0.0951479497,
				"element": "C" 
			},
			{
				"x": 0.9331798118,
				"y": -0.8677985575,
				"z": -0.1164094219,
				"element": "C" 
			},
			{
				"x": 0.6954501341,
				"y": -0.0123602212,
				"z": -1.1198839434,
				"element": "C" 
			},
			{
				"x": 1.4899570723,
				"y": 1.267288035,
				"z": -1.0023268047,
				"element": "C" 
			},
			{
				"x": 2.539764423,
				"y": 0.9212544872,
				"z": 0.0864869107,
				"element": "C" 
			},
			{
				"x": 1.944647158,
				"y": -0.2838251951,
				"z": 0.8572708751,
				"element": "C" 
			},
			{
				"x": -4.4971657378,
				"y": -0.8646198872,
				"z": 1.6676232885,
				"element": "H" 
			},
			{
				"x": -4.8460773533,
				"y": -0.9722354196,
				"z": -0.0633062724,
				"element": "H" 
			},
			{
				"x": -3.7830682241,
				"y": 0.3021083858,
				"z": 0.54846089,
				"element": "H" 
			},
			{
				"x": -2.4631536687,
				"y": -1.5554777615,
				"z": -0.5361366779,
				"element": "H" 
			},
			{
				"x": -3.1626499508,
				"y": -2.71681331,
				"z": 0.5789643882,
				"element": "H" 
			},
			{
				"x": -1.3885921542,
				"y": -0.3477251643,
				"z": 1.3753596139,
				"element": "H" 
			},
			{
				"x": -2.1452008054,
				"y": -1.453715815,
				"z": 2.5109626439,
				"element": "H" 
			},
			{
				"x": -0.8671143692,
				"y": -3.3703072577,
				"z": 1.4993650667,
				"element": "H" 
			},
			{
				"x": 0.142774145,
				"y": -2.1520061936,
				"z": 2.2541086167,
				"element": "H" 
			},
			{
				"x": -0.328362808,
				"y": -2.4627213607,
				"z": -0.7676426628,
				"element": "H" 
			},
			{
				"x": 1.0913563563,
				"y": -2.9796009234,
				"z": 0.1284032149,
				"element": "H" 
			},
			{
				"x": -0.0138952014,
				"y": -0.1917517978,
				"z": -1.923979237,
				"element": "H" 
			},
			{
				"x": 0.84247997,
				"y": 2.102150532,
				"z": -0.6937832326,
				"element": "H" 
			},
			{
				"x": 1.9538425193,
				"y": 1.5748824267,
				"z": -1.9475995014,
				"element": "H" 
			},
			{
				"x": 3.4731164961,
				"y": 0.6146570479,
				"z": -0.3979670266,
				"element": "H" 
			},
			{
				"x": 2.7762642843,
				"y": 1.7687720748,
				"z": 0.7364832257,
				"element": "H" 
			},
			{
				"x": 2.709678203,
				"y": -1.0116580645,
				"z": 1.1574233929,
				"element": "H" 
			},
			{
				"x": 1.4464634501,
				"y": 0.0344344394,
				"z": 1.785123026,
				"element": "H" 
			}
		],
		 "valence_orbital": [ 
			{
				"type": "occ",
				"energy": -0.32412,
				"method": "rhf"
			},
			{
				"type": "occ",
				"energy": -0.31649,
				"method": "rhf"
			},
			{
				"type": "occ",
				"energy": -0.31215,
				"method": "rhf"
			},
			{
				"type": "occ",
				"energy": -0.30437,
				"method": "rhf"
			},
			{
				"type": "occ",
				"energy": -0.22346,
				"method": "rhf"
			},
			{
				"type": "unocc",
				"energy": 0.03387,
				"method": "rhf"
			},
			{
				"type": "unocc",
				"energy": 0.08421,
				"method": "rhf"
			},
			{
				"type": "unocc",
				"energy": 0.10546,
				"method": "rhf"
			},
			{
				"type": "unocc",
				"energy": 0.11074,
				"method": "rhf"
			},
			{
				"type": "unocc",
				"energy": 0.11667,
				"method": "rhf"
			}
		],
		"cosmo_sigma_profile": { 
			"-0.025": 0.0,
			"-0.024": 0.0,
			"-0.023": 0.0,
			"-0.022": 0.0,
			"-0.021": 0.0,
			"-0.02": 0.0,
			"-0.019": 0.0,
			"-0.018": 0.0,
			"-0.017": 0.0,
			"-0.016": 0.0,
			"-0.015": 0.0,
			"-0.014": 0.0,
			"-0.013": 0.0,
			"-0.012": 0.0,
			"-0.011": 0.0,
			"-0.01": 0.0,
			"-0.009": 0.0,
			"-0.008": 0.0,
			"-0.007": 0.0,
			"-0.006": 0.0,
			"-0.005": 0.0178472105365,
			"-0.004": 1.26804724493,
			"-0.003": 8.50951166684,
			"-0.002": 34.3193589618,
			"-0.001": 45.8097563369,
			"0.0": 50.9343600084,
			"0.001": 43.8566221597,
			"0.002": 20.819904499,
			"0.003": 5.22618450182,
			"0.004": 4.13666996194,
			"0.005": 2.76177942605,
			"0.006": 1.39317600844,
			"0.007": 0.852036657469,
			"0.008": 0.159787345084,
			"0.009": 0.0,
			"0.01": 0.0,
			"0.011": 0.0,
			"0.012": 0.0,
			"0.013": 0.0,
			"0.014": 0.0,
			"0.015": 0.0,
			"0.016": 0.0,
			"0.017": 0.0,
			"0.018": 0.0,
			"0.019": 0.0,
			"0.02": 0.0,
			"0.021": 0.0,
			"0.022": 0.0,
			"0.023": 0.0,
			"0.024": 0.0,
			"0.025": 0.0
		}
	}
}
