{
	 "smiles": "CC(C)OC1=CC(NC(=O)C2=CC=CC=C2C)=CC=C1", 
	 "Tm": 365.65, 
	 "num_atms": 39, 
	 "gaussian": { 
		 "optdone": 1, 
		 "sigma_profile": "yes", 
		 "theory": "DFT", 
		 "functional": "B3LYP", 
		 "basiset": "6-31G**", 
		 "properties": { 
			 "R2extent": 5606.3964, 
			 "electric_dipole_moment_norm": 2.89456166457, 
			 "electric_quadrupole_moment_norm": 17.9354250736, 
			 "total_energy": -864.482078077, 
			 "HOMO_LUMO_gap": 0.18142, 
			 "cosmo_polarized_energy": -13.22, 
			 "cosmo_cavitation_energy": 41.34, 
			 "cosmo_dispersion_energy": -27.17, 
			 "cosmo_repulsion_energy": 2.1, 
			 "cosmo_total_nonelectrostatic_energy": 16.28, 
			 "SMD_solvation_energy": 7.84 
		},
		"coords": [
			{
				"x": 1.0624674116,
				"y": -2.3472662394,
				"z": -0.0257323553,
				"element": "C" 
			},
			{
				"x": 2.1899327914,
				"y": -1.476830396,
				"z": -0.579115356,
				"element": "C" 
			},
			{
				"x": 3.3684283931,
				"y": -2.2970945883,
				"z": -1.0923295411,
				"element": "C" 
			},
			{
				"x": 2.7307092905,
				"y": -0.6317968162,
				"z": 0.4556793377,
				"element": "O" 
			},
			{
				"x": 2.1088195094,
				"y": 0.5227657926,
				"z": 0.8233554238,
				"element": "C" 
			},
			{
				"x": 0.9476029907,
				"y": 1.0319301961,
				"z": 0.2278495805,
				"element": "C" 
			},
			{
				"x": 0.4144542052,
				"y": 2.2498388942,
				"z": 0.6794779758,
				"element": "C" 
			},
			{
				"x": -0.7330827483,
				"y": 2.8318238796,
				"z": 0.0888608125,
				"element": "N" 
			},
			{
				"x": -1.817932906,
				"y": 2.2934558206,
				"z": -0.5776796537,
				"element": "C" 
			},
			{
				"x": -2.523461665,
				"y": 3.0226114368,
				"z": -1.2665016552,
				"element": "O" 
			},
			{
				"x": -2.1403876895,
				"y": 0.8306133716,
				"z": -0.4316988394,
				"element": "C" 
			},
			{
				"x": -2.3253769057,
				"y": 0.1170468715,
				"z": -1.6245174003,
				"element": "C" 
			},
			{
				"x": -2.6967925951,
				"y": -1.2249959195,
				"z": -1.6058066955,
				"element": "C" 
			},
			{
				"x": -2.9237685105,
				"y": -1.8534964957,
				"z": -0.380901081,
				"element": "C" 
			},
			{
				"x": -2.7827061365,
				"y": -1.1339988675,
				"z": 0.8057679429,
				"element": "C" 
			},
			{
				"x": -2.3905630486,
				"y": 0.2124032631,
				"z": 0.8122242857,
				"element": "C" 
			},
			{
				"x": -2.2903279597,
				"y": 0.9516253741,
				"z": 2.1270816096,
				"element": "C" 
			},
			{
				"x": 1.0489392065,
				"y": 2.9617015966,
				"z": 1.7048089837,
				"element": "C" 
			},
			{
				"x": 2.2133547689,
				"y": 2.4478779736,
				"z": 2.2778062335,
				"element": "C" 
			},
			{
				"x": 2.7426825537,
				"y": 1.2355635384,
				"z": 1.8543523536,
				"element": "C" 
			},
			{
				"x": 0.2425465212,
				"y": -1.7456577596,
				"z": 0.3732461899,
				"element": "H" 
			},
			{
				"x": 0.6555777546,
				"y": -2.9883735873,
				"z": -0.8142998433,
				"element": "H" 
			},
			{
				"x": 1.4450085185,
				"y": -2.9860918496,
				"z": 0.7768624852,
				"element": "H" 
			},
			{
				"x": 1.8153717178,
				"y": -0.8458939244,
				"z": -1.3959356524,
				"element": "H" 
			},
			{
				"x": 3.0455848063,
				"y": -2.963517764,
				"z": -1.8979378013,
				"element": "H" 
			},
			{
				"x": 4.1565877655,
				"y": -1.6430741348,
				"z": -1.4748280898,
				"element": "H" 
			},
			{
				"x": 3.7877091849,
				"y": -2.9064756876,
				"z": -0.2856307841,
				"element": "H" 
			},
			{
				"x": 0.4599237974,
				"y": 0.5093908105,
				"z": -0.5821981332,
				"element": "H" 
			},
			{
				"x": -0.7198814949,
				"y": 3.8414352511,
				"z": 0.0033863119,
				"element": "H" 
			},
			{
				"x": -2.1801257508,
				"y": 0.6352910445,
				"z": -2.5673058888,
				"element": "H" 
			},
			{
				"x": -2.8246791974,
				"y": -1.7683889177,
				"z": -2.5372664924,
				"element": "H" 
			},
			{
				"x": -3.2271727768,
				"y": -2.8960957171,
				"z": -0.3474288573,
				"element": "H" 
			},
			{
				"x": -2.9942479434,
				"y": -1.6204043532,
				"z": 1.754656079,
				"element": "H" 
			},
			{
				"x": -2.802982559,
				"y": 0.3957193087,
				"z": 2.9166397058,
				"element": "H" 
			},
			{
				"x": -1.248605419,
				"y": 1.0872432702,
				"z": 2.4370343583,
				"element": "H" 
			},
			{
				"x": -2.7415413837,
				"y": 1.9464815233,
				"z": 2.0681220099,
				"element": "H" 
			},
			{
				"x": 0.6266835183,
				"y": 3.9001435362,
				"z": 2.0512902284,
				"element": "H" 
			},
			{
				"x": 2.7081032486,
				"y": 3.0006160683,
				"z": 3.0711547911,
				"element": "H" 
			},
			{
				"x": 3.6458487359,
				"y": 0.8230741965,
				"z": 2.290357421,
				"element": "H" 
			}
		],
		 "valence_orbital": [ 
			{
				"type": "occ",
				"energy": -0.2664,
				"method": "rhf"
			},
			{
				"type": "occ",
				"energy": -0.24892,
				"method": "rhf"
			},
			{
				"type": "occ",
				"energy": -0.24196,
				"method": "rhf"
			},
			{
				"type": "occ",
				"energy": -0.23379,
				"method": "rhf"
			},
			{
				"type": "occ",
				"energy": -0.21307,
				"method": "rhf"
			},
			{
				"type": "unocc",
				"energy": -0.03165,
				"method": "rhf"
			},
			{
				"type": "unocc",
				"energy": -0.0084,
				"method": "rhf"
			},
			{
				"type": "unocc",
				"energy": -0.00161,
				"method": "rhf"
			},
			{
				"type": "unocc",
				"energy": 0.0098,
				"method": "rhf"
			},
			{
				"type": "unocc",
				"energy": 0.04683,
				"method": "rhf"
			}
		],
		"cosmo_sigma_profile": { 
			"-0.025": 0.0,
			"-0.024": 0.0,
			"-0.023": 0.0,
			"-0.022": 0.0,
			"-0.021": 0.0,
			"-0.02": 0.0,
			"-0.019": 0.0,
			"-0.018": 0.0,
			"-0.017": 0.0,
			"-0.016": 0.0,
			"-0.015": 0.0852901420492,
			"-0.014": 0.895358576599,
			"-0.013": 0.727616949104,
			"-0.012": 0.896113185177,
			"-0.011": 1.26222555025,
			"-0.01": 0.916935524619,
			"-0.009": 0.976168564788,
			"-0.008": 1.05464479408,
			"-0.007": 1.74584601678,
			"-0.006": 11.2711305285,
			"-0.005": 20.7235232084,
			"-0.004": 30.5369674988,
			"-0.003": 31.457717162,
			"-0.002": 27.9927378936,
			"-0.001": 27.547552738,
			"0.0": 34.9751965062,
			"0.001": 32.4483786364,
			"0.002": 23.0861550985,
			"0.003": 17.5332378595,
			"0.004": 16.7988652438,
			"0.005": 15.6850462916,
			"0.006": 4.97632096434,
			"0.007": 2.41773886895,
			"0.008": 3.20111442173,
			"0.009": 2.68952116051,
			"0.01": 2.53783155378,
			"0.011": 1.95655147038,
			"0.012": 2.70845748977,
			"0.013": 5.53185758567,
			"0.014": 2.2388883352,
			"0.015": 0.213213223873,
			"0.016": 0.0,
			"0.017": 0.0,
			"0.018": 0.0,
			"0.019": 0.0,
			"0.02": 0.0,
			"0.021": 0.0,
			"0.022": 0.0,
			"0.023": 0.0,
			"0.024": 0.0,
			"0.025": 0.0
		}
	}
}
