{
	 "smiles": "CC1=CC(Br)=CC=C1O", 
	 "Tm": 337.45, 
	 "num_atms": 16, 
	 "gaussian": { 
		 "optdone": 1, 
		 "sigma_profile": "yes", 
		 "theory": "DFT", 
		 "functional": "B3LYP", 
		 "basiset": "6-31G**", 
		 "properties": { 
			 "R2extent": 4358.6831, 
			 "electric_dipole_moment_norm": 2.80841754196, 
			 "electric_quadrupole_moment_norm": 5.44763370556, 
			 "total_energy": -2917.594005, 
			 "HOMO_LUMO_gap": 0.2075, 
			 "cosmo_polarized_energy": -8.06, 
			 "cosmo_cavitation_energy": 21.93, 
			 "cosmo_dispersion_energy": -16.84, 
			 "cosmo_repulsion_energy": 1.37, 
			 "cosmo_total_nonelectrostatic_energy": 6.46, 
			 "SMD_solvation_energy": 2.88 
		},
		"coords": [
			{
				"x": -0.4857596912,
				"y": -0.3999095717,
				"z": -0.7288219532,
				"element": "C" 
			},
			{
				"x": 0.3172265171,
				"y": 0.7759821996,
				"z": -0.2248981372,
				"element": "C" 
			},
			{
				"x": -0.2712392153,
				"y": 2.0326465955,
				"z": -0.048008722,
				"element": "C" 
			},
			{
				"x": 0.4788209677,
				"y": 3.1095015846,
				"z": 0.4171042831,
				"element": "C" 
			},
			{
				"x": -0.3617267465,
				"y": 4.8134983116,
				"z": 0.6462660669,
				"element": "Br" 
			},
			{
				"x": 1.8313519595,
				"y": 2.9608035484,
				"z": 0.7168788623,
				"element": "C" 
			},
			{
				"x": 2.4304536268,
				"y": 1.7157936711,
				"z": 0.545669831,
				"element": "C" 
			},
			{
				"x": 1.6835862732,
				"y": 0.6306466806,
				"z": 0.0791842405,
				"element": "C" 
			},
			{
				"x": 2.3423761163,
				"y": -0.5589558852,
				"z": -0.0628727014,
				"element": "O" 
			},
			{
				"x": -1.523230506,
				"y": -0.1130735887,
				"z": -0.9140799224,
				"element": "H" 
			},
			{
				"x": -0.5042469463,
				"y": -1.2258515343,
				"z": -0.0046886235,
				"element": "H" 
			},
			{
				"x": -0.0873512612,
				"y": -0.795542038,
				"z": -1.6730867377,
				"element": "H" 
			},
			{
				"x": -1.3233570605,
				"y": 2.1664702366,
				"z": -0.2765043684,
				"element": "H" 
			},
			{
				"x": 2.4096334285,
				"y": 3.8031830316,
				"z": 1.0786160479,
				"element": "H" 
			},
			{
				"x": 3.4814162857,
				"y": 1.5669348115,
				"z": 0.7700234917,
				"element": "H" 
			},
			{
				"x": 1.7316462521,
				"y": -1.2314280532,
				"z": -0.3889816578,
				"element": "H" 
			}
		],
		 "valence_orbital": [ 
			{
				"type": "occ",
				"energy": -0.34774,
				"method": "rhf"
			},
			{
				"type": "occ",
				"energy": -0.2898,
				"method": "rhf"
			},
			{
				"type": "occ",
				"energy": -0.28145,
				"method": "rhf"
			},
			{
				"type": "occ",
				"energy": -0.25664,
				"method": "rhf"
			},
			{
				"type": "occ",
				"energy": -0.21782,
				"method": "rhf"
			},
			{
				"type": "unocc",
				"energy": -0.01032,
				"method": "rhf"
			},
			{
				"type": "unocc",
				"energy": 0.00169,
				"method": "rhf"
			},
			{
				"type": "unocc",
				"energy": 0.01246,
				"method": "rhf"
			},
			{
				"type": "unocc",
				"energy": 0.05753,
				"method": "rhf"
			},
			{
				"type": "unocc",
				"energy": 0.12118,
				"method": "rhf"
			}
		],
		"cosmo_sigma_profile": { 
			"-0.025": 0.0,
			"-0.024": 0.0,
			"-0.023": 0.0,
			"-0.022": 0.0,
			"-0.021": 0.0,
			"-0.02": 0.0,
			"-0.019": 0.0,
			"-0.018": 0.0,
			"-0.017": 0.0342253997092,
			"-0.016": 0.688777171601,
			"-0.015": 0.776160988055,
			"-0.014": 0.692523111916,
			"-0.013": 1.33046805864,
			"-0.012": 0.928113752245,
			"-0.011": 1.27083412859,
			"-0.01": 1.52697072403,
			"-0.009": 0.90490339997,
			"-0.008": 1.53984646165,
			"-0.007": 3.7758066921,
			"-0.006": 8.83021860934,
			"-0.005": 9.59951624073,
			"-0.004": 10.8217850682,
			"-0.003": 10.5192577041,
			"-0.002": 11.542330367,
			"-0.001": 13.3903158289,
			"0.0": 9.9954674098,
			"0.001": 10.4929170673,
			"0.002": 12.5985864854,
			"0.003": 19.2045640717,
			"0.004": 21.4903790407,
			"0.005": 15.1137340839,
			"0.006": 2.88025449742,
			"0.007": 1.37532210554,
			"0.008": 1.4406177734,
			"0.009": 1.34261084052,
			"0.01": 1.66742052945,
			"0.011": 1.93046964693,
			"0.012": 0.174695430205,
			"0.013": 0.0,
			"0.014": 0.0,
			"0.015": 0.0,
			"0.016": 0.0,
			"0.017": 0.0,
			"0.018": 0.0,
			"0.019": 0.0,
			"0.02": 0.0,
			"0.021": 0.0,
			"0.022": 0.0,
			"0.023": 0.0,
			"0.024": 0.0,
			"0.025": 0.0
		}
	}
}
