{
	 "smiles": "CC(=O)C(CC1=CC=CC=C1)=CNC1=CC=CC=C1", 
	 "Tm": 405.15, 
	 "num_atms": 36, 
	 "gaussian": { 
		 "optdone": 1, 
		 "sigma_profile": "yes", 
		 "theory": "DFT", 
		 "functional": "B3LYP", 
		 "basiset": "6-31G**", 
		 "properties": { 
			 "R2extent": 6610.3368, 
			 "electric_dipole_moment_norm": 3.84225792341, 
			 "electric_quadrupole_moment_norm": 11.8932970887, 
			 "total_energy": -788.031394563, 
			 "HOMO_LUMO_gap": 0.16063, 
			 "cosmo_polarized_energy": -13.56, 
			 "cosmo_cavitation_energy": 39.76, 
			 "cosmo_dispersion_energy": -27.04, 
			 "cosmo_repulsion_energy": 2.09, 
			 "cosmo_total_nonelectrostatic_energy": 14.8, 
			 "SMD_solvation_energy": 7.17 
		},
		"coords": [
			{
				"x": 2.6109393641,
				"y": 2.2836937882,
				"z": 3.5325310234,
				"element": "C" 
			},
			{
				"x": 2.7766418926,
				"y": 1.4618856431,
				"z": 2.2582785342,
				"element": "C" 
			},
			{
				"x": 3.7543795218,
				"y": 0.7232045742,
				"z": 2.1455236721,
				"element": "O" 
			},
			{
				"x": 1.7582068772,
				"y": 1.584847475,
				"z": 1.1924751398,
				"element": "C" 
			},
			{
				"x": 0.5521812719,
				"y": 2.500654015,
				"z": 1.2970459432,
				"element": "C" 
			},
			{
				"x": -0.8105299686,
				"y": 1.8177103558,
				"z": 1.2042711744,
				"element": "C" 
			},
			{
				"x": -1.8397079239,
				"y": 2.3894738817,
				"z": 0.4426625615,
				"element": "C" 
			},
			{
				"x": -3.1017269633,
				"y": 1.7925666635,
				"z": 0.3740748535,
				"element": "C" 
			},
			{
				"x": -3.3535956469,
				"y": 0.6102040848,
				"z": 1.0695971356,
				"element": "C" 
			},
			{
				"x": -2.3349449611,
				"y": 0.0285125049,
				"z": 1.8292726756,
				"element": "C" 
			},
			{
				"x": -1.0758708185,
				"y": 0.624286308,
				"z": 1.8922261942,
				"element": "C" 
			},
			{
				"x": 1.998092993,
				"y": 0.8523187684,
				"z": 0.0663879095,
				"element": "C" 
			},
			{
				"x": 1.189304892,
				"y": 0.7895045682,
				"z": -1.0268018515,
				"element": "N" 
			},
			{
				"x": 1.442617886,
				"y": 0.1006592035,
				"z": -2.2245360596,
				"element": "C" 
			},
			{
				"x": 2.7266081419,
				"y": -0.3371872634,
				"z": -2.5847117363,
				"element": "C" 
			},
			{
				"x": 2.9141259659,
				"y": -1.0184843298,
				"z": -3.7863685429,
				"element": "C" 
			},
			{
				"x": 1.8447524963,
				"y": -1.2593834125,
				"z": -4.6507583376,
				"element": "C" 
			},
			{
				"x": 0.5709173909,
				"y": -0.8084721438,
				"z": -4.2980149704,
				"element": "C" 
			},
			{
				"x": 0.36707016,
				"y": -0.1371522852,
				"z": -3.09563237,
				"element": "C" 
			},
			{
				"x": 1.664914166,
				"y": 2.0597209199,
				"z": 4.0388417085,
				"element": "H" 
			},
			{
				"x": 3.4397166313,
				"y": 2.0475969826,
				"z": 4.200706734,
				"element": "H" 
			},
			{
				"x": 2.6181031946,
				"y": 3.3590321793,
				"z": 3.3195031943,
				"element": "H" 
			},
			{
				"x": 0.6020150258,
				"y": 3.2668792653,
				"z": 0.5095590186,
				"element": "H" 
			},
			{
				"x": 0.5933988395,
				"y": 3.0556451123,
				"z": 2.2393266575,
				"element": "H" 
			},
			{
				"x": -1.6529689684,
				"y": 3.3166028301,
				"z": -0.0954504357,
				"element": "H" 
			},
			{
				"x": -3.8844040578,
				"y": 2.2528410961,
				"z": -0.2226327613,
				"element": "H" 
			},
			{
				"x": -4.332495885,
				"y": 0.1424992374,
				"z": 1.0180079303,
				"element": "H" 
			},
			{
				"x": -2.5206604595,
				"y": -0.8950622147,
				"z": 2.3704921715,
				"element": "H" 
			},
			{
				"x": -0.2833730609,
				"y": 0.1557938911,
				"z": 2.4691453761,
				"element": "H" 
			},
			{
				"x": 2.904836244,
				"y": 0.2574380753,
				"z": 0.0391513664,
				"element": "H" 
			},
			{
				"x": 0.2601742633,
				"y": 1.1809713226,
				"z": -0.9338404648,
				"element": "H" 
			},
			{
				"x": 3.5781406181,
				"y": -0.1345822809,
				"z": -1.944841551,
				"element": "H" 
			},
			{
				"x": 3.91303103,
				"y": -1.3528766156,
				"z": -4.0514930333,
				"element": "H" 
			},
			{
				"x": 2.0024370582,
				"y": -1.7855056106,
				"z": -5.5868986989,
				"element": "H" 
			},
			{
				"x": -0.2733317138,
				"y": -0.9844182829,
				"z": -4.9584378797,
				"element": "H" 
			},
			{
				"x": -0.6295954967,
				"y": 0.1982816933,
				"z": -2.8188622813,
				"element": "H" 
			}
		],
		 "valence_orbital": [ 
			{
				"type": "occ",
				"energy": -0.25661,
				"method": "rhf"
			},
			{
				"type": "occ",
				"energy": -0.25601,
				"method": "rhf"
			},
			{
				"type": "occ",
				"energy": -0.24742,
				"method": "rhf"
			},
			{
				"type": "occ",
				"energy": -0.22772,
				"method": "rhf"
			},
			{
				"type": "occ",
				"energy": -0.19752,
				"method": "rhf"
			},
			{
				"type": "unocc",
				"energy": -0.03689,
				"method": "rhf"
			},
			{
				"type": "unocc",
				"energy": -0.01066,
				"method": "rhf"
			},
			{
				"type": "unocc",
				"energy": -0.00829,
				"method": "rhf"
			},
			{
				"type": "unocc",
				"energy": -0.00599,
				"method": "rhf"
			},
			{
				"type": "unocc",
				"energy": 0.01764,
				"method": "rhf"
			}
		],
		"cosmo_sigma_profile": { 
			"-0.025": 0.0,
			"-0.024": 0.0,
			"-0.023": 0.0,
			"-0.022": 0.0,
			"-0.021": 0.0,
			"-0.02": 0.0,
			"-0.019": 0.0,
			"-0.018": 0.0,
			"-0.017": 0.0,
			"-0.016": 0.0,
			"-0.015": 0.0,
			"-0.014": 0.0,
			"-0.013": 0.0,
			"-0.012": 0.0,
			"-0.011": 0.177141440319,
			"-0.01": 0.807206411157,
			"-0.009": 1.72203014155,
			"-0.008": 2.72511960814,
			"-0.007": 4.0761499529,
			"-0.006": 12.052805493,
			"-0.005": 30.4610001429,
			"-0.004": 33.9772429749,
			"-0.003": 29.6276743201,
			"-0.002": 23.4560558125,
			"-0.001": 24.632328224,
			"0.0": 21.6231782986,
			"0.001": 18.9022627328,
			"0.002": 21.8191262969,
			"0.003": 20.7680762629,
			"0.004": 18.9297520396,
			"0.005": 18.8957488185,
			"0.006": 13.3929429558,
			"0.007": 1.47147394464,
			"0.008": 1.71005926244,
			"0.009": 1.70726594908,
			"0.01": 1.79516475034,
			"0.011": 1.12808169013,
			"0.012": 2.45545618825,
			"0.013": 3.28445739472,
			"0.014": 3.89228169799,
			"0.015": 1.30759364631,
			"0.016": 0.0507908656322,
			"0.017": 0.0,
			"0.018": 0.0,
			"0.019": 0.0,
			"0.02": 0.0,
			"0.021": 0.0,
			"0.022": 0.0,
			"0.023": 0.0,
			"0.024": 0.0,
			"0.025": 0.0
		}
	}
}
