{
	 "smiles": "CC1=CC=CC(C(O)=O)=C1I", 
	 "Tm": 424.65, 
	 "num_atms": 18, 
	 "gaussian": { 
		 "optdone": 1, 
		 "sigma_profile": "no", 
		 "theory": "DFT", 
		 "functional": "B3LYP", 
		 "basiset": "6-31G**", 
		 "properties": { 
			 "R2extent": 3196.6017, 
			 "electric_dipole_moment_norm": 2.90127622608, 
			 "electric_quadrupole_moment_norm": 9.21406270708, 
			 "total_energy": -470.916864166, 
			 "HOMO_LUMO_gap": 0.18686, 
			 "cosmo_polarized_energy": -73917.46, 
			 "cosmo_cavitation_energy": 24.84, 
			 "cosmo_dispersion_energy": -19.72, 
			 "cosmo_repulsion_energy": 1.53, 
			 "cosmo_total_nonelectrostatic_energy": 6.65, 
			 "SMD_solvation_energy": 4.71 
		},
		"coords": [
			{
				"x": 0.0350300742,
				"y": -0.3293381104,
				"z": -1.2147007869,
				"element": "C" 
			},
			{
				"x": -0.620287615,
				"y": -0.7647388566,
				"z": 0.0732328417,
				"element": "C" 
			},
			{
				"x": -0.6839265918,
				"y": -2.1348142557,
				"z": 0.367562588,
				"element": "C" 
			},
			{
				"x": -1.2893961566,
				"y": -2.6107895335,
				"z": 1.5261188468,
				"element": "C" 
			},
			{
				"x": -1.8443014594,
				"y": -1.7108824501,
				"z": 2.4257005552,
				"element": "C" 
			},
			{
				"x": -1.788197528,
				"y": -0.3274343411,
				"z": 2.1859273527,
				"element": "C" 
			},
			{
				"x": -2.3425116398,
				"y": 0.5728699555,
				"z": 3.2437460373,
				"element": "C" 
			},
			{
				"x": -3.2967363661,
				"y": -0.0479404514,
				"z": 3.9873880994,
				"element": "O" 
			},
			{
				"x": -2.0014210642,
				"y": 1.7126093211,
				"z": 3.4731580208,
				"element": "O" 
			},
			{
				"x": -1.1770877505,
				"y": 0.136746973,
				"z": 1.0024715357,
				"element": "C" 
			},
			{
				"x": -1.1334832863,
				"y": 2.2074956831,
				"z": 0.5026943794,
				"element": "I" 
			},
			{
				"x": 0.8725544527,
				"y": 0.3508917092,
				"z": -1.0294815671,
				"element": "H" 
			},
			{
				"x": -0.6681133953,
				"y": 0.2038023327,
				"z": -1.8628918071,
				"element": "H" 
			},
			{
				"x": 0.4131365514,
				"y": -1.1967802484,
				"z": -1.761499835,
				"element": "H" 
			},
			{
				"x": -0.2492668535,
				"y": -2.8357133688,
				"z": -0.3397837479,
				"element": "H" 
			},
			{
				"x": -1.3290089789,
				"y": -3.6771372497,
				"z": 1.725247486,
				"element": "H" 
			},
			{
				"x": -2.3211339312,
				"y": -2.0609565908,
				"z": 3.3328912547,
				"element": "H" 
			},
			{
				"x": -3.5521484618,
				"y": 0.5973094819,
				"z": 4.6673187462,
				"element": "H" 
			}
		],
		 "valence_orbital": [ 
			{
				"type": "occ",
				"energy": -0.29956,
				"method": "rhf"
			},
			{
				"type": "occ",
				"energy": -0.28694,
				"method": "rhf"
			},
			{
				"type": "occ",
				"energy": -0.26348,
				"method": "rhf"
			},
			{
				"type": "occ",
				"energy": -0.24703,
				"method": "rhf"
			},
			{
				"type": "occ",
				"energy": -0.23984,
				"method": "rhf"
			},
			{
				"type": "unocc",
				"energy": -0.05298,
				"method": "rhf"
			},
			{
				"type": "unocc",
				"energy": -0.03505,
				"method": "rhf"
			},
			{
				"type": "unocc",
				"energy": -0.02013,
				"method": "rhf"
			},
			{
				"type": "unocc",
				"energy": 0.04249,
				"method": "rhf"
			},
			{
				"type": "unocc",
				"energy": 0.04779,
				"method": "rhf"
			}
		],
		"cosmo_sigma_profile": { 
			"0.0": 0.0,
			"0.0": 0.0,
			"0.0": 0.0,
			"0.0": 0.0,
			"0.0": 0.0,
			"0.0": 0.0,
			"0.0": 0.0,
			"0.0": 0.0,
			"0.0": 0.0,
			"0.0": 0.0,
			"0.0": 0.0,
			"0.0": 0.0,
			"0.0": 0.0,
			"0.0": 0.0,
			"0.0": 0.0,
			"0.0": 0.0,
			"0.0": 0.0,
			"0.0": 0.0,
			"0.0": 0.0,
			"0.0": 0.0,
			"0.0": 0.0,
			"0.0": 0.0,
			"0.0": 0.0,
			"0.0": 0.0,
			"0.0": 0.0,
			"0.0": 0.0,
			"0.0": 0.0,
			"0.0": 0.0,
			"0.0": 0.0,
			"0.0": 0.0,
			"0.0": 0.0,
			"0.0": 0.0,
			"0.0": 0.0,
			"0.0": 0.0,
			"0.0": 0.0,
			"0.0": 0.0,
			"0.0": 0.0,
			"0.0": 0.0,
			"0.0": 0.0,
			"0.0": 0.0,
			"0.0": 0.0,
			"0.0": 0.0,
			"0.0": 0.0,
			"0.0": 0.0,
			"0.0": 0.0,
			"0.0": 0.0,
			"0.0": 0.0,
			"0.0": 0.0,
			"0.0": 0.0,
			"0.0": 0.0,
			"0.0": 0.0
		}
	}
}
