{
	 "smiles": "[O-][N+](=O)C1=CC=CC=C1C(C=O)C=O", 
	 "Tm": 393.15, 
	 "num_atms": 21, 
	 "gaussian": { 
		 "optdone": 1, 
		 "sigma_profile": "yes", 
		 "theory": "DFT", 
		 "functional": "B3LYP", 
		 "basiset": "6-31G**", 
		 "properties": { 
			 "R2extent": 2659.8934, 
			 "electric_dipole_moment_norm": 2.73123316837, 
			 "electric_quadrupole_moment_norm": 14.4771689902, 
			 "total_energy": -702.682090379, 
			 "HOMO_LUMO_gap": 0.16021, 
			 "cosmo_polarized_energy": -13.15, 
			 "cosmo_cavitation_energy": 26.64, 
			 "cosmo_dispersion_energy": -18.76, 
			 "cosmo_repulsion_energy": 1.48, 
			 "cosmo_total_nonelectrostatic_energy": 9.36, 
			 "SMD_solvation_energy": 8.6 
		},
		"coords": [
			{
				"x": -1.4385802436,
				"y": 1.6374757325,
				"z": -2.0649224803,
				"element": "O" 
			},
			{
				"x": -0.2760888375,
				"y": 1.2546810833,
				"z": -2.2423926131,
				"element": "N" 
			},
			{
				"x": 0.4392075626,
				"y": 1.6331403713,
				"z": -3.1653917035,
				"element": "O" 
			},
			{
				"x": 0.2783149091,
				"y": 0.2577300134,
				"z": -1.3108630588,
				"element": "C" 
			},
			{
				"x": 1.2582554715,
				"y": -0.5840533969,
				"z": -1.8420360729,
				"element": "C" 
			},
			{
				"x": 1.7971876121,
				"y": -1.5936186224,
				"z": -1.0537311192,
				"element": "C" 
			},
			{
				"x": 1.3598765462,
				"y": -1.741874946,
				"z": 0.2632459405,
				"element": "C" 
			},
			{
				"x": 0.4011173371,
				"y": -0.8782229053,
				"z": 0.7893226924,
				"element": "C" 
			},
			{
				"x": -0.1625901233,
				"y": 0.1539479058,
				"z": 0.0231043207,
				"element": "C" 
			},
			{
				"x": -1.1911418242,
				"y": 1.0653230768,
				"z": 0.6681335413,
				"element": "C" 
			},
			{
				"x": -2.562522545,
				"y": 0.3733266941,
				"z": 0.6650400686,
				"element": "C" 
			},
			{
				"x": -3.1602925929,
				"y": 0.0743862441,
				"z": 1.6733440291,
				"element": "O" 
			},
			{
				"x": -0.8593978529,
				"y": 1.5542782765,
				"z": 2.0775786346,
				"element": "C" 
			},
			{
				"x": 0.1669832469,
				"y": 1.341670211,
				"z": 2.6786607772,
				"element": "O" 
			},
			{
				"x": 1.5685339012,
				"y": -0.4367535139,
				"z": -2.8689123274,
				"element": "H" 
			},
			{
				"x": 2.5468564938,
				"y": -2.2605532854,
				"z": -1.4667497061,
				"element": "H" 
			},
			{
				"x": 1.7679911709,
				"y": -2.5298409671,
				"z": 0.888582212,
				"element": "H" 
			},
			{
				"x": 0.0932518312,
				"y": -0.9891768974,
				"z": 1.8213211853,
				"element": "H" 
			},
			{
				"x": -1.3261311891,
				"y": 1.965366335,
				"z": 0.0550711129,
				"element": "H" 
			},
			{
				"x": -2.9581551905,
				"y": 0.1572689672,
				"z": -0.3462279528,
				"element": "H" 
			},
			{
				"x": -1.6649756836,
				"y": 2.1781996233,
				"z": 2.5152225195,
				"element": "H" 
			}
		],
		 "valence_orbital": [ 
			{
				"type": "occ",
				"energy": -0.31477,
				"method": "rhf"
			},
			{
				"type": "occ",
				"energy": -0.29744,
				"method": "rhf"
			},
			{
				"type": "occ",
				"energy": -0.28667,
				"method": "rhf"
			},
			{
				"type": "occ",
				"energy": -0.27529,
				"method": "rhf"
			},
			{
				"type": "occ",
				"energy": -0.26215,
				"method": "rhf"
			},
			{
				"type": "unocc",
				"energy": -0.10194,
				"method": "rhf"
			},
			{
				"type": "unocc",
				"energy": -0.05381,
				"method": "rhf"
			},
			{
				"type": "unocc",
				"energy": -0.03897,
				"method": "rhf"
			},
			{
				"type": "unocc",
				"energy": -0.03274,
				"method": "rhf"
			},
			{
				"type": "unocc",
				"energy": -0.01358,
				"method": "rhf"
			}
		],
		"cosmo_sigma_profile": { 
			"-0.025": 0.0,
			"-0.024": 0.0,
			"-0.023": 0.0,
			"-0.022": 0.0,
			"-0.021": 0.0,
			"-0.02": 0.0,
			"-0.019": 0.0,
			"-0.018": 0.0,
			"-0.017": 0.0,
			"-0.016": 0.0,
			"-0.015": 0.0,
			"-0.014": 0.0,
			"-0.013": 0.0,
			"-0.012": 0.018718713344,
			"-0.011": 0.754863596769,
			"-0.01": 3.4623661857,
			"-0.009": 3.31834885237,
			"-0.008": 5.9039759458,
			"-0.007": 16.2585094324,
			"-0.006": 16.5312693025,
			"-0.005": 14.4894510899,
			"-0.004": 12.3941079069,
			"-0.003": 12.1505537067,
			"-0.002": 10.181790841,
			"-0.001": 10.6644316004,
			"0.0": 13.4022054305,
			"0.001": 13.8721829499,
			"0.002": 12.6595879422,
			"0.003": 7.25040978128,
			"0.004": 5.0776248214,
			"0.005": 6.12933161181,
			"0.006": 7.29652077274,
			"0.007": 10.5789978543,
			"0.008": 9.22697583763,
			"0.009": 9.76529145292,
			"0.01": 8.7009456051,
			"0.011": 3.49328742702,
			"0.012": 0.47622041528,
			"0.013": 0.0,
			"0.014": 0.0,
			"0.015": 0.0,
			"0.016": 0.0,
			"0.017": 0.0,
			"0.018": 0.0,
			"0.019": 0.0,
			"0.02": 0.0,
			"0.021": 0.0,
			"0.022": 0.0,
			"0.023": 0.0,
			"0.024": 0.0,
			"0.025": 0.0
		}
	}
}
