{
	 "smiles": "CCN(CC)C1=CC=C(C=NN(C2=CC=CC=C2)C2=CC=CC=C2)C=C1", 
	 "Tm": 366.65, 
	 "num_atms": 51, 
	 "gaussian": { 
		 "optdone": 1, 
		 "sigma_profile": "yes", 
		 "theory": "DFT", 
		 "functional": "B3LYP", 
		 "basiset": "6-31G**", 
		 "properties": { 
			 "R2extent": 12134.1153, 
			 "electric_dipole_moment_norm": 5.80016198739, 
			 "electric_quadrupole_moment_norm": 6.60455756807, 
			 "total_energy": -1055.72073953, 
			 "HOMO_LUMO_gap": 0.13769, 
			 "cosmo_polarized_energy": -13.07, 
			 "cosmo_cavitation_energy": 52.04, 
			 "cosmo_dispersion_energy": -35.09, 
			 "cosmo_repulsion_energy": 2.69, 
			 "cosmo_total_nonelectrostatic_energy": 19.64, 
			 "SMD_solvation_energy": 7.44 
		},
		"coords": [
			{
				"x": -1.6509530609,
				"y": 3.0120861568,
				"z": 5.0384787612,
				"element": "C" 
			},
			{
				"x": -1.2343157668,
				"y": 2.2459046623,
				"z": 3.7831730951,
				"element": "C" 
			},
			{
				"x": -2.2697696298,
				"y": 2.1349985224,
				"z": 2.7476255422,
				"element": "N" 
			},
			{
				"x": -3.2019056313,
				"y": 3.2506967734,
				"z": 2.571512398,
				"element": "C" 
			},
			{
				"x": -2.6667879468,
				"y": 4.3927629939,
				"z": 1.6964626309,
				"element": "C" 
			},
			{
				"x": -2.045176521,
				"y": 1.2605882728,
				"z": 1.6876992145,
				"element": "C" 
			},
			{
				"x": -2.9631365759,
				"y": 1.1389346953,
				"z": 0.6137188907,
				"element": "C" 
			},
			{
				"x": -2.7538211167,
				"y": 0.2272401454,
				"z": -0.4071709803,
				"element": "C" 
			},
			{
				"x": -1.6121753624,
				"y": -0.5960410704,
				"z": -0.462526911,
				"element": "C" 
			},
			{
				"x": -1.5330240682,
				"y": -1.5722638178,
				"z": -1.5499534175,
				"element": "C" 
			},
			{
				"x": -0.5987085337,
				"y": -2.3075645104,
				"z": -2.0583675472,
				"element": "N" 
			},
			{
				"x": 0.7288029647,
				"y": -2.1494234517,
				"z": -1.587891675,
				"element": "N" 
			},
			{
				"x": 1.472848559,
				"y": -3.3577917927,
				"z": -1.6640153728,
				"element": "C" 
			},
			{
				"x": 2.8250605181,
				"y": -3.3976952822,
				"z": -2.0426167507,
				"element": "C" 
			},
			{
				"x": 3.507780933,
				"y": -4.6130678517,
				"z": -2.0758930805,
				"element": "C" 
			},
			{
				"x": 2.8627638311,
				"y": -5.8077636584,
				"z": -1.7530663287,
				"element": "C" 
			},
			{
				"x": 1.5142568261,
				"y": -5.7706141173,
				"z": -1.3919656021,
				"element": "C" 
			},
			{
				"x": 0.8244568739,
				"y": -4.5621858477,
				"z": -1.3392061124,
				"element": "C" 
			},
			{
				"x": 1.3714255268,
				"y": -0.8909138836,
				"z": -1.7866156562,
				"element": "C" 
			},
			{
				"x": 2.3977280853,
				"y": -0.4927767998,
				"z": -0.9150483732,
				"element": "C" 
			},
			{
				"x": 3.0423181313,
				"y": 0.7297217942,
				"z": -1.0963577546,
				"element": "C" 
			},
			{
				"x": 2.6603748525,
				"y": 1.5841134727,
				"z": -2.1326430778,
				"element": "C" 
			},
			{
				"x": 1.6322694116,
				"y": 1.1947908694,
				"z": -2.993374525,
				"element": "C" 
			},
			{
				"x": 0.9949105687,
				"y": -0.0344296131,
				"z": -2.8311107802,
				"element": "C" 
			},
			{
				"x": -0.6940851116,
				"y": -0.4694972129,
				"z": 0.5961846491,
				"element": "C" 
			},
			{
				"x": -0.9019665662,
				"y": 0.4238233453,
				"z": 1.6375169993,
				"element": "C" 
			},
			{
				"x": -0.8573019561,
				"y": 2.9115314748,
				"z": 5.7851070271,
				"element": "H" 
			},
			{
				"x": -2.5702434019,
				"y": 2.6045291094,
				"z": 5.4705611933,
				"element": "H" 
			},
			{
				"x": -1.7934511256,
				"y": 4.0816706853,
				"z": 4.8602502198,
				"element": "H" 
			},
			{
				"x": -0.973926769,
				"y": 1.2291042505,
				"z": 4.0928077795,
				"element": "H" 
			},
			{
				"x": -0.3123204944,
				"y": 2.6927499377,
				"z": 3.3746732749,
				"element": "H" 
			},
			{
				"x": -4.1384355096,
				"y": 2.8657056549,
				"z": 2.1596211348,
				"element": "H" 
			},
			{
				"x": -3.4627150076,
				"y": 3.6320484672,
				"z": 3.5595759587,
				"element": "H" 
			},
			{
				"x": -3.4170904641,
				"y": 5.1849431266,
				"z": 1.5995013393,
				"element": "H" 
			},
			{
				"x": -1.7649464433,
				"y": 4.8348006403,
				"z": 2.1329095984,
				"element": "H" 
			},
			{
				"x": -2.4149686125,
				"y": 4.0355315147,
				"z": 0.693837033,
				"element": "H" 
			},
			{
				"x": -3.8573443498,
				"y": 1.7478918408,
				"z": 0.5797227724,
				"element": "H" 
			},
			{
				"x": -3.4974229821,
				"y": 0.1518016633,
				"z": -1.1974426683,
				"element": "H" 
			},
			{
				"x": -2.4885365166,
				"y": -1.7474423078,
				"z": -2.0507706674,
				"element": "H" 
			},
			{
				"x": 3.339961096,
				"y": -2.4865010867,
				"z": -2.3217702229,
				"element": "H" 
			},
			{
				"x": 4.5529029112,
				"y": -4.6218367591,
				"z": -2.3737492781,
				"element": "H" 
			},
			{
				"x": 3.4003059809,
				"y": -6.7506856417,
				"z": -1.7844351163,
				"element": "H" 
			},
			{
				"x": 0.9923614099,
				"y": -6.6897738345,
				"z": -1.1395309474,
				"element": "H" 
			},
			{
				"x": -0.2205592703,
				"y": -4.5362447736,
				"z": -1.0548208185,
				"element": "H" 
			},
			{
				"x": 2.6892818596,
				"y": -1.1509460532,
				"z": -0.1025450264,
				"element": "H" 
			},
			{
				"x": 3.8368219387,
				"y": 1.0198097586,
				"z": -0.4143486376,
				"element": "H" 
			},
			{
				"x": 3.156318756,
				"y": 2.5407871054,
				"z": -2.2665882772,
				"element": "H" 
			},
			{
				"x": 1.3297519364,
				"y": 1.8462065742,
				"z": -3.8087072047,
				"element": "H" 
			},
			{
				"x": 0.2065683137,
				"y": -0.3381672539,
				"z": -3.510084228,
				"element": "H" 
			},
			{
				"x": 0.1899430389,
				"y": -1.0927841656,
				"z": 0.6151256553,
				"element": "H" 
			},
			{
				"x": -0.1479255294,
				"y": 0.476437278,
				"z": 2.4112518708,
				"element": "H" 
			}
		],
		 "valence_orbital": [ 
			{
				"type": "occ",
				"energy": -0.24399,
				"method": "rhf"
			},
			{
				"type": "occ",
				"energy": -0.24155,
				"method": "rhf"
			},
			{
				"type": "occ",
				"energy": -0.23314,
				"method": "rhf"
			},
			{
				"type": "occ",
				"energy": -0.19966,
				"method": "rhf"
			},
			{
				"type": "occ",
				"energy": -0.17225,
				"method": "rhf"
			},
			{
				"type": "unocc",
				"energy": -0.03456,
				"method": "rhf"
			},
			{
				"type": "unocc",
				"energy": -0.00405,
				"method": "rhf"
			},
			{
				"type": "unocc",
				"energy": 0.00052,
				"method": "rhf"
			},
			{
				"type": "unocc",
				"energy": 0.00553,
				"method": "rhf"
			},
			{
				"type": "unocc",
				"energy": 0.01801,
				"method": "rhf"
			}
		],
		"cosmo_sigma_profile": { 
			"-0.025": 0.0,
			"-0.024": 0.0,
			"-0.023": 0.0,
			"-0.022": 0.0,
			"-0.021": 0.0,
			"-0.02": 0.0,
			"-0.019": 0.0,
			"-0.018": 0.0,
			"-0.017": 0.0,
			"-0.016": 0.0,
			"-0.015": 0.0,
			"-0.014": 0.0,
			"-0.013": 0.0,
			"-0.012": 0.0,
			"-0.011": 0.0,
			"-0.01": 0.0,
			"-0.009": 0.0,
			"-0.008": 0.0121246519912,
			"-0.007": 1.95178532946,
			"-0.006": 13.0276694493,
			"-0.005": 25.8884832175,
			"-0.004": 40.0403807662,
			"-0.003": 51.6075148011,
			"-0.002": 42.7120303411,
			"-0.001": 36.6904543801,
			"0.0": 34.0437454668,
			"0.001": 31.1032565172,
			"0.002": 25.6569818095,
			"0.003": 22.1574423743,
			"0.004": 22.4314858606,
			"0.005": 26.4616236354,
			"0.006": 23.2955716737,
			"0.007": 7.99865607343,
			"0.008": 1.80999609709,
			"0.009": 0.846028038773,
			"0.01": 0.700221611954,
			"0.011": 1.03642294055,
			"0.012": 0.917609150774,
			"0.013": 0.819560980561,
			"0.014": 0.945537686443,
			"0.015": 0.460041308646,
			"0.016": 0.463206928562,
			"0.017": 0.0,
			"0.018": 0.0,
			"0.019": 0.0,
			"0.02": 0.0,
			"0.021": 0.0,
			"0.022": 0.0,
			"0.023": 0.0,
			"0.024": 0.0,
			"0.025": 0.0
		}
	}
}
