{
	 "smiles": "CC1=C(NC(=O)S1)C1=CC=CC=C1", 
	 "Tm": 445.15, 
	 "num_atms": 22, 
	 "gaussian": { 
		 "optdone": 1, 
		 "sigma_profile": "yes", 
		 "theory": "DFT", 
		 "functional": "B3LYP", 
		 "basiset": "6-31G**", 
		 "properties": { 
			 "R2extent": 5061.1199, 
			 "electric_dipole_moment_norm": 5.08051350554, 
			 "electric_quadrupole_moment_norm": 24.9946666841, 
			 "total_energy": -914.667703219, 
			 "HOMO_LUMO_gap": 0.17071, 
			 "cosmo_polarized_energy": -11.45, 
			 "cosmo_cavitation_energy": 27.61, 
			 "cosmo_dispersion_energy": -20.67, 
			 "cosmo_repulsion_energy": 1.59, 
			 "cosmo_total_nonelectrostatic_energy": 8.53, 
			 "SMD_solvation_energy": 5.26 
		},
		"coords": [
			{
				"x": -2.4078405514,
				"y": 1.8582542381,
				"z": 3.3542139745,
				"element": "C" 
			},
			{
				"x": -1.1937879087,
				"y": 2.4598213889,
				"z": 2.7155146419,
				"element": "C" 
			},
			{
				"x": -0.3087818093,
				"y": 1.8971035087,
				"z": 1.8524180156,
				"element": "C" 
			},
			{
				"x": 0.7718766508,
				"y": 2.7402988182,
				"z": 1.5512869265,
				"element": "N" 
			},
			{
				"x": 0.7859718957,
				"y": 4.0002898055,
				"z": 2.1088956229,
				"element": "C" 
			},
			{
				"x": 1.6086940915,
				"y": 4.8714579201,
				"z": 1.9302606067,
				"element": "O" 
			},
			{
				"x": -0.6929806276,
				"y": 4.1019382903,
				"z": 3.1567039592,
				"element": "S" 
			},
			{
				"x": -0.3216677233,
				"y": 0.5452669016,
				"z": 1.2610641247,
				"element": "C" 
			},
			{
				"x": -1.4989980226,
				"y": -0.0050107586,
				"z": 0.7265717541,
				"element": "C" 
			},
			{
				"x": -1.4962246791,
				"y": -1.2838257342,
				"z": 0.1705630654,
				"element": "C" 
			},
			{
				"x": -0.316742401,
				"y": -2.0291242277,
				"z": 0.123120319,
				"element": "C" 
			},
			{
				"x": 0.8629189265,
				"y": -1.4871131931,
				"z": 0.6379268903,
				"element": "C" 
			},
			{
				"x": 0.8619800574,
				"y": -0.2130077859,
				"z": 1.2026468729,
				"element": "C" 
			},
			{
				"x": -2.4570801876,
				"y": 0.7857997031,
				"z": 3.1536639638,
				"element": "H" 
			},
			{
				"x": -2.386989121,
				"y": 1.9981089093,
				"z": 4.4407831715,
				"element": "H" 
			},
			{
				"x": -3.3335830521,
				"y": 2.3169680654,
				"z": 2.9857965577,
				"element": "H" 
			},
			{
				"x": 1.4582840206,
				"y": 2.5171522254,
				"z": 0.8440081422,
				"element": "H" 
			},
			{
				"x": -2.4098592418,
				"y": 0.5845745589,
				"z": 0.7238799399,
				"element": "H" 
			},
			{
				"x": -2.4150734439,
				"y": -1.6918422078,
				"z": -0.2404784084,
				"element": "H" 
			},
			{
				"x": -0.3152500798,
				"y": -3.0222973782,
				"z": -0.3159663321,
				"element": "H" 
			},
			{
				"x": 1.7849361927,
				"y": -2.0603917062,
				"z": 0.6073819879,
				"element": "H" 
			},
			{
				"x": 1.7784970141,
				"y": 0.1889786582,
				"z": 1.6256442038,
				"element": "H" 
			}
		],
		 "valence_orbital": [ 
			{
				"type": "occ",
				"energy": -0.28758,
				"method": "rhf"
			},
			{
				"type": "occ",
				"energy": -0.27246,
				"method": "rhf"
			},
			{
				"type": "occ",
				"energy": -0.26668,
				"method": "rhf"
			},
			{
				"type": "occ",
				"energy": -0.262,
				"method": "rhf"
			},
			{
				"type": "occ",
				"energy": -0.20609,
				"method": "rhf"
			},
			{
				"type": "unocc",
				"energy": -0.03538,
				"method": "rhf"
			},
			{
				"type": "unocc",
				"energy": -0.01916,
				"method": "rhf"
			},
			{
				"type": "unocc",
				"energy": 0.01442,
				"method": "rhf"
			},
			{
				"type": "unocc",
				"energy": 0.0187,
				"method": "rhf"
			},
			{
				"type": "unocc",
				"energy": 0.04912,
				"method": "rhf"
			}
		],
		"cosmo_sigma_profile": { 
			"-0.025": 0.0,
			"-0.024": 0.0,
			"-0.023": 0.0,
			"-0.022": 0.0,
			"-0.021": 0.0,
			"-0.02": 0.0,
			"-0.019": 0.0,
			"-0.018": 0.0,
			"-0.017": 0.0,
			"-0.016": 0.503132590094,
			"-0.015": 1.02468264508,
			"-0.014": 0.581166526705,
			"-0.013": 0.998289613793,
			"-0.012": 0.980224918661,
			"-0.011": 1.25524453132,
			"-0.01": 1.17470336549,
			"-0.009": 1.29295906328,
			"-0.008": 1.07213904435,
			"-0.007": 2.01476708284,
			"-0.006": 9.33059995895,
			"-0.005": 15.4044613429,
			"-0.004": 18.3731433357,
			"-0.003": 19.5838485731,
			"-0.002": 16.1863305204,
			"-0.001": 17.8777924008,
			"0.0": 17.829750061,
			"0.001": 16.2153415089,
			"0.002": 18.855346616,
			"0.003": 16.4127816372,
			"0.004": 13.5139574156,
			"0.005": 13.0004266247,
			"0.006": 1.99722821976,
			"0.007": 1.75952397282,
			"0.008": 0.746358253795,
			"0.009": 1.21095306322,
			"0.01": 1.72092822672,
			"0.011": 2.25053157092,
			"0.012": 6.01392817187,
			"0.013": 3.8033858954,
			"0.014": 0.091037045504,
			"0.015": 0.0,
			"0.016": 0.0,
			"0.017": 0.0,
			"0.018": 0.0,
			"0.019": 0.0,
			"0.02": 0.0,
			"0.021": 0.0,
			"0.022": 0.0,
			"0.023": 0.0,
			"0.024": 0.0,
			"0.025": 0.0
		}
	}
}
