{
	 "smiles": "CCC1=CC=C(C=C1)C(N)=S", 
	 "Tm": 322.15, 
	 "num_atms": 22, 
	 "gaussian": { 
		 "optdone": 1, 
		 "sigma_profile": "yes", 
		 "theory": "DFT", 
		 "functional": "B3LYP", 
		 "basiset": "6-31G**", 
		 "properties": { 
			 "R2extent": 2780.0743, 
			 "electric_dipole_moment_norm": 4.91878025327, 
			 "electric_quadrupole_moment_norm": 14.0949039912, 
			 "total_energy": -802.547692208, 
			 "HOMO_LUMO_gap": 0.14702, 
			 "cosmo_polarized_energy": -14.74, 
			 "cosmo_cavitation_energy": 27.11, 
			 "cosmo_dispersion_energy": -20.12, 
			 "cosmo_repulsion_energy": 1.59, 
			 "cosmo_total_nonelectrostatic_energy": 8.58, 
			 "SMD_solvation_energy": 3.7 
		},
		"coords": [
			{
				"x": 4.3491621736,
				"y": 0.1675669856,
				"z": -1.6569943596,
				"element": "C" 
			},
			{
				"x": 2.9718187322,
				"y": 0.3730248619,
				"z": -2.314614754,
				"element": "C" 
			},
			{
				"x": 1.8305154636,
				"y": 0.2601150062,
				"z": -1.3280996518,
				"element": "C" 
			},
			{
				"x": 1.2410829991,
				"y": -0.9812578809,
				"z": -1.0441694469,
				"element": "C" 
			},
			{
				"x": 0.2122087294,
				"y": -1.098205145,
				"z": -0.1163961574,
				"element": "C" 
			},
			{
				"x": -0.2558159163,
				"y": 0.0288368784,
				"z": 0.5772495482,
				"element": "C" 
			},
			{
				"x": 0.3261626478,
				"y": 1.2764519696,
				"z": 0.2915933449,
				"element": "C" 
			},
			{
				"x": 1.3476606391,
				"y": 1.3864215265,
				"z": -0.6490556222,
				"element": "C" 
			},
			{
				"x": -1.3485992474,
				"y": -0.1039895711,
				"z": 1.5787023022,
				"element": "C" 
			},
			{
				"x": -1.3294526274,
				"y": 0.8139426446,
				"z": 2.5741305481,
				"element": "N" 
			},
			{
				"x": -2.5460250297,
				"y": -1.2650578594,
				"z": 1.4958542634,
				"element": "S" 
			},
			{
				"x": 4.5263786144,
				"y": 0.9137724104,
				"z": -0.8757171248,
				"element": "H" 
			},
			{
				"x": 5.1512497564,
				"y": 0.2532229839,
				"z": -2.3972512196,
				"element": "H" 
			},
			{
				"x": 4.419080642,
				"y": -0.8215345425,
				"z": -1.193088895,
				"element": "H" 
			},
			{
				"x": 2.9441460833,
				"y": 1.3582940545,
				"z": -2.7946731572,
				"element": "H" 
			},
			{
				"x": 2.8391337588,
				"y": -0.3674334125,
				"z": -3.1121753251,
				"element": "H" 
			},
			{
				"x": 1.5915458632,
				"y": -1.8690605866,
				"z": -1.5649678997,
				"element": "H" 
			},
			{
				"x": -0.2466889839,
				"y": -2.0598139057,
				"z": 0.0860758902,
				"element": "H" 
			},
			{
				"x": -0.0536840926,
				"y": 2.1763698712,
				"z": 0.766983391,
				"element": "H" 
			},
			{
				"x": 1.767204519,
				"y": 2.3649932463,
				"z": -0.8696206119,
				"element": "H" 
			},
			{
				"x": -0.5065531651,
				"y": 1.3689187946,
				"z": 2.7567919051,
				"element": "H" 
			},
			{
				"x": -2.0347315596,
				"y": 0.7466216702,
				"z": 3.293243032,
				"element": "H" 
			}
		],
		 "valence_orbital": [ 
			{
				"type": "occ",
				"energy": -0.33686,
				"method": "rhf"
			},
			{
				"type": "occ",
				"energy": -0.26029,
				"method": "rhf"
			},
			{
				"type": "occ",
				"energy": -0.25612,
				"method": "rhf"
			},
			{
				"type": "occ",
				"energy": -0.22518,
				"method": "rhf"
			},
			{
				"type": "occ",
				"energy": -0.20383,
				"method": "rhf"
			},
			{
				"type": "unocc",
				"energy": -0.05681,
				"method": "rhf"
			},
			{
				"type": "unocc",
				"energy": -0.01157,
				"method": "rhf"
			},
			{
				"type": "unocc",
				"energy": 0.02275,
				"method": "rhf"
			},
			{
				"type": "unocc",
				"energy": 0.07456,
				"method": "rhf"
			},
			{
				"type": "unocc",
				"energy": 0.08924,
				"method": "rhf"
			}
		],
		"cosmo_sigma_profile": { 
			"-0.025": 0.0,
			"-0.024": 0.0,
			"-0.023": 0.0,
			"-0.022": 0.0,
			"-0.021": 0.0,
			"-0.02": 0.0,
			"-0.019": 0.0,
			"-0.018": 0.0,
			"-0.017": 0.0,
			"-0.016": 0.132740934255,
			"-0.015": 1.38657783535,
			"-0.014": 2.54413771045,
			"-0.013": 2.39465186104,
			"-0.012": 2.72896333926,
			"-0.011": 1.76513478661,
			"-0.01": 2.68583638289,
			"-0.009": 1.82331373736,
			"-0.008": 1.77974833722,
			"-0.007": 2.62526498701,
			"-0.006": 5.19198259411,
			"-0.005": 8.84231579087,
			"-0.004": 14.6571863725,
			"-0.003": 16.6833261139,
			"-0.002": 18.5767095819,
			"-0.001": 18.5378520365,
			"0.0": 20.3746730884,
			"0.001": 16.7041575435,
			"0.002": 11.6674422854,
			"0.003": 10.0858690875,
			"0.004": 16.0181724678,
			"0.005": 7.85750432151,
			"0.006": 3.83692784305,
			"0.007": 4.82434160765,
			"0.008": 5.8062679187,
			"0.009": 6.43241702779,
			"0.01": 5.51818986069,
			"0.011": 3.47662126495,
			"0.012": 2.21125112935,
			"0.013": 0.0543151823846,
			"0.014": 0.0,
			"0.015": 0.0,
			"0.016": 0.0,
			"0.017": 0.0,
			"0.018": 0.0,
			"0.019": 0.0,
			"0.02": 0.0,
			"0.021": 0.0,
			"0.022": 0.0,
			"0.023": 0.0,
			"0.024": 0.0,
			"0.025": 0.0
		}
	}
}
