{
	 "smiles": "ClC1=C(I)C=NC=N1", 
	 "Tm": 328.15, 
	 "num_atms": 10, 
	 "gaussian": { 
		 "optdone": 1, 
		 "sigma_profile": "yes", 
		 "theory": "DFT", 
		 "functional": "B3LYP", 
		 "basiset": "6-31G**", 
		 "properties": { 
			 "R2extent": 1890.685, 
			 "electric_dipole_moment_norm": 1.23881924832, 
			 "electric_quadrupole_moment_norm": 4.74509857853, 
			 "total_energy": -734.693094294, 
			 "HOMO_LUMO_gap": 0.20413, 
			 "cosmo_polarized_energy": -5.79, 
			 "cosmo_cavitation_energy": 19.63, 
			 "cosmo_dispersion_energy": -16.33, 
			 "cosmo_repulsion_energy": 1.31, 
			 "cosmo_total_nonelectrostatic_energy": 4.61, 
			 "SMD_solvation_energy": -0.33 
		},
		"coords": [
			{
				"x": 0.138391974,
				"y": -2.8167222935,
				"z": -0.2861661332,
				"element": "Cl" 
			},
			{
				"x": -0.5305890672,
				"y": -1.503545694,
				"z": -1.2176137007,
				"element": "C" 
			},
			{
				"x": -1.5064796372,
				"y": -0.6447939531,
				"z": -0.6887509958,
				"element": "C" 
			},
			{
				"x": -2.3012003428,
				"y": -0.7900678214,
				"z": 1.2509280979,
				"element": "I" 
			},
			{
				"x": -1.9554397306,
				"y": 0.3661187176,
				"z": -1.5457428617,
				"element": "C" 
			},
			{
				"x": -1.4948691734,
				"y": 0.517722524,
				"z": -2.7903035084,
				"element": "N" 
			},
			{
				"x": -0.5688225884,
				"y": -0.3610833893,
				"z": -3.1782772894,
				"element": "C" 
			},
			{
				"x": -0.0670353321,
				"y": -1.3620969882,
				"z": -2.4504151318,
				"element": "N" 
			},
			{
				"x": -2.7108624568,
				"y": 1.0713420257,
				"z": -1.2087588568,
				"element": "H" 
			},
			{
				"x": -0.1792936456,
				"y": -0.256473128,
				"z": -4.1878996202,
				"element": "H" 
			}
		],
		 "valence_orbital": [ 
			{
				"type": "occ",
				"energy": -0.32637,
				"method": "rhf"
			},
			{
				"type": "occ",
				"energy": -0.31312,
				"method": "rhf"
			},
			{
				"type": "occ",
				"energy": -0.29364,
				"method": "rhf"
			},
			{
				"type": "occ",
				"energy": -0.27534,
				"method": "rhf"
			},
			{
				"type": "occ",
				"energy": -0.26914,
				"method": "rhf"
			},
			{
				"type": "unocc",
				"energy": -0.06501,
				"method": "rhf"
			},
			{
				"type": "unocc",
				"energy": -0.06219,
				"method": "rhf"
			},
			{
				"type": "unocc",
				"energy": -0.05814,
				"method": "rhf"
			},
			{
				"type": "unocc",
				"energy": 0.01852,
				"method": "rhf"
			},
			{
				"type": "unocc",
				"energy": 0.04099,
				"method": "rhf"
			}
		],
		"cosmo_sigma_profile": { 
			"-0.025": 0.0,
			"-0.024": 0.0,
			"-0.023": 0.0,
			"-0.022": 0.0,
			"-0.021": 0.0,
			"-0.02": 0.0,
			"-0.019": 0.0,
			"-0.018": 0.0,
			"-0.017": 0.0,
			"-0.016": 0.0,
			"-0.015": 0.0,
			"-0.014": 0.0,
			"-0.013": 0.0,
			"-0.012": 0.0,
			"-0.011": 0.0,
			"-0.01": 0.00565523676975,
			"-0.009": 3.66481229507,
			"-0.008": 4.99980516625,
			"-0.007": 4.91941895415,
			"-0.006": 5.32213950289,
			"-0.005": 6.45452954178,
			"-0.004": 9.62398617907,
			"-0.003": 15.9093107066,
			"-0.002": 16.2450295179,
			"-0.001": 12.3229558984,
			"0.0": 10.0055886745,
			"0.001": 12.0909216175,
			"0.002": 15.8906938366,
			"0.003": 22.7041353766,
			"0.004": 7.87221840562,
			"0.005": 2.50898826554,
			"0.006": 2.8430550846,
			"0.007": 2.6018044689,
			"0.008": 1.73131336313,
			"0.009": 1.65855301442,
			"0.01": 2.01400817376,
			"0.011": 1.90418474559,
			"0.012": 1.4405205703,
			"0.013": 1.12566794546,
			"0.014": 0.561913824105,
			"0.015": 0.00678159450315,
			"0.016": 0.0,
			"0.017": 0.0,
			"0.018": 0.0,
			"0.019": 0.0,
			"0.02": 0.0,
			"0.021": 0.0,
			"0.022": 0.0,
			"0.023": 0.0,
			"0.024": 0.0,
			"0.025": 0.0
		}
	}
}
