{
	 "smiles": "CC1=CC=C(O[C@H]2CCC3C4CC[C@H]5CC(=O)CC[C@]5(C)C4CC[C@]23C)C=C1", 
	 "Tm": 423.15, 
	 "num_atms": 64, 
	 "gaussian": { 
		 "optdone": 1, 
		 "sigma_profile": "yes", 
		 "theory": "DFT", 
		 "functional": "B3LYP", 
		 "basiset": "6-31G**", 
		 "properties": { 
			 "R2extent": 14196.6624, 
			 "electric_dipole_moment_norm": 2.699022951, 
			 "electric_quadrupole_moment_norm": 22.0018026782, 
			 "total_energy": -1162.91863497, 
			 "HOMO_LUMO_gap": 0.19732, 
			 "cosmo_polarized_energy": -12.23, 
			 "cosmo_cavitation_energy": 55.75, 
			 "cosmo_dispersion_energy": -38.46, 
			 "cosmo_repulsion_energy": 2.82, 
			 "cosmo_total_nonelectrostatic_energy": 20.12, 
			 "SMD_solvation_energy": 8.44 
		},
		"coords": [
			{
				"x": 7.5612077342,
				"y": -0.2361153641,
				"z": 0.9052612945,
				"element": "C" 
			},
			{
				"x": 6.2010824193,
				"y": 0.1071060867,
				"z": 0.343867929,
				"element": "C" 
			},
			{
				"x": 6.0698367063,
				"y": 0.6841023958,
				"z": -0.9306930825,
				"element": "C" 
			},
			{
				"x": 4.8257387933,
				"y": 1.0038733896,
				"z": -1.4575760427,
				"element": "C" 
			},
			{
				"x": 3.6580889831,
				"y": 0.7562379444,
				"z": -0.7187876873,
				"element": "C" 
			},
			{
				"x": 2.4879759099,
				"y": 1.1020512899,
				"z": -1.3391380386,
				"element": "O" 
			},
			{
				"x": 1.2354970232,
				"y": 0.8450582866,
				"z": -0.7098634447,
				"element": "C" 
			},
			{
				"x": 0.8167456288,
				"y": 1.8766755328,
				"z": 0.3447638569,
				"element": "C" 
			},
			{
				"x": -0.6876562082,
				"y": 1.6058593012,
				"z": 0.4619262749,
				"element": "C" 
			},
			{
				"x": -1.1347788393,
				"y": 1.4715785482,
				"z": -1.0150252649,
				"element": "C" 
			},
			{
				"x": -2.5123391107,
				"y": 0.8316238533,
				"z": -1.3506394158,
				"element": "C" 
			},
			{
				"x": -3.6576457933,
				"y": 1.5286289379,
				"z": -0.5692652317,
				"element": "C" 
			},
			{
				"x": -4.0118991317,
				"y": 0.9167693438,
				"z": 0.8110931331,
				"element": "C" 
			},
			{
				"x": -3.5091394746,
				"y": -0.5259458702,
				"z": 0.9885545169,
				"element": "C" 
			},
			{
				"x": -4.1385403574,
				"y": -1.2382093505,
				"z": 2.194648225,
				"element": "C" 
			},
			{
				"x": -3.4215231469,
				"y": -2.5498435514,
				"z": 2.5061386541,
				"element": "C" 
			},
			{
				"x": -3.4484535053,
				"y": -3.0639252668,
				"z": 3.6074170039,
				"element": "O" 
			},
			{
				"x": -2.6650254317,
				"y": -3.1605260565,
				"z": 1.3300758413,
				"element": "C" 
			},
			{
				"x": -3.3758905482,
				"y": -2.8710003299,
				"z": -0.0025214498,
				"element": "C" 
			},
			{
				"x": -3.6127290802,
				"y": -1.3532645613,
				"z": -0.3224571599,
				"element": "C" 
			},
			{
				"x": -5.026661434,
				"y": -1.2851013241,
				"z": -0.952009116,
				"element": "C" 
			},
			{
				"x": -2.5741102143,
				"y": -0.7551921354,
				"z": -1.3419243804,
				"element": "C" 
			},
			{
				"x": -1.1474702157,
				"y": -1.3407316433,
				"z": -1.2606678284,
				"element": "C" 
			},
			{
				"x": -0.2092857111,
				"y": -0.6078538931,
				"z": -2.2273755828,
				"element": "C" 
			},
			{
				"x": 0.0898447389,
				"y": 0.8411703246,
				"z": -1.7784206252,
				"element": "C" 
			},
			{
				"x": 0.4582811375,
				"y": 1.6958296308,
				"z": -3.0025364156,
				"element": "C" 
			},
			{
				"x": 3.7659734881,
				"y": 0.1877022482,
				"z": 0.5539048893,
				"element": "C" 
			},
			{
				"x": 5.0296457549,
				"y": -0.1305435624,
				"z": 1.0646869259,
				"element": "C" 
			},
			{
				"x": 7.4798697196,
				"y": -0.6795487214,
				"z": 1.9017927728,
				"element": "H" 
			},
			{
				"x": 8.1989573735,
				"y": 0.6519923827,
				"z": 0.9890012523,
				"element": "H" 
			},
			{
				"x": 8.0921740679,
				"y": -0.9519230837,
				"z": 0.2664498259,
				"element": "H" 
			},
			{
				"x": 6.9606196814,
				"y": 0.8844209968,
				"z": -1.5219244371,
				"element": "H" 
			},
			{
				"x": 4.7284681255,
				"y": 1.4456340859,
				"z": -2.4442168582,
				"element": "H" 
			},
			{
				"x": 1.2764330826,
				"y": -0.1478529204,
				"z": -0.2403339355,
				"element": "H" 
			},
			{
				"x": 1.0039042441,
				"y": 2.8846674242,
				"z": -0.0451230763,
				"element": "H" 
			},
			{
				"x": 1.3582746064,
				"y": 1.7812631131,
				"z": 1.289972508,
				"element": "H" 
			},
			{
				"x": -0.8422840354,
				"y": 0.6792327971,
				"z": 1.0249113954,
				"element": "H" 
			},
			{
				"x": -1.22581909,
				"y": 2.3967866744,
				"z": 0.9930425932,
				"element": "H" 
			},
			{
				"x": -1.2240777051,
				"y": 2.5059485028,
				"z": -1.3748041351,
				"element": "H" 
			},
			{
				"x": -2.6690869706,
				"y": 1.113606388,
				"z": -2.399386573,
				"element": "H" 
			},
			{
				"x": -4.5534503048,
				"y": 1.5255498442,
				"z": -1.1970701463,
				"element": "H" 
			},
			{
				"x": -3.4020620131,
				"y": 2.5879997759,
				"z": -0.4495079209,
				"element": "H" 
			},
			{
				"x": -3.598674136,
				"y": 1.5276616719,
				"z": 1.6220015215,
				"element": "H" 
			},
			{
				"x": -5.1006880225,
				"y": 0.9431240912,
				"z": 0.9437080391,
				"element": "H" 
			},
			{
				"x": -2.4369551752,
				"y": -0.4591178104,
				"z": 1.2108162789,
				"element": "H" 
			},
			{
				"x": -4.1213100208,
				"y": -0.6165392507,
				"z": 3.0964166197,
				"element": "H" 
			},
			{
				"x": -5.1968764511,
				"y": -1.4697159922,
				"z": 2.0040202733,
				"element": "H" 
			},
			{
				"x": -1.6494448768,
				"y": -2.741862221,
				"z": 1.3357499484,
				"element": "H" 
			},
			{
				"x": -2.5596857399,
				"y": -4.234255361,
				"z": 1.5107182812,
				"element": "H" 
			},
			{
				"x": -4.3542617252,
				"y": -3.3641378812,
				"z": 0.0448591419,
				"element": "H" 
			},
			{
				"x": -2.8499916525,
				"y": -3.3628376464,
				"z": -0.8261090992,
				"element": "H" 
			},
			{
				"x": -5.0919338653,
				"y": -1.9986670565,
				"z": -1.781449374,
				"element": "H" 
			},
			{
				"x": -5.8011239731,
				"y": -1.5610369219,
				"z": -0.2277471101,
				"element": "H" 
			},
			{
				"x": -5.28114381,
				"y": -0.3031357806,
				"z": -1.3523887381,
				"element": "H" 
			},
			{
				"x": -2.9399457902,
				"y": -1.0474778178,
				"z": -2.3364620343,
				"element": "H" 
			},
			{
				"x": -0.7482424586,
				"y": -1.2769673394,
				"z": -0.2399922387,
				"element": "H" 
			},
			{
				"x": -1.1636982559,
				"y": -2.4052065999,
				"z": -1.5130828914,
				"element": "H" 
			},
			{
				"x": 0.7380017156,
				"y": -1.1498154223,
				"z": -2.3391997312,
				"element": "H" 
			},
			{
				"x": -0.6728984742,
				"y": -0.5999930162,
				"z": -3.2233570228,
				"element": "H" 
			},
			{
				"x": 1.2683787059,
				"y": 1.2396887558,
				"z": -3.5776519656,
				"element": "H" 
			},
			{
				"x": 0.782470523,
				"y": 2.700519362,
				"z": -2.7140407495,
				"element": "H" 
			},
			{
				"x": -0.414155204,
				"y": 1.7966202953,
				"z": -3.6584892997,
				"element": "H" 
			},
			{
				"x": 2.8883013584,
				"y": -0.0070574106,
				"z": 1.1582347566,
				"element": "H" 
			},
			{
				"x": 5.0940864314,
				"y": -0.5722821122,
				"z": 2.0563043501,
				"element": "H" 
			}
		],
		 "valence_orbital": [ 
			{
				"type": "occ",
				"energy": -0.28245,
				"method": "rhf"
			},
			{
				"type": "occ",
				"energy": -0.27833,
				"method": "rhf"
			},
			{
				"type": "occ",
				"energy": -0.24464,
				"method": "rhf"
			},
			{
				"type": "occ",
				"energy": -0.23357,
				"method": "rhf"
			},
			{
				"type": "occ",
				"energy": -0.20723,
				"method": "rhf"
			},
			{
				"type": "unocc",
				"energy": -0.00991,
				"method": "rhf"
			},
			{
				"type": "unocc",
				"energy": 0.00314,
				"method": "rhf"
			},
			{
				"type": "unocc",
				"energy": 0.01851,
				"method": "rhf"
			},
			{
				"type": "unocc",
				"energy": 0.05736,
				"method": "rhf"
			},
			{
				"type": "unocc",
				"energy": 0.06372,
				"method": "rhf"
			}
		],
		"cosmo_sigma_profile": { 
			"-0.025": 0.0,
			"-0.024": 0.0,
			"-0.023": 0.0,
			"-0.022": 0.0,
			"-0.021": 0.0,
			"-0.02": 0.0,
			"-0.019": 0.0,
			"-0.018": 0.0,
			"-0.017": 0.0,
			"-0.016": 0.0,
			"-0.015": 0.0,
			"-0.014": 0.0,
			"-0.013": 0.0,
			"-0.012": 0.0,
			"-0.011": 0.0,
			"-0.01": 0.0,
			"-0.009": 0.0,
			"-0.008": 0.00477049256006,
			"-0.007": 0.304969076074,
			"-0.006": 5.33104283664,
			"-0.005": 18.5794231604,
			"-0.004": 26.1033345766,
			"-0.003": 40.0375359954,
			"-0.002": 68.6204118914,
			"-0.001": 76.9875212029,
			"0.0": 56.1707034489,
			"0.001": 40.996952112,
			"0.002": 23.7573456433,
			"0.003": 10.6611922413,
			"0.004": 12.0647843039,
			"0.005": 12.0588459108,
			"0.006": 13.1711106057,
			"0.007": 7.01728445707,
			"0.008": 2.38280072477,
			"0.009": 2.38720868547,
			"0.01": 1.91615907659,
			"0.011": 2.4123795422,
			"0.012": 4.37847432673,
			"0.013": 3.96209686778,
			"0.014": 1.46539045829,
			"0.015": 0.000250031163092,
			"0.016": 0.0,
			"0.017": 0.0,
			"0.018": 0.0,
			"0.019": 0.0,
			"0.02": 0.0,
			"0.021": 0.0,
			"0.022": 0.0,
			"0.023": 0.0,
			"0.024": 0.0,
			"0.025": 0.0
		}
	}
}
