{
	 "smiles": "FC(F)(F)CN1C2=CC=C(Cl)C=C2C(=NCC1=O)C1=CC=CC=C1", 
	 "Tm": 437.15, 
	 "num_atms": 36, 
	 "gaussian": { 
		 "optdone": 1, 
		 "sigma_profile": "yes", 
		 "theory": "DFT", 
		 "functional": "B3LYP", 
		 "basiset": "6-31G**", 
		 "properties": { 
			 "R2extent": 7902.9959, 
			 "electric_dipole_moment_norm": 3.03126467502, 
			 "electric_quadrupole_moment_norm": 20.1502014638, 
			 "total_energy": -1599.48782866, 
			 "HOMO_LUMO_gap": 0.17906, 
			 "cosmo_polarized_energy": -14.56, 
			 "cosmo_cavitation_energy": 42.95, 
			 "cosmo_dispersion_energy": -28.59, 
			 "cosmo_repulsion_energy": 2.12, 
			 "cosmo_total_nonelectrostatic_energy": 16.48, 
			 "SMD_solvation_energy": 5.95 
		},
		"coords": [
			{
				"x": -1.6423696743,
				"y": -0.2997818796,
				"z": -1.710187124,
				"element": "F" 
			},
			{
				"x": -1.0320691228,
				"y": -1.3835253861,
				"z": -2.2463668133,
				"element": "C" 
			},
			{
				"x": -1.8453515958,
				"y": -1.8753256636,
				"z": -3.204221218,
				"element": "F" 
			},
			{
				"x": 0.1006214218,
				"y": -0.9601566849,
				"z": -2.8298403866,
				"element": "F" 
			},
			{
				"x": -0.7642450066,
				"y": -2.4559912714,
				"z": -1.1984708858,
				"element": "C" 
			},
			{
				"x": 0.1372161183,
				"y": -1.9798126151,
				"z": -0.1587167091,
				"element": "N" 
			},
			{
				"x": -0.3541827712,
				"y": -1.1222377366,
				"z": 0.8676515564,
				"element": "C" 
			},
			{
				"x": -1.5263245612,
				"y": -1.4780065699,
				"z": 1.5524770199,
				"element": "C" 
			},
			{
				"x": -2.0620469901,
				"y": -0.6602416412,
				"z": 2.5390499615,
				"element": "C" 
			},
			{
				"x": -1.4123839206,
				"y": 0.5340180209,
				"z": 2.8571923042,
				"element": "C" 
			},
			{
				"x": -2.0702631588,
				"y": 1.5707236976,
				"z": 4.1103001595,
				"element": "Cl" 
			},
			{
				"x": -0.2505410808,
				"y": 0.9069926953,
				"z": 2.1951692839,
				"element": "C" 
			},
			{
				"x": 0.2964742542,
				"y": 0.0868989107,
				"z": 1.1933136152,
				"element": "C" 
			},
			{
				"x": 1.5787716956,
				"y": 0.4899838322,
				"z": 0.5438868902,
				"element": "C" 
			},
			{
				"x": 2.5628021899,
				"y": -0.317863846,
				"z": 0.3584418431,
				"element": "N" 
			},
			{
				"x": 2.408667912,
				"y": -1.7116760654,
				"z": 0.7536572609,
				"element": "C" 
			},
			{
				"x": 1.4693053938,
				"y": -2.4052532284,
				"z": -0.2299138341,
				"element": "C" 
			},
			{
				"x": 1.8392277542,
				"y": -3.2314583161,
				"z": -1.0428143101,
				"element": "O" 
			},
			{
				"x": 1.7502327172,
				"y": 1.9083986272,
				"z": 0.1200087984,
				"element": "C" 
			},
			{
				"x": 3.0323166064,
				"y": 2.4815646284,
				"z": 0.10785794,
				"element": "C" 
			},
			{
				"x": 3.212663267,
				"y": 3.7940146602,
				"z": -0.3192231117,
				"element": "C" 
			},
			{
				"x": 2.1185749853,
				"y": 4.5493947837,
				"z": -0.7522103944,
				"element": "C" 
			},
			{
				"x": 0.8431714602,
				"y": 3.9830878884,
				"z": -0.7587712545,
				"element": "C" 
			},
			{
				"x": 0.6574054479,
				"y": 2.6714617663,
				"z": -0.3214201972,
				"element": "C" 
			},
			{
				"x": -1.725153557,
				"y": -2.77737654,
				"z": -0.793072822,
				"element": "H" 
			},
			{
				"x": -0.281585536,
				"y": -3.3006097199,
				"z": -1.6911750607,
				"element": "H" 
			},
			{
				"x": -2.0203982269,
				"y": -2.4153494126,
				"z": 1.3201525221,
				"element": "H" 
			},
			{
				"x": -2.9649920095,
				"y": -0.9489316047,
				"z": 3.0650780715,
				"element": "H" 
			},
			{
				"x": 0.2430894531,
				"y": 1.8374402044,
				"z": 2.4497433694,
				"element": "H" 
			},
			{
				"x": 3.3723086917,
				"y": -2.2161177925,
				"z": 0.6815294607,
				"element": "H" 
			},
			{
				"x": 2.0214565568,
				"y": -1.8214767102,
				"z": 1.7782694235,
				"element": "H" 
			},
			{
				"x": 3.873201681,
				"y": 1.8798908833,
				"z": 0.4351951076,
				"element": "H" 
			},
			{
				"x": 4.2071856474,
				"y": 4.230730486,
				"z": -0.314651157,
				"element": "H" 
			},
			{
				"x": 2.2614904755,
				"y": 5.5731938063,
				"z": -1.0858683651,
				"element": "H" 
			},
			{
				"x": -0.0082254804,
				"y": 4.5592809233,
				"z": -1.1088713327,
				"element": "H" 
			},
			{
				"x": -0.3322510375,
				"y": 2.2266168702,
				"z": -0.3519796116,
				"element": "H" 
			}
		],
		 "valence_orbital": [ 
			{
				"type": "occ",
				"energy": -0.27381,
				"method": "rhf"
			},
			{
				"type": "occ",
				"energy": -0.26271,
				"method": "rhf"
			},
			{
				"type": "occ",
				"energy": -0.25635,
				"method": "rhf"
			},
			{
				"type": "occ",
				"energy": -0.24413,
				"method": "rhf"
			},
			{
				"type": "occ",
				"energy": -0.24342,
				"method": "rhf"
			},
			{
				"type": "unocc",
				"energy": -0.06436,
				"method": "rhf"
			},
			{
				"type": "unocc",
				"energy": -0.0388,
				"method": "rhf"
			},
			{
				"type": "unocc",
				"energy": -0.02935,
				"method": "rhf"
			},
			{
				"type": "unocc",
				"energy": -0.00566,
				"method": "rhf"
			},
			{
				"type": "unocc",
				"energy": 0.00375,
				"method": "rhf"
			}
		],
		"cosmo_sigma_profile": { 
			"-0.025": 0.0,
			"-0.024": 0.0,
			"-0.023": 0.0,
			"-0.022": 0.0,
			"-0.021": 0.0,
			"-0.02": 0.0,
			"-0.019": 0.0,
			"-0.018": 0.0,
			"-0.017": 0.0,
			"-0.016": 0.0,
			"-0.015": 0.0,
			"-0.014": 0.0,
			"-0.013": 0.0,
			"-0.012": 0.0,
			"-0.011": 0.654179840406,
			"-0.01": 2.79380620077,
			"-0.009": 2.63269073851,
			"-0.008": 6.00792734556,
			"-0.007": 9.84794426908,
			"-0.006": 17.5868084327,
			"-0.005": 21.7302450711,
			"-0.004": 22.3230467234,
			"-0.003": 20.6855215787,
			"-0.002": 23.6340425964,
			"-0.001": 23.2098067265,
			"0.0": 27.0834005141,
			"0.001": 30.6821797735,
			"0.002": 40.0560600163,
			"0.003": 37.9484556551,
			"0.004": 23.4791771158,
			"0.005": 13.0480767222,
			"0.006": 3.19949888517,
			"0.007": 2.57424682492,
			"0.008": 1.86306883278,
			"0.009": 2.58985396456,
			"0.01": 3.07162421674,
			"0.011": 3.92857290864,
			"0.012": 4.04575141361,
			"0.013": 1.77029678897,
			"0.014": 0.450848597083,
			"0.015": 0.00172865044439,
			"0.016": 0.0,
			"0.017": 0.0,
			"0.018": 0.0,
			"0.019": 0.0,
			"0.02": 0.0,
			"0.021": 0.0,
			"0.022": 0.0,
			"0.023": 0.0,
			"0.024": 0.0,
			"0.025": 0.0
		}
	}
}
