{
	 "smiles": "CCOC(=O)C(=CNC1=CC2=C(OCCCO2)C=C1)C#N", 
	 "Tm": 398.15, 
	 "num_atms": 37, 
	 "gaussian": { 
		 "optdone": 1, 
		 "sigma_profile": "yes", 
		 "theory": "DFT", 
		 "functional": "B3LYP", 
		 "basiset": "6-31G**", 
		 "properties": { 
			 "R2extent": 8886.2527, 
			 "electric_dipole_moment_norm": 6.20012932607, 
			 "electric_quadrupole_moment_norm": 29.4383828753, 
			 "total_energy": -991.597810768, 
			 "HOMO_LUMO_gap": 0.16951, 
			 "cosmo_polarized_energy": -25.06, 
			 "cosmo_cavitation_energy": 41.54, 
			 "cosmo_dispersion_energy": -28.95, 
			 "cosmo_repulsion_energy": 2.25, 
			 "cosmo_total_nonelectrostatic_energy": 14.84, 
			 "SMD_solvation_energy": 9.54 
		},
		"coords": [
			{
				"x": -0.7081556792,
				"y": 1.3741394566,
				"z": -6.3189982752,
				"element": "C" 
			},
			{
				"x": -0.3593837773,
				"y": -0.0798087575,
				"z": -6.0380141406,
				"element": "C" 
			},
			{
				"x": -0.4330489734,
				"y": -0.3779575613,
				"z": -4.6247066751,
				"element": "O" 
			},
			{
				"x": 0.6833718188,
				"y": -0.097898434,
				"z": -3.8952015322,
				"element": "C" 
			},
			{
				"x": 1.6935655333,
				"y": 0.3769186139,
				"z": -4.3749884165,
				"element": "O" 
			},
			{
				"x": 0.5245337442,
				"y": -0.4398365562,
				"z": -2.4626431212,
				"element": "C" 
			},
			{
				"x": -0.6417702104,
				"y": -1.0204883168,
				"z": -2.0220240115,
				"element": "C" 
			},
			{
				"x": -1.0384105729,
				"y": -1.3980551406,
				"z": -0.7861605767,
				"element": "N" 
			},
			{
				"x": -0.4283481163,
				"y": -1.1496013603,
				"z": 0.4807831753,
				"element": "C" 
			},
			{
				"x": -0.0905076941,
				"y": 0.1486578449,
				"z": 0.8632999655,
				"element": "C" 
			},
			{
				"x": 0.4943958186,
				"y": 0.3920344253,
				"z": 2.1055885936,
				"element": "C" 
			},
			{
				"x": 0.6930755106,
				"y": -0.6783103,
				"z": 3.0048176979,
				"element": "C" 
			},
			{
				"x": 1.2501136895,
				"y": -0.5432692688,
				"z": 4.250423016,
				"element": "O" 
			},
			{
				"x": 0.9724100027,
				"y": 0.6731601827,
				"z": 4.9617380629,
				"element": "C" 
			},
			{
				"x": 1.9325895195,
				"y": 1.797837448,
				"z": 4.5747482917,
				"element": "C" 
			},
			{
				"x": 2.0870046772,
				"y": 1.8817065231,
				"z": 3.0535903821,
				"element": "C" 
			},
			{
				"x": 0.8256577667,
				"y": 1.6932471307,
				"z": 2.3888366173,
				"element": "O" 
			},
			{
				"x": 0.3323720361,
				"y": -1.9711813679,
				"z": 2.613437488,
				"element": "C" 
			},
			{
				"x": -0.2139040072,
				"y": -2.2167070092,
				"z": 1.3582601863,
				"element": "C" 
			},
			{
				"x": 1.664644264,
				"y": -0.1787563318,
				"z": -1.6471614464,
				"element": "C" 
			},
			{
				"x": 2.6053505515,
				"y": 0.0301469055,
				"z": -0.9932677076,
				"element": "N" 
			},
			{
				"x": -1.6970484834,
				"y": 1.6230044485,
				"z": -5.9221167056,
				"element": "H" 
			},
			{
				"x": -0.7169635113,
				"y": 1.5521213651,
				"z": -7.3996706606,
				"element": "H" 
			},
			{
				"x": 0.0329936729,
				"y": 2.0380336673,
				"z": -5.867954645,
				"element": "H" 
			},
			{
				"x": -1.0805373449,
				"y": -0.7609248968,
				"z": -6.4972884685,
				"element": "H" 
			},
			{
				"x": 0.6445215278,
				"y": -0.3184437305,
				"z": -6.3963191037,
				"element": "H" 
			},
			{
				"x": -1.3792519134,
				"y": -1.2275311385,
				"z": -2.7899085534,
				"element": "H" 
			},
			{
				"x": -1.8973659262,
				"y": -1.9285544839,
				"z": -0.7558161816,
				"element": "H" 
			},
			{
				"x": -0.2411269116,
				"y": 0.9902679969,
				"z": 0.1978500681,
				"element": "H" 
			},
			{
				"x": 1.0707476653,
				"y": 0.4202796998,
				"z": 6.0209096412,
				"element": "H" 
			},
			{
				"x": -0.0653344614,
				"y": 0.972857202,
				"z": 4.7771165092,
				"element": "H" 
			},
			{
				"x": 2.9200522547,
				"y": 1.6356624531,
				"z": 5.0221294726,
				"element": "H" 
			},
			{
				"x": 1.5403273514,
				"y": 2.7385904936,
				"z": 4.9794027369,
				"element": "H" 
			},
			{
				"x": 2.4414104235,
				"y": 2.8682354339,
				"z": 2.7440006746,
				"element": "H" 
			},
			{
				"x": 2.800647149,
				"y": 1.1359087816,
				"z": 2.6882535247,
				"element": "H" 
			},
			{
				"x": 0.4981861347,
				"y": -2.7777009435,
				"z": 3.3197065465,
				"element": "H" 
			},
			{
				"x": -0.467413529,
				"y": -3.2289844753,
				"z": 1.0587475713,
				"element": "H" 
			}
		],
		 "valence_orbital": [ 
			{
				"type": "occ",
				"energy": -0.29187,
				"method": "rhf"
			},
			{
				"type": "occ",
				"energy": -0.26633,
				"method": "rhf"
			},
			{
				"type": "occ",
				"energy": -0.2481,
				"method": "rhf"
			},
			{
				"type": "occ",
				"energy": -0.23253,
				"method": "rhf"
			},
			{
				"type": "occ",
				"energy": -0.211,
				"method": "rhf"
			},
			{
				"type": "unocc",
				"energy": -0.04149,
				"method": "rhf"
			},
			{
				"type": "unocc",
				"energy": -0.00735,
				"method": "rhf"
			},
			{
				"type": "unocc",
				"energy": 0.0016,
				"method": "rhf"
			},
			{
				"type": "unocc",
				"energy": 0.03927,
				"method": "rhf"
			},
			{
				"type": "unocc",
				"energy": 0.04846,
				"method": "rhf"
			}
		],
		"cosmo_sigma_profile": { 
			"-0.025": 0.0,
			"-0.024": 0.0,
			"-0.023": 0.0,
			"-0.022": 0.0,
			"-0.021": 0.0,
			"-0.02": 0.0,
			"-0.019": 0.0,
			"-0.018": 0.0,
			"-0.017": 0.779211077569,
			"-0.016": 1.97460692511,
			"-0.015": 1.78292855355,
			"-0.014": 0.905962347973,
			"-0.013": 1.59675200461,
			"-0.012": 1.77411651469,
			"-0.011": 1.46054459353,
			"-0.01": 1.48556734472,
			"-0.009": 1.7079926655,
			"-0.008": 2.39296408764,
			"-0.007": 4.54297331675,
			"-0.006": 11.3206630072,
			"-0.005": 23.0103432641,
			"-0.004": 34.8520653148,
			"-0.003": 30.6445532957,
			"-0.002": 28.0252161725,
			"-0.001": 27.6715578453,
			"0.0": 26.4725678694,
			"0.001": 17.6023029071,
			"0.002": 14.669114991,
			"0.003": 16.3727977363,
			"0.004": 12.6273474375,
			"0.005": 10.2079986869,
			"0.006": 7.47450364627,
			"0.007": 6.5067003265,
			"0.008": 7.76444358171,
			"0.009": 7.76591429318,
			"0.01": 7.64049411495,
			"0.011": 6.78711202182,
			"0.012": 7.14579050787,
			"0.013": 3.66363473548,
			"0.014": 1.15361160088,
			"0.015": 0.0322274446816,
			"0.016": 0.0,
			"0.017": 0.0,
			"0.018": 0.0,
			"0.019": 0.0,
			"0.02": 0.0,
			"0.021": 0.0,
			"0.022": 0.0,
			"0.023": 0.0,
			"0.024": 0.0,
			"0.025": 0.0
		}
	}
}
