{
	 "smiles": "CCCCCCCC(N)=O", 
	 "Tm": 381.15, 
	 "num_atms": 27, 
	 "gaussian": { 
		 "optdone": 1, 
		 "sigma_profile": "yes", 
		 "theory": "DFT", 
		 "functional": "B3LYP", 
		 "basiset": "6-31G**", 
		 "properties": { 
			 "R2extent": 2694.561, 
			 "electric_dipole_moment_norm": 3.39942915649, 
			 "electric_quadrupole_moment_norm": 12.4131811583, 
			 "total_energy": -445.111715689, 
			 "HOMO_LUMO_gap": 0.27735, 
			 "cosmo_polarized_energy": -11.91, 
			 "cosmo_cavitation_energy": 28.55, 
			 "cosmo_dispersion_energy": -20.2, 
			 "cosmo_repulsion_energy": 1.72, 
			 "cosmo_total_nonelectrostatic_energy": 10.07, 
			 "SMD_solvation_energy": 4.93 
		},
		"coords": [
			{
				"x": 1.5576588181,
				"y": -4.0797897373,
				"z": -1.49197633,
				"element": "C" 
			},
			{
				"x": 1.0653596642,
				"y": -2.6326244995,
				"z": -1.5991134384,
				"element": "C" 
			},
			{
				"x": 1.3759754631,
				"y": -1.8003660261,
				"z": -0.3466923846,
				"element": "C" 
			},
			{
				"x": 0.8377899627,
				"y": -0.3600971625,
				"z": -0.3738858108,
				"element": "C" 
			},
			{
				"x": 1.4896658385,
				"y": 0.5345745786,
				"z": -1.4401648254,
				"element": "C" 
			},
			{
				"x": 1.1145397571,
				"y": 2.0243754407,
				"z": -1.365314657,
				"element": "C" 
			},
			{
				"x": -0.374698409,
				"y": 2.3319773096,
				"z": -1.5883173823,
				"element": "C" 
			},
			{
				"x": -1.2222294523,
				"y": 2.1566008011,
				"z": -0.3268357934,
				"element": "C" 
			},
			{
				"x": -2.5040465801,
				"y": 1.7278224491,
				"z": -0.5395847061,
				"element": "N" 
			},
			{
				"x": -0.8032493181,
				"y": 2.4148043761,
				"z": 0.7929050427,
				"element": "O" 
			},
			{
				"x": 1.3226863308,
				"y": -4.6530287644,
				"z": -2.3950425944,
				"element": "H" 
			},
			{
				"x": 1.0949572912,
				"y": -4.5936782636,
				"z": -0.6414698462,
				"element": "H" 
			},
			{
				"x": 2.6435229018,
				"y": -4.1184282382,
				"z": -1.3474198217,
				"element": "H" 
			},
			{
				"x": -0.0199257326,
				"y": -2.6272669694,
				"z": -1.7737217262,
				"element": "H" 
			},
			{
				"x": 1.5172983671,
				"y": -2.1634046692,
				"z": -2.4821075721,
				"element": "H" 
			},
			{
				"x": 2.4643922766,
				"y": -1.777846417,
				"z": -0.189824917,
				"element": "H" 
			},
			{
				"x": 0.9567038541,
				"y": -2.3157586507,
				"z": 0.5283102613,
				"element": "H" 
			},
			{
				"x": 0.9867256263,
				"y": 0.0983403069,
				"z": 0.6109762322,
				"element": "H" 
			},
			{
				"x": -0.2498656776,
				"y": -0.3915869063,
				"z": -0.5261928803,
				"element": "H" 
			},
			{
				"x": 2.5816664289,
				"y": 0.4536513815,
				"z": -1.3459121694,
				"element": "H" 
			},
			{
				"x": 1.2464816786,
				"y": 0.1579117139,
				"z": -2.4434857626,
				"element": "H" 
			},
			{
				"x": 1.394084051,
				"y": 2.4343731341,
				"z": -0.3884705268,
				"element": "H" 
			},
			{
				"x": 1.698010861,
				"y": 2.5661368529,
				"z": -2.1191099419,
				"element": "H" 
			},
			{
				"x": -0.7790578831,
				"y": 1.7374374825,
				"z": -2.4179678434,
				"element": "H" 
			},
			{
				"x": -0.4870814964,
				"y": 3.385157036,
				"z": -1.8786679311,
				"element": "H" 
			},
			{
				"x": -2.8637639182,
				"y": 1.527156303,
				"z": -1.4578934926,
				"element": "H" 
			},
			{
				"x": -3.1211007035,
				"y": 1.6584571384,
				"z": 0.2553808175,
				"element": "H" 
			}
		],
		 "valence_orbital": [ 
			{
				"type": "occ",
				"energy": -0.31056,
				"method": "rhf"
			},
			{
				"type": "occ",
				"energy": -0.30397,
				"method": "rhf"
			},
			{
				"type": "occ",
				"energy": -0.30205,
				"method": "rhf"
			},
			{
				"type": "occ",
				"energy": -0.2642,
				"method": "rhf"
			},
			{
				"type": "occ",
				"energy": -0.24381,
				"method": "rhf"
			},
			{
				"type": "unocc",
				"energy": 0.03354,
				"method": "rhf"
			},
			{
				"type": "unocc",
				"energy": 0.0707,
				"method": "rhf"
			},
			{
				"type": "unocc",
				"energy": 0.09558,
				"method": "rhf"
			},
			{
				"type": "unocc",
				"energy": 0.10588,
				"method": "rhf"
			},
			{
				"type": "unocc",
				"energy": 0.12055,
				"method": "rhf"
			}
		],
		"cosmo_sigma_profile": { 
			"-0.025": 0.0,
			"-0.024": 0.0,
			"-0.023": 0.0,
			"-0.022": 0.0,
			"-0.021": 0.0,
			"-0.02": 0.0,
			"-0.019": 0.0,
			"-0.018": 0.0,
			"-0.017": 0.0,
			"-0.016": 0.0,
			"-0.015": 0.0160073878692,
			"-0.014": 0.969941625609,
			"-0.013": 2.75804797948,
			"-0.012": 1.8764324672,
			"-0.011": 2.49705614448,
			"-0.01": 2.5106844254,
			"-0.009": 2.80036928136,
			"-0.008": 1.81397724915,
			"-0.007": 1.79369539955,
			"-0.006": 2.78493394226,
			"-0.005": 3.95444191887,
			"-0.004": 5.27579974046,
			"-0.003": 8.2159556293,
			"-0.002": 25.4974213108,
			"-0.001": 35.6003142832,
			"0.0": 39.5435629767,
			"0.001": 34.0731746783,
			"0.002": 15.0375456097,
			"0.003": 4.2452295652,
			"0.004": 4.49333314411,
			"0.005": 2.19449599053,
			"0.006": 1.91062831018,
			"0.007": 1.62877198816,
			"0.008": 1.69582744188,
			"0.009": 1.64418496752,
			"0.01": 1.78170505916,
			"0.011": 1.15156955526,
			"0.012": 1.85876530512,
			"0.013": 2.22028397023,
			"0.014": 4.43564537112,
			"0.015": 3.00390784063,
			"0.016": 0.0384153422646,
			"0.017": 0.0,
			"0.018": 0.0,
			"0.019": 0.0,
			"0.02": 0.0,
			"0.021": 0.0,
			"0.022": 0.0,
			"0.023": 0.0,
			"0.024": 0.0,
			"0.025": 0.0
		}
	}
}
