{
	 "smiles": "COCCN", 
	 "Tm": 191.15, 
	 "num_atms": 14, 
	 "gaussian": { 
		 "optdone": 1, 
		 "sigma_profile": "yes", 
		 "theory": "DFT", 
		 "functional": "B3LYP", 
		 "basiset": "6-31G**", 
		 "properties": { 
			 "R2extent": 916.1257, 
			 "electric_dipole_moment_norm": 1.47097296372, 
			 "electric_quadrupole_moment_norm": 7.9580584925, 
			 "total_energy": -249.692802156, 
			 "HOMO_LUMO_gap": 0.30324, 
			 "cosmo_polarized_energy": -7.84, 
			 "cosmo_cavitation_energy": 16.56, 
			 "cosmo_dispersion_energy": -12.41, 
			 "cosmo_repulsion_energy": 1.12, 
			 "cosmo_total_nonelectrostatic_energy": 5.27, 
			 "SMD_solvation_energy": 2.21 
		},
		"coords": [
			{
				"x": 1.8777671725,
				"y": -0.3803515183,
				"z": 1.15097276,
				"element": "C" 
			},
			{
				"x": 0.5785278748,
				"y": 0.1759908844,
				"z": 1.1427510834,
				"element": "O" 
			},
			{
				"x": -0.409774637,
				"y": -0.6586061663,
				"z": 0.5628233957,
				"element": "C" 
			},
			{
				"x": -0.9077009862,
				"y": -1.7786551491,
				"z": 1.4918772505,
				"element": "C" 
			},
			{
				"x": -1.9883089269,
				"y": -2.5947383784,
				"z": 0.9357213181,
				"element": "N" 
			},
			{
				"x": 1.9603213863,
				"y": -1.2669722413,
				"z": 1.7963798694,
				"element": "H" 
			},
			{
				"x": 2.5524928522,
				"y": 0.3887856126,
				"z": 1.5355125435,
				"element": "H" 
			},
			{
				"x": 2.2048522938,
				"y": -0.6612697377,
				"z": 0.1369235815,
				"element": "H" 
			},
			{
				"x": -0.0433043567,
				"y": -1.0955035873,
				"z": -0.3836416242,
				"element": "H" 
			},
			{
				"x": -1.2512414224,
				"y": 0.0001143269,
				"z": 0.3133748618,
				"element": "H" 
			},
			{
				"x": -0.08022662,
				"y": -2.4477244855,
				"z": 1.7549457052,
				"element": "H" 
			},
			{
				"x": -1.2535368513,
				"y": -1.3274876324,
				"z": 2.4288490512,
				"element": "H" 
			},
			{
				"x": -2.7833301366,
				"y": -2.0056194555,
				"z": 0.6969334692,
				"element": "H" 
			},
			{
				"x": -1.6864376426,
				"y": -3.0323624721,
				"z": 0.067776735,
				"element": "H" 
			}
		],
		 "valence_orbital": [ 
			{
				"type": "occ",
				"energy": -0.37907,
				"method": "rhf"
			},
			{
				"type": "occ",
				"energy": -0.34967,
				"method": "rhf"
			},
			{
				"type": "occ",
				"energy": -0.3107,
				"method": "rhf"
			},
			{
				"type": "occ",
				"energy": -0.26811,
				"method": "rhf"
			},
			{
				"type": "occ",
				"energy": -0.22581,
				"method": "rhf"
			},
			{
				"type": "unocc",
				"energy": 0.07743,
				"method": "rhf"
			},
			{
				"type": "unocc",
				"energy": 0.09154,
				"method": "rhf"
			},
			{
				"type": "unocc",
				"energy": 0.12301,
				"method": "rhf"
			},
			{
				"type": "unocc",
				"energy": 0.13249,
				"method": "rhf"
			},
			{
				"type": "unocc",
				"energy": 0.14913,
				"method": "rhf"
			}
		],
		"cosmo_sigma_profile": { 
			"-0.025": 0.0,
			"-0.024": 0.0,
			"-0.023": 0.0,
			"-0.022": 0.0,
			"-0.021": 0.0,
			"-0.02": 0.0,
			"-0.019": 0.0,
			"-0.018": 0.0,
			"-0.017": 0.0,
			"-0.016": 0.0,
			"-0.015": 0.0,
			"-0.014": 0.0,
			"-0.013": 0.0,
			"-0.012": 0.0,
			"-0.011": 0.0,
			"-0.01": 0.575928980055,
			"-0.009": 3.25334057693,
			"-0.008": 2.25090394943,
			"-0.007": 3.68914573567,
			"-0.006": 3.99388154878,
			"-0.005": 5.30686093679,
			"-0.004": 12.7930883577,
			"-0.003": 21.0800822139,
			"-0.002": 17.6043508066,
			"-0.001": 11.8985173407,
			"0.0": 6.68473458183,
			"0.001": 4.74674538359,
			"0.002": 3.91659077107,
			"0.003": 2.90011305919,
			"0.004": 2.35898000692,
			"0.005": 2.44642382379,
			"0.006": 1.82372421117,
			"0.007": 2.34823603862,
			"0.008": 2.94694813061,
			"0.009": 1.82967255719,
			"0.01": 2.04115570885,
			"0.011": 1.15892115085,
			"0.012": 1.88899999787,
			"0.013": 2.45801596446,
			"0.014": 2.26374649951,
			"0.015": 0.558923021692,
			"0.016": 0.863270303976,
			"0.017": 0.481491797262,
			"0.018": 0.400755900521,
			"0.019": 0.915529161621,
			"0.02": 0.244247807858,
			"0.021": 0.0,
			"0.022": 0.0,
			"0.023": 0.0,
			"0.024": 0.0,
			"0.025": 0.0
		}
	}
}
