{
	 "smiles": "CC(=O)CN1C(CCl)=NC2=C(C3=C(CCCC3)S2)C1=O", 
	 "Tm": 406.15, 
	 "num_atms": 35, 
	 "gaussian": { 
		 "optdone": 1, 
		 "sigma_profile": "yes", 
		 "theory": "DFT", 
		 "functional": "B3LYP", 
		 "basiset": "6-31G**", 
		 "properties": { 
			 "R2extent": 7786.0813, 
			 "electric_dipole_moment_norm": 3.79664972443, 
			 "electric_quadrupole_moment_norm": 5.19355723662, 
			 "total_energy": -1660.89427401, 
			 "HOMO_LUMO_gap": 0.15374, 
			 "cosmo_polarized_energy": -12.73, 
			 "cosmo_cavitation_energy": 39.96, 
			 "cosmo_dispersion_energy": -28.95, 
			 "cosmo_repulsion_energy": 2.18, 
			 "cosmo_total_nonelectrostatic_energy": 13.19, 
			 "SMD_solvation_energy": 4.58 
		},
		"coords": [
			{
				"x": -2.1447949972,
				"y": -0.1156663997,
				"z": 3.6814684848,
				"element": "C" 
			},
			{
				"x": -2.9319063833,
				"y": 0.7744155594,
				"z": 2.7448825386,
				"element": "C" 
			},
			{
				"x": -4.0939087332,
				"y": 1.0752006815,
				"z": 2.9404238369,
				"element": "O" 
			},
			{
				"x": -2.2023467387,
				"y": 1.3268073224,
				"z": 1.5089136565,
				"element": "C" 
			},
			{
				"x": -1.5303390813,
				"y": 0.2906176858,
				"z": 0.7091029646,
				"element": "N" 
			},
			{
				"x": -2.2263341314,
				"y": -0.4741294751,
				"z": -0.2093315139,
				"element": "C" 
			},
			{
				"x": -3.6926603859,
				"y": -0.2228882524,
				"z": -0.4286592382,
				"element": "C" 
			},
			{
				"x": -3.9678745625,
				"y": 1.2162088931,
				"z": -1.5224621186,
				"element": "Cl" 
			},
			{
				"x": -1.680022549,
				"y": -1.4169547444,
				"z": -0.9285110377,
				"element": "N" 
			},
			{
				"x": -0.3511158779,
				"y": -1.6115905797,
				"z": -0.7446597033,
				"element": "C" 
			},
			{
				"x": 0.4714697585,
				"y": -0.9017384337,
				"z": 0.1250287619,
				"element": "C" 
			},
			{
				"x": 1.8416272089,
				"y": -1.3347660044,
				"z": 0.0966251458,
				"element": "C" 
			},
			{
				"x": 2.0296531658,
				"y": -2.3581427735,
				"z": -0.7958543746,
				"element": "C" 
			},
			{
				"x": 3.341054142,
				"y": -3.0428618115,
				"z": -1.0682876664,
				"element": "C" 
			},
			{
				"x": 4.5062978992,
				"y": -2.2009298697,
				"z": -0.514906971,
				"element": "C" 
			},
			{
				"x": 4.2010696551,
				"y": -1.6902174545,
				"z": 0.9007033814,
				"element": "C" 
			},
			{
				"x": 2.9743379467,
				"y": -0.7630197796,
				"z": 0.915761624,
				"element": "C" 
			},
			{
				"x": 0.5474242895,
				"y": -2.8273311389,
				"z": -1.6166154233,
				"element": "S" 
			},
			{
				"x": -0.1267168086,
				"y": 0.1267266901,
				"z": 0.9436510038,
				"element": "C" 
			},
			{
				"x": 0.4408539984,
				"y": 0.8187801934,
				"z": 1.7865055374,
				"element": "O" 
			},
			{
				"x": -2.7012660093,
				"y": -0.2490196229,
				"z": 4.6099445366,
				"element": "H" 
			},
			{
				"x": -1.9911192599,
				"y": -1.0973540976,
				"z": 3.2170574995,
				"element": "H" 
			},
			{
				"x": -1.1509779131,
				"y": 0.3004436848,
				"z": 3.8699823994,
				"element": "H" 
			},
			{
				"x": -2.9110180636,
				"y": 1.8813475798,
				"z": 0.8955122605,
				"element": "H" 
			},
			{
				"x": -1.4094302201,
				"y": 1.9987590055,
				"z": 1.8500192217,
				"element": "H" 
			},
			{
				"x": -4.1047035732,
				"y": -1.0854269108,
				"z": -0.9461920095,
				"element": "H" 
			},
			{
				"x": -4.2486725716,
				"y": -0.0172170355,
				"z": 0.4851441992,
				"element": "H" 
			},
			{
				"x": 3.3433918331,
				"y": -4.0370966243,
				"z": -0.5984709395,
				"element": "H" 
			},
			{
				"x": 3.471665859,
				"y": -3.2142073797,
				"z": -2.1435961308,
				"element": "H" 
			},
			{
				"x": 4.6809701548,
				"y": -1.3451744227,
				"z": -1.179671353,
				"element": "H" 
			},
			{
				"x": 5.4232885114,
				"y": -2.8000619315,
				"z": -0.5206748177,
				"element": "H" 
			},
			{
				"x": 5.0682839662,
				"y": -1.1601223908,
				"z": 1.3089358697,
				"element": "H" 
			},
			{
				"x": 4.0177704715,
				"y": -2.5488887417,
				"z": 1.5604853091,
				"element": "H" 
			},
			{
				"x": 2.633032086,
				"y": -0.5742080834,
				"z": 1.937482221,
				"element": "H" 
			},
			{
				"x": 3.2430169139,
				"y": 0.2238066619,
				"z": 0.513962845,
				"element": "H" 
			}
		],
		 "valence_orbital": [ 
			{
				"type": "occ",
				"energy": -0.29295,
				"method": "rhf"
			},
			{
				"type": "occ",
				"energy": -0.2746,
				"method": "rhf"
			},
			{
				"type": "occ",
				"energy": -0.26291,
				"method": "rhf"
			},
			{
				"type": "occ",
				"energy": -0.2587,
				"method": "rhf"
			},
			{
				"type": "occ",
				"energy": -0.22165,
				"method": "rhf"
			},
			{
				"type": "unocc",
				"energy": -0.06791,
				"method": "rhf"
			},
			{
				"type": "unocc",
				"energy": -0.03684,
				"method": "rhf"
			},
			{
				"type": "unocc",
				"energy": -0.01912,
				"method": "rhf"
			},
			{
				"type": "unocc",
				"energy": 0.0063,
				"method": "rhf"
			},
			{
				"type": "unocc",
				"energy": 0.01293,
				"method": "rhf"
			}
		],
		"cosmo_sigma_profile": { 
			"-0.025": 0.0,
			"-0.024": 0.0,
			"-0.023": 0.0,
			"-0.022": 0.0,
			"-0.021": 0.0,
			"-0.02": 0.0,
			"-0.019": 0.0,
			"-0.018": 0.0,
			"-0.017": 0.0,
			"-0.016": 0.0,
			"-0.015": 0.0,
			"-0.014": 0.0,
			"-0.013": 0.0,
			"-0.012": 0.0,
			"-0.011": 0.0145364066254,
			"-0.01": 0.741589446272,
			"-0.009": 2.13191990164,
			"-0.008": 5.34348563472,
			"-0.007": 8.52507867697,
			"-0.006": 9.85215638917,
			"-0.005": 14.7207434104,
			"-0.004": 20.8454538243,
			"-0.003": 33.0739203052,
			"-0.002": 37.6094970957,
			"-0.001": 34.6266382419,
			"0.0": 29.8107582416,
			"0.001": 24.309948889,
			"0.002": 21.728366974,
			"0.003": 16.5942373223,
			"0.004": 14.1492520056,
			"0.005": 11.4483566793,
			"0.006": 6.88627785192,
			"0.007": 3.07569102524,
			"0.008": 3.91045114584,
			"0.009": 4.45781090851,
			"0.01": 4.50879403423,
			"0.011": 6.92727326257,
			"0.012": 4.53453868038,
			"0.013": 0.954596943726,
			"0.014": 0.0,
			"0.015": 0.0,
			"0.016": 0.0,
			"0.017": 0.0,
			"0.018": 0.0,
			"0.019": 0.0,
			"0.02": 0.0,
			"0.021": 0.0,
			"0.022": 0.0,
			"0.023": 0.0,
			"0.024": 0.0,
			"0.025": 0.0
		}
	}
}
