{
	 "smiles": "COC1=CC=C2C(C)C(CCC2=C1)C(O)=O", 
	 "Tm": 406.15, 
	 "num_atms": 32, 
	 "gaussian": { 
		 "optdone": 1, 
		 "sigma_profile": "yes", 
		 "theory": "DFT", 
		 "functional": "B3LYP", 
		 "basiset": "6-31G**", 
		 "properties": { 
			 "R2extent": 4315.0359, 
			 "electric_dipole_moment_norm": 2.25843999478, 
			 "electric_quadrupole_moment_norm": 9.39430401626, 
			 "total_energy": -730.719734107, 
			 "HOMO_LUMO_gap": 0.20551, 
			 "cosmo_polarized_energy": -11.63, 
			 "cosmo_cavitation_energy": 33.39, 
			 "cosmo_dispersion_energy": -24.08, 
			 "cosmo_repulsion_energy": 1.87, 
			 "cosmo_total_nonelectrostatic_energy": 11.18, 
			 "SMD_solvation_energy": 7.02 
		},
		"coords": [
			{
				"x": -3.6284229755,
				"y": -2.4812871634,
				"z": -3.6646426239,
				"element": "C" 
			},
			{
				"x": -2.2528411453,
				"y": -2.1679471321,
				"z": -3.5305928603,
				"element": "O" 
			},
			{
				"x": -1.8586846689,
				"y": -1.4512768105,
				"z": -2.4347245181,
				"element": "C" 
			},
			{
				"x": -2.7185715541,
				"y": -1.0008890033,
				"z": -1.4253356183,
				"element": "C" 
			},
			{
				"x": -2.1848276553,
				"y": -0.2739347608,
				"z": -0.3622543535,
				"element": "C" 
			},
			{
				"x": -0.8206136371,
				"y": 0.0229314876,
				"z": -0.2659471488,
				"element": "C" 
			},
			{
				"x": -0.325951205,
				"y": 0.8698767984,
				"z": 0.9013028288,
				"element": "C" 
			},
			{
				"x": -0.7030259845,
				"y": 2.3547344403,
				"z": 0.7108700093,
				"element": "C" 
			},
			{
				"x": 1.2015092519,
				"y": 0.7097327644,
				"z": 1.1257543264,
				"element": "C" 
			},
			{
				"x": 1.9763750431,
				"y": 0.828824546,
				"z": -0.1949716171,
				"element": "C" 
			},
			{
				"x": 1.5411286927,
				"y": -0.2339312227,
				"z": -1.2123125778,
				"element": "C" 
			},
			{
				"x": 0.0393437756,
				"y": -0.4453148916,
				"z": -1.2798317449,
				"element": "C" 
			},
			{
				"x": -0.4919511639,
				"y": -1.1718319088,
				"z": -2.3481175905,
				"element": "C" 
			},
			{
				"x": 1.5614010332,
				"y": -0.5741236181,
				"z": 1.8629199426,
				"element": "C" 
			},
			{
				"x": 0.8214741921,
				"y": -0.7431120939,
				"z": 2.9880274261,
				"element": "O" 
			},
			{
				"x": 2.4312420457,
				"y": -1.3596727211,
				"z": 1.55021311,
				"element": "O" 
			},
			{
				"x": -3.9884670974,
				"y": -3.0998526933,
				"z": -2.8318957239,
				"element": "H" 
			},
			{
				"x": -3.7211044079,
				"y": -3.0454340793,
				"z": -4.5942711445,
				"element": "H" 
			},
			{
				"x": -4.2478673632,
				"y": -1.5769690549,
				"z": -3.7298968501,
				"element": "H" 
			},
			{
				"x": -3.781630391,
				"y": -1.2083154808,
				"z": -1.4543821393,
				"element": "H" 
			},
			{
				"x": -2.8560647297,
				"y": 0.0724795403,
				"z": 0.4210146932,
				"element": "H" 
			},
			{
				"x": -0.8323798227,
				"y": 0.5259108992,
				"z": 1.8093509858,
				"element": "H" 
			},
			{
				"x": -0.2276016742,
				"y": 2.7833631988,
				"z": -0.1769079799,
				"element": "H" 
			},
			{
				"x": -0.4049818949,
				"y": 2.9497872446,
				"z": 1.5818865459,
				"element": "H" 
			},
			{
				"x": -1.7842350666,
				"y": 2.4609337805,
				"z": 0.5830128761,
				"element": "H" 
			},
			{
				"x": 1.516508909,
				"y": 1.5136983707,
				"z": 1.8064036338,
				"element": "H" 
			},
			{
				"x": 3.0499451127,
				"y": 0.7388790962,
				"z": -0.0068410268,
				"element": "H" 
			},
			{
				"x": 1.8051871389,
				"y": 1.831281651,
				"z": -0.6023387774,
				"element": "H" 
			},
			{
				"x": 1.9206181662,
				"y": 0.0277069523,
				"z": -2.2070444568,
				"element": "H" 
			},
			{
				"x": 2.0132611038,
				"y": -1.1860895163,
				"z": -0.943942114,
				"element": "H" 
			},
			{
				"x": 0.1563213614,
				"y": -1.5413406574,
				"z": -3.1379037934,
				"element": "H" 
			},
			{
				"x": 1.139806611,
				"y": -1.5673179619,
				"z": 3.3930982814,
				"element": "H" 
			}
		],
		 "valence_orbital": [ 
			{
				"type": "occ",
				"energy": -0.30547,
				"method": "rhf"
			},
			{
				"type": "occ",
				"energy": -0.3006,
				"method": "rhf"
			},
			{
				"type": "occ",
				"energy": -0.27,
				"method": "rhf"
			},
			{
				"type": "occ",
				"energy": -0.23438,
				"method": "rhf"
			},
			{
				"type": "occ",
				"energy": -0.20816,
				"method": "rhf"
			},
			{
				"type": "unocc",
				"energy": -0.00265,
				"method": "rhf"
			},
			{
				"type": "unocc",
				"energy": 0.01332,
				"method": "rhf"
			},
			{
				"type": "unocc",
				"energy": 0.02017,
				"method": "rhf"
			},
			{
				"type": "unocc",
				"energy": 0.07772,
				"method": "rhf"
			},
			{
				"type": "unocc",
				"energy": 0.09013,
				"method": "rhf"
			}
		],
		"cosmo_sigma_profile": { 
			"-0.025": 0.0,
			"-0.024": 0.0,
			"-0.023": 0.0,
			"-0.022": 0.0,
			"-0.021": 0.0,
			"-0.02": 0.0,
			"-0.019": 0.0,
			"-0.018": 0.477975543189,
			"-0.017": 0.946887053813,
			"-0.016": 0.846880002443,
			"-0.015": 0.685171432442,
			"-0.014": 0.787404102672,
			"-0.013": 0.818974166073,
			"-0.012": 0.459908787061,
			"-0.011": 0.895361385076,
			"-0.01": 0.959307157907,
			"-0.009": 0.351621931003,
			"-0.008": 0.366587680451,
			"-0.007": 0.371383076706,
			"-0.006": 6.22543570163,
			"-0.005": 17.4310798359,
			"-0.004": 23.7464678349,
			"-0.003": 30.917209184,
			"-0.002": 26.9087397547,
			"-0.001": 24.7698307529,
			"0.0": 21.8759420065,
			"0.001": 16.9676186757,
			"0.002": 12.9770570626,
			"0.003": 9.53916620838,
			"0.004": 12.211081702,
			"0.005": 12.6606579887,
			"0.006": 11.7446764888,
			"0.007": 6.88446738216,
			"0.008": 3.31405657358,
			"0.009": 3.93286716864,
			"0.01": 3.67587113303,
			"0.011": 3.8859680823,
			"0.012": 3.91797520543,
			"0.013": 0.138176767288,
			"0.014": 0.0,
			"0.015": 0.0,
			"0.016": 0.0,
			"0.017": 0.0,
			"0.018": 0.0,
			"0.019": 0.0,
			"0.02": 0.0,
			"0.021": 0.0,
			"0.022": 0.0,
			"0.023": 0.0,
			"0.024": 0.0,
			"0.025": 0.0
		}
	}
}
