{
	 "smiles": "CC(C)C(N1CCCC1=O)C(O)=O", 
	 "Tm": 404.15, 
	 "num_atms": 28, 
	 "gaussian": { 
		 "optdone": 1, 
		 "sigma_profile": "yes", 
		 "theory": "DFT", 
		 "functional": "B3LYP", 
		 "basiset": "6-31G**", 
		 "properties": { 
			 "R2extent": 2677.9372, 
			 "electric_dipole_moment_norm": 3.10790059526, 
			 "electric_quadrupole_moment_norm": 16.0065809894, 
			 "total_energy": -632.461832774, 
			 "HOMO_LUMO_gap": 0.23902, 
			 "cosmo_polarized_energy": -13.84, 
			 "cosmo_cavitation_energy": 29.47, 
			 "cosmo_dispersion_energy": -20.69, 
			 "cosmo_repulsion_energy": 1.66, 
			 "cosmo_total_nonelectrostatic_energy": 10.43, 
			 "SMD_solvation_energy": 6.55 
		},
		"coords": [
			{
				"x": 1.9743597133,
				"y": 1.0552096945,
				"z": 0.3557724605,
				"element": "C" 
			},
			{
				"x": 1.1217040732,
				"y": 1.1485338068,
				"z": -0.9201725246,
				"element": "C" 
			},
			{
				"x": 1.0634478984,
				"y": 2.5952176721,
				"z": -1.4346366521,
				"element": "C" 
			},
			{
				"x": -0.3110687042,
				"y": 0.528898733,
				"z": -0.7738763059,
				"element": "C" 
			},
			{
				"x": -0.3652717485,
				"y": -0.8950539668,
				"z": -1.0409436068,
				"element": "N" 
			},
			{
				"x": 0.3566470465,
				"y": -1.9359262679,
				"z": -0.3071787613,
				"element": "C" 
			},
			{
				"x": -0.3412522346,
				"y": -3.2318523543,
				"z": -0.7713728485,
				"element": "C" 
			},
			{
				"x": -0.8706987944,
				"y": -2.8850206484,
				"z": -2.1707938796,
				"element": "C" 
			},
			{
				"x": -1.0641240369,
				"y": -1.370538229,
				"z": -2.1292182959,
				"element": "C" 
			},
			{
				"x": -1.6985455656,
				"y": -0.6841797358,
				"z": -2.9168637761,
				"element": "O" 
			},
			{
				"x": -0.9650604827,
				"y": 0.8442604748,
				"z": 0.5700637783,
				"element": "C" 
			},
			{
				"x": -1.1909351641,
				"y": 2.1728965896,
				"z": 0.7116356756,
				"element": "O" 
			},
			{
				"x": -1.258554829,
				"y": 0.0445333601,
				"z": 1.4310726652,
				"element": "O" 
			},
			{
				"x": 2.9929902484,
				"y": 1.401569187,
				"z": 0.1535382658,
				"element": "H" 
			},
			{
				"x": 2.041435616,
				"y": 0.0348695755,
				"z": 0.7432748211,
				"element": "H" 
			},
			{
				"x": 1.5655827923,
				"y": 1.6902396228,
				"z": 1.1496024336,
				"element": "H" 
			},
			{
				"x": 1.5998216021,
				"y": 0.5399798798,
				"z": -1.6983258182,
				"element": "H" 
			},
			{
				"x": 0.5212164746,
				"y": 2.6559580191,
				"z": -2.3838873917,
				"element": "H" 
			},
			{
				"x": 0.5647802232,
				"y": 3.252472689,
				"z": -0.7171309767,
				"element": "H" 
			},
			{
				"x": 2.0754739474,
				"y": 2.9795114088,
				"z": -1.6005094635,
				"element": "H" 
			},
			{
				"x": -0.947122291,
				"y": 0.971320331,
				"z": -1.5494719503,
				"element": "H" 
			},
			{
				"x": 1.4229748552,
				"y": -1.9390018243,
				"z": -0.5777957914,
				"element": "H" 
			},
			{
				"x": 0.2688673084,
				"y": -1.7752265422,
				"z": 0.7686469657,
				"element": "H" 
			},
			{
				"x": -1.1776743139,
				"y": -3.4501388827,
				"z": -0.1002920241,
				"element": "H" 
			},
			{
				"x": 0.3349693836,
				"y": -4.0899224225,
				"z": -0.7578114396,
				"element": "H" 
			},
			{
				"x": -1.8063824199,
				"y": -3.3793571186,
				"z": -2.4396629775,
				"element": "H" 
			},
			{
				"x": -0.1414958424,
				"y": -3.1121212521,
				"z": -2.9587814049,
				"element": "H" 
			},
			{
				"x": -1.5944847553,
				"y": 2.2860682006,
				"z": 1.5892188228,
				"element": "H" 
			}
		],
		 "valence_orbital": [ 
			{
				"type": "occ",
				"energy": -0.33111,
				"method": "rhf"
			},
			{
				"type": "occ",
				"energy": -0.32388,
				"method": "rhf"
			},
			{
				"type": "occ",
				"energy": -0.28279,
				"method": "rhf"
			},
			{
				"type": "occ",
				"energy": -0.244,
				"method": "rhf"
			},
			{
				"type": "occ",
				"energy": -0.23752,
				"method": "rhf"
			},
			{
				"type": "unocc",
				"energy": 0.0015,
				"method": "rhf"
			},
			{
				"type": "unocc",
				"energy": 0.03196,
				"method": "rhf"
			},
			{
				"type": "unocc",
				"energy": 0.06711,
				"method": "rhf"
			},
			{
				"type": "unocc",
				"energy": 0.08421,
				"method": "rhf"
			},
			{
				"type": "unocc",
				"energy": 0.10078,
				"method": "rhf"
			}
		],
		"cosmo_sigma_profile": { 
			"-0.025": 0.0,
			"-0.024": 0.0,
			"-0.023": 0.0,
			"-0.022": 0.0,
			"-0.021": 0.0,
			"-0.02": 0.0,
			"-0.019": 0.078956358848,
			"-0.018": 0.834093040966,
			"-0.017": 1.05719562181,
			"-0.016": 0.725112349055,
			"-0.015": 1.06198919971,
			"-0.014": 0.577206821863,
			"-0.013": 0.213340809189,
			"-0.012": 0.456378962891,
			"-0.011": 1.08864145252,
			"-0.01": 0.925965124113,
			"-0.009": 0.399655242893,
			"-0.008": 0.759951820449,
			"-0.007": 0.944405417144,
			"-0.006": 2.33166977314,
			"-0.005": 6.67928355294,
			"-0.004": 24.1279692401,
			"-0.003": 38.0225641951,
			"-0.002": 29.3325558364,
			"-0.001": 24.4003283844,
			"0.0": 21.8714904747,
			"0.001": 17.0305092368,
			"0.002": 6.20803760738,
			"0.003": 4.88490976477,
			"0.004": 5.22318645853,
			"0.005": 4.40533880788,
			"0.006": 3.28503136252,
			"0.007": 3.52006108188,
			"0.008": 3.41189577565,
			"0.009": 3.54102901902,
			"0.01": 3.08260649807,
			"0.011": 5.56859073702,
			"0.012": 3.63684337424,
			"0.013": 3.9522440467,
			"0.014": 4.3806311449,
			"0.015": 1.24853756145,
			"0.016": 0.00671145894847,
			"0.017": 0.0,
			"0.018": 0.0,
			"0.019": 0.0,
			"0.02": 0.0,
			"0.021": 0.0,
			"0.022": 0.0,
			"0.023": 0.0,
			"0.024": 0.0,
			"0.025": 0.0
		}
	}
}
