{
	 "smiles": "NCC(O)COC1=C(Cl)C(Cl)=CC=C1", 
	 "Tm": 384.15, 
	 "num_atms": 25, 
	 "gaussian": { 
		 "optdone": 1, 
		 "sigma_profile": "yes", 
		 "theory": "DFT", 
		 "functional": "B3LYP", 
		 "basiset": "6-31G**", 
		 "properties": { 
			 "R2extent": 4222.5008, 
			 "electric_dipole_moment_norm": 4.99004624227, 
			 "electric_quadrupole_moment_norm": 8.37280958759, 
			 "total_energy": -1475.1415215, 
			 "HOMO_LUMO_gap": 0.20956, 
			 "cosmo_polarized_energy": -13.32, 
			 "cosmo_cavitation_energy": 31.41, 
			 "cosmo_dispersion_energy": -22.7, 
			 "cosmo_repulsion_energy": 1.81, 
			 "cosmo_total_nonelectrostatic_energy": 10.52, 
			 "SMD_solvation_energy": 3.55 
		},
		"coords": [
			{
				"x": -1.3097169014,
				"y": -2.881224967,
				"z": 0.4664852193,
				"element": "N" 
			},
			{
				"x": -0.1498939707,
				"y": -3.3593086997,
				"z": 1.2092674966,
				"element": "C" 
			},
			{
				"x": 1.2029031746,
				"y": -2.67046619,
				"z": 0.9214386754,
				"element": "C" 
			},
			{
				"x": 1.4993512678,
				"y": -2.6801521629,
				"z": -0.4759067013,
				"element": "O" 
			},
			{
				"x": 1.3162937566,
				"y": -1.2316284553,
				"z": 1.420298919,
				"element": "C" 
			},
			{
				"x": 0.2432865047,
				"y": -0.3678269891,
				"z": 1.0216841596,
				"element": "O" 
			},
			{
				"x": 0.4258857452,
				"y": 0.5522097075,
				"z": 0.0340357316,
				"element": "C" 
			},
			{
				"x": -0.3864821913,
				"y": 1.7049099693,
				"z": 0.0990502736,
				"element": "C" 
			},
			{
				"x": -1.5142616857,
				"y": 1.869605839,
				"z": 1.4171507833,
				"element": "Cl" 
			},
			{
				"x": -0.2673612874,
				"y": 2.6877715744,
				"z": -0.8905008386,
				"element": "C" 
			},
			{
				"x": -1.2555363679,
				"y": 4.1303403008,
				"z": -0.8446591503,
				"element": "Cl" 
			},
			{
				"x": 0.6515320415,
				"y": 2.5435155789,
				"z": -1.9322595469,
				"element": "C" 
			},
			{
				"x": 1.4422475607,
				"y": 1.4001788673,
				"z": -1.9875257106,
				"element": "C" 
			},
			{
				"x": 1.3317009849,
				"y": 0.4018145613,
				"z": -1.0204886917,
				"element": "C" 
			},
			{
				"x": -1.5023292636,
				"y": -1.9199446729,
				"z": 0.7358320822,
				"element": "H" 
			},
			{
				"x": -1.0696109279,
				"y": -2.8423544231,
				"z": -0.5221141218,
				"element": "H" 
			},
			{
				"x": -0.3609777355,
				"y": -3.2927008367,
				"z": 2.2837971839,
				"element": "H" 
			},
			{
				"x": -0.0218526685,
				"y": -4.4310218798,
				"z": 0.9947430862,
				"element": "H" 
			},
			{
				"x": 1.985674045,
				"y": -3.2192402277,
				"z": 1.4764307628,
				"element": "H" 
			},
			{
				"x": 1.5035100372,
				"y": -3.5980335718,
				"z": -0.7780686242,
				"element": "H" 
			},
			{
				"x": 1.2786699742,
				"y": -1.2478863923,
				"z": 2.5148735761,
				"element": "H" 
			},
			{
				"x": 2.2782977168,
				"y": -0.8069092534,
				"z": 1.1145955705,
				"element": "H" 
			},
			{
				"x": 0.7278408457,
				"y": 3.3194122137,
				"z": -2.6847804749,
				"element": "H" 
			},
			{
				"x": 2.1458879137,
				"y": 1.2751240063,
				"z": -2.8047365931,
				"element": "H" 
			},
			{
				"x": 1.9054414315,
				"y": -0.5130838967,
				"z": -1.0993430666,
				"element": "H" 
			}
		],
		 "valence_orbital": [ 
			{
				"type": "occ",
				"energy": -0.29921,
				"method": "rhf"
			},
			{
				"type": "occ",
				"energy": -0.2976,
				"method": "rhf"
			},
			{
				"type": "occ",
				"energy": -0.2449,
				"method": "rhf"
			},
			{
				"type": "occ",
				"energy": -0.23793,
				"method": "rhf"
			},
			{
				"type": "occ",
				"energy": -0.22774,
				"method": "rhf"
			},
			{
				"type": "unocc",
				"energy": -0.01818,
				"method": "rhf"
			},
			{
				"type": "unocc",
				"energy": -0.00717,
				"method": "rhf"
			},
			{
				"type": "unocc",
				"energy": 0.00682,
				"method": "rhf"
			},
			{
				"type": "unocc",
				"energy": 0.04663,
				"method": "rhf"
			},
			{
				"type": "unocc",
				"energy": 0.07038,
				"method": "rhf"
			}
		],
		"cosmo_sigma_profile": { 
			"-0.025": 0.0,
			"-0.024": 0.0,
			"-0.023": 0.0,
			"-0.022": 0.0,
			"-0.021": 0.0,
			"-0.02": 0.0,
			"-0.019": 0.0,
			"-0.018": 0.0,
			"-0.017": 0.0,
			"-0.016": 0.485149783535,
			"-0.015": 0.955741427509,
			"-0.014": 1.06399235684,
			"-0.013": 1.4480743056,
			"-0.012": 0.768732786704,
			"-0.011": 0.727910106181,
			"-0.01": 1.3649787721,
			"-0.009": 1.04714790847,
			"-0.008": 2.23099125689,
			"-0.007": 6.44096979611,
			"-0.006": 13.1773386568,
			"-0.005": 18.4465507273,
			"-0.004": 19.7605057768,
			"-0.003": 16.1276629903,
			"-0.002": 14.808598379,
			"-0.001": 14.3909338102,
			"0.0": 16.1895599989,
			"0.001": 22.893503958,
			"0.002": 21.5485466983,
			"0.003": 20.9262735922,
			"0.004": 22.6215279358,
			"0.005": 12.6552510892,
			"0.006": 5.10899883429,
			"0.007": 3.13425385136,
			"0.008": 3.79039775365,
			"0.009": 2.55064059977,
			"0.01": 1.15043410165,
			"0.011": 0.83879128328,
			"0.012": 1.04646815438,
			"0.013": 0.628842081928,
			"0.014": 0.103173739239,
			"0.015": 0.727989488098,
			"0.016": 1.19038877639,
			"0.017": 0.395022467788,
			"0.018": 0.803356138796,
			"0.019": 0.515881499283,
			"0.02": 0.505006320409,
			"0.021": 0.0,
			"0.022": 0.0,
			"0.023": 0.0,
			"0.024": 0.0,
			"0.025": 0.0
		}
	}
}
