{
	 "smiles": "COC1=CC(OC)=NC(N)=N1", 
	 "Tm": 368.15, 
	 "num_atms": 20, 
	 "gaussian": { 
		 "optdone": 1, 
		 "sigma_profile": "yes", 
		 "theory": "DFT", 
		 "functional": "B3LYP", 
		 "basiset": "6-31G**", 
		 "properties": { 
			 "R2extent": 2761.7236, 
			 "electric_dipole_moment_norm": 2.18602861143, 
			 "electric_quadrupole_moment_norm": 8.84005394214, 
			 "total_energy": -548.776426839, 
			 "HOMO_LUMO_gap": 0.22141, 
			 "cosmo_polarized_energy": -9.88, 
			 "cosmo_cavitation_energy": 24.31, 
			 "cosmo_dispersion_energy": -18.3, 
			 "cosmo_repulsion_energy": 1.52, 
			 "cosmo_total_nonelectrostatic_energy": 7.52, 
			 "SMD_solvation_energy": 4.22 
		},
		"coords": [
			{
				"x": -1.554557145,
				"y": 1.135872728,
				"z": 0.2186299711,
				"element": "C" 
			},
			{
				"x": -0.7481602919,
				"y": 0.3152446465,
				"z": 1.0689544118,
				"element": "O" 
			},
			{
				"x": 0.2937697704,
				"y": -0.3264573007,
				"z": 0.5066320914,
				"element": "C" 
			},
			{
				"x": 1.074274964,
				"y": -1.1313099234,
				"z": 1.3383295442,
				"element": "C" 
			},
			{
				"x": 2.1445200544,
				"y": -1.7652786768,
				"z": 0.7047988188,
				"element": "C" 
			},
			{
				"x": 2.9351986234,
				"y": -2.5482855686,
				"z": 1.4633177018,
				"element": "O" 
			},
			{
				"x": 4.029099066,
				"y": -3.2052553014,
				"z": 0.8163860647,
				"element": "C" 
			},
			{
				"x": 2.4193100624,
				"y": -1.63306961,
				"z": -0.5948134164,
				"element": "N" 
			},
			{
				"x": 1.584191812,
				"y": -0.8364430946,
				"z": -1.2830062351,
				"element": "C" 
			},
			{
				"x": 1.8176348694,
				"y": -0.7211227013,
				"z": -2.6259298889,
				"element": "N" 
			},
			{
				"x": 0.5278962037,
				"y": -0.1626277248,
				"z": -0.7973329523,
				"element": "N" 
			},
			{
				"x": -2.3314958268,
				"y": 1.5443421473,
				"z": 0.8664236524,
				"element": "H" 
			},
			{
				"x": -2.0024215761,
				"y": 0.5490669658,
				"z": -0.5880711808,
				"element": "H" 
			},
			{
				"x": -0.9663560323,
				"y": 1.9448402728,
				"z": -0.2237066825,
				"element": "H" 
			},
			{
				"x": 0.8693304776,
				"y": -1.2497248013,
				"z": 2.3926176272,
				"element": "H" 
			},
			{
				"x": 4.7262216391,
				"y": -2.4811425906,
				"z": 0.3854086341,
				"element": "H" 
			},
			{
				"x": 3.6776757573,
				"y": -3.8673438774,
				"z": 0.020247098,
				"element": "H" 
			},
			{
				"x": 4.5211545017,
				"y": -3.7830621516,
				"z": 1.6000560457,
				"element": "H" 
			},
			{
				"x": 1.3597734962,
				"y": 0.0382930423,
				"z": -3.1037191646,
				"element": "H" 
			},
			{
				"x": 2.7205395743,
				"y": -1.0196364802,
				"z": -2.9580221406,
				"element": "H" 
			}
		],
		 "valence_orbital": [ 
			{
				"type": "occ",
				"energy": -0.30472,
				"method": "rhf"
			},
			{
				"type": "occ",
				"energy": -0.27071,
				"method": "rhf"
			},
			{
				"type": "occ",
				"energy": -0.25892,
				"method": "rhf"
			},
			{
				"type": "occ",
				"energy": -0.25442,
				"method": "rhf"
			},
			{
				"type": "occ",
				"energy": -0.21112,
				"method": "rhf"
			},
			{
				"type": "unocc",
				"energy": 0.01029,
				"method": "rhf"
			},
			{
				"type": "unocc",
				"energy": 0.0151,
				"method": "rhf"
			},
			{
				"type": "unocc",
				"energy": 0.09378,
				"method": "rhf"
			},
			{
				"type": "unocc",
				"energy": 0.12099,
				"method": "rhf"
			},
			{
				"type": "unocc",
				"energy": 0.1254,
				"method": "rhf"
			}
		],
		"cosmo_sigma_profile": { 
			"-0.025": 0.0,
			"-0.024": 0.0,
			"-0.023": 0.0,
			"-0.022": 0.0,
			"-0.021": 0.0,
			"-0.02": 0.0,
			"-0.019": 0.0,
			"-0.018": 0.0,
			"-0.017": 0.0,
			"-0.016": 0.0,
			"-0.015": 0.0,
			"-0.014": 0.452573373414,
			"-0.013": 1.93656412063,
			"-0.012": 2.46835599698,
			"-0.011": 1.4423709511,
			"-0.01": 1.66230844047,
			"-0.009": 2.19719406028,
			"-0.008": 1.6588903576,
			"-0.007": 2.28804792688,
			"-0.006": 6.53977273523,
			"-0.005": 13.8953736202,
			"-0.004": 14.5164507111,
			"-0.003": 20.6720494771,
			"-0.002": 11.9440458113,
			"-0.001": 10.3819968988,
			"0.0": 12.4213493175,
			"0.001": 14.7203025041,
			"0.002": 11.0652730772,
			"0.003": 11.4545070397,
			"0.004": 10.9454058247,
			"0.005": 8.04261571272,
			"0.006": 7.07053506602,
			"0.007": 6.39048793177,
			"0.008": 6.01252533412,
			"0.009": 6.40454505482,
			"0.01": 5.05594981776,
			"0.011": 0.871917824404,
			"0.012": 0.0,
			"0.013": 0.0,
			"0.014": 0.0,
			"0.015": 0.0,
			"0.016": 0.0,
			"0.017": 0.0,
			"0.018": 0.0,
			"0.019": 0.0,
			"0.02": 0.0,
			"0.021": 0.0,
			"0.022": 0.0,
			"0.023": 0.0,
			"0.024": 0.0,
			"0.025": 0.0
		}
	}
}
