{
	 "smiles": "FC1=CC2=C(C=C1)C=CC(Cl)=N2", 
	 "Tm": 371.15, 
	 "num_atms": 17, 
	 "gaussian": { 
		 "optdone": 1, 
		 "sigma_profile": "yes", 
		 "theory": "DFT", 
		 "functional": "B3LYP", 
		 "basiset": "6-31G**", 
		 "properties": { 
			 "R2extent": 3066.2478, 
			 "electric_dipole_moment_norm": 3.79218490187, 
			 "electric_quadrupole_moment_norm": 2.58094260882, 
			 "total_energy": -960.757777613, 
			 "HOMO_LUMO_gap": 0.18011, 
			 "cosmo_polarized_energy": -7.39, 
			 "cosmo_cavitation_energy": 23.9, 
			 "cosmo_dispersion_energy": -17.96, 
			 "cosmo_repulsion_energy": 1.39, 
			 "cosmo_total_nonelectrostatic_energy": 7.32, 
			 "SMD_solvation_energy": 2.68 
		},
		"coords": [
			{
				"x": 0.7061292132,
				"y": -4.0457359575,
				"z": -1.9144945251,
				"element": "F" 
			},
			{
				"x": 0.4199719393,
				"y": -2.8388892474,
				"z": -1.3901563513,
				"element": "C" 
			},
			{
				"x": 1.2944880048,
				"y": -1.7968312675,
				"z": -1.5735140207,
				"element": "C" 
			},
			{
				"x": 0.9760853626,
				"y": -0.5345414634,
				"z": -1.0143017866,
				"element": "C" 
			},
			{
				"x": -0.2405228577,
				"y": -0.3747079208,
				"z": -0.2764142669,
				"element": "C" 
			},
			{
				"x": -1.1058757751,
				"y": -1.4880755007,
				"z": -0.1196337569,
				"element": "C" 
			},
			{
				"x": -0.7854329496,
				"y": -2.7091856855,
				"z": -0.6676421225,
				"element": "C" 
			},
			{
				"x": -0.5122346561,
				"y": 0.9093588468,
				"z": 0.2628351692,
				"element": "C" 
			},
			{
				"x": 0.3764194277,
				"y": 1.9377007823,
				"z": 0.0672991418,
				"element": "C" 
			},
			{
				"x": 1.5472199846,
				"y": 1.6507077641,
				"z": -0.6827678068,
				"element": "C" 
			},
			{
				"x": 2.6893671209,
				"y": 2.9731593875,
				"z": -0.9338904805,
				"element": "Cl" 
			},
			{
				"x": 1.8518765985,
				"y": 0.4982940581,
				"z": -1.2011844656,
				"element": "N" 
			},
			{
				"x": 2.2143238228,
				"y": -1.9201517815,
				"z": -2.1321992327,
				"element": "H" 
			},
			{
				"x": -2.0287844754,
				"y": -1.3659483702,
				"z": 0.4404352579,
				"element": "H" 
			},
			{
				"x": -1.4301501427,
				"y": -3.5746150462,
				"z": -0.5615860883,
				"element": "H" 
			},
			{
				"x": -1.4257863057,
				"y": 1.0704408728,
				"z": 0.829253715,
				"element": "H" 
			},
			{
				"x": 0.208105688,
				"y": 2.9323205291,
				"z": 0.4610616201,
				"element": "H" 
			}
		],
		 "valence_orbital": [ 
			{
				"type": "occ",
				"energy": -0.31826,
				"method": "rhf"
			},
			{
				"type": "occ",
				"energy": -0.31577,
				"method": "rhf"
			},
			{
				"type": "occ",
				"energy": -0.27933,
				"method": "rhf"
			},
			{
				"type": "occ",
				"energy": -0.25551,
				"method": "rhf"
			},
			{
				"type": "occ",
				"energy": -0.24743,
				"method": "rhf"
			},
			{
				"type": "unocc",
				"energy": -0.06732,
				"method": "rhf"
			},
			{
				"type": "unocc",
				"energy": -0.03039,
				"method": "rhf"
			},
			{
				"type": "unocc",
				"energy": 0.00319,
				"method": "rhf"
			},
			{
				"type": "unocc",
				"energy": 0.03006,
				"method": "rhf"
			},
			{
				"type": "unocc",
				"energy": 0.07722,
				"method": "rhf"
			}
		],
		"cosmo_sigma_profile": { 
			"-0.025": 0.0,
			"-0.024": 0.0,
			"-0.023": 0.0,
			"-0.022": 0.0,
			"-0.021": 0.0,
			"-0.02": 0.0,
			"-0.019": 0.0,
			"-0.018": 0.0,
			"-0.017": 0.0,
			"-0.016": 0.0,
			"-0.015": 0.0,
			"-0.014": 0.0,
			"-0.013": 0.0,
			"-0.012": 0.0,
			"-0.011": 0.0,
			"-0.01": 0.0,
			"-0.009": 0.627482464918,
			"-0.008": 7.7381076804,
			"-0.007": 10.4541717888,
			"-0.006": 7.97612700754,
			"-0.005": 8.52659515635,
			"-0.004": 6.485928958,
			"-0.003": 6.5422718475,
			"-0.002": 9.26960507141,
			"-0.001": 17.3709593362,
			"0.0": 25.3452605617,
			"0.001": 27.0815785709,
			"0.002": 17.4774486658,
			"0.003": 14.1354886308,
			"0.004": 19.4965589575,
			"0.005": 6.15282518295,
			"0.006": 2.59397405884,
			"0.007": 1.85312368279,
			"0.008": 1.52558076737,
			"0.009": 1.120022577,
			"0.01": 0.786356235862,
			"0.011": 1.3753341589,
			"0.012": 0.594098161894,
			"0.013": 1.02655182315,
			"0.014": 0.234653013408,
			"0.015": 0.0,
			"0.016": 0.0,
			"0.017": 0.0,
			"0.018": 0.0,
			"0.019": 0.0,
			"0.02": 0.0,
			"0.021": 0.0,
			"0.022": 0.0,
			"0.023": 0.0,
			"0.024": 0.0,
			"0.025": 0.0
		}
	}
}
