{
	 "smiles": "OC(=O)C1=C(C=CC=C1)C(=O)C1=CC2=C(OCCO2)C=C1", 
	 "Tm": 442.15, 
	 "num_atms": 33, 
	 "gaussian": { 
		 "optdone": 1, 
		 "sigma_profile": "yes", 
		 "theory": "DFT", 
		 "functional": "B3LYP", 
		 "basiset": "6-31G**", 
		 "properties": { 
			 "R2extent": 6845.9267, 
			 "electric_dipole_moment_norm": 5.13709955033, 
			 "electric_quadrupole_moment_norm": 8.60542516962, 
			 "total_energy": -993.048150179, 
			 "HOMO_LUMO_gap": 0.16028, 
			 "cosmo_polarized_energy": -19.46, 
			 "cosmo_cavitation_energy": 37.72, 
			 "cosmo_dispersion_energy": -26.92, 
			 "cosmo_repulsion_energy": 2.07, 
			 "cosmo_total_nonelectrostatic_energy": 12.86, 
			 "SMD_solvation_energy": 8.24 
		},
		"coords": [
			{
				"x": 3.1264074672,
				"y": 1.8905416327,
				"z": -2.7372073466,
				"element": "O" 
			},
			{
				"x": 2.1286687873,
				"y": 1.833697546,
				"z": -1.8192175903,
				"element": "C" 
			},
			{
				"x": 0.9629724408,
				"y": 1.7308736927,
				"z": -2.1466333087,
				"element": "O" 
			},
			{
				"x": 2.6174260852,
				"y": 1.9196954489,
				"z": -0.4176821827,
				"element": "C" 
			},
			{
				"x": 1.7019179877,
				"y": 1.7897812258,
				"z": 0.6463720087,
				"element": "C" 
			},
			{
				"x": 2.1671284322,
				"y": 1.9337761305,
				"z": 1.9580735747,
				"element": "C" 
			},
			{
				"x": 3.5155592444,
				"y": 2.1769801193,
				"z": 2.2179886497,
				"element": "C" 
			},
			{
				"x": 4.4221096237,
				"y": 2.2928080381,
				"z": 1.1625976474,
				"element": "C" 
			},
			{
				"x": 3.9720045109,
				"y": 2.1697485751,
				"z": -0.1486576683,
				"element": "C" 
			},
			{
				"x": 0.2080054916,
				"y": 1.5595573612,
				"z": 0.4756636348,
				"element": "C" 
			},
			{
				"x": -0.5531868854,
				"y": 2.4867565118,
				"z": 0.7093698631,
				"element": "O" 
			},
			{
				"x": -0.2872873739,
				"y": 0.1887796502,
				"z": 0.173659671,
				"element": "C" 
			},
			{
				"x": 0.5712169535,
				"y": -0.9145653979,
				"z": 0.0888333279,
				"element": "C" 
			},
			{
				"x": 0.0636928018,
				"y": -2.1839211598,
				"z": -0.1719960533,
				"element": "C" 
			},
			{
				"x": -1.3191998726,
				"y": -2.358927484,
				"z": -0.3619062836,
				"element": "C" 
			},
			{
				"x": -1.8620744478,
				"y": -3.5840948793,
				"z": -0.6408791312,
				"element": "O" 
			},
			{
				"x": -0.9084488184,
				"y": -4.5736674113,
				"z": -1.0337370877,
				"element": "C" 
			},
			{
				"x": 0.3109882279,
				"y": -4.515590792,
				"z": -0.128378285,
				"element": "C" 
			},
			{
				"x": 0.9419275171,
				"y": -3.2406911403,
				"z": -0.2375964234,
				"element": "O" 
			},
			{
				"x": -2.1797765368,
				"y": -1.2606464633,
				"z": -0.2584703203,
				"element": "C" 
			},
			{
				"x": -1.6703496315,
				"y": 0.0006121601,
				"z": 0.0121100952,
				"element": "C" 
			},
			{
				"x": 2.6872429573,
				"y": 1.8451309468,
				"z": -3.6022645315,
				"element": "H" 
			},
			{
				"x": 1.460655113,
				"y": 1.8548048879,
				"z": 2.7787029865,
				"element": "H" 
			},
			{
				"x": 3.8561586214,
				"y": 2.2807201427,
				"z": 3.2441933813,
				"element": "H" 
			},
			{
				"x": 5.4721257293,
				"y": 2.4858852246,
				"z": 1.3598447024,
				"element": "H" 
			},
			{
				"x": 4.6614999809,
				"y": 2.2742004573,
				"z": -0.9782086173,
				"element": "H" 
			},
			{
				"x": 1.6415126855,
				"y": -0.812761353,
				"z": 0.2321428763,
				"element": "H" 
			},
			{
				"x": -1.416087604,
				"y": -5.5386097696,
				"z": -0.9593914541,
				"element": "H" 
			},
			{
				"x": -0.6086087374,
				"y": -4.4054659241,
				"z": -2.0767283969,
				"element": "H" 
			},
			{
				"x": 0.0123403965,
				"y": -4.6991127293,
				"z": 0.9130871109,
				"element": "H" 
			},
			{
				"x": 1.0572567519,
				"y": -5.2585591882,
				"z": -0.4207574537,
				"element": "H" 
			},
			{
				"x": -3.2422566222,
				"y": -1.4270195904,
				"z": -0.4043339544,
				"element": "H" 
			},
			{
				"x": -2.321641277,
				"y": 0.8634835308,
				"z": 0.091906559,
				"element": "H" 
			}
		],
		 "valence_orbital": [ 
			{
				"type": "occ",
				"energy": -0.26678,
				"method": "rhf"
			},
			{
				"type": "occ",
				"energy": -0.26575,
				"method": "rhf"
			},
			{
				"type": "occ",
				"energy": -0.23931,
				"method": "rhf"
			},
			{
				"type": "occ",
				"energy": -0.23833,
				"method": "rhf"
			},
			{
				"type": "occ",
				"energy": -0.2147,
				"method": "rhf"
			},
			{
				"type": "unocc",
				"energy": -0.05442,
				"method": "rhf"
			},
			{
				"type": "unocc",
				"energy": -0.04054,
				"method": "rhf"
			},
			{
				"type": "unocc",
				"energy": -0.01459,
				"method": "rhf"
			},
			{
				"type": "unocc",
				"energy": 0.00297,
				"method": "rhf"
			},
			{
				"type": "unocc",
				"energy": 0.05366,
				"method": "rhf"
			}
		],
		"cosmo_sigma_profile": { 
			"-0.025": 0.0,
			"-0.024": 0.0,
			"-0.023": 0.0,
			"-0.022": 0.0,
			"-0.021": 0.0,
			"-0.02": 0.0,
			"-0.019": 0.146100805443,
			"-0.018": 1.01443522157,
			"-0.017": 0.514974172746,
			"-0.016": 0.971810811227,
			"-0.015": 1.07054163369,
			"-0.014": 0.407108581347,
			"-0.013": 0.419661992353,
			"-0.012": 0.861482671616,
			"-0.011": 0.923423931024,
			"-0.01": 0.695800744781,
			"-0.009": 0.280255274846,
			"-0.008": 2.20672597033,
			"-0.007": 15.4048480026,
			"-0.006": 25.3270506044,
			"-0.005": 24.3141201949,
			"-0.004": 20.4383102971,
			"-0.003": 16.564963655,
			"-0.002": 17.1282648659,
			"-0.001": 16.5124959154,
			"0.0": 17.5845817606,
			"0.001": 18.3031020949,
			"0.002": 25.7558222568,
			"0.003": 23.8087231344,
			"0.004": 12.9805471219,
			"0.005": 7.95663959686,
			"0.006": 7.14842026583,
			"0.007": 7.86565440355,
			"0.008": 6.62970294924,
			"0.009": 7.81941781043,
			"0.01": 7.89378648074,
			"0.011": 6.52939747367,
			"0.012": 5.11817330057,
			"0.013": 1.1381343591,
			"0.014": 0.0,
			"0.015": 0.0,
			"0.016": 0.0,
			"0.017": 0.0,
			"0.018": 0.0,
			"0.019": 0.0,
			"0.02": 0.0,
			"0.021": 0.0,
			"0.022": 0.0,
			"0.023": 0.0,
			"0.024": 0.0,
			"0.025": 0.0
		}
	}
}
