{
	 "smiles": "OC(=O)C1=CN=C(S1)C1=CC=C(C=C1)C(F)(F)F", 
	 "Tm": 434.15, 
	 "num_atms": 24, 
	 "gaussian": { 
		 "optdone": 1, 
		 "sigma_profile": "yes", 
		 "theory": "DFT", 
		 "functional": "B3LYP", 
		 "basiset": "6-31G**", 
		 "properties": { 
			 "R2extent": 7940.1701, 
			 "electric_dipole_moment_norm": 2.92987223442, 
			 "electric_quadrupole_moment_norm": 34.8520322227, 
			 "total_energy": -1325.70223397, 
			 "HOMO_LUMO_gap": 0.15553, 
			 "cosmo_polarized_energy": -15.22, 
			 "cosmo_cavitation_energy": 32.9, 
			 "cosmo_dispersion_energy": -24.17, 
			 "cosmo_repulsion_energy": 1.73, 
			 "cosmo_total_nonelectrostatic_energy": 10.46, 
			 "SMD_solvation_energy": 6.49 
		},
		"coords": [
			{
				"x": 3.9493987025,
				"y": 1.9426262715,
				"z": 3.3109211874,
				"element": "O" 
			},
			{
				"x": 4.1946803602,
				"y": 1.2465897041,
				"z": 2.1717503089,
				"element": "C" 
			},
			{
				"x": 5.3289319134,
				"y": 1.0938366601,
				"z": 1.7835576863,
				"element": "O" 
			},
			{
				"x": 3.0356339127,
				"y": 0.6902254966,
				"z": 1.4344144898,
				"element": "C" 
			},
			{
				"x": 3.1371388831,
				"y": -0.0367223052,
				"z": 0.2716576287,
				"element": "C" 
			},
			{
				"x": 1.971506214,
				"y": -0.4738902882,
				"z": -0.2762824949,
				"element": "N" 
			},
			{
				"x": 0.9295501158,
				"y": -0.1081635525,
				"z": 0.4306023265,
				"element": "C" 
			},
			{
				"x": 1.3499918674,
				"y": 0.8325243291,
				"z": 1.8667909958,
				"element": "S" 
			},
			{
				"x": -0.4562064687,
				"y": -0.4384027038,
				"z": 0.0806154147,
				"element": "C" 
			},
			{
				"x": -0.696455948,
				"y": -1.1951682632,
				"z": -1.0806038461,
				"element": "C" 
			},
			{
				"x": -1.9953394679,
				"y": -1.5273384545,
				"z": -1.4455011722,
				"element": "C" 
			},
			{
				"x": -3.073399014,
				"y": -1.1092648408,
				"z": -0.6588895937,
				"element": "C" 
			},
			{
				"x": -2.8459072205,
				"y": -0.3555399421,
				"z": 0.4955238692,
				"element": "C" 
			},
			{
				"x": -1.5464232007,
				"y": -0.0223567595,
				"z": 0.861642482,
				"element": "C" 
			},
			{
				"x": -4.4751857578,
				"y": -1.520093145,
				"z": -1.0255913316,
				"element": "C" 
			},
			{
				"x": -4.7956498682,
				"y": -2.7177923848,
				"z": -0.48495811,
				"element": "F" 
			},
			{
				"x": -4.6284630591,
				"y": -1.6369649151,
				"z": -2.361992016,
				"element": "F" 
			},
			{
				"x": -5.390137825,
				"y": -0.6300428615,
				"z": -0.5839500537,
				"element": "F" 
			},
			{
				"x": 3.004024103,
				"y": 1.9901371461,
				"z": 3.5122889264,
				"element": "H" 
			},
			{
				"x": 4.0852407019,
				"y": -0.2617736409,
				"z": -0.2012581348,
				"element": "H" 
			},
			{
				"x": 0.1481490287,
				"y": -1.5096959263,
				"z": -1.6825064827,
				"element": "H" 
			},
			{
				"x": -2.1764280491,
				"y": -2.1043898445,
				"z": -2.3457505591,
				"element": "H" 
			},
			{
				"x": -3.6840447842,
				"y": -0.0248836063,
				"z": 1.0986531994,
				"element": "H" 
			},
			{
				"x": -1.3862051395,
				"y": 0.5674438267,
				"z": 1.7595652797,
				"element": "H" 
			}
		],
		 "valence_orbital": [ 
			{
				"type": "occ",
				"energy": -0.30861,
				"method": "rhf"
			},
			{
				"type": "occ",
				"energy": -0.30353,
				"method": "rhf"
			},
			{
				"type": "occ",
				"energy": -0.28879,
				"method": "rhf"
			},
			{
				"type": "occ",
				"energy": -0.28553,
				"method": "rhf"
			},
			{
				"type": "occ",
				"energy": -0.25349,
				"method": "rhf"
			},
			{
				"type": "unocc",
				"energy": -0.09796,
				"method": "rhf"
			},
			{
				"type": "unocc",
				"energy": -0.03961,
				"method": "rhf"
			},
			{
				"type": "unocc",
				"energy": -0.03225,
				"method": "rhf"
			},
			{
				"type": "unocc",
				"energy": -0.02631,
				"method": "rhf"
			},
			{
				"type": "unocc",
				"energy": 0.01648,
				"method": "rhf"
			}
		],
		"cosmo_sigma_profile": { 
			"-0.025": 0.0,
			"-0.024": 0.0,
			"-0.023": 0.0,
			"-0.022": 0.0,
			"-0.021": 0.0,
			"-0.02": 0.0,
			"-0.019": 0.157187549146,
			"-0.018": 0.970490950545,
			"-0.017": 0.995931369741,
			"-0.016": 0.900019415448,
			"-0.015": 1.04172636436,
			"-0.014": 1.05604625626,
			"-0.013": 1.48685235039,
			"-0.012": 0.974151846262,
			"-0.011": 0.868833023225,
			"-0.01": 0.62897634718,
			"-0.009": 1.77751927699,
			"-0.008": 6.12082218972,
			"-0.007": 9.11795994034,
			"-0.006": 10.8740242087,
			"-0.005": 10.2983465313,
			"-0.004": 11.4358989172,
			"-0.003": 12.1466319656,
			"-0.002": 18.4579111561,
			"-0.001": 22.0181857398,
			"0.0": 26.6690770995,
			"0.001": 27.9790947217,
			"0.002": 34.3033446765,
			"0.003": 27.641180956,
			"0.004": 4.11406368678,
			"0.005": 3.75791233587,
			"0.006": 3.98333385933,
			"0.007": 4.05230391236,
			"0.008": 3.59625560557,
			"0.009": 4.75037453604,
			"0.01": 6.02721193129,
			"0.011": 6.31282198905,
			"0.012": 2.97290784064,
			"0.013": 0.432254674882,
			"0.014": 0.0,
			"0.015": 0.0,
			"0.016": 0.0,
			"0.017": 0.0,
			"0.018": 0.0,
			"0.019": 0.0,
			"0.02": 0.0,
			"0.021": 0.0,
			"0.022": 0.0,
			"0.023": 0.0,
			"0.024": 0.0,
			"0.025": 0.0
		}
	}
}
