{
	 "smiles": "CC(C)N1N=CC(C(O)=O)=C1C", 
	 "Tm": 416.15, 
	 "num_atms": 24, 
	 "gaussian": { 
		 "optdone": 1, 
		 "sigma_profile": "yes", 
		 "theory": "DFT", 
		 "functional": "B3LYP", 
		 "basiset": "6-31G**", 
		 "properties": { 
			 "R2extent": 2989.913, 
			 "electric_dipole_moment_norm": 4.49642291272, 
			 "electric_quadrupole_moment_norm": 17.9588278704, 
			 "total_energy": -572.044514981, 
			 "HOMO_LUMO_gap": 0.23194, 
			 "cosmo_polarized_energy": -15.6, 
			 "cosmo_cavitation_energy": 27.16, 
			 "cosmo_dispersion_energy": -19.35, 
			 "cosmo_repulsion_energy": 1.55, 
			 "cosmo_total_nonelectrostatic_energy": 9.35, 
			 "SMD_solvation_energy": 5.51 
		},
		"coords": [
			{
				"x": -1.138064191,
				"y": 2.4174848652,
				"z": 0.7361165571,
				"element": "C" 
			},
			{
				"x": -0.4234439169,
				"y": 1.4593868393,
				"z": -0.2231929863,
				"element": "C" 
			},
			{
				"x": 0.182855706,
				"y": 2.1800030618,
				"z": -1.432391463,
				"element": "C" 
			},
			{
				"x": 0.6201811138,
				"y": 0.7081632808,
				"z": 0.4947802593,
				"element": "N" 
			},
			{
				"x": 1.6507392639,
				"y": 1.3998832197,
				"z": 1.0504805386,
				"element": "N" 
			},
			{
				"x": 2.4108143378,
				"y": 0.4755436273,
				"z": 1.6161304402,
				"element": "C" 
			},
			{
				"x": 1.8842136449,
				"y": -0.830067857,
				"z": 1.4343136797,
				"element": "C" 
			},
			{
				"x": 2.410318221,
				"y": -2.1276912428,
				"z": 1.8901281315,
				"element": "C" 
			},
			{
				"x": 3.4967000327,
				"y": -2.081465892,
				"z": 2.7129239654,
				"element": "O" 
			},
			{
				"x": 1.9515479815,
				"y": -3.2088591658,
				"z": 1.585156436,
				"element": "O" 
			},
			{
				"x": 0.7132104874,
				"y": -0.6317573431,
				"z": 0.6907980982,
				"element": "C" 
			},
			{
				"x": -0.2853989226,
				"y": -1.6225302921,
				"z": 0.1824030657,
				"element": "C" 
			},
			{
				"x": -1.5840704264,
				"y": 1.8742865773,
				"z": 1.5745000788,
				"element": "H" 
			},
			{
				"x": -0.4311704219,
				"y": 3.1483875627,
				"z": 1.1364205243,
				"element": "H" 
			},
			{
				"x": -1.9341756902,
				"y": 2.9508877389,
				"z": 0.2079844705,
				"element": "H" 
			},
			{
				"x": -1.1350894888,
				"y": 0.7068270417,
				"z": -0.5740553815,
				"element": "H" 
			},
			{
				"x": -0.5998381039,
				"y": 2.7108497558,
				"z": -1.9827139079,
				"element": "H" 
			},
			{
				"x": 0.6625279281,
				"y": 1.4704034301,
				"z": -2.1129773007,
				"element": "H" 
			},
			{
				"x": 0.9334841297,
				"y": 2.9031022258,
				"z": -1.1039837906,
				"element": "H" 
			},
			{
				"x": 3.3193352521,
				"y": 0.7862464857,
				"z": 2.1196611962,
				"element": "H" 
			},
			{
				"x": 3.7172039553,
				"y": -1.1667659568,
				"z": 2.9342434233,
				"element": "H" 
			},
			{
				"x": -1.2819038313,
				"y": -1.4426700533,
				"z": 0.6016547845,
				"element": "H" 
			},
			{
				"x": -0.3699798125,
				"y": -1.582924245,
				"z": -0.9094646224,
				"element": "H" 
			},
			{
				"x": 0.0427027514,
				"y": -2.6214236641,
				"z": 0.468183803,
				"element": "H" 
			}
		],
		 "valence_orbital": [ 
			{
				"type": "occ",
				"energy": -0.30815,
				"method": "rhf"
			},
			{
				"type": "occ",
				"energy": -0.30213,
				"method": "rhf"
			},
			{
				"type": "occ",
				"energy": -0.26506,
				"method": "rhf"
			},
			{
				"type": "occ",
				"energy": -0.264,
				"method": "rhf"
			},
			{
				"type": "occ",
				"energy": -0.25097,
				"method": "rhf"
			},
			{
				"type": "unocc",
				"energy": -0.01903,
				"method": "rhf"
			},
			{
				"type": "unocc",
				"energy": 0.00884,
				"method": "rhf"
			},
			{
				"type": "unocc",
				"energy": 0.06282,
				"method": "rhf"
			},
			{
				"type": "unocc",
				"energy": 0.07431,
				"method": "rhf"
			},
			{
				"type": "unocc",
				"energy": 0.11085,
				"method": "rhf"
			}
		],
		"cosmo_sigma_profile": { 
			"-0.025": 0.0,
			"-0.024": 0.0,
			"-0.023": 0.0,
			"-0.022": 0.0,
			"-0.021": 0.0,
			"-0.02": 0.0,
			"-0.019": 0.155076838189,
			"-0.018": 0.910332085966,
			"-0.017": 0.799879581705,
			"-0.016": 1.35469422858,
			"-0.015": 1.01655040564,
			"-0.014": 0.679934087112,
			"-0.013": 0.563344549065,
			"-0.012": 1.58392388324,
			"-0.011": 1.60693306217,
			"-0.01": 0.983704527294,
			"-0.009": 1.23981081764,
			"-0.008": 1.65269675838,
			"-0.007": 1.48136975924,
			"-0.006": 10.303726584,
			"-0.005": 10.7637456348,
			"-0.004": 18.2486205099,
			"-0.003": 18.3333755296,
			"-0.002": 19.7650861194,
			"-0.001": 21.7165749724,
			"0.0": 22.2296541688,
			"0.001": 13.186189996,
			"0.002": 9.52220146661,
			"0.003": 7.84515874564,
			"0.004": 5.07185059575,
			"0.005": 4.66276489553,
			"0.006": 5.49475950708,
			"0.007": 4.51582289261,
			"0.008": 3.06898976063,
			"0.009": 3.96132050863,
			"0.01": 5.56490876215,
			"0.011": 5.93582173112,
			"0.012": 5.05483128777,
			"0.013": 3.45819011954,
			"0.014": 1.3903434278,
			"0.015": 0.0,
			"0.016": 0.0,
			"0.017": 0.0,
			"0.018": 0.0,
			"0.019": 0.0,
			"0.02": 0.0,
			"0.021": 0.0,
			"0.022": 0.0,
			"0.023": 0.0,
			"0.024": 0.0,
			"0.025": 0.0
		}
	}
}
