{
	 "smiles": "NC1=C(C=CC=C1Cl)C#N", 
	 "Tm": 368.15, 
	 "num_atms": 15, 
	 "gaussian": { 
		 "optdone": 1, 
		 "sigma_profile": "yes", 
		 "theory": "DFT", 
		 "functional": "B3LYP", 
		 "basiset": "6-31G**", 
		 "properties": { 
			 "R2extent": 2049.5548, 
			 "electric_dipole_moment_norm": 2.74640483906, 
			 "electric_quadrupole_moment_norm": 13.3208066516, 
			 "total_energy": -839.444480064, 
			 "HOMO_LUMO_gap": 0.17484, 
			 "cosmo_polarized_energy": -9.73, 
			 "cosmo_cavitation_energy": 21.83, 
			 "cosmo_dispersion_energy": -16.03, 
			 "cosmo_repulsion_energy": 1.3, 
			 "cosmo_total_nonelectrostatic_energy": 7.1, 
			 "SMD_solvation_energy": 4.67 
		},
		"coords": [
			{
				"x": 1.0656628635,
				"y": -2.6448143152,
				"z": -0.3845932405,
				"element": "N" 
			},
			{
				"x": 0.6237558157,
				"y": -1.4501572032,
				"z": 0.1069248777,
				"element": "C" 
			},
			{
				"x": -0.7654495446,
				"y": -1.1488079387,
				"z": 0.1823329342,
				"element": "C" 
			},
			{
				"x": -1.2197683164,
				"y": 0.0609420522,
				"z": 0.7305432197,
				"element": "C" 
			},
			{
				"x": -0.3166776903,
				"y": 1.0001825876,
				"z": 1.2094169334,
				"element": "C" 
			},
			{
				"x": 1.0541685723,
				"y": 0.7303430689,
				"z": 1.1384384213,
				"element": "C" 
			},
			{
				"x": 1.5082015554,
				"y": -0.4652084114,
				"z": 0.5996217394,
				"element": "C" 
			},
			{
				"x": 3.2399363065,
				"y": -0.7731783829,
				"z": 0.5188920643,
				"element": "Cl" 
			},
			{
				"x": -1.689794451,
				"y": -2.1125554689,
				"z": -0.3248291484,
				"element": "C" 
			},
			{
				"x": -2.397284962,
				"y": -2.9296412795,
				"z": -0.7597794113,
				"element": "N" 
			},
			{
				"x": 0.4140579345,
				"y": -3.2333961199,
				"z": -0.8812128644,
				"element": "H" 
			},
			{
				"x": 2.0420036883,
				"y": -2.7394451434,
				"z": -0.6142527673,
				"element": "H" 
			},
			{
				"x": -2.2877779505,
				"y": 0.2466726275,
				"z": 0.7684350501,
				"element": "H" 
			},
			{
				"x": -0.6651442718,
				"y": 1.9352695075,
				"z": 1.6331320781,
				"element": "H" 
			},
			{
				"x": 1.7792104507,
				"y": 1.4505944195,
				"z": 1.5018301135,
				"element": "H" 
			}
		],
		 "valence_orbital": [ 
			{
				"type": "occ",
				"energy": -0.33855,
				"method": "rhf"
			},
			{
				"type": "occ",
				"energy": -0.3345,
				"method": "rhf"
			},
			{
				"type": "occ",
				"energy": -0.33209,
				"method": "rhf"
			},
			{
				"type": "occ",
				"energy": -0.2637,
				"method": "rhf"
			},
			{
				"type": "occ",
				"energy": -0.2271,
				"method": "rhf"
			},
			{
				"type": "unocc",
				"energy": -0.05226,
				"method": "rhf"
			},
			{
				"type": "unocc",
				"energy": -0.01201,
				"method": "rhf"
			},
			{
				"type": "unocc",
				"energy": 0.00879,
				"method": "rhf"
			},
			{
				"type": "unocc",
				"energy": 0.03464,
				"method": "rhf"
			},
			{
				"type": "unocc",
				"energy": 0.07209,
				"method": "rhf"
			}
		],
		"cosmo_sigma_profile": { 
			"-0.025": 0.0,
			"-0.024": 0.0,
			"-0.023": 0.0,
			"-0.022": 0.0,
			"-0.021": 0.0,
			"-0.02": 0.0,
			"-0.019": 0.0,
			"-0.018": 0.0,
			"-0.017": 0.0,
			"-0.016": 0.0,
			"-0.015": 0.0,
			"-0.014": 0.233526603786,
			"-0.013": 1.62335845743,
			"-0.012": 1.55028477971,
			"-0.011": 2.26905643082,
			"-0.01": 2.51815195659,
			"-0.009": 1.76870824663,
			"-0.008": 3.85033367134,
			"-0.007": 6.82848016897,
			"-0.006": 10.068721071,
			"-0.005": 8.14320666099,
			"-0.004": 7.11276932865,
			"-0.003": 8.14125742798,
			"-0.002": 9.3846389271,
			"-0.001": 12.4738834576,
			"0.0": 14.5011969584,
			"0.001": 19.0420274136,
			"0.002": 17.110230939,
			"0.003": 13.6805533166,
			"0.004": 11.7618503732,
			"0.005": 4.11535645265,
			"0.006": 3.19023385306,
			"0.007": 2.42052871191,
			"0.008": 3.62567939123,
			"0.009": 3.24780317005,
			"0.01": 3.36423896681,
			"0.011": 2.32670479942,
			"0.012": 2.6117318384,
			"0.013": 1.60938779274,
			"0.014": 0.0418999963661,
			"0.015": 0.0,
			"0.016": 0.0,
			"0.017": 0.0,
			"0.018": 0.0,
			"0.019": 0.0,
			"0.02": 0.0,
			"0.021": 0.0,
			"0.022": 0.0,
			"0.023": 0.0,
			"0.024": 0.0,
			"0.025": 0.0
		}
	}
}
