{
	 "smiles": "CNC1CCN(C1)C1=CC(OC)=CC(OC)=C1", 
	 "Tm": 326.15, 
	 "num_atms": 37, 
	 "gaussian": { 
		 "optdone": 1, 
		 "sigma_profile": "yes", 
		 "theory": "DFT", 
		 "functional": "B3LYP", 
		 "basiset": "6-31G**", 
		 "properties": { 
			 "R2extent": 5883.6806, 
			 "electric_dipole_moment_norm": 2.13199176828, 
			 "electric_quadrupole_moment_norm": 8.02591577703, 
			 "total_energy": -767.349818533, 
			 "HOMO_LUMO_gap": 0.20901, 
			 "cosmo_polarized_energy": -11.94, 
			 "cosmo_cavitation_energy": 37.59, 
			 "cosmo_dispersion_energy": -27.04, 
			 "cosmo_repulsion_energy": 2.1, 
			 "cosmo_total_nonelectrostatic_energy": 12.65, 
			 "SMD_solvation_energy": 5.29 
		},
		"coords": [
			{
				"x": -3.4342796363,
				"y": -0.4151482969,
				"z": 1.5449479348,
				"element": "C" 
			},
			{
				"x": -3.0603934672,
				"y": -1.730497005,
				"z": 1.0285464667,
				"element": "N" 
			},
			{
				"x": -1.6284672337,
				"y": -2.0309694508,
				"z": 0.9305296993,
				"element": "C" 
			},
			{
				"x": -0.7620643061,
				"y": -1.8236610504,
				"z": 2.2053065247,
				"element": "C" 
			},
			{
				"x": -0.1781753894,
				"y": -0.4046518916,
				"z": 2.0899847107,
				"element": "C" 
			},
			{
				"x": -0.2855822095,
				"y": -0.0814212279,
				"z": 0.6690735016,
				"element": "N" 
			},
			{
				"x": -0.9229450281,
				"y": -1.1375484802,
				"z": -0.1078154031,
				"element": "C" 
			},
			{
				"x": 0.3831408432,
				"y": 0.9840911689,
				"z": 0.0969248252,
				"element": "C" 
			},
			{
				"x": 1.0213432926,
				"y": 1.9420700705,
				"z": 0.9009821763,
				"element": "C" 
			},
			{
				"x": 1.6864691556,
				"y": 3.0231089737,
				"z": 0.3087834324,
				"element": "C" 
			},
			{
				"x": 2.268629491,
				"y": 3.8924711357,
				"z": 1.1909486913,
				"element": "O" 
			},
			{
				"x": 2.9561969484,
				"y": 5.014985045,
				"z": 0.666870253,
				"element": "C" 
			},
			{
				"x": 1.7325554145,
				"y": 3.1770097638,
				"z": -1.0756492503,
				"element": "C" 
			},
			{
				"x": 1.0916137504,
				"y": 2.2146970219,
				"z": -1.8718038877,
				"element": "C" 
			},
			{
				"x": 1.1866538142,
				"y": 2.437703201,
				"z": -3.2194763589,
				"element": "O" 
			},
			{
				"x": 0.5652838139,
				"y": 1.5193677618,
				"z": -4.1001629666,
				"element": "C" 
			},
			{
				"x": 0.4238451132,
				"y": 1.1275311819,
				"z": -1.3134830864,
				"element": "C" 
			},
			{
				"x": -3.0324935035,
				"y": 0.3678353097,
				"z": 0.8958646735,
				"element": "H" 
			},
			{
				"x": -4.5252187835,
				"y": -0.3288135338,
				"z": 1.5296613472,
				"element": "H" 
			},
			{
				"x": -3.0956053069,
				"y": -0.2009910979,
				"z": 2.5732056001,
				"element": "H" 
			},
			{
				"x": -3.5013014898,
				"y": -2.4490367364,
				"z": 1.5963253918,
				"element": "H" 
			},
			{
				"x": -1.5728961317,
				"y": -3.0767756093,
				"z": 0.6111344811,
				"element": "H" 
			},
			{
				"x": -1.3393598412,
				"y": -1.9666621603,
				"z": 3.1238866435,
				"element": "H" 
			},
			{
				"x": 0.0487017404,
				"y": -2.5600700893,
				"z": 2.2121056459,
				"element": "H" 
			},
			{
				"x": -0.7364050477,
				"y": 0.3191460014,
				"z": 2.7012298047,
				"element": "H" 
			},
			{
				"x": 0.868178459,
				"y": -0.3654565095,
				"z": 2.4233741771,
				"element": "H" 
			},
			{
				"x": -1.6527991498,
				"y": -0.7341288149,
				"z": -0.8188372835,
				"element": "H" 
			},
			{
				"x": -0.1841983385,
				"y": -1.7181859413,
				"z": -0.6851872049,
				"element": "H" 
			},
			{
				"x": 1.0065864595,
				"y": 1.8854037283,
				"z": 1.9813647408,
				"element": "H" 
			},
			{
				"x": 3.7998661548,
				"y": 4.7151689375,
				"z": 0.031589523,
				"element": "H" 
			},
			{
				"x": 2.2893643381,
				"y": 5.6660079847,
				"z": 0.0865925162,
				"element": "H" 
			},
			{
				"x": 3.3352957404,
				"y": 5.5672003516,
				"z": 1.528866755,
				"element": "H" 
			},
			{
				"x": 2.2362979518,
				"y": 3.9993178996,
				"z": -1.5648002364,
				"element": "H" 
			},
			{
				"x": 0.9868495337,
				"y": 0.5102866075,
				"z": -4.0007042631,
				"element": "H" 
			},
			{
				"x": 0.7585110973,
				"y": 1.8892705847,
				"z": -5.1088795547,
				"element": "H" 
			},
			{
				"x": -0.5194132146,
				"y": 1.4686836701,
				"z": -3.9372061606,
				"element": "H" 
			},
			{
				"x": -0.0541850346,
				"y": 0.3926614963,
				"z": -1.9440938599,
				"element": "H" 
			}
		],
		 "valence_orbital": [ 
			{
				"type": "occ",
				"energy": -0.3032,
				"method": "rhf"
			},
			{
				"type": "occ",
				"energy": -0.24074,
				"method": "rhf"
			},
			{
				"type": "occ",
				"energy": -0.21815,
				"method": "rhf"
			},
			{
				"type": "occ",
				"energy": -0.19771,
				"method": "rhf"
			},
			{
				"type": "occ",
				"energy": -0.17542,
				"method": "rhf"
			},
			{
				"type": "unocc",
				"energy": 0.03359,
				"method": "rhf"
			},
			{
				"type": "unocc",
				"energy": 0.03667,
				"method": "rhf"
			},
			{
				"type": "unocc",
				"energy": 0.06899,
				"method": "rhf"
			},
			{
				"type": "unocc",
				"energy": 0.0962,
				"method": "rhf"
			},
			{
				"type": "unocc",
				"energy": 0.10479,
				"method": "rhf"
			}
		],
		"cosmo_sigma_profile": { 
			"-0.025": 0.0,
			"-0.024": 0.0,
			"-0.023": 0.0,
			"-0.022": 0.0,
			"-0.021": 0.0,
			"-0.02": 0.0,
			"-0.019": 0.0,
			"-0.018": 0.0,
			"-0.017": 0.0,
			"-0.016": 0.0,
			"-0.015": 0.0,
			"-0.014": 0.0,
			"-0.013": 0.0,
			"-0.012": 0.0,
			"-0.011": 0.0,
			"-0.01": 0.672596811208,
			"-0.009": 1.34177997845,
			"-0.008": 1.31900305968,
			"-0.007": 1.31051324123,
			"-0.006": 3.99132344473,
			"-0.005": 18.0750161629,
			"-0.004": 33.0912469885,
			"-0.003": 50.6013270812,
			"-0.002": 36.5278137122,
			"-0.001": 27.3649918686,
			"0.0": 21.5727334445,
			"0.001": 11.3823146461,
			"0.002": 9.48525009147,
			"0.003": 8.06363156396,
			"0.004": 10.2090967201,
			"0.005": 10.2439941268,
			"0.006": 16.3623176992,
			"0.007": 13.6735259052,
			"0.008": 3.98095738814,
			"0.009": 3.85154413557,
			"0.01": 3.72125341855,
			"0.011": 3.39497036393,
			"0.012": 0.477265106276,
			"0.013": 0.533360778912,
			"0.014": 0.679994263576,
			"0.015": 0.54400482021,
			"0.016": 0.516787578982,
			"0.017": 0.356719480322,
			"0.018": 0.345881487871,
			"0.019": 0.0194187375774,
			"0.02": 0.0,
			"0.021": 0.0,
			"0.022": 0.0,
			"0.023": 0.0,
			"0.024": 0.0,
			"0.025": 0.0
		}
	}
}
