{
	 "smiles": "CCOC(=O)C1=CC2=C(O1)C=CC(=C2)[N+]([O-])=O", 
	 "Tm": 425.15, 
	 "num_atms": 26, 
	 "gaussian": { 
		 "optdone": 1, 
		 "sigma_profile": "yes", 
		 "theory": "DFT", 
		 "functional": "B3LYP", 
		 "basiset": "6-31G**", 
		 "properties": { 
			 "R2extent": 6237.648, 
			 "electric_dipole_moment_norm": 4.4224151569, 
			 "electric_quadrupole_moment_norm": 23.0205223989, 
			 "total_energy": -855.369006366, 
			 "HOMO_LUMO_gap": 0.16539, 
			 "cosmo_polarized_energy": -12.95, 
			 "cosmo_cavitation_energy": 32.56, 
			 "cosmo_dispersion_energy": -23.72, 
			 "cosmo_repulsion_energy": 1.85, 
			 "cosmo_total_nonelectrostatic_energy": 10.69, 
			 "SMD_solvation_energy": 9.38 
		},
		"coords": [
			{
				"x": -4.7196081746,
				"y": 1.7502747946,
				"z": 2.5371025316,
				"element": "C" 
			},
			{
				"x": -4.2945790025,
				"y": 1.7360627408,
				"z": 1.0818377266,
				"element": "C" 
			},
			{
				"x": -3.0279035046,
				"y": 1.0371860416,
				"z": 1.005154135,
				"element": "O" 
			},
			{
				"x": -2.496921972,
				"y": 0.9292127477,
				"z": -0.2299536695,
				"element": "C" 
			},
			{
				"x": -2.9956299518,
				"y": 1.3650703158,
				"z": -1.2448839585,
				"element": "O" 
			},
			{
				"x": -1.2142752572,
				"y": 0.2007879527,
				"z": -0.1726822449,
				"element": "C" 
			},
			{
				"x": -0.5175392779,
				"y": -0.349028831,
				"z": 0.8615217089,
				"element": "C" 
			},
			{
				"x": 0.6654445522,
				"y": -0.9237627437,
				"z": 0.2823802119,
				"element": "C" 
			},
			{
				"x": 0.5699131307,
				"y": -0.6574195749,
				"z": -1.1024019292,
				"element": "C" 
			},
			{
				"x": -0.5696907792,
				"y": 0.0242495425,
				"z": -1.3775775996,
				"element": "O" 
			},
			{
				"x": 1.528908827,
				"y": -1.0525662317,
				"z": -2.0331343825,
				"element": "C" 
			},
			{
				"x": 2.626792211,
				"y": -1.7443351172,
				"z": -1.5402565017,
				"element": "C" 
			},
			{
				"x": 2.7300655846,
				"y": -2.0139750057,
				"z": -0.1619444631,
				"element": "C" 
			},
			{
				"x": 1.7766952121,
				"y": -1.6221041825,
				"z": 0.7694587449,
				"element": "C" 
			},
			{
				"x": 3.9112567919,
				"y": -2.7501249744,
				"z": 0.316204752,
				"element": "N" 
			},
			{
				"x": 4.7488238892,
				"y": -3.0922812168,
				"z": -0.5181653678,
				"element": "O" 
			},
			{
				"x": 3.9914553589,
				"y": -2.9805622608,
				"z": 1.5227425134,
				"element": "O" 
			},
			{
				"x": -4.8417126254,
				"y": 0.733035179,
				"z": 2.9197971693,
				"element": "H" 
			},
			{
				"x": -5.6764924875,
				"y": 2.2717896929,
				"z": 2.6362828202,
				"element": "H" 
			},
			{
				"x": -3.9810128946,
				"y": 2.2672837058,
				"z": 3.1562286043,
				"element": "H" 
			},
			{
				"x": -5.0185963485,
				"y": 1.219124659,
				"z": 0.444297442,
				"element": "H" 
			},
			{
				"x": -4.1623125394,
				"y": 2.7452570505,
				"z": 0.6794463495,
				"element": "H" 
			},
			{
				"x": -0.8175542658,
				"y": -0.3400353903,
				"z": 1.8984082658,
				"element": "H" 
			},
			{
				"x": 1.4180763433,
				"y": -0.8283955347,
				"z": -3.0876803368,
				"element": "H" 
			},
			{
				"x": 3.4174318388,
				"y": -2.0874486687,
				"z": -2.1948456024,
				"element": "H" 
			},
			{
				"x": 1.9122653415,
				"y": -1.8590946907,
				"z": 1.8170630804,
				"element": "H" 
			}
		],
		 "valence_orbital": [ 
			{
				"type": "occ",
				"energy": -0.30972,
				"method": "rhf"
			},
			{
				"type": "occ",
				"energy": -0.29287,
				"method": "rhf"
			},
			{
				"type": "occ",
				"energy": -0.2904,
				"method": "rhf"
			},
			{
				"type": "occ",
				"energy": -0.27511,
				"method": "rhf"
			},
			{
				"type": "occ",
				"energy": -0.2555,
				"method": "rhf"
			},
			{
				"type": "unocc",
				"energy": -0.09011,
				"method": "rhf"
			},
			{
				"type": "unocc",
				"energy": -0.07342,
				"method": "rhf"
			},
			{
				"type": "unocc",
				"energy": -0.01076,
				"method": "rhf"
			},
			{
				"type": "unocc",
				"energy": 0.01162,
				"method": "rhf"
			},
			{
				"type": "unocc",
				"energy": 0.08324,
				"method": "rhf"
			}
		],
		"cosmo_sigma_profile": { 
			"-0.025": 0.0,
			"-0.024": 0.0,
			"-0.023": 0.0,
			"-0.022": 0.0,
			"-0.021": 0.0,
			"-0.02": 0.0,
			"-0.019": 0.0,
			"-0.018": 0.0,
			"-0.017": 0.0,
			"-0.016": 0.0,
			"-0.015": 0.0,
			"-0.014": 0.0,
			"-0.013": 0.0,
			"-0.012": 0.0,
			"-0.011": 0.0,
			"-0.01": 0.201601355968,
			"-0.009": 3.16778457116,
			"-0.008": 6.05275106148,
			"-0.007": 7.41447046863,
			"-0.006": 8.45833195646,
			"-0.005": 15.0909158344,
			"-0.004": 23.2949308552,
			"-0.003": 23.0381504116,
			"-0.002": 25.400408443,
			"-0.001": 30.9173287032,
			"0.0": 30.235597871,
			"0.001": 14.614247472,
			"0.002": 7.35672025075,
			"0.003": 5.38686812031,
			"0.004": 7.15549135749,
			"0.005": 7.80565397855,
			"0.006": 5.34932987772,
			"0.007": 10.04844111,
			"0.008": 9.66333148591,
			"0.009": 6.72674057706,
			"0.01": 5.41193425562,
			"0.011": 5.5289204426,
			"0.012": 2.70611518076,
			"0.013": 0.111705810359,
			"0.014": 0.0,
			"0.015": 0.0,
			"0.016": 0.0,
			"0.017": 0.0,
			"0.018": 0.0,
			"0.019": 0.0,
			"0.02": 0.0,
			"0.021": 0.0,
			"0.022": 0.0,
			"0.023": 0.0,
			"0.024": 0.0,
			"0.025": 0.0
		}
	}
}
