{
	 "smiles": "CCN(CC)C(=O)COC(=O)C1=CC=CC=C1", 
	 "Tm": 345.65, 
	 "num_atms": 34, 
	 "gaussian": { 
		 "optdone": 1, 
		 "sigma_profile": "yes", 
		 "theory": "DFT", 
		 "functional": "B3LYP", 
		 "basiset": "6-31G**", 
		 "properties": { 
			 "R2extent": 6248.3819, 
			 "electric_dipole_moment_norm": 5.18082800622, 
			 "electric_quadrupole_moment_norm": 12.0984384848, 
			 "total_energy": -786.078520713, 
			 "HOMO_LUMO_gap": 0.1843, 
			 "cosmo_polarized_energy": -15.39, 
			 "cosmo_cavitation_energy": 37.23, 
			 "cosmo_dispersion_energy": -25.43, 
			 "cosmo_repulsion_energy": 1.99, 
			 "cosmo_total_nonelectrostatic_energy": 13.79, 
			 "SMD_solvation_energy": 7.55 
		},
		"coords": [
			{
				"x": -2.9872833313,
				"y": 0.7694290697,
				"z": 0.6552994461,
				"element": "C" 
			},
			{
				"x": -1.7730327061,
				"y": -0.098136204,
				"z": 0.3013769977,
				"element": "C" 
			},
			{
				"x": -0.5010396037,
				"y": 0.411805278,
				"z": 0.8190481309,
				"element": "N" 
			},
			{
				"x": -0.276056144,
				"y": 0.3601554252,
				"z": 2.2730390758,
				"element": "C" 
			},
			{
				"x": -0.498612272,
				"y": 1.6887312942,
				"z": 3.0034324774,
				"element": "C" 
			},
			{
				"x": 0.4937598346,
				"y": 0.9833332465,
				"z": 0.0717759102,
				"element": "C" 
			},
			{
				"x": 1.4681197203,
				"y": 1.5219197465,
				"z": 0.58910373,
				"element": "O" 
			},
			{
				"x": 0.3893652651,
				"y": 1.0222578643,
				"z": -1.4645343746,
				"element": "C" 
			},
			{
				"x": 0.010319,
				"y": -0.1994814577,
				"z": -2.128542081,
				"element": "O" 
			},
			{
				"x": 0.95288471,
				"y": -1.1828224457,
				"z": -2.1510808017,
				"element": "C" 
			},
			{
				"x": 2.0366994285,
				"y": -1.0687021446,
				"z": -1.6189128092,
				"element": "O" 
			},
			{
				"x": 0.4952508206,
				"y": -2.3891958019,
				"z": -2.8954262982,
				"element": "C" 
			},
			{
				"x": -0.7405566794,
				"y": -2.4475045668,
				"z": -3.5554191594,
				"element": "C" 
			},
			{
				"x": -1.1090268892,
				"y": -3.6056182149,
				"z": -4.2382151888,
				"element": "C" 
			},
			{
				"x": -0.2499044344,
				"y": -4.7069860738,
				"z": -4.2652860877,
				"element": "C" 
			},
			{
				"x": 0.9832626362,
				"y": -4.650398991,
				"z": -3.6099187725,
				"element": "C" 
			},
			{
				"x": 1.3564062922,
				"y": -3.4951527357,
				"z": -2.9280283462,
				"element": "C" 
			},
			{
				"x": -3.1493825727,
				"y": 0.8248863562,
				"z": 1.7354062481,
				"element": "H" 
			},
			{
				"x": -2.8654859924,
				"y": 1.7896750369,
				"z": 0.2776529253,
				"element": "H" 
			},
			{
				"x": -3.8905912675,
				"y": 0.3433622231,
				"z": 0.2054465666,
				"element": "H" 
			},
			{
				"x": -1.9201073318,
				"y": -1.1122767322,
				"z": 0.6965450702,
				"element": "H" 
			},
			{
				"x": -1.6953685322,
				"y": -0.1998697737,
				"z": -0.7792803556,
				"element": "H" 
			},
			{
				"x": -0.9384434683,
				"y": -0.4159362191,
				"z": 2.6714870425,
				"element": "H" 
			},
			{
				"x": 0.7561152949,
				"y": 0.0357114006,
				"z": 2.4327002554,
				"element": "H" 
			},
			{
				"x": -1.5236423081,
				"y": 2.0531164913,
				"z": 2.8893457977,
				"element": "H" 
			},
			{
				"x": -0.3019409281,
				"y": 1.5601640545,
				"z": 4.073457008,
				"element": "H" 
			},
			{
				"x": 0.1894713774,
				"y": 2.4423649995,
				"z": 2.6162455555,
				"element": "H" 
			},
			{
				"x": -0.3669169363,
				"y": 1.7485650457,
				"z": -1.7756134071,
				"element": "H" 
			},
			{
				"x": 1.3737467147,
				"y": 1.3411753357,
				"z": -1.8060817063,
				"element": "H" 
			},
			{
				"x": -1.4000234039,
				"y": -1.5875472639,
				"z": -3.5357727229,
				"element": "H" 
			},
			{
				"x": -2.0654216052,
				"y": -3.6489972747,
				"z": -4.750929544,
				"element": "H" 
			},
			{
				"x": -0.5404674791,
				"y": -5.6079780007,
				"z": -4.7981294355,
				"element": "H" 
			},
			{
				"x": 1.6516893982,
				"y": -5.5059344963,
				"z": -3.6321488946,
				"element": "H" 
			},
			{
				"x": 2.3088133927,
				"y": -3.4254144709,
				"z": -2.4135422522,
				"element": "H" 
			}
		],
		 "valence_orbital": [ 
			{
				"type": "occ",
				"energy": -0.27762,
				"method": "rhf"
			},
			{
				"type": "occ",
				"energy": -0.26453,
				"method": "rhf"
			},
			{
				"type": "occ",
				"energy": -0.26253,
				"method": "rhf"
			},
			{
				"type": "occ",
				"energy": -0.24298,
				"method": "rhf"
			},
			{
				"type": "occ",
				"energy": -0.23461,
				"method": "rhf"
			},
			{
				"type": "unocc",
				"energy": -0.05031,
				"method": "rhf"
			},
			{
				"type": "unocc",
				"energy": -0.01227,
				"method": "rhf"
			},
			{
				"type": "unocc",
				"energy": 0.01896,
				"method": "rhf"
			},
			{
				"type": "unocc",
				"energy": 0.05292,
				"method": "rhf"
			},
			{
				"type": "unocc",
				"energy": 0.08184,
				"method": "rhf"
			}
		],
		"cosmo_sigma_profile": { 
			"-0.025": 0.0,
			"-0.024": 0.0,
			"-0.023": 0.0,
			"-0.022": 0.0,
			"-0.021": 0.0,
			"-0.02": 0.0,
			"-0.019": 0.0,
			"-0.018": 0.0,
			"-0.017": 0.0,
			"-0.016": 0.0,
			"-0.015": 0.0,
			"-0.014": 0.0,
			"-0.013": 0.0,
			"-0.012": 0.0,
			"-0.011": 0.0,
			"-0.01": 0.0,
			"-0.009": 0.0525666752705,
			"-0.008": 2.29286462932,
			"-0.007": 4.73127863714,
			"-0.006": 13.6405012385,
			"-0.005": 18.9141640256,
			"-0.004": 28.1650134496,
			"-0.003": 30.8515682625,
			"-0.002": 30.9360934935,
			"-0.001": 29.3799624545,
			"0.0": 26.6335562176,
			"0.001": 26.2152107935,
			"0.002": 15.9024243392,
			"0.003": 15.5025418503,
			"0.004": 14.5743485545,
			"0.005": 3.23282953995,
			"0.006": 2.27623620565,
			"0.007": 3.32635461987,
			"0.008": 2.75045813249,
			"0.009": 2.48550702116,
			"0.01": 3.87982203863,
			"0.011": 5.98728146911,
			"0.012": 4.62868415433,
			"0.013": 3.33372130171,
			"0.014": 3.88297445297,
			"0.015": 0.545588763218,
			"0.016": 0.0,
			"0.017": 0.0,
			"0.018": 0.0,
			"0.019": 0.0,
			"0.02": 0.0,
			"0.021": 0.0,
			"0.022": 0.0,
			"0.023": 0.0,
			"0.024": 0.0,
			"0.025": 0.0
		}
	}
}
