{
	 "smiles": "CC(C)C(OC1=C(C=CC=C1)C#N)C(O)=O", 
	 "Tm": 341.15, 
	 "num_atms": 29, 
	 "gaussian": { 
		 "optdone": 1, 
		 "sigma_profile": "yes", 
		 "theory": "DFT", 
		 "functional": "B3LYP", 
		 "basiset": "6-31G**", 
		 "properties": { 
			 "R2extent": 4488.0302, 
			 "electric_dipole_moment_norm": 3.79023417219, 
			 "electric_quadrupole_moment_norm": 23.6489997649, 
			 "total_energy": -745.531282944, 
			 "HOMO_LUMO_gap": 0.19272, 
			 "cosmo_polarized_energy": -16.57, 
			 "cosmo_cavitation_energy": 33.7, 
			 "cosmo_dispersion_energy": -22.45, 
			 "cosmo_repulsion_energy": 1.77, 
			 "cosmo_total_nonelectrostatic_energy": 13.02, 
			 "SMD_solvation_energy": 8.3 
		},
		"coords": [
			{
				"x": -0.6958693112,
				"y": 4.0136281267,
				"z": 0.4271396163,
				"element": "C" 
			},
			{
				"x": 0.4870536573,
				"y": 3.0506426754,
				"z": 0.2552313518,
				"element": "C" 
			},
			{
				"x": 1.6762285424,
				"y": 3.4260717682,
				"z": 1.1499579608,
				"element": "C" 
			},
			{
				"x": 0.0813770899,
				"y": 1.5673196074,
				"z": 0.4460789459,
				"element": "C" 
			},
			{
				"x": -0.8673555911,
				"y": 1.2712663424,
				"z": -0.5749658779,
				"element": "O" 
			},
			{
				"x": -1.193519336,
				"y": -0.0174981387,
				"z": -0.8526032186,
				"element": "C" 
			},
			{
				"x": -2.1188702669,
				"y": -0.1954818999,
				"z": -1.9080062785,
				"element": "C" 
			},
			{
				"x": -2.5117930522,
				"y": -1.4891987406,
				"z": -2.2808905183,
				"element": "C" 
			},
			{
				"x": -1.9978995685,
				"y": -2.601587778,
				"z": -1.6199777717,
				"element": "C" 
			},
			{
				"x": -1.0876893957,
				"y": -2.4178208105,
				"z": -0.5786654991,
				"element": "C" 
			},
			{
				"x": -0.6830249594,
				"y": -1.1388434859,
				"z": -0.1903268913,
				"element": "C" 
			},
			{
				"x": -2.6493759313,
				"y": 0.9448049499,
				"z": -2.5916036323,
				"element": "C" 
			},
			{
				"x": -3.0947745696,
				"y": 1.8546717104,
				"z": -3.1637602986,
				"element": "N" 
			},
			{
				"x": -0.4557963277,
				"y": 1.2867532931,
				"z": 1.8507371995,
				"element": "C" 
			},
			{
				"x": -1.7964519309,
				"y": 1.3725316772,
				"z": 1.935683963,
				"element": "O" 
			},
			{
				"x": 0.2613391175,
				"y": 1.0411333668,
				"z": 2.7966706489,
				"element": "O" 
			},
			{
				"x": -1.5381466861,
				"y": 3.7237892456,
				"z": -0.2051608003,
				"element": "H" 
			},
			{
				"x": -1.0420193535,
				"y": 4.0448200292,
				"z": 1.4660070989,
				"element": "H" 
			},
			{
				"x": -0.391738484,
				"y": 5.0274031621,
				"z": 0.1488835979,
				"element": "H" 
			},
			{
				"x": 0.8130055637,
				"y": 3.0986171641,
				"z": -0.7917352461,
				"element": "H" 
			},
			{
				"x": 1.9940923067,
				"y": 4.4500792117,
				"z": 0.9318097161,
				"element": "H" 
			},
			{
				"x": 2.5336520723,
				"y": 2.7654432048,
				"z": 0.9836872119,
				"element": "H" 
			},
			{
				"x": 1.4173577438,
				"y": 3.3712636345,
				"z": 2.2113670283,
				"element": "H" 
			},
			{
				"x": 0.975667905,
				"y": 0.9441780212,
				"z": 0.3279860377,
				"element": "H" 
			},
			{
				"x": -3.2219972411,
				"y": -1.6043411447,
				"z": -3.0928982326,
				"element": "H" 
			},
			{
				"x": -2.3056793238,
				"y": -3.5996179114,
				"z": -1.9130003799,
				"element": "H" 
			},
			{
				"x": -0.6824898187,
				"y": -3.2778932672,
				"z": -0.053796769,
				"element": "H" 
			},
			{
				"x": 0.0200752665,
				"y": -1.0287572129,
				"z": 0.6266056683,
				"element": "H" 
			},
			{
				"x": -2.0232581176,
				"y": 1.195223199,
				"z": 2.8648453689,
				"element": "H" 
			}
		],
		 "valence_orbital": [ 
			{
				"type": "occ",
				"energy": -0.33114,
				"method": "rhf"
			},
			{
				"type": "occ",
				"energy": -0.32277,
				"method": "rhf"
			},
			{
				"type": "occ",
				"energy": -0.28882,
				"method": "rhf"
			},
			{
				"type": "occ",
				"energy": -0.26845,
				"method": "rhf"
			},
			{
				"type": "occ",
				"energy": -0.2419,
				"method": "rhf"
			},
			{
				"type": "unocc",
				"energy": -0.04918,
				"method": "rhf"
			},
			{
				"type": "unocc",
				"energy": -0.0155,
				"method": "rhf"
			},
			{
				"type": "unocc",
				"energy": -0.01004,
				"method": "rhf"
			},
			{
				"type": "unocc",
				"energy": 0.04095,
				"method": "rhf"
			},
			{
				"type": "unocc",
				"energy": 0.05926,
				"method": "rhf"
			}
		],
		"cosmo_sigma_profile": { 
			"-0.025": 0.0,
			"-0.024": 0.0,
			"-0.023": 0.0,
			"-0.022": 0.0,
			"-0.021": 0.0,
			"-0.02": 0.034380132009,
			"-0.019": 0.544838807839,
			"-0.018": 1.18710250389,
			"-0.017": 0.59088796415,
			"-0.016": 1.0615584776,
			"-0.015": 0.71876300821,
			"-0.014": 0.159824365305,
			"-0.013": 0.350523634505,
			"-0.012": 1.54808192426,
			"-0.011": 0.52313833622,
			"-0.01": 0.439826414418,
			"-0.009": 1.36624116372,
			"-0.008": 4.97250550188,
			"-0.007": 11.0592601081,
			"-0.006": 13.1791971708,
			"-0.005": 12.2674202965,
			"-0.004": 17.0916741683,
			"-0.003": 19.3852509238,
			"-0.002": 20.3268558453,
			"-0.001": 22.2153516431,
			"0.0": 26.5492560336,
			"0.001": 21.9288041663,
			"0.002": 15.9079689236,
			"0.003": 14.7503892041,
			"0.004": 7.76925208094,
			"0.005": 6.70436593878,
			"0.006": 7.52597437913,
			"0.007": 6.99707171356,
			"0.008": 5.42958938317,
			"0.009": 5.78369781227,
			"0.01": 5.49639340865,
			"0.011": 7.32371367405,
			"0.012": 4.14597961781,
			"0.013": 1.95205331971,
			"0.014": 0.16105309242,
			"0.015": 0.0,
			"0.016": 0.0,
			"0.017": 0.0,
			"0.018": 0.0,
			"0.019": 0.0,
			"0.02": 0.0,
			"0.021": 0.0,
			"0.022": 0.0,
			"0.023": 0.0,
			"0.024": 0.0,
			"0.025": 0.0
		}
	}
}
