{
	 "smiles": "COC(=O)C1=CC=C(OCC2CO2)C=C1", 
	 "Tm": 333.15, 
	 "num_atms": 27, 
	 "gaussian": { 
		 "optdone": 1, 
		 "sigma_profile": "yes", 
		 "theory": "DFT", 
		 "functional": "B3LYP", 
		 "basiset": "6-31G**", 
		 "properties": { 
			 "R2extent": 5085.1744, 
			 "electric_dipole_moment_norm": 2.25003523084, 
			 "electric_quadrupole_moment_norm": 17.1728770708, 
			 "total_energy": -727.248300751, 
			 "HOMO_LUMO_gap": 0.19541, 
			 "cosmo_polarized_energy": -12.48, 
			 "cosmo_cavitation_energy": 31.51, 
			 "cosmo_dispersion_energy": -22.88, 
			 "cosmo_repulsion_energy": 1.8, 
			 "cosmo_total_nonelectrostatic_energy": 10.43, 
			 "SMD_solvation_energy": 7.15 
		},
		"coords": [
			{
				"x": 3.8403074189,
				"y": 2.8452480283,
				"z": -1.5725504498,
				"element": "C" 
			},
			{
				"x": 2.804111044,
				"y": 2.1181688435,
				"z": -0.8976117245,
				"element": "O" 
			},
			{
				"x": 3.2003509161,
				"y": 0.9586146192,
				"z": -0.3164058436,
				"element": "C" 
			},
			{
				"x": 4.3485678456,
				"y": 0.5580561098,
				"z": -0.360921696,
				"element": "O" 
			},
			{
				"x": 2.086498711,
				"y": 0.2538630781,
				"z": 0.3652924777,
				"element": "C" 
			},
			{
				"x": 2.366463094,
				"y": -0.9639666418,
				"z": 1.0077129696,
				"element": "C" 
			},
			{
				"x": 1.3654287295,
				"y": -1.6640536547,
				"z": 1.6602576957,
				"element": "C" 
			},
			{
				"x": 0.0537614755,
				"y": -1.1600028385,
				"z": 1.6830424308,
				"element": "C" 
			},
			{
				"x": -0.8478141885,
				"y": -1.924765195,
				"z": 2.3623493729,
				"element": "O" 
			},
			{
				"x": -2.1994736912,
				"y": -1.4949385336,
				"z": 2.5123357856,
				"element": "C" 
			},
			{
				"x": -3.0453617398,
				"y": -1.8013648354,
				"z": 1.2896291379,
				"element": "C" 
			},
			{
				"x": -3.7127405197,
				"y": -0.7646099682,
				"z": 0.4878098181,
				"element": "C" 
			},
			{
				"x": -4.4390758456,
				"y": -1.5263884711,
				"z": 1.4593022849,
				"element": "O" 
			},
			{
				"x": -0.2383040547,
				"y": 0.0513978557,
				"z": 1.0417266666,
				"element": "C" 
			},
			{
				"x": 0.7780885727,
				"y": 0.7493275135,
				"z": 0.3913372563,
				"element": "C" 
			},
			{
				"x": 4.6355711444,
				"y": 3.1217496251,
				"z": -0.8754971957,
				"element": "H" 
			},
			{
				"x": 4.2734983983,
				"y": 2.2445238155,
				"z": -2.3764549842,
				"element": "H" 
			},
			{
				"x": 3.359788015,
				"y": 3.7362339762,
				"z": -1.9772675249,
				"element": "H" 
			},
			{
				"x": 3.3833212448,
				"y": -1.3408563404,
				"z": 0.9830238104,
				"element": "H" 
			},
			{
				"x": 1.5668899771,
				"y": -2.6028522967,
				"z": 2.1651834838,
				"element": "H" 
			},
			{
				"x": -2.2587989974,
				"y": -0.4340434166,
				"z": 2.7844889322,
				"element": "H" 
			},
			{
				"x": -2.5841873953,
				"y": -2.0793603328,
				"z": 3.3531256185,
				"element": "H" 
			},
			{
				"x": -2.8173987316,
				"y": -2.7604744645,
				"z": 0.8203260395,
				"element": "H" 
			},
			{
				"x": -3.9657420683,
				"y": -0.9645081002,
				"z": -0.5532226193,
				"element": "H" 
			},
			{
				"x": -3.5720289426,
				"y": 0.287830825,
				"z": 0.7369226095,
				"element": "H" 
			},
			{
				"x": -1.2445159022,
				"y": 0.4496210354,
				"z": 1.0353548075,
				"element": "H" 
			},
			{
				"x": 0.5528954903,
				"y": 1.6864497642,
				"z": -0.1048891595,
				"element": "H" 
			}
		],
		 "valence_orbital": [ 
			{
				"type": "occ",
				"energy": -0.29769,
				"method": "rhf"
			},
			{
				"type": "occ",
				"energy": -0.28183,
				"method": "rhf"
			},
			{
				"type": "occ",
				"energy": -0.26925,
				"method": "rhf"
			},
			{
				"type": "occ",
				"energy": -0.2619,
				"method": "rhf"
			},
			{
				"type": "occ",
				"energy": -0.23227,
				"method": "rhf"
			},
			{
				"type": "unocc",
				"energy": -0.03686,
				"method": "rhf"
			},
			{
				"type": "unocc",
				"energy": -0.01082,
				"method": "rhf"
			},
			{
				"type": "unocc",
				"energy": 0.06202,
				"method": "rhf"
			},
			{
				"type": "unocc",
				"energy": 0.0695,
				"method": "rhf"
			},
			{
				"type": "unocc",
				"energy": 0.08283,
				"method": "rhf"
			}
		],
		"cosmo_sigma_profile": { 
			"-0.025": 0.0,
			"-0.024": 0.0,
			"-0.023": 0.0,
			"-0.022": 0.0,
			"-0.021": 0.0,
			"-0.02": 0.0,
			"-0.019": 0.0,
			"-0.018": 0.0,
			"-0.017": 0.0,
			"-0.016": 0.0,
			"-0.015": 0.0,
			"-0.014": 0.0,
			"-0.013": 0.0,
			"-0.012": 0.0,
			"-0.011": 0.000933436579599,
			"-0.01": 0.471623802521,
			"-0.009": 1.54119184373,
			"-0.008": 2.78269286517,
			"-0.007": 8.41259432335,
			"-0.006": 18.2523400281,
			"-0.005": 22.5880889303,
			"-0.004": 22.5754488512,
			"-0.003": 22.1966689431,
			"-0.002": 15.225036909,
			"-0.001": 14.8574513401,
			"0.0": 14.0227591343,
			"0.001": 15.5447788645,
			"0.002": 18.0691594873,
			"0.003": 18.9481579528,
			"0.004": 13.6315003616,
			"0.005": 5.98951255742,
			"0.006": 5.88703087148,
			"0.007": 4.30532742318,
			"0.008": 3.21722503094,
			"0.009": 4.63342283419,
			"0.01": 4.18524082436,
			"0.011": 5.81796888805,
			"0.012": 6.35400313656,
			"0.013": 1.18049493118,
			"0.014": 0.0,
			"0.015": 0.0,
			"0.016": 0.0,
			"0.017": 0.0,
			"0.018": 0.0,
			"0.019": 0.0,
			"0.02": 0.0,
			"0.021": 0.0,
			"0.022": 0.0,
			"0.023": 0.0,
			"0.024": 0.0,
			"0.025": 0.0
		}
	}
}
