{
	 "smiles": "OC(=O)CCC(=O)NC1=NC=CS1", 
	 "Tm": 531.15, 
	 "num_atms": 21, 
	 "gaussian": { 
		 "optdone": 1, 
		 "sigma_profile": "yes", 
		 "theory": "DFT", 
		 "functional": "B3LYP", 
		 "basiset": "6-31G**", 
		 "properties": { 
			 "R2extent": 4688.1651, 
			 "electric_dipole_moment_norm": 4.33462926327, 
			 "electric_quadrupole_moment_norm": 17.8413000429, 
			 "total_energy": -1004.94749313, 
			 "HOMO_LUMO_gap": 0.1912, 
			 "cosmo_polarized_energy": -21.61, 
			 "cosmo_cavitation_energy": 27.35, 
			 "cosmo_dispersion_energy": -20.63, 
			 "cosmo_repulsion_energy": 1.6, 
			 "cosmo_total_nonelectrostatic_energy": 8.32, 
			 "SMD_solvation_energy": 4.75 
		},
		"coords": [
			{
				"x": -0.0764404754,
				"y": -1.9410335185,
				"z": -1.5124495361,
				"element": "O" 
			},
			{
				"x": 0.3744305299,
				"y": -0.7007833946,
				"z": -1.2227238023,
				"element": "C" 
			},
			{
				"x": 0.0901341379,
				"y": 0.2247375122,
				"z": -1.9494352984,
				"element": "O" 
			},
			{
				"x": 1.2429685329,
				"y": -0.5863365211,
				"z": 0.0243844003,
				"element": "C" 
			},
			{
				"x": 1.7959925051,
				"y": 0.828380776,
				"z": 0.2690194957,
				"element": "C" 
			},
			{
				"x": 0.798368218,
				"y": 1.7873371599,
				"z": 0.9157918527,
				"element": "C" 
			},
			{
				"x": 0.8698331009,
				"y": 2.0986243947,
				"z": 2.0991462495,
				"element": "O" 
			},
			{
				"x": -0.1780080509,
				"y": 2.2719699739,
				"z": 0.0827682864,
				"element": "N" 
			},
			{
				"x": -1.1887681446,
				"y": 3.1455135507,
				"z": 0.4593913424,
				"element": "C" 
			},
			{
				"x": -2.0894496363,
				"y": 3.5411533665,
				"z": -0.3969345189,
				"element": "N" 
			},
			{
				"x": -2.9752394488,
				"y": 4.4016982147,
				"z": 0.2121527064,
				"element": "C" 
			},
			{
				"x": -2.7507394408,
				"y": 4.6628998666,
				"z": 1.5298381061,
				"element": "C" 
			},
			{
				"x": -1.3465469147,
				"y": 3.7916729977,
				"z": 2.0870791125,
				"element": "S" 
			},
			{
				"x": 0.228712161,
				"y": -2.5800559364,
				"z": -0.8521717442,
				"element": "H" 
			},
			{
				"x": 2.0793017545,
				"y": -1.28864258,
				"z": -0.0908977663,
				"element": "H" 
			},
			{
				"x": 0.6689106124,
				"y": -0.9362098147,
				"z": 0.8927220554,
				"element": "H" 
			},
			{
				"x": 2.1568742993,
				"y": 1.2392897533,
				"z": -0.679175784,
				"element": "H" 
			},
			{
				"x": 2.6358233931,
				"y": 0.7679548705,
				"z": 0.9630828377,
				"element": "H" 
			},
			{
				"x": -0.2253646223,
				"y": 1.9246887707,
				"z": -0.8735940394,
				"element": "H" 
			},
			{
				"x": -3.7853144876,
				"y": 4.8167258578,
				"z": -0.376202811,
				"element": "H" 
			},
			{
				"x": -3.3111780238,
				"y": 5.3012147,
				"z": 2.1978088557,
				"element": "H" 
			}
		],
		 "valence_orbital": [ 
			{
				"type": "occ",
				"energy": -0.30264,
				"method": "rhf"
			},
			{
				"type": "occ",
				"energy": -0.27404,
				"method": "rhf"
			},
			{
				"type": "occ",
				"energy": -0.26943,
				"method": "rhf"
			},
			{
				"type": "occ",
				"energy": -0.2645,
				"method": "rhf"
			},
			{
				"type": "occ",
				"energy": -0.21685,
				"method": "rhf"
			},
			{
				"type": "unocc",
				"energy": -0.02565,
				"method": "rhf"
			},
			{
				"type": "unocc",
				"energy": -0.0183,
				"method": "rhf"
			},
			{
				"type": "unocc",
				"energy": 0.02301,
				"method": "rhf"
			},
			{
				"type": "unocc",
				"energy": 0.0384,
				"method": "rhf"
			},
			{
				"type": "unocc",
				"energy": 0.04137,
				"method": "rhf"
			}
		],
		"cosmo_sigma_profile": { 
			"-0.025": 0.0,
			"-0.024": 0.0,
			"-0.023": 0.0,
			"-0.022": 0.0,
			"-0.021": 0.0,
			"-0.02": 0.177187276569,
			"-0.019": 1.44668823177,
			"-0.018": 0.982995640731,
			"-0.017": 1.26570529516,
			"-0.016": 1.40559724383,
			"-0.015": 1.26957117388,
			"-0.014": 1.098108165,
			"-0.013": 1.014768782,
			"-0.012": 1.22294990738,
			"-0.011": 1.26192632215,
			"-0.01": 1.60796630179,
			"-0.009": 3.23860437676,
			"-0.008": 8.1161829509,
			"-0.007": 10.0248609631,
			"-0.006": 14.6017564693,
			"-0.005": 13.1125927721,
			"-0.004": 13.170719516,
			"-0.003": 11.0817763873,
			"-0.002": 9.66773233065,
			"-0.001": 10.0534656684,
			"0.0": 10.5012587672,
			"0.001": 11.5583146286,
			"0.002": 10.9038954648,
			"0.003": 13.1076253001,
			"0.004": 12.6737217107,
			"0.005": 8.4769431826,
			"0.006": 4.9954932936,
			"0.007": 5.53796220088,
			"0.008": 6.54252998299,
			"0.009": 5.95288947293,
			"0.01": 7.69781869146,
			"0.011": 6.07498221361,
			"0.012": 6.02455663179,
			"0.013": 2.58463291763,
			"0.014": 1.16663086316,
			"0.015": 0.413982397129,
			"0.016": 0.0,
			"0.017": 0.0,
			"0.018": 0.0,
			"0.019": 0.0,
			"0.02": 0.0,
			"0.021": 0.0,
			"0.022": 0.0,
			"0.023": 0.0,
			"0.024": 0.0,
			"0.025": 0.0
		}
	}
}
