{
	 "smiles": "COC1=C(OC)C=C(C=C1)C1(CCCCC1)C(O)=O", 
	 "Tm": 398.15, 
	 "num_atms": 39, 
	 "gaussian": { 
		 "optdone": 1, 
		 "sigma_profile": "yes", 
		 "theory": "DFT", 
		 "functional": "B3LYP", 
		 "basiset": "6-31G**", 
		 "properties": { 
			 "R2extent": 5624.9142, 
			 "electric_dipole_moment_norm": 4.77398594677, 
			 "electric_quadrupole_moment_norm": 15.4793489847, 
			 "total_energy": -884.535511257, 
			 "HOMO_LUMO_gap": 0.21674, 
			 "cosmo_polarized_energy": -13.84, 
			 "cosmo_cavitation_energy": 38.85, 
			 "cosmo_dispersion_energy": -27.13, 
			 "cosmo_repulsion_energy": 2.11, 
			 "cosmo_total_nonelectrostatic_energy": 13.84, 
			 "SMD_solvation_energy": 8.32 
		},
		"coords": [
			{
				"x": -1.6215970109,
				"y": -4.6923232991,
				"z": 0.2441157654,
				"element": "C" 
			},
			{
				"x": -0.4592505525,
				"y": -4.1794961076,
				"z": 0.9101198657,
				"element": "O" 
			},
			{
				"x": -0.2535488117,
				"y": -2.8284505969,
				"z": 0.7658522072,
				"element": "C" 
			},
			{
				"x": 0.0915125516,
				"y": -2.2532085594,
				"z": -0.4742780484,
				"element": "C" 
			},
			{
				"x": 0.1954459525,
				"y": -3.0126572946,
				"z": -1.6162471501,
				"element": "O" 
			},
			{
				"x": 1.3061730881,
				"y": -3.920453017,
				"z": -1.6399513328,
				"element": "C" 
			},
			{
				"x": 0.3002303465,
				"y": -0.8794565042,
				"z": -0.5665768595,
				"element": "C" 
			},
			{
				"x": 0.1886295792,
				"y": -0.0300498268,
				"z": 0.5492287779,
				"element": "C" 
			},
			{
				"x": -0.1141532849,
				"y": -0.6286830469,
				"z": 1.7832245421,
				"element": "C" 
			},
			{
				"x": -0.3390399102,
				"y": -2.0048467068,
				"z": 1.8849612187,
				"element": "C" 
			},
			{
				"x": 0.498326336,
				"y": 1.4718864191,
				"z": 0.3959198536,
				"element": "C" 
			},
			{
				"x": -0.1913308757,
				"y": 2.0919852795,
				"z": -0.8477391131,
				"element": "C" 
			},
			{
				"x": -1.7142975154,
				"y": 2.196169858,
				"z": -0.6931938101,
				"element": "C" 
			},
			{
				"x": -2.0944083762,
				"y": 3.0287375964,
				"z": 0.5389581118,
				"element": "C" 
			},
			{
				"x": -1.4355785853,
				"y": 2.4670042699,
				"z": 1.8064890765,
				"element": "C" 
			},
			{
				"x": 0.0862411342,
				"y": 2.3265520431,
				"z": 1.6365480414,
				"element": "C" 
			},
			{
				"x": 2.033309128,
				"y": 1.6661099747,
				"z": 0.2563677728,
				"element": "C" 
			},
			{
				"x": 2.8077305869,
				"y": 0.8433789076,
				"z": 1.0040512865,
				"element": "O" 
			},
			{
				"x": 2.5420354521,
				"y": 2.5331595853,
				"z": -0.412587215,
				"element": "O" 
			},
			{
				"x": -1.6369679068,
				"y": -5.7654440302,
				"z": 0.4434702383,
				"element": "H" 
			},
			{
				"x": -1.5749594466,
				"y": -4.5149603452,
				"z": -0.8343485544,
				"element": "H" 
			},
			{
				"x": -2.5319631827,
				"y": -4.2350795151,
				"z": 0.6510137088,
				"element": "H" 
			},
			{
				"x": 1.2469563231,
				"y": -4.4481020449,
				"z": -2.5936511693,
				"element": "H" 
			},
			{
				"x": 2.2540757462,
				"y": -3.3710433639,
				"z": -1.5882421111,
				"element": "H" 
			},
			{
				"x": 1.2535003652,
				"y": -4.6372928152,
				"z": -0.8149127392,
				"element": "H" 
			},
			{
				"x": 0.5682003324,
				"y": -0.4916303841,
				"z": -1.5435242083,
				"element": "H" 
			},
			{
				"x": -0.2049352093,
				"y": -0.0272228744,
				"z": 2.6802572048,
				"element": "H" 
			},
			{
				"x": -0.5930512106,
				"y": -2.4584129054,
				"z": 2.8378699844,
				"element": "H" 
			},
			{
				"x": 0.2397224778,
				"y": 3.0875445144,
				"z": -0.9906468948,
				"element": "H" 
			},
			{
				"x": 0.0648074203,
				"y": 1.5271890603,
				"z": -1.7488172512,
				"element": "H" 
			},
			{
				"x": -2.1502062577,
				"y": 1.1918233269,
				"z": -0.6080864248,
				"element": "H" 
			},
			{
				"x": -2.1392531302,
				"y": 2.6442209779,
				"z": -1.5989894168,
				"element": "H" 
			},
			{
				"x": -1.7651297186,
				"y": 4.0663684326,
				"z": 0.3882621724,
				"element": "H" 
			},
			{
				"x": -3.1834512487,
				"y": 3.0596429017,
				"z": 0.6614195035,
				"element": "H" 
			},
			{
				"x": -1.8801587752,
				"y": 1.4924944697,
				"z": 2.0414570377,
				"element": "H" 
			},
			{
				"x": -1.6397532471,
				"y": 3.1186575724,
				"z": 2.664602524,
				"element": "H" 
			},
			{
				"x": 0.5189807905,
				"y": 3.3233888895,
				"z": 1.4892869517,
				"element": "H" 
			},
			{
				"x": 0.5476785116,
				"y": 1.9327226967,
				"z": 2.5488681478,
				"element": "H" 
			},
			{
				"x": 2.2500781342,
				"y": 0.1575764624,
				"z": 1.4068483061,
				"element": "H" 
			}
		],
		 "valence_orbital": [ 
			{
				"type": "occ",
				"energy": -0.30003,
				"method": "rhf"
			},
			{
				"type": "occ",
				"energy": -0.27539,
				"method": "rhf"
			},
			{
				"type": "occ",
				"energy": -0.26636,
				"method": "rhf"
			},
			{
				"type": "occ",
				"energy": -0.25261,
				"method": "rhf"
			},
			{
				"type": "occ",
				"energy": -0.23585,
				"method": "rhf"
			},
			{
				"type": "unocc",
				"energy": -0.01911,
				"method": "rhf"
			},
			{
				"type": "unocc",
				"energy": -0.01624,
				"method": "rhf"
			},
			{
				"type": "unocc",
				"energy": 0.01973,
				"method": "rhf"
			},
			{
				"type": "unocc",
				"energy": 0.07199,
				"method": "rhf"
			},
			{
				"type": "unocc",
				"energy": 0.08248,
				"method": "rhf"
			}
		],
		"cosmo_sigma_profile": { 
			"-0.025": 0.0,
			"-0.024": 0.0,
			"-0.023": 0.0,
			"-0.022": 0.0,
			"-0.021": 0.0,
			"-0.02": 0.0,
			"-0.019": 0.0,
			"-0.018": 0.0,
			"-0.017": 0.0,
			"-0.016": 0.0,
			"-0.015": 0.0,
			"-0.014": 0.021854274462,
			"-0.013": 0.444983096886,
			"-0.012": 0.551570854663,
			"-0.011": 1.28411015378,
			"-0.01": 1.86157187403,
			"-0.009": 0.727554769793,
			"-0.008": 1.3139966501,
			"-0.007": 4.31695181533,
			"-0.006": 9.8300215972,
			"-0.005": 14.8816076133,
			"-0.004": 20.2015083801,
			"-0.003": 31.3582095679,
			"-0.002": 41.9711970521,
			"-0.001": 41.0386581946,
			"0.0": 35.024277523,
			"0.001": 21.8742598799,
			"0.002": 12.9048255469,
			"0.003": 11.092109689,
			"0.004": 7.68954675877,
			"0.005": 4.59135974236,
			"0.006": 4.51456383448,
			"0.007": 5.16844849456,
			"0.008": 4.34131577871,
			"0.009": 4.86771686589,
			"0.01": 6.13864621614,
			"0.011": 7.1768105205,
			"0.012": 6.84859769954,
			"0.013": 1.9205247487,
			"0.014": 0.11371821132,
			"0.015": 0.0,
			"0.016": 0.0,
			"0.017": 0.0,
			"0.018": 0.0,
			"0.019": 0.0,
			"0.02": 0.0,
			"0.021": 0.0,
			"0.022": 0.0,
			"0.023": 0.0,
			"0.024": 0.0,
			"0.025": 0.0
		}
	}
}
