{
	 "smiles": "CC(=O)NC(C(O)=O)C1=CC=CC=C1", 
	 "Tm": 472.15, 
	 "num_atms": 25, 
	 "gaussian": { 
		 "optdone": 1, 
		 "sigma_profile": "yes", 
		 "theory": "DFT", 
		 "functional": "B3LYP", 
		 "basiset": "6-31G**", 
		 "properties": { 
			 "R2extent": 3038.9298, 
			 "electric_dipole_moment_norm": 6.30967494884, 
			 "electric_quadrupole_moment_norm": 15.5455167589, 
			 "total_energy": -668.130084552, 
			 "HOMO_LUMO_gap": 0.21309, 
			 "cosmo_polarized_energy": -20.07, 
			 "cosmo_cavitation_energy": 28.45, 
			 "cosmo_dispersion_energy": -20.22, 
			 "cosmo_repulsion_energy": 1.59, 
			 "cosmo_total_nonelectrostatic_energy": 9.83, 
			 "SMD_solvation_energy": 6.37 
		},
		"coords": [
			{
				"x": -2.5604724261,
				"y": -1.5339549314,
				"z": 1.1813916911,
				"element": "C" 
			},
			{
				"x": -2.4016316293,
				"y": -0.3319418019,
				"z": 2.0950989132,
				"element": "C" 
			},
			{
				"x": -3.0544081722,
				"y": -0.2109766112,
				"z": 3.1210235486,
				"element": "O" 
			},
			{
				"x": -1.4967448956,
				"y": 0.6534933542,
				"z": 1.7447926273,
				"element": "N" 
			},
			{
				"x": -0.6407026123,
				"y": 0.7851196296,
				"z": 0.5830538498,
				"element": "C" 
			},
			{
				"x": -1.4198861502,
				"y": 0.4542904795,
				"z": -0.7326979468,
				"element": "C" 
			},
			{
				"x": -0.7627613338,
				"y": -0.2561547009,
				"z": -1.6697528985,
				"element": "O" 
			},
			{
				"x": -2.5415264506,
				"y": 0.8500193353,
				"z": -0.9177089707,
				"element": "O" 
			},
			{
				"x": 0.7301583858,
				"y": 0.1130455381,
				"z": 0.7072118392,
				"element": "C" 
			},
			{
				"x": 1.773895646,
				"y": 0.5294560175,
				"z": -0.1382668486,
				"element": "C" 
			},
			{
				"x": 3.0341022686,
				"y": -0.0670569069,
				"z": -0.0667228037,
				"element": "C" 
			},
			{
				"x": 3.2734305332,
				"y": -1.0832459687,
				"z": 0.85961348,
				"element": "C" 
			},
			{
				"x": 2.2488843888,
				"y": -1.4903603451,
				"z": 1.7157873002,
				"element": "C" 
			},
			{
				"x": 0.9878358721,
				"y": -0.8961695118,
				"z": 1.6429516974,
				"element": "C" 
			},
			{
				"x": -2.8883690118,
				"y": -2.3746639573,
				"z": 1.7937474443,
				"element": "H" 
			},
			{
				"x": -1.6510484718,
				"y": -1.8089720176,
				"z": 0.6414674762,
				"element": "H" 
			},
			{
				"x": -3.3378235903,
				"y": -1.3166126977,
				"z": 0.4428258294,
				"element": "H" 
			},
			{
				"x": -1.5132329129,
				"y": 1.4280014082,
				"z": 2.3945764454,
				"element": "H" 
			},
			{
				"x": -0.4541905812,
				"y": 1.8611887336,
				"z": 0.4723792516,
				"element": "H" 
			},
			{
				"x": 0.1153776517,
				"y": -0.5113560674,
				"z": -1.3392688209,
				"element": "H" 
			},
			{
				"x": 1.6041987135,
				"y": 1.3372035177,
				"z": -0.8476322968,
				"element": "H" 
			},
			{
				"x": 3.8282706106,
				"y": 0.2715705056,
				"z": -0.7254636337,
				"element": "H" 
			},
			{
				"x": 4.2536274515,
				"y": -1.5462132722,
				"z": 0.9210557217,
				"element": "H" 
			},
			{
				"x": 2.4309724651,
				"y": -2.2705826387,
				"z": 2.4489674411,
				"element": "H" 
			},
			{
				"x": 0.2076442513,
				"y": -1.2006270905,
				"z": 2.331569663,
				"element": "H" 
			}
		],
		 "valence_orbital": [ 
			{
				"type": "occ",
				"energy": -0.29699,
				"method": "rhf"
			},
			{
				"type": "occ",
				"energy": -0.27882,
				"method": "rhf"
			},
			{
				"type": "occ",
				"energy": -0.26532,
				"method": "rhf"
			},
			{
				"type": "occ",
				"energy": -0.25753,
				"method": "rhf"
			},
			{
				"type": "occ",
				"energy": -0.2489,
				"method": "rhf"
			},
			{
				"type": "unocc",
				"energy": -0.03581,
				"method": "rhf"
			},
			{
				"type": "unocc",
				"energy": -0.03174,
				"method": "rhf"
			},
			{
				"type": "unocc",
				"energy": -0.00629,
				"method": "rhf"
			},
			{
				"type": "unocc",
				"energy": 0.02307,
				"method": "rhf"
			},
			{
				"type": "unocc",
				"energy": 0.068,
				"method": "rhf"
			}
		],
		"cosmo_sigma_profile": { 
			"-0.025": 0.0,
			"-0.024": 0.0,
			"-0.023": 0.0,
			"-0.022": 0.0,
			"-0.021": 0.0,
			"-0.02": 0.0,
			"-0.019": 0.0,
			"-0.018": 0.0,
			"-0.017": 0.0,
			"-0.016": 0.0,
			"-0.015": 0.127335732483,
			"-0.014": 1.57126286466,
			"-0.013": 2.08534518771,
			"-0.012": 1.9009944674,
			"-0.011": 2.88633524055,
			"-0.01": 5.51754604763,
			"-0.009": 4.79768715268,
			"-0.008": 3.86923954443,
			"-0.007": 6.69398955648,
			"-0.006": 14.1241404374,
			"-0.005": 16.050995341,
			"-0.004": 17.5018496348,
			"-0.003": 15.5850620862,
			"-0.002": 16.5083476362,
			"-0.001": 11.6766328204,
			"0.0": 10.4630151972,
			"0.001": 9.99943345865,
			"0.002": 10.4506152656,
			"0.003": 11.6415641992,
			"0.004": 11.8372563947,
			"0.005": 5.63973207583,
			"0.006": 3.85310125785,
			"0.007": 3.39410426264,
			"0.008": 4.37666699667,
			"0.009": 5.39495015894,
			"0.01": 5.88777177693,
			"0.011": 5.92036175262,
			"0.012": 5.51838554801,
			"0.013": 5.05075488761,
			"0.014": 4.57782332076,
			"0.015": 0.881802719689,
			"0.016": 0.0,
			"0.017": 0.0,
			"0.018": 0.0,
			"0.019": 0.0,
			"0.02": 0.0,
			"0.021": 0.0,
			"0.022": 0.0,
			"0.023": 0.0,
			"0.024": 0.0,
			"0.025": 0.0
		}
	}
}
