{
	 "smiles": "CC(=O)C1=CC(=CC=C1)S(N)(=O)=O", 
	 "Tm": 417.15, 
	 "num_atms": 22, 
	 "gaussian": { 
		 "optdone": 1, 
		 "sigma_profile": "yes", 
		 "theory": "DFT", 
		 "functional": "B3LYP", 
		 "basiset": "6-31G**", 
		 "properties": { 
			 "R2extent": 4718.7179, 
			 "electric_dipole_moment_norm": 2.88434091952, 
			 "electric_quadrupole_moment_norm": 19.7323727798, 
			 "total_energy": -988.820211003, 
			 "HOMO_LUMO_gap": 0.18811, 
			 "cosmo_polarized_energy": -17.7, 
			 "cosmo_cavitation_energy": 27.96, 
			 "cosmo_dispersion_energy": -20.71, 
			 "cosmo_repulsion_energy": 1.6, 
			 "cosmo_total_nonelectrostatic_energy": 8.85, 
			 "SMD_solvation_energy": 5.16 
		},
		"coords": [
			{
				"x": 2.9068131601,
				"y": 4.2396832742,
				"z": -1.7483456176,
				"element": "C" 
			},
			{
				"x": 1.4039328781,
				"y": 4.0943946582,
				"z": -1.8980843214,
				"element": "C" 
			},
			{
				"x": 0.7842191153,
				"y": 4.7671671786,
				"z": -2.7063357792,
				"element": "O" 
			},
			{
				"x": 0.6807764004,
				"y": 3.1021371544,
				"z": -1.0292867368,
				"element": "C" 
			},
			{
				"x": 1.3440363423,
				"y": 2.2914926792,
				"z": -0.0990572058,
				"element": "C" 
			},
			{
				"x": 0.6067214152,
				"y": 1.3972712481,
				"z": 0.6748763382,
				"element": "C" 
			},
			{
				"x": -0.7808341755,
				"y": 1.3006985757,
				"z": 0.558949693,
				"element": "C" 
			},
			{
				"x": -1.4377852855,
				"y": 2.1092940136,
				"z": -0.3704836236,
				"element": "C" 
			},
			{
				"x": -0.7128175201,
				"y": 2.9984629354,
				"z": -1.1596449214,
				"element": "C" 
			},
			{
				"x": 1.4641916107,
				"y": 0.3636956344,
				"z": 1.8648097214,
				"element": "S" 
			},
			{
				"x": 1.684804922,
				"y": -1.0950872916,
				"z": 1.0305724543,
				"element": "N" 
			},
			{
				"x": 2.7887434156,
				"y": 0.9535652947,
				"z": 2.0838346296,
				"element": "O" 
			},
			{
				"x": 0.5361707634,
				"y": 0.0814716464,
				"z": 2.9631764831,
				"element": "O" 
			},
			{
				"x": 3.1741940569,
				"y": 4.5312060351,
				"z": -0.7266674961,
				"element": "H" 
			},
			{
				"x": 3.4163219461,
				"y": 3.2931608232,
				"z": -1.9605834457,
				"element": "H" 
			},
			{
				"x": 3.2549814949,
				"y": 5.0015656473,
				"z": -2.4459665075,
				"element": "H" 
			},
			{
				"x": 2.416099854,
				"y": 2.3524980982,
				"z": 0.0470490064,
				"element": "H" 
			},
			{
				"x": -1.3310066877,
				"y": 0.6175228519,
				"z": 1.1968777346,
				"element": "H" 
			},
			{
				"x": -2.5169773951,
				"y": 2.0471827601,
				"z": -0.4706475518,
				"element": "H" 
			},
			{
				"x": -1.2037598677,
				"y": 3.6373496123,
				"z": -1.8860554595,
				"element": "H" 
			},
			{
				"x": 2.6775795651,
				"y": -1.2551065651,
				"z": 0.8806847197,
				"element": "H" 
			},
			{
				"x": 1.2651939916,
				"y": -1.8499262644,
				"z": 1.5672278861,
				"element": "H" 
			}
		],
		 "valence_orbital": [ 
			{
				"type": "occ",
				"energy": -0.31326,
				"method": "rhf"
			},
			{
				"type": "occ",
				"energy": -0.30869,
				"method": "rhf"
			},
			{
				"type": "occ",
				"energy": -0.28062,
				"method": "rhf"
			},
			{
				"type": "occ",
				"energy": -0.27362,
				"method": "rhf"
			},
			{
				"type": "occ",
				"energy": -0.25952,
				"method": "rhf"
			},
			{
				"type": "unocc",
				"energy": -0.07141,
				"method": "rhf"
			},
			{
				"type": "unocc",
				"energy": -0.04204,
				"method": "rhf"
			},
			{
				"type": "unocc",
				"energy": 0.01721,
				"method": "rhf"
			},
			{
				"type": "unocc",
				"energy": 0.0468,
				"method": "rhf"
			},
			{
				"type": "unocc",
				"energy": 0.07763,
				"method": "rhf"
			}
		],
		"cosmo_sigma_profile": { 
			"-0.025": 0.0,
			"-0.024": 0.0,
			"-0.023": 0.0,
			"-0.022": 0.0,
			"-0.021": 0.0,
			"-0.02": 0.0,
			"-0.019": 0.0,
			"-0.018": 0.0,
			"-0.017": 0.0,
			"-0.016": 0.0,
			"-0.015": 1.28627686198,
			"-0.014": 2.43420392429,
			"-0.013": 2.47597505492,
			"-0.012": 2.46774819388,
			"-0.011": 2.16100979983,
			"-0.01": 2.3442488903,
			"-0.009": 1.58790594021,
			"-0.008": 3.61136492848,
			"-0.007": 12.2112755454,
			"-0.006": 14.9777002523,
			"-0.005": 13.4135193492,
			"-0.004": 13.0685198882,
			"-0.003": 12.9817559055,
			"-0.002": 13.9724505192,
			"-0.001": 14.0982555128,
			"0.0": 14.3630537152,
			"0.001": 17.725197901,
			"0.002": 12.2046733529,
			"0.003": 5.25531468265,
			"0.004": 4.55104201423,
			"0.005": 6.36868395792,
			"0.006": 4.07769958954,
			"0.007": 4.04287292417,
			"0.008": 6.44156189681,
			"0.009": 5.76031020812,
			"0.01": 10.487628023,
			"0.011": 12.9319755997,
			"0.012": 4.9517130939,
			"0.013": 0.711676945228,
			"0.014": 0.0,
			"0.015": 0.0,
			"0.016": 0.0,
			"0.017": 0.0,
			"0.018": 0.0,
			"0.019": 0.0,
			"0.02": 0.0,
			"0.021": 0.0,
			"0.022": 0.0,
			"0.023": 0.0,
			"0.024": 0.0,
			"0.025": 0.0
		}
	}
}
