{
	 "smiles": "CS(C)(=O)=O", 
	 "Tm": 383.15, 
	 "num_atms": 11, 
	 "gaussian": { 
		 "optdone": 1, 
		 "sigma_profile": "yes", 
		 "theory": "DFT", 
		 "functional": "B3LYP", 
		 "basiset": "6-31G**", 
		 "properties": { 
			 "R2extent": 1686.7428, 
			 "electric_dipole_moment_norm": 4.61545123579, 
			 "electric_quadrupole_moment_norm": 16.7022393837, 
			 "total_energy": -628.402699332, 
			 "HOMO_LUMO_gap": 0.34867, 
			 "cosmo_polarized_energy": -15.48, 
			 "cosmo_cavitation_energy": 15.62, 
			 "cosmo_dispersion_energy": -12.29, 
			 "cosmo_repulsion_energy": 1.02, 
			 "cosmo_total_nonelectrostatic_energy": 4.35, 
			 "SMD_solvation_energy": 3.02 
		},
		"coords": [
			{
				"x": -2.2911920643,
				"y": 0.6126590308,
				"z": 1.696277828,
				"element": "C" 
			},
			{
				"x": -1.5238375496,
				"y": -0.9767577703,
				"z": 2.0891843827,
				"element": "S" 
			},
			{
				"x": -0.7189955146,
				"y": -1.4464433572,
				"z": 0.5396446718,
				"element": "C" 
			},
			{
				"x": -2.5995354253,
				"y": -1.9442463572,
				"z": 2.3493012004,
				"element": "O" 
			},
			{
				"x": -0.4724073329,
				"y": -0.7347083172,
				"z": 3.0875458235,
				"element": "O" 
			},
			{
				"x": -3.0216083933,
				"y": 0.4794473403,
				"z": 0.8966343487,
				"element": "H" 
			},
			{
				"x": -2.7924765073,
				"y": 0.9364205452,
				"z": 2.6103622149,
				"element": "H" 
			},
			{
				"x": -1.5203536515,
				"y": 1.3329770135,
				"z": 1.417648653,
				"element": "H" 
			},
			{
				"x": -0.2389052119,
				"y": -2.4078110903,
				"z": 0.7318537635,
				"element": "H" 
			},
			{
				"x": 0.0318291973,
				"y": -0.6999793161,
				"z": 0.2755746789,
				"element": "H" 
			},
			{
				"x": -1.4693175466,
				"y": -1.5537577215,
				"z": -0.2453275654,
				"element": "H" 
			}
		],
		 "valence_orbital": [ 
			{
				"type": "occ",
				"energy": -0.42069,
				"method": "rhf"
			},
			{
				"type": "occ",
				"energy": -0.32446,
				"method": "rhf"
			},
			{
				"type": "occ",
				"energy": -0.31037,
				"method": "rhf"
			},
			{
				"type": "occ",
				"energy": -0.29362,
				"method": "rhf"
			},
			{
				"type": "occ",
				"energy": -0.28925,
				"method": "rhf"
			},
			{
				"type": "unocc",
				"energy": 0.05942,
				"method": "rhf"
			},
			{
				"type": "unocc",
				"energy": 0.07273,
				"method": "rhf"
			},
			{
				"type": "unocc",
				"energy": 0.08176,
				"method": "rhf"
			},
			{
				"type": "unocc",
				"energy": 0.08591,
				"method": "rhf"
			},
			{
				"type": "unocc",
				"energy": 0.09393,
				"method": "rhf"
			}
		],
		"cosmo_sigma_profile": { 
			"-0.025": 0.0,
			"-0.024": 0.0,
			"-0.023": 0.0,
			"-0.022": 0.0,
			"-0.021": 0.0,
			"-0.02": 0.0,
			"-0.019": 0.0,
			"-0.018": 0.0,
			"-0.017": 0.0,
			"-0.016": 0.0,
			"-0.015": 0.0,
			"-0.014": 0.0,
			"-0.013": 0.0,
			"-0.012": 0.0,
			"-0.011": 0.248921084028,
			"-0.01": 1.80318142953,
			"-0.009": 6.56031729485,
			"-0.008": 11.7651373965,
			"-0.007": 8.55124941188,
			"-0.006": 10.982748172,
			"-0.005": 10.255379576,
			"-0.004": 10.7967951575,
			"-0.003": 8.90516395122,
			"-0.002": 3.509949304,
			"-0.001": 1.10012948873,
			"0.0": 1.52398269005,
			"0.001": 1.77822068732,
			"0.002": 2.62371967405,
			"0.003": 2.08678328491,
			"0.004": 2.27618764343,
			"0.005": 1.39252388103,
			"0.006": 1.38647406853,
			"0.007": 1.64028813389,
			"0.008": 2.72045635072,
			"0.009": 2.66789764306,
			"0.01": 3.58998400767,
			"0.011": 7.3390569004,
			"0.012": 13.2943571473,
			"0.013": 4.28925533553,
			"0.014": 0.0,
			"0.015": 0.0,
			"0.016": 0.0,
			"0.017": 0.0,
			"0.018": 0.0,
			"0.019": 0.0,
			"0.02": 0.0,
			"0.021": 0.0,
			"0.022": 0.0,
			"0.023": 0.0,
			"0.024": 0.0,
			"0.025": 0.0
		}
	}
}
