{
	 "smiles": "NC1=CC2=C(C=CN2)C=C1", 
	 "Tm": 346.15, 
	 "num_atms": 18, 
	 "gaussian": { 
		 "optdone": 1, 
		 "sigma_profile": "yes", 
		 "theory": "DFT", 
		 "functional": "B3LYP", 
		 "basiset": "6-31G**", 
		 "properties": { 
			 "R2extent": 2065.0535, 
			 "electric_dipole_moment_norm": 2.28918687092, 
			 "electric_quadrupole_moment_norm": 13.970138815, 
			 "total_energy": -419.177329385, 
			 "HOMO_LUMO_gap": 0.18017, 
			 "cosmo_polarized_energy": -12.42, 
			 "cosmo_cavitation_energy": 21.49, 
			 "cosmo_dispersion_energy": -16.45, 
			 "cosmo_repulsion_energy": 1.33, 
			 "cosmo_total_nonelectrostatic_energy": 6.37, 
			 "SMD_solvation_energy": 3.58 
		},
		"coords": [
			{
				"x": -3.703676516,
				"y": 2.5038585308,
				"z": -0.9930341336,
				"element": "N" 
			},
			{
				"x": -2.6153818269,
				"y": 1.8150849602,
				"z": -0.4323125985,
				"element": "C" 
			},
			{
				"x": -2.8193526587,
				"y": 0.6762293232,
				"z": 0.3503088379,
				"element": "C" 
			},
			{
				"x": -1.6922827665,
				"y": -0.0025384137,
				"z": 0.8265760901,
				"element": "C" 
			},
			{
				"x": -0.3630315684,
				"y": 0.4211627625,
				"z": 0.5517909564,
				"element": "C" 
			},
			{
				"x": 0.5188362893,
				"y": -0.5093764684,
				"z": 1.204695786,
				"element": "C" 
			},
			{
				"x": -0.266737691,
				"y": -1.4368372827,
				"z": 1.8329623017,
				"element": "C" 
			},
			{
				"x": -1.6034523596,
				"y": -1.134502066,
				"z": 1.608860738,
				"element": "N" 
			},
			{
				"x": -0.1866807167,
				"y": 1.5709778614,
				"z": -0.2366502127,
				"element": "C" 
			},
			{
				"x": -1.2948328105,
				"y": 2.2501587342,
				"z": -0.7175884304,
				"element": "C" 
			},
			{
				"x": -3.5197526158,
				"y": 3.4808418639,
				"z": -1.1801001246,
				"element": "H" 
			},
			{
				"x": -4.571539283,
				"y": 2.3934184038,
				"z": -0.4850824233,
				"element": "H" 
			},
			{
				"x": -3.8257144931,
				"y": 0.3297547977,
				"z": 0.5730340253,
				"element": "H" 
			},
			{
				"x": 1.5995420126,
				"y": -0.4890480984,
				"z": 1.204376471,
				"element": "H" 
			},
			{
				"x": 0.0067202062,
				"y": -2.2968172558,
				"z": 2.4271463209,
				"element": "H" 
			},
			{
				"x": -2.3846087283,
				"y": -1.66571678,
				"z": 1.9557942825,
				"element": "H" 
			},
			{
				"x": 0.8119440824,
				"y": 1.9305751287,
				"z": -0.469950182,
				"element": "H" 
			},
			{
				"x": -1.1604985562,
				"y": 3.1349739988,
				"z": -1.3350277048,
				"element": "H" 
			}
		],
		 "valence_orbital": [ 
			{
				"type": "occ",
				"energy": -0.32781,
				"method": "rhf"
			},
			{
				"type": "occ",
				"energy": -0.28478,
				"method": "rhf"
			},
			{
				"type": "occ",
				"energy": -0.24969,
				"method": "rhf"
			},
			{
				"type": "occ",
				"energy": -0.20493,
				"method": "rhf"
			},
			{
				"type": "occ",
				"energy": -0.17394,
				"method": "rhf"
			},
			{
				"type": "unocc",
				"energy": 0.00623,
				"method": "rhf"
			},
			{
				"type": "unocc",
				"energy": 0.04358,
				"method": "rhf"
			},
			{
				"type": "unocc",
				"energy": 0.08127,
				"method": "rhf"
			},
			{
				"type": "unocc",
				"energy": 0.08712,
				"method": "rhf"
			},
			{
				"type": "unocc",
				"energy": 0.09325,
				"method": "rhf"
			}
		],
		"cosmo_sigma_profile": { 
			"-0.025": 0.0,
			"-0.024": 0.0,
			"-0.023": 0.0,
			"-0.022": 0.0,
			"-0.021": 0.0,
			"-0.02": 0.0,
			"-0.019": 0.0,
			"-0.018": 0.0,
			"-0.017": 0.0,
			"-0.016": 0.0,
			"-0.015": 0.996960791478,
			"-0.014": 1.48275063729,
			"-0.013": 1.13548670832,
			"-0.012": 2.05792110059,
			"-0.011": 3.75236937997,
			"-0.01": 4.16626130081,
			"-0.009": 3.51866683679,
			"-0.008": 5.57837868163,
			"-0.007": 7.18021678227,
			"-0.006": 6.75535898291,
			"-0.005": 10.0370036293,
			"-0.004": 7.45601835367,
			"-0.003": 9.71664120451,
			"-0.002": 10.44533644,
			"-0.001": 6.76664986215,
			"0.0": 7.41256616803,
			"0.001": 6.19565960779,
			"0.002": 7.04779809947,
			"0.003": 8.13521038071,
			"0.004": 7.26535096692,
			"0.005": 9.61837314359,
			"0.006": 12.6501765256,
			"0.007": 16.4007564203,
			"0.008": 9.39463217666,
			"0.009": 1.00689081445,
			"0.01": 1.14929682709,
			"0.011": 0.676295304793,
			"0.012": 0.560758751358,
			"0.013": 0.813063888128,
			"0.014": 0.789629677513,
			"0.015": 0.532993806303,
			"0.016": 0.432932953126,
			"0.017": 0.0130019525153,
			"0.018": 0.0,
			"0.019": 0.0,
			"0.02": 0.0,
			"0.021": 0.0,
			"0.022": 0.0,
			"0.023": 0.0,
			"0.024": 0.0,
			"0.025": 0.0
		}
	}
}
