{
	 "smiles": "OC(=O)C(=S)CC1CCCC(CC(=S)C(O)=O)C1", 
	 "Tm": 358.15, 
	 "num_atms": 34, 
	 "gaussian": { 
		 "optdone": 1, 
		 "sigma_profile": "yes", 
		 "theory": "DFT", 
		 "functional": "B3LYP", 
		 "basiset": "6-31G**", 
		 "properties": { 
			 "R2extent": 8835.6347, 
			 "electric_dipole_moment_norm": 1.39498831895, 
			 "electric_quadrupole_moment_norm": 21.580751979, 
			 "total_energy": -1564.1854389, 
			 "HOMO_LUMO_gap": 0.11081, 
			 "cosmo_polarized_energy": -17.24, 
			 "cosmo_cavitation_energy": 39.96, 
			 "cosmo_dispersion_energy": -27.82, 
			 "cosmo_repulsion_energy": 2.1, 
			 "cosmo_total_nonelectrostatic_energy": 14.24, 
			 "SMD_solvation_energy": 6.27 
		},
		"coords": [
			{
				"x": 2.9879553375,
				"y": -2.5660288047,
				"z": -3.4148468715,
				"element": "O" 
			},
			{
				"x": 3.0856095192,
				"y": -1.6918320227,
				"z": -2.4019157856,
				"element": "C" 
			},
			{
				"x": 3.7336049544,
				"y": -1.9071422581,
				"z": -1.3958539,
				"element": "O" 
			},
			{
				"x": 2.3206863228,
				"y": -0.3957556825,
				"z": -2.6160825653,
				"element": "C" 
			},
			{
				"x": 1.9081159757,
				"y": 0.1178898968,
				"z": -4.109684823,
				"element": "S" 
			},
			{
				"x": 2.0507625869,
				"y": 0.3610082216,
				"z": -1.3448948768,
				"element": "C" 
			},
			{
				"x": 1.0261619355,
				"y": -0.3263452061,
				"z": -0.3987077559,
				"element": "C" 
			},
			{
				"x": -0.3783600269,
				"y": -0.4274536327,
				"z": -1.0191219198,
				"element": "C" 
			},
			{
				"x": -1.3917291406,
				"y": -1.0411596867,
				"z": -0.040257252,
				"element": "C" 
			},
			{
				"x": -1.4296360284,
				"y": -0.2741830166,
				"z": 1.290332513,
				"element": "C" 
			},
			{
				"x": -0.0399695203,
				"y": -0.1389013431,
				"z": 1.9464952368,
				"element": "C" 
			},
			{
				"x": 0.4997230341,
				"y": -1.4675749977,
				"z": 2.5611074891,
				"element": "C" 
			},
			{
				"x": -0.3277053953,
				"y": -1.9678401121,
				"z": 3.718257628,
				"element": "C" 
			},
			{
				"x": -0.346031773,
				"y": -1.2553036088,
				"z": 5.187749659,
				"element": "S" 
			},
			{
				"x": -1.1877761141,
				"y": -3.1828873102,
				"z": 3.4091202214,
				"element": "C" 
			},
			{
				"x": -1.8164068171,
				"y": -3.7021603119,
				"z": 4.4737554116,
				"element": "O" 
			},
			{
				"x": -1.2958203601,
				"y": -3.6443348295,
				"z": 2.2882874644,
				"element": "O" 
			},
			{
				"x": 0.9665198255,
				"y": 0.4466446956,
				"z": 0.9338091081,
				"element": "C" 
			},
			{
				"x": 3.5306065336,
				"y": -3.3322646345,
				"z": -3.1630197283,
				"element": "H" 
			},
			{
				"x": 3.0015517884,
				"y": 0.4428026665,
				"z": -0.8034672533,
				"element": "H" 
			},
			{
				"x": 1.7021422316,
				"y": 1.3651968865,
				"z": -1.5994405979,
				"element": "H" 
			},
			{
				"x": 1.3958437952,
				"y": -1.3394143192,
				"z": -0.1947262815,
				"element": "H" 
			},
			{
				"x": -0.3481146478,
				"y": -1.016156631,
				"z": -1.9432291174,
				"element": "H" 
			},
			{
				"x": -0.7109219425,
				"y": 0.5808727497,
				"z": -1.3072775399,
				"element": "H" 
			},
			{
				"x": -2.3901588159,
				"y": -1.0398647159,
				"z": -0.4930555651,
				"element": "H" 
			},
			{
				"x": -1.1426118779,
				"y": -2.091960533,
				"z": 0.1472837533,
				"element": "H" 
			},
			{
				"x": -2.1377322521,
				"y": -0.7471950302,
				"z": 1.9805261693,
				"element": "H" 
			},
			{
				"x": -1.8134231172,
				"y": 0.7388029204,
				"z": 1.106551967,
				"element": "H" 
			},
			{
				"x": -0.1187607502,
				"y": 0.5638031652,
				"z": 2.785592574,
				"element": "H" 
			},
			{
				"x": 0.5625051849,
				"y": -2.2476791958,
				"z": 1.8002291362,
				"element": "H" 
			},
			{
				"x": 1.508009643,
				"y": -1.2673218733,
				"z": 2.9375878524,
				"element": "H" 
			},
			{
				"x": -2.3275630071,
				"y": -4.4588666556,
				"z": 4.1411513214,
				"element": "H" 
			},
			{
				"x": 1.9660124425,
				"y": 0.4952609754,
				"z": 1.3842347837,
				"element": "H" 
			},
			{
				"x": 0.6699104757,
				"y": 1.4836442342,
				"z": 0.7204095447,
				"element": "H" 
			}
		],
		 "valence_orbital": [ 
			{
				"type": "occ",
				"energy": -0.30232,
				"method": "rhf"
			},
			{
				"type": "occ",
				"energy": -0.30051,
				"method": "rhf"
			},
			{
				"type": "occ",
				"energy": -0.29703,
				"method": "rhf"
			},
			{
				"type": "occ",
				"energy": -0.23434,
				"method": "rhf"
			},
			{
				"type": "occ",
				"energy": -0.23075,
				"method": "rhf"
			},
			{
				"type": "unocc",
				"energy": -0.11994,
				"method": "rhf"
			},
			{
				"type": "unocc",
				"energy": -0.11346,
				"method": "rhf"
			},
			{
				"type": "unocc",
				"energy": 0.02731,
				"method": "rhf"
			},
			{
				"type": "unocc",
				"energy": 0.03232,
				"method": "rhf"
			},
			{
				"type": "unocc",
				"energy": 0.06294,
				"method": "rhf"
			}
		],
		"cosmo_sigma_profile": { 
			"-0.025": 0.0,
			"-0.024": 0.0,
			"-0.023": 0.0,
			"-0.022": 0.0,
			"-0.021": 0.0,
			"-0.02": 0.0379138862513,
			"-0.019": 1.50515752841,
			"-0.018": 2.14893291765,
			"-0.017": 1.32318721523,
			"-0.016": 1.9222893732,
			"-0.015": 2.17770288369,
			"-0.014": 1.19707235157,
			"-0.013": 0.542142043132,
			"-0.012": 1.35522783746,
			"-0.011": 1.82752306337,
			"-0.01": 0.951887098685,
			"-0.009": 1.80145597,
			"-0.008": 1.94762213163,
			"-0.007": 2.35093315017,
			"-0.006": 4.85948661591,
			"-0.005": 13.4092559041,
			"-0.004": 23.5875694114,
			"-0.003": 27.9035840418,
			"-0.002": 35.3313352959,
			"-0.001": 27.4793941655,
			"0.0": 33.8173082733,
			"0.001": 27.0866748737,
			"0.002": 17.2129591929,
			"0.003": 12.8256954871,
			"0.004": 12.0925135898,
			"0.005": 9.32670897531,
			"0.006": 8.88157988908,
			"0.007": 8.63071752676,
			"0.008": 9.23400978843,
			"0.009": 7.76964959718,
			"0.01": 9.14751169737,
			"0.011": 7.18109506732,
			"0.012": 1.65422250212,
			"0.013": 0.0785814975469,
			"0.014": 0.0,
			"0.015": 0.0,
			"0.016": 0.0,
			"0.017": 0.0,
			"0.018": 0.0,
			"0.019": 0.0,
			"0.02": 0.0,
			"0.021": 0.0,
			"0.022": 0.0,
			"0.023": 0.0,
			"0.024": 0.0,
			"0.025": 0.0
		}
	}
}
