{
	 "smiles": "ClC1=C(C=CC=C1)N1C=C(C#N)C(=O)NC1=O", 
	 "Tm": 529.15, 
	 "num_atms": 23, 
	 "gaussian": { 
		 "optdone": 1, 
		 "sigma_profile": "yes", 
		 "theory": "DFT", 
		 "functional": "B3LYP", 
		 "basiset": "6-31G**", 
		 "properties": { 
			 "R2extent": 4975.4431, 
			 "electric_dipole_moment_norm": 7.48597577741, 
			 "electric_quadrupole_moment_norm": 36.7205080699, 
			 "total_energy": -1197.68422813, 
			 "HOMO_LUMO_gap": 0.18683, 
			 "cosmo_polarized_energy": -21.63, 
			 "cosmo_cavitation_energy": 31.86, 
			 "cosmo_dispersion_energy": -21.89, 
			 "cosmo_repulsion_energy": 1.7, 
			 "cosmo_total_nonelectrostatic_energy": 11.67, 
			 "SMD_solvation_energy": 8.59 
		},
		"coords": [
			{
				"x": 0.2671904204,
				"y": -0.0548875824,
				"z": 2.7588141008,
				"element": "Cl" 
			},
			{
				"x": -0.4311494676,
				"y": -0.8480838253,
				"z": 1.3626308114,
				"element": "C" 
			},
			{
				"x": -0.0053086786,
				"y": -0.5231970096,
				"z": 0.0671103722,
				"element": "C" 
			},
			{
				"x": -0.5989293405,
				"y": -1.1513411661,
				"z": -1.0302430175,
				"element": "C" 
			},
			{
				"x": -1.6004420559,
				"y": -2.0995106263,
				"z": -0.8411555061,
				"element": "C" 
			},
			{
				"x": -2.0094767214,
				"y": -2.4286057637,
				"z": 0.4525344591,
				"element": "C" 
			},
			{
				"x": -1.4272182318,
				"y": -1.8063611274,
				"z": 1.5552829032,
				"element": "C" 
			},
			{
				"x": 1.03673155,
				"y": 0.4436448425,
				"z": -0.1505468377,
				"element": "N" 
			},
			{
				"x": 2.3290136043,
				"y": 0.154848599,
				"z": 0.2015390603,
				"element": "C" 
			},
			{
				"x": 3.3601470485,
				"y": 1.0323188025,
				"z": 0.0451544386,
				"element": "C" 
			},
			{
				"x": 4.6865357132,
				"y": 0.6700134852,
				"z": 0.4171709469,
				"element": "C" 
			},
			{
				"x": 5.7627955217,
				"y": 0.353791601,
				"z": 0.7246534158,
				"element": "N" 
			},
			{
				"x": 3.1037135458,
				"y": 2.3669934254,
				"z": -0.5200516993,
				"element": "C" 
			},
			{
				"x": 3.926950384,
				"y": 3.2397508034,
				"z": -0.7093885112,
				"element": "O" 
			},
			{
				"x": 1.7493651227,
				"y": 2.5618395891,
				"z": -0.8485703308,
				"element": "N" 
			},
			{
				"x": 0.6788742241,
				"y": 1.6982175607,
				"z": -0.7075263843,
				"element": "C" 
			},
			{
				"x": -0.456934704,
				"y": 1.972264996,
				"z": -1.0314804703,
				"element": "O" 
			},
			{
				"x": -0.2692059555,
				"y": -0.8811728928,
				"z": -2.0274764766,
				"element": "H" 
			},
			{
				"x": -2.0567567212,
				"y": -2.5800582453,
				"z": -1.7001498444,
				"element": "H" 
			},
			{
				"x": -2.7870570291,
				"y": -3.1697290812,
				"z": 0.6084837761,
				"element": "H" 
			},
			{
				"x": -1.7417648197,
				"y": -2.0491433003,
				"z": 2.5639081185,
				"element": "H" 
			},
			{
				"x": 2.4872583534,
				"y": -0.8345574068,
				"z": 0.6135877255,
				"element": "H" 
			},
			{
				"x": 1.5186682372,
				"y": 3.4671643225,
				"z": -1.2419810502,
				"element": "H" 
			}
		],
		 "valence_orbital": [ 
			{
				"type": "occ",
				"energy": -0.30611,
				"method": "rhf"
			},
			{
				"type": "occ",
				"energy": -0.29493,
				"method": "rhf"
			},
			{
				"type": "occ",
				"energy": -0.2854,
				"method": "rhf"
			},
			{
				"type": "occ",
				"energy": -0.27764,
				"method": "rhf"
			},
			{
				"type": "occ",
				"energy": -0.2621,
				"method": "rhf"
			},
			{
				"type": "unocc",
				"energy": -0.07527,
				"method": "rhf"
			},
			{
				"type": "unocc",
				"energy": -0.04851,
				"method": "rhf"
			},
			{
				"type": "unocc",
				"energy": -0.04226,
				"method": "rhf"
			},
			{
				"type": "unocc",
				"energy": -0.02159,
				"method": "rhf"
			},
			{
				"type": "unocc",
				"energy": 3e-05,
				"method": "rhf"
			}
		],
		"cosmo_sigma_profile": { 
			"-0.025": 0.0,
			"-0.024": 0.0,
			"-0.023": 0.0,
			"-0.022": 0.0,
			"-0.021": 0.0,
			"-0.02": 0.0,
			"-0.019": 0.0,
			"-0.018": 0.0,
			"-0.017": 0.608022784729,
			"-0.016": 0.731303828219,
			"-0.015": 1.28661483952,
			"-0.014": 0.691786297784,
			"-0.013": 1.25737772405,
			"-0.012": 2.57289907844,
			"-0.011": 2.72992202797,
			"-0.01": 2.54932001668,
			"-0.009": 3.12104263385,
			"-0.008": 9.44346486111,
			"-0.007": 13.9483735734,
			"-0.006": 15.7285378436,
			"-0.005": 13.4326733469,
			"-0.004": 15.4963959572,
			"-0.003": 16.2654243021,
			"-0.002": 13.2021579493,
			"-0.001": 13.7174730804,
			"0.0": 16.0208157965,
			"0.001": 17.019670881,
			"0.002": 18.2124825003,
			"0.003": 13.7937520826,
			"0.004": 9.28020464906,
			"0.005": 5.22042767621,
			"0.006": 5.06733687236,
			"0.007": 6.92018423618,
			"0.008": 6.58871695583,
			"0.009": 7.07205469673,
			"0.01": 7.77572361759,
			"0.011": 13.3788888358,
			"0.012": 6.32929792939,
			"0.013": 0.803780674254,
			"0.014": 0.0,
			"0.015": 0.0,
			"0.016": 0.0,
			"0.017": 0.0,
			"0.018": 0.0,
			"0.019": 0.0,
			"0.02": 0.0,
			"0.021": 0.0,
			"0.022": 0.0,
			"0.023": 0.0,
			"0.024": 0.0,
			"0.025": 0.0
		}
	}
}
