{
	 "smiles": "CC1=C2C=CC=NC2=C(C)C=C1", 
	 "Tm": 277.65, 
	 "num_atms": 23, 
	 "gaussian": { 
		 "optdone": 1, 
		 "sigma_profile": "yes", 
		 "theory": "DFT", 
		 "functional": "B3LYP", 
		 "basiset": "6-31G**", 
		 "properties": { 
			 "R2extent": 2031.8132, 
			 "electric_dipole_moment_norm": 1.92146252891, 
			 "electric_quadrupole_moment_norm": 8.54282052311, 
			 "total_energy": -480.572692273, 
			 "HOMO_LUMO_gap": 0.1698, 
			 "cosmo_polarized_energy": -6.22, 
			 "cosmo_cavitation_energy": 25.72, 
			 "cosmo_dispersion_energy": -19.13, 
			 "cosmo_repulsion_energy": 1.5, 
			 "cosmo_total_nonelectrostatic_energy": 8.1, 
			 "SMD_solvation_energy": 3.27 
		},
		"coords": [
			{
				"x": -2.3510607558,
				"y": 0.7734194725,
				"z": -1.2955257589,
				"element": "C" 
			},
			{
				"x": -1.2331644735,
				"y": 0.3597824574,
				"z": -0.368989409,
				"element": "C" 
			},
			{
				"x": -0.0360275501,
				"y": -0.2407518414,
				"z": -0.876894956,
				"element": "C" 
			},
			{
				"x": 0.180153396,
				"y": -0.4846739299,
				"z": -2.2575764692,
				"element": "C" 
			},
			{
				"x": 1.3550555546,
				"y": -1.0657600852,
				"z": -2.6776363182,
				"element": "C" 
			},
			{
				"x": 2.3240938993,
				"y": -1.4065603167,
				"z": -1.7067429293,
				"element": "C" 
			},
			{
				"x": 2.1715367781,
				"y": -1.2009197746,
				"z": -0.4133345897,
				"element": "N" 
			},
			{
				"x": 1.0136420928,
				"y": -0.6260045252,
				"z": 0.0220779553,
				"element": "C" 
			},
			{
				"x": 0.8692960006,
				"y": -0.41194747,
				"z": 1.4314791666,
				"element": "C" 
			},
			{
				"x": 1.9742201951,
				"y": -0.8184049349,
				"z": 2.3698526366,
				"element": "C" 
			},
			{
				"x": -0.2976304443,
				"y": 0.1685023931,
				"z": 1.879831782,
				"element": "C" 
			},
			{
				"x": -1.3334910506,
				"y": 0.5487493293,
				"z": 0.9927864583,
				"element": "C" 
			},
			{
				"x": -2.749529228,
				"y": -0.0777648487,
				"z": -1.8607590919,
				"element": "H" 
			},
			{
				"x": -2.0196514666,
				"y": 1.5187643775,
				"z": -2.0286060499,
				"element": "H" 
			},
			{
				"x": -3.178119347,
				"y": 1.2109054543,
				"z": -0.7306595188,
				"element": "H" 
			},
			{
				"x": -0.5830226137,
				"y": -0.21176821,
				"z": -2.9796091005,
				"element": "H" 
			},
			{
				"x": 1.5437944727,
				"y": -1.2624607213,
				"z": -3.7284433803,
				"element": "H" 
			},
			{
				"x": 3.2616370496,
				"y": -1.8676341101,
				"z": -2.0172634118,
				"element": "H" 
			},
			{
				"x": 2.9094470323,
				"y": -0.3052501459,
				"z": 2.1243215716,
				"element": "H" 
			},
			{
				"x": 1.709234665,
				"y": -0.5885004996,
				"z": 3.4055833177,
				"element": "H" 
			},
			{
				"x": 2.1852681622,
				"y": -1.8896013966,
				"z": 2.2907228319,
				"element": "H" 
			},
			{
				"x": -0.4311545188,
				"y": 0.3414373488,
				"z": 2.9448365766,
				"element": "H" 
			},
			{
				"x": -2.2327278498,
				"y": 1.0027419772,
				"z": 1.401748687,
				"element": "H" 
			}
		],
		 "valence_orbital": [ 
			{
				"type": "occ",
				"energy": -0.32562,
				"method": "rhf"
			},
			{
				"type": "occ",
				"energy": -0.292,
				"method": "rhf"
			},
			{
				"type": "occ",
				"energy": -0.24739,
				"method": "rhf"
			},
			{
				"type": "occ",
				"energy": -0.24567,
				"method": "rhf"
			},
			{
				"type": "occ",
				"energy": -0.21733,
				"method": "rhf"
			},
			{
				"type": "unocc",
				"energy": -0.04753,
				"method": "rhf"
			},
			{
				"type": "unocc",
				"energy": -0.0112,
				"method": "rhf"
			},
			{
				"type": "unocc",
				"energy": 0.03006,
				"method": "rhf"
			},
			{
				"type": "unocc",
				"energy": 0.09302,
				"method": "rhf"
			},
			{
				"type": "unocc",
				"energy": 0.09415,
				"method": "rhf"
			}
		],
		"cosmo_sigma_profile": { 
			"-0.025": 0.0,
			"-0.024": 0.0,
			"-0.023": 0.0,
			"-0.022": 0.0,
			"-0.021": 0.0,
			"-0.02": 0.0,
			"-0.019": 0.0,
			"-0.018": 0.0,
			"-0.017": 0.0,
			"-0.016": 0.0,
			"-0.015": 0.0,
			"-0.014": 0.0,
			"-0.013": 0.0,
			"-0.012": 0.0,
			"-0.011": 0.0,
			"-0.01": 0.0,
			"-0.009": 0.0,
			"-0.008": 0.0,
			"-0.007": 1.21716331496,
			"-0.006": 7.41940065442,
			"-0.005": 14.7645103009,
			"-0.004": 20.9483434166,
			"-0.003": 18.0835485007,
			"-0.002": 15.5550105497,
			"-0.001": 17.7068210249,
			"0.0": 20.6752263282,
			"0.001": 16.7345068881,
			"0.002": 18.4833241371,
			"0.003": 21.3103621635,
			"0.004": 11.9071786595,
			"0.005": 8.25577809034,
			"0.006": 2.79818869868,
			"0.007": 1.31181612868,
			"0.008": 1.19981086369,
			"0.009": 0.977717590655,
			"0.01": 1.28400977705,
			"0.011": 1.41212491824,
			"0.012": 0.700704500709,
			"0.013": 1.06643659134,
			"0.014": 0.320356226188,
			"0.015": 0.521441793744,
			"0.016": 0.0,
			"0.017": 0.0,
			"0.018": 0.0,
			"0.019": 0.0,
			"0.02": 0.0,
			"0.021": 0.0,
			"0.022": 0.0,
			"0.023": 0.0,
			"0.024": 0.0,
			"0.025": 0.0
		}
	}
}
