{
	 "smiles": "CNC1=NC2=C(N1)C=CC=C2", 
	 "Tm": 464.15, 
	 "num_atms": 20, 
	 "gaussian": { 
		 "optdone": 1, 
		 "sigma_profile": "yes", 
		 "theory": "DFT", 
		 "functional": "B3LYP", 
		 "basiset": "6-31G**", 
		 "properties": { 
			 "R2extent": 2397.0317, 
			 "electric_dipole_moment_norm": 4.38822863921, 
			 "electric_quadrupole_moment_norm": 16.4666994811, 
			 "total_energy": -474.541720635, 
			 "HOMO_LUMO_gap": 0.19827, 
			 "cosmo_polarized_energy": -15.24, 
			 "cosmo_cavitation_energy": 23.59, 
			 "cosmo_dispersion_energy": -17.98, 
			 "cosmo_repulsion_energy": 1.44, 
			 "cosmo_total_nonelectrostatic_energy": 7.05, 
			 "SMD_solvation_energy": 0.96 
		},
		"coords": [
			{
				"x": 3.7993753471,
				"y": 2.8576193217,
				"z": 0.7914020489,
				"element": "C" 
			},
			{
				"x": 2.4832370048,
				"y": 3.2492944981,
				"z": 0.3135654532,
				"element": "N" 
			},
			{
				"x": 1.4557967955,
				"y": 2.3396009353,
				"z": 0.2253474217,
				"element": "C" 
			},
			{
				"x": 0.4422784066,
				"y": 2.4442258581,
				"z": -0.6037528511,
				"element": "N" 
			},
			{
				"x": -0.3738988374,
				"y": 1.3608320576,
				"z": -0.2998589641,
				"element": "C" 
			},
			{
				"x": 0.1917901148,
				"y": 0.5835745215,
				"z": 0.7409371981,
				"element": "C" 
			},
			{
				"x": 1.3835614964,
				"y": 1.2357455774,
				"z": 1.053506747,
				"element": "N" 
			},
			{
				"x": -0.4116106994,
				"y": -0.5659834583,
				"z": 1.2398382238,
				"element": "C" 
			},
			{
				"x": -1.6308276546,
				"y": -0.9376501253,
				"z": 0.6662621683,
				"element": "C" 
			},
			{
				"x": -2.2086265437,
				"y": -0.1818605963,
				"z": -0.367663572,
				"element": "C" 
			},
			{
				"x": -1.5925809481,
				"y": 0.9685025795,
				"z": -0.8619782268,
				"element": "C" 
			},
			{
				"x": 3.7594775131,
				"y": 2.5889327006,
				"z": 1.8536663578,
				"element": "H" 
			},
			{
				"x": 4.4700391038,
				"y": 3.7150285473,
				"z": 0.7089281391,
				"element": "H" 
			},
			{
				"x": 4.2398865172,
				"y": 2.0154318532,
				"z": 0.2367393228,
				"element": "H" 
			},
			{
				"x": 2.4670137696,
				"y": 3.884312568,
				"z": -0.4728948484,
				"element": "H" 
			},
			{
				"x": 2.0112838529,
				"y": 1.0073971653,
				"z": 1.8067792586,
				"element": "H" 
			},
			{
				"x": 0.0363583625,
				"y": -1.1505988067,
				"z": 2.0383745205,
				"element": "H" 
			},
			{
				"x": -2.1383986308,
				"y": -1.8270059629,
				"z": 1.0277471766,
				"element": "H" 
			},
			{
				"x": -3.1568034808,
				"y": -0.5018416767,
				"z": -0.7902249284,
				"element": "H" 
			},
			{
				"x": -2.0383514895,
				"y": 1.5531424425,
				"z": -1.6603206454,
				"element": "H" 
			}
		],
		 "valence_orbital": [ 
			{
				"type": "occ",
				"energy": -0.30138,
				"method": "rhf"
			},
			{
				"type": "occ",
				"energy": -0.27218,
				"method": "rhf"
			},
			{
				"type": "occ",
				"energy": -0.26218,
				"method": "rhf"
			},
			{
				"type": "occ",
				"energy": -0.21572,
				"method": "rhf"
			},
			{
				"type": "occ",
				"energy": -0.19123,
				"method": "rhf"
			},
			{
				"type": "unocc",
				"energy": 0.00704,
				"method": "rhf"
			},
			{
				"type": "unocc",
				"energy": 0.03424,
				"method": "rhf"
			},
			{
				"type": "unocc",
				"energy": 0.0591,
				"method": "rhf"
			},
			{
				"type": "unocc",
				"energy": 0.07547,
				"method": "rhf"
			},
			{
				"type": "unocc",
				"energy": 0.08969,
				"method": "rhf"
			}
		],
		"cosmo_sigma_profile": { 
			"-0.025": 0.0,
			"-0.024": 0.0,
			"-0.023": 0.0,
			"-0.022": 0.0,
			"-0.021": 0.0,
			"-0.02": 0.0,
			"-0.019": 0.0,
			"-0.018": 0.0,
			"-0.017": 0.0,
			"-0.016": 0.56829223103,
			"-0.015": 1.17638125847,
			"-0.014": 1.29979315885,
			"-0.013": 2.40264245748,
			"-0.012": 2.54821855787,
			"-0.011": 2.01648622853,
			"-0.01": 2.40224589029,
			"-0.009": 2.95731102983,
			"-0.008": 1.98905780679,
			"-0.007": 3.29844489835,
			"-0.006": 7.30281516755,
			"-0.005": 11.6311919108,
			"-0.004": 14.4300345903,
			"-0.003": 17.0942957184,
			"-0.002": 16.9381661985,
			"-0.001": 8.48975541933,
			"0.0": 7.34644559353,
			"0.001": 7.61857971068,
			"0.002": 9.04658811153,
			"0.003": 9.52904381888,
			"0.004": 9.93504413927,
			"0.005": 11.0818203476,
			"0.006": 11.8191408235,
			"0.007": 9.36720552266,
			"0.008": 3.02659261341,
			"0.009": 2.07780587591,
			"0.01": 2.24679608905,
			"0.011": 1.11270521899,
			"0.012": 1.24117328491,
			"0.013": 1.07649279565,
			"0.014": 0.792560329047,
			"0.015": 0.948907370862,
			"0.016": 1.5476922799,
			"0.017": 0.593788898533,
			"0.018": 0.836838724186,
			"0.019": 0.0588606825902,
			"0.02": 0.0,
			"0.021": 0.0,
			"0.022": 0.0,
			"0.023": 0.0,
			"0.024": 0.0,
			"0.025": 0.0
		}
	}
}
