{
	 "smiles": "ClCC1=CC=C(C=C1)C1=NC2=C(S1)C(Cl)=CC=C2", 
	 "Tm": 447.15, 
	 "num_atms": 27, 
	 "gaussian": { 
		 "optdone": 1, 
		 "sigma_profile": "yes", 
		 "theory": "DFT", 
		 "functional": "B3LYP", 
		 "basiset": "6-31G**", 
		 "properties": { 
			 "R2extent": 9797.2808, 
			 "electric_dipole_moment_norm": 2.12596250437, 
			 "electric_quadrupole_moment_norm": 18.0293337051, 
			 "total_energy": -1912.26014229, 
			 "HOMO_LUMO_gap": 0.15844, 
			 "cosmo_polarized_energy": -9.33, 
			 "cosmo_cavitation_energy": 36.82, 
			 "cosmo_dispersion_energy": -27.63, 
			 "cosmo_repulsion_energy": 2.07, 
			 "cosmo_total_nonelectrostatic_energy": 11.26, 
			 "SMD_solvation_energy": 3.54 
		},
		"coords": [
			{
				"x": -1.6818032357,
				"y": 1.6367010566,
				"z": 5.2326826279,
				"element": "Cl" 
			},
			{
				"x": -1.5170439161,
				"y": 2.5855994916,
				"z": 3.6681472381,
				"element": "C" 
			},
			{
				"x": -1.1753717764,
				"y": 1.7054560881,
				"z": 2.5042129607,
				"element": "C" 
			},
			{
				"x": 0.1623047735,
				"y": 1.4424181402,
				"z": 2.174759634,
				"element": "C" 
			},
			{
				"x": 0.4838618033,
				"y": 0.6306893867,
				"z": 1.094597623,
				"element": "C" 
			},
			{
				"x": -0.5323541253,
				"y": 0.0552516183,
				"z": 0.3104359804,
				"element": "C" 
			},
			{
				"x": -1.8717453845,
				"y": 0.316436848,
				"z": 0.640403233,
				"element": "C" 
			},
			{
				"x": -2.1862527801,
				"y": 1.1305089384,
				"z": 1.7236055989,
				"element": "C" 
			},
			{
				"x": -0.1578421356,
				"y": -0.7947134861,
				"z": -0.8271202665,
				"element": "C" 
			},
			{
				"x": 1.0718505897,
				"y": -1.0471903901,
				"z": -1.1640370077,
				"element": "N" 
			},
			{
				"x": 1.1431827142,
				"y": -1.8725156552,
				"z": -2.2675078295,
				"element": "C" 
			},
			{
				"x": -0.1111936366,
				"y": -2.2689345785,
				"z": -2.7992440779,
				"element": "C" 
			},
			{
				"x": -1.4001567293,
				"y": -1.565340574,
				"z": -1.8584078117,
				"element": "S" 
			},
			{
				"x": -0.1708205616,
				"y": -3.1036936307,
				"z": -3.9161280311,
				"element": "C" 
			},
			{
				"x": -1.7223600789,
				"y": -3.5918421811,
				"z": -4.5715026757,
				"element": "Cl" 
			},
			{
				"x": 1.0101625148,
				"y": -3.5448790904,
				"z": -4.504633404,
				"element": "C" 
			},
			{
				"x": 2.2505655722,
				"y": -3.1506976162,
				"z": -3.975576514,
				"element": "C" 
			},
			{
				"x": 2.3307593333,
				"y": -2.3204701463,
				"z": -2.8651218771,
				"element": "C" 
			},
			{
				"x": -2.4746334082,
				"y": 3.0886534911,
				"z": 3.5333434159,
				"element": "H" 
			},
			{
				"x": -0.741687443,
				"y": 3.3271670566,
				"z": 3.8608614185,
				"element": "H" 
			},
			{
				"x": 0.9574094884,
				"y": 1.8781966987,
				"z": 2.77384837,
				"element": "H" 
			},
			{
				"x": 1.5170791461,
				"y": 0.428759005,
				"z": 0.8362932988,
				"element": "H" 
			},
			{
				"x": -2.6762501728,
				"y": -0.113107205,
				"z": 0.0504372201,
				"element": "H" 
			},
			{
				"x": -3.2278229196,
				"y": 1.3206065787,
				"z": 1.9674638371,
				"element": "H" 
			},
			{
				"x": 0.9613579517,
				"y": -4.1934583929,
				"z": -5.3721015755,
				"element": "H" 
			},
			{
				"x": 3.1592320858,
				"y": -3.506976247,
				"z": -4.4504920613,
				"element": "H" 
			},
			{
				"x": 3.2835723306,
				"y": -2.0113252046,
				"z": -2.4499193244,
				"element": "H" 
			}
		],
		 "valence_orbital": [ 
			{
				"type": "occ",
				"energy": -0.285,
				"method": "rhf"
			},
			{
				"type": "occ",
				"energy": -0.28176,
				"method": "rhf"
			},
			{
				"type": "occ",
				"energy": -0.26996,
				"method": "rhf"
			},
			{
				"type": "occ",
				"energy": -0.24115,
				"method": "rhf"
			},
			{
				"type": "occ",
				"energy": -0.23418,
				"method": "rhf"
			},
			{
				"type": "unocc",
				"energy": -0.07574,
				"method": "rhf"
			},
			{
				"type": "unocc",
				"energy": -0.02194,
				"method": "rhf"
			},
			{
				"type": "unocc",
				"energy": -0.01811,
				"method": "rhf"
			},
			{
				"type": "unocc",
				"energy": -0.01317,
				"method": "rhf"
			},
			{
				"type": "unocc",
				"energy": -0.00534,
				"method": "rhf"
			}
		],
		"cosmo_sigma_profile": { 
			"-0.025": 0.0,
			"-0.024": 0.0,
			"-0.023": 0.0,
			"-0.022": 0.0,
			"-0.021": 0.0,
			"-0.02": 0.0,
			"-0.019": 0.0,
			"-0.018": 0.0,
			"-0.017": 0.0,
			"-0.016": 0.0,
			"-0.015": 0.0,
			"-0.014": 0.0,
			"-0.013": 0.0,
			"-0.012": 0.0,
			"-0.011": 0.0,
			"-0.01": 0.0,
			"-0.009": 0.0,
			"-0.008": 5.46437955776,
			"-0.007": 16.7051064312,
			"-0.006": 17.4559057116,
			"-0.005": 17.1476374193,
			"-0.004": 14.159071618,
			"-0.003": 13.1060822654,
			"-0.002": 14.5673826712,
			"-0.001": 19.8247476199,
			"0.0": 25.9398415003,
			"0.001": 34.9332437318,
			"0.002": 36.6346354954,
			"0.003": 37.3206725046,
			"0.004": 19.1272897964,
			"0.005": 9.48038852844,
			"0.006": 10.3730843146,
			"0.007": 6.72105024504,
			"0.008": 1.48062672772,
			"0.009": 1.08592799314,
			"0.01": 1.41003208062,
			"0.011": 0.312486550702,
			"0.012": 0.0,
			"0.013": 0.0,
			"0.014": 0.0,
			"0.015": 0.0,
			"0.016": 0.0,
			"0.017": 0.0,
			"0.018": 0.0,
			"0.019": 0.0,
			"0.02": 0.0,
			"0.021": 0.0,
			"0.022": 0.0,
			"0.023": 0.0,
			"0.024": 0.0,
			"0.025": 0.0
		}
	}
}
