{
	 "smiles": "OC(=O)C1C2CC3(OCCO3)C1CC2Cl", 
	 "Tm": 438.15, 
	 "num_atms": 28, 
	 "gaussian": { 
		 "optdone": 1, 
		 "sigma_profile": "yes", 
		 "theory": "DFT", 
		 "functional": "B3LYP", 
		 "basiset": "6-31G**", 
		 "properties": { 
			 "R2extent": 3527.6732, 
			 "electric_dipole_moment_norm": 7.59993189838, 
			 "electric_quadrupole_moment_norm": 23.0434729268, 
			 "total_energy": -1149.97749334, 
			 "HOMO_LUMO_gap": 0.2662, 
			 "cosmo_polarized_energy": -17.32, 
			 "cosmo_cavitation_energy": 30.03, 
			 "cosmo_dispersion_energy": -22.2, 
			 "cosmo_repulsion_energy": 1.72, 
			 "cosmo_total_nonelectrostatic_energy": 9.56, 
			 "SMD_solvation_energy": 5.26 
		},
		"coords": [
			{
				"x": -3.0925191307,
				"y": 0.1152435339,
				"z": -1.371556292,
				"element": "O" 
			},
			{
				"x": -3.0116810926,
				"y": -0.448569617,
				"z": -0.154483711,
				"element": "C" 
			},
			{
				"x": -4.0105517106,
				"y": -0.6562300933,
				"z": 0.4963988446,
				"element": "O" 
			},
			{
				"x": -1.6473414526,
				"y": -0.8572889578,
				"z": 0.4194617517,
				"element": "C" 
			},
			{
				"x": -1.0701090534,
				"y": 0.1138968571,
				"z": 1.4902604312,
				"element": "C" 
			},
			{
				"x": -0.5485563944,
				"y": 1.2874259481,
				"z": 0.6260064055,
				"element": "C" 
			},
			{
				"x": 0.0103880563,
				"y": 0.5927975837,
				"z": -0.6397608456,
				"element": "C" 
			},
			{
				"x": -0.6375345999,
				"y": 1.067735341,
				"z": -1.8423040386,
				"element": "O" 
			},
			{
				"x": 0.3549679638,
				"y": 1.3275118016,
				"z": -2.8455788079,
				"element": "C" 
			},
			{
				"x": 1.6310538115,
				"y": 0.7470405892,
				"z": -2.2279746605,
				"element": "C" 
			},
			{
				"x": 1.3788993031,
				"y": 0.8707562184,
				"z": -0.8299573932,
				"element": "O" 
			},
			{
				"x": -0.3260460629,
				"y": -0.9067003067,
				"z": -0.3957810382,
				"element": "C" 
			},
			{
				"x": 0.6478125428,
				"y": -1.4162752389,
				"z": 0.6964558339,
				"element": "C" 
			},
			{
				"x": 0.1672971976,
				"y": -0.669094321,
				"z": 1.9758480114,
				"element": "C" 
			},
			{
				"x": -0.2428486002,
				"y": -1.8221010878,
				"z": 3.3314145833,
				"element": "Cl" 
			},
			{
				"x": -2.2140983548,
				"y": 0.3547829952,
				"z": -1.7335294162,
				"element": "H" 
			},
			{
				"x": -1.8449986774,
				"y": -1.8285172054,
				"z": 0.881576101,
				"element": "H" 
			},
			{
				"x": -1.7562632052,
				"y": 0.4065922023,
				"z": 2.2844288062,
				"element": "H" 
			},
			{
				"x": 0.2255045432,
				"y": 1.886909025,
				"z": 1.1118975277,
				"element": "H" 
			},
			{
				"x": -1.3666799402,
				"y": 1.9526769171,
				"z": 0.3371299935,
				"element": "H" 
			},
			{
				"x": 0.4292429066,
				"y": 2.4093036295,
				"z": -3.0020150387,
				"element": "H" 
			},
			{
				"x": 0.0664414298,
				"y": 0.8446100954,
				"z": -3.7834578727,
				"element": "H" 
			},
			{
				"x": 2.5340102321,
				"y": 1.3132476887,
				"z": -2.4641233138,
				"element": "H" 
			},
			{
				"x": 1.7786118152,
				"y": -0.3038473979,
				"z": -2.5131986363,
				"element": "H" 
			},
			{
				"x": -0.3257843708,
				"y": -1.5103008303,
				"z": -1.3063179138,
				"element": "H" 
			},
			{
				"x": 1.6904258066,
				"y": -1.1934239911,
				"z": 0.4636500851,
				"element": "H" 
			},
			{
				"x": 0.5440834779,
				"y": -2.4959249899,
				"z": 0.8202508079,
				"element": "H" 
			},
			{
				"x": 0.9292735594,
				"y": -0.0140563887,
				"z": 2.3984597956,
				"element": "H" 
			}
		],
		 "valence_orbital": [ 
			{
				"type": "occ",
				"energy": -0.29741,
				"method": "rhf"
			},
			{
				"type": "occ",
				"energy": -0.29508,
				"method": "rhf"
			},
			{
				"type": "occ",
				"energy": -0.29058,
				"method": "rhf"
			},
			{
				"type": "occ",
				"energy": -0.2792,
				"method": "rhf"
			},
			{
				"type": "occ",
				"energy": -0.25377,
				"method": "rhf"
			},
			{
				"type": "unocc",
				"energy": 0.01243,
				"method": "rhf"
			},
			{
				"type": "unocc",
				"energy": 0.01718,
				"method": "rhf"
			},
			{
				"type": "unocc",
				"energy": 0.05894,
				"method": "rhf"
			},
			{
				"type": "unocc",
				"energy": 0.06844,
				"method": "rhf"
			},
			{
				"type": "unocc",
				"energy": 0.0892,
				"method": "rhf"
			}
		],
		"cosmo_sigma_profile": { 
			"-0.025": 0.0,
			"-0.024": 0.0,
			"-0.023": 0.0,
			"-0.022": 0.0,
			"-0.021": 0.0,
			"-0.02": 0.0,
			"-0.019": 0.0,
			"-0.018": 0.0,
			"-0.017": 0.0,
			"-0.016": 0.0,
			"-0.015": 0.0,
			"-0.014": 0.0,
			"-0.013": 0.0,
			"-0.012": 0.0,
			"-0.011": 0.0,
			"-0.01": 0.0,
			"-0.009": 0.0,
			"-0.008": 0.279225461957,
			"-0.007": 7.44445190081,
			"-0.006": 24.3703114631,
			"-0.005": 30.1668333405,
			"-0.004": 26.3946932953,
			"-0.003": 19.7171765193,
			"-0.002": 15.3178330107,
			"-0.001": 11.9390108894,
			"0.0": 10.4257837661,
			"0.001": 9.75260431101,
			"0.002": 8.89478474361,
			"0.003": 8.20627075102,
			"0.004": 9.13446215845,
			"0.005": 9.8197892663,
			"0.006": 11.1906970021,
			"0.007": 6.41477316629,
			"0.008": 2.96488086553,
			"0.009": 2.88422151143,
			"0.01": 4.9847748497,
			"0.011": 4.45981344448,
			"0.012": 6.38202401782,
			"0.013": 4.89230142851,
			"0.014": 1.3144766703,
			"0.015": 0.0136401453527,
			"0.016": 0.0,
			"0.017": 0.0,
			"0.018": 0.0,
			"0.019": 0.0,
			"0.02": 0.0,
			"0.021": 0.0,
			"0.022": 0.0,
			"0.023": 0.0,
			"0.024": 0.0,
			"0.025": 0.0
		}
	}
}
