{
	 "smiles": "CCC1=C(NC2=NN=C(S)S2)C(C)=CC=C1", 
	 "Tm": 429.15, 
	 "num_atms": 29, 
	 "gaussian": { 
		 "optdone": 1, 
		 "sigma_profile": "yes", 
		 "theory": "DFT", 
		 "functional": "B3LYP", 
		 "basiset": "6-31G**", 
		 "properties": { 
			 "R2extent": 6956.4686, 
			 "electric_dipole_moment_norm": 4.03540630049, 
			 "electric_quadrupole_moment_norm": 24.6131929213, 
			 "total_energy": -1387.60638225, 
			 "HOMO_LUMO_gap": 0.18272, 
			 "cosmo_polarized_energy": -16.48, 
			 "cosmo_cavitation_energy": 35.6, 
			 "cosmo_dispersion_energy": -25.66, 
			 "cosmo_repulsion_energy": 1.92, 
			 "cosmo_total_nonelectrostatic_energy": 11.87, 
			 "SMD_solvation_energy": 3.48 
		},
		"coords": [
			{
				"x": -2.6655731105,
				"y": -1.0636114418,
				"z": 0.1051954007,
				"element": "C" 
			},
			{
				"x": -1.8356574384,
				"y": 0.079147485,
				"z": 0.7196559935,
				"element": "C" 
			},
			{
				"x": -0.6753616525,
				"y": -0.4205043533,
				"z": 1.5583974672,
				"element": "C" 
			},
			{
				"x": 0.5436149405,
				"y": -0.8346569176,
				"z": 0.985064333,
				"element": "C" 
			},
			{
				"x": 0.7374658958,
				"y": -0.6627468864,
				"z": -0.4260427321,
				"element": "N" 
			},
			{
				"x": 0.8510830359,
				"y": -1.6906109481,
				"z": -1.3191844096,
				"element": "C" 
			},
			{
				"x": 0.8627330853,
				"y": -2.9630148921,
				"z": -1.0033556264,
				"element": "N" 
			},
			{
				"x": 1.0659985434,
				"y": -3.7757680129,
				"z": -2.0832070739,
				"element": "N" 
			},
			{
				"x": 1.1881931543,
				"y": -3.145412579,
				"z": -3.2083393089,
				"element": "C" 
			},
			{
				"x": 1.3006255256,
				"y": -3.9787495542,
				"z": -4.7650096348,
				"element": "S" 
			},
			{
				"x": 1.0649500981,
				"y": -1.378931848,
				"z": -3.048001106,
				"element": "S" 
			},
			{
				"x": 1.5960679514,
				"y": -1.3441855522,
				"z": 1.7705745625,
				"element": "C" 
			},
			{
				"x": 2.9096181168,
				"y": -1.7601279457,
				"z": 1.1612767914,
				"element": "C" 
			},
			{
				"x": 1.3908377146,
				"y": -1.453449905,
				"z": 3.1506127553,
				"element": "C" 
			},
			{
				"x": 0.1956649084,
				"y": -1.0471916909,
				"z": 3.738933497,
				"element": "C" 
			},
			{
				"x": -0.8239880381,
				"y": -0.5271399926,
				"z": 2.9457043268,
				"element": "C" 
			},
			{
				"x": -2.0506811885,
				"y": -1.7090447708,
				"z": -0.5283827921,
				"element": "H" 
			},
			{
				"x": -3.4863861624,
				"y": -0.6666099548,
				"z": -0.5011909402,
				"element": "H" 
			},
			{
				"x": -3.0951574606,
				"y": -1.6908975751,
				"z": 0.8921430379,
				"element": "H" 
			},
			{
				"x": -2.4831993776,
				"y": 0.6956175735,
				"z": 1.3528115954,
				"element": "H" 
			},
			{
				"x": -1.4901403729,
				"y": 0.7448406539,
				"z": -0.0820671562,
				"element": "H" 
			},
			{
				"x": 0.4316445466,
				"y": 0.2186118272,
				"z": -0.8116680859,
				"element": "H" 
			},
			{
				"x": 2.3952577441,
				"y": -3.3286736382,
				"z": -5.2146084545,
				"element": "H" 
			},
			{
				"x": 2.8055781738,
				"y": -2.7151185456,
				"z": 0.6353440194,
				"element": "H" 
			},
			{
				"x": 3.2590656208,
				"y": -1.0251182906,
				"z": 0.4287530195,
				"element": "H" 
			},
			{
				"x": 3.676236582,
				"y": -1.8701557703,
				"z": 1.9324631522,
				"element": "H" 
			},
			{
				"x": 2.1925321059,
				"y": -1.8482657184,
				"z": 3.7687591151,
				"element": "H" 
			},
			{
				"x": 0.0624526569,
				"y": -1.1284911898,
				"z": 4.8138032114,
				"element": "H" 
			},
			{
				"x": -1.7574755989,
				"y": -0.2063395661,
				"z": 3.4009650423,
				"element": "H" 
			}
		],
		 "valence_orbital": [ 
			{
				"type": "occ",
				"energy": -0.27598,
				"method": "rhf"
			},
			{
				"type": "occ",
				"energy": -0.26462,
				"method": "rhf"
			},
			{
				"type": "occ",
				"energy": -0.24993,
				"method": "rhf"
			},
			{
				"type": "occ",
				"energy": -0.2406,
				"method": "rhf"
			},
			{
				"type": "occ",
				"energy": -0.2202,
				"method": "rhf"
			},
			{
				"type": "unocc",
				"energy": -0.03748,
				"method": "rhf"
			},
			{
				"type": "unocc",
				"energy": -0.01639,
				"method": "rhf"
			},
			{
				"type": "unocc",
				"energy": -0.00656,
				"method": "rhf"
			},
			{
				"type": "unocc",
				"energy": -0.00119,
				"method": "rhf"
			},
			{
				"type": "unocc",
				"energy": 0.02281,
				"method": "rhf"
			}
		],
		"cosmo_sigma_profile": { 
			"-0.025": 0.0,
			"-0.024": 0.0,
			"-0.023": 0.0,
			"-0.022": 0.0,
			"-0.021": 0.0,
			"-0.02": 0.0,
			"-0.019": 0.0,
			"-0.018": 0.0,
			"-0.017": 0.0,
			"-0.016": 0.588304668426,
			"-0.015": 1.04646190393,
			"-0.014": 1.4216245691,
			"-0.013": 1.61905296289,
			"-0.012": 1.89973334078,
			"-0.011": 4.56335263578,
			"-0.01": 3.35954087309,
			"-0.009": 3.21695971793,
			"-0.008": 2.61701196708,
			"-0.007": 2.72050620477,
			"-0.006": 4.62140116179,
			"-0.005": 11.8046129654,
			"-0.004": 15.3623520468,
			"-0.003": 20.4897877701,
			"-0.002": 23.8631359409,
			"-0.001": 34.175624239,
			"0.0": 33.4560505584,
			"0.001": 28.6976166788,
			"0.002": 19.8887921465,
			"0.003": 14.5345515389,
			"0.004": 10.7564227234,
			"0.005": 12.0658704523,
			"0.006": 9.80343506119,
			"0.007": 5.40649869583,
			"0.008": 3.36608869018,
			"0.009": 2.32251467315,
			"0.01": 3.0726432708,
			"0.011": 2.50142988518,
			"0.012": 3.37277817242,
			"0.013": 2.68959602714,
			"0.014": 1.81755058265,
			"0.015": 0.57624882041,
			"0.016": 0.0,
			"0.017": 0.0,
			"0.018": 0.0,
			"0.019": 0.0,
			"0.02": 0.0,
			"0.021": 0.0,
			"0.022": 0.0,
			"0.023": 0.0,
			"0.024": 0.0,
			"0.025": 0.0
		}
	}
}
