{
	 "smiles": "CC(C)C1=C(O)C(=O)C2=C([C@H](O)[C@@H](O)[C@H]3C(C)(C)CCC[C@]23C)C1=O", 
	 "Tm": 477.15, 
	 "num_atms": 53, 
	 "gaussian": { 
		 "optdone": 1, 
		 "sigma_profile": "yes", 
		 "theory": "DFT", 
		 "functional": "B3LYP", 
		 "basiset": "6-31G**", 
		 "properties": { 
			 "R2extent": 9132.2006, 
			 "electric_dipole_moment_norm": 0.65915184897, 
			 "electric_quadrupole_moment_norm": 6.77867685983, 
			 "total_energy": -1155.11523412, 
			 "HOMO_LUMO_gap": 0.12138, 
			 "cosmo_polarized_energy": -12.28, 
			 "cosmo_cavitation_energy": 47.28, 
			 "cosmo_dispersion_energy": -33.45, 
			 "cosmo_repulsion_energy": 2.48, 
			 "cosmo_total_nonelectrostatic_energy": 16.31, 
			 "SMD_solvation_energy": 8.69 
		},
		"coords": [
			{
				"x": 1.6550036475,
				"y": 0.0901546419,
				"z": 5.4775441499,
				"element": "C" 
			},
			{
				"x": 0.5162742449,
				"y": -0.7918323396,
				"z": 4.9276266963,
				"element": "C" 
			},
			{
				"x": -0.8587224166,
				"y": -0.3250767033,
				"z": 5.4483224794,
				"element": "C" 
			},
			{
				"x": 0.5465985976,
				"y": -0.8859191972,
				"z": 3.4123185485,
				"element": "C" 
			},
			{
				"x": 0.670322069,
				"y": -2.0678521798,
				"z": 2.7592305487,
				"element": "C" 
			},
			{
				"x": 0.7986612553,
				"y": -3.2465075234,
				"z": 3.3817746726,
				"element": "O" 
			},
			{
				"x": 0.6818427845,
				"y": -2.1938212485,
				"z": 1.2589780782,
				"element": "C" 
			},
			{
				"x": 0.8487158818,
				"y": -3.3386647466,
				"z": 0.8327185208,
				"element": "O" 
			},
			{
				"x": 0.5330265215,
				"y": -0.9865272682,
				"z": 0.4062402582,
				"element": "C" 
			},
			{
				"x": 0.4977489106,
				"y": 0.1997477544,
				"z": 1.0604215534,
				"element": "C" 
			},
			{
				"x": 0.4931409407,
				"y": 1.5472376879,
				"z": 0.3627272524,
				"element": "C" 
			},
			{
				"x": -0.7587349618,
				"y": 2.2006818473,
				"z": 0.5461148954,
				"element": "O" 
			},
			{
				"x": 0.7438868617,
				"y": 1.452801348,
				"z": -1.1483811374,
				"element": "C" 
			},
			{
				"x": 2.1423391236,
				"y": 1.3874816488,
				"z": -1.43777417,
				"element": "O" 
			},
			{
				"x": 0.0041113294,
				"y": 0.2388593403,
				"z": -1.7219864695,
				"element": "C" 
			},
			{
				"x": -0.2715898632,
				"y": 0.2818960211,
				"z": -3.267542373,
				"element": "C" 
			},
			{
				"x": 0.9847000972,
				"y": 0.235521066,
				"z": -4.1668931015,
				"element": "C" 
			},
			{
				"x": -1.0238377753,
				"y": 1.5900891297,
				"z": -3.6084286761,
				"element": "C" 
			},
			{
				"x": -1.225893699,
				"y": -0.8925489942,
				"z": -3.605088065,
				"element": "C" 
			},
			{
				"x": -0.7664073503,
				"y": -2.2462522509,
				"z": -3.0582364236,
				"element": "C" 
			},
			{
				"x": -0.5352276494,
				"y": -2.2066155918,
				"z": -1.5418934747,
				"element": "C" 
			},
			{
				"x": 0.5098949752,
				"y": -1.1249265392,
				"z": -1.124498563,
				"element": "C" 
			},
			{
				"x": 1.9335432878,
				"y": -1.5790556319,
				"z": -1.553938489,
				"element": "C" 
			},
			{
				"x": 0.4027057781,
				"y": 0.3006801238,
				"z": 2.5647224437,
				"element": "C" 
			},
			{
				"x": 0.1866568188,
				"y": 1.4195929106,
				"z": 3.0498778038,
				"element": "O" 
			},
			{
				"x": 1.5378921695,
				"y": 1.1279237625,
				"z": 5.1570795613,
				"element": "H" 
			},
			{
				"x": 2.6326537386,
				"y": -0.2690401427,
				"z": 5.1396081935,
				"element": "H" 
			},
			{
				"x": 1.6495567889,
				"y": 0.065925147,
				"z": 6.5725301081,
				"element": "H" 
			},
			{
				"x": 0.6795832729,
				"y": -1.809923213,
				"z": 5.2960323981,
				"element": "H" 
			},
			{
				"x": -1.65961385,
				"y": -0.981878125,
				"z": 5.0935363758,
				"element": "H" 
			},
			{
				"x": -1.0756670376,
				"y": 0.6940245657,
				"z": 5.1204636538,
				"element": "H" 
			},
			{
				"x": -0.8690269732,
				"y": -0.3446016711,
				"z": 6.543478268,
				"element": "H" 
			},
			{
				"x": 0.884462772,
				"y": -3.9042899872,
				"z": 2.6578068398,
				"element": "H" 
			},
			{
				"x": 1.3027435133,
				"y": 2.1490143988,
				"z": 0.8068119087,
				"element": "H" 
			},
			{
				"x": -0.8301205096,
				"y": 2.3399152073,
				"z": 1.5039084383,
				"element": "H" 
			},
			{
				"x": 0.3135235354,
				"y": 2.3689667451,
				"z": -1.5685602116,
				"element": "H" 
			},
			{
				"x": 2.5337252281,
				"y": 2.2370954545,
				"z": -1.1968593167,
				"element": "H" 
			},
			{
				"x": -0.9991147383,
				"y": 0.354527325,
				"z": -1.2834188653,
				"element": "H" 
			},
			{
				"x": 0.7073091336,
				"y": 0.5068087136,
				"z": -5.1922626786,
				"element": "H" 
			},
			{
				"x": 1.4426209753,
				"y": -0.7541647212,
				"z": -4.2132819961,
				"element": "H" 
			},
			{
				"x": 1.7464740156,
				"y": 0.9360267619,
				"z": -3.8179169895,
				"element": "H" 
			},
			{
				"x": -0.3672210734,
				"y": 2.4655037237,
				"z": -3.5866416298,
				"element": "H" 
			},
			{
				"x": -1.8564161928,
				"y": 1.7735531813,
				"z": -2.919989906,
				"element": "H" 
			},
			{
				"x": -1.4355064538,
				"y": 1.5245836496,
				"z": -4.6216943492,
				"element": "H" 
			},
			{
				"x": -2.2163595108,
				"y": -0.665590134,
				"z": -3.1846280192,
				"element": "H" 
			},
			{
				"x": -1.3585338094,
				"y": -0.9453332786,
				"z": -4.6934562376,
				"element": "H" 
			},
			{
				"x": 0.1474941118,
				"y": -2.5733616949,
				"z": -3.5681614032,
				"element": "H" 
			},
			{
				"x": -1.5216987221,
				"y": -3.0093288187,
				"z": -3.2823736607,
				"element": "H" 
			},
			{
				"x": -0.2130294783,
				"y": -3.1866658278,
				"z": -1.1881304307,
				"element": "H" 
			},
			{
				"x": -1.4902451719,
				"y": -1.9837018494,
				"z": -1.0448032405,
				"element": "H" 
			},
			{
				"x": 1.9860531775,
				"y": -1.7779425818,
				"z": -2.6237171202,
				"element": "H" 
			},
			{
				"x": 2.674411228,
				"y": -0.8162275044,
				"z": -1.3190495791,
				"element": "H" 
			},
			{
				"x": 2.1894904508,
				"y": -2.5073623915,
				"z": -1.0379670701,
				"element": "H" 
			}
		],
		 "valence_orbital": [ 
			{
				"type": "occ",
				"energy": -0.28024,
				"method": "rhf"
			},
			{
				"type": "occ",
				"energy": -0.27554,
				"method": "rhf"
			},
			{
				"type": "occ",
				"energy": -0.27181,
				"method": "rhf"
			},
			{
				"type": "occ",
				"energy": -0.25547,
				"method": "rhf"
			},
			{
				"type": "occ",
				"energy": -0.24607,
				"method": "rhf"
			},
			{
				"type": "unocc",
				"energy": -0.12469,
				"method": "rhf"
			},
			{
				"type": "unocc",
				"energy": -0.00594,
				"method": "rhf"
			},
			{
				"type": "unocc",
				"energy": 0.00466,
				"method": "rhf"
			},
			{
				"type": "unocc",
				"energy": 0.05936,
				"method": "rhf"
			},
			{
				"type": "unocc",
				"energy": 0.0854,
				"method": "rhf"
			}
		],
		"cosmo_sigma_profile": { 
			"-0.025": 0.0,
			"-0.024": 0.0,
			"-0.023": 0.0,
			"-0.022": 0.0,
			"-0.021": 0.0,
			"-0.02": 0.0,
			"-0.019": 0.0,
			"-0.018": 0.0,
			"-0.017": 0.0,
			"-0.016": 0.464644353873,
			"-0.015": 1.0262319367,
			"-0.014": 1.32042843611,
			"-0.013": 1.72093928235,
			"-0.012": 1.47792797282,
			"-0.011": 1.57881934733,
			"-0.01": 2.35675008925,
			"-0.009": 2.59052644019,
			"-0.008": 2.15096678922,
			"-0.007": 2.81361474416,
			"-0.006": 5.88267004967,
			"-0.005": 10.090022813,
			"-0.004": 12.1492066327,
			"-0.003": 26.4300930594,
			"-0.002": 42.60706321,
			"-0.001": 51.76280522,
			"0.0": 49.2758737551,
			"0.001": 55.6152326095,
			"0.002": 28.2143787012,
			"0.003": 11.1610541952,
			"0.004": 8.91058791711,
			"0.005": 8.6218396796,
			"0.006": 8.68410302625,
			"0.007": 8.23102784157,
			"0.008": 6.5197931227,
			"0.009": 6.39602710392,
			"0.01": 3.29258131173,
			"0.011": 1.91638624624,
			"0.012": 1.37788973769,
			"0.013": 1.60294484393,
			"0.014": 0.179259524585,
			"0.015": 0.0,
			"0.016": 0.0,
			"0.017": 0.0,
			"0.018": 0.0,
			"0.019": 0.0,
			"0.02": 0.0,
			"0.021": 0.0,
			"0.022": 0.0,
			"0.023": 0.0,
			"0.024": 0.0,
			"0.025": 0.0
		}
	}
}
