{
	 "smiles": "CN(C)CCC1=CC=C(O)C=C1", 
	 "Tm": 391.15, 
	 "num_atms": 27, 
	 "gaussian": { 
		 "optdone": 1, 
		 "sigma_profile": "yes", 
		 "theory": "DFT", 
		 "functional": "B3LYP", 
		 "basiset": "6-31G**", 
		 "properties": { 
			 "R2extent": 3822.1558, 
			 "electric_dipole_moment_norm": 1.82662850629, 
			 "electric_quadrupole_moment_norm": 8.03186321099, 
			 "total_energy": -520.06627013, 
			 "HOMO_LUMO_gap": 0.20214, 
			 "cosmo_polarized_energy": -9.33, 
			 "cosmo_cavitation_energy": 29.02, 
			 "cosmo_dispersion_energy": -20.69, 
			 "cosmo_repulsion_energy": 1.66, 
			 "cosmo_total_nonelectrostatic_energy": 9.99, 
			 "SMD_solvation_energy": 2.89 
		},
		"coords": [
			{
				"x": 1.7719052416,
				"y": -3.0901468392,
				"z": 1.0575138287,
				"element": "C" 
			},
			{
				"x": 1.1972516934,
				"y": -3.2590354257,
				"z": -0.2732984473,
				"element": "N" 
			},
			{
				"x": 0.574257367,
				"y": -4.571411566,
				"z": -0.395209865,
				"element": "C" 
			},
			{
				"x": 0.2658686437,
				"y": -2.1932047403,
				"z": -0.6444935786,
				"element": "C" 
			},
			{
				"x": 0.9318558439,
				"y": -0.8583214957,
				"z": -1.0467099053,
				"element": "C" 
			},
			{
				"x": 1.4061944316,
				"y": 0.0519623719,
				"z": 0.0697996176,
				"element": "C" 
			},
			{
				"x": 2.7551682428,
				"y": 0.4170702357,
				"z": 0.1907019245,
				"element": "C" 
			},
			{
				"x": 3.1974147034,
				"y": 1.2706145611,
				"z": 1.1990846152,
				"element": "C" 
			},
			{
				"x": 2.2819034839,
				"y": 1.7878437553,
				"z": 2.1202173196,
				"element": "C" 
			},
			{
				"x": 2.7619867957,
				"y": 2.6214645246,
				"z": 3.0931236048,
				"element": "O" 
			},
			{
				"x": 0.9298231073,
				"y": 1.4448830679,
				"z": 2.0151555646,
				"element": "C" 
			},
			{
				"x": 0.5051530864,
				"y": 0.5901641002,
				"z": 0.9984469333,
				"element": "C" 
			},
			{
				"x": 2.4853867809,
				"y": -3.8984581357,
				"z": 1.2492166141,
				"element": "H" 
			},
			{
				"x": 1.0097959179,
				"y": -3.1113563189,
				"z": 1.8617106257,
				"element": "H" 
			},
			{
				"x": 2.3065010562,
				"y": -2.1424054563,
				"z": 1.1285398172,
				"element": "H" 
			},
			{
				"x": -0.2822488553,
				"y": -4.7201482188,
				"z": 0.2920205898,
				"element": "H" 
			},
			{
				"x": 1.3131581341,
				"y": -5.3494878619,
				"z": -0.1768813645,
				"element": "H" 
			},
			{
				"x": 0.216251425,
				"y": -4.7241178555,
				"z": -1.4185869147,
				"element": "H" 
			},
			{
				"x": -0.2884715438,
				"y": -2.5490925427,
				"z": -1.5202854823,
				"element": "H" 
			},
			{
				"x": -0.4897388789,
				"y": -2.0122438303,
				"z": 0.1468854837,
				"element": "H" 
			},
			{
				"x": 0.1953712842,
				"y": -0.3097283348,
				"z": -1.649909981,
				"element": "H" 
			},
			{
				"x": 1.7679157797,
				"y": -1.091793236,
				"z": -1.7144813566,
				"element": "H" 
			},
			{
				"x": 3.4770336478,
				"y": 0.0217433111,
				"z": -0.5197730371,
				"element": "H" 
			},
			{
				"x": 4.243296438,
				"y": 1.546473225,
				"z": 1.286136105,
				"element": "H" 
			},
			{
				"x": 2.0291038962,
				"y": 2.9031921665,
				"z": 3.6555357186,
				"element": "H" 
			},
			{
				"x": 0.2092874389,
				"y": 1.849839564,
				"z": 2.7235027961,
				"element": "H" 
			},
			{
				"x": -0.5515251618,
				"y": 0.3434009745,
				"z": 0.9286387741,
				"element": "H" 
			}
		],
		 "valence_orbital": [ 
			{
				"type": "occ",
				"energy": -0.32712,
				"method": "rhf"
			},
			{
				"type": "occ",
				"energy": -0.31501,
				"method": "rhf"
			},
			{
				"type": "occ",
				"energy": -0.24861,
				"method": "rhf"
			},
			{
				"type": "occ",
				"energy": -0.2146,
				"method": "rhf"
			},
			{
				"type": "occ",
				"energy": -0.20299,
				"method": "rhf"
			},
			{
				"type": "unocc",
				"energy": -0.00085,
				"method": "rhf"
			},
			{
				"type": "unocc",
				"energy": 0.0158,
				"method": "rhf"
			},
			{
				"type": "unocc",
				"energy": 0.07261,
				"method": "rhf"
			},
			{
				"type": "unocc",
				"energy": 0.09049,
				"method": "rhf"
			},
			{
				"type": "unocc",
				"energy": 0.10134,
				"method": "rhf"
			}
		],
		"cosmo_sigma_profile": { 
			"-0.025": 0.0,
			"-0.024": 0.0,
			"-0.023": 0.0,
			"-0.022": 0.0,
			"-0.021": 0.0,
			"-0.02": 0.0,
			"-0.019": 0.0,
			"-0.018": 0.0734008652876,
			"-0.017": 0.876119703422,
			"-0.016": 1.48397306665,
			"-0.015": 0.685249709214,
			"-0.014": 1.22727443331,
			"-0.013": 1.18141512823,
			"-0.012": 0.891345808412,
			"-0.011": 0.879298899083,
			"-0.01": 0.668511757184,
			"-0.009": 1.30520267303,
			"-0.008": 1.21337440211,
			"-0.007": 0.92881131078,
			"-0.006": 2.97244237785,
			"-0.005": 6.55292128024,
			"-0.004": 13.7194574562,
			"-0.003": 24.6961032121,
			"-0.002": 21.1337001446,
			"-0.001": 28.2034750345,
			"0.0": 31.9105873176,
			"0.001": 18.2151994995,
			"0.002": 10.1073111075,
			"0.003": 10.2648890787,
			"0.004": 11.4649791266,
			"0.005": 11.5204157903,
			"0.006": 8.64532201609,
			"0.007": 2.93007514919,
			"0.008": 2.71074073217,
			"0.009": 1.64359803193,
			"0.01": 2.37648019809,
			"0.011": 2.19264580354,
			"0.012": 2.40091516841,
			"0.013": 0.227710123114,
			"0.014": 0.447786354522,
			"0.015": 0.635902496257,
			"0.016": 0.400104421614,
			"0.017": 0.0911805465361,
			"0.018": 0.0,
			"0.019": 0.0,
			"0.02": 0.0,
			"0.021": 0.0,
			"0.022": 0.0,
			"0.023": 0.0,
			"0.024": 0.0,
			"0.025": 0.0
		}
	}
}
