{
	 "smiles": "CCC12CCCN3CCC4(C(CC1)N(C(C)=O)C1=C(OC)C=CC=C41)C23", 
	 "Tm": 481.15, 
	 "num_atms": 56, 
	 "gaussian": { 
		 "optdone": 1, 
		 "sigma_profile": "yes", 
		 "theory": "DFT", 
		 "functional": "B3LYP", 
		 "basiset": "6-31G**", 
		 "properties": { 
			 "R2extent": 8501.2747, 
			 "electric_dipole_moment_norm": 5.08399023799, 
			 "electric_quadrupole_moment_norm": 19.2841968409, 
			 "total_energy": -1116.35537723, 
			 "HOMO_LUMO_gap": 0.2022, 
			 "cosmo_polarized_energy": -14.99, 
			 "cosmo_cavitation_energy": 48.99, 
			 "cosmo_dispersion_energy": -32.96, 
			 "cosmo_repulsion_energy": 2.43, 
			 "cosmo_total_nonelectrostatic_energy": 18.47, 
			 "SMD_solvation_energy": 8.65 
		},
		"coords": [
			{
				"x": 3.6754150805,
				"y": 2.809715487,
				"z": -1.0871462174,
				"element": "C" 
			},
			{
				"x": 3.0028119096,
				"y": 2.853878774,
				"z": 0.2916490835,
				"element": "C" 
			},
			{
				"x": 2.0897010662,
				"y": 1.6705675928,
				"z": 0.7464191033,
				"element": "C" 
			},
			{
				"x": 1.7014465969,
				"y": 1.9462192961,
				"z": 2.2200439103,
				"element": "C" 
			},
			{
				"x": 0.8690082446,
				"y": 3.2449839768,
				"z": 2.3931038014,
				"element": "C" 
			},
			{
				"x": -0.134344926,
				"y": 3.4855870946,
				"z": 1.2282233952,
				"element": "C" 
			},
			{
				"x": -0.3773205139,
				"y": 2.2266437366,
				"z": 0.5603469314,
				"element": "N" 
			},
			{
				"x": -1.464341909,
				"y": 2.0785889756,
				"z": -0.403590483,
				"element": "C" 
			},
			{
				"x": -1.131812769,
				"y": 0.7347914111,
				"z": -1.1362104575,
				"element": "C" 
			},
			{
				"x": 0.1777809575,
				"y": 0.2349551689,
				"z": -0.4435044158,
				"element": "C" 
			},
			{
				"x": 1.1830185745,
				"y": -0.606343599,
				"z": -1.269840679,
				"element": "C" 
			},
			{
				"x": 2.6519336497,
				"y": -0.3175470714,
				"z": -0.8318765757,
				"element": "C" 
			},
			{
				"x": 2.8172844105,
				"y": 0.3064237144,
				"z": 0.5755962765,
				"element": "C" 
			},
			{
				"x": 0.7997809698,
				"y": -2.012407349,
				"z": -0.993717386,
				"element": "N" 
			},
			{
				"x": 0.4913713,
				"y": -2.9381203354,
				"z": -1.9832996912,
				"element": "C" 
			},
			{
				"x": 1.079589562,
				"y": -2.6782007726,
				"z": -3.3655319094,
				"element": "C" 
			},
			{
				"x": -0.1867281143,
				"y": -3.9290844767,
				"z": -1.7592084914,
				"element": "O" 
			},
			{
				"x": 0.2031631763,
				"y": -2.0423907527,
				"z": 0.301200362,
				"element": "C" 
			},
			{
				"x": 0.0128172593,
				"y": -3.1301642352,
				"z": 1.1719739922,
				"element": "C" 
			},
			{
				"x": 0.4340505457,
				"y": -4.4142355886,
				"z": 0.9739339566,
				"element": "O" 
			},
			{
				"x": 1.7919379616,
				"y": -4.6143333108,
				"z": 0.6002575515,
				"element": "C" 
			},
			{
				"x": -0.6842158546,
				"y": -2.8918180365,
				"z": 2.3667817599,
				"element": "C" 
			},
			{
				"x": -1.1285762546,
				"y": -1.6187738638,
				"z": 2.7074374351,
				"element": "C" 
			},
			{
				"x": -0.8620379304,
				"y": -0.5261725486,
				"z": 1.8742612662,
				"element": "C" 
			},
			{
				"x": -0.1740042698,
				"y": -0.7413578382,
				"z": 0.6833593543,
				"element": "C" 
			},
			{
				"x": 0.7783952524,
				"y": 1.6120384897,
				"z": -0.0748668533,
				"element": "C" 
			},
			{
				"x": 4.4106615989,
				"y": 2.0036329514,
				"z": -1.1662314042,
				"element": "H" 
			},
			{
				"x": 2.9550648953,
				"y": 2.6942777899,
				"z": -1.9042365217,
				"element": "H" 
			},
			{
				"x": 4.2102576666,
				"y": 3.7492910984,
				"z": -1.263018291,
				"element": "H" 
			},
			{
				"x": 3.7932704157,
				"y": 2.9525012907,
				"z": 1.048113144,
				"element": "H" 
			},
			{
				"x": 2.4234051875,
				"y": 3.782088401,
				"z": 0.3472211769,
				"element": "H" 
			},
			{
				"x": 1.1234006337,
				"y": 1.0973310661,
				"z": 2.5927743326,
				"element": "H" 
			},
			{
				"x": 2.6063616788,
				"y": 2.006690172,
				"z": 2.8376610618,
				"element": "H" 
			},
			{
				"x": 0.319926929,
				"y": 3.1736031513,
				"z": 3.3379794981,
				"element": "H" 
			},
			{
				"x": 1.5265761533,
				"y": 4.1157712611,
				"z": 2.4874976491,
				"element": "H" 
			},
			{
				"x": -1.0853665196,
				"y": 3.8656444371,
				"z": 1.6181407308,
				"element": "H" 
			},
			{
				"x": 0.2460001649,
				"y": 4.2613701543,
				"z": 0.5327168844,
				"element": "H" 
			},
			{
				"x": -2.4335735714,
				"y": 2.0572579877,
				"z": 0.1076112562,
				"element": "H" 
			},
			{
				"x": -1.4925241945,
				"y": 2.9081172865,
				"z": -1.1340990244,
				"element": "H" 
			},
			{
				"x": -1.9424703309,
				"y": 0.0072223989,
				"z": -1.0609912899,
				"element": "H" 
			},
			{
				"x": -0.9477002214,
				"y": 0.9227617304,
				"z": -2.1995730549,
				"element": "H" 
			},
			{
				"x": 1.0810302915,
				"y": -0.4107332787,
				"z": -2.3375992029,
				"element": "H" 
			},
			{
				"x": 3.2084085855,
				"y": -1.2596549885,
				"z": -0.877199591,
				"element": "H" 
			},
			{
				"x": 3.1042225213,
				"y": 0.3411907793,
				"z": -1.5770721178,
				"element": "H" 
			},
			{
				"x": 2.44323895,
				"y": -0.3995703173,
				"z": 1.3240829797,
				"element": "H" 
			},
			{
				"x": 3.8877507037,
				"y": 0.4314725816,
				"z": 0.7824355536,
				"element": "H" 
			},
			{
				"x": 2.1058396483,
				"y": -2.3023680663,
				"z": -3.3305628911,
				"element": "H" 
			},
			{
				"x": 1.052546977,
				"y": -3.6218141715,
				"z": -3.9110009527,
				"element": "H" 
			},
			{
				"x": 0.471550913,
				"y": -1.9522089619,
				"z": -3.9173038108,
				"element": "H" 
			},
			{
				"x": 1.989702675,
				"y": -4.311753845,
				"z": -0.4309768716,
				"element": "H" 
			},
			{
				"x": 2.4699261968,
				"y": -4.0755495893,
				"z": 1.2756492577,
				"element": "H" 
			},
			{
				"x": 1.9721372097,
				"y": -5.6873542897,
				"z": 0.6922216809,
				"element": "H" 
			},
			{
				"x": -0.8449615009,
				"y": -3.7405824825,
				"z": 3.0236016861,
				"element": "H" 
			},
			{
				"x": -1.6623276804,
				"y": -1.4693654238,
				"z": 3.6415801192,
				"element": "H" 
			},
			{
				"x": -1.1775489348,
				"y": 0.4749072792,
				"z": 2.1393025768,
				"element": "H" 
			},
			{
				"x": 0.985268983,
				"y": 2.1057796583,
				"z": -1.0514195839,
				"element": "H" 
			}
		],
		 "valence_orbital": [ 
			{
				"type": "occ",
				"energy": -0.27168,
				"method": "rhf"
			},
			{
				"type": "occ",
				"energy": -0.24106,
				"method": "rhf"
			},
			{
				"type": "occ",
				"energy": -0.21965,
				"method": "rhf"
			},
			{
				"type": "occ",
				"energy": -0.20673,
				"method": "rhf"
			},
			{
				"type": "occ",
				"energy": -0.20311,
				"method": "rhf"
			},
			{
				"type": "unocc",
				"energy": -0.00091,
				"method": "rhf"
			},
			{
				"type": "unocc",
				"energy": 0.00777,
				"method": "rhf"
			},
			{
				"type": "unocc",
				"energy": 0.03868,
				"method": "rhf"
			},
			{
				"type": "unocc",
				"energy": 0.06193,
				"method": "rhf"
			},
			{
				"type": "unocc",
				"energy": 0.07751,
				"method": "rhf"
			}
		],
		"cosmo_sigma_profile": { 
			"-0.025": 0.0,
			"-0.024": 0.0,
			"-0.023": 0.0,
			"-0.022": 0.0,
			"-0.021": 0.0,
			"-0.02": 0.0,
			"-0.019": 0.0,
			"-0.018": 0.0,
			"-0.017": 0.0,
			"-0.016": 0.0,
			"-0.015": 0.0,
			"-0.014": 0.0,
			"-0.013": 0.0,
			"-0.012": 0.0,
			"-0.011": 0.0,
			"-0.01": 0.0,
			"-0.009": 0.0,
			"-0.008": 0.0,
			"-0.007": 0.783143246494,
			"-0.006": 5.96392895504,
			"-0.005": 15.36089975,
			"-0.004": 23.6757452805,
			"-0.003": 38.9037406669,
			"-0.002": 63.7731422553,
			"-0.001": 61.5730997118,
			"0.0": 54.9831062261,
			"0.001": 38.6319168445,
			"0.002": 16.7661586504,
			"0.003": 8.66208331113,
			"0.004": 9.39539168851,
			"0.005": 8.75304522828,
			"0.006": 7.01537049453,
			"0.007": 2.38511939184,
			"0.008": 2.6593570668,
			"0.009": 2.1434607831,
			"0.01": 2.29002072636,
			"0.011": 2.71375004005,
			"0.012": 2.55201039559,
			"0.013": 3.33002678453,
			"0.014": 4.55721041042,
			"0.015": 2.13048197087,
			"0.016": 1.01817456729,
			"0.017": 0.165878022896,
			"0.018": 0.0,
			"0.019": 0.0,
			"0.02": 0.0,
			"0.021": 0.0,
			"0.022": 0.0,
			"0.023": 0.0,
			"0.024": 0.0,
			"0.025": 0.0
		}
	}
}
