{
	 "smiles": "NC(=NO)C1=CSC=C1", 
	 "Tm": 340.15, 
	 "num_atms": 15, 
	 "gaussian": { 
		 "optdone": 1, 
		 "sigma_profile": "yes", 
		 "theory": "DFT", 
		 "functional": "B3LYP", 
		 "basiset": "6-31G**", 
		 "properties": { 
			 "R2extent": 1901.7921, 
			 "electric_dipole_moment_norm": 1.07417759239, 
			 "electric_quadrupole_moment_norm": 10.8256393548, 
			 "total_energy": -776.983446321, 
			 "HOMO_LUMO_gap": 0.17683, 
			 "cosmo_polarized_energy": -12.74, 
			 "cosmo_cavitation_energy": 20.82, 
			 "cosmo_dispersion_energy": -16.33, 
			 "cosmo_repulsion_energy": 1.31, 
			 "cosmo_total_nonelectrostatic_energy": 5.8, 
			 "SMD_solvation_energy": 3.72 
		},
		"coords": [
			{
				"x": -0.1037489579,
				"y": -0.8129098031,
				"z": -2.1241718069,
				"element": "N" 
			},
			{
				"x": 0.1458124,
				"y": -0.3897975679,
				"z": -0.8197651867,
				"element": "C" 
			},
			{
				"x": 0.0690456202,
				"y": -1.2978305955,
				"z": 0.0951899917,
				"element": "N" 
			},
			{
				"x": 0.2756419043,
				"y": -0.7778249024,
				"z": 1.397517867,
				"element": "O" 
			},
			{
				"x": 0.4107895692,
				"y": 1.0569263561,
				"z": -0.6328500874,
				"element": "C" 
			},
			{
				"x": 1.1395150429,
				"y": 1.8099746667,
				"z": -1.525705138,
				"element": "C" 
			},
			{
				"x": 1.2542519722,
				"y": 3.4654482703,
				"z": -1.043743994,
				"element": "S" 
			},
			{
				"x": 0.3017688723,
				"y": 3.160555726,
				"z": 0.375392326,
				"element": "C" 
			},
			{
				"x": -0.0655560098,
				"y": 1.8505693179,
				"z": 0.4667818586,
				"element": "C" 
			},
			{
				"x": 0.3024701232,
				"y": -0.2569328151,
				"z": -2.8603080027,
				"element": "H" 
			},
			{
				"x": -0.0013454994,
				"y": -1.8105377359,
				"z": -2.2551940368,
				"element": "H" 
			},
			{
				"x": 0.1893313614,
				"y": -1.5762395969,
				"z": 1.9328530121,
				"element": "H" 
			},
			{
				"x": 1.647680918,
				"y": 1.4822289562,
				"z": -2.4223265523,
				"element": "H" 
			},
			{
				"x": 0.073601124,
				"y": 3.9677702325,
				"z": 1.0571791868,
				"element": "H" 
			},
			{
				"x": -0.6490584407,
				"y": 1.439699491,
				"z": 1.2779505626,
				"element": "H" 
			}
		],
		 "valence_orbital": [ 
			{
				"type": "occ",
				"energy": -0.31923,
				"method": "rhf"
			},
			{
				"type": "occ",
				"energy": -0.26504,
				"method": "rhf"
			},
			{
				"type": "occ",
				"energy": -0.25418,
				"method": "rhf"
			},
			{
				"type": "occ",
				"energy": -0.24019,
				"method": "rhf"
			},
			{
				"type": "occ",
				"energy": -0.20169,
				"method": "rhf"
			},
			{
				"type": "unocc",
				"energy": -0.02486,
				"method": "rhf"
			},
			{
				"type": "unocc",
				"energy": 0.02007,
				"method": "rhf"
			},
			{
				"type": "unocc",
				"energy": 0.03009,
				"method": "rhf"
			},
			{
				"type": "unocc",
				"energy": 0.06754,
				"method": "rhf"
			},
			{
				"type": "unocc",
				"energy": 0.08755,
				"method": "rhf"
			}
		],
		"cosmo_sigma_profile": { 
			"-0.025": 0.0,
			"-0.024": 0.0,
			"-0.023": 0.0,
			"-0.022": 0.0,
			"-0.021": 0.0,
			"-0.02": 0.0,
			"-0.019": 0.0,
			"-0.018": 0.0,
			"-0.017": 0.237193266575,
			"-0.016": 1.07031725831,
			"-0.015": 0.625226321203,
			"-0.014": 1.17880951528,
			"-0.013": 3.06772955529,
			"-0.012": 2.76710319773,
			"-0.011": 3.34050262002,
			"-0.01": 3.44714149539,
			"-0.009": 3.95285037242,
			"-0.008": 6.07407112087,
			"-0.007": 5.49237578104,
			"-0.006": 5.73814980057,
			"-0.005": 7.82332833695,
			"-0.004": 5.09037959556,
			"-0.003": 6.29071905897,
			"-0.002": 6.92369614493,
			"-0.001": 6.80396102293,
			"0.0": 9.12245886645,
			"0.001": 10.308695296,
			"0.002": 11.2330818557,
			"0.003": 15.18934557,
			"0.004": 14.5290890394,
			"0.005": 7.69378473496,
			"0.006": 5.45917178319,
			"0.007": 3.93994126671,
			"0.008": 5.69780539922,
			"0.009": 3.62401524632,
			"0.01": 3.57050016464,
			"0.011": 2.54369587413,
			"0.012": 2.63225818348,
			"0.013": 1.80929043131,
			"0.014": 0.802904060661,
			"0.015": 0.0713446719005,
			"0.016": 0.0,
			"0.017": 0.0,
			"0.018": 0.0,
			"0.019": 0.0,
			"0.02": 0.0,
			"0.021": 0.0,
			"0.022": 0.0,
			"0.023": 0.0,
			"0.024": 0.0,
			"0.025": 0.0
		}
	}
}
