{
	 "smiles": "COC(=O)C1=CC=CC=C1O", 
	 "Tm": 265.15, 
	 "num_atms": 19, 
	 "gaussian": { 
		 "optdone": 1, 
		 "sigma_profile": "yes", 
		 "theory": "DFT", 
		 "functional": "B3LYP", 
		 "basiset": "6-31G**", 
		 "properties": { 
			 "R2extent": 2092.6342, 
			 "electric_dipole_moment_norm": 2.51932681881, 
			 "electric_quadrupole_moment_norm": 9.78814108143, 
			 "total_energy": -535.363780057, 
			 "HOMO_LUMO_gap": 0.17634, 
			 "cosmo_polarized_energy": -6.85, 
			 "cosmo_cavitation_energy": 23.0, 
			 "cosmo_dispersion_energy": -17.47, 
			 "cosmo_repulsion_energy": 1.39, 
			 "cosmo_total_nonelectrostatic_energy": 6.92, 
			 "SMD_solvation_energy": 5.81 
		},
		"coords": [
			{
				"x": 2.3995089243,
				"y": 3.0154140537,
				"z": -2.2461131019,
				"element": "C" 
			},
			{
				"x": 1.3215577254,
				"y": 2.5222765372,
				"z": -1.4324320127,
				"element": "O" 
			},
			{
				"x": 1.4931302771,
				"y": 1.293191763,
				"z": -0.9182947695,
				"element": "C" 
			},
			{
				"x": 2.5147664081,
				"y": 0.6357238871,
				"z": -1.1362352897,
				"element": "O" 
			},
			{
				"x": 0.3735372807,
				"y": 0.8204573377,
				"z": -0.0931116328,
				"element": "C" 
			},
			{
				"x": -0.7750997601,
				"y": 1.6051709235,
				"z": 0.1285304735,
				"element": "C" 
			},
			{
				"x": -1.817185726,
				"y": 1.1349536609,
				"z": 0.9114895702,
				"element": "C" 
			},
			{
				"x": -1.721138695,
				"y": -0.1416547611,
				"z": 1.4890471263,
				"element": "C" 
			},
			{
				"x": -0.6013371276,
				"y": -0.9347977072,
				"z": 1.2868242799,
				"element": "C" 
			},
			{
				"x": 0.4618687411,
				"y": -0.4689027508,
				"z": 0.4948160836,
				"element": "C" 
			},
			{
				"x": 1.523933617,
				"y": -1.2726213421,
				"z": 0.3284844225,
				"element": "O" 
			},
			{
				"x": 3.3237723778,
				"y": 3.0723108849,
				"z": -1.6663776645,
				"element": "H" 
			},
			{
				"x": 2.5599785562,
				"y": 2.3634027757,
				"z": -3.1079357828,
				"element": "H" 
			},
			{
				"x": 2.0883246941,
				"y": 4.008406914,
				"z": -2.5695816039,
				"element": "H" 
			},
			{
				"x": -0.8268620783,
				"y": 2.5874217698,
				"z": -0.3275708866,
				"element": "H" 
			},
			{
				"x": -2.6981201354,
				"y": 1.7465404863,
				"z": 1.0766774565,
				"element": "H" 
			},
			{
				"x": -2.5341830868,
				"y": -0.5173355723,
				"z": 2.1042764919,
				"element": "H" 
			},
			{
				"x": -0.5156385028,
				"y": -1.9222839352,
				"z": 1.7275789005,
				"element": "H" 
			},
			{
				"x": 2.1631865103,
				"y": -0.7880749252,
				"z": -0.2480720605,
				"element": "H" 
			}
		],
		 "valence_orbital": [ 
			{
				"type": "occ",
				"energy": -0.33726,
				"method": "rhf"
			},
			{
				"type": "occ",
				"energy": -0.31398,
				"method": "rhf"
			},
			{
				"type": "occ",
				"energy": -0.28649,
				"method": "rhf"
			},
			{
				"type": "occ",
				"energy": -0.26128,
				"method": "rhf"
			},
			{
				"type": "occ",
				"energy": -0.22496,
				"method": "rhf"
			},
			{
				"type": "unocc",
				"energy": -0.04862,
				"method": "rhf"
			},
			{
				"type": "unocc",
				"energy": 0.00658,
				"method": "rhf"
			},
			{
				"type": "unocc",
				"energy": 0.05203,
				"method": "rhf"
			},
			{
				"type": "unocc",
				"energy": 0.0941,
				"method": "rhf"
			},
			{
				"type": "unocc",
				"energy": 0.10721,
				"method": "rhf"
			}
		],
		"cosmo_sigma_profile": { 
			"-0.025": 0.0,
			"-0.024": 0.0,
			"-0.023": 0.0,
			"-0.022": 0.0,
			"-0.021": 0.0,
			"-0.02": 0.0,
			"-0.019": 0.0,
			"-0.018": 0.0,
			"-0.017": 0.0,
			"-0.016": 0.0,
			"-0.015": 0.0,
			"-0.014": 0.0,
			"-0.013": 0.0,
			"-0.012": 0.0,
			"-0.011": 0.0,
			"-0.01": 0.0,
			"-0.009": 0.0,
			"-0.008": 0.0,
			"-0.007": 3.28247975677,
			"-0.006": 12.6960369301,
			"-0.005": 14.8695300501,
			"-0.004": 18.0883091556,
			"-0.003": 18.4976985088,
			"-0.002": 13.3588228888,
			"-0.001": 11.1459857841,
			"0.0": 11.5024994182,
			"0.001": 11.8389042848,
			"0.002": 13.7331672977,
			"0.003": 14.7992975921,
			"0.004": 14.2071716597,
			"0.005": 7.42258121018,
			"0.006": 3.37372116511,
			"0.007": 2.01659805453,
			"0.008": 2.99851400492,
			"0.009": 2.92673157596,
			"0.01": 3.49945353232,
			"0.011": 3.11588175218,
			"0.012": 0.5563374241,
			"0.013": 0.0,
			"0.014": 0.0,
			"0.015": 0.0,
			"0.016": 0.0,
			"0.017": 0.0,
			"0.018": 0.0,
			"0.019": 0.0,
			"0.02": 0.0,
			"0.021": 0.0,
			"0.022": 0.0,
			"0.023": 0.0,
			"0.024": 0.0,
			"0.025": 0.0
		}
	}
}
