{
	 "smiles": "OC(=O)C(OC1=C(Cl)C(Cl)=CC=C1)C1=CC=CC=C1", 
	 "Tm": 421.15, 
	 "num_atms": 29, 
	 "gaussian": { 
		 "optdone": 1, 
		 "sigma_profile": "yes", 
		 "theory": "DFT", 
		 "functional": "B3LYP", 
		 "basiset": "6-31G**", 
		 "properties": { 
			 "R2extent": 7405.5574, 
			 "electric_dipole_moment_norm": 4.71789114118, 
			 "electric_quadrupole_moment_norm": 12.6334047078, 
			 "total_energy": -1685.56651773, 
			 "HOMO_LUMO_gap": 0.20284, 
			 "cosmo_polarized_energy": -15.44, 
			 "cosmo_cavitation_energy": 37.92, 
			 "cosmo_dispersion_energy": -26.34, 
			 "cosmo_repulsion_energy": 2.05, 
			 "cosmo_total_nonelectrostatic_energy": 13.64, 
			 "SMD_solvation_energy": 7.0 
		},
		"coords": [
			{
				"x": 2.3740462896,
				"y": 1.2176707997,
				"z": 0.7404232852,
				"element": "O" 
			},
			{
				"x": 1.5633707901,
				"y": 0.1433691019,
				"z": 0.8784883721,
				"element": "C" 
			},
			{
				"x": 1.5865145136,
				"y": -0.602985626,
				"z": 1.8256292286,
				"element": "O" 
			},
			{
				"x": 0.6557647223,
				"y": -0.0059130571,
				"z": -0.3528844675,
				"element": "C" 
			},
			{
				"x": -0.5404610331,
				"y": -0.6864853853,
				"z": -0.0036837262,
				"element": "O" 
			},
			{
				"x": -1.4607284384,
				"y": -0.0631096975,
				"z": 0.7823718098,
				"element": "C" 
			},
			{
				"x": -2.6166702655,
				"y": -0.8152918426,
				"z": 1.086305726,
				"element": "C" 
			},
			{
				"x": -2.7528121509,
				"y": -2.435079814,
				"z": 0.4669379086,
				"element": "Cl" 
			},
			{
				"x": -3.6214547432,
				"y": -0.2427935472,
				"z": 1.8726590538,
				"element": "C" 
			},
			{
				"x": -5.0668630405,
				"y": -1.1414416575,
				"z": 2.2700589056,
				"element": "Cl" 
			},
			{
				"x": -3.4954713586,
				"y": 1.0615442712,
				"z": 2.358980655,
				"element": "C" 
			},
			{
				"x": -2.3537086622,
				"y": 1.7916271955,
				"z": 2.0533921157,
				"element": "C" 
			},
			{
				"x": -1.3382042099,
				"y": 1.2413806727,
				"z": 1.2703230223,
				"element": "C" 
			},
			{
				"x": 1.3763293819,
				"y": -0.8318889551,
				"z": -1.4022199308,
				"element": "C" 
			},
			{
				"x": 1.9049196488,
				"y": -0.2186329657,
				"z": -2.5415990563,
				"element": "C" 
			},
			{
				"x": 2.5915584229,
				"y": -0.9767788691,
				"z": -3.4913721052,
				"element": "C" 
			},
			{
				"x": 2.7489455724,
				"y": -2.350965876,
				"z": -3.305991647,
				"element": "C" 
			},
			{
				"x": 2.2213664383,
				"y": -2.9652708783,
				"z": -2.1671527224,
				"element": "C" 
			},
			{
				"x": 1.5419079066,
				"y": -2.2097543565,
				"z": -1.2129069979,
				"element": "C" 
			},
			{
				"x": 2.9683428128,
				"y": 1.2175130108,
				"z": 1.5103346265,
				"element": "H" 
			},
			{
				"x": 0.4388265588,
				"y": 0.9902477249,
				"z": -0.7551655414,
				"element": "H" 
			},
			{
				"x": -4.2876778233,
				"y": 1.4814401105,
				"z": 2.9671400435,
				"element": "H" 
			},
			{
				"x": -2.2468181245,
				"y": 2.804200835,
				"z": 2.4293082487,
				"element": "H" 
			},
			{
				"x": -0.4567859261,
				"y": 1.8319797057,
				"z": 1.0526441952,
				"element": "H" 
			},
			{
				"x": 1.7769857328,
				"y": 0.8504951784,
				"z": -2.6891903591,
				"element": "H" 
			},
			{
				"x": 2.9960345221,
				"y": -0.4948692658,
				"z": -4.3765901303,
				"element": "H" 
			},
			{
				"x": 3.2787321558,
				"y": -2.9424258409,
				"z": -4.0471092375,
				"element": "H" 
			},
			{
				"x": 2.3410733786,
				"y": -4.0347077997,
				"z": -2.0207726279,
				"element": "H" 
			},
			{
				"x": 1.1295369288,
				"y": -2.6789731721,
				"z": -0.3259586472,
				"element": "H" 
			}
		],
		 "valence_orbital": [ 
			{
				"type": "occ",
				"energy": -0.29495,
				"method": "rhf"
			},
			{
				"type": "occ",
				"energy": -0.25916,
				"method": "rhf"
			},
			{
				"type": "occ",
				"energy": -0.25583,
				"method": "rhf"
			},
			{
				"type": "occ",
				"energy": -0.24822,
				"method": "rhf"
			},
			{
				"type": "occ",
				"energy": -0.2355,
				"method": "rhf"
			},
			{
				"type": "unocc",
				"energy": -0.03266,
				"method": "rhf"
			},
			{
				"type": "unocc",
				"energy": -0.0205,
				"method": "rhf"
			},
			{
				"type": "unocc",
				"energy": -0.01097,
				"method": "rhf"
			},
			{
				"type": "unocc",
				"energy": -0.00901,
				"method": "rhf"
			},
			{
				"type": "unocc",
				"energy": 0.00536,
				"method": "rhf"
			}
		],
		"cosmo_sigma_profile": { 
			"-0.025": 0.0,
			"-0.024": 0.0,
			"-0.023": 0.0,
			"-0.022": 0.0,
			"-0.021": 0.0,
			"-0.02": 0.0,
			"-0.019": 0.545547654088,
			"-0.018": 1.10675439335,
			"-0.017": 1.243578702,
			"-0.016": 0.594434240819,
			"-0.015": 0.588707310369,
			"-0.014": 0.38462949609,
			"-0.013": 0.676032790675,
			"-0.012": 1.08880861427,
			"-0.011": 0.899271143774,
			"-0.01": 0.637060059521,
			"-0.009": 2.86716209214,
			"-0.008": 6.07245484047,
			"-0.007": 9.81804536029,
			"-0.006": 16.2493900192,
			"-0.005": 17.3986007322,
			"-0.004": 17.1217614138,
			"-0.003": 14.5120664954,
			"-0.002": 15.3457044835,
			"-0.001": 15.7100220869,
			"0.0": 22.7445940914,
			"0.001": 29.8161672357,
			"0.002": 26.5873688956,
			"0.003": 31.7087080281,
			"0.004": 31.4891880521,
			"0.005": 18.306812483,
			"0.006": 6.40733088862,
			"0.007": 4.13608473358,
			"0.008": 3.85084930797,
			"0.009": 2.66201782443,
			"0.01": 3.04782015551,
			"0.011": 4.26098130902,
			"0.012": 0.455650408216,
			"0.013": 0.0,
			"0.014": 0.0,
			"0.015": 0.0,
			"0.016": 0.0,
			"0.017": 0.0,
			"0.018": 0.0,
			"0.019": 0.0,
			"0.02": 0.0,
			"0.021": 0.0,
			"0.022": 0.0,
			"0.023": 0.0,
			"0.024": 0.0,
			"0.025": 0.0
		}
	}
}
