{
	 "smiles": "CC(=O)C1=C(C)N2C=NN=C2N=C1", 
	 "Tm": 465.15, 
	 "num_atms": 21, 
	 "gaussian": { 
		 "optdone": 1, 
		 "sigma_profile": "yes", 
		 "theory": "DFT", 
		 "functional": "B3LYP", 
		 "basiset": "6-31G**", 
		 "properties": { 
			 "R2extent": 2382.0648, 
			 "electric_dipole_moment_norm": 7.92015017345, 
			 "electric_quadrupole_moment_norm": 17.5074569201, 
			 "total_energy": -603.858893858, 
			 "HOMO_LUMO_gap": 0.16255, 
			 "cosmo_polarized_energy": -25.01, 
			 "cosmo_cavitation_energy": 25.17, 
			 "cosmo_dispersion_energy": -18.6, 
			 "cosmo_repulsion_energy": 1.42, 
			 "cosmo_total_nonelectrostatic_energy": 7.98, 
			 "SMD_solvation_energy": 1.93 
		},
		"coords": [
			{
				"x": 1.3500671899,
				"y": -1.1689256409,
				"z": -2.6393913876,
				"element": "C" 
			},
			{
				"x": 0.0191376006,
				"y": -1.1596966992,
				"z": -1.9037781174,
				"element": "C" 
			},
			{
				"x": -0.9097386285,
				"y": -1.8234077692,
				"z": -2.335704442,
				"element": "O" 
			},
			{
				"x": -0.2158123897,
				"y": -0.2921797986,
				"z": -0.6969670695,
				"element": "C" 
			},
			{
				"x": 0.7325876859,
				"y": 0.1625605854,
				"z": 0.1979706524,
				"element": "C" 
			},
			{
				"x": 2.2024625582,
				"y": -0.1309121728,
				"z": 0.2582069274,
				"element": "C" 
			},
			{
				"x": 0.2580049254,
				"y": 0.9662370107,
				"z": 1.2133692516,
				"element": "N" 
			},
			{
				"x": 0.8595455947,
				"y": 1.6106637374,
				"z": 2.2704337397,
				"element": "C" 
			},
			{
				"x": -0.0404368396,
				"y": 2.2667035854,
				"z": 2.9681152534,
				"element": "N" 
			},
			{
				"x": -1.273762567,
				"y": 2.0776444635,
				"z": 2.4068183684,
				"element": "N" 
			},
			{
				"x": -1.1077774533,
				"y": 1.2988858053,
				"z": 1.3528543741,
				"element": "C" 
			},
			{
				"x": -2.0388053484,
				"y": 0.8311323545,
				"z": 0.4929692668,
				"element": "N" 
			},
			{
				"x": -1.5984848163,
				"y": 0.0692077616,
				"z": -0.4723727777,
				"element": "C" 
			},
			{
				"x": 1.1470181081,
				"y": -1.4237420388,
				"z": -3.6811062272,
				"element": "H" 
			},
			{
				"x": 1.87834372,
				"y": -0.2141058893,
				"z": -2.5865176899,
				"element": "H" 
			},
			{
				"x": 2.0031933449,
				"y": -1.9513677195,
				"z": -2.235353593,
				"element": "H" 
			},
			{
				"x": 2.5061273947,
				"y": -0.8898852686,
				"z": -0.4553399615,
				"element": "H" 
			},
			{
				"x": 2.7866921236,
				"y": 0.7782818367,
				"z": 0.0706732245,
				"element": "H" 
			},
			{
				"x": 2.4643712209,
				"y": -0.484976626,
				"z": 1.2613944543,
				"element": "H" 
			},
			{
				"x": 1.9179991173,
				"y": 1.5848604165,
				"z": 2.4769954314,
				"element": "H" 
			},
			{
				"x": -2.3281325412,
				"y": -0.3267779339,
				"z": -1.1730696782,
				"element": "H" 
			}
		],
		 "valence_orbital": [ 
			{
				"type": "occ",
				"energy": -0.30043,
				"method": "rhf"
			},
			{
				"type": "occ",
				"energy": -0.28972,
				"method": "rhf"
			},
			{
				"type": "occ",
				"energy": -0.27081,
				"method": "rhf"
			},
			{
				"type": "occ",
				"energy": -0.26062,
				"method": "rhf"
			},
			{
				"type": "occ",
				"energy": -0.25098,
				"method": "rhf"
			},
			{
				"type": "unocc",
				"energy": -0.08843,
				"method": "rhf"
			},
			{
				"type": "unocc",
				"energy": -0.05577,
				"method": "rhf"
			},
			{
				"type": "unocc",
				"energy": 0.00362,
				"method": "rhf"
			},
			{
				"type": "unocc",
				"energy": 0.03986,
				"method": "rhf"
			},
			{
				"type": "unocc",
				"energy": 0.05952,
				"method": "rhf"
			}
		],
		"cosmo_sigma_profile": { 
			"-0.025": 0.0,
			"-0.024": 0.0,
			"-0.023": 0.0,
			"-0.022": 0.0,
			"-0.021": 0.0,
			"-0.02": 0.0,
			"-0.019": 0.0,
			"-0.018": 0.0,
			"-0.017": 0.0,
			"-0.016": 0.0,
			"-0.015": 0.0,
			"-0.014": 0.0,
			"-0.013": 0.0,
			"-0.012": 0.0951312608789,
			"-0.011": 1.6392919513,
			"-0.01": 3.6154380164,
			"-0.009": 6.06326929401,
			"-0.008": 9.19969073174,
			"-0.007": 11.8466644014,
			"-0.006": 17.0755429845,
			"-0.005": 18.0605903842,
			"-0.004": 19.0767867964,
			"-0.003": 15.0197578937,
			"-0.002": 12.2486450885,
			"-0.001": 9.3403277153,
			"0.0": 5.15574458117,
			"0.001": 4.60405999589,
			"0.002": 5.1056166986,
			"0.003": 4.00744206624,
			"0.004": 4.23900464483,
			"0.005": 3.680743758,
			"0.006": 5.05260521058,
			"0.007": 3.60306011762,
			"0.008": 4.82368848798,
			"0.009": 5.40943661231,
			"0.01": 6.16270645094,
			"0.011": 7.60518649194,
			"0.012": 6.66416648738,
			"0.013": 5.09751803377,
			"0.014": 3.57905859089,
			"0.015": 2.36182216694,
			"0.016": 1.68470988197,
			"0.017": 0.147282521612,
			"0.018": 0.0,
			"0.019": 0.0,
			"0.02": 0.0,
			"0.021": 0.0,
			"0.022": 0.0,
			"0.023": 0.0,
			"0.024": 0.0,
			"0.025": 0.0
		}
	}
}
