{
	 "smiles": "ClCC1=CC=C(O1)S(=O)(=O)N1CCCC1", 
	 "Tm": 355.15, 
	 "num_atms": 27, 
	 "gaussian": { 
		 "optdone": 1, 
		 "sigma_profile": "yes", 
		 "theory": "DFT", 
		 "functional": "B3LYP", 
		 "basiset": "6-31G**", 
		 "properties": { 
			 "R2extent": 4478.3306, 
			 "electric_dipole_moment_norm": 4.14854782785, 
			 "electric_quadrupole_moment_norm": 23.2559593541, 
			 "total_energy": -1488.8928892, 
			 "HOMO_LUMO_gap": 0.19501, 
			 "cosmo_polarized_energy": -15.52, 
			 "cosmo_cavitation_energy": 33.38, 
			 "cosmo_dispersion_energy": -23.58, 
			 "cosmo_repulsion_energy": 1.84, 
			 "cosmo_total_nonelectrostatic_energy": 11.64, 
			 "SMD_solvation_energy": 3.53 
		},
		"coords": [
			{
				"x": -1.1772465455,
				"y": 2.3907183681,
				"z": 3.5563003146,
				"element": "Cl" 
			},
			{
				"x": -2.5731088243,
				"y": 2.4927314142,
				"z": 2.359582819,
				"element": "C" 
			},
			{
				"x": -2.1700859482,
				"y": 2.1453822007,
				"z": 0.9847639631,
				"element": "C" 
			},
			{
				"x": -1.871519333,
				"y": 2.8943286836,
				"z": -0.1208346332,
				"element": "C" 
			},
			{
				"x": -1.5289866193,
				"y": 1.9759007442,
				"z": -1.1595505444,
				"element": "C" 
			},
			{
				"x": -1.6498222019,
				"y": 0.7330377591,
				"z": -0.6065000447,
				"element": "C" 
			},
			{
				"x": -2.0373437014,
				"y": 0.8148491254,
				"z": 0.6967187528,
				"element": "O" 
			},
			{
				"x": -1.3498657809,
				"y": -0.8877001244,
				"z": -1.2820447445,
				"element": "S" 
			},
			{
				"x": -2.4635972196,
				"y": -1.7447439139,
				"z": -0.8867185579,
				"element": "O" 
			},
			{
				"x": -0.9911097419,
				"y": -0.6327288166,
				"z": -2.6760251094,
				"element": "O" 
			},
			{
				"x": 0.0011885373,
				"y": -1.4586458473,
				"z": -0.5185694728,
				"element": "N" 
			},
			{
				"x": -0.0808711781,
				"y": -1.9746112674,
				"z": 0.8763042752,
				"element": "C" 
			},
			{
				"x": 1.2418107418,
				"y": -1.5118423008,
				"z": 1.507498174,
				"element": "C" 
			},
			{
				"x": 2.200977683,
				"y": -1.4127063754,
				"z": 0.3090500781,
				"element": "C" 
			},
			{
				"x": 1.3149408672,
				"y": -0.8362435858,
				"z": -0.8022581263,
				"element": "C" 
			},
			{
				"x": -2.9357154855,
				"y": 3.518361052,
				"z": 2.4063375357,
				"element": "H" 
			},
			{
				"x": -3.3314880757,
				"y": 1.8101905448,
				"z": 2.7427486883,
				"element": "H" 
			},
			{
				"x": -1.893513155,
				"y": 3.9730556249,
				"z": -0.1828407418,
				"element": "H" 
			},
			{
				"x": -1.2452519832,
				"y": 2.1887002281,
				"z": -2.17880628,
				"element": "H" 
			},
			{
				"x": -0.1632681331,
				"y": -3.0659652374,
				"z": 0.8464864612,
				"element": "H" 
			},
			{
				"x": -0.9586577161,
				"y": -1.5847673688,
				"z": 1.3961936802,
				"element": "H" 
			},
			{
				"x": 1.1101891043,
				"y": -0.5253903503,
				"z": 1.9660081575,
				"element": "H" 
			},
			{
				"x": 1.59074238,
				"y": -2.1983751924,
				"z": 2.2833422413,
				"element": "H" 
			},
			{
				"x": 2.557248402,
				"y": -2.4082700738,
				"z": 0.0225232028,
				"element": "H" 
			},
			{
				"x": 3.0739420999,
				"y": -0.7844463176,
				"z": 0.5045278656,
				"element": "H" 
			},
			{
				"x": 1.2595221188,
				"y": 0.2599194195,
				"z": -0.7289395339,
				"element": "H" 
			},
			{
				"x": 1.6446897085,
				"y": -1.0972383925,
				"z": -1.8093984206,
				"element": "H" 
			}
		],
		 "valence_orbital": [ 
			{
				"type": "occ",
				"energy": -0.30751,
				"method": "rhf"
			},
			{
				"type": "occ",
				"energy": -0.30576,
				"method": "rhf"
			},
			{
				"type": "occ",
				"energy": -0.3023,
				"method": "rhf"
			},
			{
				"type": "occ",
				"energy": -0.26946,
				"method": "rhf"
			},
			{
				"type": "occ",
				"energy": -0.24506,
				"method": "rhf"
			},
			{
				"type": "unocc",
				"energy": -0.05005,
				"method": "rhf"
			},
			{
				"type": "unocc",
				"energy": 0.00739,
				"method": "rhf"
			},
			{
				"type": "unocc",
				"energy": 0.05438,
				"method": "rhf"
			},
			{
				"type": "unocc",
				"energy": 0.05976,
				"method": "rhf"
			},
			{
				"type": "unocc",
				"energy": 0.07959,
				"method": "rhf"
			}
		],
		"cosmo_sigma_profile": { 
			"-0.025": 0.0,
			"-0.024": 0.0,
			"-0.023": 0.0,
			"-0.022": 0.0,
			"-0.021": 0.0,
			"-0.02": 0.0,
			"-0.019": 0.0,
			"-0.018": 0.0,
			"-0.017": 0.0,
			"-0.016": 0.0,
			"-0.015": 0.0,
			"-0.014": 0.0,
			"-0.013": 0.0,
			"-0.012": 0.0,
			"-0.011": 0.0,
			"-0.01": 0.336780486418,
			"-0.009": 6.87617059625,
			"-0.008": 7.64047133865,
			"-0.007": 6.8252194265,
			"-0.006": 8.04188595588,
			"-0.005": 13.7287300714,
			"-0.004": 26.4962496537,
			"-0.003": 30.0628246051,
			"-0.002": 22.912970781,
			"-0.001": 21.9581397264,
			"0.0": 16.1311021654,
			"0.001": 13.2075516726,
			"0.002": 13.9320520156,
			"0.003": 10.4122923954,
			"0.004": 11.0049870252,
			"0.005": 11.4837872489,
			"0.006": 13.8211761316,
			"0.007": 5.50421376228,
			"0.008": 2.78431340089,
			"0.009": 4.71917837188,
			"0.01": 9.14210170509,
			"0.011": 8.5518906373,
			"0.012": 1.1243290175,
			"0.013": 0.0,
			"0.014": 0.0,
			"0.015": 0.0,
			"0.016": 0.0,
			"0.017": 0.0,
			"0.018": 0.0,
			"0.019": 0.0,
			"0.02": 0.0,
			"0.021": 0.0,
			"0.022": 0.0,
			"0.023": 0.0,
			"0.024": 0.0,
			"0.025": 0.0
		}
	}
}
