{
	 "smiles": "C1=CC=C(C=C1)C1=CC=CC=C1C1=CC=CC=C1", 
	 "Tm": 329.65, 
	 "num_atms": 32, 
	 "gaussian": { 
		 "optdone": 1, 
		 "sigma_profile": "yes", 
		 "theory": "DFT", 
		 "functional": "B3LYP", 
		 "basiset": "6-31G**", 
		 "properties": { 
			 "R2extent": 4429.2962, 
			 "electric_dipole_moment_norm": 0.10442691224, 
			 "electric_quadrupole_moment_norm": 6.93596048576, 
			 "total_energy": -694.364207956, 
			 "HOMO_LUMO_gap": 0.18977, 
			 "cosmo_polarized_energy": -6.43, 
			 "cosmo_cavitation_energy": 35.25, 
			 "cosmo_dispersion_energy": -24.56, 
			 "cosmo_repulsion_energy": 1.9, 
			 "cosmo_total_nonelectrostatic_energy": 12.59, 
			 "SMD_solvation_energy": 5.62 
		},
		"coords": [
			{
				"x": 2.2742511622,
				"y": 3.03886516,
				"z": -1.0295872935,
				"element": "C" 
			},
			{
				"x": 1.8178414143,
				"y": 2.7880313086,
				"z": 0.2665456141,
				"element": "C" 
			},
			{
				"x": 1.4664649325,
				"y": 1.4952883306,
				"z": 0.6513867185,
				"element": "C" 
			},
			{
				"x": 1.5667763638,
				"y": 0.4239168873,
				"z": -0.2517129342,
				"element": "C" 
			},
			{
				"x": 2.032204076,
				"y": 0.6893122015,
				"z": -1.5501839375,
				"element": "C" 
			},
			{
				"x": 2.3796864368,
				"y": 1.9842383741,
				"z": -1.9372385782,
				"element": "C" 
			},
			{
				"x": 1.2533018299,
				"y": -0.9753251673,
				"z": 0.1612595116,
				"element": "C" 
			},
			{
				"x": 2.2267133247,
				"y": -1.9617116817,
				"z": -0.0726034508,
				"element": "C" 
			},
			{
				"x": 2.044495849,
				"y": -3.2837312831,
				"z": 0.3262370657,
				"element": "C" 
			},
			{
				"x": 0.8679386879,
				"y": -3.6472559774,
				"z": 0.9801098844,
				"element": "C" 
			},
			{
				"x": -0.1126123874,
				"y": -2.685628011,
				"z": 1.2120977242,
				"element": "C" 
			},
			{
				"x": 0.0487317738,
				"y": -1.3491202104,
				"z": 0.8085014572,
				"element": "C" 
			},
			{
				"x": -1.0831818123,
				"y": -0.4073166369,
				"z": 1.0503507295,
				"element": "C" 
			},
			{
				"x": -1.6709729113,
				"y": -0.3220607054,
				"z": 2.323262063,
				"element": "C" 
			},
			{
				"x": -2.763785111,
				"y": 0.5144150564,
				"z": 2.5544680209,
				"element": "C" 
			},
			{
				"x": -3.294321862,
				"y": 1.2777846886,
				"z": 1.5138064349,
				"element": "C" 
			},
			{
				"x": -2.7226565374,
				"y": 1.1985785725,
				"z": 0.2417520882,
				"element": "C" 
			},
			{
				"x": -1.6282612276,
				"y": 0.3664850883,
				"z": 0.0122764907,
				"element": "C" 
			},
			{
				"x": 2.5454076305,
				"y": 4.0473976823,
				"z": -1.3284166843,
				"element": "H" 
			},
			{
				"x": 1.7387155856,
				"y": 3.601304679,
				"z": 0.9825485298,
				"element": "H" 
			},
			{
				"x": 1.1180448587,
				"y": 1.3090480292,
				"z": 1.6620996056,
				"element": "H" 
			},
			{
				"x": 2.1071109618,
				"y": -0.126552988,
				"z": -2.2638036293,
				"element": "H" 
			},
			{
				"x": 2.7299952821,
				"y": 2.1680185147,
				"z": -2.949179155,
				"element": "H" 
			},
			{
				"x": 3.1566967192,
				"y": -1.6681337565,
				"z": -0.550722207,
				"element": "H" 
			},
			{
				"x": 2.8203630822,
				"y": -4.0197693739,
				"z": 0.1361044878,
				"element": "H" 
			},
			{
				"x": 0.7080388145,
				"y": -4.6732318412,
				"z": 1.2989800652,
				"element": "H" 
			},
			{
				"x": -1.0446984418,
				"y": -2.9732166457,
				"z": 1.6897665878,
				"element": "H" 
			},
			{
				"x": -1.2558410729,
				"y": -0.9069999304,
				"z": 3.1393548137,
				"element": "H" 
			},
			{
				"x": -3.1978708611,
				"y": 0.5707061159,
				"z": 3.5489105838,
				"element": "H" 
			},
			{
				"x": -4.1457642782,
				"y": 1.9285593058,
				"z": 1.6912873578,
				"element": "H" 
			},
			{
				"x": -3.1327400654,
				"y": 1.7838413492,
				"z": -0.5765584155,
				"element": "H" 
			},
			{
				"x": -1.1940722171,
				"y": 0.307362865,
				"z": -0.9804995491,
				"element": "H" 
			}
		],
		 "valence_orbital": [ 
			{
				"type": "occ",
				"energy": -0.2642,
				"method": "rhf"
			},
			{
				"type": "occ",
				"energy": -0.24888,
				"method": "rhf"
			},
			{
				"type": "occ",
				"energy": -0.24395,
				"method": "rhf"
			},
			{
				"type": "occ",
				"energy": -0.23526,
				"method": "rhf"
			},
			{
				"type": "occ",
				"energy": -0.21694,
				"method": "rhf"
			},
			{
				"type": "unocc",
				"energy": -0.02717,
				"method": "rhf"
			},
			{
				"type": "unocc",
				"energy": -0.01247,
				"method": "rhf"
			},
			{
				"type": "unocc",
				"energy": -0.00211,
				"method": "rhf"
			},
			{
				"type": "unocc",
				"energy": 0.00747,
				"method": "rhf"
			},
			{
				"type": "unocc",
				"energy": 0.01633,
				"method": "rhf"
			}
		],
		"cosmo_sigma_profile": { 
			"-0.025": 0.0,
			"-0.024": 0.0,
			"-0.023": 0.0,
			"-0.022": 0.0,
			"-0.021": 0.0,
			"-0.02": 0.0,
			"-0.019": 0.0,
			"-0.018": 0.0,
			"-0.017": 0.0,
			"-0.016": 0.0,
			"-0.015": 0.0,
			"-0.014": 0.0,
			"-0.013": 0.0,
			"-0.012": 0.0,
			"-0.011": 0.0,
			"-0.01": 0.0,
			"-0.009": 0.0,
			"-0.008": 0.0,
			"-0.007": 0.00442073926656,
			"-0.006": 8.38497319363,
			"-0.005": 23.5289692113,
			"-0.004": 30.786786707,
			"-0.003": 31.436465621,
			"-0.002": 20.8024310897,
			"-0.001": 21.4722741548,
			"0.0": 20.5109015148,
			"0.001": 17.9180391144,
			"0.002": 20.2521565387,
			"0.003": 23.0763108386,
			"0.004": 20.9603161293,
			"0.005": 24.8273109257,
			"0.006": 18.1568984574,
			"0.007": 0.515652515313,
			"0.008": 0.0,
			"0.009": 0.0,
			"0.01": 0.0,
			"0.011": 0.0,
			"0.012": 0.0,
			"0.013": 0.0,
			"0.014": 0.0,
			"0.015": 0.0,
			"0.016": 0.0,
			"0.017": 0.0,
			"0.018": 0.0,
			"0.019": 0.0,
			"0.02": 0.0,
			"0.021": 0.0,
			"0.022": 0.0,
			"0.023": 0.0,
			"0.024": 0.0,
			"0.025": 0.0
		}
	}
}
