{
	 "smiles": "NC(=O)CC1CCCCN1", 
	 "Tm": 382.15, 
	 "num_atms": 24, 
	 "gaussian": { 
		 "optdone": 1, 
		 "sigma_profile": "yes", 
		 "theory": "DFT", 
		 "functional": "B3LYP", 
		 "basiset": "6-31G**", 
		 "properties": { 
			 "R2extent": 1627.4006, 
			 "electric_dipole_moment_norm": 3.6018119801, 
			 "electric_quadrupole_moment_norm": 14.7885062325, 
			 "total_energy": -459.925118521, 
			 "HOMO_LUMO_gap": 0.23538, 
			 "cosmo_polarized_energy": -14.5, 
			 "cosmo_cavitation_energy": 24.35, 
			 "cosmo_dispersion_energy": -18.12, 
			 "cosmo_repulsion_energy": 1.49, 
			 "cosmo_total_nonelectrostatic_energy": 7.71, 
			 "SMD_solvation_energy": 2.27 
		},
		"coords": [
			{
				"x": -2.3397094155,
				"y": -0.2883309218,
				"z": -2.3947055394,
				"element": "N" 
			},
			{
				"x": -2.0315552838,
				"y": 0.7117842829,
				"z": -1.5097247015,
				"element": "C" 
			},
			{
				"x": -2.8425763802,
				"y": 1.1070241125,
				"z": -0.6814353949,
				"element": "O" 
			},
			{
				"x": -0.6430659606,
				"y": 1.321916498,
				"z": -1.6596499841,
				"element": "C" 
			},
			{
				"x": 0.4500900197,
				"y": 0.9962054649,
				"z": -0.5862544266,
				"element": "C" 
			},
			{
				"x": 0.054753055,
				"y": 1.3208191301,
				"z": 0.8723631128,
				"element": "C" 
			},
			{
				"x": -0.7044115655,
				"y": 0.1923154265,
				"z": 1.5912792026,
				"element": "C" 
			},
			{
				"x": 0.0179433249,
				"y": -1.1506510985,
				"z": 1.4230424346,
				"element": "C" 
			},
			{
				"x": 0.2557150637,
				"y": -1.4369619324,
				"z": -0.0612646031,
				"element": "C" 
			},
			{
				"x": 1.0361832119,
				"y": -0.3441682827,
				"z": -0.6484720395,
				"element": "N" 
			},
			{
				"x": -3.2339656702,
				"y": -0.7455691442,
				"z": -2.2969956005,
				"element": "H" 
			},
			{
				"x": -1.6643437941,
				"y": -0.6733731566,
				"z": -3.0338275241,
				"element": "H" 
			},
			{
				"x": -0.8006685599,
				"y": 2.4059759051,
				"z": -1.6422643592,
				"element": "H" 
			},
			{
				"x": -0.2237606889,
				"y": 1.078287463,
				"z": -2.6449451895,
				"element": "H" 
			},
			{
				"x": 1.2629351418,
				"y": 1.686911599,
				"z": -0.8497856072,
				"element": "H" 
			},
			{
				"x": -0.5346909867,
				"y": 2.2430499092,
				"z": 0.8927843809,
				"element": "H" 
			},
			{
				"x": 0.9864609223,
				"y": 1.5155099758,
				"z": 1.4179111332,
				"element": "H" 
			},
			{
				"x": -1.7209248411,
				"y": 0.1210627952,
				"z": 1.1936305827,
				"element": "H" 
			},
			{
				"x": -0.7991977502,
				"y": 0.4442840662,
				"z": 2.6543298321,
				"element": "H" 
			},
			{
				"x": -0.565807641,
				"y": -1.9638150721,
				"z": 1.8705779183,
				"element": "H" 
			},
			{
				"x": 0.9898127267,
				"y": -1.1219405,
				"z": 1.9322088203,
				"element": "H" 
			},
			{
				"x": -0.718507798,
				"y": -1.6017042869,
				"z": -0.5563335815,
				"element": "H" 
			},
			{
				"x": 0.8347196731,
				"y": -2.3599557535,
				"z": -0.1836749842,
				"element": "H" 
			},
			{
				"x": 1.3207731968,
				"y": -0.5670764796,
				"z": -1.5974938822,
				"element": "H" 
			}
		],
		 "valence_orbital": [ 
			{
				"type": "occ",
				"energy": -0.30433,
				"method": "rhf"
			},
			{
				"type": "occ",
				"energy": -0.30085,
				"method": "rhf"
			},
			{
				"type": "occ",
				"energy": -0.26601,
				"method": "rhf"
			},
			{
				"type": "occ",
				"energy": -0.24453,
				"method": "rhf"
			},
			{
				"type": "occ",
				"energy": -0.21254,
				"method": "rhf"
			},
			{
				"type": "unocc",
				"energy": 0.02284,
				"method": "rhf"
			},
			{
				"type": "unocc",
				"energy": 0.05841,
				"method": "rhf"
			},
			{
				"type": "unocc",
				"energy": 0.09514,
				"method": "rhf"
			},
			{
				"type": "unocc",
				"energy": 0.11212,
				"method": "rhf"
			},
			{
				"type": "unocc",
				"energy": 0.12542,
				"method": "rhf"
			}
		],
		"cosmo_sigma_profile": { 
			"-0.025": 0.0,
			"-0.024": 0.0,
			"-0.023": 0.0,
			"-0.022": 0.0,
			"-0.021": 0.0,
			"-0.02": 0.0,
			"-0.019": 0.0,
			"-0.018": 0.0,
			"-0.017": 0.0,
			"-0.016": 0.0,
			"-0.015": 0.0,
			"-0.014": 0.912402826128,
			"-0.013": 2.23072794477,
			"-0.012": 2.61188852792,
			"-0.011": 2.6351395402,
			"-0.01": 2.44284997464,
			"-0.009": 3.80139934757,
			"-0.008": 4.70472439209,
			"-0.007": 4.27284559715,
			"-0.006": 3.13558095867,
			"-0.005": 4.53013893843,
			"-0.004": 6.37341773641,
			"-0.003": 14.0167410026,
			"-0.002": 20.0607283358,
			"-0.001": 20.1055129849,
			"0.0": 26.3669741805,
			"0.001": 20.9356473042,
			"0.002": 8.50727904135,
			"0.003": 4.35294819161,
			"0.004": 3.92426445948,
			"0.005": 3.26180893715,
			"0.006": 2.66650322892,
			"0.007": 2.38418740834,
			"0.008": 2.48517410054,
			"0.009": 2.43132336796,
			"0.01": 1.77649518907,
			"0.011": 2.44508086994,
			"0.012": 2.4255697565,
			"0.013": 2.25834442365,
			"0.014": 4.54739884194,
			"0.015": 3.21151472305,
			"0.016": 1.007711529,
			"0.017": 0.201401949526,
			"0.018": 0.333299903114,
			"0.019": 0.0,
			"0.02": 0.0,
			"0.021": 0.0,
			"0.022": 0.0,
			"0.023": 0.0,
			"0.024": 0.0,
			"0.025": 0.0
		}
	}
}
