{
	 "smiles": "NC(CC(=O)N1CCCCC1)=N/O", 
	 "Tm": 453.15, 
	 "num_atms": 28, 
	 "gaussian": { 
		 "optdone": 1, 
		 "sigma_profile": "yes", 
		 "theory": "DFT", 
		 "functional": "B3LYP", 
		 "basiset": "6-31G**", 
		 "properties": { 
			 "R2extent": 3530.547, 
			 "electric_dipole_moment_norm": 3.3812979845, 
			 "electric_quadrupole_moment_norm": 8.64243572496, 
			 "total_energy": -628.565470897, 
			 "HOMO_LUMO_gap": 0.22013, 
			 "cosmo_polarized_energy": -13.59, 
			 "cosmo_cavitation_energy": 29.4, 
			 "cosmo_dispersion_energy": -21.64, 
			 "cosmo_repulsion_energy": 1.76, 
			 "cosmo_total_nonelectrostatic_energy": 9.52, 
			 "SMD_solvation_energy": 4.14 
		},
		"coords": [
			{
				"x": -1.2893286837,
				"y": 2.8159556632,
				"z": -3.0451890757,
				"element": "N" 
			},
			{
				"x": -0.2333592426,
				"y": 2.6063619308,
				"z": -2.1994438913,
				"element": "C" 
			},
			{
				"x": 0.540802747,
				"y": 1.3238634811,
				"z": -2.386523903,
				"element": "C" 
			},
			{
				"x": -0.3807877448,
				"y": 0.125510667,
				"z": -2.1345355044,
				"element": "C" 
			},
			{
				"x": -1.1773798201,
				"y": -0.2123942846,
				"z": -3.0165203651,
				"element": "O" 
			},
			{
				"x": -0.310163335,
				"y": -0.5086196086,
				"z": -0.9317953587,
				"element": "N" 
			},
			{
				"x": -1.1469391664,
				"y": -1.7034632474,
				"z": -0.7311140005,
				"element": "C" 
			},
			{
				"x": -0.4529534298,
				"y": -2.6771974588,
				"z": 0.222806689,
				"element": "C" 
			},
			{
				"x": -0.2029368076,
				"y": -2.0456960123,
				"z": 1.6137615125,
				"element": "C" 
			},
			{
				"x": -0.1172710376,
				"y": -0.5075461322,
				"z": 1.5249042662,
				"element": "C" 
			},
			{
				"x": 0.501816446,
				"y": -0.0351839302,
				"z": 0.2055678798,
				"element": "C" 
			},
			{
				"x": 0.1700033431,
				"y": 3.406985124,
				"z": -1.2685877431,
				"element": "N" 
			},
			{
				"x": -0.7047659245,
				"y": 4.5393486251,
				"z": -1.218037569,
				"element": "O" 
			},
			{
				"x": -1.9325045596,
				"y": 3.5412685039,
				"z": -2.7621066225,
				"element": "H" 
			},
			{
				"x": -1.6872761807,
				"y": 1.9774452165,
				"z": -3.4515228964,
				"element": "H" 
			},
			{
				"x": 0.8533676928,
				"y": 1.2415562316,
				"z": -3.4321643644,
				"element": "H" 
			},
			{
				"x": 1.4280687106,
				"y": 1.3510580743,
				"z": -1.7557711615,
				"element": "H" 
			},
			{
				"x": -1.316115269,
				"y": -2.1483127634,
				"z": -1.7126971391,
				"element": "H" 
			},
			{
				"x": -2.1333729791,
				"y": -1.4144185784,
				"z": -0.3406933305,
				"element": "H" 
			},
			{
				"x": -1.056609514,
				"y": -3.5864556262,
				"z": 0.3109470603,
				"element": "H" 
			},
			{
				"x": 0.4989097887,
				"y": -2.979282466,
				"z": -0.2299408988,
				"element": "H" 
			},
			{
				"x": -1.0046457296,
				"y": -2.320850446,
				"z": 2.307898793,
				"element": "H" 
			},
			{
				"x": 0.7232507274,
				"y": -2.4504185034,
				"z": 2.0370451293,
				"element": "H" 
			},
			{
				"x": 0.4696437423,
				"y": -0.1021613716,
				"z": 2.3556369812,
				"element": "H" 
			},
			{
				"x": -1.1181616697,
				"y": -0.0683551877,
				"z": 1.6090638499,
				"element": "H" 
			},
			{
				"x": 1.5343851118,
				"y": -0.4075455217,
				"z": 0.1240371551,
				"element": "H" 
			},
			{
				"x": 0.5383908087,
				"y": 1.0561106267,
				"z": 0.1906102382,
				"element": "H" 
			},
			{
				"x": -0.2993680246,
				"y": 5.0698369942,
				"z": -0.5222357305,
				"element": "H" 
			}
		],
		 "valence_orbital": [ 
			{
				"type": "occ",
				"energy": -0.30419,
				"method": "rhf"
			},
			{
				"type": "occ",
				"energy": -0.26809,
				"method": "rhf"
			},
			{
				"type": "occ",
				"energy": -0.25111,
				"method": "rhf"
			},
			{
				"type": "occ",
				"energy": -0.2365,
				"method": "rhf"
			},
			{
				"type": "occ",
				"energy": -0.20515,
				"method": "rhf"
			},
			{
				"type": "unocc",
				"energy": 0.01498,
				"method": "rhf"
			},
			{
				"type": "unocc",
				"energy": 0.05577,
				"method": "rhf"
			},
			{
				"type": "unocc",
				"energy": 0.07106,
				"method": "rhf"
			},
			{
				"type": "unocc",
				"energy": 0.08192,
				"method": "rhf"
			},
			{
				"type": "unocc",
				"energy": 0.10414,
				"method": "rhf"
			}
		],
		"cosmo_sigma_profile": { 
			"-0.025": 0.0,
			"-0.024": 0.0,
			"-0.023": 0.0,
			"-0.022": 0.0,
			"-0.021": 0.0,
			"-0.02": 0.0,
			"-0.019": 0.0,
			"-0.018": 0.0,
			"-0.017": 0.198139937468,
			"-0.016": 0.825482041456,
			"-0.015": 1.17914269706,
			"-0.014": 0.921558139144,
			"-0.013": 0.0912611218149,
			"-0.012": 0.959578680651,
			"-0.011": 1.29174672714,
			"-0.01": 1.90468179284,
			"-0.009": 3.18921516498,
			"-0.008": 2.00627043522,
			"-0.007": 1.56987253814,
			"-0.006": 5.55189055891,
			"-0.005": 7.04922027919,
			"-0.004": 16.7525944204,
			"-0.003": 34.1656968665,
			"-0.002": 36.1562932472,
			"-0.001": 23.3925995981,
			"0.0": 19.7125105555,
			"0.001": 10.1123483047,
			"0.002": 4.86176632017,
			"0.003": 4.45713967547,
			"0.004": 4.83575943831,
			"0.005": 5.55610739728,
			"0.006": 5.24005064999,
			"0.007": 5.64836305506,
			"0.008": 5.45325923699,
			"0.009": 5.54561600155,
			"0.01": 5.43506553656,
			"0.011": 3.3225029373,
			"0.012": 3.29131505516,
			"0.013": 3.12042832674,
			"0.014": 4.33787671081,
			"0.015": 0.348481781128,
			"0.016": 0.0,
			"0.017": 0.0,
			"0.018": 0.0,
			"0.019": 0.0,
			"0.02": 0.0,
			"0.021": 0.0,
			"0.022": 0.0,
			"0.023": 0.0,
			"0.024": 0.0,
			"0.025": 0.0
		}
	}
}
