{
	 "smiles": "BrCCOC1=CC=C(C=C1)C#N", 
	 "Tm": 330.15, 
	 "num_atms": 20, 
	 "gaussian": { 
		 "optdone": 1, 
		 "sigma_profile": "yes", 
		 "theory": "DFT", 
		 "functional": "B3LYP", 
		 "basiset": "6-31G**", 
		 "properties": { 
			 "R2extent": 4915.5047, 
			 "electric_dipole_moment_norm": 5.15863017186, 
			 "electric_quadrupole_moment_norm": 28.0710300655, 
			 "total_energy": -3049.13378249, 
			 "HOMO_LUMO_gap": 0.19975, 
			 "cosmo_polarized_energy": -14.77, 
			 "cosmo_cavitation_energy": 27.65, 
			 "cosmo_dispersion_energy": -19.83, 
			 "cosmo_repulsion_energy": 1.6, 
			 "cosmo_total_nonelectrostatic_energy": 9.43, 
			 "SMD_solvation_energy": 5.19 
		},
		"coords": [
			{
				"x": -0.6413810654,
				"y": 0.8310111808,
				"z": -3.4869090727,
				"element": "Br" 
			},
			{
				"x": -0.9538406116,
				"y": -0.3044964806,
				"z": -1.9053708752,
				"element": "C" 
			},
			{
				"x": -1.0759409561,
				"y": 0.5148038808,
				"z": -0.6296341988,
				"element": "C" 
			},
			{
				"x": 0.1039643801,
				"y": 1.2352445856,
				"z": -0.2978909425,
				"element": "O" 
			},
			{
				"x": 1.1660627054,
				"y": 0.5993955115,
				"z": 0.2689675834,
				"element": "C" 
			},
			{
				"x": 2.301236196,
				"y": 1.4032083126,
				"z": 0.4687767842,
				"element": "C" 
			},
			{
				"x": 3.4371291886,
				"y": 0.8759308663,
				"z": 1.0594680111,
				"element": "C" 
			},
			{
				"x": 3.466252348,
				"y": -0.4731397558,
				"z": 1.4646823513,
				"element": "C" 
			},
			{
				"x": 2.3320822467,
				"y": -1.2718859108,
				"z": 1.2610291167,
				"element": "C" 
			},
			{
				"x": 1.1875974767,
				"y": -0.7455911532,
				"z": 0.6661237366,
				"element": "C" 
			},
			{
				"x": 4.6387556466,
				"y": -1.023099236,
				"z": 2.0750781655,
				"element": "C" 
			},
			{
				"x": 5.5914357258,
				"y": -1.4702437047,
				"z": 2.5720359591,
				"element": "N" 
			},
			{
				"x": -1.8810660197,
				"y": -0.8453940298,
				"z": -2.0974885826,
				"element": "H" 
			},
			{
				"x": -0.1203449329,
				"y": -1.0047693086,
				"z": -1.8738459861,
				"element": "H" 
			},
			{
				"x": -1.849282291,
				"y": 1.2769481072,
				"z": -0.7451898308,
				"element": "H" 
			},
			{
				"x": -1.3757130405,
				"y": -0.1476258403,
				"z": 0.1948142171,
				"element": "H" 
			},
			{
				"x": 2.261376028,
				"y": 2.4390500816,
				"z": 0.1503064471,
				"element": "H" 
			},
			{
				"x": 4.3109576141,
				"y": 1.5003096631,
				"z": 1.2122592129,
				"element": "H" 
			},
			{
				"x": 2.3477912673,
				"y": -2.3119320264,
				"z": 1.569408614,
				"element": "H" 
			},
			{
				"x": 0.329128094,
				"y": -1.3906247432,
				"z": 0.5242792897,
				"element": "H" 
			}
		],
		 "valence_orbital": [ 
			{
				"type": "occ",
				"energy": -0.32446,
				"method": "rhf"
			},
			{
				"type": "occ",
				"energy": -0.28622,
				"method": "rhf"
			},
			{
				"type": "occ",
				"energy": -0.28447,
				"method": "rhf"
			},
			{
				"type": "occ",
				"energy": -0.28005,
				"method": "rhf"
			},
			{
				"type": "occ",
				"energy": -0.24321,
				"method": "rhf"
			},
			{
				"type": "unocc",
				"energy": -0.04346,
				"method": "rhf"
			},
			{
				"type": "unocc",
				"energy": -0.03053,
				"method": "rhf"
			},
			{
				"type": "unocc",
				"energy": -0.01136,
				"method": "rhf"
			},
			{
				"type": "unocc",
				"energy": 0.03891,
				"method": "rhf"
			},
			{
				"type": "unocc",
				"energy": 0.06605,
				"method": "rhf"
			}
		],
		"cosmo_sigma_profile": { 
			"-0.025": 0.0,
			"-0.024": 0.0,
			"-0.023": 0.0,
			"-0.022": 0.0,
			"-0.021": 0.0,
			"-0.02": 0.0,
			"-0.019": 0.0,
			"-0.018": 0.0,
			"-0.017": 0.0,
			"-0.016": 0.0,
			"-0.015": 0.0,
			"-0.014": 0.0,
			"-0.013": 0.0,
			"-0.012": 0.0,
			"-0.011": 0.0781295457083,
			"-0.01": 1.16171120496,
			"-0.009": 3.07801488095,
			"-0.008": 11.3135164025,
			"-0.007": 17.4591758814,
			"-0.006": 16.5085691287,
			"-0.005": 12.0922312265,
			"-0.004": 11.4611988646,
			"-0.003": 8.87839733055,
			"-0.002": 10.0232396442,
			"-0.001": 12.7239043319,
			"0.0": 13.3283251861,
			"0.001": 15.9947605278,
			"0.002": 19.6929338604,
			"0.003": 12.4747821063,
			"0.004": 8.26164397526,
			"0.005": 9.96281174161,
			"0.006": 13.7873505496,
			"0.007": 5.77407737715,
			"0.008": 5.18953528772,
			"0.009": 4.77962829856,
			"0.01": 3.42238106082,
			"0.011": 2.96427518806,
			"0.012": 2.58477138445,
			"0.013": 2.10010899282,
			"0.014": 0.393467721182,
			"0.015": 0.0,
			"0.016": 0.0,
			"0.017": 0.0,
			"0.018": 0.0,
			"0.019": 0.0,
			"0.02": 0.0,
			"0.021": 0.0,
			"0.022": 0.0,
			"0.023": 0.0,
			"0.024": 0.0,
			"0.025": 0.0
		}
	}
}
