{
	 "smiles": "COCCS(=O)(=O)C1=CC=C(C=C1)C(O)=O", 
	 "Tm": 434.15, 
	 "num_atms": 28, 
	 "gaussian": { 
		 "optdone": 1, 
		 "sigma_profile": "yes", 
		 "theory": "DFT", 
		 "functional": "B3LYP", 
		 "basiset": "6-31G**", 
		 "properties": { 
			 "R2extent": 5601.3697, 
			 "electric_dipole_moment_norm": 4.69992329618, 
			 "electric_quadrupole_moment_norm": 24.648405064, 
			 "total_energy": -1162.52316884, 
			 "HOMO_LUMO_gap": 0.1909, 
			 "cosmo_polarized_energy": -25.74, 
			 "cosmo_cavitation_energy": 33.9, 
			 "cosmo_dispersion_energy": -24.25, 
			 "cosmo_repulsion_energy": 1.86, 
			 "cosmo_total_nonelectrostatic_energy": 11.52, 
			 "SMD_solvation_energy": 6.7 
		},
		"coords": [
			{
				"x": 2.7549443923,
				"y": -2.1177177737,
				"z": -0.521377688,
				"element": "C" 
			},
			{
				"x": 1.8443155129,
				"y": -2.6620079387,
				"z": -1.4590296256,
				"element": "O" 
			},
			{
				"x": 0.5968775487,
				"y": -2.0014744507,
				"z": -1.518073952,
				"element": "C" 
			},
			{
				"x": -0.3257450432,
				"y": -2.4320792372,
				"z": -0.3688476273,
				"element": "C" 
			},
			{
				"x": -2.0040137935,
				"y": -1.7391554416,
				"z": -0.4761428271,
				"element": "S" 
			},
			{
				"x": -2.4415651904,
				"y": -1.8361255754,
				"z": -1.8787905751,
				"element": "O" 
			},
			{
				"x": -2.787493989,
				"y": -2.329766637,
				"z": 0.6187051796,
				"element": "O" 
			},
			{
				"x": -1.7879957359,
				"y": 0.0160214488,
				"z": -0.1002745086,
				"element": "C" 
			},
			{
				"x": -1.7401709862,
				"y": 0.4306112487,
				"z": 1.2336454887,
				"element": "C" 
			},
			{
				"x": -1.5848258358,
				"y": 1.7840600556,
				"z": 1.5156969395,
				"element": "C" 
			},
			{
				"x": -1.4718627265,
				"y": 2.7165882141,
				"z": 0.4743788106,
				"element": "C" 
			},
			{
				"x": -1.5553325484,
				"y": 2.2850587052,
				"z": -0.8567470246,
				"element": "C" 
			},
			{
				"x": -1.7150784781,
				"y": 0.9308959821,
				"z": -1.1503685889,
				"element": "C" 
			},
			{
				"x": -1.3116121795,
				"y": 4.1620897151,
				"z": 0.8590059105,
				"element": "C" 
			},
			{
				"x": -0.8128776491,
				"y": 4.998616789,
				"z": -0.0865092265,
				"element": "O" 
			},
			{
				"x": -1.6032170027,
				"y": 4.5844134612,
				"z": 1.9518390426,
				"element": "O" 
			},
			{
				"x": 3.6964673181,
				"y": -2.6568395196,
				"z": -0.6461077376,
				"element": "H" 
			},
			{
				"x": 2.4207318632,
				"y": -2.2415673896,
				"z": 0.5193098567,
				"element": "H" 
			},
			{
				"x": 2.9313672601,
				"y": -1.0466315207,
				"z": -0.7045973887,
				"element": "H" 
			},
			{
				"x": 0.731310963,
				"y": -0.9082849994,
				"z": -1.513260092,
				"element": "H" 
			},
			{
				"x": 0.1353354981,
				"y": -2.2831312869,
				"z": -2.4674512318,
				"element": "H" 
			},
			{
				"x": -0.4849331422,
				"y": -3.514550757,
				"z": -0.3908934604,
				"element": "H" 
			},
			{
				"x": 0.0584341765,
				"y": -2.1596921223,
				"z": 0.617698449,
				"element": "H" 
			},
			{
				"x": -1.8504913334,
				"y": -0.2966488574,
				"z": 2.0312411714,
				"element": "H" 
			},
			{
				"x": -1.5579268588,
				"y": 2.1454838126,
				"z": 2.5377969189,
				"element": "H" 
			},
			{
				"x": -1.5426644039,
				"y": 2.9980244766,
				"z": -1.6773153812,
				"element": "H" 
			},
			{
				"x": -1.8107575196,
				"y": 0.5831531234,
				"z": -2.1732179263,
				"element": "H" 
			},
			{
				"x": -0.4829201165,
				"y": 4.499056475,
				"z": -0.8459129058,
				"element": "H" 
			}
		],
		 "valence_orbital": [ 
			{
				"type": "occ",
				"energy": -0.30751,
				"method": "rhf"
			},
			{
				"type": "occ",
				"energy": -0.29704,
				"method": "rhf"
			},
			{
				"type": "occ",
				"energy": -0.29608,
				"method": "rhf"
			},
			{
				"type": "occ",
				"energy": -0.28699,
				"method": "rhf"
			},
			{
				"type": "occ",
				"energy": -0.27428,
				"method": "rhf"
			},
			{
				"type": "unocc",
				"energy": -0.08338,
				"method": "rhf"
			},
			{
				"type": "unocc",
				"energy": -0.04759,
				"method": "rhf"
			},
			{
				"type": "unocc",
				"energy": 0.0132,
				"method": "rhf"
			},
			{
				"type": "unocc",
				"energy": 0.03676,
				"method": "rhf"
			},
			{
				"type": "unocc",
				"energy": 0.05129,
				"method": "rhf"
			}
		],
		"cosmo_sigma_profile": { 
			"-0.025": 0.0,
			"-0.024": 0.0,
			"-0.023": 0.0,
			"-0.022": 0.0,
			"-0.021": 0.0,
			"-0.02": 0.118701373923,
			"-0.019": 0.639384217323,
			"-0.018": 0.623882217884,
			"-0.017": 1.29279594813,
			"-0.016": 1.40213353265,
			"-0.015": 1.00121347025,
			"-0.014": 0.728363713177,
			"-0.013": 1.34853313202,
			"-0.012": 1.12154342485,
			"-0.011": 1.1396065419,
			"-0.01": 1.4047413176,
			"-0.009": 4.21096826795,
			"-0.008": 10.3232641707,
			"-0.007": 12.2655723414,
			"-0.006": 12.1786882181,
			"-0.005": 20.731549168,
			"-0.004": 21.4402192395,
			"-0.003": 20.484436014,
			"-0.002": 18.6927031795,
			"-0.001": 14.4659850402,
			"0.0": 16.9738177754,
			"0.001": 16.004886892,
			"0.002": 7.72541165056,
			"0.003": 5.69004236507,
			"0.004": 6.8200852915,
			"0.005": 4.59852837788,
			"0.006": 5.63273041608,
			"0.007": 6.86949540156,
			"0.008": 6.90842774893,
			"0.009": 7.88043345469,
			"0.01": 12.784672402,
			"0.011": 14.9751148194,
			"0.012": 9.45706185599,
			"0.013": 1.41228493188,
			"0.014": 0.0,
			"0.015": 0.0,
			"0.016": 0.0,
			"0.017": 0.0,
			"0.018": 0.0,
			"0.019": 0.0,
			"0.02": 0.0,
			"0.021": 0.0,
			"0.022": 0.0,
			"0.023": 0.0,
			"0.024": 0.0,
			"0.025": 0.0
		}
	}
}
