{
	 "smiles": "CC(O)(CC1=CC=CC=C1)C(O)=O", 
	 "Tm": 364.15, 
	 "num_atms": 25, 
	 "gaussian": { 
		 "optdone": 1, 
		 "sigma_profile": "yes", 
		 "theory": "DFT", 
		 "functional": "B3LYP", 
		 "basiset": "6-31G**", 
		 "properties": { 
			 "R2extent": 3109.8488, 
			 "electric_dipole_moment_norm": 3.25442492923, 
			 "electric_quadrupole_moment_norm": 10.8711606354, 
			 "total_energy": -613.978417561, 
			 "HOMO_LUMO_gap": 0.23074, 
			 "cosmo_polarized_energy": -15.02, 
			 "cosmo_cavitation_energy": 28.01, 
			 "cosmo_dispersion_energy": -19.94, 
			 "cosmo_repulsion_energy": 1.57, 
			 "cosmo_total_nonelectrostatic_energy": 9.65, 
			 "SMD_solvation_energy": 5.79 
		},
		"coords": [
			{
				"x": 1.0490538989,
				"y": -0.4064571451,
				"z": -2.3648617729,
				"element": "C" 
			},
			{
				"x": 0.9665896645,
				"y": 0.2309393174,
				"z": -0.9687245524,
				"element": "C" 
			},
			{
				"x": 1.9604680294,
				"y": -0.3591564672,
				"z": -0.1575250431,
				"element": "O" 
			},
			{
				"x": -0.4403339157,
				"y": 0.0509655145,
				"z": -0.3100667502,
				"element": "C" 
			},
			{
				"x": -0.9161732417,
				"y": -1.3832471338,
				"z": -0.219822992,
				"element": "C" 
			},
			{
				"x": -1.9838654699,
				"y": -1.829333017,
				"z": -1.0101426193,
				"element": "C" 
			},
			{
				"x": -2.4356630422,
				"y": -3.1481570015,
				"z": -0.9304735723,
				"element": "C" 
			},
			{
				"x": -1.8210949698,
				"y": -4.0437695966,
				"z": -0.0552448866,
				"element": "C" 
			},
			{
				"x": -0.7553157834,
				"y": -3.611005979,
				"z": 0.7376280878,
				"element": "C" 
			},
			{
				"x": -0.3070242029,
				"y": -2.2928808534,
				"z": 0.6584486973,
				"element": "C" 
			},
			{
				"x": 1.2659777309,
				"y": 1.743904382,
				"z": -1.0277017816,
				"element": "C" 
			},
			{
				"x": 0.5415743255,
				"y": 2.4997937165,
				"z": -1.8772850934,
				"element": "O" 
			},
			{
				"x": 2.1037712362,
				"y": 2.2507449234,
				"z": -0.315366546,
				"element": "O" 
			},
			{
				"x": 0.2547717124,
				"y": -0.0628680454,
				"z": -3.0387616224,
				"element": "H" 
			},
			{
				"x": 0.9445273596,
				"y": -1.4882369869,
				"z": -2.2634967396,
				"element": "H" 
			},
			{
				"x": 2.0185164363,
				"y": -0.1931887838,
				"z": -2.8225112045,
				"element": "H" 
			},
			{
				"x": 2.4340467731,
				"y": 0.3853703368,
				"z": 0.2556272771,
				"element": "H" 
			},
			{
				"x": -0.3726266944,
				"y": 0.4916135281,
				"z": 0.6913838367,
				"element": "H" 
			},
			{
				"x": -1.1817774998,
				"y": 0.6406984901,
				"z": -0.8632963172,
				"element": "H" 
			},
			{
				"x": -2.4743346992,
				"y": -1.1350470286,
				"z": -1.6890461638,
				"element": "H" 
			},
			{
				"x": -3.2682131638,
				"y": -3.4720529729,
				"z": -1.5487529863,
				"element": "H" 
			},
			{
				"x": -2.1712346778,
				"y": -5.069841474,
				"z": 0.0119190494,
				"element": "H" 
			},
			{
				"x": -0.272595514,
				"y": -4.3019861766,
				"z": 1.4231077004,
				"element": "H" 
			},
			{
				"x": 0.5288666317,
				"y": -1.9617535377,
				"z": 1.2648289217,
				"element": "H" 
			},
			{
				"x": -0.052810924,
				"y": 1.9420519907,
				"z": -2.3990629267,
				"element": "H" 
			}
		],
		 "valence_orbital": [ 
			{
				"type": "occ",
				"energy": -0.33293,
				"method": "rhf"
			},
			{
				"type": "occ",
				"energy": -0.29117,
				"method": "rhf"
			},
			{
				"type": "occ",
				"energy": -0.27909,
				"method": "rhf"
			},
			{
				"type": "occ",
				"energy": -0.25101,
				"method": "rhf"
			},
			{
				"type": "occ",
				"energy": -0.24382,
				"method": "rhf"
			},
			{
				"type": "unocc",
				"energy": -0.01308,
				"method": "rhf"
			},
			{
				"type": "unocc",
				"energy": -0.0029,
				"method": "rhf"
			},
			{
				"type": "unocc",
				"energy": 0.00251,
				"method": "rhf"
			},
			{
				"type": "unocc",
				"energy": 0.0328,
				"method": "rhf"
			},
			{
				"type": "unocc",
				"energy": 0.09058,
				"method": "rhf"
			}
		],
		"cosmo_sigma_profile": { 
			"-0.025": 0.0,
			"-0.024": 0.0,
			"-0.023": 0.0,
			"-0.022": 0.0,
			"-0.021": 0.0,
			"-0.02": 0.0,
			"-0.019": 0.233089286168,
			"-0.018": 1.04473285414,
			"-0.017": 1.3223150281,
			"-0.016": 1.02728154139,
			"-0.015": 0.902340196063,
			"-0.014": 0.477630524192,
			"-0.013": 1.3408861293,
			"-0.012": 1.43614578102,
			"-0.011": 1.26905920551,
			"-0.01": 1.50579421177,
			"-0.009": 1.63096738458,
			"-0.008": 1.6130306297,
			"-0.007": 3.06004739501,
			"-0.006": 6.81701493966,
			"-0.005": 18.1062621425,
			"-0.004": 18.8852793644,
			"-0.003": 18.138337893,
			"-0.002": 16.9598826588,
			"-0.001": 15.5915230235,
			"0.0": 13.8142376564,
			"0.001": 12.824052195,
			"0.002": 8.96427128024,
			"0.003": 10.6627903577,
			"0.004": 11.0418406899,
			"0.005": 12.6913842862,
			"0.006": 10.8960278631,
			"0.007": 4.85706626968,
			"0.008": 4.76058361563,
			"0.009": 6.32627709644,
			"0.01": 5.37043608724,
			"0.011": 3.90113033093,
			"0.012": 2.18884600368,
			"0.013": 1.13908837412,
			"0.014": 0.182756499088,
			"0.015": 0.0,
			"0.016": 0.0,
			"0.017": 0.0,
			"0.018": 0.0,
			"0.019": 0.0,
			"0.02": 0.0,
			"0.021": 0.0,
			"0.022": 0.0,
			"0.023": 0.0,
			"0.024": 0.0,
			"0.025": 0.0
		}
	}
}
