{
	 "smiles": "OC(=O)C1=NOC=C1", 
	 "Tm": 417.15, 
	 "num_atms": 11, 
	 "gaussian": { 
		 "optdone": 1, 
		 "sigma_profile": "yes", 
		 "theory": "DFT", 
		 "functional": "B3LYP", 
		 "basiset": "6-31G**", 
		 "properties": { 
			 "R2extent": 1008.5382, 
			 "electric_dipole_moment_norm": 3.8000364143, 
			 "electric_quadrupole_moment_norm": 11.9706078772, 
			 "total_energy": -434.600955548, 
			 "HOMO_LUMO_gap": 0.22403, 
			 "cosmo_polarized_energy": -10.95, 
			 "cosmo_cavitation_energy": 16.43, 
			 "cosmo_dispersion_energy": -12.41, 
			 "cosmo_repulsion_energy": 1.03, 
			 "cosmo_total_nonelectrostatic_energy": 5.05, 
			 "SMD_solvation_energy": 5.14 
		},
		"coords": [
			{
				"x": 1.946328263,
				"y": 1.3605778784,
				"z": -1.9797457533,
				"element": "O" 
			},
			{
				"x": 1.9375195815,
				"y": 0.5157981075,
				"z": -0.931316107,
				"element": "C" 
			},
			{
				"x": 2.9458485451,
				"y": 0.1494295657,
				"z": -0.3789781004,
				"element": "O" 
			},
			{
				"x": 0.5787065289,
				"y": 0.0636463938,
				"z": -0.5013512633,
				"element": "C" 
			},
			{
				"x": -0.4861686573,
				"y": 0.4971899732,
				"z": -1.1426238501,
				"element": "N" 
			},
			{
				"x": -1.567574617,
				"y": -0.0901166727,
				"z": -0.5183386519,
				"element": "O" 
			},
			{
				"x": -1.1166998573,
				"y": -0.868177639,
				"z": 0.4918747029,
				"element": "C" 
			},
			{
				"x": 0.239375725,
				"y": -0.8183364393,
				"z": 0.5609855573,
				"element": "C" 
			},
			{
				"x": 1.0310617248,
				"y": 1.5226366625,
				"z": -2.2695501828,
				"element": "H" 
			},
			{
				"x": -1.8780356147,
				"y": -1.3837098649,
				"z": 1.058465725,
				"element": "H" 
			},
			{
				"x": 0.910338378,
				"y": -1.3151379652,
				"z": 1.2427779235,
				"element": "H" 
			}
		],
		 "valence_orbital": [ 
			{
				"type": "occ",
				"energy": -0.34596,
				"method": "rhf"
			},
			{
				"type": "occ",
				"energy": -0.33473,
				"method": "rhf"
			},
			{
				"type": "occ",
				"energy": -0.31973,
				"method": "rhf"
			},
			{
				"type": "occ",
				"energy": -0.29641,
				"method": "rhf"
			},
			{
				"type": "occ",
				"energy": -0.28999,
				"method": "rhf"
			},
			{
				"type": "unocc",
				"energy": -0.06596,
				"method": "rhf"
			},
			{
				"type": "unocc",
				"energy": -0.0098,
				"method": "rhf"
			},
			{
				"type": "unocc",
				"energy": 0.06039,
				"method": "rhf"
			},
			{
				"type": "unocc",
				"energy": 0.09572,
				"method": "rhf"
			},
			{
				"type": "unocc",
				"energy": 0.10155,
				"method": "rhf"
			}
		],
		"cosmo_sigma_profile": { 
			"-0.025": 0.0,
			"-0.024": 0.0,
			"-0.023": 0.0,
			"-0.022": 0.0,
			"-0.021": 0.0,
			"-0.02": 0.0,
			"-0.019": 0.0,
			"-0.018": 0.0,
			"-0.017": 0.00999004145803,
			"-0.016": 0.664243141502,
			"-0.015": 0.507246602649,
			"-0.014": 1.10702885825,
			"-0.013": 0.237272558355,
			"-0.012": 1.38355289728,
			"-0.011": 3.0363077955,
			"-0.01": 3.37186878711,
			"-0.009": 4.12390635711,
			"-0.008": 4.5890997392,
			"-0.007": 4.70832642477,
			"-0.006": 5.58691219987,
			"-0.005": 5.75844129416,
			"-0.004": 4.78174245287,
			"-0.003": 7.07710145405,
			"-0.002": 10.4089011029,
			"-0.001": 10.3008302395,
			"0.0": 7.17826732321,
			"0.001": 6.01610267222,
			"0.002": 3.0742459384,
			"0.003": 4.89901575132,
			"0.004": 4.36912150532,
			"0.005": 6.61594951534,
			"0.006": 6.71610453058,
			"0.007": 4.79973646238,
			"0.008": 4.70521630332,
			"0.009": 5.60964193348,
			"0.01": 4.83981812879,
			"0.011": 4.89027043889,
			"0.012": 1.42673530721,
			"0.013": 0.0299428590656,
			"0.014": 0.0,
			"0.015": 0.0,
			"0.016": 0.0,
			"0.017": 0.0,
			"0.018": 0.0,
			"0.019": 0.0,
			"0.02": 0.0,
			"0.021": 0.0,
			"0.022": 0.0,
			"0.023": 0.0,
			"0.024": 0.0,
			"0.025": 0.0
		}
	}
}
