{
	 "smiles": "COC1CCCCCCCCCCC1", 
	 "Tm": 281.15, 
	 "num_atms": 40, 
	 "gaussian": { 
		 "optdone": 1, 
		 "sigma_profile": "yes", 
		 "theory": "DFT", 
		 "functional": "B3LYP", 
		 "basiset": "6-31G**", 
		 "properties": { 
			 "R2extent": 3815.827, 
			 "electric_dipole_moment_norm": 1.35888787249, 
			 "electric_quadrupole_moment_norm": 6.86637068982, 
			 "total_energy": -586.275727739, 
			 "HOMO_LUMO_gap": 0.3206, 
			 "cosmo_polarized_energy": -3.94, 
			 "cosmo_cavitation_energy": 35.07, 
			 "cosmo_dispersion_energy": -25.4, 
			 "cosmo_repulsion_energy": 1.98, 
			 "cosmo_total_nonelectrostatic_energy": 11.66, 
			 "SMD_solvation_energy": 4.75 
		},
		"coords": [
			{
				"x": 3.1421104906,
				"y": 2.7615813796,
				"z": -1.2628925673,
				"element": "C" 
			},
			{
				"x": 1.7462135746,
				"y": 2.911682689,
				"z": -1.4226719119,
				"element": "O" 
			},
			{
				"x": 0.9325024356,
				"y": 1.8000044857,
				"z": -1.0245743695,
				"element": "C" 
			},
			{
				"x": 1.3145664426,
				"y": 0.4856388897,
				"z": -1.7401881606,
				"element": "C" 
			},
			{
				"x": 0.1651701263,
				"y": -0.5277032319,
				"z": -1.6562998716,
				"element": "C" 
			},
			{
				"x": 0.4853929015,
				"y": -1.993426238,
				"z": -1.9771791357,
				"element": "C" 
			},
			{
				"x": -0.6296924432,
				"y": -2.9404204501,
				"z": -1.4833029568,
				"element": "C" 
			},
			{
				"x": -0.7115133749,
				"y": -3.0725683954,
				"z": 0.0658000952,
				"element": "C" 
			},
			{
				"x": -2.0673110691,
				"y": -2.7155780525,
				"z": 0.7146330216,
				"element": "C" 
			},
			{
				"x": -2.5002201584,
				"y": -1.2400088529,
				"z": 0.6078620303,
				"element": "C" 
			},
			{
				"x": -1.6210842984,
				"y": -0.2434258117,
				"z": 1.3936087262,
				"element": "C" 
			},
			{
				"x": -1.6904217966,
				"y": 1.2011330136,
				"z": 0.852667319,
				"element": "C" 
			},
			{
				"x": -0.4676619898,
				"y": 2.081972594,
				"z": 1.1789034434,
				"element": "C" 
			},
			{
				"x": 0.8664171253,
				"y": 1.6585343411,
				"z": 0.525703916,
				"element": "C" 
			},
			{
				"x": 3.562589631,
				"y": 1.9873242312,
				"z": -1.9202608148,
				"element": "H" 
			},
			{
				"x": 3.590401156,
				"y": 3.7217386562,
				"z": -1.5320948017,
				"element": "H" 
			},
			{
				"x": 3.4329684715,
				"y": 2.5264780127,
				"z": -0.2277488012,
				"element": "H" 
			},
			{
				"x": -0.0584067077,
				"y": 2.0950346823,
				"z": -1.3920721578,
				"element": "H" 
			},
			{
				"x": 2.2158829338,
				"y": 0.0577536071,
				"z": -1.2806117878,
				"element": "H" 
			},
			{
				"x": 1.5620962964,
				"y": 0.709284368,
				"z": -2.7850968146,
				"element": "H" 
			},
			{
				"x": -0.6611151718,
				"y": -0.1914125552,
				"z": -2.2978318838,
				"element": "H" 
			},
			{
				"x": -0.2220777508,
				"y": -0.4993498563,
				"z": -0.6387362142,
				"element": "H" 
			},
			{
				"x": 0.6367888241,
				"y": -2.1231019105,
				"z": -3.0566112144,
				"element": "H" 
			},
			{
				"x": 1.4328491681,
				"y": -2.2798264915,
				"z": -1.498910125,
				"element": "H" 
			},
			{
				"x": -1.5913649938,
				"y": -2.5911259089,
				"z": -1.8832114699,
				"element": "H" 
			},
			{
				"x": -0.4726269312,
				"y": -3.9326490498,
				"z": -1.9218843804,
				"element": "H" 
			},
			{
				"x": 0.0797448697,
				"y": -2.4665162165,
				"z": 0.5250198062,
				"element": "H" 
			},
			{
				"x": -0.4736824116,
				"y": -4.105502849,
				"z": 0.3465668608,
				"element": "H" 
			},
			{
				"x": -2.8473119159,
				"y": -3.3421151615,
				"z": 0.2611585422,
				"element": "H" 
			},
			{
				"x": -2.0308083204,
				"y": -3.0027326534,
				"z": 1.7746424019,
				"element": "H" 
			},
			{
				"x": -2.5105165953,
				"y": -0.9517728353,
				"z": -0.4509518657,
				"element": "H" 
			},
			{
				"x": -3.5412560987,
				"y": -1.1499250201,
				"z": 0.9436824324,
				"element": "H" 
			},
			{
				"x": -1.9024599432,
				"y": -0.2566315546,
				"z": 2.4547663471,
				"element": "H" 
			},
			{
				"x": -0.581325526,
				"y": -0.587325763,
				"z": 1.3720203071,
				"element": "H" 
			},
			{
				"x": -2.5927212784,
				"y": 1.6920529272,
				"z": 1.2390296073,
				"element": "H" 
			},
			{
				"x": -1.822640077,
				"y": 1.1693564583,
				"z": -0.2363197991,
				"element": "H" 
			},
			{
				"x": -0.6866856376,
				"y": 3.1142454114,
				"z": 0.8756862239,
				"element": "H" 
			},
			{
				"x": -0.3269923438,
				"y": 2.1107030461,
				"z": 2.2680252549,
				"element": "H" 
			},
			{
				"x": 1.1166097351,
				"y": 0.6337701834,
				"z": 0.8253999277,
				"element": "H" 
			},
			{
				"x": 1.6556926517,
				"y": 2.2891298811,
				"z": 0.9488748405,
				"element": "H" 
			}
		],
		 "valence_orbital": [ 
			{
				"type": "occ",
				"energy": -0.30639,
				"method": "rhf"
			},
			{
				"type": "occ",
				"energy": -0.30386,
				"method": "rhf"
			},
			{
				"type": "occ",
				"energy": -0.29761,
				"method": "rhf"
			},
			{
				"type": "occ",
				"energy": -0.28363,
				"method": "rhf"
			},
			{
				"type": "occ",
				"energy": -0.23991,
				"method": "rhf"
			},
			{
				"type": "unocc",
				"energy": 0.08069,
				"method": "rhf"
			},
			{
				"type": "unocc",
				"energy": 0.09021,
				"method": "rhf"
			},
			{
				"type": "unocc",
				"energy": 0.09585,
				"method": "rhf"
			},
			{
				"type": "unocc",
				"energy": 0.09662,
				"method": "rhf"
			},
			{
				"type": "unocc",
				"energy": 0.10991,
				"method": "rhf"
			}
		],
		"cosmo_sigma_profile": { 
			"-0.025": 0.0,
			"-0.024": 0.0,
			"-0.023": 0.0,
			"-0.022": 0.0,
			"-0.021": 0.0,
			"-0.02": 0.0,
			"-0.019": 0.0,
			"-0.018": 0.0,
			"-0.017": 0.0,
			"-0.016": 0.0,
			"-0.015": 0.0,
			"-0.014": 0.0,
			"-0.013": 0.0,
			"-0.012": 0.0,
			"-0.011": 0.0,
			"-0.01": 0.0,
			"-0.009": 0.0,
			"-0.008": 0.0,
			"-0.007": 0.0,
			"-0.006": 0.0,
			"-0.005": 0.552773661685,
			"-0.004": 5.23231141312,
			"-0.003": 14.5768182523,
			"-0.002": 46.4655635058,
			"-0.001": 63.7228490151,
			"0.0": 56.8232826976,
			"0.001": 45.9197172854,
			"0.002": 17.0113044337,
			"0.003": 2.08970741185,
			"0.004": 1.78671132165,
			"0.005": 1.68376809713,
			"0.006": 1.27218465696,
			"0.007": 1.23249807884,
			"0.008": 1.56808846419,
			"0.009": 1.28270133417,
			"0.01": 1.00373925714,
			"0.011": 0.773135063503,
			"0.012": 1.55601967494,
			"0.013": 1.21131317019,
			"0.014": 1.87998961132,
			"0.015": 0.268879295405,
			"0.016": 0.0,
			"0.017": 0.0,
			"0.018": 0.0,
			"0.019": 0.0,
			"0.02": 0.0,
			"0.021": 0.0,
			"0.022": 0.0,
			"0.023": 0.0,
			"0.024": 0.0,
			"0.025": 0.0
		}
	}
}
