{
	 "smiles": "CCOC(=O)C1=CC=C(C=C1)N1C(C)=CC(C=O)=C1C", 
	 "Tm": 387.15, 
	 "num_atms": 37, 
	 "gaussian": { 
		 "optdone": 1, 
		 "sigma_profile": "yes", 
		 "theory": "DFT", 
		 "functional": "B3LYP", 
		 "basiset": "6-31G**", 
		 "properties": { 
			 "R2extent": 8744.5624, 
			 "electric_dipole_moment_norm": 6.14228428193, 
			 "electric_quadrupole_moment_norm": 26.8867268657, 
			 "total_energy": -900.389204736, 
			 "HOMO_LUMO_gap": 0.14812, 
			 "cosmo_polarized_energy": -15.98, 
			 "cosmo_cavitation_energy": 41.54, 
			 "cosmo_dispersion_energy": -28.43, 
			 "cosmo_repulsion_energy": 2.21, 
			 "cosmo_total_nonelectrostatic_energy": 15.32, 
			 "SMD_solvation_energy": 9.43 
		},
		"coords": [
			{
				"x": -4.7836918573,
				"y": 0.6147206443,
				"z": 4.6712379451,
				"element": "C" 
			},
			{
				"x": -3.3521121388,
				"y": 0.94270706,
				"z": 5.0669619027,
				"element": "C" 
			},
			{
				"x": -2.4792975401,
				"y": 0.9726609609,
				"z": 3.9105318296,
				"element": "O" 
			},
			{
				"x": -1.9635762862,
				"y": -0.2104188089,
				"z": 3.5130136602,
				"element": "C" 
			},
			{
				"x": -2.1856446496,
				"y": -1.2690805749,
				"z": 4.0690376244,
				"element": "O" 
			},
			{
				"x": -1.0836092988,
				"y": -0.0696478024,
				"z": 2.314635599,
				"element": "C" 
			},
			{
				"x": -0.4738586192,
				"y": -1.2266854304,
				"z": 1.8124309688,
				"element": "C" 
			},
			{
				"x": 0.3605431061,
				"y": -1.1546246771,
				"z": 0.7014028814,
				"element": "C" 
			},
			{
				"x": 0.5827748599,
				"y": 0.0780654078,
				"z": 0.0759522725,
				"element": "C" 
			},
			{
				"x": -0.027639491,
				"y": 1.2361151893,
				"z": 0.5713188444,
				"element": "C" 
			},
			{
				"x": -0.8544557877,
				"y": 1.1634915308,
				"z": 1.6896907099,
				"element": "C" 
			},
			{
				"x": 1.436207555,
				"y": 0.1563021231,
				"z": -1.0674809162,
				"element": "N" 
			},
			{
				"x": 2.7141857751,
				"y": 0.7421387092,
				"z": -1.0792535006,
				"element": "C" 
			},
			{
				"x": 3.3396047874,
				"y": 1.3155501698,
				"z": 0.1516777109,
				"element": "C" 
			},
			{
				"x": 3.2022714496,
				"y": 0.6238139029,
				"z": -2.3511689013,
				"element": "C" 
			},
			{
				"x": 2.2146977941,
				"y": -0.039548906,
				"z": -3.1490755813,
				"element": "C" 
			},
			{
				"x": 2.3403316879,
				"y": -0.3493415972,
				"z": -4.5651472219,
				"element": "C" 
			},
			{
				"x": 3.3170135123,
				"y": -0.0802411837,
				"z": -5.248855452,
				"element": "O" 
			},
			{
				"x": 1.1268889643,
				"y": -0.3219087474,
				"z": -2.3259714726,
				"element": "C" 
			},
			{
				"x": -0.1877695957,
				"y": -0.9688536921,
				"z": -2.6288499504,
				"element": "C" 
			},
			{
				"x": -5.4331645684,
				"y": 0.6744096794,
				"z": 5.5508430153,
				"element": "H" 
			},
			{
				"x": -5.1537846452,
				"y": 1.3215652043,
				"z": 3.9228177365,
				"element": "H" 
			},
			{
				"x": -4.8482425142,
				"y": -0.39801256,
				"z": 4.2662756116,
				"element": "H" 
			},
			{
				"x": -3.2720616232,
				"y": 1.9465156127,
				"z": 5.4905680104,
				"element": "H" 
			},
			{
				"x": -2.9623194247,
				"y": 0.2135298018,
				"z": 5.7808008612,
				"element": "H" 
			},
			{
				"x": -0.6598375258,
				"y": -2.1704906366,
				"z": 2.3133000301,
				"element": "H" 
			},
			{
				"x": 0.8523030533,
				"y": -2.0429183096,
				"z": 0.3182546396,
				"element": "H" 
			},
			{
				"x": 0.1427177423,
				"y": 2.1832515883,
				"z": 0.0697243015,
				"element": "H" 
			},
			{
				"x": -1.3307794799,
				"y": 2.0563830112,
				"z": 2.0770412566,
				"element": "H" 
			},
			{
				"x": 3.398440921,
				"y": 0.5818406593,
				"z": 0.9644751227,
				"element": "H" 
			},
			{
				"x": 4.356288046,
				"y": 1.6387941968,
				"z": -0.0826520637,
				"element": "H" 
			},
			{
				"x": 2.7945680138,
				"y": 2.1836373146,
				"z": 0.5404009692,
				"element": "H" 
			},
			{
				"x": 4.1663112132,
				"y": 0.9598653192,
				"z": -2.7042789971,
				"element": "H" 
			},
			{
				"x": 1.4672660512,
				"y": -0.8680565486,
				"z": -5.0212916771,
				"element": "H" 
			},
			{
				"x": -0.3102662588,
				"y": -1.9265828988,
				"z": -2.110098108,
				"element": "H" 
			},
			{
				"x": -1.0282056943,
				"y": -0.3315451472,
				"z": -2.3308482585,
				"element": "H" 
			},
			{
				"x": -0.2755975337,
				"y": -1.1593005651,
				"z": -3.6996214029,
				"element": "H" 
			}
		],
		 "valence_orbital": [ 
			{
				"type": "occ",
				"energy": -0.27997,
				"method": "rhf"
			},
			{
				"type": "occ",
				"energy": -0.27832,
				"method": "rhf"
			},
			{
				"type": "occ",
				"energy": -0.24284,
				"method": "rhf"
			},
			{
				"type": "occ",
				"energy": -0.23149,
				"method": "rhf"
			},
			{
				"type": "occ",
				"energy": -0.21198,
				"method": "rhf"
			},
			{
				"type": "unocc",
				"energy": -0.06386,
				"method": "rhf"
			},
			{
				"type": "unocc",
				"energy": -0.02941,
				"method": "rhf"
			},
			{
				"type": "unocc",
				"energy": -0.02346,
				"method": "rhf"
			},
			{
				"type": "unocc",
				"energy": 0.02935,
				"method": "rhf"
			},
			{
				"type": "unocc",
				"energy": 0.04489,
				"method": "rhf"
			}
		],
		"cosmo_sigma_profile": { 
			"-0.025": 0.0,
			"-0.024": 0.0,
			"-0.023": 0.0,
			"-0.022": 0.0,
			"-0.021": 0.0,
			"-0.02": 0.0,
			"-0.019": 0.0,
			"-0.018": 0.0,
			"-0.017": 0.0,
			"-0.016": 0.0,
			"-0.015": 0.0,
			"-0.014": 0.0,
			"-0.013": 0.0,
			"-0.012": 0.0,
			"-0.011": 0.0,
			"-0.01": 0.0,
			"-0.009": 0.0,
			"-0.008": 0.820238057799,
			"-0.007": 5.79378334133,
			"-0.006": 14.5449378988,
			"-0.005": 24.1293707566,
			"-0.004": 31.9504166336,
			"-0.003": 33.4743281576,
			"-0.002": 35.3476757431,
			"-0.001": 36.0391745382,
			"0.0": 30.9041638533,
			"0.001": 23.5162057382,
			"0.002": 21.0867834513,
			"0.003": 11.6605339573,
			"0.004": 9.65514142152,
			"0.005": 9.90937178835,
			"0.006": 7.45602024371,
			"0.007": 3.86482164151,
			"0.008": 3.36157933945,
			"0.009": 3.95493193879,
			"0.01": 3.15966298519,
			"0.011": 5.53079504541,
			"0.012": 6.66511745062,
			"0.013": 4.93495185234,
			"0.014": 1.91457250466,
			"0.015": 0.26748612743,
			"0.016": 0.0,
			"0.017": 0.0,
			"0.018": 0.0,
			"0.019": 0.0,
			"0.02": 0.0,
			"0.021": 0.0,
			"0.022": 0.0,
			"0.023": 0.0,
			"0.024": 0.0,
			"0.0": 0.0
		}
	}
}
