{
	 "smiles": "CC1CC2(CC(C)(C)C1)NC(=O)NC2=O", 
	 "Tm": 547.15, 
	 "num_atms": 33, 
	 "gaussian": { 
		 "optdone": 1, 
		 "sigma_profile": "yes", 
		 "theory": "DFT", 
		 "functional": "B3LYP", 
		 "basiset": "6-31G**", 
		 "properties": { 
			 "R2extent": 3494.3926, 
			 "electric_dipole_moment_norm": 2.66841668036, 
			 "electric_quadrupole_moment_norm": 14.7668130797, 
			 "total_energy": -690.03811574, 
			 "HOMO_LUMO_gap": 0.2471, 
			 "cosmo_polarized_energy": -14.49, 
			 "cosmo_cavitation_energy": 32.49, 
			 "cosmo_dispersion_energy": -23.12, 
			 "cosmo_repulsion_energy": 1.79, 
			 "cosmo_total_nonelectrostatic_energy": 11.16, 
			 "SMD_solvation_energy": 6.25 
		},
		"coords": [
			{
				"x": 2.2413746987,
				"y": -1.6880225694,
				"z": 0.945851015,
				"element": "C" 
			},
			{
				"x": 1.0731955136,
				"y": -1.0238520505,
				"z": 0.2062686003,
				"element": "C" 
			},
			{
				"x": 1.2374886208,
				"y": 0.504711189,
				"z": 0.1941561432,
				"element": "C" 
			},
			{
				"x": 0.0941815042,
				"y": 1.2401166398,
				"z": -0.537302362,
				"element": "C" 
			},
			{
				"x": -1.2935173605,
				"y": 0.748735069,
				"z": -0.0343593346,
				"element": "C" 
			},
			{
				"x": -1.5110400214,
				"y": -0.7782376736,
				"z": 0.1438709752,
				"element": "C" 
			},
			{
				"x": -2.7465284943,
				"y": -0.9696483475,
				"z": 1.0476919665,
				"element": "C" 
			},
			{
				"x": -1.7927366382,
				"y": -1.4848516191,
				"z": -1.1984253795,
				"element": "C" 
			},
			{
				"x": -0.2757647901,
				"y": -1.3941236479,
				"z": 0.8448098525,
				"element": "C" 
			},
			{
				"x": 0.1939385528,
				"y": 2.6937980649,
				"z": -0.3463695103,
				"element": "N" 
			},
			{
				"x": 0.1953414688,
				"y": 3.418829026,
				"z": -1.5089188976,
				"element": "C" 
			},
			{
				"x": 0.159207051,
				"y": 4.6222584918,
				"z": -1.6591827806,
				"element": "O" 
			},
			{
				"x": 0.2649116637,
				"y": 2.4549314087,
				"z": -2.5373304377,
				"element": "N" 
			},
			{
				"x": 0.2749855131,
				"y": 1.157850324,
				"z": -2.0754849871,
				"element": "C" 
			},
			{
				"x": 0.4272769173,
				"y": 0.1641742042,
				"z": -2.7601440253,
				"element": "O" 
			},
			{
				"x": 2.2818248111,
				"y": -1.3655399986,
				"z": 1.9937637366,
				"element": "H" 
			},
			{
				"x": 3.2014475128,
				"y": -1.4364889955,
				"z": 0.4822582826,
				"element": "H" 
			},
			{
				"x": 2.1425192369,
				"y": -2.7786820967,
				"z": 0.9381207713,
				"element": "H" 
			},
			{
				"x": 1.0839477618,
				"y": -1.370799495,
				"z": -0.8332676239,
				"element": "H" 
			},
			{
				"x": 2.1966358117,
				"y": 0.7937175405,
				"z": -0.250674214,
				"element": "H" 
			},
			{
				"x": 1.2514969392,
				"y": 0.8711887301,
				"z": 1.2311275731,
				"element": "H" 
			},
			{
				"x": -2.0802167123,
				"y": 1.1733433509,
				"z": -0.670086559,
				"element": "H" 
			},
			{
				"x": -1.4161791457,
				"y": 1.2149518504,
				"z": 0.9536419696,
				"element": "H" 
			},
			{
				"x": -2.6048450125,
				"y": -0.5033331711,
				"z": 2.0295532328,
				"element": "H" 
			},
			{
				"x": -2.9453280383,
				"y": -2.0348601795,
				"z": 1.2090727354,
				"element": "H" 
			},
			{
				"x": -3.6419780269,
				"y": -0.5311719859,
				"z": 0.5923223483,
				"element": "H" 
			},
			{
				"x": -0.961717123,
				"y": -1.4059422969,
				"z": -1.8994331954,
				"element": "H" 
			},
			{
				"x": -2.0023358697,
				"y": -2.5464901336,
				"z": -1.0246190586,
				"element": "H" 
			},
			{
				"x": -2.6759866788,
				"y": -1.0507519179,
				"z": -1.6819118841,
				"element": "H" 
			},
			{
				"x": -0.3882732204,
				"y": -2.4856734231,
				"z": 0.8710611312,
				"element": "H" 
			},
			{
				"x": -0.2602633708,
				"y": -1.0628362547,
				"z": 1.8947875326,
				"element": "H" 
			},
			{
				"x": -0.0567854535,
				"y": 3.1501480476,
				"z": 0.5179319557,
				"element": "H" 
			},
			{
				"x": 0.3874223788,
				"y": 2.7065519195,
				"z": -3.5077795722,
				"element": "H" 
			}
		],
		 "valence_orbital": [ 
			{
				"type": "occ",
				"energy": -0.3064,
				"method": "rhf"
			},
			{
				"type": "occ",
				"energy": -0.2887,
				"method": "rhf"
			},
			{
				"type": "occ",
				"energy": -0.28592,
				"method": "rhf"
			},
			{
				"type": "occ",
				"energy": -0.26493,
				"method": "rhf"
			},
			{
				"type": "occ",
				"energy": -0.25896,
				"method": "rhf"
			},
			{
				"type": "unocc",
				"energy": -0.01186,
				"method": "rhf"
			},
			{
				"type": "unocc",
				"energy": 0.05975,
				"method": "rhf"
			},
			{
				"type": "unocc",
				"energy": 0.0633,
				"method": "rhf"
			},
			{
				"type": "unocc",
				"energy": 0.07959,
				"method": "rhf"
			},
			{
				"type": "unocc",
				"energy": 0.08878,
				"method": "rhf"
			}
		],
		"cosmo_sigma_profile": { 
			"-0.025": 0.0,
			"-0.024": 0.0,
			"-0.023": 0.0,
			"-0.022": 0.0,
			"-0.021": 0.0,
			"-0.02": 0.0,
			"-0.019": 0.0,
			"-0.018": 0.0,
			"-0.017": 0.206954824911,
			"-0.016": 1.11401738731,
			"-0.015": 1.55173697466,
			"-0.014": 2.17936698581,
			"-0.013": 1.83365142647,
			"-0.012": 2.10274024369,
			"-0.011": 2.13889138847,
			"-0.01": 2.04390628464,
			"-0.009": 1.7653017283,
			"-0.008": 2.44629066948,
			"-0.007": 2.10577890346,
			"-0.006": 2.41485834651,
			"-0.005": 6.09938059876,
			"-0.004": 9.65142813516,
			"-0.003": 21.194230691,
			"-0.002": 38.467991808,
			"-0.001": 31.0307444997,
			"0.0": 29.4926824914,
			"0.001": 27.009491453,
			"0.002": 18.5880181628,
			"0.003": 5.65293836393,
			"0.004": 4.46900024454,
			"0.005": 3.34100333656,
			"0.006": 2.72026635401,
			"0.007": 3.5674463319,
			"0.008": 2.61691910826,
			"0.009": 2.45305831511,
			"0.01": 2.94703937153,
			"0.011": 4.03408343805,
			"0.012": 6.60662456844,
			"0.013": 7.60554250437,
			"0.014": 1.53139177474,
			"0.015": 0.0,
			"0.016": 0.0,
			"0.017": 0.0,
			"0.018": 0.0,
			"0.019": 0.0,
			"0.02": 0.0,
			"0.021": 0.0,
			"0.022": 0.0,
			"0.023": 0.0,
			"0.024": 0.0,
			"0.025": 0.0
		}
	}
}
