{
	 "smiles": "NC1=C(C=C(Cl)C=C1Cl)[N+]([O-])=O", 
	 "Tm": 374.15, 
	 "num_atms": 16, 
	 "gaussian": { 
		 "optdone": 1, 
		 "sigma_profile": "yes", 
		 "theory": "DFT", 
		 "functional": "B3LYP", 
		 "basiset": "6-31G**", 
		 "properties": { 
			 "R2extent": 3267.189, 
			 "electric_dipole_moment_norm": 3.23065048094, 
			 "electric_quadrupole_moment_norm": 7.24511910047, 
			 "total_energy": -1411.28950765, 
			 "HOMO_LUMO_gap": 0.1349, 
			 "cosmo_polarized_energy": -8.72, 
			 "cosmo_cavitation_energy": 24.38, 
			 "cosmo_dispersion_energy": -18.8, 
			 "cosmo_repulsion_energy": 1.49, 
			 "cosmo_total_nonelectrostatic_energy": 7.08, 
			 "SMD_solvation_energy": 5.57 
		},
		"coords": [
			{
				"x": -0.7638914396,
				"y": -1.0284324383,
				"z": -1.6118545792,
				"element": "N" 
			},
			{
				"x": -0.7707416674,
				"y": -0.0990127648,
				"z": -0.6343271612,
				"element": "C" 
			},
			{
				"x": -0.0456098813,
				"y": 1.1272342304,
				"z": -0.6856491736,
				"element": "C" 
			},
			{
				"x": -0.0823546811,
				"y": 2.0659308353,
				"z": 0.3556564788,
				"element": "C" 
			},
			{
				"x": -0.8410843731,
				"y": 1.8140347466,
				"z": 1.4794721408,
				"element": "C" 
			},
			{
				"x": -0.8986374385,
				"y": 2.9751412343,
				"z": 2.7899352577,
				"element": "Cl" 
			},
			{
				"x": -1.5752496159,
				"y": 0.6234276454,
				"z": 1.5840599669,
				"element": "C" 
			},
			{
				"x": -1.5337089605,
				"y": -0.2951817057,
				"z": 0.5547808664,
				"element": "C" 
			},
			{
				"x": -2.4625107237,
				"y": -1.7789732753,
				"z": 0.7103708249,
				"element": "Cl" 
			},
			{
				"x": 0.7791259997,
				"y": 1.4727004657,
				"z": -1.8328004749,
				"element": "N" 
			},
			{
				"x": 0.8476981923,
				"y": 0.6742856286,
				"z": -2.7847717113,
				"element": "O" 
			},
			{
				"x": 1.3796000711,
				"y": 2.5455424186,
				"z": -1.8172769484,
				"element": "O" 
			},
			{
				"x": -1.3025688897,
				"y": -1.8713530609,
				"z": -1.5001191736,
				"element": "H" 
			},
			{
				"x": -0.2080039354,
				"y": -0.8464575329,
				"z": -2.4349536309,
				"element": "H" 
			},
			{
				"x": 0.4933200945,
				"y": 2.9749367533,
				"z": 0.2479815632,
				"element": "H" 
			},
			{
				"x": -2.1728827516,
				"y": 0.4207768196,
				"z": 2.4646957544,
				"element": "H" 
			}
		],
		 "valence_orbital": [ 
			{
				"type": "occ",
				"energy": -0.31857,
				"method": "rhf"
			},
			{
				"type": "occ",
				"energy": -0.31455,
				"method": "rhf"
			},
			{
				"type": "occ",
				"energy": -0.30032,
				"method": "rhf"
			},
			{
				"type": "occ",
				"energy": -0.28643,
				"method": "rhf"
			},
			{
				"type": "occ",
				"energy": -0.23412,
				"method": "rhf"
			},
			{
				"type": "unocc",
				"energy": -0.09922,
				"method": "rhf"
			},
			{
				"type": "unocc",
				"energy": -0.02749,
				"method": "rhf"
			},
			{
				"type": "unocc",
				"energy": -0.01263,
				"method": "rhf"
			},
			{
				"type": "unocc",
				"energy": -0.01152,
				"method": "rhf"
			},
			{
				"type": "unocc",
				"energy": 0.0346,
				"method": "rhf"
			}
		],
		"cosmo_sigma_profile": { 
			"-0.025": 0.0,
			"-0.024": 0.0,
			"-0.023": 0.0,
			"-0.022": 0.0,
			"-0.021": 0.0,
			"-0.02": 0.0,
			"-0.019": 0.0,
			"-0.018": 0.0,
			"-0.017": 0.0,
			"-0.016": 0.0,
			"-0.015": 0.0371695370178,
			"-0.014": 0.550776380437,
			"-0.013": 0.890487404434,
			"-0.012": 1.20627827772,
			"-0.011": 1.5907348073,
			"-0.01": 1.81900212739,
			"-0.009": 3.43358176982,
			"-0.008": 2.94961276035,
			"-0.007": 4.77861273815,
			"-0.006": 5.74834344098,
			"-0.005": 6.74271538702,
			"-0.004": 8.12949730022,
			"-0.003": 11.6145131583,
			"-0.002": 18.6622109948,
			"-0.001": 23.1180539945,
			"0.0": 22.8925366424,
			"0.001": 16.9328986618,
			"0.002": 12.9371354404,
			"0.003": 15.7056673602,
			"0.004": 14.5263724171,
			"0.005": 4.47443513809,
			"0.006": 3.61428149102,
			"0.007": 4.50527592494,
			"0.008": 5.82638982479,
			"0.009": 4.45496378422,
			"0.01": 3.23814156795,
			"0.011": 0.581330471596,
			"0.012": 0.0,
			"0.013": 0.0,
			"0.014": 0.0,
			"0.015": 0.0,
			"0.016": 0.0,
			"0.017": 0.0,
			"0.018": 0.0,
			"0.019": 0.0,
			"0.02": 0.0,
			"0.021": 0.0,
			"0.022": 0.0,
			"0.023": 0.0,
			"0.024": 0.0,
			"0.025": 0.0
		}
	}
}
