{
	 "smiles": "OC(=O)C1=C(C=CC=C1Cl)[N+]([O-])=O", 
	 "Tm": 436.65, 
	 "num_atms": 17, 
	 "gaussian": { 
		 "optdone": 1, 
		 "sigma_profile": "yes", 
		 "theory": "DFT", 
		 "functional": "B3LYP", 
		 "basiset": "6-31G**", 
		 "properties": { 
			 "R2extent": 2930.1836, 
			 "electric_dipole_moment_norm": 6.53007110681, 
			 "electric_quadrupole_moment_norm": 12.7370489475, 
			 "total_energy": -1084.88320421, 
			 "HOMO_LUMO_gap": 0.16815, 
			 "cosmo_polarized_energy": -17.94, 
			 "cosmo_cavitation_energy": 24.87, 
			 "cosmo_dispersion_energy": -17.86, 
			 "cosmo_repulsion_energy": 1.41, 
			 "cosmo_total_nonelectrostatic_energy": 8.42, 
			 "SMD_solvation_energy": 7.17 
		},
		"coords": [
			{
				"x": -1.6733672182,
				"y": 1.869947117,
				"z": -0.7453193686,
				"element": "O" 
			},
			{
				"x": -0.8502203853,
				"y": 0.8474831632,
				"z": -1.0415589809,
				"element": "C" 
			},
			{
				"x": -1.20435743,
				"y": -0.0869299957,
				"z": -1.7086725313,
				"element": "O" 
			},
			{
				"x": 0.599023612,
				"y": 0.991194633,
				"z": -0.592051243,
				"element": "C" 
			},
			{
				"x": 1.1220148037,
				"y": 0.3532060501,
				"z": 0.5424340221,
				"element": "C" 
			},
			{
				"x": 2.4780555115,
				"y": 0.3534634727,
				"z": 0.8545570746,
				"element": "C" 
			},
			{
				"x": 3.361271599,
				"y": 1.0244640618,
				"z": 0.0133325454,
				"element": "C" 
			},
			{
				"x": 2.8850465906,
				"y": 1.6795391277,
				"z": -1.120603235,
				"element": "C" 
			},
			{
				"x": 1.5204222979,
				"y": 1.6518710704,
				"z": -1.4168984065,
				"element": "C" 
			},
			{
				"x": 0.9646193547,
				"y": 2.4714184218,
				"z": -2.8608870238,
				"element": "Cl" 
			},
			{
				"x": 0.2073487147,
				"y": -0.3128681557,
				"z": 1.4886741968,
				"element": "N" 
			},
			{
				"x": -0.9874109886,
				"y": -0.0291368438,
				"z": 1.4074427044,
				"element": "O" 
			},
			{
				"x": 0.6965750741,
				"y": -1.0835249717,
				"z": 2.3084506696,
				"element": "O" 
			},
			{
				"x": -1.2510521366,
				"y": 2.4704806946,
				"z": -0.1144053283,
				"element": "H" 
			},
			{
				"x": 2.8114146852,
				"y": -0.1638230352,
				"z": 1.7450774747,
				"element": "H" 
			},
			{
				"x": 4.4215420303,
				"y": 1.0420888544,
				"z": 0.2422193911,
				"element": "H" 
			},
			{
				"x": 3.5614738849,
				"y": 2.2065263353,
				"z": -1.7840919614,
				"element": "H" 
			}
		],
		 "valence_orbital": [ 
			{
				"type": "occ",
				"energy": -0.32467,
				"method": "rhf"
			},
			{
				"type": "occ",
				"energy": -0.31892,
				"method": "rhf"
			},
			{
				"type": "occ",
				"energy": -0.30706,
				"method": "rhf"
			},
			{
				"type": "occ",
				"energy": -0.2921,
				"method": "rhf"
			},
			{
				"type": "occ",
				"energy": -0.27893,
				"method": "rhf"
			},
			{
				"type": "unocc",
				"energy": -0.11078,
				"method": "rhf"
			},
			{
				"type": "unocc",
				"energy": -0.05708,
				"method": "rhf"
			},
			{
				"type": "unocc",
				"energy": -0.02858,
				"method": "rhf"
			},
			{
				"type": "unocc",
				"energy": -0.0053,
				"method": "rhf"
			},
			{
				"type": "unocc",
				"energy": 0.00122,
				"method": "rhf"
			}
		],
		"cosmo_sigma_profile": { 
			"-0.025": 0.0,
			"-0.024": 0.0,
			"-0.023": 0.0,
			"-0.022": 0.0,
			"-0.021": 0.0196394020972,
			"-0.02": 0.577926586772,
			"-0.019": 1.01387673969,
			"-0.018": 0.998440810126,
			"-0.017": 0.472521604696,
			"-0.016": 0.829457556304,
			"-0.015": 0.60747370929,
			"-0.014": 1.05197183021,
			"-0.013": 0.787270274973,
			"-0.012": 1.22874302135,
			"-0.011": 0.82578082106,
			"-0.01": 1.01040640874,
			"-0.009": 4.4946930762,
			"-0.008": 9.48913962879,
			"-0.007": 8.52550909091,
			"-0.006": 8.44805488318,
			"-0.005": 7.45525620443,
			"-0.004": 8.0776941654,
			"-0.003": 9.39460814718,
			"-0.002": 14.140003479,
			"-0.001": 16.4214662219,
			"0.0": 14.3954091525,
			"0.001": 8.75826518485,
			"0.002": 11.2194029709,
			"0.003": 12.8845975366,
			"0.004": 5.08218819888,
			"0.005": 7.07156178835,
			"0.006": 10.2980827136,
			"0.007": 9.68406492904,
			"0.008": 8.36628237846,
			"0.009": 7.97052248188,
			"0.01": 5.02284785642,
			"0.011": 4.8315868686,
			"0.012": 0.781234407705,
			"0.013": 0.0,
			"0.014": 0.0,
			"0.015": 0.0,
			"0.016": 0.0,
			"0.017": 0.0,
			"0.018": 0.0,
			"0.019": 0.0,
			"0.02": 0.0,
			"0.021": 0.0,
			"0.022": 0.0,
			"0.023": 0.0,
			"0.024": 0.0,
			"0.025": 0.0
		}
	}
}
