{
	 "smiles": "CC1=NC(=CC=N1)C1=CC=CC(Br)=C1", 
	 "Tm": 340.65, 
	 "num_atms": 23, 
	 "gaussian": { 
		 "optdone": 1, 
		 "sigma_profile": "yes", 
		 "theory": "DFT", 
		 "functional": "B3LYP", 
		 "basiset": "6-31G**", 
		 "properties": { 
			 "R2extent": 5138.5533, 
			 "electric_dipole_moment_norm": 2.64761212605, 
			 "electric_quadrupole_moment_norm": 8.26628303895, 
			 "total_energy": -3105.51311222, 
			 "HOMO_LUMO_gap": 0.17962, 
			 "cosmo_polarized_energy": -8.44, 
			 "cosmo_cavitation_energy": 29.75, 
			 "cosmo_dispersion_energy": -22.33, 
			 "cosmo_repulsion_energy": 1.75, 
			 "cosmo_total_nonelectrostatic_energy": 9.18, 
			 "SMD_solvation_energy": 1.59 
		},
		"coords": [
			{
				"x": 1.6894703193,
				"y": -3.8930043347,
				"z": 1.8485005885,
				"element": "C" 
			},
			{
				"x": 0.4833742038,
				"y": -3.0003835112,
				"z": 1.7315299149,
				"element": "C" 
			},
			{
				"x": 0.5752446251,
				"y": -1.9523284186,
				"z": 0.9038351606,
				"element": "N" 
			},
			{
				"x": -0.4990288185,
				"y": -1.1548840837,
				"z": 0.7633234796,
				"element": "C" 
			},
			{
				"x": -1.680281695,
				"y": -1.4353134046,
				"z": 1.4639542084,
				"element": "C" 
			},
			{
				"x": -1.6675488569,
				"y": -2.5443437335,
				"z": 2.3024600728,
				"element": "C" 
			},
			{
				"x": -0.600240807,
				"y": -3.33467657,
				"z": 2.4537102334,
				"element": "N" 
			},
			{
				"x": -0.3586432857,
				"y": 0.0016659813,
				"z": -0.1621945803,
				"element": "C" 
			},
			{
				"x": -1.3113148563,
				"y": 1.0307923268,
				"z": -0.2228341489,
				"element": "C" 
			},
			{
				"x": -1.1467185861,
				"y": 2.095754722,
				"z": -1.1062926837,
				"element": "C" 
			},
			{
				"x": -0.0338672699,
				"y": 2.158139053,
				"z": -1.9456480329,
				"element": "C" 
			},
			{
				"x": 0.9121786049,
				"y": 1.1356293198,
				"z": -1.8765325329,
				"element": "C" 
			},
			{
				"x": 2.4458209038,
				"y": 1.2075793961,
				"z": -3.0178164844,
				"element": "Br" 
			},
			{
				"x": 0.767170238,
				"y": 0.0678528502,
				"z": -0.9996992735,
				"element": "C" 
			},
			{
				"x": 2.604641727,
				"y": -3.3266623312,
				"z": 1.6664363204,
				"element": "H" 
			},
			{
				"x": 1.7199600961,
				"y": -4.3637133974,
				"z": 2.8328481415,
				"element": "H" 
			},
			{
				"x": 1.6356240003,
				"y": -4.6918884841,
				"z": 1.0988256618,
				"element": "H" 
			},
			{
				"x": -2.5755914669,
				"y": -0.8346793462,
				"z": 1.3616395556,
				"element": "H" 
			},
			{
				"x": -2.5526384528,
				"y": -2.8121449263,
				"z": 2.8778503113,
				"element": "H" 
			},
			{
				"x": -2.1777328685,
				"y": 1.018062706,
				"z": 0.4292647055,
				"element": "H" 
			},
			{
				"x": -1.8877144666,
				"y": 2.8887007446,
				"z": -1.1414205162,
				"element": "H" 
			},
			{
				"x": 0.0991141741,
				"y": 2.9830444782,
				"z": -2.6361129988,
				"element": "H" 
			},
			{
				"x": 1.5075225379,
				"y": -0.7196990365,
				"z": -0.9452271026,
				"element": "H" 
			}
		],
		 "valence_orbital": [ 
			{
				"type": "occ",
				"energy": -0.28771,
				"method": "rhf"
			},
			{
				"type": "occ",
				"energy": -0.28434,
				"method": "rhf"
			},
			{
				"type": "occ",
				"energy": -0.25628,
				"method": "rhf"
			},
			{
				"type": "occ",
				"energy": -0.25025,
				"method": "rhf"
			},
			{
				"type": "occ",
				"energy": -0.24479,
				"method": "rhf"
			},
			{
				"type": "unocc",
				"energy": -0.06517,
				"method": "rhf"
			},
			{
				"type": "unocc",
				"energy": -0.03232,
				"method": "rhf"
			},
			{
				"type": "unocc",
				"energy": -0.01389,
				"method": "rhf"
			},
			{
				"type": "unocc",
				"energy": 0.0062,
				"method": "rhf"
			},
			{
				"type": "unocc",
				"energy": 0.01345,
				"method": "rhf"
			}
		],
		"cosmo_sigma_profile": { 
			"-0.025": 0.0,
			"-0.024": 0.0,
			"-0.023": 0.0,
			"-0.022": 0.0,
			"-0.021": 0.0,
			"-0.02": 0.0,
			"-0.019": 0.0,
			"-0.018": 0.0,
			"-0.017": 0.0,
			"-0.016": 0.0,
			"-0.015": 0.0,
			"-0.014": 0.0,
			"-0.013": 0.0,
			"-0.012": 0.0,
			"-0.011": 0.0,
			"-0.01": 0.257784827619,
			"-0.009": 1.82760179008,
			"-0.008": 3.447762444,
			"-0.007": 9.28863692487,
			"-0.006": 10.5465193785,
			"-0.005": 11.9717052346,
			"-0.004": 14.9414114881,
			"-0.003": 12.7617070811,
			"-0.002": 17.0391570313,
			"-0.001": 24.5049080114,
			"0.0": 25.4646436378,
			"0.001": 24.6482370322,
			"0.002": 23.8178958242,
			"0.003": 21.903488406,
			"0.004": 15.0834866902,
			"0.005": 9.25135207364,
			"0.006": 2.68485079976,
			"0.007": 3.035534994,
			"0.008": 2.79326816261,
			"0.009": 1.7359219593,
			"0.01": 1.23447584118,
			"0.011": 0.963651826204,
			"0.012": 0.827638188543,
			"0.013": 0.781601509725,
			"0.014": 0.922118802941,
			"0.015": 0.607796918266,
			"0.016": 0.327382594853,
			"0.017": 0.0,
			"0.018": 0.0,
			"0.019": 0.0,
			"0.02": 0.0,
			"0.021": 0.0,
			"0.022": 0.0,
			"0.023": 0.0,
			"0.024": 0.0,
			"0.025": 0.0
		}
	}
}
