{
	 "smiles": "BrC1=CC=C(C=C1)C1=CC(C=C(O1)C1=CC=C(Br)C=C1)P(=O)(C1=CC=CC=C1)C1=CC=CC=C1", 
	 "Tm": 467.15, 
	 "num_atms": 55, 
	 "gaussian": { 
		 "optdone": 1, 
		 "sigma_profile": "yes", 
		 "theory": "DFT", 
		 "functional": "B3LYP", 
		 "basiset": "6-31G**", 
		 "properties": { 
			 "R2extent": 30456.0268, 
			 "electric_dipole_moment_norm": 3.35866009147, 
			 "electric_quadrupole_moment_norm": 17.1171796401, 
			 "total_energy": -6752.35077023, 
			 "HOMO_LUMO_gap": 0.15255, 
			 "cosmo_polarized_energy": -18.7, 
			 "cosmo_cavitation_energy": 65.37, 
			 "cosmo_dispersion_energy": -43.24, 
			 "cosmo_repulsion_energy": 3.25, 
			 "cosmo_total_nonelectrostatic_energy": 25.37, 
			 "SMD_solvation_energy": 9.15 
		},
		"coords": [
			{
				"x": 2.253193691,
				"y": 5.7933354261,
				"z": 4.7664009182,
				"element": "Br" 
			},
			{
				"x": 1.5667189132,
				"y": 4.700284418,
				"z": 3.3592196054,
				"element": "C" 
			},
			{
				"x": 0.1870151084,
				"y": 4.5538349517,
				"z": 3.2137396111,
				"element": "C" 
			},
			{
				"x": -0.3091813409,
				"y": 3.7597399609,
				"z": 2.1842069005,
				"element": "C" 
			},
			{
				"x": 0.5564128864,
				"y": 3.0966831148,
				"z": 1.2979571105,
				"element": "C" 
			},
			{
				"x": 1.94077273,
				"y": 3.2722821318,
				"z": 1.4598855751,
				"element": "C" 
			},
			{
				"x": 2.4483485671,
				"y": 4.0671822021,
				"z": 2.4858056514,
				"element": "C" 
			},
			{
				"x": 0.0368717408,
				"y": 2.2309302463,
				"z": 0.2199135845,
				"element": "C" 
			},
			{
				"x": -1.1639698781,
				"y": 1.6274027942,
				"z": 0.202627631,
				"element": "C" 
			},
			{
				"x": -1.6235299819,
				"y": 0.7655411651,
				"z": -0.9364472984,
				"element": "C" 
			},
			{
				"x": -0.6096758436,
				"y": 0.7768874469,
				"z": -2.0440520657,
				"element": "C" 
			},
			{
				"x": 0.5910907077,
				"y": 1.3622835578,
				"z": -1.9241264538,
				"element": "C" 
			},
			{
				"x": 0.9615369029,
				"y": 2.0727743534,
				"z": -0.7926147694,
				"element": "O" 
			},
			{
				"x": 1.6491262512,
				"y": 1.3879219549,
				"z": -2.9515452148,
				"element": "C" 
			},
			{
				"x": 1.7328173764,
				"y": 0.3810606842,
				"z": -3.9278127735,
				"element": "C" 
			},
			{
				"x": 2.7149851743,
				"y": 0.4178166605,
				"z": -4.9132931424,
				"element": "C" 
			},
			{
				"x": 3.6364557152,
				"y": 1.4649657341,
				"z": -4.9198858487,
				"element": "C" 
			},
			{
				"x": 4.9931910863,
				"y": 1.5157709173,
				"z": -6.2637134169,
				"element": "Br" 
			},
			{
				"x": 3.5872108845,
				"y": 2.4679891111,
				"z": -3.9540332392,
				"element": "C" 
			},
			{
				"x": 2.5970418333,
				"y": 2.4240000713,
				"z": -2.9746597974,
				"element": "C" 
			},
			{
				"x": -2.0943583235,
				"y": -1.0178306038,
				"z": -0.5319880641,
				"element": "P" 
			},
			{
				"x": -2.7143918503,
				"y": -1.6683229529,
				"z": -1.7399234684,
				"element": "O" 
			},
			{
				"x": -0.6044535371,
				"y": -1.9053480813,
				"z": 0.0444532492,
				"element": "C" 
			},
			{
				"x": 0.3297475175,
				"y": -1.4002955358,
				"z": 0.9636679672,
				"element": "C" 
			},
			{
				"x": 1.4316331373,
				"y": -2.1706492668,
				"z": 1.3378981196,
				"element": "C" 
			},
			{
				"x": 1.6126196024,
				"y": -3.4459996383,
				"z": 0.7985331758,
				"element": "C" 
			},
			{
				"x": 0.6930480083,
				"y": -3.9498693331,
				"z": -0.1230960531,
				"element": "C" 
			},
			{
				"x": -0.4089175331,
				"y": -3.1829893955,
				"z": -0.5023210936,
				"element": "C" 
			},
			{
				"x": -3.2706254552,
				"y": -0.9063077189,
				"z": 0.8669433725,
				"element": "C" 
			},
			{
				"x": -2.8950281341,
				"y": -0.750805672,
				"z": 2.2100666432,
				"element": "C" 
			},
			{
				"x": -3.8690238222,
				"y": -0.6385774473,
				"z": 3.203191416,
				"element": "C" 
			},
			{
				"x": -5.2234969355,
				"y": -0.6843506271,
				"z": 2.8651596427,
				"element": "C" 
			},
			{
				"x": -5.6044243769,
				"y": -0.8511374372,
				"z": 1.5322566566,
				"element": "C" 
			},
			{
				"x": -4.633701306,
				"y": -0.963626238,
				"z": 0.5364421182,
				"element": "C" 
			},
			{
				"x": -0.4899734684,
				"y": 5.0652893783,
				"z": 3.8883261257,
				"element": "H" 
			},
			{
				"x": -1.3836825831,
				"y": 3.6771030718,
				"z": 2.0577972288,
				"element": "H" 
			},
			{
				"x": 2.6233689531,
				"y": 2.7741163704,
				"z": 0.7813460778,
				"element": "H" 
			},
			{
				"x": 3.518546134,
				"y": 4.1914617513,
				"z": 2.6058631323,
				"element": "H" 
			},
			{
				"x": -1.8328875656,
				"y": 1.773061665,
				"z": 1.0424128148,
				"element": "H" 
			},
			{
				"x": -2.5949653873,
				"y": 1.1260352239,
				"z": -1.3145721591,
				"element": "H" 
			},
			{
				"x": -0.8687510256,
				"y": 0.2817166807,
				"z": -2.9716253325,
				"element": "H" 
			},
			{
				"x": 1.0394409125,
				"y": -0.4532523499,
				"z": -3.9051198937,
				"element": "H" 
			},
			{
				"x": 2.7736757365,
				"y": -0.3657658289,
				"z": -5.6599372147,
				"element": "H" 
			},
			{
				"x": 4.3107736667,
				"y": 3.2750960159,
				"z": -3.9683774466,
				"element": "H" 
			},
			{
				"x": 2.5502471024,
				"y": 3.2060124995,
				"z": -2.225573829,
				"element": "H" 
			},
			{
				"x": 0.2124694725,
				"y": -0.4045132297,
				"z": 1.3773621692,
				"element": "H" 
			},
			{
				"x": 2.1510959232,
				"y": -1.7719736048,
				"z": 2.0473362308,
				"element": "H" 
			},
			{
				"x": 2.471576159,
				"y": -4.0425844558,
				"z": 1.0924984685,
				"element": "H" 
			},
			{
				"x": 0.8350973874,
				"y": -4.9386490681,
				"z": -0.5497540351,
				"element": "H" 
			},
			{
				"x": -1.1249924337,
				"y": -3.554884525,
				"z": -1.2285002234,
				"element": "H" 
			},
			{
				"x": -1.8464230102,
				"y": -0.7402807939,
				"z": 2.4892607247,
				"element": "H" 
			},
			{
				"x": -3.5700844816,
				"y": -0.5246392656,
				"z": 4.2412922028,
				"element": "H" 
			},
			{
				"x": -5.9794358221,
				"y": -0.5998394053,
				"z": 3.6407416875,
				"element": "H" 
			},
			{
				"x": -6.6569887626,
				"y": -0.9009041386,
				"z": 1.268557158,
				"element": "H" 
			},
			{
				"x": -4.9167664229,
				"y": -1.1174829457,
				"z": -0.5003901359,
				"element": "H" 
			}
		],
		 "valence_orbital": [ 
			{
				"type": "occ",
				"energy": -0.25914,
				"method": "rhf"
			},
			{
				"type": "occ",
				"energy": -0.25781,
				"method": "rhf"
			},
			{
				"type": "occ",
				"energy": -0.25448,
				"method": "rhf"
			},
			{
				"type": "occ",
				"energy": -0.23374,
				"method": "rhf"
			},
			{
				"type": "occ",
				"energy": -0.20759,
				"method": "rhf"
			},
			{
				"type": "unocc",
				"energy": -0.05504,
				"method": "rhf"
			},
			{
				"type": "unocc",
				"energy": -0.04129,
				"method": "rhf"
			},
			{
				"type": "unocc",
				"energy": -0.03111,
				"method": "rhf"
			},
			{
				"type": "unocc",
				"energy": -0.0233,
				"method": "rhf"
			},
			{
				"type": "unocc",
				"energy": -0.01977,
				"method": "rhf"
			}
		],
		"cosmo_sigma_profile": { 
			"-0.025": 0.0,
			"-0.024": 0.0,
			"-0.023": 0.0,
			"-0.022": 0.0,
			"-0.021": 0.0,
			"-0.02": 0.0,
			"-0.019": 0.0,
			"-0.018": 0.0,
			"-0.017": 0.0,
			"-0.016": 0.0,
			"-0.015": 0.0,
			"-0.014": 0.0,
			"-0.013": 0.00330678612954,
			"-0.012": 0.03055652162,
			"-0.011": 0.11463622225,
			"-0.01": 0.0264205108811,
			"-0.009": 0.17768292512,
			"-0.008": 3.03742160571,
			"-0.007": 14.9273946629,
			"-0.006": 32.1034228959,
			"-0.005": 39.0867891363,
			"-0.004": 41.6294750782,
			"-0.003": 34.2305456584,
			"-0.002": 31.3411519804,
			"-0.001": 32.3324225992,
			"0.0": 39.4902916406,
			"0.001": 51.1310100214,
			"0.002": 58.3029414749,
			"0.003": 66.330008453,
			"0.004": 49.828972993,
			"0.005": 17.6887056228,
			"0.006": 2.03544525708,
			"0.007": 1.31690109374,
			"0.008": 1.61874642726,
			"0.009": 1.25548582721,
			"0.01": 0.580487484601,
			"0.011": 1.14376410965,
			"0.012": 1.43614698972,
			"0.013": 1.43656430226,
			"0.014": 1.42529823615,
			"0.015": 2.48747991315,
			"0.016": 4.24532296149,
			"0.017": 0.33796409684,
			"0.018": 0.0,
			"0.019": 0.0,
			"0.02": 0.0,
			"0.021": 0.0,
			"0.022": 0.0,
			"0.023": 0.0,
			"0.024": 0.0,
			"0.025": 0.0
		}
	}
}
