{
	 "smiles": "CC1=NN(CC2=CC=C(C)C=C2)C(C)=C1C=O", 
	 "Tm": 339.15, 
	 "num_atms": 33, 
	 "gaussian": { 
		 "optdone": 1, 
		 "sigma_profile": "yes", 
		 "theory": "DFT", 
		 "functional": "B3LYP", 
		 "basiset": "6-31G**", 
		 "properties": { 
			 "R2extent": 5363.7146, 
			 "electric_dipole_moment_norm": 5.29097650817, 
			 "electric_quadrupole_moment_norm": 19.7188719482, 
			 "total_energy": -727.860700279, 
			 "HOMO_LUMO_gap": 0.20631, 
			 "cosmo_polarized_energy": -13.25, 
			 "cosmo_cavitation_energy": 36.66, 
			 "cosmo_dispersion_energy": -25.26, 
			 "cosmo_repulsion_energy": 1.97, 
			 "cosmo_total_nonelectrostatic_energy": 13.37, 
			 "SMD_solvation_energy": 6.35 
		},
		"coords": [
			{
				"x": -3.6912423243,
				"y": 1.3652612504,
				"z": 0.5752588128,
				"element": "C" 
			},
			{
				"x": -2.4009490651,
				"y": 1.2769176688,
				"z": -0.1745523521,
				"element": "C" 
			},
			{
				"x": -1.873515052,
				"y": 0.1042177956,
				"z": -0.4965214031,
				"element": "N" 
			},
			{
				"x": -0.7200835803,
				"y": 0.3964617726,
				"z": -1.1753699994,
				"element": "N" 
			},
			{
				"x": 0.1366208557,
				"y": -0.7038763184,
				"z": -1.607197517,
				"element": "C" 
			},
			{
				"x": 1.2798767487,
				"y": -0.9995633438,
				"z": -0.6526053255,
				"element": "C" 
			},
			{
				"x": 1.0347062522,
				"y": -1.2030544621,
				"z": 0.7131059104,
				"element": "C" 
			},
			{
				"x": 2.0815006439,
				"y": -1.5009331318,
				"z": 1.5798968453,
				"element": "C" 
			},
			{
				"x": 3.4031395082,
				"y": -1.6090813116,
				"z": 1.1172192149,
				"element": "C" 
			},
			{
				"x": 4.531325413,
				"y": -1.9196241787,
				"z": 2.0724486726,
				"element": "C" 
			},
			{
				"x": 3.6386942122,
				"y": -1.4082117302,
				"z": -0.2462804083,
				"element": "C" 
			},
			{
				"x": 2.5917964061,
				"y": -1.1036536085,
				"z": -1.1203406994,
				"element": "C" 
			},
			{
				"x": -0.4966136362,
				"y": 1.7273687922,
				"z": -1.2812477346,
				"element": "C" 
			},
			{
				"x": 0.7046494858,
				"y": 2.2924692794,
				"z": -1.9702076671,
				"element": "C" 
			},
			{
				"x": -1.5778933311,
				"y": 2.3488131537,
				"z": -0.6447533099,
				"element": "C" 
			},
			{
				"x": -1.8142009195,
				"y": 3.7739020132,
				"z": -0.4985229361,
				"element": "C" 
			},
			{
				"x": -2.780092729,
				"y": 4.2682434123,
				"z": 0.0659964648,
				"element": "O" 
			},
			{
				"x": -3.5611853537,
				"y": 1.9133941337,
				"z": 1.5131765214,
				"element": "H" 
			},
			{
				"x": -4.4408278178,
				"y": 1.9162556684,
				"z": -0.0006805513,
				"element": "H" 
			},
			{
				"x": -4.0647225509,
				"y": 0.3613905264,
				"z": 0.7894198182,
				"element": "H" 
			},
			{
				"x": -0.5297363954,
				"y": -1.5656007741,
				"z": -1.7000237499,
				"element": "H" 
			},
			{
				"x": 0.5259302617,
				"y": -0.4756788594,
				"z": -2.6041131402,
				"element": "H" 
			},
			{
				"x": 0.0183150419,
				"y": -1.1238239305,
				"z": 1.0885730564,
				"element": "H" 
			},
			{
				"x": 1.8717516162,
				"y": -1.6563524498,
				"z": 2.6355989707,
				"element": "H" 
			},
			{
				"x": 5.4630857507,
				"y": -2.125309487,
				"z": 1.5384364777,
				"element": "H" 
			},
			{
				"x": 4.2995109091,
				"y": -2.7913906544,
				"z": 2.693916521,
				"element": "H" 
			},
			{
				"x": 4.7175889275,
				"y": -1.0805827284,
				"z": 2.753659183,
				"element": "H" 
			},
			{
				"x": 4.6521387775,
				"y": -1.4862153136,
				"z": -0.6319220976,
				"element": "H" 
			},
			{
				"x": 2.8022668702,
				"y": -0.952983996,
				"z": -2.1769879888,
				"element": "H" 
			},
			{
				"x": 0.7202557678,
				"y": 2.0248795529,
				"z": -3.0335659409,
				"element": "H" 
			},
			{
				"x": 1.6316513145,
				"y": 1.9200463434,
				"z": -1.5214557941,
				"element": "H" 
			},
			{
				"x": 0.7084481744,
				"y": 3.3815315331,
				"z": -1.9030691266,
				"element": "H" 
			},
			{
				"x": -1.0352901819,
				"y": 4.4320833823,
				"z": -0.9457887272,
				"element": "H" 
			}
		],
		 "valence_orbital": [ 
			{
				"type": "occ",
				"energy": -0.25738,
				"method": "rhf"
			},
			{
				"type": "occ",
				"energy": -0.25078,
				"method": "rhf"
			},
			{
				"type": "occ",
				"energy": -0.24599,
				"method": "rhf"
			},
			{
				"type": "occ",
				"energy": -0.24031,
				"method": "rhf"
			},
			{
				"type": "occ",
				"energy": -0.23774,
				"method": "rhf"
			},
			{
				"type": "unocc",
				"energy": -0.03143,
				"method": "rhf"
			},
			{
				"type": "unocc",
				"energy": -0.01211,
				"method": "rhf"
			},
			{
				"type": "unocc",
				"energy": -0.00986,
				"method": "rhf"
			},
			{
				"type": "unocc",
				"energy": 0.02023,
				"method": "rhf"
			},
			{
				"type": "unocc",
				"energy": 0.07665,
				"method": "rhf"
			}
		],
		"cosmo_sigma_profile": { 
			"-0.025": 0.0,
			"-0.024": 0.0,
			"-0.023": 0.0,
			"-0.022": 0.0,
			"-0.021": 0.0,
			"-0.02": 0.0,
			"-0.019": 0.0,
			"-0.018": 0.0,
			"-0.017": 0.0,
			"-0.016": 0.0,
			"-0.015": 0.0,
			"-0.014": 0.0,
			"-0.013": 0.0,
			"-0.012": 0.0,
			"-0.011": 0.0,
			"-0.01": 0.0,
			"-0.009": 0.0,
			"-0.008": 0.263185225847,
			"-0.007": 7.60802100871,
			"-0.006": 12.9174073799,
			"-0.005": 17.5496145587,
			"-0.004": 28.6106312978,
			"-0.003": 30.2975153922,
			"-0.002": 30.6149543632,
			"-0.001": 26.880786127,
			"0.0": 26.79851373,
			"0.001": 21.1695658534,
			"0.002": 18.6528155625,
			"0.003": 13.1558495914,
			"0.004": 11.5826431658,
			"0.005": 10.0888022801,
			"0.006": 9.76164095383,
			"0.007": 2.86756383981,
			"0.008": 2.80601476762,
			"0.009": 2.98022217111,
			"0.01": 2.1447439636,
			"0.011": 3.62134933689,
			"0.012": 4.33268564776,
			"0.013": 3.48811992655,
			"0.014": 2.01103751664,
			"0.015": 0.324091314912,
			"0.016": 0.0325439379913,
			"0.017": 0.0,
			"0.018": 0.0,
			"0.019": 0.0,
			"0.02": 0.0,
			"0.021": 0.0,
			"0.022": 0.0,
			"0.023": 0.0,
			"0.024": 0.0,
			"0.025": 0.0
		}
	}
}
