{
	 "smiles": "CCN(CC)CCOC(=O)C1=CC=C(N)C=C1", 
	 "Tm": 334.15, 
	 "num_atms": 37, 
	 "gaussian": { 
		 "optdone": 1, 
		 "sigma_profile": "yes", 
		 "theory": "DFT", 
		 "functional": "B3LYP", 
		 "basiset": "6-31G**", 
		 "properties": { 
			 "R2extent": 6931.358, 
			 "electric_dipole_moment_norm": 3.73429687759, 
			 "electric_quadrupole_moment_norm": 23.2543801171, 
			 "total_energy": -767.403727691, 
			 "HOMO_LUMO_gap": 0.17795, 
			 "cosmo_polarized_energy": -14.53, 
			 "cosmo_cavitation_energy": 39.4, 
			 "cosmo_dispersion_energy": -27.02, 
			 "cosmo_repulsion_energy": 2.12, 
			 "cosmo_total_nonelectrostatic_energy": 14.5, 
			 "SMD_solvation_energy": 6.05 
		},
		"coords": [
			{
				"x": -1.3230056856,
				"y": -0.3790555011,
				"z": 2.1887873979,
				"element": "C" 
			},
			{
				"x": -0.0424903443,
				"y": 0.2157262451,
				"z": 2.7799972221,
				"element": "C" 
			},
			{
				"x": 1.1447196574,
				"y": -0.6364086842,
				"z": 2.5712313245,
				"element": "N" 
			},
			{
				"x": 1.7099581408,
				"y": -1.1544366986,
				"z": 3.8202592795,
				"element": "C" 
			},
			{
				"x": 0.7930425895,
				"y": -2.1629208637,
				"z": 4.5147320009,
				"element": "C" 
			},
			{
				"x": 2.1495013386,
				"y": -0.0560139866,
				"z": 1.6845763162,
				"element": "C" 
			},
			{
				"x": 1.7993736644,
				"y": -0.1142027253,
				"z": 0.2030645209,
				"element": "C" 
			},
			{
				"x": 0.8022208192,
				"y": 0.8824505396,
				"z": -0.1037968327,
				"element": "O" 
			},
			{
				"x": 0.4801894016,
				"y": 0.9983749339,
				"z": -1.4196369551,
				"element": "C" 
			},
			{
				"x": 0.9856636649,
				"y": 0.3024638868,
				"z": -2.2820555731,
				"element": "O" 
			},
			{
				"x": -0.5325869867,
				"y": 2.0483127227,
				"z": -1.6722672405,
				"element": "C" 
			},
			{
				"x": -1.0719038764,
				"y": 2.857014954,
				"z": -0.6597510484,
				"element": "C" 
			},
			{
				"x": -2.0200650382,
				"y": 3.826343221,
				"z": -0.9552556634,
				"element": "C" 
			},
			{
				"x": -2.4601594582,
				"y": 4.0186837432,
				"z": -2.2797826649,
				"element": "C" 
			},
			{
				"x": -3.3701777731,
				"y": 5.0188693299,
				"z": -2.5846106136,
				"element": "N" 
			},
			{
				"x": -1.9161650793,
				"y": 3.207628203,
				"z": -3.2960792074,
				"element": "C" 
			},
			{
				"x": -0.9691298947,
				"y": 2.2423815731,
				"z": -2.992349054,
				"element": "C" 
			},
			{
				"x": -1.2271903367,
				"y": -0.4983083388,
				"z": 1.106486579,
				"element": "H" 
			},
			{
				"x": -1.5362782694,
				"y": -1.3612518222,
				"z": 2.6210657449,
				"element": "H" 
			},
			{
				"x": -2.1803252356,
				"y": 0.2761344975,
				"z": 2.3846622505,
				"element": "H" 
			},
			{
				"x": -0.1829251599,
				"y": 0.3873778831,
				"z": 3.8566110973,
				"element": "H" 
			},
			{
				"x": 0.1346058279,
				"y": 1.2032810984,
				"z": 2.3373902973,
				"element": "H" 
			},
			{
				"x": 2.6530889982,
				"y": -1.6565892918,
				"z": 3.5766913196,
				"element": "H" 
			},
			{
				"x": 1.9632423223,
				"y": -0.3416072657,
				"z": 4.5301080311,
				"element": "H" 
			},
			{
				"x": -0.1544725246,
				"y": -1.7106825038,
				"z": 4.8240359543,
				"element": "H" 
			},
			{
				"x": 1.2775372617,
				"y": -2.5574786046,
				"z": 5.4143253859,
				"element": "H" 
			},
			{
				"x": 0.5666934259,
				"y": -2.9975299105,
				"z": 3.8443318238,
				"element": "H" 
			},
			{
				"x": 3.0688862942,
				"y": -0.6426516493,
				"z": 1.7932529056,
				"element": "H" 
			},
			{
				"x": 2.4093138848,
				"y": 0.9873292806,
				"z": 1.9474196383,
				"element": "H" 
			},
			{
				"x": 1.4173873247,
				"y": -1.1040553253,
				"z": -0.0628533805,
				"element": "H" 
			},
			{
				"x": 2.6874730166,
				"y": 0.0851384451,
				"z": -0.405610563,
				"element": "H" 
			},
			{
				"x": -0.7428795255,
				"y": 2.7216058263,
				"z": 0.3642177998,
				"element": "H" 
			},
			{
				"x": -2.4268824205,
				"y": 4.4485198428,
				"z": -0.1619269804,
				"element": "H" 
			},
			{
				"x": -3.8726401431,
				"y": 4.9204859282,
				"z": -3.4547510897,
				"element": "H" 
			},
			{
				"x": -3.9481354277,
				"y": 5.3494195099,
				"z": -1.8257070379,
				"element": "H" 
			},
			{
				"x": -2.2427368864,
				"y": 3.3471680523,
				"z": -4.3235977637,
				"element": "H" 
			},
			{
				"x": -0.548647567,
				"y": 1.6150834549,
				"z": -3.7713152209,
				"element": "H" 
			}
		],
		 "valence_orbital": [ 
			{
				"type": "occ",
				"energy": -0.28773,
				"method": "rhf"
			},
			{
				"type": "occ",
				"energy": -0.25947,
				"method": "rhf"
			},
			{
				"type": "occ",
				"energy": -0.25297,
				"method": "rhf"
			},
			{
				"type": "occ",
				"energy": -0.2104,
				"method": "rhf"
			},
			{
				"type": "occ",
				"energy": -0.20378,
				"method": "rhf"
			},
			{
				"type": "unocc",
				"energy": -0.02583,
				"method": "rhf"
			},
			{
				"type": "unocc",
				"energy": -0.00097,
				"method": "rhf"
			},
			{
				"type": "unocc",
				"energy": 0.06686,
				"method": "rhf"
			},
			{
				"type": "unocc",
				"energy": 0.08021,
				"method": "rhf"
			},
			{
				"type": "unocc",
				"energy": 0.08451,
				"method": "rhf"
			}
		],
		"cosmo_sigma_profile": { 
			"-0.025": 0.0,
			"-0.024": 0.0,
			"-0.023": 0.0,
			"-0.022": 0.0,
			"-0.021": 0.0,
			"-0.02": 0.0,
			"-0.019": 0.0,
			"-0.018": 0.0,
			"-0.017": 0.0,
			"-0.016": 0.0,
			"-0.015": 0.0,
			"-0.014": 0.0620664995886,
			"-0.013": 2.10426157023,
			"-0.012": 3.25526045896,
			"-0.011": 2.56908882704,
			"-0.01": 3.14268251542,
			"-0.009": 3.27145210045,
			"-0.008": 3.2966339273,
			"-0.007": 2.86702122066,
			"-0.006": 5.18959850563,
			"-0.005": 12.6183358494,
			"-0.004": 15.4139709388,
			"-0.003": 23.8603817468,
			"-0.002": 31.8423108601,
			"-0.001": 39.993886197,
			"0.0": 35.8436928363,
			"0.001": 26.7667643595,
			"0.002": 22.0451507485,
			"0.003": 14.639648054,
			"0.004": 14.9904788474,
			"0.005": 15.5315696042,
			"0.006": 5.03745764069,
			"0.007": 2.2583374343,
			"0.008": 3.08759793467,
			"0.009": 3.74985936908,
			"0.01": 2.79799083725,
			"0.011": 3.13642473372,
			"0.012": 4.88646475746,
			"0.013": 3.86322637417,
			"0.014": 0.0981590843248,
			"0.015": 0.0,
			"0.016": 0.0,
			"0.017": 0.0,
			"0.018": 0.0,
			"0.019": 0.0,
			"0.02": 0.0,
			"0.021": 0.0,
			"0.022": 0.0,
			"0.023": 0.0,
			"0.024": 0.0,
			"0.025": 0.0
		}
	}
}
