{
	 "smiles": "C1C(ON=C1C1=CC=CC=C1)C1=CC=CC=C1", 
	 "Tm": 348.15, 
	 "num_atms": 30, 
	 "gaussian": { 
		 "optdone": 1, 
		 "sigma_profile": "yes", 
		 "theory": "DFT", 
		 "functional": "B3LYP", 
		 "basiset": "6-31G**", 
		 "properties": { 
			 "R2extent": 5783.0243, 
			 "electric_dipole_moment_norm": 3.15461691177, 
			 "electric_quadrupole_moment_norm": 8.96551546148, 
			 "total_energy": -709.35494643, 
			 "HOMO_LUMO_gap": 0.17771, 
			 "cosmo_polarized_energy": -11.34, 
			 "cosmo_cavitation_energy": 33.93, 
			 "cosmo_dispersion_energy": -24.65, 
			 "cosmo_repulsion_energy": 1.89, 
			 "cosmo_total_nonelectrostatic_energy": 11.17, 
			 "SMD_solvation_energy": 4.95 
		},
		"coords": [
			{
				"x": 0.5828791978,
				"y": 0.366302934,
				"z": -0.4410031536,
				"element": "C" 
			},
			{
				"x": -0.8727221528,
				"y": -0.1314630672,
				"z": -0.323576525,
				"element": "C" 
			},
			{
				"x": -1.2870180034,
				"y": 0.2967702245,
				"z": 1.009975719,
				"element": "O" 
			},
			{
				"x": -0.364075015,
				"y": 1.198753907,
				"z": 1.5289857196,
				"element": "N" 
			},
			{
				"x": 0.6654096014,
				"y": 1.283223911,
				"z": 0.760034205,
				"element": "C" 
			},
			{
				"x": 1.8028515182,
				"y": 2.1520089408,
				"z": 1.0907537378,
				"element": "C" 
			},
			{
				"x": 2.9422075895,
				"y": 2.1754216398,
				"z": 0.2708358268,
				"element": "C" 
			},
			{
				"x": 4.0264758463,
				"y": 2.9961308816,
				"z": 0.5843958161,
				"element": "C" 
			},
			{
				"x": 3.9870038558,
				"y": 3.8061928792,
				"z": 1.7186978474,
				"element": "C" 
			},
			{
				"x": 2.8548361283,
				"y": 3.7907851356,
				"z": 2.5411295978,
				"element": "C" 
			},
			{
				"x": 1.7728501209,
				"y": 2.9739076871,
				"z": 2.2336272778,
				"element": "C" 
			},
			{
				"x": -1.0672107706,
				"y": -1.6217670055,
				"z": -0.4750830458,
				"element": "C" 
			},
			{
				"x": -0.8071265216,
				"y": -2.4915676731,
				"z": 0.5915345763,
				"element": "C" 
			},
			{
				"x": -0.9437522951,
				"y": -3.8693715898,
				"z": 0.4245795422,
				"element": "C" 
			},
			{
				"x": -1.338531851,
				"y": -4.3939421159,
				"z": -0.8086237906,
				"element": "C" 
			},
			{
				"x": -1.6050399592,
				"y": -3.5318543508,
				"z": -1.873254556,
				"element": "C" 
			},
			{
				"x": -1.4749800502,
				"y": -2.1523589355,
				"z": -1.7039296999,
				"element": "C" 
			},
			{
				"x": 0.7702349771,
				"y": 0.8848510975,
				"z": -1.3854118862,
				"element": "H" 
			},
			{
				"x": 1.3113585601,
				"y": -0.449641527,
				"z": -0.359929535,
				"element": "H" 
			},
			{
				"x": -1.5108073999,
				"y": 0.3992296688,
				"z": -1.0421324164,
				"element": "H" 
			},
			{
				"x": 2.9863267082,
				"y": 1.5492441938,
				"z": -0.6151147642,
				"element": "H" 
			},
			{
				"x": 4.9008748303,
				"y": 3.0011623984,
				"z": -0.0599551885,
				"element": "H" 
			},
			{
				"x": 4.8298771693,
				"y": 4.4464266586,
				"z": 1.9622197556,
				"element": "H" 
			},
			{
				"x": 2.8178122549,
				"y": 4.4201952204,
				"z": 3.4256945496,
				"element": "H" 
			},
			{
				"x": 0.892465877,
				"y": 2.9580763459,
				"z": 2.8669583073,
				"element": "H" 
			},
			{
				"x": -0.520553318,
				"y": -2.0794680497,
				"z": 1.5537827202,
				"element": "H" 
			},
			{
				"x": -0.7466664113,
				"y": -4.5348539379,
				"z": 1.2603468294,
				"element": "H" 
			},
			{
				"x": -1.4457018851,
				"y": -5.4673345295,
				"z": -0.9359161255,
				"element": "H" 
			},
			{
				"x": -1.9224156439,
				"y": -3.9307564403,
				"z": -2.8325330107,
				"element": "H" 
			},
			{
				"x": -1.6954629579,
				"y": -1.482904502,
				"z": -2.5322883307,
				"element": "H" 
			}
		],
		 "valence_orbital": [ 
			{
				"type": "occ",
				"energy": -0.27887,
				"method": "rhf"
			},
			{
				"type": "occ",
				"energy": -0.25552,
				"method": "rhf"
			},
			{
				"type": "occ",
				"energy": -0.2526,
				"method": "rhf"
			},
			{
				"type": "occ",
				"energy": -0.24688,
				"method": "rhf"
			},
			{
				"type": "occ",
				"energy": -0.21901,
				"method": "rhf"
			},
			{
				"type": "unocc",
				"energy": -0.0413,
				"method": "rhf"
			},
			{
				"type": "unocc",
				"energy": -0.00796,
				"method": "rhf"
			},
			{
				"type": "unocc",
				"energy": -0.00475,
				"method": "rhf"
			},
			{
				"type": "unocc",
				"energy": -0.00413,
				"method": "rhf"
			},
			{
				"type": "unocc",
				"energy": 0.04481,
				"method": "rhf"
			}
		],
		"cosmo_sigma_profile": { 
			"-0.025": 0.0,
			"-0.024": 0.0,
			"-0.023": 0.0,
			"-0.022": 0.0,
			"-0.021": 0.0,
			"-0.02": 0.0,
			"-0.019": 0.0,
			"-0.018": 0.0,
			"-0.017": 0.0,
			"-0.016": 0.0,
			"-0.015": 0.0,
			"-0.014": 0.0,
			"-0.013": 0.0,
			"-0.012": 0.0,
			"-0.011": 0.0,
			"-0.01": 0.0,
			"-0.009": 0.0,
			"-0.008": 0.0,
			"-0.007": 3.03296144263,
			"-0.006": 23.3336434789,
			"-0.005": 27.2911718202,
			"-0.004": 26.5939469287,
			"-0.003": 24.3908346571,
			"-0.002": 17.4094008711,
			"-0.001": 14.5552569153,
			"0.0": 14.4114693678,
			"0.001": 15.7200025562,
			"0.002": 16.6215108349,
			"0.003": 19.3044416077,
			"0.004": 21.2599246788,
			"0.005": 21.2238015418,
			"0.006": 8.10445055067,
			"0.007": 2.50134236263,
			"0.008": 2.46979931353,
			"0.009": 1.84891336759,
			"0.01": 4.16199208056,
			"0.011": 4.28423911835,
			"0.012": 2.17949971347,
			"0.013": 0.747975245792,
			"0.014": 0.0518795072317,
			"0.015": 0.0,
			"0.016": 0.0,
			"0.017": 0.0,
			"0.018": 0.0,
			"0.019": 0.0,
			"0.02": 0.0,
			"0.021": 0.0,
			"0.022": 0.0,
			"0.023": 0.0,
			"0.024": 0.0,
			"0.025": 0.0
		}
	}
}
