{
	 "smiles": "CC(C)(C)N(NC(=O)C1=CC=CC=C1)C(=O)C1=CC=C(Cl)C(Cl)=C1", 
	 "Tm": 511.15, 
	 "num_atms": 42, 
	 "gaussian": { 
		 "optdone": 1, 
		 "sigma_profile": "yes", 
		 "theory": "DFT", 
		 "functional": "B3LYP", 
		 "basiset": "6-31G**", 
		 "properties": { 
			 "R2extent": 10823.8367, 
			 "electric_dipole_moment_norm": 3.09034334824, 
			 "electric_quadrupole_moment_norm": 22.4168963936, 
			 "total_energy": -1877.09195044, 
			 "HOMO_LUMO_gap": 0.19465, 
			 "cosmo_polarized_energy": -16.39, 
			 "cosmo_cavitation_energy": 47.57, 
			 "cosmo_dispersion_energy": -31.38, 
			 "cosmo_repulsion_energy": 2.38, 
			 "cosmo_total_nonelectrostatic_energy": 18.57, 
			 "SMD_solvation_energy": 9.02 
		},
		"coords": [
			{
				"x": -0.9559313599,
				"y": 2.7815212132,
				"z": -1.8631214072,
				"element": "C" 
			},
			{
				"x": -1.519977065,
				"y": 2.2952258526,
				"z": -0.5145592164,
				"element": "C" 
			},
			{
				"x": -1.8085779409,
				"y": 3.4799540393,
				"z": 0.4280177357,
				"element": "C" 
			},
			{
				"x": -2.8321018723,
				"y": 1.5385718086,
				"z": -0.7729790825,
				"element": "C" 
			},
			{
				"x": -0.5169187469,
				"y": 1.3596712569,
				"z": 0.1571169295,
				"element": "N" 
			},
			{
				"x": -0.9045424878,
				"y": 0.0760729288,
				"z": 0.52882812,
				"element": "N" 
			},
			{
				"x": -1.08752913,
				"y": -1.0130122423,
				"z": -0.3306407184,
				"element": "C" 
			},
			{
				"x": -1.8507224684,
				"y": -1.8965268732,
				"z": 0.0349786839,
				"element": "O" 
			},
			{
				"x": -0.3539535672,
				"y": -1.092374202,
				"z": -1.6316894369,
				"element": "C" 
			},
			{
				"x": 0.9434885384,
				"y": -0.604180516,
				"z": -1.8403375213,
				"element": "C" 
			},
			{
				"x": 1.5682367715,
				"y": -0.7838826045,
				"z": -3.0746568414,
				"element": "C" 
			},
			{
				"x": 0.9021274414,
				"y": -1.4394152427,
				"z": -4.1116333267,
				"element": "C" 
			},
			{
				"x": -0.3863511631,
				"y": -1.9392136903,
				"z": -3.9057895026,
				"element": "C" 
			},
			{
				"x": -1.0050059373,
				"y": -1.7792597906,
				"z": -2.6688045157,
				"element": "C" 
			},
			{
				"x": 0.7166548087,
				"y": 1.8334217234,
				"z": 0.5770141815,
				"element": "C" 
			},
			{
				"x": 1.1227199733,
				"y": 2.9415348123,
				"z": 0.2401586766,
				"element": "O" 
			},
			{
				"x": 1.6145008061,
				"y": 0.9728904938,
				"z": 1.4397352335,
				"element": "C" 
			},
			{
				"x": 1.2095828404,
				"y": 0.212217738,
				"z": 2.5445302512,
				"element": "C" 
			},
			{
				"x": 2.1516005183,
				"y": -0.4395724162,
				"z": 3.3344164871,
				"element": "C" 
			},
			{
				"x": 3.5122251272,
				"y": -0.3598380712,
				"z": 3.0296340396,
				"element": "C" 
			},
			{
				"x": 4.6529111057,
				"y": -1.2145706294,
				"z": 4.0333797324,
				"element": "Cl" 
			},
			{
				"x": 3.9287476202,
				"y": 0.4091680414,
				"z": 1.9339216836,
				"element": "C" 
			},
			{
				"x": 5.6170202854,
				"y": 0.5599111185,
				"z": 1.5145558365,
				"element": "Cl" 
			},
			{
				"x": 2.9833412118,
				"y": 1.0827606003,
				"z": 1.1637467393,
				"element": "C" 
			},
			{
				"x": -1.6978790853,
				"y": 3.4193253345,
				"z": -2.3552584588,
				"element": "H" 
			},
			{
				"x": -0.0402964676,
				"y": 3.3538511419,
				"z": -1.7220928933,
				"element": "H" 
			},
			{
				"x": -0.7460549769,
				"y": 1.9328556967,
				"z": -2.5200866503,
				"element": "H" 
			},
			{
				"x": -2.2273076009,
				"y": 3.1277973237,
				"z": 1.3773984349,
				"element": "H" 
			},
			{
				"x": -0.9052406313,
				"y": 4.0546955334,
				"z": 0.6312101243,
				"element": "H" 
			},
			{
				"x": -2.5443254213,
				"y": 4.1443898605,
				"z": -0.0359721409,
				"element": "H" 
			},
			{
				"x": -2.705056247,
				"y": 0.7068302993,
				"z": -1.4697513456,
				"element": "H" 
			},
			{
				"x": -3.5365970939,
				"y": 2.2406625991,
				"z": -1.2271713845,
				"element": "H" 
			},
			{
				"x": -3.2932864757,
				"y": 1.1594763487,
				"z": 0.1433068606,
				"element": "H" 
			},
			{
				"x": -1.5600147074,
				"y": 0.0169050785,
				"z": 1.3029367287,
				"element": "H" 
			},
			{
				"x": 1.4824202629,
				"y": -0.1191338708,
				"z": -1.0369179506,
				"element": "H" 
			},
			{
				"x": 2.578262831,
				"y": -0.4140005657,
				"z": -3.2234071962,
				"element": "H" 
			},
			{
				"x": 1.3892480933,
				"y": -1.5691682636,
				"z": -5.0737569557,
				"element": "H" 
			},
			{
				"x": -0.9034800416,
				"y": -2.4611122563,
				"z": -4.705464546,
				"element": "H" 
			},
			{
				"x": -1.9931192704,
				"y": -2.1861260618,
				"z": -2.4818995724,
				"element": "H" 
			},
			{
				"x": 0.164877729,
				"y": 0.1323562601,
				"z": 2.8141263179,
				"element": "H" 
			},
			{
				"x": 1.8391355232,
				"y": -1.0202903738,
				"z": 4.1949951223,
				"element": "H" 
			},
			{
				"x": 3.3095682706,
				"y": 1.7156105669,
				"z": 0.3469827445,
				"element": "H" 
			}
		],
		 "valence_orbital": [ 
			{
				"type": "occ",
				"energy": -0.27015,
				"method": "rhf"
			},
			{
				"type": "occ",
				"energy": -0.2634,
				"method": "rhf"
			},
			{
				"type": "occ",
				"energy": -0.26212,
				"method": "rhf"
			},
			{
				"type": "occ",
				"energy": -0.2563,
				"method": "rhf"
			},
			{
				"type": "occ",
				"energy": -0.24876,
				"method": "rhf"
			},
			{
				"type": "unocc",
				"energy": -0.05411,
				"method": "rhf"
			},
			{
				"type": "unocc",
				"energy": -0.04816,
				"method": "rhf"
			},
			{
				"type": "unocc",
				"energy": -0.03007,
				"method": "rhf"
			},
			{
				"type": "unocc",
				"energy": -0.01483,
				"method": "rhf"
			},
			{
				"type": "unocc",
				"energy": -0.00226,
				"method": "rhf"
			}
		],
		"cosmo_sigma_profile": { 
			"-0.025": 0.0,
			"-0.024": 0.0,
			"-0.023": 0.0,
			"-0.022": 0.0,
			"-0.021": 0.0,
			"-0.02": 0.0,
			"-0.019": 0.0,
			"-0.018": 0.0,
			"-0.017": 0.0,
			"-0.016": 0.0,
			"-0.015": 0.00847305476738,
			"-0.014": 0.952373370771,
			"-0.013": 1.56500764331,
			"-0.012": 1.81592093477,
			"-0.011": 1.81080943092,
			"-0.01": 1.47321451286,
			"-0.009": 2.12064671814,
			"-0.008": 4.23262962808,
			"-0.007": 6.77539146426,
			"-0.006": 14.1195182492,
			"-0.005": 17.4622662618,
			"-0.004": 25.1223924525,
			"-0.003": 28.0690709286,
			"-0.002": 29.8538841628,
			"-0.001": 33.188320642,
			"0.0": 49.1378734863,
			"0.001": 41.3019550892,
			"0.002": 29.3050002355,
			"0.003": 28.6794193967,
			"0.004": 27.3134977867,
			"0.005": 8.01389747568,
			"0.006": 3.06034022088,
			"0.007": 2.96195647395,
			"0.008": 3.13470275332,
			"0.009": 2.81469325999,
			"0.01": 3.15079772637,
			"0.011": 3.6574255174,
			"0.012": 6.7912062661,
			"0.013": 4.65151084132,
			"0.014": 0.0768864587617,
			"0.015": 0.0,
			"0.016": 0.0,
			"0.017": 0.0,
			"0.018": 0.0,
			"0.019": 0.0,
			"0.02": 0.0,
			"0.021": 0.0,
			"0.022": 0.0,
			"0.023": 0.0,
			"0.024": 0.0,
			"0.025": 0.0
		}
	}
}
