{
	 "smiles": "NC(=O)C1=NN(C2=NC=NC(N)=C12)C1=CC=CC=C1", 
	 "Tm": 568.15, 
	 "num_atms": 29, 
	 "gaussian": { 
		 "optdone": 1, 
		 "sigma_profile": "yes", 
		 "theory": "DFT", 
		 "functional": "B3LYP", 
		 "basiset": "6-31G**", 
		 "properties": { 
			 "R2extent": 5596.3872, 
			 "electric_dipole_moment_norm": 2.83115006137, 
			 "electric_quadrupole_moment_norm": 11.7113770168, 
			 "total_energy": -867.073892078, 
			 "HOMO_LUMO_gap": 0.16157, 
			 "cosmo_polarized_energy": -13.72, 
			 "cosmo_cavitation_energy": 33.33, 
			 "cosmo_dispersion_energy": -25.29, 
			 "cosmo_repulsion_energy": 1.91, 
			 "cosmo_total_nonelectrostatic_energy": 9.94, 
			 "SMD_solvation_energy": 3.24 
		},
		"coords": [
			{
				"x": -2.986016406,
				"y": 1.2016993214,
				"z": -2.3029626312,
				"element": "N" 
			},
			{
				"x": -2.9131549748,
				"y": 0.6690659118,
				"z": -1.0609391779,
				"element": "C" 
			},
			{
				"x": -3.8485906802,
				"y": 0.7216314516,
				"z": -0.2544523772,
				"element": "O" 
			},
			{
				"x": -1.6208648475,
				"y": 0.0117345089,
				"z": -0.7317239429,
				"element": "C" 
			},
			{
				"x": -0.6382752538,
				"y": -0.0264274508,
				"z": -1.6212176726,
				"element": "N" 
			},
			{
				"x": 0.4062676159,
				"y": -0.6822576185,
				"z": -1.0468715014,
				"element": "N" 
			},
			{
				"x": 0.082423824,
				"y": -1.0728606714,
				"z": 0.2418991414,
				"element": "C" 
			},
			{
				"x": 0.8514621134,
				"y": -1.7393136952,
				"z": 1.1186369752,
				"element": "N" 
			},
			{
				"x": 0.2250669015,
				"y": -1.9544213093,
				"z": 2.2777592272,
				"element": "C" 
			},
			{
				"x": -1.0127987292,
				"y": -1.6022107788,
				"z": 2.6478548206,
				"element": "N" 
			},
			{
				"x": -1.774357787,
				"y": -0.933812673,
				"z": 1.758847178,
				"element": "C" 
			},
			{
				"x": -3.0162291569,
				"y": -0.5726991244,
				"z": 2.1110786442,
				"element": "N" 
			},
			{
				"x": -1.2323653932,
				"y": -0.6345068115,
				"z": 0.4752715548,
				"element": "C" 
			},
			{
				"x": 1.6106025134,
				"y": -0.8707075139,
				"z": -1.7897141613,
				"element": "C" 
			},
			{
				"x": 2.7063143156,
				"y": -1.5352345937,
				"z": -1.2231697751,
				"element": "C" 
			},
			{
				"x": 3.8668653406,
				"y": -1.7005446898,
				"z": -1.9795505321,
				"element": "C" 
			},
			{
				"x": 3.9495929285,
				"y": -1.2153725906,
				"z": -3.2844948434,
				"element": "C" 
			},
			{
				"x": 2.8508887448,
				"y": -0.5548137584,
				"z": -3.8378640966,
				"element": "C" 
			},
			{
				"x": 1.6829834559,
				"y": -0.3793674938,
				"z": -3.1002198048,
				"element": "C" 
			},
			{
				"x": -2.1991355005,
				"y": 1.1375585235,
				"z": -2.9302975617,
				"element": "H" 
			},
			{
				"x": -3.8375493151,
				"y": 1.6612313927,
				"z": -2.5836705445,
				"element": "H" 
			},
			{
				"x": 0.7996554859,
				"y": -2.4917226957,
				"z": 3.0302720924,
				"element": "H" 
			},
			{
				"x": -3.5918234097,
				"y": -0.0671788143,
				"z": 1.4381140605,
				"element": "H" 
			},
			{
				"x": -3.33762527,
				"y": -0.8158145704,
				"z": 3.0347778547,
				"element": "H" 
			},
			{
				"x": 2.6403210377,
				"y": -1.9112283601,
				"z": -0.2110447771,
				"element": "H" 
			},
			{
				"x": 4.7131820609,
				"y": -2.2164902693,
				"z": -1.5354893687,
				"element": "H" 
			},
			{
				"x": 4.8578643487,
				"y": -1.3495625535,
				"z": -3.8641292017,
				"element": "H" 
			},
			{
				"x": 2.8987401503,
				"y": -0.170986023,
				"z": -4.8528222716,
				"element": "H" 
			},
			{
				"x": 0.8294558866,
				"y": 0.1317129496,
				"z": -3.5252773072,
				"element": "H" 
			}
		],
		 "valence_orbital": [ 
			{
				"type": "occ",
				"energy": -0.27782,
				"method": "rhf"
			},
			{
				"type": "occ",
				"energy": -0.25774,
				"method": "rhf"
			},
			{
				"type": "occ",
				"energy": -0.25424,
				"method": "rhf"
			},
			{
				"type": "occ",
				"energy": -0.23904,
				"method": "rhf"
			},
			{
				"type": "occ",
				"energy": -0.2199,
				"method": "rhf"
			},
			{
				"type": "unocc",
				"energy": -0.05833,
				"method": "rhf"
			},
			{
				"type": "unocc",
				"energy": -0.01802,
				"method": "rhf"
			},
			{
				"type": "unocc",
				"energy": -0.00853,
				"method": "rhf"
			},
			{
				"type": "unocc",
				"energy": -0.00209,
				"method": "rhf"
			},
			{
				"type": "unocc",
				"energy": 0.03028,
				"method": "rhf"
			}
		],
		"cosmo_sigma_profile": { 
			"-0.025": 0.0,
			"-0.024": 0.0,
			"-0.023": 0.0,
			"-0.022": 0.0,
			"-0.021": 0.0,
			"-0.02": 0.0,
			"-0.019": 0.0,
			"-0.018": 0.0,
			"-0.017": 0.0,
			"-0.016": 0.0,
			"-0.015": 0.848880069463,
			"-0.014": 2.06413612307,
			"-0.013": 3.06392506003,
			"-0.012": 2.98102539468,
			"-0.011": 2.91339552846,
			"-0.01": 2.54851130099,
			"-0.009": 2.53070043512,
			"-0.008": 3.39069152554,
			"-0.007": 4.46833933657,
			"-0.006": 10.701068246,
			"-0.005": 12.0772023494,
			"-0.004": 13.2497249142,
			"-0.003": 11.3681985263,
			"-0.002": 20.5183089187,
			"-0.001": 26.4729870001,
			"0.0": 22.5671193507,
			"0.001": 23.7052912555,
			"0.002": 21.3709188501,
			"0.003": 20.9973951447,
			"0.004": 18.6635522998,
			"0.005": 14.1058736593,
			"0.006": 4.87075266041,
			"0.007": 3.59642057536,
			"0.008": 4.09400417521,
			"0.009": 4.25626315283,
			"0.01": 1.94393228294,
			"0.011": 2.35596802049,
			"0.012": 2.99062529752,
			"0.013": 2.39753401883,
			"0.014": 1.00165073508,
			"0.015": 0.542278141008,
			"0.016": 0.0417090674709,
			"0.017": 0.0,
			"0.018": 0.0,
			"0.019": 0.0,
			"0.02": 0.0,
			"0.021": 0.0,
			"0.022": 0.0,
			"0.023": 0.0,
			"0.024": 0.0,
			"0.025": 0.0
		}
	}
}
