{
	 "smiles": "COC1=CC=C(C=C1)N1C(=O)C2ON=C(C2C1=O)C(=O)C1=CC=C(C)C=C1", 
	 "Tm": 399.15, 
	 "num_atms": 43, 
	 "gaussian": { 
		 "optdone": 1, 
		 "sigma_profile": "yes", 
		 "theory": "DFT", 
		 "functional": "B3LYP", 
		 "basiset": "6-31G**", 
		 "properties": { 
			 "R2extent": 14112.4974, 
			 "electric_dipole_moment_norm": 2.26444240598, 
			 "electric_quadrupole_moment_norm": 27.7914679855, 
			 "total_energy": -1257.3407619, 
			 "HOMO_LUMO_gap": 0.14047, 
			 "cosmo_polarized_energy": -20.86, 
			 "cosmo_cavitation_energy": 50.17, 
			 "cosmo_dispersion_energy": -34.33, 
			 "cosmo_repulsion_energy": 2.57, 
			 "cosmo_total_nonelectrostatic_energy": 18.42, 
			 "SMD_solvation_energy": 10.42 
		},
		"coords": [
			{
				"x": -0.0006741853,
				"y": 6.5892155669,
				"z": 2.778565137,
				"element": "C" 
			},
			{
				"x": 0.0263804418,
				"y": 6.1771238686,
				"z": 1.420080356,
				"element": "O" 
			},
			{
				"x": 0.509595087,
				"y": 4.9375954496,
				"z": 1.1298314477,
				"element": "C" 
			},
			{
				"x": 0.9875602083,
				"y": 4.0258397389,
				"z": 2.0787096632,
				"element": "C" 
			},
			{
				"x": 1.4644773825,
				"y": 2.7803339182,
				"z": 1.667643799,
				"element": "C" 
			},
			{
				"x": 1.4580745021,
				"y": 2.4351982451,
				"z": 0.3164568229,
				"element": "C" 
			},
			{
				"x": 0.9760267676,
				"y": 3.3452551021,
				"z": -0.6345351239,
				"element": "C" 
			},
			{
				"x": 0.5108186001,
				"y": 4.5871810647,
				"z": -0.2292914907,
				"element": "C" 
			},
			{
				"x": 1.9402069959,
				"y": 1.1519555731,
				"z": -0.1033540571,
				"element": "N" 
			},
			{
				"x": 2.7695812086,
				"y": 0.9667883585,
				"z": -1.2203057142,
				"element": "C" 
			},
			{
				"x": 3.2035231939,
				"y": 1.8353477763,
				"z": -1.940409017,
				"element": "O" 
			},
			{
				"x": 3.0148439947,
				"y": -0.5372097862,
				"z": -1.3769523197,
				"element": "C" 
			},
			{
				"x": 2.3001475711,
				"y": -1.019590812,
				"z": -2.5596582886,
				"element": "O" 
			},
			{
				"x": 1.3426380496,
				"y": -1.9421492194,
				"z": -2.1817287297,
				"element": "N" 
			},
			{
				"x": 1.3303839762,
				"y": -2.0901286752,
				"z": -0.9046806305,
				"element": "C" 
			},
			{
				"x": 2.3252764536,
				"y": -1.198631286,
				"z": -0.1921710136,
				"element": "C" 
			},
			{
				"x": 1.6350676234,
				"y": -0.0494370793,
				"z": 0.5645046668,
				"element": "C" 
			},
			{
				"x": 0.9534090311,
				"y": -0.1509661528,
				"z": 1.5559742339,
				"element": "O" 
			},
			{
				"x": 0.5544927901,
				"y": -3.1435176093,
				"z": -0.171382313,
				"element": "C" 
			},
			{
				"x": 1.0265456182,
				"y": -3.4987965886,
				"z": 0.9040390569,
				"element": "O" 
			},
			{
				"x": -0.6927878597,
				"y": -3.7345646967,
				"z": -0.7206187977,
				"element": "C" 
			},
			{
				"x": -1.2485906056,
				"y": -4.8194656769,
				"z": -0.0176519184,
				"element": "C" 
			},
			{
				"x": -2.4242510242,
				"y": -5.4139731196,
				"z": -0.4518720857,
				"element": "C" 
			},
			{
				"x": -3.0906632521,
				"y": -4.9460037149,
				"z": -1.5974661871,
				"element": "C" 
			},
			{
				"x": -4.3574517619,
				"y": -5.6115187043,
				"z": -2.0754109237,
				"element": "C" 
			},
			{
				"x": -2.5379872972,
				"y": -3.8596079109,
				"z": -2.287181395,
				"element": "C" 
			},
			{
				"x": -1.3562097551,
				"y": -3.2566445832,
				"z": -1.8614127228,
				"element": "C" 
			},
			{
				"x": -0.6365966408,
				"y": 5.9339105031,
				"z": 3.3872650654,
				"element": "H" 
			},
			{
				"x": -0.4192091755,
				"y": 7.5965980217,
				"z": 2.7787486555,
				"element": "H" 
			},
			{
				"x": 1.0068660573,
				"y": 6.6170215254,
				"z": 3.2127464154,
				"element": "H" 
			},
			{
				"x": 0.9964733031,
				"y": 4.2687501978,
				"z": 3.1341238419,
				"element": "H" 
			},
			{
				"x": 1.8248520087,
				"y": 2.0755916555,
				"z": 2.4065257143,
				"element": "H" 
			},
			{
				"x": 0.9792559094,
				"y": 3.0854330317,
				"z": -1.6858394553,
				"element": "H" 
			},
			{
				"x": 0.1381007281,
				"y": 5.3060704668,
				"z": -0.9508900209,
				"element": "H" 
			},
			{
				"x": 4.0772924504,
				"y": -0.7435163399,
				"z": -1.5210732899,
				"element": "H" 
			},
			{
				"x": 2.9489115116,
				"y": -1.7669121832,
				"z": 0.5008981294,
				"element": "H" 
			},
			{
				"x": -0.7365159611,
				"y": -5.174245161,
				"z": 0.870219591,
				"element": "H" 
			},
			{
				"x": -2.8393808619,
				"y": -6.2518203385,
				"z": 0.102746135,
				"element": "H" 
			},
			{
				"x": -4.8950486836,
				"y": -4.9849280548,
				"z": -2.7920400412,
				"element": "H" 
			},
			{
				"x": -5.0310624965,
				"y": -5.8325264876,
				"z": -1.2411147409,
				"element": "H" 
			},
			{
				"x": -4.1354468296,
				"y": -6.5649067543,
				"z": -2.5707832745,
				"element": "H" 
			},
			{
				"x": -3.0420606073,
				"y": -3.4764350513,
				"z": -3.1704380096,
				"element": "H" 
			},
			{
				"x": -0.950464467,
				"y": -2.4216140783,
				"z": -2.4184171708,
				"element": "H" 
			}
		],
		 "valence_orbital": [ 
			{
				"type": "occ",
				"energy": -0.26106,
				"method": "rhf"
			},
			{
				"type": "occ",
				"energy": -0.2595,
				"method": "rhf"
			},
			{
				"type": "occ",
				"energy": -0.25788,
				"method": "rhf"
			},
			{
				"type": "occ",
				"energy": -0.25242,
				"method": "rhf"
			},
			{
				"type": "occ",
				"energy": -0.22304,
				"method": "rhf"
			},
			{
				"type": "unocc",
				"energy": -0.08257,
				"method": "rhf"
			},
			{
				"type": "unocc",
				"energy": -0.04374,
				"method": "rhf"
			},
			{
				"type": "unocc",
				"energy": -0.02828,
				"method": "rhf"
			},
			{
				"type": "unocc",
				"energy": -0.01499,
				"method": "rhf"
			},
			{
				"type": "unocc",
				"energy": -0.00915,
				"method": "rhf"
			}
		],
		"cosmo_sigma_profile": { 
			"-0.025": 0.0,
			"-0.024": 0.0,
			"-0.023": 0.0,
			"-0.022": 0.0,
			"-0.021": 0.0,
			"-0.02": 0.0,
			"-0.019": 0.0,
			"-0.018": 0.0,
			"-0.017": 0.0,
			"-0.016": 0.0,
			"-0.015": 0.0,
			"-0.014": 0.0,
			"-0.013": 0.0,
			"-0.012": 0.118632409936,
			"-0.011": 0.913864388791,
			"-0.01": 5.1724141227,
			"-0.009": 6.48702214034,
			"-0.008": 5.49100839521,
			"-0.007": 8.41432578348,
			"-0.006": 22.4095965738,
			"-0.005": 33.5200419954,
			"-0.004": 34.3927890107,
			"-0.003": 29.8072983514,
			"-0.002": 24.3497135618,
			"-0.001": 23.5859286391,
			"0.0": 23.9372226827,
			"0.001": 20.9160959475,
			"0.002": 22.1461234509,
			"0.003": 29.3027192028,
			"0.004": 36.6183914331,
			"0.005": 15.8879583581,
			"0.006": 11.8068897577,
			"0.007": 13.8446892199,
			"0.008": 13.1242762431,
			"0.009": 10.3382504286,
			"0.01": 6.76169621639,
			"0.011": 2.46178465547,
			"0.012": 0.175342739186,
			"0.013": 0.0,
			"0.014": 0.0,
			"0.015": 0.0,
			"0.016": 0.0,
			"0.017": 0.0,
			"0.018": 0.0,
			"0.019": 0.0,
			"0.02": 0.0,
			"0.021": 0.0,
			"0.022": 0.0,
			"0.023": 0.0,
			"0.024": 0.0,
			"0.025": 0.0
		}
	}
}
