{
	 "smiles": "COC=C(C(=O)OC)C(=O)OC", 
	 "Tm": 316.15, 
	 "num_atms": 22, 
	 "gaussian": { 
		 "optdone": 1, 
		 "sigma_profile": "yes", 
		 "theory": "DFT", 
		 "functional": "B3LYP", 
		 "basiset": "6-31G**", 
		 "properties": { 
			 "R2extent": 2812.2935, 
			 "electric_dipole_moment_norm": 4.19034506932, 
			 "electric_quadrupole_moment_norm": 7.96602866176, 
			 "total_energy": -648.864243877, 
			 "HOMO_LUMO_gap": 0.20354, 
			 "cosmo_polarized_energy": -16.53, 
			 "cosmo_cavitation_energy": 27.58, 
			 "cosmo_dispersion_energy": -19.56, 
			 "cosmo_repulsion_energy": 1.63, 
			 "cosmo_total_nonelectrostatic_energy": 9.65, 
			 "SMD_solvation_energy": 9.36 
		},
		"coords": [
			{
				"x": 0.897218565,
				"y": -2.4674172463,
				"z": -2.0435280318,
				"element": "C" 
			},
			{
				"x": 0.0633096281,
				"y": -1.8201475336,
				"z": -1.0786211992,
				"element": "O" 
			},
			{
				"x": 0.6876521858,
				"y": -1.0794885607,
				"z": -0.1623066257,
				"element": "C" 
			},
			{
				"x": 0.0380239048,
				"y": -0.3490321121,
				"z": 0.7768795302,
				"element": "C" 
			},
			{
				"x": 0.8181189568,
				"y": 0.4440939507,
				"z": 1.7550424151,
				"element": "C" 
			},
			{
				"x": 0.3724141199,
				"y": 1.3306125915,
				"z": 2.4533634019,
				"element": "O" 
			},
			{
				"x": 2.1360523419,
				"y": 0.0918894624,
				"z": 1.7697869316,
				"element": "O" 
			},
			{
				"x": 2.9611389148,
				"y": 0.884555257,
				"z": 2.635296112,
				"element": "C" 
			},
			{
				"x": -1.4538962691,
				"y": -0.2754297278,
				"z": 0.7974845693,
				"element": "C" 
			},
			{
				"x": -2.1613100701,
				"y": -0.2282068033,
				"z": -0.1874542863,
				"element": "O" 
			},
			{
				"x": -1.9319640982,
				"y": -0.3038545815,
				"z": 2.0583976553,
				"element": "O" 
			},
			{
				"x": -3.3574817692,
				"y": -0.1898722381,
				"z": 2.1715366125,
				"element": "C" 
			},
			{
				"x": 1.6707670586,
				"y": -3.0710056037,
				"z": -1.5548823388,
				"element": "H" 
			},
			{
				"x": 0.2422832909,
				"y": -3.1157859477,
				"z": -2.6253528879,
				"element": "H" 
			},
			{
				"x": 1.3657906921,
				"y": -1.7326220655,
				"z": -2.7072655561,
				"element": "H" 
			},
			{
				"x": 1.7756753043,
				"y": -1.0991010827,
				"z": -0.1733029353,
				"element": "H" 
			},
			{
				"x": 2.9356301836,
				"y": 1.9372225084,
				"z": 2.3412675574,
				"element": "H" 
			},
			{
				"x": 3.9693996966,
				"y": 0.4828831697,
				"z": 2.5299349572,
				"element": "H" 
			},
			{
				"x": 2.6230952569,
				"y": 0.8030670282,
				"z": 3.6712596661,
				"element": "H" 
			},
			{
				"x": -3.8540017006,
				"y": -1.027049224,
				"z": 1.6734797041,
				"element": "H" 
			},
			{
				"x": -3.5681163361,
				"y": -0.1999081423,
				"z": 3.2408835845,
				"element": "H" 
			},
			{
				"x": -3.7061998564,
				"y": 0.7430969015,
				"z": 1.7214011641,
				"element": "H" 
			}
		],
		 "valence_orbital": [ 
			{
				"type": "occ",
				"energy": -0.29642,
				"method": "rhf"
			},
			{
				"type": "occ",
				"energy": -0.28959,
				"method": "rhf"
			},
			{
				"type": "occ",
				"energy": -0.26771,
				"method": "rhf"
			},
			{
				"type": "occ",
				"energy": -0.26157,
				"method": "rhf"
			},
			{
				"type": "occ",
				"energy": -0.24352,
				"method": "rhf"
			},
			{
				"type": "unocc",
				"energy": -0.03998,
				"method": "rhf"
			},
			{
				"type": "unocc",
				"energy": 0.01683,
				"method": "rhf"
			},
			{
				"type": "unocc",
				"energy": 0.0752,
				"method": "rhf"
			},
			{
				"type": "unocc",
				"energy": 0.10179,
				"method": "rhf"
			},
			{
				"type": "unocc",
				"energy": 0.11184,
				"method": "rhf"
			}
		],
		"cosmo_sigma_profile": { 
			"-0.025": 0.0,
			"-0.024": 0.0,
			"-0.023": 0.0,
			"-0.022": 0.0,
			"-0.021": 0.0,
			"-0.02": 0.0,
			"-0.019": 0.0,
			"-0.018": 0.0,
			"-0.017": 0.0,
			"-0.016": 0.0,
			"-0.015": 0.0,
			"-0.014": 0.0,
			"-0.013": 0.0,
			"-0.012": 0.0,
			"-0.011": 0.0,
			"-0.01": 0.192861822101,
			"-0.009": 2.42179210602,
			"-0.008": 2.94524025918,
			"-0.007": 9.02366910758,
			"-0.006": 17.3793669496,
			"-0.005": 21.8783134658,
			"-0.004": 24.1656356533,
			"-0.003": 22.8373760248,
			"-0.002": 14.7136290753,
			"-0.001": 11.6647128349,
			"0.0": 11.8415020773,
			"0.001": 10.0368886618,
			"0.002": 7.39353778074,
			"0.003": 7.09894353123,
			"0.004": 5.90982793603,
			"0.005": 5.53700563798,
			"0.006": 4.16459465763,
			"0.007": 4.61418033116,
			"0.008": 4.40277359578,
			"0.009": 4.3085288563,
			"0.01": 4.02349323224,
			"0.011": 6.01592756629,
			"0.012": 10.4130347484,
			"0.013": 5.1780989931,
			"0.014": 0.438302611647,
			"0.015": 0.0,
			"0.016": 0.0,
			"0.017": 0.0,
			"0.018": 0.0,
			"0.019": 0.0,
			"0.02": 0.0,
			"0.021": 0.0,
			"0.022": 0.0,
			"0.023": 0.0,
			"0.024": 0.0,
			"0.025": 0.0
		}
	}
}
