{
	 "smiles": "CC(=O)C1=CC=C(O)C=C1", 
	 "Tm": 381.15, 
	 "num_atms": 18, 
	 "gaussian": { 
		 "optdone": 1, 
		 "sigma_profile": "yes", 
		 "theory": "DFT", 
		 "functional": "B3LYP", 
		 "basiset": "6-31G**", 
		 "properties": { 
			 "R2extent": 1847.6374, 
			 "electric_dipole_moment_norm": 4.34892213083, 
			 "electric_quadrupole_moment_norm": 6.68242741973, 
			 "total_energy": -460.121584116, 
			 "HOMO_LUMO_gap": 0.1881, 
			 "cosmo_polarized_energy": -13.12, 
			 "cosmo_cavitation_energy": 22.21, 
			 "cosmo_dispersion_energy": -16.42, 
			 "cosmo_repulsion_energy": 1.32, 
			 "cosmo_total_nonelectrostatic_energy": 7.12, 
			 "SMD_solvation_energy": 4.95 
		},
		"coords": [
			{
				"x": -1.4071518784,
				"y": -1.6025398076,
				"z": -2.393325291,
				"element": "C" 
			},
			{
				"x": -1.2952306904,
				"y": -1.2100493731,
				"z": -0.9273209222,
				"element": "C" 
			},
			{
				"x": -2.2753951974,
				"y": -1.2666092955,
				"z": -0.197609437,
				"element": "O" 
			},
			{
				"x": 0.0263654561,
				"y": -0.7581467405,
				"z": -0.4011495615,
				"element": "C" 
			},
			{
				"x": 0.1187063032,
				"y": -0.3974530185,
				"z": 0.9560425814,
				"element": "C" 
			},
			{
				"x": 1.3157716002,
				"y": 0.0303073758,
				"z": 1.506816577,
				"element": "C" 
			},
			{
				"x": 2.4612827028,
				"y": 0.1071408542,
				"z": 0.6999783389,
				"element": "C" 
			},
			{
				"x": 3.6119621496,
				"y": 0.5329060708,
				"z": 1.2880868509,
				"element": "O" 
			},
			{
				"x": 2.3903346927,
				"y": -0.2473661021,
				"z": -0.6531963512,
				"element": "C" 
			},
			{
				"x": 1.180883853,
				"y": -0.6755163153,
				"z": -1.19352645,
				"element": "C" 
			},
			{
				"x": -1.138726337,
				"y": -0.7658364243,
				"z": -3.0479604985,
				"element": "H" 
			},
			{
				"x": -0.7330662251,
				"y": -2.4325636248,
				"z": -2.6327763835,
				"element": "H" 
			},
			{
				"x": -2.4356437163,
				"y": -1.9029778606,
				"z": -2.5945671254,
				"element": "H" 
			},
			{
				"x": -0.7795659447,
				"y": -0.4647117709,
				"z": 1.5607726538,
				"element": "H" 
			},
			{
				"x": 1.3937037042,
				"y": 0.3097927704,
				"z": 2.5522489389,
				"element": "H" 
			},
			{
				"x": 4.3234077801,
				"y": 0.5425081047,
				"z": 0.6341781557,
				"element": "H" 
			},
			{
				"x": 3.279174911,
				"y": -0.1873823626,
				"z": -1.2778035175,
				"element": "H" 
			},
			{
				"x": 1.1457868365,
				"y": -0.9459024802,
				"z": -2.2439885588,
				"element": "H" 
			}
		],
		 "valence_orbital": [ 
			{
				"type": "occ",
				"energy": -0.34571,
				"method": "rhf"
			},
			{
				"type": "occ",
				"energy": -0.33175,
				"method": "rhf"
			},
			{
				"type": "occ",
				"energy": -0.26319,
				"method": "rhf"
			},
			{
				"type": "occ",
				"energy": -0.24202,
				"method": "rhf"
			},
			{
				"type": "occ",
				"energy": -0.23334,
				"method": "rhf"
			},
			{
				"type": "unocc",
				"energy": -0.04524,
				"method": "rhf"
			},
			{
				"type": "unocc",
				"energy": -0.01141,
				"method": "rhf"
			},
			{
				"type": "unocc",
				"energy": 0.05029,
				"method": "rhf"
			},
			{
				"type": "unocc",
				"energy": 0.05982,
				"method": "rhf"
			},
			{
				"type": "unocc",
				"energy": 0.08795,
				"method": "rhf"
			}
		],
		"cosmo_sigma_profile": { 
			"-0.025": 0.0,
			"-0.024": 0.0,
			"-0.023": 0.0,
			"-0.022": 0.0,
			"-0.021": 0.0,
			"-0.02": 0.0,
			"-0.019": 0.116708159038,
			"-0.018": 1.05843545527,
			"-0.017": 1.10838946293,
			"-0.016": 1.45462299075,
			"-0.015": 0.897753266839,
			"-0.014": 0.746075436382,
			"-0.013": 0.538959477609,
			"-0.012": 0.985695010131,
			"-0.011": 1.4748078311,
			"-0.01": 1.12255328028,
			"-0.009": 0.773784135632,
			"-0.008": 1.46818968504,
			"-0.007": 3.31548048885,
			"-0.006": 10.4398210418,
			"-0.005": 12.9452100042,
			"-0.004": 12.2180795828,
			"-0.003": 12.0761850937,
			"-0.002": 10.2606497745,
			"-0.001": 11.632662937,
			"0.0": 10.5068646462,
			"0.001": 9.53449774859,
			"0.002": 12.0552856162,
			"0.003": 13.6959427152,
			"0.004": 15.5479598417,
			"0.005": 3.39860976397,
			"0.006": 3.82999022939,
			"0.007": 3.5072243196,
			"0.008": 1.31012464721,
			"0.009": 3.86902012537,
			"0.01": 4.05663886226,
			"0.011": 3.11459276568,
			"0.012": 4.20262239769,
			"0.013": 2.81129909023,
			"0.014": 0.660287802915,
			"0.015": 0.0,
			"0.016": 0.0,
			"0.017": 0.0,
			"0.018": 0.0,
			"0.019": 0.0,
			"0.02": 0.0,
			"0.021": 0.0,
			"0.022": 0.0,
			"0.023": 0.0,
			"0.024": 0.0,
			"0.025": 0.0
		}
	}
}
