{
	 "smiles": "NC1=C2N=CN(CCCCl)C2=NC=N1", 
	 "Tm": 613.15, 
	 "num_atms": 24, 
	 "gaussian": { 
		 "optdone": 1, 
		 "sigma_profile": "yes", 
		 "theory": "DFT", 
		 "functional": "B3LYP", 
		 "basiset": "6-31G**", 
		 "properties": { 
			 "R2extent": 4573.925, 
			 "electric_dipole_moment_norm": 3.61288315477, 
			 "electric_quadrupole_moment_norm": 9.60754881695, 
			 "total_energy": -1044.85831835, 
			 "HOMO_LUMO_gap": 0.19945, 
			 "cosmo_polarized_energy": -17.38, 
			 "cosmo_cavitation_energy": 29.87, 
			 "cosmo_dispersion_energy": -21.92, 
			 "cosmo_repulsion_energy": 1.74, 
			 "cosmo_total_nonelectrostatic_energy": 9.69, 
			 "SMD_solvation_energy": 0.46 
		},
		"coords": [
			{
				"x": 4.3522031471,
				"y": 0.9533550031,
				"z": 2.7008222149,
				"element": "N" 
			},
			{
				"x": 3.4325700453,
				"y": 1.235057101,
				"z": 1.7456956218,
				"element": "C" 
			},
			{
				"x": 2.0962619992,
				"y": 0.7888972385,
				"z": 1.8318597518,
				"element": "C" 
			},
			{
				"x": 1.4198908293,
				"y": 0.0172448743,
				"z": 2.7598833676,
				"element": "N" 
			},
			{
				"x": 0.2009866393,
				"y": -0.0485569996,
				"z": 2.2788934691,
				"element": "C" 
			},
			{
				"x": 0.0236393421,
				"y": 0.633278498,
				"z": 1.0893001248,
				"element": "N" 
			},
			{
				"x": -1.1973064637,
				"y": 0.7523062738,
				"z": 0.3006750453,
				"element": "C" 
			},
			{
				"x": -1.1205844728,
				"y": -0.0421097499,
				"z": -1.0102021632,
				"element": "C" 
			},
			{
				"x": -2.4298122303,
				"y": -0.0666939854,
				"z": -1.7873311161,
				"element": "C" 
			},
			{
				"x": -2.9527088931,
				"y": 1.5876957365,
				"z": -2.3406402978,
				"element": "Cl" 
			},
			{
				"x": 1.2541465958,
				"y": 1.1810850148,
				"z": 0.7857839953,
				"element": "C" 
			},
			{
				"x": 1.5874019104,
				"y": 1.9235432587,
				"z": -0.2792802016,
				"element": "N" 
			},
			{
				"x": 2.8767103846,
				"y": 2.2748356911,
				"z": -0.2403297407,
				"element": "C" 
			},
			{
				"x": 3.8021044116,
				"y": 1.9800049126,
				"z": 0.6881746745,
				"element": "N" 
			},
			{
				"x": 5.3137803567,
				"y": 1.1942901975,
				"z": 2.5221167677,
				"element": "H" 
			},
			{
				"x": 4.1263607492,
				"y": 0.291953173,
				"z": 3.4255342142,
				"element": "H" 
			},
			{
				"x": -0.6246769078,
				"y": -0.5725565859,
				"z": 2.7440893287,
				"element": "H" 
			},
			{
				"x": -1.371116506,
				"y": 1.8098933549,
				"z": 0.0863898472,
				"element": "H" 
			},
			{
				"x": -2.0246713263,
				"y": 0.3964159681,
				"z": 0.9237428582,
				"element": "H" 
			},
			{
				"x": -0.3187514354,
				"y": 0.369885765,
				"z": -1.6298900223,
				"element": "H" 
			},
			{
				"x": -0.8596811163,
				"y": -1.0848707844,
				"z": -0.7845009589,
				"element": "H" 
			},
			{
				"x": -3.2548342996,
				"y": -0.4565665721,
				"z": -1.1866372299,
				"element": "H" 
			},
			{
				"x": -2.3363274061,
				"y": -0.669485574,
				"z": -2.6912404341,
				"element": "H" 
			},
			{
				"x": 3.2304146466,
				"y": 2.8797981906,
				"z": -1.0729091165,
				"element": "H" 
			}
		],
		 "valence_orbital": [ 
			{
				"type": "occ",
				"energy": -0.28078,
				"method": "rhf"
			},
			{
				"type": "occ",
				"energy": -0.27956,
				"method": "rhf"
			},
			{
				"type": "occ",
				"energy": -0.25917,
				"method": "rhf"
			},
			{
				"type": "occ",
				"energy": -0.24619,
				"method": "rhf"
			},
			{
				"type": "occ",
				"energy": -0.21696,
				"method": "rhf"
			},
			{
				"type": "unocc",
				"energy": -0.01751,
				"method": "rhf"
			},
			{
				"type": "unocc",
				"energy": 0.00877,
				"method": "rhf"
			},
			{
				"type": "unocc",
				"energy": 0.01906,
				"method": "rhf"
			},
			{
				"type": "unocc",
				"energy": 0.04304,
				"method": "rhf"
			},
			{
				"type": "unocc",
				"energy": 0.07827,
				"method": "rhf"
			}
		],
		"cosmo_sigma_profile": { 
			"-0.025": 0.0,
			"-0.024": 0.0,
			"-0.023": 0.0,
			"-0.022": 0.0,
			"-0.021": 0.0,
			"-0.02": 0.0,
			"-0.019": 0.0,
			"-0.018": 0.0,
			"-0.017": 0.0,
			"-0.016": 0.0,
			"-0.015": 0.0374456406418,
			"-0.014": 1.31359536482,
			"-0.013": 2.10663115179,
			"-0.012": 1.54018397818,
			"-0.011": 1.79825103492,
			"-0.01": 4.00435714371,
			"-0.009": 5.10951317841,
			"-0.008": 6.26948157831,
			"-0.007": 12.0578003391,
			"-0.006": 14.3166455396,
			"-0.005": 14.10731205,
			"-0.004": 13.5553871257,
			"-0.003": 12.4807979538,
			"-0.002": 10.6003721003,
			"-0.001": 12.4077265005,
			"0.0": 18.3529405643,
			"0.001": 15.9493511839,
			"0.002": 13.7930659915,
			"0.003": 10.563804723,
			"0.004": 13.0732903769,
			"0.005": 12.0615052534,
			"0.006": 11.9877688532,
			"0.007": 8.2179060948,
			"0.008": 4.74442204441,
			"0.009": 3.40725601968,
			"0.01": 2.39350525004,
			"0.011": 3.09935034071,
			"0.012": 2.61100573579,
			"0.013": 3.16459981799,
			"0.014": 1.8168835665,
			"0.015": 1.86822048114,
			"0.016": 0.82665436789,
			"0.017": 0.0,
			"0.018": 0.0,
			"0.019": 0.0,
			"0.02": 0.0,
			"0.021": 0.0,
			"0.022": 0.0,
			"0.023": 0.0,
			"0.024": 0.0,
			"0.025": 0.0
		}
	}
}
