{
	 "smiles": "COC1=C(OC)C=C(Cl)C(Cl)=C1", 
	 "Tm": 356.15, 
	 "num_atms": 20, 
	 "gaussian": { 
		 "optdone": 1, 
		 "sigma_profile": "yes", 
		 "theory": "DFT", 
		 "functional": "B3LYP", 
		 "basiset": "6-31G**", 
		 "properties": { 
			 "R2extent": 5238.2295, 
			 "electric_dipole_moment_norm": 3.40148842861, 
			 "electric_quadrupole_moment_norm": 9.7521124127, 
			 "total_energy": -1380.46668461, 
			 "HOMO_LUMO_gap": 0.2137, 
			 "cosmo_polarized_energy": -5.84, 
			 "cosmo_cavitation_energy": 27.41, 
			 "cosmo_dispersion_energy": -20.09, 
			 "cosmo_repulsion_energy": 1.62, 
			 "cosmo_total_nonelectrostatic_energy": 8.94, 
			 "SMD_solvation_energy": 5.72 
		},
		"coords": [
			{
				"x": 0.6181796803,
				"y": -1.7080333823,
				"z": -2.7409120967,
				"element": "C" 
			},
			{
				"x": 0.6892782103,
				"y": -0.2746909375,
				"z": -2.7793417997,
				"element": "O" 
			},
			{
				"x": -0.3731566391,
				"y": 0.3733097877,
				"z": -2.1991471843,
				"element": "C" 
			},
			{
				"x": -0.5837715077,
				"y": 0.3541456575,
				"z": -0.8064326472,
				"element": "C" 
			},
			{
				"x": 0.2300252932,
				"y": -0.3589683819,
				"z": 0.0388136156,
				"element": "O" 
			},
			{
				"x": 1.5612459353,
				"y": 0.1601575992,
				"z": 0.1781289034,
				"element": "C" 
			},
			{
				"x": -1.6703401972,
				"y": 1.0404102734,
				"z": -0.2676901991,
				"element": "C" 
			},
			{
				"x": -2.542885197,
				"y": 1.7584608678,
				"z": -1.0878708576,
				"element": "C" 
			},
			{
				"x": -3.8855973281,
				"y": 2.5998705881,
				"z": -0.3513144715,
				"element": "Cl" 
			},
			{
				"x": -2.3169622874,
				"y": 1.8009448518,
				"z": -2.469108249,
				"element": "C" 
			},
			{
				"x": -3.3657966803,
				"y": 2.6947690298,
				"z": -3.5434866561,
				"element": "Cl" 
			},
			{
				"x": -1.2373911932,
				"y": 1.1025194852,
				"z": -3.0135013825,
				"element": "C" 
			},
			{
				"x": -0.2569763034,
				"y": -2.0651348331,
				"z": -3.2970959772,
				"element": "H" 
			},
			{
				"x": 0.5734961079,
				"y": -2.0766747713,
				"z": -1.7118692697,
				"element": "H" 
			},
			{
				"x": 1.5269174317,
				"y": -2.0691764874,
				"z": -3.2256616946,
				"element": "H" 
			},
			{
				"x": 1.5380233064,
				"y": 1.1692437005,
				"z": 0.6070367854,
				"element": "H" 
			},
			{
				"x": 2.0819949051,
				"y": 0.1829939129,
				"z": -0.78370125,
				"element": "H" 
			},
			{
				"x": 2.0781963252,
				"y": -0.5128127895,
				"z": 0.8644840332,
				"element": "H" 
			},
			{
				"x": -1.8275410628,
				"y": 1.0109080841,
				"z": 0.804150806,
				"element": "H" 
			},
			{
				"x": -1.0599387992,
				"y": 1.1173577451,
				"z": -4.0824804084,
				"element": "H" 
			}
		],
		 "valence_orbital": [ 
			{
				"type": "occ",
				"energy": -0.30987,
				"method": "rhf"
			},
			{
				"type": "occ",
				"energy": -0.30058,
				"method": "rhf"
			},
			{
				"type": "occ",
				"energy": -0.27866,
				"method": "rhf"
			},
			{
				"type": "occ",
				"energy": -0.25607,
				"method": "rhf"
			},
			{
				"type": "occ",
				"energy": -0.23574,
				"method": "rhf"
			},
			{
				"type": "unocc",
				"energy": -0.02204,
				"method": "rhf"
			},
			{
				"type": "unocc",
				"energy": -0.01849,
				"method": "rhf"
			},
			{
				"type": "unocc",
				"energy": 0.00248,
				"method": "rhf"
			},
			{
				"type": "unocc",
				"energy": 0.06265,
				"method": "rhf"
			},
			{
				"type": "unocc",
				"energy": 0.08016,
				"method": "rhf"
			}
		],
		"cosmo_sigma_profile": { 
			"-0.025": 0.0,
			"-0.024": 0.0,
			"-0.023": 0.0,
			"-0.022": 0.0,
			"-0.021": 0.0,
			"-0.02": 0.0,
			"-0.019": 0.0,
			"-0.018": 0.0,
			"-0.017": 0.0,
			"-0.016": 0.0,
			"-0.015": 0.0,
			"-0.014": 0.0,
			"-0.013": 0.0,
			"-0.012": 0.0,
			"-0.011": 0.0,
			"-0.01": 0.0,
			"-0.009": 0.0746826847285,
			"-0.008": 1.95006086679,
			"-0.007": 2.65540978329,
			"-0.006": 5.59720054791,
			"-0.005": 11.8476687306,
			"-0.004": 16.1789231896,
			"-0.003": 26.4150042096,
			"-0.002": 19.5430376992,
			"-0.001": 18.335695525,
			"0.0": 18.9394007148,
			"0.001": 28.6288971058,
			"0.002": 17.8178869634,
			"0.003": 14.6291078307,
			"0.004": 20.8987572591,
			"0.005": 8.08793587,
			"0.006": 2.27234115882,
			"0.007": 1.7306824402,
			"0.008": 2.13499175944,
			"0.009": 1.83762688965,
			"0.01": 1.65842414381,
			"0.011": 1.78172876836,
			"0.012": 0.0729117303069,
			"0.013": 0.0,
			"0.014": 0.0,
			"0.015": 0.0,
			"0.016": 0.0,
			"0.017": 0.0,
			"0.018": 0.0,
			"0.019": 0.0,
			"0.02": 0.0,
			"0.021": 0.0,
			"0.022": 0.0,
			"0.023": 0.0,
			"0.024": 0.0,
			"0.025": 0.0
		}
	}
}
