{
	 "smiles": "CC(=O)C(Cl)C(C)=O", 
	 "Tm": 258.15, 
	 "num_atms": 15, 
	 "gaussian": { 
		 "optdone": 1, 
		 "sigma_profile": "yes", 
		 "theory": "DFT", 
		 "functional": "B3LYP", 
		 "basiset": "6-31G**", 
		 "properties": { 
			 "R2extent": 1330.6053, 
			 "electric_dipole_moment_norm": 1.99861401226, 
			 "electric_quadrupole_moment_norm": 11.3522998525, 
			 "total_energy": -805.381588243, 
			 "HOMO_LUMO_gap": 0.19587, 
			 "cosmo_polarized_energy": -8.74, 
			 "cosmo_cavitation_energy": 20.89, 
			 "cosmo_dispersion_energy": -14.88, 
			 "cosmo_repulsion_energy": 1.26, 
			 "cosmo_total_nonelectrostatic_energy": 7.27, 
			 "SMD_solvation_energy": 5.03 
		},
		"coords": [
			{
				"x": -1.0997861434,
				"y": -2.4260712903,
				"z": 2.0268830217,
				"element": "C" 
			},
			{
				"x": -1.1981367769,
				"y": -1.3916756983,
				"z": 0.9300088135,
				"element": "C" 
			},
			{
				"x": -2.2353407864,
				"y": -0.8423577704,
				"z": 0.6235488105,
				"element": "O" 
			},
			{
				"x": 0.1155381638,
				"y": -1.0686443194,
				"z": 0.1774610475,
				"element": "C" 
			},
			{
				"x": 1.0800557033,
				"y": 0.0603513355,
				"z": 1.2412859553,
				"element": "Cl" 
			},
			{
				"x": -0.1491323187,
				"y": -0.5077479007,
				"z": -1.2334629285,
				"element": "C" 
			},
			{
				"x": -0.5386478066,
				"y": 0.9369919549,
				"z": -1.3973162218,
				"element": "C" 
			},
			{
				"x": -0.0734655199,
				"y": -1.2964881238,
				"z": -2.1533784285,
				"element": "O" 
			},
			{
				"x": -0.2594253266,
				"y": -2.2134573815,
				"z": 2.6941561014,
				"element": "H" 
			},
			{
				"x": -0.919147241,
				"y": -3.4101309261,
				"z": 1.576806764,
				"element": "H" 
			},
			{
				"x": -2.0336763426,
				"y": -2.4540163434,
				"z": 2.589260884,
				"element": "H" 
			},
			{
				"x": 0.7227369956,
				"y": -1.9679379209,
				"z": 0.0636481253,
				"element": "H" 
			},
			{
				"x": 0.2581303367,
				"y": 1.599078346,
				"z": -1.0457213515,
				"element": "H" 
			},
			{
				"x": -0.7499297987,
				"y": 1.1311500361,
				"z": -2.4493113601,
				"element": "H" 
			},
			{
				"x": -1.4255731386,
				"y": 1.1350560022,
				"z": -0.7870692327,
				"element": "H" 
			}
		],
		 "valence_orbital": [ 
			{
				"type": "occ",
				"energy": -0.36615,
				"method": "rhf"
			},
			{
				"type": "occ",
				"energy": -0.33636,
				"method": "rhf"
			},
			{
				"type": "occ",
				"energy": -0.32558,
				"method": "rhf"
			},
			{
				"type": "occ",
				"energy": -0.27819,
				"method": "rhf"
			},
			{
				"type": "occ",
				"energy": -0.26015,
				"method": "rhf"
			},
			{
				"type": "unocc",
				"energy": -0.06428,
				"method": "rhf"
			},
			{
				"type": "unocc",
				"energy": -0.03196,
				"method": "rhf"
			},
			{
				"type": "unocc",
				"energy": 0.03089,
				"method": "rhf"
			},
			{
				"type": "unocc",
				"energy": 0.08859,
				"method": "rhf"
			},
			{
				"type": "unocc",
				"energy": 0.12332,
				"method": "rhf"
			}
		],
		"cosmo_sigma_profile": { 
			"-0.025": 0.0,
			"-0.024": 0.0,
			"-0.023": 0.0,
			"-0.022": 0.0,
			"-0.021": 0.0,
			"-0.02": 0.0,
			"-0.019": 0.0,
			"-0.018": 0.0,
			"-0.017": 0.0,
			"-0.016": 0.0,
			"-0.015": 0.0,
			"-0.014": 0.0,
			"-0.013": 0.0,
			"-0.012": 0.0,
			"-0.011": 0.0480383903299,
			"-0.01": 1.56534249203,
			"-0.009": 3.47416748983,
			"-0.008": 2.5793760872,
			"-0.007": 4.37733828097,
			"-0.006": 7.49264894524,
			"-0.005": 12.5920415452,
			"-0.004": 12.5257975633,
			"-0.003": 14.8823157352,
			"-0.002": 19.6066897952,
			"-0.001": 13.9589733808,
			"0.0": 8.71432474537,
			"0.001": 7.93295540435,
			"0.002": 7.84727352753,
			"0.003": 9.42290217769,
			"0.004": 8.15935694508,
			"0.005": 6.39545945761,
			"0.006": 1.95385817013,
			"0.007": 2.80869313036,
			"0.008": 3.84232283245,
			"0.009": 4.10064345822,
			"0.01": 6.75684915412,
			"0.011": 5.05588472068,
			"0.012": 1.2074329224,
			"0.013": 0.00171781870621,
			"0.014": 0.0,
			"0.015": 0.0,
			"0.016": 0.0,
			"0.017": 0.0,
			"0.018": 0.0,
			"0.019": 0.0,
			"0.02": 0.0,
			"0.021": 0.0,
			"0.022": 0.0,
			"0.023": 0.0,
			"0.024": 0.0,
			"0.025": 0.0
		}
	}
}
