{
	 "smiles": "COC(=O)C1=CC=CC=C1S(N)(=O)=O", 
	 "Tm": 399.15, 
	 "num_atms": 23, 
	 "gaussian": { 
		 "optdone": 1, 
		 "sigma_profile": "yes", 
		 "theory": "DFT", 
		 "functional": "B3LYP", 
		 "basiset": "6-31G**", 
		 "properties": { 
			 "R2extent": 3469.6335, 
			 "electric_dipole_moment_norm": 5.00081926688, 
			 "electric_quadrupole_moment_norm": 14.7140361159, 
			 "total_energy": -1064.04723759, 
			 "HOMO_LUMO_gap": 0.20297, 
			 "cosmo_polarized_energy": -16.69, 
			 "cosmo_cavitation_energy": 28.26, 
			 "cosmo_dispersion_energy": -21.4, 
			 "cosmo_repulsion_energy": 1.64, 
			 "cosmo_total_nonelectrostatic_energy": 8.5, 
			 "SMD_solvation_energy": 5.75 
		},
		"coords": [
			{
				"x": -1.4343033347,
				"y": -2.9264979393,
				"z": -2.5393997879,
				"element": "C" 
			},
			{
				"x": -0.9972714918,
				"y": -1.6988733297,
				"z": -1.9266648359,
				"element": "O" 
			},
			{
				"x": -0.1206168733,
				"y": -1.8380045529,
				"z": -0.9177758331,
				"element": "C" 
			},
			{
				"x": 0.2883445246,
				"y": -2.9232037473,
				"z": -0.5461101204,
				"element": "O" 
			},
			{
				"x": 0.3100710236,
				"y": -0.5122172056,
				"z": -0.3724702077,
				"element": "C" 
			},
			{
				"x": 0.4013323734,
				"y": 0.5748975599,
				"z": -1.2525365541,
				"element": "C" 
			},
			{
				"x": 0.8736401753,
				"y": 1.8128452775,
				"z": -0.8183730437,
				"element": "C" 
			},
			{
				"x": 1.2491829382,
				"y": 1.9858473713,
				"z": 0.5118733688,
				"element": "C" 
			},
			{
				"x": 1.1470081681,
				"y": 0.9205478917,
				"z": 1.4085060585,
				"element": "C" 
			},
			{
				"x": 0.6897217404,
				"y": -0.3209189505,
				"z": 0.9715143546,
				"element": "C" 
			},
			{
				"x": 0.4681961743,
				"y": -1.5678515115,
				"z": 2.2669891128,
				"element": "S" 
			},
			{
				"x": 1.6880076899,
				"y": -2.6637284477,
				"z": 1.9066765744,
				"element": "N" 
			},
			{
				"x": -0.8763256515,
				"y": -2.1291339448,
				"z": 2.1025771543,
				"element": "O" 
			},
			{
				"x": 0.8540329739,
				"y": -0.9622494711,
				"z": 3.5459946976,
				"element": "O" 
			},
			{
				"x": -0.5858612788,
				"y": -3.4624890924,
				"z": -2.9715310174,
				"element": "H" 
			},
			{
				"x": -1.9209434266,
				"y": -3.5653327957,
				"z": -1.7994021374,
				"element": "H" 
			},
			{
				"x": -2.1384630862,
				"y": -2.6286727703,
				"z": -3.3154046017,
				"element": "H" 
			},
			{
				"x": 0.1044457618,
				"y": 0.4347556699,
				"z": -2.2853092754,
				"element": "H" 
			},
			{
				"x": 0.9431277044,
				"y": 2.6383021567,
				"z": -1.5200816818,
				"element": "H" 
			},
			{
				"x": 1.6124295545,
				"y": 2.9480954389,
				"z": 0.8594686338,
				"element": "H" 
			},
			{
				"x": 1.4059336388,
				"y": 1.0395361559,
				"z": 2.4543235407,
				"element": "H" 
			},
			{
				"x": 1.3971931054,
				"y": -3.2525490426,
				"z": 1.1261799196,
				"element": "H" 
			},
			{
				"x": 1.9229175962,
				"y": -3.1810047206,
				"z": 2.7502556814,
				"element": "H" 
			}
		],
		 "valence_orbital": [ 
			{
				"type": "occ",
				"energy": -0.30336,
				"method": "rhf"
			},
			{
				"type": "occ",
				"energy": -0.29954,
				"method": "rhf"
			},
			{
				"type": "occ",
				"energy": -0.28006,
				"method": "rhf"
			},
			{
				"type": "occ",
				"energy": -0.27687,
				"method": "rhf"
			},
			{
				"type": "occ",
				"energy": -0.26786,
				"method": "rhf"
			},
			{
				"type": "unocc",
				"energy": -0.06489,
				"method": "rhf"
			},
			{
				"type": "unocc",
				"energy": -0.03271,
				"method": "rhf"
			},
			{
				"type": "unocc",
				"energy": 0.02632,
				"method": "rhf"
			},
			{
				"type": "unocc",
				"energy": 0.05981,
				"method": "rhf"
			},
			{
				"type": "unocc",
				"energy": 0.08272,
				"method": "rhf"
			}
		],
		"cosmo_sigma_profile": { 
			"-0.025": 0.0,
			"-0.024": 0.0,
			"-0.023": 0.0,
			"-0.022": 0.0,
			"-0.021": 0.0,
			"-0.02": 0.0,
			"-0.019": 0.0,
			"-0.018": 0.0,
			"-0.017": 0.0,
			"-0.016": 0.0552551421366,
			"-0.015": 1.16063456105,
			"-0.014": 1.25167723806,
			"-0.013": 1.09297483953,
			"-0.012": 1.31903115913,
			"-0.011": 2.41415527674,
			"-0.01": 1.44840588682,
			"-0.009": 1.51002909102,
			"-0.008": 3.51629584722,
			"-0.007": 11.1506023887,
			"-0.006": 17.2486481341,
			"-0.005": 15.9129353069,
			"-0.004": 16.6429157851,
			"-0.003": 12.9851858258,
			"-0.002": 11.5499496066,
			"-0.001": 12.9090125796,
			"0.0": 14.3120713279,
			"0.001": 19.3088546835,
			"0.002": 16.1375841737,
			"0.003": 5.96797743799,
			"0.004": 5.21603383368,
			"0.005": 6.35063399345,
			"0.006": 5.39192818622,
			"0.007": 4.90115731455,
			"0.008": 5.85315189774,
			"0.009": 6.76978021612,
			"0.01": 8.5267774366,
			"0.011": 10.562261841,
			"0.012": 4.40384222438,
			"0.013": 0.00676244480369,
			"0.014": 0.0,
			"0.015": 0.0,
			"0.016": 0.0,
			"0.017": 0.0,
			"0.018": 0.0,
			"0.019": 0.0,
			"0.02": 0.0,
			"0.021": 0.0,
			"0.022": 0.0,
			"0.023": 0.0,
			"0.024": 0.0,
			"0.025": 0.0
		}
	}
}
