{
	 "smiles": "OC(C1CCNCC1)C1=CC=C(F)C=C1", 
	 "Tm": 420.15, 
	 "num_atms": 31, 
	 "gaussian": { 
		 "optdone": 1, 
		 "sigma_profile": "yes", 
		 "theory": "DFT", 
		 "functional": "B3LYP", 
		 "basiset": "6-31G**", 
		 "properties": { 
			 "R2extent": 4019.9151, 
			 "electric_dipole_moment_norm": 2.77805780717, 
			 "electric_quadrupole_moment_norm": 7.05968638609, 
			 "total_energy": -696.713646664, 
			 "HOMO_LUMO_gap": 0.20777, 
			 "cosmo_polarized_energy": -10.02, 
			 "cosmo_cavitation_energy": 32.08, 
			 "cosmo_dispersion_energy": -23.07, 
			 "cosmo_repulsion_energy": 1.79, 
			 "cosmo_total_nonelectrostatic_energy": 10.8, 
			 "SMD_solvation_energy": 3.3 
		},
		"coords": [
			{
				"x": -0.3342087455,
				"y": -2.3167690424,
				"z": 1.1260778954,
				"element": "O" 
			},
			{
				"x": -0.7455873013,
				"y": -0.9778298126,
				"z": 0.8473143091,
				"element": "C" 
			},
			{
				"x": 0.4518280251,
				"y": -0.0047614081,
				"z": 1.0141115551,
				"element": "C" 
			},
			{
				"x": 1.6546559175,
				"y": -0.3363383042,
				"z": 0.1013078911,
				"element": "C" 
			},
			{
				"x": 2.6185453387,
				"y": 0.8687580407,
				"z": -0.0017924004,
				"element": "C" 
			},
			{
				"x": 2.5188222979,
				"y": 1.6664791775,
				"z": 1.2208074906,
				"element": "N" 
			},
			{
				"x": 1.2436497606,
				"y": 2.3906696361,
				"z": 1.2996996836,
				"element": "C" 
			},
			{
				"x": 0.0768740432,
				"y": 1.4760907806,
				"z": 0.8519573444,
				"element": "C" 
			},
			{
				"x": -1.3953643365,
				"y": -0.9789122418,
				"z": -0.5253366051,
				"element": "C" 
			},
			{
				"x": -2.3922853181,
				"y": -0.045031036,
				"z": -0.8379740287,
				"element": "C" 
			},
			{
				"x": -2.9865945237,
				"y": -0.0140757796,
				"z": -2.0997367177,
				"element": "C" 
			},
			{
				"x": -2.5796707367,
				"y": -0.9439616238,
				"z": -3.0489814023,
				"element": "C" 
			},
			{
				"x": -3.1529796,
				"y": -0.9266475036,
				"z": -4.2722716649,
				"element": "F" 
			},
			{
				"x": -1.6086873619,
				"y": -1.8980034445,
				"z": -2.7696299546,
				"element": "C" 
			},
			{
				"x": -1.0215532026,
				"y": -1.9100695367,
				"z": -1.5041139501,
				"element": "C" 
			},
			{
				"x": 0.182832012,
				"y": -2.2981539868,
				"z": 1.9417824482,
				"element": "H" 
			},
			{
				"x": -1.5133188768,
				"y": -0.6642887338,
				"z": 1.5758548178,
				"element": "H" 
			},
			{
				"x": 0.7822732121,
				"y": -0.1313905165,
				"z": 2.0563695031,
				"element": "H" 
			},
			{
				"x": 2.1787694271,
				"y": -1.2117282226,
				"z": 0.4964955506,
				"element": "H" 
			},
			{
				"x": 1.3027079634,
				"y": -0.6032886438,
				"z": -0.9009161239,
				"element": "H" 
			},
			{
				"x": 3.6508809939,
				"y": 0.5207632147,
				"z": -0.1098475965,
				"element": "H" 
			},
			{
				"x": 2.3881172827,
				"y": 1.4557234895,
				"z": -0.9114660585,
				"element": "H" 
			},
			{
				"x": 3.2926285948,
				"y": 2.320293516,
				"z": 1.2873326654,
				"element": "H" 
			},
			{
				"x": 1.0981275529,
				"y": 2.7066472906,
				"z": 2.3403357128,
				"element": "H" 
			},
			{
				"x": 1.2307312151,
				"y": 3.3066622774,
				"z": 0.6815475811,
				"element": "H" 
			},
			{
				"x": -0.8220393617,
				"y": 1.7212490743,
				"z": 1.4299357558,
				"element": "H" 
			},
			{
				"x": -0.1697377584,
				"y": 1.6678135689,
				"z": -0.1984199885,
				"element": "H" 
			},
			{
				"x": -2.7207601631,
				"y": 0.6649229187,
				"z": -0.0837023895,
				"element": "H" 
			},
			{
				"x": -3.7603003707,
				"y": 0.704351691,
				"z": -2.3483230788,
				"element": "H" 
			},
			{
				"x": -1.3297755055,
				"y": -2.6172377909,
				"z": -3.5324316854,
				"element": "H" 
			},
			{
				"x": -0.2795804745,
				"y": -2.6607370481,
				"z": -1.2580865592,
				"element": "H" 
			}
		],
		 "valence_orbital": [ 
			{
				"type": "occ",
				"energy": -0.30638,
				"method": "rhf"
			},
			{
				"type": "occ",
				"energy": -0.26965,
				"method": "rhf"
			},
			{
				"type": "occ",
				"energy": -0.25398,
				"method": "rhf"
			},
			{
				"type": "occ",
				"energy": -0.23245,
				"method": "rhf"
			},
			{
				"type": "occ",
				"energy": -0.21439,
				"method": "rhf"
			},
			{
				"type": "unocc",
				"energy": -0.00662,
				"method": "rhf"
			},
			{
				"type": "unocc",
				"energy": 0.00442,
				"method": "rhf"
			},
			{
				"type": "unocc",
				"energy": 0.06648,
				"method": "rhf"
			},
			{
				"type": "unocc",
				"energy": 0.07983,
				"method": "rhf"
			},
			{
				"type": "unocc",
				"energy": 0.09418,
				"method": "rhf"
			}
		],
		"cosmo_sigma_profile": { 
			"-0.025": 0.0,
			"-0.024": 0.0,
			"-0.023": 0.0,
			"-0.022": 0.0,
			"-0.021": 0.0,
			"-0.02": 0.0,
			"-0.019": 0.0,
			"-0.018": 0.0,
			"-0.017": 0.0,
			"-0.016": 0.0200348511198,
			"-0.015": 0.647173072644,
			"-0.014": 0.722670758217,
			"-0.013": 1.29029370616,
			"-0.012": 0.720132769991,
			"-0.011": 1.00459642766,
			"-0.01": 1.53716425394,
			"-0.009": 2.14751272353,
			"-0.008": 1.99286690716,
			"-0.007": 4.59826667915,
			"-0.006": 7.20881722959,
			"-0.005": 10.0542569143,
			"-0.004": 15.9650489934,
			"-0.003": 18.2091322481,
			"-0.002": 22.6767316559,
			"-0.001": 33.3536558655,
			"0.0": 28.3048480619,
			"0.001": 19.8547066979,
			"0.002": 14.6535829231,
			"0.003": 13.3164032207,
			"0.004": 18.9092934884,
			"0.005": 13.1279248416,
			"0.006": 2.71436141911,
			"0.007": 1.97554368137,
			"0.008": 2.86025085644,
			"0.009": 2.41118011496,
			"0.01": 1.96147973839,
			"0.011": 1.94708893004,
			"0.012": 1.33718723715,
			"0.013": 1.54319165158,
			"0.014": 1.41345077886,
			"0.015": 0.593745066508,
			"0.016": 0.442814149116,
			"0.017": 0.33527210113,
			"0.018": 0.313105164888,
			"0.019": 0.0351652575311,
			"0.02": 0.0,
			"0.021": 0.0,
			"0.022": 0.0,
			"0.023": 0.0,
			"0.024": 0.0,
			"0.025": 0.0
		}
	}
}
