{
	 "smiles": "CCCCCCCCCCCCCCCCCCS", 
	 "Tm": 304.15, 
	 "num_atms": 57, 
	 "gaussian": { 
		 "optdone": 1, 
		 "sigma_profile": "yes", 
		 "theory": "DFT", 
		 "functional": "B3LYP", 
		 "basiset": "6-31G**", 
		 "properties": { 
			 "R2extent": 12449.5146, 
			 "electric_dipole_moment_norm": 1.988388971, 
			 "electric_quadrupole_moment_norm": 14.8274173449, 
			 "total_energy": -1107.05279441, 
			 "HOMO_LUMO_gap": 0.26463, 
			 "cosmo_polarized_energy": -4.84, 
			 "cosmo_cavitation_energy": 55.88, 
			 "cosmo_dispersion_energy": -36.07, 
			 "cosmo_repulsion_energy": 2.87, 
			 "cosmo_total_nonelectrostatic_energy": 22.69, 
			 "SMD_solvation_energy": 6.42 
		},
		"coords": [
			{
				"x": 4.5126921462,
				"y": -2.4189254558,
				"z": -2.0918432672,
				"element": "C" 
			},
			{
				"x": 4.4894171604,
				"y": -1.2683676188,
				"z": -1.0782670807,
				"element": "C" 
			},
			{
				"x": 4.6082243023,
				"y": -1.7249523525,
				"z": 0.3887274835,
				"element": "C" 
			},
			{
				"x": 3.3976183794,
				"y": -2.4890566642,
				"z": 0.9729982267,
				"element": "C" 
			},
			{
				"x": 2.3497078814,
				"y": -1.6220953021,
				"z": 1.6990775076,
				"element": "C" 
			},
			{
				"x": 1.5514529496,
				"y": -0.6168201288,
				"z": 0.8503199396,
				"element": "C" 
			},
			{
				"x": 0.6405126757,
				"y": -1.2612540671,
				"z": -0.2060004458,
				"element": "C" 
			},
			{
				"x": -0.2931172699,
				"y": -0.2760937799,
				"z": -0.9304413052,
				"element": "C" 
			},
			{
				"x": 0.4299690687,
				"y": 0.7281056575,
				"z": -1.8440498585,
				"element": "C" 
			},
			{
				"x": -0.4885145681,
				"y": 1.6558782945,
				"z": -2.6702571497,
				"element": "C" 
			},
			{
				"x": -0.8745286205,
				"y": 2.9957508093,
				"z": -2.0124315242,
				"element": "C" 
			},
			{
				"x": -1.7627862372,
				"y": 2.9463134451,
				"z": -0.7567712407,
				"element": "C" 
			},
			{
				"x": -3.1638909765,
				"y": 2.3628606583,
				"z": -0.9943861687,
				"element": "C" 
			},
			{
				"x": -4.1177446152,
				"y": 2.4835051115,
				"z": 0.2059829395,
				"element": "C" 
			},
			{
				"x": -3.715759659,
				"y": 1.6557958041,
				"z": 1.4357553576,
				"element": "C" 
			},
			{
				"x": -4.740844654,
				"y": 1.7474099416,
				"z": 2.5753613832,
				"element": "C" 
			},
			{
				"x": -4.3438904718,
				"y": 1.0093376536,
				"z": 3.8628779912,
				"element": "C" 
			},
			{
				"x": -4.1642568717,
				"y": -0.5087329922,
				"z": 3.7389209771,
				"element": "C" 
			},
			{
				"x": -5.6937967949,
				"y": -1.4640916826,
				"z": 3.3416885998,
				"element": "S" 
			},
			{
				"x": 5.4384897751,
				"y": -2.9998377188,
				"z": -2.0058298033,
				"element": "H" 
			},
			{
				"x": 4.4504443972,
				"y": -2.0428640105,
				"z": -3.1184949767,
				"element": "H" 
			},
			{
				"x": 3.6764691504,
				"y": -3.1112422954,
				"z": -1.9462678149,
				"element": "H" 
			},
			{
				"x": 3.5770917146,
				"y": -0.6772421234,
				"z": -1.2198251119,
				"element": "H" 
			},
			{
				"x": 5.324127319,
				"y": -0.5899486773,
				"z": -1.2980288978,
				"element": "H" 
			},
			{
				"x": 4.8132986017,
				"y": -0.8511159553,
				"z": 1.0223258052,
				"element": "H" 
			},
			{
				"x": 5.5004411992,
				"y": -2.3610574034,
				"z": 0.4659767329,
				"element": "H" 
			},
			{
				"x": 3.7683106162,
				"y": -3.2186674222,
				"z": 1.7037614871,
				"element": "H" 
			},
			{
				"x": 2.9141661196,
				"y": -3.0861035334,
				"z": 0.1897675081,
				"element": "H" 
			},
			{
				"x": 1.6368103885,
				"y": -2.2926279048,
				"z": 2.1994902064,
				"element": "H" 
			},
			{
				"x": 2.8590530668,
				"y": -1.0723937315,
				"z": 2.5027505895,
				"element": "H" 
			},
			{
				"x": 2.2376968146,
				"y": 0.0956877429,
				"z": 0.3771901827,
				"element": "H" 
			},
			{
				"x": 0.9261674745,
				"y": -0.0198048442,
				"z": 1.5294847031,
				"element": "H" 
			},
			{
				"x": 1.2465665343,
				"y": -1.7926231218,
				"z": -0.9522736375,
				"element": "H" 
			},
			{
				"x": 0.0273537594,
				"y": -2.0293286495,
				"z": 0.2858142714,
				"element": "H" 
			},
			{
				"x": -0.8997979125,
				"y": 0.2531878229,
				"z": -0.1849444204,
				"element": "H" 
			},
			{
				"x": -1.0013057299,
				"y": -0.8503793922,
				"z": -1.5434733502,
				"element": "H" 
			},
			{
				"x": 1.1247333787,
				"y": 1.3435212414,
				"z": -1.2569425426,
				"element": "H" 
			},
			{
				"x": 1.0572181114,
				"y": 0.1504467774,
				"z": -2.537006957,
				"element": "H" 
			},
			{
				"x": 0.0265089774,
				"y": 1.9021887411,
				"z": -3.6073972444,
				"element": "H" 
			},
			{
				"x": -1.3907888385,
				"y": 1.1056309073,
				"z": -2.969237293,
				"element": "H" 
			},
			{
				"x": 0.0509782474,
				"y": 3.5329705027,
				"z": -1.7631310593,
				"element": "H" 
			},
			{
				"x": -1.3831836505,
				"y": 3.6112260635,
				"z": -2.7678068437,
				"element": "H" 
			},
			{
				"x": -1.8734698447,
				"y": 3.9728201371,
				"z": -0.3792881923,
				"element": "H" 
			},
			{
				"x": -1.2500460316,
				"y": 2.3923216777,
				"z": 0.0384744608,
				"element": "H" 
			},
			{
				"x": -3.615168113,
				"y": 2.8792969108,
				"z": -1.8529549511,
				"element": "H" 
			},
			{
				"x": -3.0867933405,
				"y": 1.3066255581,
				"z": -1.2846849761,
				"element": "H" 
			},
			{
				"x": -5.1234488367,
				"y": 2.1746918161,
				"z": -0.1106059195,
				"element": "H" 
			},
			{
				"x": -4.2045389939,
				"y": 3.5406350566,
				"z": 0.4957148741,
				"element": "H" 
			},
			{
				"x": -2.7370753839,
				"y": 1.9874006509,
				"z": 1.8077512292,
				"element": "H" 
			},
			{
				"x": -3.5851116126,
				"y": 0.6084913282,
				"z": 1.1282647704,
				"element": "H" 
			},
			{
				"x": -4.8995529743,
				"y": 2.8049174071,
				"z": 2.8244343081,
				"element": "H" 
			},
			{
				"x": -5.7139285712,
				"y": 1.3766465859,
				"z": 2.2264703333,
				"element": "H" 
			},
			{
				"x": -5.0922163135,
				"y": 1.2102899306,
				"z": 4.6380494018,
				"element": "H" 
			},
			{
				"x": -3.3921438706,
				"y": 1.4202668131,
				"z": 4.2309111251,
				"element": "H" 
			},
			{
				"x": -3.3920013781,
				"y": -0.7693227352,
				"z": 3.0106119463,
				"element": "H" 
			},
			{
				"x": -3.8465990277,
				"y": -0.9241214251,
				"z": 4.6997066405,
				"element": "H" 
			},
			{
				"x": -5.8415190471,
				"y": -1.0421500586,
				"z": 2.0701810503,
				"element": "H" 
			}
		],
		 "valence_orbital": [ 
			{
				"type": "occ",
				"energy": -0.30452,
				"method": "rhf"
			},
			{
				"type": "occ",
				"energy": -0.30192,
				"method": "rhf"
			},
			{
				"type": "occ",
				"energy": -0.29814,
				"method": "rhf"
			},
			{
				"type": "occ",
				"energy": -0.29638,
				"method": "rhf"
			},
			{
				"type": "occ",
				"energy": -0.23409,
				"method": "rhf"
			},
			{
				"type": "unocc",
				"energy": 0.03054,
				"method": "rhf"
			},
			{
				"type": "unocc",
				"energy": 0.06199,
				"method": "rhf"
			},
			{
				"type": "unocc",
				"energy": 0.07223,
				"method": "rhf"
			},
			{
				"type": "unocc",
				"energy": 0.08119,
				"method": "rhf"
			},
			{
				"type": "unocc",
				"energy": 0.08899,
				"method": "rhf"
			}
		],
		"cosmo_sigma_profile": { 
			"-0.025": 0.0,
			"-0.024": 0.0,
			"-0.023": 0.0,
			"-0.022": 0.0,
			"-0.021": 0.0,
			"-0.02": 0.0,
			"-0.019": 0.0,
			"-0.018": 0.0,
			"-0.017": 0.0,
			"-0.016": 0.0,
			"-0.015": 0.0,
			"-0.014": 0.0,
			"-0.013": 0.0,
			"-0.012": 0.0,
			"-0.011": 0.0,
			"-0.01": 0.0,
			"-0.009": 0.164031134557,
			"-0.008": 1.12601884311,
			"-0.007": 1.91788271669,
			"-0.006": 2.73693453208,
			"-0.005": 5.99377973378,
			"-0.004": 7.84763807816,
			"-0.003": 11.4143224911,
			"-0.002": 48.6082503144,
			"-0.001": 100.412809244,
			"0.0": 103.872497003,
			"0.001": 81.3530480281,
			"0.002": 37.6139113291,
			"0.003": 3.12587146803,
			"0.004": 3.22259715413,
			"0.005": 3.82773318946,
			"0.006": 3.64954957921,
			"0.007": 3.23471413347,
			"0.008": 2.63219422953,
			"0.009": 2.34332166966,
			"0.01": 2.4913311761,
			"0.011": 1.72057880355,
			"0.012": 0.287261466523,
			"0.013": 0.0,
			"0.014": 0.0,
			"0.015": 0.0,
			"0.016": 0.0,
			"0.017": 0.0,
			"0.018": 0.0,
			"0.019": 0.0,
			"0.02": 0.0,
			"0.021": 0.0,
			"0.022": 0.0,
			"0.023": 0.0,
			"0.024": 0.0,
			"0.025": 0.0
		}
	}
}
