{
	 "smiles": "CCCOC1=CC2=C(C=C1)C=C(CO2)C(O)=O", 
	 "Tm": 452.15, 
	 "num_atms": 31, 
	 "gaussian": { 
		 "optdone": 1, 
		 "sigma_profile": "yes", 
		 "theory": "DFT", 
		 "functional": "B3LYP", 
		 "basiset": "6-31G**", 
		 "properties": { 
			 "R2extent": 8139.6342, 
			 "electric_dipole_moment_norm": 6.82379812201, 
			 "electric_quadrupole_moment_norm": 28.7436854836, 
			 "total_energy": -804.70716095, 
			 "HOMO_LUMO_gap": 0.14803, 
			 "cosmo_polarized_energy": -17.26, 
			 "cosmo_cavitation_energy": 34.92, 
			 "cosmo_dispersion_energy": -25.81, 
			 "cosmo_repulsion_energy": 2.01, 
			 "cosmo_total_nonelectrostatic_energy": 11.12, 
			 "SMD_solvation_energy": 7.22 
		},
		"coords": [
			{
				"x": 1.1126889446,
				"y": -3.1788630928,
				"z": 3.8227370629,
				"element": "C" 
			},
			{
				"x": 1.5535297045,
				"y": -2.0160176345,
				"z": 2.9284397064,
				"element": "C" 
			},
			{
				"x": 0.4644865673,
				"y": -1.6021149646,
				"z": 1.9485699876,
				"element": "C" 
			},
			{
				"x": 0.9721096916,
				"y": -0.5186255018,
				"z": 1.1664584835,
				"element": "O" 
			},
			{
				"x": 0.1823574073,
				"y": 0.0411893229,
				"z": 0.2155657085,
				"element": "C" 
			},
			{
				"x": 0.759443896,
				"y": 1.1096497233,
				"z": -0.4884947898,
				"element": "C" 
			},
			{
				"x": 0.0302166019,
				"y": 1.7580446489,
				"z": -1.4743411995,
				"element": "C" 
			},
			{
				"x": -1.2863862214,
				"y": 1.3433243895,
				"z": -1.7980757989,
				"element": "C" 
			},
			{
				"x": -1.8361623474,
				"y": 0.272545088,
				"z": -1.0818161988,
				"element": "C" 
			},
			{
				"x": -1.1277729611,
				"y": -0.3782661381,
				"z": -0.0762660678,
				"element": "C" 
			},
			{
				"x": -1.9482545514,
				"y": 2.0029294528,
				"z": -2.9024129846,
				"element": "C" 
			},
			{
				"x": -1.4230939014,
				"y": 3.1220732558,
				"z": -3.4488259757,
				"element": "C" 
			},
			{
				"x": -0.2102539975,
				"y": 3.737676621,
				"z": -2.7899399819,
				"element": "C" 
			},
			{
				"x": 0.6394977424,
				"y": 2.7537568447,
				"z": -2.1725378583,
				"element": "O" 
			},
			{
				"x": -2.0300361265,
				"y": 3.9027149586,
				"z": -4.5492765628,
				"element": "C" 
			},
			{
				"x": -2.9705630192,
				"y": 3.2893395155,
				"z": -5.3208670322,
				"element": "O" 
			},
			{
				"x": -1.7267959847,
				"y": 5.0568768058,
				"z": -4.7667886476,
				"element": "O" 
			},
			{
				"x": 1.9095840289,
				"y": -3.4587583322,
				"z": 4.5175263872,
				"element": "H" 
			},
			{
				"x": 0.861732769,
				"y": -4.0669937295,
				"z": 3.2319691138,
				"element": "H" 
			},
			{
				"x": 0.2316003811,
				"y": -2.9154188349,
				"z": 4.4185723777,
				"element": "H" 
			},
			{
				"x": 1.8228163309,
				"y": -1.1465103518,
				"z": 3.5388120107,
				"element": "H" 
			},
			{
				"x": 2.4490356885,
				"y": -2.2908245045,
				"z": 2.3595158918,
				"element": "H" 
			},
			{
				"x": 0.1918623143,
				"y": -2.4413354995,
				"z": 1.2926544262,
				"element": "H" 
			},
			{
				"x": -0.4413300762,
				"y": -1.284173442,
				"z": 2.4844769702,
				"element": "H" 
			},
			{
				"x": 1.769641278,
				"y": 1.4258821046,
				"z": -0.2570611382,
				"element": "H" 
			},
			{
				"x": -2.8434458497,
				"y": -0.0582015498,
				"z": -1.3228220423,
				"element": "H" 
			},
			{
				"x": -1.5859006123,
				"y": -1.1990061569,
				"z": 0.4601773143,
				"element": "H" 
			},
			{
				"x": -2.8775143464,
				"y": 1.5667234533,
				"z": -3.2664340483,
				"element": "H" 
			},
			{
				"x": 0.4125349648,
				"y": 4.2577740385,
				"z": -3.5182007778,
				"element": "H" 
			},
			{
				"x": -0.5191611955,
				"y": 4.472910685,
				"z": -2.030494391,
				"element": "H" 
			},
			{
				"x": -2.9653671204,
				"y": 2.3374988251,
				"z": -5.1502199456,
				"element": "H" 
			}
		],
		 "valence_orbital": [ 
			{
				"type": "occ",
				"energy": -0.31123,
				"method": "rhf"
			},
			{
				"type": "occ",
				"energy": -0.28831,
				"method": "rhf"
			},
			{
				"type": "occ",
				"energy": -0.27003,
				"method": "rhf"
			},
			{
				"type": "occ",
				"energy": -0.23971,
				"method": "rhf"
			},
			{
				"type": "occ",
				"energy": -0.21373,
				"method": "rhf"
			},
			{
				"type": "unocc",
				"energy": -0.0657,
				"method": "rhf"
			},
			{
				"type": "unocc",
				"energy": -0.00603,
				"method": "rhf"
			},
			{
				"type": "unocc",
				"energy": 0.02331,
				"method": "rhf"
			},
			{
				"type": "unocc",
				"energy": 0.06,
				"method": "rhf"
			},
			{
				"type": "unocc",
				"energy": 0.0754,
				"method": "rhf"
			}
		],
		"cosmo_sigma_profile": { 
			"-0.025": 0.0,
			"-0.024": 0.0,
			"-0.023": 0.0,
			"-0.022": 0.0,
			"-0.021": 0.0,
			"-0.02": 0.0,
			"-0.019": 0.239541670639,
			"-0.018": 0.914784890092,
			"-0.017": 0.882515092662,
			"-0.016": 0.809747083128,
			"-0.015": 1.09091502617,
			"-0.014": 1.04190782301,
			"-0.013": 0.822446921276,
			"-0.012": 1.55734220247,
			"-0.011": 1.11592746195,
			"-0.01": 1.06399896544,
			"-0.009": 1.64100115352,
			"-0.008": 2.85837399011,
			"-0.007": 5.09395618137,
			"-0.006": 10.607719232,
			"-0.005": 16.8024532547,
			"-0.004": 19.2129104288,
			"-0.003": 26.8962315255,
			"-0.002": 22.4261606797,
			"-0.001": 22.5680319841,
			"0.0": 22.0428842001,
			"0.001": 21.5547995599,
			"0.002": 15.3388221665,
			"0.003": 19.2070341814,
			"0.004": 12.9818933576,
			"0.005": 7.17977709768,
			"0.006": 4.98487329005,
			"0.007": 5.58391942186,
			"0.008": 5.6172577061,
			"0.009": 5.05314394384,
			"0.01": 5.47177649271,
			"0.011": 5.35931727063,
			"0.012": 5.58843642242,
			"0.013": 2.34466259633,
			"0.014": 0.439005738301,
			"0.015": 0.0,
			"0.016": 0.0,
			"0.017": 0.0,
			"0.018": 0.0,
			"0.019": 0.0,
			"0.02": 0.0,
			"0.021": 0.0,
			"0.022": 0.0,
			"0.023": 0.0,
			"0.024": 0.0,
			"0.025": 0.0
		}
	}
}
