{
	 "smiles": "CCCCOC1=C(N)C=CC(=C1)C(=O)OCCN(CC)CC", 
	 "Tm": 489.65, 
	 "num_atms": 50, 
	 "gaussian": { 
		 "optdone": 1, 
		 "sigma_profile": "yes", 
		 "theory": "DFT", 
		 "functional": "B3LYP", 
		 "basiset": "6-31G**", 
		 "properties": { 
			 "R2extent": 12380.2217, 
			 "electric_dipole_moment_norm": 2.47894484408, 
			 "electric_quadrupole_moment_norm": 14.8237533864, 
			 "total_energy": -999.877950557, 
			 "HOMO_LUMO_gap": 0.17098, 
			 "cosmo_polarized_energy": -13.36, 
			 "cosmo_cavitation_energy": 50.91, 
			 "cosmo_dispersion_energy": -34.18, 
			 "cosmo_repulsion_energy": 2.67, 
			 "cosmo_total_nonelectrostatic_energy": 19.4, 
			 "SMD_solvation_energy": 7.82 
		},
		"coords": [
			{
				"x": -3.4585750926,
				"y": -5.5799189531,
				"z": -0.2545014463,
				"element": "C" 
			},
			{
				"x": -2.4766877172,
				"y": -4.4089994502,
				"z": -0.3796286362,
				"element": "C" 
			},
			{
				"x": -3.1263827637,
				"y": -3.0192553738,
				"z": -0.2748115096,
				"element": "C" 
			},
			{
				"x": -3.7242211589,
				"y": -2.7035700803,
				"z": 1.0980101169,
				"element": "C" 
			},
			{
				"x": -2.7639581721,
				"y": -2.7933661173,
				"z": 2.1574313241,
				"element": "O" 
			},
			{
				"x": -1.8850912529,
				"y": -1.7591810163,
				"z": 2.3716938809,
				"element": "C" 
			},
			{
				"x": -0.9343926244,
				"y": -2.0204487872,
				"z": 3.3956324016,
				"element": "C" 
			},
			{
				"x": -0.9258838679,
				"y": -3.2663820104,
				"z": 3.9951160064,
				"element": "N" 
			},
			{
				"x": -0.0131602403,
				"y": -1.0179604276,
				"z": 3.727749843,
				"element": "C" 
			},
			{
				"x": -0.0155053759,
				"y": 0.2075793961,
				"z": 3.0678024824,
				"element": "C" 
			},
			{
				"x": -0.9476113492,
				"y": 0.4552501517,
				"z": 2.0548576412,
				"element": "C" 
			},
			{
				"x": -1.8841989868,
				"y": -0.5406171863,
				"z": 1.7142196008,
				"element": "C" 
			},
			{
				"x": -1.0098923832,
				"y": 1.7291283826,
				"z": 1.3052521951,
				"element": "C" 
			},
			{
				"x": -1.8176252398,
				"y": 1.9728179864,
				"z": 0.4244722758,
				"element": "O" 
			},
			{
				"x": -0.0598932017,
				"y": 2.6174933685,
				"z": 1.7055583587,
				"element": "O" 
			},
			{
				"x": -0.0436442236,
				"y": 3.8916095089,
				"z": 1.0273358912,
				"element": "C" 
			},
			{
				"x": 0.8368482689,
				"y": 3.9021304913,
				"z": -0.2228901473,
				"element": "C" 
			},
			{
				"x": 2.2721294232,
				"y": 3.92461629,
				"z": 0.0495784926,
				"element": "N" 
			},
			{
				"x": 2.8132699375,
				"y": 2.6396014942,
				"z": 0.5361147734,
				"element": "C" 
			},
			{
				"x": 3.3124700462,
				"y": 2.709465164,
				"z": 1.9816538096,
				"element": "C" 
			},
			{
				"x": 3.0517776295,
				"y": 4.4990044506,
				"z": -1.0502588114,
				"element": "C" 
			},
			{
				"x": 4.4439670014,
				"y": 4.9603712997,
				"z": -0.6152870164,
				"element": "C" 
			},
			{
				"x": -4.2505075722,
				"y": -5.5179090734,
				"z": -1.0102780088,
				"element": "H" 
			},
			{
				"x": -2.945082976,
				"y": -6.5371232431,
				"z": -0.3910372133,
				"element": "H" 
			},
			{
				"x": -3.9400803997,
				"y": -5.6093923228,
				"z": 0.7288542346,
				"element": "H" 
			},
			{
				"x": -1.9620313368,
				"y": -4.4747600679,
				"z": -1.3458689929,
				"element": "H" 
			},
			{
				"x": -1.6995476649,
				"y": -4.4954879293,
				"z": 0.3886575151,
				"element": "H" 
			},
			{
				"x": -3.9344997626,
				"y": -2.9261737434,
				"z": -1.0138327103,
				"element": "H" 
			},
			{
				"x": -2.385501994,
				"y": -2.2531727822,
				"z": -0.5286646539,
				"element": "H" 
			},
			{
				"x": -4.4900137849,
				"y": -3.4366744239,
				"z": 1.3662293626,
				"element": "H" 
			},
			{
				"x": -4.2006775689,
				"y": -1.7157534265,
				"z": 1.1037853273,
				"element": "H" 
			},
			{
				"x": -1.7768836257,
				"y": -3.7984829153,
				"z": 3.884975144,
				"element": "H" 
			},
			{
				"x": -0.5076600575,
				"y": -3.3228775343,
				"z": 4.911609309,
				"element": "H" 
			},
			{
				"x": 0.7144421057,
				"y": -1.2134306327,
				"z": 4.5113417407,
				"element": "H" 
			},
			{
				"x": 0.704031155,
				"y": 0.9712417199,
				"z": 3.3371778438,
				"element": "H" 
			},
			{
				"x": -2.593689575,
				"y": -0.313191938,
				"z": 0.9287018093,
				"element": "H" 
			},
			{
				"x": -1.0690199144,
				"y": 4.1503009835,
				"z": 0.7534107031,
				"element": "H" 
			},
			{
				"x": 0.3445743111,
				"y": 4.6014870362,
				"z": 1.7610915873,
				"element": "H" 
			},
			{
				"x": 0.5283071709,
				"y": 3.0669846072,
				"z": -0.8776941635,
				"element": "H" 
			},
			{
				"x": 0.5849228617,
				"y": 4.8260787101,
				"z": -0.7570349591,
				"element": "H" 
			},
			{
				"x": 3.6352883987,
				"y": 2.3174217937,
				"z": -0.1183642091,
				"element": "H" 
			},
			{
				"x": 2.0446247802,
				"y": 1.8617256994,
				"z": 0.4595874451,
				"element": "H" 
			},
			{
				"x": 2.4952201615,
				"y": 2.9779075891,
				"z": 2.6569653419,
				"element": "H" 
			},
			{
				"x": 3.7152126202,
				"y": 1.7402154614,
				"z": 2.299358999,
				"element": "H" 
			},
			{
				"x": 4.100534304,
				"y": 3.4608649896,
				"z": 2.0902681766,
				"element": "H" 
			},
			{
				"x": 2.5025161947,
				"y": 5.3683725293,
				"z": -1.4294386104,
				"element": "H" 
			},
			{
				"x": 3.148750002,
				"y": 3.7963003166,
				"z": -1.9018829421,
				"element": "H" 
			},
			{
				"x": 5.0612155282,
				"y": 4.1272615275,
				"z": -0.2646256777,
				"element": "H" 
			},
			{
				"x": 4.3678039791,
				"y": 5.6899762865,
				"z": 0.1966810398,
				"element": "H" 
			},
			{
				"x": 4.9685140031,
				"y": 5.4260222014,
				"z": -1.4565749647,
				"element": "H" 
			}
		],
		 "valence_orbital": [ 
			{
				"type": "occ",
				"energy": -0.2832,
				"method": "rhf"
			},
			{
				"type": "occ",
				"energy": -0.26069,
				"method": "rhf"
			},
			{
				"type": "occ",
				"energy": -0.23257,
				"method": "rhf"
			},
			{
				"type": "occ",
				"energy": -0.20068,
				"method": "rhf"
			},
			{
				"type": "occ",
				"energy": -0.19611,
				"method": "rhf"
			},
			{
				"type": "unocc",
				"energy": -0.02513,
				"method": "rhf"
			},
			{
				"type": "unocc",
				"energy": 0.01117,
				"method": "rhf"
			},
			{
				"type": "unocc",
				"energy": 0.07351,
				"method": "rhf"
			},
			{
				"type": "unocc",
				"energy": 0.08203,
				"method": "rhf"
			},
			{
				"type": "unocc",
				"energy": 0.0876,
				"method": "rhf"
			}
		],
		"cosmo_sigma_profile": { 
			"-0.025": 0.0,
			"-0.024": 0.0,
			"-0.023": 0.0,
			"-0.022": 0.0,
			"-0.021": 0.0,
			"-0.02": 0.0,
			"-0.019": 0.0,
			"-0.018": 0.0,
			"-0.017": 0.0,
			"-0.016": 0.0,
			"-0.015": 0.0,
			"-0.014": 0.093004525742,
			"-0.013": 1.04037718212,
			"-0.012": 1.47637647148,
			"-0.011": 2.33305300708,
			"-0.01": 2.19273233451,
			"-0.009": 2.55280258666,
			"-0.008": 2.46306023004,
			"-0.007": 2.82330334059,
			"-0.006": 5.4378242992,
			"-0.005": 12.8861498825,
			"-0.004": 20.1749554893,
			"-0.003": 35.5558105003,
			"-0.002": 47.4633337358,
			"-0.001": 54.9225040888,
			"0.0": 54.9053408509,
			"0.001": 42.9232169098,
			"0.002": 27.517442582,
			"0.003": 18.5875367311,
			"0.004": 16.9340387611,
			"0.005": 14.3397976693,
			"0.006": 6.17897194007,
			"0.007": 4.15432327863,
			"0.008": 2.8881352523,
			"0.009": 2.61568992202,
			"0.01": 3.07819337215,
			"0.011": 3.22403584885,
			"0.012": 4.32227836273,
			"0.013": 3.40245496991,
			"0.014": 0.192945825485,
			"0.015": 0.00737400451453,
			"0.016": 0.0,
			"0.017": 0.0,
			"0.018": 0.0,
			"0.019": 0.0,
			"0.02": 0.0,
			"0.021": 0.0,
			"0.022": 0.0,
			"0.023": 0.0,
			"0.024": 0.0,
			"0.025": 0.0
		}
	}
}
