{
	 "smiles": "CC(C(=O)NC1=CC=C(C)C=C1)C1=CC=C(C)C=C1", 
	 "Tm": 378.15, 
	 "num_atms": 38, 
	 "gaussian": { 
		 "optdone": 1, 
		 "sigma_profile": "yes", 
		 "theory": "DFT", 
		 "functional": "B3LYP", 
		 "basiset": "6-31G**", 
		 "properties": { 
			 "R2extent": 6844.6843, 
			 "electric_dipole_moment_norm": 3.40367752145, 
			 "electric_quadrupole_moment_norm": 15.0722964494, 
			 "total_energy": -789.273823769, 
			 "HOMO_LUMO_gap": 0.20725, 
			 "cosmo_polarized_energy": -11.4, 
			 "cosmo_cavitation_energy": 40.58, 
			 "cosmo_dispersion_energy": -27.99, 
			 "cosmo_repulsion_energy": 2.18, 
			 "cosmo_total_nonelectrostatic_energy": 14.78, 
			 "SMD_solvation_energy": 7.43 
		},
		"coords": [
			{
				"x": -1.5328934558,
				"y": -0.9367757988,
				"z": 1.9958558919,
				"element": "C" 
			},
			{
				"x": -1.1442824653,
				"y": -0.3295998918,
				"z": 0.6307090913,
				"element": "C" 
			},
			{
				"x": -2.3392436601,
				"y": 0.4651519366,
				"z": 0.0938667591,
				"element": "C" 
			},
			{
				"x": -3.4807597606,
				"y": 0.0169982484,
				"z": 0.1347584241,
				"element": "O" 
			},
			{
				"x": -2.134315183,
				"y": 1.7336338591,
				"z": -0.4107868305,
				"element": "N" 
			},
			{
				"x": -0.9566014442,
				"y": 2.4997699326,
				"z": -0.6048626483,
				"element": "C" 
			},
			{
				"x": 0.1820499398,
				"y": 1.9750652971,
				"z": -1.2292848578,
				"element": "C" 
			},
			{
				"x": 1.3054536354,
				"y": 2.7786919164,
				"z": -1.4214152288,
				"element": "C" 
			},
			{
				"x": 1.3210446122,
				"y": 4.1246422136,
				"z": -1.0350189272,
				"element": "C" 
			},
			{
				"x": 2.5486579905,
				"y": 4.9818168402,
				"z": -1.2338247538,
				"element": "C" 
			},
			{
				"x": 0.1623724616,
				"y": 4.6451740064,
				"z": -0.4424151958,
				"element": "C" 
			},
			{
				"x": -0.9571193285,
				"y": 3.8476074934,
				"z": -0.2197997273,
				"element": "C" 
			},
			{
				"x": -0.7050135363,
				"y": -1.4173960666,
				"z": -0.3481637979,
				"element": "C" 
			},
			{
				"x": -1.6329699014,
				"y": -2.2465432311,
				"z": -0.9966354149,
				"element": "C" 
			},
			{
				"x": -1.2035057633,
				"y": -3.2636627971,
				"z": -1.8460208085,
				"element": "C" 
			},
			{
				"x": 0.1601082864,
				"y": -3.4970659596,
				"z": -2.0774947609,
				"element": "C" 
			},
			{
				"x": 0.6115896832,
				"y": -4.6154998061,
				"z": -2.9873283226,
				"element": "C" 
			},
			{
				"x": 1.0817399742,
				"y": -2.6685267061,
				"z": -1.4288251531,
				"element": "C" 
			},
			{
				"x": 0.6568665392,
				"y": -1.6453098982,
				"z": -0.5787029067,
				"element": "C" 
			},
			{
				"x": -0.7050419023,
				"y": -1.5339515411,
				"z": 2.3883413617,
				"element": "H" 
			},
			{
				"x": -1.7691982339,
				"y": -0.151048839,
				"z": 2.7211199338,
				"element": "H" 
			},
			{
				"x": -2.4117957178,
				"y": -1.5752641048,
				"z": 1.8880767415,
				"element": "H" 
			},
			{
				"x": -0.2997386758,
				"y": 0.3488714689,
				"z": 0.780971748,
				"element": "H" 
			},
			{
				"x": -3.0143510827,
				"y": 2.1915628102,
				"z": -0.618055589,
				"element": "H" 
			},
			{
				"x": 0.1808233021,
				"y": 0.9491819399,
				"z": -1.5805978929,
				"element": "H" 
			},
			{
				"x": 2.1803842392,
				"y": 2.3521146679,
				"z": -1.9058932037,
				"element": "H" 
			},
			{
				"x": 3.1941781558,
				"y": 4.9648057115,
				"z": -0.3464764332,
				"element": "H" 
			},
			{
				"x": 3.1491616109,
				"y": 4.6307648985,
				"z": -2.0783690442,
				"element": "H" 
			},
			{
				"x": 2.2822787371,
				"y": 6.0268065756,
				"z": -1.4197758287,
				"element": "H" 
			},
			{
				"x": 0.1376887972,
				"y": 5.6894718,
				"z": -0.1409089416,
				"element": "H" 
			},
			{
				"x": -1.8388861636,
				"y": 4.2653496516,
				"z": 0.2587445533,
				"element": "H" 
			},
			{
				"x": -2.6935009351,
				"y": -2.0803854452,
				"z": -0.8366229743,
				"element": "H" 
			},
			{
				"x": -1.9430360122,
				"y": -3.8888979733,
				"z": -2.34150953,
				"element": "H" 
			},
			{
				"x": 0.4332925054,
				"y": -5.5968836649,
				"z": -2.5308433683,
				"element": "H" 
			},
			{
				"x": 1.6803294084,
				"y": -4.5447413203,
				"z": -3.2087857722,
				"element": "H" 
			},
			{
				"x": 0.0689446214,
				"y": -4.6017330875,
				"z": -3.9388419338,
				"element": "H" 
			},
			{
				"x": 2.1461970368,
				"y": -2.8217701612,
				"z": -1.5903839298,
				"element": "H" 
			},
			{
				"x": 1.3965916846,
				"y": -1.0174249748,
				"z": -0.087000729,
				"element": "H" 
			}
		],
		 "valence_orbital": [ 
			{
				"type": "occ",
				"energy": -0.25696,
				"method": "rhf"
			},
			{
				"type": "occ",
				"energy": -0.2503,
				"method": "rhf"
			},
			{
				"type": "occ",
				"energy": -0.24409,
				"method": "rhf"
			},
			{
				"type": "occ",
				"energy": -0.23002,
				"method": "rhf"
			},
			{
				"type": "occ",
				"energy": -0.22159,
				"method": "rhf"
			},
			{
				"type": "unocc",
				"energy": -0.01434,
				"method": "rhf"
			},
			{
				"type": "unocc",
				"energy": -0.00984,
				"method": "rhf"
			},
			{
				"type": "unocc",
				"energy": 0.00179,
				"method": "rhf"
			},
			{
				"type": "unocc",
				"energy": 0.00456,
				"method": "rhf"
			},
			{
				"type": "unocc",
				"energy": 0.03701,
				"method": "rhf"
			}
		],
		"cosmo_sigma_profile": { 
			"-0.025": 0.0,
			"-0.024": 0.0,
			"-0.023": 0.0,
			"-0.022": 0.0,
			"-0.021": 0.0,
			"-0.02": 0.0,
			"-0.019": 0.0,
			"-0.018": 0.0,
			"-0.017": 0.0,
			"-0.016": 0.0,
			"-0.015": 0.0,
			"-0.014": 0.518084402647,
			"-0.013": 1.03313379237,
			"-0.012": 1.08388833207,
			"-0.011": 0.784042063686,
			"-0.01": 1.10076757637,
			"-0.009": 1.19019840191,
			"-0.008": 1.40850250421,
			"-0.007": 1.32019624112,
			"-0.006": 4.53000353936,
			"-0.005": 14.4371396254,
			"-0.004": 30.068045451,
			"-0.003": 36.284712142,
			"-0.002": 34.0051564818,
			"-0.001": 33.0339030356,
			"0.0": 36.8291976143,
			"0.001": 26.6546379145,
			"0.002": 19.1117338347,
			"0.003": 17.615516601,
			"0.004": 14.8563236605,
			"0.005": 17.5009965236,
			"0.006": 11.0210552803,
			"0.007": 2.36541638257,
			"0.008": 1.02928653977,
			"0.009": 1.9075425956,
			"0.01": 1.33608831438,
			"0.011": 1.26220919536,
			"0.012": 1.74769707937,
			"0.013": 3.74626506329,
			"0.014": 2.96833947376,
			"0.015": 0.0566268454323,
			"0.016": 0.0,
			"0.017": 0.0,
			"0.018": 0.0,
			"0.019": 0.0,
			"0.02": 0.0,
			"0.021": 0.0,
			"0.022": 0.0,
			"0.023": 0.0,
			"0.024": 0.0,
			"0.025": 0.0
		}
	}
}
