{
	 "smiles": "CCOC1=C(OCC2=CN=CC=C2)C=CC(=C1)C(O)=O", 
	 "Tm": 459.15, 
	 "num_atms": 35, 
	 "gaussian": { 
		 "optdone": 1, 
		 "sigma_profile": "yes", 
		 "theory": "DFT", 
		 "functional": "B3LYP", 
		 "basiset": "6-31G**", 
		 "properties": { 
			 "R2extent": 8214.3286, 
			 "electric_dipole_moment_norm": 3.47982190924, 
			 "electric_quadrupole_moment_norm": 35.9095248168, 
			 "total_energy": -936.26564475, 
			 "HOMO_LUMO_gap": 0.18646, 
			 "cosmo_polarized_energy": -20.98, 
			 "cosmo_cavitation_energy": 40.13, 
			 "cosmo_dispersion_energy": -27.89, 
			 "cosmo_repulsion_energy": 2.15, 
			 "cosmo_total_nonelectrostatic_energy": 14.39, 
			 "SMD_solvation_energy": 7.0 
		},
		"coords": [
			{
				"x": 2.6786496091,
				"y": 2.0522639387,
				"z": 2.9526540038,
				"element": "C" 
			},
			{
				"x": 1.8185654213,
				"y": 2.3793700547,
				"z": 1.7452912686,
				"element": "C" 
			},
			{
				"x": 1.2551439564,
				"y": 1.1536965583,
				"z": 1.2697953781,
				"element": "O" 
			},
			{
				"x": 0.4755192557,
				"y": 1.1763075979,
				"z": 0.1533943501,
				"element": "C" 
			},
			{
				"x": 0.0004133448,
				"y": -0.0775186776,
				"z": -0.3016603325,
				"element": "C" 
			},
			{
				"x": 0.3653577404,
				"y": -1.246389592,
				"z": 0.3133662292,
				"element": "O" 
			},
			{
				"x": -0.1376388016,
				"y": -1.4611787628,
				"z": 1.644089778,
				"element": "C" 
			},
			{
				"x": 0.2244884949,
				"y": -2.8577532779,
				"z": 2.0786324323,
				"element": "C" 
			},
			{
				"x": 0.5157007723,
				"y": -3.1269277337,
				"z": 3.4205733617,
				"element": "C" 
			},
			{
				"x": 0.7976153168,
				"y": -4.3422562049,
				"z": 3.9027102802,
				"element": "N" 
			},
			{
				"x": 0.8113248291,
				"y": -5.3575654827,
				"z": 3.0308388736,
				"element": "C" 
			},
			{
				"x": 0.5516822564,
				"y": -5.2031987716,
				"z": 1.6676336249,
				"element": "C" 
			},
			{
				"x": 0.2500227251,
				"y": -3.9323208836,
				"z": 1.1846881514,
				"element": "C" 
			},
			{
				"x": -0.8032534689,
				"y": -0.1404723951,
				"z": -1.4378492153,
				"element": "C" 
			},
			{
				"x": -1.1496940106,
				"y": 1.0140323455,
				"z": -2.136900831,
				"element": "C" 
			},
			{
				"x": -0.6772488606,
				"y": 2.2533635498,
				"z": -1.7016715507,
				"element": "C" 
			},
			{
				"x": 0.1280298517,
				"y": 2.3309986982,
				"z": -0.5510659765,
				"element": "C" 
			},
			{
				"x": -1.0781221019,
				"y": 3.4693366033,
				"z": -2.4779500018,
				"element": "C" 
			},
			{
				"x": -0.2752030089,
				"y": 4.5642872676,
				"z": -2.3529413267,
				"element": "O" 
			},
			{
				"x": -2.054104541,
				"y": 3.5168528888,
				"z": -3.1887504825,
				"element": "O" 
			},
			{
				"x": 3.1401922957,
				"y": 2.9654423426,
				"z": 3.3401619127,
				"element": "H" 
			},
			{
				"x": 3.4710325263,
				"y": 1.349346777,
				"z": 2.6822699717,
				"element": "H" 
			},
			{
				"x": 2.0763367979,
				"y": 1.6060831718,
				"z": 3.7488616149,
				"element": "H" 
			},
			{
				"x": 1.0150663597,
				"y": 3.0796500649,
				"z": 2.0134306637,
				"element": "H" 
			},
			{
				"x": 2.4193417728,
				"y": 2.8405767013,
				"z": 0.9489652276,
				"element": "H" 
			},
			{
				"x": -1.2305280781,
				"y": -1.3329572755,
				"z": 1.6316261138,
				"element": "H" 
			},
			{
				"x": 0.2810393208,
				"y": -0.7225613857,
				"z": 2.3343547519,
				"element": "H" 
			},
			{
				"x": 0.5233440341,
				"y": -2.3131149725,
				"z": 4.1461899873,
				"element": "H" 
			},
			{
				"x": 1.0463141449,
				"y": -6.338741566,
				"z": 3.4398140202,
				"element": "H" 
			},
			{
				"x": 0.5862929467,
				"y": -6.0607980445,
				"z": 1.0027944435,
				"element": "H" 
			},
			{
				"x": 0.051291532,
				"y": -3.7631933229,
				"z": 0.1315187354,
				"element": "H" 
			},
			{
				"x": -1.1451204105,
				"y": -1.1177859063,
				"z": -1.7629090965,
				"element": "H" 
			},
			{
				"x": -1.7836145148,
				"y": 0.97257154,
				"z": -3.0150933922,
				"element": "H" 
			},
			{
				"x": 0.4481725098,
				"y": 3.2968314338,
				"z": -0.1767340843,
				"element": "H" 
			},
			{
				"x": 0.5543899824,
				"y": 4.3145227212,
				"z": -1.9231288847,
				"element": "H" 
			}
		],
		 "valence_orbital": [ 
			{
				"type": "occ",
				"energy": -0.27287,
				"method": "rhf"
			},
			{
				"type": "occ",
				"energy": -0.26572,
				"method": "rhf"
			},
			{
				"type": "occ",
				"energy": -0.25851,
				"method": "rhf"
			},
			{
				"type": "occ",
				"energy": -0.25526,
				"method": "rhf"
			},
			{
				"type": "occ",
				"energy": -0.2351,
				"method": "rhf"
			},
			{
				"type": "unocc",
				"energy": -0.04864,
				"method": "rhf"
			},
			{
				"type": "unocc",
				"energy": -0.02699,
				"method": "rhf"
			},
			{
				"type": "unocc",
				"energy": -0.01537,
				"method": "rhf"
			},
			{
				"type": "unocc",
				"energy": -0.01394,
				"method": "rhf"
			},
			{
				"type": "unocc",
				"energy": 0.0477,
				"method": "rhf"
			}
		],
		"cosmo_sigma_profile": { 
			"-0.025": 0.0,
			"-0.024": 0.0,
			"-0.023": 0.0,
			"-0.022": 0.0,
			"-0.021": 0.0,
			"-0.02": 0.0,
			"-0.019": 0.0747413531825,
			"-0.018": 0.65928001256,
			"-0.017": 0.835870627724,
			"-0.016": 1.29129780823,
			"-0.015": 0.992546699454,
			"-0.014": 0.691327960608,
			"-0.013": 0.836347419465,
			"-0.012": 1.32676260851,
			"-0.011": 1.07006145553,
			"-0.01": 1.22782614936,
			"-0.009": 1.50515488467,
			"-0.008": 1.81898549976,
			"-0.007": 7.28610522128,
			"-0.006": 18.4338281222,
			"-0.005": 25.2482438196,
			"-0.004": 28.2947393605,
			"-0.003": 23.5391092314,
			"-0.002": 24.4029804939,
			"-0.001": 20.8005715365,
			"0.0": 22.791072541,
			"0.001": 20.1773222841,
			"0.002": 28.3875894856,
			"0.003": 22.7735120002,
			"0.004": 9.31385271775,
			"0.005": 6.87063150694,
			"0.006": 6.07027677772,
			"0.007": 4.84884537094,
			"0.008": 6.98977960733,
			"0.009": 7.10603395942,
			"0.01": 5.89177343225,
			"0.011": 6.12949697033,
			"0.012": 6.19216186825,
			"0.013": 2.71338343821,
			"0.014": 0.983106188864,
			"0.015": 1.00881508156,
			"0.016": 0.790569474612,
			"0.017": 0.443507275495,
			"0.018": 0.0,
			"0.019": 0.0,
			"0.02": 0.0,
			"0.021": 0.0,
			"0.022": 0.0,
			"0.023": 0.0,
			"0.024": 0.0,
			"0.025": 0.0
		}
	}
}
