{
	 "smiles": "COC1=CC=C(C=O)C=C1[N+]([O-])=O", 
	 "Tm": 372.15, 
	 "num_atms": 20, 
	 "gaussian": { 
		 "optdone": 1, 
		 "sigma_profile": "yes", 
		 "theory": "DFT", 
		 "functional": "B3LYP", 
		 "basiset": "6-31G**", 
		 "properties": { 
			 "R2extent": 2721.0749, 
			 "electric_dipole_moment_norm": 7.2677774388, 
			 "electric_quadrupole_moment_norm": 9.71308215501, 
			 "total_energy": -664.584394221, 
			 "HOMO_LUMO_gap": 0.17323, 
			 "cosmo_polarized_energy": -16.27, 
			 "cosmo_cavitation_energy": 25.83, 
			 "cosmo_dispersion_energy": -18.57, 
			 "cosmo_repulsion_energy": 1.47, 
			 "cosmo_total_nonelectrostatic_energy": 8.73, 
			 "SMD_solvation_energy": 8.71 
		},
		"coords": [
			{
				"x": -0.0698941914,
				"y": -2.1598160695,
				"z": -2.8998940841,
				"element": "C" 
			},
			{
				"x": 0.7895749476,
				"y": -1.6121891202,
				"z": -1.9023336948,
				"element": "O" 
			},
			{
				"x": 0.2514326998,
				"y": -1.0052838335,
				"z": -0.8338710247,
				"element": "C" 
			},
			{
				"x": -1.1323957594,
				"y": -0.8693736287,
				"z": -0.6244057999,
				"element": "C" 
			},
			{
				"x": -1.6165460978,
				"y": -0.2608850253,
				"z": 0.5281091579,
				"element": "C" 
			},
			{
				"x": -0.7463840047,
				"y": 0.2158046603,
				"z": 1.5151923922,
				"element": "C" 
			},
			{
				"x": -1.2700885265,
				"y": 0.8561361464,
				"z": 2.739956705,
				"element": "C" 
			},
			{
				"x": -0.5776449607,
				"y": 1.2983284381,
				"z": 3.636026797,
				"element": "O" 
			},
			{
				"x": 0.6335300652,
				"y": 0.0750839014,
				"z": 1.3260398725,
				"element": "C" 
			},
			{
				"x": 1.1246681715,
				"y": -0.506570572,
				"z": 0.1693301108,
				"element": "C" 
			},
			{
				"x": 2.5878611912,
				"y": -0.5757901087,
				"z": 0.0229382109,
				"element": "N" 
			},
			{
				"x": 3.0608328599,
				"y": -0.5020729832,
				"z": -1.1069373065,
				"element": "O" 
			},
			{
				"x": 3.2434157502,
				"y": -0.6717314537,
				"z": 1.0608622352,
				"element": "O" 
			},
			{
				"x": -0.7162627503,
				"y": -2.9417996082,
				"z": -2.4849843303,
				"element": "H" 
			},
			{
				"x": -0.6840836832,
				"y": -1.3813674322,
				"z": -3.3663813028,
				"element": "H" 
			},
			{
				"x": 0.5944862107,
				"y": -2.5936550724,
				"z": -3.6466924895,
				"element": "H" 
			},
			{
				"x": -1.8284879042,
				"y": -1.2431259922,
				"z": -1.3642845105,
				"element": "H" 
			},
			{
				"x": -2.6905092867,
				"y": -0.1598727966,
				"z": 0.6662135567,
				"element": "H" 
			},
			{
				"x": -2.3804858827,
				"y": 0.9102312868,
				"z": 2.7925883485,
				"element": "H" 
			},
			{
				"x": 1.3216811515,
				"y": 0.4265492637,
				"z": 2.0860271565,
				"element": "H" 
			}
		],
		 "valence_orbital": [ 
			{
				"type": "occ",
				"energy": -0.30647,
				"method": "rhf"
			},
			{
				"type": "occ",
				"energy": -0.29942,
				"method": "rhf"
			},
			{
				"type": "occ",
				"energy": -0.28068,
				"method": "rhf"
			},
			{
				"type": "occ",
				"energy": -0.26513,
				"method": "rhf"
			},
			{
				"type": "occ",
				"energy": -0.25878,
				"method": "rhf"
			},
			{
				"type": "unocc",
				"energy": -0.08555,
				"method": "rhf"
			},
			{
				"type": "unocc",
				"energy": -0.07142,
				"method": "rhf"
			},
			{
				"type": "unocc",
				"energy": -0.02009,
				"method": "rhf"
			},
			{
				"type": "unocc",
				"energy": 0.0318,
				"method": "rhf"
			},
			{
				"type": "unocc",
				"energy": 0.06311,
				"method": "rhf"
			}
		],
		"cosmo_sigma_profile": { 
			"-0.025": 0.0,
			"-0.024": 0.0,
			"-0.023": 0.0,
			"-0.022": 0.0,
			"-0.021": 0.0,
			"-0.02": 0.0,
			"-0.019": 0.0,
			"-0.018": 0.0,
			"-0.017": 0.0,
			"-0.016": 0.0,
			"-0.015": 0.0,
			"-0.014": 0.0,
			"-0.013": 0.0,
			"-0.012": 0.0,
			"-0.011": 0.0,
			"-0.01": 0.00068948180107,
			"-0.009": 2.49146127577,
			"-0.008": 8.07518389591,
			"-0.007": 14.1059584816,
			"-0.006": 17.3511275884,
			"-0.005": 15.0541502814,
			"-0.004": 13.5003659708,
			"-0.003": 13.2362842398,
			"-0.002": 12.5934662051,
			"-0.001": 16.032728428,
			"0.0": 15.3919841274,
			"0.001": 10.4090450727,
			"0.002": 6.08617375321,
			"0.003": 4.06099875814,
			"0.004": 4.9365813234,
			"0.005": 5.10024290855,
			"0.006": 4.80021535807,
			"0.007": 9.30241548414,
			"0.008": 11.6703066564,
			"0.009": 8.20632022141,
			"0.01": 6.41235732217,
			"0.011": 5.28501252836,
			"0.012": 2.43036636536,
			"0.013": 0.55038162213,
			"0.014": 0.0,
			"0.015": 0.0,
			"0.016": 0.0,
			"0.017": 0.0,
			"0.018": 0.0,
			"0.019": 0.0,
			"0.02": 0.0,
			"0.021": 0.0,
			"0.022": 0.0,
			"0.023": 0.0,
			"0.024": 0.0,
			"0.025": 0.0
		}
	}
}
