{
	 "smiles": "NS(=O)(=O)CC1=C(Br)C=C(C=C1)[N+]([O-])=O", 
	 "Tm": 474.15, 
	 "num_atms": 22, 
	 "gaussian": { 
		 "optdone": 1, 
		 "sigma_profile": "yes", 
		 "theory": "DFT", 
		 "functional": "B3LYP", 
		 "basiset": "6-31G**", 
		 "properties": { 
			 "R2extent": 6764.9424, 
			 "electric_dipole_moment_norm": 2.37168381114, 
			 "electric_quadrupole_moment_norm": 22.1310756438, 
			 "total_energy": -3650.78730603, 
			 "HOMO_LUMO_gap": 0.16873, 
			 "cosmo_polarized_energy": -18.93, 
			 "cosmo_cavitation_energy": 30.86, 
			 "cosmo_dispersion_energy": -22.87, 
			 "cosmo_repulsion_energy": 1.75, 
			 "cosmo_total_nonelectrostatic_energy": 9.74, 
			 "SMD_solvation_energy": 6.06 
		},
		"coords": [
			{
				"x": 3.4431338149,
				"y": 0.9501088439,
				"z": -0.8920266473,
				"element": "N" 
			},
			{
				"x": 2.8633249659,
				"y": 1.7758177097,
				"z": -2.2452988914,
				"element": "S" 
			},
			{
				"x": 3.977399272,
				"y": 2.0390339155,
				"z": -3.1586435584,
				"element": "O" 
			},
			{
				"x": 1.9908304543,
				"y": 2.8473733948,
				"z": -1.7552455362,
				"element": "O" 
			},
			{
				"x": 1.8165112547,
				"y": 0.5199944557,
				"z": -3.0631055053,
				"element": "C" 
			},
			{
				"x": 0.7172017549,
				"y": -0.0199228957,
				"z": -2.1954375021,
				"element": "C" 
			},
			{
				"x": 0.7429408094,
				"y": -1.3127521879,
				"z": -1.6417985801,
				"element": "C" 
			},
			{
				"x": 2.1971329214,
				"y": -2.5091297383,
				"z": -1.965706616,
				"element": "Br" 
			},
			{
				"x": -0.2974151096,
				"y": -1.7834105086,
				"z": -0.8458914242,
				"element": "C" 
			},
			{
				"x": -1.3739943796,
				"y": -0.9395698582,
				"z": -0.5954161469,
				"element": "C" 
			},
			{
				"x": -1.4426985491,
				"y": 0.3493849773,
				"z": -1.115926212,
				"element": "C" 
			},
			{
				"x": -0.3941623455,
				"y": 0.7927603161,
				"z": -1.9128030499,
				"element": "C" 
			},
			{
				"x": -2.4765823291,
				"y": -1.435931313,
				"z": 0.2480597742,
				"element": "N" 
			},
			{
				"x": -2.381892383,
				"y": -2.5774689137,
				"z": 0.6947938739,
				"element": "O" 
			},
			{
				"x": -3.4198745967,
				"y": -0.6740354094,
				"z": 0.4501991492,
				"element": "O" 
			},
			{
				"x": 3.2306370452,
				"y": 1.481932637,
				"z": -0.052429249,
				"element": "H" 
			},
			{
				"x": 4.4398271984,
				"y": 0.7746569003,
				"z": -0.9862441093,
				"element": "H" 
			},
			{
				"x": 2.498187878,
				"y": -0.2560794831,
				"z": -3.4102113246,
				"element": "H" 
			},
			{
				"x": 1.4192352622,
				"y": 1.0552835477,
				"z": -3.9303181591,
				"element": "H" 
			},
			{
				"x": -0.2841008571,
				"y": -2.7793473718,
				"z": -0.4245628971,
				"element": "H" 
			},
			{
				"x": -2.298702287,
				"y": 0.9741094084,
				"z": -0.8960324599,
				"element": "H" 
			},
			{
				"x": -0.4165397947,
				"y": 1.7989915734,
				"z": -2.3169549283,
				"element": "H" 
			}
		],
		 "valence_orbital": [ 
			{
				"type": "occ",
				"energy": -0.31092,
				"method": "rhf"
			},
			{
				"type": "occ",
				"energy": -0.30786,
				"method": "rhf"
			},
			{
				"type": "occ",
				"energy": -0.30337,
				"method": "rhf"
			},
			{
				"type": "occ",
				"energy": -0.2904,
				"method": "rhf"
			},
			{
				"type": "occ",
				"energy": -0.27355,
				"method": "rhf"
			},
			{
				"type": "unocc",
				"energy": -0.10482,
				"method": "rhf"
			},
			{
				"type": "unocc",
				"energy": -0.04639,
				"method": "rhf"
			},
			{
				"type": "unocc",
				"energy": -0.02652,
				"method": "rhf"
			},
			{
				"type": "unocc",
				"energy": -0.02,
				"method": "rhf"
			},
			{
				"type": "unocc",
				"energy": 0.04174,
				"method": "rhf"
			}
		],
		"cosmo_sigma_profile": { 
			"-0.025": 0.0,
			"-0.024": 0.0,
			"-0.023": 0.0,
			"-0.022": 0.0,
			"-0.021": 0.0,
			"-0.02": 0.0,
			"-0.019": 0.0,
			"-0.018": 0.0,
			"-0.017": 0.0,
			"-0.016": 0.078937360191,
			"-0.015": 1.82637269695,
			"-0.014": 2.00604248254,
			"-0.013": 3.19100130741,
			"-0.012": 2.30236153041,
			"-0.011": 1.90147132204,
			"-0.01": 4.76943066635,
			"-0.009": 4.08960366665,
			"-0.008": 6.89066158757,
			"-0.007": 12.827454603,
			"-0.006": 10.7770490608,
			"-0.005": 11.6306587367,
			"-0.004": 12.3196936968,
			"-0.003": 13.1023951151,
			"-0.002": 16.1864638615,
			"-0.001": 20.7881187554,
			"0.0": 16.1735783334,
			"0.001": 11.8382687708,
			"0.002": 10.0691277747,
			"0.003": 11.6597908288,
			"0.004": 8.46713742167,
			"0.005": 8.0352839359,
			"0.006": 8.32800897653,
			"0.007": 14.2035228258,
			"0.008": 9.10676936315,
			"0.009": 7.1443824117,
			"0.01": 8.79307942311,
			"0.011": 9.53199824082,
			"0.012": 1.94481782815,
			"0.013": 0.0,
			"0.014": 0.0,
			"0.015": 0.0,
			"0.016": 0.0,
			"0.017": 0.0,
			"0.018": 0.0,
			"0.019": 0.0,
			"0.02": 0.0,
			"0.021": 0.0,
			"0.022": 0.0,
			"0.023": 0.0,
			"0.024": 0.0,
			"0.025": 0.0
		}
	}
}
