{
	 "smiles": "NC(CC1=CC=CC=C1)C(=O)NC1=CC=CC=C1", 
	 "Tm": 350.15, 
	 "num_atms": 34, 
	 "gaussian": { 
		 "optdone": 1, 
		 "sigma_profile": "yes", 
		 "theory": "DFT", 
		 "functional": "B3LYP", 
		 "basiset": "6-31G**", 
		 "properties": { 
			 "R2extent": 5257.0647, 
			 "electric_dipole_moment_norm": 3.59321133667, 
			 "electric_quadrupole_moment_norm": 7.99852960987, 
			 "total_energy": -765.980436346, 
			 "HOMO_LUMO_gap": 0.20596, 
			 "cosmo_polarized_energy": -14.57, 
			 "cosmo_cavitation_energy": 37.67, 
			 "cosmo_dispersion_energy": -25.3, 
			 "cosmo_repulsion_energy": 1.99, 
			 "cosmo_total_nonelectrostatic_energy": 14.35, 
			 "SMD_solvation_energy": 6.08 
		},
		"coords": [
			{
				"x": -1.2517586807,
				"y": 2.9542658545,
				"z": -0.039654739,
				"element": "N" 
			},
			{
				"x": -0.5705975459,
				"y": 1.777077871,
				"z": 0.4888143893,
				"element": "C" 
			},
			{
				"x": -1.5522910783,
				"y": 0.9294443173,
				"z": 1.3513536978,
				"element": "C" 
			},
			{
				"x": -2.6056122013,
				"y": 0.2129353377,
				"z": 0.5353837357,
				"element": "C" 
			},
			{
				"x": -3.7223206282,
				"y": 0.8923087438,
				"z": 0.0269069078,
				"element": "C" 
			},
			{
				"x": -4.6778365225,
				"y": 0.2194150663,
				"z": -0.7349239161,
				"element": "C" 
			},
			{
				"x": -4.5345859507,
				"y": -1.143989654,
				"z": -1.0028604747,
				"element": "C" 
			},
			{
				"x": -3.4264292154,
				"y": -1.8300293397,
				"z": -0.5042684495,
				"element": "C" 
			},
			{
				"x": -2.4716526148,
				"y": -1.1545782334,
				"z": 0.258248615,
				"element": "C" 
			},
			{
				"x": 0.624697516,
				"y": 2.1752018597,
				"z": 1.3796879999,
				"element": "C" 
			},
			{
				"x": 0.6418287323,
				"y": 3.2597417044,
				"z": 1.950892271,
				"element": "O" 
			},
			{
				"x": 1.637945529,
				"y": 1.2656938587,
				"z": 1.5992062102,
				"element": "N" 
			},
			{
				"x": 1.8344145466,
				"y": -0.0329085294,
				"z": 1.050524793,
				"element": "C" 
			},
			{
				"x": 1.9790344796,
				"y": -0.2232439993,
				"z": -0.3300144025,
				"element": "C" 
			},
			{
				"x": 2.1850780642,
				"y": -1.504545815,
				"z": -0.841603355,
				"element": "C" 
			},
			{
				"x": 2.2841356699,
				"y": -2.6001775903,
				"z": 0.0179970305,
				"element": "C" 
			},
			{
				"x": 2.1710248133,
				"y": -2.4085089966,
				"z": 1.3966001319,
				"element": "C" 
			},
			{
				"x": 1.9387692438,
				"y": -1.1333434485,
				"z": 1.9119870407,
				"element": "C" 
			},
			{
				"x": -0.7315290456,
				"y": 3.3247093994,
				"z": -0.8314310196,
				"element": "H" 
			},
			{
				"x": -1.2015009552,
				"y": 3.6748202297,
				"z": 0.6811640431,
				"element": "H" 
			},
			{
				"x": -0.2397186175,
				"y": 1.1555496742,
				"z": -0.3457344803,
				"element": "H" 
			},
			{
				"x": -0.9800648331,
				"y": 0.1929796447,
				"z": 1.9258808783,
				"element": "H" 
			},
			{
				"x": -2.0156816035,
				"y": 1.6089399956,
				"z": 2.0766547054,
				"element": "H" 
			},
			{
				"x": -3.8248417273,
				"y": 1.9548567557,
				"z": 0.2189229812,
				"element": "H" 
			},
			{
				"x": -5.5378416049,
				"y": 0.7610938571,
				"z": -1.1195540879,
				"element": "H" 
			},
			{
				"x": -5.2818910435,
				"y": -1.6671333623,
				"z": -1.5930676507,
				"element": "H" 
			},
			{
				"x": -3.3060558471,
				"y": -2.8914379999,
				"z": -0.7039724924,
				"element": "H" 
			},
			{
				"x": -1.6112861039,
				"y": -1.6955530575,
				"z": 0.6461019859,
				"element": "H" 
			},
			{
				"x": 2.2690203665,
				"y": 1.5613058911,
				"z": 2.3351612854,
				"element": "H" 
			},
			{
				"x": 1.9485285133,
				"y": 0.6349052034,
				"z": -0.9936930461,
				"element": "H" 
			},
			{
				"x": 2.2879335092,
				"y": -1.6420223849,
				"z": -1.9139079099,
				"element": "H" 
			},
			{
				"x": 2.4553388076,
				"y": -3.5945946068,
				"z": -0.3827540869,
				"element": "H" 
			},
			{
				"x": 2.2528008763,
				"y": -3.2537901236,
				"z": 2.0736057774,
				"element": "H" 
			},
			{
				"x": 1.8307451518,
				"y": -0.9821881231,
				"z": 2.982345631,
				"element": "H" 
			}
		],
		 "valence_orbital": [ 
			{
				"type": "occ",
				"energy": -0.26239,
				"method": "rhf"
			},
			{
				"type": "occ",
				"energy": -0.24405,
				"method": "rhf"
			},
			{
				"type": "occ",
				"energy": -0.24023,
				"method": "rhf"
			},
			{
				"type": "occ",
				"energy": -0.23436,
				"method": "rhf"
			},
			{
				"type": "occ",
				"energy": -0.22805,
				"method": "rhf"
			},
			{
				"type": "unocc",
				"energy": -0.02209,
				"method": "rhf"
			},
			{
				"type": "unocc",
				"energy": -0.01875,
				"method": "rhf"
			},
			{
				"type": "unocc",
				"energy": 0.00578,
				"method": "rhf"
			},
			{
				"type": "unocc",
				"energy": 0.01088,
				"method": "rhf"
			},
			{
				"type": "unocc",
				"energy": 0.02811,
				"method": "rhf"
			}
		],
		"cosmo_sigma_profile": { 
			"-0.025": 0.0,
			"-0.024": 0.0,
			"-0.023": 0.0,
			"-0.022": 0.0,
			"-0.021": 0.0,
			"-0.02": 0.0,
			"-0.019": 0.0,
			"-0.018": 0.0,
			"-0.017": 0.0,
			"-0.016": 0.0,
			"-0.015": 0.00421187891566,
			"-0.014": 0.651214132687,
			"-0.013": 1.07581800792,
			"-0.012": 0.874527440137,
			"-0.011": 1.00872311586,
			"-0.01": 2.84769173195,
			"-0.009": 2.05362065879,
			"-0.008": 2.48460886891,
			"-0.007": 7.23666950042,
			"-0.006": 15.1304026737,
			"-0.005": 20.1525766274,
			"-0.004": 23.1623948995,
			"-0.003": 28.3450204197,
			"-0.002": 25.7480244663,
			"-0.001": 22.4600075561,
			"0.0": 19.91118527,
			"0.001": 17.2939686931,
			"0.002": 18.1893411383,
			"0.003": 18.6328718617,
			"0.004": 18.6997476456,
			"0.005": 14.0184352269,
			"0.006": 9.89195856358,
			"0.007": 7.96554420867,
			"0.008": 2.91190174432,
			"0.009": 1.27042542558,
			"0.01": 2.38375026022,
			"0.011": 2.94853068971,
			"0.012": 3.20179314279,
			"0.013": 5.38430483781,
			"0.014": 2.71535435583,
			"0.015": 0.00442434164943,
			"0.016": 0.0,
			"0.017": 0.0,
			"0.018": 0.0,
			"0.019": 0.0,
			"0.02": 0.0,
			"0.021": 0.0,
			"0.022": 0.0,
			"0.023": 0.0,
			"0.024": 0.0,
			"0.025": 0.0
		}
	}
}
