{
	 "smiles": "NNC1=C2C=C(SC2=NC=N1)C1=CC=CC=C1", 
	 "Tm": 537.15, 
	 "num_atms": 27, 
	 "gaussian": { 
		 "optdone": 1, 
		 "sigma_profile": "yes", 
		 "theory": "DFT", 
		 "functional": "B3LYP", 
		 "basiset": "6-31G**", 
		 "properties": { 
			 "R2extent": 5962.0873, 
			 "electric_dipole_moment_norm": 3.08341422777, 
			 "electric_quadrupole_moment_norm": 10.1975323701, 
			 "total_energy": -1080.47651027, 
			 "HOMO_LUMO_gap": 0.15701, 
			 "cosmo_polarized_energy": -13.8, 
			 "cosmo_cavitation_energy": 33.04, 
			 "cosmo_dispersion_energy": -25.03, 
			 "cosmo_repulsion_energy": 1.87, 
			 "cosmo_total_nonelectrostatic_energy": 9.88, 
			 "SMD_solvation_energy": 2.7 
		},
		"coords": [
			{
				"x": -3.8192529646,
				"y": -0.7619854761,
				"z": 1.4367388036,
				"element": "N" 
			},
			{
				"x": -2.6076618434,
				"y": -0.1787246655,
				"z": 1.0115803813,
				"element": "N" 
			},
			{
				"x": -1.441004389,
				"y": -0.334401938,
				"z": 1.7111393975,
				"element": "C" 
			},
			{
				"x": -0.192620355,
				"y": 0.0925197833,
				"z": 1.1768406577,
				"element": "C" 
			},
			{
				"x": 0.1720668307,
				"y": 0.7164523079,
				"z": -0.0587217062,
				"element": "C" 
			},
			{
				"x": 1.5158583484,
				"y": 0.9645750244,
				"z": -0.1656102679,
				"element": "C" 
			},
			{
				"x": 2.3944816705,
				"y": 0.4280853564,
				"z": 1.2743690398,
				"element": "S" 
			},
			{
				"x": 0.9080892716,
				"y": -0.1249069326,
				"z": 2.0235549932,
				"element": "C" 
			},
			{
				"x": 0.8605272566,
				"y": -0.6791035513,
				"z": 3.2418424208,
				"element": "N" 
			},
			{
				"x": -0.3671103332,
				"y": -1.0293652331,
				"z": 3.6156823568,
				"element": "C" 
			},
			{
				"x": -1.5123396079,
				"y": -0.8930256612,
				"z": 2.9255413215,
				"element": "N" 
			},
			{
				"x": 2.2283373814,
				"y": 1.5894900703,
				"z": -1.2878599313,
				"element": "C" 
			},
			{
				"x": 3.4203526269,
				"y": 2.3096100013,
				"z": -1.0912744695,
				"element": "C" 
			},
			{
				"x": 4.0773879583,
				"y": 2.9073197678,
				"z": -2.1649056276,
				"element": "C" 
			},
			{
				"x": 3.5566437772,
				"y": 2.8039514537,
				"z": -3.4559840608,
				"element": "C" 
			},
			{
				"x": 2.3747240063,
				"y": 2.0894550139,
				"z": -3.6657951036,
				"element": "C" 
			},
			{
				"x": 1.7210187196,
				"y": 1.4826846457,
				"z": -2.5964387774,
				"element": "C" 
			},
			{
				"x": -3.5924261526,
				"y": -1.6480882559,
				"z": 1.8903374195,
				"element": "H" 
			},
			{
				"x": -4.1946808789,
				"y": -0.1725993758,
				"z": 2.1787878111,
				"element": "H" 
			},
			{
				"x": -2.5508740107,
				"y": -0.0491603468,
				"z": 0.0128288999,
				"element": "H" 
			},
			{
				"x": -0.5319693269,
				"y": 1.0162235015,
				"z": -0.826710213,
				"element": "H" 
			},
			{
				"x": -0.4606084113,
				"y": -1.4858920275,
				"z": 4.5989957921,
				"element": "H" 
			},
			{
				"x": 3.8231357252,
				"y": 2.417998387,
				"z": -0.0884397408,
				"element": "H" 
			},
			{
				"x": 4.9948921193,
				"y": 3.4615574095,
				"z": -1.9899281309,
				"element": "H" 
			},
			{
				"x": 4.0690567018,
				"y": 3.2709892311,
				"z": -4.2917535655,
				"element": "H" 
			},
			{
				"x": 1.9675029269,
				"y": 1.9923659368,
				"z": -4.6681121753,
				"element": "H" 
			},
			{
				"x": 0.8226729529,
				"y": 0.8998755732,
				"z": -2.7751055249,
				"element": "H" 
			}
		],
		 "valence_orbital": [ 
			{
				"type": "occ",
				"energy": -0.26164,
				"method": "rhf"
			},
			{
				"type": "occ",
				"energy": -0.25945,
				"method": "rhf"
			},
			{
				"type": "occ",
				"energy": -0.25632,
				"method": "rhf"
			},
			{
				"type": "occ",
				"energy": -0.25137,
				"method": "rhf"
			},
			{
				"type": "occ",
				"energy": -0.21058,
				"method": "rhf"
			},
			{
				"type": "unocc",
				"energy": -0.05357,
				"method": "rhf"
			},
			{
				"type": "unocc",
				"energy": -0.0156,
				"method": "rhf"
			},
			{
				"type": "unocc",
				"energy": -0.01142,
				"method": "rhf"
			},
			{
				"type": "unocc",
				"energy": -0.00108,
				"method": "rhf"
			},
			{
				"type": "unocc",
				"energy": 0.02241,
				"method": "rhf"
			}
		],
		"cosmo_sigma_profile": { 
			"-0.025": 0.0,
			"-0.024": 0.0,
			"-0.023": 0.0,
			"-0.022": 0.0,
			"-0.021": 0.0,
			"-0.02": 0.0,
			"-0.019": 0.0,
			"-0.018": 0.0,
			"-0.017": 0.0,
			"-0.016": 0.0,
			"-0.015": 0.168537292845,
			"-0.014": 1.24472885596,
			"-0.013": 1.64597459997,
			"-0.012": 1.10603037129,
			"-0.011": 3.36450982452,
			"-0.01": 3.11645257051,
			"-0.009": 4.33368299693,
			"-0.008": 3.88244818193,
			"-0.007": 6.41065277001,
			"-0.006": 13.4101445321,
			"-0.005": 14.9922491406,
			"-0.004": 16.4835747511,
			"-0.003": 14.9324335139,
			"-0.002": 12.271292216,
			"-0.001": 15.5593373387,
			"0.0": 20.1443041869,
			"0.001": 27.3203897598,
			"0.002": 26.1332150928,
			"0.003": 23.8589276346,
			"0.004": 18.5262513181,
			"0.005": 13.6337156806,
			"0.006": 4.13547231887,
			"0.007": 2.82514053608,
			"0.008": 2.92508787896,
			"0.009": 2.52965484534,
			"0.01": 2.50718207708,
			"0.011": 2.20919121744,
			"0.012": 2.31289975725,
			"0.013": 1.60808026062,
			"0.014": 1.89598863407,
			"0.015": 0.998253897187,
			"0.016": 0.757276057803,
			"0.017": 0.164827134267,
			"0.018": 0.0,
			"0.019": 0.0,
			"0.02": 0.0,
			"0.021": 0.0,
			"0.022": 0.0,
			"0.023": 0.0,
			"0.024": 0.0,
			"0.025": 0.0
		}
	}
}
