{
	 "smiles": "CN1C=C(C(=N1)C(O)=O)[N+]([O-])=O", 
	 "Tm": 436.15, 
	 "num_atms": 17, 
	 "gaussian": { 
		 "optdone": 1, 
		 "sigma_profile": "yes", 
		 "theory": "DFT", 
		 "functional": "B3LYP", 
		 "basiset": "6-31G**", 
		 "properties": { 
			 "R2extent": 2490.5709, 
			 "electric_dipole_moment_norm": 9.19394304148, 
			 "electric_quadrupole_moment_norm": 15.9539318884, 
			 "total_energy": -658.567836926, 
			 "HOMO_LUMO_gap": 0.18492, 
			 "cosmo_polarized_energy": -22.25, 
			 "cosmo_cavitation_energy": 23.21, 
			 "cosmo_dispersion_energy": -17.05, 
			 "cosmo_repulsion_energy": 1.38, 
			 "cosmo_total_nonelectrostatic_energy": 7.53, 
			 "SMD_solvation_energy": 7.37 
		},
		"coords": [
			{
				"x": 1.8827140557,
				"y": -2.0295949277,
				"z": 1.108788744,
				"element": "C" 
			},
			{
				"x": 1.3244703213,
				"y": -1.1422397144,
				"z": 0.0981253921,
				"element": "N" 
			},
			{
				"x": 1.4010263952,
				"y": -1.2548747235,
				"z": -1.2441353718,
				"element": "C" 
			},
			{
				"x": 0.7197321468,
				"y": -0.167919124,
				"z": -1.7647698726,
				"element": "C" 
			},
			{
				"x": 0.2453719653,
				"y": 0.561797069,
				"z": -0.6439167678,
				"element": "C" 
			},
			{
				"x": 0.6254317737,
				"y": -0.0560005088,
				"z": 0.4779088812,
				"element": "N" 
			},
			{
				"x": -0.6293725943,
				"y": 1.7740585424,
				"z": -0.5003944489,
				"element": "C" 
			},
			{
				"x": -0.7088640445,
				"y": 2.2217212469,
				"z": 0.7721803805,
				"element": "O" 
			},
			{
				"x": -1.2293128167,
				"y": 2.2950205897,
				"z": -1.4038416255,
				"element": "O" 
			},
			{
				"x": 0.6458602556,
				"y": 0.0874143858,
				"z": -3.1841262925,
				"element": "N" 
			},
			{
				"x": 0.3390638392,
				"y": 1.2104912186,
				"z": -3.5606756929,
				"element": "O" 
			},
			{
				"x": 0.9339685477,
				"y": -0.8665032953,
				"z": -3.9165277082,
				"element": "O" 
			},
			{
				"x": 2.5893982995,
				"y": -1.4787246019,
				"z": 1.7331400969,
				"element": "H" 
			},
			{
				"x": 1.0794329732,
				"y": -2.4260693386,
				"z": 1.7332470635,
				"element": "H" 
			},
			{
				"x": 2.3975102682,
				"y": -2.8500855742,
				"z": 0.6086022196,
				"element": "H" 
			},
			{
				"x": 1.9177702406,
				"y": -2.0563750444,
				"z": -1.7480479166,
				"element": "H" 
			},
			{
				"x": -0.1922016266,
				"y": 1.6297838003,
				"z": 1.3466429191,
				"element": "H" 
			}
		],
		 "valence_orbital": [ 
			{
				"type": "occ",
				"energy": -0.30998,
				"method": "rhf"
			},
			{
				"type": "occ",
				"energy": -0.30618,
				"method": "rhf"
			},
			{
				"type": "occ",
				"energy": -0.30254,
				"method": "rhf"
			},
			{
				"type": "occ",
				"energy": -0.2933,
				"method": "rhf"
			},
			{
				"type": "occ",
				"energy": -0.2736,
				"method": "rhf"
			},
			{
				"type": "unocc",
				"energy": -0.08868,
				"method": "rhf"
			},
			{
				"type": "unocc",
				"energy": -0.05369,
				"method": "rhf"
			},
			{
				"type": "unocc",
				"energy": 0.00817,
				"method": "rhf"
			},
			{
				"type": "unocc",
				"energy": 0.05603,
				"method": "rhf"
			},
			{
				"type": "unocc",
				"energy": 0.08203,
				"method": "rhf"
			}
		],
		"cosmo_sigma_profile": { 
			"-0.025": 0.0,
			"-0.024": 0.0,
			"-0.023": 0.0,
			"-0.022": 0.0,
			"-0.021": 0.0,
			"-0.02": 0.0,
			"-0.019": 0.0,
			"-0.018": 0.0,
			"-0.017": 0.0,
			"-0.016": 0.0,
			"-0.015": 0.425312035213,
			"-0.014": 0.446510626358,
			"-0.013": 0.696293296744,
			"-0.012": 3.03320216531,
			"-0.011": 3.21145508888,
			"-0.01": 2.94782653214,
			"-0.009": 3.37969726532,
			"-0.008": 6.0789649451,
			"-0.007": 10.0526897502,
			"-0.006": 11.6517585621,
			"-0.005": 17.2901482337,
			"-0.004": 14.5295494999,
			"-0.003": 13.6764119966,
			"-0.002": 9.34459642862,
			"-0.001": 6.28384219809,
			"0.0": 4.55789173677,
			"0.001": 4.66488538183,
			"0.002": 4.84963998204,
			"0.003": 4.75066974422,
			"0.004": 5.44271031918,
			"0.005": 4.86617099795,
			"0.006": 5.81436699231,
			"0.007": 8.57501365327,
			"0.008": 11.642185096,
			"0.009": 9.30090880783,
			"0.01": 7.68099680321,
			"0.011": 5.71404795868,
			"0.012": 4.65888744471,
			"0.013": 0.744956648775,
			"0.014": 0.0,
			"0.015": 0.0,
			"0.016": 0.0,
			"0.017": 0.0,
			"0.018": 0.0,
			"0.019": 0.0,
			"0.02": 0.0,
			"0.021": 0.0,
			"0.022": 0.0,
			"0.023": 0.0,
			"0.024": 0.0,
			"0.025": 0.0
		}
	}
}
