{
	 "smiles": "FC(F)(F)C1=CC(=CC=C1)N1C=CNC1=S", 
	 "Tm": 431.15, 
	 "num_atms": 23, 
	 "gaussian": { 
		 "optdone": 1, 
		 "sigma_profile": "yes", 
		 "theory": "DFT", 
		 "functional": "B3LYP", 
		 "basiset": "6-31G**", 
		 "properties": { 
			 "R2extent": 4583.4035, 
			 "electric_dipole_moment_norm": 7.04826472687, 
			 "electric_quadrupole_moment_norm": 21.1458899848, 
			 "total_energy": -1192.50164732, 
			 "HOMO_LUMO_gap": 0.15566, 
			 "cosmo_polarized_energy": -19.02, 
			 "cosmo_cavitation_energy": 30.79, 
			 "cosmo_dispersion_energy": -21.96, 
			 "cosmo_repulsion_energy": 1.6, 
			 "cosmo_total_nonelectrostatic_energy": 10.43, 
			 "SMD_solvation_energy": 6.1 
		},
		"coords": [
			{
				"x": 0.0164899982,
				"y": 0.7319326557,
				"z": 3.4089793827,
				"element": "F" 
			},
			{
				"x": 0.7762986968,
				"y": 0.6611718214,
				"z": 2.2910860944,
				"element": "C" 
			},
			{
				"x": 1.4528632081,
				"y": 1.8271825572,
				"z": 2.2045558494,
				"element": "F" 
			},
			{
				"x": 1.686516145,
				"y": -0.3167220336,
				"z": 2.4796426416,
				"element": "F" 
			},
			{
				"x": -0.0688248647,
				"y": 0.418920345,
				"z": 1.066968851,
				"element": "C" 
			},
			{
				"x": 0.429558938,
				"y": -0.364814196,
				"z": 0.0273016813,
				"element": "C" 
			},
			{
				"x": -0.3472090209,
				"y": -0.5456809649,
				"z": -1.1204165624,
				"element": "C" 
			},
			{
				"x": -1.6065505162,
				"y": 0.0534211981,
				"z": -1.2236576181,
				"element": "C" 
			},
			{
				"x": -2.0973187115,
				"y": 0.8246670678,
				"z": -0.1701092431,
				"element": "C" 
			},
			{
				"x": -1.3314567958,
				"y": 1.0130210904,
				"z": 0.9776560886,
				"element": "C" 
			},
			{
				"x": 0.1147790553,
				"y": -1.3723439557,
				"z": -2.184691635,
				"element": "N" 
			},
			{
				"x": -0.6931914349,
				"y": -2.3125821934,
				"z": -2.8373309129,
				"element": "C" 
			},
			{
				"x": 0.0442946302,
				"y": -2.876327225,
				"z": -3.8196717523,
				"element": "C" 
			},
			{
				"x": 1.2935415227,
				"y": -2.2789805728,
				"z": -3.768474099,
				"element": "N" 
			},
			{
				"x": 1.3756840397,
				"y": -1.3375432317,
				"z": -2.7732289664,
				"element": "C" 
			},
			{
				"x": 2.7087133844,
				"y": -0.3851141462,
				"z": -2.4278198628,
				"element": "S" 
			},
			{
				"x": 1.404402275,
				"y": -0.8270830099,
				"z": 0.1022388579,
				"element": "H" 
			},
			{
				"x": -2.1902323426,
				"y": -0.0718040017,
				"z": -2.1300203873,
				"element": "H" 
			},
			{
				"x": -3.0765281165,
				"y": 1.2855790299,
				"z": -0.2521685719,
				"element": "H" 
			},
			{
				"x": -1.7078454102,
				"y": 1.6097795663,
				"z": 1.8011424515,
				"element": "H" 
			},
			{
				"x": -1.7000311561,
				"y": -2.512300933,
				"z": -2.5104843249,
				"element": "H" 
			},
			{
				"x": -0.2024852756,
				"y": -3.650639637,
				"z": -4.5275886592,
				"element": "H" 
			},
			{
				"x": 2.0821317517,
				"y": -2.4618392309,
				"z": -4.3692093031,
				"element": "H" 
			}
		],
		 "valence_orbital": [ 
			{
				"type": "occ",
				"energy": -0.29481,
				"method": "rhf"
			},
			{
				"type": "occ",
				"energy": -0.2769,
				"method": "rhf"
			},
			{
				"type": "occ",
				"energy": -0.26686,
				"method": "rhf"
			},
			{
				"type": "occ",
				"energy": -0.20674,
				"method": "rhf"
			},
			{
				"type": "occ",
				"energy": -0.195,
				"method": "rhf"
			},
			{
				"type": "unocc",
				"energy": -0.03934,
				"method": "rhf"
			},
			{
				"type": "unocc",
				"energy": -0.02906,
				"method": "rhf"
			},
			{
				"type": "unocc",
				"energy": 0.00983,
				"method": "rhf"
			},
			{
				"type": "unocc",
				"energy": 0.01638,
				"method": "rhf"
			},
			{
				"type": "unocc",
				"energy": 0.06581,
				"method": "rhf"
			}
		],
		"cosmo_sigma_profile": { 
			"-0.025": 0.0,
			"-0.024": 0.0,
			"-0.023": 0.0,
			"-0.022": 0.0,
			"-0.021": 0.0,
			"-0.02": 0.0,
			"-0.019": 0.0,
			"-0.018": 0.0,
			"-0.017": 0.894493688423,
			"-0.016": 1.27058380719,
			"-0.015": 1.07100917289,
			"-0.014": 0.838358694415,
			"-0.013": 1.17078830705,
			"-0.012": 0.912886090189,
			"-0.011": 1.6093851053,
			"-0.01": 4.54897446604,
			"-0.009": 4.53279060555,
			"-0.008": 6.76109175035,
			"-0.007": 10.7036443298,
			"-0.006": 11.3652404801,
			"-0.005": 10.0787668534,
			"-0.004": 8.03736995359,
			"-0.003": 11.030240052,
			"-0.002": 11.9970510172,
			"-0.001": 16.2241897766,
			"0.0": 17.4752325177,
			"0.001": 23.0740519166,
			"0.002": 31.3360287057,
			"0.003": 33.9959987677,
			"0.004": 4.30304341173,
			"0.005": 3.74811281759,
			"0.006": 3.48773083278,
			"0.007": 4.37283111366,
			"0.008": 3.22080208646,
			"0.009": 5.32976285863,
			"0.01": 4.18283263748,
			"0.011": 6.17405362976,
			"0.012": 6.05261768057,
			"0.013": 0.872496245623,
			"0.014": 0.0,
			"0.015": 0.0,
			"0.016": 0.0,
			"0.017": 0.0,
			"0.018": 0.0,
			"0.019": 0.0,
			"0.02": 0.0,
			"0.021": 0.0,
			"0.022": 0.0,
			"0.023": 0.0,
			"0.024": 0.0,
			"0.025": 0.0
		}
	}
}
