{
	 "smiles": "OC(=O)C1=CC2=C(C=CC=C2)C(=O)N1", 
	 "Tm": 592.15, 
	 "num_atms": 21, 
	 "gaussian": { 
		 "optdone": 1, 
		 "sigma_profile": "yes", 
		 "theory": "DFT", 
		 "functional": "B3LYP", 
		 "basiset": "6-31G**", 
		 "properties": { 
			 "R2extent": 3115.7277, 
			 "electric_dipole_moment_norm": 4.57702299972, 
			 "electric_quadrupole_moment_norm": 10.8904557898, 
			 "total_energy": -665.75113502, 
			 "HOMO_LUMO_gap": 0.14928, 
			 "cosmo_polarized_energy": -14.93, 
			 "cosmo_cavitation_energy": 26.09, 
			 "cosmo_dispersion_energy": -19.53, 
			 "cosmo_repulsion_energy": 1.5, 
			 "cosmo_total_nonelectrostatic_energy": 8.07, 
			 "SMD_solvation_energy": 6.17 
		},
		"coords": [
			{
				"x": -3.0704453733,
				"y": -2.7393732522,
				"z": 1.5070320639,
				"element": "O" 
			},
			{
				"x": -2.9194198767,
				"y": -1.4046449338,
				"z": 1.6305701724,
				"element": "C" 
			},
			{
				"x": -3.5946824033,
				"y": -0.7208897232,
				"z": 2.3768412944,
				"element": "O" 
			},
			{
				"x": -1.8499719301,
				"y": -0.8487715987,
				"z": 0.7685159046,
				"element": "C" 
			},
			{
				"x": -1.0730578386,
				"y": -1.575454344,
				"z": -0.0784045549,
				"element": "C" 
			},
			{
				"x": -0.0673924594,
				"y": -0.9064311594,
				"z": -0.8607722649,
				"element": "C" 
			},
			{
				"x": 0.0907547417,
				"y": 0.4980707133,
				"z": -0.7303216699,
				"element": "C" 
			},
			{
				"x": 1.0632326329,
				"y": 1.1716045632,
				"z": -1.4819488082,
				"element": "C" 
			},
			{
				"x": 1.8780452525,
				"y": 0.4689674959,
				"z": -2.3590342541,
				"element": "C" 
			},
			{
				"x": 1.7290715313,
				"y": -0.9219087142,
				"z": -2.4951578981,
				"element": "C" 
			},
			{
				"x": 0.7714556743,
				"y": -1.601587335,
				"z": -1.7581210523,
				"element": "C" 
			},
			{
				"x": -0.7598932561,
				"y": 1.280186417,
				"z": 0.194463364,
				"element": "C" 
			},
			{
				"x": -0.6836908236,
				"y": 2.4919755493,
				"z": 0.3617071227,
				"element": "O" 
			},
			{
				"x": -1.6904513706,
				"y": 0.5157760836,
				"z": 0.8899571474,
				"element": "N" 
			},
			{
				"x": -3.7895368827,
				"y": -2.9876558535,
				"z": 2.1111377863,
				"element": "H" 
			},
			{
				"x": -1.2162284426,
				"y": -2.6454436295,
				"z": -0.1571939485,
				"element": "H" 
			},
			{
				"x": 1.1522689439,
				"y": 2.2450964951,
				"z": -1.3533290982,
				"element": "H" 
			},
			{
				"x": 2.6309738863,
				"y": 0.9921046951,
				"z": -2.9407110292,
				"element": "H" 
			},
			{
				"x": 2.3683390338,
				"y": -1.4686262182,
				"z": -3.182389262,
				"element": "H" 
			},
			{
				"x": 0.657236832,
				"y": -2.6768942759,
				"z": -1.8642677455,
				"element": "H" 
			},
			{
				"x": -2.3003078718,
				"y": 1.0023990253,
				"z": 1.53842673,
				"element": "H" 
			}
		],
		 "valence_orbital": [ 
			{
				"type": "occ",
				"energy": -0.30194,
				"method": "rhf"
			},
			{
				"type": "occ",
				"energy": -0.28822,
				"method": "rhf"
			},
			{
				"type": "occ",
				"energy": -0.26481,
				"method": "rhf"
			},
			{
				"type": "occ",
				"energy": -0.25679,
				"method": "rhf"
			},
			{
				"type": "occ",
				"energy": -0.22269,
				"method": "rhf"
			},
			{
				"type": "unocc",
				"energy": -0.07341,
				"method": "rhf"
			},
			{
				"type": "unocc",
				"energy": -0.04097,
				"method": "rhf"
			},
			{
				"type": "unocc",
				"energy": 0.00752,
				"method": "rhf"
			},
			{
				"type": "unocc",
				"energy": 0.05036,
				"method": "rhf"
			},
			{
				"type": "unocc",
				"energy": 0.06122,
				"method": "rhf"
			}
		],
		"cosmo_sigma_profile": { 
			"-0.025": 0.0,
			"-0.024": 0.0,
			"-0.023": 0.0,
			"-0.022": 0.0,
			"-0.021": 0.0,
			"-0.02": 0.0,
			"-0.019": 0.796460366435,
			"-0.018": 1.12452280529,
			"-0.017": 0.754396554427,
			"-0.016": 0.632787038337,
			"-0.015": 0.867022363663,
			"-0.014": 0.414631934955,
			"-0.013": 1.10076450766,
			"-0.012": 1.16426537722,
			"-0.011": 1.5526476336,
			"-0.01": 1.52284994857,
			"-0.009": 1.62350482865,
			"-0.008": 3.18955016704,
			"-0.007": 6.86653980468,
			"-0.006": 11.1495214154,
			"-0.005": 11.5567735572,
			"-0.004": 13.1695879747,
			"-0.003": 13.4615811477,
			"-0.002": 13.2257976527,
			"-0.001": 15.1640607862,
			"0.0": 15.85792812,
			"0.001": 17.9703270254,
			"0.002": 16.4951713715,
			"0.003": 14.3776751326,
			"0.004": 8.28923719647,
			"0.005": 3.9546568067,
			"0.006": 4.14822334715,
			"0.007": 3.71675641055,
			"0.008": 1.98492329245,
			"0.009": 2.8570925202,
			"0.01": 5.55628214746,
			"0.011": 4.3868956452,
			"0.012": 2.553589817,
			"0.013": 4.95234357155,
			"0.014": 3.09106078522,
			"0.015": 0.108619533144,
			"0.016": 0.0,
			"0.017": 0.0,
			"0.018": 0.0,
			"0.019": 0.0,
			"0.02": 0.0,
			"0.021": 0.0,
			"0.022": 0.0,
			"0.023": 0.0,
			"0.024": 0.0,
			"0.025": 0.0
		}
	}
}
