{
	 "smiles": "CC1(C)C(CCC1(C)C(O)=O)C(Br)C(Br)C1=CC=CC=C1", 
	 "Tm": 434.15, 
	 "num_atms": 43, 
	 "gaussian": { 
		 "optdone": 1, 
		 "sigma_profile": "yes", 
		 "theory": "DFT", 
		 "functional": "B3LYP", 
		 "basiset": "6-31G**", 
		 "properties": { 
			 "R2extent": 8840.9808, 
			 "electric_dipole_moment_norm": 2.84150734294, 
			 "electric_quadrupole_moment_norm": 7.79834341832, 
			 "total_energy": -5954.33741281, 
			 "HOMO_LUMO_gap": 0.2108, 
			 "cosmo_polarized_energy": -11.55, 
			 "cosmo_cavitation_energy": 43.52, 
			 "cosmo_dispersion_energy": -30.25, 
			 "cosmo_repulsion_energy": 2.26, 
			 "cosmo_total_nonelectrostatic_energy": 15.52, 
			 "SMD_solvation_energy": 5.77 
		},
		"coords": [
			{
				"x": 1.5945815313,
				"y": -0.9494566183,
				"z": -1.5935822748,
				"element": "C" 
			},
			{
				"x": 1.0349636485,
				"y": 0.0464348151,
				"z": -0.5590300562,
				"element": "C" 
			},
			{
				"x": 1.250785195,
				"y": -0.5544025197,
				"z": 0.8392916105,
				"element": "C" 
			},
			{
				"x": -0.4492942406,
				"y": 0.5025637143,
				"z": -0.8290718186,
				"element": "C" 
			},
			{
				"x": -0.602710307,
				"y": 1.8258321455,
				"z": -0.0359730871,
				"element": "C" 
			},
			{
				"x": 0.7998383533,
				"y": 2.4722866916,
				"z": -0.021153358,
				"element": "C" 
			},
			{
				"x": 1.7881128807,
				"y": 1.4607250725,
				"z": -0.6675519352,
				"element": "C" 
			},
			{
				"x": 3.165826219,
				"y": 1.4936010387,
				"z": 0.0169454564,
				"element": "C" 
			},
			{
				"x": 1.9347669478,
				"y": 1.8253281825,
				"z": -2.1493886651,
				"element": "C" 
			},
			{
				"x": 3.15597398,
				"y": 1.5365235646,
				"z": -2.6616173586,
				"element": "O" 
			},
			{
				"x": 1.0681424884,
				"y": 2.3219777746,
				"z": -2.8428171879,
				"element": "O" 
			},
			{
				"x": -1.7230197495,
				"y": -0.3783758591,
				"z": -0.7280430215,
				"element": "C" 
			},
			{
				"x": -1.5060725243,
				"y": -2.1581663853,
				"z": -1.6808037789,
				"element": "Br" 
			},
			{
				"x": -2.5409788468,
				"y": -0.7028378614,
				"z": 0.5566668503,
				"element": "C" 
			},
			{
				"x": -3.7472219719,
				"y": 0.8733989984,
				"z": 0.9327789408,
				"element": "Br" 
			},
			{
				"x": -1.8853222994,
				"y": -1.2164741574,
				"z": 1.8217396891,
				"element": "C" 
			},
			{
				"x": -1.660260368,
				"y": -2.5993835409,
				"z": 1.9189632225,
				"element": "C" 
			},
			{
				"x": -1.0519206285,
				"y": -3.1453199314,
				"z": 3.0497533405,
				"element": "C" 
			},
			{
				"x": -0.6775031751,
				"y": -2.3218057559,
				"z": 4.1120319302,
				"element": "C" 
			},
			{
				"x": -0.9240362839,
				"y": -0.9502110946,
				"z": 4.0364678089,
				"element": "C" 
			},
			{
				"x": -1.5251360461,
				"y": -0.4028627558,
				"z": 2.9029536101,
				"element": "C" 
			},
			{
				"x": 1.2479520837,
				"y": -1.9628906592,
				"z": -1.3919583703,
				"element": "H" 
			},
			{
				"x": 1.2961700978,
				"y": -0.6983028191,
				"z": -2.6159775479,
				"element": "H" 
			},
			{
				"x": 2.6887610831,
				"y": -0.9563330138,
				"z": -1.5549790695,
				"element": "H" 
			},
			{
				"x": 0.6597129214,
				"y": -1.465504433,
				"z": 0.9481603917,
				"element": "H" 
			},
			{
				"x": 0.9665860973,
				"y": 0.1235703929,
				"z": 1.6475807796,
				"element": "H" 
			},
			{
				"x": 2.29961256,
				"y": -0.8299839483,
				"z": 0.9827399761,
				"element": "H" 
			},
			{
				"x": -0.4447470812,
				"y": 0.7852200258,
				"z": -1.8861151542,
				"element": "H" 
			},
			{
				"x": -1.3557852388,
				"y": 2.4720607224,
				"z": -0.4927388161,
				"element": "H" 
			},
			{
				"x": -0.9348697078,
				"y": 1.6312474174,
				"z": 0.9843024312,
				"element": "H" 
			},
			{
				"x": 1.1159122307,
				"y": 2.6801795929,
				"z": 1.0054111086,
				"element": "H" 
			},
			{
				"x": 0.8097307267,
				"y": 3.4221576906,
				"z": -0.5595583731,
				"element": "H" 
			},
			{
				"x": 3.6473704706,
				"y": 2.4625997132,
				"z": -0.147524471,
				"element": "H" 
			},
			{
				"x": 3.0618091319,
				"y": 1.3548621346,
				"z": 1.0949079466,
				"element": "H" 
			},
			{
				"x": 3.8406689648,
				"y": 0.7265695088,
				"z": -0.3700675474,
				"element": "H" 
			},
			{
				"x": 3.1124749797,
				"y": 1.7899547022,
				"z": -3.599430671,
				"element": "H" 
			},
			{
				"x": -2.4489096965,
				"y": 0.0855266574,
				"z": -1.39338333,
				"element": "H" 
			},
			{
				"x": -3.2842827392,
				"y": -1.4310462952,
				"z": 0.2407990803,
				"element": "H" 
			},
			{
				"x": -1.953036225,
				"y": -3.2477943731,
				"z": 1.0995267042,
				"element": "H" 
			},
			{
				"x": -0.8836575858,
				"y": -4.2170471892,
				"z": 3.1027721587,
				"element": "H" 
			},
			{
				"x": -0.2129877885,
				"y": -2.7466447186,
				"z": 4.9970750511,
				"element": "H" 
			},
			{
				"x": -0.6573212291,
				"y": -0.3019929425,
				"z": 4.8662566438,
				"element": "H" 
			},
			{
				"x": -1.7429788583,
				"y": 0.6588163159,
				"z": 2.8711411612,
				"element": "H" 
			}
		],
		 "valence_orbital": [ 
			{
				"type": "occ",
				"energy": -0.27547,
				"method": "rhf"
			},
			{
				"type": "occ",
				"energy": -0.27045,
				"method": "rhf"
			},
			{
				"type": "occ",
				"energy": -0.26862,
				"method": "rhf"
			},
			{
				"type": "occ",
				"energy": -0.25736,
				"method": "rhf"
			},
			{
				"type": "occ",
				"energy": -0.25105,
				"method": "rhf"
			},
			{
				"type": "unocc",
				"energy": -0.04025,
				"method": "rhf"
			},
			{
				"type": "unocc",
				"energy": -0.01928,
				"method": "rhf"
			},
			{
				"type": "unocc",
				"energy": -0.01125,
				"method": "rhf"
			},
			{
				"type": "unocc",
				"energy": 0.00586,
				"method": "rhf"
			},
			{
				"type": "unocc",
				"energy": 0.01505,
				"method": "rhf"
			}
		],
		"cosmo_sigma_profile": { 
			"-0.025": 0.0,
			"-0.024": 0.0,
			"-0.023": 0.0,
			"-0.022": 0.0,
			"-0.021": 0.0,
			"-0.02": 0.0,
			"-0.019": 0.0,
			"-0.018": 0.598341799827,
			"-0.017": 0.884494385768,
			"-0.016": 0.817334174482,
			"-0.015": 0.508835293809,
			"-0.014": 0.538446341622,
			"-0.013": 0.690043933022,
			"-0.012": 0.918377398374,
			"-0.011": 0.740372417789,
			"-0.01": 0.720268260142,
			"-0.009": 0.603169350925,
			"-0.008": 1.16564759225,
			"-0.007": 4.65784904399,
			"-0.006": 10.5941926368,
			"-0.005": 13.7765059653,
			"-0.004": 21.8327388065,
			"-0.003": 34.3926278491,
			"-0.002": 33.1182175493,
			"-0.001": 33.5664994481,
			"0.0": 32.6627244158,
			"0.001": 32.0887122932,
			"0.002": 27.6468890538,
			"0.003": 24.1223247113,
			"0.004": 25.9080323203,
			"0.005": 18.4223058981,
			"0.006": 8.94996202959,
			"0.007": 2.4250612761,
			"0.008": 3.36562042502,
			"0.009": 1.64116793085,
			"0.01": 1.51072019876,
			"0.011": 2.6457376912,
			"0.012": 4.03010087079,
			"0.013": 0.339462346186,
			"0.014": 0.0,
			"0.015": 0.0,
			"0.016": 0.0,
			"0.017": 0.0,
			"0.018": 0.0,
			"0.019": 0.0,
			"0.02": 0.0,
			"0.021": 0.0,
			"0.022": 0.0,
			"0.023": 0.0,
			"0.024": 0.0,
			"0.025": 0.0
		}
	}
}
