{
	 "smiles": "CC1(C)C2CC1C(=C)CC2", 
	 "Tm": 211.95, 
	 "num_atms": 26, 
	 "gaussian": { 
		 "optdone": 1, 
		 "sigma_profile": "yes", 
		 "theory": "DFT", 
		 "functional": "B3LYP", 
		 "basiset": "6-31G**", 
		 "properties": { 
			 "R2extent": 1399.1241, 
			 "electric_dipole_moment_norm": 0.637926328035, 
			 "electric_quadrupole_moment_norm": 1.75614056385, 
			 "total_energy": -390.670460989, 
			 "HOMO_LUMO_gap": 0.25765, 
			 "cosmo_polarized_energy": -1.84, 
			 "cosmo_cavitation_energy": 25.15, 
			 "cosmo_dispersion_energy": -18.37, 
			 "cosmo_repulsion_energy": 1.46, 
			 "cosmo_total_nonelectrostatic_energy": 8.24, 
			 "SMD_solvation_energy": 4.34 
		},
		"coords": [
			{
				"x": -0.5824118184,
				"y": -0.6851299075,
				"z": 2.1415836552,
				"element": "C" 
			},
			{
				"x": 0.2710007376,
				"y": -0.2047554171,
				"z": 0.9573817732,
				"element": "C" 
			},
			{
				"x": 1.3670493861,
				"y": 0.7180047946,
				"z": 1.4955778699,
				"element": "C" 
			},
			{
				"x": 0.6611222673,
				"y": -1.3811648436,
				"z": -0.0070467963,
				"element": "C" 
			},
			{
				"x": -0.7119687861,
				"y": -1.1807436585,
				"z": -0.7082132404,
				"element": "C" 
			},
			{
				"x": -0.6198008139,
				"y": 0.3062164063,
				"z": -0.2461504482,
				"element": "C" 
			},
			{
				"x": 0.2395910031,
				"y": 1.0803034351,
				"z": -1.2150570367,
				"element": "C" 
			},
			{
				"x": 0.0350485098,
				"y": 2.3680860927,
				"z": -1.5056696675,
				"element": "C" 
			},
			{
				"x": 1.3598781951,
				"y": 0.2543804916,
				"z": -1.8401688324,
				"element": "C" 
			},
			{
				"x": 1.7868223587,
				"y": -0.9624530182,
				"z": -0.9683616034,
				"element": "C" 
			},
			{
				"x": -1.0355923414,
				"y": 0.1680906924,
				"z": 2.6596867847,
				"element": "H" 
			},
			{
				"x": -1.3906258012,
				"y": -1.35924736,
				"z": 1.8464157207,
				"element": "H" 
			},
			{
				"x": 0.041908878,
				"y": -1.218579355,
				"z": 2.8683541563,
				"element": "H" 
			},
			{
				"x": 2.0260806604,
				"y": 0.1727562603,
				"z": 2.1823250625,
				"element": "H" 
			},
			{
				"x": 1.9855020514,
				"y": 1.1591229919,
				"z": 0.7115944883,
				"element": "H" 
			},
			{
				"x": 0.922187811,
				"y": 1.5474848793,
				"z": 2.0578129531,
				"element": "H" 
			},
			{
				"x": 0.8720423934,
				"y": -2.3521162174,
				"z": 0.4566144754,
				"element": "H" 
			},
			{
				"x": -0.7690490906,
				"y": -1.374525802,
				"z": -1.7835759349,
				"element": "H" 
			},
			{
				"x": -1.5245472533,
				"y": -1.7191262774,
				"z": -0.2183847338,
				"element": "H" 
			},
			{
				"x": -1.5414798488,
				"y": 0.8419261451,
				"z": 0.0049395896,
				"element": "H" 
			},
			{
				"x": 0.6863051639,
				"y": 2.9130801431,
				"z": -2.1844729198,
				"element": "H" 
			},
			{
				"x": -0.7976490903,
				"y": 2.9207570308,
				"z": -1.0789443408,
				"element": "H" 
			},
			{
				"x": 0.9924608837,
				"y": -0.1234948909,
				"z": -2.8029813813,
				"element": "H" 
			},
			{
				"x": 2.2181534661,
				"y": 0.8902864771,
				"z": -2.0799350766,
				"element": "H" 
			},
			{
				"x": 2.6924402977,
				"y": -0.7313474906,
				"z": -0.3965397628,
				"element": "H" 
			},
			{
				"x": 2.0432307807,
				"y": -1.8043116019,
				"z": -1.622084754,
				"element": "H" 
			}
		],
		 "valence_orbital": [ 
			{
				"type": "occ",
				"energy": -0.31204,
				"method": "rhf"
			},
			{
				"type": "occ",
				"energy": -0.29418,
				"method": "rhf"
			},
			{
				"type": "occ",
				"energy": -0.28926,
				"method": "rhf"
			},
			{
				"type": "occ",
				"energy": -0.27579,
				"method": "rhf"
			},
			{
				"type": "occ",
				"energy": -0.22913,
				"method": "rhf"
			},
			{
				"type": "unocc",
				"energy": 0.02852,
				"method": "rhf"
			},
			{
				"type": "unocc",
				"energy": 0.08166,
				"method": "rhf"
			},
			{
				"type": "unocc",
				"energy": 0.10471,
				"method": "rhf"
			},
			{
				"type": "unocc",
				"energy": 0.12134,
				"method": "rhf"
			},
			{
				"type": "unocc",
				"energy": 0.12955,
				"method": "rhf"
			}
		],
		"cosmo_sigma_profile": { 
			"-0.025": 0.0,
			"-0.024": 0.0,
			"-0.023": 0.0,
			"-0.022": 0.0,
			"-0.021": 0.0,
			"-0.02": 0.0,
			"-0.019": 0.0,
			"-0.018": 0.0,
			"-0.017": 0.0,
			"-0.016": 0.0,
			"-0.015": 0.0,
			"-0.014": 0.0,
			"-0.013": 0.0,
			"-0.012": 0.0,
			"-0.011": 0.0,
			"-0.01": 0.0,
			"-0.009": 0.0,
			"-0.008": 0.0,
			"-0.007": 0.0,
			"-0.006": 0.0,
			"-0.005": 0.050289920822,
			"-0.004": 3.87789780631,
			"-0.003": 16.2540040934,
			"-0.002": 33.2931888603,
			"-0.001": 34.1471130162,
			"0.0": 35.6705118276,
			"0.001": 32.3140863266,
			"0.002": 17.6424775599,
			"0.003": 6.05752494299,
			"0.004": 4.46157838961,
			"0.005": 3.67959646629,
			"0.006": 3.79937333057,
			"0.007": 2.31721380737,
			"0.008": 0.662541562074,
			"0.009": 0.0,
			"0.01": 0.0,
			"0.011": 0.0,
			"0.012": 0.0,
			"0.013": 0.0,
			"0.014": 0.0,
			"0.015": 0.0,
			"0.016": 0.0,
			"0.017": 0.0,
			"0.018": 0.0,
			"0.019": 0.0,
			"0.02": 0.0,
			"0.021": 0.0,
			"0.022": 0.0,
			"0.023": 0.0,
			"0.024": 0.0,
			"0.025": 0.0
		}
	}
}
