{
	 "smiles": "CC(=O)NC1=CC(Cl)=C(N)C=C1", 
	 "Tm": 387.15, 
	 "num_atms": 21, 
	 "gaussian": { 
		 "optdone": 1, 
		 "sigma_profile": "yes", 
		 "theory": "DFT", 
		 "functional": "B3LYP", 
		 "basiset": "6-31G**", 
		 "properties": { 
			 "R2extent": 3329.6319, 
			 "electric_dipole_moment_norm": 4.7224517033, 
			 "electric_quadrupole_moment_norm": 13.5254329642, 
			 "total_energy": -955.214790738, 
			 "HOMO_LUMO_gap": 0.18802, 
			 "cosmo_polarized_energy": -14.96, 
			 "cosmo_cavitation_energy": 26.92, 
			 "cosmo_dispersion_energy": -19.75, 
			 "cosmo_repulsion_energy": 1.59, 
			 "cosmo_total_nonelectrostatic_energy": 8.76, 
			 "SMD_solvation_energy": 5.2 
		},
		"coords": [
			{
				"x": -2.7538339623,
				"y": -0.8760385002,
				"z": 0.9567103544,
				"element": "C" 
			},
			{
				"x": -2.4526110045,
				"y": 0.5436701505,
				"z": 0.5097617584,
				"element": "C" 
			},
			{
				"x": -3.2772562735,
				"y": 1.4422997903,
				"z": 0.596206369,
				"element": "O" 
			},
			{
				"x": -1.1982226522,
				"y": 0.8056409708,
				"z": -0.0107541343,
				"element": "N" 
			},
			{
				"x": -0.0953050618,
				"y": -0.0649465396,
				"z": -0.2122611164,
				"element": "C" 
			},
			{
				"x": 0.4896376022,
				"y": -0.1511557409,
				"z": -1.481107848,
				"element": "C" 
			},
			{
				"x": 1.5999527347,
				"y": -0.9612881355,
				"z": -1.688779878,
				"element": "C" 
			},
			{
				"x": 2.3074009308,
				"y": -1.0380770151,
				"z": -3.3024445341,
				"element": "Cl" 
			},
			{
				"x": 2.1632659667,
				"y": -1.7390246267,
				"z": -0.6579446749,
				"element": "C" 
			},
			{
				"x": 3.2956592068,
				"y": -2.5118668517,
				"z": -0.8534970291,
				"element": "N" 
			},
			{
				"x": 1.5536070203,
				"y": -1.6431289865,
				"z": 0.6070806916,
				"element": "C" 
			},
			{
				"x": 0.4629501666,
				"y": -0.8125454886,
				"z": 0.8329875179,
				"element": "C" 
			},
			{
				"x": -2.2446468134,
				"y": -1.6310283033,
				"z": 0.3537550363,
				"element": "H" 
			},
			{
				"x": -2.4512475781,
				"y": -1.0154100729,
				"z": 2.000014815,
				"element": "H" 
			},
			{
				"x": -3.8342173516,
				"y": -1.0135116011,
				"z": 0.9006354153,
				"element": "H" 
			},
			{
				"x": -1.1181719599,
				"y": 1.755334803,
				"z": -0.3537920659,
				"element": "H" 
			},
			{
				"x": 0.0732154887,
				"y": 0.4084327745,
				"z": -2.3117587398,
				"element": "H" 
			},
			{
				"x": 3.4285060958,
				"y": -3.2699156877,
				"z": -0.2005454587,
				"element": "H" 
			},
			{
				"x": 3.5033009178,
				"y": -2.7595302073,
				"z": -1.8104469855,
				"element": "H" 
			},
			{
				"x": 1.9730867827,
				"y": -2.2140807311,
				"z": 1.4311951691,
				"element": "H" 
			},
			{
				"x": 0.0475297445,
				"y": -0.7327300009,
				"z": 1.8316853377,
				"element": "H" 
			}
		],
		 "valence_orbital": [ 
			{
				"type": "occ",
				"energy": -0.32547,
				"method": "rhf"
			},
			{
				"type": "occ",
				"energy": -0.26686,
				"method": "rhf"
			},
			{
				"type": "occ",
				"energy": -0.25774,
				"method": "rhf"
			},
			{
				"type": "occ",
				"energy": -0.2469,
				"method": "rhf"
			},
			{
				"type": "occ",
				"energy": -0.20892,
				"method": "rhf"
			},
			{
				"type": "unocc",
				"energy": -0.0209,
				"method": "rhf"
			},
			{
				"type": "unocc",
				"energy": -0.00794,
				"method": "rhf"
			},
			{
				"type": "unocc",
				"energy": 0.02151,
				"method": "rhf"
			},
			{
				"type": "unocc",
				"energy": 0.03596,
				"method": "rhf"
			},
			{
				"type": "unocc",
				"energy": 0.07567,
				"method": "rhf"
			}
		],
		"cosmo_sigma_profile": { 
			"-0.025": 0.0,
			"-0.024": 0.0,
			"-0.023": 0.0,
			"-0.022": 0.0,
			"-0.021": 0.0,
			"-0.02": 0.0,
			"-0.019": 0.0,
			"-0.018": 0.0,
			"-0.017": 0.0,
			"-0.016": 0.0,
			"-0.015": 0.0,
			"-0.014": 0.347386424377,
			"-0.013": 2.48019863446,
			"-0.012": 2.95135369901,
			"-0.011": 3.11479191681,
			"-0.01": 3.66465131523,
			"-0.009": 4.13267025915,
			"-0.008": 4.29974776419,
			"-0.007": 7.80646223176,
			"-0.006": 9.94730137053,
			"-0.005": 11.0989528231,
			"-0.004": 10.8575212245,
			"-0.003": 11.0954994812,
			"-0.002": 15.0035557371,
			"-0.001": 15.1552421794,
			"0.0": 14.2977712734,
			"0.001": 13.3289588038,
			"0.002": 14.9499255992,
			"0.003": 17.6009216508,
			"0.004": 18.3809955051,
			"0.005": 9.78511336933,
			"0.006": 1.33476235357,
			"0.007": 2.6325478376,
			"0.008": 1.88081464022,
			"0.009": 1.67600860897,
			"0.01": 2.26202165682,
			"0.011": 2.3760341024,
			"0.012": 1.94605087344,
			"0.013": 4.56123884201,
			"0.014": 5.30715849898,
			"0.015": 1.48119912339,
			"0.016": 0.0112122590407,
			"0.017": 0.0,
			"0.018": 0.0,
			"0.019": 0.0,
			"0.02": 0.0,
			"0.021": 0.0,
			"0.022": 0.0,
			"0.023": 0.0,
			"0.024": 0.0,
			"0.025": 0.0
		}
	}
}
