{
	 "smiles": "CCOC1=C(OC)C=C(C=O)C=C1Br", 
	 "Tm": 358.15, 
	 "num_atms": 25, 
	 "gaussian": { 
		 "optdone": 1, 
		 "sigma_profile": "yes", 
		 "theory": "DFT", 
		 "functional": "B3LYP", 
		 "basiset": "6-31G**", 
		 "properties": { 
			 "R2extent": 4976.9653, 
			 "electric_dipole_moment_norm": 4.33366226303, 
			 "electric_quadrupole_moment_norm": 12.7086898361, 
			 "total_energy": -3184.73392839, 
			 "HOMO_LUMO_gap": 0.18206, 
			 "cosmo_polarized_energy": -9.61, 
			 "cosmo_cavitation_energy": 31.73, 
			 "cosmo_dispersion_energy": -22.22, 
			 "cosmo_repulsion_energy": 1.77, 
			 "cosmo_total_nonelectrostatic_energy": 11.28, 
			 "SMD_solvation_energy": 6.53 
		},
		"coords": [
			{
				"x": 1.0825469719,
				"y": 3.9223250243,
				"z": -0.6269704463,
				"element": "C" 
			},
			{
				"x": 0.4441053455,
				"y": 2.6810736025,
				"z": -1.2189234316,
				"element": "C" 
			},
			{
				"x": 0.0155143562,
				"y": 1.8432843529,
				"z": -0.1167648981,
				"element": "O" 
			},
			{
				"x": -0.5997332858,
				"y": 0.6808455107,
				"z": -0.4717155367,
				"element": "C" 
			},
			{
				"x": 0.1551507598,
				"y": -0.4187896137,
				"z": -0.9345028457,
				"element": "C" 
			},
			{
				"x": 1.5129660671,
				"y": -0.3102006747,
				"z": -1.1045068096,
				"element": "O" 
			},
			{
				"x": 2.276952759,
				"y": -0.2478122173,
				"z": 0.1091167845,
				"element": "C" 
			},
			{
				"x": -0.4811148168,
				"y": -1.6096368132,
				"z": -1.273875082,
				"element": "C" 
			},
			{
				"x": -1.8700733896,
				"y": -1.7277863572,
				"z": -1.1490440441,
				"element": "C" 
			},
			{
				"x": -2.5389864236,
				"y": -2.997855953,
				"z": -1.5127582984,
				"element": "C" 
			},
			{
				"x": -3.7352854409,
				"y": -3.1969843636,
				"z": -1.4270564026,
				"element": "O" 
			},
			{
				"x": -2.6295714651,
				"y": -0.6508248177,
				"z": -0.6730183973,
				"element": "C" 
			},
			{
				"x": -1.9932717286,
				"y": 0.5383492041,
				"z": -0.345936142,
				"element": "C" 
			},
			{
				"x": -3.0210045447,
				"y": 2.0194327107,
				"z": 0.2742807142,
				"element": "Br" 
			},
			{
				"x": 1.9566744461,
				"y": 3.661549208,
				"z": -0.0232759048,
				"element": "H" 
			},
			{
				"x": 1.4052601457,
				"y": 4.5933266232,
				"z": -1.429104016,
				"element": "H" 
			},
			{
				"x": 0.3699592223,
				"y": 4.4557304799,
				"z": 0.0078811738,
				"element": "H" 
			},
			{
				"x": 1.1493727995,
				"y": 2.1209060876,
				"z": -1.8424486411,
				"element": "H" 
			},
			{
				"x": -0.4338213826,
				"y": 2.9391080314,
				"z": -1.8239838136,
				"element": "H" 
			},
			{
				"x": 3.3210095258,
				"y": -0.1556454396,
				"z": -0.1952548242,
				"element": "H" 
			},
			{
				"x": 2.1490232496,
				"y": -1.167420166,
				"z": 0.6931528175,
				"element": "H" 
			},
			{
				"x": 1.9888927281,
				"y": 0.6157865573,
				"z": 0.7151430821,
				"element": "H" 
			},
			{
				"x": 0.1208825645,
				"y": -2.4375932517,
				"z": -1.63782378,
				"element": "H" 
			},
			{
				"x": -1.8515352114,
				"y": -3.7898540769,
				"z": -1.8845080055,
				"element": "H" 
			},
			{
				"x": -3.703513252,
				"y": -0.7615136479,
				"z": -0.5791032523,
				"element": "H" 
			}
		],
		 "valence_orbital": [ 
			{
				"type": "occ",
				"energy": -0.28799,
				"method": "rhf"
			},
			{
				"type": "occ",
				"energy": -0.27977,
				"method": "rhf"
			},
			{
				"type": "occ",
				"energy": -0.25953,
				"method": "rhf"
			},
			{
				"type": "occ",
				"energy": -0.25143,
				"method": "rhf"
			},
			{
				"type": "occ",
				"energy": -0.25037,
				"method": "rhf"
			},
			{
				"type": "unocc",
				"energy": -0.06831,
				"method": "rhf"
			},
			{
				"type": "unocc",
				"energy": -0.02239,
				"method": "rhf"
			},
			{
				"type": "unocc",
				"energy": 0.00159,
				"method": "rhf"
			},
			{
				"type": "unocc",
				"energy": 0.03146,
				"method": "rhf"
			},
			{
				"type": "unocc",
				"energy": 0.07965,
				"method": "rhf"
			}
		],
		"cosmo_sigma_profile": { 
			"-0.025": 0.0,
			"-0.024": 0.0,
			"-0.023": 0.0,
			"-0.022": 0.0,
			"-0.021": 0.0,
			"-0.02": 0.0,
			"-0.019": 0.0,
			"-0.018": 0.0,
			"-0.017": 0.0,
			"-0.016": 0.0,
			"-0.015": 0.0,
			"-0.014": 0.0,
			"-0.013": 0.0,
			"-0.012": 0.0,
			"-0.011": 0.0,
			"-0.01": 0.0,
			"-0.009": 0.624835799398,
			"-0.008": 3.11212710689,
			"-0.007": 4.68000666897,
			"-0.006": 6.99389469855,
			"-0.005": 12.0365671566,
			"-0.004": 24.1767817234,
			"-0.003": 30.2970104068,
			"-0.002": 26.2268061735,
			"-0.001": 22.4426085658,
			"0.0": 27.6836170759,
			"0.001": 23.9843920253,
			"0.002": 12.8998583651,
			"0.003": 12.0310085478,
			"0.004": 12.8652503801,
			"0.005": 6.41954790399,
			"0.006": 4.40001134043,
			"0.007": 3.83078310974,
			"0.008": 3.87413306749,
			"0.009": 4.19136302467,
			"0.01": 4.86583691221,
			"0.011": 5.32751201727,
			"0.012": 2.02223037076,
			"0.013": 0.41446138823,
			"0.014": 0.0,
			"0.015": 0.0,
			"0.016": 0.0,
			"0.017": 0.0,
			"0.018": 0.0,
			"0.019": 0.0,
			"0.02": 0.0,
			"0.021": 0.0,
			"0.022": 0.0,
			"0.023": 0.0,
			"0.024": 0.0,
			"0.025": 0.0
		}
	}
}
