{
	 "smiles": "OC(=O)C1=CC(=C(Cl)C=C1)S(=O)(=O)NC1=CC=C(Br)C=C1", 
	 "Tm": 499.15, 
	 "num_atms": 30, 
	 "gaussian": { 
		 "optdone": 1, 
		 "sigma_profile": "yes", 
		 "theory": "DFT", 
		 "functional": "B3LYP", 
		 "basiset": "6-31G**", 
		 "properties": { 
			 "R2extent": 12580.1903, 
			 "electric_dipole_moment_norm": 5.07719296659, 
			 "electric_quadrupole_moment_norm": 24.6124311778, 
			 "total_energy": -4286.16091304, 
			 "HOMO_LUMO_gap": 0.15615, 
			 "cosmo_polarized_energy": -26.49, 
			 "cosmo_cavitation_energy": 40.77, 
			 "cosmo_dispersion_energy": -29.35, 
			 "cosmo_repulsion_energy": 2.2, 
			 "cosmo_total_nonelectrostatic_energy": 13.63, 
			 "SMD_solvation_energy": 5.97 
		},
		"coords": [
			{
				"x": 0.3095104469,
				"y": 4.807512024,
				"z": -2.5330824996,
				"element": "O" 
			},
			{
				"x": -0.418424724,
				"y": 3.9104028996,
				"z": -1.8186562576,
				"element": "C" 
			},
			{
				"x": -1.6025101373,
				"y": 4.0764645044,
				"z": -1.654780762,
				"element": "O" 
			},
			{
				"x": 0.3215931285,
				"y": 2.7232843926,
				"z": -1.272807623,
				"element": "C" 
			},
			{
				"x": -0.246166722,
				"y": 2.0509981651,
				"z": -0.1864433255,
				"element": "C" 
			},
			{
				"x": 0.3663280962,
				"y": 0.925173976,
				"z": 0.3662469651,
				"element": "C" 
			},
			{
				"x": 1.5680050036,
				"y": 0.4515189949,
				"z": -0.1923697065,
				"element": "C" 
			},
			{
				"x": 2.4169085227,
				"y": -0.945128385,
				"z": 0.4085267054,
				"element": "Cl" 
			},
			{
				"x": 2.1288914056,
				"y": 1.1116856725,
				"z": -1.2895024642,
				"element": "C" 
			},
			{
				"x": 1.512552937,
				"y": 2.237888606,
				"z": -1.825211523,
				"element": "C" 
			},
			{
				"x": -0.4885884506,
				"y": 0.1937593233,
				"z": 1.8016576518,
				"element": "S" 
			},
			{
				"x": 0.5094857501,
				"y": -0.2481610511,
				"z": 2.7669631124,
				"element": "O" 
			},
			{
				"x": -1.5460733865,
				"y": 1.1406977007,
				"z": 2.1457219573,
				"element": "O" 
			},
			{
				"x": -1.324594248,
				"y": -1.1609314011,
				"z": 1.2509096164,
				"element": "N" 
			},
			{
				"x": -0.7782626187,
				"y": -2.4378807312,
				"z": 0.9473946714,
				"element": "C" 
			},
			{
				"x": -1.0588313252,
				"y": -3.0273062653,
				"z": -0.2912495877,
				"element": "C" 
			},
			{
				"x": -0.5972064425,
				"y": -4.3095665665,
				"z": -0.5836822863,
				"element": "C" 
			},
			{
				"x": 0.1701750321,
				"y": -4.9884407443,
				"z": 0.3603273507,
				"element": "C" 
			},
			{
				"x": 0.8217247346,
				"y": -6.738539987,
				"z": -0.0393560122,
				"element": "Br" 
			},
			{
				"x": 0.4626251459,
				"y": -4.4095441605,
				"z": 1.5953684076,
				"element": "C" 
			},
			{
				"x": -0.0246362041,
				"y": -3.140330584,
				"z": 1.897220747,
				"element": "C" 
			},
			{
				"x": 1.2565296086,
				"y": 4.647176834,
				"z": -2.4196700318,
				"element": "H" 
			},
			{
				"x": -1.1712339793,
				"y": 2.421031576,
				"z": 0.2400341483,
				"element": "H" 
			},
			{
				"x": 3.0476289383,
				"y": 0.7286691486,
				"z": -1.7188993278,
				"element": "H" 
			},
			{
				"x": 1.9566195423,
				"y": 2.7067306868,
				"z": -2.6993679788,
				"element": "H" 
			},
			{
				"x": -2.1470486925,
				"y": -0.8827552711,
				"z": 0.7265725062,
				"element": "H" 
			},
			{
				"x": -1.6419114282,
				"y": -2.4849412681,
				"z": -1.0307999832,
				"element": "H" 
			},
			{
				"x": -0.8228516977,
				"y": -4.768504913,
				"z": -1.5392841337,
				"element": "H" 
			},
			{
				"x": 1.0509708022,
				"y": -4.9533158838,
				"z": 2.3254804758,
				"element": "H" 
			},
			{
				"x": 0.1800909619,
				"y": -2.6871472927,
				"z": 2.8591391877,
				"element": "H" 
			}
		],
		 "valence_orbital": [ 
			{
				"type": "occ",
				"energy": -0.29381,
				"method": "rhf"
			},
			{
				"type": "occ",
				"energy": -0.29249,
				"method": "rhf"
			},
			{
				"type": "occ",
				"energy": -0.28026,
				"method": "rhf"
			},
			{
				"type": "occ",
				"energy": -0.27526,
				"method": "rhf"
			},
			{
				"type": "occ",
				"energy": -0.23873,
				"method": "rhf"
			},
			{
				"type": "unocc",
				"energy": -0.08258,
				"method": "rhf"
			},
			{
				"type": "unocc",
				"energy": -0.06308,
				"method": "rhf"
			},
			{
				"type": "unocc",
				"energy": -0.02888,
				"method": "rhf"
			},
			{
				"type": "unocc",
				"energy": -0.0266,
				"method": "rhf"
			},
			{
				"type": "unocc",
				"energy": -0.00371,
				"method": "rhf"
			}
		],
		"cosmo_sigma_profile": { 
			"-0.025": 0.0,
			"-0.024": 0.0,
			"-0.023": 0.0,
			"-0.022": 0.0,
			"-0.021": 0.0,
			"-0.02": 0.144886973716,
			"-0.019": 1.06564602706,
			"-0.018": 0.874088346242,
			"-0.017": 1.19961986015,
			"-0.016": 3.04451360409,
			"-0.015": 2.00441357138,
			"-0.014": 1.6129512469,
			"-0.013": 2.86012586073,
			"-0.012": 2.57972171187,
			"-0.011": 2.2739119889,
			"-0.01": 2.94604917951,
			"-0.009": 6.01537084924,
			"-0.008": 8.32579342324,
			"-0.007": 9.65513701298,
			"-0.006": 11.6192338104,
			"-0.005": 12.3814901659,
			"-0.004": 14.3953159085,
			"-0.003": 17.6656847787,
			"-0.002": 21.3040893779,
			"-0.001": 26.6722987425,
			"0.0": 23.9631262091,
			"0.001": 18.9340035394,
			"0.002": 28.7165328282,
			"0.003": 29.3031222916,
			"0.004": 18.4785844684,
			"0.005": 12.1232267719,
			"0.006": 6.28840515071,
			"0.007": 5.53705231835,
			"0.008": 7.36758367142,
			"0.009": 9.77367244869,
			"0.01": 13.3493266253,
			"0.011": 7.98935733242,
			"0.012": 2.57556864768,
			"0.013": 0.349233534021,
			"0.014": 0.0,
			"0.015": 0.0,
			"0.016": 0.0,
			"0.017": 0.0,
			"0.018": 0.0,
			"0.019": 0.0,
			"0.02": 0.0,
			"0.021": 0.0,
			"0.022": 0.0,
			"0.023": 0.0,
			"0.024": 0.0,
			"0.0": 0.0
		}
	}
}
