{
	 "smiles": "CN1N=C(C=C1C(O)=O)C1=CC=CO1", 
	 "Tm": 403.15, 
	 "num_atms": 22, 
	 "gaussian": { 
		 "optdone": 1, 
		 "sigma_profile": "yes", 
		 "theory": "DFT", 
		 "functional": "B3LYP", 
		 "basiset": "6-31G**", 
		 "properties": { 
			 "R2extent": 3564.0006, 
			 "electric_dipole_moment_norm": 3.10437822116, 
			 "electric_quadrupole_moment_norm": 18.2381585935, 
			 "total_energy": -682.907928943, 
			 "HOMO_LUMO_gap": 0.16343, 
			 "cosmo_polarized_energy": -18.62, 
			 "cosmo_cavitation_energy": 27.59, 
			 "cosmo_dispersion_energy": -20.19, 
			 "cosmo_repulsion_energy": 1.57, 
			 "cosmo_total_nonelectrostatic_energy": 8.97, 
			 "SMD_solvation_energy": 5.9 
		},
		"coords": [
			{
				"x": -1.4711603657,
				"y": -0.527786577,
				"z": 1.8254827879,
				"element": "C" 
			},
			{
				"x": -0.539803057,
				"y": -0.3445050961,
				"z": 0.721950013,
				"element": "N" 
			},
			{
				"x": -0.9147374893,
				"y": 0.4577026352,
				"z": -0.2897830416,
				"element": "N" 
			},
			{
				"x": 0.1359898517,
				"y": 0.5011328648,
				"z": -1.1259720193,
				"element": "C" 
			},
			{
				"x": 1.2074082241,
				"y": -0.27351465,
				"z": -0.6284884715,
				"element": "C" 
			},
			{
				"x": 0.74345765,
				"y": -0.8138020676,
				"z": 0.55840355,
				"element": "C" 
			},
			{
				"x": 1.5035736845,
				"y": -1.7079743445,
				"z": 1.4633632184,
				"element": "C" 
			},
			{
				"x": 0.7877317802,
				"y": -2.5163839475,
				"z": 2.2980258509,
				"element": "O" 
			},
			{
				"x": 2.7096259446,
				"y": -1.7404559997,
				"z": 1.4768386913,
				"element": "O" 
			},
			{
				"x": 0.1018545678,
				"y": 1.2729651361,
				"z": -2.3537067617,
				"element": "C" 
			},
			{
				"x": 1.0321838301,
				"y": 1.4808228525,
				"z": -3.3385998788,
				"element": "C" 
			},
			{
				"x": 0.4174321755,
				"y": 2.339476597,
				"z": -4.3024705611,
				"element": "C" 
			},
			{
				"x": -0.8379193599,
				"y": 2.5907929991,
				"z": -3.8364519469,
				"element": "C" 
			},
			{
				"x": -1.0469741334,
				"y": 1.9505431403,
				"z": -2.6535639947,
				"element": "O" 
			},
			{
				"x": -2.0635767683,
				"y": -1.4442298296,
				"z": 1.7059026158,
				"element": "H" 
			},
			{
				"x": -0.9354225145,
				"y": -0.5543717967,
				"z": 2.7760070942,
				"element": "H" 
			},
			{
				"x": -2.1539983383,
				"y": 0.3207735758,
				"z": 1.8143025842,
				"element": "H" 
			},
			{
				"x": 2.1859192155,
				"y": -0.4346704486,
				"z": -1.0532521552,
				"element": "H" 
			},
			{
				"x": -0.1388737466,
				"y": -2.5602577856,
				"z": 2.0259879109,
				"element": "H" 
			},
			{
				"x": 2.0323081904,
				"y": 1.0733063852,
				"z": -3.3714717052,
				"element": "H" 
			},
			{
				"x": 0.8538089866,
				"y": 2.7162590127,
				"z": -5.2161123189,
				"element": "H" 
			},
			{
				"x": -1.6665283282,
				"y": 3.1745773442,
				"z": -4.2058914617,
				"element": "H" 
			}
		],
		 "valence_orbital": [ 
			{
				"type": "occ",
				"energy": -0.29711,
				"method": "rhf"
			},
			{
				"type": "occ",
				"energy": -0.28381,
				"method": "rhf"
			},
			{
				"type": "occ",
				"energy": -0.27821,
				"method": "rhf"
			},
			{
				"type": "occ",
				"energy": -0.26373,
				"method": "rhf"
			},
			{
				"type": "occ",
				"energy": -0.2112,
				"method": "rhf"
			},
			{
				"type": "unocc",
				"energy": -0.04777,
				"method": "rhf"
			},
			{
				"type": "unocc",
				"energy": -0.01776,
				"method": "rhf"
			},
			{
				"type": "unocc",
				"energy": 0.03785,
				"method": "rhf"
			},
			{
				"type": "unocc",
				"energy": 0.05235,
				"method": "rhf"
			},
			{
				"type": "unocc",
				"energy": 0.07844,
				"method": "rhf"
			}
		],
		"cosmo_sigma_profile": { 
			"-0.025": 0.0,
			"-0.024": 0.0,
			"-0.023": 0.0,
			"-0.022": 0.0,
			"-0.021": 0.0,
			"-0.02": 0.0,
			"-0.019": 0.302536044553,
			"-0.018": 1.25369553225,
			"-0.017": 1.0537579814,
			"-0.016": 1.04347961106,
			"-0.015": 1.02809186493,
			"-0.014": 1.23447055986,
			"-0.013": 0.566842041045,
			"-0.012": 1.03827502911,
			"-0.011": 1.3784686435,
			"-0.01": 0.626392335251,
			"-0.009": 3.61104256379,
			"-0.008": 8.80649180926,
			"-0.007": 14.0616344268,
			"-0.006": 13.0347879863,
			"-0.005": 11.7804908031,
			"-0.004": 13.3861806523,
			"-0.003": 10.1250531082,
			"-0.002": 10.0634026638,
			"-0.001": 9.00908939264,
			"0.0": 10.4994906615,
			"0.001": 10.4803533901,
			"0.002": 18.3767098939,
			"0.003": 14.8439543002,
			"0.004": 11.9950987182,
			"0.005": 10.1413154161,
			"0.006": 4.97341180393,
			"0.007": 5.03721157447,
			"0.008": 4.55997020898,
			"0.009": 6.47347663532,
			"0.01": 6.71954156883,
			"0.011": 7.48053813853,
			"0.012": 4.47797861323,
			"0.013": 1.37527054076,
			"0.014": 0.794714527576,
			"0.015": 0.157324495127,
			"0.016": 0.0,
			"0.017": 0.0,
			"0.018": 0.0,
			"0.019": 0.0,
			"0.02": 0.0,
			"0.021": 0.0,
			"0.022": 0.0,
			"0.023": 0.0,
			"0.024": 0.0,
			"0.025": 0.0
		}
	}
}
