{
	 "smiles": "OC(=O)C(CC1=CC=CC=C1)N1CCCOC1=O", 
	 "Tm": 437.15, 
	 "num_atms": 33, 
	 "gaussian": { 
		 "optdone": 1, 
		 "sigma_profile": "yes", 
		 "theory": "DFT", 
		 "functional": "B3LYP", 
		 "basiset": "6-31G**", 
		 "properties": { 
			 "R2extent": 4451.4705, 
			 "electric_dipole_moment_norm": 7.36397327331, 
			 "electric_quadrupole_moment_norm": 16.2851451249, 
			 "total_energy": -860.103182921, 
			 "HOMO_LUMO_gap": 0.22785, 
			 "cosmo_polarized_energy": -18.82, 
			 "cosmo_cavitation_energy": 35.19, 
			 "cosmo_dispersion_energy": -24.24, 
			 "cosmo_repulsion_energy": 1.87, 
			 "cosmo_total_nonelectrostatic_energy": 12.82, 
			 "SMD_solvation_energy": 7.13 
		},
		"coords": [
			{
				"x": -2.0366958779,
				"y": 1.4047881084,
				"z": 1.8313081613,
				"element": "O" 
			},
			{
				"x": -2.4723234727,
				"y": 0.962205051,
				"z": 0.6515032046,
				"element": "C" 
			},
			{
				"x": -3.5904876465,
				"y": 1.1877068322,
				"z": 0.2442676153,
				"element": "O" 
			},
			{
				"x": -1.5139358624,
				"y": 0.0684509568,
				"z": -0.1753107957,
				"element": "C" 
			},
			{
				"x": -1.3733856726,
				"y": -1.3403582276,
				"z": 0.464206606,
				"element": "C" 
			},
			{
				"x": -0.5713322072,
				"y": -2.2948119225,
				"z": -0.3931486934,
				"element": "C" 
			},
			{
				"x": 0.789168816,
				"y": -2.5154264441,
				"z": -0.1357531933,
				"element": "C" 
			},
			{
				"x": 1.5400940185,
				"y": -3.3706431709,
				"z": -0.9456768947,
				"element": "C" 
			},
			{
				"x": 0.9406297655,
				"y": -4.0187206789,
				"z": -2.0271756234,
				"element": "C" 
			},
			{
				"x": -0.4152022753,
				"y": -3.8105525576,
				"z": -2.2909991852,
				"element": "C" 
			},
			{
				"x": -1.1629289815,
				"y": -2.9559942991,
				"z": -1.4797443798,
				"element": "C" 
			},
			{
				"x": -0.2158742404,
				"y": 0.6958464912,
				"z": -0.523696392,
				"element": "N" 
			},
			{
				"x": 0.0513393997,
				"y": 0.8696371223,
				"z": -1.9637528264,
				"element": "C" 
			},
			{
				"x": 1.547491055,
				"y": 0.9721637995,
				"z": -2.2262305027,
				"element": "C" 
			},
			{
				"x": 2.1438843249,
				"y": 1.9480263392,
				"z": -1.2322381497,
				"element": "C" 
			},
			{
				"x": 1.8892357285,
				"y": 1.5045408078,
				"z": 0.1133792246,
				"element": "O" 
			},
			{
				"x": 0.6961424195,
				"y": 0.9728532218,
				"z": 0.4505950307,
				"element": "C" 
			},
			{
				"x": 0.4928662183,
				"y": 0.7533274779,
				"z": 1.6483136103,
				"element": "O" 
			},
			{
				"x": -1.0887032743,
				"y": 1.1406281681,
				"z": 1.9627313276,
				"element": "H" 
			},
			{
				"x": -2.0365064686,
				"y": -0.0454840882,
				"z": -1.1251105332,
				"element": "H" 
			},
			{
				"x": -0.9191299439,
				"y": -1.2451728654,
				"z": 1.451715945,
				"element": "H" 
			},
			{
				"x": -2.3922144596,
				"y": -1.7190767834,
				"z": 0.6043877035,
				"element": "H" 
			},
			{
				"x": 1.2562000018,
				"y": -2.0218551832,
				"z": 0.7127067062,
				"element": "H" 
			},
			{
				"x": 2.5910661837,
				"y": -3.5364388623,
				"z": -0.7254755489,
				"element": "H" 
			},
			{
				"x": 1.5223839364,
				"y": -4.687955059,
				"z": -2.6544693082,
				"element": "H" 
			},
			{
				"x": -0.8927113298,
				"y": -4.3198526337,
				"z": -3.1234156894,
				"element": "H" 
			},
			{
				"x": -2.2212371231,
				"y": -2.8082681226,
				"z": -1.6842263778,
				"element": "H" 
			},
			{
				"x": -0.4707352262,
				"y": 1.7651432097,
				"z": -2.3275219059,
				"element": "H" 
			},
			{
				"x": -0.3643217994,
				"y": 0.0057171073,
				"z": -2.488948549,
				"element": "H" 
			},
			{
				"x": 1.7255740855,
				"y": 1.3099537571,
				"z": -3.2518349477,
				"element": "H" 
			},
			{
				"x": 2.0183573574,
				"y": -0.008910348,
				"z": -2.1040995612,
				"element": "H" 
			},
			{
				"x": 3.2307536141,
				"y": 2.0173490846,
				"z": -1.3077721053,
				"element": "H" 
			},
			{
				"x": 1.7217389368,
				"y": 2.9534837115,
				"z": -1.3565139722,
				"element": "H" 
			}
		],
		 "valence_orbital": [ 
			{
				"type": "occ",
				"energy": -0.29408,
				"method": "rhf"
			},
			{
				"type": "occ",
				"energy": -0.28175,
				"method": "rhf"
			},
			{
				"type": "occ",
				"energy": -0.26094,
				"method": "rhf"
			},
			{
				"type": "occ",
				"energy": -0.25828,
				"method": "rhf"
			},
			{
				"type": "occ",
				"energy": -0.24357,
				"method": "rhf"
			},
			{
				"type": "unocc",
				"energy": -0.01572,
				"method": "rhf"
			},
			{
				"type": "unocc",
				"energy": -0.01192,
				"method": "rhf"
			},
			{
				"type": "unocc",
				"energy": 0.01439,
				"method": "rhf"
			},
			{
				"type": "unocc",
				"energy": 0.02229,
				"method": "rhf"
			},
			{
				"type": "unocc",
				"energy": 0.06476,
				"method": "rhf"
			}
		],
		"cosmo_sigma_profile": { 
			"-0.025": 0.0,
			"-0.024": 0.0,
			"-0.023": 0.0,
			"-0.022": 0.0,
			"-0.021": 0.0,
			"-0.02": 0.0,
			"-0.019": 0.0,
			"-0.018": 0.0,
			"-0.017": 0.0,
			"-0.016": 0.0,
			"-0.015": 0.0,
			"-0.014": 0.0,
			"-0.013": 0.0,
			"-0.012": 0.0,
			"-0.011": 0.0,
			"-0.01": 0.0,
			"-0.009": 0.0,
			"-0.008": 0.616298117267,
			"-0.007": 7.79853950728,
			"-0.006": 25.3777359777,
			"-0.005": 33.7221132183,
			"-0.004": 31.8520706902,
			"-0.003": 25.0070199611,
			"-0.002": 20.8255767445,
			"-0.001": 15.9076389273,
			"0.0": 14.0947306718,
			"0.001": 11.6553400356,
			"0.002": 10.1858452249,
			"0.003": 10.4540504761,
			"0.004": 11.1386514087,
			"0.005": 10.9790291551,
			"0.006": 7.41225287913,
			"0.007": 3.74494187307,
			"0.008": 3.67463433637,
			"0.009": 5.41514197147,
			"0.01": 6.21872332912,
			"0.011": 8.11663268692,
			"0.012": 8.27451745045,
			"0.013": 4.82387220579,
			"0.014": 0.857962974659,
			"0.015": 0.0,
			"0.016": 0.0,
			"0.017": 0.0,
			"0.018": 0.0,
			"0.019": 0.0,
			"0.02": 0.0,
			"0.021": 0.0,
			"0.022": 0.0,
			"0.023": 0.0,
			"0.024": 0.0,
			"0.025": 0.0
		}
	}
}
