{
	 "smiles": "CC1=NN2C(=C1)N=C(C)C(CCC(O)=O)=C2C", 
	 "Tm": 534.15, 
	 "num_atms": 32, 
	 "gaussian": { 
		 "optdone": 1, 
		 "sigma_profile": "yes", 
		 "theory": "DFT", 
		 "functional": "B3LYP", 
		 "basiset": "6-31G**", 
		 "properties": { 
			 "R2extent": 4954.0574, 
			 "electric_dipole_moment_norm": 2.56888913735, 
			 "electric_quadrupole_moment_norm": 11.2700283536, 
			 "total_energy": -781.039020831, 
			 "HOMO_LUMO_gap": 0.17293, 
			 "cosmo_polarized_energy": -14.74, 
			 "cosmo_cavitation_energy": 34.59, 
			 "cosmo_dispersion_energy": -24.98, 
			 "cosmo_repulsion_energy": 1.95, 
			 "cosmo_total_nonelectrostatic_energy": 11.56, 
			 "SMD_solvation_energy": 4.8 
		},
		"coords": [
			{
				"x": -5.4564582062,
				"y": 0.3869132326,
				"z": -0.8305668394,
				"element": "C" 
			},
			{
				"x": -4.0086040672,
				"y": 0.6528996128,
				"z": -0.5525325762,
				"element": "C" 
			},
			{
				"x": -3.1501039654,
				"y": -0.3817776284,
				"z": -0.490245047,
				"element": "N" 
			},
			{
				"x": -1.9508220455,
				"y": 0.1928774013,
				"z": -0.2276864093,
				"element": "N" 
			},
			{
				"x": -2.0369647291,
				"y": 1.5866183176,
				"z": -0.1276931867,
				"element": "C" 
			},
			{
				"x": -3.3785960406,
				"y": 1.8922093744,
				"z": -0.3365978099,
				"element": "C" 
			},
			{
				"x": -0.9434882565,
				"y": 2.3378108237,
				"z": 0.108100507,
				"element": "N" 
			},
			{
				"x": 0.2105040029,
				"y": 1.7135390568,
				"z": 0.2595493147,
				"element": "C" 
			},
			{
				"x": 1.4072440717,
				"y": 2.6125485926,
				"z": 0.4685135223,
				"element": "C" 
			},
			{
				"x": 0.3557152068,
				"y": 0.2776575802,
				"z": 0.1969168231,
				"element": "C" 
			},
			{
				"x": 1.7270185313,
				"y": -0.3461969834,
				"z": 0.3866011229,
				"element": "C" 
			},
			{
				"x": 2.1895071045,
				"y": -0.4607804743,
				"z": 1.8548005375,
				"element": "C" 
			},
			{
				"x": 1.62603802,
				"y": -1.6623145132,
				"z": 2.5847423952,
				"element": "C" 
			},
			{
				"x": 1.5785438692,
				"y": -1.4570607475,
				"z": 3.9201827807,
				"element": "O" 
			},
			{
				"x": 1.2932722293,
				"y": -2.7127851103,
				"z": 2.077105051,
				"element": "O" 
			},
			{
				"x": -0.7703710376,
				"y": -0.4854647289,
				"z": -0.0684454222,
				"element": "C" 
			},
			{
				"x": -0.8615800744,
				"y": -1.9718810403,
				"z": -0.2331160601,
				"element": "C" 
			},
			{
				"x": -6.0901935997,
				"y": 0.752242111,
				"z": -0.0150484527,
				"element": "H" 
			},
			{
				"x": -5.7830357927,
				"y": 0.8901375438,
				"z": -1.7472764659,
				"element": "H" 
			},
			{
				"x": -5.6229919547,
				"y": -0.6862143773,
				"z": -0.9457984594,
				"element": "H" 
			},
			{
				"x": -3.8181009737,
				"y": 2.87753993,
				"z": -0.3332671279,
				"element": "H" 
			},
			{
				"x": 1.0633017409,
				"y": 3.6469669663,
				"z": 0.4925508608,
				"element": "H" 
			},
			{
				"x": 1.9373566188,
				"y": 2.3980455897,
				"z": 1.4024376409,
				"element": "H" 
			},
			{
				"x": 2.135409707,
				"y": 2.5068025156,
				"z": -0.344910424,
				"element": "H" 
			},
			{
				"x": 2.4655889027,
				"y": 0.2571033804,
				"z": -0.1501883618,
				"element": "H" 
			},
			{
				"x": 1.7662311409,
				"y": -1.3408710381,
				"z": -0.06120119,
				"element": "H" 
			},
			{
				"x": 3.28134856,
				"y": -0.5786949448,
				"z": 1.8888926289,
				"element": "H" 
			},
			{
				"x": 1.9609178943,
				"y": 0.4378322279,
				"z": 2.4324902522,
				"element": "H" 
			},
			{
				"x": 1.2530923481,
				"y": -2.2850602157,
				"z": 4.3129385835,
				"element": "H" 
			},
			{
				"x": -1.0606311958,
				"y": -2.2161548294,
				"z": -1.2831285494,
				"element": "H" 
			},
			{
				"x": -1.7181503734,
				"y": -2.3478216127,
				"z": 0.3328074345,
				"element": "H" 
			},
			{
				"x": 0.0379023641,
				"y": -2.4791660124,
				"z": 0.105572927,
				"element": "H" 
			}
		],
		 "valence_orbital": [ 
			{
				"type": "occ",
				"energy": -0.29633,
				"method": "rhf"
			},
			{
				"type": "occ",
				"energy": -0.2868,
				"method": "rhf"
			},
			{
				"type": "occ",
				"energy": -0.25189,
				"method": "rhf"
			},
			{
				"type": "occ",
				"energy": -0.23557,
				"method": "rhf"
			},
			{
				"type": "occ",
				"energy": -0.20736,
				"method": "rhf"
			},
			{
				"type": "unocc",
				"energy": -0.03443,
				"method": "rhf"
			},
			{
				"type": "unocc",
				"energy": -0.00211,
				"method": "rhf"
			},
			{
				"type": "unocc",
				"energy": 0.00048,
				"method": "rhf"
			},
			{
				"type": "unocc",
				"energy": 0.0693,
				"method": "rhf"
			},
			{
				"type": "unocc",
				"energy": 0.07397,
				"method": "rhf"
			}
		],
		"cosmo_sigma_profile": { 
			"-0.025": 0.0,
			"-0.024": 0.0,
			"-0.023": 0.0,
			"-0.022": 0.0,
			"-0.021": 0.0,
			"-0.02": 0.0,
			"-0.019": 0.00545436837068,
			"-0.018": 0.674781542122,
			"-0.017": 0.99759986636,
			"-0.016": 0.640878826857,
			"-0.015": 1.3347167892,
			"-0.014": 0.5286582138,
			"-0.013": 0.401066818398,
			"-0.012": 0.648292570018,
			"-0.011": 0.829482981769,
			"-0.01": 1.0585868072,
			"-0.009": 0.419277695678,
			"-0.008": 0.587129269138,
			"-0.007": 5.00658091077,
			"-0.006": 10.2910868369,
			"-0.005": 17.3785887299,
			"-0.004": 22.532143714,
			"-0.003": 25.2528499583,
			"-0.002": 29.1689214045,
			"-0.001": 33.1791775302,
			"0.0": 24.8970480987,
			"0.001": 13.4855064518,
			"0.002": 9.82259487419,
			"0.003": 10.6248136856,
			"0.004": 11.432231721,
			"0.005": 11.2674938571,
			"0.006": 6.04401687759,
			"0.007": 6.04361838597,
			"0.008": 6.12745822101,
			"0.009": 5.61096044033,
			"0.01": 4.14483844324,
			"0.011": 5.57515081493,
			"0.012": 3.707971903,
			"0.013": 1.63912001396,
			"0.014": 1.38900984874,
			"0.015": 0.821173010485,
			"0.016": 0.11362775574,
			"0.017": 0.0,
			"0.018": 0.0,
			"0.019": 0.0,
			"0.02": 0.0,
			"0.021": 0.0,
			"0.022": 0.0,
			"0.023": 0.0,
			"0.024": 0.0,
			"0.025": 0.0
		}
	}
}
