{
	 "smiles": "CC(C)C1=CC=NC=C1", 
	 "Tm": 218.25, 
	 "num_atms": 20, 
	 "gaussian": { 
		 "optdone": 1, 
		 "sigma_profile": "yes", 
		 "theory": "DFT", 
		 "functional": "B3LYP", 
		 "basiset": "6-31G**", 
		 "properties": { 
			 "R2extent": 1390.3992, 
			 "electric_dipole_moment_norm": 2.69393725428, 
			 "electric_quadrupole_moment_norm": 5.27175468227, 
			 "total_energy": -366.239123173, 
			 "HOMO_LUMO_gap": 0.23043, 
			 "cosmo_polarized_energy": -6.05, 
			 "cosmo_cavitation_energy": 22.66, 
			 "cosmo_dispersion_energy": -16.38, 
			 "cosmo_repulsion_energy": 1.35, 
			 "cosmo_total_nonelectrostatic_energy": 7.62, 
			 "SMD_solvation_energy": 2.7 
		},
		"coords": [
			{
				"x": 0.1222085354,
				"y": 2.3513208641,
				"z": -1.9402166662,
				"element": "C" 
			},
			{
				"x": -0.0683551919,
				"y": 0.8296018728,
				"z": -2.085268252,
				"element": "C" 
			},
			{
				"x": -1.31436759,
				"y": 0.5032204348,
				"z": -2.9301972699,
				"element": "C" 
			},
			{
				"x": -0.1127956715,
				"y": 0.1387124706,
				"z": -0.7310434842,
				"element": "C" 
			},
			{
				"x": -1.1128111522,
				"y": 0.4119572955,
				"z": 0.2123251767,
				"element": "C" 
			},
			{
				"x": -1.1011003296,
				"y": -0.2533981497,
				"z": 1.4371073373,
				"element": "C" 
			},
			{
				"x": -0.1792629168,
				"y": -1.159853705,
				"z": 1.7891338998,
				"element": "N" 
			},
			{
				"x": 0.774946148,
				"y": -1.419923901,
				"z": 0.8877130998,
				"element": "C" 
			},
			{
				"x": 0.8499415781,
				"y": -0.8075716961,
				"z": -0.3641105885,
				"element": "C" 
			},
			{
				"x": 0.2096799124,
				"y": 2.8223540443,
				"z": -2.9250883433,
				"element": "H" 
			},
			{
				"x": 1.0249657397,
				"y": 2.5864149821,
				"z": -1.3681726871,
				"element": "H" 
			},
			{
				"x": -0.7287610519,
				"y": 2.811130403,
				"z": -1.4261250207,
				"element": "H" 
			},
			{
				"x": 0.8065004596,
				"y": 0.4350067424,
				"z": -2.6182059416,
				"element": "H" 
			},
			{
				"x": -1.2363449348,
				"y": 0.9622780005,
				"z": -3.9214985272,
				"element": "H" 
			},
			{
				"x": -1.4335678931,
				"y": -0.5764690853,
				"z": -3.0626174763,
				"element": "H" 
			},
			{
				"x": -2.2259638734,
				"y": 0.8849355351,
				"z": -2.4578274543,
				"element": "H" 
			},
			{
				"x": -1.8967447037,
				"y": 1.1343358649,
				"z": 0.0034482475,
				"element": "H" 
			},
			{
				"x": -1.8744965152,
				"y": -0.0467947516,
				"z": 2.1755405698,
				"element": "H" 
			},
			{
				"x": 1.5215904996,
				"y": -2.1574198889,
				"z": 1.179022687,
				"element": "H" 
			},
			{
				"x": 1.6543389514,
				"y": -1.0679373324,
				"z": -1.0472193066,
				"element": "H" 
			}
		],
		 "valence_orbital": [ 
			{
				"type": "occ",
				"energy": -0.34504,
				"method": "rhf"
			},
			{
				"type": "occ",
				"energy": -0.33291,
				"method": "rhf"
			},
			{
				"type": "occ",
				"energy": -0.27048,
				"method": "rhf"
			},
			{
				"type": "occ",
				"energy": -0.25713,
				"method": "rhf"
			},
			{
				"type": "occ",
				"energy": -0.24822,
				"method": "rhf"
			},
			{
				"type": "unocc",
				"energy": -0.01779,
				"method": "rhf"
			},
			{
				"type": "unocc",
				"energy": -0.00653,
				"method": "rhf"
			},
			{
				"type": "unocc",
				"energy": 0.08377,
				"method": "rhf"
			},
			{
				"type": "unocc",
				"energy": 0.10829,
				"method": "rhf"
			},
			{
				"type": "unocc",
				"energy": 0.11581,
				"method": "rhf"
			}
		],
		"cosmo_sigma_profile": { 
			"-0.025": 0.0,
			"-0.024": 0.0,
			"-0.023": 0.0,
			"-0.022": 0.0,
			"-0.021": 0.0,
			"-0.02": 0.0,
			"-0.019": 0.0,
			"-0.018": 0.0,
			"-0.017": 0.0,
			"-0.016": 0.0,
			"-0.015": 0.0,
			"-0.014": 0.0,
			"-0.013": 0.0,
			"-0.012": 0.0,
			"-0.011": 0.0,
			"-0.01": 0.0,
			"-0.009": 0.0,
			"-0.008": 0.0,
			"-0.007": 0.0682155665445,
			"-0.006": 6.60698036906,
			"-0.005": 11.336726581,
			"-0.004": 13.3280877575,
			"-0.003": 19.2037599926,
			"-0.002": 19.4109349194,
			"-0.001": 21.1038761215,
			"0.0": 19.1481682683,
			"0.001": 20.9884831355,
			"0.002": 10.6234456376,
			"0.003": 14.1338502894,
			"0.004": 6.32602634532,
			"0.005": 2.87781942619,
			"0.006": 1.57353128133,
			"0.007": 1.16512784106,
			"0.008": 1.70964623727,
			"0.009": 1.35117231559,
			"0.01": 1.04976877192,
			"0.011": 0.77722084664,
			"0.012": 0.947356994636,
			"0.013": 1.34976171427,
			"0.014": 0.765080593757,
			"0.015": 0.774467914533,
			"0.016": 1.02927387497,
			"0.017": 0.676026028132,
			"0.018": 0.0597706679544,
			"0.019": 0.0,
			"0.02": 0.0,
			"0.021": 0.0,
			"0.022": 0.0,
			"0.023": 0.0,
			"0.024": 0.0,
			"0.025": 0.0
		}
	}
}
