{
	 "smiles": "CC1=CC=C(C=C1)C1=CC=C(O1)C=CC(=O)C1=CC=CC=C1", 
	 "Tm": 373.15, 
	 "num_atms": 38, 
	 "gaussian": { 
		 "optdone": 1, 
		 "sigma_profile": "yes", 
		 "theory": "DFT", 
		 "functional": "B3LYP", 
		 "basiset": "6-31G**", 
		 "properties": { 
			 "R2extent": 11930.3524, 
			 "electric_dipole_moment_norm": 4.40850312238, 
			 "electric_quadrupole_moment_norm": 18.860632925, 
			 "total_energy": -922.209300832, 
			 "HOMO_LUMO_gap": 0.12284, 
			 "cosmo_polarized_energy": -12.65, 
			 "cosmo_cavitation_energy": 43.68, 
			 "cosmo_dispersion_energy": -31.09, 
			 "cosmo_repulsion_energy": 2.33, 
			 "cosmo_total_nonelectrostatic_energy": 14.92, 
			 "SMD_solvation_energy": 8.16 
		},
		"coords": [
			{
				"x": -2.7430155134,
				"y": 3.9059650152,
				"z": 5.7592051923,
				"element": "C" 
			},
			{
				"x": -2.0566478052,
				"y": 2.8086257655,
				"z": 4.9826510034,
				"element": "C" 
			},
			{
				"x": -2.2356963374,
				"y": 2.6755452893,
				"z": 3.5993887779,
				"element": "C" 
			},
			{
				"x": -1.6271813926,
				"y": 1.6482121355,
				"z": 2.8843833891,
				"element": "C" 
			},
			{
				"x": -0.8079562929,
				"y": 0.7106003215,
				"z": 3.5369631236,
				"element": "C" 
			},
			{
				"x": -0.6217730629,
				"y": 0.8424482055,
				"z": 4.9256102511,
				"element": "C" 
			},
			{
				"x": -1.2348448023,
				"y": 1.8723342705,
				"z": 5.6287413205,
				"element": "C" 
			},
			{
				"x": -0.1640125824,
				"y": -0.3670081286,
				"z": 2.8016123731,
				"element": "C" 
			},
			{
				"x": 0.6582596149,
				"y": -1.40827698,
				"z": 3.1791810925,
				"element": "C" 
			},
			{
				"x": 0.9635636728,
				"y": -2.134714833,
				"z": 2.0027311793,
				"element": "C" 
			},
			{
				"x": 0.3153787164,
				"y": -1.506099639,
				"z": 0.9601988219,
				"element": "C" 
			},
			{
				"x": -0.3737375784,
				"y": -0.424276177,
				"z": 1.4534231641,
				"element": "O" 
			},
			{
				"x": 0.2637119126,
				"y": -1.7947042863,
				"z": -0.4370042566,
				"element": "C" 
			},
			{
				"x": -0.4101507504,
				"y": -1.096079074,
				"z": -1.3804795531,
				"element": "C" 
			},
			{
				"x": -0.370817558,
				"y": -1.5391251461,
				"z": -2.7894871276,
				"element": "C" 
			},
			{
				"x": 0.2252566983,
				"y": -2.567258673,
				"z": -3.1152609939,
				"element": "O" 
			},
			{
				"x": -1.0820494447,
				"y": -0.7271502918,
				"z": -3.8355658429,
				"element": "C" 
			},
			{
				"x": -1.1913771532,
				"y": -1.2826093106,
				"z": -5.121130259,
				"element": "C" 
			},
			{
				"x": -1.831956053,
				"y": -0.5889350437,
				"z": -6.1428265862,
				"element": "C" 
			},
			{
				"x": -2.3677584251,
				"y": 0.6792907838,
				"z": -5.8983533093,
				"element": "C" 
			},
			{
				"x": -2.2570145811,
				"y": 1.2466008648,
				"z": -4.627991557,
				"element": "C" 
			},
			{
				"x": -1.6208089555,
				"y": 0.5477258286,
				"z": -3.6015916691,
				"element": "C" 
			},
			{
				"x": -3.6757140399,
				"y": 3.5466883079,
				"z": 6.2124954328,
				"element": "H" 
			},
			{
				"x": -2.9988977095,
				"y": 4.7523422164,
				"z": 5.115300206,
				"element": "H" 
			},
			{
				"x": -2.1114249437,
				"y": 4.276787302,
				"z": 6.5726229061,
				"element": "H" 
			},
			{
				"x": -2.8624556849,
				"y": 3.3902399972,
				"z": 3.0718148222,
				"element": "H" 
			},
			{
				"x": -1.7803787034,
				"y": 1.5669778874,
				"z": 1.8139888438,
				"element": "H" 
			},
			{
				"x": 0.0105492491,
				"y": 0.137368895,
				"z": 5.4566220172,
				"element": "H" 
			},
			{
				"x": -1.0720832309,
				"y": 1.9545101958,
				"z": 6.7005669819,
				"element": "H" 
			},
			{
				"x": 0.9987627014,
				"y": -1.6237791237,
				"z": 4.1810613635,
				"element": "H" 
			},
			{
				"x": 1.5835566123,
				"y": -3.0159191691,
				"z": 1.917423738,
				"element": "H" 
			},
			{
				"x": 0.8256788411,
				"y": -2.6665127405,
				"z": -0.7646524162,
				"element": "H" 
			},
			{
				"x": -0.9901460751,
				"y": -0.2259618057,
				"z": -1.0976173409,
				"element": "H" 
			},
			{
				"x": -0.7608606086,
				"y": -2.264174469,
				"z": -5.2874945915,
				"element": "H" 
			},
			{
				"x": -1.9141475072,
				"y": -1.0328272412,
				"z": -7.1308964145,
				"element": "H" 
			},
			{
				"x": -2.86696753,
				"y": 1.2233774111,
				"z": -6.6952805004,
				"element": "H" 
			},
			{
				"x": -2.6647426831,
				"y": 2.2347869438,
				"z": -4.435298063,
				"element": "H" 
			},
			{
				"x": -1.5352010141,
				"y": 1.0135844952,
				"z": -2.6259555192,
				"element": "H" 
			}
		],
		 "valence_orbital": [ 
			{
				"type": "occ",
				"energy": -0.25853,
				"method": "rhf"
			},
			{
				"type": "occ",
				"energy": -0.2534,
				"method": "rhf"
			},
			{
				"type": "occ",
				"energy": -0.24962,
				"method": "rhf"
			},
			{
				"type": "occ",
				"energy": -0.23962,
				"method": "rhf"
			},
			{
				"type": "occ",
				"energy": -0.20076,
				"method": "rhf"
			},
			{
				"type": "unocc",
				"energy": -0.07792,
				"method": "rhf"
			},
			{
				"type": "unocc",
				"energy": -0.03331,
				"method": "rhf"
			},
			{
				"type": "unocc",
				"energy": -0.0093,
				"method": "rhf"
			},
			{
				"type": "unocc",
				"energy": -0.00497,
				"method": "rhf"
			},
			{
				"type": "unocc",
				"energy": 0.00118,
				"method": "rhf"
			}
		],
		"cosmo_sigma_profile": { 
			"-0.025": 0.0,
			"-0.024": 0.0,
			"-0.023": 0.0,
			"-0.022": 0.0,
			"-0.021": 0.0,
			"-0.02": 0.0,
			"-0.019": 0.0,
			"-0.018": 0.0,
			"-0.017": 0.0,
			"-0.016": 0.0,
			"-0.015": 0.0,
			"-0.014": 0.0,
			"-0.013": 0.0,
			"-0.012": 0.0,
			"-0.011": 0.0,
			"-0.01": 0.0,
			"-0.009": 0.603265103262,
			"-0.008": 5.56680816295,
			"-0.007": 8.64900715056,
			"-0.006": 15.5203716534,
			"-0.005": 24.2606908126,
			"-0.004": 29.6314044342,
			"-0.003": 23.7707934668,
			"-0.002": 23.3571078365,
			"-0.001": 25.3956757988,
			"0.0": 27.6175766852,
			"0.001": 33.2420795013,
			"0.002": 37.1377939007,
			"0.003": 32.270892223,
			"0.004": 28.4761900374,
			"0.005": 17.3254358517,
			"0.006": 2.2846945836,
			"0.007": 1.77672174852,
			"0.008": 1.62980787802,
			"0.009": 1.83067378427,
			"0.01": 1.75854712621,
			"0.011": 1.72860763696,
			"0.012": 3.22694861879,
			"0.013": 3.78510107537,
			"0.014": 0.097280750998,
			"0.015": 0.0,
			"0.016": 0.0,
			"0.017": 0.0,
			"0.018": 0.0,
			"0.019": 0.0,
			"0.02": 0.0,
			"0.021": 0.0,
			"0.022": 0.0,
			"0.023": 0.0,
			"0.024": 0.0,
			"0.025": 0.0
		}
	}
}
