{
	 "smiles": "CC1=CC(=O)C(=NN1)C(O)=O", 
	 "Tm": 467.15, 
	 "num_atms": 17, 
	 "gaussian": { 
		 "optdone": 1, 
		 "sigma_profile": "yes", 
		 "theory": "DFT", 
		 "functional": "B3LYP", 
		 "basiset": "6-31G**", 
		 "properties": { 
			 "R2extent": 2300.2285, 
			 "electric_dipole_moment_norm": 10.1625521622, 
			 "electric_quadrupole_moment_norm": 19.029251861, 
			 "total_energy": -567.400859796, 
			 "HOMO_LUMO_gap": 0.15523, 
			 "cosmo_polarized_energy": -30.41, 
			 "cosmo_cavitation_energy": 22.21, 
			 "cosmo_dispersion_energy": -16.66, 
			 "cosmo_repulsion_energy": 1.35, 
			 "cosmo_total_nonelectrostatic_energy": 6.91, 
			 "SMD_solvation_energy": 5.52 
		},
		"coords": [
			{
				"x": 0.4944205542,
				"y": -2.2453728021,
				"z": 0.2184335052,
				"element": "C" 
			},
			{
				"x": 0.1287640818,
				"y": -0.8252124078,
				"z": -0.1056754767,
				"element": "C" 
			},
			{
				"x": -0.6655825217,
				"y": -0.4245751722,
				"z": -1.1324539433,
				"element": "C" 
			},
			{
				"x": -0.9707203918,
				"y": 0.9854108609,
				"z": -1.3754005706,
				"element": "C" 
			},
			{
				"x": -1.6825749097,
				"y": 1.3694074041,
				"z": -2.2941614218,
				"element": "O" 
			},
			{
				"x": -0.3128213826,
				"y": 1.8856796312,
				"z": -0.3777870043,
				"element": "C" 
			},
			{
				"x": 0.4444614087,
				"y": 1.4501916068,
				"z": 0.594695321,
				"element": "N" 
			},
			{
				"x": 0.6559901244,
				"y": 0.139589684,
				"z": 0.7237797926,
				"element": "N" 
			},
			{
				"x": -0.4676950911,
				"y": 3.3921226106,
				"z": -0.406993374,
				"element": "C" 
			},
			{
				"x": 0.2033991605,
				"y": 4.0351252936,
				"z": 0.5766331386,
				"element": "O" 
			},
			{
				"x": -1.1232234306,
				"y": 3.9859455769,
				"z": -1.2236272856,
				"element": "O" 
			},
			{
				"x": 0.1576801865,
				"y": -2.5213390838,
				"z": 1.2244320479,
				"element": "H" 
			},
			{
				"x": 1.579448381,
				"y": -2.3949185567,
				"z": 0.1744235543,
				"element": "H" 
			},
			{
				"x": 0.027945285,
				"y": -2.9255146944,
				"z": -0.4950962384,
				"element": "H" 
			},
			{
				"x": -1.0999782449,
				"y": -1.1525642372,
				"z": -1.8079961334,
				"element": "H" 
			},
			{
				"x": 1.2518386859,
				"y": -0.1111258296,
				"z": 1.4999910233,
				"element": "H" 
			},
			{
				"x": 0.6601481042,
				"y": 3.3638501155,
				"z": 1.1143030651,
				"element": "H" 
			}
		],
		 "valence_orbital": [ 
			{
				"type": "occ",
				"energy": -0.32626,
				"method": "rhf"
			},
			{
				"type": "occ",
				"energy": -0.30461,
				"method": "rhf"
			},
			{
				"type": "occ",
				"energy": -0.27655,
				"method": "rhf"
			},
			{
				"type": "occ",
				"energy": -0.25157,
				"method": "rhf"
			},
			{
				"type": "occ",
				"energy": -0.23205,
				"method": "rhf"
			},
			{
				"type": "unocc",
				"energy": -0.07682,
				"method": "rhf"
			},
			{
				"type": "unocc",
				"energy": -0.04507,
				"method": "rhf"
			},
			{
				"type": "unocc",
				"energy": 0.03686,
				"method": "rhf"
			},
			{
				"type": "unocc",
				"energy": 0.04333,
				"method": "rhf"
			},
			{
				"type": "unocc",
				"energy": 0.08914,
				"method": "rhf"
			}
		],
		"cosmo_sigma_profile": { 
			"-0.025": 0.0,
			"-0.024": 0.0,
			"-0.023": 0.0,
			"-0.022": 0.0,
			"-0.021": 0.0,
			"-0.02": 0.0,
			"-0.019": 0.041382401483,
			"-0.018": 1.32310308373,
			"-0.017": 1.43185911301,
			"-0.016": 1.16893384082,
			"-0.015": 0.868291603846,
			"-0.014": 2.34289430358,
			"-0.013": 1.78737059985,
			"-0.012": 1.61005832282,
			"-0.011": 1.7819002309,
			"-0.01": 1.97978478717,
			"-0.009": 2.08582010918,
			"-0.008": 3.79183718552,
			"-0.007": 10.4286764821,
			"-0.006": 9.0616782458,
			"-0.005": 11.9978920263,
			"-0.004": 15.1352133551,
			"-0.003": 17.6179699159,
			"-0.002": 12.1485433721,
			"-0.001": 8.85851307223,
			"0.0": 7.3412362236,
			"0.001": 5.80292475407,
			"0.002": 3.14498395141,
			"0.003": 2.369825915,
			"0.004": 2.38311212976,
			"0.005": 3.35345625066,
			"0.006": 2.55529318096,
			"0.007": 2.96333596776,
			"0.008": 3.86045028543,
			"0.009": 4.54468643306,
			"0.01": 5.49863273754,
			"0.011": 6.37203773032,
			"0.012": 5.91048984312,
			"0.013": 5.6565999225,
			"0.014": 5.16483456289,
			"0.015": 2.0436322701,
			"0.016": 1.49741345231,
			"0.017": 1.23553350566,
			"0.018": 0.376367073319,
			"0.019": 0.0,
			"0.02": 0.0,
			"0.021": 0.0,
			"0.022": 0.0,
			"0.023": 0.0,
			"0.024": 0.0,
			"0.025": 0.0
		}
	}
}
