{
	 "smiles": "O=C1N(CCCC#C)C(=O)C2=CC=CC=C12", 
	 "Tm": 362.15, 
	 "num_atms": 27, 
	 "gaussian": { 
		 "optdone": 1, 
		 "sigma_profile": "yes", 
		 "theory": "DFT", 
		 "functional": "B3LYP", 
		 "basiset": "6-31G**", 
		 "properties": { 
			 "R2extent": 3892.9684, 
			 "electric_dipole_moment_norm": 2.55646400522, 
			 "electric_quadrupole_moment_norm": 16.4391962592, 
			 "total_energy": -707.176401147, 
			 "HOMO_LUMO_gap": 0.1758, 
			 "cosmo_polarized_energy": -13.17, 
			 "cosmo_cavitation_energy": 32.71, 
			 "cosmo_dispersion_energy": -22.05, 
			 "cosmo_repulsion_energy": 1.7, 
			 "cosmo_total_nonelectrostatic_energy": 12.36, 
			 "SMD_solvation_energy": 7.83 
		},
		"coords": [
			{
				"x": -0.1109682937,
				"y": 0.2219320741,
				"z": 2.0059377268,
				"element": "O" 
			},
			{
				"x": -0.4938387748,
				"y": -0.1090046161,
				"z": 0.9024186064,
				"element": "C" 
			},
			{
				"x": -0.5593118391,
				"y": 0.7300095126,
				"z": -0.227022745,
				"element": "N" 
			},
			{
				"x": -0.2158701485,
				"y": 2.1501375448,
				"z": -0.2167896083,
				"element": "C" 
			},
			{
				"x": 1.033860194,
				"y": 2.4781954408,
				"z": -1.0441592808,
				"element": "C" 
			},
			{
				"x": 2.3460560489,
				"y": 1.9052576573,
				"z": -0.4671503926,
				"element": "C" 
			},
			{
				"x": 2.7203271628,
				"y": 2.4947470377,
				"z": 0.8189667703,
				"element": "C" 
			},
			{
				"x": 3.0132571298,
				"y": 3.0024901333,
				"z": 1.8750837387,
				"element": "C" 
			},
			{
				"x": -1.0919510468,
				"y": 0.0683688019,
				"z": -1.3448611617,
				"element": "C" 
			},
			{
				"x": -1.2880825091,
				"y": 0.5754084835,
				"z": -2.4330786796,
				"element": "O" 
			},
			{
				"x": -1.3541522269,
				"y": -1.3334953463,
				"z": -0.9012873288,
				"element": "C" 
			},
			{
				"x": -1.86328343,
				"y": -2.4157496939,
				"z": -1.6043119421,
				"element": "C" 
			},
			{
				"x": -2.0028409085,
				"y": -3.6258878362,
				"z": -0.9115395108,
				"element": "C" 
			},
			{
				"x": -1.642009504,
				"y": -3.7324756288,
				"z": 0.4380025044,
				"element": "C" 
			},
			{
				"x": -1.1300205132,
				"y": -2.6323822758,
				"z": 1.1391616955,
				"element": "C" 
			},
			{
				"x": -0.9945792163,
				"y": -1.4397596896,
				"z": 0.443599845,
				"element": "C" 
			},
			{
				"x": -1.0712471722,
				"y": 2.7059839851,
				"z": -0.613306674,
				"element": "H" 
			},
			{
				"x": -0.0717533236,
				"y": 2.424876502,
				"z": 0.8312217614,
				"element": "H" 
			},
			{
				"x": 0.8930079432,
				"y": 2.1047814887,
				"z": -2.0630403831,
				"element": "H" 
			},
			{
				"x": 1.1172006277,
				"y": 3.568789545,
				"z": -1.1083790419,
				"element": "H" 
			},
			{
				"x": 2.2578031318,
				"y": 0.8163115576,
				"z": -0.3578541003,
				"element": "H" 
			},
			{
				"x": 3.1539873045,
				"y": 2.07218663,
				"z": -1.190701198,
				"element": "H" 
			},
			{
				"x": 3.2727713615,
				"y": 3.4351805234,
				"z": 2.8131365177,
				"element": "H" 
			},
			{
				"x": -2.1410632168,
				"y": -2.3208030493,
				"z": -2.6490922617,
				"element": "H" 
			},
			{
				"x": -2.3974751843,
				"y": -4.496469878,
				"z": -1.4269277299,
				"element": "H" 
			},
			{
				"x": -1.7627498934,
				"y": -4.6839787601,
				"z": 0.9472385163,
				"element": "H" 
			},
			{
				"x": -0.8486737028,
				"y": -2.7023501439,
				"z": 2.184934356,
				"element": "H" 
			}
		],
		 "valence_orbital": [ 
			{
				"type": "occ",
				"energy": -0.27781,
				"method": "rhf"
			},
			{
				"type": "occ",
				"energy": -0.26732,
				"method": "rhf"
			},
			{
				"type": "occ",
				"energy": -0.26699,
				"method": "rhf"
			},
			{
				"type": "occ",
				"energy": -0.2584,
				"method": "rhf"
			},
			{
				"type": "occ",
				"energy": -0.2569,
				"method": "rhf"
			},
			{
				"type": "unocc",
				"energy": -0.0811,
				"method": "rhf"
			},
			{
				"type": "unocc",
				"energy": -0.04074,
				"method": "rhf"
			},
			{
				"type": "unocc",
				"energy": 0.02815,
				"method": "rhf"
			},
			{
				"type": "unocc",
				"energy": 0.05557,
				"method": "rhf"
			},
			{
				"type": "unocc",
				"energy": 0.06188,
				"method": "rhf"
			}
		],
		"cosmo_sigma_profile": { 
			"-0.025": 0.0,
			"-0.024": 0.0,
			"-0.023": 0.0,
			"-0.022": 0.0,
			"-0.021": 0.0,
			"-0.02": 0.0,
			"-0.019": 0.0,
			"-0.018": 0.0,
			"-0.017": 0.0,
			"-0.016": 0.0,
			"-0.015": 0.0,
			"-0.014": 0.0,
			"-0.013": 0.0,
			"-0.012": 0.0679817141739,
			"-0.011": 1.08060053131,
			"-0.01": 1.14075772538,
			"-0.009": 0.811516995814,
			"-0.008": 2.61047524639,
			"-0.007": 9.2066063855,
			"-0.006": 15.9770349108,
			"-0.005": 20.4713343206,
			"-0.004": 24.6450811054,
			"-0.003": 25.0590765975,
			"-0.002": 18.8034643706,
			"-0.001": 17.7502882576,
			"0.0": 18.1504221823,
			"0.001": 16.6251954077,
			"0.002": 19.2969375653,
			"0.003": 9.63564053342,
			"0.004": 7.97148047529,
			"0.005": 8.74034849607,
			"0.006": 6.9799651522,
			"0.007": 9.47229858991,
			"0.008": 6.71586145398,
			"0.009": 3.97861569783,
			"0.01": 4.54178424196,
			"0.011": 9.34497557797,
			"0.012": 3.44226753627,
			"0.013": 0.0113733338712,
			"0.014": 0.0,
			"0.015": 0.0,
			"0.016": 0.0,
			"0.017": 0.0,
			"0.018": 0.0,
			"0.019": 0.0,
			"0.02": 0.0,
			"0.021": 0.0,
			"0.022": 0.0,
			"0.023": 0.0,
			"0.024": 0.0,
			"0.025": 0.0
		}
	}
}
