{
	 "smiles": "CSC1=NC=C(N1C1=CC=CC=C1)C(O)=O", 
	 "Tm": 480.15, 
	 "num_atms": 26, 
	 "gaussian": { 
		 "optdone": 1, 
		 "sigma_profile": "yes", 
		 "theory": "DFT", 
		 "functional": "B3LYP", 
		 "basiset": "6-31G**", 
		 "properties": { 
			 "R2extent": 4116.4579, 
			 "electric_dipole_moment_norm": 3.17892309753, 
			 "electric_quadrupole_moment_norm": 16.9991204481, 
			 "total_energy": -1083.3349795, 
			 "HOMO_LUMO_gap": 0.18348, 
			 "cosmo_polarized_energy": -17.95, 
			 "cosmo_cavitation_energy": 32.5, 
			 "cosmo_dispersion_energy": -23.07, 
			 "cosmo_repulsion_energy": 1.78, 
			 "cosmo_total_nonelectrostatic_energy": 11.2, 
			 "SMD_solvation_energy": 5.71 
		},
		"coords": [
			{
				"x": 0.9035884374,
				"y": -3.922450271,
				"z": 0.5980301375,
				"element": "C" 
			},
			{
				"x": -0.1830752051,
				"y": -2.4539191602,
				"z": 0.5703631311,
				"element": "S" 
			},
			{
				"x": 0.697597221,
				"y": -1.4944407227,
				"z": -0.6182234994,
				"element": "C" 
			},
			{
				"x": 1.791339001,
				"y": -1.8768354015,
				"z": -1.2608418031,
				"element": "N" 
			},
			{
				"x": 2.1308752477,
				"y": -0.8104151919,
				"z": -2.041700142,
				"element": "C" 
			},
			{
				"x": 1.2458820468,
				"y": 0.2378236844,
				"z": -1.8814981108,
				"element": "C" 
			},
			{
				"x": 0.3038919531,
				"y": -0.2262888636,
				"z": -0.955594083,
				"element": "N" 
			},
			{
				"x": -0.8130473093,
				"y": 0.4831015599,
				"z": -0.3930189994,
				"element": "C" 
			},
			{
				"x": -2.1087207677,
				"y": 0.1393354074,
				"z": -0.7811098567,
				"element": "C" 
			},
			{
				"x": -3.1926692253,
				"y": 0.8069017599,
				"z": -0.2108537849,
				"element": "C" 
			},
			{
				"x": -2.9791464079,
				"y": 1.8131561755,
				"z": 0.7325236981,
				"element": "C" 
			},
			{
				"x": -1.6783958295,
				"y": 2.1515287697,
				"z": 1.1124850757,
				"element": "C" 
			},
			{
				"x": -0.5898645845,
				"y": 1.4835264316,
				"z": 0.5547315339,
				"element": "C" 
			},
			{
				"x": 1.1433485775,
				"y": 1.5362897115,
				"z": -2.5628006685,
				"element": "C" 
			},
			{
				"x": 2.2725149382,
				"y": 1.9290026088,
				"z": -3.2196867517,
				"element": "O" 
			},
			{
				"x": 0.1533863365,
				"y": 2.2310448972,
				"z": -2.5847338612,
				"element": "O" 
			},
			{
				"x": 0.4452412693,
				"y": -4.6113668564,
				"z": 1.3101463561,
				"element": "H" 
			},
			{
				"x": 0.9535876932,
				"y": -4.3782265086,
				"z": -0.3905316697,
				"element": "H" 
			},
			{
				"x": 1.906122052,
				"y": -3.6501102268,
				"z": 0.9277785717,
				"element": "H" 
			},
			{
				"x": 2.979454829,
				"y": -0.8682565226,
				"z": -2.7128531367,
				"element": "H" 
			},
			{
				"x": -2.2580658836,
				"y": -0.6349169006,
				"z": -1.5261760642,
				"element": "H" 
			},
			{
				"x": -4.2025133123,
				"y": 0.5446823989,
				"z": -0.5109706921,
				"element": "H" 
			},
			{
				"x": -3.8249368167,
				"y": 2.3346800825,
				"z": 1.1704640269,
				"element": "H" 
			},
			{
				"x": -1.5100180444,
				"y": 2.934434037,
				"z": 1.8455411165,
				"element": "H" 
			},
			{
				"x": 0.4259108379,
				"y": 1.7323547623,
				"z": 0.8439848541,
				"element": "H" 
			},
			{
				"x": 3.0142129454,
				"y": 1.3546643394,
				"z": -2.982755378,
				"element": "H" 
			}
		],
		 "valence_orbital": [ 
			{
				"type": "occ",
				"energy": -0.28967,
				"method": "rhf"
			},
			{
				"type": "occ",
				"energy": -0.26965,
				"method": "rhf"
			},
			{
				"type": "occ",
				"energy": -0.26205,
				"method": "rhf"
			},
			{
				"type": "occ",
				"energy": -0.25594,
				"method": "rhf"
			},
			{
				"type": "occ",
				"energy": -0.21978,
				"method": "rhf"
			},
			{
				"type": "unocc",
				"energy": -0.0363,
				"method": "rhf"
			},
			{
				"type": "unocc",
				"energy": -0.01885,
				"method": "rhf"
			},
			{
				"type": "unocc",
				"energy": -0.01342,
				"method": "rhf"
			},
			{
				"type": "unocc",
				"energy": 0.02465,
				"method": "rhf"
			},
			{
				"type": "unocc",
				"energy": 0.03411,
				"method": "rhf"
			}
		],
		"cosmo_sigma_profile": { 
			"-0.025": 0.0,
			"-0.024": 0.0,
			"-0.023": 0.0,
			"-0.022": 0.0,
			"-0.021": 0.0,
			"-0.02": 0.0,
			"-0.019": 0.263787918039,
			"-0.018": 0.775138135841,
			"-0.017": 1.12440103277,
			"-0.016": 1.06543705174,
			"-0.015": 1.46057240515,
			"-0.014": 0.811404456146,
			"-0.013": 0.622674727868,
			"-0.012": 1.17252855689,
			"-0.011": 1.89700723758,
			"-0.01": 0.979916357323,
			"-0.009": 1.50829864703,
			"-0.008": 2.7488047222,
			"-0.007": 9.97049918348,
			"-0.006": 16.3869952208,
			"-0.005": 20.3322958051,
			"-0.004": 18.1659251118,
			"-0.003": 17.2967297497,
			"-0.002": 17.8716990732,
			"-0.001": 15.3619631355,
			"0.0": 14.4125127263,
			"0.001": 15.0920871513,
			"0.002": 14.6820082601,
			"0.003": 18.2457311218,
			"0.004": 16.7980472241,
			"0.005": 8.04574333778,
			"0.006": 7.24284964858,
			"0.007": 6.54984696753,
			"0.008": 5.01301129145,
			"0.009": 4.78935583722,
			"0.01": 6.36151996613,
			"0.011": 6.54799121243,
			"0.012": 5.40060586441,
			"0.013": 2.28027018491,
			"0.014": 0.723704899243,
			"0.015": 0.118848219474,
			"0.016": 0.0,
			"0.017": 0.0,
			"0.018": 0.0,
			"0.019": 0.0,
			"0.02": 0.0,
			"0.021": 0.0,
			"0.022": 0.0,
			"0.023": 0.0,
			"0.024": 0.0,
			"0.025": 0.0
		}
	}
}
