{
	 "smiles": "CC(=O)C1=CC(OCCCC(O)=O)=CC=C1", 
	 "Tm": 364.15, 
	 "num_atms": 30, 
	 "gaussian": { 
		 "optdone": 1, 
		 "sigma_profile": "yes", 
		 "theory": "DFT", 
		 "functional": "B3LYP", 
		 "basiset": "6-31G**", 
		 "properties": { 
			 "R2extent": 6635.1643, 
			 "electric_dipole_moment_norm": 5.41114067919, 
			 "electric_quadrupole_moment_norm": 21.3778347362, 
			 "total_energy": -766.618597548, 
			 "HOMO_LUMO_gap": 0.17723, 
			 "cosmo_polarized_energy": -21.56, 
			 "cosmo_cavitation_energy": 34.83, 
			 "cosmo_dispersion_energy": -24.81, 
			 "cosmo_repulsion_energy": 1.96, 
			 "cosmo_total_nonelectrostatic_energy": 11.98, 
			 "SMD_solvation_energy": 7.8 
		},
		"coords": [
			{
				"x": 3.7648100044,
				"y": 0.9057945946,
				"z": 2.9381507153,
				"element": "C" 
			},
			{
				"x": 2.5157552678,
				"y": 0.1483296282,
				"z": 2.5204828956,
				"element": "C" 
			},
			{
				"x": 2.2147674368,
				"y": -0.9018063535,
				"z": 3.0667908938,
				"element": "O" 
			},
			{
				"x": 1.6592875233,
				"y": 0.7149056803,
				"z": 1.4236471209,
				"element": "C" 
			},
			{
				"x": 0.5078130254,
				"y": 0.0073571903,
				"z": 1.0704392463,
				"element": "C" 
			},
			{
				"x": -0.3329840706,
				"y": 0.4756437762,
				"z": 0.0563373938,
				"element": "C" 
			},
			{
				"x": -1.4308506621,
				"y": -0.2916808045,
				"z": -0.2073284157,
				"element": "O" 
			},
			{
				"x": -2.3219251695,
				"y": 0.1072353218,
				"z": -1.2488325623,
				"element": "C" 
			},
			{
				"x": -3.4372542906,
				"y": -0.9242349534,
				"z": -1.330159658,
				"element": "C" 
			},
			{
				"x": -2.9259221571,
				"y": -2.3328962361,
				"z": -1.6365010962,
				"element": "C" 
			},
			{
				"x": -4.056520947,
				"y": -3.3395479924,
				"z": -1.8024817718,
				"element": "C" 
			},
			{
				"x": -3.6656046215,
				"y": -4.6354897103,
				"z": -1.9422890102,
				"element": "O" 
			},
			{
				"x": -5.2277278125,
				"y": -3.0559906666,
				"z": -1.8312943824,
				"element": "O" 
			},
			{
				"x": -0.0178268425,
				"y": 1.666632454,
				"z": -0.6131049115,
				"element": "C" 
			},
			{
				"x": 1.1352816719,
				"y": 2.3717295973,
				"z": -0.255926936,
				"element": "C" 
			},
			{
				"x": 1.9745914133,
				"y": 1.9093698889,
				"z": 0.7530434381,
				"element": "C" 
			},
			{
				"x": 4.2543749279,
				"y": 0.3552389637,
				"z": 3.7418005067,
				"element": "H" 
			},
			{
				"x": 4.4579899892,
				"y": 1.0143911793,
				"z": 2.0966807543,
				"element": "H" 
			},
			{
				"x": 3.5147736719,
				"y": 1.9139540582,
				"z": 3.2864334147,
				"element": "H" 
			},
			{
				"x": 0.2683403823,
				"y": -0.91254011,
				"z": 1.5918101985,
				"element": "H" 
			},
			{
				"x": -1.7763441339,
				"y": 0.1711214639,
				"z": -2.2025574505,
				"element": "H" 
			},
			{
				"x": -2.7379534124,
				"y": 1.1003152666,
				"z": -1.0304356439,
				"element": "H" 
			},
			{
				"x": -3.9917235025,
				"y": -0.9353698847,
				"z": -0.3866056752,
				"element": "H" 
			},
			{
				"x": -4.147730664,
				"y": -0.6159267039,
				"z": -2.1036495569,
				"element": "H" 
			},
			{
				"x": -2.2488259647,
				"y": -2.6691577874,
				"z": -0.8420508859,
				"element": "H" 
			},
			{
				"x": -2.3342073903,
				"y": -2.3362095745,
				"z": -2.5639938619,
				"element": "H" 
			},
			{
				"x": -2.7022812286,
				"y": -4.7036759824,
				"z": -1.8781257293,
				"element": "H" 
			},
			{
				"x": -0.6547824011,
				"y": 2.0499423529,
				"z": -1.4012984428,
				"element": "H" 
			},
			{
				"x": 1.3730402802,
				"y": 3.2939488901,
				"z": -0.7781342213,
				"element": "H" 
			},
			{
				"x": 2.8635396764,
				"y": 2.4733164534,
				"z": 1.012653634,
				"element": "H" 
			}
		],
		 "valence_orbital": [ 
			{
				"type": "occ",
				"energy": -0.31709,
				"method": "rhf"
			},
			{
				"type": "occ",
				"energy": -0.27389,
				"method": "rhf"
			},
			{
				"type": "occ",
				"energy": -0.26246,
				"method": "rhf"
			},
			{
				"type": "occ",
				"energy": -0.24976,
				"method": "rhf"
			},
			{
				"type": "occ",
				"energy": -0.23366,
				"method": "rhf"
			},
			{
				"type": "unocc",
				"energy": -0.05643,
				"method": "rhf"
			},
			{
				"type": "unocc",
				"energy": -0.00583,
				"method": "rhf"
			},
			{
				"type": "unocc",
				"energy": 0.00888,
				"method": "rhf"
			},
			{
				"type": "unocc",
				"energy": 0.04224,
				"method": "rhf"
			},
			{
				"type": "unocc",
				"energy": 0.05419,
				"method": "rhf"
			}
		],
		"cosmo_sigma_profile": { 
			"-0.025": 0.0,
			"-0.024": 0.0,
			"-0.023": 0.0,
			"-0.022": 0.0,
			"-0.021": 0.0,
			"-0.02": 0.0,
			"-0.019": 0.530804659701,
			"-0.018": 0.983057802771,
			"-0.017": 0.992840120699,
			"-0.016": 1.18768354147,
			"-0.015": 1.42459811393,
			"-0.014": 0.776330488976,
			"-0.013": 0.857494264762,
			"-0.012": 1.29004863758,
			"-0.011": 1.15394379146,
			"-0.01": 1.44113805883,
			"-0.009": 0.767802523832,
			"-0.008": 2.63777391613,
			"-0.007": 5.31142041132,
			"-0.006": 19.2714775768,
			"-0.005": 26.835522618,
			"-0.004": 27.4579309241,
			"-0.003": 19.1878632096,
			"-0.002": 17.2533674959,
			"-0.001": 15.5836146838,
			"0.0": 12.6576039773,
			"0.001": 10.6011028647,
			"0.002": 15.6423660757,
			"0.003": 17.6399368531,
			"0.004": 15.0042932345,
			"0.005": 9.47001029198,
			"0.006": 5.26656307677,
			"0.007": 4.35622636765,
			"0.008": 5.80352190719,
			"0.009": 5.24022794124,
			"0.01": 6.393450246,
			"0.011": 8.74917028479,
			"0.012": 9.53193928598,
			"0.013": 3.64482161708,
			"0.014": 0.205530167379,
			"0.015": 0.0,
			"0.016": 0.0,
			"0.017": 0.0,
			"0.018": 0.0,
			"0.019": 0.0,
			"0.02": 0.0,
			"0.021": 0.0,
			"0.022": 0.0,
			"0.023": 0.0,
			"0.024": 0.0,
			"0.025": 0.0
		}
	}
}
