{
	 "smiles": "C#CC1=CC=C(C=C1)C1=CC=CC=C1", 
	 "Tm": 356.65, 
	 "num_atms": 24, 
	 "gaussian": { 
		 "optdone": 1, 
		 "sigma_profile": "yes", 
		 "theory": "DFT", 
		 "functional": "B3LYP", 
		 "basiset": "6-31G**", 
		 "properties": { 
			 "R2extent": 3928.3053, 
			 "electric_dipole_moment_norm": 0.846143988929, 
			 "electric_quadrupole_moment_norm": 8.2475706502, 
			 "total_energy": -539.455661981, 
			 "HOMO_LUMO_gap": 0.17459, 
			 "cosmo_polarized_energy": -6.69, 
			 "cosmo_cavitation_energy": 29.23, 
			 "cosmo_dispersion_energy": -20.72, 
			 "cosmo_repulsion_energy": 1.59, 
			 "cosmo_total_nonelectrostatic_energy": 10.1, 
			 "SMD_solvation_energy": 6.09 
		},
		"coords": [
			{
				"x": 2.2982434102,
				"y": 4.5879483922,
				"z": 1.5037280323,
				"element": "C" 
			},
			{
				"x": 1.9649506838,
				"y": 3.5057993883,
				"z": 1.0757077645,
				"element": "C" 
			},
			{
				"x": 1.5708737146,
				"y": 2.2289221058,
				"z": 0.5709059426,
				"element": "C" 
			},
			{
				"x": 0.2765630494,
				"y": 1.7289045721,
				"z": 0.8079490509,
				"element": "C" 
			},
			{
				"x": -0.1024880748,
				"y": 0.4862141922,
				"z": 0.3142091825,
				"element": "C" 
			},
			{
				"x": 0.7884481741,
				"y": -0.3061604531,
				"z": -0.4314594382,
				"element": "C" 
			},
			{
				"x": 2.0799713,
				"y": 0.1993885903,
				"z": -0.6639259895,
				"element": "C" 
			},
			{
				"x": 2.4677990979,
				"y": 1.4413644446,
				"z": -0.1752301048,
				"element": "C" 
			},
			{
				"x": 0.3789658947,
				"y": -1.632693214,
				"z": -0.9560393974,
				"element": "C" 
			},
			{
				"x": 0.8137127013,
				"y": -2.0764927893,
				"z": -2.2171091932,
				"element": "C" 
			},
			{
				"x": 0.4291716404,
				"y": -3.3225350571,
				"z": -2.7098138318,
				"element": "C" 
			},
			{
				"x": -0.3994363892,
				"y": -4.153175183,
				"z": -1.9529599369,
				"element": "C" 
			},
			{
				"x": -0.8396093888,
				"y": -3.7261793383,
				"z": -0.6986415213,
				"element": "C" 
			},
			{
				"x": -0.4545748825,
				"y": -2.480367754,
				"z": -0.2057462609,
				"element": "C" 
			},
			{
				"x": 2.5918905811,
				"y": 5.5400351091,
				"z": 1.8803815392,
				"element": "H" 
			},
			{
				"x": -0.4281353879,
				"y": 2.3298385916,
				"z": 1.3736439945,
				"element": "H" 
			},
			{
				"x": -1.1147050904,
				"y": 0.1330863751,
				"z": 0.486163736,
				"element": "H" 
			},
			{
				"x": 2.7974797318,
				"y": -0.4023226672,
				"z": -1.2134547665,
				"element": "H" 
			},
			{
				"x": 3.4719073627,
				"y": 1.8105822361,
				"z": -0.3573686849,
				"element": "H" 
			},
			{
				"x": 1.4357209743,
				"y": -1.4271701076,
				"z": -2.8261042828,
				"element": "H" 
			},
			{
				"x": 0.7702477016,
				"y": -3.6411977477,
				"z": -3.6908101964,
				"element": "H" 
			},
			{
				"x": -0.6992389992,
				"y": -5.12389669,
				"z": -2.3369260044,
				"element": "H" 
			},
			{
				"x": -1.4773858074,
				"y": -4.3682699913,
				"z": -0.0976482411,
				"element": "H" 
			},
			{
				"x": -0.7802719977,
				"y": -2.1702230047,
				"z": 0.7827486076,
				"element": "H" 
			}
		],
		 "valence_orbital": [ 
			{
				"type": "occ",
				"energy": -0.27167,
				"method": "rhf"
			},
			{
				"type": "occ",
				"energy": -0.25975,
				"method": "rhf"
			},
			{
				"type": "occ",
				"energy": -0.25757,
				"method": "rhf"
			},
			{
				"type": "occ",
				"energy": -0.25295,
				"method": "rhf"
			},
			{
				"type": "occ",
				"energy": -0.21814,
				"method": "rhf"
			},
			{
				"type": "unocc",
				"energy": -0.04355,
				"method": "rhf"
			},
			{
				"type": "unocc",
				"energy": -0.00829,
				"method": "rhf"
			},
			{
				"type": "unocc",
				"energy": -0.00308,
				"method": "rhf"
			},
			{
				"type": "unocc",
				"energy": 0.01159,
				"method": "rhf"
			},
			{
				"type": "unocc",
				"energy": 0.0552,
				"method": "rhf"
			}
		],
		"cosmo_sigma_profile": { 
			"-0.025": 0.0,
			"-0.024": 0.0,
			"-0.023": 0.0,
			"-0.022": 0.0,
			"-0.021": 0.0,
			"-0.02": 0.0,
			"-0.019": 0.0,
			"-0.018": 0.0,
			"-0.017": 0.0,
			"-0.016": 0.0,
			"-0.015": 0.0,
			"-0.014": 0.0,
			"-0.013": 0.0,
			"-0.012": 0.708209690834,
			"-0.011": 1.27014914816,
			"-0.01": 0.759716169934,
			"-0.009": 1.21447980404,
			"-0.008": 1.54124629151,
			"-0.007": 1.57438546747,
			"-0.006": 13.1689552648,
			"-0.005": 21.4575454994,
			"-0.004": 20.0788390239,
			"-0.003": 15.8074978648,
			"-0.002": 13.8301876544,
			"-0.001": 12.0248985731,
			"0.0": 15.0380633453,
			"0.001": 14.0958867809,
			"0.002": 20.1560344137,
			"0.003": 25.1123915772,
			"0.004": 26.046534044,
			"0.005": 16.3984349251,
			"0.006": 13.4336886324,
			"0.007": 2.75453513314,
			"0.008": 0.0,
			"0.009": 0.0,
			"0.01": 0.0,
			"0.011": 0.0,
			"0.012": 0.0,
			"0.013": 0.0,
			"0.014": 0.0,
			"0.015": 0.0,
			"0.016": 0.0,
			"0.017": 0.0,
			"0.018": 0.0,
			"0.019": 0.0,
			"0.02": 0.0,
			"0.021": 0.0,
			"0.022": 0.0,
			"0.023": 0.0,
			"0.024": 0.0,
			"0.025": 0.0
		}
	}
}
