{
	 "smiles": "OC(=O)C1=C(Cl)C=C(O)C=C1", 
	 "Tm": 481.15, 
	 "num_atms": 16, 
	 "gaussian": { 
		 "optdone": 1, 
		 "sigma_profile": "yes", 
		 "theory": "DFT", 
		 "functional": "B3LYP", 
		 "basiset": "6-31G**", 
		 "properties": { 
			 "R2extent": 3416.4948, 
			 "electric_dipole_moment_norm": 5.05879291729, 
			 "electric_quadrupole_moment_norm": 27.6680166523, 
			 "total_energy": -955.624697054, 
			 "HOMO_LUMO_gap": 0.20195, 
			 "cosmo_polarized_energy": -15.3, 
			 "cosmo_cavitation_energy": 22.35, 
			 "cosmo_dispersion_energy": -17.12, 
			 "cosmo_repulsion_energy": 1.36, 
			 "cosmo_total_nonelectrostatic_energy": 6.59, 
			 "SMD_solvation_energy": 5.2 
		},
		"coords": [
			{
				"x": 4.5318351407,
				"y": 0.5257273867,
				"z": 0.814059524,
				"element": "O" 
			},
			{
				"x": 3.7001671761,
				"y": 1.4311913101,
				"z": 1.359340054,
				"element": "C" 
			},
			{
				"x": 4.1560895643,
				"y": 2.3391301677,
				"z": 2.0202549128,
				"element": "O" 
			},
			{
				"x": 2.2081828541,
				"y": 1.3062987936,
				"z": 1.1429477788,
				"element": "C" 
			},
			{
				"x": 1.4788506765,
				"y": 0.3435035867,
				"z": 0.4187330661,
				"element": "C" 
			},
			{
				"x": 2.2544854315,
				"y": -1.0037189092,
				"z": -0.437154502,
				"element": "Cl" 
			},
			{
				"x": 0.0929281064,
				"y": 0.3744461152,
				"z": 0.3190386785,
				"element": "C" 
			},
			{
				"x": -0.6225034361,
				"y": 1.3931259929,
				"z": 0.9557880039,
				"element": "C" 
			},
			{
				"x": -1.9725542819,
				"y": 1.3732399736,
				"z": 0.8243709117,
				"element": "O" 
			},
			{
				"x": 0.0650070901,
				"y": 2.3699475257,
				"z": 1.6861179417,
				"element": "C" 
			},
			{
				"x": 1.4468149372,
				"y": 2.3122593158,
				"z": 1.7669318598,
				"element": "C" 
			},
			{
				"x": 4.0491781937,
				"y": -0.1487544166,
				"z": 0.3089229119,
				"element": "H" 
			},
			{
				"x": -0.4421237636,
				"y": -0.3795364135,
				"z": -0.2450749554,
				"element": "H" 
			},
			{
				"x": -2.3559335839,
				"y": 2.120580518,
				"z": 1.3026010705,
				"element": "H" 
			},
			{
				"x": -0.4792391894,
				"y": 3.1672265008,
				"z": 2.1861467617,
				"element": "H" 
			},
			{
				"x": 1.9998150841,
				"y": 3.0578325527,
				"z": 2.3266759821,
				"element": "H" 
			}
		],
		 "valence_orbital": [ 
			{
				"type": "occ",
				"energy": -0.33968,
				"method": "rhf"
			},
			{
				"type": "occ",
				"energy": -0.30799,
				"method": "rhf"
			},
			{
				"type": "occ",
				"energy": -0.27478,
				"method": "rhf"
			},
			{
				"type": "occ",
				"energy": -0.27333,
				"method": "rhf"
			},
			{
				"type": "occ",
				"energy": -0.25342,
				"method": "rhf"
			},
			{
				"type": "unocc",
				"energy": -0.05147,
				"method": "rhf"
			},
			{
				"type": "unocc",
				"energy": -0.03292,
				"method": "rhf"
			},
			{
				"type": "unocc",
				"energy": -0.00234,
				"method": "rhf"
			},
			{
				"type": "unocc",
				"energy": 0.04835,
				"method": "rhf"
			},
			{
				"type": "unocc",
				"energy": 0.05408,
				"method": "rhf"
			}
		],
		"cosmo_sigma_profile": { 
			"-0.025": 0.0,
			"-0.024": 0.0,
			"-0.023": 0.0,
			"-0.022": 0.0,
			"-0.021": 0.0,
			"-0.02": 0.0,
			"-0.019": 0.515707541378,
			"-0.018": 1.28599635641,
			"-0.017": 1.53106727576,
			"-0.016": 0.905516795452,
			"-0.015": 1.02230536745,
			"-0.014": 1.11367273696,
			"-0.013": 0.763890044521,
			"-0.012": 1.24817587189,
			"-0.011": 1.81631983652,
			"-0.01": 1.47166655629,
			"-0.009": 3.02270712932,
			"-0.008": 5.51703635411,
			"-0.007": 5.85265476736,
			"-0.006": 6.78530618423,
			"-0.005": 7.22505406278,
			"-0.004": 8.02067703521,
			"-0.003": 7.81736760933,
			"-0.002": 9.10783290983,
			"-0.001": 11.4769156918,
			"0.0": 16.4265492271,
			"0.001": 22.4476512254,
			"0.002": 17.0681361245,
			"0.003": 8.64486457167,
			"0.004": 3.76700044495,
			"0.005": 3.76050383862,
			"0.006": 3.38414278011,
			"0.007": 3.40086624963,
			"0.008": 4.10760802229,
			"0.009": 4.36357616915,
			"0.01": 5.73992565549,
			"0.011": 5.15563607638,
			"0.012": 4.76376959444,
			"0.013": 1.88690980661,
			"0.014": 0.38421795411,
			"0.015": 0.0,
			"0.016": 0.0,
			"0.017": 0.0,
			"0.018": 0.0,
			"0.019": 0.0,
			"0.02": 0.0,
			"0.021": 0.0,
			"0.022": 0.0,
			"0.023": 0.0,
			"0.024": 0.0,
			"0.025": 0.0
		}
	}
}
