{
	 "smiles": "CCOC(=O)CC1=CSC(=S)N1", 
	 "Tm": 413.15, 
	 "num_atms": 21, 
	 "gaussian": { 
		 "optdone": 1, 
		 "sigma_profile": "yes", 
		 "theory": "DFT", 
		 "functional": "B3LYP", 
		 "basiset": "6-31G**", 
		 "properties": { 
			 "R2extent": 5554.9005, 
			 "electric_dipole_moment_norm": 8.12488471857, 
			 "electric_quadrupole_moment_norm": 25.5771376694, 
			 "total_energy": -1273.7599399, 
			 "HOMO_LUMO_gap": 0.16859, 
			 "cosmo_polarized_energy": -16.78, 
			 "cosmo_cavitation_energy": 28.84, 
			 "cosmo_dispersion_energy": -22.03, 
			 "cosmo_repulsion_energy": 1.7, 
			 "cosmo_total_nonelectrostatic_energy": 8.51, 
			 "SMD_solvation_energy": 4.72 
		},
		"coords": [
			{
				"x": -0.2232746247,
				"y": 1.6025205826,
				"z": 2.6180359841,
				"element": "C" 
			},
			{
				"x": -0.7663379153,
				"y": 0.182994361,
				"z": 2.6231369749,
				"element": "C" 
			},
			{
				"x": -1.4990504728,
				"y": -0.1042370266,
				"z": 1.3972514567,
				"element": "O" 
			},
			{
				"x": -0.7806151708,
				"y": -0.516216623,
				"z": 0.346140652,
				"element": "C" 
			},
			{
				"x": 0.4255120062,
				"y": -0.6794460175,
				"z": 0.3534363487,
				"element": "O" 
			},
			{
				"x": -1.65612265,
				"y": -0.707503157,
				"z": -0.8856124758,
				"element": "C" 
			},
			{
				"x": -1.2916692531,
				"y": -1.9084805823,
				"z": -1.7138759645,
				"element": "C" 
			},
			{
				"x": -2.1382700414,
				"y": -2.7547029726,
				"z": -2.3415988083,
				"element": "C" 
			},
			{
				"x": -1.2571206637,
				"y": -3.949086036,
				"z": -3.2756483904,
				"element": "S" 
			},
			{
				"x": 0.3121112959,
				"y": -3.2774157441,
				"z": -2.7733555653,
				"element": "C" 
			},
			{
				"x": 1.8088732726,
				"y": -3.8526028182,
				"z": -3.1940362444,
				"element": "S" 
			},
			{
				"x": 0.040918819,
				"y": -2.2039869838,
				"z": -1.970588331,
				"element": "N" 
			},
			{
				"x": 0.5261657488,
				"y": 1.7284420513,
				"z": 1.8327904402,
				"element": "H" 
			},
			{
				"x": -1.0269646212,
				"y": 2.3284491101,
				"z": 2.4646653035,
				"element": "H" 
			},
			{
				"x": 0.2525988433,
				"y": 1.8163090975,
				"z": 3.5804862209,
				"element": "H" 
			},
			{
				"x": -1.5059634566,
				"y": 0.0347168434,
				"z": 3.4123644115,
				"element": "H" 
			},
			{
				"x": 0.0341080586,
				"y": -0.5521421762,
				"z": 2.7288901648,
				"element": "H" 
			},
			{
				"x": -2.7062420324,
				"y": -0.7581717871,
				"z": -0.5950135463,
				"element": "H" 
			},
			{
				"x": -1.5309452586,
				"y": 0.2065603903,
				"z": -1.4852893021,
				"element": "H" 
			},
			{
				"x": -3.2180308711,
				"y": -2.7322800236,
				"z": -2.321397562,
				"element": "H" 
			},
			{
				"x": 0.7852189873,
				"y": -1.7288204882,
				"z": -1.4682817673,
				"element": "H" 
			}
		],
		 "valence_orbital": [ 
			{
				"type": "occ",
				"energy": -0.30964,
				"method": "rhf"
			},
			{
				"type": "occ",
				"energy": -0.3026,
				"method": "rhf"
			},
			{
				"type": "occ",
				"energy": -0.28893,
				"method": "rhf"
			},
			{
				"type": "occ",
				"energy": -0.20763,
				"method": "rhf"
			},
			{
				"type": "occ",
				"energy": -0.19939,
				"method": "rhf"
			},
			{
				"type": "unocc",
				"energy": -0.0308,
				"method": "rhf"
			},
			{
				"type": "unocc",
				"energy": -0.01987,
				"method": "rhf"
			},
			{
				"type": "unocc",
				"energy": 0.01135,
				"method": "rhf"
			},
			{
				"type": "unocc",
				"energy": 0.01493,
				"method": "rhf"
			},
			{
				"type": "unocc",
				"energy": 0.07032,
				"method": "rhf"
			}
		],
		"cosmo_sigma_profile": { 
			"-0.025": 0.0,
			"-0.024": 0.0,
			"-0.023": 0.0,
			"-0.022": 0.0,
			"-0.021": 0.0,
			"-0.02": 0.0,
			"-0.019": 0.0,
			"-0.018": 0.0,
			"-0.017": 0.0,
			"-0.016": 0.0,
			"-0.015": 0.0,
			"-0.014": 0.0,
			"-0.013": 0.0,
			"-0.012": 0.0,
			"-0.011": 0.37998151999,
			"-0.01": 2.37993545248,
			"-0.009": 5.82983458153,
			"-0.008": 8.45016562454,
			"-0.007": 7.8877844411,
			"-0.006": 9.44627901261,
			"-0.005": 14.3509893128,
			"-0.004": 17.5279512937,
			"-0.003": 17.8491273588,
			"-0.002": 18.7341687816,
			"-0.001": 18.3580345768,
			"0.0": 18.1275762146,
			"0.001": 14.756054157,
			"0.002": 13.538056479,
			"0.003": 11.3036707196,
			"0.004": 6.60187305134,
			"0.005": 5.90237797838,
			"0.006": 5.83630435711,
			"0.007": 5.92309585422,
			"0.008": 7.25816369298,
			"0.009": 7.83414140908,
			"0.01": 9.58502664604,
			"0.011": 5.28120336593,
			"0.012": 1.38521211476,
			"0.013": 0.0,
			"0.014": 0.0,
			"0.015": 0.0,
			"0.016": 0.0,
			"0.017": 0.0,
			"0.018": 0.0,
			"0.019": 0.0,
			"0.02": 0.0,
			"0.021": 0.0,
			"0.022": 0.0,
			"0.023": 0.0,
			"0.024": 0.0,
			"0.025": 0.0
		}
	}
}
