{
	 "smiles": "BrCC(=O)C1=CC(=NO1)C1=CC=CC=C1", 
	 "Tm": 383.15, 
	 "num_atms": 23, 
	 "gaussian": { 
		 "optdone": 1, 
		 "sigma_profile": "yes", 
		 "theory": "DFT", 
		 "functional": "B3LYP", 
		 "basiset": "6-31G**", 
		 "properties": { 
			 "R2extent": 6644.5335, 
			 "electric_dipole_moment_norm": 4.57257237231, 
			 "electric_quadrupole_moment_norm": 14.1309133841, 
			 "total_energy": -3200.53466336, 
			 "HOMO_LUMO_gap": 0.1557, 
			 "cosmo_polarized_energy": -13.42, 
			 "cosmo_cavitation_energy": 30.93, 
			 "cosmo_dispersion_energy": -22.69, 
			 "cosmo_repulsion_energy": 1.77, 
			 "cosmo_total_nonelectrostatic_energy": 10.01, 
			 "SMD_solvation_energy": 4.76 
		},
		"coords": [
			{
				"x": -2.1168583479,
				"y": 2.6939360317,
				"z": 2.7692482255,
				"element": "Br" 
			},
			{
				"x": -1.0683929232,
				"y": 1.6401510555,
				"z": 4.0733739766,
				"element": "C" 
			},
			{
				"x": 0.4186014613,
				"y": 1.6595408806,
				"z": 3.7432468262,
				"element": "C" 
			},
			{
				"x": 1.2050892237,
				"y": 2.227416329,
				"z": 4.4764383957,
				"element": "O" 
			},
			{
				"x": 0.8645168232,
				"y": 0.9197232571,
				"z": 2.5417541374,
				"element": "C" 
			},
			{
				"x": 0.2083773957,
				"y": 0.2287805924,
				"z": 1.5629647064,
				"element": "C" 
			},
			{
				"x": 1.2518861623,
				"y": -0.2678445383,
				"z": 0.7251106215,
				"element": "C" 
			},
			{
				"x": 2.4341718385,
				"y": 0.1099967216,
				"z": 1.1887024473,
				"element": "N" 
			},
			{
				"x": 2.1979846711,
				"y": 0.853757227,
				"z": 2.3254832315,
				"element": "O" 
			},
			{
				"x": 1.1473763462,
				"y": -1.0879800694,
				"z": -0.4944691438,
				"element": "C" 
			},
			{
				"x": -0.1059755154,
				"y": -1.4116045048,
				"z": -1.0343800704,
				"element": "C" 
			},
			{
				"x": -0.199646507,
				"y": -2.1882663812,
				"z": -2.1885854682,
				"element": "C" 
			},
			{
				"x": 0.9569632526,
				"y": -2.650636346,
				"z": -2.8176668368,
				"element": "C" 
			},
			{
				"x": 2.2095967787,
				"y": -2.3312764381,
				"z": -2.28617061,
				"element": "C" 
			},
			{
				"x": 2.3074876662,
				"y": -1.5566787439,
				"z": -1.1338766229,
				"element": "C" 
			},
			{
				"x": -1.2146545293,
				"y": 2.1096168068,
				"z": 5.0430454256,
				"element": "H" 
			},
			{
				"x": -1.4868566063,
				"y": 0.633479499,
				"z": 4.0546332238,
				"element": "H" 
			},
			{
				"x": -0.8572386661,
				"y": 0.114476907,
				"z": 1.4459118227,
				"element": "H" 
			},
			{
				"x": -1.0140062752,
				"y": -1.0538062712,
				"z": -0.558689152,
				"element": "H" 
			},
			{
				"x": -1.1768102216,
				"y": -2.4299944282,
				"z": -2.5960403294,
				"element": "H" 
			},
			{
				"x": 0.8837700453,
				"y": -3.2556597543,
				"z": -3.7165743936,
				"element": "H" 
			},
			{
				"x": 3.1134277409,
				"y": -2.6880894616,
				"z": -2.7711386711,
				"element": "H" 
			},
			{
				"x": 3.2773901862,
				"y": -1.3074383707,
				"z": -0.717321742,
				"element": "H" 
			}
		],
		 "valence_orbital": [ 
			{
				"type": "occ",
				"energy": -0.29918,
				"method": "rhf"
			},
			{
				"type": "occ",
				"energy": -0.28388,
				"method": "rhf"
			},
			{
				"type": "occ",
				"energy": -0.2755,
				"method": "rhf"
			},
			{
				"type": "occ",
				"energy": -0.2637,
				"method": "rhf"
			},
			{
				"type": "occ",
				"energy": -0.2489,
				"method": "rhf"
			},
			{
				"type": "unocc",
				"energy": -0.0932,
				"method": "rhf"
			},
			{
				"type": "unocc",
				"energy": -0.04588,
				"method": "rhf"
			},
			{
				"type": "unocc",
				"energy": -0.01991,
				"method": "rhf"
			},
			{
				"type": "unocc",
				"energy": -0.01162,
				"method": "rhf"
			},
			{
				"type": "unocc",
				"energy": 0.04471,
				"method": "rhf"
			}
		],
		"cosmo_sigma_profile": { 
			"-0.025": 0.0,
			"-0.024": 0.0,
			"-0.023": 0.0,
			"-0.022": 0.0,
			"-0.021": 0.0,
			"-0.02": 0.0,
			"-0.019": 0.0,
			"-0.018": 0.0,
			"-0.017": 0.0,
			"-0.016": 0.0,
			"-0.015": 0.0,
			"-0.014": 0.0,
			"-0.013": 0.0,
			"-0.012": 0.0,
			"-0.011": 0.127150402322,
			"-0.01": 4.83529407425,
			"-0.009": 6.96148482664,
			"-0.008": 6.39090994313,
			"-0.007": 6.92354609484,
			"-0.006": 12.6685648066,
			"-0.005": 15.2704868743,
			"-0.004": 15.7448381053,
			"-0.003": 13.5388216305,
			"-0.002": 17.2308770786,
			"-0.001": 17.2729599744,
			"0.0": 15.4139006892,
			"0.001": 16.8268216181,
			"0.002": 18.6454001602,
			"0.003": 19.3173051522,
			"0.004": 21.6357839991,
			"0.005": 12.9935126443,
			"0.006": 5.61338156034,
			"0.007": 5.64804238918,
			"0.008": 4.68361197999,
			"0.009": 5.2884079029,
			"0.01": 6.25215366478,
			"0.011": 2.55032414697,
			"0.012": 0.459323045902,
			"0.013": 0.0,
			"0.014": 0.0,
			"0.015": 0.0,
			"0.016": 0.0,
			"0.017": 0.0,
			"0.018": 0.0,
			"0.019": 0.0,
			"0.02": 0.0,
			"0.021": 0.0,
			"0.022": 0.0,
			"0.023": 0.0,
			"0.024": 0.0,
			"0.025": 0.0
		}
	}
}
