{
	 "smiles": "COC1=C(C=C(Cl)C=C1Br)S(Cl)(=O)=O", 
	 "Tm": 342.15, 
	 "num_atms": 19, 
	 "gaussian": { 
		 "optdone": 1, 
		 "sigma_profile": "yes", 
		 "theory": "DFT", 
		 "functional": "B3LYP", 
		 "basiset": "6-31G**", 
		 "properties": { 
			 "R2extent": 5476.4349, 
			 "electric_dipole_moment_norm": 4.32555187808, 
			 "electric_quadrupole_moment_norm": 13.8617192101, 
			 "total_energy": -4385.30546088, 
			 "HOMO_LUMO_gap": 0.16871, 
			 "cosmo_polarized_energy": -9.56, 
			 "cosmo_cavitation_energy": 30.55, 
			 "cosmo_dispersion_energy": -23.1, 
			 "cosmo_repulsion_energy": 1.77, 
			 "cosmo_total_nonelectrostatic_energy": 9.22, 
			 "SMD_solvation_energy": 3.54 
		},
		"coords": [
			{
				"x": 2.0518182369,
				"y": 2.0628510023,
				"z": 0.6065144897,
				"element": "C" 
			},
			{
				"x": 0.7053679756,
				"y": 1.5876732614,
				"z": 0.8244958583,
				"element": "O" 
			},
			{
				"x": 0.3912000827,
				"y": 0.3432579535,
				"z": 0.3985159669,
				"element": "C" 
			},
			{
				"x": 0.1297677211,
				"y": -0.6774543487,
				"z": 1.3345886103,
				"element": "C" 
			},
			{
				"x": -0.2424932338,
				"y": -1.9702297121,
				"z": 0.9650401713,
				"element": "C" 
			},
			{
				"x": -0.3626387814,
				"y": -2.2615179067,
				"z": -0.3899274664,
				"element": "C" 
			},
			{
				"x": -0.8164411375,
				"y": -3.8727449175,
				"z": -0.8933151366,
				"element": "Cl" 
			},
			{
				"x": -0.1449171073,
				"y": -1.2777349789,
				"z": -1.3531610491,
				"element": "C" 
			},
			{
				"x": 0.2167892499,
				"y": 0.0085465704,
				"z": -0.9578604966,
				"element": "C" 
			},
			{
				"x": 0.3963179889,
				"y": 1.3388221909,
				"z": -2.3061126253,
				"element": "Br" 
			},
			{
				"x": 0.1752018082,
				"y": -0.3558398709,
				"z": 3.1070433016,
				"element": "S" 
			},
			{
				"x": 2.2722910813,
				"y": -0.1553303473,
				"z": 3.4519131797,
				"element": "Cl" 
			},
			{
				"x": -0.4326287881,
				"y": 0.9243395581,
				"z": 3.4271708493,
				"element": "O" 
			},
			{
				"x": -0.217098051,
				"y": -1.5830540638,
				"z": 3.7891038681,
				"element": "O" 
			},
			{
				"x": 2.7687241026,
				"y": 1.4198424138,
				"z": 1.1229839181,
				"element": "H" 
			},
			{
				"x": 2.2862540222,
				"y": 2.1203246324,
				"z": -0.4584309812,
				"element": "H" 
			},
			{
				"x": 2.0731816194,
				"y": 3.0610106995,
				"z": 1.043250826,
				"element": "H" 
			},
			{
				"x": -0.4309892503,
				"y": -2.7196126657,
				"z": 1.7232060952,
				"element": "H" 
			},
			{
				"x": -0.2698075392,
				"y": -1.5043494708,
				"z": -2.4048193792,
				"element": "H" 
			}
		],
		 "valence_orbital": [ 
			{
				"type": "occ",
				"energy": -0.32232,
				"method": "rhf"
			},
			{
				"type": "occ",
				"energy": -0.31775,
				"method": "rhf"
			},
			{
				"type": "occ",
				"energy": -0.30987,
				"method": "rhf"
			},
			{
				"type": "occ",
				"energy": -0.2897,
				"method": "rhf"
			},
			{
				"type": "occ",
				"energy": -0.26786,
				"method": "rhf"
			},
			{
				"type": "unocc",
				"energy": -0.09915,
				"method": "rhf"
			},
			{
				"type": "unocc",
				"energy": -0.06429,
				"method": "rhf"
			},
			{
				"type": "unocc",
				"energy": -0.05416,
				"method": "rhf"
			},
			{
				"type": "unocc",
				"energy": -0.03156,
				"method": "rhf"
			},
			{
				"type": "unocc",
				"energy": 0.01515,
				"method": "rhf"
			}
		],
		"cosmo_sigma_profile": { 
			"-0.025": 0.0,
			"-0.024": 0.0,
			"-0.023": 0.0,
			"-0.022": 0.0,
			"-0.021": 0.0,
			"-0.02": 0.0,
			"-0.019": 0.0,
			"-0.018": 0.0,
			"-0.017": 0.0,
			"-0.016": 0.0,
			"-0.015": 0.0,
			"-0.014": 0.0,
			"-0.013": 0.0,
			"-0.012": 0.0,
			"-0.011": 0.0,
			"-0.01": 0.739171601379,
			"-0.009": 1.80526998241,
			"-0.008": 2.93825448478,
			"-0.007": 4.97631001,
			"-0.006": 8.20396104436,
			"-0.005": 14.8155207867,
			"-0.004": 21.1848267105,
			"-0.003": 21.3546998638,
			"-0.002": 25.5745604429,
			"-0.001": 25.0566130496,
			"0.0": 16.1445877319,
			"0.001": 17.6956809656,
			"0.002": 22.0909035573,
			"0.003": 27.9552768927,
			"0.004": 10.4596364086,
			"0.005": 3.40323792879,
			"0.006": 5.468128877,
			"0.007": 7.46814573491,
			"0.008": 10.9543873065,
			"0.009": 3.67057126795,
			"0.01": 1.55038064098,
			"0.011": 0.336626711451,
			"0.012": 0.0,
			"0.013": 0.0,
			"0.014": 0.0,
			"0.015": 0.0,
			"0.016": 0.0,
			"0.017": 0.0,
			"0.018": 0.0,
			"0.019": 0.0,
			"0.02": 0.0,
			"0.021": 0.0,
			"0.022": 0.0,
			"0.023": 0.0,
			"0.024": 0.0,
			"0.025": 0.0
		}
	}
}
