{
	 "smiles": "C=C[Si]12OCCN(CCO1)CCO2", 
	 "Tm": 437.15, 
	 "num_atms": 28, 
	 "gaussian": { 
		 "optdone": 1, 
		 "sigma_profile": "yes", 
		 "theory": "DFT", 
		 "functional": "B3LYP", 
		 "basiset": "6-31G**", 
		 "properties": { 
			 "R2extent": 2665.9706, 
			 "electric_dipole_moment_norm": 4.40743479475, 
			 "electric_quadrupole_moment_norm": 4.91981961661, 
			 "total_energy": -883.889768575, 
			 "HOMO_LUMO_gap": 0.24926, 
			 "cosmo_polarized_energy": -12.0, 
			 "cosmo_cavitation_energy": 28.68, 
			 "cosmo_dispersion_energy": -20.15, 
			 "cosmo_repulsion_energy": 1.66, 
			 "cosmo_total_nonelectrostatic_energy": 10.18, 
			 "SMD_solvation_energy": 5.6 
		},
		"coords": [
			{
				"x": -3.5342156199,
				"y": -0.3617170044,
				"z": 2.7400469188,
				"element": "C" 
			},
			{
				"x": -2.987478485,
				"y": 0.1702915006,
				"z": 1.6411666418,
				"element": "C" 
			},
			{
				"x": -1.3200831149,
				"y": -0.2951871705,
				"z": 0.9626145594,
				"element": "Si" 
			},
			{
				"x": -0.7100447095,
				"y": -1.3248744092,
				"z": 2.1311242381,
				"element": "O" 
			},
			{
				"x": 0.2116090604,
				"y": -2.3556647188,
				"z": 1.8437327915,
				"element": "C" 
			},
			{
				"x": 1.4658798423,
				"y": -1.7723160405,
				"z": 1.1815644059,
				"element": "C" 
			},
			{
				"x": 1.0647657275,
				"y": -0.89568015,
				"z": 0.0842858629,
				"element": "N" 
			},
			{
				"x": 0.6813876574,
				"y": -1.5440978739,
				"z": -1.163605405,
				"element": "C" 
			},
			{
				"x": -0.7411051575,
				"y": -1.1257472526,
				"z": -1.5933401067,
				"element": "C" 
			},
			{
				"x": -1.6203348687,
				"y": -1.0778996615,
				"z": -0.4888933608,
				"element": "O" 
			},
			{
				"x": 1.6238057561,
				"y": 0.4466679345,
				"z": 0.0161378882,
				"element": "C" 
			},
			{
				"x": 0.5020758415,
				"y": 1.5002501212,
				"z": -0.0834763992,
				"element": "C" 
			},
			{
				"x": -0.5771812515,
				"y": 1.1920450522,
				"z": 0.7732300242,
				"element": "O" 
			},
			{
				"x": -3.0122461289,
				"y": -1.1175082659,
				"z": 3.3212110843,
				"element": "H" 
			},
			{
				"x": -4.5162953305,
				"y": -0.0648938888,
				"z": 3.105650154,
				"element": "H" 
			},
			{
				"x": -3.5563716196,
				"y": 0.9297181984,
				"z": 1.1018783495,
				"element": "H" 
			},
			{
				"x": 0.4776491862,
				"y": -2.8561869023,
				"z": 2.7820924877,
				"element": "H" 
			},
			{
				"x": -0.2503716956,
				"y": -3.1080632712,
				"z": 1.1872773958,
				"element": "H" 
			},
			{
				"x": 2.0024078864,
				"y": -1.1710066697,
				"z": 1.9202145858,
				"element": "H" 
			},
			{
				"x": 2.1408444541,
				"y": -2.5799095887,
				"z": 0.8556181525,
				"element": "H" 
			},
			{
				"x": 0.6937492058,
				"y": -2.6261589281,
				"z": -0.9997467757,
				"element": "H" 
			},
			{
				"x": 1.3962300772,
				"y": -1.3292464986,
				"z": -1.9743201137,
				"element": "H" 
			},
			{
				"x": -0.716509139,
				"y": -0.1523986656,
				"z": -2.1022205674,
				"element": "H" 
			},
			{
				"x": -1.1344739511,
				"y": -1.8524241285,
				"z": -2.3143055913,
				"element": "H" 
			},
			{
				"x": 2.187335422,
				"y": 0.6237433928,
				"z": 0.9359742369,
				"element": "H" 
			},
			{
				"x": 2.3234286986,
				"y": 0.5667845922,
				"z": -0.8273941782,
				"element": "H" 
			},
			{
				"x": 0.8982034767,
				"y": 2.4822924416,
				"z": 0.2018576619,
				"element": "H" 
			},
			{
				"x": 0.1476387796,
				"y": 1.5889878552,
				"z": -1.1198749413,
				"element": "H" 
			}
		],
		 "valence_orbital": [ 
			{
				"type": "occ",
				"energy": -0.28068,
				"method": "rhf"
			},
			{
				"type": "occ",
				"energy": -0.27561,
				"method": "rhf"
			},
			{
				"type": "occ",
				"energy": -0.26202,
				"method": "rhf"
			},
			{
				"type": "occ",
				"energy": -0.24875,
				"method": "rhf"
			},
			{
				"type": "occ",
				"energy": -0.23272,
				"method": "rhf"
			},
			{
				"type": "unocc",
				"energy": 0.01654,
				"method": "rhf"
			},
			{
				"type": "unocc",
				"energy": 0.06826,
				"method": "rhf"
			},
			{
				"type": "unocc",
				"energy": 0.08261,
				"method": "rhf"
			},
			{
				"type": "unocc",
				"energy": 0.0981,
				"method": "rhf"
			},
			{
				"type": "unocc",
				"energy": 0.10036,
				"method": "rhf"
			}
		],
		"cosmo_sigma_profile": { 
			"-0.025": 0.0,
			"-0.024": 0.0,
			"-0.023": 0.0,
			"-0.022": 0.0,
			"-0.021": 0.0,
			"-0.02": 0.0,
			"-0.019": 0.0,
			"-0.018": 0.0,
			"-0.017": 0.0,
			"-0.016": 0.0,
			"-0.015": 0.0,
			"-0.014": 0.0,
			"-0.013": 0.0,
			"-0.012": 0.0,
			"-0.011": 0.0,
			"-0.01": 0.0,
			"-0.009": 0.0,
			"-0.008": 0.0,
			"-0.007": 0.0556697022242,
			"-0.006": 3.69096423031,
			"-0.005": 18.5208791939,
			"-0.004": 41.2176721869,
			"-0.003": 31.7490946587,
			"-0.002": 24.0317205489,
			"-0.001": 17.4877205063,
			"0.0": 11.3957409026,
			"0.001": 7.81317014321,
			"0.002": 7.40379362749,
			"0.003": 5.94558354952,
			"0.004": 6.1251557764,
			"0.005": 8.49457616746,
			"0.006": 8.30645632568,
			"0.007": 7.27960166816,
			"0.008": 5.06005048669,
			"0.009": 4.0754374137,
			"0.01": 2.63391725035,
			"0.011": 3.28987723409,
			"0.012": 2.9061351924,
			"0.013": 2.53987048484,
			"0.014": 1.73057167754,
			"0.015": 0.0258277447384,
			"0.016": 0.0,
			"0.017": 0.0,
			"0.018": 0.0,
			"0.019": 0.0,
			"0.02": 0.0,
			"0.021": 0.0,
			"0.022": 0.0,
			"0.023": 0.0,
			"0.024": 0.0,
			"0.025": 0.0
		}
	}
}
