{
	 "smiles": "NC1=C(SC=CCl)C=CC2=C1C(=O)C1=CC=CC=C1C2=O", 
	 "Tm": 453.15, 
	 "num_atms": 31, 
	 "gaussian": { 
		 "optdone": 1, 
		 "sigma_profile": "yes", 
		 "theory": "DFT", 
		 "functional": "B3LYP", 
		 "basiset": "6-31G**", 
		 "properties": { 
			 "R2extent": 10850.8473, 
			 "electric_dipole_moment_norm": 1.46028078807, 
			 "electric_quadrupole_moment_norm": 16.3451718807, 
			 "total_energy": -1679.31294901, 
			 "HOMO_LUMO_gap": 0.11529, 
			 "cosmo_polarized_energy": -11.52, 
			 "cosmo_cavitation_energy": 39.1, 
			 "cosmo_dispersion_energy": -29.08, 
			 "cosmo_repulsion_energy": 2.14, 
			 "cosmo_total_nonelectrostatic_energy": 12.17, 
			 "SMD_solvation_energy": 6.67 
		},
		"coords": [
			{
				"x": -3.0225474015,
				"y": 1.7764957637,
				"z": 0.3946917562,
				"element": "N" 
			},
			{
				"x": -1.9828108125,
				"y": 1.0854611487,
				"z": -0.1159012598,
				"element": "C" 
			},
			{
				"x": -1.9298115087,
				"y": 0.7729317388,
				"z": -1.5121171937,
				"element": "C" 
			},
			{
				"x": -3.2809619634,
				"y": 1.2124387548,
				"z": -2.6049286937,
				"element": "S" 
			},
			{
				"x": -3.090889502,
				"y": 2.9808313347,
				"z": -2.7208474547,
				"element": "C" 
			},
			{
				"x": -4.1501415437,
				"y": 3.7840679218,
				"z": -2.8334167181,
				"element": "C" 
			},
			{
				"x": -3.9988247216,
				"y": 5.500651713,
				"z": -3.1144584218,
				"element": "Cl" 
			},
			{
				"x": -0.8622318512,
				"y": 0.0538420989,
				"z": -2.0354573631,
				"element": "C" 
			},
			{
				"x": 0.1895992143,
				"y": -0.3753281963,
				"z": -1.2229036067,
				"element": "C" 
			},
			{
				"x": 0.1735018429,
				"y": -0.0751165551,
				"z": 0.1341097575,
				"element": "C" 
			},
			{
				"x": -0.8967894303,
				"y": 0.6512850176,
				"z": 0.7150760184,
				"element": "C" 
			},
			{
				"x": -0.9005464922,
				"y": 0.9399259524,
				"z": 2.1576068951,
				"element": "C" 
			},
			{
				"x": -1.8206004207,
				"y": 1.5580139424,
				"z": 2.7170577757,
				"element": "O" 
			},
			{
				"x": 0.2525513819,
				"y": 0.467401727,
				"z": 2.9796982086,
				"element": "C" 
			},
			{
				"x": 0.2631368764,
				"y": 0.743820079,
				"z": 4.3525216935,
				"element": "C" 
			},
			{
				"x": 1.3264498169,
				"y": 0.3163248451,
				"z": 5.1435061747,
				"element": "C" 
			},
			{
				"x": 2.3904436391,
				"y": -0.3921957373,
				"z": 4.5719204666,
				"element": "C" 
			},
			{
				"x": 2.3876046832,
				"y": -0.6717424302,
				"z": 3.2084511018,
				"element": "C" 
			},
			{
				"x": 1.3216826035,
				"y": -0.2444843199,
				"z": 2.4075237514,
				"element": "C" 
			},
			{
				"x": 1.3319579047,
				"y": -0.5522299447,
				"z": 0.9545703832,
				"element": "C" 
			},
			{
				"x": 2.2553630991,
				"y": -1.1760198165,
				"z": 0.4415041396,
				"element": "O" 
			},
			{
				"x": -3.8012184008,
				"y": 2.0135115942,
				"z": -0.1980397615,
				"element": "H" 
			},
			{
				"x": -3.025078247,
				"y": 1.9424376862,
				"z": 1.3959184261,
				"element": "H" 
			},
			{
				"x": -2.0746267602,
				"y": 3.3604677949,
				"z": -2.7692308951,
				"element": "H" 
			},
			{
				"x": -5.1789507095,
				"y": 3.4456416569,
				"z": -2.7859647604,
				"element": "H" 
			},
			{
				"x": -0.8558500721,
				"y": -0.1697526045,
				"z": -3.0977332669,
				"element": "H" 
			},
			{
				"x": 1.0269314216,
				"y": -0.9329651628,
				"z": -1.6247524686,
				"element": "H" 
			},
			{
				"x": -0.5711880042,
				"y": 1.2938105726,
				"z": 4.7734095911,
				"element": "H" 
			},
			{
				"x": 1.3294751292,
				"y": 0.5340025514,
				"z": 6.2075770583,
				"element": "H" 
			},
			{
				"x": 3.2178665194,
				"y": -0.7239380939,
				"z": 5.1922114897,
				"element": "H" 
			},
			{
				"x": 3.1968037096,
				"y": -1.2190910331,
				"z": 2.7369971765,
				"element": "H" 
			}
		],
		 "valence_orbital": [ 
			{
				"type": "occ",
				"energy": -0.26945,
				"method": "rhf"
			},
			{
				"type": "occ",
				"energy": -0.26766,
				"method": "rhf"
			},
			{
				"type": "occ",
				"energy": -0.25917,
				"method": "rhf"
			},
			{
				"type": "occ",
				"energy": -0.2389,
				"method": "rhf"
			},
			{
				"type": "occ",
				"energy": -0.22093,
				"method": "rhf"
			},
			{
				"type": "unocc",
				"energy": -0.10564,
				"method": "rhf"
			},
			{
				"type": "unocc",
				"energy": -0.05354,
				"method": "rhf"
			},
			{
				"type": "unocc",
				"energy": -0.03258,
				"method": "rhf"
			},
			{
				"type": "unocc",
				"energy": -0.01966,
				"method": "rhf"
			},
			{
				"type": "unocc",
				"energy": -0.00634,
				"method": "rhf"
			}
		],
		"cosmo_sigma_profile": { 
			"-0.025": 0.0,
			"-0.024": 0.0,
			"-0.023": 0.0,
			"-0.022": 0.0,
			"-0.021": 0.0,
			"-0.02": 0.0,
			"-0.019": 0.0,
			"-0.018": 0.0,
			"-0.017": 0.0,
			"-0.016": 0.0,
			"-0.015": 0.0,
			"-0.014": 0.0,
			"-0.013": 0.0,
			"-0.012": 0.334353427768,
			"-0.011": 0.859904492759,
			"-0.01": 0.955406755117,
			"-0.009": 4.16344224182,
			"-0.008": 5.5290730884,
			"-0.007": 10.8691203991,
			"-0.006": 13.9863959551,
			"-0.005": 18.6685910381,
			"-0.004": 16.7672559251,
			"-0.003": 18.7769850622,
			"-0.002": 19.0572042213,
			"-0.001": 23.3583326305,
			"0.0": 30.5161301142,
			"0.001": 37.8207736954,
			"0.002": 40.1160055347,
			"0.003": 23.4597949937,
			"0.004": 18.052157388,
			"0.005": 10.719206978,
			"0.006": 4.5624745844,
			"0.007": 4.1120780178,
			"0.008": 2.84391816972,
			"0.009": 3.69051695861,
			"0.01": 4.11075919989,
			"0.011": 5.32587458547,
			"0.012": 1.31708000766,
			"0.013": 0.0,
			"0.014": 0.0,
			"0.015": 0.0,
			"0.016": 0.0,
			"0.017": 0.0,
			"0.018": 0.0,
			"0.019": 0.0,
			"0.02": 0.0,
			"0.021": 0.0,
			"0.022": 0.0,
			"0.023": 0.0,
			"0.024": 0.0,
			"0.025": 0.0
		}
	}
}
