{
	 "smiles": "CCC1=C(O)N=C(S)N(C1=O)C1=C(C)C=CC=C1", 
	 "Tm": 452.15, 
	 "num_atms": 32, 
	 "gaussian": { 
		 "optdone": 1, 
		 "sigma_profile": "yes", 
		 "theory": "DFT", 
		 "functional": "B3LYP", 
		 "basiset": "6-31G**", 
		 "properties": { 
			 "R2extent": 4976.2374, 
			 "electric_dipole_moment_norm": 3.41620234764, 
			 "electric_quadrupole_moment_norm": 9.67271579806, 
			 "total_energy": -1161.98627638, 
			 "HOMO_LUMO_gap": 0.18342, 
			 "cosmo_polarized_energy": -14.36, 
			 "cosmo_cavitation_energy": 36.97, 
			 "cosmo_dispersion_energy": -25.69, 
			 "cosmo_repulsion_energy": 1.97, 
			 "cosmo_total_nonelectrostatic_energy": 13.25, 
			 "SMD_solvation_energy": 5.93 
		},
		"coords": [
			{
				"x": 0.8033631403,
				"y": 0.6414604208,
				"z": -4.49904182,
				"element": "C" 
			},
			{
				"x": 1.6297516241,
				"y": 1.2707544527,
				"z": -3.3631979423,
				"element": "C" 
			},
			{
				"x": 1.5853831815,
				"y": 0.4724448427,
				"z": -2.0851425952,
				"element": "C" 
			},
			{
				"x": 2.56515314,
				"y": -0.409675339,
				"z": -1.701085602,
				"element": "C" 
			},
			{
				"x": 3.6560741048,
				"y": -0.5932606682,
				"z": -2.4753636023,
				"element": "O" 
			},
			{
				"x": 2.5488285883,
				"y": -1.1608250614,
				"z": -0.5602689846,
				"element": "N" 
			},
			{
				"x": 1.5218331416,
				"y": -1.0228296832,
				"z": 0.2312848673,
				"element": "C" 
			},
			{
				"x": 1.4434255345,
				"y": -1.9936168452,
				"z": 1.7256106486,
				"element": "S" 
			},
			{
				"x": 0.4782713346,
				"y": -0.1822454954,
				"z": -0.0170467284,
				"element": "N" 
			},
			{
				"x": 0.4341023347,
				"y": 0.6124245055,
				"z": -1.2316607447,
				"element": "C" 
			},
			{
				"x": -0.5442297765,
				"y": 1.3204935096,
				"z": -1.4370851508,
				"element": "O" 
			},
			{
				"x": -0.6152912988,
				"y": -0.0391768761,
				"z": 0.9191070486,
				"element": "C" 
			},
			{
				"x": -1.8374567714,
				"y": -0.6897250741,
				"z": 0.6773203342,
				"element": "C" 
			},
			{
				"x": -2.0591311875,
				"y": -1.5192700256,
				"z": -0.5607823085,
				"element": "C" 
			},
			{
				"x": -2.8530104768,
				"y": -0.515323362,
				"z": 1.6246733686,
				"element": "C" 
			},
			{
				"x": -2.6680288533,
				"y": 0.276201209,
				"z": 2.7588995334,
				"element": "C" 
			},
			{
				"x": -1.4506715473,
				"y": 0.9220657004,
				"z": 2.9714843285,
				"element": "C" 
			},
			{
				"x": -0.4228959574,
				"y": 0.7659455966,
				"z": 2.0430831691,
				"element": "C" 
			},
			{
				"x": -0.24554081,
				"y": 0.5507825163,
				"z": -4.2030101422,
				"element": "H" 
			},
			{
				"x": 0.8490190553,
				"y": 1.2614609422,
				"z": -5.4007163431,
				"element": "H" 
			},
			{
				"x": 1.1790481735,
				"y": -0.3549815012,
				"z": -4.7534840662,
				"element": "H" 
			},
			{
				"x": 2.6708344537,
				"y": 1.3823808407,
				"z": -3.6798087027,
				"element": "H" 
			},
			{
				"x": 1.2369088141,
				"y": 2.2711971865,
				"z": -3.1525747776,
				"element": "H" 
			},
			{
				"x": 4.2123505946,
				"y": -1.2393578137,
				"z": -2.0136887786,
				"element": "H" 
			},
			{
				"x": 2.585473644,
				"y": -2.6422814561,
				"z": 1.4255968954,
				"element": "H" 
			},
			{
				"x": -3.0208564747,
				"y": -2.0359184364,
				"z": -0.5150404277,
				"element": "H" 
			},
			{
				"x": -1.275359371,
				"y": -2.2730929335,
				"z": -0.6906955043,
				"element": "H" 
			},
			{
				"x": -2.0525340255,
				"y": -0.8784823702,
				"z": -1.4486103919,
				"element": "H" 
			},
			{
				"x": -3.8075050247,
				"y": -1.0088212827,
				"z": 1.4633060102,
				"element": "H" 
			},
			{
				"x": -3.4777580124,
				"y": 0.3903719533,
				"z": 3.4737176936,
				"element": "H" 
			},
			{
				"x": -1.3009127654,
				"y": 1.5461451017,
				"z": 3.846828696,
				"element": "H" 
			},
			{
				"x": 0.5307614931,
				"y": 1.2659554458,
				"z": 2.1794920193,
				"element": "H" 
			}
		],
		 "valence_orbital": [ 
			{
				"type": "occ",
				"energy": -0.27899,
				"method": "rhf"
			},
			{
				"type": "occ",
				"energy": -0.25778,
				"method": "rhf"
			},
			{
				"type": "occ",
				"energy": -0.25617,
				"method": "rhf"
			},
			{
				"type": "occ",
				"energy": -0.25003,
				"method": "rhf"
			},
			{
				"type": "occ",
				"energy": -0.21717,
				"method": "rhf"
			},
			{
				"type": "unocc",
				"energy": -0.03375,
				"method": "rhf"
			},
			{
				"type": "unocc",
				"energy": -0.02012,
				"method": "rhf"
			},
			{
				"type": "unocc",
				"energy": -0.0093,
				"method": "rhf"
			},
			{
				"type": "unocc",
				"energy": 0.0068,
				"method": "rhf"
			},
			{
				"type": "unocc",
				"energy": 0.01005,
				"method": "rhf"
			}
		],
		"cosmo_sigma_profile": { 
			"-0.025": 0.0,
			"-0.024": 0.0,
			"-0.023": 0.0,
			"-0.022": 0.0,
			"-0.021": 0.0,
			"-0.02": 0.0,
			"-0.019": 0.0,
			"-0.018": 0.160740704743,
			"-0.017": 0.980698153745,
			"-0.016": 0.635277146778,
			"-0.015": 0.788244186215,
			"-0.014": 0.316451763516,
			"-0.013": 0.342687455524,
			"-0.012": 1.2970036768,
			"-0.011": 2.78872373596,
			"-0.01": 2.02442513269,
			"-0.009": 2.09577438758,
			"-0.008": 1.55563121884,
			"-0.007": 4.06100545705,
			"-0.006": 11.6546179828,
			"-0.005": 14.145246181,
			"-0.004": 18.6431643266,
			"-0.003": 19.6023189566,
			"-0.002": 25.4902720023,
			"-0.001": 28.2264536056,
			"0.0": 32.7933312286,
			"0.001": 31.1044382238,
			"0.002": 20.8553005682,
			"0.003": 17.2548182014,
			"0.004": 16.3148437626,
			"0.005": 11.4127635402,
			"0.006": 5.89817871558,
			"0.007": 6.13850174115,
			"0.008": 4.03279231389,
			"0.009": 2.83108226265,
			"0.01": 1.89136715086,
			"0.011": 1.66229009716,
			"0.012": 2.11094945656,
			"0.013": 3.70722368693,
			"0.014": 2.65774930129,
			"0.015": 0.0131378136597,
			"0.016": 0.0,
			"0.017": 0.0,
			"0.018": 0.0,
			"0.019": 0.0,
			"0.02": 0.0,
			"0.021": 0.0,
			"0.022": 0.0,
			"0.023": 0.0,
			"0.024": 0.0,
			"0.025": 0.0
		}
	}
}
