{
	 "smiles": "CC(C)=CC1C(C(=O)OC2CC(=O)C(CC=C)=C2C)C1(C)C", 
	 "Tm": 277.15, 
	 "num_atms": 48, 
	 "gaussian": { 
		 "optdone": 1, 
		 "sigma_profile": "yes", 
		 "theory": "DFT", 
		 "functional": "B3LYP", 
		 "basiset": "6-31G**", 
		 "properties": { 
			 "R2extent": 10782.321, 
			 "electric_dipole_moment_norm": 4.18444393558, 
			 "electric_quadrupole_moment_norm": 20.1761784248, 
			 "total_energy": -965.327036143, 
			 "HOMO_LUMO_gap": 0.17534, 
			 "cosmo_polarized_energy": -13.63, 
			 "cosmo_cavitation_energy": 50.51, 
			 "cosmo_dispersion_energy": -32.97, 
			 "cosmo_repulsion_energy": 2.63, 
			 "cosmo_total_nonelectrostatic_energy": 20.17, 
			 "SMD_solvation_energy": 10.39 
		},
		"coords": [
			{
				"x": -0.1850396318,
				"y": -2.2930153693,
				"z": -4.4504608046,
				"element": "C" 
			},
			{
				"x": 0.866935689,
				"y": -2.1644885494,
				"z": -3.3762705041,
				"element": "C" 
			},
			{
				"x": 2.2841065056,
				"y": -2.123063026,
				"z": -3.8958974804,
				"element": "C" 
			},
			{
				"x": 0.6267083576,
				"y": -2.0922407593,
				"z": -2.054945719,
				"element": "C" 
			},
			{
				"x": -0.7021732043,
				"y": -2.1165355752,
				"z": -1.4001993533,
				"element": "C" 
			},
			{
				"x": -0.9708349805,
				"y": -1.3941793184,
				"z": -0.0564632155,
				"element": "C" 
			},
			{
				"x": 0.0996113985,
				"y": -0.6600158986,
				"z": 0.6591499176,
				"element": "C" 
			},
			{
				"x": 1.2783746095,
				"y": -0.955462249,
				"z": 0.7381807039,
				"element": "O" 
			},
			{
				"x": -0.4188868346,
				"y": 0.4517787988,
				"z": 1.2525183341,
				"element": "O" 
			},
			{
				"x": 0.5140369436,
				"y": 1.2772667399,
				"z": 1.9935265696,
				"element": "C" 
			},
			{
				"x": 1.2109337906,
				"y": 2.3291547154,
				"z": 1.1212607081,
				"element": "C" 
			},
			{
				"x": 0.9563978185,
				"y": 3.6512815958,
				"z": 1.8499328077,
				"element": "C" 
			},
			{
				"x": 1.4644394105,
				"y": 4.7254512662,
				"z": 1.5860460178,
				"element": "O" 
			},
			{
				"x": -0.0035971986,
				"y": 3.3874595947,
				"z": 2.9542541361,
				"element": "C" 
			},
			{
				"x": -0.5263161893,
				"y": 4.5258984886,
				"z": 3.7893854317,
				"element": "C" 
			},
			{
				"x": -1.7748730646,
				"y": 5.139114093,
				"z": 3.1925921084,
				"element": "C" 
			},
			{
				"x": -1.8402876103,
				"y": 6.3616905072,
				"z": 2.6673016989,
				"element": "C" 
			},
			{
				"x": -0.2726416287,
				"y": 2.066068779,
				"z": 3.0233959065,
				"element": "C" 
			},
			{
				"x": -1.178573483,
				"y": 1.3502249792,
				"z": 3.9727168671,
				"element": "C" 
			},
			{
				"x": -1.0092934288,
				"y": -2.9221736416,
				"z": -0.1573255087,
				"element": "C" 
			},
			{
				"x": 0.067428444,
				"y": -3.771272318,
				"z": 0.4971073086,
				"element": "C" 
			},
			{
				"x": -2.3975060241,
				"y": -3.5384117217,
				"z": -0.0676277693,
				"element": "C" 
			},
			{
				"x": -0.1144580037,
				"y": -1.4601781259,
				"z": -5.1624906205,
				"element": "H" 
			},
			{
				"x": -0.0287737438,
				"y": -3.2104510262,
				"z": -5.0332905186,
				"element": "H" 
			},
			{
				"x": -1.2058999872,
				"y": -2.31799561,
				"z": -4.0648322258,
				"element": "H" 
			},
			{
				"x": 2.5227313039,
				"y": -3.0298536833,
				"z": -4.4681125072,
				"element": "H" 
			},
			{
				"x": 3.0129659645,
				"y": -2.0301297086,
				"z": -3.0864578161,
				"element": "H" 
			},
			{
				"x": 2.4280325348,
				"y": -1.2779363563,
				"z": -4.5826766331,
				"element": "H" 
			},
			{
				"x": 1.4792173191,
				"y": -1.9956191945,
				"z": -1.3896714187,
				"element": "H" 
			},
			{
				"x": -1.5455677156,
				"y": -2.0164731702,
				"z": -2.0779833922,
				"element": "H" 
			},
			{
				"x": -1.9343776058,
				"y": -0.9009286831,
				"z": 0.0199401238,
				"element": "H" 
			},
			{
				"x": 1.2369673654,
				"y": 0.6072252574,
				"z": 2.4706467448,
				"element": "H" 
			},
			{
				"x": 0.746155925,
				"y": 2.370041215,
				"z": 0.1305949788,
				"element": "H" 
			},
			{
				"x": 2.2794778979,
				"y": 2.1516669543,
				"z": 0.9796849234,
				"element": "H" 
			},
			{
				"x": -0.7340784265,
				"y": 4.1804417298,
				"z": 4.8100327506,
				"element": "H" 
			},
			{
				"x": 0.2576165112,
				"y": 5.2883088966,
				"z": 3.8462378862,
				"element": "H" 
			},
			{
				"x": -2.6608714872,
				"y": 4.5036568839,
				"z": 3.1893205931,
				"element": "H" 
			},
			{
				"x": -2.7618321505,
				"y": 6.7506278676,
				"z": 2.2439393765,
				"element": "H" 
			},
			{
				"x": -0.9709004872,
				"y": 7.0132535282,
				"z": 2.6353613967,
				"element": "H" 
			},
			{
				"x": -1.966745373,
				"y": 0.8273687442,
				"z": 3.4194997292,
				"element": "H" 
			},
			{
				"x": -0.6263749563,
				"y": 0.5823658968,
				"z": 4.5296412796,
				"element": "H" 
			},
			{
				"x": -1.6469216124,
				"y": 2.0274792714,
				"z": 4.6901956109,
				"element": "H" 
			},
			{
				"x": 0.1656936602,
				"y": -4.7213045586,
				"z": -0.0403571207,
				"element": "H" 
			},
			{
				"x": 1.0381610691,
				"y": -3.27817441,
				"z": 0.5159121672,
				"element": "H" 
			},
			{
				"x": -0.2118142539,
				"y": -4.0024236676,
				"z": 1.5317081338,
				"element": "H" 
			},
			{
				"x": -3.1532001843,
				"y": -2.9148707662,
				"z": -0.5563179121,
				"element": "H" 
			},
			{
				"x": -2.6985683477,
				"y": -3.6759786335,
				"z": 0.9775774752,
				"element": "H" 
			},
			{
				"x": -2.4111849047,
				"y": -4.5224497827,
				"z": -0.5506811663,
				"element": "H" 
			}
		],
		 "valence_orbital": [ 
			{
				"type": "occ",
				"energy": -0.27694,
				"method": "rhf"
			},
			{
				"type": "occ",
				"energy": -0.26162,
				"method": "rhf"
			},
			{
				"type": "occ",
				"energy": -0.25394,
				"method": "rhf"
			},
			{
				"type": "occ",
				"energy": -0.23724,
				"method": "rhf"
			},
			{
				"type": "occ",
				"energy": -0.2202,
				"method": "rhf"
			},
			{
				"type": "unocc",
				"energy": -0.04486,
				"method": "rhf"
			},
			{
				"type": "unocc",
				"energy": -0.00245,
				"method": "rhf"
			},
			{
				"type": "unocc",
				"energy": 0.01942,
				"method": "rhf"
			},
			{
				"type": "unocc",
				"energy": 0.03051,
				"method": "rhf"
			},
			{
				"type": "unocc",
				"energy": 0.05762,
				"method": "rhf"
			}
		],
		"cosmo_sigma_profile": { 
			"-0.025": 0.0,
			"-0.024": 0.0,
			"-0.023": 0.0,
			"-0.022": 0.0,
			"-0.021": 0.0,
			"-0.02": 0.0,
			"-0.019": 0.0,
			"-0.018": 0.0,
			"-0.017": 0.0,
			"-0.016": 0.0,
			"-0.015": 0.0,
			"-0.014": 0.0,
			"-0.013": 0.0,
			"-0.012": 0.0,
			"-0.011": 0.0,
			"-0.01": 0.0,
			"-0.009": 0.0,
			"-0.008": 0.0,
			"-0.007": 1.34671945426,
			"-0.006": 12.8327165956,
			"-0.005": 23.6262790858,
			"-0.004": 29.6207571927,
			"-0.003": 45.38878736,
			"-0.002": 45.1463765149,
			"-0.001": 50.2914473803,
			"0.0": 48.605737157,
			"0.001": 39.3843863406,
			"0.002": 18.7180045169,
			"0.003": 14.1295475216,
			"0.004": 13.5169033003,
			"0.005": 11.2833934942,
			"0.006": 10.9270067431,
			"0.007": 6.8551980747,
			"0.008": 4.09111535487,
			"0.009": 3.69258683833,
			"0.01": 2.74803365942,
			"0.011": 4.18741883967,
			"0.012": 6.13444093717,
			"0.013": 2.80045109281,
			"0.014": 0.534849459963,
			"0.015": 0.0,
			"0.016": 0.0,
			"0.017": 0.0,
			"0.018": 0.0,
			"0.019": 0.0,
			"0.02": 0.0,
			"0.021": 0.0,
			"0.022": 0.0,
			"0.023": 0.0,
			"0.024": 0.0,
			"0.025": 0.0
		}
	}
}
