{
	 "smiles": "O=C1NC(CO1)C1=CC=CC=C1", 
	 "Tm": 405.15, 
	 "num_atms": 21, 
	 "gaussian": { 
		 "optdone": 1, 
		 "sigma_profile": "yes", 
		 "theory": "DFT", 
		 "functional": "B3LYP", 
		 "basiset": "6-31G**", 
		 "properties": { 
			 "R2extent": 2498.1656, 
			 "electric_dipole_moment_norm": 5.18176959059, 
			 "electric_quadrupole_moment_norm": 19.2602404876, 
			 "total_energy": -553.594555886, 
			 "HOMO_LUMO_gap": 0.23267, 
			 "cosmo_polarized_energy": -14.14, 
			 "cosmo_cavitation_energy": 24.66, 
			 "cosmo_dispersion_energy": -18.26, 
			 "cosmo_repulsion_energy": 1.46, 
			 "cosmo_total_nonelectrostatic_energy": 7.87, 
			 "SMD_solvation_energy": 4.41 
		},
		"coords": [
			{
				"x": -1.4739933837,
				"y": 3.5822787215,
				"z": 1.3418189162,
				"element": "O" 
			},
			{
				"x": -0.5020105369,
				"y": 2.8706139041,
				"z": 1.2923058684,
				"element": "C" 
			},
			{
				"x": -0.4146059426,
				"y": 1.5232707456,
				"z": 1.5825646093,
				"element": "N" 
			},
			{
				"x": 0.8405973391,
				"y": 0.9380388599,
				"z": 1.1241066364,
				"element": "C" 
			},
			{
				"x": 1.6906073021,
				"y": 2.2392415737,
				"z": 1.0601274931,
				"element": "C" 
			},
			{
				"x": 0.7458662518,
				"y": 3.310132834,
				"z": 0.9254010129,
				"element": "O" 
			},
			{
				"x": 0.7377156291,
				"y": 0.1729532684,
				"z": -0.1860202018,
				"element": "C" 
			},
			{
				"x": 0.2172669067,
				"y": 0.7758825985,
				"z": -1.3414159939,
				"element": "C" 
			},
			{
				"x": 0.13780993,
				"y": 0.0616304737,
				"z": -2.5357294572,
				"element": "C" 
			},
			{
				"x": 0.5743690574,
				"y": -1.2650166595,
				"z": -2.5932325967,
				"element": "C" 
			},
			{
				"x": 1.0920734591,
				"y": -1.8727278346,
				"z": -1.4496951328,
				"element": "C" 
			},
			{
				"x": 1.1712458924,
				"y": -1.1553967267,
				"z": -0.2537642665,
				"element": "C" 
			},
			{
				"x": -1.2752277582,
				"y": 0.9954684037,
				"z": 1.5783473639,
				"element": "H" 
			},
			{
				"x": 1.252079844,
				"y": 0.268257453,
				"z": 1.887197674,
				"element": "H" 
			},
			{
				"x": 2.2598410566,
				"y": 2.3835170251,
				"z": 1.985132928,
				"element": "H" 
			},
			{
				"x": 2.369171434,
				"y": 2.2605363854,
				"z": 0.2058246633,
				"element": "H" 
			},
			{
				"x": -0.1239321973,
				"y": 1.8069859455,
				"z": -1.3095375504,
				"element": "H" 
			},
			{
				"x": -0.2659045044,
				"y": 0.5404629757,
				"z": -3.4231262978,
				"element": "H" 
			},
			{
				"x": 0.5093385361,
				"y": -1.820055488,
				"z": -3.5245096873,
				"element": "H" 
			},
			{
				"x": 1.4310353299,
				"y": -2.9040860239,
				"z": -1.4848837126,
				"element": "H" 
			},
			{
				"x": 1.5728563547,
				"y": -1.6336884353,
				"z": 0.6367877314,
				"element": "H" 
			}
		],
		 "valence_orbital": [ 
			{
				"type": "occ",
				"energy": -0.29271,
				"method": "rhf"
			},
			{
				"type": "occ",
				"energy": -0.27791,
				"method": "rhf"
			},
			{
				"type": "occ",
				"energy": -0.26707,
				"method": "rhf"
			},
			{
				"type": "occ",
				"energy": -0.26257,
				"method": "rhf"
			},
			{
				"type": "occ",
				"energy": -0.25359,
				"method": "rhf"
			},
			{
				"type": "unocc",
				"energy": -0.02092,
				"method": "rhf"
			},
			{
				"type": "unocc",
				"energy": -0.01394,
				"method": "rhf"
			},
			{
				"type": "unocc",
				"energy": 0.05227,
				"method": "rhf"
			},
			{
				"type": "unocc",
				"energy": 0.07564,
				"method": "rhf"
			},
			{
				"type": "unocc",
				"energy": 0.08594,
				"method": "rhf"
			}
		],
		"cosmo_sigma_profile": { 
			"-0.025": 0.0,
			"-0.024": 0.0,
			"-0.023": 0.0,
			"-0.022": 0.0,
			"-0.021": 0.0,
			"-0.02": 0.0,
			"-0.019": 0.0,
			"-0.018": 0.0,
			"-0.017": 0.0,
			"-0.016": 0.0,
			"-0.015": 0.664704655154,
			"-0.014": 1.08155757229,
			"-0.013": 0.983677629092,
			"-0.012": 1.23976434157,
			"-0.011": 0.835370618963,
			"-0.01": 0.482332147042,
			"-0.009": 0.707484882079,
			"-0.008": 1.23673884251,
			"-0.007": 7.48868819456,
			"-0.006": 18.058709019,
			"-0.005": 18.516827611,
			"-0.004": 17.8961846347,
			"-0.003": 14.3935082375,
			"-0.002": 12.3647080221,
			"-0.001": 10.0504577241,
			"0.0": 8.1784278155,
			"0.001": 8.00085356858,
			"0.002": 10.2479022506,
			"0.003": 9.44601572596,
			"0.004": 9.65004800107,
			"0.005": 11.5509190608,
			"0.006": 5.88344166443,
			"0.007": 2.3404931703,
			"0.008": 2.86894319043,
			"0.009": 2.6830758068,
			"0.01": 4.25863636195,
			"0.011": 2.86942269034,
			"0.012": 5.20618569617,
			"0.013": 6.06917310573,
			"0.014": 1.05156834962,
			"0.015": 0.0,
			"0.016": 0.0,
			"0.017": 0.0,
			"0.018": 0.0,
			"0.019": 0.0,
			"0.02": 0.0,
			"0.021": 0.0,
			"0.022": 0.0,
			"0.023": 0.0,
			"0.024": 0.0,
			"0.025": 0.0
		}
	}
}
