{
	 "smiles": "CCOC(=O)C1=C(N)C=C(S1)C1=CC(OC)=C(OC)C=C1", 
	 "Tm": 394.15, 
	 "num_atms": 38, 
	 "gaussian": { 
		 "optdone": 1, 
		 "sigma_profile": "yes", 
		 "theory": "DFT", 
		 "functional": "B3LYP", 
		 "basiset": "6-31G**", 
		 "properties": { 
			 "R2extent": 10989.0982, 
			 "electric_dipole_moment_norm": 2.57222520787, 
			 "electric_quadrupole_moment_norm": 20.0168902562, 
			 "total_energy": -1335.66895578, 
			 "HOMO_LUMO_gap": 0.14591, 
			 "cosmo_polarized_energy": -15.4, 
			 "cosmo_cavitation_energy": 43.42, 
			 "cosmo_dispersion_energy": -31.55, 
			 "cosmo_repulsion_energy": 2.41, 
			 "cosmo_total_nonelectrostatic_energy": 14.28, 
			 "SMD_solvation_energy": 9.38 
		},
		"coords": [
			{
				"x": 5.7431634713,
				"y": -1.0955219021,
				"z": -4.6259104918,
				"element": "C" 
			},
			{
				"x": 4.6968300996,
				"y": -2.1644872179,
				"z": -4.3459763729,
				"element": "C" 
			},
			{
				"x": 3.6580584607,
				"y": -1.6699008549,
				"z": -3.4726493365,
				"element": "O" 
			},
			{
				"x": 3.8975450323,
				"y": -1.7400204427,
				"z": -2.138815694,
				"element": "C" 
			},
			{
				"x": 4.9340647945,
				"y": -2.20660791,
				"z": -1.6653973885,
				"element": "O" 
			},
			{
				"x": 2.8069653377,
				"y": -1.2232051558,
				"z": -1.347124659,
				"element": "C" 
			},
			{
				"x": 2.7835383254,
				"y": -1.1953281884,
				"z": 0.0495492238,
				"element": "C" 
			},
			{
				"x": 3.8350885871,
				"y": -1.5748950247,
				"z": 0.8401679989,
				"element": "N" 
			},
			{
				"x": 1.5449730308,
				"y": -0.689958386,
				"z": 0.5517478522,
				"element": "C" 
			},
			{
				"x": 0.6504053829,
				"y": -0.3350452788,
				"z": -0.4319193599,
				"element": "C" 
			},
			{
				"x": 1.3140832236,
				"y": -0.5994576733,
				"z": -2.025918501,
				"element": "S" 
			},
			{
				"x": -0.6975007216,
				"y": 0.2218918824,
				"z": -0.2578782343,
				"element": "C" 
			},
			{
				"x": -0.9906879336,
				"y": 0.9982454095,
				"z": 0.8818283103,
				"element": "C" 
			},
			{
				"x": -2.2655175509,
				"y": 1.5244647446,
				"z": 1.0856849992,
				"element": "C" 
			},
			{
				"x": -2.629976496,
				"y": 2.2653225326,
				"z": 2.1732245578,
				"element": "O" 
			},
			{
				"x": -1.6627555024,
				"y": 2.493840044,
				"z": 3.1864342074,
				"element": "C" 
			},
			{
				"x": -3.2768303347,
				"y": 1.2987417229,
				"z": 0.1212122146,
				"element": "C" 
			},
			{
				"x": -4.5586532291,
				"y": 1.7514096155,
				"z": 0.2953046603,
				"element": "O" 
			},
			{
				"x": -4.7407544494,
				"y": 3.1701671374,
				"z": 0.2648267703,
				"element": "C" 
			},
			{
				"x": -2.9812064059,
				"y": 0.5351982669,
				"z": -1.0044757337,
				"element": "C" 
			},
			{
				"x": -1.7114424329,
				"y": -0.0076599318,
				"z": -1.1971736622,
				"element": "C" 
			},
			{
				"x": 6.474503307,
				"y": -1.4702986555,
				"z": -5.3501544642,
				"element": "H" 
			},
			{
				"x": 5.2789292988,
				"y": -0.1955005314,
				"z": -5.0398100235,
				"element": "H" 
			},
			{
				"x": 6.2732509969,
				"y": -0.8303769644,
				"z": -3.7079613117,
				"element": "H" 
			},
			{
				"x": 5.1503837936,
				"y": -3.048464596,
				"z": -3.891306565,
				"element": "H" 
			},
			{
				"x": 4.1692151267,
				"y": -2.4560114764,
				"z": -5.2575600423,
				"element": "H" 
			},
			{
				"x": 4.5778957184,
				"y": -2.0638307274,
				"z": 0.3524077709,
				"element": "H" 
			},
			{
				"x": 3.6337199218,
				"y": -1.8591470997,
				"z": 1.7860088858,
				"element": "H" 
			},
			{
				"x": 1.3212879749,
				"y": -0.6216862967,
				"z": 1.6106589571,
				"element": "H" 
			},
			{
				"x": -0.2005997956,
				"y": 1.1994348026,
				"z": 1.5942395856,
				"element": "H" 
			},
			{
				"x": -1.30238319,
				"y": 1.5515980493,
				"z": 3.6182964477,
				"element": "H" 
			},
			{
				"x": -2.1694373446,
				"y": 3.0729200907,
				"z": 3.9597789632,
				"element": "H" 
			},
			{
				"x": -0.8061363345,
				"y": 3.06679801,
				"z": 2.8087693003,
				"element": "H" 
			},
			{
				"x": -4.3970886751,
				"y": 3.5867538187,
				"z": -0.6908428248,
				"element": "H" 
			},
			{
				"x": -4.2155664988,
				"y": 3.661557832,
				"z": 1.0883989476,
				"element": "H" 
			},
			{
				"x": -5.8150660611,
				"y": 3.3381609981,
				"z": 0.3636396794,
				"element": "H" 
			},
			{
				"x": -3.7783349726,
				"y": 0.360959781,
				"z": -1.7199716318,
				"element": "H" 
			},
			{
				"x": -1.5153639554,
				"y": -0.6239604243,
				"z": -2.0685330354,
				"element": "H" 
			}
		],
		 "valence_orbital": [ 
			{
				"type": "occ",
				"energy": -0.26688,
				"method": "rhf"
			},
			{
				"type": "occ",
				"energy": -0.25623,
				"method": "rhf"
			},
			{
				"type": "occ",
				"energy": -0.23585,
				"method": "rhf"
			},
			{
				"type": "occ",
				"energy": -0.21721,
				"method": "rhf"
			},
			{
				"type": "occ",
				"energy": -0.19558,
				"method": "rhf"
			},
			{
				"type": "unocc",
				"energy": -0.04967,
				"method": "rhf"
			},
			{
				"type": "unocc",
				"energy": -0.00023,
				"method": "rhf"
			},
			{
				"type": "unocc",
				"energy": 0.00895,
				"method": "rhf"
			},
			{
				"type": "unocc",
				"energy": 0.03753,
				"method": "rhf"
			},
			{
				"type": "unocc",
				"energy": 0.0551,
				"method": "rhf"
			}
		],
		"cosmo_sigma_profile": { 
			"-0.025": 0.0,
			"-0.024": 0.0,
			"-0.023": 0.0,
			"-0.022": 0.0,
			"-0.021": 0.0,
			"-0.02": 0.0,
			"-0.019": 0.0,
			"-0.018": 0.0,
			"-0.017": 0.0,
			"-0.016": 0.0,
			"-0.015": 0.0,
			"-0.014": 0.552259833931,
			"-0.013": 1.39883324728,
			"-0.012": 1.27484161374,
			"-0.011": 1.74777849793,
			"-0.01": 1.23046847613,
			"-0.009": 2.46926748218,
			"-0.008": 3.27968337455,
			"-0.007": 6.08758843818,
			"-0.006": 14.1018635453,
			"-0.005": 21.3429666059,
			"-0.004": 30.0155136936,
			"-0.003": 32.9019331869,
			"-0.002": 26.4085751993,
			"-0.001": 23.6276287976,
			"0.0": 24.2127436533,
			"0.001": 22.2414945993,
			"0.002": 25.7596322749,
			"0.003": 32.5781862241,
			"0.004": 26.5453092681,
			"0.005": 13.0653035381,
			"0.006": 7.39697240847,
			"0.007": 7.21164134185,
			"0.008": 3.85008227445,
			"0.009": 5.01590377836,
			"0.01": 4.83769622939,
			"0.011": 4.22584819949,
			"0.012": 2.74720730581,
			"0.013": 0.557432072881,
			"0.014": 0.0,
			"0.015": 0.0,
			"0.016": 0.0,
			"0.017": 0.0,
			"0.018": 0.0,
			"0.019": 0.0,
			"0.02": 0.0,
			"0.021": 0.0,
			"0.022": 0.0,
			"0.023": 0.0,
			"0.024": 0.0,
			"0.025": 0.0
		}
	}
}
