{
	 "smiles": "OC(=O)C1=CN(N=N1)C1=C(C=CC=C1)C(F)(F)F", 
	 "Tm": 403.15, 
	 "num_atms": 24, 
	 "gaussian": { 
		 "optdone": 1, 
		 "sigma_profile": "yes", 
		 "theory": "DFT", 
		 "functional": "B3LYP", 
		 "basiset": "6-31G**", 
		 "properties": { 
			 "R2extent": 4940.5569, 
			 "electric_dipole_moment_norm": 8.49470094, 
			 "electric_quadrupole_moment_norm": 24.5995506512, 
			 "total_energy": -998.860539371, 
			 "HOMO_LUMO_gap": 0.20228, 
			 "cosmo_polarized_energy": -22.33, 
			 "cosmo_cavitation_energy": 30.97, 
			 "cosmo_dispersion_energy": -21.85, 
			 "cosmo_repulsion_energy": 1.61, 
			 "cosmo_total_nonelectrostatic_energy": 10.73, 
			 "SMD_solvation_energy": 6.46 
		},
		"coords": [
			{
				"x": 5.0112552331,
				"y": -0.1625206546,
				"z": 0.5456836656,
				"element": "O" 
			},
			{
				"x": 4.5476770935,
				"y": 1.0014494925,
				"z": 0.00572082,
				"element": "C" 
			},
			{
				"x": 5.2991561801,
				"y": 1.9041236115,
				"z": -0.2537846152,
				"element": "O" 
			},
			{
				"x": 3.0747143414,
				"y": 1.0593353816,
				"z": -0.1899050559,
				"element": "C" 
			},
			{
				"x": 2.0713263336,
				"y": 0.3684170307,
				"z": 0.4593665603,
				"element": "C" 
			},
			{
				"x": 0.9212994764,
				"y": 0.8482798449,
				"z": -0.0777133865,
				"element": "N" 
			},
			{
				"x": 1.212456106,
				"y": 1.8081610292,
				"z": -1.0214467615,
				"element": "N" 
			},
			{
				"x": 2.4947187869,
				"y": 1.9291399905,
				"z": -1.0767299084,
				"element": "N" 
			},
			{
				"x": -0.4435070849,
				"y": 0.5893025987,
				"z": 0.2446889432,
				"element": "C" 
			},
			{
				"x": -0.9601080028,
				"y": -0.7055432661,
				"z": 0.448721589,
				"element": "C" 
			},
			{
				"x": -2.3155648031,
				"y": -0.8472730126,
				"z": 0.7640308324,
				"element": "C" 
			},
			{
				"x": -3.1537378223,
				"y": 0.2614076569,
				"z": 0.8538689155,
				"element": "C" 
			},
			{
				"x": -2.6388393939,
				"y": 1.5365031289,
				"z": 0.6256512673,
				"element": "C" 
			},
			{
				"x": -1.2887046065,
				"y": 1.7001044468,
				"z": 0.3283397163,
				"element": "C" 
			},
			{
				"x": -0.1220025749,
				"y": -1.9573263895,
				"z": 0.3441765699,
				"element": "C" 
			},
			{
				"x": 0.6866911717,
				"y": -1.9479416866,
				"z": -0.734469035,
				"element": "F" 
			},
			{
				"x": -0.8826949905,
				"y": -3.0637158112,
				"z": 0.2677435125,
				"element": "F" 
			},
			{
				"x": 0.6806061127,
				"y": -2.1158268012,
				"z": 1.4359403424,
				"element": "F" 
			},
			{
				"x": 4.3291877446,
				"y": -0.847739482,
				"z": 0.5070491752,
				"element": "H" 
			},
			{
				"x": 2.0757086813,
				"y": -0.3681754371,
				"z": 1.2450128567,
				"element": "H" 
			},
			{
				"x": -2.7126696229,
				"y": -1.8427528651,
				"z": 0.9207364725,
				"element": "H" 
			},
			{
				"x": -4.2030788781,
				"y": 0.1256038163,
				"z": 1.0942310015,
				"element": "H" 
			},
			{
				"x": -3.2819721668,
				"y": 2.4086278491,
				"z": 0.6864991889,
				"element": "H" 
			},
			{
				"x": -0.8687173145,
				"y": 2.6827595283,
				"z": 0.1516873333,
				"element": "H" 
			}
		],
		 "valence_orbital": [ 
			{
				"type": "occ",
				"energy": -0.30018,
				"method": "rhf"
			},
			{
				"type": "occ",
				"energy": -0.296,
				"method": "rhf"
			},
			{
				"type": "occ",
				"energy": -0.2881,
				"method": "rhf"
			},
			{
				"type": "occ",
				"energy": -0.27951,
				"method": "rhf"
			},
			{
				"type": "occ",
				"energy": -0.2732,
				"method": "rhf"
			},
			{
				"type": "unocc",
				"energy": -0.07092,
				"method": "rhf"
			},
			{
				"type": "unocc",
				"energy": -0.05068,
				"method": "rhf"
			},
			{
				"type": "unocc",
				"energy": -0.03126,
				"method": "rhf"
			},
			{
				"type": "unocc",
				"energy": -0.01611,
				"method": "rhf"
			},
			{
				"type": "unocc",
				"energy": 0.05508,
				"method": "rhf"
			}
		],
		"cosmo_sigma_profile": { 
			"-0.025": 0.0,
			"-0.024": 0.0,
			"-0.023": 0.0,
			"-0.022": 0.0,
			"-0.021": 0.0,
			"-0.02": 0.0430875938539,
			"-0.019": 0.751887039149,
			"-0.018": 1.52476062997,
			"-0.017": 1.43060772905,
			"-0.016": 0.63535911795,
			"-0.015": 1.12928975951,
			"-0.014": 1.03617825506,
			"-0.013": 1.66890190839,
			"-0.012": 1.24502745493,
			"-0.011": 1.32412338236,
			"-0.01": 1.48821695905,
			"-0.009": 1.74842593939,
			"-0.008": 6.43552269399,
			"-0.007": 11.2407421771,
			"-0.006": 12.5557964092,
			"-0.005": 12.5360504646,
			"-0.004": 12.0291472724,
			"-0.003": 13.6562384695,
			"-0.002": 15.9679103721,
			"-0.001": 15.9005323859,
			"0.0": 19.1442439242,
			"0.001": 23.4455176581,
			"0.002": 31.5379061675,
			"0.003": 7.16544389175,
			"0.004": 4.57804831886,
			"0.005": 2.85262248422,
			"0.006": 4.15090963413,
			"0.007": 5.1456625101,
			"0.008": 5.88451341244,
			"0.009": 6.94114430838,
			"0.01": 8.71205111195,
			"0.011": 8.17685545654,
			"0.012": 5.67124700521,
			"0.013": 2.03215873143,
			"0.014": 0.622427338777,
			"0.015": 0.0,
			"0.016": 0.0,
			"0.017": 0.0,
			"0.018": 0.0,
			"0.019": 0.0,
			"0.02": 0.0,
			"0.021": 0.0,
			"0.022": 0.0,
			"0.023": 0.0,
			"0.024": 0.0,
			"0.025": 0.0
		}
	}
}
