{
	 "smiles": "[O-][N+](=O)C1=C(C=C(C=C1)S(Cl)(=O)=O)C(F)(F)F", 
	 "Tm": 337.15, 
	 "num_atms": 20, 
	 "gaussian": { 
		 "optdone": 1, 
		 "sigma_profile": "yes", 
		 "theory": "DFT", 
		 "functional": "B3LYP", 
		 "basiset": "6-31G**", 
		 "properties": { 
			 "R2extent": 5795.7182, 
			 "electric_dipole_moment_norm": 1.58171464557, 
			 "electric_quadrupole_moment_norm": 17.2750261789, 
			 "total_energy": -1781.91408196, 
			 "HOMO_LUMO_gap": 0.18312, 
			 "cosmo_polarized_energy": -12.57, 
			 "cosmo_cavitation_energy": 30.75, 
			 "cosmo_dispersion_energy": -22.13, 
			 "cosmo_repulsion_energy": 1.62, 
			 "cosmo_total_nonelectrostatic_energy": 10.24, 
			 "SMD_solvation_energy": 7.24 
		},
		"coords": [
			{
				"x": 3.3877156037,
				"y": 2.1206893616,
				"z": -0.3482579882,
				"element": "O" 
			},
			{
				"x": 2.4483147372,
				"y": 1.7840145233,
				"z": -1.0576376838,
				"element": "N" 
			},
			{
				"x": 2.3952593018,
				"y": 1.8757979611,
				"z": -2.2806666368,
				"element": "O" 
			},
			{
				"x": 1.2832572508,
				"y": 1.1593212251,
				"z": -0.3902906802,
				"element": "C" 
			},
			{
				"x": 0.815931422,
				"y": 1.5937869557,
				"z": 0.8602965507,
				"element": "C" 
			},
			{
				"x": -0.2655258093,
				"y": 0.9133308528,
				"z": 1.4226280283,
				"element": "C" 
			},
			{
				"x": -0.8262007371,
				"y": -0.1683884226,
				"z": 0.7480989208,
				"element": "C" 
			},
			{
				"x": -0.3735613241,
				"y": -0.5870197336,
				"z": -0.5000618244,
				"element": "C" 
			},
			{
				"x": 0.6900010648,
				"y": 0.1015785048,
				"z": -1.075670161,
				"element": "C" 
			},
			{
				"x": -2.2213067819,
				"y": -1.0179893054,
				"z": 1.4951200462,
				"element": "S" 
			},
			{
				"x": -1.2158808593,
				"y": -2.5060907971,
				"z": 2.6223709123,
				"element": "Cl" 
			},
			{
				"x": -2.9582885745,
				"y": -1.7120517465,
				"z": 0.4487149421,
				"element": "O" 
			},
			{
				"x": -2.8588246641,
				"y": -0.1258857381,
				"z": 2.4525321527,
				"element": "O" 
			},
			{
				"x": 1.3779889509,
				"y": 2.7883450726,
				"z": 1.6206911617,
				"element": "C" 
			},
			{
				"x": 0.4877777739,
				"y": 3.2007322641,
				"z": 2.5502195822,
				"element": "F" 
			},
			{
				"x": 1.6075057977,
				"y": 3.8276944449,
				"z": 0.8004865603,
				"element": "F" 
			},
			{
				"x": 2.512033337,
				"y": 2.4858206177,
				"z": 2.2660468379,
				"element": "F" 
			},
			{
				"x": -0.6772924696,
				"y": 1.2393251243,
				"z": 2.3694434902,
				"element": "H" 
			},
			{
				"x": -0.8477680579,
				"y": -1.4167682226,
				"z": -1.0114520451,
				"element": "H" 
			},
			{
				"x": 1.0700640381,
				"y": -0.1665429421,
				"z": -2.0537121658,
				"element": "H" 
			}
		],
		 "valence_orbital": [ 
			{
				"type": "occ",
				"energy": -0.33907,
				"method": "rhf"
			},
			{
				"type": "occ",
				"energy": -0.33751,
				"method": "rhf"
			},
			{
				"type": "occ",
				"energy": -0.33546,
				"method": "rhf"
			},
			{
				"type": "occ",
				"energy": -0.3268,
				"method": "rhf"
			},
			{
				"type": "occ",
				"energy": -0.31357,
				"method": "rhf"
			},
			{
				"type": "unocc",
				"energy": -0.13045,
				"method": "rhf"
			},
			{
				"type": "unocc",
				"energy": -0.09957,
				"method": "rhf"
			},
			{
				"type": "unocc",
				"energy": -0.08056,
				"method": "rhf"
			},
			{
				"type": "unocc",
				"energy": -0.06054,
				"method": "rhf"
			},
			{
				"type": "unocc",
				"energy": 0.02315,
				"method": "rhf"
			}
		],
		"cosmo_sigma_profile": { 
			"-0.025": 0.0,
			"-0.024": 0.0,
			"-0.023": 0.0,
			"-0.022": 0.0,
			"-0.021": 0.0,
			"-0.02": 0.0,
			"-0.019": 0.0,
			"-0.018": 0.0,
			"-0.017": 0.0,
			"-0.016": 0.0,
			"-0.015": 0.0,
			"-0.014": 0.0,
			"-0.013": 0.0,
			"-0.012": 0.0,
			"-0.011": 0.787342000213,
			"-0.01": 4.59626820371,
			"-0.009": 5.76391031465,
			"-0.008": 7.13123248151,
			"-0.007": 7.81741541518,
			"-0.006": 9.08567695386,
			"-0.005": 13.1068275363,
			"-0.004": 17.1271239447,
			"-0.003": 16.8217993483,
			"-0.002": 14.9753142819,
			"-0.001": 12.2544926917,
			"0.0": 12.3095768565,
			"0.001": 21.7138402416,
			"0.002": 34.786326875,
			"0.003": 15.9453706018,
			"0.004": 7.65458235191,
			"0.005": 8.97328077908,
			"0.006": 14.528762004,
			"0.007": 14.156802921,
			"0.008": 10.3982252891,
			"0.009": 1.29926927395,
			"0.01": 0.0,
			"0.011": 0.0,
			"0.012": 0.0,
			"0.013": 0.0,
			"0.014": 0.0,
			"0.015": 0.0,
			"0.016": 0.0,
			"0.017": 0.0,
			"0.018": 0.0,
			"0.019": 0.0,
			"0.02": 0.0,
			"0.021": 0.0,
			"0.022": 0.0,
			"0.023": 0.0,
			"0.024": 0.0,
			"0.025": 0.0
		}
	}
}
