{
	 "smiles": "CC(O)C1=C(C)N=C(S1)C1=C(F)C=CC=C1", 
	 "Tm": 353.15, 
	 "num_atms": 28, 
	 "gaussian": { 
		 "optdone": 1, 
		 "sigma_profile": "yes", 
		 "theory": "DFT", 
		 "functional": "B3LYP", 
		 "basiset": "6-31G**", 
		 "properties": { 
			 "R2extent": 5148.7354, 
			 "electric_dipole_moment_norm": 2.21912601039, 
			 "electric_quadrupole_moment_norm": 5.47658604516, 
			 "total_energy": -1092.50415016, 
			 "HOMO_LUMO_gap": 0.16702, 
			 "cosmo_polarized_energy": -10.92, 
			 "cosmo_cavitation_energy": 33.51, 
			 "cosmo_dispersion_energy": -24.34, 
			 "cosmo_repulsion_energy": 1.85, 
			 "cosmo_total_nonelectrostatic_energy": 11.02, 
			 "SMD_solvation_energy": 4.63 
		},
		"coords": [
			{
				"x": -4.142673684,
				"y": -1.6903933116,
				"z": -1.0425232166,
				"element": "C" 
			},
			{
				"x": -2.8982660411,
				"y": -1.3707434351,
				"z": -1.8725763004,
				"element": "C" 
			},
			{
				"x": -3.2802848262,
				"y": -0.3550977835,
				"z": -2.8012734561,
				"element": "O" 
			},
			{
				"x": -1.7167401117,
				"y": -0.9472545859,
				"z": -1.0216529546,
				"element": "C" 
			},
			{
				"x": -1.457107348,
				"y": 0.2490642325,
				"z": -0.3894101439,
				"element": "C" 
			},
			{
				"x": -2.3198367958,
				"y": 1.4801137106,
				"z": -0.4061148334,
				"element": "C" 
			},
			{
				"x": -0.2853844789,
				"y": 0.2923613468,
				"z": 0.333378038,
				"element": "N" 
			},
			{
				"x": 0.3705737222,
				"y": -0.8340214845,
				"z": 0.2921294777,
				"element": "C" 
			},
			{
				"x": -0.4199278441,
				"y": -2.0689640976,
				"z": -0.6962206994,
				"element": "S" 
			},
			{
				"x": 1.6424922777,
				"y": -1.1117358091,
				"z": 0.9721111449,
				"element": "C" 
			},
			{
				"x": 2.5570935313,
				"y": -0.0896716064,
				"z": 1.2819144498,
				"element": "C" 
			},
			{
				"x": 2.2884145404,
				"y": 1.1801195848,
				"z": 0.9407068727,
				"element": "F" 
			},
			{
				"x": 3.7652775456,
				"y": -0.345364551,
				"z": 1.9202558874,
				"element": "C" 
			},
			{
				"x": 4.0958793704,
				"y": -1.6538992798,
				"z": 2.2687395927,
				"element": "C" 
			},
			{
				"x": 3.213142003,
				"y": -2.6952888192,
				"z": 1.9734052156,
				"element": "C" 
			},
			{
				"x": 2.0061471686,
				"y": -2.4215329278,
				"z": 1.3369837339,
				"element": "C" 
			},
			{
				"x": -3.9400746491,
				"y": -2.5116133533,
				"z": -0.3496428037,
				"element": "H" 
			},
			{
				"x": -4.9635295848,
				"y": -1.9796908262,
				"z": -1.7051548057,
				"element": "H" 
			},
			{
				"x": -4.4523842755,
				"y": -0.8151967571,
				"z": -0.4652296757,
				"element": "H" 
			},
			{
				"x": -2.6118574564,
				"y": -2.2822389042,
				"z": -2.4217800805,
				"element": "H" 
			},
			{
				"x": -2.4867647347,
				"y": -0.085265271,
				"z": -3.2831101679,
				"element": "H" 
			},
			{
				"x": -3.1159445889,
				"y": 1.3943719288,
				"z": -1.145494636,
				"element": "H" 
			},
			{
				"x": -1.7085376019,
				"y": 2.3590279793,
				"z": -0.634504544,
				"element": "H" 
			},
			{
				"x": -2.7642053398,
				"y": 1.6492542654,
				"z": 0.5815648781,
				"element": "H" 
			},
			{
				"x": 4.4278017564,
				"y": 0.4882186623,
				"z": 2.1268427301,
				"element": "H" 
			},
			{
				"x": 5.0375986579,
				"y": -1.8562676971,
				"z": 2.7695889628,
				"element": "H" 
			},
			{
				"x": 3.4590528485,
				"y": -3.7164465465,
				"z": 2.2465272066,
				"element": "H" 
			},
			{
				"x": 1.3128459387,
				"y": -3.2318446635,
				"z": 1.1321401275,
				"element": "H" 
			}
		],
		 "valence_orbital": [ 
			{
				"type": "occ",
				"energy": -0.27752,
				"method": "rhf"
			},
			{
				"type": "occ",
				"energy": -0.27178,
				"method": "rhf"
			},
			{
				"type": "occ",
				"energy": -0.26204,
				"method": "rhf"
			},
			{
				"type": "occ",
				"energy": -0.25227,
				"method": "rhf"
			},
			{
				"type": "occ",
				"energy": -0.2185,
				"method": "rhf"
			},
			{
				"type": "unocc",
				"energy": -0.05148,
				"method": "rhf"
			},
			{
				"type": "unocc",
				"energy": -0.00907,
				"method": "rhf"
			},
			{
				"type": "unocc",
				"energy": 0.01053,
				"method": "rhf"
			},
			{
				"type": "unocc",
				"energy": 0.01797,
				"method": "rhf"
			},
			{
				"type": "unocc",
				"energy": 0.05505,
				"method": "rhf"
			}
		],
		"cosmo_sigma_profile": { 
			"-0.025": 0.0,
			"-0.024": 0.0,
			"-0.023": 0.0,
			"-0.022": 0.0,
			"-0.021": 0.0,
			"-0.02": 0.0,
			"-0.019": 0.0,
			"-0.018": 0.0,
			"-0.017": 0.0,
			"-0.016": 0.237629257166,
			"-0.015": 0.934978737582,
			"-0.014": 1.05882784468,
			"-0.013": 0.537762466051,
			"-0.012": 0.663297372634,
			"-0.011": 1.15760318778,
			"-0.01": 0.30297735801,
			"-0.009": 0.849006471218,
			"-0.008": 1.74179044178,
			"-0.007": 5.72194695409,
			"-0.006": 10.1846995115,
			"-0.005": 15.3374440551,
			"-0.004": 18.9726131593,
			"-0.003": 16.6019732862,
			"-0.002": 21.2814917123,
			"-0.001": 24.6266695341,
			"0.0": 30.4307184481,
			"0.001": 27.7098890252,
			"0.002": 24.5261784323,
			"0.003": 20.179402515,
			"0.004": 15.7084906566,
			"0.005": 6.30301517191,
			"0.006": 3.75245884994,
			"0.007": 2.93564957959,
			"0.008": 3.19918971377,
			"0.009": 2.85710694241,
			"0.01": 1.98955943063,
			"0.011": 2.4271432796,
			"0.012": 2.19896068966,
			"0.013": 2.86354862507,
			"0.014": 1.12778275612,
			"0.015": 0.237386819672,
			"0.016": 0.0,
			"0.017": 0.0,
			"0.018": 0.0,
			"0.019": 0.0,
			"0.02": 0.0,
			"0.021": 0.0,
			"0.022": 0.0,
			"0.023": 0.0,
			"0.024": 0.0,
			"0.025": 0.0
		}
	}
}
