{
	 "smiles": "OC(=O)C1(CCOCC1)C1=CC(Br)=CC=C1", 
	 "Tm": 426.15, 
	 "num_atms": 29, 
	 "gaussian": { 
		 "optdone": 1, 
		 "sigma_profile": "yes", 
		 "theory": "DFT", 
		 "functional": "B3LYP", 
		 "basiset": "6-31G**", 
		 "properties": { 
			 "R2extent": 6464.2674, 
			 "electric_dipole_moment_norm": 0.455744632442, 
			 "electric_quadrupole_moment_norm": 12.6543337126, 
			 "total_energy": -3262.18693062, 
			 "HOMO_LUMO_gap": 0.21956, 
			 "cosmo_polarized_energy": -12.0, 
			 "cosmo_cavitation_energy": 32.96, 
			 "cosmo_dispersion_energy": -24.16, 
			 "cosmo_repulsion_energy": 1.88, 
			 "cosmo_total_nonelectrostatic_energy": 10.67, 
			 "SMD_solvation_energy": 5.08 
		},
		"coords": [
			{
				"x": -0.0788429099,
				"y": 1.8951154513,
				"z": -1.1549555671,
				"element": "O" 
			},
			{
				"x": -0.011946965,
				"y": 1.3360299345,
				"z": 0.0760314224,
				"element": "C" 
			},
			{
				"x": -0.5287780228,
				"y": 1.8502113037,
				"z": 1.044465307,
				"element": "O" 
			},
			{
				"x": 0.7005827926,
				"y": -0.0281773503,
				"z": 0.0679541,
				"element": "C" 
			},
			{
				"x": 1.3740715819,
				"y": -0.2355037847,
				"z": 1.4539612033,
				"element": "C" 
			},
			{
				"x": 2.7004866275,
				"y": 0.5614714356,
				"z": 1.5376095993,
				"element": "C" 
			},
			{
				"x": 2.7427204996,
				"y": 1.5959861202,
				"z": 0.5633352106,
				"element": "O" 
			},
			{
				"x": 2.8376922676,
				"y": 1.0670956591,
				"z": -0.7544870181,
				"element": "C" 
			},
			{
				"x": 1.8131292286,
				"y": -0.0661335451,
				"z": -1.0018125452,
				"element": "C" 
			},
			{
				"x": -0.3946058535,
				"y": -1.0923209134,
				"z": -0.1436017298,
				"element": "C" 
			},
			{
				"x": -0.2910348327,
				"y": -2.0692221572,
				"z": -1.1418961433,
				"element": "C" 
			},
			{
				"x": -1.2854456454,
				"y": -3.0380073844,
				"z": -1.2743421843,
				"element": "C" 
			},
			{
				"x": -1.1111789883,
				"y": -4.3599906328,
				"z": -2.6484470276,
				"element": "Br" 
			},
			{
				"x": -2.3963505085,
				"y": -3.0669982139,
				"z": -0.4380146301,
				"element": "C" 
			},
			{
				"x": -2.501153091,
				"y": -2.0895194355,
				"z": 0.5532373688,
				"element": "C" 
			},
			{
				"x": -1.5168908209,
				"y": -1.114823804,
				"z": 0.7012624031,
				"element": "C" 
			},
			{
				"x": -0.576169398,
				"y": 2.7229969222,
				"z": -1.0438686717,
				"element": "H" 
			},
			{
				"x": 0.6807146849,
				"y": 0.0870091408,
				"z": 2.2328190931,
				"element": "H" 
			},
			{
				"x": 1.5638680057,
				"y": -1.3043542756,
				"z": 1.5957452741,
				"element": "H" 
			},
			{
				"x": 2.8031795733,
				"y": 1.0525461567,
				"z": 2.5082359471,
				"element": "H" 
			},
			{
				"x": 3.5663587777,
				"y": -0.1078658146,
				"z": 1.4080487427,
				"element": "H" 
			},
			{
				"x": 3.8598838205,
				"y": 0.7017565763,
				"z": -0.9427385446,
				"element": "H" 
			},
			{
				"x": 2.6476434578,
				"y": 1.911685971,
				"z": -1.4201781027,
				"element": "H" 
			},
			{
				"x": 2.3062322432,
				"y": -1.0422548992,
				"z": -0.9355710382,
				"element": "H" 
			},
			{
				"x": 1.3990762826,
				"y": 0.0225193382,
				"z": -2.0089096874,
				"element": "H" 
			},
			{
				"x": 0.5512863478,
				"y": -2.0909744389,
				"z": -1.8201546401,
				"element": "H" 
			},
			{
				"x": -3.1580376545,
				"y": -3.8284650324,
				"z": -0.5589405469,
				"element": "H" 
			},
			{
				"x": -3.3629438154,
				"y": -2.0896049194,
				"z": 1.21425774,
				"element": "H" 
			},
			{
				"x": -1.6244476852,
				"y": -0.3542074084,
				"z": 1.4668546655,
				"element": "H" 
			}
		],
		 "valence_orbital": [ 
			{
				"type": "occ",
				"energy": -0.28806,
				"method": "rhf"
			},
			{
				"type": "occ",
				"energy": -0.27737,
				"method": "rhf"
			},
			{
				"type": "occ",
				"energy": -0.26181,
				"method": "rhf"
			},
			{
				"type": "occ",
				"energy": -0.25598,
				"method": "rhf"
			},
			{
				"type": "occ",
				"energy": -0.24186,
				"method": "rhf"
			},
			{
				"type": "unocc",
				"energy": -0.0223,
				"method": "rhf"
			},
			{
				"type": "unocc",
				"energy": -0.01701,
				"method": "rhf"
			},
			{
				"type": "unocc",
				"energy": 0.00358,
				"method": "rhf"
			},
			{
				"type": "unocc",
				"energy": 0.01972,
				"method": "rhf"
			},
			{
				"type": "unocc",
				"energy": 0.06658,
				"method": "rhf"
			}
		],
		"cosmo_sigma_profile": { 
			"-0.025": 0.0,
			"-0.024": 0.0,
			"-0.023": 0.0,
			"-0.022": 0.0,
			"-0.021": 0.0,
			"-0.02": 0.0,
			"-0.019": 0.0690243583186,
			"-0.018": 0.662736370449,
			"-0.017": 0.991881495321,
			"-0.016": 0.925515711338,
			"-0.015": 0.811511261221,
			"-0.014": 0.880115082726,
			"-0.013": 0.135921976628,
			"-0.012": 0.402606457511,
			"-0.011": 0.899028585775,
			"-0.01": 1.06857514381,
			"-0.009": 0.770690403574,
			"-0.008": 0.465488894458,
			"-0.007": 3.40817106216,
			"-0.006": 7.98527401356,
			"-0.005": 15.4650104734,
			"-0.004": 30.5726175646,
			"-0.003": 26.1909251565,
			"-0.002": 21.8211963714,
			"-0.001": 16.0510196346,
			"0.0": 14.7865409763,
			"0.001": 15.9677489553,
			"0.002": 22.1165305298,
			"0.003": 21.801710009,
			"0.004": 20.6105670045,
			"0.005": 10.6745763882,
			"0.006": 3.45367413756,
			"0.007": 4.17289916205,
			"0.008": 4.05158194109,
			"0.009": 2.81429931111,
			"0.01": 3.09832183797,
			"0.011": 4.33495258761,
			"0.012": 4.3590799485,
			"0.013": 1.23178149273,
			"0.014": 0.029793506038,
			"0.015": 0.0,
			"0.016": 0.0,
			"0.017": 0.0,
			"0.018": 0.0,
			"0.019": 0.0,
			"0.02": 0.0,
			"0.021": 0.0,
			"0.022": 0.0,
			"0.023": 0.0,
			"0.024": 0.0,
			"0.025": 0.0
		}
	}
}
