{
	 "smiles": "CC(C)C(Br)C(=O)N1CCC2=C1C=CC=C2", 
	 "Tm": 385.15, 
	 "num_atms": 32, 
	 "gaussian": { 
		 "optdone": 1, 
		 "sigma_profile": "yes", 
		 "theory": "DFT", 
		 "functional": "B3LYP", 
		 "basiset": "6-31G**", 
		 "properties": { 
			 "R2extent": 5058.5555, 
			 "electric_dipole_moment_norm": 1.80323034025, 
			 "electric_quadrupole_moment_norm": 12.0331761796, 
			 "total_energy": -3206.4215408, 
			 "HOMO_LUMO_gap": 0.19054, 
			 "cosmo_polarized_energy": -9.0, 
			 "cosmo_cavitation_energy": 34.64, 
			 "cosmo_dispersion_energy": -24.88, 
			 "cosmo_repulsion_energy": 1.93, 
			 "cosmo_total_nonelectrostatic_energy": 11.69, 
			 "SMD_solvation_energy": 4.64 
		},
		"coords": [
			{
				"x": -1.4082720638,
				"y": 3.2908635075,
				"z": -3.4739728857,
				"element": "C" 
			},
			{
				"x": -1.6047679359,
				"y": 2.6604863001,
				"z": -2.0893088599,
				"element": "C" 
			},
			{
				"x": -0.6510946765,
				"y": 3.2722742236,
				"z": -1.0578078597,
				"element": "C" 
			},
			{
				"x": -1.5919997841,
				"y": 1.1171361524,
				"z": -2.1594826862,
				"element": "C" 
			},
			{
				"x": 0.1255692013,
				"y": 0.35685066,
				"z": -2.8453247239,
				"element": "Br" 
			},
			{
				"x": -2.2368562722,
				"y": 0.4427891918,
				"z": -0.9348825035,
				"element": "C" 
			},
			{
				"x": -3.4607175034,
				"y": 0.579079435,
				"z": -0.9004476,
				"element": "O" 
			},
			{
				"x": -1.6203211686,
				"y": -0.3354216442,
				"z": 0.0128366569,
				"element": "N" 
			},
			{
				"x": -2.5297006497,
				"y": -1.1542011525,
				"z": 0.8608224489,
				"element": "C" 
			},
			{
				"x": -1.6155206484,
				"y": -2.2490984113,
				"z": 1.4357609414,
				"element": "C" 
			},
			{
				"x": -0.2556472844,
				"y": -1.5961755234,
				"z": 1.3788575917,
				"element": "C" 
			},
			{
				"x": -0.2959902524,
				"y": -0.4852453565,
				"z": 0.5180996874,
				"element": "C" 
			},
			{
				"x": 0.8299923379,
				"y": 0.3216690061,
				"z": 0.3583873651,
				"element": "C" 
			},
			{
				"x": 2.0065643015,
				"y": -0.0348324226,
				"z": 1.0254707377,
				"element": "C" 
			},
			{
				"x": 2.0615201608,
				"y": -1.1559845242,
				"z": 1.853835527,
				"element": "C" 
			},
			{
				"x": 0.917147327,
				"y": -1.9394605774,
				"z": 2.0379324865,
				"element": "C" 
			},
			{
				"x": -2.1252297263,
				"y": 2.8939994446,
				"z": -4.2004529154,
				"element": "H" 
			},
			{
				"x": -1.551909115,
				"y": 4.3745951182,
				"z": -3.4180680706,
				"element": "H" 
			},
			{
				"x": -0.400670961,
				"y": 3.1014575657,
				"z": -3.8558594239,
				"element": "H" 
			},
			{
				"x": -2.6334387961,
				"y": 2.8702825209,
				"z": -1.7659116583,
				"element": "H" 
			},
			{
				"x": -0.8078015197,
				"y": 4.3542007106,
				"z": -1.0031681434,
				"element": "H" 
			},
			{
				"x": -0.8122174044,
				"y": 2.865718224,
				"z": -0.0545459638,
				"element": "H" 
			},
			{
				"x": 0.3941574561,
				"y": 3.1055383709,
				"z": -1.338695874,
				"element": "H" 
			},
			{
				"x": -2.2740258456,
				"y": 0.8252738874,
				"z": -2.956603222,
				"element": "H" 
			},
			{
				"x": -3.3534681011,
				"y": -1.5247424853,
				"z": 0.2522305097,
				"element": "H" 
			},
			{
				"x": -2.953874197,
				"y": -0.5241656792,
				"z": 1.6513202964,
				"element": "H" 
			},
			{
				"x": -1.6437778556,
				"y": -3.1510070099,
				"z": 0.8100621408,
				"element": "H" 
			},
			{
				"x": -1.9108095971,
				"y": -2.5417845343,
				"z": 2.4472029941,
				"element": "H" 
			},
			{
				"x": 0.8126275063,
				"y": 1.2027253551,
				"z": -0.2627834644,
				"element": "H" 
			},
			{
				"x": 2.887558755,
				"y": 0.587718388,
				"z": 0.8996411107,
				"element": "H" 
			},
			{
				"x": 2.9837138453,
				"y": -1.4094944446,
				"z": 2.3676584352,
				"element": "H" 
			},
			{
				"x": 0.9388604671,
				"y": -2.8014442965,
				"z": 2.6993969254,
				"element": "H" 
			}
		],
		 "valence_orbital": [ 
			{
				"type": "occ",
				"energy": -0.28355,
				"method": "rhf"
			},
			{
				"type": "occ",
				"energy": -0.27344,
				"method": "rhf"
			},
			{
				"type": "occ",
				"energy": -0.25512,
				"method": "rhf"
			},
			{
				"type": "occ",
				"energy": -0.24615,
				"method": "rhf"
			},
			{
				"type": "occ",
				"energy": -0.21475,
				"method": "rhf"
			},
			{
				"type": "unocc",
				"energy": -0.02421,
				"method": "rhf"
			},
			{
				"type": "unocc",
				"energy": -0.00683,
				"method": "rhf"
			},
			{
				"type": "unocc",
				"energy": 0.00388,
				"method": "rhf"
			},
			{
				"type": "unocc",
				"energy": 0.03147,
				"method": "rhf"
			},
			{
				"type": "unocc",
				"energy": 0.08483,
				"method": "rhf"
			}
		],
		"cosmo_sigma_profile": { 
			"-0.025": 0.0,
			"-0.024": 0.0,
			"-0.023": 0.0,
			"-0.022": 0.0,
			"-0.021": 0.0,
			"-0.02": 0.0,
			"-0.019": 0.0,
			"-0.018": 0.0,
			"-0.017": 0.0,
			"-0.016": 0.0,
			"-0.015": 0.0,
			"-0.014": 0.0,
			"-0.013": 0.0,
			"-0.012": 0.0,
			"-0.011": 0.0,
			"-0.01": 0.0,
			"-0.009": 0.0,
			"-0.008": 0.376811671536,
			"-0.007": 1.70902004666,
			"-0.006": 6.03302573423,
			"-0.005": 17.9577006413,
			"-0.004": 30.0619969318,
			"-0.003": 33.3273828389,
			"-0.002": 31.4263638249,
			"-0.001": 26.6545536627,
			"0.0": 24.887209939,
			"0.001": 19.7883448043,
			"0.002": 12.0833105184,
			"0.003": 14.1717069868,
			"0.004": 14.7876418188,
			"0.005": 15.6915524761,
			"0.006": 12.6034112083,
			"0.007": 1.18330434549,
			"0.008": 1.0112747311,
			"0.009": 1.48455088654,
			"0.01": 1.48906620077,
			"0.011": 1.50713462299,
			"0.012": 2.85131901152,
			"0.013": 4.08858568859,
			"0.014": 0.364114811365,
			"0.015": 0.0,
			"0.016": 0.0,
			"0.017": 0.0,
			"0.018": 0.0,
			"0.019": 0.0,
			"0.02": 0.0,
			"0.021": 0.0,
			"0.022": 0.0,
			"0.023": 0.0,
			"0.024": 0.0,
			"0.025": 0.0
		}
	}
}
