{
	 "smiles": "CC12CCC3C(CCC4(C)CC(=O)CCC34C)C1CCC2=O", 
	 "Tm": 421.15, 
	 "num_atms": 52, 
	 "gaussian": { 
		 "optdone": 1, 
		 "sigma_profile": "yes", 
		 "theory": "DFT", 
		 "functional": "B3LYP", 
		 "basiset": "6-31G**", 
		 "properties": { 
			 "R2extent": 7550.4778, 
			 "electric_dipole_moment_norm": 2.96165466927, 
			 "electric_quadrupole_moment_norm": 25.8658657249, 
			 "total_energy": -930.666069797, 
			 "HOMO_LUMO_gap": 0.21497, 
			 "cosmo_polarized_energy": -13.72, 
			 "cosmo_cavitation_energy": 43.77, 
			 "cosmo_dispersion_energy": -30.64, 
			 "cosmo_repulsion_energy": 2.23, 
			 "cosmo_total_nonelectrostatic_energy": 15.37, 
			 "SMD_solvation_energy": 7.06 
		},
		"coords": [
			{
				"x": -2.771762385,
				"y": -1.7889261527,
				"z": -1.1084117007,
				"element": "C" 
			},
			{
				"x": -1.3984180712,
				"y": -1.0890836988,
				"z": -1.1434656033,
				"element": "C" 
			},
			{
				"x": -1.6003993546,
				"y": 0.4445311717,
				"z": -1.209302872,
				"element": "C" 
			},
			{
				"x": -0.3878619312,
				"y": 1.230324862,
				"z": -0.6951271839,
				"element": "C" 
			},
			{
				"x": -0.1718267402,
				"y": 0.9949845827,
				"z": 0.8194554827,
				"element": "C" 
			},
			{
				"x": -0.4775017192,
				"y": -0.5028232513,
				"z": 1.1994685423,
				"element": "C" 
			},
			{
				"x": 0.3183316698,
				"y": -0.9585720927,
				"z": 2.4314093844,
				"element": "C" 
			},
			{
				"x": 0.3433603866,
				"y": 0.1795731542,
				"z": 3.4502675828,
				"element": "C" 
			},
			{
				"x": 1.1782890397,
				"y": 1.416924583,
				"z": 3.0040225313,
				"element": "C" 
			},
			{
				"x": 0.6168885106,
				"y": 2.6283281688,
				"z": 3.7801307228,
				"element": "C" 
			},
			{
				"x": 2.6480854356,
				"y": 1.1828677292,
				"z": 3.4957564308,
				"element": "C" 
			},
			{
				"x": 3.6641328102,
				"y": 2.0266821344,
				"z": 2.7576965315,
				"element": "C" 
			},
			{
				"x": 4.3649610933,
				"y": 2.8644756686,
				"z": 3.2944070152,
				"element": "O" 
			},
			{
				"x": 3.7176262673,
				"y": 1.7380958173,
				"z": 1.2634256851,
				"element": "C" 
			},
			{
				"x": 2.4372612523,
				"y": 1.0322952631,
				"z": 0.7762230288,
				"element": "C" 
			},
			{
				"x": 1.1443463232,
				"y": 1.626617601,
				"z": 1.4084019785,
				"element": "C" 
			},
			{
				"x": 1.1308944723,
				"y": 3.13531758,
				"z": 1.0457008557,
				"element": "C" 
			},
			{
				"x": -0.4706328044,
				"y": -1.5207860872,
				"z": 0.0384154024,
				"element": "C" 
			},
			{
				"x": 0.8961608924,
				"y": -1.8908548297,
				"z": -0.6022950077,
				"element": "C" 
			},
			{
				"x": 0.5371635464,
				"y": -2.4317887011,
				"z": -1.9933316597,
				"element": "C" 
			},
			{
				"x": -0.6568403015,
				"y": -1.5803522165,
				"z": -2.408230453,
				"element": "C" 
			},
			{
				"x": -0.9858536719,
				"y": -1.3154545742,
				"z": -3.5451824163,
				"element": "O" 
			},
			{
				"x": -2.6728308016,
				"y": -2.8798103076,
				"z": -1.1389203595,
				"element": "H" 
			},
			{
				"x": -3.3781681162,
				"y": -1.4802502016,
				"z": -1.9654501941,
				"element": "H" 
			},
			{
				"x": -3.3104523231,
				"y": -1.5266366299,
				"z": -0.1908124045,
				"element": "H" 
			},
			{
				"x": -1.828655452,
				"y": 0.7137335032,
				"z": -2.2462449781,
				"element": "H" 
			},
			{
				"x": -2.4811869324,
				"y": 0.7175381497,
				"z": -0.6124107246,
				"element": "H" 
			},
			{
				"x": -0.5440167661,
				"y": 2.2955665994,
				"z": -0.8891983034,
				"element": "H" 
			},
			{
				"x": 0.4977626456,
				"y": 0.9450180223,
				"z": -1.2758666357,
				"element": "H" 
			},
			{
				"x": -0.9692370735,
				"y": 1.5726186663,
				"z": 1.3085687611,
				"element": "H" 
			},
			{
				"x": -1.5258102975,
				"y": -0.4929560058,
				"z": 1.5323530994,
				"element": "H" 
			},
			{
				"x": -0.1547479067,
				"y": -1.848295531,
				"z": 2.8654141692,
				"element": "H" 
			},
			{
				"x": 1.3383697534,
				"y": -1.2614416531,
				"z": 2.1666272988,
				"element": "H" 
			},
			{
				"x": -0.6939231203,
				"y": 0.4909033451,
				"z": 3.634688475,
				"element": "H" 
			},
			{
				"x": 0.7272714732,
				"y": -0.16501731,
				"z": 4.418173978,
				"element": "H" 
			},
			{
				"x": 1.2531494832,
				"y": 3.513587984,
				"z": 3.7043868818,
				"element": "H" 
			},
			{
				"x": -0.3882223259,
				"y": 2.8969279895,
				"z": 3.4389224131,
				"element": "H" 
			},
			{
				"x": 0.5417954297,
				"y": 2.3731410939,
				"z": 4.8430123098,
				"element": "H" 
			},
			{
				"x": 2.9170024939,
				"y": 0.1305797901,
				"z": 3.3276544678,
				"element": "H" 
			},
			{
				"x": 2.7237721366,
				"y": 1.378928291,
				"z": 4.5686342309,
				"element": "H" 
			},
			{
				"x": 4.5936131261,
				"y": 1.1012663605,
				"z": 1.0788575048,
				"element": "H" 
			},
			{
				"x": 3.9115724126,
				"y": 2.6779876515,
				"z": 0.7389680457,
				"element": "H" 
			},
			{
				"x": 2.5142061181,
				"y": -0.0343173168,
				"z": 0.9985707156,
				"element": "H" 
			},
			{
				"x": 2.3851195805,
				"y": 1.113685019,
				"z": -0.3141069445,
				"element": "H" 
			},
			{
				"x": 0.1733155252,
				"y": 3.6039062686,
				"z": 1.2892844514,
				"element": "H" 
			},
			{
				"x": 1.9088702698,
				"y": 3.6987172066,
				"z": 1.5659135923,
				"element": "H" 
			},
			{
				"x": 1.3011533698,
				"y": 3.2728378871,
				"z": -0.026175188,
				"element": "H" 
			},
			{
				"x": -0.8782278511,
				"y": -2.4540903453,
				"z": 0.453299793,
				"element": "H" 
			},
			{
				"x": 1.453380086,
				"y": -2.6117740346,
				"z": 0.0029636351,
				"element": "H" 
			},
			{
				"x": 1.5302010725,
				"y": -1.0083194902,
				"z": -0.7145327235,
				"element": "H" 
			},
			{
				"x": 1.3355021607,
				"y": -2.3927644047,
				"z": -2.7382433398,
				"element": "H" 
			},
			{
				"x": 0.1952171091,
				"y": -3.4751473088,
				"z": -1.9300663045,
				"element": "H" 
			}
		],
		 "valence_orbital": [ 
			{
				"type": "occ",
				"energy": -0.29152,
				"method": "rhf"
			},
			{
				"type": "occ",
				"energy": -0.28593,
				"method": "rhf"
			},
			{
				"type": "occ",
				"energy": -0.28396,
				"method": "rhf"
			},
			{
				"type": "occ",
				"energy": -0.23658,
				"method": "rhf"
			},
			{
				"type": "occ",
				"energy": -0.23405,
				"method": "rhf"
			},
			{
				"type": "unocc",
				"energy": -0.01908,
				"method": "rhf"
			},
			{
				"type": "unocc",
				"energy": -0.01204,
				"method": "rhf"
			},
			{
				"type": "unocc",
				"energy": 0.0572,
				"method": "rhf"
			},
			{
				"type": "unocc",
				"energy": 0.07321,
				"method": "rhf"
			},
			{
				"type": "unocc",
				"energy": 0.0799,
				"method": "rhf"
			}
		],
		"cosmo_sigma_profile": { 
			"-0.025": 0.0,
			"-0.024": 0.0,
			"-0.023": 0.0,
			"-0.022": 0.0,
			"-0.021": 0.0,
			"-0.02": 0.0,
			"-0.019": 0.0,
			"-0.018": 0.0,
			"-0.017": 0.0,
			"-0.016": 0.0,
			"-0.015": 0.0,
			"-0.014": 0.0,
			"-0.013": 0.0,
			"-0.012": 0.0,
			"-0.011": 0.0,
			"-0.01": 0.0,
			"-0.009": 0.0,
			"-0.008": 0.00771651528255,
			"-0.007": 0.161526220344,
			"-0.006": 4.84910603987,
			"-0.005": 14.5606342135,
			"-0.004": 16.892357559,
			"-0.003": 39.553495235,
			"-0.002": 70.2603644177,
			"-0.001": 57.5794220932,
			"0.0": 43.0365310822,
			"0.001": 30.8455020535,
			"0.002": 9.10123210468,
			"0.003": 3.66017689578,
			"0.004": 3.0368601982,
			"0.005": 3.51343637433,
			"0.006": 3.3993666745,
			"0.007": 2.97540249072,
			"0.008": 3.02927852486,
			"0.009": 3.33266261642,
			"0.01": 2.99689255764,
			"0.011": 5.53939837915,
			"0.012": 8.01437862939,
			"0.013": 6.91121103615,
			"0.014": 1.99895785548,
			"0.015": 0.00793284211633,
			"0.016": 0.0,
			"0.017": 0.0,
			"0.018": 0.0,
			"0.019": 0.0,
			"0.02": 0.0,
			"0.021": 0.0,
			"0.022": 0.0,
			"0.023": 0.0,
			"0.024": 0.0,
			"0.025": 0.0
		}
	}
}
