{
	 "smiles": "NC1=C(C=CC2=NC3=CC=CC=C3N2)C=CC=C1", 
	 "Tm": 486.15, 
	 "num_atms": 31, 
	 "gaussian": { 
		 "optdone": 1, 
		 "sigma_profile": "yes", 
		 "theory": "DFT", 
		 "functional": "B3LYP", 
		 "basiset": "6-31G**", 
		 "properties": { 
			 "R2extent": 7383.6817, 
			 "electric_dipole_moment_norm": 4.09533131505, 
			 "electric_quadrupole_moment_norm": 13.9159135108, 
			 "total_energy": -743.696308714, 
			 "HOMO_LUMO_gap": 0.13979, 
			 "cosmo_polarized_energy": -18.47, 
			 "cosmo_cavitation_energy": 35.52, 
			 "cosmo_dispersion_energy": -26.23, 
			 "cosmo_repulsion_energy": 2.0, 
			 "cosmo_total_nonelectrostatic_energy": 11.29, 
			 "SMD_solvation_energy": 3.44 
		},
		"coords": [
			{
				"x": -2.9486679332,
				"y": 1.2278579316,
				"z": 0.8933451984,
				"element": "N" 
			},
			{
				"x": -2.9953722263,
				"y": -0.1704978557,
				"z": 0.9807939661,
				"element": "C" 
			},
			{
				"x": -1.8944885399,
				"y": -0.9483268055,
				"z": 0.5337986692,
				"element": "C" 
			},
			{
				"x": -0.6951845594,
				"y": -0.2826166814,
				"z": 0.0234179401,
				"element": "C" 
			},
			{
				"x": 0.1791238965,
				"y": -0.793602761,
				"z": -0.8706750847,
				"element": "C" 
			},
			{
				"x": 1.4039145713,
				"y": -0.1624999727,
				"z": -1.3154953467,
				"element": "C" 
			},
			{
				"x": 2.142177106,
				"y": -0.6174189255,
				"z": -2.3134531862,
				"element": "N" 
			},
			{
				"x": 3.2013785078,
				"y": 0.2629483305,
				"z": -2.4185796432,
				"element": "C" 
			},
			{
				"x": 4.2859226556,
				"y": 0.262469625,
				"z": -3.3076709266,
				"element": "C" 
			},
			{
				"x": 5.2305703133,
				"y": 1.2761339466,
				"z": -3.1895979107,
				"element": "C" 
			},
			{
				"x": 5.1109305964,
				"y": 2.2812096642,
				"z": -2.2075788167,
				"element": "C" 
			},
			{
				"x": 4.0415567823,
				"y": 2.3051401041,
				"z": -1.3147189761,
				"element": "C" 
			},
			{
				"x": 3.0964866914,
				"y": 1.2854717755,
				"z": -1.4401271984,
				"element": "C" 
			},
			{
				"x": 1.933311707,
				"y": 0.991299413,
				"z": -0.7553796853,
				"element": "N" 
			},
			{
				"x": -1.9766356549,
				"y": -2.3483063346,
				"z": 0.6414006998,
				"element": "C" 
			},
			{
				"x": -3.0923077134,
				"y": -2.9767767084,
				"z": 1.1839019753,
				"element": "C" 
			},
			{
				"x": -4.1578630188,
				"y": -2.1988783606,
				"z": 1.6462932693,
				"element": "C" 
			},
			{
				"x": -4.1098210008,
				"y": -0.811921435,
				"z": 1.5420375349,
				"element": "C" 
			},
			{
				"x": -2.5489714896,
				"y": 1.5817923953,
				"z": 0.0339750929,
				"element": "H" 
			},
			{
				"x": -3.833769241,
				"y": 1.6778615801,
				"z": 1.0874022366,
				"element": "H" 
			},
			{
				"x": -0.5163473265,
				"y": 0.7143964963,
				"z": 0.4280615756,
				"element": "H" 
			},
			{
				"x": -0.010714415,
				"y": -1.7498227738,
				"z": -1.3488475058,
				"element": "H" 
			},
			{
				"x": 4.3722768699,
				"y": -0.5143398619,
				"z": -4.0604834444,
				"element": "H" 
			},
			{
				"x": 6.0804189275,
				"y": 1.2982495466,
				"z": -3.8653663418,
				"element": "H" 
			},
			{
				"x": 5.8697749919,
				"y": 3.0557064811,
				"z": -2.1457753743,
				"element": "H" 
			},
			{
				"x": 3.9534205332,
				"y": 3.0819630918,
				"z": -0.5609153289,
				"element": "H" 
			},
			{
				"x": 1.5889830022,
				"y": 1.4627287717,
				"z": 0.0656598306,
				"element": "H" 
			},
			{
				"x": -1.125301162,
				"y": -2.9431534447,
				"z": 0.3242054533,
				"element": "H" 
			},
			{
				"x": -3.1234155475,
				"y": -4.0586113765,
				"z": 1.2657358511,
				"element": "H" 
			},
			{
				"x": -5.0321942864,
				"y": -2.6725433282,
				"z": 2.0835435439,
				"element": "H" 
			},
			{
				"x": -4.9490930378,
				"y": -0.210912528,
				"z": 1.8847919327,
				"element": "H" 
			}
		],
		 "valence_orbital": [ 
			{
				"type": "occ",
				"energy": -0.26584,
				"method": "rhf"
			},
			{
				"type": "occ",
				"energy": -0.24804,
				"method": "rhf"
			},
			{
				"type": "occ",
				"energy": -0.22301,
				"method": "rhf"
			},
			{
				"type": "occ",
				"energy": -0.22,
				"method": "rhf"
			},
			{
				"type": "occ",
				"energy": -0.19621,
				"method": "rhf"
			},
			{
				"type": "unocc",
				"energy": -0.05642,
				"method": "rhf"
			},
			{
				"type": "unocc",
				"energy": 0.00278,
				"method": "rhf"
			},
			{
				"type": "unocc",
				"energy": 0.01018,
				"method": "rhf"
			},
			{
				"type": "unocc",
				"energy": 0.02501,
				"method": "rhf"
			},
			{
				"type": "unocc",
				"energy": 0.03895,
				"method": "rhf"
			}
		],
		"cosmo_sigma_profile": { 
			"-0.025": 0.0,
			"-0.024": 0.0,
			"-0.023": 0.0,
			"-0.022": 0.0,
			"-0.021": 0.0,
			"-0.02": 0.0,
			"-0.019": 0.0,
			"-0.018": 0.0,
			"-0.017": 0.0860763692097,
			"-0.016": 1.13826972203,
			"-0.015": 1.32322781219,
			"-0.014": 1.16699913873,
			"-0.013": 1.38937027299,
			"-0.012": 3.57752622846,
			"-0.011": 4.80867954607,
			"-0.01": 3.95836368223,
			"-0.009": 4.452431256,
			"-0.008": 4.83917091302,
			"-0.007": 5.42597806162,
			"-0.006": 11.2235493963,
			"-0.005": 18.2439308082,
			"-0.004": 18.4551520929,
			"-0.003": 19.9121728815,
			"-0.002": 15.2136143127,
			"-0.001": 13.7407590601,
			"0.0": 13.0839545717,
			"0.001": 16.9106684157,
			"0.002": 19.820994306,
			"0.003": 22.0196164794,
			"0.004": 21.7623787552,
			"0.005": 22.0942741394,
			"0.006": 18.8057534812,
			"0.007": 5.27756668772,
			"0.008": 2.32647046014,
			"0.009": 1.95487617715,
			"0.01": 1.61512593818,
			"0.011": 2.16675595548,
			"0.012": 1.86254592931,
			"0.013": 1.25932889159,
			"0.014": 1.06764534825,
			"0.015": 1.3865949487,
			"0.016": 1.00242584177,
			"0.017": 0.62417513492,
			"0.018": 0.542429642931,
			"0.019": 0.0,
			"0.02": 0.0,
			"0.021": 0.0,
			"0.022": 0.0,
			"0.023": 0.0,
			"0.024": 0.0,
			"0.025": 0.0
		}
	}
}
