{
	 "smiles": "NC(=NO)C1CN(CC2=CC=CC=C2)CCO1", 
	 "Tm": 390.15, 
	 "num_atms": 34, 
	 "gaussian": { 
		 "optdone": 1, 
		 "sigma_profile": "yes", 
		 "theory": "DFT", 
		 "functional": "B3LYP", 
		 "basiset": "6-31G**", 
		 "properties": { 
			 "R2extent": 6079.4501, 
			 "electric_dipole_moment_norm": 0.903853002429, 
			 "electric_quadrupole_moment_norm": 5.88030031291, 
			 "total_energy": -782.139587667, 
			 "HOMO_LUMO_gap": 0.20537, 
			 "cosmo_polarized_energy": -12.91, 
			 "cosmo_cavitation_energy": 35.34, 
			 "cosmo_dispersion_energy": -25.2, 
			 "cosmo_repulsion_energy": 1.98, 
			 "cosmo_total_nonelectrostatic_energy": 12.11, 
			 "SMD_solvation_energy": 4.4 
		},
		"coords": [
			{
				"x": 1.7659578808,
				"y": 3.3466630928,
				"z": 1.9765993399,
				"element": "N" 
			},
			{
				"x": 1.2891402385,
				"y": 3.5185975076,
				"z": 0.6890715365,
				"element": "C" 
			},
			{
				"x": 1.9930918387,
				"y": 4.196014827,
				"z": -0.150329289,
				"element": "N" 
			},
			{
				"x": 1.3834838752,
				"y": 4.1675041958,
				"z": -1.4453445316,
				"element": "O" 
			},
			{
				"x": -0.0372965948,
				"y": 2.8457514364,
				"z": 0.3585043682,
				"element": "C" 
			},
			{
				"x": 0.1247710695,
				"y": 1.565606549,
				"z": -0.4911852942,
				"element": "C" 
			},
			{
				"x": 0.6368116268,
				"y": 0.4072027834,
				"z": 0.2361455245,
				"element": "N" 
			},
			{
				"x": 2.0718218696,
				"y": 0.1537629795,
				"z": 0.1361445297,
				"element": "C" 
			},
			{
				"x": 2.4281799711,
				"y": -1.2998069656,
				"z": 0.4070822207,
				"element": "C" 
			},
			{
				"x": 3.5851384899,
				"y": -1.6252659226,
				"z": 1.1237622304,
				"element": "C" 
			},
			{
				"x": 3.9467763624,
				"y": -2.9581965358,
				"z": 1.3317455045,
				"element": "C" 
			},
			{
				"x": 3.1462439737,
				"y": -3.9858107049,
				"z": 0.8314600387,
				"element": "C" 
			},
			{
				"x": 1.9839118914,
				"y": -3.6710155967,
				"z": 0.1224056193,
				"element": "C" 
			},
			{
				"x": 1.6292876127,
				"y": -2.33881976,
				"z": -0.0886638388,
				"element": "C" 
			},
			{
				"x": 0.1299973556,
				"y": 0.3046916935,
				"z": 1.6123727965,
				"element": "C" 
			},
			{
				"x": -1.0782822842,
				"y": 1.2113898742,
				"z": 1.8065812842,
				"element": "C" 
			},
			{
				"x": -0.7517640358,
				"y": 2.5850644567,
				"z": 1.5772848166,
				"element": "O" 
			},
			{
				"x": 2.5184040918,
				"y": 3.9762847836,
				"z": 2.2240134764,
				"element": "H" 
			},
			{
				"x": 1.0218592834,
				"y": 3.2811360436,
				"z": 2.6593122736,
				"element": "H" 
			},
			{
				"x": 1.9654986425,
				"y": 4.7566659909,
				"z": -1.9402055903,
				"element": "H" 
			},
			{
				"x": -0.6159120034,
				"y": 3.5677561323,
				"z": -0.2305999936,
				"element": "H" 
			},
			{
				"x": -0.8634741194,
				"y": 1.327402222,
				"z": -0.9076864088,
				"element": "H" 
			},
			{
				"x": 0.77498157,
				"y": 1.7934701175,
				"z": -1.3369341944,
				"element": "H" 
			},
			{
				"x": 2.659187093,
				"y": 0.7980334163,
				"z": 0.8135582835,
				"element": "H" 
			},
			{
				"x": 2.3808898192,
				"y": 0.4073118548,
				"z": -0.8858632343,
				"element": "H" 
			},
			{
				"x": 4.207511731,
				"y": -0.8275109384,
				"z": 1.5229201785,
				"element": "H" 
			},
			{
				"x": 4.8488081254,
				"y": -3.1925375256,
				"z": 1.8905046662,
				"element": "H" 
			},
			{
				"x": 3.4221614061,
				"y": -5.0236128366,
				"z": 0.9963006641,
				"element": "H" 
			},
			{
				"x": 1.3532517416,
				"y": -4.4659445519,
				"z": -0.2668768217,
				"element": "H" 
			},
			{
				"x": 0.7227506911,
				"y": -2.0849793174,
				"z": -0.6303847458,
				"element": "H" 
			},
			{
				"x": -0.1408404835,
				"y": -0.7335223701,
				"z": 1.8489282092,
				"element": "H" 
			},
			{
				"x": 0.9039077059,
				"y": 0.6101216299,
				"z": 2.3359204574,
				"element": "H" 
			},
			{
				"x": -1.9097898689,
				"y": 0.8991090562,
				"z": 1.1584773321,
				"element": "H" 
			},
			{
				"x": -1.4292665668,
				"y": 1.1593823825,
				"z": 2.8409785919,
				"element": "H" 
			}
		],
		 "valence_orbital": [ 
			{
				"type": "occ",
				"energy": -0.2473,
				"method": "rhf"
			},
			{
				"type": "occ",
				"energy": -0.24222,
				"method": "rhf"
			},
			{
				"type": "occ",
				"energy": -0.23644,
				"method": "rhf"
			},
			{
				"type": "occ",
				"energy": -0.20853,
				"method": "rhf"
			},
			{
				"type": "occ",
				"energy": -0.2016,
				"method": "rhf"
			},
			{
				"type": "unocc",
				"energy": 0.00377,
				"method": "rhf"
			},
			{
				"type": "unocc",
				"energy": 0.00644,
				"method": "rhf"
			},
			{
				"type": "unocc",
				"energy": 0.03078,
				"method": "rhf"
			},
			{
				"type": "unocc",
				"energy": 0.07092,
				"method": "rhf"
			},
			{
				"type": "unocc",
				"energy": 0.08622,
				"method": "rhf"
			}
		],
		"cosmo_sigma_profile": { 
			"-0.025": 0.0,
			"-0.024": 0.0,
			"-0.023": 0.0,
			"-0.022": 0.0,
			"-0.021": 0.0,
			"-0.02": 0.0,
			"-0.019": 0.0,
			"-0.018": 0.0,
			"-0.017": 0.0515113387155,
			"-0.016": 0.918164373605,
			"-0.015": 0.884685006595,
			"-0.014": 0.79527525872,
			"-0.013": 1.32237417912,
			"-0.012": 1.89491460939,
			"-0.011": 1.86038562674,
			"-0.01": 2.28325580051,
			"-0.009": 2.55271889973,
			"-0.008": 2.69651340933,
			"-0.007": 2.02025036004,
			"-0.006": 4.92209528357,
			"-0.005": 19.5529452222,
			"-0.004": 25.4242179113,
			"-0.003": 30.5850396469,
			"-0.002": 22.7776847488,
			"-0.001": 22.1152538364,
			"0.0": 16.3527643093,
			"0.001": 15.8927050242,
			"0.002": 15.9955046299,
			"0.003": 13.2843692831,
			"0.004": 14.3477054948,
			"0.005": 13.8193201297,
			"0.006": 14.5242949322,
			"0.007": 9.77068378567,
			"0.008": 6.40389581839,
			"0.009": 3.8724750187,
			"0.01": 3.34333434676,
			"0.011": 2.02237813355,
			"0.012": 1.56214124959,
			"0.013": 1.25201918534,
			"0.014": 1.22603096952,
			"0.015": 0.521635706252,
			"0.016": 0.00319848432175,
			"0.017": 0.0,
			"0.018": 0.0,
			"0.019": 0.0,
			"0.02": 0.0,
			"0.021": 0.0,
			"0.022": 0.0,
			"0.023": 0.0,
			"0.024": 0.0,
			"0.025": 0.0
		}
	}
}
