{
	 "smiles": "NC1=CC2=C(C=C1)S(=O)(=O)NC2=O", 
	 "Tm": 560.15, 
	 "num_atms": 19, 
	 "gaussian": { 
		 "optdone": 1, 
		 "sigma_profile": "yes", 
		 "theory": "DFT", 
		 "functional": "B3LYP", 
		 "basiset": "6-31G**", 
		 "properties": { 
			 "R2extent": 3009.8543, 
			 "electric_dipole_moment_norm": 6.33210418976, 
			 "electric_quadrupole_moment_norm": 13.2860978026, 
			 "total_energy": -1003.66207433, 
			 "HOMO_LUMO_gap": 0.17014, 
			 "cosmo_polarized_energy": -22.0, 
			 "cosmo_cavitation_energy": 25.33, 
			 "cosmo_dispersion_energy": -19.51, 
			 "cosmo_repulsion_energy": 1.5, 
			 "cosmo_total_nonelectrostatic_energy": 7.31, 
			 "SMD_solvation_energy": 4.23 
		},
		"coords": [
			{
				"x": -0.3004387785,
				"y": -3.2203406986,
				"z": 1.5403662788,
				"element": "N" 
			},
			{
				"x": -0.4926894486,
				"y": -2.0945914428,
				"z": 0.7665609991,
				"element": "C" 
			},
			{
				"x": 0.393927629,
				"y": -1.7908093972,
				"z": -0.2873431769,
				"element": "C" 
			},
			{
				"x": 0.1444613025,
				"y": -0.6788993675,
				"z": -1.0737572366,
				"element": "C" 
			},
			{
				"x": -0.9627707655,
				"y": 0.136481534,
				"z": -0.8376411992,
				"element": "C" 
			},
			{
				"x": -1.853892978,
				"y": -0.140758865,
				"z": 0.1931652329,
				"element": "C" 
			},
			{
				"x": -1.610197867,
				"y": -1.2562542399,
				"z": 0.9888162218,
				"element": "C" 
			},
			{
				"x": -1.0240702467,
				"y": 1.4868209615,
				"z": -1.9919648916,
				"element": "S" 
			},
			{
				"x": -2.1573318025,
				"y": 1.3792581802,
				"z": -2.9099196054,
				"element": "O" 
			},
			{
				"x": -0.7459867979,
				"y": 2.7749453335,
				"z": -1.3561909898,
				"element": "O" 
			},
			{
				"x": 0.4027065186,
				"y": 0.9084539758,
				"z": -2.7642261544,
				"element": "N" 
			},
			{
				"x": 0.9913519056,
				"y": -0.2256784277,
				"z": -2.2188182084,
				"element": "C" 
			},
			{
				"x": 2.015638816,
				"y": -0.7432668348,
				"z": -2.6186707674,
				"element": "O" 
			},
			{
				"x": -0.7684496082,
				"y": -3.2607555812,
				"z": 2.4329769105,
				"element": "H" 
			},
			{
				"x": 0.6181007349,
				"y": -3.6373315425,
				"z": 1.5352331682,
				"element": "H" 
			},
			{
				"x": 1.2617658751,
				"y": -2.4094829965,
				"z": -0.4946190508,
				"element": "H" 
			},
			{
				"x": -2.7162913482,
				"y": 0.4901309399,
				"z": 0.3809712545,
				"element": "H" 
			},
			{
				"x": -2.2947908152,
				"y": -1.4937794973,
				"z": 1.798305688,
				"element": "H" 
			},
			{
				"x": 0.8258576744,
				"y": 1.4244579659,
				"z": -3.5251444732,
				"element": "H" 
			}
		],
		 "valence_orbital": [ 
			{
				"type": "occ",
				"energy": -0.31536,
				"method": "rhf"
			},
			{
				"type": "occ",
				"energy": -0.2866,
				"method": "rhf"
			},
			{
				"type": "occ",
				"energy": -0.2813,
				"method": "rhf"
			},
			{
				"type": "occ",
				"energy": -0.27895,
				"method": "rhf"
			},
			{
				"type": "occ",
				"energy": -0.23703,
				"method": "rhf"
			},
			{
				"type": "unocc",
				"energy": -0.06689,
				"method": "rhf"
			},
			{
				"type": "unocc",
				"energy": -0.03521,
				"method": "rhf"
			},
			{
				"type": "unocc",
				"energy": 0.03837,
				"method": "rhf"
			},
			{
				"type": "unocc",
				"energy": 0.0404,
				"method": "rhf"
			},
			{
				"type": "unocc",
				"energy": 0.04422,
				"method": "rhf"
			}
		],
		"cosmo_sigma_profile": { 
			"-0.025": 0.0,
			"-0.024": 0.0,
			"-0.023": 0.0,
			"-0.022": 0.0,
			"-0.021": 0.0,
			"-0.02": 0.0,
			"-0.019": 0.0,
			"-0.018": 0.947220680576,
			"-0.017": 1.44752398234,
			"-0.016": 1.57325644853,
			"-0.015": 0.51930982727,
			"-0.014": 2.80237917833,
			"-0.013": 4.19630958361,
			"-0.012": 4.64707556287,
			"-0.011": 3.49695030443,
			"-0.01": 4.29804074029,
			"-0.009": 6.92714504259,
			"-0.008": 7.15087157252,
			"-0.007": 6.34546839515,
			"-0.006": 6.7310966096,
			"-0.005": 7.50827878157,
			"-0.004": 6.71021984743,
			"-0.003": 7.26213622205,
			"-0.002": 7.82909874331,
			"-0.001": 9.52987944083,
			"0.0": 11.102500046,
			"0.001": 16.4639025105,
			"0.002": 15.3829340371,
			"0.003": 6.49937786505,
			"0.004": 4.68486569289,
			"0.005": 4.87370752714,
			"0.006": 3.92991194242,
			"0.007": 4.33306927851,
			"0.008": 5.41507754578,
			"0.009": 10.2311457477,
			"0.01": 17.8591600716,
			"0.011": 9.65128565983,
			"0.012": 2.68368709904,
			"0.013": 0.0699086750881,
			"0.014": 0.0,
			"0.015": 0.0,
			"0.016": 0.0,
			"0.017": 0.0,
			"0.018": 0.0,
			"0.019": 0.0,
			"0.02": 0.0,
			"0.021": 0.0,
			"0.022": 0.0,
			"0.023": 0.0,
			"0.024": 0.0,
			"0.025": 0.0
		}
	}
}
