{
	 "smiles": "OC1=CC=C(C=C1)C(=O)NC1=CN=CC=C1", 
	 "Tm": 547.15, 
	 "num_atms": 26, 
	 "gaussian": { 
		 "optdone": 1, 
		 "sigma_profile": "yes", 
		 "theory": "DFT", 
		 "functional": "B3LYP", 
		 "basiset": "6-31G**", 
		 "properties": { 
			 "R2extent": 5756.4142, 
			 "electric_dipole_moment_norm": 3.66100857961, 
			 "electric_quadrupole_moment_norm": 14.5633386193, 
			 "total_energy": -723.264934761, 
			 "HOMO_LUMO_gap": 0.18251, 
			 "cosmo_polarized_energy": -18.48, 
			 "cosmo_cavitation_energy": 30.99, 
			 "cosmo_dispersion_energy": -23.02, 
			 "cosmo_repulsion_energy": 1.75, 
			 "cosmo_total_nonelectrostatic_energy": 9.72, 
			 "SMD_solvation_energy": 4.67 
		},
		"coords": [
			{
				"x": -0.743736579,
				"y": -0.9937074864,
				"z": 5.6752782299,
				"element": "O" 
			},
			{
				"x": -0.8881100476,
				"y": -0.4704045119,
				"z": 4.4276672344,
				"element": "C" 
			},
			{
				"x": -1.7692018056,
				"y": 0.5813421257,
				"z": 4.1429349581,
				"element": "C" 
			},
			{
				"x": -1.8673424062,
				"y": 1.0700222263,
				"z": 2.8459361379,
				"element": "C" 
			},
			{
				"x": -1.1070839137,
				"y": 0.5165098088,
				"z": 1.8062811262,
				"element": "C" 
			},
			{
				"x": -0.2164907832,
				"y": -0.5268191103,
				"z": 2.1105905892,
				"element": "C" 
			},
			{
				"x": -0.1041221694,
				"y": -1.0196711307,
				"z": 3.4051268055,
				"element": "C" 
			},
			{
				"x": -1.2806718307,
				"y": 1.1122516771,
				"z": 0.4434687416,
				"element": "C" 
			},
			{
				"x": -1.760192913,
				"y": 2.2310614942,
				"z": 0.2855453161,
				"element": "O" 
			},
			{
				"x": -0.8811967082,
				"y": 0.3090657243,
				"z": -0.6082027831,
				"element": "N" 
			},
			{
				"x": -0.896487834,
				"y": 0.602063837,
				"z": -1.9818641808,
				"element": "C" 
			},
			{
				"x": -0.5006867387,
				"y": -0.4160764835,
				"z": -2.8679594686,
				"element": "C" 
			},
			{
				"x": -0.4558331157,
				"y": -0.2821949411,
				"z": -4.191140677,
				"element": "N" 
			},
			{
				"x": -0.8110303717,
				"y": 0.9032780334,
				"z": -4.7054817371,
				"element": "C" 
			},
			{
				"x": -1.2182458696,
				"y": 1.9773544107,
				"z": -3.9153663763,
				"element": "C" 
			},
			{
				"x": -1.2673915167,
				"y": 1.8384247941,
				"z": -2.5297198973,
				"element": "C" 
			},
			{
				"x": -1.3242987003,
				"y": -0.5252243756,
				"z": 6.2895543766,
				"element": "H" 
			},
			{
				"x": -2.3730140727,
				"y": 1.0149498541,
				"z": 4.937326646,
				"element": "H" 
			},
			{
				"x": -2.5349906166,
				"y": 1.8920180055,
				"z": 2.611854286,
				"element": "H" 
			},
			{
				"x": 0.4340945084,
				"y": -0.9435663701,
				"z": 1.3463115193,
				"element": "H" 
			},
			{
				"x": 0.5901292996,
				"y": -1.8170530303,
				"z": 3.6472468374,
				"element": "H" 
			},
			{
				"x": -0.6297841487,
				"y": -0.6414602629,
				"z": -0.3792434332,
				"element": "H" 
			},
			{
				"x": -0.2058560585,
				"y": -1.3895012713,
				"z": -2.4703273752,
				"element": "H" 
			},
			{
				"x": -0.7674975764,
				"y": 0.9922679181,
				"z": -5.7888748749,
				"element": "H" 
			},
			{
				"x": -1.4982415207,
				"y": 2.9192495847,
				"z": -4.3772558201,
				"element": "H" 
			},
			{
				"x": -1.584316511,
				"y": 2.6427194801,
				"z": -1.8812861807,
				"element": "H" 
			}
		],
		 "valence_orbital": [ 
			{
				"type": "occ",
				"energy": -0.27081,
				"method": "rhf"
			},
			{
				"type": "occ",
				"energy": -0.26687,
				"method": "rhf"
			},
			{
				"type": "occ",
				"energy": -0.24976,
				"method": "rhf"
			},
			{
				"type": "occ",
				"energy": -0.24029,
				"method": "rhf"
			},
			{
				"type": "occ",
				"energy": -0.22617,
				"method": "rhf"
			},
			{
				"type": "unocc",
				"energy": -0.04366,
				"method": "rhf"
			},
			{
				"type": "unocc",
				"energy": -0.02008,
				"method": "rhf"
			},
			{
				"type": "unocc",
				"energy": -0.01819,
				"method": "rhf"
			},
			{
				"type": "unocc",
				"energy": 0.003,
				"method": "rhf"
			},
			{
				"type": "unocc",
				"energy": 0.05641,
				"method": "rhf"
			}
		],
		"cosmo_sigma_profile": { 
			"-0.025": 0.0,
			"-0.024": 0.0,
			"-0.023": 0.0,
			"-0.022": 0.0,
			"-0.021": 0.0,
			"-0.02": 0.0,
			"-0.019": 0.0619158794033,
			"-0.018": 0.992762974173,
			"-0.017": 1.33081936537,
			"-0.016": 1.44607150708,
			"-0.015": 2.01702337291,
			"-0.014": 2.41375848292,
			"-0.013": 1.51699936601,
			"-0.012": 1.95533656801,
			"-0.011": 3.66763718975,
			"-0.01": 2.63055800622,
			"-0.009": 2.67836531074,
			"-0.008": 3.61819566708,
			"-0.007": 6.46349440838,
			"-0.006": 11.636814828,
			"-0.005": 15.2297668816,
			"-0.004": 12.5024184647,
			"-0.003": 10.7944293776,
			"-0.002": 10.3270418333,
			"-0.001": 13.1573815066,
			"0.0": 16.3837666769,
			"0.001": 19.6296666286,
			"0.002": 23.5119107065,
			"0.003": 25.6478018767,
			"0.004": 17.5470475295,
			"0.005": 5.99988985963,
			"0.006": 3.92039776739,
			"0.007": 4.57492950238,
			"0.008": 5.59650153679,
			"0.009": 3.45661979143,
			"0.01": 3.91799623074,
			"0.011": 4.97250273328,
			"0.012": 3.8201000081,
			"0.013": 2.77711597336,
			"0.014": 0.950221336079,
			"0.015": 1.00230386755,
			"0.016": 0.773347481635,
			"0.017": 0.19943368763,
			"0.018": 0.0,
			"0.019": 0.0,
			"0.02": 0.0,
			"0.021": 0.0,
			"0.022": 0.0,
			"0.023": 0.0,
			"0.024": 0.0,
			"0.025": 0.0
		}
	}
}
