{
	 "smiles": "O=C(OC(=O)C(CC1=CC=CC=C1)=CC1=CC=CC=C1)C(CC1=CC=CC=C1)=CC1=CC=CC=C1", 
	 "Tm": 381.15, 
	 "num_atms": 61, 
	 "gaussian": { 
		 "optdone": 1, 
		 "sigma_profile": "yes", 
		 "theory": "DFT", 
		 "functional": "B3LYP", 
		 "basiset": "6-31G**", 
		 "properties": { 
			 "R2extent": 19831.6973, 
			 "electric_dipole_moment_norm": 3.84554720554, 
			 "electric_quadrupole_moment_norm": 30.3117648929, 
			 "total_energy": -1460.74446236, 
			 "HOMO_LUMO_gap": 0.16241, 
			 "cosmo_polarized_energy": -19.1, 
			 "cosmo_cavitation_energy": 66.45, 
			 "cosmo_dispersion_energy": -41.47, 
			 "cosmo_repulsion_energy": 3.17, 
			 "cosmo_total_nonelectrostatic_energy": 28.15, 
			 "SMD_solvation_energy": 12.15 
		},
		"coords": [
			{
				"x": 1.9326626448,
				"y": 1.571871308,
				"z": -1.6165608111,
				"element": "O" 
			},
			{
				"x": 1.5366951823,
				"y": 0.8419030999,
				"z": -0.7430259029,
				"element": "C" 
			},
			{
				"x": 0.18995816,
				"y": 0.5472846542,
				"z": -0.5624237991,
				"element": "O" 
			},
			{
				"x": -0.7992564306,
				"y": 1.4358677394,
				"z": -0.9815965032,
				"element": "C" 
			},
			{
				"x": -0.6217637134,
				"y": 2.6264112254,
				"z": -1.0377472035,
				"element": "O" 
			},
			{
				"x": -2.0703910105,
				"y": 0.7132626847,
				"z": -1.2837002166,
				"element": "C" 
			},
			{
				"x": -2.1371544373,
				"y": -0.7781705697,
				"z": -1.0517420116,
				"element": "C" 
			},
			{
				"x": -1.4697281806,
				"y": -1.6637427405,
				"z": -2.0985284682,
				"element": "C" 
			},
			{
				"x": -1.149386594,
				"y": -2.9891357704,
				"z": -1.7679184517,
				"element": "C" 
			},
			{
				"x": -0.5701520608,
				"y": -3.84288028,
				"z": -2.7051142972,
				"element": "C" 
			},
			{
				"x": -0.2948517125,
				"y": -3.3838154475,
				"z": -3.9959854696,
				"element": "C" 
			},
			{
				"x": -0.605091772,
				"y": -2.0677386475,
				"z": -4.3356202224,
				"element": "C" 
			},
			{
				"x": -1.1885884905,
				"y": -1.214919287,
				"z": -3.3943815428,
				"element": "C" 
			},
			{
				"x": -3.0908754574,
				"y": 1.5035460898,
				"z": -1.6935950466,
				"element": "C" 
			},
			{
				"x": -4.4546925765,
				"y": 1.1493760917,
				"z": -2.1006915724,
				"element": "C" 
			},
			{
				"x": -4.8001390768,
				"y": -0.0609017988,
				"z": -2.7343778215,
				"element": "C" 
			},
			{
				"x": -6.1204168416,
				"y": -0.3197760279,
				"z": -3.0983743201,
				"element": "C" 
			},
			{
				"x": -7.1227410872,
				"y": 0.6177681984,
				"z": -2.8402138838,
				"element": "C" 
			},
			{
				"x": -6.7933930991,
				"y": 1.831502309,
				"z": -2.2320385551,
				"element": "C" 
			},
			{
				"x": -5.4732368987,
				"y": 2.098056785,
				"z": -1.8799380348,
				"element": "C" 
			},
			{
				"x": 2.3858232272,
				"y": 0.0650866555,
				"z": 0.2124538544,
				"element": "C" 
			},
			{
				"x": 1.7207165978,
				"y": -0.689400222,
				"z": 1.3443475047,
				"element": "C" 
			},
			{
				"x": 0.9155647298,
				"y": 0.1822328832,
				"z": 2.3003232311,
				"element": "C" 
			},
			{
				"x": 1.4119102422,
				"y": 1.4120671033,
				"z": 2.7514138054,
				"element": "C" 
			},
			{
				"x": 0.6899060352,
				"y": 2.1803048676,
				"z": 3.6659015968,
				"element": "C" 
			},
			{
				"x": -0.5395652943,
				"y": 1.7288774742,
				"z": 4.1486347094,
				"element": "C" 
			},
			{
				"x": -1.0416995541,
				"y": 0.5027955722,
				"z": 3.7092550494,
				"element": "C" 
			},
			{
				"x": -0.3186960118,
				"y": -0.2609557272,
				"z": 2.791875931,
				"element": "C" 
			},
			{
				"x": 3.7158545781,
				"y": 0.1461741373,
				"z": -0.0217680405,
				"element": "C" 
			},
			{
				"x": 4.8371846835,
				"y": -0.506934456,
				"z": 0.669461957,
				"element": "C" 
			},
			{
				"x": 6.0261678804,
				"y": 0.2259033321,
				"z": 0.8500802571,
				"element": "C" 
			},
			{
				"x": 7.1253055596,
				"y": -0.3368750734,
				"z": 1.4936381877,
				"element": "C" 
			},
			{
				"x": 7.0717651107,
				"y": -1.6578439451,
				"z": 1.9452600189,
				"element": "C" 
			},
			{
				"x": 5.914160245,
				"y": -2.4107321767,
				"z": 1.7403057514,
				"element": "C" 
			},
			{
				"x": 4.8078021788,
				"y": -1.8436762195,
				"z": 1.1089338106,
				"element": "C" 
			},
			{
				"x": -1.6768746889,
				"y": -0.991826365,
				"z": -0.0812577602,
				"element": "H" 
			},
			{
				"x": -3.1897360322,
				"y": -1.067629059,
				"z": -0.9577545974,
				"element": "H" 
			},
			{
				"x": -1.3587102657,
				"y": -3.3537960106,
				"z": -0.7644583121,
				"element": "H" 
			},
			{
				"x": -0.3295443155,
				"y": -4.8655399056,
				"z": -2.4275645392,
				"element": "H" 
			},
			{
				"x": 0.1607474409,
				"y": -4.0457959115,
				"z": -4.7266983114,
				"element": "H" 
			},
			{
				"x": -0.3899621626,
				"y": -1.6969708119,
				"z": -5.3338629504,
				"element": "H" 
			},
			{
				"x": -1.4173187525,
				"y": -0.1891715507,
				"z": -3.66839942,
				"element": "H" 
			},
			{
				"x": -2.8743053105,
				"y": 2.5705951937,
				"z": -1.6914684163,
				"element": "H" 
			},
			{
				"x": -4.0293323107,
				"y": -0.7815788864,
				"z": -2.9838609215,
				"element": "H" 
			},
			{
				"x": -6.3648818464,
				"y": -1.2541900603,
				"z": -3.5953018193,
				"element": "H" 
			},
			{
				"x": -8.1502554444,
				"y": 0.4107042188,
				"z": -3.1248411214,
				"element": "H" 
			},
			{
				"x": -7.5636588677,
				"y": 2.5729331748,
				"z": -2.0406325359,
				"element": "H" 
			},
			{
				"x": -5.2182132689,
				"y": 3.0467756084,
				"z": -1.4152102317,
				"element": "H" 
			},
			{
				"x": 1.065118571,
				"y": -1.4671411922,
				"z": 0.9360919522,
				"element": "H" 
			},
			{
				"x": 2.493557111,
				"y": -1.2040779086,
				"z": 1.9218941846,
				"element": "H" 
			},
			{
				"x": 2.3673000618,
				"y": 1.7724402197,
				"z": 2.380206633,
				"element": "H" 
			},
			{
				"x": 1.0888701931,
				"y": 3.1340274149,
				"z": 3.9998525502,
				"element": "H" 
			},
			{
				"x": -1.1022825346,
				"y": 2.3280616892,
				"z": 4.8586188003,
				"element": "H" 
			},
			{
				"x": -1.9984485662,
				"y": 0.1418445731,
				"z": 4.0766496623,
				"element": "H" 
			},
			{
				"x": -0.7152169519,
				"y": -1.2162616555,
				"z": 2.4551139382,
				"element": "H" 
			},
			{
				"x": 3.9996884042,
				"y": 0.8167796803,
				"z": -0.83159454,
				"element": "H" 
			},
			{
				"x": 6.0750507528,
				"y": 1.2503626839,
				"z": 0.4907333079,
				"element": "H" 
			},
			{
				"x": 8.0270756886,
				"y": 0.2517319793,
				"z": 1.6352751886,
				"element": "H" 
			},
			{
				"x": 7.9312726258,
				"y": -2.1014519219,
				"z": 2.4392066533,
				"element": "H" 
			},
			{
				"x": 5.8745877386,
				"y": -3.4469327019,
				"z": 2.06369478,
				"element": "H" 
			},
			{
				"x": 3.9313159751,
				"y": -2.4534863165,
				"z": 0.9177243359,
				"element": "H" 
			}
		],
		 "valence_orbital": [ 
			{
				"type": "occ",
				"energy": -0.24626,
				"method": "rhf"
			},
			{
				"type": "occ",
				"energy": -0.24281,
				"method": "rhf"
			},
			{
				"type": "occ",
				"energy": -0.2395,
				"method": "rhf"
			},
			{
				"type": "occ",
				"energy": -0.23421,
				"method": "rhf"
			},
			{
				"type": "occ",
				"energy": -0.23265,
				"method": "rhf"
			},
			{
				"type": "unocc",
				"energy": -0.07024,
				"method": "rhf"
			},
			{
				"type": "unocc",
				"energy": -0.05561,
				"method": "rhf"
			},
			{
				"type": "unocc",
				"energy": -0.01117,
				"method": "rhf"
			},
			{
				"type": "unocc",
				"energy": -0.00992,
				"method": "rhf"
			},
			{
				"type": "unocc",
				"energy": -0.00446,
				"method": "rhf"
			}
		],
		"cosmo_sigma_profile": { 
			"-0.025": 0.0,
			"-0.024": 0.0,
			"-0.023": 0.0,
			"-0.022": 0.0,
			"-0.021": 0.0,
			"-0.02": 0.0,
			"-0.019": 0.0,
			"-0.018": 0.0,
			"-0.017": 0.0,
			"-0.016": 0.0,
			"-0.015": 0.0,
			"-0.014": 0.0,
			"-0.013": 0.0,
			"-0.012": 0.0,
			"-0.011": 0.0,
			"-0.01": 0.0,
			"-0.009": 0.0,
			"-0.008": 0.0,
			"-0.007": 3.17812415234,
			"-0.006": 25.1107360737,
			"-0.005": 45.4470136036,
			"-0.004": 53.4621778556,
			"-0.003": 52.4149835238,
			"-0.002": 45.7636982118,
			"-0.001": 43.7511569778,
			"0.0": 39.5169117269,
			"0.001": 39.3765780029,
			"0.002": 36.5862862688,
			"0.003": 34.4259267834,
			"0.004": 39.8135884321,
			"0.005": 29.8500310428,
			"0.006": 15.6429882896,
			"0.007": 3.64117187721,
			"0.008": 2.56992843646,
			"0.009": 3.66551994609,
			"0.01": 5.46968176295,
			"0.011": 7.90826377853,
			"0.012": 3.32147036342,
			"0.013": 1.58773168267,
			"0.014": 0.125790193561,
			"0.015": 0.0,
			"0.016": 0.0,
			"0.017": 0.0,
			"0.018": 0.0,
			"0.019": 0.0,
			"0.02": 0.0,
			"0.021": 0.0,
			"0.022": 0.0,
			"0.023": 0.0,
			"0.024": 0.0,
			"0.025": 0.0
		}
	}
}
