{
	 "smiles": "CNC(=O)NC", 
	 "Tm": 381.15, 
	 "num_atms": 14, 
	 "gaussian": { 
		 "optdone": 1, 
		 "sigma_profile": "yes", 
		 "theory": "DFT", 
		 "functional": "B3LYP", 
		 "basiset": "6-31G**", 
		 "properties": { 
			 "R2extent": 922.2516, 
			 "electric_dipole_moment_norm": 3.87985187604, 
			 "electric_quadrupole_moment_norm": 11.318042135, 
			 "total_energy": -303.886267962, 
			 "HOMO_LUMO_gap": 0.30264, 
			 "cosmo_polarized_energy": -12.8, 
			 "cosmo_cavitation_energy": 17.19, 
			 "cosmo_dispersion_energy": -12.99, 
			 "cosmo_repulsion_energy": 1.15, 
			 "cosmo_total_nonelectrostatic_energy": 5.34, 
			 "SMD_solvation_energy": 3.07 
		},
		"coords": [
			{
				"x": 1.6424493128,
				"y": 0.8886103628,
				"z": -1.2311592579,
				"element": "C" 
			},
			{
				"x": 1.0581328473,
				"y": 0.2042664393,
				"z": -0.0901548479,
				"element": "N" 
			},
			{
				"x": 0.8411938655,
				"y": 0.896199609,
				"z": 1.0848119785,
				"element": "C" 
			},
			{
				"x": 1.2675182583,
				"y": 2.0291478264,
				"z": 1.2866416801,
				"element": "O" 
			},
			{
				"x": 0.1042675151,
				"y": 0.2162687364,
				"z": 2.0425098948,
				"element": "N" 
			},
			{
				"x": -0.0934730621,
				"y": -1.2226518155,
				"z": 2.0715202004,
				"element": "C" 
			},
			{
				"x": 2.3136445868,
				"y": 1.6586771936,
				"z": -0.8510588112,
				"element": "H" 
			},
			{
				"x": 2.2111282012,
				"y": 0.178900304,
				"z": -1.839233897,
				"element": "H" 
			},
			{
				"x": 0.8896461935,
				"y": 1.3752944626,
				"z": -1.8662198929,
				"element": "H" 
			},
			{
				"x": 0.4716143846,
				"y": -0.5929755191,
				"z": -0.2853420234,
				"element": "H" 
			},
			{
				"x": 0.1363425771,
				"y": 0.6975961411,
				"z": 2.9291661431,
				"element": "H" 
			},
			{
				"x": 0.8435872968,
				"y": -1.789963542,
				"z": 1.9834521848,
				"element": "H" 
			},
			{
				"x": -0.5697389557,
				"y": -1.4914040282,
				"z": 3.0166986278,
				"element": "H" 
			},
			{
				"x": -0.7715130211,
				"y": -1.5516661705,
				"z": 1.2729680208,
				"element": "H" 
			}
		],
		 "valence_orbital": [ 
			{
				"type": "occ",
				"energy": -0.37534,
				"method": "rhf"
			},
			{
				"type": "occ",
				"energy": -0.37341,
				"method": "rhf"
			},
			{
				"type": "occ",
				"energy": -0.25153,
				"method": "rhf"
			},
			{
				"type": "occ",
				"energy": -0.24347,
				"method": "rhf"
			},
			{
				"type": "occ",
				"energy": -0.23661,
				"method": "rhf"
			},
			{
				"type": "unocc",
				"energy": 0.06603,
				"method": "rhf"
			},
			{
				"type": "unocc",
				"energy": 0.07056,
				"method": "rhf"
			},
			{
				"type": "unocc",
				"energy": 0.099,
				"method": "rhf"
			},
			{
				"type": "unocc",
				"energy": 0.1259,
				"method": "rhf"
			},
			{
				"type": "unocc",
				"energy": 0.14458,
				"method": "rhf"
			}
		],
		"cosmo_sigma_profile": { 
			"-0.025": 0.0,
			"-0.024": 0.0,
			"-0.023": 0.0,
			"-0.022": 0.0,
			"-0.021": 0.0,
			"-0.02": 0.0,
			"-0.019": 0.0,
			"-0.018": 0.0,
			"-0.017": 0.0,
			"-0.016": 0.0,
			"-0.015": 0.0,
			"-0.014": 0.00753263188668,
			"-0.013": 1.38005086285,
			"-0.012": 2.07488208628,
			"-0.011": 2.1100793363,
			"-0.01": 2.82809328491,
			"-0.009": 1.8585323951,
			"-0.008": 2.39472905658,
			"-0.007": 3.32438557908,
			"-0.006": 4.56307301917,
			"-0.005": 6.70006865777,
			"-0.004": 11.9668391049,
			"-0.003": 14.4486478008,
			"-0.002": 16.5379050484,
			"-0.001": 12.8830552245,
			"0.0": 5.97946691164,
			"0.001": 4.87089884303,
			"0.002": 3.31611634308,
			"0.003": 3.41555362005,
			"0.004": 3.24300799422,
			"0.005": 3.78686788656,
			"0.006": 2.92701749399,
			"0.007": 2.86275903838,
			"0.008": 2.46694603634,
			"0.009": 2.25240633323,
			"0.01": 1.58632347427,
			"0.011": 1.32817717913,
			"0.012": 1.44484946365,
			"0.013": 1.67455421761,
			"0.014": 2.74219526819,
			"0.015": 6.55024652807,
			"0.016": 0.780433457064,
			"0.017": 0.0,
			"0.018": 0.0,
			"0.019": 0.0,
			"0.02": 0.0,
			"0.021": 0.0,
			"0.022": 0.0,
			"0.023": 0.0,
			"0.024": 0.0,
			"0.025": 0.0
		}
	}
}
