{
	 "smiles": "CN1C(C(CC1=O)C(O)=O)C1=CC=CS1", 
	 "Tm": 413.15, 
	 "num_atms": 26, 
	 "gaussian": { 
		 "optdone": 1, 
		 "sigma_profile": "yes", 
		 "theory": "DFT", 
		 "functional": "B3LYP", 
		 "basiset": "6-31G**", 
		 "properties": { 
			 "R2extent": 3537.2081, 
			 "electric_dipole_moment_norm": 4.37625626078, 
			 "electric_quadrupole_moment_norm": 14.2096602486, 
			 "total_energy": -1066.31659947, 
			 "HOMO_LUMO_gap": 0.20991, 
			 "cosmo_polarized_energy": -17.25, 
			 "cosmo_cavitation_energy": 30.94, 
			 "cosmo_dispersion_energy": -21.78, 
			 "cosmo_repulsion_energy": 1.67, 
			 "cosmo_total_nonelectrostatic_energy": 10.82, 
			 "SMD_solvation_energy": 6.71 
		},
		"coords": [
			{
				"x": 2.5907600679,
				"y": -0.8612350639,
				"z": -1.8726239502,
				"element": "C" 
			},
			{
				"x": 1.2299668144,
				"y": -1.0844713426,
				"z": -1.4207101861,
				"element": "N" 
			},
			{
				"x": 0.9237505587,
				"y": -1.407871902,
				"z": -0.0321163316,
				"element": "C" 
			},
			{
				"x": -0.650311948,
				"y": -1.5954135385,
				"z": -0.0408968848,
				"element": "C" 
			},
			{
				"x": -0.9944572952,
				"y": -1.8386921417,
				"z": -1.5192745831,
				"element": "C" 
			},
			{
				"x": 0.2253459378,
				"y": -1.3860272275,
				"z": -2.3126717929,
				"element": "C" 
			},
			{
				"x": 0.3171818199,
				"y": -1.3270092549,
				"z": -3.526785444,
				"element": "O" 
			},
			{
				"x": -1.3659730172,
				"y": -0.3689417728,
				"z": 0.4975352422,
				"element": "C" 
			},
			{
				"x": -1.6240545506,
				"y": -0.4858207085,
				"z": 1.8187406174,
				"element": "O" 
			},
			{
				"x": -1.680527872,
				"y": 0.604770206,
				"z": -0.1512668983,
				"element": "O" 
			},
			{
				"x": 1.459602489,
				"y": -0.3828251326,
				"z": 0.9358914801,
				"element": "C" 
			},
			{
				"x": 1.4661280973,
				"y": 0.9850038291,
				"z": 0.822795514,
				"element": "C" 
			},
			{
				"x": 2.0379641388,
				"y": 1.6385252148,
				"z": 1.9557527346,
				"element": "C" 
			},
			{
				"x": 2.4595819091,
				"y": 0.7623058312,
				"z": 2.9178413761,
				"element": "C" 
			},
			{
				"x": 2.1690511947,
				"y": -0.8806396063,
				"z": 2.4499259071,
				"element": "S" 
			},
			{
				"x": 3.0176151242,
				"y": 0.0299671363,
				"z": -1.4056791621,
				"element": "H" 
			},
			{
				"x": 2.5519227711,
				"y": -0.7317470737,
				"z": -2.9551483144,
				"element": "H" 
			},
			{
				"x": 3.2323678159,
				"y": -1.7209003149,
				"z": -1.6356639673,
				"element": "H" 
			},
			{
				"x": 1.3667742438,
				"y": -2.3830624451,
				"z": 0.2272686863,
				"element": "H" 
			},
			{
				"x": -0.9040096629,
				"y": -2.438400675,
				"z": 0.6040032038,
				"element": "H" 
			},
			{
				"x": -1.1630503946,
				"y": -2.8993985369,
				"z": -1.7312482713,
				"element": "H" 
			},
			{
				"x": -1.873838233,
				"y": -1.2831884603,
				"z": -1.8492812225,
				"element": "H" 
			},
			{
				"x": -2.0378895372,
				"y": 0.3503637202,
				"z": 2.0928274885,
				"element": "H" 
			},
			{
				"x": 1.0644207534,
				"y": 1.5021422438,
				"z": -0.0407472762,
				"element": "H" 
			},
			{
				"x": 2.1335076316,
				"y": 2.7146638973,
				"z": 2.0460736267,
				"element": "H" 
			},
			{
				"x": 2.9266711433,
				"y": 0.9794031188,
				"z": 3.8683584079,
				"element": "H" 
			}
		],
		 "valence_orbital": [ 
			{
				"type": "occ",
				"energy": -0.28377,
				"method": "rhf"
			},
			{
				"type": "occ",
				"energy": -0.25956,
				"method": "rhf"
			},
			{
				"type": "occ",
				"energy": -0.25106,
				"method": "rhf"
			},
			{
				"type": "occ",
				"energy": -0.24883,
				"method": "rhf"
			},
			{
				"type": "occ",
				"energy": -0.2344,
				"method": "rhf"
			},
			{
				"type": "unocc",
				"energy": -0.02449,
				"method": "rhf"
			},
			{
				"type": "unocc",
				"energy": -0.00597,
				"method": "rhf"
			},
			{
				"type": "unocc",
				"energy": 0.0143,
				"method": "rhf"
			},
			{
				"type": "unocc",
				"energy": 0.03222,
				"method": "rhf"
			},
			{
				"type": "unocc",
				"energy": 0.05261,
				"method": "rhf"
			}
		],
		"cosmo_sigma_profile": { 
			"-0.025": 0.0,
			"-0.024": 0.0,
			"-0.023": 0.0,
			"-0.022": 0.0,
			"-0.021": 0.0,
			"-0.02": 0.0,
			"-0.019": 0.0892460633266,
			"-0.018": 1.05102500625,
			"-0.017": 0.680600813127,
			"-0.016": 1.1066335698,
			"-0.015": 0.597009325502,
			"-0.014": 0.340672506254,
			"-0.013": 0.861331592562,
			"-0.012": 0.520655440229,
			"-0.011": 0.706006989708,
			"-0.01": 0.728072080134,
			"-0.009": 0.907689754057,
			"-0.008": 3.63296786,
			"-0.007": 14.0291888156,
			"-0.006": 15.993088771,
			"-0.005": 16.6174629242,
			"-0.004": 18.5048296583,
			"-0.003": 18.3715344461,
			"-0.002": 19.4597302826,
			"-0.001": 13.4558349411,
			"0.0": 11.4420557211,
			"0.001": 14.214711208,
			"0.002": 14.2747235582,
			"0.003": 14.3940225073,
			"0.004": 14.3326840709,
			"0.005": 10.9527485873,
			"0.006": 5.67010689395,
			"0.007": 3.89038396261,
			"0.008": 5.50071309681,
			"0.009": 2.97105112705,
			"0.01": 2.31678747147,
			"0.011": 5.54781038327,
			"0.012": 4.8139884219,
			"0.013": 4.93461491727,
			"0.014": 3.54877041933,
			"0.015": 0.563719366742,
			"0.016": 0.0,
			"0.017": 0.0,
			"0.018": 0.0,
			"0.019": 0.0,
			"0.02": 0.0,
			"0.021": 0.0,
			"0.022": 0.0,
			"0.023": 0.0,
			"0.024": 0.0,
			"0.025": 0.0
		}
	}
}
