{
	 "smiles": "CC1=NN(CC2=CC=C(Cl)C=C2)C(O)=C1C=O", 
	 "Tm": 453.15, 
	 "num_atms": 28, 
	 "gaussian": { 
		 "optdone": 1, 
		 "sigma_profile": "yes", 
		 "theory": "DFT", 
		 "functional": "B3LYP", 
		 "basiset": "6-31G**", 
		 "properties": { 
			 "R2extent": 6339.5843, 
			 "electric_dipole_moment_norm": 3.54447048373, 
			 "electric_quadrupole_moment_norm": 18.5702747909, 
			 "total_energy": -1184.02700695, 
			 "HOMO_LUMO_gap": 0.2063, 
			 "cosmo_polarized_energy": -17.4, 
			 "cosmo_cavitation_energy": 35.11, 
			 "cosmo_dispersion_energy": -24.69, 
			 "cosmo_repulsion_energy": 1.93, 
			 "cosmo_total_nonelectrostatic_energy": 12.35, 
			 "SMD_solvation_energy": 6.16 
		},
		"coords": [
			{
				"x": 0.4019977658,
				"y": 3.8645987353,
				"z": -0.9744464755,
				"element": "C" 
			},
			{
				"x": 0.6652905064,
				"y": 2.4650494668,
				"z": -0.5224071994,
				"element": "C" 
			},
			{
				"x": 0.3091305395,
				"y": 1.4260331685,
				"z": -1.259203204,
				"element": "N" 
			},
			{
				"x": 0.7137280743,
				"y": 0.3123438963,
				"z": -0.5510632338,
				"element": "N" 
			},
			{
				"x": 0.4041880952,
				"y": -1.024727059,
				"z": -1.0450011261,
				"element": "C" 
			},
			{
				"x": -0.9583355288,
				"y": -1.5325867551,
				"z": -0.6091963984,
				"element": "C" 
			},
			{
				"x": -2.1217915449,
				"y": -0.8347013658,
				"z": -0.9609241488,
				"element": "C" 
			},
			{
				"x": -3.3762482112,
				"y": -1.3018735319,
				"z": -0.5754034404,
				"element": "C" 
			},
			{
				"x": -3.4653446242,
				"y": -2.4822424534,
				"z": 0.1647323385,
				"element": "C" 
			},
			{
				"x": -5.0457572281,
				"y": -3.0797063188,
				"z": 0.6499342658,
				"element": "Cl" 
			},
			{
				"x": -2.3236322557,
				"y": -3.1935773884,
				"z": 0.5261790631,
				"element": "C" 
			},
			{
				"x": -1.073536067,
				"y": -2.708561543,
				"z": 0.1371943527,
				"element": "C" 
			},
			{
				"x": 1.2970801896,
				"y": 0.6520896211,
				"z": 0.6106631659,
				"element": "C" 
			},
			{
				"x": 1.7437369267,
				"y": -0.318594999,
				"z": 1.4295345327,
				"element": "O" 
			},
			{
				"x": 1.3077304922,
				"y": 2.0504196524,
				"z": 0.6914335917,
				"element": "C" 
			},
			{
				"x": 1.8553361904,
				"y": 2.8496042821,
				"z": 1.7608826113,
				"element": "C" 
			},
			{
				"x": 1.8599928568,
				"y": 4.0701776432,
				"z": 1.8141278252,
				"element": "O" 
			},
			{
				"x": -0.1019444247,
				"y": 3.8520339647,
				"z": -1.9432452124,
				"element": "H" 
			},
			{
				"x": -0.2188708059,
				"y": 4.3980234838,
				"z": -0.2482696198,
				"element": "H" 
			},
			{
				"x": 1.3355433414,
				"y": 4.4292691441,
				"z": -1.0579868363,
				"element": "H" 
			},
			{
				"x": 0.4673061533,
				"y": -0.958966459,
				"z": -2.1345618153,
				"element": "H" 
			},
			{
				"x": 1.1909156919,
				"y": -1.6984291578,
				"z": -0.6975326883,
				"element": "H" 
			},
			{
				"x": -2.0391589275,
				"y": 0.0865631378,
				"z": -1.5300296444,
				"element": "H" 
			},
			{
				"x": -4.2765782643,
				"y": -0.7615214751,
				"z": -0.846147986,
				"element": "H" 
			},
			{
				"x": -2.410219665,
				"y": -4.1066881106,
				"z": 1.1044870126,
				"element": "H" 
			},
			{
				"x": -0.1798261455,
				"y": -3.2570532526,
				"z": 0.4230790636,
				"element": "H" 
			},
			{
				"x": 2.1518185449,
				"y": 0.0842269814,
				"z": 2.2081912935,
				"element": "H" 
			},
			{
				"x": 2.3074483243,
				"y": 2.2583966918,
				"z": 2.599679912,
				"element": "H" 
			}
		],
		 "valence_orbital": [ 
			{
				"type": "occ",
				"energy": -0.2699,
				"method": "rhf"
			},
			{
				"type": "occ",
				"energy": -0.25887,
				"method": "rhf"
			},
			{
				"type": "occ",
				"energy": -0.25061,
				"method": "rhf"
			},
			{
				"type": "occ",
				"energy": -0.24828,
				"method": "rhf"
			},
			{
				"type": "occ",
				"energy": -0.24278,
				"method": "rhf"
			},
			{
				"type": "unocc",
				"energy": -0.03648,
				"method": "rhf"
			},
			{
				"type": "unocc",
				"energy": -0.02519,
				"method": "rhf"
			},
			{
				"type": "unocc",
				"energy": -0.01973,
				"method": "rhf"
			},
			{
				"type": "unocc",
				"energy": 0.01966,
				"method": "rhf"
			},
			{
				"type": "unocc",
				"energy": 0.0257,
				"method": "rhf"
			}
		],
		"cosmo_sigma_profile": { 
			"-0.025": 0.0,
			"-0.024": 0.0,
			"-0.023": 0.0,
			"-0.022": 0.0,
			"-0.021": 0.0,
			"-0.02": 0.205995719044,
			"-0.019": 0.873780672068,
			"-0.018": 1.1118619441,
			"-0.017": 1.56002982163,
			"-0.016": 1.47470930077,
			"-0.015": 0.732716094372,
			"-0.014": 0.946588925425,
			"-0.013": 1.19573513931,
			"-0.012": 1.48884191128,
			"-0.011": 1.03841140571,
			"-0.01": 0.563224565694,
			"-0.009": 1.82519741397,
			"-0.008": 2.43454132915,
			"-0.007": 10.121065059,
			"-0.006": 11.2812362294,
			"-0.005": 14.2673613377,
			"-0.004": 17.0151707518,
			"-0.003": 15.6990389949,
			"-0.002": 17.7083494078,
			"-0.001": 21.3593714849,
			"0.0": 22.4888163615,
			"0.001": 24.6373051495,
			"0.002": 25.4446747646,
			"0.003": 25.9556972622,
			"0.004": 19.1256632541,
			"0.005": 11.539272874,
			"0.006": 5.75511887353,
			"0.007": 3.5090526971,
			"0.008": 3.05594057394,
			"0.009": 2.57853859587,
			"0.01": 2.68427816969,
			"0.011": 3.43003403608,
			"0.012": 4.13309124177,
			"0.013": 3.81094297478,
			"0.014": 1.66774584002,
			"0.015": 0.0318544433636,
			"0.016": 0.0,
			"0.017": 0.0,
			"0.018": 0.0,
			"0.019": 0.0,
			"0.02": 0.0,
			"0.021": 0.0,
			"0.022": 0.0,
			"0.023": 0.0,
			"0.024": 0.0,
			"0.025": 0.0
		}
	}
}
