{
	 "smiles": "CNC1=C(C=CC(=C1)C(=O)OC)[N+]([O-])=O", 
	 "Tm": 411.15, 
	 "num_atms": 25, 
	 "gaussian": { 
		 "optdone": 1, 
		 "sigma_profile": "yes", 
		 "theory": "DFT", 
		 "functional": "B3LYP", 
		 "basiset": "6-31G**", 
		 "properties": { 
			 "R2extent": 4659.3644, 
			 "electric_dipole_moment_norm": 5.47606205407, 
			 "electric_quadrupole_moment_norm": 10.9213123424, 
			 "total_energy": -759.282578673, 
			 "HOMO_LUMO_gap": 0.13706, 
			 "cosmo_polarized_energy": -15.09, 
			 "cosmo_cavitation_energy": 29.91, 
			 "cosmo_dispersion_energy": -21.8, 
			 "cosmo_repulsion_energy": 1.7, 
			 "cosmo_total_nonelectrostatic_energy": 9.81, 
			 "SMD_solvation_energy": 8.4 
		},
		"coords": [
			{
				"x": 0.4132345715,
				"y": 3.2889867264,
				"z": 0.0447574966,
				"element": "C" 
			},
			{
				"x": -0.6076992588,
				"y": 2.2591551762,
				"z": -0.0996201154,
				"element": "N" 
			},
			{
				"x": -0.7518289759,
				"y": 1.136951688,
				"z": 0.6786152531,
				"element": "C" 
			},
			{
				"x": -0.3779246707,
				"y": 1.0016859301,
				"z": 2.040603082,
				"element": "C" 
			},
			{
				"x": -0.4433832872,
				"y": -0.2354422085,
				"z": 2.7014356788,
				"element": "C" 
			},
			{
				"x": -0.9532088973,
				"y": -1.3517645313,
				"z": 2.0692915215,
				"element": "C" 
			},
			{
				"x": -1.4029783435,
				"y": -1.2303953034,
				"z": 0.7416205769,
				"element": "C" 
			},
			{
				"x": -1.2935896625,
				"y": -0.0219416633,
				"z": 0.068825919,
				"element": "C" 
			},
			{
				"x": -1.9706652015,
				"y": -2.4473680669,
				"z": 0.0849750158,
				"element": "C" 
			},
			{
				"x": -2.0649542956,
				"y": -3.5306666021,
				"z": 0.6258375133,
				"element": "O" 
			},
			{
				"x": -2.3733824868,
				"y": -2.2146326412,
				"z": -1.1840006029,
				"element": "O" 
			},
			{
				"x": -2.9327981033,
				"y": -3.3496893067,
				"z": -1.8652279635,
				"element": "C" 
			},
			{
				"x": -0.0165743408,
				"y": 2.1425623361,
				"z": 2.8778677657,
				"element": "N" 
			},
			{
				"x": 0.7538131987,
				"y": 1.9460223311,
				"z": 3.8204668078,
				"element": "O" 
			},
			{
				"x": -0.5553584164,
				"y": 3.226952887,
				"z": 2.635425187,
				"element": "O" 
			},
			{
				"x": 1.3342238512,
				"y": 2.874538486,
				"z": 0.4726463641,
				"element": "H" 
			},
			{
				"x": 0.0832279907,
				"y": 4.1108752332,
				"z": 0.6837053311,
				"element": "H" 
			},
			{
				"x": 0.6476437856,
				"y": 3.6763556649,
				"z": -0.9497709511,
				"element": "H" 
			},
			{
				"x": -0.9298668149,
				"y": 2.1218883955,
				"z": -1.0455140821,
				"element": "H" 
			},
			{
				"x": -0.1109203156,
				"y": -0.2713425164,
				"z": 3.7315760933,
				"element": "H" 
			},
			{
				"x": -1.0315562266,
				"y": -2.3071241716,
				"z": 2.5732052246,
				"element": "H" 
			},
			{
				"x": -1.6091432765,
				"y": 0.0361607838,
				"z": -0.9677732035,
				"element": "H" 
			},
			{
				"x": -3.8154298719,
				"y": -3.7175250378,
				"z": -1.3364351557,
				"element": "H" 
			},
			{
				"x": -2.199647656,
				"y": -4.1572786521,
				"z": -1.9312756371,
				"element": "H" 
			},
			{
				"x": -3.201733296,
				"y": -2.9926649368,
				"z": -2.8591371194,
				"element": "H" 
			}
		],
		 "valence_orbital": [ 
			{
				"type": "occ",
				"energy": -0.29868,
				"method": "rhf"
			},
			{
				"type": "occ",
				"energy": -0.29303,
				"method": "rhf"
			},
			{
				"type": "occ",
				"energy": -0.28494,
				"method": "rhf"
			},
			{
				"type": "occ",
				"energy": -0.27061,
				"method": "rhf"
			},
			{
				"type": "occ",
				"energy": -0.22287,
				"method": "rhf"
			},
			{
				"type": "unocc",
				"energy": -0.08581,
				"method": "rhf"
			},
			{
				"type": "unocc",
				"energy": -0.03543,
				"method": "rhf"
			},
			{
				"type": "unocc",
				"energy": -0.01332,
				"method": "rhf"
			},
			{
				"type": "unocc",
				"energy": 0.0502,
				"method": "rhf"
			},
			{
				"type": "unocc",
				"energy": 0.06072,
				"method": "rhf"
			}
		],
		"cosmo_sigma_profile": { 
			"-0.025": 0.0,
			"-0.024": 0.0,
			"-0.023": 0.0,
			"-0.022": 0.0,
			"-0.021": 0.0,
			"-0.02": 0.0,
			"-0.019": 0.0,
			"-0.018": 0.0,
			"-0.017": 0.0,
			"-0.016": 0.0,
			"-0.015": 0.508729872203,
			"-0.014": 1.80863224843,
			"-0.013": 1.63484557485,
			"-0.012": 1.76188091479,
			"-0.011": 1.23985844193,
			"-0.01": 1.52300744464,
			"-0.009": 1.36207214005,
			"-0.008": 1.97895678376,
			"-0.007": 5.09191492407,
			"-0.006": 13.4108082611,
			"-0.005": 17.0395395583,
			"-0.004": 18.2132276941,
			"-0.003": 21.8648492488,
			"-0.002": 18.2934860191,
			"-0.001": 14.5221155889,
			"0.0": 17.1326137644,
			"0.001": 18.5515167596,
			"0.002": 14.9754591402,
			"0.003": 9.22115427805,
			"0.004": 7.53967440496,
			"0.005": 5.93084508362,
			"0.006": 5.05749955014,
			"0.007": 6.54707325623,
			"0.008": 11.1978212983,
			"0.009": 8.08703864348,
			"0.01": 6.41422621943,
			"0.011": 5.0816424573,
			"0.012": 2.2562820693,
			"0.013": 0.0,
			"0.014": 0.0,
			"0.015": 0.0,
			"0.016": 0.0,
			"0.017": 0.0,
			"0.018": 0.0,
			"0.019": 0.0,
			"0.02": 0.0,
			"0.021": 0.0,
			"0.022": 0.0,
			"0.023": 0.0,
			"0.024": 0.0,
			"0.025": 0.0
		}
	}
}
