{
	 "smiles": "O=C(NC1=C(C=CC2=CC=CC=C2)C=CC=C1)C1=CC=CC=C1", 
	 "Tm": 441.15, 
	 "num_atms": 40, 
	 "gaussian": { 
		 "optdone": 1, 
		 "sigma_profile": "yes", 
		 "theory": "DFT", 
		 "functional": "B3LYP", 
		 "basiset": "6-31G**", 
		 "properties": { 
			 "R2extent": 7544.4247, 
			 "electric_dipole_moment_norm": 3.30211300533, 
			 "electric_quadrupole_moment_norm": 14.9049283866, 
			 "total_energy": -940.461946626, 
			 "HOMO_LUMO_gap": 0.15319, 
			 "cosmo_polarized_energy": -14.6, 
			 "cosmo_cavitation_energy": 44.36, 
			 "cosmo_dispersion_energy": -29.27, 
			 "cosmo_repulsion_energy": 2.25, 
			 "cosmo_total_nonelectrostatic_energy": 17.34, 
			 "SMD_solvation_energy": 7.95 
		},
		"coords": [
			{
				"x": -2.4266665455,
				"y": 2.0168251607,
				"z": 1.5775980478,
				"element": "O" 
			},
			{
				"x": -1.4362347831,
				"y": 1.343744896,
				"z": 1.8460178383,
				"element": "C" 
			},
			{
				"x": -0.2373955516,
				"y": 1.9811993225,
				"z": 2.1233116963,
				"element": "N" 
			},
			{
				"x": 1.1046939992,
				"y": 1.4962254089,
				"z": 2.1094436476,
				"element": "C" 
			},
			{
				"x": 1.65803196,
				"y": 0.8675308127,
				"z": 0.9660640068,
				"element": "C" 
			},
			{
				"x": 0.872911408,
				"y": 0.719848488,
				"z": -0.2638662443,
				"element": "C" 
			},
			{
				"x": 1.1071578258,
				"y": -0.1764162435,
				"z": -1.2436287169,
				"element": "C" 
			},
			{
				"x": 0.3670335621,
				"y": -0.3240929665,
				"z": -2.500516197,
				"element": "C" 
			},
			{
				"x": 0.7276050506,
				"y": -1.3639318275,
				"z": -3.3778664426,
				"element": "C" 
			},
			{
				"x": 0.0596488982,
				"y": -1.5567952576,
				"z": -4.5856444347,
				"element": "C" 
			},
			{
				"x": -0.9893722653,
				"y": -0.7105461243,
				"z": -4.9466940938,
				"element": "C" 
			},
			{
				"x": -1.3609557748,
				"y": 0.32903686,
				"z": -4.0878454719,
				"element": "C" 
			},
			{
				"x": -0.6930081407,
				"y": 0.5222580508,
				"z": -2.8829262878,
				"element": "C" 
			},
			{
				"x": 2.9987663309,
				"y": 0.4415367373,
				"z": 1.0464421544,
				"element": "C" 
			},
			{
				"x": 3.7661595782,
				"y": 0.6414431346,
				"z": 2.1884444677,
				"element": "C" 
			},
			{
				"x": 3.2143914976,
				"y": 1.291278855,
				"z": 3.295785134,
				"element": "C" 
			},
			{
				"x": 1.8874996635,
				"y": 1.7108302838,
				"z": 3.2501760616,
				"element": "C" 
			},
			{
				"x": -1.5142682739,
				"y": -0.1524439662,
				"z": 1.9253249133,
				"element": "C" 
			},
			{
				"x": -0.7340984993,
				"y": -0.9274644391,
				"z": 2.7949154634,
				"element": "C" 
			},
			{
				"x": -0.9255560937,
				"y": -2.3076574624,
				"z": 2.8652641094,
				"element": "C" 
			},
			{
				"x": -1.8880635163,
				"y": -2.9254500901,
				"z": 2.0650362708,
				"element": "C" 
			},
			{
				"x": -2.6755777204,
				"y": -2.1563987569,
				"z": 1.2041087171,
				"element": "C" 
			},
			{
				"x": -2.4980748791,
				"y": -0.7769298614,
				"z": 1.1446682515,
				"element": "C" 
			},
			{
				"x": -0.360261268,
				"y": 2.9867034615,
				"z": 2.1639917855,
				"element": "H" 
			},
			{
				"x": 0.036323158,
				"y": 1.40551024,
				"z": -0.3637094307,
				"element": "H" 
			},
			{
				"x": 1.9132796412,
				"y": -0.8962642327,
				"z": -1.1090561763,
				"element": "H" 
			},
			{
				"x": 1.5431827045,
				"y": -2.0278112658,
				"z": -3.1015564914,
				"element": "H" 
			},
			{
				"x": 0.3585580748,
				"y": -2.36764231,
				"z": -5.2439456474,
				"element": "H" 
			},
			{
				"x": -1.5129019871,
				"y": -0.8564338056,
				"z": -5.887009971,
				"element": "H" 
			},
			{
				"x": -2.1756150204,
				"y": 0.9937742674,
				"z": -4.3611280083,
				"element": "H" 
			},
			{
				"x": -0.997677888,
				"y": 1.3381256083,
				"z": -2.2349412886,
				"element": "H" 
			},
			{
				"x": 3.4549205906,
				"y": -0.0158162997,
				"z": 0.1743230873,
				"element": "H" 
			},
			{
				"x": 4.8002985825,
				"y": 0.3103373824,
				"z": 2.2077875746,
				"element": "H" 
			},
			{
				"x": 3.8098622339,
				"y": 1.4660421003,
				"z": 4.1867146208,
				"element": "H" 
			},
			{
				"x": 1.4316459302,
				"y": 2.1997383368,
				"z": 4.1063901653,
				"element": "H" 
			},
			{
				"x": 0.0107614989,
				"y": -0.4578777225,
				"z": 3.426690108,
				"element": "H" 
			},
			{
				"x": -0.3234609511,
				"y": -2.8996443364,
				"z": 3.5485265124,
				"element": "H" 
			},
			{
				"x": -2.0293534511,
				"y": -4.0013920192,
				"z": 2.117117754,
				"element": "H" 
			},
			{
				"x": -3.4310803753,
				"y": -2.6317989362,
				"z": 0.5853986228,
				"element": "H" 
			},
			{
				"x": -3.1171092039,
				"y": -0.159781483,
				"z": 0.5025938921,
				"element": "H" 
			}
		],
		 "valence_orbital": [ 
			{
				"type": "occ",
				"energy": -0.25218,
				"method": "rhf"
			},
			{
				"type": "occ",
				"energy": -0.25081,
				"method": "rhf"
			},
			{
				"type": "occ",
				"energy": -0.24207,
				"method": "rhf"
			},
			{
				"type": "occ",
				"energy": -0.24009,
				"method": "rhf"
			},
			{
				"type": "occ",
				"energy": -0.20773,
				"method": "rhf"
			},
			{
				"type": "unocc",
				"energy": -0.05454,
				"method": "rhf"
			},
			{
				"type": "unocc",
				"energy": -0.03427,
				"method": "rhf"
			},
			{
				"type": "unocc",
				"energy": -0.01242,
				"method": "rhf"
			},
			{
				"type": "unocc",
				"energy": -0.00114,
				"method": "rhf"
			},
			{
				"type": "unocc",
				"energy": 0.00243,
				"method": "rhf"
			}
		],
		"cosmo_sigma_profile": { 
			"-0.025": 0.0,
			"-0.024": 0.0,
			"-0.023": 0.0,
			"-0.022": 0.0,
			"-0.021": 0.0,
			"-0.02": 0.0,
			"-0.019": 0.0,
			"-0.018": 0.0,
			"-0.017": 0.0,
			"-0.016": 0.0,
			"-0.015": 0.0256250073645,
			"-0.014": 0.678425167087,
			"-0.013": 0.891762904916,
			"-0.012": 0.964920214846,
			"-0.011": 1.1830956084,
			"-0.01": 0.41504955467,
			"-0.009": 1.11506262405,
			"-0.008": 1.17126267677,
			"-0.007": 3.91417980033,
			"-0.006": 23.5839650948,
			"-0.005": 30.4927436238,
			"-0.004": 34.2655022479,
			"-0.003": 28.3173394749,
			"-0.002": 23.841861583,
			"-0.001": 20.9882055491,
			"0.0": 20.7220322959,
			"0.001": 22.2866447092,
			"0.002": 24.006673672,
			"0.003": 28.6003566391,
			"0.004": 35.7471861693,
			"0.005": 27.2448979009,
			"0.006": 8.33901148737,
			"0.007": 1.41539543971,
			"0.008": 1.50411239177,
			"0.009": 1.10097282978,
			"0.01": 0.955987810893,
			"0.011": 1.80819154989,
			"0.012": 2.49253487086,
			"0.013": 4.6330808564,
			"0.014": 3.08452256206,
			"0.015": 0.0363454769214,
			"0.016": 0.0,
			"0.017": 0.0,
			"0.018": 0.0,
			"0.019": 0.0,
			"0.02": 0.0,
			"0.021": 0.0,
			"0.022": 0.0,
			"0.023": 0.0,
			"0.024": 0.0,
			"0.025": 0.0
		}
	}
}
