{
	 "smiles": "FC1=CC=CC=C1C1=C(F)C=CC=C1", 
	 "Tm": 386.15, 
	 "num_atms": 22, 
	 "gaussian": { 
		 "optdone": 1, 
		 "sigma_profile": "yes", 
		 "theory": "DFT", 
		 "functional": "B3LYP", 
		 "basiset": "6-31G**", 
		 "properties": { 
			 "R2extent": 3258.4887, 
			 "electric_dipole_moment_norm": 1.81579487002, 
			 "electric_quadrupole_moment_norm": 10.5204697923, 
			 "total_energy": -661.772294342, 
			 "HOMO_LUMO_gap": 0.20076, 
			 "cosmo_polarized_energy": -5.71, 
			 "cosmo_cavitation_energy": 26.85, 
			 "cosmo_dispersion_energy": -19.45, 
			 "cosmo_repulsion_energy": 1.48, 
			 "cosmo_total_nonelectrostatic_energy": 8.89, 
			 "SMD_solvation_energy": 5.27 
		},
		"coords": [
			{
				"x": 0.5839488596,
				"y": -1.361024084,
				"z": -2.9048372663,
				"element": "F" 
			},
			{
				"x": 0.9399937876,
				"y": -1.6490033558,
				"z": -1.6361948285,
				"element": "C" 
			},
			{
				"x": 2.0183923803,
				"y": -2.5012372457,
				"z": -1.4351115155,
				"element": "C" 
			},
			{
				"x": 2.425785852,
				"y": -2.7835779327,
				"z": -0.1311034917,
				"element": "C" 
			},
			{
				"x": 1.7527541487,
				"y": -2.2087113991,
				"z": 0.9485148205,
				"element": "C" 
			},
			{
				"x": 0.6703395172,
				"y": -1.3596076583,
				"z": 0.7206178307,
				"element": "C" 
			},
			{
				"x": 0.2320911841,
				"y": -1.0615334213,
				"z": -0.5799407483,
				"element": "C" 
			},
			{
				"x": -0.9034375152,
				"y": -0.135535146,
				"z": -0.8128965809,
				"element": "C" 
			},
			{
				"x": -1.9789993206,
				"y": -0.4738153455,
				"z": -1.643945671,
				"element": "C" 
			},
			{
				"x": -1.9875243488,
				"y": -1.6799862562,
				"z": -2.2474314157,
				"element": "F" 
			},
			{
				"x": -3.0596087818,
				"y": 0.3730358121,
				"z": -1.8556043618,
				"element": "C" 
			},
			{
				"x": -3.0877756714,
				"y": 1.6104532081,
				"z": -1.2120800612,
				"element": "C" 
			},
			{
				"x": -2.0397775235,
				"y": 1.9797363258,
				"z": -0.3668847511,
				"element": "C" 
			},
			{
				"x": -0.9640093213,
				"y": 1.1136691767,
				"z": -0.1740154875,
				"element": "C" 
			},
			{
				"x": 2.5242668482,
				"y": -2.9203012197,
				"z": -2.2982274449,
				"element": "H" 
			},
			{
				"x": 3.2668748979,
				"y": -3.4493338629,
				"z": 0.0371073854,
				"element": "H" 
			},
			{
				"x": 2.0633705448,
				"y": -2.4268771091,
				"z": 1.9655461202,
				"element": "H" 
			},
			{
				"x": 0.1334045436,
				"y": -0.926571344,
				"z": 1.5594369161,
				"element": "H" 
			},
			{
				"x": -3.8610897182,
				"y": 0.0477286013,
				"z": -2.5100491143,
				"element": "H" 
			},
			{
				"x": -3.9272883379,
				"y": 2.2803424668,
				"z": -1.3715293362,
				"element": "H" 
			},
			{
				"x": -2.054768014,
				"y": 2.9424890037,
				"z": 0.1344255893,
				"element": "H" 
			},
			{
				"x": -0.1386440113,
				"y": 1.406960786,
				"z": 0.4680034128,
				"element": "H" 
			}
		],
		 "valence_orbital": [ 
			{
				"type": "occ",
				"energy": -0.3398,
				"method": "rhf"
			},
			{
				"type": "occ",
				"energy": -0.27701,
				"method": "rhf"
			},
			{
				"type": "occ",
				"energy": -0.25223,
				"method": "rhf"
			},
			{
				"type": "occ",
				"energy": -0.24619,
				"method": "rhf"
			},
			{
				"type": "occ",
				"energy": -0.23115,
				"method": "rhf"
			},
			{
				"type": "unocc",
				"energy": -0.03039,
				"method": "rhf"
			},
			{
				"type": "unocc",
				"energy": -0.00472,
				"method": "rhf"
			},
			{
				"type": "unocc",
				"energy": 0.0011,
				"method": "rhf"
			},
			{
				"type": "unocc",
				"energy": 0.01594,
				"method": "rhf"
			},
			{
				"type": "unocc",
				"energy": 0.08494,
				"method": "rhf"
			}
		],
		"cosmo_sigma_profile": { 
			"-0.025": 0.0,
			"-0.024": 0.0,
			"-0.023": 0.0,
			"-0.022": 0.0,
			"-0.021": 0.0,
			"-0.02": 0.0,
			"-0.019": 0.0,
			"-0.018": 0.0,
			"-0.017": 0.0,
			"-0.016": 0.0,
			"-0.015": 0.0,
			"-0.014": 0.0,
			"-0.013": 0.0,
			"-0.012": 0.0,
			"-0.011": 0.0,
			"-0.01": 0.0,
			"-0.009": 0.0,
			"-0.008": 0.136437985686,
			"-0.007": 4.69699747724,
			"-0.006": 14.5867968225,
			"-0.005": 17.0421633156,
			"-0.004": 18.1698026103,
			"-0.003": 12.3829751063,
			"-0.002": 12.0962715476,
			"-0.001": 9.5871067945,
			"0.0": 14.0038456139,
			"0.001": 19.2066609311,
			"0.002": 20.2881132888,
			"0.003": 23.9394812877,
			"0.004": 34.3514526932,
			"0.005": 14.3874160077,
			"0.006": 1.55406570097,
			"0.007": 0.00828798887933,
			"0.008": 0.0,
			"0.009": 0.0,
			"0.01": 0.0,
			"0.011": 0.0,
			"0.012": 0.0,
			"0.013": 0.0,
			"0.014": 0.0,
			"0.015": 0.0,
			"0.016": 0.0,
			"0.017": 0.0,
			"0.018": 0.0,
			"0.019": 0.0,
			"0.02": 0.0,
			"0.021": 0.0,
			"0.022": 0.0,
			"0.023": 0.0,
			"0.024": 0.0,
			"0.025": 0.0
		}
	}
}
