{
	 "smiles": "CC(C)C1CCCC1", 
	 "Tm": 162.15, 
	 "num_atms": 24, 
	 "gaussian": { 
		 "optdone": 1, 
		 "sigma_profile": "yes", 
		 "theory": "DFT", 
		 "functional": "B3LYP", 
		 "basiset": "6-31G**", 
		 "properties": { 
			 "R2extent": 1412.9776, 
			 "electric_dipole_moment_norm": 0.0641894851202, 
			 "electric_quadrupole_moment_norm": 0.698881699574, 
			 "total_energy": -314.513186133, 
			 "HOMO_LUMO_gap": 0.37619, 
			 "cosmo_polarized_energy": -0.63, 
			 "cosmo_cavitation_energy": 23.5, 
			 "cosmo_dispersion_energy": -17.37, 
			 "cosmo_repulsion_energy": 1.44, 
			 "cosmo_total_nonelectrostatic_energy": 7.57, 
			 "SMD_solvation_energy": 3.5 
		},
		"coords": [
			{
				"x": -1.8716163217,
				"y": -0.4305285305,
				"z": 2.6749450553,
				"element": "C" 
			},
			{
				"x": -1.1366223277,
				"y": 0.1968368469,
				"z": 1.4789651687,
				"element": "C" 
			},
			{
				"x": 0.114076303,
				"y": 0.9509819649,
				"z": 1.9597530036,
				"element": "C" 
			},
			{
				"x": -0.8581599707,
				"y": -0.8511551308,
				"z": 0.3752454453,
				"element": "C" 
			},
			{
				"x": -0.4138301879,
				"y": -0.2625425195,
				"z": -0.9952565506,
				"element": "C" 
			},
			{
				"x": 0.5219180329,
				"y": -1.3224351291,
				"z": -1.646248295,
				"element": "C" 
			},
			{
				"x": 0.4787217833,
				"y": -2.5457399074,
				"z": -0.7035221937,
				"element": "C" 
			},
			{
				"x": 0.2012730682,
				"y": -1.9332313439,
				"z": 0.6777215479,
				"element": "C" 
			},
			{
				"x": -1.245834051,
				"y": -1.1763112498,
				"z": 3.1788510432,
				"element": "H" 
			},
			{
				"x": -2.138517888,
				"y": 0.3293514092,
				"z": 3.4176882083,
				"element": "H" 
			},
			{
				"x": -2.7950698589,
				"y": -0.9292101554,
				"z": 2.3600099698,
				"element": "H" 
			},
			{
				"x": -1.8150689718,
				"y": 0.9400175167,
				"z": 1.0330534305,
				"element": "H" 
			},
			{
				"x": -0.1677692016,
				"y": 1.7637425606,
				"z": 2.6378521841,
				"element": "H" 
			},
			{
				"x": 0.6763921739,
				"y": 1.3954246211,
				"z": 1.1322702423,
				"element": "H" 
			},
			{
				"x": 0.7945965517,
				"y": 0.2910448762,
				"z": 2.5090237454,
				"element": "H" 
			},
			{
				"x": -1.8067684782,
				"y": -1.3822286928,
				"z": 0.2059151914,
				"element": "H" 
			},
			{
				"x": 0.1176516104,
				"y": 0.6855022768,
				"z": -0.8609628863,
				"element": "H" 
			},
			{
				"x": -1.284076079,
				"y": -0.0411981562,
				"z": -1.6219446241,
				"element": "H" 
			},
			{
				"x": 1.5456333742,
				"y": -0.9355638454,
				"z": -1.7044184472,
				"element": "H" 
			},
			{
				"x": 0.2243419013,
				"y": -1.5756710869,
				"z": -2.6686068956,
				"element": "H" 
			},
			{
				"x": 1.3958202131,
				"y": -3.1429671167,
				"z": -0.7379993519,
				"element": "H" 
			},
			{
				"x": -0.3497595627,
				"y": -3.2094053224,
				"z": -0.9827368694,
				"element": "H" 
			},
			{
				"x": 1.1193881389,
				"y": -1.4748675088,
				"z": 1.0674270772,
				"element": "H" 
			},
			{
				"x": -0.1344202516,
				"y": -2.6701463767,
				"z": 1.4147748006,
				"element": "H" 
			}
		],
		 "valence_orbital": [ 
			{
				"type": "occ",
				"energy": -0.325,
				"method": "rhf"
			},
			{
				"type": "occ",
				"energy": -0.31326,
				"method": "rhf"
			},
			{
				"type": "occ",
				"energy": -0.30189,
				"method": "rhf"
			},
			{
				"type": "occ",
				"energy": -0.29882,
				"method": "rhf"
			},
			{
				"type": "occ",
				"energy": -0.2979,
				"method": "rhf"
			},
			{
				"type": "unocc",
				"energy": 0.07829,
				"method": "rhf"
			},
			{
				"type": "unocc",
				"energy": 0.09775,
				"method": "rhf"
			},
			{
				"type": "unocc",
				"energy": 0.10926,
				"method": "rhf"
			},
			{
				"type": "unocc",
				"energy": 0.12516,
				"method": "rhf"
			},
			{
				"type": "unocc",
				"energy": 0.14429,
				"method": "rhf"
			}
		],
		"cosmo_sigma_profile": { 
			"-0.025": 0.0,
			"-0.024": 0.0,
			"-0.023": 0.0,
			"-0.022": 0.0,
			"-0.021": 0.0,
			"-0.02": 0.0,
			"-0.019": 0.0,
			"-0.018": 0.0,
			"-0.017": 0.0,
			"-0.016": 0.0,
			"-0.015": 0.0,
			"-0.014": 0.0,
			"-0.013": 0.0,
			"-0.012": 0.0,
			"-0.011": 0.0,
			"-0.01": 0.0,
			"-0.009": 0.0,
			"-0.008": 0.0,
			"-0.007": 0.0,
			"-0.006": 0.0,
			"-0.005": 0.0,
			"-0.004": 0.0,
			"-0.003": 3.30799331987,
			"-0.002": 24.1449632244,
			"-0.001": 38.2465053513,
			"0.0": 48.4209775151,
			"0.001": 36.5183946944,
			"0.002": 26.7424390069,
			"0.003": 2.48389093213,
			"0.004": 0.0,
			"0.005": 0.0,
			"0.006": 0.0,
			"0.007": 0.0,
			"0.008": 0.0,
			"0.009": 0.0,
			"0.01": 0.0,
			"0.011": 0.0,
			"0.012": 0.0,
			"0.013": 0.0,
			"0.014": 0.0,
			"0.015": 0.0,
			"0.016": 0.0,
			"0.017": 0.0,
			"0.018": 0.0,
			"0.019": 0.0,
			"0.02": 0.0,
			"0.021": 0.0,
			"0.022": 0.0,
			"0.023": 0.0,
			"0.024": 0.0,
			"0.025": 0.0
		}
	}
}
