{
	 "smiles": "NS(=O)(=O)CC1=CC=C(C=C1)C#N", 
	 "Tm": 428.15, 
	 "num_atms": 21, 
	 "gaussian": { 
		 "optdone": 1, 
		 "sigma_profile": "yes", 
		 "theory": "DFT", 
		 "functional": "B3LYP", 
		 "basiset": "6-31G**", 
		 "properties": { 
			 "R2extent": 3885.8165, 
			 "electric_dipole_moment_norm": 3.26517687729, 
			 "electric_quadrupole_moment_norm": 33.3578949304, 
			 "total_energy": -967.73332217, 
			 "HOMO_LUMO_gap": 0.20258, 
			 "cosmo_polarized_energy": -20.88, 
			 "cosmo_cavitation_energy": 28.09, 
			 "cosmo_dispersion_energy": -20.08, 
			 "cosmo_repulsion_energy": 1.56, 
			 "cosmo_total_nonelectrostatic_energy": 9.57, 
			 "SMD_solvation_energy": 5.7 
		},
		"coords": [
			{
				"x": -2.5891330809,
				"y": -0.3318098633,
				"z": -2.3329926487,
				"element": "N" 
			},
			{
				"x": -2.5433074962,
				"y": -1.3684839486,
				"z": -0.9944732224,
				"element": "S" 
			},
			{
				"x": -1.2406091089,
				"y": -2.040047171,
				"z": -0.9653464262,
				"element": "O" 
			},
			{
				"x": -3.8026979211,
				"y": -2.1171292898,
				"z": -0.9835052418,
				"element": "O" 
			},
			{
				"x": -2.6061177225,
				"y": -0.198116726,
				"z": 0.4077794989,
				"element": "C" 
			},
			{
				"x": -1.4461942186,
				"y": 0.7554967469,
				"z": 0.4602403428,
				"element": "C" 
			},
			{
				"x": -0.2033727477,
				"y": 0.3383262718,
				"z": 0.959360224,
				"element": "C" 
			},
			{
				"x": 0.8729778105,
				"y": 1.2171947162,
				"z": 1.0060589591,
				"element": "C" 
			},
			{
				"x": 0.7191348843,
				"y": 2.5370926534,
				"z": 0.548886452,
				"element": "C" 
			},
			{
				"x": -0.5205620548,
				"y": 2.9608525628,
				"z": 0.0425369803,
				"element": "C" 
			},
			{
				"x": -1.5888027187,
				"y": 2.0710321384,
				"z": -0.0020432182,
				"element": "C" 
			},
			{
				"x": 1.8239848536,
				"y": 3.4502133672,
				"z": 0.5999294513,
				"element": "C" 
			},
			{
				"x": 2.7193208055,
				"y": 4.1917354198,
				"z": 0.6400990761,
				"element": "N" 
			},
			{
				"x": -1.7017848672,
				"y": -0.3640592111,
				"z": -2.8281568667,
				"element": "H" 
			},
			{
				"x": -3.3595800305,
				"y": -0.610099302,
				"z": -2.9354810971,
				"element": "H" 
			},
			{
				"x": -3.5666116062,
				"y": 0.3124066957,
				"z": 0.3149170149,
				"element": "H" 
			},
			{
				"x": -2.6427318518,
				"y": -0.856542117,
				"z": 1.280683656,
				"element": "H" 
			},
			{
				"x": -0.078339125,
				"y": -0.6839300791,
				"z": 1.3011727064,
				"element": "H" 
			},
			{
				"x": 1.8320613002,
				"y": 0.8917275252,
				"z": 1.394211261,
				"element": "H" 
			},
			{
				"x": -0.6371493771,
				"y": 3.9799327315,
				"z": -0.3102074316,
				"element": "H" 
			},
			{
				"x": -2.5441857268,
				"y": 2.3994068789,
				"z": -0.3996694702,
				"element": "H" 
			}
		],
		 "valence_orbital": [ 
			{
				"type": "occ",
				"energy": -0.32745,
				"method": "rhf"
			},
			{
				"type": "occ",
				"energy": -0.31524,
				"method": "rhf"
			},
			{
				"type": "occ",
				"energy": -0.30725,
				"method": "rhf"
			},
			{
				"type": "occ",
				"energy": -0.28381,
				"method": "rhf"
			},
			{
				"type": "occ",
				"energy": -0.26907,
				"method": "rhf"
			},
			{
				"type": "unocc",
				"energy": -0.06649,
				"method": "rhf"
			},
			{
				"type": "unocc",
				"energy": -0.03377,
				"method": "rhf"
			},
			{
				"type": "unocc",
				"energy": 0.03085,
				"method": "rhf"
			},
			{
				"type": "unocc",
				"energy": 0.04012,
				"method": "rhf"
			},
			{
				"type": "unocc",
				"energy": 0.05106,
				"method": "rhf"
			}
		],
		"cosmo_sigma_profile": { 
			"-0.025": 0.0,
			"-0.024": 0.0,
			"-0.023": 0.0,
			"-0.022": 0.0,
			"-0.021": 0.0,
			"-0.02": 0.0,
			"-0.019": 0.0,
			"-0.018": 0.0,
			"-0.017": 0.0,
			"-0.016": 0.0,
			"-0.015": 1.32105980496,
			"-0.014": 2.63354916505,
			"-0.013": 2.10557717478,
			"-0.012": 2.85755304321,
			"-0.011": 2.33032596,
			"-0.01": 2.00344089603,
			"-0.009": 6.18932328069,
			"-0.008": 11.2913242088,
			"-0.007": 14.6481885232,
			"-0.006": 12.5691149226,
			"-0.005": 11.367406042,
			"-0.004": 9.61289491052,
			"-0.003": 9.77572465045,
			"-0.002": 11.7020760551,
			"-0.001": 12.2683325335,
			"0.0": 9.79664715228,
			"0.001": 12.8989994651,
			"0.002": 15.6752727385,
			"0.003": 6.85796833464,
			"0.004": 3.87433810776,
			"0.005": 5.6372933272,
			"0.006": 6.65758545164,
			"0.007": 5.86149020903,
			"0.008": 7.37856986601,
			"0.009": 7.97642386326,
			"0.01": 9.52752342918,
			"0.011": 13.0710732785,
			"0.012": 5.84753275858,
			"0.013": 1.33852978484,
			"0.014": 0.0142306045153,
			"0.015": 0.0,
			"0.016": 0.0,
			"0.017": 0.0,
			"0.018": 0.0,
			"0.019": 0.0,
			"0.02": 0.0,
			"0.021": 0.0,
			"0.022": 0.0,
			"0.023": 0.0,
			"0.024": 0.0,
			"0.025": 0.0
		}
	}
}
