{
	 "smiles": "O=C1NC(=O)C2(CCCC3=C2C=CS3)N1", 
	 "Tm": 541.15, 
	 "num_atms": 25, 
	 "gaussian": { 
		 "optdone": 1, 
		 "sigma_profile": "yes", 
		 "theory": "DFT", 
		 "functional": "B3LYP", 
		 "basiset": "6-31G**", 
		 "properties": { 
			 "R2extent": 3606.7973, 
			 "electric_dipole_moment_norm": 2.43328887105, 
			 "electric_quadrupole_moment_norm": 12.0389700535, 
			 "total_energy": -1045.26674569, 
			 "HOMO_LUMO_gap": 0.20982, 
			 "cosmo_polarized_energy": -16.27, 
			 "cosmo_cavitation_energy": 29.3, 
			 "cosmo_dispersion_energy": -21.83, 
			 "cosmo_repulsion_energy": 1.67, 
			 "cosmo_total_nonelectrostatic_energy": 9.13, 
			 "SMD_solvation_energy": 5.55 
		},
		"coords": [
			{
				"x": -0.5231076338,
				"y": 2.1946690208,
				"z": -2.2067072805,
				"element": "O" 
			},
			{
				"x": -0.6813201022,
				"y": 1.382325833,
				"z": -1.3196864083,
				"element": "C" 
			},
			{
				"x": -1.8095363057,
				"y": 1.2842011816,
				"z": -0.4763861838,
				"element": "N" 
			},
			{
				"x": -1.7037110419,
				"y": 0.2916833475,
				"z": 0.4729250888,
				"element": "C" 
			},
			{
				"x": -2.5369239486,
				"y": -0.0176010112,
				"z": 1.2982533873,
				"element": "O" 
			},
			{
				"x": -0.3080196523,
				"y": -0.3645364406,
				"z": 0.2584053699,
				"element": "C" 
			},
			{
				"x": -0.466211719,
				"y": -1.8755204828,
				"z": -0.0440723258,
				"element": "C" 
			},
			{
				"x": -0.7467770551,
				"y": -2.6960378208,
				"z": 1.2217437534,
				"element": "C" 
			},
			{
				"x": 0.4204580746,
				"y": -2.5996481022,
				"z": 2.2198580575,
				"element": "C" 
			},
			{
				"x": 0.8780467583,
				"y": -1.1726354534,
				"z": 2.3414207359,
				"element": "C" 
			},
			{
				"x": 0.5808084468,
				"y": -0.153419831,
				"z": 1.4704106815,
				"element": "C" 
			},
			{
				"x": 1.1786769929,
				"y": 1.096969659,
				"z": 1.8420541792,
				"element": "C" 
			},
			{
				"x": 1.9238676444,
				"y": 1.0067524449,
				"z": 2.9805286055,
				"element": "C" 
			},
			{
				"x": 1.9062380122,
				"y": -0.605660381,
				"z": 3.6290827516,
				"element": "S" 
			},
			{
				"x": 0.1566320853,
				"y": 0.3749309245,
				"z": -0.9168313661,
				"element": "N" 
			},
			{
				"x": -2.6161679578,
				"y": 1.8823295915,
				"z": -0.5843252135,
				"element": "H" 
			},
			{
				"x": 0.4658201654,
				"y": -2.2162494272,
				"z": -0.5138184925,
				"element": "H" 
			},
			{
				"x": -1.2618815384,
				"y": -2.010373895,
				"z": -0.7840593282,
				"element": "H" 
			},
			{
				"x": -1.6623917248,
				"y": -2.3234945577,
				"z": 1.6900300977,
				"element": "H" 
			},
			{
				"x": -0.9154811291,
				"y": -3.7438857122,
				"z": 0.9512758828,
				"element": "H" 
			},
			{
				"x": 0.11745353,
				"y": -2.9947951486,
				"z": 3.1961498518,
				"element": "H" 
			},
			{
				"x": 1.2568525599,
				"y": -3.2275587365,
				"z": 1.8799651295,
				"element": "H" 
			},
			{
				"x": 1.0591970739,
				"y": 2.0155944516,
				"z": 1.2787821322,
				"element": "H" 
			},
			{
				"x": 2.479572126,
				"y": 1.7866225251,
				"z": 3.4820624047,
				"element": "H" 
			},
			{
				"x": 1.1054063389,
				"y": 0.3408380207,
				"z": -1.2569615106,
				"element": "H" 
			}
		],
		 "valence_orbital": [ 
			{
				"type": "occ",
				"energy": -0.2905,
				"method": "rhf"
			},
			{
				"type": "occ",
				"energy": -0.27157,
				"method": "rhf"
			},
			{
				"type": "occ",
				"energy": -0.26561,
				"method": "rhf"
			},
			{
				"type": "occ",
				"energy": -0.24938,
				"method": "rhf"
			},
			{
				"type": "occ",
				"energy": -0.23368,
				"method": "rhf"
			},
			{
				"type": "unocc",
				"energy": -0.02386,
				"method": "rhf"
			},
			{
				"type": "unocc",
				"energy": -0.00709,
				"method": "rhf"
			},
			{
				"type": "unocc",
				"energy": 0.02399,
				"method": "rhf"
			},
			{
				"type": "unocc",
				"energy": 0.04257,
				"method": "rhf"
			},
			{
				"type": "unocc",
				"energy": 0.06633,
				"method": "rhf"
			}
		],
		"cosmo_sigma_profile": { 
			"-0.025": 0.0,
			"-0.024": 0.0,
			"-0.023": 0.0,
			"-0.022": 0.0,
			"-0.021": 0.0,
			"-0.02": 0.0,
			"-0.019": 0.0,
			"-0.018": 0.0,
			"-0.017": 0.349516847823,
			"-0.016": 1.62306089718,
			"-0.015": 1.75209381263,
			"-0.014": 1.85313348085,
			"-0.013": 2.38559399434,
			"-0.012": 1.25664764051,
			"-0.011": 1.98694583877,
			"-0.01": 1.06951287379,
			"-0.009": 2.32789068174,
			"-0.008": 4.06573702305,
			"-0.007": 5.06126998789,
			"-0.006": 8.61931235723,
			"-0.005": 12.0753840452,
			"-0.004": 19.4215535245,
			"-0.003": 20.4039875573,
			"-0.002": 23.4670154502,
			"-0.001": 18.1074263146,
			"0.0": 12.4355329635,
			"0.001": 10.2846264977,
			"0.002": 11.2650261208,
			"0.003": 12.0541866855,
			"0.004": 14.3622681208,
			"0.005": 10.3454633373,
			"0.006": 4.18267170796,
			"0.007": 2.88453153806,
			"0.008": 2.98259229587,
			"0.009": 2.83723014071,
			"0.01": 3.36142529017,
			"0.011": 5.99764953423,
			"0.012": 8.30923175831,
			"0.013": 6.24951698578,
			"0.014": 0.81399849171,
			"0.015": 0.0,
			"0.016": 0.0,
			"0.017": 0.0,
			"0.018": 0.0,
			"0.019": 0.0,
			"0.02": 0.0,
			"0.021": 0.0,
			"0.022": 0.0,
			"0.023": 0.0,
			"0.024": 0.0,
			"0.025": 0.0
		}
	}
}
