{
	 "smiles": "NC(=O)C1(O)CC2=C(C1)C=CC=C2", 
	 "Tm": 460.15, 
	 "num_atms": 24, 
	 "gaussian": { 
		 "optdone": 1, 
		 "sigma_profile": "yes", 
		 "theory": "DFT", 
		 "functional": "B3LYP", 
		 "basiset": "6-31G**", 
		 "properties": { 
			 "R2extent": 2816.4652, 
			 "electric_dipole_moment_norm": 4.00331828987, 
			 "electric_quadrupole_moment_norm": 9.57106186376, 
			 "total_energy": -592.916140293, 
			 "HOMO_LUMO_gap": 0.22914, 
			 "cosmo_polarized_energy": -12.34, 
			 "cosmo_cavitation_energy": 26.42, 
			 "cosmo_dispersion_energy": -19.52, 
			 "cosmo_repulsion_energy": 1.55, 
			 "cosmo_total_nonelectrostatic_energy": 8.45, 
			 "SMD_solvation_energy": 4.73 
		},
		"coords": [
			{
				"x": -0.7079035132,
				"y": -1.3127463457,
				"z": 0.2118070729,
				"element": "N" 
			},
			{
				"x": -0.678515999,
				"y": -1.6076218475,
				"z": -1.1103477789,
				"element": "C" 
			},
			{
				"x": -0.8381364782,
				"y": -2.7475643775,
				"z": -1.542859749,
				"element": "O" 
			},
			{
				"x": -0.4319692511,
				"y": -0.4447822559,
				"z": -2.103087066,
				"element": "C" 
			},
			{
				"x": -0.4462202239,
				"y": -0.9964115341,
				"z": -3.3921360365,
				"element": "O" 
			},
			{
				"x": -1.5091268176,
				"y": 0.6764477755,
				"z": -1.9352883314,
				"element": "C" 
			},
			{
				"x": -0.8646478128,
				"y": 1.6789572502,
				"z": -1.0064037298,
				"element": "C" 
			},
			{
				"x": 0.520667985,
				"y": 1.4542369963,
				"z": -0.9256039976,
				"element": "C" 
			},
			{
				"x": 0.9173051327,
				"y": 0.2828181216,
				"z": -1.7937220794,
				"element": "C" 
			},
			{
				"x": 1.3228883587,
				"y": 2.2743068597,
				"z": -0.1323763774,
				"element": "C" 
			},
			{
				"x": 0.7323056124,
				"y": 3.3234970996,
				"z": 0.5794277262,
				"element": "C" 
			},
			{
				"x": -0.6456074503,
				"y": 3.5470244243,
				"z": 0.4990489223,
				"element": "C" 
			},
			{
				"x": -1.4520391127,
				"y": 2.7244663954,
				"z": -0.2942365399,
				"element": "C" 
			},
			{
				"x": -0.5754195914,
				"y": -0.3731456515,
				"z": 0.5534359919,
				"element": "H" 
			},
			{
				"x": -0.8681261967,
				"y": -2.0648896206,
				"z": 0.8648244409,
				"element": "H" 
			},
			{
				"x": -0.6089916433,
				"y": -1.95019242,
				"z": -3.2517811637,
				"element": "H" 
			},
			{
				"x": -1.6812518775,
				"y": 1.1071055307,
				"z": -2.9295160348,
				"element": "H" 
			},
			{
				"x": -2.4712772818,
				"y": 0.2943430162,
				"z": -1.5779878272,
				"element": "H" 
			},
			{
				"x": 1.3278569056,
				"y": 0.6189283037,
				"z": -2.7539593381,
				"element": "H" 
			},
			{
				"x": 1.6630440661,
				"y": -0.3763288719,
				"z": -1.3367639075,
				"element": "H" 
			},
			{
				"x": 2.3938739232,
				"y": 2.1012037121,
				"z": -0.0643768482,
				"element": "H" 
			},
			{
				"x": 1.3475398915,
				"y": 3.9655886702,
				"z": 1.203343863,
				"element": "H" 
			},
			{
				"x": -1.0937046733,
				"y": 4.3616326641,
				"z": 1.0609117285,
				"element": "H" 
			},
			{
				"x": -2.5234439525,
				"y": 2.8989261051,
				"z": -0.3512529403,
				"element": "H" 
			}
		],
		 "valence_orbital": [ 
			{
				"type": "occ",
				"energy": -0.28062,
				"method": "rhf"
			},
			{
				"type": "occ",
				"energy": -0.26852,
				"method": "rhf"
			},
			{
				"type": "occ",
				"energy": -0.25615,
				"method": "rhf"
			},
			{
				"type": "occ",
				"energy": -0.25473,
				"method": "rhf"
			},
			{
				"type": "occ",
				"energy": -0.24261,
				"method": "rhf"
			},
			{
				"type": "unocc",
				"energy": -0.01347,
				"method": "rhf"
			},
			{
				"type": "unocc",
				"energy": -0.00948,
				"method": "rhf"
			},
			{
				"type": "unocc",
				"energy": 0.02405,
				"method": "rhf"
			},
			{
				"type": "unocc",
				"energy": 0.0783,
				"method": "rhf"
			},
			{
				"type": "unocc",
				"energy": 0.09148,
				"method": "rhf"
			}
		],
		"cosmo_sigma_profile": { 
			"-0.025": 0.0,
			"-0.024": 0.0,
			"-0.023": 0.0,
			"-0.022": 0.0,
			"-0.021": 0.0,
			"-0.02": 0.0,
			"-0.019": 0.0,
			"-0.018": 0.0,
			"-0.017": 0.0,
			"-0.016": 0.0,
			"-0.015": 0.327031345609,
			"-0.014": 1.41034282705,
			"-0.013": 0.961932400277,
			"-0.012": 1.7838643384,
			"-0.011": 1.86059144258,
			"-0.01": 1.67003445353,
			"-0.009": 1.89975567055,
			"-0.008": 2.324720941,
			"-0.007": 1.86621175106,
			"-0.006": 5.68243869064,
			"-0.005": 14.7915949163,
			"-0.004": 20.2010267756,
			"-0.003": 21.6933429131,
			"-0.002": 18.0927623101,
			"-0.001": 17.7718774728,
			"0.0": 13.7640737725,
			"0.001": 9.86736791907,
			"0.002": 11.7298427421,
			"0.003": 11.4551215116,
			"0.004": 9.98276530471,
			"0.005": 9.29142632888,
			"0.006": 5.98744939629,
			"0.007": 2.74619778028,
			"0.008": 2.17717852197,
			"0.009": 1.96361055627,
			"0.01": 3.49464488606,
			"0.011": 3.16918991146,
			"0.012": 4.42556121023,
			"0.013": 4.37359648914,
			"0.014": 1.73543975605,
			"0.015": 0.129531478813,
			"0.016": 0.0,
			"0.017": 0.0,
			"0.018": 0.0,
			"0.019": 0.0,
			"0.02": 0.0,
			"0.021": 0.0,
			"0.022": 0.0,
			"0.023": 0.0,
			"0.024": 0.0,
			"0.025": 0.0
		}
	}
}
