{
	 "smiles": "ClCC1=CC(=O)N2C=C(Cl)C=CC2=N1", 
	 "Tm": 423.15, 
	 "num_atms": 20, 
	 "gaussian": { 
		 "optdone": 1, 
		 "sigma_profile": "yes", 
		 "theory": "DFT", 
		 "functional": "B3LYP", 
		 "basiset": "6-31G**", 
		 "properties": { 
			 "R2extent": 4819.3991, 
			 "electric_dipole_moment_norm": 3.19398453503, 
			 "electric_quadrupole_moment_norm": 12.7056262109, 
			 "total_energy": -1451.68901512, 
			 "HOMO_LUMO_gap": 0.15236, 
			 "cosmo_polarized_energy": -12.36, 
			 "cosmo_cavitation_energy": 28.57, 
			 "cosmo_dispersion_energy": -21.32, 
			 "cosmo_repulsion_energy": 1.68, 
			 "cosmo_total_nonelectrostatic_energy": 8.93, 
			 "SMD_solvation_energy": 3.78 
		},
		"coords": [
			{
				"x": -4.2617283198,
				"y": -0.2668345047,
				"z": 3.0793558189,
				"element": "Cl" 
			},
			{
				"x": -2.9266325403,
				"y": 0.9482353683,
				"z": 2.8260710019,
				"element": "C" 
			},
			{
				"x": -2.1882787189,
				"y": 0.6857389026,
				"z": 1.5410944212,
				"element": "C" 
			},
			{
				"x": -2.5140451672,
				"y": 1.3759572341,
				"z": 0.3924645744,
				"element": "C" 
			},
			{
				"x": -1.8316224811,
				"y": 1.138350835,
				"z": -0.8375465967,
				"element": "C" 
			},
			{
				"x": -2.0024400437,
				"y": 1.6660355606,
				"z": -1.9262056394,
				"element": "O" 
			},
			{
				"x": -0.7931899503,
				"y": 0.1070153491,
				"z": -0.7074473099,
				"element": "N" 
			},
			{
				"x": -0.0851215662,
				"y": -0.1929324669,
				"z": -1.8481385302,
				"element": "C" 
			},
			{
				"x": 0.8985955248,
				"y": -1.1348301265,
				"z": -1.8188922227,
				"element": "C" 
			},
			{
				"x": 1.7919074887,
				"y": -1.5094197807,
				"z": -3.2705275667,
				"element": "Cl" 
			},
			{
				"x": 1.2011305962,
				"y": -1.8156709433,
				"z": -0.6063360613,
				"element": "C" 
			},
			{
				"x": 0.4929474501,
				"y": -1.5103649047,
				"z": 0.5208718005,
				"element": "C" 
			},
			{
				"x": -0.5434366186,
				"y": -0.5266668852,
				"z": 0.5100059934,
				"element": "C" 
			},
			{
				"x": -1.2139649559,
				"y": -0.2497972803,
				"z": 1.6171026783,
				"element": "N" 
			},
			{
				"x": -2.2536505211,
				"y": 0.8411739332,
				"z": 3.6759163968,
				"element": "H" 
			},
			{
				"x": -3.3993067386,
				"y": 1.9297713695,
				"z": 2.8314833171,
				"element": "H" 
			},
			{
				"x": -3.3033898525,
				"y": 2.1173848178,
				"z": 0.3751357867,
				"element": "H" 
			},
			{
				"x": -0.3840653772,
				"y": 0.3744324103,
				"z": -2.7197654126,
				"element": "H" 
			},
			{
				"x": 1.9849104369,
				"y": -2.5647928143,
				"z": -0.5924465541,
				"element": "H" 
			},
			{
				"x": 0.6787813548,
				"y": -1.9978860738,
				"z": 1.4701041045,
				"element": "H" 
			}
		],
		 "valence_orbital": [ 
			{
				"type": "occ",
				"energy": -0.29926,
				"method": "rhf"
			},
			{
				"type": "occ",
				"energy": -0.29176,
				"method": "rhf"
			},
			{
				"type": "occ",
				"energy": -0.28239,
				"method": "rhf"
			},
			{
				"type": "occ",
				"energy": -0.27854,
				"method": "rhf"
			},
			{
				"type": "occ",
				"energy": -0.23168,
				"method": "rhf"
			},
			{
				"type": "unocc",
				"energy": -0.07932,
				"method": "rhf"
			},
			{
				"type": "unocc",
				"energy": -0.06944,
				"method": "rhf"
			},
			{
				"type": "unocc",
				"energy": -0.01024,
				"method": "rhf"
			},
			{
				"type": "unocc",
				"energy": 0.00432,
				"method": "rhf"
			},
			{
				"type": "unocc",
				"energy": 0.03107,
				"method": "rhf"
			}
		],
		"cosmo_sigma_profile": { 
			"-0.025": 0.0,
			"-0.024": 0.0,
			"-0.023": 0.0,
			"-0.022": 0.0,
			"-0.021": 0.0,
			"-0.02": 0.0,
			"-0.019": 0.0,
			"-0.018": 0.0,
			"-0.017": 0.0,
			"-0.016": 0.0,
			"-0.015": 0.0,
			"-0.014": 0.0,
			"-0.013": 0.0,
			"-0.012": 0.0,
			"-0.011": 0.0,
			"-0.01": 0.455428165134,
			"-0.009": 4.53330513897,
			"-0.008": 10.6289029814,
			"-0.007": 10.3787558708,
			"-0.006": 10.1577468634,
			"-0.005": 14.5133547628,
			"-0.004": 13.6585411817,
			"-0.003": 15.3352828688,
			"-0.002": 17.4129777304,
			"-0.001": 20.7040207664,
			"0.0": 17.2584894147,
			"0.001": 14.7472877551,
			"0.002": 13.7705686502,
			"0.003": 14.8463333991,
			"0.004": 11.5727932297,
			"0.005": 8.8817303837,
			"0.006": 12.6067815631,
			"0.007": 4.90385587706,
			"0.008": 2.6547327942,
			"0.009": 1.75525060591,
			"0.01": 2.69798285394,
			"0.011": 2.90015990253,
			"0.012": 4.85604956433,
			"0.013": 3.18382502531,
			"0.014": 0.514311070352,
			"0.015": 0.0,
			"0.016": 0.0,
			"0.017": 0.0,
			"0.018": 0.0,
			"0.019": 0.0,
			"0.02": 0.0,
			"0.021": 0.0,
			"0.022": 0.0,
			"0.023": 0.0,
			"0.024": 0.0,
			"0.025": 0.0
		}
	}
}
