{
	 "smiles": "OC(=O)C(C1=CC=C(Cl)C=C1)C1=CC=C(Cl)C=C1", 
	 "Tm": 441.15, 
	 "num_atms": 28, 
	 "gaussian": { 
		 "optdone": 1, 
		 "sigma_profile": "yes", 
		 "theory": "DFT", 
		 "functional": "B3LYP", 
		 "basiset": "6-31G**", 
		 "properties": { 
			 "R2extent": 7452.8871, 
			 "electric_dipole_moment_norm": 2.75983549872, 
			 "electric_quadrupole_moment_norm": 12.1695384029, 
			 "total_energy": -1610.36760814, 
			 "HOMO_LUMO_gap": 0.21181, 
			 "cosmo_polarized_energy": -11.98, 
			 "cosmo_cavitation_energy": 36.59, 
			 "cosmo_dispersion_energy": -25.96, 
			 "cosmo_repulsion_energy": 2.03, 
			 "cosmo_total_nonelectrostatic_energy": 12.67, 
			 "SMD_solvation_energy": 6.57 
		},
		"coords": [
			{
				"x": 0.7089865064,
				"y": -1.6038697168,
				"z": -2.5596313368,
				"element": "O" 
			},
			{
				"x": -0.1325633003,
				"y": -0.7755157895,
				"z": -1.9049094447,
				"element": "C" 
			},
			{
				"x": -1.0948822047,
				"y": -0.2675756187,
				"z": -2.4416305253,
				"element": "O" 
			},
			{
				"x": 0.28809388,
				"y": -0.5850890729,
				"z": -0.4505752203,
				"element": "C" 
			},
			{
				"x": -0.8072807102,
				"y": -1.0754613979,
				"z": 0.5010166437,
				"element": "C" 
			},
			{
				"x": -2.1083387147,
				"y": -0.5566220943,
				"z": 0.4635930422,
				"element": "C" 
			},
			{
				"x": -3.080426036,
				"y": -1.0015690354,
				"z": 1.3573096097,
				"element": "C" 
			},
			{
				"x": -2.7482180239,
				"y": -1.9733006735,
				"z": 2.3016457579,
				"element": "C" 
			},
			{
				"x": -3.9704382872,
				"y": -2.5345275607,
				"z": 3.4335082549,
				"element": "Cl" 
			},
			{
				"x": -1.4631101423,
				"y": -2.5070099181,
				"z": 2.3585410415,
				"element": "C" 
			},
			{
				"x": -0.5021811572,
				"y": -2.053556561,
				"z": 1.4538118654,
				"element": "C" 
			},
			{
				"x": 0.7131094372,
				"y": 0.8596016114,
				"z": -0.1626287666,
				"element": "C" 
			},
			{
				"x": 0.0632958781,
				"y": 1.9709011114,
				"z": -0.71431556,
				"element": "C" 
			},
			{
				"x": 0.4637705378,
				"y": 3.2675330986,
				"z": -0.3891889241,
				"element": "C" 
			},
			{
				"x": 1.5222693019,
				"y": 3.4556690349,
				"z": 0.497076028,
				"element": "C" 
			},
			{
				"x": 2.0308421264,
				"y": 5.0870213227,
				"z": 0.908988861,
				"element": "Cl" 
			},
			{
				"x": 2.1874842293,
				"y": 2.3665899924,
				"z": 1.0581132209,
				"element": "C" 
			},
			{
				"x": 1.777709755,
				"y": 1.0777526736,
				"z": 0.7214277496,
				"element": "C" 
			},
			{
				"x": 0.373493616,
				"y": -1.672250195,
				"z": -3.4704676045,
				"element": "H" 
			},
			{
				"x": 1.1640208775,
				"y": -1.2190845121,
				"z": -0.2955412716,
				"element": "H" 
			},
			{
				"x": -2.3704980575,
				"y": 0.1872180579,
				"z": -0.279951242,
				"element": "H" 
			},
			{
				"x": -4.0869922327,
				"y": -0.5997119176,
				"z": 1.3226819533,
				"element": "H" 
			},
			{
				"x": -1.21820069,
				"y": -3.2648605138,
				"z": 3.0943494102,
				"element": "H" 
			},
			{
				"x": 0.4995880515,
				"y": -2.473097296,
				"z": 1.4954579885,
				"element": "H" 
			},
			{
				"x": -0.7506014573,
				"y": 1.8266421666,
				"z": -1.4158219742,
				"element": "H" 
			},
			{
				"x": -0.0404703438,
				"y": 4.1239450809,
				"z": -0.8231299272,
				"element": "H" 
			},
			{
				"x": 3.0135082657,
				"y": 2.5248198627,
				"z": 1.7425275428,
				"element": "H" 
			},
			{
				"x": 2.2972288952,
				"y": 0.2293078603,
				"z": 1.1589428277,
				"element": "H" 
			}
		],
		 "valence_orbital": [ 
			{
				"type": "occ",
				"energy": -0.29148,
				"method": "rhf"
			},
			{
				"type": "occ",
				"energy": -0.26959,
				"method": "rhf"
			},
			{
				"type": "occ",
				"energy": -0.26604,
				"method": "rhf"
			},
			{
				"type": "occ",
				"energy": -0.25277,
				"method": "rhf"
			},
			{
				"type": "occ",
				"energy": -0.24172,
				"method": "rhf"
			},
			{
				"type": "unocc",
				"energy": -0.02991,
				"method": "rhf"
			},
			{
				"type": "unocc",
				"energy": -0.02703,
				"method": "rhf"
			},
			{
				"type": "unocc",
				"energy": -0.01984,
				"method": "rhf"
			},
			{
				"type": "unocc",
				"energy": -0.0135,
				"method": "rhf"
			},
			{
				"type": "unocc",
				"energy": 0.01015,
				"method": "rhf"
			}
		],
		"cosmo_sigma_profile": { 
			"-0.025": 0.0,
			"-0.024": 0.0,
			"-0.023": 0.0,
			"-0.022": 0.0,
			"-0.021": 0.0,
			"-0.02": 0.0,
			"-0.019": 0.218385507048,
			"-0.018": 0.893593816075,
			"-0.017": 1.28870804538,
			"-0.016": 0.706922400406,
			"-0.015": 0.263216758502,
			"-0.014": 0.608395582704,
			"-0.013": 0.934681417343,
			"-0.012": 1.15161364469,
			"-0.011": 0.350911648174,
			"-0.01": 0.859165725051,
			"-0.009": 0.866120288893,
			"-0.008": 4.44729759133,
			"-0.007": 12.5604637855,
			"-0.006": 14.5097942607,
			"-0.005": 15.7510653985,
			"-0.004": 13.484090286,
			"-0.003": 16.0612004251,
			"-0.002": 15.7271724957,
			"-0.001": 18.4802568873,
			"0.0": 19.0060128928,
			"0.001": 26.8863257811,
			"0.002": 30.7413416345,
			"0.003": 38.887202737,
			"0.004": 30.8687185259,
			"0.005": 16.4287108462,
			"0.006": 2.56254429383,
			"0.007": 2.33108718173,
			"0.008": 2.90756429385,
			"0.009": 2.55066675024,
			"0.01": 1.89371239883,
			"0.011": 2.98450724627,
			"0.012": 0.668757478337,
			"0.013": 0.0,
			"0.014": 0.0,
			"0.015": 0.0,
			"0.016": 0.0,
			"0.017": 0.0,
			"0.018": 0.0,
			"0.019": 0.0,
			"0.02": 0.0,
			"0.021": 0.0,
			"0.022": 0.0,
			"0.023": 0.0,
			"0.024": 0.0,
			"0.025": 0.0
		}
	}
}
