{
	 "smiles": "ClC1=CC(Cl)=C(Cl)C2=C1OC1=C(O2)C(Cl)=CC(Cl)=C1Cl", 
	 "Tm": 511.15, 
	 "num_atms": 22, 
	 "gaussian": { 
		 "optdone": 1, 
		 "sigma_profile": "yes", 
		 "theory": "DFT", 
		 "functional": "B3LYP", 
		 "basiset": "6-31G**", 
		 "properties": { 
			 "R2extent": 10215.3739, 
			 "electric_dipole_moment_norm": 0.0, 
			 "electric_quadrupole_moment_norm": 8.9857668493, 
			 "total_energy": -3370.03806864, 
			 "HOMO_LUMO_gap": 0.17487, 
			 "cosmo_polarized_energy": -6.39, 
			 "cosmo_cavitation_energy": 38.29, 
			 "cosmo_dispersion_energy": -28.34, 
			 "cosmo_repulsion_energy": 2.15, 
			 "cosmo_total_nonelectrostatic_energy": 12.1, 
			 "SMD_solvation_energy": 5.36 
		},
		"coords": [
			{
				"x": 3.2826360632,
				"y": 0.951094945,
				"z": -3.1808285442,
				"element": "Cl" 
			},
			{
				"x": 2.60667407,
				"y": 1.659212678,
				"z": -1.7423020117,
				"element": "C" 
			},
			{
				"x": 3.1388837852,
				"y": 2.8417763412,
				"z": -1.2302006698,
				"element": "C" 
			},
			{
				"x": 2.5974469532,
				"y": 3.40803549,
				"z": -0.0792677996,
				"element": "C" 
			},
			{
				"x": 3.289187553,
				"y": 4.8855623459,
				"z": 0.5299379315,
				"element": "Cl" 
			},
			{
				"x": 1.5148015484,
				"y": 2.7973572099,
				"z": 0.5751037916,
				"element": "C" 
			},
			{
				"x": 0.8060344344,
				"y": 3.4627557078,
				"z": 2.0098330264,
				"element": "Cl" 
			},
			{
				"x": 0.9917214863,
				"y": 1.6114317791,
				"z": 0.0495652631,
				"element": "C" 
			},
			{
				"x": 1.5319035423,
				"y": 1.0393111255,
				"z": -1.1054463499,
				"element": "C" 
			},
			{
				"x": 1.0306912418,
				"y": -0.1249778817,
				"z": -1.6356090466,
				"element": "O" 
			},
			{
				"x": -0.0267498976,
				"y": -0.706703642,
				"z": -0.9826122735,
				"element": "C" 
			},
			{
				"x": -0.5669340148,
				"y": -0.134579622,
				"z": 0.1723983915,
				"element": "C" 
			},
			{
				"x": -0.0657178938,
				"y": 1.0297078752,
				"z": 0.7025610102,
				"element": "O" 
			},
			{
				"x": -1.6417061304,
				"y": -0.754479035,
				"z": 0.8092496389,
				"element": "C" 
			},
			{
				"x": -2.3176761211,
				"y": -0.0463570806,
				"z": 2.2477732169,
				"element": "Cl" 
			},
			{
				"x": -2.1739229323,
				"y": -1.9370377601,
				"z": 0.2971422854,
				"element": "C" 
			},
			{
				"x": -1.6324852797,
				"y": -2.503300435,
				"z": -0.8537872057,
				"element": "C" 
			},
			{
				"x": -2.3242355844,
				"y": -3.9808145708,
				"z": -1.4630070824,
				"element": "Cl" 
			},
			{
				"x": -0.5498337435,
				"y": -1.8926247795,
				"z": -1.5081528292,
				"element": "C" 
			},
			{
				"x": 0.1589265484,
				"y": -2.5580179113,
				"z": -2.9428902863,
				"element": "Cl" 
			},
			{
				"x": 3.9731149929,
				"y": 3.3183296998,
				"z": -1.7289015633,
				"element": "H" 
			},
			{
				"x": -3.0081606215,
				"y": -2.4135824793,
				"z": 0.7958411068,
				"element": "H" 
			}
		],
		 "valence_orbital": [ 
			{
				"type": "occ",
				"energy": -0.31715,
				"method": "rhf"
			},
			{
				"type": "occ",
				"energy": -0.28823,
				"method": "rhf"
			},
			{
				"type": "occ",
				"energy": -0.26944,
				"method": "rhf"
			},
			{
				"type": "occ",
				"energy": -0.25329,
				"method": "rhf"
			},
			{
				"type": "occ",
				"energy": -0.23414,
				"method": "rhf"
			},
			{
				"type": "unocc",
				"energy": -0.05927,
				"method": "rhf"
			},
			{
				"type": "unocc",
				"energy": -0.04697,
				"method": "rhf"
			},
			{
				"type": "unocc",
				"energy": -0.04431,
				"method": "rhf"
			},
			{
				"type": "unocc",
				"energy": -0.03192,
				"method": "rhf"
			},
			{
				"type": "unocc",
				"energy": -0.02218,
				"method": "rhf"
			}
		],
		"cosmo_sigma_profile": { 
			"-0.025": 0.0,
			"-0.024": 0.0,
			"-0.023": 0.0,
			"-0.022": 0.0,
			"-0.021": 0.0,
			"-0.02": 0.0,
			"-0.019": 0.0,
			"-0.018": 0.0,
			"-0.017": 0.0,
			"-0.016": 0.0,
			"-0.015": 0.0,
			"-0.014": 0.0,
			"-0.013": 0.0,
			"-0.012": 0.0,
			"-0.011": 0.0,
			"-0.01": 0.669779108157,
			"-0.009": 3.67663522965,
			"-0.008": 3.37632671945,
			"-0.007": 5.51176880803,
			"-0.006": 5.16086430083,
			"-0.005": 5.80905274762,
			"-0.004": 13.6756461938,
			"-0.003": 26.4057715891,
			"-0.002": 35.7325154324,
			"-0.001": 42.1135259089,
			"0.0": 34.6215076449,
			"0.001": 25.0334781287,
			"0.002": 34.8918813308,
			"0.003": 50.4921313981,
			"0.004": 23.7688879827,
			"0.005": 6.95985222423,
			"0.006": 4.90551093561,
			"0.007": 1.61503619002,
			"0.008": 0.0,
			"0.009": 0.0,
			"0.01": 0.0,
			"0.011": 0.0,
			"0.012": 0.0,
			"0.013": 0.0,
			"0.014": 0.0,
			"0.015": 0.0,
			"0.016": 0.0,
			"0.017": 0.0,
			"0.018": 0.0,
			"0.019": 0.0,
			"0.02": 0.0,
			"0.021": 0.0,
			"0.022": 0.0,
			"0.023": 0.0,
			"0.024": 0.0,
			"0.025": 0.0
		}
	}
}
