{
	 "smiles": "OCCC1=CC2=C(O1)C=CC(Br)=C2", 
	 "Tm": 341.15, 
	 "num_atms": 22, 
	 "gaussian": { 
		 "optdone": 1, 
		 "sigma_profile": "yes", 
		 "theory": "DFT", 
		 "functional": "B3LYP", 
		 "basiset": "6-31G**", 
		 "properties": { 
			 "R2extent": 5951.4966, 
			 "electric_dipole_moment_norm": 3.80591777499, 
			 "electric_quadrupole_moment_norm": 4.10571134641, 
			 "total_energy": -3108.32427983, 
			 "HOMO_LUMO_gap": 0.1963, 
			 "cosmo_polarized_energy": -9.96, 
			 "cosmo_cavitation_energy": 28.66, 
			 "cosmo_dispersion_energy": -21.49, 
			 "cosmo_repulsion_energy": 1.73, 
			 "cosmo_total_nonelectrostatic_energy": 8.9, 
			 "SMD_solvation_energy": 3.85 
		},
		"coords": [
			{
				"x": -1.6502127709,
				"y": 3.9139797763,
				"z": 0.5884602635,
				"element": "O" 
			},
			{
				"x": -2.8004947604,
				"y": 3.0976180381,
				"z": 0.7413920062,
				"element": "C" 
			},
			{
				"x": -3.095560148,
				"y": 2.4437888714,
				"z": -0.6123878948,
				"element": "C" 
			},
			{
				"x": -2.0410934605,
				"y": 1.4904590625,
				"z": -1.060482784,
				"element": "C" 
			},
			{
				"x": -1.1753574136,
				"y": 1.4890071944,
				"z": -2.1078821366,
				"element": "C" 
			},
			{
				"x": -0.3966437686,
				"y": 0.2804549224,
				"z": -1.9983602757,
				"element": "C" 
			},
			{
				"x": -0.8788597017,
				"y": -0.3703798215,
				"z": -0.8465798034,
				"element": "C" 
			},
			{
				"x": -1.8819315316,
				"y": 0.3639029102,
				"z": -0.2750576611,
				"element": "O" 
			},
			{
				"x": -0.3863751245,
				"y": -1.5845044242,
				"z": -0.387836794,
				"element": "C" 
			},
			{
				"x": 0.6428217852,
				"y": -2.168160092,
				"z": -1.1265849145,
				"element": "C" 
			},
			{
				"x": 1.134899926,
				"y": -1.5303102639,
				"z": -2.2771851578,
				"element": "C" 
			},
			{
				"x": 2.5504253207,
				"y": -2.3785300984,
				"z": -3.2529203576,
				"element": "Br" 
			},
			{
				"x": 0.6385261304,
				"y": -0.3146337489,
				"z": -2.7342565406,
				"element": "C" 
			},
			{
				"x": -1.3897851226,
				"y": 4.2373916178,
				"z": 1.4593755743,
				"element": "H" 
			},
			{
				"x": -3.6789975608,
				"y": 3.6884540195,
				"z": 1.046530563,
				"element": "H" 
			},
			{
				"x": -2.6461044649,
				"y": 2.3132982205,
				"z": 1.497151483,
				"element": "H" 
			},
			{
				"x": -3.2020817675,
				"y": 3.2278053862,
				"z": -1.3680207704,
				"element": "H" 
			},
			{
				"x": -4.0576761722,
				"y": 1.9199336454,
				"z": -0.5398731237,
				"element": "H" 
			},
			{
				"x": -1.0940098369,
				"y": 2.2592015018,
				"z": -2.8610100657,
				"element": "H" 
			},
			{
				"x": -0.7831621174,
				"y": -2.0575718444,
				"z": 0.5037142924,
				"element": "H" 
			},
			{
				"x": 1.0671586067,
				"y": -3.1156370615,
				"z": -0.8167073151,
				"element": "H" 
			},
			{
				"x": 1.0423139531,
				"y": 0.1497321886,
				"z": -3.6263785875,
				"element": "H" 
			}
		],
		 "valence_orbital": [ 
			{
				"type": "occ",
				"energy": -0.29246,
				"method": "rhf"
			},
			{
				"type": "occ",
				"energy": -0.27988,
				"method": "rhf"
			},
			{
				"type": "occ",
				"energy": -0.27488,
				"method": "rhf"
			},
			{
				"type": "occ",
				"energy": -0.22886,
				"method": "rhf"
			},
			{
				"type": "occ",
				"energy": -0.22053,
				"method": "rhf"
			},
			{
				"type": "unocc",
				"energy": -0.02423,
				"method": "rhf"
			},
			{
				"type": "unocc",
				"energy": 0.00578,
				"method": "rhf"
			},
			{
				"type": "unocc",
				"energy": 0.01334,
				"method": "rhf"
			},
			{
				"type": "unocc",
				"energy": 0.05078,
				"method": "rhf"
			},
			{
				"type": "unocc",
				"energy": 0.07365,
				"method": "rhf"
			}
		],
		"cosmo_sigma_profile": { 
			"-0.025": 0.0,
			"-0.024": 0.0,
			"-0.023": 0.0,
			"-0.022": 0.0,
			"-0.021": 0.0,
			"-0.02": 0.0,
			"-0.019": 0.0,
			"-0.018": 0.0,
			"-0.017": 0.0,
			"-0.016": 0.422234692559,
			"-0.015": 1.26368473233,
			"-0.014": 0.713536910904,
			"-0.013": 1.1990515588,
			"-0.012": 0.935935959409,
			"-0.011": 0.688445553948,
			"-0.01": 1.32054297993,
			"-0.009": 0.755238309813,
			"-0.008": 1.38818750055,
			"-0.007": 6.67231222205,
			"-0.006": 10.0832492624,
			"-0.005": 15.4172550816,
			"-0.004": 18.085743323,
			"-0.003": 18.4939175924,
			"-0.002": 14.5644129529,
			"-0.001": 12.2260564702,
			"0.0": 11.3922048943,
			"0.001": 15.7460830487,
			"0.002": 21.4860800439,
			"0.003": 26.7966375717,
			"0.004": 20.9167615518,
			"0.005": 13.6304447756,
			"0.006": 3.01527769308,
			"0.007": 3.01640569354,
			"0.008": 1.96590766332,
			"0.009": 1.59413585626,
			"0.01": 1.23015228514,
			"0.011": 1.78564100396,
			"0.012": 1.62407801351,
			"0.013": 2.05351825674,
			"0.014": 1.01477908505,
			"0.015": 0.0854801547074,
			"0.016": 0.0,
			"0.017": 0.0,
			"0.018": 0.0,
			"0.019": 0.0,
			"0.02": 0.0,
			"0.021": 0.0,
			"0.022": 0.0,
			"0.023": 0.0,
			"0.024": 0.0,
			"0.025": 0.0
		}
	}
}
