{
	 "smiles": "CC(C)=CCCC(C)=CC=CC(C)=CC=CC(C)=C/C=C/C=C(C)/C=C/C=C(C)/C=C/C1=C(C)CCCC1(C)C", 
	 "Tm": 451.15, 
	 "num_atms": 96, 
	 "gaussian": { 
		 "optdone": 1, 
		 "sigma_profile": "yes", 
		 "theory": "DFT", 
		 "functional": "B3LYP", 
		 "basiset": "6-31G**", 
		 "properties": { 
			 "R2extent": 70167.4835, 
			 "electric_dipole_moment_norm": 1.04440120165, 
			 "electric_quadrupole_moment_norm": 18.1725651241, 
			 "total_energy": -1557.92536832, 
			 "HOMO_LUMO_gap": 0.08328, 
			 "cosmo_polarized_energy": -11.92, 
			 "cosmo_cavitation_energy": 95.52, 
			 "cosmo_dispersion_energy": -63.31, 
			 "cosmo_repulsion_energy": 4.8, 
			 "cosmo_total_nonelectrostatic_energy": 37.02, 
			 "SMD_solvation_energy": 16.09 
		},
		"coords": [
			{
				"x": -0.6976577023,
				"y": 8.4965363992,
				"z": 0.2235077989,
				"element": "C" 
			},
			{
				"x": -0.6350535425,
				"y": 9.0362091518,
				"z": -1.184513883,
				"element": "C" 
			},
			{
				"x": -1.9062894302,
				"y": 8.8517783298,
				"z": -1.9798754199,
				"element": "C" 
			},
			{
				"x": 0.4318963083,
				"y": 9.6448174751,
				"z": -1.7284041331,
				"element": "C" 
			},
			{
				"x": 1.7626342071,
				"y": 9.9557189227,
				"z": -1.0989229299,
				"element": "C" 
			},
			{
				"x": 2.9977636418,
				"y": 9.3907117368,
				"z": -1.8588285428,
				"element": "C" 
			},
			{
				"x": 3.1563266391,
				"y": 7.8856277943,
				"z": -1.7924677452,
				"element": "C" 
			},
			{
				"x": 2.38835128,
				"y": 7.0906811647,
				"z": -2.8158489422,
				"element": "C" 
			},
			{
				"x": 3.9566527439,
				"y": 7.3406611089,
				"z": -0.8434637159,
				"element": "C" 
			},
			{
				"x": 4.21864434,
				"y": 5.9405061339,
				"z": -0.5993009793,
				"element": "C" 
			},
			{
				"x": 5.0423072682,
				"y": 5.5013840047,
				"z": 0.3887411386,
				"element": "C" 
			},
			{
				"x": 5.3579927,
				"y": 4.1249182808,
				"z": 0.7190336227,
				"element": "C" 
			},
			{
				"x": 4.8186195212,
				"y": 3.0207010804,
				"z": -0.1575966312,
				"element": "C" 
			},
			{
				"x": 6.1632952628,
				"y": 3.8969602629,
				"z": 1.8052746923,
				"element": "C" 
			},
			{
				"x": 6.6133950198,
				"y": 2.6648625685,
				"z": 2.4079745705,
				"element": "C" 
			},
			{
				"x": 6.0385867124,
				"y": 1.4272308616,
				"z": 2.3593251866,
				"element": "C" 
			},
			{
				"x": 6.5639907555,
				"y": 0.2415998294,
				"z": 2.9984221651,
				"element": "C" 
			},
			{
				"x": 7.8705953088,
				"y": 0.3397634109,
				"z": 3.7521967038,
				"element": "C" 
			},
			{
				"x": 5.9218435081,
				"y": -0.9728660658,
				"z": 2.9436043057,
				"element": "C" 
			},
			{
				"x": 4.6871905223,
				"y": -1.2967554544,
				"z": 2.295385215,
				"element": "C" 
			},
			{
				"x": 4.1386664956,
				"y": -2.5490917628,
				"z": 2.2998513413,
				"element": "C" 
			},
			{
				"x": 2.9053965884,
				"y": -2.8739964786,
				"z": 1.6533015177,
				"element": "C" 
			},
			{
				"x": 2.2708467779,
				"y": -4.0904506422,
				"z": 1.5941163363,
				"element": "C" 
			},
			{
				"x": 2.8164121238,
				"y": -5.3398048865,
				"z": 2.2437211628,
				"element": "C" 
			},
			{
				"x": 1.0221238025,
				"y": -4.177952776,
				"z": 0.8753873254,
				"element": "C" 
			},
			{
				"x": 0.2544428829,
				"y": -5.2934299613,
				"z": 0.70832069,
				"element": "C" 
			},
			{
				"x": -0.9786009153,
				"y": -5.2890167799,
				"z": -0.026113258,
				"element": "C" 
			},
			{
				"x": -1.8284698328,
				"y": -6.3351437353,
				"z": -0.2630567162,
				"element": "C" 
			},
			{
				"x": -1.5826648972,
				"y": -7.7351526425,
				"z": 0.2434534163,
				"element": "C" 
			},
			{
				"x": -3.0300765387,
				"y": -6.0826235847,
				"z": -1.0428495178,
				"element": "C" 
			},
			{
				"x": -3.9909659599,
				"y": -6.9857454175,
				"z": -1.3517924866,
				"element": "C" 
			},
			{
				"x": -5.2232356775,
				"y": -6.7315680162,
				"z": -2.1216913218,
				"element": "C" 
			},
			{
				"x": -5.2367921869,
				"y": -6.0670225864,
				"z": -3.3057898854,
				"element": "C" 
			},
			{
				"x": -4.0041012828,
				"y": -5.5321839449,
				"z": -3.9976761651,
				"element": "C" 
			},
			{
				"x": -6.514683799,
				"y": -5.7929486556,
				"z": -4.077184985,
				"element": "C" 
			},
			{
				"x": -7.7034684572,
				"y": -6.6539682544,
				"z": -3.6491757247,
				"element": "C" 
			},
			{
				"x": -7.7722385517,
				"y": -6.7172828238,
				"z": -2.1259255832,
				"element": "C" 
			},
			{
				"x": -6.5040310116,
				"y": -7.3331227609,
				"z": -1.4914409701,
				"element": "C" 
			},
			{
				"x": -6.5107217303,
				"y": -8.8690822315,
				"z": -1.6900463208,
				"element": "C" 
			},
			{
				"x": -6.5526938855,
				"y": -7.033217958,
				"z": 0.0241535477,
				"element": "C" 
			},
			{
				"x": 0.241952607,
				"y": 8.5977445303,
				"z": 0.7687809548,
				"element": "H" 
			},
			{
				"x": -1.4795003107,
				"y": 9.0093500741,
				"z": 0.7995140492,
				"element": "H" 
			},
			{
				"x": -0.9676935434,
				"y": 7.432571774,
				"z": 0.2157951787,
				"element": "H" 
			},
			{
				"x": -2.7544701637,
				"y": 9.3466615126,
				"z": -1.487957936,
				"element": "H" 
			},
			{
				"x": -2.1730232596,
				"y": 7.7893770528,
				"z": -2.0593279148,
				"element": "H" 
			},
			{
				"x": -1.8189008123,
				"y": 9.2570708858,
				"z": -2.9918420678,
				"element": "H" 
			},
			{
				"x": 0.3337110331,
				"y": 9.9889878197,
				"z": -2.7602456169,
				"element": "H" 
			},
			{
				"x": 1.8809802902,
				"y": 11.0493996947,
				"z": -1.0691110101,
				"element": "H" 
			},
			{
				"x": 1.8058385432,
				"y": 9.6134850112,
				"z": -0.0608797504,
				"element": "H" 
			},
			{
				"x": 2.9401379065,
				"y": 9.7129295353,
				"z": -2.9079701087,
				"element": "H" 
			},
			{
				"x": 3.8899930389,
				"y": 9.8653057748,
				"z": -1.4345960502,
				"element": "H" 
			},
			{
				"x": 2.519918934,
				"y": 6.011920096,
				"z": -2.7144746805,
				"element": "H" 
			},
			{
				"x": 1.3171311899,
				"y": 7.3130263687,
				"z": -2.7496731835,
				"element": "H" 
			},
			{
				"x": 2.702772249,
				"y": 7.372527846,
				"z": -3.8299222264,
				"element": "H" 
			},
			{
				"x": 4.4738102546,
				"y": 8.0302536048,
				"z": -0.1741870325,
				"element": "H" 
			},
			{
				"x": 3.7213043112,
				"y": 5.2137688449,
				"z": -1.2352231542,
				"element": "H" 
			},
			{
				"x": 5.509296583,
				"y": 6.2538394526,
				"z": 1.025253439,
				"element": "H" 
			},
			{
				"x": 4.7587569928,
				"y": 3.3449175923,
				"z": -1.2005163459,
				"element": "H" 
			},
			{
				"x": 5.4594471292,
				"y": 2.1372628056,
				"z": -0.1179940593,
				"element": "H" 
			},
			{
				"x": 3.8084836554,
				"y": 2.7141052616,
				"z": 0.144060964,
				"element": "H" 
			},
			{
				"x": 6.5588050632,
				"y": 4.7906143435,
				"z": 2.2885506111,
				"element": "H" 
			},
			{
				"x": 7.5081716569,
				"y": 2.7756579546,
				"z": 3.0183038979,
				"element": "H" 
			},
			{
				"x": 5.0977262152,
				"y": 1.3180145062,
				"z": 1.8330023039,
				"element": "H" 
			},
			{
				"x": 7.8039720294,
				"y": 1.0592088944,
				"z": 4.5778435448,
				"element": "H" 
			},
			{
				"x": 8.1563943305,
				"y": -0.6268485334,
				"z": 4.1738923407,
				"element": "H" 
			},
			{
				"x": 8.6852065237,
				"y": 0.679038972,
				"z": 3.1010084919,
				"element": "H" 
			},
			{
				"x": 6.4053037884,
				"y": -1.8054538854,
				"z": 3.4544975926,
				"element": "H" 
			},
			{
				"x": 4.1474795818,
				"y": -0.5121166396,
				"z": 1.7686638728,
				"element": "H" 
			},
			{
				"x": 4.6769274746,
				"y": -3.3350286774,
				"z": 2.8261383356,
				"element": "H" 
			},
			{
				"x": 2.4138993102,
				"y": -2.0438224753,
				"z": 1.1448352849,
				"element": "H" 
			},
			{
				"x": 3.761363171,
				"y": -5.1677405922,
				"z": 2.7594608953,
				"element": "H" 
			},
			{
				"x": 2.982901155,
				"y": -6.1259331065,
				"z": 1.497661572,
				"element": "H" 
			},
			{
				"x": 2.1055463592,
				"y": -5.7402195487,
				"z": 2.9762774482,
				"element": "H" 
			},
			{
				"x": 0.6687420714,
				"y": -3.2498288129,
				"z": 0.425078002,
				"element": "H" 
			},
			{
				"x": 0.587690336,
				"y": -6.2287498491,
				"z": 1.1488448691,
				"element": "H" 
			},
			{
				"x": -1.2645124385,
				"y": -4.3235515744,
				"z": -0.4451632092,
				"element": "H" 
			},
			{
				"x": -0.650146197,
				"y": -7.8234602749,
				"z": 0.8015329184,
				"element": "H" 
			},
			{
				"x": -1.5440023669,
				"y": -8.4492553763,
				"z": -0.5876982254,
				"element": "H" 
			},
			{
				"x": -2.396633158,
				"y": -8.0600540662,
				"z": 0.903132544,
				"element": "H" 
			},
			{
				"x": -3.1577087865,
				"y": -5.0564264629,
				"z": -1.3828272155,
				"element": "H" 
			},
			{
				"x": -3.8929475976,
				"y": -7.9905413343,
				"z": -0.9429290936,
				"element": "H" 
			},
			{
				"x": -4.0410297615,
				"y": -5.7723195037,
				"z": -5.0677719335,
				"element": "H" 
			},
			{
				"x": -3.952219543,
				"y": -4.4361543782,
				"z": -3.9326022513,
				"element": "H" 
			},
			{
				"x": -3.0777657576,
				"y": -5.9328238391,
				"z": -3.585771295,
				"element": "H" 
			},
			{
				"x": -6.3191789267,
				"y": -5.9226338266,
				"z": -5.1499450956,
				"element": "H" 
			},
			{
				"x": -6.7678253316,
				"y": -4.7264007181,
				"z": -3.959602705,
				"element": "H" 
			},
			{
				"x": -8.6345709979,
				"y": -6.2475048367,
				"z": -4.0611390751,
				"element": "H" 
			},
			{
				"x": -7.5957879939,
				"y": -7.6634654114,
				"z": -4.0642678704,
				"element": "H" 
			},
			{
				"x": -8.6488340686,
				"y": -7.2894029712,
				"z": -1.7962632202,
				"element": "H" 
			},
			{
				"x": -7.9017050254,
				"y": -5.6979039523,
				"z": -1.7367072784,
				"element": "H" 
			},
			{
				"x": -7.3926409514,
				"y": -9.3113455126,
				"z": -1.2116176973,
				"element": "H" 
			},
			{
				"x": -5.6284114178,
				"y": -9.338857184,
				"z": -1.2437378001,
				"element": "H" 
			},
			{
				"x": -6.5255211064,
				"y": -9.1404091045,
				"z": -2.7495449933,
				"element": "H" 
			},
			{
				"x": -6.4893253587,
				"y": -5.9566605868,
				"z": 0.2139324429,
				"element": "H" 
			},
			{
				"x": -7.4955568611,
				"y": -7.3975285464,
				"z": 0.448703976,
				"element": "H" 
			},
			{
				"x": -5.7347810576,
				"y": -7.5141397245,
				"z": 0.5680396866,
				"element": "H" 
			}
		],
		 "valence_orbital": [ 
			{
				"type": "occ",
				"energy": -0.23353,
				"method": "rhf"
			},
			{
				"type": "occ",
				"energy": -0.22719,
				"method": "rhf"
			},
			{
				"type": "occ",
				"energy": -0.20847,
				"method": "rhf"
			},
			{
				"type": "occ",
				"energy": -0.18528,
				"method": "rhf"
			},
			{
				"type": "occ",
				"energy": -0.16162,
				"method": "rhf"
			},
			{
				"type": "unocc",
				"energy": -0.07834,
				"method": "rhf"
			},
			{
				"type": "unocc",
				"energy": -0.04727,
				"method": "rhf"
			},
			{
				"type": "unocc",
				"energy": -0.01558,
				"method": "rhf"
			},
			{
				"type": "unocc",
				"energy": 0.01363,
				"method": "rhf"
			},
			{
				"type": "unocc",
				"energy": 0.02895,
				"method": "rhf"
			}
		],
		"cosmo_sigma_profile": { 
			"-0.025": 0.0,
			"-0.024": 0.0,
			"-0.023": 0.0,
			"-0.022": 0.0,
			"-0.021": 0.0,
			"-0.02": 0.0,
			"-0.019": 0.0,
			"-0.018": 0.0,
			"-0.017": 0.0,
			"-0.016": 0.0,
			"-0.015": 0.0,
			"-0.014": 0.0,
			"-0.013": 0.0,
			"-0.012": 0.0,
			"-0.011": 0.0,
			"-0.01": 0.0,
			"-0.009": 0.0,
			"-0.008": 0.0,
			"-0.007": 0.381297778719,
			"-0.006": 6.03828584369,
			"-0.005": 20.7664848074,
			"-0.004": 50.5896673152,
			"-0.003": 85.1328329093,
			"-0.002": 93.6991158758,
			"-0.001": 98.4432217898,
			"0.0": 99.4966126984,
			"0.001": 92.5366472938,
			"0.002": 50.2459682637,
			"0.003": 34.4545082304,
			"0.004": 37.0489360643,
			"0.005": 42.0352537854,
			"0.006": 32.5267654141,
			"0.007": 3.47826564342,
			"0.008": 8.17467729385e-06,
			"0.009": 0.0,
			"0.01": 0.0,
			"0.011": 0.0,
			"0.012": 0.0,
			"0.013": 0.0,
			"0.014": 0.0,
			"0.015": 0.0,
			"0.016": 0.0,
			"0.017": 0.0,
			"0.018": 0.0,
			"0.019": 0.0,
			"0.02": 0.0,
			"0.021": 0.0,
			"0.022": 0.0,
			"0.023": 0.0,
			"0.024": 0.0,
			"0.025": 0.0
		}
	}
}
