{
	 "smiles": "CS(=O)(=O)CCCOC1=C2CCC(O)C2=CC=C1", 
	 "Tm": 351.15, 
	 "num_atms": 36, 
	 "gaussian": { 
		 "optdone": 1, 
		 "sigma_profile": "yes", 
		 "theory": "DFT", 
		 "functional": "B3LYP", 
		 "basiset": "6-31G**", 
		 "properties": { 
			 "R2extent": 7536.8838, 
			 "electric_dipole_moment_norm": 3.14735225388, 
			 "electric_quadrupole_moment_norm": 33.7341033874, 
			 "total_energy": -1205.24317869, 
			 "HOMO_LUMO_gap": 0.21891, 
			 "cosmo_polarized_energy": -20.86, 
			 "cosmo_cavitation_energy": 38.18, 
			 "cosmo_dispersion_energy": -27.31, 
			 "cosmo_repulsion_energy": 2.05, 
			 "cosmo_total_nonelectrostatic_energy": 12.93, 
			 "SMD_solvation_energy": 5.46 
		},
		"coords": [
			{
				"x": -1.0893150084,
				"y": 0.9754122217,
				"z": 4.9492077264,
				"element": "C" 
			},
			{
				"x": -0.2614858867,
				"y": 2.4418961426,
				"z": 4.2880256239,
				"element": "S" 
			},
			{
				"x": -1.1735045371,
				"y": 3.5828716286,
				"z": 4.467496598,
				"element": "O" 
			},
			{
				"x": 1.1037542006,
				"y": 2.4818141294,
				"z": 4.8450592163,
				"element": "O" 
			},
			{
				"x": -0.1393989978,
				"y": 2.1266181677,
				"z": 2.487404149,
				"element": "C" 
			},
			{
				"x": 1.1807841932,
				"y": 1.5024216808,
				"z": 2.0266457051,
				"element": "C" 
			},
			{
				"x": 1.5005626595,
				"y": 0.1236394396,
				"z": 2.6064340231,
				"element": "C" 
			},
			{
				"x": 0.4253522361,
				"y": -0.8153889515,
				"z": 2.4898643469,
				"element": "O" 
			},
			{
				"x": -0.0812819741,
				"y": -1.1913416735,
				"z": 1.2638582803,
				"element": "C" 
			},
			{
				"x": 0.6491150395,
				"y": -1.4061652249,
				"z": 0.0836138834,
				"element": "C" 
			},
			{
				"x": 2.1346310038,
				"y": -1.279779199,
				"z": -0.231872424,
				"element": "C" 
			},
			{
				"x": 2.1807548559,
				"y": -1.3369777123,
				"z": -1.7772594927,
				"element": "C" 
			},
			{
				"x": 0.9267630662,
				"y": -2.134867843,
				"z": -2.1962521987,
				"element": "C" 
			},
			{
				"x": 0.4153780298,
				"y": -1.8241454992,
				"z": -3.4828580628,
				"element": "O" 
			},
			{
				"x": -0.0333383618,
				"y": -1.8868840158,
				"z": -1.0469523743,
				"element": "C" 
			},
			{
				"x": -1.4019682465,
				"y": -2.1327939729,
				"z": -1.0530813199,
				"element": "C" 
			},
			{
				"x": -2.1191993682,
				"y": -1.8997743174,
				"z": 0.1223340663,
				"element": "C" 
			},
			{
				"x": -1.4645006088,
				"y": -1.4381187567,
				"z": 1.2620319575,
				"element": "C" 
			},
			{
				"x": -1.0313179653,
				"y": 1.0613807291,
				"z": 6.0357608016,
				"element": "H" 
			},
			{
				"x": -2.1307909818,
				"y": 0.9873521746,
				"z": 4.6241113224,
				"element": "H" 
			},
			{
				"x": -0.5839092943,
				"y": 0.0740463741,
				"z": 4.6005036269,
				"element": "H" 
			},
			{
				"x": -0.2698990221,
				"y": 3.1231126203,
				"z": 2.0566955533,
				"element": "H" 
			},
			{
				"x": -1.0074223587,
				"y": 1.5222028011,
				"z": 2.2098963313,
				"element": "H" 
			},
			{
				"x": 2.0075460963,
				"y": 2.1698519868,
				"z": 2.2903958409,
				"element": "H" 
			},
			{
				"x": 1.143719687,
				"y": 1.4490921073,
				"z": 0.93193925,
				"element": "H" 
			},
			{
				"x": 1.6728030908,
				"y": 0.2058237526,
				"z": 3.6813353283,
				"element": "H" 
			},
			{
				"x": 2.4184963983,
				"y": -0.2696260441,
				"z": 2.1599070442,
				"element": "H" 
			},
			{
				"x": 2.6923394271,
				"y": -2.1164983703,
				"z": 0.2104062269,
				"element": "H" 
			},
			{
				"x": 2.5965274389,
				"y": -0.3636976393,
				"z": 0.1446959884,
				"element": "H" 
			},
			{
				"x": 3.1083582793,
				"y": -1.7611941954,
				"z": -2.1694393084,
				"element": "H" 
			},
			{
				"x": 2.0861840258,
				"y": -0.3213574342,
				"z": -2.1831172782,
				"element": "H" 
			},
			{
				"x": 1.1617606657,
				"y": -3.2062596585,
				"z": -2.2514785509,
				"element": "H" 
			},
			{
				"x": 0.0954612691,
				"y": -0.9115740976,
				"z": -3.4537194877,
				"element": "H" 
			},
			{
				"x": -1.887022657,
				"y": -2.4979911306,
				"z": -1.9530229681,
				"element": "H" 
			},
			{
				"x": -3.1900979487,
				"y": -2.0782231855,
				"z": 0.1570982179,
				"element": "H" 
			},
			{
				"x": -2.0094384456,
				"y": -1.2684770345,
				"z": 2.1854323576,
				"element": "H" 
			}
		],
		 "valence_orbital": [ 
			{
				"type": "occ",
				"energy": -0.29237,
				"method": "rhf"
			},
			{
				"type": "occ",
				"energy": -0.28312,
				"method": "rhf"
			},
			{
				"type": "occ",
				"energy": -0.27637,
				"method": "rhf"
			},
			{
				"type": "occ",
				"energy": -0.24887,
				"method": "rhf"
			},
			{
				"type": "occ",
				"energy": -0.2323,
				"method": "rhf"
			},
			{
				"type": "unocc",
				"energy": -0.01339,
				"method": "rhf"
			},
			{
				"type": "unocc",
				"energy": -0.00749,
				"method": "rhf"
			},
			{
				"type": "unocc",
				"energy": 0.0517,
				"method": "rhf"
			},
			{
				"type": "unocc",
				"energy": 0.06541,
				"method": "rhf"
			},
			{
				"type": "unocc",
				"energy": 0.07152,
				"method": "rhf"
			}
		],
		"cosmo_sigma_profile": { 
			"-0.025": 0.0,
			"-0.024": 0.0,
			"-0.023": 0.0,
			"-0.022": 0.0,
			"-0.021": 0.0,
			"-0.02": 0.0,
			"-0.019": 0.0,
			"-0.018": 0.0,
			"-0.017": 0.0,
			"-0.016": 0.0,
			"-0.015": 0.493128920182,
			"-0.014": 0.81017255879,
			"-0.013": 1.01847628718,
			"-0.012": 0.643595457687,
			"-0.011": 0.860164589742,
			"-0.01": 1.39278677274,
			"-0.009": 2.84901537522,
			"-0.008": 6.17684165145,
			"-0.007": 8.37953219297,
			"-0.006": 13.5585282087,
			"-0.005": 24.0786159207,
			"-0.004": 36.9835793666,
			"-0.003": 34.4252241305,
			"-0.002": 24.7139877775,
			"-0.001": 18.3226480582,
			"0.0": 16.954464918,
			"0.001": 9.51919366168,
			"0.002": 10.5496108125,
			"0.003": 10.0537993526,
			"0.004": 10.9950332637,
			"0.005": 11.5936864272,
			"0.006": 8.63500615805,
			"0.007": 4.40132497204,
			"0.008": 3.21642957522,
			"0.009": 6.35083190211,
			"0.01": 5.88153210774,
			"0.011": 7.25021294414,
			"0.012": 11.4333671434,
			"0.013": 6.16319029338,
			"0.014": 1.95578931199,
			"0.015": 0.297355828083,
			"0.016": 0.0,
			"0.017": 0.0,
			"0.018": 0.0,
			"0.019": 0.0,
			"0.02": 0.0,
			"0.021": 0.0,
			"0.022": 0.0,
			"0.023": 0.0,
			"0.024": 0.0,
			"0.025": 0.0
		}
	}
}
