{
	 "smiles": "C1C2OC2C2=CC=CC=C12", 
	 "Tm": 297.65, 
	 "num_atms": 18, 
	 "gaussian": { 
		 "optdone": 1, 
		 "sigma_profile": "yes", 
		 "theory": "DFT", 
		 "functional": "B3LYP", 
		 "basiset": "6-31G**", 
		 "properties": { 
			 "R2extent": 1336.2652, 
			 "electric_dipole_moment_norm": 1.95171941887, 
			 "electric_quadrupole_moment_norm": 9.59560291384, 
			 "total_energy": -422.959656703, 
			 "HOMO_LUMO_gap": 0.22828, 
			 "cosmo_polarized_energy": -6.99, 
			 "cosmo_cavitation_energy": 20.99, 
			 "cosmo_dispersion_energy": -16.09, 
			 "cosmo_repulsion_energy": 1.3, 
			 "cosmo_total_nonelectrostatic_energy": 6.2, 
			 "SMD_solvation_energy": 2.83 
		},
		"coords": [
			{
				"x": -0.7620984252,
				"y": -0.7133902865,
				"z": 2.1080869581,
				"element": "C" 
			},
			{
				"x": -1.9055313511,
				"y": 0.1934807788,
				"z": 1.6602489431,
				"element": "C" 
			},
			{
				"x": -2.6391645232,
				"y": -0.3135917941,
				"z": 0.540672843,
				"element": "O" 
			},
			{
				"x": -1.621106945,
				"y": 0.6913209454,
				"z": 0.2982271601,
				"element": "C" 
			},
			{
				"x": -0.3203622448,
				"y": 0.096969455,
				"z": -0.1234266026,
				"element": "C" 
			},
			{
				"x": 0.3901238348,
				"y": 0.2622577183,
				"z": -1.3082027389,
				"element": "C" 
			},
			{
				"x": 1.5881787395,
				"y": -0.4405076317,
				"z": -1.4792145381,
				"element": "C" 
			},
			{
				"x": 2.0532477229,
				"y": -1.2973028283,
				"z": -0.4785489068,
				"element": "C" 
			},
			{
				"x": 1.3367538438,
				"y": -1.4601778372,
				"z": 0.7141889003,
				"element": "C" 
			},
			{
				"x": 0.154509684,
				"y": -0.7501711318,
				"z": 0.8947418527,
				"element": "C" 
			},
			{
				"x": -0.2521310299,
				"y": -0.2924769056,
				"z": 2.9842623969,
				"element": "H" 
			},
			{
				"x": -1.12996946,
				"y": -1.7066377774,
				"z": 2.3906947358,
				"element": "H" 
			},
			{
				"x": -2.4872026791,
				"y": 0.7548791886,
				"z": 2.3889059885,
				"element": "H" 
			},
			{
				"x": -1.9841466877,
				"y": 1.6383537565,
				"z": -0.0938584746,
				"element": "H" 
			},
			{
				"x": 0.0202731645,
				"y": 0.9198949165,
				"z": -2.0903830634,
				"element": "H" 
			},
			{
				"x": 2.1563033915,
				"y": -0.3244300502,
				"z": -2.3976556424,
				"element": "H" 
			},
			{
				"x": 2.9842579832,
				"y": -1.8380750185,
				"z": -0.6235155037,
				"element": "H" 
			},
			{
				"x": 1.7127649817,
				"y": -2.1212954976,
				"z": 1.4908756919,
				"element": "H" 
			}
		],
		 "valence_orbital": [ 
			{
				"type": "occ",
				"energy": -0.33548,
				"method": "rhf"
			},
			{
				"type": "occ",
				"energy": -0.30736,
				"method": "rhf"
			},
			{
				"type": "occ",
				"energy": -0.26229,
				"method": "rhf"
			},
			{
				"type": "occ",
				"energy": -0.24797,
				"method": "rhf"
			},
			{
				"type": "occ",
				"energy": -0.23629,
				"method": "rhf"
			},
			{
				"type": "unocc",
				"energy": -0.00801,
				"method": "rhf"
			},
			{
				"type": "unocc",
				"energy": -0.00262,
				"method": "rhf"
			},
			{
				"type": "unocc",
				"energy": 0.09404,
				"method": "rhf"
			},
			{
				"type": "unocc",
				"energy": 0.10502,
				"method": "rhf"
			},
			{
				"type": "unocc",
				"energy": 0.11764,
				"method": "rhf"
			}
		],
		"cosmo_sigma_profile": { 
			"-0.025": 0.0,
			"-0.024": 0.0,
			"-0.023": 0.0,
			"-0.022": 0.0,
			"-0.021": 0.0,
			"-0.02": 0.0,
			"-0.019": 0.0,
			"-0.018": 0.0,
			"-0.017": 0.0,
			"-0.016": 0.0,
			"-0.015": 0.0,
			"-0.014": 0.0,
			"-0.013": 0.0,
			"-0.012": 0.0,
			"-0.011": 0.0,
			"-0.01": 0.0,
			"-0.009": 0.0,
			"-0.008": 0.112066712562,
			"-0.007": 2.87569436006,
			"-0.006": 8.68365616268,
			"-0.005": 18.1900543187,
			"-0.004": 17.8249088595,
			"-0.003": 18.437285352,
			"-0.002": 15.1286243126,
			"-0.001": 11.726291743,
			"0.0": 9.0176923526,
			"0.001": 7.54874799206,
			"0.002": 7.66781977207,
			"0.003": 7.44139538603,
			"0.004": 9.57546622368,
			"0.005": 9.72202726701,
			"0.006": 8.630909456,
			"0.007": 2.38147371003,
			"0.008": 1.44028201272,
			"0.009": 1.78809505858,
			"0.01": 1.86745643467,
			"0.011": 3.3766110449,
			"0.012": 3.15363505779,
			"0.013": 0.857816082683,
			"0.014": 0.0,
			"0.015": 0.0,
			"0.016": 0.0,
			"0.017": 0.0,
			"0.018": 0.0,
			"0.019": 0.0,
			"0.02": 0.0,
			"0.021": 0.0,
			"0.022": 0.0,
			"0.023": 0.0,
			"0.024": 0.0,
			"0.025": 0.0
		}
	}
}
