{
	 "smiles": "CC(Cl)C(=O)NC1=C(C=CC=C1)C(=O)NCC1=CC=CO1", 
	 "Tm": 376.15, 
	 "num_atms": 36, 
	 "gaussian": { 
		 "optdone": 1, 
		 "sigma_profile": "yes", 
		 "theory": "DFT", 
		 "functional": "B3LYP", 
		 "basiset": "6-31G**", 
		 "properties": { 
			 "R2extent": 7230.6545, 
			 "electric_dipole_moment_norm": 5.16865405884, 
			 "electric_quadrupole_moment_norm": 22.8841147862, 
			 "total_energy": -1376.00608111, 
			 "HOMO_LUMO_gap": 0.18231, 
			 "cosmo_polarized_energy": -18.9, 
			 "cosmo_cavitation_energy": 42.42, 
			 "cosmo_dispersion_energy": -28.12, 
			 "cosmo_repulsion_energy": 2.15, 
			 "cosmo_total_nonelectrostatic_energy": 16.45, 
			 "SMD_solvation_energy": 8.08 
		},
		"coords": [
			{
				"x": 1.962057643,
				"y": -0.4857514863,
				"z": -4.5113360655,
				"element": "C" 
			},
			{
				"x": 1.256725357,
				"y": -0.1763250824,
				"z": -3.2045879127,
				"element": "C" 
			},
			{
				"x": 1.0203874812,
				"y": -1.723753311,
				"z": -2.2316092387,
				"element": "Cl" 
			},
			{
				"x": 2.078423037,
				"y": 0.780936546,
				"z": -2.3218600465,
				"element": "C" 
			},
			{
				"x": 3.2863929151,
				"y": 0.8709259145,
				"z": -2.4695804608,
				"element": "O" 
			},
			{
				"x": 1.4356375095,
				"y": 1.4875445506,
				"z": -1.3274570972,
				"element": "N" 
			},
			{
				"x": 0.0701841625,
				"y": 1.5549965251,
				"z": -0.9808213694,
				"element": "C" 
			},
			{
				"x": -0.3173146295,
				"y": 1.3681985752,
				"z": 0.3680357094,
				"element": "C" 
			},
			{
				"x": -1.666483498,
				"y": 1.5122991008,
				"z": 0.7176140417,
				"element": "C" 
			},
			{
				"x": -2.6356210473,
				"y": 1.8050555663,
				"z": -0.2401167288,
				"element": "C" 
			},
			{
				"x": -2.2499108109,
				"y": 1.984201398,
				"z": -1.5684494089,
				"element": "C" 
			},
			{
				"x": -0.9081044915,
				"y": 1.8801292493,
				"z": -1.9304290949,
				"element": "C" 
			},
			{
				"x": 0.7296161496,
				"y": 1.1536417383,
				"z": 1.4241316372,
				"element": "C" 
			},
			{
				"x": 1.7833688959,
				"y": 1.794598089,
				"z": 1.4078736328,
				"element": "O" 
			},
			{
				"x": 0.4537773318,
				"y": 0.2843718414,
				"z": 2.4455543479,
				"element": "N" 
			},
			{
				"x": -0.4161152403,
				"y": -0.9024163611,
				"z": 2.4043219218,
				"element": "C" 
			},
			{
				"x": 0.3537863038,
				"y": -2.1759433839,
				"z": 2.5114635543,
				"element": "C" 
			},
			{
				"x": 0.6964072172,
				"y": -3.1526840409,
				"z": 1.6241725934,
				"element": "C" 
			},
			{
				"x": 1.4858887277,
				"y": -4.1045181947,
				"z": 2.3503836396,
				"element": "C" 
			},
			{
				"x": 1.569736637,
				"y": -3.6333730146,
				"z": 3.6238974835,
				"element": "C" 
			},
			{
				"x": 0.8843725387,
				"y": -2.4591661069,
				"z": 3.7442715479,
				"element": "O" 
			},
			{
				"x": 1.4042435783,
				"y": -1.2312053492,
				"z": -5.081975523,
				"element": "H" 
			},
			{
				"x": 2.9746847887,
				"y": -0.8423384382,
				"z": -4.3207867009,
				"element": "H" 
			},
			{
				"x": 2.0339382489,
				"y": 0.4320414676,
				"z": -5.10541399,
				"element": "H" 
			},
			{
				"x": 0.242380221,
				"y": 0.1776609811,
				"z": -3.3704210529,
				"element": "H" 
			},
			{
				"x": 2.0637692852,
				"y": 1.8383064795,
				"z": -0.6058859708,
				"element": "H" 
			},
			{
				"x": -1.951841121,
				"y": 1.4101747187,
				"z": 1.760167598,
				"element": "H" 
			},
			{
				"x": -3.6753438007,
				"y": 1.9136193922,
				"z": 0.0515699466,
				"element": "H" 
			},
			{
				"x": -2.9879371734,
				"y": 2.2403546145,
				"z": -2.3227312507,
				"element": "H" 
			},
			{
				"x": -0.605120538,
				"y": 2.1008062854,
				"z": -2.9484831131,
				"element": "H" 
			},
			{
				"x": 1.2162083885,
				"y": 0.2379349964,
				"z": 3.1126943693,
				"element": "H" 
			},
			{
				"x": -1.1488822806,
				"y": -0.8429681666,
				"z": 3.2189675124,
				"element": "H" 
			},
			{
				"x": -0.9648812549,
				"y": -0.9025793071,
				"z": 1.4629327972,
				"element": "H" 
			},
			{
				"x": 0.4282107556,
				"y": -3.1845189228,
				"z": 0.5778487293,
				"element": "H" 
			},
			{
				"x": 1.9295539378,
				"y": -5.0130004071,
				"z": 1.9696584549,
				"element": "H" 
			},
			{
				"x": 2.0486047749,
				"y": -3.9921564569,
				"z": 4.5216855073,
				"element": "H" 
			}
		],
		 "valence_orbital": [ 
			{
				"type": "occ",
				"energy": -0.27179,
				"method": "rhf"
			},
			{
				"type": "occ",
				"energy": -0.25865,
				"method": "rhf"
			},
			{
				"type": "occ",
				"energy": -0.25667,
				"method": "rhf"
			},
			{
				"type": "occ",
				"energy": -0.23712,
				"method": "rhf"
			},
			{
				"type": "occ",
				"energy": -0.23076,
				"method": "rhf"
			},
			{
				"type": "unocc",
				"energy": -0.04845,
				"method": "rhf"
			},
			{
				"type": "unocc",
				"energy": -0.03294,
				"method": "rhf"
			},
			{
				"type": "unocc",
				"energy": -0.01297,
				"method": "rhf"
			},
			{
				"type": "unocc",
				"energy": 0.00085,
				"method": "rhf"
			},
			{
				"type": "unocc",
				"energy": 0.03571,
				"method": "rhf"
			}
		],
		"cosmo_sigma_profile": { 
			"-0.025": 0.0,
			"-0.024": 0.0,
			"-0.023": 0.0,
			"-0.022": 0.0,
			"-0.021": 0.0,
			"-0.02": 0.0,
			"-0.019": 0.0,
			"-0.018": 0.0,
			"-0.017": 0.0,
			"-0.016": 0.0,
			"-0.015": 0.0,
			"-0.014": 0.0,
			"-0.013": 0.351419368982,
			"-0.012": 0.886945536218,
			"-0.011": 0.571600464211,
			"-0.01": 1.5346448654,
			"-0.009": 4.17537811002,
			"-0.008": 5.77962396852,
			"-0.007": 12.1231719075,
			"-0.006": 20.4678279047,
			"-0.005": 25.124891861,
			"-0.004": 27.7621900425,
			"-0.003": 21.467366826,
			"-0.002": 22.5122342487,
			"-0.001": 26.5517915834,
			"0.0": 20.847364256,
			"0.001": 22.5081782467,
			"0.002": 24.1773124812,
			"0.003": 27.2824738327,
			"0.004": 19.6767023409,
			"0.005": 14.5043374452,
			"0.006": 11.9356605773,
			"0.007": 3.81199354726,
			"0.008": 3.14641351646,
			"0.009": 3.45701970236,
			"0.01": 2.18854106249,
			"0.011": 4.0616634339,
			"0.012": 8.0326195145,
			"0.013": 5.02559907621,
			"0.014": 0.574793889628,
			"0.015": 0.0,
			"0.016": 0.0,
			"0.017": 0.0,
			"0.018": 0.0,
			"0.019": 0.0,
			"0.02": 0.0,
			"0.021": 0.0,
			"0.022": 0.0,
			"0.023": 0.0,
			"0.024": 0.0,
			"0.025": 0.0
		}
	}
}
