{
	 "smiles": "C[C@@H](N)[C@@H](O)C1=CC=CC=C1", 
	 "Tm": 465.15, 
	 "num_atms": 24, 
	 "gaussian": { 
		 "optdone": 1, 
		 "sigma_profile": "yes", 
		 "theory": "DFT", 
		 "functional": "B3LYP", 
		 "basiset": "6-31G**", 
		 "properties": { 
			 "R2extent": 2006.2432, 
			 "electric_dipole_moment_norm": 0.812989403375, 
			 "electric_quadrupole_moment_norm": 6.27750230506, 
			 "total_energy": -480.761817315, 
			 "HOMO_LUMO_gap": 0.23508, 
			 "cosmo_polarized_energy": -10.34, 
			 "cosmo_cavitation_energy": 26.35, 
			 "cosmo_dispersion_energy": -18.98, 
			 "cosmo_repulsion_energy": 1.55, 
			 "cosmo_total_nonelectrostatic_energy": 8.92, 
			 "SMD_solvation_energy": 3.92 
		},
		"coords": [
			{
				"x": 0.9651445519,
				"y": 1.5536032903,
				"z": 2.6916084467,
				"element": "C" 
			},
			{
				"x": 0.7106739918,
				"y": 1.2489539263,
				"z": 1.2082949242,
				"element": "C" 
			},
			{
				"x": 1.763148632,
				"y": 1.7469136476,
				"z": 0.31156275,
				"element": "N" 
			},
			{
				"x": 0.5420370713,
				"y": -0.268681328,
				"z": 0.9502868302,
				"element": "C" 
			},
			{
				"x": -0.3255945254,
				"y": -0.7666561904,
				"z": 1.9679285684,
				"element": "O" 
			},
			{
				"x": 0.0079806635,
				"y": -0.5749307816,
				"z": -0.4408445284,
				"element": "C" 
			},
			{
				"x": -1.3732265916,
				"y": -0.6567605255,
				"z": -0.6613358745,
				"element": "C" 
			},
			{
				"x": -1.8757503924,
				"y": -0.9290876945,
				"z": -1.935162935,
				"element": "C" 
			},
			{
				"x": -1.0021820361,
				"y": -1.1229615464,
				"z": -3.0061076043,
				"element": "C" 
			},
			{
				"x": 0.376386017,
				"y": -1.0420532289,
				"z": -2.7949299349,
				"element": "C" 
			},
			{
				"x": 0.876288121,
				"y": -0.7712696664,
				"z": -1.5214076754,
				"element": "C" 
			},
			{
				"x": 1.8874914097,
				"y": 1.0662064194,
				"z": 3.0331254429,
				"element": "H" 
			},
			{
				"x": 1.081987808,
				"y": 2.6334632789,
				"z": 2.8374583121,
				"element": "H" 
			},
			{
				"x": 0.1470576089,
				"y": 1.2009447522,
				"z": 3.3230236707,
				"element": "H" 
			},
			{
				"x": -0.2270333174,
				"y": 1.7305524377,
				"z": 0.9036424105,
				"element": "H" 
			},
			{
				"x": 1.7235260084,
				"y": 2.7616111721,
				"z": 0.265798232,
				"element": "H" 
			},
			{
				"x": 2.6757084813,
				"y": 1.5187098665,
				"z": 0.7034856787,
				"element": "H" 
			},
			{
				"x": 1.5424922212,
				"y": -0.7267054114,
				"z": 1.0511685686,
				"element": "H" 
			},
			{
				"x": -0.5116517348,
				"y": -1.6918726885,
				"z": 1.7612765186,
				"element": "H" 
			},
			{
				"x": -2.0496233196,
				"y": -0.5095659952,
				"z": 0.1753902059,
				"element": "H" 
			},
			{
				"x": -2.9496433275,
				"y": -0.9908613699,
				"z": -2.0896748596,
				"element": "H" 
			},
			{
				"x": -1.3913244754,
				"y": -1.3379839079,
				"z": -3.9974133942,
				"element": "H" 
			},
			{
				"x": 1.0632829051,
				"y": -1.1929256065,
				"z": -3.6232311224,
				"element": "H" 
			},
			{
				"x": 1.9479242291,
				"y": -0.70024285,
				"z": -1.3624426308,
				"element": "H" 
			}
		],
		 "valence_orbital": [ 
			{
				"type": "occ",
				"energy": -0.31428,
				"method": "rhf"
			},
			{
				"type": "occ",
				"energy": -0.27316,
				"method": "rhf"
			},
			{
				"type": "occ",
				"energy": -0.24383,
				"method": "rhf"
			},
			{
				"type": "occ",
				"energy": -0.23373,
				"method": "rhf"
			},
			{
				"type": "occ",
				"energy": -0.23126,
				"method": "rhf"
			},
			{
				"type": "unocc",
				"energy": 0.00382,
				"method": "rhf"
			},
			{
				"type": "unocc",
				"energy": 0.00681,
				"method": "rhf"
			},
			{
				"type": "unocc",
				"energy": 0.0834,
				"method": "rhf"
			},
			{
				"type": "unocc",
				"energy": 0.08959,
				"method": "rhf"
			},
			{
				"type": "unocc",
				"energy": 0.10445,
				"method": "rhf"
			}
		],
		"cosmo_sigma_profile": { 
			"-0.025": 0.0,
			"-0.024": 0.0,
			"-0.023": 0.0,
			"-0.022": 0.0,
			"-0.021": 0.0,
			"-0.02": 0.0,
			"-0.019": 0.0,
			"-0.018": 0.0,
			"-0.017": 0.0,
			"-0.016": 0.10033570097,
			"-0.015": 0.61592302011,
			"-0.014": 0.934662726019,
			"-0.013": 0.63844209994,
			"-0.012": 0.309443870961,
			"-0.011": 0.966834255532,
			"-0.01": 1.77210278758,
			"-0.009": 2.65017455478,
			"-0.008": 3.30864406386,
			"-0.007": 4.23540085624,
			"-0.006": 6.8655156239,
			"-0.005": 10.5920251218,
			"-0.004": 15.1778997114,
			"-0.003": 23.3177281993,
			"-0.002": 17.8300414403,
			"-0.001": 16.3697596242,
			"0.0": 14.0800080151,
			"0.001": 15.5379725742,
			"0.002": 12.2514682018,
			"0.003": 8.41007788154,
			"0.004": 9.16929695852,
			"0.005": 8.93185122993,
			"0.006": 9.81462362724,
			"0.007": 5.77592262225,
			"0.008": 2.23486148254,
			"0.009": 2.15711397986,
			"0.01": 3.02770891403,
			"0.011": 2.61589503271,
			"0.012": 2.31073393991,
			"0.013": 1.02584534335,
			"0.014": 1.06523243601,
			"0.015": 0.843844504591,
			"0.016": 0.755230798682,
			"0.017": 0.108078095843,
			"0.018": 0.0,
			"0.019": 0.0,
			"0.02": 0.0,
			"0.021": 0.0,
			"0.022": 0.0,
			"0.023": 0.0,
			"0.024": 0.0,
			"0.025": 0.0
		}
	}
}
