{
	 "smiles": "OC(=O)C1=CN=C(OC2=C(Br)C=CC=C2)C=C1", 
	 "Tm": 456.15, 
	 "num_atms": 25, 
	 "gaussian": { 
		 "optdone": 1, 
		 "sigma_profile": "yes", 
		 "theory": "DFT", 
		 "functional": "B3LYP", 
		 "basiset": "6-31G**", 
		 "properties": { 
			 "R2extent": 6409.9705, 
			 "electric_dipole_moment_norm": 4.8446551642, 
			 "electric_quadrupole_moment_norm": 22.8809370846, 
			 "total_energy": -3313.9179225, 
			 "HOMO_LUMO_gap": 0.20203, 
			 "cosmo_polarized_energy": -18.48, 
			 "cosmo_cavitation_energy": 33.1, 
			 "cosmo_dispersion_energy": -23.97, 
			 "cosmo_repulsion_energy": 1.85, 
			 "cosmo_total_nonelectrostatic_energy": 10.98, 
			 "SMD_solvation_energy": 4.4 
		},
		"coords": [
			{
				"x": -1.5302832167,
				"y": -4.8579342593,
				"z": -0.0041930618,
				"element": "O" 
			},
			{
				"x": -0.7597977066,
				"y": -3.9986082977,
				"z": -0.7226515523,
				"element": "C" 
			},
			{
				"x": -0.1897926135,
				"y": -4.3866455532,
				"z": -1.7158531934,
				"element": "O" 
			},
			{
				"x": -0.6623767417,
				"y": -2.5922927448,
				"z": -0.2282438451,
				"element": "C" 
			},
			{
				"x": -1.5407363115,
				"y": -2.0132843718,
				"z": 0.6940173557,
				"element": "C" 
			},
			{
				"x": -1.4537173576,
				"y": -0.75365548,
				"z": 1.1230933664,
				"element": "N" 
			},
			{
				"x": -0.4722960809,
				"y": -0.0045814572,
				"z": 0.6320916945,
				"element": "C" 
			},
			{
				"x": -0.4612412269,
				"y": 1.2598846852,
				"z": 1.1488061319,
				"element": "O" 
			},
			{
				"x": 0.520564158,
				"y": 2.1583382148,
				"z": 0.7721383318,
				"element": "C" 
			},
			{
				"x": 0.319432131,
				"y": 3.0369620904,
				"z": -0.2989094624,
				"element": "C" 
			},
			{
				"x": -1.2703779518,
				"y": 2.93269678,
				"z": -1.3373103565,
				"element": "Br" 
			},
			{
				"x": 1.2857009137,
				"y": 3.9959877514,
				"z": -0.6050489069,
				"element": "C" 
			},
			{
				"x": 2.4510840621,
				"y": 4.0773046537,
				"z": 0.1572121062,
				"element": "C" 
			},
			{
				"x": 2.6518865092,
				"y": 3.2043828519,
				"z": 1.228075167,
				"element": "C" 
			},
			{
				"x": 1.6860012721,
				"y": 2.2473233514,
				"z": 1.5349725593,
				"element": "C" 
			},
			{
				"x": 0.4599158402,
				"y": -0.4576345935,
				"z": -0.3176742335,
				"element": "C" 
			},
			{
				"x": 0.3475536039,
				"y": -1.7682896641,
				"z": -0.749355656,
				"element": "C" 
			},
			{
				"x": -1.798739725,
				"y": -4.4599415829,
				"z": 0.8351664901,
				"element": "H" 
			},
			{
				"x": -2.3840366855,
				"y": -2.5736100171,
				"z": 1.0998461275,
				"element": "H" 
			},
			{
				"x": 1.1178059713,
				"y": 4.6724086611,
				"z": -1.4353779897,
				"element": "H" 
			},
			{
				"x": 3.1968343019,
				"y": 4.8275691085,
				"z": -0.0860409389,
				"element": "H" 
			},
			{
				"x": 3.5548324088,
				"y": 3.2694626131,
				"z": 1.8267473662,
				"element": "H" 
			},
			{
				"x": 1.8100682592,
				"y": 1.565312552,
				"z": 2.3698669162,
				"element": "H" 
			},
			{
				"x": 1.2331093054,
				"y": 0.1967943934,
				"z": -0.6999818428,
				"element": "H" 
			},
			{
				"x": 1.0266068809,
				"y": -2.1793496852,
				"z": -1.4888925734,
				"element": "H" 
			}
		],
		 "valence_orbital": [ 
			{
				"type": "occ",
				"energy": -0.29351,
				"method": "rhf"
			},
			{
				"type": "occ",
				"energy": -0.27438,
				"method": "rhf"
			},
			{
				"type": "occ",
				"energy": -0.27216,
				"method": "rhf"
			},
			{
				"type": "occ",
				"energy": -0.26009,
				"method": "rhf"
			},
			{
				"type": "occ",
				"energy": -0.25623,
				"method": "rhf"
			},
			{
				"type": "unocc",
				"energy": -0.0542,
				"method": "rhf"
			},
			{
				"type": "unocc",
				"energy": -0.045,
				"method": "rhf"
			},
			{
				"type": "unocc",
				"energy": -0.02943,
				"method": "rhf"
			},
			{
				"type": "unocc",
				"energy": -0.02816,
				"method": "rhf"
			},
			{
				"type": "unocc",
				"energy": -0.00565,
				"method": "rhf"
			}
		],
		"cosmo_sigma_profile": { 
			"-0.025": 0.0,
			"-0.024": 0.0,
			"-0.023": 0.0,
			"-0.022": 0.0,
			"-0.021": 0.0,
			"-0.02": 0.19729981171,
			"-0.019": 0.823922337968,
			"-0.018": 0.974660840002,
			"-0.017": 1.29089779204,
			"-0.016": 0.705124932121,
			"-0.015": 0.638496553659,
			"-0.014": 0.937979489633,
			"-0.013": 1.84992802936,
			"-0.012": 1.25117452935,
			"-0.011": 1.22885950852,
			"-0.01": 0.940939728253,
			"-0.009": 1.32755658147,
			"-0.008": 5.2115706532,
			"-0.007": 12.3653098221,
			"-0.006": 14.3721542147,
			"-0.005": 15.4798725192,
			"-0.004": 13.8057880792,
			"-0.003": 14.985281539,
			"-0.002": 16.2494276667,
			"-0.001": 18.369958042,
			"0.0": 21.4912994026,
			"0.001": 24.7386248397,
			"0.002": 21.2730844935,
			"0.003": 18.7106171116,
			"0.004": 13.2025931027,
			"0.005": 6.36170705581,
			"0.006": 4.20066329897,
			"0.007": 4.27395355914,
			"0.008": 4.90384694373,
			"0.009": 5.497711399,
			"0.01": 6.9003245995,
			"0.011": 6.24951631321,
			"0.012": 5.59706090051,
			"0.013": 2.24309113185,
			"0.014": 0.977525732195,
			"0.015": 0.470206991822,
			"0.016": 0.0,
			"0.017": 0.0,
			"0.018": 0.0,
			"0.019": 0.0,
			"0.02": 0.0,
			"0.021": 0.0,
			"0.022": 0.0,
			"0.023": 0.0,
			"0.024": 0.0,
			"0.025": 0.0
		}
	}
}
