{
	 "smiles": "CC(C(O)=O)C1=CC=C(C(F)=C1)C1=CC=CC=C1", 
	 "Tm": 383.15, 
	 "num_atms": 31, 
	 "gaussian": { 
		 "optdone": 1, 
		 "sigma_profile": "yes", 
		 "theory": "DFT", 
		 "functional": "B3LYP", 
		 "basiset": "6-31G**", 
		 "properties": { 
			 "R2extent": 6088.6069, 
			 "electric_dipole_moment_norm": 3.91246101195, 
			 "electric_quadrupole_moment_norm": 20.0183178891, 
			 "total_energy": -829.735774829, 
			 "HOMO_LUMO_gap": 0.18933, 
			 "cosmo_polarized_energy": -14.47, 
			 "cosmo_cavitation_energy": 35.42, 
			 "cosmo_dispersion_energy": -24.97, 
			 "cosmo_repulsion_energy": 1.91, 
			 "cosmo_total_nonelectrostatic_energy": 12.36, 
			 "SMD_solvation_energy": 7.35 
		},
		"coords": [
			{
				"x": -0.511105655,
				"y": 2.7777607432,
				"z": -3.3558046827,
				"element": "C" 
			},
			{
				"x": -0.2496515269,
				"y": 1.2668874983,
				"z": -3.2725048846,
				"element": "C" 
			},
			{
				"x": -1.2643701985,
				"y": 0.4923217569,
				"z": -4.1375177095,
				"element": "C" 
			},
			{
				"x": -1.2926128478,
				"y": -0.8499115664,
				"z": -3.9475847043,
				"element": "O" 
			},
			{
				"x": -1.9674574448,
				"y": 1.0055464029,
				"z": -4.9717740691,
				"element": "O" 
			},
			{
				"x": -0.1941596437,
				"y": 0.7457448937,
				"z": -1.8433793987,
				"element": "C" 
			},
			{
				"x": -1.3254167329,
				"y": 0.7816589057,
				"z": -1.0121347876,
				"element": "C" 
			},
			{
				"x": -1.2600034595,
				"y": 0.3193465232,
				"z": 0.2980859778,
				"element": "C" 
			},
			{
				"x": -0.0759538541,
				"y": -0.2032858325,
				"z": 0.8523900867,
				"element": "C" 
			},
			{
				"x": 1.0340831438,
				"y": -0.2269323067,
				"z": -0.0013389847,
				"element": "C" 
			},
			{
				"x": 2.2098497308,
				"y": -0.7237726494,
				"z": 0.4443917653,
				"element": "F" 
			},
			{
				"x": 0.9933505921,
				"y": 0.227003991,
				"z": -1.3149931487,
				"element": "C" 
			},
			{
				"x": -0.0341621585,
				"y": -0.7070166464,
				"z": 2.2485746935,
				"element": "C" 
			},
			{
				"x": 1.0737969133,
				"y": -0.4794498783,
				"z": 3.0834026013,
				"element": "C" 
			},
			{
				"x": 1.0747262082,
				"y": -0.9316538266,
				"z": 4.4017104666,
				"element": "C" 
			},
			{
				"x": -0.0247317784,
				"y": -1.6242655346,
				"z": 4.9123861684,
				"element": "C" 
			},
			{
				"x": -1.1281999937,
				"y": -1.8633861937,
				"z": 4.0918343601,
				"element": "C" 
			},
			{
				"x": -1.1322393645,
				"y": -1.4098439947,
				"z": 2.7737774708,
				"element": "C" 
			},
			{
				"x": -1.4727006529,
				"y": 3.0352368585,
				"z": -2.9036812085,
				"element": "H" 
			},
			{
				"x": 0.2747296967,
				"y": 3.3275159069,
				"z": -2.8309277106,
				"element": "H" 
			},
			{
				"x": -0.5399313244,
				"y": 3.0970879004,
				"z": -4.3992123489,
				"element": "H" 
			},
			{
				"x": 0.7260122399,
				"y": 1.0605878099,
				"z": -3.736111691,
				"element": "H" 
			},
			{
				"x": -0.7296674227,
				"y": -1.0836130434,
				"z": -3.1930498284,
				"element": "H" 
			},
			{
				"x": -2.262682497,
				"y": 1.1792445498,
				"z": -1.3910438585,
				"element": "H" 
			},
			{
				"x": -2.1425617624,
				"y": 0.3785963979,
				"z": 0.927140109,
				"element": "H" 
			},
			{
				"x": 1.9013491932,
				"y": 0.1727528441,
				"z": -1.9080840853,
				"element": "H" 
			},
			{
				"x": 1.9320451563,
				"y": 0.0598473486,
				"z": 2.6999589527,
				"element": "H" 
			},
			{
				"x": 1.9377520437,
				"y": -0.7391576495,
				"z": 5.0326187564,
				"element": "H" 
			},
			{
				"x": -0.0198368238,
				"y": -1.9777943128,
				"z": 5.939289869,
				"element": "H" 
			},
			{
				"x": -1.9850541741,
				"y": -2.4103517289,
				"z": 4.4745714247,
				"element": "H" 
			},
			{
				"x": -1.9862956024,
				"y": -1.6213051672,
				"z": 2.1371103986,
				"element": "H" 
			}
		],
		 "valence_orbital": [ 
			{
				"type": "occ",
				"energy": -0.29217,
				"method": "rhf"
			},
			{
				"type": "occ",
				"energy": -0.2685,
				"method": "rhf"
			},
			{
				"type": "occ",
				"energy": -0.26501,
				"method": "rhf"
			},
			{
				"type": "occ",
				"energy": -0.25781,
				"method": "rhf"
			},
			{
				"type": "occ",
				"energy": -0.23504,
				"method": "rhf"
			},
			{
				"type": "unocc",
				"energy": -0.04571,
				"method": "rhf"
			},
			{
				"type": "unocc",
				"energy": -0.02105,
				"method": "rhf"
			},
			{
				"type": "unocc",
				"energy": -0.00817,
				"method": "rhf"
			},
			{
				"type": "unocc",
				"energy": 0.00788,
				"method": "rhf"
			},
			{
				"type": "unocc",
				"energy": 0.01117,
				"method": "rhf"
			}
		],
		"cosmo_sigma_profile": { 
			"-0.025": 0.0,
			"-0.024": 0.0,
			"-0.023": 0.0,
			"-0.022": 0.0,
			"-0.021": 0.0,
			"-0.02": 0.0,
			"-0.019": 0.0,
			"-0.018": 0.0,
			"-0.017": 0.0,
			"-0.016": 0.0506486954432,
			"-0.015": 0.464801673473,
			"-0.014": 0.778900582012,
			"-0.013": 0.81837007836,
			"-0.012": 1.26505791052,
			"-0.011": 1.5022159047,
			"-0.01": 1.43802847062,
			"-0.009": 1.41728679294,
			"-0.008": 4.75719474777,
			"-0.007": 7.45920765487,
			"-0.006": 15.3019078146,
			"-0.005": 19.1150727993,
			"-0.004": 21.680216341,
			"-0.003": 21.2126231886,
			"-0.002": 18.7965532443,
			"-0.001": 18.2034683307,
			"0.0": 22.4268909106,
			"0.001": 20.5683367367,
			"0.002": 19.5146540477,
			"0.003": 18.6972098727,
			"0.004": 20.7061064806,
			"0.005": 14.4384854797,
			"0.006": 6.08366405765,
			"0.007": 2.70723226251,
			"0.008": 3.17638219951,
			"0.009": 3.20697710585,
			"0.01": 4.54904389716,
			"0.011": 5.47670528036,
			"0.012": 4.96345302226,
			"0.013": 1.68707413023,
			"0.014": 0.0207915271958,
			"0.015": 0.0,
			"0.016": 0.0,
			"0.017": 0.0,
			"0.018": 0.0,
			"0.019": 0.0,
			"0.02": 0.0,
			"0.021": 0.0,
			"0.022": 0.0,
			"0.023": 0.0,
			"0.024": 0.0,
			"0.025": 0.0
		}
	}
}
