{
	 "smiles": "CC1=CC(Cl)=CC=C1O", 
	 "Tm": 322.15, 
	 "num_atms": 16, 
	 "gaussian": { 
		 "optdone": 1, 
		 "sigma_profile": "yes", 
		 "theory": "DFT", 
		 "functional": "B3LYP", 
		 "basiset": "6-31G**", 
		 "properties": { 
			 "R2extent": 2009.3616, 
			 "electric_dipole_moment_norm": 2.8606468307, 
			 "electric_quadrupole_moment_norm": 11.1533527941, 
			 "total_energy": -806.382976037, 
			 "HOMO_LUMO_gap": 0.20899, 
			 "cosmo_polarized_energy": -8.07, 
			 "cosmo_cavitation_energy": 21.39, 
			 "cosmo_dispersion_energy": -16.19, 
			 "cosmo_repulsion_energy": 1.32, 
			 "cosmo_total_nonelectrostatic_energy": 6.53, 
			 "SMD_solvation_energy": 3.66 
		},
		"coords": [
			{
				"x": -0.1843507148,
				"y": 2.5512827583,
				"z": 0.3987561274,
				"element": "C" 
			},
			{
				"x": 0.4442674539,
				"y": 1.1782223153,
				"z": 0.3651911942,
				"element": "C" 
			},
			{
				"x": 1.7517095792,
				"y": 0.9906048766,
				"z": -0.0942628991,
				"element": "C" 
			},
			{
				"x": 2.3204094196,
				"y": -0.2806698347,
				"z": -0.1203746641,
				"element": "C" 
			},
			{
				"x": 3.969472461,
				"y": -0.4801207061,
				"z": -0.7053117084,
				"element": "Cl" 
			},
			{
				"x": 1.6001532193,
				"y": -1.3935713561,
				"z": 0.3103652671,
				"element": "C" 
			},
			{
				"x": 0.2976777813,
				"y": -1.2209965882,
				"z": 0.7701942438,
				"element": "C" 
			},
			{
				"x": -0.2790919222,
				"y": 0.0515385734,
				"z": 0.7991352215,
				"element": "C" 
			},
			{
				"x": -1.5620779418,
				"y": 0.1398866574,
				"z": 1.2640736106,
				"element": "O" 
			},
			{
				"x": -1.0845061538,
				"y": 2.6071545386,
				"z": -0.2286265927,
				"element": "H" 
			},
			{
				"x": 0.5108149526,
				"y": 3.308352562,
				"z": 0.0291846101,
				"element": "H" 
			},
			{
				"x": -0.4715158313,
				"y": 2.84757142,
				"z": 1.4169707144,
				"element": "H" 
			},
			{
				"x": 2.328366331,
				"y": 1.8450509491,
				"z": -0.4337628637,
				"element": "H" 
			},
			{
				"x": 2.0507181493,
				"y": -2.3795322744,
				"z": 0.2865810966,
				"element": "H" 
			},
			{
				"x": -0.2897738128,
				"y": -2.0663806563,
				"z": 1.1124396832,
				"element": "H" 
			},
			{
				"x": -1.8541729704,
				"y": 1.0594067651,
				"z": 1.2387469589,
				"element": "H" 
			}
		],
		 "valence_orbital": [ 
			{
				"type": "occ",
				"energy": -0.34884,
				"method": "rhf"
			},
			{
				"type": "occ",
				"energy": -0.30701,
				"method": "rhf"
			},
			{
				"type": "occ",
				"energy": -0.30663,
				"method": "rhf"
			},
			{
				"type": "occ",
				"energy": -0.25668,
				"method": "rhf"
			},
			{
				"type": "occ",
				"energy": -0.21911,
				"method": "rhf"
			},
			{
				"type": "unocc",
				"energy": -0.01012,
				"method": "rhf"
			},
			{
				"type": "unocc",
				"energy": 0.00274,
				"method": "rhf"
			},
			{
				"type": "unocc",
				"energy": 0.03454,
				"method": "rhf"
			},
			{
				"type": "unocc",
				"energy": 0.05764,
				"method": "rhf"
			},
			{
				"type": "unocc",
				"energy": 0.12297,
				"method": "rhf"
			}
		],
		"cosmo_sigma_profile": { 
			"-0.025": 0.0,
			"-0.024": 0.0,
			"-0.023": 0.0,
			"-0.022": 0.0,
			"-0.021": 0.0,
			"-0.02": 0.0,
			"-0.019": 0.0,
			"-0.018": 0.0,
			"-0.017": 0.0,
			"-0.016": 0.40679048513,
			"-0.015": 1.14662984446,
			"-0.014": 0.90718731045,
			"-0.013": 0.731133109995,
			"-0.012": 1.38032732663,
			"-0.011": 1.10554417551,
			"-0.01": 1.53294012732,
			"-0.009": 1.40737743443,
			"-0.008": 0.828138979461,
			"-0.007": 4.01747024975,
			"-0.006": 8.95726896741,
			"-0.005": 10.5389001868,
			"-0.004": 10.066335067,
			"-0.003": 8.98727831188,
			"-0.002": 9.94812464895,
			"-0.001": 12.8783570522,
			"0.0": 10.8057785587,
			"0.001": 9.52196991309,
			"0.002": 13.1237423286,
			"0.003": 17.9285639025,
			"0.004": 19.6759576747,
			"0.005": 15.0184840139,
			"0.006": 3.56004079601,
			"0.007": 1.37265797169,
			"0.008": 1.45223529999,
			"0.009": 1.16950731653,
			"0.01": 1.8835877794,
			"0.011": 1.91787990928,
			"0.012": 0.241661318168,
			"0.013": 0.0,
			"0.014": 0.0,
			"0.015": 0.0,
			"0.016": 0.0,
			"0.017": 0.0,
			"0.018": 0.0,
			"0.019": 0.0,
			"0.02": 0.0,
			"0.021": 0.0,
			"0.022": 0.0,
			"0.023": 0.0,
			"0.024": 0.0,
			"0.025": 0.0
		}
	}
}
