{
	 "smiles": "OC(=O)C1CCCCC1", 
	 "Tm": 303.95, 
	 "num_atms": 21, 
	 "gaussian": { 
		 "optdone": 1, 
		 "sigma_profile": "yes", 
		 "theory": "DFT", 
		 "functional": "B3LYP", 
		 "basiset": "6-31G**", 
		 "properties": { 
			 "R2extent": 1974.0301, 
			 "electric_dipole_moment_norm": 1.44541014594, 
			 "electric_quadrupole_moment_norm": 8.2160918611, 
			 "total_energy": -424.459199821, 
			 "HOMO_LUMO_gap": 0.27758, 
			 "cosmo_polarized_energy": -7.29, 
			 "cosmo_cavitation_energy": 22.01, 
			 "cosmo_dispersion_energy": -16.6, 
			 "cosmo_repulsion_energy": 1.37, 
			 "cosmo_total_nonelectrostatic_energy": 6.78, 
			 "SMD_solvation_energy": 4.04 
		},
		"coords": [
			{
				"x": -0.9713223225,
				"y": -2.8414608656,
				"z": 0.5005784873,
				"element": "O" 
			},
			{
				"x": -0.735971723,
				"y": -2.5370435876,
				"z": -0.8021525941,
				"element": "C" 
			},
			{
				"x": -1.2319562738,
				"y": -3.1786227902,
				"z": -1.7040779618,
				"element": "O" 
			},
			{
				"x": 0.2242733926,
				"y": -1.3640774584,
				"z": -0.9489741116,
				"element": "C" 
			},
			{
				"x": 0.4164092681,
				"y": -0.9758200833,
				"z": -2.4266655466,
				"element": "C" 
			},
			{
				"x": -0.8060794781,
				"y": -0.2450624278,
				"z": -3.0068113712,
				"element": "C" 
			},
			{
				"x": -1.208978335,
				"y": 0.9650045119,
				"z": -2.1501411844,
				"element": "C" 
			},
			{
				"x": -1.4370287605,
				"y": 0.5622718902,
				"z": -0.6849332774,
				"element": "C" 
			},
			{
				"x": -0.2046583689,
				"y": -0.1432192378,
				"z": -0.0991779065,
				"element": "C" 
			},
			{
				"x": -1.5674792026,
				"y": -3.6090487082,
				"z": 0.4891022005,
				"element": "H" 
			},
			{
				"x": 1.1770667824,
				"y": -1.7345080774,
				"z": -0.5438720707,
				"element": "H" 
			},
			{
				"x": 1.2957898731,
				"y": -0.3211888233,
				"z": -2.489484248,
				"element": "H" 
			},
			{
				"x": 0.6358805763,
				"y": -1.8697821264,
				"z": -3.0178895858,
				"element": "H" 
			},
			{
				"x": -0.5899912758,
				"y": 0.072389422,
				"z": -4.0338432647,
				"element": "H" 
			},
			{
				"x": -1.6437656132,
				"y": -0.9496670308,
				"z": -3.0654845451,
				"element": "H" 
			},
			{
				"x": -0.4145761327,
				"y": 1.7244170261,
				"z": -2.1930465972,
				"element": "H" 
			},
			{
				"x": -2.1111427788,
				"y": 1.4353372794,
				"z": -2.5591358959,
				"element": "H" 
			},
			{
				"x": -1.6805760549,
				"y": 1.4429451768,
				"z": -0.0788159882,
				"element": "H" 
			},
			{
				"x": -2.30716535,
				"y": -0.1066053203,
				"z": -0.6213179907,
				"element": "H" 
			},
			{
				"x": -0.3858670403,
				"y": -0.4522203325,
				"z": 0.9340430081,
				"element": "H" 
			},
			{
				"x": 0.6371388176,
				"y": 0.5613615633,
				"z": -0.0800995559,
				"element": "H" 
			}
		],
		 "valence_orbital": [ 
			{
				"type": "occ",
				"energy": -0.32355,
				"method": "rhf"
			},
			{
				"type": "occ",
				"energy": -0.31281,
				"method": "rhf"
			},
			{
				"type": "occ",
				"energy": -0.30106,
				"method": "rhf"
			},
			{
				"type": "occ",
				"energy": -0.29945,
				"method": "rhf"
			},
			{
				"type": "occ",
				"energy": -0.2688,
				"method": "rhf"
			},
			{
				"type": "unocc",
				"energy": 0.00878,
				"method": "rhf"
			},
			{
				"type": "unocc",
				"energy": 0.07594,
				"method": "rhf"
			},
			{
				"type": "unocc",
				"energy": 0.08917,
				"method": "rhf"
			},
			{
				"type": "unocc",
				"energy": 0.11629,
				"method": "rhf"
			},
			{
				"type": "unocc",
				"energy": 0.13878,
				"method": "rhf"
			}
		],
		"cosmo_sigma_profile": { 
			"-0.025": 0.0,
			"-0.024": 0.0,
			"-0.023": 0.0,
			"-0.022": 0.0,
			"-0.021": 0.0,
			"-0.02": 0.0,
			"-0.019": 0.0,
			"-0.018": 0.42480191132,
			"-0.017": 1.02521471928,
			"-0.016": 0.780197391408,
			"-0.015": 1.05363787953,
			"-0.014": 0.207728508456,
			"-0.013": 0.175993940172,
			"-0.012": 0.962881568438,
			"-0.011": 1.20410749571,
			"-0.01": 0.837789875979,
			"-0.009": 0.42873895852,
			"-0.008": 0.162202629685,
			"-0.007": 1.02657731915,
			"-0.006": 2.45067671584,
			"-0.005": 3.43390816619,
			"-0.004": 3.12420278939,
			"-0.003": 12.649054655,
			"-0.002": 27.3094150138,
			"-0.001": 27.4215873331,
			"0.0": 28.5115933327,
			"0.001": 19.5308316881,
			"0.002": 5.8789172152,
			"0.003": 3.11717960028,
			"0.004": 3.12010475455,
			"0.005": 3.54941555743,
			"0.006": 2.74763948645,
			"0.007": 3.4323856047,
			"0.008": 2.90496126161,
			"0.009": 2.45454373898,
			"0.01": 1.67870269574,
			"0.011": 3.16191130649,
			"0.012": 4.34135005862,
			"0.013": 0.690561718239,
			"0.014": 0.0,
			"0.015": 0.0,
			"0.016": 0.0,
			"0.017": 0.0,
			"0.018": 0.0,
			"0.019": 0.0,
			"0.02": 0.0,
			"0.021": 0.0,
			"0.022": 0.0,
			"0.023": 0.0,
			"0.024": 0.0,
			"0.025": 0.0
		}
	}
}
