{
	 "smiles": "CC(=O)N(C1=NC(CCl)=CS1)C1=CC=C(C)C=C1", 
	 "Tm": 397.15, 
	 "num_atms": 31, 
	 "gaussian": { 
		 "optdone": 1, 
		 "sigma_profile": "yes", 
		 "theory": "DFT", 
		 "functional": "B3LYP", 
		 "basiset": "6-31G**", 
		 "properties": { 
			 "R2extent": 6712.8512, 
			 "electric_dipole_moment_norm": 4.08706297725, 
			 "electric_quadrupole_moment_norm": 15.8754013064, 
			 "total_energy": -1546.34190669, 
			 "HOMO_LUMO_gap": 0.19463, 
			 "cosmo_polarized_energy": -14.58, 
			 "cosmo_cavitation_energy": 38.8, 
			 "cosmo_dispersion_energy": -27.03, 
			 "cosmo_repulsion_energy": 2.12, 
			 "cosmo_total_nonelectrostatic_energy": 13.88, 
			 "SMD_solvation_energy": 6.07 
		},
		"coords": [
			{
				"x": 1.891831513,
				"y": -1.3557896215,
				"z": 2.3108597178,
				"element": "C" 
			},
			{
				"x": 1.67397468,
				"y": 0.1278614316,
				"z": 2.0998589575,
				"element": "C" 
			},
			{
				"x": 2.1328631217,
				"y": 0.9689157064,
				"z": 2.8612139231,
				"element": "O" 
			},
			{
				"x": 0.9176747526,
				"y": 0.5067619118,
				"z": 0.9896413313,
				"element": "N" 
			},
			{
				"x": 0.6437077536,
				"y": 1.8570182469,
				"z": 0.7251047732,
				"element": "C" 
			},
			{
				"x": -0.0699817347,
				"y": 2.2172320193,
				"z": -0.3022908795,
				"element": "N" 
			},
			{
				"x": -0.2018521389,
				"y": 3.5896883586,
				"z": -0.3504143765,
				"element": "C" 
			},
			{
				"x": -0.9878620215,
				"y": 4.2014993141,
				"z": -1.4573061537,
				"element": "C" 
			},
			{
				"x": -2.8019139623,
				"y": 4.1159892672,
				"z": -1.1687361217,
				"element": "Cl" 
			},
			{
				"x": 0.4262050438,
				"y": 4.2741036114,
				"z": 0.6501587862,
				"element": "C" 
			},
			{
				"x": 1.233251164,
				"y": 3.1800764526,
				"z": 1.7337058527,
				"element": "S" 
			},
			{
				"x": 0.3693802214,
				"y": -0.4683471252,
				"z": 0.072083156,
				"element": "C" 
			},
			{
				"x": -0.9238735418,
				"y": -0.9561523753,
				"z": 0.2638816117,
				"element": "C" 
			},
			{
				"x": -1.4404995176,
				"y": -1.9056705893,
				"z": -0.6149296815,
				"element": "C" 
			},
			{
				"x": -0.6844350656,
				"y": -2.3814325402,
				"z": -1.6959360328,
				"element": "C" 
			},
			{
				"x": -1.2425857582,
				"y": -3.4312951216,
				"z": -2.6271735962,
				"element": "C" 
			},
			{
				"x": 0.6067252983,
				"y": -1.8685410361,
				"z": -1.8771823251,
				"element": "C" 
			},
			{
				"x": 1.1333342753,
				"y": -0.9165150292,
				"z": -1.0049070478,
				"element": "C" 
			},
			{
				"x": 2.4368415915,
				"y": -1.8013134942,
				"z": 1.4739598367,
				"element": "H" 
			},
			{
				"x": 0.9421805711,
				"y": -1.8907288236,
				"z": 2.3985062893,
				"element": "H" 
			},
			{
				"x": 2.4684387697,
				"y": -1.473665702,
				"z": 3.2278144283,
				"element": "H" 
			},
			{
				"x": -0.7588170404,
				"y": 5.2594158662,
				"z": -1.5784928819,
				"element": "H" 
			},
			{
				"x": -0.8232712069,
				"y": 3.6705021925,
				"z": -2.3943769402,
				"element": "H" 
			},
			{
				"x": 0.4520413838,
				"y": 5.3424045975,
				"z": 0.8158151429,
				"element": "H" 
			},
			{
				"x": -1.5212303893,
				"y": -0.5820284336,
				"z": 1.089375058,
				"element": "H" 
			},
			{
				"x": -2.4500739565,
				"y": -2.2781879633,
				"z": -0.4626998314,
				"element": "H" 
			},
			{
				"x": -1.0975168351,
				"y": -4.4392351179,
				"z": -2.218709867,
				"element": "H" 
			},
			{
				"x": -0.7520973728,
				"y": -3.4011295816,
				"z": -3.6041832221,
				"element": "H" 
			},
			{
				"x": -2.3172501169,
				"y": -3.2965098875,
				"z": -2.7824748829,
				"element": "H" 
			},
			{
				"x": 1.2066482859,
				"y": -2.2128474418,
				"z": -2.7154579249,
				"element": "H" 
			},
			{
				"x": 2.129462233,
				"y": -0.5135790922,
				"z": -1.1607070993,
				"element": "H" 
			}
		],
		 "valence_orbital": [ 
			{
				"type": "occ",
				"energy": -0.27209,
				"method": "rhf"
			},
			{
				"type": "occ",
				"energy": -0.26989,
				"method": "rhf"
			},
			{
				"type": "occ",
				"energy": -0.26422,
				"method": "rhf"
			},
			{
				"type": "occ",
				"energy": -0.25122,
				"method": "rhf"
			},
			{
				"type": "occ",
				"energy": -0.22309,
				"method": "rhf"
			},
			{
				"type": "unocc",
				"energy": -0.02846,
				"method": "rhf"
			},
			{
				"type": "unocc",
				"energy": -0.02068,
				"method": "rhf"
			},
			{
				"type": "unocc",
				"energy": -0.01644,
				"method": "rhf"
			},
			{
				"type": "unocc",
				"energy": -0.00311,
				"method": "rhf"
			},
			{
				"type": "unocc",
				"energy": 0.03461,
				"method": "rhf"
			}
		],
		"cosmo_sigma_profile": { 
			"-0.025": 0.0,
			"-0.024": 0.0,
			"-0.023": 0.0,
			"-0.022": 0.0,
			"-0.021": 0.0,
			"-0.02": 0.0,
			"-0.019": 0.0,
			"-0.018": 0.0,
			"-0.017": 0.0,
			"-0.016": 0.0,
			"-0.015": 0.0,
			"-0.014": 0.0,
			"-0.013": 0.0,
			"-0.012": 0.0,
			"-0.011": 0.0,
			"-0.01": 0.115614786894,
			"-0.009": 2.02980210325,
			"-0.008": 5.69606904942,
			"-0.007": 7.98112468708,
			"-0.006": 16.5560025543,
			"-0.005": 26.0610184843,
			"-0.004": 29.4528027341,
			"-0.003": 22.7619102088,
			"-0.002": 26.1190091073,
			"-0.001": 24.2379618169,
			"0.0": 22.1838308359,
			"0.001": 18.3519899039,
			"0.002": 18.5123744658,
			"0.003": 17.7990047744,
			"0.004": 17.6963870845,
			"0.005": 11.1344680334,
			"0.006": 13.1883531479,
			"0.007": 13.0330594843,
			"0.008": 4.56697379756,
			"0.009": 3.30528379796,
			"0.01": 3.44507483306,
			"0.011": 3.77917642332,
			"0.012": 3.23903392567,
			"0.013": 1.96188084083,
			"0.014": 0.0959007161405,
			"0.015": 0.0,
			"0.016": 0.0,
			"0.017": 0.0,
			"0.018": 0.0,
			"0.019": 0.0,
			"0.02": 0.0,
			"0.021": 0.0,
			"0.022": 0.0,
			"0.023": 0.0,
			"0.024": 0.0,
			"0.025": 0.0
		}
	}
}
