{
	 "smiles": "OC(=O)COC1=CC=C(C=C1)C1=CC=CC=C1", 
	 "Tm": 469.15, 
	 "num_atms": 29, 
	 "gaussian": { 
		 "optdone": 1, 
		 "sigma_profile": "yes", 
		 "theory": "DFT", 
		 "functional": "B3LYP", 
		 "basiset": "6-31G**", 
		 "properties": { 
			 "R2extent": 7904.3867, 
			 "electric_dipole_moment_norm": 4.55271505807, 
			 "electric_quadrupole_moment_norm": 27.9468159689, 
			 "total_energy": -766.398249049, 
			 "HOMO_LUMO_gap": 0.19105, 
			 "cosmo_polarized_energy": -14.43, 
			 "cosmo_cavitation_energy": 33.83, 
			 "cosmo_dispersion_energy": -24.74, 
			 "cosmo_repulsion_energy": 1.9, 
			 "cosmo_total_nonelectrostatic_energy": 10.99, 
			 "SMD_solvation_energy": 7.12 
		},
		"coords": [
			{
				"x": -3.2170520434,
				"y": 3.5445826427,
				"z": -4.5905701732,
				"element": "O" 
			},
			{
				"x": -4.1785913248,
				"y": 2.902979974,
				"z": -3.9075972722,
				"element": "C" 
			},
			{
				"x": -5.3346475265,
				"y": 2.8920632756,
				"z": -4.2477502132,
				"element": "O" 
			},
			{
				"x": -3.7156211359,
				"y": 2.1696741288,
				"z": -2.6470705743,
				"element": "C" 
			},
			{
				"x": -2.315796225,
				"y": 2.3600947069,
				"z": -2.491812048,
				"element": "O" 
			},
			{
				"x": -1.6672029757,
				"y": 1.7723889799,
				"z": -1.4297371539,
				"element": "C" 
			},
			{
				"x": -2.3028685266,
				"y": 0.9968996939,
				"z": -0.4576117258,
				"element": "C" 
			},
			{
				"x": -1.5480696407,
				"y": 0.4473733318,
				"z": 0.5807520159,
				"element": "C" 
			},
			{
				"x": -0.164325647,
				"y": 0.6495879712,
				"z": 0.6767162186,
				"element": "C" 
			},
			{
				"x": 0.4480178752,
				"y": 1.4351339003,
				"z": -0.3180311148,
				"element": "C" 
			},
			{
				"x": -0.2869546508,
				"y": 1.9909810962,
				"z": -1.3568510599,
				"element": "C" 
			},
			{
				"x": 0.6266138436,
				"y": 0.0586409413,
				"z": 1.7854517105,
				"element": "C" 
			},
			{
				"x": 1.6859514303,
				"y": 0.7693433857,
				"z": 2.375580842,
				"element": "C" 
			},
			{
				"x": 2.4296070751,
				"y": 0.2145233618,
				"z": 3.4161950967,
				"element": "C" 
			},
			{
				"x": 2.1286997788,
				"y": -1.0626989828,
				"z": 3.8930028256,
				"element": "C" 
			},
			{
				"x": 1.0783303294,
				"y": -1.7804194256,
				"z": 3.3178016765,
				"element": "C" 
			},
			{
				"x": 0.3373305046,
				"y": -1.2268553894,
				"z": 2.2746674457,
				"element": "C" 
			},
			{
				"x": -2.3747567394,
				"y": 3.4078464897,
				"z": -4.1209813588,
				"element": "H" 
			},
			{
				"x": -3.9674246864,
				"y": 1.1075059243,
				"z": -2.7558558635,
				"element": "H" 
			},
			{
				"x": -4.2739731739,
				"y": 2.5707603954,
				"z": -1.7922819962,
				"element": "H" 
			},
			{
				"x": -3.372101187,
				"y": 0.8231662129,
				"z": -0.4872125605,
				"element": "H" 
			},
			{
				"x": -2.0575330744,
				"y": -0.1311645535,
				"z": 1.3452847756,
				"element": "H" 
			},
			{
				"x": 1.5219277424,
				"y": 1.5918850314,
				"z": -0.2896348155,
				"element": "H" 
			},
			{
				"x": 0.1933003956,
				"y": 2.5873057876,
				"z": -2.1260387091,
				"element": "H" 
			},
			{
				"x": 1.9107802947,
				"y": 1.7751371496,
				"z": 2.0326820926,
				"element": "H" 
			},
			{
				"x": 3.2392694253,
				"y": 0.7855466051,
				"z": 3.8618717435,
				"element": "H" 
			},
			{
				"x": 2.7071445417,
				"y": -1.4945359066,
				"z": 4.704442774,
				"element": "H" 
			},
			{
				"x": 0.8411031754,
				"y": -2.7787372615,
				"z": 3.6746467918,
				"element": "H" 
			},
			{
				"x": -0.4581578546,
				"y": -1.8063094668,
				"z": 1.81514063,
				"element": "H" 
			}
		],
		 "valence_orbital": [ 
			{
				"type": "occ",
				"energy": -0.27728,
				"method": "rhf"
			},
			{
				"type": "occ",
				"energy": -0.27055,
				"method": "rhf"
			},
			{
				"type": "occ",
				"energy": -0.26616,
				"method": "rhf"
			},
			{
				"type": "occ",
				"energy": -0.25539,
				"method": "rhf"
			},
			{
				"type": "occ",
				"energy": -0.22285,
				"method": "rhf"
			},
			{
				"type": "unocc",
				"energy": -0.0318,
				"method": "rhf"
			},
			{
				"type": "unocc",
				"energy": -0.01897,
				"method": "rhf"
			},
			{
				"type": "unocc",
				"energy": -0.00666,
				"method": "rhf"
			},
			{
				"type": "unocc",
				"energy": 0.007,
				"method": "rhf"
			},
			{
				"type": "unocc",
				"energy": 0.02562,
				"method": "rhf"
			}
		],
		"cosmo_sigma_profile": { 
			"-0.025": 0.0,
			"-0.024": 0.0,
			"-0.023": 0.0,
			"-0.022": 0.0,
			"-0.021": 0.0,
			"-0.02": 0.0,
			"-0.019": 0.0,
			"-0.018": 0.0,
			"-0.017": 0.0,
			"-0.016": 0.0,
			"-0.015": 0.301932482303,
			"-0.014": 0.649410512983,
			"-0.013": 0.51200142679,
			"-0.012": 0.296554573969,
			"-0.011": 0.864130601253,
			"-0.01": 0.699685636563,
			"-0.009": 1.9653923647,
			"-0.008": 10.3696778123,
			"-0.007": 9.4620432825,
			"-0.006": 15.6086815657,
			"-0.005": 23.3035943435,
			"-0.004": 20.2627330764,
			"-0.003": 19.1194065412,
			"-0.002": 14.3679816319,
			"-0.001": 12.9920163308,
			"0.0": 13.5587428388,
			"0.001": 14.8542751678,
			"0.002": 18.2035859909,
			"0.003": 18.7958837238,
			"0.004": 21.6279142524,
			"0.005": 18.3353360591,
			"0.006": 9.1570795745,
			"0.007": 3.06947493701,
			"0.008": 2.69272704597,
			"0.009": 4.10402579823,
			"0.01": 4.63922529111,
			"0.011": 4.97960399049,
			"0.012": 4.88629918776,
			"0.013": 1.11716551241,
			"0.014": 0.0,
			"0.015": 0.0,
			"0.016": 0.0,
			"0.017": 0.0,
			"0.018": 0.0,
			"0.019": 0.0,
			"0.02": 0.0,
			"0.021": 0.0,
			"0.022": 0.0,
			"0.023": 0.0,
			"0.024": 0.0,
			"0.0": 0.0
		}
	}
}
