{
	 "smiles": "S1C2=C(C=CC=C2)C2=C1C1=C(C=CC=C1)C=C2", 
	 "Tm": 462.15, 
	 "num_atms": 27, 
	 "gaussian": { 
		 "optdone": 1, 
		 "sigma_profile": "yes", 
		 "theory": "DFT", 
		 "functional": "B3LYP", 
		 "basiset": "6-31G**", 
		 "properties": { 
			 "R2extent": 5031.0702, 
			 "electric_dipole_moment_norm": 0.746074942616, 
			 "electric_quadrupole_moment_norm": 12.6205385273, 
			 "total_energy": -1013.95158872, 
			 "HOMO_LUMO_gap": 0.1601, 
			 "cosmo_polarized_energy": -6.68, 
			 "cosmo_cavitation_energy": 31.72, 
			 "cosmo_dispersion_energy": -24.28, 
			 "cosmo_repulsion_energy": 1.75, 
			 "cosmo_total_nonelectrostatic_energy": 9.2, 
			 "SMD_solvation_energy": 4.19 
		},
		"coords": [
			{
				"x": 2.2523770329,
				"y": -1.1171633167,
				"z": 0.6878817796,
				"element": "S" 
			},
			{
				"x": 1.4449281949,
				"y": -0.0931577265,
				"z": 1.8751534193,
				"element": "C" 
			},
			{
				"x": 0.1020337608,
				"y": 0.1727615072,
				"z": 1.5205312443,
				"element": "C" 
			},
			{
				"x": -0.6743580821,
				"y": 0.9774124705,
				"z": 2.3704976158,
				"element": "C" 
			},
			{
				"x": -0.115110813,
				"y": 1.4932902184,
				"z": 3.5336775125,
				"element": "C" 
			},
			{
				"x": 1.2207952429,
				"y": 1.2178607056,
				"z": 3.8687161488,
				"element": "C" 
			},
			{
				"x": 2.0113696546,
				"y": 0.4230372602,
				"z": 3.0430763713,
				"element": "C" 
			},
			{
				"x": -0.267295208,
				"y": -0.4654843589,
				"z": 0.2699624683,
				"element": "C" 
			},
			{
				"x": 0.7858066455,
				"y": -1.1921992643,
				"z": -0.2918741201,
				"element": "C" 
			},
			{
				"x": 0.6509451417,
				"y": -1.9007049285,
				"z": -1.5194510556,
				"element": "C" 
			},
			{
				"x": -0.6244184815,
				"y": -1.8437229194,
				"z": -2.1733476059,
				"element": "C" 
			},
			{
				"x": -0.7916385922,
				"y": -2.538952577,
				"z": -3.3984127481,
				"element": "C" 
			},
			{
				"x": 0.2436248215,
				"y": -3.2572364222,
				"z": -3.9572287032,
				"element": "C" 
			},
			{
				"x": 1.4993635656,
				"y": -3.311127064,
				"z": -3.3098129259,
				"element": "C" 
			},
			{
				"x": 1.6978405188,
				"y": -2.6476318617,
				"z": -2.1178931815,
				"element": "C" 
			},
			{
				"x": -1.6883331726,
				"y": -1.0961949066,
				"z": -1.5839683912,
				"element": "C" 
			},
			{
				"x": -1.5206230444,
				"y": -0.426077378,
				"z": -0.3994715619,
				"element": "C" 
			},
			{
				"x": -1.7083544267,
				"y": 1.19528334,
				"z": 2.1188299402,
				"element": "H" 
			},
			{
				"x": -0.7158195542,
				"y": 2.1153194391,
				"z": 4.1904099401,
				"element": "H" 
			},
			{
				"x": 1.6436375592,
				"y": 1.6281390694,
				"z": 4.7809441019,
				"element": "H" 
			},
			{
				"x": 3.0439980101,
				"y": 0.2101112346,
				"z": 3.3020374541,
				"element": "H" 
			},
			{
				"x": -1.7588816104,
				"y": -2.4946210554,
				"z": -3.892556982,
				"element": "H" 
			},
			{
				"x": 0.0977944722,
				"y": -3.7835523707,
				"z": -4.8959249247,
				"element": "H" 
			},
			{
				"x": 2.3112443764,
				"y": -3.8786774432,
				"z": -3.754968074,
				"element": "H" 
			},
			{
				"x": 2.6658104662,
				"y": -2.6938584328,
				"z": -1.6264730994,
				"element": "H" 
			},
			{
				"x": -2.6453373212,
				"y": -1.0676922758,
				"z": -2.0977225249,
				"element": "H" 
			},
			{
				"x": -2.3426991569,
				"y": 0.1370390566,
				"z": 0.0323879022,
				"element": "H" 
			}
		],
		 "valence_orbital": [ 
			{
				"type": "occ",
				"energy": -0.27955,
				"method": "rhf"
			},
			{
				"type": "occ",
				"energy": -0.27172,
				"method": "rhf"
			},
			{
				"type": "occ",
				"energy": -0.24096,
				"method": "rhf"
			},
			{
				"type": "occ",
				"energy": -0.22051,
				"method": "rhf"
			},
			{
				"type": "occ",
				"energy": -0.2052,
				"method": "rhf"
			},
			{
				"type": "unocc",
				"energy": -0.0451,
				"method": "rhf"
			},
			{
				"type": "unocc",
				"energy": -0.02948,
				"method": "rhf"
			},
			{
				"type": "unocc",
				"energy": -0.00335,
				"method": "rhf"
			},
			{
				"type": "unocc",
				"energy": 0.02031,
				"method": "rhf"
			},
			{
				"type": "unocc",
				"energy": 0.02054,
				"method": "rhf"
			}
		],
		"cosmo_sigma_profile": { 
			"-0.025": 0.0,
			"-0.024": 0.0,
			"-0.023": 0.0,
			"-0.022": 0.0,
			"-0.021": 0.0,
			"-0.02": 0.0,
			"-0.019": 0.0,
			"-0.018": 0.0,
			"-0.017": 0.0,
			"-0.016": 0.0,
			"-0.015": 0.0,
			"-0.014": 0.0,
			"-0.013": 0.0,
			"-0.012": 0.0,
			"-0.011": 0.0,
			"-0.01": 0.0,
			"-0.009": 0.0,
			"-0.008": 0.268178258625,
			"-0.007": 5.16042372289,
			"-0.006": 18.6385256916,
			"-0.005": 20.8370621994,
			"-0.004": 21.7402547181,
			"-0.003": 16.5813132793,
			"-0.002": 13.4477364463,
			"-0.001": 12.4892942256,
			"0.0": 15.2070611766,
			"0.001": 16.6536140169,
			"0.002": 24.3180229595,
			"0.003": 36.0271651139,
			"0.004": 33.3810928579,
			"0.005": 21.1328258528,
			"0.006": 2.40336308757,
			"0.007": 0.0,
			"0.008": 0.0,
			"0.009": 0.0,
			"0.01": 0.0,
			"0.011": 0.0,
			"0.012": 0.0,
			"0.013": 0.0,
			"0.014": 0.0,
			"0.015": 0.0,
			"0.016": 0.0,
			"0.017": 0.0,
			"0.018": 0.0,
			"0.019": 0.0,
			"0.02": 0.0,
			"0.021": 0.0,
			"0.022": 0.0,
			"0.023": 0.0,
			"0.024": 0.0,
			"0.025": 0.0
		}
	}
}
