{
	 "smiles": "NC1=CC=C(C=C1)S(=O)(=O)CC1CCCO1", 
	 "Tm": 374.15, 
	 "num_atms": 31, 
	 "gaussian": { 
		 "optdone": 1, 
		 "sigma_profile": "yes", 
		 "theory": "DFT", 
		 "functional": "B3LYP", 
		 "basiset": "6-31G**", 
		 "properties": { 
			 "R2extent": 4644.2947, 
			 "electric_dipole_moment_norm": 8.19135556669, 
			 "electric_quadrupole_moment_norm": 24.0959827361, 
			 "total_energy": -1106.75111833, 
			 "HOMO_LUMO_gap": 0.20432, 
			 "cosmo_polarized_energy": -24.7, 
			 "cosmo_cavitation_energy": 34.38, 
			 "cosmo_dispersion_energy": -25.09, 
			 "cosmo_repulsion_energy": 1.95, 
			 "cosmo_total_nonelectrostatic_energy": 11.24, 
			 "SMD_solvation_energy": 4.61 
		},
		"coords": [
			{
				"x": -0.8397846329,
				"y": -2.3938955084,
				"z": -4.6440815144,
				"element": "N" 
			},
			{
				"x": -0.2160817451,
				"y": -1.7073360211,
				"z": -3.6163350616,
				"element": "C" 
			},
			{
				"x": 1.1161138301,
				"y": -2.0009209445,
				"z": -3.2628428815,
				"element": "C" 
			},
			{
				"x": 1.7583763101,
				"y": -1.2758312335,
				"z": -2.2673771758,
				"element": "C" 
			},
			{
				"x": 1.0787341543,
				"y": -0.2476865156,
				"z": -1.6074636951,
				"element": "C" 
			},
			{
				"x": -0.2424115768,
				"y": 0.0637475515,
				"z": -1.9501624227,
				"element": "C" 
			},
			{
				"x": -0.8845838157,
				"y": -0.6647537966,
				"z": -2.9421723194,
				"element": "C" 
			},
			{
				"x": 1.9256509551,
				"y": 0.7068359153,
				"z": -0.3551324471,
				"element": "S" 
			},
			{
				"x": 1.4138789921,
				"y": 2.0842903155,
				"z": -0.3974755553,
				"element": "O" 
			},
			{
				"x": 3.370471886,
				"y": 0.4386420746,
				"z": -0.4869104757,
				"element": "O" 
			},
			{
				"x": 1.4426219667,
				"y": -0.0338044215,
				"z": 1.2542217379,
				"element": "C" 
			},
			{
				"x": -0.0232129439,
				"y": -0.4172061734,
				"z": 1.4364947901,
				"element": "C" 
			},
			{
				"x": -0.3268942538,
				"y": -0.9517349965,
				"z": 2.8514361237,
				"element": "C" 
			},
			{
				"x": -1.7768241179,
				"y": -0.4951440631,
				"z": 3.0665461818,
				"element": "C" 
			},
			{
				"x": -1.777239716,
				"y": 0.8581675785,
				"z": 2.3502388136,
				"element": "C" 
			},
			{
				"x": -0.8814991865,
				"y": 0.7122237127,
				"z": 1.2425809325,
				"element": "O" 
			},
			{
				"x": -1.8480800736,
				"y": -2.3624114098,
				"z": -4.6691876449,
				"element": "H" 
			},
			{
				"x": -0.4560764988,
				"y": -3.2936255918,
				"z": -4.8921895638,
				"element": "H" 
			},
			{
				"x": 1.6468235973,
				"y": -2.7922096131,
				"z": -3.7859908176,
				"element": "H" 
			},
			{
				"x": 2.7909452136,
				"y": -1.4842179643,
				"z": -2.007890707,
				"element": "H" 
			},
			{
				"x": -0.7554710041,
				"y": 0.8670061027,
				"z": -1.4324191519,
				"element": "H" 
			},
			{
				"x": -1.908386724,
				"y": -0.4220946864,
				"z": -3.2151322283,
				"element": "H" 
			},
			{
				"x": 1.7441976923,
				"y": 0.7291645417,
				"z": 1.9786948425,
				"element": "H" 
			},
			{
				"x": 2.0828490103,
				"y": -0.9128760044,
				"z": 1.369349791,
				"element": "H" 
			},
			{
				"x": -0.2856866479,
				"y": -1.1780239878,
				"z": 0.6872486695,
				"element": "H" 
			},
			{
				"x": -0.1900097383,
				"y": -2.0338417525,
				"z": 2.925385226,
				"element": "H" 
			},
			{
				"x": 0.3333107195,
				"y": -0.4773174259,
				"z": 3.587275283,
				"element": "H" 
			},
			{
				"x": -2.4728782327,
				"y": -1.1862649517,
				"z": 2.5783864176,
				"element": "H" 
			},
			{
				"x": -2.0548342473,
				"y": -0.4203448825,
				"z": 4.1214606556,
				"element": "H" 
			},
			{
				"x": -2.7589748319,
				"y": 1.1488916993,
				"z": 1.9627437013,
				"element": "H" 
			},
			{
				"x": -1.42194434,
				"y": 1.6592724526,
				"z": 3.0154004961,
				"element": "H" 
			}
		],
		 "valence_orbital": [ 
			{
				"type": "occ",
				"energy": -0.27384,
				"method": "rhf"
			},
			{
				"type": "occ",
				"energy": -0.26478,
				"method": "rhf"
			},
			{
				"type": "occ",
				"energy": -0.26064,
				"method": "rhf"
			},
			{
				"type": "occ",
				"energy": -0.25371,
				"method": "rhf"
			},
			{
				"type": "occ",
				"energy": -0.21874,
				"method": "rhf"
			},
			{
				"type": "unocc",
				"energy": -0.01442,
				"method": "rhf"
			},
			{
				"type": "unocc",
				"energy": -0.01003,
				"method": "rhf"
			},
			{
				"type": "unocc",
				"energy": 0.06348,
				"method": "rhf"
			},
			{
				"type": "unocc",
				"energy": 0.07367,
				"method": "rhf"
			},
			{
				"type": "unocc",
				"energy": 0.0826,
				"method": "rhf"
			}
		],
		"cosmo_sigma_profile": { 
			"-0.025": 0.0,
			"-0.024": 0.0,
			"-0.023": 0.0,
			"-0.022": 0.0,
			"-0.021": 0.0,
			"-0.02": 0.0,
			"-0.019": 0.0,
			"-0.018": 0.0,
			"-0.017": 0.0,
			"-0.016": 0.0,
			"-0.015": 0.0,
			"-0.014": 0.174275672939,
			"-0.013": 2.92759356883,
			"-0.012": 3.1851469322,
			"-0.011": 2.88789287931,
			"-0.01": 3.48891078286,
			"-0.009": 3.4400677152,
			"-0.008": 4.22477382539,
			"-0.007": 8.61692070425,
			"-0.006": 11.6519743764,
			"-0.005": 17.2085554189,
			"-0.004": 25.8783381056,
			"-0.003": 29.993563933,
			"-0.002": 21.9100754649,
			"-0.001": 15.1831133516,
			"0.0": 13.1674238224,
			"0.001": 10.250475613,
			"0.002": 10.7350379471,
			"0.003": 12.653087799,
			"0.004": 15.3580496308,
			"0.005": 7.05146340466,
			"0.006": 5.07239346177,
			"0.007": 4.85332341557,
			"0.008": 4.21733822434,
			"0.009": 4.70740211634,
			"0.01": 4.4917409874,
			"0.011": 6.94339818289,
			"0.012": 11.6438026449,
			"0.013": 6.85519323085,
			"0.014": 1.34398949361,
			"0.015": 0.342244421036,
			"0.016": 0.0,
			"0.017": 0.0,
			"0.018": 0.0,
			"0.019": 0.0,
			"0.02": 0.0,
			"0.021": 0.0,
			"0.022": 0.0,
			"0.023": 0.0,
			"0.024": 0.0,
			"0.025": 0.0
		}
	}
}
