{
	 "smiles": "CC1=CC(Cl)=C(C=C1)N(=O)=O", 
	 "Tm": 297.15, 
	 "num_atms": 17, 
	 "gaussian": { 
		 "optdone": 1, 
		 "sigma_profile": "yes", 
		 "theory": "DFT", 
		 "functional": "B3LYP", 
		 "basiset": "6-31G**", 
		 "properties": { 
			 "R2extent": 2942.3115, 
			 "electric_dipole_moment_norm": 5.65007832955, 
			 "electric_quadrupole_moment_norm": 15.9299328746, 
			 "total_energy": -935.647681757, 
			 "HOMO_LUMO_gap": 0.17978, 
			 "cosmo_polarized_energy": -9.06, 
			 "cosmo_cavitation_energy": 23.55, 
			 "cosmo_dispersion_energy": -17.47, 
			 "cosmo_repulsion_energy": 1.4, 
			 "cosmo_total_nonelectrostatic_energy": 7.49, 
			 "SMD_solvation_energy": 6.14 
		},
		"coords": [
			{
				"x": 2.0172324719,
				"y": 0.5234432392,
				"z": -0.4229348718,
				"element": "C" 
			},
			{
				"x": 0.5833181632,
				"y": 0.058375476,
				"z": -0.3645259045,
				"element": "C" 
			},
			{
				"x": 0.0631009629,
				"y": -0.5073565954,
				"z": 0.8030496592,
				"element": "C" 
			},
			{
				"x": -1.2506936331,
				"y": -0.979128826,
				"z": 0.8695799741,
				"element": "C" 
			},
			{
				"x": -1.7923993835,
				"y": -1.6138059524,
				"z": 2.4004303343,
				"element": "Cl" 
			},
			{
				"x": -2.0698873845,
				"y": -0.8629419678,
				"z": -0.2630077799,
				"element": "C" 
			},
			{
				"x": -1.5688564245,
				"y": -0.2738149236,
				"z": -1.4276327494,
				"element": "C" 
			},
			{
				"x": -0.2569348457,
				"y": 0.1722776029,
				"z": -1.4825080424,
				"element": "C" 
			},
			{
				"x": -3.461153127,
				"y": -1.3386541494,
				"z": -0.3158152912,
				"element": "N" 
			},
			{
				"x": -3.7760682576,
				"y": -2.2967418721,
				"z": 0.3824669343,
				"element": "O" 
			},
			{
				"x": -4.2169082005,
				"y": -0.7512413098,
				"z": -1.0917643701,
				"element": "O" 
			},
			{
				"x": 2.4421633062,
				"y": 0.6452578365,
				"z": 0.5764886981,
				"element": "H" 
			},
			{
				"x": 2.6386136975,
				"y": -0.2019471668,
				"z": -0.9617841251,
				"element": "H" 
			},
			{
				"x": 2.1026282878,
				"y": 1.4782186245,
				"z": -0.9507842268,
				"element": "H" 
			},
			{
				"x": 0.6816715551,
				"y": -0.5855539618,
				"z": 1.6907566001,
				"element": "H" 
			},
			{
				"x": -2.2346926055,
				"y": -0.1798562561,
				"z": -2.2766949449,
				"element": "H" 
			},
			{
				"x": 0.1187654172,
				"y": 0.6170702023,
				"z": -2.399219894,
				"element": "H" 
			}
		],
		 "valence_orbital": [ 
			{
				"type": "occ",
				"energy": -0.30832,
				"method": "rhf"
			},
			{
				"type": "occ",
				"energy": -0.3053,
				"method": "rhf"
			},
			{
				"type": "occ",
				"energy": -0.29261,
				"method": "rhf"
			},
			{
				"type": "occ",
				"energy": -0.27485,
				"method": "rhf"
			},
			{
				"type": "occ",
				"energy": -0.26732,
				"method": "rhf"
			},
			{
				"type": "unocc",
				"energy": -0.08754,
				"method": "rhf"
			},
			{
				"type": "unocc",
				"energy": -0.03581,
				"method": "rhf"
			},
			{
				"type": "unocc",
				"energy": -0.01257,
				"method": "rhf"
			},
			{
				"type": "unocc",
				"energy": 0.01349,
				"method": "rhf"
			},
			{
				"type": "unocc",
				"energy": 0.08687,
				"method": "rhf"
			}
		],
		"cosmo_sigma_profile": { 
			"-0.025": 0.0,
			"-0.024": 0.0,
			"-0.023": 0.0,
			"-0.022": 0.0,
			"-0.021": 0.0,
			"-0.02": 0.0,
			"-0.019": 0.0,
			"-0.018": 0.0,
			"-0.017": 0.0,
			"-0.016": 0.0,
			"-0.015": 0.0,
			"-0.014": 0.0,
			"-0.013": 0.0,
			"-0.012": 0.0,
			"-0.011": 0.0,
			"-0.01": 0.0,
			"-0.009": 0.0198889668449,
			"-0.008": 2.11093268461,
			"-0.007": 7.34101139024,
			"-0.006": 10.5509111893,
			"-0.005": 13.4799460499,
			"-0.004": 12.143599154,
			"-0.003": 14.6785049392,
			"-0.002": 15.5353350379,
			"-0.001": 18.542118833,
			"0.0": 18.2438752371,
			"0.001": 17.5290431159,
			"0.002": 11.1550434996,
			"0.003": 9.87517967779,
			"0.004": 6.35619502798,
			"0.005": 3.58533066971,
			"0.006": 4.96967432714,
			"0.007": 7.6658112323,
			"0.008": 10.2331990375,
			"0.009": 5.00007061487,
			"0.01": 1.69226252013,
			"0.011": 0.0274831209797,
			"0.012": 0.0,
			"0.013": 0.0,
			"0.014": 0.0,
			"0.015": 0.0,
			"0.016": 0.0,
			"0.017": 0.0,
			"0.018": 0.0,
			"0.019": 0.0,
			"0.02": 0.0,
			"0.021": 0.0,
			"0.022": 0.0,
			"0.023": 0.0,
			"0.024": 0.0,
			"0.025": 0.0
		}
	}
}
