{
	 "smiles": "FC1=CC=C(C=C2CC(=O)NC2=O)C=C1", 
	 "Tm": 483.15, 
	 "num_atms": 23, 
	 "gaussian": { 
		 "optdone": 1, 
		 "sigma_profile": "yes", 
		 "theory": "DFT", 
		 "functional": "B3LYP", 
		 "basiset": "6-31G**", 
		 "properties": { 
			 "R2extent": 4828.9347, 
			 "electric_dipole_moment_norm": 2.28299817127, 
			 "electric_quadrupole_moment_norm": 5.95180724906, 
			 "total_energy": -729.047107973, 
			 "HOMO_LUMO_gap": 0.1645, 
			 "cosmo_polarized_energy": -14.93, 
			 "cosmo_cavitation_energy": 28.81, 
			 "cosmo_dispersion_energy": -20.92, 
			 "cosmo_repulsion_energy": 1.6, 
			 "cosmo_total_nonelectrostatic_energy": 9.48, 
			 "SMD_solvation_energy": 6.72 
		},
		"coords": [
			{
				"x": -2.1154836469,
				"y": 4.4156172524,
				"z": -0.8925501644,
				"element": "F" 
			},
			{
				"x": -1.1612243031,
				"y": 3.5026867098,
				"z": -0.6354145034,
				"element": "C" 
			},
			{
				"x": 0.0206417496,
				"y": 3.9116006126,
				"z": -0.0267281542,
				"element": "C" 
			},
			{
				"x": 0.9974546703,
				"y": 2.956709657,
				"z": 0.2326716624,
				"element": "C" 
			},
			{
				"x": 0.8158753613,
				"y": 1.5990468663,
				"z": -0.1049736385,
				"element": "C" 
			},
			{
				"x": 1.8981053404,
				"y": 0.671394998,
				"z": 0.2067505981,
				"element": "C" 
			},
			{
				"x": 2.0099081983,
				"y": -0.6565835799,
				"z": 0.0050119539,
				"element": "C" 
			},
			{
				"x": 1.0887002945,
				"y": -1.6824300817,
				"z": -0.6053363351,
				"element": "C" 
			},
			{
				"x": 1.8641527031,
				"y": -3.0004752025,
				"z": -0.5074023032,
				"element": "C" 
			},
			{
				"x": 1.5066033138,
				"y": -4.0970128576,
				"z": -0.8780324768,
				"element": "O" 
			},
			{
				"x": 3.0794065146,
				"y": -2.7045682896,
				"z": 0.0971684494,
				"element": "N" 
			},
			{
				"x": 3.2560542656,
				"y": -1.3557770383,
				"z": 0.4335948643,
				"element": "C" 
			},
			{
				"x": 4.2470735175,
				"y": -0.8961608157,
				"z": 0.9676432881,
				"element": "O" 
			},
			{
				"x": -0.3993590171,
				"y": 1.2311366245,
				"z": -0.7209160504,
				"element": "C" 
			},
			{
				"x": -1.3859668296,
				"y": 2.174494349,
				"z": -0.98682177,
				"element": "C" 
			},
			{
				"x": 0.1590749067,
				"y": 4.955463919,
				"z": 0.2322930025,
				"element": "H" 
			},
			{
				"x": 1.9255309999,
				"y": 3.2616733934,
				"z": 0.70761891,
				"element": "H" 
			},
			{
				"x": 2.7685597298,
				"y": 1.1205299414,
				"z": 0.6842553601,
				"element": "H" 
			},
			{
				"x": 0.8494133513,
				"y": -1.4930252221,
				"z": -1.6585512882,
				"element": "H" 
			},
			{
				"x": 0.1361067803,
				"y": -1.7951073579,
				"z": -0.0740215834,
				"element": "H" 
			},
			{
				"x": 3.7836226183,
				"y": -3.4075415826,
				"z": 0.2795226078,
				"element": "H" 
			},
			{
				"x": -0.5831613909,
				"y": 0.200957972,
				"z": -0.9976815902,
				"element": "H" 
			},
			{
				"x": -2.3220891279,
				"y": 1.8985697325,
				"z": -1.4598008388,
				"element": "H" 
			}
		],
		 "valence_orbital": [ 
			{
				"type": "occ",
				"energy": -0.29156,
				"method": "rhf"
			},
			{
				"type": "occ",
				"energy": -0.28918,
				"method": "rhf"
			},
			{
				"type": "occ",
				"energy": -0.27935,
				"method": "rhf"
			},
			{
				"type": "occ",
				"energy": -0.26091,
				"method": "rhf"
			},
			{
				"type": "occ",
				"energy": -0.24007,
				"method": "rhf"
			},
			{
				"type": "unocc",
				"energy": -0.07557,
				"method": "rhf"
			},
			{
				"type": "unocc",
				"energy": -0.02828,
				"method": "rhf"
			},
			{
				"type": "unocc",
				"energy": -0.0099,
				"method": "rhf"
			},
			{
				"type": "unocc",
				"energy": 0.01938,
				"method": "rhf"
			},
			{
				"type": "unocc",
				"energy": 0.06811,
				"method": "rhf"
			}
		],
		"cosmo_sigma_profile": { 
			"-0.025": 0.0,
			"-0.024": 0.0,
			"-0.023": 0.0,
			"-0.022": 0.0,
			"-0.021": 0.0,
			"-0.02": 0.0,
			"-0.019": 0.0,
			"-0.018": 0.0,
			"-0.017": 0.0668625433636,
			"-0.016": 1.34807080828,
			"-0.015": 1.07797279555,
			"-0.014": 0.949622646925,
			"-0.013": 0.879728099513,
			"-0.012": 1.12756159866,
			"-0.011": 0.705171257563,
			"-0.01": 0.593352210357,
			"-0.009": 0.643184673582,
			"-0.008": 9.42128653355,
			"-0.007": 16.2190068783,
			"-0.006": 13.2089384272,
			"-0.005": 15.075451422,
			"-0.004": 10.0376224698,
			"-0.003": 11.1189149086,
			"-0.002": 11.7940597438,
			"-0.001": 11.6968572927,
			"0.0": 16.9969755159,
			"0.001": 18.2716567143,
			"0.002": 20.583683701,
			"0.003": 18.7091484912,
			"0.004": 12.0179627629,
			"0.005": 2.85458598778,
			"0.006": 4.37331497405,
			"0.007": 2.05662732048,
			"0.008": 1.3891364519,
			"0.009": 3.51498643061,
			"0.01": 4.42960217205,
			"0.011": 5.96119533119,
			"0.012": 11.2699529097,
			"0.013": 3.0452383071,
			"0.014": 0.0,
			"0.015": 0.0,
			"0.016": 0.0,
			"0.017": 0.0,
			"0.018": 0.0,
			"0.019": 0.0,
			"0.02": 0.0,
			"0.021": 0.0,
			"0.022": 0.0,
			"0.023": 0.0,
			"0.024": 0.0,
			"0.025": 0.0
		}
	}
}
