{
	 "smiles": "CCCCOC1=CC=C(C=C1)C1=NN=C(N)N1", 
	 "Tm": 474.15, 
	 "num_atms": 33, 
	 "gaussian": { 
		 "optdone": 1, 
		 "sigma_profile": "yes", 
		 "theory": "DFT", 
		 "functional": "B3LYP", 
		 "basiset": "6-31G**", 
		 "properties": { 
			 "R2extent": 9248.7591, 
			 "electric_dipole_moment_norm": 4.11261049578, 
			 "electric_quadrupole_moment_norm": 41.3763054551, 
			 "total_energy": -761.140247679, 
			 "HOMO_LUMO_gap": 0.17698, 
			 "cosmo_polarized_energy": -24.22, 
			 "cosmo_cavitation_energy": 36.72, 
			 "cosmo_dispersion_energy": -26.69, 
			 "cosmo_repulsion_energy": 2.09, 
			 "cosmo_total_nonelectrostatic_energy": 12.12, 
			 "SMD_solvation_energy": 3.98 
		},
		"coords": [
			{
				"x": 1.0424469465,
				"y": -1.5147164116,
				"z": 3.9388342832,
				"element": "C" 
			},
			{
				"x": -0.2093920548,
				"y": -2.3038454477,
				"z": 3.5369673445,
				"element": "C" 
			},
			{
				"x": -1.201366153,
				"y": -1.5531817072,
				"z": 2.6312246534,
				"element": "C" 
			},
			{
				"x": -0.7588583743,
				"y": -1.3335678797,
				"z": 1.188525501,
				"element": "C" 
			},
			{
				"x": 0.2743911851,
				"y": -0.3460228953,
				"z": 1.1560247539,
				"element": "O" 
			},
			{
				"x": 0.8005657594,
				"y": 0.0143515794,
				"z": -0.0483689427,
				"element": "C" 
			},
			{
				"x": 0.4125851474,
				"y": -0.5223706635,
				"z": -1.2848159719,
				"element": "C" 
			},
			{
				"x": 1.0173003575,
				"y": -0.073696219,
				"z": -2.4561308531,
				"element": "C" 
			},
			{
				"x": 2.0174697907,
				"y": 0.9089735577,
				"z": -2.4294979352,
				"element": "C" 
			},
			{
				"x": 2.4006836999,
				"y": 1.4325676377,
				"z": -1.1819079426,
				"element": "C" 
			},
			{
				"x": 1.8019966751,
				"y": 0.9961527524,
				"z": -0.0082988127,
				"element": "C" 
			},
			{
				"x": 2.6220074054,
				"y": 1.3472520939,
				"z": -3.6862583088,
				"element": "C" 
			},
			{
				"x": 2.4446222156,
				"y": 0.7916676139,
				"z": -4.8646877333,
				"element": "N" 
			},
			{
				"x": 3.1979769052,
				"y": 1.4894878318,
				"z": -5.7932519081,
				"element": "N" 
			},
			{
				"x": 3.8006700326,
				"y": 2.4608494962,
				"z": -5.1488443221,
				"element": "C" 
			},
			{
				"x": 4.5913348776,
				"y": 3.4600135054,
				"z": -5.7062052506,
				"element": "N" 
			},
			{
				"x": 3.4887958276,
				"y": 2.4196287327,
				"z": -3.8154021754,
				"element": "N" 
			},
			{
				"x": 1.664706842,
				"y": -2.0998369198,
				"z": 4.6244127303,
				"element": "H" 
			},
			{
				"x": 0.7705923575,
				"y": -0.583282646,
				"z": 4.4485015088,
				"element": "H" 
			},
			{
				"x": 1.6470709759,
				"y": -1.2475144469,
				"z": 3.0695161498,
				"element": "H" 
			},
			{
				"x": 0.0868388778,
				"y": -3.2386051453,
				"z": 3.0407063611,
				"element": "H" 
			},
			{
				"x": -0.7457054734,
				"y": -2.6050895504,
				"z": 4.4458824013,
				"element": "H" 
			},
			{
				"x": -1.4545657827,
				"y": -0.5794729185,
				"z": 3.0696614689,
				"element": "H" 
			},
			{
				"x": -2.1372951427,
				"y": -2.1250069551,
				"z": 2.5843467105,
				"element": "H" 
			},
			{
				"x": -0.3910155748,
				"y": -2.273173742,
				"z": 0.750213809,
				"element": "H" 
			},
			{
				"x": -1.6086817182,
				"y": -0.9898103044,
				"z": 0.5820251284,
				"element": "H" 
			},
			{
				"x": -0.356243709,
				"y": -1.2829467173,
				"z": -1.3457670802,
				"element": "H" 
			},
			{
				"x": 0.7198464963,
				"y": -0.4826785301,
				"z": -3.415722747,
				"element": "H" 
			},
			{
				"x": 3.1876045213,
				"y": 2.1795595346,
				"z": -1.1142523346,
				"element": "H" 
			},
			{
				"x": 2.0961097987,
				"y": 1.3980485416,
				"z": 0.9555998688,
				"element": "H" 
			},
			{
				"x": 4.6651252086,
				"y": 3.3107000111,
				"z": -6.7066735586,
				"element": "H" 
			},
			{
				"x": 5.5186730232,
				"y": 3.5213212166,
				"z": -5.2974927169,
				"element": "H" 
			},
			{
				"x": 3.6978090561,
				"y": 3.1295449947,
				"z": -3.1312640793,
				"element": "H" 
			}
		],
		 "valence_orbital": [ 
			{
				"type": "occ",
				"energy": -0.29109,
				"method": "rhf"
			},
			{
				"type": "occ",
				"energy": -0.25613,
				"method": "rhf"
			},
			{
				"type": "occ",
				"energy": -0.247,
				"method": "rhf"
			},
			{
				"type": "occ",
				"energy": -0.24171,
				"method": "rhf"
			},
			{
				"type": "occ",
				"energy": -0.19682,
				"method": "rhf"
			},
			{
				"type": "unocc",
				"energy": -0.01984,
				"method": "rhf"
			},
			{
				"type": "unocc",
				"energy": -0.00565,
				"method": "rhf"
			},
			{
				"type": "unocc",
				"energy": 0.05345,
				"method": "rhf"
			},
			{
				"type": "unocc",
				"energy": 0.05797,
				"method": "rhf"
			},
			{
				"type": "unocc",
				"energy": 0.08212,
				"method": "rhf"
			}
		],
		"cosmo_sigma_profile": { 
			"-0.025": 0.0,
			"-0.024": 0.0,
			"-0.023": 0.0,
			"-0.022": 0.0,
			"-0.021": 0.0,
			"-0.02": 0.0,
			"-0.019": 0.0,
			"-0.018": 0.0025690660235,
			"-0.017": 0.910704079027,
			"-0.016": 1.42289994897,
			"-0.015": 0.985114854132,
			"-0.014": 2.58687429953,
			"-0.013": 4.70620623675,
			"-0.012": 4.60918100637,
			"-0.011": 3.81987365483,
			"-0.01": 3.48393234062,
			"-0.009": 3.08202130951,
			"-0.008": 2.47958805048,
			"-0.007": 3.98077434809,
			"-0.006": 8.47802889866,
			"-0.005": 11.5374080298,
			"-0.004": 17.062600118,
			"-0.003": 20.5330307878,
			"-0.002": 22.95201953,
			"-0.001": 24.62342922,
			"0.0": 25.428134788,
			"0.001": 24.0148924669,
			"0.002": 20.0564709699,
			"0.003": 16.010007678,
			"0.004": 17.8973934474,
			"0.005": 10.8521279435,
			"0.006": 3.92296140764,
			"0.007": 3.63750904371,
			"0.008": 3.62694406084,
			"0.009": 3.56741793898,
			"0.01": 2.91628168315,
			"0.011": 2.23765462667,
			"0.012": 3.15229784543,
			"0.013": 3.04721190367,
			"0.014": 3.57329609617,
			"0.015": 3.71886327614,
			"0.016": 2.51248076279,
			"0.017": 1.74961391594,
			"0.018": 0.470126569659,
			"0.019": 0.0,
			"0.02": 0.0,
			"0.021": 0.0,
			"0.022": 0.0,
			"0.023": 0.0,
			"0.024": 0.0,
			"0.025": 0.0
		}
	}
}
