{
	 "smiles": "OC(=O)CNC(=O)C1=CC(=C(Cl)C=C1)[N+]([O-])=O", 
	 "Tm": 464.15, 
	 "num_atms": 24, 
	 "gaussian": { 
		 "optdone": 1, 
		 "sigma_profile": "yes", 
		 "theory": "DFT", 
		 "functional": "B3LYP", 
		 "basiset": "6-31G**", 
		 "properties": { 
			 "R2extent": 5084.6519, 
			 "electric_dipole_moment_norm": 6.86114315402, 
			 "electric_quadrupole_moment_norm": 21.8336452742, 
			 "total_energy": -1292.88712502, 
			 "HOMO_LUMO_gap": 0.17087, 
			 "cosmo_polarized_energy": -28.61, 
			 "cosmo_cavitation_energy": 32.29, 
			 "cosmo_dispersion_energy": -22.52, 
			 "cosmo_repulsion_energy": 1.76, 
			 "cosmo_total_nonelectrostatic_energy": 11.53, 
			 "SMD_solvation_energy": 9.15 
		},
		"coords": [
			{
				"x": 3.8688360496,
				"y": -0.0725962304,
				"z": -0.6283341429,
				"element": "O" 
			},
			{
				"x": 2.7738796896,
				"y": 0.6640763637,
				"z": -0.3284938514,
				"element": "C" 
			},
			{
				"x": 2.2066375324,
				"y": 1.3080203746,
				"z": -1.171429447,
				"element": "O" 
			},
			{
				"x": 2.3155236865,
				"y": 0.5813932967,
				"z": 1.1393242122,
				"element": "C" 
			},
			{
				"x": 1.3921021759,
				"y": 1.6221056343,
				"z": 1.5125334461,
				"element": "N" 
			},
			{
				"x": 0.045748467,
				"y": 1.5559167827,
				"z": 1.7851871355,
				"element": "C" 
			},
			{
				"x": -0.5214217927,
				"y": 2.4809394529,
				"z": 2.3525664249,
				"element": "O" 
			},
			{
				"x": -0.7244072067,
				"y": 0.3285207569,
				"z": 1.3806493695,
				"element": "C" 
			},
			{
				"x": -0.5438631635,
				"y": -0.3251769796,
				"z": 0.1616650534,
				"element": "C" 
			},
			{
				"x": -1.3596732923,
				"y": -1.4042882625,
				"z": -0.1842911743,
				"element": "C" 
			},
			{
				"x": -2.3581634068,
				"y": -1.8599401127,
				"z": 0.6870977983,
				"element": "C" 
			},
			{
				"x": -3.3504038107,
				"y": -3.2518744281,
				"z": 0.3648762644,
				"element": "Cl" 
			},
			{
				"x": -2.5380348566,
				"y": -1.1952102206,
				"z": 1.9058140782,
				"element": "C" 
			},
			{
				"x": -1.7475126469,
				"y": -0.1028058239,
				"z": 2.2376401782,
				"element": "C" 
			},
			{
				"x": -1.1003932749,
				"y": -2.0197560439,
				"z": -1.4983112673,
				"element": "N" 
			},
			{
				"x": -2.0580694391,
				"y": -2.4210556627,
				"z": -2.1487932393,
				"element": "O" 
			},
			{
				"x": 0.0768339098,
				"y": -2.063531463,
				"z": -1.8558698845,
				"element": "O" 
			},
			{
				"x": 4.2075995331,
				"y": -0.5327374067,
				"z": 0.1536278235,
				"element": "H" 
			},
			{
				"x": 1.8552424751,
				"y": -0.4000195109,
				"z": 1.2941577138,
				"element": "H" 
			},
			{
				"x": 3.1956476253,
				"y": 0.6193148551,
				"z": 1.7963183735,
				"element": "H" 
			},
			{
				"x": 1.7816719805,
				"y": 2.5273192081,
				"z": 1.7424572036,
				"element": "H" 
			},
			{
				"x": 0.1941659745,
				"y": 0.010878442,
				"z": -0.5574491141,
				"element": "H" 
			},
			{
				"x": -3.3075091567,
				"y": -1.5471429145,
				"z": 2.5834890684,
				"element": "H" 
			},
			{
				"x": -1.9135370523,
				"y": 0.4332498925,
				"z": 3.1657679774,
				"element": "H" 
			}
		],
		 "valence_orbital": [ 
			{
				"type": "occ",
				"energy": -0.30218,
				"method": "rhf"
			},
			{
				"type": "occ",
				"energy": -0.28846,
				"method": "rhf"
			},
			{
				"type": "occ",
				"energy": -0.28473,
				"method": "rhf"
			},
			{
				"type": "occ",
				"energy": -0.27812,
				"method": "rhf"
			},
			{
				"type": "occ",
				"energy": -0.26638,
				"method": "rhf"
			},
			{
				"type": "unocc",
				"energy": -0.09551,
				"method": "rhf"
			},
			{
				"type": "unocc",
				"energy": -0.06331,
				"method": "rhf"
			},
			{
				"type": "unocc",
				"energy": -0.03035,
				"method": "rhf"
			},
			{
				"type": "unocc",
				"energy": -0.01532,
				"method": "rhf"
			},
			{
				"type": "unocc",
				"energy": 0.00524,
				"method": "rhf"
			}
		],
		"cosmo_sigma_profile": { 
			"-0.025": 0.0,
			"-0.024": 0.0,
			"-0.023": 0.0,
			"-0.022": 0.0,
			"-0.021": 0.0,
			"-0.02": 0.778234955482,
			"-0.019": 1.5396968146,
			"-0.018": 1.36337062226,
			"-0.017": 1.15478384432,
			"-0.016": 1.1241629141,
			"-0.015": 1.94030966453,
			"-0.014": 2.60032571251,
			"-0.013": 3.01931346413,
			"-0.012": 2.3642428078,
			"-0.011": 3.28273222814,
			"-0.01": 3.88521460345,
			"-0.009": 6.47052457694,
			"-0.008": 9.7229919047,
			"-0.007": 9.94483312514,
			"-0.006": 8.69488524118,
			"-0.005": 8.25091574914,
			"-0.004": 10.4758114886,
			"-0.003": 12.2516089735,
			"-0.002": 18.4478054645,
			"-0.001": 17.549313293,
			"0.0": 15.8999925801,
			"0.001": 12.3470641916,
			"0.002": 11.4928027965,
			"0.003": 13.1751065055,
			"0.004": 7.70252186468,
			"0.005": 7.71556632187,
			"0.006": 9.51001386364,
			"0.007": 15.4558325548,
			"0.008": 9.58436639455,
			"0.009": 7.66879651578,
			"0.01": 7.36905314173,
			"0.011": 6.12520763461,
			"0.012": 6.45739050404,
			"0.013": 4.9508247262,
			"0.014": 0.568851761494,
			"0.015": 0.0,
			"0.016": 0.0,
			"0.017": 0.0,
			"0.018": 0.0,
			"0.019": 0.0,
			"0.02": 0.0,
			"0.021": 0.0,
			"0.022": 0.0,
			"0.023": 0.0,
			"0.024": 0.0,
			"0.025": 0.0
		}
	}
}
