{
	 "smiles": "CC(NS(C)(=O)=O)C(=O)NN", 
	 "Tm": 391.15, 
	 "num_atms": 22, 
	 "gaussian": { 
		 "optdone": 1, 
		 "sigma_profile": "yes", 
		 "theory": "DFT", 
		 "functional": "B3LYP", 
		 "basiset": "6-31G**", 
		 "properties": { 
			 "R2extent": 3032.4826, 
			 "electric_dipole_moment_norm": 4.19332669488, 
			 "electric_quadrupole_moment_norm": 15.6056406684, 
			 "total_energy": -947.086569137, 
			 "HOMO_LUMO_gap": 0.2656, 
			 "cosmo_polarized_energy": -23.62, 
			 "cosmo_cavitation_energy": 27.11, 
			 "cosmo_dispersion_energy": -19.55, 
			 "cosmo_repulsion_energy": 1.55, 
			 "cosmo_total_nonelectrostatic_energy": 9.11, 
			 "SMD_solvation_energy": 5.6 
		},
		"coords": [
			{
				"x": -1.1157983611,
				"y": -0.7153124435,
				"z": -0.8252794664,
				"element": "C" 
			},
			{
				"x": -0.0157756622,
				"y": -1.2142830963,
				"z": 0.1170309625,
				"element": "C" 
			},
			{
				"x": 0.6371336034,
				"y": -0.1434784376,
				"z": 0.8842557733,
				"element": "N" 
			},
			{
				"x": 0.3108057383,
				"y": 0.1380594004,
				"z": 2.5060324614,
				"element": "S" 
			},
			{
				"x": -1.3380565036,
				"y": 0.8706816449,
				"z": 2.6019765259,
				"element": "C" 
			},
			{
				"x": 1.2668800893,
				"y": 1.1637065814,
				"z": 2.919916863,
				"element": "O" 
			},
			{
				"x": 0.236939209,
				"y": -1.1756044171,
				"z": 3.1455305075,
				"element": "O" 
			},
			{
				"x": 1.0143852814,
				"y": -2.0593938969,
				"z": -0.6653972026,
				"element": "C" 
			},
			{
				"x": 0.6614039652,
				"y": -2.8093188041,
				"z": -1.5692706667,
				"element": "O" 
			},
			{
				"x": 2.3058591162,
				"y": -1.9406746525,
				"z": -0.2639327895,
				"element": "N" 
			},
			{
				"x": 3.3166011972,
				"y": -2.7745140034,
				"z": -0.7809832967,
				"element": "N" 
			},
			{
				"x": -1.9423043794,
				"y": -0.2680046262,
				"z": -0.2661378929,
				"element": "H" 
			},
			{
				"x": -0.7220732689,
				"y": 0.0349583602,
				"z": -1.5202339308,
				"element": "H" 
			},
			{
				"x": -1.49203297,
				"y": -1.5507708655,
				"z": -1.4173328895,
				"element": "H" 
			},
			{
				"x": -0.4420445653,
				"y": -1.9017534173,
				"z": 0.857037574,
				"element": "H" 
			},
			{
				"x": 0.8636508118,
				"y": 0.7089815342,
				"z": 0.3813577195,
				"element": "H" 
			},
			{
				"x": -1.3451467513,
				"y": 1.8128356017,
				"z": 2.0521686855,
				"element": "H" 
			},
			{
				"x": -1.5394684817,
				"y": 1.0521126392,
				"z": 3.6594158,
				"element": "H" 
			},
			{
				"x": -2.0702053901,
				"y": 0.1705186823,
				"z": 2.1978696704,
				"element": "H" 
			},
			{
				"x": 2.5354269221,
				"y": -1.4153714528,
				"z": 0.5672256734,
				"element": "H" 
			},
			{
				"x": 3.4830408092,
				"y": -2.4910529426,
				"z": -1.7464042495,
				"element": "H" 
			},
			{
				"x": 2.9257795907,
				"y": -3.7153213886,
				"z": -0.8432458317,
				"element": "H" 
			}
		],
		 "valence_orbital": [ 
			{
				"type": "occ",
				"energy": -0.31158,
				"method": "rhf"
			},
			{
				"type": "occ",
				"energy": -0.30503,
				"method": "rhf"
			},
			{
				"type": "occ",
				"energy": -0.28472,
				"method": "rhf"
			},
			{
				"type": "occ",
				"energy": -0.26188,
				"method": "rhf"
			},
			{
				"type": "occ",
				"energy": -0.25316,
				"method": "rhf"
			},
			{
				"type": "unocc",
				"energy": 0.01244,
				"method": "rhf"
			},
			{
				"type": "unocc",
				"energy": 0.05177,
				"method": "rhf"
			},
			{
				"type": "unocc",
				"energy": 0.05926,
				"method": "rhf"
			},
			{
				"type": "unocc",
				"energy": 0.07532,
				"method": "rhf"
			},
			{
				"type": "unocc",
				"energy": 0.08256,
				"method": "rhf"
			}
		],
		"cosmo_sigma_profile": { 
			"-0.025": 0.0,
			"-0.024": 0.0,
			"-0.023": 0.0,
			"-0.022": 0.0,
			"-0.021": 0.0,
			"-0.02": 0.0,
			"-0.019": 0.0,
			"-0.018": 0.0,
			"-0.017": 0.0,
			"-0.016": 0.0216544515192,
			"-0.015": 0.896466044745,
			"-0.014": 1.38426304882,
			"-0.013": 1.29692527457,
			"-0.012": 2.4988447703,
			"-0.011": 4.02846577368,
			"-0.01": 4.95227428813,
			"-0.009": 8.59397946095,
			"-0.008": 10.167570437,
			"-0.007": 10.2888859015,
			"-0.006": 11.2475335847,
			"-0.005": 14.0974901726,
			"-0.004": 14.7731538252,
			"-0.003": 12.129594072,
			"-0.002": 12.0637439289,
			"-0.001": 10.7741428758,
			"0.0": 10.4558197202,
			"0.001": 6.41454318756,
			"0.002": 5.30456995803,
			"0.003": 4.69338862668,
			"0.004": 3.97933007227,
			"0.005": 3.90954672639,
			"0.006": 4.39055162864,
			"0.007": 4.96425913087,
			"0.008": 5.15645813925,
			"0.009": 4.09927670839,
			"0.01": 7.18654278815,
			"0.011": 14.0785471276,
			"0.012": 8.96184459028,
			"0.013": 4.84923721235,
			"0.014": 3.21096267154,
			"0.015": 0.63771262834,
			"0.016": 0.672141664531,
			"0.017": 0.122654165187,
			"0.018": 0.0,
			"0.019": 0.0,
			"0.02": 0.0,
			"0.021": 0.0,
			"0.022": 0.0,
			"0.023": 0.0,
			"0.024": 0.0,
			"0.025": 0.0
		}
	}
}
