{
	 "smiles": "COC1=C(C=CC=C1)C1CC1C(O)=O", 
	 "Tm": 411.15, 
	 "num_atms": 26, 
	 "gaussian": { 
		 "optdone": 1, 
		 "sigma_profile": "yes", 
		 "theory": "DFT", 
		 "functional": "B3LYP", 
		 "basiset": "6-31G**", 
		 "properties": { 
			 "R2extent": 3852.8919, 
			 "electric_dipole_moment_norm": 3.47591309011, 
			 "electric_quadrupole_moment_norm": 14.0964396842, 
			 "total_energy": -652.047302786, 
			 "HOMO_LUMO_gap": 0.2126, 
			 "cosmo_polarized_energy": -12.25, 
			 "cosmo_cavitation_energy": 29.39, 
			 "cosmo_dispersion_energy": -20.82, 
			 "cosmo_repulsion_energy": 1.67, 
			 "cosmo_total_nonelectrostatic_energy": 10.24, 
			 "SMD_solvation_energy": 6.45 
		},
		"coords": [
			{
				"x": -2.2580205891,
				"y": -0.5805800973,
				"z": -1.4923045337,
				"element": "C" 
			},
			{
				"x": -1.7667473641,
				"y": -0.8106919257,
				"z": -0.1824472455,
				"element": "O" 
			},
			{
				"x": -0.4348515847,
				"y": -0.6139467971,
				"z": 0.057784159,
				"element": "C" 
			},
			{
				"x": -0.0072445217,
				"y": -0.8501838704,
				"z": 1.3832906248,
				"element": "C" 
			},
			{
				"x": 1.3497775358,
				"y": -0.7019477341,
				"z": 1.6771538563,
				"element": "C" 
			},
			{
				"x": 2.2724629689,
				"y": -0.30787134,
				"z": 0.7048586332,
				"element": "C" 
			},
			{
				"x": 1.8310579065,
				"y": -0.0617090424,
				"z": -0.5920141332,
				"element": "C" 
			},
			{
				"x": 0.481564822,
				"y": -0.2138731478,
				"z": -0.9213706577,
				"element": "C" 
			},
			{
				"x": -0.9848760708,
				"y": -1.3288818874,
				"z": 2.4131646298,
				"element": "C" 
			},
			{
				"x": -2.1767150666,
				"y": -0.5386041483,
				"z": 2.8525004888,
				"element": "C" 
			},
			{
				"x": -1.0504703979,
				"y": -0.7646761809,
				"z": 3.8405673091,
				"element": "C" 
			},
			{
				"x": -0.1780767187,
				"y": 0.3505374513,
				"z": 4.2948051232,
				"element": "C" 
			},
			{
				"x": -0.2777041618,
				"y": 1.4676373203,
				"z": 3.5318795996,
				"element": "O" 
			},
			{
				"x": 0.5610246039,
				"y": 0.2907147273,
				"z": 5.257224971,
				"element": "O" 
			},
			{
				"x": -2.1074818367,
				"y": 0.4605624242,
				"z": -1.8059801798,
				"element": "H" 
			},
			{
				"x": -1.7861567356,
				"y": -1.2464397167,
				"z": -2.2265098694,
				"element": "H" 
			},
			{
				"x": -3.3280151793,
				"y": -0.7915148234,
				"z": -1.4537141846,
				"element": "H" 
			},
			{
				"x": 1.6862129446,
				"y": -0.8968716593,
				"z": 2.6917642875,
				"element": "H" 
			},
			{
				"x": 3.32119677,
				"y": -0.1962811701,
				"z": 0.9619617496,
				"element": "H" 
			},
			{
				"x": 2.5329478608,
				"y": 0.2477339021,
				"z": -1.361323521,
				"element": "H" 
			},
			{
				"x": 0.1562524936,
				"y": -0.0241606541,
				"z": -1.9372625368,
				"element": "H" 
			},
			{
				"x": -1.1427399245,
				"y": -2.4070684837,
				"z": 2.3922878105,
				"element": "H" 
			},
			{
				"x": -3.1120850235,
				"y": -1.0614895454,
				"z": 3.0250344087,
				"element": "H" 
			},
			{
				"x": -2.2775053369,
				"y": 0.4680375522,
				"z": 2.4640606225,
				"element": "H" 
			},
			{
				"x": -1.1865514531,
				"y": -1.4996569214,
				"z": 4.6263546044,
				"element": "H" 
			},
			{
				"x": 0.364944059,
				"y": 2.0959257682,
				"z": 3.9004339837,
				"element": "H" 
			}
		],
		 "valence_orbital": [ 
			{
				"type": "occ",
				"energy": -0.31162,
				"method": "rhf"
			},
			{
				"type": "occ",
				"energy": -0.29007,
				"method": "rhf"
			},
			{
				"type": "occ",
				"energy": -0.26258,
				"method": "rhf"
			},
			{
				"type": "occ",
				"energy": -0.24299,
				"method": "rhf"
			},
			{
				"type": "occ",
				"energy": -0.21699,
				"method": "rhf"
			},
			{
				"type": "unocc",
				"energy": -0.00439,
				"method": "rhf"
			},
			{
				"type": "unocc",
				"energy": 0.00885,
				"method": "rhf"
			},
			{
				"type": "unocc",
				"energy": 0.01824,
				"method": "rhf"
			},
			{
				"type": "unocc",
				"energy": 0.08257,
				"method": "rhf"
			},
			{
				"type": "unocc",
				"energy": 0.09111,
				"method": "rhf"
			}
		],
		"cosmo_sigma_profile": { 
			"-0.025": 0.0,
			"-0.024": 0.0,
			"-0.023": 0.0,
			"-0.022": 0.0,
			"-0.021": 0.0,
			"-0.02": 0.0,
			"-0.019": 0.0,
			"-0.018": 0.373125344446,
			"-0.017": 1.22550766111,
			"-0.016": 0.848715633809,
			"-0.015": 0.388436886627,
			"-0.014": 0.661796510203,
			"-0.013": 0.485358935452,
			"-0.012": 1.34089822098,
			"-0.011": 1.03525675949,
			"-0.01": 0.264026703738,
			"-0.009": 0.253786144624,
			"-0.008": 0.493039934325,
			"-0.007": 1.37588861815,
			"-0.006": 12.7962653616,
			"-0.005": 22.66450154,
			"-0.004": 21.1920865231,
			"-0.003": 22.5971904621,
			"-0.002": 16.4716154414,
			"-0.001": 16.1386114711,
			"0.0": 13.0152161875,
			"0.001": 14.4218932461,
			"0.002": 12.7553758636,
			"0.003": 10.869283366,
			"0.004": 11.5601676091,
			"0.005": 10.4701075399,
			"0.006": 12.1730206522,
			"0.007": 6.10199429921,
			"0.008": 4.55719164263,
			"0.009": 3.08025698036,
			"0.01": 2.564876708,
			"0.011": 2.37563906848,
			"0.012": 5.51059535162,
			"0.013": 2.3511675018,
			"0.014": 0.179257897266,
			"0.015": 0.0,
			"0.016": 0.0,
			"0.017": 0.0,
			"0.018": 0.0,
			"0.019": 0.0,
			"0.02": 0.0,
			"0.021": 0.0,
			"0.022": 0.0,
			"0.023": 0.0,
			"0.024": 0.0,
			"0.025": 0.0
		}
	}
}
