{
	 "smiles": "NCCC1=CNC2=C1C=CC(F)=C2", 
	 "Tm": 348.15, 
	 "num_atms": 24, 
	 "gaussian": { 
		 "optdone": 1, 
		 "sigma_profile": "yes", 
		 "theory": "DFT", 
		 "functional": "B3LYP", 
		 "basiset": "6-31G**", 
		 "properties": { 
			 "R2extent": 2748.3545, 
			 "electric_dipole_moment_norm": 2.90792595504, 
			 "electric_quadrupole_moment_norm": 17.9340565592, 
			 "total_energy": -597.033554826, 
			 "HOMO_LUMO_gap": 0.1854, 
			 "cosmo_polarized_energy": -11.87, 
			 "cosmo_cavitation_energy": 27.6, 
			 "cosmo_dispersion_energy": -19.84, 
			 "cosmo_repulsion_energy": 1.55, 
			 "cosmo_total_nonelectrostatic_energy": 9.32, 
			 "SMD_solvation_energy": 3.43 
		},
		"coords": [
			{
				"x": 1.7817677801,
				"y": 1.490700914,
				"z": 2.219173116,
				"element": "N" 
			},
			{
				"x": 1.55785694,
				"y": 0.2818945273,
				"z": 3.0085668838,
				"element": "C" 
			},
			{
				"x": 0.3554783873,
				"y": -0.6114052592,
				"z": 2.6078018638,
				"element": "C" 
			},
			{
				"x": 0.4521457249,
				"y": -1.1946346258,
				"z": 1.225164997,
				"element": "C" 
			},
			{
				"x": 0.9839820229,
				"y": -2.4151955915,
				"z": 0.8919096437,
				"element": "C" 
			},
			{
				"x": 0.9371389332,
				"y": -2.5999750059,
				"z": -0.4814710289,
				"element": "N" 
			},
			{
				"x": 0.3628087178,
				"y": -1.4959984727,
				"z": -1.0670877711,
				"element": "C" 
			},
			{
				"x": 0.0448855388,
				"y": -0.5827308994,
				"z": -0.0209796838,
				"element": "C" 
			},
			{
				"x": -0.5739375833,
				"y": 0.634902482,
				"z": -0.3580814586,
				"element": "C" 
			},
			{
				"x": -0.852191101,
				"y": 0.9195486908,
				"z": -1.6886154981,
				"element": "C" 
			},
			{
				"x": -0.5129990151,
				"y": -0.0114683168,
				"z": -2.6829104341,
				"element": "C" 
			},
			{
				"x": -0.7959059686,
				"y": 0.2988528755,
				"z": -3.9693753972,
				"element": "F" 
			},
			{
				"x": 0.0925457887,
				"y": -1.2264663841,
				"z": -2.4142797946,
				"element": "C" 
			},
			{
				"x": 1.8824714896,
				"y": 1.2499903517,
				"z": 1.2358451992,
				"element": "H" 
			},
			{
				"x": 0.9731332629,
				"y": 2.1054092533,
				"z": 2.2819873868,
				"element": "H" 
			},
			{
				"x": 2.4716941984,
				"y": -0.3232603116,
				"z": 2.9612301883,
				"element": "H" 
			},
			{
				"x": 1.4356688113,
				"y": 0.5816158344,
				"z": 4.0570745622,
				"element": "H" 
			},
			{
				"x": 0.2731159924,
				"y": -1.4246850313,
				"z": 3.3408478621,
				"element": "H" 
			},
			{
				"x": -0.5686940842,
				"y": -0.0242210907,
				"z": 2.699643866,
				"element": "H" 
			},
			{
				"x": 1.3934916203,
				"y": -3.184207581,
				"z": 1.5322033499,
				"element": "H" 
			},
			{
				"x": 1.2513155758,
				"y": -3.4227657521,
				"z": -0.9688409853,
				"element": "H" 
			},
			{
				"x": -0.8346160919,
				"y": 1.3524930729,
				"z": 0.4140397553,
				"element": "H" 
			},
			{
				"x": -1.3283289728,
				"y": 1.8477149061,
				"z": -1.9845691758,
				"element": "H" 
			},
			{
				"x": 0.3321720323,
				"y": -1.9134085861,
				"z": -3.2185774464,
				"element": "H" 
			}
		],
		 "valence_orbital": [ 
			{
				"type": "occ",
				"energy": -0.32719,
				"method": "rhf"
			},
			{
				"type": "occ",
				"energy": -0.27434,
				"method": "rhf"
			},
			{
				"type": "occ",
				"energy": -0.23175,
				"method": "rhf"
			},
			{
				"type": "occ",
				"energy": -0.22469,
				"method": "rhf"
			},
			{
				"type": "occ",
				"energy": -0.19872,
				"method": "rhf"
			},
			{
				"type": "unocc",
				"energy": -0.01332,
				"method": "rhf"
			},
			{
				"type": "unocc",
				"energy": 0.0241,
				"method": "rhf"
			},
			{
				"type": "unocc",
				"energy": 0.0576,
				"method": "rhf"
			},
			{
				"type": "unocc",
				"energy": 0.07585,
				"method": "rhf"
			},
			{
				"type": "unocc",
				"energy": 0.08688,
				"method": "rhf"
			}
		],
		"cosmo_sigma_profile": { 
			"-0.025": 0.0,
			"-0.024": 0.0,
			"-0.023": 0.0,
			"-0.022": 0.0,
			"-0.021": 0.0,
			"-0.02": 0.0,
			"-0.019": 0.0,
			"-0.018": 0.0,
			"-0.017": 0.0,
			"-0.016": 0.33212554904,
			"-0.015": 1.59635472283,
			"-0.014": 1.1583586587,
			"-0.013": 1.31192727425,
			"-0.012": 1.36042286974,
			"-0.011": 1.23353903194,
			"-0.01": 1.47189518927,
			"-0.009": 2.0946713564,
			"-0.008": 3.79355852776,
			"-0.007": 6.78177355556,
			"-0.006": 8.91724663977,
			"-0.005": 9.99712638244,
			"-0.004": 12.5803463729,
			"-0.003": 17.6263169282,
			"-0.002": 16.7917040239,
			"-0.001": 16.4825842195,
			"0.0": 13.1999274656,
			"0.001": 12.0805408011,
			"0.002": 13.3581099927,
			"0.003": 14.2225127428,
			"0.004": 19.6027573315,
			"0.005": 25.0486065117,
			"0.006": 7.30835943113,
			"0.007": 0.931578273473,
			"0.008": 1.09338641616,
			"0.009": 0.522445880864,
			"0.01": 0.887448574888,
			"0.011": 0.759457368412,
			"0.012": 0.504385990843,
			"0.013": 0.947419873937,
			"0.014": 0.561123883261,
			"0.015": 0.733681459283,
			"0.016": 0.338908774499,
			"0.017": 0.814704186035,
			"0.018": 0.810262687736,
			"0.019": 0.549483342019,
			"0.02": 0.451231054446,
			"0.021": 0.0427242624196,
			"0.022": 0.0,
			"0.023": 0.0,
			"0.024": 0.0,
			"0.025": 0.0
		}
	}
}
