{
	 "smiles": "COC1=CC=CC(=C1)C(O)=O", 
	 "Tm": 378.15, 
	 "num_atms": 19, 
	 "gaussian": { 
		 "optdone": 1, 
		 "sigma_profile": "yes", 
		 "theory": "DFT", 
		 "functional": "B3LYP", 
		 "basiset": "6-31G**", 
		 "properties": { 
			 "R2extent": 3136.571, 
			 "electric_dipole_moment_norm": 3.62233286433, 
			 "electric_quadrupole_moment_norm": 28.3009347985, 
			 "total_energy": -535.340640064, 
			 "HOMO_LUMO_gap": 0.18807, 
			 "cosmo_polarized_energy": -14.02, 
			 "cosmo_cavitation_energy": 23.38, 
			 "cosmo_dispersion_energy": -17.36, 
			 "cosmo_repulsion_energy": 1.39, 
			 "cosmo_total_nonelectrostatic_energy": 7.42, 
			 "SMD_solvation_energy": 6.04 
		},
		"coords": [
			{
				"x": -1.6438877632,
				"y": 0.1841799934,
				"z": -0.5860048789,
				"element": "C" 
			},
			{
				"x": -0.4634848501,
				"y": 0.5515779921,
				"z": 0.1172560682,
				"element": "O" 
			},
			{
				"x": 0.5865440116,
				"y": -0.3128901471,
				"z": 0.1075118231,
				"element": "C" 
			},
			{
				"x": 1.717749825,
				"y": 0.0949053461,
				"z": 0.8359785741,
				"element": "C" 
			},
			{
				"x": 2.839389353,
				"y": -0.7216890945,
				"z": 0.8951561861,
				"element": "C" 
			},
			{
				"x": 2.8629815654,
				"y": -1.9466783278,
				"z": 0.2210657627,
				"element": "C" 
			},
			{
				"x": 1.7431752362,
				"y": -2.3475870802,
				"z": -0.5153037258,
				"element": "C" 
			},
			{
				"x": 0.5986901153,
				"y": -1.5380535241,
				"z": -0.5619078773,
				"element": "C" 
			},
			{
				"x": 1.6792572976,
				"y": -3.6488704472,
				"z": -1.2600469513,
				"element": "C" 
			},
			{
				"x": 2.8665410116,
				"y": -4.2385311832,
				"z": -1.5619672959,
				"element": "O" 
			},
			{
				"x": 0.6427571466,
				"y": -4.1738098606,
				"z": -1.5951622269,
				"element": "O" 
			},
			{
				"x": -1.4507417659,
				"y": 0.0579438406,
				"z": -1.6584530272,
				"element": "H" 
			},
			{
				"x": -2.078341943,
				"y": -0.7407704923,
				"z": -0.1876394824,
				"element": "H" 
			},
			{
				"x": -2.3465004578,
				"y": 1.0055845436,
				"z": -0.440282058,
				"element": "H" 
			},
			{
				"x": 1.6845562363,
				"y": 1.0494306994,
				"z": 1.3507607656,
				"element": "H" 
			},
			{
				"x": 3.7009509872,
				"y": -0.4074283999,
				"z": 1.4764481886,
				"element": "H" 
			},
			{
				"x": 3.7334690452,
				"y": -2.5897998877,
				"z": 0.3191438345,
				"element": "H" 
			},
			{
				"x": -0.2522207167,
				"y": -1.9001780632,
				"z": -1.1243946514,
				"element": "H" 
			},
			{
				"x": 3.5945156658,
				"y": -3.6296359075,
				"z": -1.3751590278,
				"element": "H" 
			}
		],
		 "valence_orbital": [ 
			{
				"type": "occ",
				"energy": -0.33463,
				"method": "rhf"
			},
			{
				"type": "occ",
				"energy": -0.31395,
				"method": "rhf"
			},
			{
				"type": "occ",
				"energy": -0.27582,
				"method": "rhf"
			},
			{
				"type": "occ",
				"energy": -0.26388,
				"method": "rhf"
			},
			{
				"type": "occ",
				"energy": -0.23699,
				"method": "rhf"
			},
			{
				"type": "unocc",
				"energy": -0.04892,
				"method": "rhf"
			},
			{
				"type": "unocc",
				"energy": -0.00918,
				"method": "rhf"
			},
			{
				"type": "unocc",
				"energy": 0.05295,
				"method": "rhf"
			},
			{
				"type": "unocc",
				"energy": 0.06398,
				"method": "rhf"
			},
			{
				"type": "unocc",
				"energy": 0.09619,
				"method": "rhf"
			}
		],
		"cosmo_sigma_profile": { 
			"-0.025": 0.0,
			"-0.024": 0.0,
			"-0.023": 0.0,
			"-0.022": 0.0,
			"-0.021": 0.0,
			"-0.02": 0.0,
			"-0.019": 0.200181833249,
			"-0.018": 0.640219984889,
			"-0.017": 0.91399531784,
			"-0.016": 0.983588490929,
			"-0.015": 1.07489187717,
			"-0.014": 0.766163220231,
			"-0.013": 0.705151829334,
			"-0.012": 1.20024658771,
			"-0.011": 1.50083710518,
			"-0.01": 0.83585290932,
			"-0.009": 1.34323047303,
			"-0.008": 1.33696461499,
			"-0.007": 4.69651484352,
			"-0.006": 13.5432027731,
			"-0.005": 15.6898913217,
			"-0.004": 15.179731259,
			"-0.003": 13.4227433018,
			"-0.002": 8.54959883266,
			"-0.001": 10.0580280472,
			"0.0": 9.06102456237,
			"0.001": 8.2112079956,
			"0.002": 13.4218397894,
			"0.003": 15.8671182552,
			"0.004": 9.15541873877,
			"0.005": 4.15016953673,
			"0.006": 3.34117094062,
			"0.007": 5.03532049497,
			"0.008": 3.39394800937,
			"0.009": 4.57742980248,
			"0.01": 5.88567532037,
			"0.011": 5.36784858824,
			"0.012": 4.84031609318,
			"0.013": 1.650119266,
			"0.014": 0.0662382149114,
			"0.015": 0.0,
			"0.016": 0.0,
			"0.017": 0.0,
			"0.018": 0.0,
			"0.019": 0.0,
			"0.02": 0.0,
			"0.021": 0.0,
			"0.022": 0.0,
			"0.023": 0.0,
			"0.024": 0.0,
			"0.025": 0.0
		}
	}
}
