{
	 "smiles": "O=C1CNC2=C(N1)C=CC=C2", 
	 "Tm": 393.15, 
	 "num_atms": 19, 
	 "gaussian": { 
		 "optdone": 1, 
		 "sigma_profile": "yes", 
		 "theory": "DFT", 
		 "functional": "B3LYP", 
		 "basiset": "6-31G**", 
		 "properties": { 
			 "R2extent": 2374.283, 
			 "electric_dipole_moment_norm": 2.81976110158, 
			 "electric_quadrupole_moment_norm": 20.2465195671, 
			 "total_energy": -494.415931486, 
			 "HOMO_LUMO_gap": 0.18881, 
			 "cosmo_polarized_energy": -13.28, 
			 "cosmo_cavitation_energy": 22.46, 
			 "cosmo_dispersion_energy": -17.21, 
			 "cosmo_repulsion_energy": 1.37, 
			 "cosmo_total_nonelectrostatic_energy": 6.62, 
			 "SMD_solvation_energy": 3.24 
		},
		"coords": [
			{
				"x": -3.5898259871,
				"y": -2.8535099329,
				"z": 0.6567482785,
				"element": "O" 
			},
			{
				"x": -2.8682412955,
				"y": -1.9748226688,
				"z": 0.2137757426,
				"element": "C" 
			},
			{
				"x": -2.5127114408,
				"y": -1.8659237188,
				"z": -1.2671544356,
				"element": "C" 
			},
			{
				"x": -2.2323685327,
				"y": -0.4855541799,
				"z": -1.6445402174,
				"element": "N" 
			},
			{
				"x": -1.3700600586,
				"y": 0.246257445,
				"z": -0.8261168597,
				"element": "C" 
			},
			{
				"x": -1.3931500672,
				"y": -0.0261750565,
				"z": 0.5579990629,
				"element": "C" 
			},
			{
				"x": -2.261319369,
				"y": -1.0375113083,
				"z": 1.0119715773,
				"element": "N" 
			},
			{
				"x": -0.602412432,
				"y": 0.7129791131,
				"z": 1.4358045058,
				"element": "C" 
			},
			{
				"x": 0.2125249062,
				"y": 1.7399683534,
				"z": 0.9537504752,
				"element": "C" 
			},
			{
				"x": 0.2374572042,
				"y": 2.0179917482,
				"z": -0.4128777959,
				"element": "C" 
			},
			{
				"x": -0.543233146,
				"y": 1.2710500418,
				"z": -1.2973055971,
				"element": "C" 
			},
			{
				"x": -1.6648264335,
				"y": -2.5520895262,
				"z": -1.4492139224,
				"element": "H" 
			},
			{
				"x": -3.3685192784,
				"y": -2.240131026,
				"z": -1.8321138146,
				"element": "H" 
			},
			{
				"x": -2.0792042566,
				"y": -0.3519810163,
				"z": -2.6354313391,
				"element": "H" 
			},
			{
				"x": -2.4292785653,
				"y": -1.1398734509,
				"z": 2.0046347458,
				"element": "H" 
			},
			{
				"x": -0.6315885082,
				"y": 0.4846822643,
				"z": 2.4983281388,
				"element": "H" 
			},
			{
				"x": 0.8218967761,
				"y": 2.31363461,
				"z": 1.6444682389,
				"element": "H" 
			},
			{
				"x": 0.869829323,
				"y": 2.8119013937,
				"z": -0.7982885104,
				"element": "H" 
			},
			{
				"x": -0.5228688389,
				"y": 1.4863069151,
				"z": -2.3629382737,
				"element": "H" 
			}
		],
		 "valence_orbital": [ 
			{
				"type": "occ",
				"energy": -0.30682,
				"method": "rhf"
			},
			{
				"type": "occ",
				"energy": -0.30197,
				"method": "rhf"
			},
			{
				"type": "occ",
				"energy": -0.25792,
				"method": "rhf"
			},
			{
				"type": "occ",
				"energy": -0.2325,
				"method": "rhf"
			},
			{
				"type": "occ",
				"energy": -0.19816,
				"method": "rhf"
			},
			{
				"type": "unocc",
				"energy": -0.00935,
				"method": "rhf"
			},
			{
				"type": "unocc",
				"energy": 0.00393,
				"method": "rhf"
			},
			{
				"type": "unocc",
				"energy": 0.03797,
				"method": "rhf"
			},
			{
				"type": "unocc",
				"energy": 0.07748,
				"method": "rhf"
			},
			{
				"type": "unocc",
				"energy": 0.09115,
				"method": "rhf"
			}
		],
		"cosmo_sigma_profile": { 
			"-0.025": 0.0,
			"-0.024": 0.0,
			"-0.023": 0.0,
			"-0.022": 0.0,
			"-0.021": 0.0,
			"-0.02": 0.0,
			"-0.019": 0.0,
			"-0.018": 0.0,
			"-0.017": 0.0,
			"-0.016": 0.00491610001625,
			"-0.015": 0.585230807396,
			"-0.014": 1.41403097352,
			"-0.013": 1.75053935335,
			"-0.012": 2.87590554811,
			"-0.011": 2.57567315145,
			"-0.01": 2.96367344943,
			"-0.009": 2.76826111486,
			"-0.008": 3.05204515113,
			"-0.007": 3.78184305676,
			"-0.006": 9.40183791454,
			"-0.005": 14.2642099375,
			"-0.004": 12.8102263697,
			"-0.003": 12.8325496441,
			"-0.002": 9.79880161784,
			"-0.001": 8.97923950213,
			"0.0": 8.29691182157,
			"0.001": 8.4415550358,
			"0.002": 8.72305427601,
			"0.003": 9.51520797956,
			"0.004": 9.45735465165,
			"0.005": 9.41103452486,
			"0.006": 9.43249441132,
			"0.007": 6.66182673631,
			"0.008": 2.0191040945,
			"0.009": 1.42084442397,
			"0.01": 1.52474142515,
			"0.011": 2.37836600424,
			"0.012": 2.88149321097,
			"0.013": 5.97129238361,
			"0.014": 2.56756890031,
			"0.015": 0.115722860421,
			"0.016": 0.0,
			"0.017": 0.0,
			"0.018": 0.0,
			"0.019": 0.0,
			"0.02": 0.0,
			"0.021": 0.0,
			"0.022": 0.0,
			"0.023": 0.0,
			"0.024": 0.0,
			"0.025": 0.0
		}
	}
}
