{
	 "smiles": "COC1=C(C=C(N)C=C1)S(=O)(=O)NC1CC1", 
	 "Tm": 437.15, 
	 "num_atms": 30, 
	 "gaussian": { 
		 "optdone": 1, 
		 "sigma_profile": "yes", 
		 "theory": "DFT", 
		 "functional": "B3LYP", 
		 "basiset": "6-31G**", 
		 "properties": { 
			 "R2extent": 4753.7292, 
			 "electric_dipole_moment_norm": 5.48902712418, 
			 "electric_quadrupole_moment_norm": 14.8516425755, 
			 "total_energy": -1122.73642364, 
			 "HOMO_LUMO_gap": 0.18457, 
			 "cosmo_polarized_energy": -22.48, 
			 "cosmo_cavitation_energy": 34.6, 
			 "cosmo_dispersion_energy": -24.82, 
			 "cosmo_repulsion_energy": 1.91, 
			 "cosmo_total_nonelectrostatic_energy": 11.7, 
			 "SMD_solvation_energy": 5.36 
		},
		"coords": [
			{
				"x": 2.3110584477,
				"y": 3.9712636086,
				"z": 0.6195094234,
				"element": "C" 
			},
			{
				"x": 2.3804248223,
				"y": 2.5642134439,
				"z": 0.8840489913,
				"element": "O" 
			},
			{
				"x": 2.3090314972,
				"y": 1.7546755141,
				"z": -0.2214077592,
				"element": "C" 
			},
			{
				"x": 1.1225173275,
				"y": 1.0725522547,
				"z": -0.5326873153,
				"element": "C" 
			},
			{
				"x": 1.0520487836,
				"y": 0.2088628734,
				"z": -1.6244632,
				"element": "C" 
			},
			{
				"x": 2.1766685378,
				"y": 0.0028634789,
				"z": -2.4400028098,
				"element": "C" 
			},
			{
				"x": 2.1270882859,
				"y": -0.9048762519,
				"z": -3.50106871,
				"element": "N" 
			},
			{
				"x": 3.3651252958,
				"y": 0.6830311256,
				"z": -2.125894971,
				"element": "C" 
			},
			{
				"x": 3.424995347,
				"y": 1.5437449323,
				"z": -1.034214242,
				"element": "C" 
			},
			{
				"x": -0.3005814678,
				"y": 1.3544463638,
				"z": 0.5338338372,
				"element": "S" 
			},
			{
				"x": -0.7198955346,
				"y": 2.7556052334,
				"z": 0.3762671981,
				"element": "O" 
			},
			{
				"x": -0.019704343,
				"y": 0.7838237445,
				"z": 1.8508467806,
				"element": "O" 
			},
			{
				"x": -1.5226118787,
				"y": 0.4420558971,
				"z": -0.2218967457,
				"element": "N" 
			},
			{
				"x": -1.9693500712,
				"y": -0.7905501116,
				"z": 0.3937412287,
				"element": "C" 
			},
			{
				"x": -2.7926955532,
				"y": -0.8128689212,
				"z": 1.6554431687,
				"element": "C" 
			},
			{
				"x": -3.4376207302,
				"y": -1.1227213072,
				"z": 0.3249240371,
				"element": "C" 
			},
			{
				"x": 3.1062548035,
				"y": 4.2856017233,
				"z": -0.0686166438,
				"element": "H" 
			},
			{
				"x": 2.4502984586,
				"y": 4.466341461,
				"z": 1.5821430737,
				"element": "H" 
			},
			{
				"x": 1.3321690116,
				"y": 4.2369172852,
				"z": 0.2085534166,
				"element": "H" 
			},
			{
				"x": 0.1150268272,
				"y": -0.2908914591,
				"z": -1.843113366,
				"element": "H" 
			},
			{
				"x": 2.8015655092,
				"y": -0.7406677369,
				"z": -4.2357650667,
				"element": "H" 
			},
			{
				"x": 1.2035606701,
				"y": -1.0769979362,
				"z": -3.8740552855,
				"element": "H" 
			},
			{
				"x": 4.2497488351,
				"y": 0.5270610238,
				"z": -2.7380978171,
				"element": "H" 
			},
			{
				"x": 4.3501153602,
				"y": 2.0563595258,
				"z": -0.7891270328,
				"element": "H" 
			},
			{
				"x": -2.261332331,
				"y": 1.0870062051,
				"z": -0.4859132311,
				"element": "H" 
			},
			{
				"x": -1.2701671557,
				"y": -1.6082262997,
				"z": 0.2434199329,
				"element": "H" 
			},
			{
				"x": -3.0178818454,
				"y": 0.1414213157,
				"z": 2.1197503334,
				"element": "H" 
			},
			{
				"x": -2.6194264179,
				"y": -1.6229805687,
				"z": 2.356603306,
				"element": "H" 
			},
			{
				"x": -4.1055786151,
				"y": -0.377519234,
				"z": -0.1000593616,
				"element": "H" 
			},
			{
				"x": -3.7173518765,
				"y": -2.145547184,
				"z": 0.09289883,
				"element": "H" 
			}
		],
		 "valence_orbital": [ 
			{
				"type": "occ",
				"energy": -0.28965,
				"method": "rhf"
			},
			{
				"type": "occ",
				"energy": -0.26702,
				"method": "rhf"
			},
			{
				"type": "occ",
				"energy": -0.25895,
				"method": "rhf"
			},
			{
				"type": "occ",
				"energy": -0.25132,
				"method": "rhf"
			},
			{
				"type": "occ",
				"energy": -0.20724,
				"method": "rhf"
			},
			{
				"type": "unocc",
				"energy": -0.02267,
				"method": "rhf"
			},
			{
				"type": "unocc",
				"energy": 0.00406,
				"method": "rhf"
			},
			{
				"type": "unocc",
				"energy": 0.05928,
				"method": "rhf"
			},
			{
				"type": "unocc",
				"energy": 0.07421,
				"method": "rhf"
			},
			{
				"type": "unocc",
				"energy": 0.07819,
				"method": "rhf"
			}
		],
		"cosmo_sigma_profile": { 
			"-0.025": 0.0,
			"-0.024": 0.0,
			"-0.023": 0.0,
			"-0.022": 0.0,
			"-0.021": 0.0,
			"-0.02": 0.0,
			"-0.019": 0.0,
			"-0.018": 0.0,
			"-0.017": 0.0,
			"-0.016": 0.0,
			"-0.015": 0.0,
			"-0.014": 0.580281716425,
			"-0.013": 2.32617570884,
			"-0.012": 4.17315088986,
			"-0.011": 4.2912545605,
			"-0.01": 4.62451490127,
			"-0.009": 4.78476636013,
			"-0.008": 4.19066493655,
			"-0.007": 7.19078076783,
			"-0.006": 11.4909354461,
			"-0.005": 22.0492799985,
			"-0.004": 21.3361329364,
			"-0.003": 20.933261099,
			"-0.002": 17.9484559375,
			"-0.001": 14.8554912175,
			"0.0": 13.0632238502,
			"0.001": 13.7217659699,
			"0.002": 13.0653091464,
			"0.003": 19.9319931689,
			"0.004": 15.5349020908,
			"0.005": 7.58845279687,
			"0.006": 3.68522742348,
			"0.007": 5.12060781161,
			"0.008": 5.01241377483,
			"0.009": 6.24055387713,
			"0.01": 8.78893269285,
			"0.011": 11.4150724752,
			"0.012": 7.09876537217,
			"0.013": 1.97720473628,
			"0.014": 0.473891147903,
			"0.015": 0.0,
			"0.016": 0.0,
			"0.017": 0.0,
			"0.018": 0.0,
			"0.019": 0.0,
			"0.02": 0.0,
			"0.021": 0.0,
			"0.022": 0.0,
			"0.023": 0.0,
			"0.024": 0.0,
			"0.025": 0.0
		}
	}
}
