{
	 "smiles": "NC1=CC=C(C=C1N)[N+]([O-])=O", 
	 "Tm": 473.15, 
	 "num_atms": 18, 
	 "gaussian": { 
		 "optdone": 1, 
		 "sigma_profile": "yes", 
		 "theory": "DFT", 
		 "functional": "B3LYP", 
		 "basiset": "6-31G**", 
		 "properties": { 
			 "R2extent": 3281.6988, 
			 "electric_dipole_moment_norm": 6.77924106519, 
			 "electric_quadrupole_moment_norm": 25.3867561012, 
			 "total_energy": -547.469864952, 
			 "HOMO_LUMO_gap": 0.14485, 
			 "cosmo_polarized_energy": -16.84, 
			 "cosmo_cavitation_energy": 22.62, 
			 "cosmo_dispersion_energy": -17.02, 
			 "cosmo_repulsion_energy": 1.37, 
			 "cosmo_total_nonelectrostatic_energy": 6.97, 
			 "SMD_solvation_energy": 6.19 
		},
		"coords": [
			{
				"x": 0.5372568933,
				"y": -2.6699405043,
				"z": 0.0771675759,
				"element": "N" 
			},
			{
				"x": -0.3802209793,
				"y": -1.9206483192,
				"z": -0.6497366489,
				"element": "C" 
			},
			{
				"x": -1.5838879837,
				"y": -2.4571587228,
				"z": -1.1279789995,
				"element": "C" 
			},
			{
				"x": -2.4830326488,
				"y": -1.6744435378,
				"z": -1.8436075869,
				"element": "C" 
			},
			{
				"x": -2.1635881877,
				"y": -0.3397873873,
				"z": -2.0807245116,
				"element": "C" 
			},
			{
				"x": -0.984523216,
				"y": 0.2325746208,
				"z": -1.5929902175,
				"element": "C" 
			},
			{
				"x": -0.0900964865,
				"y": -0.5461343962,
				"z": -0.8702041877,
				"element": "C" 
			},
			{
				"x": 1.1369032944,
				"y": -0.0555359201,
				"z": -0.3801519892,
				"element": "N" 
			},
			{
				"x": -3.0886569657,
				"y": 0.4935144011,
				"z": -2.8399883947,
				"element": "N" 
			},
			{
				"x": -2.7742294993,
				"y": 1.670793914,
				"z": -3.0386271323,
				"element": "O" 
			},
			{
				"x": -4.1346017078,
				"y": -0.0225520748,
				"z": -3.2421618466,
				"element": "O" 
			},
			{
				"x": 0.4013131806,
				"y": -3.6711303871,
				"z": 0.0385041538,
				"element": "H" 
			},
			{
				"x": 1.5016250435,
				"y": -2.4036636113,
				"z": -0.089640569,
				"element": "H" 
			},
			{
				"x": -1.8035897429,
				"y": -3.5062537781,
				"z": -0.9491767398,
				"element": "H" 
			},
			{
				"x": -3.4096326286,
				"y": -2.0790243665,
				"z": -2.2294455593,
				"element": "H" 
			},
			{
				"x": -0.7922021337,
				"y": 1.2823617553,
				"z": -1.781572186,
				"element": "H" 
			},
			{
				"x": 1.2560180504,
				"y": 0.9380801004,
				"z": -0.5369982827,
				"element": "H" 
			},
			{
				"x": 1.2731457179,
				"y": -0.2665517861,
				"z": 0.604733122,
				"element": "H" 
			}
		],
		 "valence_orbital": [ 
			{
				"type": "occ",
				"energy": -0.29175,
				"method": "rhf"
			},
			{
				"type": "occ",
				"energy": -0.29078,
				"method": "rhf"
			},
			{
				"type": "occ",
				"energy": -0.27265,
				"method": "rhf"
			},
			{
				"type": "occ",
				"energy": -0.24834,
				"method": "rhf"
			},
			{
				"type": "occ",
				"energy": -0.2148,
				"method": "rhf"
			},
			{
				"type": "unocc",
				"energy": -0.06995,
				"method": "rhf"
			},
			{
				"type": "unocc",
				"energy": -0.00774,
				"method": "rhf"
			},
			{
				"type": "unocc",
				"energy": 0.02535,
				"method": "rhf"
			},
			{
				"type": "unocc",
				"energy": 0.05857,
				"method": "rhf"
			},
			{
				"type": "unocc",
				"energy": 0.0874,
				"method": "rhf"
			}
		],
		"cosmo_sigma_profile": { 
			"-0.025": 0.0,
			"-0.024": 0.0,
			"-0.023": 0.0,
			"-0.022": 0.0,
			"-0.021": 0.0,
			"-0.02": 0.0,
			"-0.019": 0.0,
			"-0.018": 0.0,
			"-0.017": 0.0,
			"-0.016": 0.0,
			"-0.015": 0.0,
			"-0.014": 0.213417100982,
			"-0.013": 2.25775514787,
			"-0.012": 4.02545999682,
			"-0.011": 6.3016386343,
			"-0.01": 6.0370808742,
			"-0.009": 5.39975573206,
			"-0.008": 5.57848014504,
			"-0.007": 5.54455628363,
			"-0.006": 7.62940182996,
			"-0.005": 6.16646781234,
			"-0.004": 7.19852658014,
			"-0.003": 6.46015880165,
			"-0.002": 8.06968818331,
			"-0.001": 6.8377859231,
			"0.0": 8.7328998311,
			"0.001": 12.5496255813,
			"0.002": 12.7515921105,
			"0.003": 15.935460553,
			"0.004": 8.09423163642,
			"0.005": 3.73443541913,
			"0.006": 4.06876103437,
			"0.007": 5.63016018831,
			"0.008": 8.42199413002,
			"0.009": 10.1558332243,
			"0.01": 5.56942702463,
			"0.011": 4.36068803941,
			"0.012": 1.4194624106,
			"0.013": 0.381766493497,
			"0.014": 0.165815538014,
			"0.015": 0.0,
			"0.016": 0.0,
			"0.017": 0.0,
			"0.018": 0.0,
			"0.019": 0.0,
			"0.02": 0.0,
			"0.021": 0.0,
			"0.022": 0.0,
			"0.023": 0.0,
			"0.024": 0.0,
			"0.025": 0.0
		}
	}
}
