{
	 "smiles": "COCC1=CC=C(O1)C(O)=O", 
	 "Tm": 337.15, 
	 "num_atms": 19, 
	 "gaussian": { 
		 "optdone": 1, 
		 "sigma_profile": "yes", 
		 "theory": "DFT", 
		 "functional": "B3LYP", 
		 "basiset": "6-31G**", 
		 "properties": { 
			 "R2extent": 2935.7801, 
			 "electric_dipole_moment_norm": 2.08071914972, 
			 "electric_quadrupole_moment_norm": 12.3603575992, 
			 "total_energy": -572.431887176, 
			 "HOMO_LUMO_gap": 0.19452, 
			 "cosmo_polarized_energy": -11.99, 
			 "cosmo_cavitation_energy": 24.22, 
			 "cosmo_dispersion_energy": -17.57, 
			 "cosmo_repulsion_energy": 1.45, 
			 "cosmo_total_nonelectrostatic_energy": 8.1, 
			 "SMD_solvation_energy": 6.65 
		},
		"coords": [
			{
				"x": -3.6585953871,
				"y": 1.1368044129,
				"z": 1.8591039849,
				"element": "C" 
			},
			{
				"x": -2.658867554,
				"y": 0.4264035594,
				"z": 2.5729051596,
				"element": "O" 
			},
			{
				"x": -1.4040533282,
				"y": 1.0745496045,
				"z": 2.581281695,
				"element": "C" 
			},
			{
				"x": -0.6840949472,
				"y": 0.9479065546,
				"z": 1.2687549931,
				"element": "C" 
			},
			{
				"x": -0.681958144,
				"y": -0.0241207583,
				"z": 0.3020979297,
				"element": "C" 
			},
			{
				"x": 0.2340592137,
				"y": 0.4117404523,
				"z": -0.6963185355,
				"element": "C" 
			},
			{
				"x": 0.7290139347,
				"y": 1.6170098187,
				"z": -0.2689397045,
				"element": "C" 
			},
			{
				"x": 0.1646455792,
				"y": 1.9512029824,
				"z": 0.9332965281,
				"element": "O" 
			},
			{
				"x": 1.6925462524,
				"y": 2.5607272576,
				"z": -0.830489211,
				"element": "C" 
			},
			{
				"x": 2.1709099456,
				"y": 2.1165430013,
				"z": -2.0236184661,
				"element": "O" 
			},
			{
				"x": 2.0391416562,
				"y": 3.6077336338,
				"z": -0.3237700046,
				"element": "O" 
			},
			{
				"x": -3.8299333102,
				"y": 2.1325075753,
				"z": 2.2950351652,
				"element": "H" 
			},
			{
				"x": -4.5777097742,
				"y": 0.5520611723,
				"z": 1.9370507424,
				"element": "H" 
			},
			{
				"x": -3.4008988031,
				"y": 1.2582941296,
				"z": 0.7981261149,
				"element": "H" 
			},
			{
				"x": -1.4903861392,
				"y": 2.1422254938,
				"z": 2.837705442,
				"element": "H" 
			},
			{
				"x": -0.8232670728,
				"y": 0.5930530674,
				"z": 3.3774500223,
				"element": "H" 
			},
			{
				"x": -1.2660884322,
				"y": -0.9322203788,
				"z": 0.31680986,
				"element": "H" 
			},
			{
				"x": 0.5023406795,
				"y": -0.0889454971,
				"z": -1.6148429571,
				"element": "H" 
			},
			{
				"x": 2.7977956309,
				"y": 2.7957239183,
				"z": -2.3214387585,
				"element": "H" 
			}
		],
		 "valence_orbital": [ 
			{
				"type": "occ",
				"energy": -0.31719,
				"method": "rhf"
			},
			{
				"type": "occ",
				"energy": -0.29332,
				"method": "rhf"
			},
			{
				"type": "occ",
				"energy": -0.27749,
				"method": "rhf"
			},
			{
				"type": "occ",
				"energy": -0.27257,
				"method": "rhf"
			},
			{
				"type": "occ",
				"energy": -0.23843,
				"method": "rhf"
			},
			{
				"type": "unocc",
				"energy": -0.04391,
				"method": "rhf"
			},
			{
				"type": "unocc",
				"energy": 0.0338,
				"method": "rhf"
			},
			{
				"type": "unocc",
				"energy": 0.07887,
				"method": "rhf"
			},
			{
				"type": "unocc",
				"energy": 0.08855,
				"method": "rhf"
			},
			{
				"type": "unocc",
				"energy": 0.1073,
				"method": "rhf"
			}
		],
		"cosmo_sigma_profile": { 
			"-0.025": 0.0,
			"-0.024": 0.0,
			"-0.023": 0.0,
			"-0.022": 0.0,
			"-0.021": 0.0,
			"-0.02": 0.0,
			"-0.019": 0.0203456246641,
			"-0.018": 0.966965822245,
			"-0.017": 0.737308151847,
			"-0.016": 1.04304282355,
			"-0.015": 0.615105731074,
			"-0.014": 0.855051090622,
			"-0.013": 0.632595405953,
			"-0.012": 0.351067855139,
			"-0.011": 0.947120628591,
			"-0.01": 0.683286422481,
			"-0.009": 0.828141600313,
			"-0.008": 2.33483392284,
			"-0.007": 5.13435555545,
			"-0.006": 9.12077845013,
			"-0.005": 12.8440329142,
			"-0.004": 15.0313572046,
			"-0.003": 17.2989483384,
			"-0.002": 17.3172787435,
			"-0.001": 13.3883693494,
			"0.0": 14.7637558878,
			"0.001": 12.3975680542,
			"0.002": 11.1570671445,
			"0.003": 9.24806197288,
			"0.004": 4.53847367482,
			"0.005": 4.77724856104,
			"0.006": 3.94139471768,
			"0.007": 4.53057783542,
			"0.008": 6.01638845829,
			"0.009": 2.67691670892,
			"0.01": 4.08689142491,
			"0.011": 5.63293453992,
			"0.012": 6.77148324552,
			"0.013": 1.67784187309,
			"0.014": 0.0,
			"0.015": 0.0,
			"0.016": 0.0,
			"0.017": 0.0,
			"0.018": 0.0,
			"0.019": 0.0,
			"0.02": 0.0,
			"0.021": 0.0,
			"0.022": 0.0,
			"0.023": 0.0,
			"0.024": 0.0,
			"0.025": 0.0
		}
	}
}
