{
	 "smiles": "OC(=O)C1=C(F)C(Cl)=C(F)C(Cl)=C1F", 
	 "Tm": 415.15, 
	 "num_atms": 15, 
	 "gaussian": { 
		 "optdone": 1, 
		 "sigma_profile": "yes", 
		 "theory": "DFT", 
		 "functional": "B3LYP", 
		 "basiset": "6-31G**", 
		 "properties": { 
			 "R2extent": 3451.4906, 
			 "electric_dipole_moment_norm": 1.42030390058, 
			 "electric_quadrupole_moment_norm": 9.16968917848, 
			 "total_energy": -1637.66825682, 
			 "HOMO_LUMO_gap": 0.19673, 
			 "cosmo_polarized_energy": -8.92, 
			 "cosmo_cavitation_energy": 25.79, 
			 "cosmo_dispersion_energy": -18.96, 
			 "cosmo_repulsion_energy": 1.45, 
			 "cosmo_total_nonelectrostatic_energy": 8.28, 
			 "SMD_solvation_energy": 6.52 
		},
		"coords": [
			{
				"x": -0.3175671923,
				"y": 3.1254284045,
				"z": 0.2065106611,
				"element": "O" 
			},
			{
				"x": 0.4509555993,
				"y": 2.2540397175,
				"z": -0.4791562572,
				"element": "C" 
			},
			{
				"x": 1.3539414562,
				"y": 2.5959458267,
				"z": -1.2083733839,
				"element": "O" 
			},
			{
				"x": 0.0479764582,
				"y": 0.8313292403,
				"z": -0.2466969022,
				"element": "C" 
			},
			{
				"x": 0.2133522806,
				"y": -0.1115508563,
				"z": -1.2731696649,
				"element": "C" 
			},
			{
				"x": 0.6692429603,
				"y": 0.2759393565,
				"z": -2.459576173,
				"element": "F" 
			},
			{
				"x": -0.1197812035,
				"y": -1.4566116725,
				"z": -1.1056363833,
				"element": "C" 
			},
			{
				"x": 0.0737698921,
				"y": -2.5883066618,
				"z": -2.401120596,
				"element": "Cl" 
			},
			{
				"x": -0.6190467991,
				"y": -1.8733594973,
				"z": 0.130039175,
				"element": "C" 
			},
			{
				"x": -0.9352608194,
				"y": -3.1513656357,
				"z": 0.3079381364,
				"element": "F" 
			},
			{
				"x": -0.7917375597,
				"y": -0.97196811,
				"z": 1.1818759649,
				"element": "C" 
			},
			{
				"x": -1.3986458787,
				"y": -1.5130082508,
				"z": 2.7108026743,
				"element": "Cl" 
			},
			{
				"x": -0.4592039276,
				"y": 0.3683501976,
				"z": 0.9758965415,
				"element": "C" 
			},
			{
				"x": -0.6090746575,
				"y": 1.2099113379,
				"z": 1.9966207039,
				"element": "F" 
			},
			{
				"x": 0.0343793911,
				"y": 4.0088266034,
				"z": 0.0025455034,
				"element": "H" 
			}
		],
		 "valence_orbital": [ 
			{
				"type": "occ",
				"energy": -0.33898,
				"method": "rhf"
			},
			{
				"type": "occ",
				"energy": -0.33459,
				"method": "rhf"
			},
			{
				"type": "occ",
				"energy": -0.30009,
				"method": "rhf"
			},
			{
				"type": "occ",
				"energy": -0.28007,
				"method": "rhf"
			},
			{
				"type": "occ",
				"energy": -0.26744,
				"method": "rhf"
			},
			{
				"type": "unocc",
				"energy": -0.07071,
				"method": "rhf"
			},
			{
				"type": "unocc",
				"energy": -0.04328,
				"method": "rhf"
			},
			{
				"type": "unocc",
				"energy": -0.02692,
				"method": "rhf"
			},
			{
				"type": "unocc",
				"energy": 0.011,
				"method": "rhf"
			},
			{
				"type": "unocc",
				"energy": 0.02967,
				"method": "rhf"
			}
		],
		"cosmo_sigma_profile": { 
			"-0.025": 0.0,
			"-0.024": 0.0,
			"-0.023": 0.0,
			"-0.022": 0.0,
			"-0.021": 0.0,
			"-0.02": 0.036048903672,
			"-0.019": 0.981054775379,
			"-0.018": 0.704021878589,
			"-0.017": 0.842664075319,
			"-0.016": 1.00201085998,
			"-0.015": 0.187351017614,
			"-0.014": 0.660774736433,
			"-0.013": 1.07450052549,
			"-0.012": 1.02510745979,
			"-0.011": 0.822373002736,
			"-0.01": 0.405596033849,
			"-0.009": 0.307275640441,
			"-0.008": 1.12411910492,
			"-0.007": 1.39810268404,
			"-0.006": 3.57103660794,
			"-0.005": 9.49728298599,
			"-0.004": 23.2952289182,
			"-0.003": 16.4080673407,
			"-0.002": 13.5445891253,
			"-0.001": 11.5873705949,
			"0.0": 13.1405101043,
			"0.001": 18.0270231756,
			"0.002": 37.5739098382,
			"0.003": 27.8873427799,
			"0.004": 4.55319343773,
			"0.005": 3.71935572192,
			"0.006": 3.15092304693,
			"0.007": 3.80822960361,
			"0.008": 2.55091712549,
			"0.009": 2.90473358368,
			"0.01": 3.88341006796,
			"0.011": 3.81233647388,
			"0.012": 0.0844794384673,
			"0.013": 0.0,
			"0.014": 0.0,
			"0.015": 0.0,
			"0.016": 0.0,
			"0.017": 0.0,
			"0.018": 0.0,
			"0.019": 0.0,
			"0.02": 0.0,
			"0.021": 0.0,
			"0.022": 0.0,
			"0.023": 0.0,
			"0.024": 0.0,
			"0.025": 0.0
		}
	}
}
