{
	 "smiles": "CCC1=C(NC(=O)CN2CCNCC2)C=CC=C1", 
	 "Tm": 362.15, 
	 "num_atms": 39, 
	 "gaussian": { 
		 "optdone": 1, 
		 "sigma_profile": "yes", 
		 "theory": "DFT", 
		 "functional": "B3LYP", 
		 "basiset": "6-31G**", 
		 "properties": { 
			 "R2extent": 5941.1001, 
			 "electric_dipole_moment_norm": 2.71265439929, 
			 "electric_quadrupole_moment_norm": 14.2917915528, 
			 "total_energy": -785.62661158, 
			 "HOMO_LUMO_gap": 0.21652, 
			 "cosmo_polarized_energy": -14.72, 
			 "cosmo_cavitation_energy": 39.71, 
			 "cosmo_dispersion_energy": -27.16, 
			 "cosmo_repulsion_energy": 2.12, 
			 "cosmo_total_nonelectrostatic_energy": 14.67, 
			 "SMD_solvation_energy": 4.04 
		},
		"coords": [
			{
				"x": 1.3071501221,
				"y": 1.1688346339,
				"z": 2.5210533562,
				"element": "C" 
			},
			{
				"x": 2.1944951294,
				"y": 0.9043759682,
				"z": 1.2902053257,
				"element": "C" 
			},
			{
				"x": 1.6468737694,
				"y": 1.5185410102,
				"z": 0.0188081266,
				"element": "C" 
			},
			{
				"x": 0.525297852,
				"y": 1.0034417737,
				"z": -0.6637488419,
				"element": "C" 
			},
			{
				"x": -0.162202118,
				"y": -0.1683595532,
				"z": -0.2293747404,
				"element": "N" 
			},
			{
				"x": 0.3472465376,
				"y": -1.4364898322,
				"z": -0.1278420498,
				"element": "C" 
			},
			{
				"x": 1.5257416799,
				"y": -1.7441977566,
				"z": -0.2336734176,
				"element": "O" 
			},
			{
				"x": -0.7238134034,
				"y": -2.483126138,
				"z": 0.2272565341,
				"element": "C" 
			},
			{
				"x": -2.0542747498,
				"y": -2.1504151262,
				"z": -0.2710595437,
				"element": "N" 
			},
			{
				"x": -3.1570914122,
				"y": -2.7537537747,
				"z": 0.4822674851,
				"element": "C" 
			},
			{
				"x": -4.4831413875,
				"y": -2.0405069894,
				"z": 0.097385834,
				"element": "C" 
			},
			{
				"x": -4.4603589973,
				"y": -1.4528705208,
				"z": -1.2481975513,
				"element": "N" 
			},
			{
				"x": -3.6694672791,
				"y": -2.2779877467,
				"z": -2.1574088938,
				"element": "C" 
			},
			{
				"x": -2.1899482285,
				"y": -2.4441573104,
				"z": -1.7087653313,
				"element": "C" 
			},
			{
				"x": 0.0066653447,
				"y": 1.6721277057,
				"z": -1.7805163585,
				"element": "C" 
			},
			{
				"x": 0.5901166379,
				"y": 2.8460887981,
				"z": -2.2495627554,
				"element": "C" 
			},
			{
				"x": 1.717894147,
				"y": 3.3528179735,
				"z": -1.6046869272,
				"element": "C" 
			},
			{
				"x": 2.2286118458,
				"y": 2.6887322446,
				"z": -0.4905817212,
				"element": "C" 
			},
			{
				"x": 1.7451505571,
				"y": 0.7141909997,
				"z": 3.4160034829,
				"element": "H" 
			},
			{
				"x": 0.3058765767,
				"y": 0.7488175879,
				"z": 2.3861571522,
				"element": "H" 
			},
			{
				"x": 1.1973363583,
				"y": 2.2425811076,
				"z": 2.7066934684,
				"element": "H" 
			},
			{
				"x": 3.1892629939,
				"y": 1.3263566997,
				"z": 1.4738454001,
				"element": "H" 
			},
			{
				"x": 2.3297285297,
				"y": -0.1707679535,
				"z": 1.1491507473,
				"element": "H" 
			},
			{
				"x": -1.1783627578,
				"y": -0.1596684792,
				"z": -0.2520546626,
				"element": "H" 
			},
			{
				"x": -0.7611595887,
				"y": -2.5355539096,
				"z": 1.3222666755,
				"element": "H" 
			},
			{
				"x": -0.3474893413,
				"y": -3.4542934613,
				"z": -0.129869053,
				"element": "H" 
			},
			{
				"x": -3.2302229705,
				"y": -3.8398087205,
				"z": 0.2879326587,
				"element": "H" 
			},
			{
				"x": -2.9610700969,
				"y": -2.6380746002,
				"z": 1.5530556096,
				"element": "H" 
			},
			{
				"x": -4.7019073206,
				"y": -1.2387463776,
				"z": 0.8093708534,
				"element": "H" 
			},
			{
				"x": -5.3094300208,
				"y": -2.7605283741,
				"z": 0.1609283551,
				"element": "H" 
			},
			{
				"x": -4.0315112308,
				"y": -0.5329694948,
				"z": -1.1910673239,
				"element": "H" 
			},
			{
				"x": -4.1535420832,
				"y": -3.2602956812,
				"z": -2.2146268256,
				"element": "H" 
			},
			{
				"x": -3.7108610899,
				"y": -1.8515508519,
				"z": -3.1645724687,
				"element": "H" 
			},
			{
				"x": -1.5357353885,
				"y": -1.7569902276,
				"z": -2.2587762484,
				"element": "H" 
			},
			{
				"x": -1.8401046395,
				"y": -3.4680843856,
				"z": -1.9376726124,
				"element": "H" 
			},
			{
				"x": -0.8576756713,
				"y": 1.2514078396,
				"z": -2.2884156101,
				"element": "H" 
			},
			{
				"x": 0.1749615069,
				"y": 3.3492553979,
				"z": -3.1178010886,
				"element": "H" 
			},
			{
				"x": 2.1946018907,
				"y": 4.2608272819,
				"z": -1.9622803217,
				"element": "H" 
			},
			{
				"x": 3.1004582961,
				"y": 3.0927002431,
				"z": 0.0180732824,
				"element": "H" 
			}
		],
		 "valence_orbital": [ 
			{
				"type": "occ",
				"energy": -0.25438,
				"method": "rhf"
			},
			{
				"type": "occ",
				"energy": -0.24186,
				"method": "rhf"
			},
			{
				"type": "occ",
				"energy": -0.23363,
				"method": "rhf"
			},
			{
				"type": "occ",
				"energy": -0.22888,
				"method": "rhf"
			},
			{
				"type": "occ",
				"energy": -0.22317,
				"method": "rhf"
			},
			{
				"type": "unocc",
				"energy": -0.00665,
				"method": "rhf"
			},
			{
				"type": "unocc",
				"energy": 0.0024,
				"method": "rhf"
			},
			{
				"type": "unocc",
				"energy": 0.03012,
				"method": "rhf"
			},
			{
				"type": "unocc",
				"energy": 0.05201,
				"method": "rhf"
			},
			{
				"type": "unocc",
				"energy": 0.0875,
				"method": "rhf"
			}
		],
		"cosmo_sigma_profile": { 
			"-0.025": 0.0,
			"-0.024": 0.0,
			"-0.023": 0.0,
			"-0.022": 0.0,
			"-0.021": 0.0,
			"-0.02": 0.0,
			"-0.019": 0.0,
			"-0.018": 0.0,
			"-0.017": 0.0,
			"-0.016": 0.0,
			"-0.015": 0.0,
			"-0.014": 0.0,
			"-0.013": 0.0,
			"-0.012": 0.0,
			"-0.011": 0.0,
			"-0.01": 0.576317796905,
			"-0.009": 2.01412162883,
			"-0.008": 2.60946666711,
			"-0.007": 3.38291237391,
			"-0.006": 8.82170496751,
			"-0.005": 15.8770969867,
			"-0.004": 24.1011252911,
			"-0.003": 43.2890493657,
			"-0.002": 43.9324730771,
			"-0.001": 32.5346532658,
			"0.0": 27.7100464343,
			"0.001": 23.6132542626,
			"0.002": 13.0658351201,
			"0.003": 11.4788371522,
			"0.004": 9.28796647627,
			"0.005": 11.3293336623,
			"0.006": 9.87333286036,
			"0.007": 2.22726882016,
			"0.008": 2.66259785092,
			"0.009": 2.36462711994,
			"0.01": 2.50801947969,
			"0.011": 2.51374094377,
			"0.012": 2.90257042896,
			"0.013": 4.55089386433,
			"0.014": 3.8494622349,
			"0.015": 1.02238333536,
			"0.016": 0.867716931642,
			"0.017": 0.529858192549,
			"0.018": 0.508261089658,
			"0.019": 0.18131289424,
			"0.02": 0.0,
			"0.021": 0.0,
			"0.022": 0.0,
			"0.023": 0.0,
			"0.024": 0.0,
			"0.025": 0.0
		}
	}
}
