{
	 "smiles": "CS(=O)(=O)C1=CC=C(C(=O)C2C(=O)CCCC2=O)C(Cl)=C1", 
	 "Tm": 412.15, 
	 "num_atms": 34, 
	 "gaussian": { 
		 "optdone": 1, 
		 "sigma_profile": "yes", 
		 "theory": "DFT", 
		 "functional": "B3LYP", 
		 "basiset": "6-31G**", 
		 "properties": { 
			 "R2extent": 9623.6955, 
			 "electric_dipole_moment_norm": 4.81263796789, 
			 "electric_quadrupole_moment_norm": 35.6474951981, 
			 "total_energy": -1775.74108573, 
			 "HOMO_LUMO_gap": 0.16858, 
			 "cosmo_polarized_energy": -23.3, 
			 "cosmo_cavitation_energy": 40.99, 
			 "cosmo_dispersion_energy": -29.24, 
			 "cosmo_repulsion_energy": 2.2, 
			 "cosmo_total_nonelectrostatic_energy": 13.95, 
			 "SMD_solvation_energy": 7.52 
		},
		"coords": [
			{
				"x": -0.2364992828,
				"y": -4.497508139,
				"z": -3.9987677914,
				"element": "C" 
			},
			{
				"x": -0.038796371,
				"y": -2.8003354131,
				"z": -4.5906517641,
				"element": "S" 
			},
			{
				"x": 1.3170190642,
				"y": -2.6746585602,
				"z": -5.1438346525,
				"element": "O" 
			},
			{
				"x": -1.2285578662,
				"y": -2.4617048716,
				"z": -5.3841716743,
				"element": "O" 
			},
			{
				"x": -0.1028684025,
				"y": -1.8205086034,
				"z": -3.0716213034,
				"element": "C" 
			},
			{
				"x": -1.3309413164,
				"y": -1.3541532649,
				"z": -2.6061383174,
				"element": "C" 
			},
			{
				"x": -1.3611953143,
				"y": -0.6224983514,
				"z": -1.42253663,
				"element": "C" 
			},
			{
				"x": -0.1821218657,
				"y": -0.3215504306,
				"z": -0.717668035,
				"element": "C" 
			},
			{
				"x": -0.2736644746,
				"y": 0.5402859937,
				"z": 0.5105358531,
				"element": "C" 
			},
			{
				"x": 0.5671135929,
				"y": 1.3761220271,
				"z": 0.7804604262,
				"element": "O" 
			},
			{
				"x": -1.4930002644,
				"y": 0.3197413349,
				"z": 1.4428855496,
				"element": "C" 
			},
			{
				"x": -0.9922488709,
				"y": 0.2429257625,
				"z": 2.89904815,
				"element": "C" 
			},
			{
				"x": -0.8287802209,
				"y": -0.8405041623,
				"z": 3.4187935335,
				"element": "O" 
			},
			{
				"x": -0.745566327,
				"y": 1.5485467476,
				"z": 3.6427312939,
				"element": "C" 
			},
			{
				"x": -1.2467483157,
				"y": 2.8049009262,
				"z": 2.9139464442,
				"element": "C" 
			},
			{
				"x": -2.5986846389,
				"y": 2.5549718953,
				"z": 2.2299501801,
				"element": "C" 
			},
			{
				"x": -2.5483275794,
				"y": 1.4286168201,
				"z": 1.2136530363,
				"element": "C" 
			},
			{
				"x": -3.3069861574,
				"y": 1.3619021459,
				"z": 0.2669879535,
				"element": "O" 
			},
			{
				"x": 1.0469266006,
				"y": -0.7863534947,
				"z": -1.2302734664,
				"element": "C" 
			},
			{
				"x": 2.5697054186,
				"y": -0.5021775045,
				"z": -0.4212225415,
				"element": "Cl" 
			},
			{
				"x": 1.0859832897,
				"y": -1.544901087,
				"z": -2.4006988915,
				"element": "C" 
			},
			{
				"x": 0.5878267277,
				"y": -4.7434300454,
				"z": -3.328030132,
				"element": "H" 
			},
			{
				"x": -1.1997952132,
				"y": -4.5937449359,
				"z": -3.4961391349,
				"element": "H" 
			},
			{
				"x": -0.2061194644,
				"y": -5.1322424596,
				"z": -4.8869325869,
				"element": "H" 
			},
			{
				"x": -2.2373379535,
				"y": -1.5479026642,
				"z": -3.1689392529,
				"element": "H" 
			},
			{
				"x": -2.3069574107,
				"y": -0.2371317503,
				"z": -1.0525236203,
				"element": "H" 
			},
			{
				"x": -1.9574333569,
				"y": -0.6400345941,
				"z": 1.2105657659,
				"element": "H" 
			},
			{
				"x": -1.2276019582,
				"y": 1.4331413995,
				"z": 4.6211915748,
				"element": "H" 
			},
			{
				"x": 0.3310621813,
				"y": 1.611586451,
				"z": 3.8375899375,
				"element": "H" 
			},
			{
				"x": -1.3434481962,
				"y": 3.6304144126,
				"z": 3.6253720059,
				"element": "H" 
			},
			{
				"x": -0.5115227021,
				"y": 3.1094098483,
				"z": 2.1649651997,
				"element": "H" 
			},
			{
				"x": -3.3527737686,
				"y": 2.2624686891,
				"z": 2.9777451934,
				"element": "H" 
			},
			{
				"x": -2.9894723784,
				"y": 3.4429260556,
				"z": 1.7253705536,
				"element": "H" 
			},
			{
				"x": 2.0323127956,
				"y": -1.8968201771,
				"z": -2.7951428564,
				"element": "H" 
			}
		],
		 "valence_orbital": [ 
			{
				"type": "occ",
				"energy": -0.29345,
				"method": "rhf"
			},
			{
				"type": "occ",
				"energy": -0.28675,
				"method": "rhf"
			},
			{
				"type": "occ",
				"energy": -0.27671,
				"method": "rhf"
			},
			{
				"type": "occ",
				"energy": -0.27318,
				"method": "rhf"
			},
			{
				"type": "occ",
				"energy": -0.26252,
				"method": "rhf"
			},
			{
				"type": "unocc",
				"energy": -0.09394,
				"method": "rhf"
			},
			{
				"type": "unocc",
				"energy": -0.05831,
				"method": "rhf"
			},
			{
				"type": "unocc",
				"energy": -0.0434,
				"method": "rhf"
			},
			{
				"type": "unocc",
				"energy": -0.04053,
				"method": "rhf"
			},
			{
				"type": "unocc",
				"energy": -0.00922,
				"method": "rhf"
			}
		],
		"cosmo_sigma_profile": { 
			"-0.025": 0.0,
			"-0.024": 0.0,
			"-0.023": 0.0,
			"-0.022": 0.0,
			"-0.021": 0.0,
			"-0.02": 0.0,
			"-0.019": 0.0,
			"-0.018": 0.0,
			"-0.017": 0.0,
			"-0.016": 0.0,
			"-0.015": 0.0,
			"-0.014": 0.0,
			"-0.013": 0.0,
			"-0.012": 0.0,
			"-0.011": 0.302795372066,
			"-0.01": 0.9104085039,
			"-0.009": 7.20019887066,
			"-0.008": 14.3262242772,
			"-0.007": 14.3649941637,
			"-0.006": 22.4455406134,
			"-0.005": 25.1332487439,
			"-0.004": 26.3485141547,
			"-0.003": 24.3646160418,
			"-0.002": 23.6515988051,
			"-0.001": 26.5683792115,
			"0.0": 18.1701037224,
			"0.001": 12.3271666474,
			"0.002": 11.7089981513,
			"0.003": 14.0105655331,
			"0.004": 10.7573173092,
			"0.005": 6.99920153596,
			"0.006": 5.2406258676,
			"0.007": 7.7221073017,
			"0.008": 9.15054310967,
			"0.009": 9.03102490993,
			"0.01": 14.4659207243,
			"0.011": 16.3268595821,
			"0.012": 7.06652033558,
			"0.013": 0.0398144528377,
			"0.014": 0.0,
			"0.015": 0.0,
			"0.016": 0.0,
			"0.017": 0.0,
			"0.018": 0.0,
			"0.019": 0.0,
			"0.02": 0.0,
			"0.021": 0.0,
			"0.022": 0.0,
			"0.023": 0.0,
			"0.024": 0.0,
			"0.025": 0.0
		}
	}
}
