{
	 "smiles": "CN(C)C(=O)C1=CC=C(NC(=O)CCl)C=C1", 
	 "Tm": 451.15, 
	 "num_atms": 29, 
	 "gaussian": { 
		 "optdone": 1, 
		 "sigma_profile": "yes", 
		 "theory": "DFT", 
		 "functional": "B3LYP", 
		 "basiset": "6-31G**", 
		 "properties": { 
			 "R2extent": 7347.4234, 
			 "electric_dipole_moment_norm": 2.58178495231, 
			 "electric_quadrupole_moment_norm": 17.3352336861, 
			 "total_energy": -1147.1787015, 
			 "HOMO_LUMO_gap": 0.18947, 
			 "cosmo_polarized_energy": -16.6, 
			 "cosmo_cavitation_energy": 34.57, 
			 "cosmo_dispersion_energy": -25.17, 
			 "cosmo_repulsion_energy": 1.97, 
			 "cosmo_total_nonelectrostatic_energy": 11.37, 
			 "SMD_solvation_energy": 6.66 
		},
		"coords": [
			{
				"x": 0.4189170959,
				"y": 3.7479114426,
				"z": 0.2958420374,
				"element": "C" 
			},
			{
				"x": -0.2573687283,
				"y": 3.3758637288,
				"z": -0.9396229576,
				"element": "N" 
			},
			{
				"x": -0.3459209177,
				"y": 4.4384697979,
				"z": -1.932954963,
				"element": "C" 
			},
			{
				"x": -1.0995689556,
				"y": 2.2930451373,
				"z": -1.0847231424,
				"element": "C" 
			},
			{
				"x": -1.9495904969,
				"y": 2.2489693965,
				"z": -1.9731815937,
				"element": "O" 
			},
			{
				"x": -0.9306159314,
				"y": 1.1165453768,
				"z": -0.1627367501,
				"element": "C" 
			},
			{
				"x": -2.0866334477,
				"y": 0.4239596272,
				"z": 0.2240699633,
				"element": "C" 
			},
			{
				"x": -1.9996783299,
				"y": -0.7191916719,
				"z": 1.005662194,
				"element": "C" 
			},
			{
				"x": -0.7464607545,
				"y": -1.2201641202,
				"z": 1.3959319444,
				"element": "C" 
			},
			{
				"x": -0.7374649002,
				"y": -2.3910520496,
				"z": 2.1830640679,
				"element": "N" 
			},
			{
				"x": 0.3333241363,
				"y": -3.0571535489,
				"z": 2.697134568,
				"element": "C" 
			},
			{
				"x": 1.5104150911,
				"y": -2.7518696927,
				"z": 2.5646702193,
				"element": "O" 
			},
			{
				"x": 0.0423862607,
				"y": -4.3172902956,
				"z": 3.5214991785,
				"element": "C" 
			},
			{
				"x": -1.6996180146,
				"y": -4.7738524453,
				"z": 3.7585492587,
				"element": "Cl" 
			},
			{
				"x": 0.4205628689,
				"y": -0.5587689008,
				"z": 0.9869385301,
				"element": "C" 
			},
			{
				"x": 0.3143104136,
				"y": 0.5991965788,
				"z": 0.2179668672,
				"element": "C" 
			},
			{
				"x": 1.497915259,
				"y": 3.869719309,
				"z": 0.1362126063,
				"element": "H" 
			},
			{
				"x": 0.0238908989,
				"y": 4.7041411985,
				"z": 0.6655864647,
				"element": "H" 
			},
			{
				"x": 0.2620317928,
				"y": 2.9961326167,
				"z": 1.0665238456,
				"element": "H" 
			},
			{
				"x": -0.7760967864,
				"y": 4.0338888719,
				"z": -2.8472894037,
				"element": "H" 
			},
			{
				"x": 0.6555011013,
				"y": 4.8355827882,
				"z": -2.1323525679,
				"element": "H" 
			},
			{
				"x": -0.9820722634,
				"y": 5.2635854734,
				"z": -1.5831145413,
				"element": "H" 
			},
			{
				"x": -3.0517216544,
				"y": 0.7916243827,
				"z": -0.107514464,
				"element": "H" 
			},
			{
				"x": -2.906368827,
				"y": -1.2372439717,
				"z": 1.3094190941,
				"element": "H" 
			},
			{
				"x": -1.6445805966,
				"y": -2.7869533687,
				"z": 2.3956374957,
				"element": "H" 
			},
			{
				"x": 0.4765129531,
				"y": -4.1813670463,
				"z": 4.5121146517,
				"element": "H" 
			},
			{
				"x": 0.5315070724,
				"y": -5.1616453058,
				"z": 3.0351187499,
				"element": "H" 
			},
			{
				"x": 1.3859641893,
				"y": -0.9552942911,
				"z": 1.2673782173,
				"element": "H" 
			},
			{
				"x": 1.2255214713,
				"y": 1.0902109823,
				"z": -0.1096295704,
				"element": "H" 
			}
		],
		 "valence_orbital": [ 
			{
				"type": "occ",
				"energy": -0.27225,
				"method": "rhf"
			},
			{
				"type": "occ",
				"energy": -0.26261,
				"method": "rhf"
			},
			{
				"type": "occ",
				"energy": -0.25271,
				"method": "rhf"
			},
			{
				"type": "occ",
				"energy": -0.23616,
				"method": "rhf"
			},
			{
				"type": "occ",
				"energy": -0.22844,
				"method": "rhf"
			},
			{
				"type": "unocc",
				"energy": -0.03897,
				"method": "rhf"
			},
			{
				"type": "unocc",
				"energy": -0.01186,
				"method": "rhf"
			},
			{
				"type": "unocc",
				"energy": 0.00369,
				"method": "rhf"
			},
			{
				"type": "unocc",
				"energy": 0.01405,
				"method": "rhf"
			},
			{
				"type": "unocc",
				"energy": 0.06014,
				"method": "rhf"
			}
		],
		"cosmo_sigma_profile": { 
			"-0.025": 0.0,
			"-0.024": 0.0,
			"-0.023": 0.0,
			"-0.022": 0.0,
			"-0.021": 0.0,
			"-0.02": 0.0,
			"-0.019": 0.0,
			"-0.018": 0.0,
			"-0.017": 0.0,
			"-0.016": 0.0,
			"-0.015": 0.0,
			"-0.014": 0.208689545546,
			"-0.013": 0.901745284864,
			"-0.012": 0.79638311468,
			"-0.011": 1.15977822466,
			"-0.01": 1.69919489098,
			"-0.009": 5.83912477095,
			"-0.008": 5.5351657013,
			"-0.007": 6.07225343124,
			"-0.006": 9.92142355302,
			"-0.005": 17.567116394,
			"-0.004": 25.6051011938,
			"-0.003": 24.5053768073,
			"-0.002": 28.1490131948,
			"-0.001": 20.2111035703,
			"0.0": 16.2374259486,
			"0.001": 16.2912073237,
			"0.002": 16.4743811963,
			"0.003": 17.8206112263,
			"0.004": 15.780906669,
			"0.005": 10.5809038537,
			"0.006": 4.28512521201,
			"0.007": 3.62029728833,
			"0.008": 2.61698423925,
			"0.009": 2.56870467093,
			"0.01": 4.07374171685,
			"0.011": 3.80315609265,
			"0.012": 5.23802617832,
			"0.013": 3.86095429448,
			"0.014": 4.89229860485,
			"0.015": 0.843623784429,
			"0.016": 0.0,
			"0.017": 0.0,
			"0.018": 0.0,
			"0.019": 0.0,
			"0.02": 0.0,
			"0.021": 0.0,
			"0.022": 0.0,
			"0.023": 0.0,
			"0.024": 0.0,
			"0.025": 0.0
		}
	}
}
