{
	 "smiles": "NC1=CC(Cl)=CC=C1N(=O)=O", 
	 "Tm": 401.15, 
	 "num_atms": 16, 
	 "gaussian": { 
		 "optdone": 1, 
		 "sigma_profile": "yes", 
		 "theory": "DFT", 
		 "functional": "B3LYP", 
		 "basiset": "6-31G**", 
		 "properties": { 
			 "R2extent": 2501.939, 
			 "electric_dipole_moment_norm": 3.28259129652, 
			 "electric_quadrupole_moment_norm": 20.0139997926, 
			 "total_energy": -951.70355102, 
			 "HOMO_LUMO_gap": 0.14555, 
			 "cosmo_polarized_energy": -10.77, 
			 "cosmo_cavitation_energy": 22.51, 
			 "cosmo_dispersion_energy": -17.27, 
			 "cosmo_repulsion_energy": 1.38, 
			 "cosmo_total_nonelectrostatic_energy": 6.62, 
			 "SMD_solvation_energy": 5.6 
		},
		"coords": [
			{
				"x": -0.4189858422,
				"y": -3.2484334117,
				"z": -0.2066852788,
				"element": "N" 
			},
			{
				"x": -0.1297300923,
				"y": -1.9365592466,
				"z": -0.3752981778,
				"element": "C" 
			},
			{
				"x": 0.0349678924,
				"y": -1.4218517621,
				"z": -1.6865927172,
				"element": "C" 
			},
			{
				"x": 0.3303405393,
				"y": -0.0889694589,
				"z": -1.8929704211,
				"element": "C" 
			},
			{
				"x": 0.5225759797,
				"y": 0.4905691438,
				"z": -3.5353322463,
				"element": "Cl" 
			},
			{
				"x": 0.4818833081,
				"y": 0.8181548587,
				"z": -0.8307038289,
				"element": "C" 
			},
			{
				"x": 0.3256365644,
				"y": 0.3375201785,
				"z": 0.4538761596,
				"element": "C" 
			},
			{
				"x": 0.0251921085,
				"y": -1.011831899,
				"z": 0.6984063965,
				"element": "C" 
			},
			{
				"x": -0.1180343655,
				"y": -1.4130472591,
				"z": 2.0819092211,
				"element": "N" 
			},
			{
				"x": -0.3849171676,
				"y": -2.6032274489,
				"z": 2.3381395966,
				"element": "O" 
			},
			{
				"x": 0.0292915811,
				"y": -0.5620458873,
				"z": 2.9595000047,
				"element": "O" 
			},
			{
				"x": -0.5329561522,
				"y": -3.5968690352,
				"z": 0.7344424388,
				"element": "H" 
			},
			{
				"x": -0.5155979897,
				"y": -3.8492967381,
				"z": -1.0076285199,
				"element": "H" 
			},
			{
				"x": -0.0745113531,
				"y": -2.091970029,
				"z": -2.5323378614,
				"element": "H" 
			},
			{
				"x": 0.7135604255,
				"y": 1.8585219322,
				"z": -1.0202555543,
				"element": "H" 
			},
			{
				"x": 0.4307845636,
				"y": 0.9900360627,
				"z": 1.3112307885,
				"element": "H" 
			}
		],
		 "valence_orbital": [ 
			{
				"type": "occ",
				"energy": -0.30953,
				"method": "rhf"
			},
			{
				"type": "occ",
				"energy": -0.3073,
				"method": "rhf"
			},
			{
				"type": "occ",
				"energy": -0.29067,
				"method": "rhf"
			},
			{
				"type": "occ",
				"energy": -0.27208,
				"method": "rhf"
			},
			{
				"type": "occ",
				"energy": -0.23402,
				"method": "rhf"
			},
			{
				"type": "unocc",
				"energy": -0.08847,
				"method": "rhf"
			},
			{
				"type": "unocc",
				"energy": -0.01746,
				"method": "rhf"
			},
			{
				"type": "unocc",
				"energy": -0.0011,
				"method": "rhf"
			},
			{
				"type": "unocc",
				"energy": 0.01538,
				"method": "rhf"
			},
			{
				"type": "unocc",
				"energy": 0.07217,
				"method": "rhf"
			}
		],
		"cosmo_sigma_profile": { 
			"-0.025": 0.0,
			"-0.024": 0.0,
			"-0.023": 0.0,
			"-0.022": 0.0,
			"-0.021": 0.0,
			"-0.02": 0.0,
			"-0.019": 0.0,
			"-0.018": 0.0,
			"-0.017": 0.0,
			"-0.016": 0.0132751220142,
			"-0.015": 1.20732647595,
			"-0.014": 1.69625788157,
			"-0.013": 1.82264319873,
			"-0.012": 1.19174382856,
			"-0.011": 2.06713350984,
			"-0.01": 2.4501345631,
			"-0.009": 2.44008485246,
			"-0.008": 3.41499324023,
			"-0.007": 5.12549666828,
			"-0.006": 6.02449229984,
			"-0.005": 6.8773826594,
			"-0.004": 7.21411298638,
			"-0.003": 8.32631850452,
			"-0.002": 10.0896379528,
			"-0.001": 12.1192212301,
			"0.0": 18.5529745012,
			"0.001": 23.3002840376,
			"0.002": 16.0454684489,
			"0.003": 13.5331594691,
			"0.004": 11.8519286844,
			"0.005": 3.050386958,
			"0.006": 3.3737320095,
			"0.007": 3.54629950441,
			"0.008": 6.28536893226,
			"0.009": 4.89182017082,
			"0.01": 4.00394093697,
			"0.011": 2.46767353847,
			"0.012": 0.03168510958,
			"0.013": 0.0,
			"0.014": 0.0,
			"0.015": 0.0,
			"0.016": 0.0,
			"0.017": 0.0,
			"0.018": 0.0,
			"0.019": 0.0,
			"0.02": 0.0,
			"0.021": 0.0,
			"0.022": 0.0,
			"0.023": 0.0,
			"0.024": 0.0,
			"0.025": 0.0
		}
	}
}
