{
	 "smiles": "CC(Cl)C(=O)NC1=CC(C)=C(Br)C=C1", 
	 "Tm": 423.15, 
	 "num_atms": 25, 
	 "gaussian": { 
		 "optdone": 1, 
		 "sigma_profile": "yes", 
		 "theory": "DFT", 
		 "functional": "B3LYP", 
		 "basiset": "6-31G**", 
		 "properties": { 
			 "R2extent": 6669.5171, 
			 "electric_dipole_moment_norm": 2.51985925797, 
			 "electric_quadrupole_moment_norm": 16.7952774404, 
			 "total_energy": -3549.29044341, 
			 "HOMO_LUMO_gap": 0.20706, 
			 "cosmo_polarized_energy": -12.52, 
			 "cosmo_cavitation_energy": 32.89, 
			 "cosmo_dispersion_energy": -23.28, 
			 "cosmo_repulsion_energy": 1.87, 
			 "cosmo_total_nonelectrostatic_energy": 11.48, 
			 "SMD_solvation_energy": 4.93 
		},
		"coords": [
			{
				"x": -0.8484339715,
				"y": -0.0697903252,
				"z": -3.8066546693,
				"element": "C" 
			},
			{
				"x": -0.9463567661,
				"y": -0.6944751467,
				"z": -2.4274904114,
				"element": "C" 
			},
			{
				"x": -0.6116872134,
				"y": -2.4991253863,
				"z": -2.5199431297,
				"element": "Cl" 
			},
			{
				"x": -2.3511533667,
				"y": -0.5324003916,
				"z": -1.8259753743,
				"element": "C" 
			},
			{
				"x": -3.3318612372,
				"y": -0.3730583721,
				"z": -2.5351153118,
				"element": "O" 
			},
			{
				"x": -2.4702465035,
				"y": -0.5997640343,
				"z": -0.4557541835,
				"element": "N" 
			},
			{
				"x": -1.4638607284,
				"y": -0.7670054517,
				"z": 0.5397873324,
				"element": "C" 
			},
			{
				"x": -1.4578666878,
				"y": -1.9222081121,
				"z": 1.3275342856,
				"element": "C" 
			},
			{
				"x": -0.5232495872,
				"y": -2.1184473657,
				"z": 2.3515145729,
				"element": "C" 
			},
			{
				"x": -0.5483931872,
				"y": -3.376432593,
				"z": 3.1796277607,
				"element": "C" 
			},
			{
				"x": 0.4279378805,
				"y": -1.1046577715,
				"z": 2.5469184799,
				"element": "C" 
			},
			{
				"x": 1.7554540872,
				"y": -1.2872686829,
				"z": 3.9139012944,
				"element": "Br" 
			},
			{
				"x": 0.4414992684,
				"y": 0.0545819577,
				"z": 1.7742735923,
				"element": "C" 
			},
			{
				"x": -0.5156844066,
				"y": 0.2329327456,
				"z": 0.7777014508,
				"element": "C" 
			},
			{
				"x": -1.6356268777,
				"y": -0.4570133788,
				"z": -4.454557081,
				"element": "H" 
			},
			{
				"x": 0.1296095245,
				"y": -0.2693991627,
				"z": -4.249267802,
				"element": "H" 
			},
			{
				"x": -0.9822280977,
				"y": 1.0143579575,
				"z": -3.7219855791,
				"element": "H" 
			},
			{
				"x": -0.1759813734,
				"y": -0.3163570425,
				"z": -1.7569442032,
				"element": "H" 
			},
			{
				"x": -3.4377866285,
				"y": -0.6319006889,
				"z": -0.1563998679,
				"element": "H" 
			},
			{
				"x": -2.1939585972,
				"y": -2.6955402661,
				"z": 1.1281097129,
				"element": "H" 
			},
			{
				"x": -0.6782865285,
				"y": -3.147573461,
				"z": 4.2426531962,
				"element": "H" 
			},
			{
				"x": 0.3930490898,
				"y": -3.9281185601,
				"z": 3.0880697531,
				"element": "H" 
			},
			{
				"x": -1.3634941331,
				"y": -4.0321553033,
				"z": 2.8649420467,
				"element": "H" 
			},
			{
				"x": 1.1839635404,
				"y": 0.8208222692,
				"z": 1.9651400777,
				"element": "H" 
			},
			{
				"x": -0.5399574992,
				"y": 1.1523965666,
				"z": 0.2014140578,
				"element": "H" 
			}
		],
		 "valence_orbital": [ 
			{
				"type": "occ",
				"energy": -0.29481,
				"method": "rhf"
			},
			{
				"type": "occ",
				"energy": -0.28065,
				"method": "rhf"
			},
			{
				"type": "occ",
				"energy": -0.2692,
				"method": "rhf"
			},
			{
				"type": "occ",
				"energy": -0.26375,
				"method": "rhf"
			},
			{
				"type": "occ",
				"energy": -0.24248,
				"method": "rhf"
			},
			{
				"type": "unocc",
				"energy": -0.03542,
				"method": "rhf"
			},
			{
				"type": "unocc",
				"energy": -0.02599,
				"method": "rhf"
			},
			{
				"type": "unocc",
				"energy": -0.01888,
				"method": "rhf"
			},
			{
				"type": "unocc",
				"energy": 0.00011,
				"method": "rhf"
			},
			{
				"type": "unocc",
				"energy": 0.05859,
				"method": "rhf"
			}
		],
		"cosmo_sigma_profile": { 
			"-0.025": 0.0,
			"-0.024": 0.0,
			"-0.023": 0.0,
			"-0.022": 0.0,
			"-0.021": 0.0,
			"-0.02": 0.0,
			"-0.019": 0.0,
			"-0.018": 0.0,
			"-0.017": 0.0,
			"-0.016": 0.0,
			"-0.015": 0.581154423659,
			"-0.014": 1.02739901292,
			"-0.013": 1.17796028173,
			"-0.012": 0.775161855939,
			"-0.011": 0.771194050613,
			"-0.01": 1.18211987083,
			"-0.009": 1.47519829916,
			"-0.008": 4.16811755388,
			"-0.007": 10.0784279498,
			"-0.006": 11.4540342398,
			"-0.005": 12.4352418895,
			"-0.004": 18.349856882,
			"-0.003": 16.5569736646,
			"-0.002": 18.2939334929,
			"-0.001": 24.0431526104,
			"0.0": 22.9173349058,
			"0.001": 18.2085941745,
			"0.002": 23.1455480581,
			"0.003": 22.5027714315,
			"0.004": 19.708413579,
			"0.005": 13.4517964787,
			"0.006": 7.72802460021,
			"0.007": 1.69877578905,
			"0.008": 1.27611866105,
			"0.009": 0.762984402385,
			"0.01": 2.00893618315,
			"0.011": 1.88455412367,
			"0.012": 4.28844031611,
			"0.013": 4.00641231588,
			"0.014": 0.167343107257,
			"0.015": 0.0,
			"0.016": 0.0,
			"0.017": 0.0,
			"0.018": 0.0,
			"0.019": 0.0,
			"0.02": 0.0,
			"0.021": 0.0,
			"0.022": 0.0,
			"0.023": 0.0,
			"0.024": 0.0,
			"0.025": 0.0
		}
	}
}
