{
	 "smiles": "BrC(C(=O)CC1=CC=CC=C1)C1=CC=CC=C1", 
	 "Tm": 321.15, 
	 "num_atms": 30, 
	 "gaussian": { 
		 "optdone": 1, 
		 "sigma_profile": "yes", 
		 "theory": "DFT", 
		 "functional": "B3LYP", 
		 "basiset": "6-31G**", 
		 "properties": { 
			 "R2extent": 6165.6067, 
			 "electric_dipole_moment_norm": 3.83632507225, 
			 "electric_quadrupole_moment_norm": 13.3412904608, 
			 "total_energy": -3226.05920035, 
			 "HOMO_LUMO_gap": 0.19159, 
			 "cosmo_polarized_energy": -12.1, 
			 "cosmo_cavitation_energy": 36.7, 
			 "cosmo_dispersion_energy": -24.99, 
			 "cosmo_repulsion_energy": 1.97, 
			 "cosmo_total_nonelectrostatic_energy": 13.67, 
			 "SMD_solvation_energy": 5.24 
		},
		"coords": [
			{
				"x": -0.1571852117,
				"y": 1.9835111254,
				"z": -1.0384242074,
				"element": "Br" 
			},
			{
				"x": 0.5893179805,
				"y": 0.1866075262,
				"z": -0.6299114786,
				"element": "C" 
			},
			{
				"x": 2.0694369559,
				"y": 0.2942639605,
				"z": -0.2294763662,
				"element": "C" 
			},
			{
				"x": 2.8084842297,
				"y": 1.1695934879,
				"z": -0.6214145687,
				"element": "O" 
			},
			{
				"x": 2.5517609824,
				"y": -0.8194462277,
				"z": 0.703859181,
				"element": "C" 
			},
			{
				"x": 2.1405790893,
				"y": -0.5371123374,
				"z": 2.1405144502,
				"element": "C" 
			},
			{
				"x": 1.277536453,
				"y": -1.3990578447,
				"z": 2.8281806107,
				"element": "C" 
			},
			{
				"x": 0.9034310423,
				"y": -1.1292816315,
				"z": 4.1464577083,
				"element": "C" 
			},
			{
				"x": 1.3855558646,
				"y": 0.0102760928,
				"z": 4.79090692,
				"element": "C" 
			},
			{
				"x": 2.2439085952,
				"y": 0.878137709,
				"z": 4.1111208247,
				"element": "C" 
			},
			{
				"x": 2.6175837194,
				"y": 0.6078721751,
				"z": 2.7953976661,
				"element": "C" 
			},
			{
				"x": 0.4165186484,
				"y": -0.7590100293,
				"z": -1.7943887144,
				"element": "C" 
			},
			{
				"x": -0.488185767,
				"y": -1.8244954763,
				"z": -1.7033817706,
				"element": "C" 
			},
			{
				"x": -0.6364393851,
				"y": -2.7191741817,
				"z": -2.7643624249,
				"element": "C" 
			},
			{
				"x": 0.1202954225,
				"y": -2.5567126824,
				"z": -3.9253321743,
				"element": "C" 
			},
			{
				"x": 1.0249315899,
				"y": -1.495506936,
				"z": -4.0224335055,
				"element": "C" 
			},
			{
				"x": 1.1749416146,
				"y": -0.6017819464,
				"z": -2.9644931079,
				"element": "C" 
			},
			{
				"x": 0.0107867293,
				"y": -0.1606846226,
				"z": 0.2266501305,
				"element": "H" 
			},
			{
				"x": 2.1395235624,
				"y": -1.7804969513,
				"z": 0.3790723037,
				"element": "H" 
			},
			{
				"x": 3.6409894845,
				"y": -0.8599436886,
				"z": 0.6105366794,
				"element": "H" 
			},
			{
				"x": 0.9046870191,
				"y": -2.2927297708,
				"z": 2.3333428646,
				"element": "H" 
			},
			{
				"x": 0.2373421345,
				"y": -1.8107281364,
				"z": 4.6680137941,
				"element": "H" 
			},
			{
				"x": 1.0955531361,
				"y": 0.2214884194,
				"z": 5.8160079331,
				"element": "H" 
			},
			{
				"x": 2.6220512741,
				"y": 1.7681042377,
				"z": 4.605884095,
				"element": "H" 
			},
			{
				"x": 3.2797911552,
				"y": 1.2876453637,
				"z": 2.266034067,
				"element": "H" 
			},
			{
				"x": -1.0845656601,
				"y": -1.9481050691,
				"z": -0.8029651728,
				"element": "H" 
			},
			{
				"x": -1.3439452201,
				"y": -3.5392519514,
				"z": -2.6836172872,
				"element": "H" 
			},
			{
				"x": 0.0051142195,
				"y": -3.2514123016,
				"z": -4.7522011517,
				"element": "H" 
			},
			{
				"x": 1.6145640867,
				"y": -1.364217495,
				"z": -4.9249865175,
				"element": "H" 
			},
			{
				"x": 1.8714362546,
				"y": 0.2276491823,
				"z": -3.0402907806,
				"element": "H" 
			}
		],
		 "valence_orbital": [ 
			{
				"type": "occ",
				"energy": -0.26731,
				"method": "rhf"
			},
			{
				"type": "occ",
				"energy": -0.26036,
				"method": "rhf"
			},
			{
				"type": "occ",
				"energy": -0.25742,
				"method": "rhf"
			},
			{
				"type": "occ",
				"energy": -0.252,
				"method": "rhf"
			},
			{
				"type": "occ",
				"energy": -0.24206,
				"method": "rhf"
			},
			{
				"type": "unocc",
				"energy": -0.05047,
				"method": "rhf"
			},
			{
				"type": "unocc",
				"energy": -0.02333,
				"method": "rhf"
			},
			{
				"type": "unocc",
				"energy": -0.01168,
				"method": "rhf"
			},
			{
				"type": "unocc",
				"energy": -0.01091,
				"method": "rhf"
			},
			{
				"type": "unocc",
				"energy": 0.00458,
				"method": "rhf"
			}
		],
		"cosmo_sigma_profile": { 
			"-0.025": 0.0,
			"-0.024": 0.0,
			"-0.023": 0.0,
			"-0.022": 0.0,
			"-0.021": 0.0,
			"-0.02": 0.0,
			"-0.019": 0.0,
			"-0.018": 0.0,
			"-0.017": 0.0,
			"-0.016": 0.0,
			"-0.015": 0.0,
			"-0.014": 0.0,
			"-0.013": 0.0,
			"-0.012": 0.0,
			"-0.011": 0.0,
			"-0.01": 0.0,
			"-0.009": 0.589067641646,
			"-0.008": 2.02152462287,
			"-0.007": 5.68258105007,
			"-0.006": 19.2849185989,
			"-0.005": 25.8419824577,
			"-0.004": 28.2657557829,
			"-0.003": 25.7007329596,
			"-0.002": 20.0055871918,
			"-0.001": 18.7358983488,
			"0.0": 18.1142306948,
			"0.001": 17.3899384972,
			"0.002": 18.7044496699,
			"0.003": 19.7004387988,
			"0.004": 25.1458219549,
			"0.005": 23.5937000465,
			"0.006": 11.8468155747,
			"0.007": 2.40267188338,
			"0.008": 1.57095139726,
			"0.009": 2.6163678985,
			"0.01": 3.04720593128,
			"0.011": 3.98237373048,
			"0.012": 1.80600945293,
			"0.013": 0.0660306759462,
			"0.014": 0.0,
			"0.015": 0.0,
			"0.016": 0.0,
			"0.017": 0.0,
			"0.018": 0.0,
			"0.019": 0.0,
			"0.02": 0.0,
			"0.021": 0.0,
			"0.022": 0.0,
			"0.023": 0.0,
			"0.024": 0.0,
			"0.025": 0.0
		}
	}
}
