{
	 "smiles": "NCCCCCCO", 
	 "Tm": 329.65, 
	 "num_atms": 23, 
	 "gaussian": { 
		 "optdone": 1, 
		 "sigma_profile": "yes", 
		 "theory": "DFT", 
		 "functional": "B3LYP", 
		 "basiset": "6-31G**", 
		 "properties": { 
			 "R2extent": 1745.854, 
			 "electric_dipole_moment_norm": 2.8182325667, 
			 "electric_quadrupole_moment_norm": 7.57180466402, 
			 "total_energy": -367.647370313, 
			 "HOMO_LUMO_gap": 0.29478, 
			 "cosmo_polarized_energy": -9.38, 
			 "cosmo_cavitation_energy": 24.47, 
			 "cosmo_dispersion_energy": -17.66, 
			 "cosmo_repulsion_energy": 1.53, 
			 "cosmo_total_nonelectrostatic_energy": 8.33, 
			 "SMD_solvation_energy": 2.43 
		},
		"coords": [
			{
				"x": 0.6911733615,
				"y": 0.6271631495,
				"z": -2.2519878195,
				"element": "N" 
			},
			{
				"x": 2.0614894575,
				"y": 0.594840502,
				"z": -1.7340937127,
				"element": "C" 
			},
			{
				"x": 2.3155445901,
				"y": 1.0575158818,
				"z": -0.2848216056,
				"element": "C" 
			},
			{
				"x": 1.6485273556,
				"y": 0.2141656628,
				"z": 0.8211420307,
				"element": "C" 
			},
			{
				"x": 0.2031855315,
				"y": 0.6072159692,
				"z": 1.1626766168,
				"element": "C" 
			},
			{
				"x": -0.4085983674,
				"y": -0.2578260977,
				"z": 2.2710147488,
				"element": "C" 
			},
			{
				"x": -1.8561848911,
				"y": 0.0981669192,
				"z": 2.5887857548,
				"element": "C" 
			},
			{
				"x": -2.6393651576,
				"y": -0.143478458,
				"z": 1.4233615447,
				"element": "O" 
			},
			{
				"x": 0.0995634557,
				"y": -0.0209326833,
				"z": -1.7396887221,
				"element": "H" 
			},
			{
				"x": 0.2857075158,
				"y": 1.5510289546,
				"z": -2.1183742575,
				"element": "H" 
			},
			{
				"x": 2.4270848671,
				"y": -0.4346684926,
				"z": -1.8455948979,
				"element": "H" 
			},
			{
				"x": 2.6801348783,
				"y": 1.2078202535,
				"z": -2.4026267068,
				"element": "H" 
			},
			{
				"x": 2.0099949208,
				"y": 2.109115156,
				"z": -0.1792855573,
				"element": "H" 
			},
			{
				"x": 3.4035156122,
				"y": 1.0466103223,
				"z": -0.1316411384,
				"element": "H" 
			},
			{
				"x": 2.248580771,
				"y": 0.2928438269,
				"z": 1.737840315,
				"element": "H" 
			},
			{
				"x": 1.6829330019,
				"y": -0.8481903606,
				"z": 0.536709781,
				"element": "H" 
			},
			{
				"x": -0.4361572396,
				"y": 0.5436595321,
				"z": 0.2773979245,
				"element": "H" 
			},
			{
				"x": 0.1844313593,
				"y": 1.6616198224,
				"z": 1.4755721692,
				"element": "H" 
			},
			{
				"x": -0.3708150589,
				"y": -1.3157573409,
				"z": 1.979989374,
				"element": "H" 
			},
			{
				"x": 0.1816378931,
				"y": -0.1631075284,
				"z": 3.1926168401,
				"element": "H" 
			},
			{
				"x": -1.9191981985,
				"y": 1.1557327043,
				"z": 2.8961572957,
				"element": "H" 
			},
			{
				"x": -2.2100328524,
				"y": -0.5109165198,
				"z": 3.4361665866,
				"element": "H" 
			},
			{
				"x": -3.5474528059,
				"y": 0.1241788246,
				"z": 1.6090834358,
				"element": "H" 
			}
		],
		 "valence_orbital": [ 
			{
				"type": "occ",
				"energy": -0.32101,
				"method": "rhf"
			},
			{
				"type": "occ",
				"energy": -0.31934,
				"method": "rhf"
			},
			{
				"type": "occ",
				"energy": -0.30593,
				"method": "rhf"
			},
			{
				"type": "occ",
				"energy": -0.2651,
				"method": "rhf"
			},
			{
				"type": "occ",
				"energy": -0.22127,
				"method": "rhf"
			},
			{
				"type": "unocc",
				"energy": 0.07351,
				"method": "rhf"
			},
			{
				"type": "unocc",
				"energy": 0.08356,
				"method": "rhf"
			},
			{
				"type": "unocc",
				"energy": 0.11083,
				"method": "rhf"
			},
			{
				"type": "unocc",
				"energy": 0.11467,
				"method": "rhf"
			},
			{
				"type": "unocc",
				"energy": 0.12141,
				"method": "rhf"
			}
		],
		"cosmo_sigma_profile": { 
			"-0.025": 0.0,
			"-0.024": 0.0,
			"-0.023": 0.0,
			"-0.022": 0.0,
			"-0.021": 0.0,
			"-0.02": 0.0,
			"-0.019": 0.0,
			"-0.018": 0.0,
			"-0.017": 0.0,
			"-0.016": 0.155121257298,
			"-0.015": 1.23956858923,
			"-0.014": 0.698306243923,
			"-0.013": 0.968210326287,
			"-0.012": 0.738852881491,
			"-0.011": 1.1581915516,
			"-0.01": 0.733515654033,
			"-0.009": 1.35836297658,
			"-0.008": 2.78789539455,
			"-0.007": 3.1049351811,
			"-0.006": 4.29551939108,
			"-0.005": 4.61447671954,
			"-0.004": 4.31899690695,
			"-0.003": 12.8485849129,
			"-0.002": 32.240613353,
			"-0.001": 35.1727383006,
			"0.0": 24.9513898213,
			"0.001": 16.6939128025,
			"0.002": 6.40440057265,
			"0.003": 3.42254223816,
			"0.004": 2.50189828771,
			"0.005": 2.35169853201,
			"0.006": 2.70724824191,
			"0.007": 1.87603380288,
			"0.008": 1.72704882821,
			"0.009": 2.96694379978,
			"0.01": 2.22934700169,
			"0.011": 2.31124236831,
			"0.012": 2.41377932652,
			"0.013": 1.82560671257,
			"0.014": 1.64802112786,
			"0.015": 1.00969514748,
			"0.016": 1.30015633568,
			"0.017": 0.442338458622,
			"0.018": 0.59976752679,
			"0.019": 0.726664849585,
			"0.02": 0.457344336591,
			"0.021": 0.0,
			"0.022": 0.0,
			"0.023": 0.0,
			"0.024": 0.0,
			"0.025": 0.0
		}
	}
}
