{
	 "smiles": "OC1=C(C=C/[N+]([O-])=O)C=C(Cl)C=C1", 
	 "Tm": 424.15, 
	 "num_atms": 19, 
	 "gaussian": { 
		 "optdone": 1, 
		 "sigma_profile": "yes", 
		 "theory": "DFT", 
		 "functional": "B3LYP", 
		 "basiset": "6-31G**", 
		 "properties": { 
			 "R2extent": 4039.6164, 
			 "electric_dipole_moment_norm": 3.052650432, 
			 "electric_quadrupole_moment_norm": 20.6979572811, 
			 "total_energy": -1048.94939829, 
			 "HOMO_LUMO_gap": 0.14304, 
			 "cosmo_polarized_energy": -15.31, 
			 "cosmo_cavitation_energy": 26.36, 
			 "cosmo_dispersion_energy": -19.13, 
			 "cosmo_repulsion_energy": 1.53, 
			 "cosmo_total_nonelectrostatic_energy": 8.76, 
			 "SMD_solvation_energy": 7.23 
		},
		"coords": [
			{
				"x": -2.6702913072,
				"y": -0.3041167232,
				"z": 0.8395346482,
				"element": "O" 
			},
			{
				"x": -2.1748925025,
				"y": -1.0181740064,
				"z": -0.2015594452,
				"element": "C" 
			},
			{
				"x": -1.2003344624,
				"y": -0.4067395128,
				"z": -1.0204411722,
				"element": "C" 
			},
			{
				"x": -0.6684747607,
				"y": 0.9412860383,
				"z": -0.7813515736,
				"element": "C" 
			},
			{
				"x": -0.2744861595,
				"y": 1.5669345774,
				"z": 0.3370378874,
				"element": "C" 
			},
			{
				"x": -0.1848637911,
				"y": 0.9853106826,
				"z": 1.6655855283,
				"element": "N" 
			},
			{
				"x": -0.1601950397,
				"y": 1.7952271976,
				"z": 2.5965151744,
				"element": "O" 
			},
			{
				"x": -0.0966082737,
				"y": -0.2348970902,
				"z": 1.7881243719,
				"element": "O" 
			},
			{
				"x": -0.7702081488,
				"y": -1.0878662007,
				"z": -2.1713383484,
				"element": "C" 
			},
			{
				"x": -1.2338917848,
				"y": -2.3658151166,
				"z": -2.4591247913,
				"element": "C" 
			},
			{
				"x": -0.6486246731,
				"y": -3.2034711248,
				"z": -3.8882393541,
				"element": "Cl" 
			},
			{
				"x": -2.1655986599,
				"y": -2.9847302096,
				"z": -1.625990807,
				"element": "C" 
			},
			{
				"x": -2.6377255961,
				"y": -2.301834261,
				"z": -0.5088985835,
				"element": "C" 
			},
			{
				"x": -3.2341587582,
				"y": -0.8665704201,
				"z": 1.3859613265,
				"element": "H" 
			},
			{
				"x": -0.5657496644,
				"y": 1.5513105087,
				"z": -1.6783894571,
				"element": "H" 
			},
			{
				"x": 0.0329817453,
				"y": 2.6038981285,
				"z": 0.3476231962,
				"element": "H" 
			},
			{
				"x": -0.0453288754,
				"y": -0.6184480952,
				"z": -2.8280858801,
				"element": "H" 
			},
			{
				"x": -2.5279680793,
				"y": -3.9804918794,
				"z": -1.8553017905,
				"element": "H" 
			},
			{
				"x": -3.3835812085,
				"y": -2.7683124929,
				"z": 0.13013907,
				"element": "H" 
			}
		],
		 "valence_orbital": [ 
			{
				"type": "occ",
				"energy": -0.30036,
				"method": "rhf"
			},
			{
				"type": "occ",
				"energy": -0.29873,
				"method": "rhf"
			},
			{
				"type": "occ",
				"energy": -0.28222,
				"method": "rhf"
			},
			{
				"type": "occ",
				"energy": -0.26668,
				"method": "rhf"
			},
			{
				"type": "occ",
				"energy": -0.23468,
				"method": "rhf"
			},
			{
				"type": "unocc",
				"energy": -0.09164,
				"method": "rhf"
			},
			{
				"type": "unocc",
				"energy": -0.03177,
				"method": "rhf"
			},
			{
				"type": "unocc",
				"energy": -0.01328,
				"method": "rhf"
			},
			{
				"type": "unocc",
				"energy": 0.01969,
				"method": "rhf"
			},
			{
				"type": "unocc",
				"energy": 0.03064,
				"method": "rhf"
			}
		],
		"cosmo_sigma_profile": { 
			"-0.025": 0.0,
			"-0.024": 0.0,
			"-0.023": 0.0,
			"-0.022": 0.0,
			"-0.021": 0.0,
			"-0.02": 0.0,
			"-0.019": 0.549326252344,
			"-0.018": 1.07619899445,
			"-0.017": 1.21653378423,
			"-0.016": 1.40112168728,
			"-0.015": 0.916063357189,
			"-0.014": 0.290915166819,
			"-0.013": 0.787402709518,
			"-0.012": 1.20210738395,
			"-0.011": 1.42409835288,
			"-0.01": 1.76272291369,
			"-0.009": 7.12276985702,
			"-0.008": 8.95262124224,
			"-0.007": 8.60182001033,
			"-0.006": 8.21180206078,
			"-0.005": 8.43400215267,
			"-0.004": 7.27510172061,
			"-0.003": 7.0982225373,
			"-0.002": 8.16950492962,
			"-0.001": 10.6367872263,
			"0.0": 12.5814047136,
			"0.001": 16.87449729,
			"0.002": 21.2265838565,
			"0.003": 16.8215554876,
			"0.004": 13.7666542211,
			"0.005": 12.0065542833,
			"0.006": 4.99639867609,
			"0.007": 5.76519009242,
			"0.008": 11.1810306308,
			"0.009": 7.76592424205,
			"0.01": 4.2725504408,
			"0.011": 1.20504932657,
			"0.012": 0.0,
			"0.013": 0.0,
			"0.014": 0.0,
			"0.015": 0.0,
			"0.016": 0.0,
			"0.017": 0.0,
			"0.018": 0.0,
			"0.019": 0.0,
			"0.02": 0.0,
			"0.021": 0.0,
			"0.022": 0.0,
			"0.023": 0.0,
			"0.024": 0.0,
			"0.025": 0.0
		}
	}
}
