{
	 "smiles": "CC1=CC(C)(C)NC2=CC=CC=C12", 
	 "Tm": 299.65, 
	 "num_atms": 28, 
	 "gaussian": { 
		 "optdone": 1, 
		 "sigma_profile": "yes", 
		 "theory": "DFT", 
		 "functional": "B3LYP", 
		 "basiset": "6-31G**", 
		 "properties": { 
			 "R2extent": 3085.2426, 
			 "electric_dipole_moment_norm": 1.43311768533, 
			 "electric_quadrupole_moment_norm": 9.80637543336, 
			 "total_energy": -521.078806894, 
			 "HOMO_LUMO_gap": 0.16382, 
			 "cosmo_polarized_energy": -6.81, 
			 "cosmo_cavitation_energy": 29.35, 
			 "cosmo_dispersion_energy": -21.08, 
			 "cosmo_repulsion_energy": 1.65, 
			 "cosmo_total_nonelectrostatic_energy": 9.92, 
			 "SMD_solvation_energy": 4.33 
		},
		"coords": [
			{
				"x": 1.7502064095,
				"y": -1.8860867869,
				"z": 0.4210459822,
				"element": "C" 
			},
			{
				"x": 1.3933694721,
				"y": -0.5474689999,
				"z": -0.1753935389,
				"element": "C" 
			},
			{
				"x": 1.2303432539,
				"y": -0.3982172337,
				"z": -1.5022605382,
				"element": "C" 
			},
			{
				"x": 0.8082935147,
				"y": 0.8984773956,
				"z": -2.1626615266,
				"element": "C" 
			},
			{
				"x": 1.5610156376,
				"y": 1.0939336611,
				"z": -3.4912972011,
				"element": "C" 
			},
			{
				"x": -0.7191811738,
				"y": 0.8776218809,
				"z": -2.4247751415,
				"element": "C" 
			},
			{
				"x": 1.1788244656,
				"y": 2.0062276788,
				"z": -1.269075176,
				"element": "N" 
			},
			{
				"x": 1.0953861243,
				"y": 1.8940762797,
				"z": 0.1098472664,
				"element": "C" 
			},
			{
				"x": 0.9618881394,
				"y": 3.0306491111,
				"z": 0.9224798903,
				"element": "C" 
			},
			{
				"x": 0.9514271258,
				"y": 2.9114838032,
				"z": 2.3103949157,
				"element": "C" 
			},
			{
				"x": 1.0712367246,
				"y": 1.657820401,
				"z": 2.9136040041,
				"element": "C" 
			},
			{
				"x": 1.2094303771,
				"y": 0.5261851858,
				"z": 2.1096976841,
				"element": "C" 
			},
			{
				"x": 1.2220144013,
				"y": 0.614563575,
				"z": 0.7114811242,
				"element": "C" 
			},
			{
				"x": 1.8854554843,
				"y": -2.6386948071,
				"z": -0.3598997241,
				"element": "H" 
			},
			{
				"x": 0.9655620041,
				"y": -2.2440175511,
				"z": 1.098921187,
				"element": "H" 
			},
			{
				"x": 2.6755355547,
				"y": -1.8297423854,
				"z": 1.0063830803,
				"element": "H" 
			},
			{
				"x": 1.3476900018,
				"y": -1.2534578859,
				"z": -2.1644340892,
				"element": "H" 
			},
			{
				"x": 1.2792784229,
				"y": 2.0438037683,
				"z": -3.9614900991,
				"element": "H" 
			},
			{
				"x": 1.3187289962,
				"y": 0.2913877461,
				"z": -4.1955209453,
				"element": "H" 
			},
			{
				"x": 2.6407703646,
				"y": 1.0996994076,
				"z": -3.321757458,
				"element": "H" 
			},
			{
				"x": -1.0403760895,
				"y": 1.7989332168,
				"z": -2.9271145307,
				"element": "H" 
			},
			{
				"x": -0.9969959199,
				"y": 0.0313988912,
				"z": -3.0627623797,
				"element": "H" 
			},
			{
				"x": -1.2649914324,
				"y": 0.787707482,
				"z": -1.4813019803,
				"element": "H" 
			},
			{
				"x": 0.9427876384,
				"y": 2.9212915622,
				"z": -1.6316733852,
				"element": "H" 
			},
			{
				"x": 0.8696926157,
				"y": 4.0093045469,
				"z": 0.4565565242,
				"element": "H" 
			},
			{
				"x": 0.8443889045,
				"y": 3.8039700899,
				"z": 2.9208941059,
				"element": "H" 
			},
			{
				"x": 1.0606993693,
				"y": 1.5622265499,
				"z": 3.99475386,
				"element": "H" 
			},
			{
				"x": 1.3083196133,
				"y": -0.448076583,
				"z": 2.5782580897,
				"element": "H" 
			}
		],
		 "valence_orbital": [ 
			{
				"type": "occ",
				"energy": -0.31519,
				"method": "rhf"
			},
			{
				"type": "occ",
				"energy": -0.28678,
				"method": "rhf"
			},
			{
				"type": "occ",
				"energy": -0.27404,
				"method": "rhf"
			},
			{
				"type": "occ",
				"energy": -0.22082,
				"method": "rhf"
			},
			{
				"type": "occ",
				"energy": -0.17997,
				"method": "rhf"
			},
			{
				"type": "unocc",
				"energy": -0.01615,
				"method": "rhf"
			},
			{
				"type": "unocc",
				"energy": 0.02251,
				"method": "rhf"
			},
			{
				"type": "unocc",
				"energy": 0.06314,
				"method": "rhf"
			},
			{
				"type": "unocc",
				"energy": 0.07819,
				"method": "rhf"
			},
			{
				"type": "unocc",
				"energy": 0.10278,
				"method": "rhf"
			}
		],
		"cosmo_sigma_profile": { 
			"-0.025": 0.0,
			"-0.024": 0.0,
			"-0.023": 0.0,
			"-0.022": 0.0,
			"-0.021": 0.0,
			"-0.02": 0.0,
			"-0.019": 0.0,
			"-0.018": 0.0,
			"-0.017": 0.0,
			"-0.016": 0.0,
			"-0.015": 0.0,
			"-0.014": 0.0,
			"-0.013": 0.0,
			"-0.012": 0.545406950995,
			"-0.011": 1.24753330118,
			"-0.01": 1.3440145703,
			"-0.009": 1.54153235216,
			"-0.008": 1.68544035224,
			"-0.007": 1.86842184544,
			"-0.006": 2.39051087417,
			"-0.005": 7.48420752133,
			"-0.004": 18.5071044578,
			"-0.003": 28.4577472977,
			"-0.002": 23.1194595266,
			"-0.001": 22.7233191891,
			"0.0": 24.7799018286,
			"0.001": 26.3025771242,
			"0.002": 12.1735677324,
			"0.003": 10.5005519684,
			"0.004": 9.00625836939,
			"0.005": 10.3720856624,
			"0.006": 10.9855672902,
			"0.007": 9.82931191944,
			"0.008": 3.43534089879,
			"0.009": 0.758159980574,
			"0.01": 0.695594245643,
			"0.011": 0.531748916675,
			"0.012": 0.0204608573078,
			"0.013": 0.0,
			"0.014": 0.0,
			"0.015": 0.0,
			"0.016": 0.0,
			"0.017": 0.0,
			"0.018": 0.0,
			"0.019": 0.0,
			"0.02": 0.0,
			"0.021": 0.0,
			"0.022": 0.0,
			"0.023": 0.0,
			"0.024": 0.0,
			"0.025": 0.0
		}
	}
}
