{
	 "smiles": "CC(C)OC(=O)C1=CC=C(O)C=C1", 
	 "Tm": 358.15, 
	 "num_atms": 25, 
	 "gaussian": { 
		 "optdone": 1, 
		 "sigma_profile": "yes", 
		 "theory": "DFT", 
		 "functional": "B3LYP", 
		 "basiset": "6-31G**", 
		 "properties": { 
			 "R2extent": 3497.9721, 
			 "electric_dipole_moment_norm": 1.20793954319, 
			 "electric_quadrupole_moment_norm": 17.4234041651, 
			 "total_energy": -613.994784839, 
			 "HOMO_LUMO_gap": 0.19826, 
			 "cosmo_polarized_energy": -11.84, 
			 "cosmo_cavitation_energy": 29.03, 
			 "cosmo_dispersion_energy": -20.88, 
			 "cosmo_repulsion_energy": 1.67, 
			 "cosmo_total_nonelectrostatic_energy": 9.83, 
			 "SMD_solvation_energy": 6.4 
		},
		"coords": [
			{
				"x": -0.1404244655,
				"y": 0.0342033897,
				"z": -3.5790289003,
				"element": "C" 
			},
			{
				"x": -0.7860164353,
				"y": 0.9068400309,
				"z": -2.5069285161,
				"element": "C" 
			},
			{
				"x": -0.8707913238,
				"y": 2.3780911968,
				"z": -2.8890284787,
				"element": "C" 
			},
			{
				"x": 0.0142985576,
				"y": 0.8546182485,
				"z": -1.2916599253,
				"element": "O" 
			},
			{
				"x": -0.2012171222,
				"y": -0.1877115504,
				"z": -0.4548199926,
				"element": "C" 
			},
			{
				"x": -1.0172124607,
				"y": -1.0669166413,
				"z": -0.6704599822,
				"element": "O" 
			},
			{
				"x": 0.6648729598,
				"y": -0.1326225845,
				"z": 0.7508426318,
				"element": "C" 
			},
			{
				"x": 0.5367681375,
				"y": -1.1547634306,
				"z": 1.7008754797,
				"element": "C" 
			},
			{
				"x": 1.3192802548,
				"y": -1.1569933171,
				"z": 2.8492575748,
				"element": "C" 
			},
			{
				"x": 2.2469712573,
				"y": -0.1276968674,
				"z": 3.0606816521,
				"element": "C" 
			},
			{
				"x": 3.0426266982,
				"y": -0.0730342668,
				"z": 4.1640169151,
				"element": "O" 
			},
			{
				"x": 2.3842226049,
				"y": 0.8996726011,
				"z": 2.1171063981,
				"element": "C" 
			},
			{
				"x": 1.597608172,
				"y": 0.8936746972,
				"z": 0.9728660257,
				"element": "C" 
			},
			{
				"x": 0.8772228142,
				"y": 0.3767500498,
				"z": -3.7934754459,
				"element": "H" 
			},
			{
				"x": -0.7226084884,
				"y": 0.0827794499,
				"z": -4.5051674721,
				"element": "H" 
			},
			{
				"x": -0.103896104,
				"y": -1.0074216036,
				"z": -3.2522474624,
				"element": "H" 
			},
			{
				"x": -1.776401945,
				"y": 0.5121213384,
				"z": -2.2624213484,
				"element": "H" 
			},
			{
				"x": -1.4865096348,
				"y": 2.4982832867,
				"z": -3.7858508998,
				"element": "H" 
			},
			{
				"x": 0.1242915802,
				"y": 2.7835374199,
				"z": -3.0992286103,
				"element": "H" 
			},
			{
				"x": -1.3186744632,
				"y": 2.9645175527,
				"z": -2.0819162113,
				"element": "H" 
			},
			{
				"x": -0.1866344365,
				"y": -1.9423988113,
				"z": 1.5192889573,
				"element": "H" 
			},
			{
				"x": 1.2145020491,
				"y": -1.9536195709,
				"z": 3.5829188056,
				"element": "H" 
			},
			{
				"x": 2.8537658145,
				"y": -0.8313980623,
				"z": 4.7323709741,
				"element": "H" 
			},
			{
				"x": 3.1087737619,
				"y": 1.685631195,
				"z": 2.3017911218,
				"element": "H" 
			},
			{
				"x": 1.7002822174,
				"y": 1.6858562496,
				"z": 0.2403167093,
				"element": "H" 
			}
		],
		 "valence_orbital": [ 
			{
				"type": "occ",
				"energy": -0.3271,
				"method": "rhf"
			},
			{
				"type": "occ",
				"energy": -0.2898,
				"method": "rhf"
			},
			{
				"type": "occ",
				"energy": -0.26447,
				"method": "rhf"
			},
			{
				"type": "occ",
				"energy": -0.25974,
				"method": "rhf"
			},
			{
				"type": "occ",
				"energy": -0.23063,
				"method": "rhf"
			},
			{
				"type": "unocc",
				"energy": -0.03237,
				"method": "rhf"
			},
			{
				"type": "unocc",
				"energy": -0.00777,
				"method": "rhf"
			},
			{
				"type": "unocc",
				"energy": 0.06337,
				"method": "rhf"
			},
			{
				"type": "unocc",
				"energy": 0.07021,
				"method": "rhf"
			},
			{
				"type": "unocc",
				"energy": 0.09373,
				"method": "rhf"
			}
		],
		"cosmo_sigma_profile": { 
			"-0.025": 0.0,
			"-0.024": 0.0,
			"-0.023": 0.0,
			"-0.022": 0.0,
			"-0.021": 0.0,
			"-0.02": 0.0,
			"-0.019": 0.056597772788,
			"-0.018": 1.04096465427,
			"-0.017": 1.01559214522,
			"-0.016": 1.32257108047,
			"-0.015": 1.11821981799,
			"-0.014": 0.90770052189,
			"-0.013": 0.806772802702,
			"-0.012": 1.06783451786,
			"-0.011": 0.762701782854,
			"-0.01": 1.24798146741,
			"-0.009": 1.11937850183,
			"-0.008": 1.03887815216,
			"-0.007": 2.63590879378,
			"-0.006": 5.54089327025,
			"-0.005": 7.68205607581,
			"-0.004": 17.730105542,
			"-0.003": 20.443653845,
			"-0.002": 18.5529834117,
			"-0.001": 20.9646047832,
			"0.0": 23.3836986669,
			"0.001": 19.1552849929,
			"0.002": 16.9843881081,
			"0.003": 18.3878609238,
			"0.004": 15.7264936257,
			"0.005": 5.50134215214,
			"0.006": 4.21467469503,
			"0.007": 3.15832334317,
			"0.008": 3.52404604425,
			"0.009": 2.10981141002,
			"0.01": 3.57840583912,
			"0.011": 3.40540191879,
			"0.012": 3.75463487823,
			"0.013": 1.57503265689,
			"0.014": 0.0,
			"0.015": 0.0,
			"0.016": 0.0,
			"0.017": 0.0,
			"0.018": 0.0,
			"0.019": 0.0,
			"0.02": 0.0,
			"0.021": 0.0,
			"0.022": 0.0,
			"0.023": 0.0,
			"0.024": 0.0,
			"0.025": 0.0
		}
	}
}
