{
	 "smiles": "CC(C)(C)C(=O)NC1=NC(CC(O)=O)=CS1", 
	 "Tm": 496.15, 
	 "num_atms": 30, 
	 "gaussian": { 
		 "optdone": 1, 
		 "sigma_profile": "yes", 
		 "theory": "DFT", 
		 "functional": "B3LYP", 
		 "basiset": "6-31G**", 
		 "properties": { 
			 "R2extent": 5420.9243, 
			 "electric_dipole_moment_norm": 8.94943752702, 
			 "electric_quadrupole_moment_norm": 28.7566752445, 
			 "total_energy": -1122.89504142, 
			 "HOMO_LUMO_gap": 0.18647, 
			 "cosmo_polarized_energy": -22.76, 
			 "cosmo_cavitation_energy": 35.14, 
			 "cosmo_dispersion_energy": -25.07, 
			 "cosmo_repulsion_energy": 1.92, 
			 "cosmo_total_nonelectrostatic_energy": 11.99, 
			 "SMD_solvation_energy": 7.23 
		},
		"coords": [
			{
				"x": 0.9347410645,
				"y": -3.4487552266,
				"z": 0.3838971635,
				"element": "C" 
			},
			{
				"x": -0.2314930107,
				"y": -2.686331895,
				"z": 1.0548265213,
				"element": "C" 
			},
			{
				"x": -1.5024916503,
				"y": -3.5500807598,
				"z": 1.0078822853,
				"element": "C" 
			},
			{
				"x": 0.1202971121,
				"y": -2.362396234,
				"z": 2.5252831414,
				"element": "C" 
			},
			{
				"x": -0.519938139,
				"y": -1.376666995,
				"z": 0.2845816788,
				"element": "C" 
			},
			{
				"x": -1.5848808962,
				"y": -1.1234627544,
				"z": -0.2384474799,
				"element": "O" 
			},
			{
				"x": 0.5675748928,
				"y": -0.4878560715,
				"z": 0.2395311482,
				"element": "N" 
			},
			{
				"x": 0.5937193891,
				"y": 0.7474259332,
				"z": -0.3814171395,
				"element": "C" 
			},
			{
				"x": -0.4300929047,
				"y": 1.3819762922,
				"z": -0.8678720964,
				"element": "N" 
			},
			{
				"x": -0.0620803604,
				"y": 2.58486994,
				"z": -1.446574748,
				"element": "C" 
			},
			{
				"x": -1.1550092378,
				"y": 3.4229692868,
				"z": -2.0460339642,
				"element": "C" 
			},
			{
				"x": -2.1347781245,
				"y": 2.6815650133,
				"z": -2.9798876594,
				"element": "C" 
			},
			{
				"x": -2.4968213428,
				"y": 1.4444580478,
				"z": -2.6176690233,
				"element": "O" 
			},
			{
				"x": -2.5963951617,
				"y": 3.2248812906,
				"z": -3.9561637694,
				"element": "O" 
			},
			{
				"x": 1.2665558902,
				"y": 2.8776659722,
				"z": -1.3877807883,
				"element": "C" 
			},
			{
				"x": 2.1318275703,
				"y": 1.5955397541,
				"z": -0.5776068064,
				"element": "S" 
			},
			{
				"x": 1.8863098092,
				"y": -2.9073274661,
				"z": 0.4363991592,
				"element": "H" 
			},
			{
				"x": 1.0847058217,
				"y": -4.4084367941,
				"z": 0.8887782127,
				"element": "H" 
			},
			{
				"x": 0.72153556,
				"y": -3.6523243287,
				"z": -0.67001211,
				"element": "H" 
			},
			{
				"x": -1.3323024508,
				"y": -4.4867224541,
				"z": 1.5481660391,
				"element": "H" 
			},
			{
				"x": -1.7812180811,
				"y": -3.786083693,
				"z": -0.0218041997,
				"element": "H" 
			},
			{
				"x": -2.3483163662,
				"y": -3.0313540911,
				"z": 1.4650363587,
				"element": "H" 
			},
			{
				"x": -0.6829246528,
				"y": -1.7981210711,
				"z": 3.00910142,
				"element": "H" 
			},
			{
				"x": 1.0445232618,
				"y": -1.7821773915,
				"z": 2.6234524705,
				"element": "H" 
			},
			{
				"x": 0.2617145415,
				"y": -3.2935729185,
				"z": 3.0833888236,
				"element": "H" 
			},
			{
				"x": 1.4329758475,
				"y": -0.7966920487,
				"z": 0.6563588204,
				"element": "H" 
			},
			{
				"x": -1.7686674257,
				"y": 3.8400232607,
				"z": -1.2343762357,
				"element": "H" 
			},
			{
				"x": -0.7481862241,
				"y": 4.2633652229,
				"z": -2.6089361273,
				"element": "H" 
			},
			{
				"x": -1.9773576452,
				"y": 1.1346256382,
				"z": -1.8383651114,
				"element": "H" 
			},
			{
				"x": 1.7877729136,
				"y": 3.7491965414,
				"z": -1.7552359836,
				"element": "H" 
			}
		],
		 "valence_orbital": [ 
			{
				"type": "occ",
				"energy": -0.30449,
				"method": "rhf"
			},
			{
				"type": "occ",
				"energy": -0.28605,
				"method": "rhf"
			},
			{
				"type": "occ",
				"energy": -0.26494,
				"method": "rhf"
			},
			{
				"type": "occ",
				"energy": -0.25463,
				"method": "rhf"
			},
			{
				"type": "occ",
				"energy": -0.23359,
				"method": "rhf"
			},
			{
				"type": "unocc",
				"energy": -0.04712,
				"method": "rhf"
			},
			{
				"type": "unocc",
				"energy": -0.01974,
				"method": "rhf"
			},
			{
				"type": "unocc",
				"energy": 0.00665,
				"method": "rhf"
			},
			{
				"type": "unocc",
				"energy": 0.03146,
				"method": "rhf"
			},
			{
				"type": "unocc",
				"energy": 0.04523,
				"method": "rhf"
			}
		],
		"cosmo_sigma_profile": { 
			"-0.025": 0.0,
			"-0.024": 0.0,
			"-0.023": 0.0,
			"-0.022": 0.0,
			"-0.021": 0.0,
			"-0.02": 0.0,
			"-0.019": 0.0,
			"-0.018": 0.0,
			"-0.017": 0.368782016405,
			"-0.016": 0.801243424122,
			"-0.015": 1.13674377162,
			"-0.014": 1.57424074351,
			"-0.013": 1.29774596734,
			"-0.012": 1.13949764277,
			"-0.011": 1.18390249376,
			"-0.01": 1.41795131941,
			"-0.009": 4.18519624372,
			"-0.008": 5.90512338943,
			"-0.007": 8.9392249612,
			"-0.006": 7.72259909841,
			"-0.005": 7.35122393262,
			"-0.004": 21.4970497706,
			"-0.003": 27.6725151372,
			"-0.002": 25.7564480484,
			"-0.001": 28.0249467323,
			"0.0": 31.6836371134,
			"0.001": 19.9116526793,
			"0.002": 15.2645134305,
			"0.003": 9.62866118679,
			"0.004": 5.38235557705,
			"0.005": 5.27836043286,
			"0.006": 3.86075788117,
			"0.007": 4.77791029151,
			"0.008": 4.76245104936,
			"0.009": 4.90545701862,
			"0.01": 6.24213489538,
			"0.011": 8.27454254917,
			"0.012": 8.34227752034,
			"0.013": 4.5237400971,
			"0.014": 0.722340264693,
			"0.015": 0.0,
			"0.016": 0.0,
			"0.017": 0.0,
			"0.018": 0.0,
			"0.019": 0.0,
			"0.02": 0.0,
			"0.021": 0.0,
			"0.022": 0.0,
			"0.023": 0.0,
			"0.024": 0.0,
			"0.025": 0.0
		}
	}
}
