{
	 "smiles": "OP(=O)(C1=CC=CC=C1)C1=CC=CC=C1", 
	 "Tm": 467.15, 
	 "num_atms": 26, 
	 "gaussian": { 
		 "optdone": 1, 
		 "sigma_profile": "yes", 
		 "theory": "DFT", 
		 "functional": "B3LYP", 
		 "basiset": "6-31G**", 
		 "properties": { 
			 "R2extent": 4504.5927, 
			 "electric_dipole_moment_norm": 3.28385714214, 
			 "electric_quadrupole_moment_norm": 14.9419922955, 
			 "total_energy": -955.75582662, 
			 "HOMO_LUMO_gap": 0.21581, 
			 "cosmo_polarized_energy": -15.56, 
			 "cosmo_cavitation_energy": 31.75, 
			 "cosmo_dispersion_energy": -22.68, 
			 "cosmo_repulsion_energy": 1.75, 
			 "cosmo_total_nonelectrostatic_energy": 10.81, 
			 "SMD_solvation_energy": 6.99 
		},
		"coords": [
			{
				"x": -1.6910221451,
				"y": 0.5808065724,
				"z": 1.3523096772,
				"element": "O" 
			},
			{
				"x": -1.9322549542,
				"y": -0.7983133258,
				"z": 0.4975480195,
				"element": "P" 
			},
			{
				"x": -3.3220336429,
				"y": -1.3436334878,
				"z": 0.511180143,
				"element": "O" 
			},
			{
				"x": -1.3622516731,
				"y": -0.3801434999,
				"z": -1.178678874,
				"element": "C" 
			},
			{
				"x": -0.4038601955,
				"y": 0.6161625423,
				"z": -1.419783872,
				"element": "C" 
			},
			{
				"x": 0.0119748307,
				"y": 0.8877035231,
				"z": -2.7235725426,
				"element": "C" 
			},
			{
				"x": -0.5278707973,
				"y": 0.1699438104,
				"z": -3.7933737504,
				"element": "C" 
			},
			{
				"x": -1.4910021373,
				"y": -0.814495475,
				"z": -3.5607996409,
				"element": "C" 
			},
			{
				"x": -1.9096230538,
				"y": -1.08841086,
				"z": -2.2588232925,
				"element": "C" 
			},
			{
				"x": -0.711703771,
				"y": -1.8904196517,
				"z": 1.2772554038,
				"element": "C" 
			},
			{
				"x": -1.1804363269,
				"y": -3.1001705927,
				"z": 1.806407449,
				"element": "C" 
			},
			{
				"x": -0.2926862666,
				"y": -3.9841980515,
				"z": 2.421571775,
				"element": "C" 
			},
			{
				"x": 1.0630390048,
				"y": -3.6645660437,
				"z": 2.509077324,
				"element": "C" 
			},
			{
				"x": 1.5348662924,
				"y": -2.45973895,
				"z": 1.9803694468,
				"element": "C" 
			},
			{
				"x": 0.6520897618,
				"y": -1.5748313685,
				"z": 1.3636170931,
				"element": "C" 
			},
			{
				"x": -2.4402984291,
				"y": 1.1830877513,
				"z": 1.2318071374,
				"element": "H" 
			},
			{
				"x": -0.0003686564,
				"y": 1.1895303569,
				"z": -0.5906022165,
				"element": "H" 
			},
			{
				"x": 0.7514223529,
				"y": 1.6623916987,
				"z": -2.9054352973,
				"element": "H" 
			},
			{
				"x": -0.2035080328,
				"y": 0.3833030685,
				"z": -4.8079835374,
				"element": "H" 
			},
			{
				"x": -1.9199090561,
				"y": -1.3640823259,
				"z": -4.3936980581,
				"element": "H" 
			},
			{
				"x": -2.6727178648,
				"y": -1.8369089208,
				"z": -2.0694136963,
				"element": "H" 
			},
			{
				"x": -2.238493869,
				"y": -3.3310599548,
				"z": 1.7325352942,
				"element": "H" 
			},
			{
				"x": -0.659553196,
				"y": -4.9205117071,
				"z": 2.8319818355,
				"element": "H" 
			},
			{
				"x": 1.753931229,
				"y": -4.3533447785,
				"z": 2.9870905277,
				"element": "H" 
			},
			{
				"x": 2.5901091508,
				"y": -2.2115150357,
				"z": 2.048272145,
				"element": "H" 
			},
			{
				"x": 1.0264614455,
				"y": -0.6430852942,
				"z": 0.9508415071,
				"element": "H" 
			}
		],
		 "valence_orbital": [ 
			{
				"type": "occ",
				"energy": -0.27265,
				"method": "rhf"
			},
			{
				"type": "occ",
				"energy": -0.26494,
				"method": "rhf"
			},
			{
				"type": "occ",
				"energy": -0.26065,
				"method": "rhf"
			},
			{
				"type": "occ",
				"energy": -0.25671,
				"method": "rhf"
			},
			{
				"type": "occ",
				"energy": -0.25337,
				"method": "rhf"
			},
			{
				"type": "unocc",
				"energy": -0.03756,
				"method": "rhf"
			},
			{
				"type": "unocc",
				"energy": -0.01581,
				"method": "rhf"
			},
			{
				"type": "unocc",
				"energy": -0.0104,
				"method": "rhf"
			},
			{
				"type": "unocc",
				"energy": -0.00569,
				"method": "rhf"
			},
			{
				"type": "unocc",
				"energy": 0.05869,
				"method": "rhf"
			}
		],
		"cosmo_sigma_profile": { 
			"-0.025": 0.0,
			"-0.024": 0.0,
			"-0.023": 0.0,
			"-0.022": 0.0,
			"-0.021": 0.0,
			"-0.02": 0.0,
			"-0.019": 0.485407711324,
			"-0.018": 1.27833152083,
			"-0.017": 0.670389596173,
			"-0.016": 1.06060948934,
			"-0.015": 0.645953285506,
			"-0.014": 0.77949274621,
			"-0.013": 0.781331386026,
			"-0.012": 0.762444639708,
			"-0.011": 0.111741855359,
			"-0.01": 0.772447300534,
			"-0.009": 1.20178898978,
			"-0.008": 0.594521516844,
			"-0.007": 3.47482071664,
			"-0.006": 17.72396669,
			"-0.005": 23.7995532214,
			"-0.004": 21.9588920801,
			"-0.003": 15.4414453109,
			"-0.002": 15.0640251622,
			"-0.001": 13.4281392446,
			"0.0": 13.4490299388,
			"0.001": 18.028328249,
			"0.002": 17.9813628047,
			"0.003": 20.6648221535,
			"0.004": 26.7118253771,
			"0.005": 9.25214585326,
			"0.006": 3.0856091576,
			"0.007": 2.20557950629,
			"0.008": 2.54231666962,
			"0.009": 1.88613144555,
			"0.01": 2.73047896046,
			"0.011": 2.57425842314,
			"0.012": 0.726597201313,
			"0.013": 0.851692306957,
			"0.014": 2.65117610699,
			"0.015": 4.87659527755,
			"0.016": 1.78208471262,
			"0.017": 0.0,
			"0.018": 0.0,
			"0.019": 0.0,
			"0.02": 0.0,
			"0.021": 0.0,
			"0.022": 0.0,
			"0.023": 0.0,
			"0.024": 0.0,
			"0.025": 0.0
		}
	}
}
