{
	 "smiles": "CN1C(C)=CC(C(O)=O)=C1C", 
	 "Tm": 423.15, 
	 "num_atms": 22, 
	 "gaussian": { 
		 "optdone": 1, 
		 "sigma_profile": "yes", 
		 "theory": "DFT", 
		 "functional": "B3LYP", 
		 "basiset": "6-31G**", 
		 "properties": { 
			 "R2extent": 2343.6275, 
			 "electric_dipole_moment_norm": 4.70057729008, 
			 "electric_quadrupole_moment_norm": 14.0770130152, 
			 "total_energy": -516.703534302, 
			 "HOMO_LUMO_gap": 0.19704, 
			 "cosmo_polarized_energy": -12.95, 
			 "cosmo_cavitation_energy": 25.22, 
			 "cosmo_dispersion_energy": -18.36, 
			 "cosmo_repulsion_energy": 1.48, 
			 "cosmo_total_nonelectrostatic_energy": 8.34, 
			 "SMD_solvation_energy": 5.63 
		},
		"coords": [
			{
				"x": -0.6275850752,
				"y": 1.0567603663,
				"z": -1.2914882448,
				"element": "C" 
			},
			{
				"x": -0.3826039904,
				"y": -0.1940304207,
				"z": -0.5898301315,
				"element": "N" 
			},
			{
				"x": -0.883153392,
				"y": -1.4399799381,
				"z": -0.9792809499,
				"element": "C" 
			},
			{
				"x": -1.7454200515,
				"y": -1.6314682327,
				"z": -2.1862284502,
				"element": "C" 
			},
			{
				"x": -0.434563041,
				"y": -2.3625300323,
				"z": -0.0709198482,
				"element": "C" 
			},
			{
				"x": 0.3576770258,
				"y": -1.6762005752,
				"z": 0.8979807314,
				"element": "C" 
			},
			{
				"x": 1.0040360871,
				"y": -2.3389812106,
				"z": 2.023679739,
				"element": "C" 
			},
			{
				"x": 1.7141688488,
				"y": -1.4893108197,
				"z": 2.8273913349,
				"element": "O" 
			},
			{
				"x": 0.9467438255,
				"y": -3.5318110884,
				"z": 2.2673555528,
				"element": "O" 
			},
			{
				"x": 0.3743507812,
				"y": -0.3253451698,
				"z": 0.551848689,
				"element": "C" 
			},
			{
				"x": 1.0464660795,
				"y": 0.8383188056,
				"z": 1.2143203927,
				"element": "C" 
			},
			{
				"x": -1.1442122514,
				"y": 1.777709531,
				"z": -0.6500303962,
				"element": "H" 
			},
			{
				"x": -1.2571564942,
				"y": 0.8622126185,
				"z": -2.1587507508,
				"element": "H" 
			},
			{
				"x": 0.3072227977,
				"y": 1.5051006187,
				"z": -1.6425626253,
				"element": "H" 
			},
			{
				"x": -2.687228495,
				"y": -1.0703956233,
				"z": -2.1305057896,
				"element": "H" 
			},
			{
				"x": -2.0026623034,
				"y": -2.6897176815,
				"z": -2.2716944953,
				"element": "H" 
			},
			{
				"x": -1.2439599796,
				"y": -1.3414300705,
				"z": -3.1186061716,
				"element": "H" 
			},
			{
				"x": -0.6365156299,
				"y": -3.4235779523,
				"z": -0.0748362269,
				"element": "H" 
			},
			{
				"x": 2.0835099785,
				"y": -2.0579907871,
				"z": 3.5227651507,
				"element": "H" 
			},
			{
				"x": 0.8587237533,
				"y": 1.7744148066,
				"z": 0.684118973,
				"element": "H" 
			},
			{
				"x": 2.1288634629,
				"y": 0.6874913334,
				"z": 1.2671389214,
				"element": "H" 
			},
			{
				"x": 0.7005980635,
				"y": 0.955261522,
				"z": 2.2457345954,
				"element": "H" 
			}
		],
		 "valence_orbital": [ 
			{
				"type": "occ",
				"energy": -0.35571,
				"method": "rhf"
			},
			{
				"type": "occ",
				"energy": -0.29656,
				"method": "rhf"
			},
			{
				"type": "occ",
				"energy": -0.2541,
				"method": "rhf"
			},
			{
				"type": "occ",
				"energy": -0.23609,
				"method": "rhf"
			},
			{
				"type": "occ",
				"energy": -0.20164,
				"method": "rhf"
			},
			{
				"type": "unocc",
				"energy": -0.0046,
				"method": "rhf"
			},
			{
				"type": "unocc",
				"energy": 0.04631,
				"method": "rhf"
			},
			{
				"type": "unocc",
				"energy": 0.07911,
				"method": "rhf"
			},
			{
				"type": "unocc",
				"energy": 0.0959,
				"method": "rhf"
			},
			{
				"type": "unocc",
				"energy": 0.11118,
				"method": "rhf"
			}
		],
		"cosmo_sigma_profile": { 
			"-0.025": 0.0,
			"-0.024": 0.0,
			"-0.023": 0.0,
			"-0.022": 0.0,
			"-0.021": 0.0,
			"-0.02": 0.0,
			"-0.019": 0.0,
			"-0.018": 0.00235173447718,
			"-0.017": 0.567032163996,
			"-0.016": 1.01581616475,
			"-0.015": 0.91939386014,
			"-0.014": 0.601574735635,
			"-0.013": 0.268125756292,
			"-0.012": 0.372051685721,
			"-0.011": 1.11320508531,
			"-0.01": 0.73669164159,
			"-0.009": 0.495579199774,
			"-0.008": 0.812486726874,
			"-0.007": 0.95494136346,
			"-0.006": 6.92078431122,
			"-0.005": 18.9477077456,
			"-0.004": 20.1829291944,
			"-0.003": 20.3400067292,
			"-0.002": 17.3110293915,
			"-0.001": 16.7098064227,
			"0.0": 14.9478141818,
			"0.001": 9.30111562106,
			"0.002": 9.07148391369,
			"0.003": 7.36472815298,
			"0.004": 8.39957246821,
			"0.005": 8.39112397027,
			"0.006": 8.25646584928,
			"0.007": 7.45203867008,
			"0.008": 2.38502507627,
			"0.009": 1.18310046881,
			"0.01": 2.10872149158,
			"0.011": 1.71759943261,
			"0.012": 2.81088444724,
			"0.013": 5.98790476907,
			"0.014": 1.06514170237,
			"0.015": 0.0,
			"0.016": 0.0,
			"0.017": 0.0,
			"0.018": 0.0,
			"0.019": 0.0,
			"0.02": 0.0,
			"0.021": 0.0,
			"0.022": 0.0,
			"0.023": 0.0,
			"0.024": 0.0,
			"0.025": 0.0
		}
	}
}
