{
	 "smiles": "NN1C=C(N=C1N)C1=CC=CC=C1", 
	 "Tm": 532.15, 
	 "num_atms": 23, 
	 "gaussian": { 
		 "optdone": 1, 
		 "sigma_profile": "yes", 
		 "theory": "DFT", 
		 "functional": "B3LYP", 
		 "basiset": "6-31G**", 
		 "properties": { 
			 "R2extent": 3949.1575, 
			 "electric_dipole_moment_norm": 4.17736900094, 
			 "electric_quadrupole_moment_norm": 18.327394921, 
			 "total_energy": -567.959947547, 
			 "HOMO_LUMO_gap": 0.18264, 
			 "cosmo_polarized_energy": -17.58, 
			 "cosmo_cavitation_energy": 27.3, 
			 "cosmo_dispersion_energy": -20.27, 
			 "cosmo_repulsion_energy": 1.61, 
			 "cosmo_total_nonelectrostatic_energy": 8.64, 
			 "SMD_solvation_energy": 3.96 
		},
		"coords": [
			{
				"x": -2.9112311242,
				"y": 3.6844182617,
				"z": -0.7610456105,
				"element": "N" 
			},
			{
				"x": -2.5725333723,
				"y": 2.3304788526,
				"z": -0.6348401912,
				"element": "N" 
			},
			{
				"x": -2.1827503791,
				"y": 1.7212900679,
				"z": 0.547157681,
				"element": "C" 
			},
			{
				"x": -1.821114786,
				"y": 0.4399723168,
				"z": 0.2001568783,
				"element": "C" 
			},
			{
				"x": -1.9840830862,
				"y": 0.2571644865,
				"z": -1.1714120468,
				"element": "N" 
			},
			{
				"x": -2.4282897553,
				"y": 1.4001992522,
				"z": -1.6340465678,
				"element": "C" 
			},
			{
				"x": -2.6379064572,
				"y": 1.7464050645,
				"z": -2.9729965291,
				"element": "N" 
			},
			{
				"x": -1.3362207277,
				"y": -0.6489246831,
				"z": 1.0574891428,
				"element": "C" 
			},
			{
				"x": -0.9985839766,
				"y": -1.889439227,
				"z": 0.4911568663,
				"element": "C" 
			},
			{
				"x": -0.5339311771,
				"y": -2.9329839913,
				"z": 1.2895477321,
				"element": "C" 
			},
			{
				"x": -0.3969749609,
				"y": -2.7621258169,
				"z": 2.6686986298,
				"element": "C" 
			},
			{
				"x": -0.7308541002,
				"y": -1.5326692346,
				"z": 3.2426688114,
				"element": "C" 
			},
			{
				"x": -1.1955275453,
				"y": -0.4881453967,
				"z": 2.4470301184,
				"element": "C" 
			},
			{
				"x": -3.8989205407,
				"y": 3.7645997881,
				"z": -0.9962350919,
				"element": "H" 
			},
			{
				"x": -2.3723868727,
				"y": 4.0688885991,
				"z": -1.5352582771,
				"element": "H" 
			},
			{
				"x": -2.217958077,
				"y": 2.263024563,
				"z": 1.4779868967,
				"element": "H" 
			},
			{
				"x": -3.601824399,
				"y": 1.9960859363,
				"z": -3.177782344,
				"element": "H" 
			},
			{
				"x": -2.3669800807,
				"y": 0.9645192635,
				"z": -3.5595506716,
				"element": "H" 
			},
			{
				"x": -1.1078520455,
				"y": -2.0147670209,
				"z": -0.5805736101,
				"element": "H" 
			},
			{
				"x": -0.2774953837,
				"y": -3.8849153617,
				"z": 0.8321088853,
				"element": "H" 
			},
			{
				"x": -0.0349363216,
				"y": -3.5762895503,
				"z": 3.2900571469,
				"element": "H" 
			},
			{
				"x": -0.6293129577,
				"y": -1.3867728377,
				"z": 4.3147356081,
				"element": "H" 
			},
			{
				"x": -1.4516318731,
				"y": 0.460686668,
				"z": 2.9105465431,
				"element": "H" 
			}
		],
		 "valence_orbital": [ 
			{
				"type": "occ",
				"energy": -0.27807,
				"method": "rhf"
			},
			{
				"type": "occ",
				"energy": -0.25812,
				"method": "rhf"
			},
			{
				"type": "occ",
				"energy": -0.23968,
				"method": "rhf"
			},
			{
				"type": "occ",
				"energy": -0.23358,
				"method": "rhf"
			},
			{
				"type": "occ",
				"energy": -0.18785,
				"method": "rhf"
			},
			{
				"type": "unocc",
				"energy": -0.00521,
				"method": "rhf"
			},
			{
				"type": "unocc",
				"energy": 0.01494,
				"method": "rhf"
			},
			{
				"type": "unocc",
				"energy": 0.04396,
				"method": "rhf"
			},
			{
				"type": "unocc",
				"energy": 0.05021,
				"method": "rhf"
			},
			{
				"type": "unocc",
				"energy": 0.09592,
				"method": "rhf"
			}
		],
		"cosmo_sigma_profile": { 
			"-0.025": 0.0,
			"-0.024": 0.0,
			"-0.023": 0.0,
			"-0.022": 0.0,
			"-0.021": 0.0,
			"-0.02": 0.0,
			"-0.019": 0.0,
			"-0.018": 0.0,
			"-0.017": 0.0,
			"-0.016": 0.0,
			"-0.015": 0.0,
			"-0.014": 0.246908240922,
			"-0.013": 3.86645637532,
			"-0.012": 7.18054274745,
			"-0.011": 5.46673997568,
			"-0.01": 4.70959087245,
			"-0.009": 4.65125386782,
			"-0.008": 4.02904208922,
			"-0.007": 5.67162495927,
			"-0.006": 6.03447275731,
			"-0.005": 11.4605960651,
			"-0.004": 10.9068215724,
			"-0.003": 13.9406372492,
			"-0.002": 10.6563756937,
			"-0.001": 10.5169251712,
			"0.0": 9.2410683828,
			"0.001": 10.5445134302,
			"0.002": 10.785594612,
			"0.003": 13.2681191219,
			"0.004": 12.7927897451,
			"0.005": 19.6010078898,
			"0.006": 15.4443496205,
			"0.007": 7.42807443348,
			"0.008": 3.03256490634,
			"0.009": 2.78021324765,
			"0.01": 3.38196934799,
			"0.011": 1.70424263511,
			"0.012": 2.46663567719,
			"0.013": 2.61098139342,
			"0.014": 1.84768963424,
			"0.015": 0.879051638415,
			"0.016": 0.0404795868285,
			"0.017": 0.0,
			"0.018": 0.0,
			"0.019": 0.0,
			"0.02": 0.0,
			"0.021": 0.0,
			"0.022": 0.0,
			"0.023": 0.0,
			"0.024": 0.0,
			"0.025": 0.0
		}
	}
}
