{
	 "smiles": "[O-][N+](=O)C1=CC2=C(C=NN2)C=C1", 
	 "Tm": 454.15, 
	 "num_atms": 17, 
	 "gaussian": { 
		 "optdone": 1, 
		 "sigma_profile": "yes", 
		 "theory": "DFT", 
		 "functional": "B3LYP", 
		 "basiset": "6-31G**", 
		 "properties": { 
			 "R2extent": 2524.2493, 
			 "electric_dipole_moment_norm": 3.30475192715, 
			 "electric_quadrupole_moment_norm": 21.4842324871, 
			 "total_energy": -584.34286182, 
			 "HOMO_LUMO_gap": 0.15411, 
			 "cosmo_polarized_energy": -12.71, 
			 "cosmo_cavitation_energy": 22.36, 
			 "cosmo_dispersion_energy": -16.91, 
			 "cosmo_repulsion_energy": 1.33, 
			 "cosmo_total_nonelectrostatic_energy": 6.78, 
			 "SMD_solvation_energy": 5.21 
		},
		"coords": [
			{
				"x": 3.5092152266,
				"y": 0.5010692127,
				"z": 1.7550573613,
				"element": "O" 
			},
			{
				"x": 2.9180623792,
				"y": 1.0583738084,
				"z": 0.8309954197,
				"element": "N" 
			},
			{
				"x": 3.4685200352,
				"y": 1.6948527691,
				"z": -0.068316419,
				"element": "O" 
			},
			{
				"x": 1.4497365326,
				"y": 0.9575423239,
				"z": 0.7984989738,
				"element": "C" 
			},
			{
				"x": 0.7810651594,
				"y": 1.5846553503,
				"z": -0.2408783107,
				"element": "C" 
			},
			{
				"x": -0.6116907799,
				"y": 1.4589059792,
				"z": -0.2257024642,
				"element": "C" 
			},
			{
				"x": -1.3028230759,
				"y": 0.7373490122,
				"z": 0.7852992211,
				"element": "C" 
			},
			{
				"x": -2.6785306059,
				"y": 0.860231864,
				"z": 0.4240945227,
				"element": "C" 
			},
			{
				"x": -2.8277424995,
				"y": 1.5728553805,
				"z": -0.6797387368,
				"element": "N" 
			},
			{
				"x": -1.5798242171,
				"y": 1.9317367836,
				"z": -1.068096333,
				"element": "N" 
			},
			{
				"x": -0.5739055766,
				"y": 0.1186401522,
				"z": 1.8194617534,
				"element": "C" 
			},
			{
				"x": 0.8042167393,
				"y": 0.2308564118,
				"z": 1.8230842582,
				"element": "C" 
			},
			{
				"x": 1.3315315219,
				"y": 2.1279463316,
				"z": -0.9983528976,
				"element": "H" 
			},
			{
				"x": -3.547880976,
				"y": 0.4581272472,
				"z": 0.926198158,
				"element": "H" 
			},
			{
				"x": -1.4687009183,
				"y": 2.4880950676,
				"z": -1.9009555901,
				"element": "H" 
			},
			{
				"x": -1.0809599319,
				"y": -0.4373051151,
				"z": 2.6016203486,
				"element": "H" 
			},
			{
				"x": 1.4118109869,
				"y": -0.2248325792,
				"z": 2.5937307345,
				"element": "H" 
			}
		],
		 "valence_orbital": [ 
			{
				"type": "occ",
				"energy": -0.3097,
				"method": "rhf"
			},
			{
				"type": "occ",
				"energy": -0.30711,
				"method": "rhf"
			},
			{
				"type": "occ",
				"energy": -0.29156,
				"method": "rhf"
			},
			{
				"type": "occ",
				"energy": -0.27094,
				"method": "rhf"
			},
			{
				"type": "occ",
				"energy": -0.24761,
				"method": "rhf"
			},
			{
				"type": "unocc",
				"energy": -0.0935,
				"method": "rhf"
			},
			{
				"type": "unocc",
				"energy": -0.0386,
				"method": "rhf"
			},
			{
				"type": "unocc",
				"energy": 0.00449,
				"method": "rhf"
			},
			{
				"type": "unocc",
				"energy": 0.04102,
				"method": "rhf"
			},
			{
				"type": "unocc",
				"energy": 0.06747,
				"method": "rhf"
			}
		],
		"cosmo_sigma_profile": { 
			"-0.025": 0.0,
			"-0.024": 0.0,
			"-0.023": 0.0,
			"-0.022": 0.0,
			"-0.021": 0.0,
			"-0.02": 0.0,
			"-0.019": 0.0,
			"-0.018": 0.0408501680572,
			"-0.017": 1.35296586634,
			"-0.016": 1.62270713237,
			"-0.015": 1.22474320621,
			"-0.014": 1.11615009057,
			"-0.013": 1.26124006551,
			"-0.012": 1.49720686754,
			"-0.011": 0.933108678416,
			"-0.01": 1.39149582646,
			"-0.009": 2.34546813694,
			"-0.008": 4.01906192445,
			"-0.007": 7.50966751359,
			"-0.006": 8.97538737814,
			"-0.005": 8.17368558873,
			"-0.004": 7.46656980465,
			"-0.003": 8.61117889811,
			"-0.002": 7.4594400619,
			"-0.001": 10.5454076467,
			"0.0": 18.9613273569,
			"0.001": 18.1513877628,
			"0.002": 14.8037666875,
			"0.003": 7.2432774553,
			"0.004": 4.01786290066,
			"0.005": 4.38427085227,
			"0.006": 5.12336540007,
			"0.007": 8.92598905874,
			"0.008": 8.95446832013,
			"0.009": 5.61249426517,
			"0.01": 4.48291197867,
			"0.011": 1.40321591903,
			"0.012": 0.848703363807,
			"0.013": 0.976134113297,
			"0.014": 0.945393486357,
			"0.015": 0.196366759652,
			"0.016": 0.0,
			"0.017": 0.0,
			"0.018": 0.0,
			"0.019": 0.0,
			"0.02": 0.0,
			"0.021": 0.0,
			"0.022": 0.0,
			"0.023": 0.0,
			"0.024": 0.0,
			"0.025": 0.0
		}
	}
}
