{
	 "smiles": "COC1=CC2=C(NC=C2CCN(C(C)C)C(C)C)C=C1", 
	 "Tm": 454.15, 
	 "num_atms": 46, 
	 "gaussian": { 
		 "optdone": 1, 
		 "sigma_profile": "yes", 
		 "theory": "DFT", 
		 "functional": "B3LYP", 
		 "basiset": "6-31G**", 
		 "properties": { 
			 "R2extent": 8311.0848, 
			 "electric_dipole_moment_norm": 2.37990096643, 
			 "electric_quadrupole_moment_norm": 14.4681877175, 
			 "total_energy": -848.197948408, 
			 "HOMO_LUMO_gap": 0.18713, 
			 "cosmo_polarized_energy": -10.76, 
			 "cosmo_cavitation_energy": 44.94, 
			 "cosmo_dispersion_energy": -30.84, 
			 "cosmo_repulsion_energy": 2.36, 
			 "cosmo_total_nonelectrostatic_energy": 16.45, 
			 "SMD_solvation_energy": 7.95 
		},
		"coords": [
			{
				"x": 1.5536826197,
				"y": -5.2980166761,
				"z": 2.8956393456,
				"element": "C" 
			},
			{
				"x": 1.5853516048,
				"y": -4.3088677866,
				"z": 3.9054627875,
				"element": "O" 
			},
			{
				"x": 1.3134180253,
				"y": -3.0120346154,
				"z": 3.5420695917,
				"element": "C" 
			},
			{
				"x": 1.0084309286,
				"y": -2.6030541295,
				"z": 2.2475660344,
				"element": "C" 
			},
			{
				"x": 0.7492455345,
				"y": -1.2361141883,
				"z": 2.0153503628,
				"element": "C" 
			},
			{
				"x": 0.803801137,
				"y": -0.3218551347,
				"z": 3.0983675638,
				"element": "C" 
			},
			{
				"x": 0.5139895243,
				"y": 0.9298629287,
				"z": 2.5907308592,
				"element": "N" 
			},
			{
				"x": 0.2786193884,
				"y": 0.8255508705,
				"z": 1.2327795296,
				"element": "C" 
			},
			{
				"x": 0.415991906,
				"y": -0.4827027353,
				"z": 0.8303204057,
				"element": "C" 
			},
			{
				"x": 0.2620712856,
				"y": -1.0592968463,
				"z": -0.5510376897,
				"element": "C" 
			},
			{
				"x": 0.4990883983,
				"y": -0.095453349,
				"z": -1.7284930961,
				"element": "C" 
			},
			{
				"x": -0.4438676081,
				"y": 1.0217389685,
				"z": -1.8546720754,
				"element": "N" 
			},
			{
				"x": 0.138084765,
				"y": 2.1798033588,
				"z": -2.5695961122,
				"element": "C" 
			},
			{
				"x": 0.270253596,
				"y": 2.0126670409,
				"z": -4.098225903,
				"element": "C" 
			},
			{
				"x": -0.5865079005,
				"y": 3.4888496365,
				"z": -2.2216830808,
				"element": "C" 
			},
			{
				"x": -1.8400820712,
				"y": 0.6852317567,
				"z": -2.2375473415,
				"element": "C" 
			},
			{
				"x": -2.7466359763,
				"y": 0.563048526,
				"z": -0.9999744591,
				"element": "C" 
			},
			{
				"x": -2.0045808653,
				"y": -0.5308647061,
				"z": -3.1712032342,
				"element": "C" 
			},
			{
				"x": 1.1113846362,
				"y": -0.7367776218,
				"z": 4.3991915373,
				"element": "C" 
			},
			{
				"x": 1.363446778,
				"y": -2.0831588097,
				"z": 4.6091117208,
				"element": "C" 
			},
			{
				"x": 0.5605946082,
				"y": -5.376723714,
				"z": 2.4319599663,
				"element": "H" 
			},
			{
				"x": 1.794692567,
				"y": -6.2432389043,
				"z": 3.3859701901,
				"element": "H" 
			},
			{
				"x": 2.2950229872,
				"y": -5.1022109328,
				"z": 2.1085449419,
				"element": "H" 
			},
			{
				"x": 0.9649534911,
				"y": -3.3106760045,
				"z": 1.427920268,
				"element": "H" 
			},
			{
				"x": 0.4712586703,
				"y": 1.7822552944,
				"z": 3.1235021698,
				"element": "H" 
			},
			{
				"x": 0.0175270537,
				"y": 1.6877059534,
				"z": 0.6393046061,
				"element": "H" 
			},
			{
				"x": 0.9949990568,
				"y": -1.8697689103,
				"z": -0.6702898245,
				"element": "H" 
			},
			{
				"x": -0.7156588735,
				"y": -1.5480709162,
				"z": -0.6552465128,
				"element": "H" 
			},
			{
				"x": 1.4928217069,
				"y": 0.3443585175,
				"z": -1.5895854446,
				"element": "H" 
			},
			{
				"x": 0.56033579,
				"y": -0.7040118694,
				"z": -2.6477770119,
				"element": "H" 
			},
			{
				"x": 1.1548019841,
				"y": 2.2757641464,
				"z": -2.1679015253,
				"element": "H" 
			},
			{
				"x": -0.7103964434,
				"y": 1.9640482786,
				"z": -4.5843571408,
				"element": "H" 
			},
			{
				"x": 0.822314208,
				"y": 1.1030505089,
				"z": -4.3550428819,
				"element": "H" 
			},
			{
				"x": 0.8090254739,
				"y": 2.8619556828,
				"z": -4.532920743,
				"element": "H" 
			},
			{
				"x": -0.6599420401,
				"y": 3.6144843102,
				"z": -1.1374396119,
				"element": "H" 
			},
			{
				"x": -1.5993582981,
				"y": 3.5300354422,
				"z": -2.6363201466,
				"element": "H" 
			},
			{
				"x": -0.0363538687,
				"y": 4.3424950323,
				"z": -2.6317716143,
				"element": "H" 
			},
			{
				"x": -2.2131587872,
				"y": 1.5464107675,
				"z": -2.8015549467,
				"element": "H" 
			},
			{
				"x": -3.789606835,
				"y": 0.4092673137,
				"z": -1.3012052038,
				"element": "H" 
			},
			{
				"x": -2.4553088231,
				"y": -0.2716968709,
				"z": -0.3570896564,
				"element": "H" 
			},
			{
				"x": -2.6936878796,
				"y": 1.4749894309,
				"z": -0.3990029588,
				"element": "H" 
			},
			{
				"x": -3.0500134757,
				"y": -0.6070916585,
				"z": -3.4882995258,
				"element": "H" 
			},
			{
				"x": -1.7462294803,
				"y": -1.4738079783,
				"z": -2.679516802,
				"element": "H" 
			},
			{
				"x": -1.389789951,
				"y": -0.4397729164,
				"z": -4.071365877,
				"element": "H" 
			},
			{
				"x": 1.1525047373,
				"y": -0.0318313771,
				"z": 5.2250803446,
				"element": "H" 
			},
			{
				"x": 1.6056667151,
				"y": -2.4593751139,
				"z": 5.5973481953,
				"element": "H" 
			}
		],
		 "valence_orbital": [ 
			{
				"type": "occ",
				"energy": -0.2828,
				"method": "rhf"
			},
			{
				"type": "occ",
				"energy": -0.25777,
				"method": "rhf"
			},
			{
				"type": "occ",
				"energy": -0.1998,
				"method": "rhf"
			},
			{
				"type": "occ",
				"energy": -0.19,
				"method": "rhf"
			},
			{
				"type": "occ",
				"energy": -0.18414,
				"method": "rhf"
			},
			{
				"type": "unocc",
				"energy": 0.00299,
				"method": "rhf"
			},
			{
				"type": "unocc",
				"energy": 0.0489,
				"method": "rhf"
			},
			{
				"type": "unocc",
				"energy": 0.06892,
				"method": "rhf"
			},
			{
				"type": "unocc",
				"energy": 0.07968,
				"method": "rhf"
			},
			{
				"type": "unocc",
				"energy": 0.08683,
				"method": "rhf"
			}
		],
		"cosmo_sigma_profile": { 
			"-0.025": 0.0,
			"-0.024": 0.0,
			"-0.023": 0.0,
			"-0.022": 0.0,
			"-0.021": 0.0,
			"-0.02": 0.0,
			"-0.019": 0.0,
			"-0.018": 0.0,
			"-0.017": 0.0,
			"-0.016": 0.0,
			"-0.015": 0.920884829451,
			"-0.014": 1.50005805399,
			"-0.013": 1.17276670467,
			"-0.012": 1.32640799617,
			"-0.011": 1.13608886987,
			"-0.01": 0.855951850112,
			"-0.009": 1.32896750299,
			"-0.008": 1.55645444282,
			"-0.007": 1.25560416077,
			"-0.006": 4.15032338823,
			"-0.005": 10.7325596163,
			"-0.004": 18.0789204737,
			"-0.003": 33.2385261521,
			"-0.002": 46.7615593306,
			"-0.001": 48.8648724868,
			"0.0": 38.8632487592,
			"0.001": 37.1045905747,
			"0.002": 27.4491038514,
			"0.003": 10.9490218395,
			"0.004": 10.879372268,
			"0.005": 13.5655482961,
			"0.006": 17.619543872,
			"0.007": 14.8258969305,
			"0.008": 1.57969913158,
			"0.009": 0.843456859984,
			"0.01": 1.88093840959,
			"0.011": 1.70025530882,
			"0.012": 0.199845976038,
			"0.013": 0.0,
			"0.014": 0.0,
			"0.015": 0.0,
			"0.016": 0.0,
			"0.017": 0.0,
			"0.018": 0.0,
			"0.019": 0.0,
			"0.02": 0.0,
			"0.021": 0.0,
			"0.022": 0.0,
			"0.023": 0.0,
			"0.024": 0.0,
			"0.025": 0.0
		}
	}
}
