{
	 "smiles": "CC1=CN(N=C1)C1=CC=C(C=C1)C(O)=O", 
	 "Tm": 514.15, 
	 "num_atms": 25, 
	 "gaussian": { 
		 "optdone": 1, 
		 "sigma_profile": "yes", 
		 "theory": "DFT", 
		 "functional": "B3LYP", 
		 "basiset": "6-31G**", 
		 "properties": { 
			 "R2extent": 4626.7162, 
			 "electric_dipole_moment_norm": 5.01753605966, 
			 "electric_quadrupole_moment_norm": 27.3188544575, 
			 "total_energy": -685.140439956, 
			 "HOMO_LUMO_gap": 0.17461, 
			 "cosmo_polarized_energy": -16.87, 
			 "cosmo_cavitation_energy": 29.84, 
			 "cosmo_dispersion_energy": -22.08, 
			 "cosmo_repulsion_energy": 1.7, 
			 "cosmo_total_nonelectrostatic_energy": 9.46, 
			 "SMD_solvation_energy": 6.12 
		},
		"coords": [
			{
				"x": -3.219713292,
				"y": 3.8227263371,
				"z": -0.2959133445,
				"element": "C" 
			},
			{
				"x": -2.0688789711,
				"y": 2.9115605792,
				"z": 0.0090947006,
				"element": "C" 
			},
			{
				"x": -1.92543673,
				"y": 1.5830445931,
				"z": -0.324166391,
				"element": "C" 
			},
			{
				"x": -0.7137076168,
				"y": 1.1610312996,
				"z": 0.1652389974,
				"element": "N" 
			},
			{
				"x": -0.0615060345,
				"y": 2.166178959,
				"z": 0.8096426205,
				"element": "N" 
			},
			{
				"x": -0.8704012385,
				"y": 3.2111677003,
				"z": 0.7143193364,
				"element": "C" 
			},
			{
				"x": -0.1263687769,
				"y": -0.1195465307,
				"z": 0.0813139435,
				"element": "C" 
			},
			{
				"x": 1.0156789294,
				"y": -0.4021520279,
				"z": 0.8434812371,
				"element": "C" 
			},
			{
				"x": 1.6024076876,
				"y": -1.6593152481,
				"z": 0.7637049174,
				"element": "C" 
			},
			{
				"x": 1.0687117276,
				"y": -2.6572715843,
				"z": -0.0656005462,
				"element": "C" 
			},
			{
				"x": -0.0847546765,
				"y": -2.3666579034,
				"z": -0.8061711003,
				"element": "C" 
			},
			{
				"x": -0.6732123477,
				"y": -1.1102894511,
				"z": -0.7483126598,
				"element": "C" 
			},
			{
				"x": 1.6420015489,
				"y": -4.033994412,
				"z": -0.1823208012,
				"element": "C" 
			},
			{
				"x": 2.9302788521,
				"y": -4.2009595521,
				"z": 0.224114979,
				"element": "O" 
			},
			{
				"x": 1.0207965965,
				"y": -4.9776262405,
				"z": -0.613908324,
				"element": "O" 
			},
			{
				"x": -2.9068064396,
				"y": 4.6729442139,
				"z": -0.9125131389,
				"element": "H" 
			},
			{
				"x": -3.6616960771,
				"y": 4.2321561252,
				"z": 0.6193099128,
				"element": "H" 
			},
			{
				"x": -4.0094706038,
				"y": 3.2947376918,
				"z": -0.8373516458,
				"element": "H" 
			},
			{
				"x": -2.5963580244,
				"y": 0.9199755197,
				"z": -0.8473916684,
				"element": "H" 
			},
			{
				"x": -0.5737804885,
				"y": 4.1556141261,
				"z": 1.1530945218,
				"element": "H" 
			},
			{
				"x": 1.4175413342,
				"y": 0.3680637557,
				"z": 1.4887674747,
				"element": "H" 
			},
			{
				"x": 2.4637401028,
				"y": -1.8612935432,
				"z": 1.3961818636,
				"element": "H" 
			},
			{
				"x": -0.5036425227,
				"y": -3.1448222587,
				"z": -1.4347198953,
				"element": "H" 
			},
			{
				"x": -1.5465410067,
				"y": -0.9039517121,
				"z": -1.3560928649,
				"element": "H" 
			},
			{
				"x": 3.3456180679,
				"y": -3.3422204368,
				"z": 0.3822978758,
				"element": "H" 
			}
		],
		 "valence_orbital": [ 
			{
				"type": "occ",
				"energy": -0.29855,
				"method": "rhf"
			},
			{
				"type": "occ",
				"energy": -0.2763,
				"method": "rhf"
			},
			{
				"type": "occ",
				"energy": -0.27103,
				"method": "rhf"
			},
			{
				"type": "occ",
				"energy": -0.25756,
				"method": "rhf"
			},
			{
				"type": "occ",
				"energy": -0.23302,
				"method": "rhf"
			},
			{
				"type": "unocc",
				"energy": -0.05841,
				"method": "rhf"
			},
			{
				"type": "unocc",
				"energy": -0.02541,
				"method": "rhf"
			},
			{
				"type": "unocc",
				"energy": 0.0057,
				"method": "rhf"
			},
			{
				"type": "unocc",
				"energy": 0.05424,
				"method": "rhf"
			},
			{
				"type": "unocc",
				"energy": 0.05865,
				"method": "rhf"
			}
		],
		"cosmo_sigma_profile": { 
			"-0.025": 0.0,
			"-0.024": 0.0,
			"-0.023": 0.0,
			"-0.022": 0.0,
			"-0.021": 0.0,
			"-0.02": 0.0,
			"-0.019": 0.185895915339,
			"-0.018": 0.947912470175,
			"-0.017": 1.01357297039,
			"-0.016": 0.907621458839,
			"-0.015": 1.13969915667,
			"-0.014": 0.803528080725,
			"-0.013": 0.774091566735,
			"-0.012": 1.14489110351,
			"-0.011": 2.18612715246,
			"-0.01": 2.90204065726,
			"-0.009": 3.66037469218,
			"-0.008": 4.3666766128,
			"-0.007": 6.87617167717,
			"-0.006": 8.6540073484,
			"-0.005": 11.9648282449,
			"-0.004": 15.0908281122,
			"-0.003": 14.4406675715,
			"-0.002": 18.3068702092,
			"-0.001": 17.0800317477,
			"0.0": 18.8397293137,
			"0.001": 17.1851940398,
			"0.002": 20.7194071594,
			"0.003": 17.8126933655,
			"0.004": 9.55574459906,
			"0.005": 4.58574004777,
			"0.006": 3.62719922706,
			"0.007": 4.98160958125,
			"0.008": 4.501903066,
			"0.009": 3.99811423397,
			"0.01": 6.4857781423,
			"0.011": 5.87614768391,
			"0.012": 6.70231558001,
			"0.013": 1.97884369303,
			"0.014": 0.104517487156,
			"0.015": 0.0,
			"0.016": 0.0,
			"0.017": 0.0,
			"0.018": 0.0,
			"0.019": 0.0,
			"0.02": 0.0,
			"0.021": 0.0,
			"0.022": 0.0,
			"0.023": 0.0,
			"0.024": 0.0,
			"0.025": 0.0
		}
	}
}
