{
	 "smiles": "CC1=CNN=C1", 
	 "Tm": 286.15, 
	 "num_atms": 12, 
	 "gaussian": { 
		 "optdone": 1, 
		 "sigma_profile": "yes", 
		 "theory": "DFT", 
		 "functional": "B3LYP", 
		 "basiset": "6-31G**", 
		 "properties": { 
			 "R2extent": 673.2516, 
			 "electric_dipole_moment_norm": 2.28480804008, 
			 "electric_quadrupole_moment_norm": 8.96357307272, 
			 "total_energy": -265.521770978, 
			 "HOMO_LUMO_gap": 0.25946, 
			 "cosmo_polarized_energy": -8.67, 
			 "cosmo_cavitation_energy": 15.56, 
			 "cosmo_dispersion_energy": -11.87, 
			 "cosmo_repulsion_energy": 1.04, 
			 "cosmo_total_nonelectrostatic_energy": 4.73, 
			 "SMD_solvation_energy": 2.51 
		},
		"coords": [
			{
				"x": -1.2589384586,
				"y": -0.7677469448,
				"z": 1.080284201,
				"element": "C" 
			},
			{
				"x": -0.7693109547,
				"y": -0.2787970216,
				"z": -0.2510419225,
				"element": "C" 
			},
			{
				"x": -0.8799825567,
				"y": 0.9925990945,
				"z": -0.7848359445,
				"element": "C" 
			},
			{
				"x": -0.29023716,
				"y": 0.955921816,
				"z": -2.0106442529,
				"element": "N" 
			},
			{
				"x": 0.2050073542,
				"y": -0.2589354502,
				"z": -2.3232738795,
				"element": "N" 
			},
			{
				"x": -0.084485553,
				"y": -1.0061300526,
				"z": -1.259326542,
				"element": "C" 
			},
			{
				"x": -1.9772908375,
				"y": -1.5883272801,
				"z": 0.9709140146,
				"element": "H" 
			},
			{
				"x": -1.7560841133,
				"y": 0.0321394812,
				"z": 1.6367538227,
				"element": "H" 
			},
			{
				"x": -0.436703413,
				"y": -1.1396210895,
				"z": 1.7024170022,
				"element": "H" 
			},
			{
				"x": -1.3245366041,
				"y": 1.8953106674,
				"z": -0.3903163677,
				"element": "H" 
			},
			{
				"x": -0.1928626667,
				"y": 1.7092288014,
				"z": -2.67262681,
				"element": "H" 
			},
			{
				"x": 0.2069249634,
				"y": -2.0488420217,
				"z": -1.2455033213,
				"element": "H" 
			}
		],
		 "valence_orbital": [ 
			{
				"type": "occ",
				"energy": -0.39812,
				"method": "rhf"
			},
			{
				"type": "occ",
				"energy": -0.36718,
				"method": "rhf"
			},
			{
				"type": "occ",
				"energy": -0.27902,
				"method": "rhf"
			},
			{
				"type": "occ",
				"energy": -0.24767,
				"method": "rhf"
			},
			{
				"type": "occ",
				"energy": -0.23188,
				"method": "rhf"
			},
			{
				"type": "unocc",
				"energy": 0.02758,
				"method": "rhf"
			},
			{
				"type": "unocc",
				"energy": 0.07339,
				"method": "rhf"
			},
			{
				"type": "unocc",
				"energy": 0.08454,
				"method": "rhf"
			},
			{
				"type": "unocc",
				"energy": 0.11528,
				"method": "rhf"
			},
			{
				"type": "unocc",
				"energy": 0.14022,
				"method": "rhf"
			}
		],
		"cosmo_sigma_profile": { 
			"-0.025": 0.0,
			"-0.024": 0.0,
			"-0.023": 0.0,
			"-0.022": 0.0,
			"-0.021": 0.0,
			"-0.02": 0.0,
			"-0.019": 0.0,
			"-0.018": 0.0,
			"-0.017": 0.000294962082914,
			"-0.016": 1.20321663908,
			"-0.015": 1.44734405414,
			"-0.014": 1.62946177602,
			"-0.013": 0.802545812763,
			"-0.012": 1.08324751945,
			"-0.011": 0.74082438288,
			"-0.01": 1.02439202231,
			"-0.009": 1.31776907995,
			"-0.008": 3.28312837786,
			"-0.007": 2.41411072108,
			"-0.006": 4.05000174119,
			"-0.005": 3.93037840383,
			"-0.004": 8.04762080954,
			"-0.003": 9.63409914985,
			"-0.002": 9.13762561599,
			"-0.001": 10.79176834,
			"0.0": 11.4141660055,
			"0.001": 8.02748666832,
			"0.002": 4.66285394285,
			"0.003": 4.94507387573,
			"0.004": 5.4229836608,
			"0.005": 6.86238960356,
			"0.006": 6.38919755549,
			"0.007": 2.67641031537,
			"0.008": 1.63537367605,
			"0.009": 2.06809654727,
			"0.01": 0.911922602275,
			"0.011": 1.30222430017,
			"0.012": 1.46987486778,
			"0.013": 1.35793637342,
			"0.014": 1.39029280009,
			"0.015": 1.05666554698,
			"0.016": 0.985373317002,
			"0.017": 0.420102189296,
			"0.018": 0.0,
			"0.019": 0.0,
			"0.02": 0.0,
			"0.021": 0.0,
			"0.022": 0.0,
			"0.023": 0.0,
			"0.024": 0.0,
			"0.025": 0.0
		}
	}
}
