{
	 "smiles": "O=C1OCCN1C1=CC=CC=C1", 
	 "Tm": 394.15, 
	 "num_atms": 21, 
	 "gaussian": { 
		 "optdone": 1, 
		 "sigma_profile": "yes", 
		 "theory": "DFT", 
		 "functional": "B3LYP", 
		 "basiset": "6-31G**", 
		 "properties": { 
			 "R2extent": 2142.5662, 
			 "electric_dipole_moment_norm": 4.63700413845, 
			 "electric_quadrupole_moment_norm": 10.7174289552, 
			 "total_energy": -553.592795527, 
			 "HOMO_LUMO_gap": 0.21612, 
			 "cosmo_polarized_energy": -12.73, 
			 "cosmo_cavitation_energy": 24.21, 
			 "cosmo_dispersion_energy": -18.52, 
			 "cosmo_repulsion_energy": 1.46, 
			 "cosmo_total_nonelectrostatic_energy": 7.14, 
			 "SMD_solvation_energy": 4.95 
		},
		"coords": [
			{
				"x": -0.2903965778,
				"y": -1.5228719066,
				"z": 1.7185619226,
				"element": "O" 
			},
			{
				"x": -0.4344755541,
				"y": -1.5944717139,
				"z": 0.5220173064,
				"element": "C" 
			},
			{
				"x": -0.7880508111,
				"y": -2.7587838682,
				"z": -0.1047824394,
				"element": "O" 
			},
			{
				"x": -1.0602735463,
				"y": -2.5057496409,
				"z": -1.4887210123,
				"element": "C" 
			},
			{
				"x": -0.388576406,
				"y": -1.1566975298,
				"z": -1.7787697752,
				"element": "C" 
			},
			{
				"x": -0.2885556881,
				"y": -0.5973682428,
				"z": -0.4365027181,
				"element": "N" 
			},
			{
				"x": 0.1616019527,
				"y": 0.7229620824,
				"z": -0.1943088003,
				"element": "C" 
			},
			{
				"x": 0.1828556316,
				"y": 1.2701280695,
				"z": 1.1010218947,
				"element": "C" 
			},
			{
				"x": 0.6139552835,
				"y": 2.5810806795,
				"z": 1.2887322764,
				"element": "C" 
			},
			{
				"x": 1.0233893139,
				"y": 3.3709319855,
				"z": 0.2123119588,
				"element": "C" 
			},
			{
				"x": 0.9992190271,
				"y": 2.8277350165,
				"z": -1.0705527165,
				"element": "C" 
			},
			{
				"x": 0.5735195546,
				"y": 1.5154852403,
				"z": -1.2784370198,
				"element": "C" 
			},
			{
				"x": -2.1456086471,
				"y": -2.4592292,
				"z": -1.6328647007,
				"element": "H" 
			},
			{
				"x": -0.6541816954,
				"y": -3.3276860892,
				"z": -2.0811196465,
				"element": "H" 
			},
			{
				"x": 0.6039008177,
				"y": -1.2734817804,
				"z": -2.2354226029,
				"element": "H" 
			},
			{
				"x": -0.9972624288,
				"y": -0.5258702115,
				"z": -2.4330123693,
				"element": "H" 
			},
			{
				"x": -0.1237863583,
				"y": 0.6636147398,
				"z": 1.941064309,
				"element": "H" 
			},
			{
				"x": 0.6259066212,
				"y": 2.9877948321,
				"z": 2.2960185653,
				"element": "H" 
			},
			{
				"x": 1.355424546,
				"y": 4.3920966358,
				"z": 0.3720918839,
				"element": "H" 
			},
			{
				"x": 1.3143400779,
				"y": 3.4221392565,
				"z": -1.923443538,
				"element": "H" 
			},
			{
				"x": 0.5710548868,
				"y": 1.1177416455,
				"z": -2.2867827781,
				"element": "H" 
			}
		],
		 "valence_orbital": [ 
			{
				"type": "occ",
				"energy": -0.30398,
				"method": "rhf"
			},
			{
				"type": "occ",
				"energy": -0.29811,
				"method": "rhf"
			},
			{
				"type": "occ",
				"energy": -0.27764,
				"method": "rhf"
			},
			{
				"type": "occ",
				"energy": -0.25142,
				"method": "rhf"
			},
			{
				"type": "occ",
				"energy": -0.22062,
				"method": "rhf"
			},
			{
				"type": "unocc",
				"energy": -0.0045,
				"method": "rhf"
			},
			{
				"type": "unocc",
				"energy": -0.00217,
				"method": "rhf"
			},
			{
				"type": "unocc",
				"energy": 0.05257,
				"method": "rhf"
			},
			{
				"type": "unocc",
				"energy": 0.07441,
				"method": "rhf"
			},
			{
				"type": "unocc",
				"energy": 0.09003,
				"method": "rhf"
			}
		],
		"cosmo_sigma_profile": { 
			"-0.025": 0.0,
			"-0.024": 0.0,
			"-0.023": 0.0,
			"-0.022": 0.0,
			"-0.021": 0.0,
			"-0.02": 0.0,
			"-0.019": 0.0,
			"-0.018": 0.0,
			"-0.017": 0.0,
			"-0.016": 0.0,
			"-0.015": 0.0,
			"-0.014": 0.0,
			"-0.013": 0.0,
			"-0.012": 0.0,
			"-0.011": 0.0,
			"-0.01": 0.0,
			"-0.009": 0.0,
			"-0.008": 0.814506296267,
			"-0.007": 13.6843221228,
			"-0.006": 21.9536020374,
			"-0.005": 18.0791416533,
			"-0.004": 14.809701134,
			"-0.003": 11.9585489429,
			"-0.002": 10.0451408063,
			"-0.001": 9.67448700242,
			"0.0": 8.25505708563,
			"0.001": 9.55297800166,
			"0.002": 9.01781355723,
			"0.003": 10.7028169273,
			"0.004": 10.8322224995,
			"0.005": 11.7743956769,
			"0.006": 9.16097055474,
			"0.007": 2.71049698921,
			"0.008": 3.00758363211,
			"0.009": 3.05562531676,
			"0.01": 4.65412284943,
			"0.011": 3.47698472108,
			"0.012": 4.1301687689,
			"0.013": 1.97535832703,
			"0.014": 0.109179518269,
			"0.015": 0.0,
			"0.016": 0.0,
			"0.017": 0.0,
			"0.018": 0.0,
			"0.019": 0.0,
			"0.02": 0.0,
			"0.021": 0.0,
			"0.022": 0.0,
			"0.023": 0.0,
			"0.024": 0.0,
			"0.025": 0.0
		}
	}
}
