{
	 "smiles": "COC1=C(CC(O)=O)C=CC=C1", 
	 "Tm": 397.15, 
	 "num_atms": 22, 
	 "gaussian": { 
		 "optdone": 1, 
		 "sigma_profile": "yes", 
		 "theory": "DFT", 
		 "functional": "B3LYP", 
		 "basiset": "6-31G**", 
		 "properties": { 
			 "R2extent": 2155.625, 
			 "electric_dipole_moment_norm": 6.2081453253, 
			 "electric_quadrupole_moment_norm": 15.220723989, 
			 "total_energy": -574.660116811, 
			 "HOMO_LUMO_gap": 0.21722, 
			 "cosmo_polarized_energy": -13.77, 
			 "cosmo_cavitation_energy": 25.59, 
			 "cosmo_dispersion_energy": -18.55, 
			 "cosmo_repulsion_energy": 1.47, 
			 "cosmo_total_nonelectrostatic_energy": 8.51, 
			 "SMD_solvation_energy": 6.19 
		},
		"coords": [
			{
				"x": 0.7333721377,
				"y": 2.7216016231,
				"z": 1.4118484778,
				"element": "C" 
			},
			{
				"x": 0.8787728979,
				"y": 1.3623244186,
				"z": 1.0071095267,
				"element": "O" 
			},
			{
				"x": -0.2489836214,
				"y": 0.5644780534,
				"z": 0.935022265,
				"element": "C" 
			},
			{
				"x": -0.0107260704,
				"y": -0.7866248628,
				"z": 0.6137891747,
				"element": "C" 
			},
			{
				"x": 1.3967759735,
				"y": -1.3115723684,
				"z": 0.4066790102,
				"element": "C" 
			},
			{
				"x": 2.0001341298,
				"y": -0.9888067507,
				"z": -0.9703652625,
				"element": "C" 
			},
			{
				"x": 2.164684064,
				"y": 0.3235337329,
				"z": -1.2406832258,
				"element": "O" 
			},
			{
				"x": 2.3250694891,
				"y": -1.8374993928,
				"z": -1.7641285862,
				"element": "O" 
			},
			{
				"x": -1.1145120374,
				"y": -1.6350445819,
				"z": 0.5035423236,
				"element": "C" 
			},
			{
				"x": -2.4165074351,
				"y": -1.1734538219,
				"z": 0.7112952753,
				"element": "C" 
			},
			{
				"x": -2.6256824945,
				"y": 0.1629606749,
				"z": 1.0389332787,
				"element": "C" 
			},
			{
				"x": -1.5426395064,
				"y": 1.0396278,
				"z": 1.1525212432,
				"element": "C" 
			},
			{
				"x": 0.2870844186,
				"y": 2.786437568,
				"z": 2.410256304,
				"element": "H" 
			},
			{
				"x": 1.7415742468,
				"y": 3.1367651472,
				"z": 1.4365903531,
				"element": "H" 
			},
			{
				"x": 0.1227584542,
				"y": 3.2886406087,
				"z": 0.6997699535,
				"element": "H" 
			},
			{
				"x": 2.063230472,
				"y": -0.8973047426,
				"z": 1.1734140805,
				"element": "H" 
			},
			{
				"x": 1.4062334559,
				"y": -2.3980241555,
				"z": 0.4991824384,
				"element": "H" 
			},
			{
				"x": 1.8443630218,
				"y": 0.8570550875,
				"z": -0.4880430336,
				"element": "H" 
			},
			{
				"x": -0.9440026666,
				"y": -2.6788619335,
				"z": 0.2546203128,
				"element": "H" 
			},
			{
				"x": -3.2557770269,
				"y": -1.8556710484,
				"z": 0.6209459398,
				"element": "H" 
			},
			{
				"x": -3.6312064026,
				"y": 0.5369987759,
				"z": 1.2067072692,
				"element": "H" 
			},
			{
				"x": -1.7185155001,
				"y": 2.079040168,
				"z": 1.4022928817,
				"element": "H" 
			}
		],
		 "valence_orbital": [ 
			{
				"type": "occ",
				"energy": -0.33593,
				"method": "rhf"
			},
			{
				"type": "occ",
				"energy": -0.29673,
				"method": "rhf"
			},
			{
				"type": "occ",
				"energy": -0.27142,
				"method": "rhf"
			},
			{
				"type": "occ",
				"energy": -0.25025,
				"method": "rhf"
			},
			{
				"type": "occ",
				"energy": -0.23475,
				"method": "rhf"
			},
			{
				"type": "unocc",
				"energy": -0.01753,
				"method": "rhf"
			},
			{
				"type": "unocc",
				"energy": -0.00505,
				"method": "rhf"
			},
			{
				"type": "unocc",
				"energy": 0.02933,
				"method": "rhf"
			},
			{
				"type": "unocc",
				"energy": 0.07407,
				"method": "rhf"
			},
			{
				"type": "unocc",
				"energy": 0.07835,
				"method": "rhf"
			}
		],
		"cosmo_sigma_profile": { 
			"-0.025": 0.0,
			"-0.024": 0.0,
			"-0.023": 0.0,
			"-0.022": 0.0,
			"-0.021": 0.0,
			"-0.02": 0.0,
			"-0.019": 0.0,
			"-0.018": 0.0,
			"-0.017": 0.0,
			"-0.016": 0.0,
			"-0.015": 0.0,
			"-0.014": 0.0,
			"-0.013": 0.0,
			"-0.012": 0.0,
			"-0.011": 0.0,
			"-0.01": 0.0,
			"-0.009": 0.0826502120869,
			"-0.008": 1.10769703897,
			"-0.007": 7.16806437507,
			"-0.006": 21.1359397162,
			"-0.005": 21.6677177282,
			"-0.004": 22.3799508286,
			"-0.003": 17.3815098955,
			"-0.002": 11.555322174,
			"-0.001": 10.725829233,
			"0.0": 9.43216996755,
			"0.001": 9.61412696586,
			"0.002": 9.46187534216,
			"0.003": 9.56534161496,
			"0.004": 10.0976275011,
			"0.005": 10.5184785892,
			"0.006": 4.0802893681,
			"0.007": 2.20563208917,
			"0.008": 2.38882738304,
			"0.009": 2.74048315654,
			"0.01": 3.95645354119,
			"0.011": 6.02803990827,
			"0.012": 6.07318531136,
			"0.013": 3.69982284738,
			"0.014": 0.427145557547,
			"0.015": 0.0,
			"0.016": 0.0,
			"0.017": 0.0,
			"0.018": 0.0,
			"0.019": 0.0,
			"0.02": 0.0,
			"0.021": 0.0,
			"0.022": 0.0,
			"0.023": 0.0,
			"0.024": 0.0,
			"0.025": 0.0
		}
	}
}
