{
	 "smiles": "CN(C)C1=NC=C(C=C1)C(O)=O", 
	 "Tm": 499.15, 
	 "num_atms": 22, 
	 "gaussian": { 
		 "optdone": 1, 
		 "sigma_profile": "yes", 
		 "theory": "DFT", 
		 "functional": "B3LYP", 
		 "basiset": "6-31G**", 
		 "properties": { 
			 "R2extent": 2780.4292, 
			 "electric_dipole_moment_norm": 7.19443125827, 
			 "electric_quadrupole_moment_norm": 14.5392393584, 
			 "total_energy": -570.834899271, 
			 "HOMO_LUMO_gap": 0.1762, 
			 "cosmo_polarized_energy": -17.4, 
			 "cosmo_cavitation_energy": 25.73, 
			 "cosmo_dispersion_energy": -19.19, 
			 "cosmo_repulsion_energy": 1.52, 
			 "cosmo_total_nonelectrostatic_energy": 8.06, 
			 "SMD_solvation_energy": 4.65 
		},
		"coords": [
			{
				"x": -0.0150455798,
				"y": -3.0833695959,
				"z": 1.6971858027,
				"element": "C" 
			},
			{
				"x": 0.5760229504,
				"y": -2.2875728354,
				"z": 0.6277119822,
				"element": "N" 
			},
			{
				"x": 1.51592664,
				"y": -2.9549752017,
				"z": -0.256192537,
				"element": "C" 
			},
			{
				"x": 0.4137107906,
				"y": -0.9282871685,
				"z": 0.5754423329,
				"element": "C" 
			},
			{
				"x": -0.4448740149,
				"y": -0.3720854098,
				"z": 1.4605746152,
				"element": "N" 
			},
			{
				"x": -0.6460693481,
				"y": 0.938823405,
				"z": 1.4183584107,
				"element": "C" 
			},
			{
				"x": -0.0370411741,
				"y": 1.8102173523,
				"z": 0.5027055804,
				"element": "C" 
			},
			{
				"x": 0.8760040568,
				"y": 1.230854781,
				"z": -0.3944257526,
				"element": "C" 
			},
			{
				"x": 1.1149550323,
				"y": -0.1305564693,
				"z": -0.3692900275,
				"element": "C" 
			},
			{
				"x": -0.3605526489,
				"y": 3.2577982642,
				"z": 0.5811691013,
				"element": "C" 
			},
			{
				"x": -0.0148030595,
				"y": 4.0268269948,
				"z": -0.4932603655,
				"element": "O" 
			},
			{
				"x": -0.9046797146,
				"y": 3.7737445436,
				"z": 1.5314613275,
				"element": "O" 
			},
			{
				"x": -0.5149327029,
				"y": -3.9624543317,
				"z": 1.2755116476,
				"element": "H" 
			},
			{
				"x": -0.7410287317,
				"y": -2.4733702805,
				"z": 2.229482405,
				"element": "H" 
			},
			{
				"x": 0.750707123,
				"y": -3.4261843678,
				"z": 2.4065748835,
				"element": "H" 
			},
			{
				"x": 1.3172994095,
				"y": -2.7123390719,
				"z": -1.3060736367,
				"element": "H" 
			},
			{
				"x": 1.4019614666,
				"y": -4.0337221954,
				"z": -0.137491278,
				"element": "H" 
			},
			{
				"x": 2.561233465,
				"y": -2.6965094402,
				"z": -0.0329211099,
				"element": "H" 
			},
			{
				"x": -1.3367534001,
				"y": 1.3524335535,
				"z": 2.1495195399,
				"element": "H" 
			},
			{
				"x": 1.4402832932,
				"y": 1.8416765843,
				"z": -1.0964730563,
				"element": "H" 
			},
			{
				"x": 1.8395295057,
				"y": -0.5640123296,
				"z": -1.0459742308,
				"element": "H" 
			},
			{
				"x": 0.2436466416,
				"y": 3.4660632189,
				"z": -1.2368956346,
				"element": "H" 
			}
		],
		 "valence_orbital": [ 
			{
				"type": "occ",
				"energy": -0.30117,
				"method": "rhf"
			},
			{
				"type": "occ",
				"energy": -0.29127,
				"method": "rhf"
			},
			{
				"type": "occ",
				"energy": -0.27036,
				"method": "rhf"
			},
			{
				"type": "occ",
				"energy": -0.25718,
				"method": "rhf"
			},
			{
				"type": "occ",
				"energy": -0.21461,
				"method": "rhf"
			},
			{
				"type": "unocc",
				"energy": -0.03841,
				"method": "rhf"
			},
			{
				"type": "unocc",
				"energy": -0.02638,
				"method": "rhf"
			},
			{
				"type": "unocc",
				"energy": 0.05569,
				"method": "rhf"
			},
			{
				"type": "unocc",
				"energy": 0.06469,
				"method": "rhf"
			},
			{
				"type": "unocc",
				"energy": 0.08225,
				"method": "rhf"
			}
		],
		"cosmo_sigma_profile": { 
			"-0.025": 0.0,
			"-0.024": 0.0,
			"-0.023": 0.0,
			"-0.022": 0.0,
			"-0.021": 0.0,
			"-0.02": 0.0,
			"-0.019": 0.177179289851,
			"-0.018": 0.778304367831,
			"-0.017": 0.724137786269,
			"-0.016": 1.25303723418,
			"-0.015": 1.10257184428,
			"-0.014": 1.06759433889,
			"-0.013": 1.09897588999,
			"-0.012": 0.664370873234,
			"-0.011": 1.05711096907,
			"-0.01": 1.52254925073,
			"-0.009": 1.18277832282,
			"-0.008": 1.74050376249,
			"-0.007": 3.49774772531,
			"-0.006": 9.09238473415,
			"-0.005": 14.93385732,
			"-0.004": 16.3928081744,
			"-0.003": 18.4783993375,
			"-0.002": 20.7381780011,
			"-0.001": 13.5064476157,
			"0.0": 9.85732747123,
			"0.001": 14.5245521424,
			"0.002": 14.0815177818,
			"0.003": 9.89155122326,
			"0.004": 4.87829077352,
			"0.005": 4.87558505855,
			"0.006": 4.48627465878,
			"0.007": 3.41896050817,
			"0.008": 4.16075849313,
			"0.009": 4.57318339659,
			"0.01": 4.33171246208,
			"0.011": 6.44621434884,
			"0.012": 5.88173695986,
			"0.013": 3.3347115627,
			"0.014": 0.852920049365,
			"0.015": 0.0,
			"0.016": 0.0,
			"0.017": 0.0,
			"0.018": 0.0,
			"0.019": 0.0,
			"0.02": 0.0,
			"0.021": 0.0,
			"0.022": 0.0,
			"0.023": 0.0,
			"0.024": 0.0,
			"0.025": 0.0
		}
	}
}
