{
	 "smiles": "CC1=NN(N=C1C(Cl)=O)C1=CC=CC=C1", 
	 "Tm": 377.15, 
	 "num_atms": 23, 
	 "gaussian": { 
		 "optdone": 1, 
		 "sigma_profile": "yes", 
		 "theory": "DFT", 
		 "functional": "B3LYP", 
		 "basiset": "6-31G**", 
		 "properties": { 
			 "R2extent": 5438.7952, 
			 "electric_dipole_moment_norm": 4.16476019598, 
			 "electric_quadrupole_moment_norm": 18.2937672203, 
			 "total_energy": -1085.53916947, 
			 "HOMO_LUMO_gap": 0.16749, 
			 "cosmo_polarized_energy": -7.59, 
			 "cosmo_cavitation_energy": 30.31, 
			 "cosmo_dispersion_energy": -22.17, 
			 "cosmo_repulsion_energy": 1.74, 
			 "cosmo_total_nonelectrostatic_energy": 9.88, 
			 "SMD_solvation_energy": 4.37 
		},
		"coords": [
			{
				"x": -3.0845408001,
				"y": 1.2163083335,
				"z": 1.5137792433,
				"element": "C" 
			},
			{
				"x": -1.6034498417,
				"y": 1.2377409673,
				"z": 1.3378278357,
				"element": "C" 
			},
			{
				"x": -0.9689034999,
				"y": 0.4018156287,
				"z": 0.5206596753,
				"element": "N" 
			},
			{
				"x": 0.3313194555,
				"y": 0.7373644989,
				"z": 0.6439610735,
				"element": "N" 
			},
			{
				"x": 0.5870104263,
				"y": 1.7266376728,
				"z": 1.4787937283,
				"element": "N" 
			},
			{
				"x": -0.6218406621,
				"y": 2.0723608753,
				"z": 1.9413287682,
				"element": "C" 
			},
			{
				"x": -0.8688307229,
				"y": 3.1378263171,
				"z": 2.9091894422,
				"element": "C" 
			},
			{
				"x": 0.6140380197,
				"y": 4.0052488362,
				"z": 3.4741200165,
				"element": "Cl" 
			},
			{
				"x": -1.9510217869,
				"y": 3.446075884,
				"z": 3.3227999263,
				"element": "O" 
			},
			{
				"x": 1.3580802304,
				"y": 0.0640248837,
				"z": -0.0823449087,
				"element": "C" 
			},
			{
				"x": 2.6881765554,
				"y": 0.4582621892,
				"z": 0.0876620353,
				"element": "C" 
			},
			{
				"x": 3.6828309996,
				"y": -0.2061685193,
				"z": -0.6265255176,
				"element": "C" 
			},
			{
				"x": 3.3563034705,
				"y": -1.2484066131,
				"z": -1.4975010156,
				"element": "C" 
			},
			{
				"x": 2.0218755365,
				"y": -1.6281702777,
				"z": -1.6542508121,
				"element": "C" 
			},
			{
				"x": 1.0120711473,
				"y": -0.9759618141,
				"z": -0.9487728154,
				"element": "C" 
			},
			{
				"x": -3.520999843,
				"y": 0.4365424235,
				"z": 0.8872876474,
				"element": "H" 
			},
			{
				"x": -3.3494067872,
				"y": 1.0308391758,
				"z": 2.5588980541,
				"element": "H" 
			},
			{
				"x": -3.5221140806,
				"y": 2.1824896087,
				"z": 1.2456842741,
				"element": "H" 
			},
			{
				"x": 2.9249602927,
				"y": 1.2681662483,
				"z": 0.7667131257,
				"element": "H" 
			},
			{
				"x": 4.7182497477,
				"y": 0.0945822121,
				"z": -0.499566421,
				"element": "H" 
			},
			{
				"x": 4.1373630723,
				"y": -1.761129521,
				"z": -2.0504274711,
				"element": "H" 
			},
			{
				"x": 1.7604715621,
				"y": -2.4372670761,
				"z": -2.3293575749,
				"element": "H" 
			},
			{
				"x": -0.0276424918,
				"y": -1.2576819336,
				"z": -1.0584583095,
				"element": "H" 
			}
		],
		 "valence_orbital": [ 
			{
				"type": "occ",
				"energy": -0.3095,
				"method": "rhf"
			},
			{
				"type": "occ",
				"energy": -0.30627,
				"method": "rhf"
			},
			{
				"type": "occ",
				"energy": -0.29508,
				"method": "rhf"
			},
			{
				"type": "occ",
				"energy": -0.26989,
				"method": "rhf"
			},
			{
				"type": "occ",
				"energy": -0.24741,
				"method": "rhf"
			},
			{
				"type": "unocc",
				"energy": -0.07992,
				"method": "rhf"
			},
			{
				"type": "unocc",
				"energy": -0.03602,
				"method": "rhf"
			},
			{
				"type": "unocc",
				"energy": -0.01905,
				"method": "rhf"
			},
			{
				"type": "unocc",
				"energy": 0.01655,
				"method": "rhf"
			},
			{
				"type": "unocc",
				"energy": 0.02477,
				"method": "rhf"
			}
		],
		"cosmo_sigma_profile": { 
			"-0.025": 0.0,
			"-0.024": 0.0,
			"-0.023": 0.0,
			"-0.022": 0.0,
			"-0.021": 0.0,
			"-0.02": 0.0,
			"-0.019": 0.0,
			"-0.018": 0.0,
			"-0.017": 0.0,
			"-0.016": 0.0,
			"-0.015": 0.0,
			"-0.014": 0.0,
			"-0.013": 0.0,
			"-0.012": 0.0,
			"-0.011": 0.0,
			"-0.01": 0.0,
			"-0.009": 0.0,
			"-0.008": 0.0,
			"-0.007": 3.40059187149,
			"-0.006": 12.8232461541,
			"-0.005": 20.4811779435,
			"-0.004": 20.2351981371,
			"-0.003": 19.9032992922,
			"-0.002": 22.0626356821,
			"-0.001": 20.9276416076,
			"0.0": 16.2961417714,
			"0.001": 18.5166526469,
			"0.002": 18.8561067039,
			"0.003": 21.3928047876,
			"0.004": 20.5020971853,
			"0.005": 9.02933529013,
			"0.006": 5.91973372398,
			"0.007": 5.22187345858,
			"0.008": 5.38350695052,
			"0.009": 5.06766073173,
			"0.01": 0.360282834876,
			"0.011": 0.0,
			"0.012": 0.0,
			"0.013": 0.0,
			"0.014": 0.0,
			"0.015": 0.0,
			"0.016": 0.0,
			"0.017": 0.0,
			"0.018": 0.0,
			"0.019": 0.0,
			"0.02": 0.0,
			"0.021": 0.0,
			"0.022": 0.0,
			"0.023": 0.0,
			"0.024": 0.0,
			"0.025": 0.0
		}
	}
}
