{
	 "smiles": "NC1=C(O)C(Cl)=CC(Cl)=C1", 
	 "Tm": 370.15, 
	 "num_atms": 15, 
	 "gaussian": { 
		 "optdone": 1, 
		 "sigma_profile": "yes", 
		 "theory": "DFT", 
		 "functional": "B3LYP", 
		 "basiset": "6-31G**", 
		 "properties": { 
			 "R2extent": 2632.4558, 
			 "electric_dipole_moment_norm": 2.68777724895, 
			 "electric_quadrupole_moment_norm": 9.68414306947, 
			 "total_energy": -1282.01251891, 
			 "HOMO_LUMO_gap": 0.19781, 
			 "cosmo_polarized_energy": -8.94, 
			 "cosmo_cavitation_energy": 22.63, 
			 "cosmo_dispersion_energy": -17.51, 
			 "cosmo_repulsion_energy": 1.43, 
			 "cosmo_total_nonelectrostatic_energy": 6.55, 
			 "SMD_solvation_energy": 3.56 
		},
		"coords": [
			{
				"x": -1.2373346728,
				"y": 1.791299821,
				"z": -0.5487620144,
				"element": "N" 
			},
			{
				"x": -0.2053971457,
				"y": 0.8852904565,
				"z": -0.7443304554,
				"element": "C" 
			},
			{
				"x": -0.2625695604,
				"y": -0.3592071527,
				"z": -0.0750534641,
				"element": "C" 
			},
			{
				"x": -1.3138280417,
				"y": -0.5454024307,
				"z": 0.7742065397,
				"element": "O" 
			},
			{
				"x": 0.7386795604,
				"y": -1.2995811052,
				"z": -0.3048969242,
				"element": "C" 
			},
			{
				"x": 0.6372179505,
				"y": -2.8365614731,
				"z": 0.5544008578,
				"element": "Cl" 
			},
			{
				"x": 1.8061316644,
				"y": -1.0632893125,
				"z": -1.1739372835,
				"element": "C" 
			},
			{
				"x": 1.8430389259,
				"y": 0.1684824913,
				"z": -1.8167488322,
				"element": "C" 
			},
			{
				"x": 3.1691868372,
				"y": 0.5178615798,
				"z": -2.9182418707,
				"element": "Cl" 
			},
			{
				"x": 0.860532966,
				"y": 1.1375207965,
				"z": -1.6156491749,
				"element": "C" 
			},
			{
				"x": -1.0112461712,
				"y": 2.7612711588,
				"z": -0.713022217,
				"element": "H" 
			},
			{
				"x": -1.7861928704,
				"y": 1.6353964816,
				"z": 0.2849551725,
				"element": "H" 
			},
			{
				"x": -1.2364726534,
				"y": -1.4215008252,
				"z": 1.1809618986,
				"element": "H" 
			},
			{
				"x": 2.5699324775,
				"y": -1.8125707205,
				"z": -1.3336295864,
				"element": "H" 
			},
			{
				"x": 0.9171207337,
				"y": 2.0855902345,
				"z": -2.1392526457,
				"element": "H" 
			}
		],
		 "valence_orbital": [ 
			{
				"type": "occ",
				"energy": -0.33587,
				"method": "rhf"
			},
			{
				"type": "occ",
				"energy": -0.31198,
				"method": "rhf"
			},
			{
				"type": "occ",
				"energy": -0.29452,
				"method": "rhf"
			},
			{
				"type": "occ",
				"energy": -0.23826,
				"method": "rhf"
			},
			{
				"type": "occ",
				"energy": -0.20882,
				"method": "rhf"
			},
			{
				"type": "unocc",
				"energy": -0.01101,
				"method": "rhf"
			},
			{
				"type": "unocc",
				"energy": 0.00141,
				"method": "rhf"
			},
			{
				"type": "unocc",
				"energy": 0.00329,
				"method": "rhf"
			},
			{
				"type": "unocc",
				"energy": 0.04891,
				"method": "rhf"
			},
			{
				"type": "unocc",
				"energy": 0.06846,
				"method": "rhf"
			}
		],
		"cosmo_sigma_profile": { 
			"-0.025": 0.0,
			"-0.024": 0.0,
			"-0.023": 0.0,
			"-0.022": 0.0,
			"-0.021": 0.0,
			"-0.02": 0.0,
			"-0.019": 0.0,
			"-0.018": 0.0,
			"-0.017": 0.0,
			"-0.016": 0.149391365314,
			"-0.015": 0.650017082304,
			"-0.014": 0.63983296819,
			"-0.013": 2.18300163436,
			"-0.012": 2.22499365828,
			"-0.011": 3.02054132388,
			"-0.01": 3.8568008725,
			"-0.009": 3.59043272241,
			"-0.008": 4.46710227632,
			"-0.007": 5.35066989773,
			"-0.006": 5.07818903083,
			"-0.005": 4.37222908005,
			"-0.004": 4.88629778892,
			"-0.003": 6.18505842828,
			"-0.002": 9.78436087776,
			"-0.001": 9.82149362544,
			"0.0": 12.2505117857,
			"0.001": 16.1071318335,
			"0.002": 22.0652308057,
			"0.003": 24.0792325623,
			"0.004": 21.2249718985,
			"0.005": 11.9468878424,
			"0.006": 3.92621733456,
			"0.007": 2.50116932386,
			"0.008": 1.50606596022,
			"0.009": 0.792839454726,
			"0.01": 0.97681485065,
			"0.011": 0.781497180577,
			"0.012": 0.488550204169,
			"0.013": 0.452392875217,
			"0.014": 0.0518350973862,
			"0.015": 0.0,
			"0.016": 0.0,
			"0.017": 0.0,
			"0.018": 0.0,
			"0.019": 0.0,
			"0.02": 0.0,
			"0.021": 0.0,
			"0.022": 0.0,
			"0.023": 0.0,
			"0.024": 0.0,
			"0.025": 0.0
		}
	}
}
