{
	 "smiles": "CC(N)C1=CC=C(C=C1)N1C=CC=N1", 
	 "Tm": 322.15, 
	 "num_atms": 27, 
	 "gaussian": { 
		 "optdone": 1, 
		 "sigma_profile": "yes", 
		 "theory": "DFT", 
		 "functional": "B3LYP", 
		 "basiset": "6-31G**", 
		 "properties": { 
			 "R2extent": 4141.7055, 
			 "electric_dipole_moment_norm": 2.09026539224, 
			 "electric_quadrupole_moment_norm": 10.9709270784, 
			 "total_energy": -591.237782388, 
			 "HOMO_LUMO_gap": 0.19542, 
			 "cosmo_polarized_energy": -11.64, 
			 "cosmo_cavitation_energy": 30.37, 
			 "cosmo_dispersion_energy": -22.0, 
			 "cosmo_repulsion_energy": 1.71, 
			 "cosmo_total_nonelectrostatic_energy": 10.08, 
			 "SMD_solvation_energy": 3.9 
		},
		"coords": [
			{
				"x": 1.094906777,
				"y": 4.1432022121,
				"z": -0.4090777515,
				"element": "C" 
			},
			{
				"x": 2.0682290853,
				"y": 3.0002725806,
				"z": -0.0805108777,
				"element": "C" 
			},
			{
				"x": 3.3490643657,
				"y": 3.2725909276,
				"z": -0.7421300694,
				"element": "N" 
			},
			{
				"x": 1.4354168056,
				"y": 1.6395427278,
				"z": -0.3798830148,
				"element": "C" 
			},
			{
				"x": 1.4864394007,
				"y": 1.0626784258,
				"z": -1.6540812602,
				"element": "C" 
			},
			{
				"x": 0.8814314474,
				"y": -0.1637407434,
				"z": -1.9225725204,
				"element": "C" 
			},
			{
				"x": 0.191728124,
				"y": -0.8357848776,
				"z": -0.9079385215,
				"element": "C" 
			},
			{
				"x": 0.1347732652,
				"y": -0.2823726549,
				"z": 0.3755379112,
				"element": "C" 
			},
			{
				"x": 0.7567153264,
				"y": 0.9375027545,
				"z": 0.6254068858,
				"element": "C" 
			},
			{
				"x": -0.4444950361,
				"y": -2.0784962084,
				"z": -1.1646855673,
				"element": "N" 
			},
			{
				"x": -0.850592701,
				"y": -2.5865821427,
				"z": -2.368186695,
				"element": "C" 
			},
			{
				"x": -1.4267904991,
				"y": -3.8121877982,
				"z": -2.1136322169,
				"element": "C" 
			},
			{
				"x": -1.3279350545,
				"y": -3.9629474395,
				"z": -0.7110511767,
				"element": "C" 
			},
			{
				"x": -0.7379125921,
				"y": -2.9188642934,
				"z": -0.1383548744,
				"element": "N" 
			},
			{
				"x": 1.5455156947,
				"y": 5.1056515806,
				"z": -0.1504192786,
				"element": "H" 
			},
			{
				"x": 0.8562747292,
				"y": 4.1487413931,
				"z": -1.4796058247,
				"element": "H" 
			},
			{
				"x": 0.1550137203,
				"y": 4.0294140971,
				"z": 0.1380868092,
				"element": "H" 
			},
			{
				"x": 2.2629530814,
				"y": 3.0305792105,
				"z": 1.0001071486,
				"element": "H" 
			},
			{
				"x": 3.2118907841,
				"y": 3.3979742449,
				"z": -1.7426202478,
				"element": "H" 
			},
			{
				"x": 3.9788800102,
				"y": 2.4814417241,
				"z": -0.6309613126,
				"element": "H" 
			},
			{
				"x": 2.028000418,
				"y": 1.5638079729,
				"z": -2.4518548472,
				"element": "H" 
			},
			{
				"x": 0.9702517988,
				"y": -0.6018067891,
				"z": -2.9111070351,
				"element": "H" 
			},
			{
				"x": -0.3862810093,
				"y": -0.8219842322,
				"z": 1.156748652,
				"element": "H" 
			},
			{
				"x": 0.7101571313,
				"y": 1.3558538803,
				"z": 1.6284203829,
				"element": "H" 
			},
			{
				"x": -0.7269129935,
				"y": -2.0375135709,
				"z": -3.2884218319,
				"element": "H" 
			},
			{
				"x": -1.8614153187,
				"y": -4.4910755794,
				"z": -2.8318173653,
				"element": "H" 
			},
			{
				"x": -1.659506761,
				"y": -4.7896974024,
				"z": -0.096895501,
				"element": "H" 
			}
		],
		 "valence_orbital": [ 
			{
				"type": "occ",
				"energy": -0.28557,
				"method": "rhf"
			},
			{
				"type": "occ",
				"energy": -0.2582,
				"method": "rhf"
			},
			{
				"type": "occ",
				"energy": -0.24833,
				"method": "rhf"
			},
			{
				"type": "occ",
				"energy": -0.24163,
				"method": "rhf"
			},
			{
				"type": "occ",
				"energy": -0.21815,
				"method": "rhf"
			},
			{
				"type": "unocc",
				"energy": -0.02273,
				"method": "rhf"
			},
			{
				"type": "unocc",
				"energy": -0.00883,
				"method": "rhf"
			},
			{
				"type": "unocc",
				"energy": 0.03871,
				"method": "rhf"
			},
			{
				"type": "unocc",
				"energy": 0.07028,
				"method": "rhf"
			},
			{
				"type": "unocc",
				"energy": 0.07738,
				"method": "rhf"
			}
		],
		"cosmo_sigma_profile": { 
			"-0.025": 0.0,
			"-0.024": 0.0,
			"-0.023": 0.0,
			"-0.022": 0.0,
			"-0.021": 0.0,
			"-0.02": 0.0,
			"-0.019": 0.0,
			"-0.018": 0.0,
			"-0.017": 0.0,
			"-0.016": 0.0,
			"-0.015": 0.0,
			"-0.014": 0.0,
			"-0.013": 0.0,
			"-0.012": 0.0,
			"-0.011": 0.0,
			"-0.01": 1.16969714644,
			"-0.009": 5.7854325525,
			"-0.008": 4.74690600221,
			"-0.007": 10.2642585085,
			"-0.006": 10.9673097333,
			"-0.005": 13.3601148858,
			"-0.004": 17.0230243727,
			"-0.003": 18.7579910515,
			"-0.002": 17.7681746792,
			"-0.001": 18.0338650658,
			"0.0": 17.1944959922,
			"0.001": 18.1509544157,
			"0.002": 15.9574318392,
			"0.003": 14.6048062803,
			"0.004": 16.7747831771,
			"0.005": 17.1385719391,
			"0.006": 4.66566702568,
			"0.007": 2.38269859979,
			"0.008": 2.63815784792,
			"0.009": 1.86967228883,
			"0.01": 2.05427712633,
			"0.011": 2.58407749174,
			"0.012": 1.4094018156,
			"0.013": 1.43736581275,
			"0.014": 1.25671223967,
			"0.015": 0.565671344888,
			"0.016": 0.754516220428,
			"0.017": 0.528248519919,
			"0.018": 0.607954869324,
			"0.019": 0.428145010038,
			"0.02": 0.130134530731,
			"0.021": 0.0,
			"0.022": 0.0,
			"0.023": 0.0,
			"0.024": 0.0,
			"0.025": 0.0
		}
	}
}
