{
	 "smiles": "NC(=O)C1=NC=CC(=C1)N=[N+]=[N-]", 
	 "Tm": 443.15, 
	 "num_atms": 17, 
	 "gaussian": { 
		 "optdone": 1, 
		 "sigma_profile": "yes", 
		 "theory": "DFT", 
		 "functional": "B3LYP", 
		 "basiset": "6-31G**", 
		 "properties": { 
			 "R2extent": 3134.8594, 
			 "electric_dipole_moment_norm": 3.20576304489, 
			 "electric_quadrupole_moment_norm": 13.6469809376, 
			 "total_energy": -580.583977754, 
			 "HOMO_LUMO_gap": 0.18977, 
			 "cosmo_polarized_energy": -12.06, 
			 "cosmo_cavitation_energy": 23.68, 
			 "cosmo_dispersion_energy": -17.14, 
			 "cosmo_repulsion_energy": 1.39, 
			 "cosmo_total_nonelectrostatic_energy": 7.93, 
			 "SMD_solvation_energy": 2.2 
		},
		"coords": [
			{
				"x": 2.0101619089,
				"y": 1.7862092448,
				"z": -4.3263879826,
				"element": "N" 
			},
			{
				"x": 2.1267593874,
				"y": 1.6682800188,
				"z": -2.9816382184,
				"element": "C" 
			},
			{
				"x": 2.8808075229,
				"y": 2.3378407707,
				"z": -2.283527441,
				"element": "O" 
			},
			{
				"x": 1.2249900229,
				"y": 0.6108296978,
				"z": -2.3794418012,
				"element": "C" 
			},
			{
				"x": 0.4286200699,
				"y": -0.0812745986,
				"z": -3.2090988423,
				"element": "N" 
			},
			{
				"x": -0.3619244588,
				"y": -1.01220917,
				"z": -2.6607797064,
				"element": "C" 
			},
			{
				"x": -0.3971680018,
				"y": -1.2916324622,
				"z": -1.29780529,
				"element": "C" 
			},
			{
				"x": 0.4399421041,
				"y": -0.5604129391,
				"z": -0.4454700605,
				"element": "C" 
			},
			{
				"x": 1.2728740908,
				"y": 0.4164195687,
				"z": -1.0009614804,
				"element": "C" 
			},
			{
				"x": 0.3737119871,
				"y": -0.8744110424,
				"z": 0.9283055441,
				"element": "N" 
			},
			{
				"x": 1.105528124,
				"y": -0.2409410452,
				"z": 1.70805259,
				"element": "N" 
			},
			{
				"x": 1.7114877369,
				"y": 0.2508355964,
				"z": 2.5362712061,
				"element": "N" 
			},
			{
				"x": 1.3620967529,
				"y": 1.188889359,
				"z": -4.8184727733,
				"element": "H" 
			},
			{
				"x": 2.5757972837,
				"y": 2.4656683212,
				"z": -4.8087203477,
				"element": "H" 
			},
			{
				"x": -1.00187786,
				"y": -1.5655948579,
				"z": -3.3445901626,
				"element": "H" 
			},
			{
				"x": -1.0527186281,
				"y": -2.0547376367,
				"z": -0.8940863296,
				"element": "H" 
			},
			{
				"x": 1.9506119575,
				"y": 1.0263411747,
				"z": -0.4136489044,
				"element": "H" 
			}
		],
		 "valence_orbital": [ 
			{
				"type": "occ",
				"energy": -0.28957,
				"method": "rhf"
			},
			{
				"type": "occ",
				"energy": -0.27924,
				"method": "rhf"
			},
			{
				"type": "occ",
				"energy": -0.2681,
				"method": "rhf"
			},
			{
				"type": "occ",
				"energy": -0.25771,
				"method": "rhf"
			},
			{
				"type": "occ",
				"energy": -0.25176,
				"method": "rhf"
			},
			{
				"type": "unocc",
				"energy": -0.06199,
				"method": "rhf"
			},
			{
				"type": "unocc",
				"energy": -0.05355,
				"method": "rhf"
			},
			{
				"type": "unocc",
				"energy": -0.04709,
				"method": "rhf"
			},
			{
				"type": "unocc",
				"energy": 0.01189,
				"method": "rhf"
			},
			{
				"type": "unocc",
				"energy": 0.06725,
				"method": "rhf"
			}
		],
		"cosmo_sigma_profile": { 
			"-0.025": 0.0,
			"-0.024": 0.0,
			"-0.023": 0.0,
			"-0.022": 0.0,
			"-0.021": 0.0,
			"-0.02": 0.0,
			"-0.019": 0.0,
			"-0.018": 0.0,
			"-0.017": 0.0,
			"-0.016": 0.0,
			"-0.015": 0.0737192453944,
			"-0.014": 1.17989427748,
			"-0.013": 1.02987518404,
			"-0.012": 1.69312431534,
			"-0.011": 1.98776181078,
			"-0.01": 1.60158539934,
			"-0.009": 2.64551023485,
			"-0.008": 6.78147309573,
			"-0.007": 9.48307542555,
			"-0.006": 9.32884893567,
			"-0.005": 9.51138790589,
			"-0.004": 9.43987581204,
			"-0.003": 7.98518436375,
			"-0.002": 8.20962644643,
			"-0.001": 14.0443446473,
			"0.0": 21.48412584,
			"0.001": 17.4808771435,
			"0.002": 11.7118838292,
			"0.003": 10.132909242,
			"0.004": 8.32425588156,
			"0.005": 8.45236712385,
			"0.006": 6.24308367479,
			"0.007": 3.90945166255,
			"0.008": 3.88162531293,
			"0.009": 1.66157677675,
			"0.01": 1.05161205287,
			"0.011": 2.26815322847,
			"0.012": 1.50012466597,
			"0.013": 4.94734646559,
			"0.014": 3.08734211272,
			"0.015": 0.411036126689,
			"0.016": 0.0,
			"0.017": 0.0,
			"0.018": 0.0,
			"0.019": 0.0,
			"0.02": 0.0,
			"0.021": 0.0,
			"0.022": 0.0,
			"0.023": 0.0,
			"0.024": 0.0,
			"0.025": 0.0
		}
	}
}
