{
	 "smiles": "FC1=C(F)C(CN2C=C(Br)C=N2)=CC=C1", 
	 "Tm": 327.15, 
	 "num_atms": 22, 
	 "gaussian": { 
		 "optdone": 1, 
		 "sigma_profile": "yes", 
		 "theory": "DFT", 
		 "functional": "B3LYP", 
		 "basiset": "6-31G**", 
		 "properties": { 
			 "R2extent": 5474.7764, 
			 "electric_dipole_moment_norm": 4.21543652425, 
			 "electric_quadrupole_moment_norm": 8.1055027395, 
			 "total_energy": -3265.82084049, 
			 "HOMO_LUMO_gap": 0.19956, 
			 "cosmo_polarized_energy": -9.58, 
			 "cosmo_cavitation_energy": 30.55, 
			 "cosmo_dispersion_energy": -21.71, 
			 "cosmo_repulsion_energy": 1.67, 
			 "cosmo_total_nonelectrostatic_energy": 10.51, 
			 "SMD_solvation_energy": 4.34 
		},
		"coords": [
			{
				"x": 2.1249013698,
				"y": 2.0383056139,
				"z": -3.4862182098,
				"element": "F" 
			},
			{
				"x": 1.13370555,
				"y": 2.172222435,
				"z": -2.5910615864,
				"element": "C" 
			},
			{
				"x": 1.287556145,
				"y": 1.6041039795,
				"z": -1.3281498535,
				"element": "C" 
			},
			{
				"x": 2.4228314547,
				"y": 0.9454493954,
				"z": -1.0444547931,
				"element": "F" 
			},
			{
				"x": 0.2883809519,
				"y": 1.7204844799,
				"z": -0.3607894459,
				"element": "C" 
			},
			{
				"x": 0.482670781,
				"y": 1.0976150799,
				"z": 1.0014313683,
				"element": "C" 
			},
			{
				"x": 0.3269207537,
				"y": -0.3575953632,
				"z": 0.9933131959,
				"element": "N" 
			},
			{
				"x": -0.6141536042,
				"y": -1.1002289878,
				"z": 0.3511899849,
				"element": "C" 
			},
			{
				"x": -0.4073420939,
				"y": -2.4036428328,
				"z": 0.7597857963,
				"element": "C" 
			},
			{
				"x": -1.3734111131,
				"y": -3.9244322957,
				"z": 0.207004224,
				"element": "Br" 
			},
			{
				"x": 0.6776909753,
				"y": -2.3520182104,
				"z": 1.6579971985,
				"element": "C" 
			},
			{
				"x": 1.1157459956,
				"y": -1.1022871475,
				"z": 1.799743802,
				"element": "N" 
			},
			{
				"x": -0.8744415503,
				"y": 2.4270213041,
				"z": -0.6947013891,
				"element": "C" 
			},
			{
				"x": -1.0312026123,
				"y": 2.9953915801,
				"z": -1.959565264,
				"element": "C" 
			},
			{
				"x": -0.0234169309,
				"y": 2.8681957618,
				"z": -2.9170488131,
				"element": "C" 
			},
			{
				"x": 1.4913831898,
				"y": 1.2738588421,
				"z": 1.3796346499,
				"element": "H" 
			},
			{
				"x": -0.2283228864,
				"y": 1.537075968,
				"z": 1.7099353172,
				"element": "H" 
			},
			{
				"x": -1.327864282,
				"y": -0.6726696608,
				"z": -0.3350932326,
				"element": "H" 
			},
			{
				"x": 1.149630991,
				"y": -3.1661806272,
				"z": 2.1892081054,
				"element": "H" 
			},
			{
				"x": -1.6574997267,
				"y": 2.5333589627,
				"z": 0.0505846518,
				"element": "H" 
			},
			{
				"x": -1.9374475157,
				"y": 3.5400634692,
				"z": -2.20284165,
				"element": "H" 
			},
			{
				"x": -0.1140158422,
				"y": 3.298708254,
				"z": -3.9084040567,
				"element": "H" 
			}
		],
		 "valence_orbital": [ 
			{
				"type": "occ",
				"energy": -0.27963,
				"method": "rhf"
			},
			{
				"type": "occ",
				"energy": -0.27653,
				"method": "rhf"
			},
			{
				"type": "occ",
				"energy": -0.26211,
				"method": "rhf"
			},
			{
				"type": "occ",
				"energy": -0.25702,
				"method": "rhf"
			},
			{
				"type": "occ",
				"energy": -0.23372,
				"method": "rhf"
			},
			{
				"type": "unocc",
				"energy": -0.03416,
				"method": "rhf"
			},
			{
				"type": "unocc",
				"energy": -0.01901,
				"method": "rhf"
			},
			{
				"type": "unocc",
				"energy": 0.00668,
				"method": "rhf"
			},
			{
				"type": "unocc",
				"energy": 0.01972,
				"method": "rhf"
			},
			{
				"type": "unocc",
				"energy": 0.05607,
				"method": "rhf"
			}
		],
		"cosmo_sigma_profile": { 
			"-0.025": 0.0,
			"-0.024": 0.0,
			"-0.023": 0.0,
			"-0.022": 0.0,
			"-0.021": 0.0,
			"-0.02": 0.0,
			"-0.019": 0.0,
			"-0.018": 0.0,
			"-0.017": 0.0,
			"-0.016": 0.0,
			"-0.015": 0.0,
			"-0.014": 0.0,
			"-0.013": 0.0,
			"-0.012": 0.0,
			"-0.011": 0.0,
			"-0.01": 0.036787342714,
			"-0.009": 1.08975011465,
			"-0.008": 5.89957501979,
			"-0.007": 14.060614315,
			"-0.006": 13.8960593144,
			"-0.005": 15.3575124103,
			"-0.004": 11.2960604573,
			"-0.003": 11.278989062,
			"-0.002": 14.7472616132,
			"-0.001": 16.4138260261,
			"0.0": 19.1039837054,
			"0.001": 18.9438570648,
			"0.002": 22.514506691,
			"0.003": 36.2518968807,
			"0.004": 29.352073734,
			"0.005": 7.81927651359,
			"0.006": 1.99950108658,
			"0.007": 1.52650187321,
			"0.008": 0.988351803438,
			"0.009": 1.29649029915,
			"0.01": 1.30584918877,
			"0.011": 1.14206865005,
			"0.012": 1.22063803889,
			"0.013": 0.749619292553,
			"0.014": 0.983201530779,
			"0.015": 0.246643465808,
			"0.016": 0.0,
			"0.017": 0.0,
			"0.018": 0.0,
			"0.019": 0.0,
			"0.02": 0.0,
			"0.021": 0.0,
			"0.022": 0.0,
			"0.023": 0.0,
			"0.024": 0.0,
			"0.025": 0.0
		}
	}
}
