{
	 "smiles": "CC1CC1C1=CC=C(O1)C=CC(O)=O", 
	 "Tm": 347.15, 
	 "num_atms": 26, 
	 "gaussian": { 
		 "optdone": 1, 
		 "sigma_profile": "yes", 
		 "theory": "DFT", 
		 "functional": "B3LYP", 
		 "basiset": "6-31G**", 
		 "properties": { 
			 "R2extent": 4530.267, 
			 "electric_dipole_moment_norm": 4.13250676104, 
			 "electric_quadrupole_moment_norm": 20.9511891579, 
			 "total_energy": -652.027389059, 
			 "HOMO_LUMO_gap": 0.14506, 
			 "cosmo_polarized_energy": -11.91, 
			 "cosmo_cavitation_energy": 30.19, 
			 "cosmo_dispersion_energy": -20.99, 
			 "cosmo_repulsion_energy": 1.66, 
			 "cosmo_total_nonelectrostatic_energy": 10.86, 
			 "SMD_solvation_energy": 6.55 
		},
		"coords": [
			{
				"x": 1.2828702354,
				"y": 0.9612700627,
				"z": 2.4447132116,
				"element": "C" 
			},
			{
				"x": 1.9654247437,
				"y": 0.8578613796,
				"z": 1.0972916565,
				"element": "C" 
			},
			{
				"x": 1.7632781356,
				"y": 1.890419203,
				"z": 0.0266733661,
				"element": "C" 
			},
			{
				"x": 1.2098418681,
				"y": 0.4915041302,
				"z": -0.1869017825,
				"element": "C" 
			},
			{
				"x": -0.2353136152,
				"y": 0.2427977095,
				"z": -0.2304723492,
				"element": "C" 
			},
			{
				"x": -0.9735856345,
				"y": -0.7909480731,
				"z": -0.759649169,
				"element": "C" 
			},
			{
				"x": -2.333188296,
				"y": -0.477955003,
				"z": -0.5116136865,
				"element": "C" 
			},
			{
				"x": -2.3577091403,
				"y": 0.7294227711,
				"z": 0.1593028372,
				"element": "C" 
			},
			{
				"x": -1.0660291771,
				"y": 1.1647789202,
				"z": 0.3223479294,
				"element": "O" 
			},
			{
				"x": -3.4995848736,
				"y": 1.4580511686,
				"z": 0.6220507678,
				"element": "C" 
			},
			{
				"x": -3.7169114978,
				"y": 2.616695206,
				"z": 1.2968394925,
				"element": "C" 
			},
			{
				"x": -2.826825829,
				"y": 3.6358435772,
				"z": 1.8681361762,
				"element": "C" 
			},
			{
				"x": -1.4912299391,
				"y": 3.4061616799,
				"z": 1.7727805772,
				"element": "O" 
			},
			{
				"x": -3.2535390411,
				"y": 4.6404500995,
				"z": 2.413341411,
				"element": "O" 
			},
			{
				"x": 0.3050867286,
				"y": 1.4417030976,
				"z": 2.3678312811,
				"element": "H" 
			},
			{
				"x": 1.8979003916,
				"y": 1.5535084367,
				"z": 3.1320759214,
				"element": "H" 
			},
			{
				"x": 1.1436900805,
				"y": -0.028445143,
				"z": 2.8940611535,
				"element": "H" 
			},
			{
				"x": 2.9607360111,
				"y": 0.4177996759,
				"z": 1.1362030621,
				"element": "H" 
			},
			{
				"x": 2.6047950207,
				"y": 2.1990674599,
				"z": -0.5863759691,
				"element": "H" 
			},
			{
				"x": 1.0279081203,
				"y": 2.6662888207,
				"z": 0.2178934535,
				"element": "H" 
			},
			{
				"x": 1.7544315458,
				"y": -0.150911005,
				"z": -0.8732114022,
				"element": "H" 
			},
			{
				"x": -0.5783755116,
				"y": -1.6616148438,
				"z": -1.2625179723,
				"element": "H" 
			},
			{
				"x": -3.2014264867,
				"y": -1.0605176202,
				"z": -0.7870916506,
				"element": "H" 
			},
			{
				"x": -4.4109950883,
				"y": 0.9285116211,
				"z": 0.3466933787,
				"element": "H" 
			},
			{
				"x": -4.7533159801,
				"y": 2.8845676454,
				"z": 1.471991744,
				"element": "H" 
			},
			{
				"x": -1.0808327711,
				"y": 4.1720890233,
				"z": 2.2076065618,
				"element": "H" 
			}
		],
		 "valence_orbital": [ 
			{
				"type": "occ",
				"energy": -0.29709,
				"method": "rhf"
			},
			{
				"type": "occ",
				"energy": -0.2946,
				"method": "rhf"
			},
			{
				"type": "occ",
				"energy": -0.27674,
				"method": "rhf"
			},
			{
				"type": "occ",
				"energy": -0.26241,
				"method": "rhf"
			},
			{
				"type": "occ",
				"energy": -0.20658,
				"method": "rhf"
			},
			{
				"type": "unocc",
				"energy": -0.06152,
				"method": "rhf"
			},
			{
				"type": "unocc",
				"energy": 0.02592,
				"method": "rhf"
			},
			{
				"type": "unocc",
				"energy": 0.06443,
				"method": "rhf"
			},
			{
				"type": "unocc",
				"energy": 0.07326,
				"method": "rhf"
			},
			{
				"type": "unocc",
				"energy": 0.0842,
				"method": "rhf"
			}
		],
		"cosmo_sigma_profile": { 
			"-0.025": 0.0,
			"-0.024": 0.0,
			"-0.023": 0.0,
			"-0.022": 0.0,
			"-0.021": 0.0,
			"-0.02": 0.0,
			"-0.019": 0.0,
			"-0.018": 0.0452057246458,
			"-0.017": 0.661652535744,
			"-0.016": 0.816171836768,
			"-0.015": 0.758826065386,
			"-0.014": 0.77881163111,
			"-0.013": 0.907318969876,
			"-0.012": 0.260677667726,
			"-0.011": 0.389463252374,
			"-0.01": 0.955750591797,
			"-0.009": 0.922184867996,
			"-0.008": 3.63112600266,
			"-0.007": 7.74053214725,
			"-0.006": 9.70552251963,
			"-0.005": 14.2692267206,
			"-0.004": 13.6692650936,
			"-0.003": 15.3913740534,
			"-0.002": 15.4163776395,
			"-0.001": 18.6196012196,
			"0.0": 19.5806235859,
			"0.001": 25.5606304542,
			"0.002": 27.8543442058,
			"0.003": 21.0175205116,
			"0.004": 13.0378727605,
			"0.005": 5.03481781225,
			"0.006": 3.81079260004,
			"0.007": 2.18256632237,
			"0.008": 1.89320593,
			"0.009": 1.27311821488,
			"0.01": 2.22512135554,
			"0.011": 1.8625629484,
			"0.012": 4.21811020314,
			"0.013": 4.51402867726,
			"0.014": 0.774269954396,
			"0.015": 0.0,
			"0.016": 0.0,
			"0.017": 0.0,
			"0.018": 0.0,
			"0.019": 0.0,
			"0.02": 0.0,
			"0.021": 0.0,
			"0.022": 0.0,
			"0.023": 0.0,
			"0.024": 0.0,
			"0.025": 0.0
		}
	}
}
