{
	 "smiles": "NC1=CC=C(C=C1)C1=CN2C=CC=CC2=N1", 
	 "Tm": 392.15, 
	 "num_atms": 27, 
	 "gaussian": { 
		 "optdone": 1, 
		 "sigma_profile": "yes", 
		 "theory": "DFT", 
		 "functional": "B3LYP", 
		 "basiset": "6-31G**", 
		 "properties": { 
			 "R2extent": 5069.7735, 
			 "electric_dipole_moment_norm": 2.40795746848, 
			 "electric_quadrupole_moment_norm": 22.0632140834, 
			 "total_energy": -666.273401226, 
			 "HOMO_LUMO_gap": 0.15108, 
			 "cosmo_polarized_energy": -16.25, 
			 "cosmo_cavitation_energy": 31.2, 
			 "cosmo_dispersion_energy": -23.35, 
			 "cosmo_repulsion_energy": 1.77, 
			 "cosmo_total_nonelectrostatic_energy": 9.61, 
			 "SMD_solvation_energy": 4.11 
		},
		"coords": [
			{
				"x": 0.6748120152,
				"y": 3.5930323018,
				"z": -3.2044341825,
				"element": "N" 
			},
			{
				"x": 0.4279293539,
				"y": 2.5934517939,
				"z": -2.261974119,
				"element": "C" 
			},
			{
				"x": 1.4724088957,
				"y": 1.7860392661,
				"z": -1.7776789767,
				"element": "C" 
			},
			{
				"x": 1.2134337582,
				"y": 0.7556194672,
				"z": -0.8822181111,
				"element": "C" 
			},
			{
				"x": -0.0898091674,
				"y": 0.4863309576,
				"z": -0.4329304978,
				"element": "C" 
			},
			{
				"x": -1.1287659353,
				"y": 1.2967206104,
				"z": -0.920614451,
				"element": "C" 
			},
			{
				"x": -0.8789565631,
				"y": 2.3286507678,
				"z": -1.8157130534,
				"element": "C" 
			},
			{
				"x": -0.3841843825,
				"y": -0.5951639885,
				"z": 0.5133009703,
				"element": "C" 
			},
			{
				"x": 0.5044542376,
				"y": -1.5050458172,
				"z": 1.0767457208,
				"element": "C" 
			},
			{
				"x": -0.2508837374,
				"y": -2.3156281473,
				"z": 1.8936243862,
				"element": "N" 
			},
			{
				"x": 0.0932543991,
				"y": -3.3780831198,
				"z": 2.6918589667,
				"element": "C" 
			},
			{
				"x": -0.8775811314,
				"y": -4.0183947336,
				"z": 3.4125650953,
				"element": "C" 
			},
			{
				"x": -2.231706459,
				"y": -3.5876241266,
				"z": 3.3359598457,
				"element": "C" 
			},
			{
				"x": -2.5775758963,
				"y": -2.5234758777,
				"z": 2.5363671522,
				"element": "C" 
			},
			{
				"x": -1.5809764201,
				"y": -1.8560144577,
				"z": 1.7878802782,
				"element": "C" 
			},
			{
				"x": -1.6610709937,
				"y": -0.8223170718,
				"z": 0.9588359743,
				"element": "N" 
			},
			{
				"x": 1.6165194348,
				"y": 3.9603872554,
				"z": -3.2055356407,
				"element": "H" 
			},
			{
				"x": -0.0165563113,
				"y": 4.3296690586,
				"z": -3.2389767203,
				"element": "H" 
			},
			{
				"x": 2.4907384705,
				"y": 1.9702664321,
				"z": -2.11182614,
				"element": "H" 
			},
			{
				"x": 2.0460544648,
				"y": 0.1551849356,
				"z": -0.5258290342,
				"element": "H" 
			},
			{
				"x": -2.1391510775,
				"y": 1.1001244407,
				"z": -0.5786835182,
				"element": "H" 
			},
			{
				"x": -1.7017629839,
				"y": 2.9390689007,
				"z": -2.1808611783,
				"element": "H" 
			},
			{
				"x": 1.5681397419,
				"y": -1.6472743869,
				"z": 0.9720173686,
				"element": "H" 
			},
			{
				"x": 1.1406855903,
				"y": -3.6548504347,
				"z": 2.7047765858,
				"element": "H" 
			},
			{
				"x": -0.5979845266,
				"y": -4.8565595887,
				"z": 4.0405164783,
				"element": "H" 
			},
			{
				"x": -2.9907568461,
				"y": -4.1051498962,
				"z": 3.9133221928,
				"element": "H" 
			},
			{
				"x": -3.5978079304,
				"y": -2.1673645412,
				"z": 2.4525046078,
				"element": "H" 
			}
		],
		 "valence_orbital": [ 
			{
				"type": "occ",
				"energy": -0.26162,
				"method": "rhf"
			},
			{
				"type": "occ",
				"energy": -0.24445,
				"method": "rhf"
			},
			{
				"type": "occ",
				"energy": -0.24033,
				"method": "rhf"
			},
			{
				"type": "occ",
				"energy": -0.20669,
				"method": "rhf"
			},
			{
				"type": "occ",
				"energy": -0.18234,
				"method": "rhf"
			},
			{
				"type": "unocc",
				"energy": -0.03126,
				"method": "rhf"
			},
			{
				"type": "unocc",
				"energy": -0.00151,
				"method": "rhf"
			},
			{
				"type": "unocc",
				"energy": 0.01245,
				"method": "rhf"
			},
			{
				"type": "unocc",
				"energy": 0.02394,
				"method": "rhf"
			},
			{
				"type": "unocc",
				"energy": 0.08159,
				"method": "rhf"
			}
		],
		"cosmo_sigma_profile": { 
			"-0.025": 0.0,
			"-0.024": 0.0,
			"-0.023": 0.0,
			"-0.022": 0.0,
			"-0.021": 0.0,
			"-0.02": 0.0,
			"-0.019": 0.0,
			"-0.018": 0.0,
			"-0.017": 0.0,
			"-0.016": 0.0,
			"-0.015": 0.0,
			"-0.014": 0.0,
			"-0.013": 0.323477440014,
			"-0.012": 2.43437025998,
			"-0.011": 2.62170052074,
			"-0.01": 3.93485511825,
			"-0.009": 6.57767117754,
			"-0.008": 7.29340108899,
			"-0.007": 10.321260459,
			"-0.006": 14.9249814697,
			"-0.005": 15.3056669493,
			"-0.004": 14.1960556971,
			"-0.003": 12.1051367644,
			"-0.002": 10.9972256608,
			"-0.001": 12.2732307017,
			"0.0": 13.3282991307,
			"0.001": 15.7176700436,
			"0.002": 16.3356733237,
			"0.003": 17.5653029772,
			"0.004": 19.5437854169,
			"0.005": 15.3255283976,
			"0.006": 15.6554539776,
			"0.007": 7.3653437007,
			"0.008": 2.2943211522,
			"0.009": 3.16292510322,
			"0.01": 1.60775846284,
			"0.011": 2.07202109172,
			"0.012": 1.84280241298,
			"0.013": 2.09459913499,
			"0.014": 1.7939078391,
			"0.015": 1.02029234291,
			"0.016": 0.292617411421,
			"0.017": 0.0,
			"0.018": 0.0,
			"0.019": 0.0,
			"0.02": 0.0,
			"0.021": 0.0,
			"0.022": 0.0,
			"0.023": 0.0,
			"0.024": 0.0,
			"0.025": 0.0
		}
	}
}
