{
	 "smiles": "ClC1=CC(NC2CCCC2)=C(C=C1)C#N", 
	 "Tm": 348.15, 
	 "num_atms": 28, 
	 "gaussian": { 
		 "optdone": 1, 
		 "sigma_profile": "yes", 
		 "theory": "DFT", 
		 "functional": "B3LYP", 
		 "basiset": "6-31G**", 
		 "properties": { 
			 "R2extent": 5032.1238, 
			 "electric_dipole_moment_norm": 3.13003789913, 
			 "electric_quadrupole_moment_norm": 21.3747642284, 
			 "total_energy": -1034.8052439, 
			 "HOMO_LUMO_gap": 0.16775, 
			 "cosmo_polarized_energy": -9.27, 
			 "cosmo_cavitation_energy": 32.99, 
			 "cosmo_dispersion_energy": -23.39, 
			 "cosmo_repulsion_energy": 1.86, 
			 "cosmo_total_nonelectrostatic_energy": 11.45, 
			 "SMD_solvation_energy": 5.15 
		},
		"coords": [
			{
				"x": -2.2451457269,
				"y": 2.0551784032,
				"z": 2.7422548166,
				"element": "Cl" 
			},
			{
				"x": -0.6970900815,
				"y": 1.3151041408,
				"z": 2.3661127168,
				"element": "C" 
			},
			{
				"x": -0.1980163628,
				"y": 1.4482781529,
				"z": 1.0770574627,
				"element": "C" 
			},
			{
				"x": 1.0442238521,
				"y": 0.8684631095,
				"z": 0.7394159762,
				"element": "C" 
			},
			{
				"x": 1.5860612084,
				"y": 0.9848364557,
				"z": -0.5069917314,
				"element": "N" 
			},
			{
				"x": 0.9984731126,
				"y": 1.7156637196,
				"z": -1.6207738819,
				"element": "C" 
			},
			{
				"x": -0.2009140941,
				"y": 0.9927099459,
				"z": -2.3263352269,
				"element": "C" 
			},
			{
				"x": 0.2771577382,
				"y": 0.6929651831,
				"z": -3.7617131948,
				"element": "C" 
			},
			{
				"x": 1.2753909193,
				"y": 1.8251994961,
				"z": -4.0529044871,
				"element": "C" 
			},
			{
				"x": 2.0542530315,
				"y": 1.9431926142,
				"z": -2.7338656961,
				"element": "C" 
			},
			{
				"x": 1.7372573312,
				"y": 0.1462608841,
				"z": 1.759560785,
				"element": "C" 
			},
			{
				"x": 1.1946175165,
				"y": 0.0321171178,
				"z": 3.047430295,
				"element": "C" 
			},
			{
				"x": -0.0240982037,
				"y": 0.6137841052,
				"z": 3.3710515281,
				"element": "C" 
			},
			{
				"x": 2.991547296,
				"y": -0.4541123663,
				"z": 1.441797169,
				"element": "C" 
			},
			{
				"x": 4.0094183369,
				"y": -0.9219746478,
				"z": 1.1191074615,
				"element": "N" 
			},
			{
				"x": -0.771389959,
				"y": 1.9893881128,
				"z": 0.3364655582,
				"element": "H" 
			},
			{
				"x": 2.4662466455,
				"y": 0.5154876161,
				"z": -0.668121492,
				"element": "H" 
			},
			{
				"x": 0.6616072108,
				"y": 2.6879354992,
				"z": -1.240030663,
				"element": "H" 
			},
			{
				"x": -1.0671987278,
				"y": 1.6637805489,
				"z": -2.3545393801,
				"element": "H" 
			},
			{
				"x": -0.5031012996,
				"y": 0.0961729772,
				"z": -1.7786401793,
				"element": "H" 
			},
			{
				"x": 0.7981129426,
				"y": -0.2720745145,
				"z": -3.7937810772,
				"element": "H" 
			},
			{
				"x": -0.5451381305,
				"y": 0.6417085245,
				"z": -4.4815412762,
				"element": "H" 
			},
			{
				"x": 0.7363598866,
				"y": 2.7585597321,
				"z": -4.2603720122,
				"element": "H" 
			},
			{
				"x": 1.9251132091,
				"y": 1.6257959541,
				"z": -4.9103511596,
				"element": "H" 
			},
			{
				"x": 2.5874750844,
				"y": 2.8903496367,
				"z": -2.615233977,
				"element": "H" 
			},
			{
				"x": 2.8042838685,
				"y": 1.1416588967,
				"z": -2.6901127942,
				"element": "H" 
			},
			{
				"x": 1.7479033098,
				"y": -0.5226920112,
				"z": 3.798056358,
				"element": "H" 
			},
			{
				"x": -0.4453099141,
				"y": 0.5274627134,
				"z": 4.3645981019,
				"element": "H" 
			}
		],
		 "valence_orbital": [ 
			{
				"type": "occ",
				"energy": -0.32938,
				"method": "rhf"
			},
			{
				"type": "occ",
				"energy": -0.31981,
				"method": "rhf"
			},
			{
				"type": "occ",
				"energy": -0.30542,
				"method": "rhf"
			},
			{
				"type": "occ",
				"energy": -0.25754,
				"method": "rhf"
			},
			{
				"type": "occ",
				"energy": -0.21539,
				"method": "rhf"
			},
			{
				"type": "unocc",
				"energy": -0.04764,
				"method": "rhf"
			},
			{
				"type": "unocc",
				"energy": -0.00727,
				"method": "rhf"
			},
			{
				"type": "unocc",
				"energy": 0.0209,
				"method": "rhf"
			},
			{
				"type": "unocc",
				"energy": 0.0312,
				"method": "rhf"
			},
			{
				"type": "unocc",
				"energy": 0.06851,
				"method": "rhf"
			}
		],
		"cosmo_sigma_profile": { 
			"-0.025": 0.0,
			"-0.024": 0.0,
			"-0.023": 0.0,
			"-0.022": 0.0,
			"-0.021": 0.0,
			"-0.02": 0.0,
			"-0.019": 0.0,
			"-0.018": 0.0,
			"-0.017": 0.0,
			"-0.016": 0.0,
			"-0.015": 0.0,
			"-0.014": 0.0,
			"-0.013": 0.0,
			"-0.012": 0.0,
			"-0.011": 0.4876050927,
			"-0.01": 1.18133057215,
			"-0.009": 1.19034165024,
			"-0.008": 3.52483796784,
			"-0.007": 6.88262552878,
			"-0.006": 8.03260043365,
			"-0.005": 9.07854839878,
			"-0.004": 11.5300791374,
			"-0.003": 24.3886464923,
			"-0.002": 28.1996242738,
			"-0.001": 31.4669419232,
			"0.0": 29.7321660188,
			"0.001": 31.400649922,
			"0.002": 21.9987601468,
			"0.003": 16.005906189,
			"0.004": 13.3594349038,
			"0.005": 4.84335513367,
			"0.006": 1.88636523444,
			"0.007": 2.47673948482,
			"0.008": 2.41537460721,
			"0.009": 3.51655988964,
			"0.01": 2.83473591067,
			"0.011": 2.88697431555,
			"0.012": 2.64452303138,
			"0.013": 1.88486040956,
			"0.014": 0.2287389009,
			"0.015": 0.0,
			"0.016": 0.0,
			"0.017": 0.0,
			"0.018": 0.0,
			"0.019": 0.0,
			"0.02": 0.0,
			"0.021": 0.0,
			"0.022": 0.0,
			"0.023": 0.0,
			"0.024": 0.0,
			"0.025": 0.0
		}
	}
}
