{
	 "smiles": "CC1=C(C)C=C(C=C1)S(=O)(=O)NC(CC(N)=O)C(O)=O", 
	 "Tm": 453.15, 
	 "num_atms": 36, 
	 "gaussian": { 
		 "optdone": 1, 
		 "sigma_profile": "yes", 
		 "theory": "DFT", 
		 "functional": "B3LYP", 
		 "basiset": "6-31G**", 
		 "properties": { 
			 "R2extent": 6788.4359, 
			 "electric_dipole_moment_norm": 6.96345462971, 
			 "electric_quadrupole_moment_norm": 15.3969802133, 
			 "total_energy": -1350.71291281, 
			 "HOMO_LUMO_gap": 0.2154, 
			 "cosmo_polarized_energy": -24.19, 
			 "cosmo_cavitation_energy": 40.9, 
			 "cosmo_dispersion_energy": -27.84, 
			 "cosmo_repulsion_energy": 2.12, 
			 "cosmo_total_nonelectrostatic_energy": 15.18, 
			 "SMD_solvation_energy": 7.49 
		},
		"coords": [
			{
				"x": -0.0177404178,
				"y": 4.3296719681,
				"z": 0.9179331403,
				"element": "C" 
			},
			{
				"x": 0.4563110973,
				"y": 2.8976361573,
				"z": 0.9488002396,
				"element": "C" 
			},
			{
				"x": -0.077668339,
				"y": 1.9817539457,
				"z": 1.8829783936,
				"element": "C" 
			},
			{
				"x": -1.128657579,
				"y": 2.4106050251,
				"z": 2.8784399939,
				"element": "C" 
			},
			{
				"x": 0.3859317762,
				"y": 0.662097076,
				"z": 1.881931875,
				"element": "C" 
			},
			{
				"x": 1.3660294932,
				"y": 0.2584274776,
				"z": 0.9737420932,
				"element": "C" 
			},
			{
				"x": 1.9090981791,
				"y": 1.1537883922,
				"z": 0.0519661163,
				"element": "C" 
			},
			{
				"x": 1.4415717359,
				"y": 2.4653831651,
				"z": 0.0504849793,
				"element": "C" 
			},
			{
				"x": 1.9312835248,
				"y": -1.4425141182,
				"z": 0.990162879,
				"element": "S" 
			},
			{
				"x": 1.3175672358,
				"y": -2.1104946357,
				"z": 2.1410744829,
				"element": "O" 
			},
			{
				"x": 3.371910682,
				"y": -1.4524743927,
				"z": 0.7475620519,
				"element": "O" 
			},
			{
				"x": 1.2643926986,
				"y": -2.1991189688,
				"z": -0.3817833382,
				"element": "N" 
			},
			{
				"x": -0.1902685399,
				"y": -2.3979225235,
				"z": -0.4572599711,
				"element": "C" 
			},
			{
				"x": -0.9247707647,
				"y": -1.3683948548,
				"z": -1.3400634505,
				"element": "C" 
			},
			{
				"x": -0.3394899609,
				"y": -1.3744660403,
				"z": -2.7476246367,
				"element": "C" 
			},
			{
				"x": -1.1485204925,
				"y": -1.8517122083,
				"z": -3.7295575821,
				"element": "N" 
			},
			{
				"x": 0.8087840217,
				"y": -0.9778580973,
				"z": -2.9572377309,
				"element": "O" 
			},
			{
				"x": -0.4882009697,
				"y": -3.8325719454,
				"z": -0.9553227865,
				"element": "C" 
			},
			{
				"x": 0.4809587036,
				"y": -4.7196892622,
				"z": -0.7261789412,
				"element": "O" 
			},
			{
				"x": -1.536261057,
				"y": -4.1233100247,
				"z": -1.4901587043,
				"element": "O" 
			},
			{
				"x": 0.1671823213,
				"y": 4.8337237477,
				"z": 1.8740072599,
				"element": "H" 
			},
			{
				"x": 0.490468764,
				"y": 4.8983213298,
				"z": 0.1356493351,
				"element": "H" 
			},
			{
				"x": -1.0966851169,
				"y": 4.3925856582,
				"z": 0.7329559024,
				"element": "H" 
			},
			{
				"x": -0.7646950428,
				"y": 3.2188009673,
				"z": 3.5237788496,
				"element": "H" 
			},
			{
				"x": -2.0290454974,
				"y": 2.7872107901,
				"z": 2.3785245469,
				"element": "H" 
			},
			{
				"x": -1.4254162702,
				"y": 1.5786064378,
				"z": 3.5213963219,
				"element": "H" 
			},
			{
				"x": 0.002341963,
				"y": -0.0555299976,
				"z": 2.5998022266,
				"element": "H" 
			},
			{
				"x": 2.6819391891,
				"y": 0.8383443392,
				"z": -0.6404116609,
				"element": "H" 
			},
			{
				"x": 1.8546613827,
				"y": 3.1740295636,
				"z": -0.6619282375,
				"element": "H" 
			},
			{
				"x": 1.6312707423,
				"y": -1.7796085652,
				"z": -1.2435344385,
				"element": "H" 
			},
			{
				"x": -0.5851959335,
				"y": -2.3543901648,
				"z": 0.5647506426,
				"element": "H" 
			},
			{
				"x": -1.9894397416,
				"y": -1.6063964036,
				"z": -1.3376959785,
				"element": "H" 
			},
			{
				"x": -0.7832391714,
				"y": -0.3690289139,
				"z": -0.9216278556,
				"element": "H" 
			},
			{
				"x": -1.9264867704,
				"y": -2.4447900329,
				"z": -3.4765436174,
				"element": "H" 
			},
			{
				"x": -0.7227741193,
				"y": -2.0000586169,
				"z": -4.6345218382,
				"element": "H" 
			},
			{
				"x": 1.2449522734,
				"y": -4.2181562741,
				"z": -0.3725905618,
				"element": "H" 
			}
		],
		 "valence_orbital": [ 
			{
				"type": "occ",
				"energy": -0.29028,
				"method": "rhf"
			},
			{
				"type": "occ",
				"energy": -0.27595,
				"method": "rhf"
			},
			{
				"type": "occ",
				"energy": -0.27069,
				"method": "rhf"
			},
			{
				"type": "occ",
				"energy": -0.26955,
				"method": "rhf"
			},
			{
				"type": "occ",
				"energy": -0.25921,
				"method": "rhf"
			},
			{
				"type": "unocc",
				"energy": -0.04381,
				"method": "rhf"
			},
			{
				"type": "unocc",
				"energy": -0.0235,
				"method": "rhf"
			},
			{
				"type": "unocc",
				"energy": -0.00815,
				"method": "rhf"
			},
			{
				"type": "unocc",
				"energy": 0.00501,
				"method": "rhf"
			},
			{
				"type": "unocc",
				"energy": 0.05217,
				"method": "rhf"
			}
		],
		"cosmo_sigma_profile": { 
			"-0.025": 0.0,
			"-0.024": 0.0,
			"-0.023": 0.0,
			"-0.022": 0.0,
			"-0.021": 0.0,
			"-0.02": 0.0,
			"-0.019": 0.0,
			"-0.018": 0.0,
			"-0.017": 0.0,
			"-0.016": 0.0,
			"-0.015": 0.16280770935,
			"-0.014": 1.34633030066,
			"-0.013": 2.51534954311,
			"-0.012": 2.54085638588,
			"-0.011": 3.43799544062,
			"-0.01": 3.61957593337,
			"-0.009": 4.39499873657,
			"-0.008": 7.41206730427,
			"-0.007": 10.4652583792,
			"-0.006": 15.1721241892,
			"-0.005": 20.5991375478,
			"-0.004": 27.6218768947,
			"-0.003": 25.0665399219,
			"-0.002": 21.9586838263,
			"-0.001": 26.1265279656,
			"0.0": 24.9275226494,
			"0.001": 15.5311604035,
			"0.002": 13.5573994564,
			"0.003": 15.6490610678,
			"0.004": 8.36265997733,
			"0.005": 6.79983076508,
			"0.006": 6.54229223244,
			"0.007": 6.91421891987,
			"0.008": 7.76055881975,
			"0.009": 8.91852052898,
			"0.01": 13.8084935569,
			"0.011": 12.9230478642,
			"0.012": 5.08014361572,
			"0.013": 2.99190120895,
			"0.014": 1.00085069413,
			"0.015": 0.0,
			"0.016": 0.0,
			"0.017": 0.0,
			"0.018": 0.0,
			"0.019": 0.0,
			"0.02": 0.0,
			"0.021": 0.0,
			"0.022": 0.0,
			"0.023": 0.0,
			"0.024": 0.0,
			"0.025": 0.0
		}
	}
}
