{
	 "smiles": "COC1=NC=NC(NS(=O)(=O)C2=CC=C(N)C=C2)=C1OC", 
	 "Tm": 465.15, 
	 "num_atms": 35, 
	 "gaussian": { 
		 "optdone": 1, 
		 "sigma_profile": "yes", 
		 "theory": "DFT", 
		 "functional": "B3LYP", 
		 "basiset": "6-31G**", 
		 "properties": { 
			 "R2extent": 8737.5073, 
			 "electric_dipole_moment_norm": 5.42316094635, 
			 "electric_quadrupole_moment_norm": 38.7714812094, 
			 "total_energy": -1383.71983124, 
			 "HOMO_LUMO_gap": 0.19756, 
			 "cosmo_polarized_energy": -22.59, 
			 "cosmo_cavitation_energy": 41.04, 
			 "cosmo_dispersion_energy": -29.42, 
			 "cosmo_repulsion_energy": 2.24, 
			 "cosmo_total_nonelectrostatic_energy": 13.86, 
			 "SMD_solvation_energy": 6.59 
		},
		"coords": [
			{
				"x": -5.7529331509,
				"y": 0.5544968639,
				"z": -1.9753418308,
				"element": "C" 
			},
			{
				"x": -4.6878099104,
				"y": 1.4503729871,
				"z": -1.6260349641,
				"element": "O" 
			},
			{
				"x": -3.6947179226,
				"y": 0.9536756112,
				"z": -0.8640854653,
				"element": "C" 
			},
			{
				"x": -3.734182922,
				"y": -0.3201942315,
				"z": -0.4678747971,
				"element": "N" 
			},
			{
				"x": -2.707356732,
				"y": -0.7399834166,
				"z": 0.2763259923,
				"element": "C" 
			},
			{
				"x": -1.6441095969,
				"y": -0.0381135915,
				"z": 0.6546754946,
				"element": "N" 
			},
			{
				"x": -1.6206357884,
				"y": 1.2460575352,
				"z": 0.2621042402,
				"element": "C" 
			},
			{
				"x": -0.5219566635,
				"y": 2.0299072282,
				"z": 0.5736464991,
				"element": "N" 
			},
			{
				"x": 0.4842500812,
				"y": 1.8465740696,
				"z": 1.9512511636,
				"element": "S" 
			},
			{
				"x": 1.1830862712,
				"y": 3.1355034427,
				"z": 1.9746508554,
				"element": "O" 
			},
			{
				"x": -0.3186349921,
				"y": 1.3895282721,
				"z": 3.082508513,
				"element": "O" 
			},
			{
				"x": 1.6425658264,
				"y": 0.575906744,
				"z": 1.5147055321,
				"element": "C" 
			},
			{
				"x": 2.8481429703,
				"y": 0.93319295,
				"z": 0.9026921758,
				"element": "C" 
			},
			{
				"x": 3.7710023094,
				"y": -0.0507382439,
				"z": 0.5773341753,
				"element": "C" 
			},
			{
				"x": 3.5040521831,
				"y": -1.4055461134,
				"z": 0.8605999967,
				"element": "C" 
			},
			{
				"x": 4.4447113118,
				"y": -2.3811741082,
				"z": 0.5811462544,
				"element": "N" 
			},
			{
				"x": 2.2852036984,
				"y": -1.742691931,
				"z": 1.4836020924,
				"element": "C" 
			},
			{
				"x": 1.3603935326,
				"y": -0.7614163194,
				"z": 1.8101095759,
				"element": "C" 
			},
			{
				"x": -2.6478856839,
				"y": 1.8165563016,
				"z": -0.5059328623,
				"element": "C" 
			},
			{
				"x": -2.5274262947,
				"y": 3.1238719541,
				"z": -0.902901318,
				"element": "O" 
			},
			{
				"x": -3.5729041478,
				"y": 4.0139036039,
				"z": -0.4778342854,
				"element": "C" 
			},
			{
				"x": -6.2624686352,
				"y": 0.1837814599,
				"z": -1.0822507519,
				"element": "H" 
			},
			{
				"x": -5.3742607202,
				"y": -0.2990908041,
				"z": -2.542902333,
				"element": "H" 
			},
			{
				"x": -6.4343147771,
				"y": 1.1470870769,
				"z": -2.5864954333,
				"element": "H" 
			},
			{
				"x": -2.7434591654,
				"y": -1.777265734,
				"z": 0.602765276,
				"element": "H" 
			},
			{
				"x": -0.5753045075,
				"y": 2.99910487,
				"z": 0.2770401253,
				"element": "H" 
			},
			{
				"x": 3.0600652531,
				"y": 1.977181126,
				"z": 0.6998926167,
				"element": "H" 
			},
			{
				"x": 4.7130548809,
				"y": 0.2238021444,
				"z": 0.1102709505,
				"element": "H" 
			},
			{
				"x": 4.1120584078,
				"y": -3.3322527885,
				"z": 0.5236536117,
				"element": "H" 
			},
			{
				"x": 5.1452127196,
				"y": -2.1556252815,
				"z": -0.1094596495,
				"element": "H" 
			},
			{
				"x": 2.0730632079,
				"y": -2.7831474236,
				"z": 1.7150402678,
				"element": "H" 
			},
			{
				"x": 0.4184690622,
				"y": -1.0181712162,
				"z": 2.2789496657,
				"element": "H" 
			},
			{
				"x": -3.6775647929,
				"y": 3.9978989915,
				"z": 0.6134423388,
				"element": "H" 
			},
			{
				"x": -3.2662348739,
				"y": 5.0103117492,
				"z": -0.8001589798,
				"element": "H" 
			},
			{
				"x": -4.5248704385,
				"y": 3.7490962217,
				"z": -0.9439347429,
				"element": "H" 
			}
		],
		 "valence_orbital": [ 
			{
				"type": "occ",
				"energy": -0.2661,
				"method": "rhf"
			},
			{
				"type": "occ",
				"energy": -0.26266,
				"method": "rhf"
			},
			{
				"type": "occ",
				"energy": -0.25435,
				"method": "rhf"
			},
			{
				"type": "occ",
				"energy": -0.23182,
				"method": "rhf"
			},
			{
				"type": "occ",
				"energy": -0.21618,
				"method": "rhf"
			},
			{
				"type": "unocc",
				"energy": -0.01862,
				"method": "rhf"
			},
			{
				"type": "unocc",
				"energy": -0.01643,
				"method": "rhf"
			},
			{
				"type": "unocc",
				"energy": -0.01286,
				"method": "rhf"
			},
			{
				"type": "unocc",
				"energy": -0.00852,
				"method": "rhf"
			},
			{
				"type": "unocc",
				"energy": 0.05822,
				"method": "rhf"
			}
		],
		"cosmo_sigma_profile": { 
			"-0.025": 0.0,
			"-0.024": 0.0,
			"-0.023": 0.0,
			"-0.022": 0.0,
			"-0.021": 0.0,
			"-0.02": 0.0,
			"-0.019": 0.0,
			"-0.018": 0.0,
			"-0.017": 0.0,
			"-0.016": 0.0,
			"-0.015": 0.0,
			"-0.014": 0.403622199233,
			"-0.013": 2.80115679799,
			"-0.012": 3.12676159309,
			"-0.011": 4.12691867715,
			"-0.01": 4.03696299403,
			"-0.009": 4.35882990198,
			"-0.008": 4.37673073073,
			"-0.007": 8.76349007861,
			"-0.006": 16.1056118614,
			"-0.005": 23.6668939798,
			"-0.004": 24.7434294747,
			"-0.003": 26.4973243732,
			"-0.002": 22.1370259787,
			"-0.001": 20.4415391557,
			"0.0": 18.0316758142,
			"0.001": 16.2250526316,
			"0.002": 18.6646133712,
			"0.003": 18.4920250275,
			"0.004": 21.744848137,
			"0.005": 9.71481658962,
			"0.006": 9.95339650878,
			"0.007": 9.24531285112,
			"0.008": 7.1012968636,
			"0.009": 7.74322871176,
			"0.01": 11.2213395552,
			"0.011": 10.8752980478,
			"0.012": 2.62887566181,
			"0.013": 0.128956028469,
			"0.014": 0.0,
			"0.015": 0.0,
			"0.016": 0.0,
			"0.017": 0.0,
			"0.018": 0.0,
			"0.019": 0.0,
			"0.02": 0.0,
			"0.021": 0.0,
			"0.022": 0.0,
			"0.023": 0.0,
			"0.024": 0.0,
			"0.025": 0.0
		}
	}
}
