{
	 "smiles": "NNC(=O)CC1=CN=CC=C1", 
	 "Tm": 373.15, 
	 "num_atms": 20, 
	 "gaussian": { 
		 "optdone": 1, 
		 "sigma_profile": "yes", 
		 "theory": "DFT", 
		 "functional": "B3LYP", 
		 "basiset": "6-31G**", 
		 "properties": { 
			 "R2extent": 2323.3588, 
			 "electric_dipole_moment_norm": 4.12599216916, 
			 "electric_quadrupole_moment_norm": 10.8839225663, 
			 "total_energy": -511.622846778, 
			 "HOMO_LUMO_gap": 0.2248, 
			 "cosmo_polarized_energy": -17.04, 
			 "cosmo_cavitation_energy": 24.59, 
			 "cosmo_dispersion_energy": -17.78, 
			 "cosmo_repulsion_energy": 1.45, 
			 "cosmo_total_nonelectrostatic_energy": 8.27, 
			 "SMD_solvation_energy": 3.77 
		},
		"coords": [
			{
				"x": -1.5944186,
				"y": 1.2066246975,
				"z": 3.0828625851,
				"element": "N" 
			},
			{
				"x": -1.3626505187,
				"y": 0.3887703918,
				"z": 1.9588163914,
				"element": "N" 
			},
			{
				"x": -0.168692728,
				"y": -0.2528121951,
				"z": 1.7792429191,
				"element": "C" 
			},
			{
				"x": 0.7038412636,
				"y": -0.2533210293,
				"z": 2.638431866,
				"element": "O" 
			},
			{
				"x": -0.0100857918,
				"y": -0.9690960323,
				"z": 0.4356735896,
				"element": "C" 
			},
			{
				"x": 1.0688045318,
				"y": -0.3468174188,
				"z": -0.4289295727,
				"element": "C" 
			},
			{
				"x": 2.4074304438,
				"y": -0.315037565,
				"z": -0.005933274,
				"element": "C" 
			},
			{
				"x": 3.405220144,
				"y": 0.213867093,
				"z": -0.7215775872,
				"element": "N" 
			},
			{
				"x": 3.0999985872,
				"y": 0.7440449367,
				"z": -1.9132988367,
				"element": "C" 
			},
			{
				"x": 1.8065362025,
				"y": 0.7696682317,
				"z": -2.4329209338,
				"element": "C" 
			},
			{
				"x": 0.7766942786,
				"y": 0.2145678564,
				"z": -1.6741934171,
				"element": "C" 
			},
			{
				"x": -1.7704050196,
				"y": 0.5918796766,
				"z": 3.8771535321,
				"element": "H" 
			},
			{
				"x": -0.7118370458,
				"y": 1.6734713833,
				"z": 3.2955614353,
				"element": "H" 
			},
			{
				"x": -1.9837485805,
				"y": 0.5531601554,
				"z": 1.1803725759,
				"element": "H" 
			},
			{
				"x": 0.2535660762,
				"y": -2.0049517873,
				"z": 0.6770040641,
				"element": "H" 
			},
			{
				"x": -0.9583985941,
				"y": -0.9973945597,
				"z": -0.1118221938,
				"element": "H" 
			},
			{
				"x": 2.6702895335,
				"y": -0.727610984,
				"z": 0.9652066249,
				"element": "H" 
			},
			{
				"x": 3.9295477011,
				"y": 1.1663071395,
				"z": -2.4779552975,
				"element": "H" 
			},
			{
				"x": 1.6115757058,
				"y": 1.2112071983,
				"z": -3.4053798683,
				"element": "H" 
			},
			{
				"x": -0.2442675895,
				"y": 0.2132728114,
				"z": -2.0496146026,
				"element": "H" 
			}
		],
		 "valence_orbital": [ 
			{
				"type": "occ",
				"energy": -0.28768,
				"method": "rhf"
			},
			{
				"type": "occ",
				"energy": -0.2664,
				"method": "rhf"
			},
			{
				"type": "occ",
				"energy": -0.26262,
				"method": "rhf"
			},
			{
				"type": "occ",
				"energy": -0.25107,
				"method": "rhf"
			},
			{
				"type": "occ",
				"energy": -0.24791,
				"method": "rhf"
			},
			{
				"type": "unocc",
				"energy": -0.02311,
				"method": "rhf"
			},
			{
				"type": "unocc",
				"energy": -0.01532,
				"method": "rhf"
			},
			{
				"type": "unocc",
				"energy": 0.02165,
				"method": "rhf"
			},
			{
				"type": "unocc",
				"energy": 0.06643,
				"method": "rhf"
			},
			{
				"type": "unocc",
				"energy": 0.08601,
				"method": "rhf"
			}
		],
		"cosmo_sigma_profile": { 
			"-0.025": 0.0,
			"-0.024": 0.0,
			"-0.023": 0.0,
			"-0.022": 0.0,
			"-0.021": 0.0,
			"-0.02": 0.0,
			"-0.019": 0.0,
			"-0.018": 0.0,
			"-0.017": 0.0,
			"-0.016": 0.0,
			"-0.015": 0.399559638101,
			"-0.014": 1.4227793632,
			"-0.013": 1.12023529956,
			"-0.012": 1.7474463311,
			"-0.011": 3.02973237867,
			"-0.01": 3.21478799004,
			"-0.009": 4.82800532687,
			"-0.008": 3.83519382886,
			"-0.007": 7.68590981173,
			"-0.006": 12.3363315281,
			"-0.005": 13.917171823,
			"-0.004": 12.4549540492,
			"-0.003": 13.0277676928,
			"-0.002": 11.4073235697,
			"-0.001": 9.15909396406,
			"0.0": 8.61170366725,
			"0.001": 10.7977156788,
			"0.002": 14.32241085,
			"0.003": 14.1934277836,
			"0.004": 6.44497118472,
			"0.005": 5.24700124672,
			"0.006": 3.65890771502,
			"0.007": 3.0210561503,
			"0.008": 3.12011574312,
			"0.009": 4.06402282022,
			"0.01": 3.03427486649,
			"0.011": 2.67460785056,
			"0.012": 3.56813643123,
			"0.013": 5.53341137074,
			"0.014": 3.31769765695,
			"0.015": 1.48137996561,
			"0.016": 1.57298365085,
			"0.017": 0.612715469786,
			"0.018": 0.0,
			"0.019": 0.0,
			"0.02": 0.0,
			"0.021": 0.0,
			"0.022": 0.0,
			"0.023": 0.0,
			"0.024": 0.0,
			"0.025": 0.0
		}
	}
}
