{
	 "smiles": "OC1=C(F)N=CC=C1", 
	 "Tm": 405.15, 
	 "num_atms": 12, 
	 "gaussian": { 
		 "optdone": 1, 
		 "sigma_profile": "yes", 
		 "theory": "DFT", 
		 "functional": "B3LYP", 
		 "basiset": "6-31G**", 
		 "properties": { 
			 "R2extent": 956.9668, 
			 "electric_dipole_moment_norm": 4.3960940504, 
			 "electric_quadrupole_moment_norm": 5.11885132036, 
			 "total_energy": -422.739099802, 
			 "HOMO_LUMO_gap": 0.21062, 
			 "cosmo_polarized_energy": -11.91, 
			 "cosmo_cavitation_energy": 16.91, 
			 "cosmo_dispersion_energy": -12.75, 
			 "cosmo_repulsion_energy": 1.04, 
			 "cosmo_total_nonelectrostatic_energy": 5.2, 
			 "SMD_solvation_energy": 2.51 
		},
		"coords": [
			{
				"x": 0.9911446711,
				"y": 1.3140137414,
				"z": -1.0293037941,
				"element": "O" 
			},
			{
				"x": 0.5361161817,
				"y": 0.4030620031,
				"z": -0.1291333695,
				"element": "C" 
			},
			{
				"x": 1.1491232078,
				"y": 0.3583622306,
				"z": 1.1384238024,
				"element": "C" 
			},
			{
				"x": 2.1467365572,
				"y": 1.2226372188,
				"z": 1.3736198319,
				"element": "F" 
			},
			{
				"x": 0.8188582982,
				"y": -0.4616437101,
				"z": 2.1012408209,
				"element": "N" 
			},
			{
				"x": -0.1808096132,
				"y": -1.3324797622,
				"z": 1.8742750182,
				"element": "C" 
			},
			{
				"x": -0.8642142224,
				"y": -1.3875721312,
				"z": 0.6659958144,
				"element": "C" 
			},
			{
				"x": -0.4968619183,
				"y": -0.5018184799,
				"z": -0.3536781624,
				"element": "C" 
			},
			{
				"x": 0.4839267258,
				"y": 1.2328665618,
				"z": -1.8479533075,
				"element": "H" 
			},
			{
				"x": -0.4316147622,
				"y": -2.0005147817,
				"z": 2.6938428207,
				"element": "H" 
			},
			{
				"x": -1.6662629564,
				"y": -2.1023001486,
				"z": 0.5152801294,
				"element": "H" 
			},
			{
				"x": -1.0079421693,
				"y": -0.5140127419,
				"z": -1.3139096043,
				"element": "H" 
			}
		],
		 "valence_orbital": [ 
			{
				"type": "occ",
				"energy": -0.37772,
				"method": "rhf"
			},
			{
				"type": "occ",
				"energy": -0.36899,
				"method": "rhf"
			},
			{
				"type": "occ",
				"energy": -0.28726,
				"method": "rhf"
			},
			{
				"type": "occ",
				"energy": -0.27709,
				"method": "rhf"
			},
			{
				"type": "occ",
				"energy": -0.23665,
				"method": "rhf"
			},
			{
				"type": "unocc",
				"energy": -0.02603,
				"method": "rhf"
			},
			{
				"type": "unocc",
				"energy": -0.00418,
				"method": "rhf"
			},
			{
				"type": "unocc",
				"energy": 0.05427,
				"method": "rhf"
			},
			{
				"type": "unocc",
				"energy": 0.08691,
				"method": "rhf"
			},
			{
				"type": "unocc",
				"energy": 0.14436,
				"method": "rhf"
			}
		],
		"cosmo_sigma_profile": { 
			"-0.025": 0.0,
			"-0.024": 0.0,
			"-0.023": 0.0,
			"-0.022": 0.0,
			"-0.021": 0.0,
			"-0.02": 0.0,
			"-0.019": 0.477069531621,
			"-0.018": 1.23046225691,
			"-0.017": 1.53630107147,
			"-0.016": 1.0160060856,
			"-0.015": 0.948838800372,
			"-0.014": 1.16465580534,
			"-0.013": 0.640662827751,
			"-0.012": 0.773285253464,
			"-0.011": 1.54847207469,
			"-0.01": 1.48166693236,
			"-0.009": 1.31361291791,
			"-0.008": 1.78122095997,
			"-0.007": 4.86276490625,
			"-0.006": 7.50686129842,
			"-0.005": 5.54311509651,
			"-0.004": 5.30341696196,
			"-0.003": 5.01317165818,
			"-0.002": 4.77802263286,
			"-0.001": 7.8951362138,
			"0.0": 9.65311915047,
			"0.001": 9.93624943007,
			"0.002": 11.2667020514,
			"0.003": 11.5360056968,
			"0.004": 10.0314477348,
			"0.005": 6.25678656015,
			"0.006": 3.89925710567,
			"0.007": 3.81982706801,
			"0.008": 3.44559804806,
			"0.009": 3.02343471615,
			"0.01": 3.26187158425,
			"0.011": 1.4647913617,
			"0.012": 1.3586807341,
			"0.013": 0.718749318786,
			"0.014": 1.09676612779,
			"0.015": 0.386172354265,
			"0.016": 0.0,
			"0.017": 0.0,
			"0.018": 0.0,
			"0.019": 0.0,
			"0.02": 0.0,
			"0.021": 0.0,
			"0.022": 0.0,
			"0.023": 0.0,
			"0.024": 0.0,
			"0.025": 0.0
		}
	}
}
