{
	 "smiles": "NC1=C(O)C=CC(=C1)C#N", 
	 "Tm": 423.15, 
	 "num_atms": 16, 
	 "gaussian": { 
		 "optdone": 1, 
		 "sigma_profile": "yes", 
		 "theory": "DFT", 
		 "functional": "B3LYP", 
		 "basiset": "6-31G**", 
		 "properties": { 
			 "R2extent": 2067.8325, 
			 "electric_dipole_moment_norm": 4.71112952698, 
			 "electric_quadrupole_moment_norm": 28.1822533528, 
			 "total_energy": -455.071855199, 
			 "HOMO_LUMO_gap": 0.1979, 
			 "cosmo_polarized_energy": -13.71, 
			 "cosmo_cavitation_energy": 21.37, 
			 "cosmo_dispersion_energy": -15.51, 
			 "cosmo_repulsion_energy": 1.28, 
			 "cosmo_total_nonelectrostatic_energy": 7.13, 
			 "SMD_solvation_energy": 5.82 
		},
		"coords": [
			{
				"x": 2.5725419054,
				"y": 0.1435956502,
				"z": 0.2528794919,
				"element": "N" 
			},
			{
				"x": 1.3730992836,
				"y": -0.6529880437,
				"z": 0.180532248,
				"element": "C" 
			},
			{
				"x": 0.516245464,
				"y": -0.3358936491,
				"z": -0.8966871972,
				"element": "C" 
			},
			{
				"x": 0.8659637802,
				"y": 0.6474717791,
				"z": -1.7451840296,
				"element": "O" 
			},
			{
				"x": -0.6822414181,
				"y": -1.0386278726,
				"z": -1.0764771682,
				"element": "C" 
			},
			{
				"x": -1.0243464554,
				"y": -2.0500517141,
				"z": -0.1897480854,
				"element": "C" 
			},
			{
				"x": -0.178291819,
				"y": -2.375639546,
				"z": 0.8877440192,
				"element": "C" 
			},
			{
				"x": 1.0239555448,
				"y": -1.6664343048,
				"z": 1.0635624098,
				"element": "C" 
			},
			{
				"x": -0.5344001707,
				"y": -3.4192610702,
				"z": 1.7997462256,
				"element": "C" 
			},
			{
				"x": -0.8206564545,
				"y": -4.2676695058,
				"z": 2.543796248,
				"element": "N" 
			},
			{
				"x": 3.4096333815,
				"y": -0.4294707815,
				"z": 0.1865314874,
				"element": "H" 
			},
			{
				"x": 2.6265264765,
				"y": 0.6643045549,
				"z": 1.1243855139,
				"element": "H" 
			},
			{
				"x": 1.7283063767,
				"y": 0.966639432,
				"z": -1.4015567424,
				"element": "H" 
			},
			{
				"x": -1.3252716094,
				"y": -0.7786576954,
				"z": -1.9100268663,
				"element": "H" 
			},
			{
				"x": -1.95073858,
				"y": -2.5988399501,
				"z": -0.3223459755,
				"element": "H" 
			},
			{
				"x": 1.6792742945,
				"y": -1.914277283,
				"z": 1.8933484209,
				"element": "H" 
			}
		],
		 "valence_orbital": [ 
			{
				"type": "occ",
				"energy": -0.32523,
				"method": "rhf"
			},
			{
				"type": "occ",
				"energy": -0.32163,
				"method": "rhf"
			},
			{
				"type": "occ",
				"energy": -0.29634,
				"method": "rhf"
			},
			{
				"type": "occ",
				"energy": -0.27424,
				"method": "rhf"
			},
			{
				"type": "occ",
				"energy": -0.23438,
				"method": "rhf"
			},
			{
				"type": "unocc",
				"energy": -0.03648,
				"method": "rhf"
			},
			{
				"type": "unocc",
				"energy": -0.02609,
				"method": "rhf"
			},
			{
				"type": "unocc",
				"energy": 0.04146,
				"method": "rhf"
			},
			{
				"type": "unocc",
				"energy": 0.05617,
				"method": "rhf"
			},
			{
				"type": "unocc",
				"energy": 0.08658,
				"method": "rhf"
			}
		],
		"cosmo_sigma_profile": { 
			"-0.025": 0.0,
			"-0.024": 0.0,
			"-0.023": 0.0,
			"-0.022": 0.0,
			"-0.021": 0.0,
			"-0.02": 0.0,
			"-0.019": 0.0,
			"-0.018": 0.0,
			"-0.017": 0.0,
			"-0.016": 0.0,
			"-0.015": 0.0,
			"-0.014": 0.0,
			"-0.013": 0.373813141346,
			"-0.012": 2.63172134451,
			"-0.011": 3.52426730307,
			"-0.01": 3.55297732578,
			"-0.009": 3.38119336601,
			"-0.008": 5.75396869565,
			"-0.007": 9.49942655861,
			"-0.006": 10.0237904427,
			"-0.005": 7.09287452944,
			"-0.004": 7.396888543,
			"-0.003": 7.84737190104,
			"-0.002": 9.28397121273,
			"-0.001": 8.76337204607,
			"0.0": 11.7089115341,
			"0.001": 12.5955597943,
			"0.002": 15.2382971857,
			"0.003": 9.72101976136,
			"0.004": 5.67268527467,
			"0.005": 3.29149273015,
			"0.006": 4.70628963319,
			"0.007": 4.30289037146,
			"0.008": 4.51198191607,
			"0.009": 5.17134430954,
			"0.01": 5.20972633308,
			"0.011": 4.75033456882,
			"0.012": 2.77357221561,
			"0.013": 2.23028735689,
			"0.014": 0.63304693408,
			"0.015": 0.0,
			"0.016": 0.0,
			"0.017": 0.0,
			"0.018": 0.0,
			"0.019": 0.0,
			"0.02": 0.0,
			"0.021": 0.0,
			"0.022": 0.0,
			"0.023": 0.0,
			"0.024": 0.0,
			"0.025": 0.0
		}
	}
}
