{
	 "smiles": "COC1=C2C(CC#N)=CNC2=CC=C1", 
	 "Tm": 407.15, 
	 "num_atms": 24, 
	 "gaussian": { 
		 "optdone": 1, 
		 "sigma_profile": "yes", 
		 "theory": "DFT", 
		 "functional": "B3LYP", 
		 "basiset": "6-31G**", 
		 "properties": { 
			 "R2extent": 3432.6354, 
			 "electric_dipole_moment_norm": 4.50256116671, 
			 "electric_quadrupole_moment_norm": 25.7931985141, 
			 "total_energy": -609.898976678, 
			 "HOMO_LUMO_gap": 0.18957, 
			 "cosmo_polarized_energy": -16.29, 
			 "cosmo_cavitation_energy": 28.67, 
			 "cosmo_dispersion_energy": -20.08, 
			 "cosmo_repulsion_energy": 1.58, 
			 "cosmo_total_nonelectrostatic_energy": 10.17, 
			 "SMD_solvation_energy": 6.88 
		},
		"coords": [
			{
				"x": -3.8259406528,
				"y": -2.3370422498,
				"z": -0.1267494577,
				"element": "C" 
			},
			{
				"x": -2.4099344377,
				"y": -2.2714369266,
				"z": -0.0444304404,
				"element": "O" 
			},
			{
				"x": -1.850667867,
				"y": -1.2407126829,
				"z": 0.6550714158,
				"element": "C" 
			},
			{
				"x": -0.4404164,
				"y": -1.1675806261,
				"z": 0.6153118588,
				"element": "C" 
			},
			{
				"x": 0.580642642,
				"y": -1.955160823,
				"z": -0.0261336871,
				"element": "C" 
			},
			{
				"x": 0.3921158916,
				"y": -3.1685935934,
				"z": -0.9013582142,
				"element": "C" 
			},
			{
				"x": -0.1020441323,
				"y": -2.8486950528,
				"z": -2.2505868979,
				"element": "C" 
			},
			{
				"x": -0.4806388314,
				"y": -2.600527407,
				"z": -3.3192783319,
				"element": "N" 
			},
			{
				"x": 1.782464352,
				"y": -1.384913495,
				"z": 0.3106549248,
				"element": "C" 
			},
			{
				"x": 1.564628141,
				"y": -0.2911223339,
				"z": 1.1250705916,
				"element": "N" 
			},
			{
				"x": 0.2091733811,
				"y": -0.1308282289,
				"z": 1.3288329402,
				"element": "C" 
			},
			{
				"x": -0.4889650373,
				"y": 0.8323591536,
				"z": 2.0728789398,
				"element": "C" 
			},
			{
				"x": -1.8710230957,
				"y": 0.7315115288,
				"z": 2.0830902178,
				"element": "C" 
			},
			{
				"x": -2.5556170071,
				"y": -0.2887316419,
				"z": 1.3859059369,
				"element": "C" 
			},
			{
				"x": -4.0515046786,
				"y": -3.1909430314,
				"z": -0.7668868767,
				"element": "H" 
			},
			{
				"x": -4.2799217945,
				"y": -2.4920383864,
				"z": 0.8604472535,
				"element": "H" 
			},
			{
				"x": -4.2422719109,
				"y": -1.4272264236,
				"z": -0.5760852783,
				"element": "H" 
			},
			{
				"x": 1.3418288069,
				"y": -3.7046294069,
				"z": -1.0114696394,
				"element": "H" 
			},
			{
				"x": -0.3216551474,
				"y": -3.8629676085,
				"z": -0.4458404984,
				"element": "H" 
			},
			{
				"x": 2.7850954263,
				"y": -1.6750885302,
				"z": 0.0296156988,
				"element": "H" 
			},
			{
				"x": 2.2836306599,
				"y": 0.300483765,
				"z": 1.5076371286,
				"element": "H" 
			},
			{
				"x": 0.0270686374,
				"y": 1.6205419167,
				"z": 2.6119783842,
				"element": "H" 
			},
			{
				"x": -2.4543537142,
				"y": 1.4562050068,
				"z": 2.6434393625,
				"element": "H" 
			},
			{
				"x": -3.6373932312,
				"y": -0.3186629228,
				"z": 1.4310846687,
				"element": "H" 
			}
		],
		 "valence_orbital": [ 
			{
				"type": "occ",
				"energy": -0.30949,
				"method": "rhf"
			},
			{
				"type": "occ",
				"energy": -0.30607,
				"method": "rhf"
			},
			{
				"type": "occ",
				"energy": -0.25964,
				"method": "rhf"
			},
			{
				"type": "occ",
				"energy": -0.2263,
				"method": "rhf"
			},
			{
				"type": "occ",
				"energy": -0.19595,
				"method": "rhf"
			},
			{
				"type": "unocc",
				"energy": -0.00638,
				"method": "rhf"
			},
			{
				"type": "unocc",
				"energy": 0.02623,
				"method": "rhf"
			},
			{
				"type": "unocc",
				"energy": 0.04383,
				"method": "rhf"
			},
			{
				"type": "unocc",
				"energy": 0.05634,
				"method": "rhf"
			},
			{
				"type": "unocc",
				"energy": 0.07115,
				"method": "rhf"
			}
		],
		"cosmo_sigma_profile": { 
			"-0.025": 0.0,
			"-0.024": 0.0,
			"-0.023": 0.0,
			"-0.022": 0.0,
			"-0.021": 0.0,
			"-0.02": 0.0,
			"-0.019": 0.0,
			"-0.018": 0.0,
			"-0.017": 0.0,
			"-0.016": 0.612512167168,
			"-0.015": 1.71687792261,
			"-0.014": 1.16888094194,
			"-0.013": 1.34140571255,
			"-0.012": 1.16226074959,
			"-0.011": 1.33342468061,
			"-0.01": 1.32666408613,
			"-0.009": 2.24462898642,
			"-0.008": 7.04277634219,
			"-0.007": 7.22891435811,
			"-0.006": 11.648563251,
			"-0.005": 18.6164096475,
			"-0.004": 19.1323656197,
			"-0.003": 18.3989283751,
			"-0.002": 11.3783969056,
			"-0.001": 9.9828915129,
			"0.0": 7.33922594676,
			"0.001": 9.22753232226,
			"0.002": 9.63323697709,
			"0.003": 13.327113224,
			"0.004": 17.8625848175,
			"0.005": 17.4908902843,
			"0.006": 11.902207077,
			"0.007": 8.4596479801,
			"0.008": 4.25546725465,
			"0.009": 3.4926903095,
			"0.01": 3.68906682701,
			"0.011": 2.93349005224,
			"0.012": 2.63612094254,
			"0.013": 2.34688874492,
			"0.014": 0.76196774,
			"0.015": 0.0,
			"0.016": 0.0,
			"0.017": 0.0,
			"0.018": 0.0,
			"0.019": 0.0,
			"0.02": 0.0,
			"0.021": 0.0,
			"0.022": 0.0,
			"0.023": 0.0,
			"0.024": 0.0,
			"0.025": 0.0
		}
	}
}
