{
	 "smiles": "COC(OC)OC", 
	 "Tm": 288.15, 
	 "num_atms": 17, 
	 "gaussian": { 
		 "optdone": 1, 
		 "sigma_profile": "yes", 
		 "theory": "DFT", 
		 "functional": "B3LYP", 
		 "basiset": "6-31G**", 
		 "properties": { 
			 "R2extent": 1377.1161, 
			 "electric_dipole_moment_norm": 1.26132984187, 
			 "electric_quadrupole_moment_norm": 5.21796160775, 
			 "total_energy": -384.089862413, 
			 "HOMO_LUMO_gap": 0.36256, 
			 "cosmo_polarized_energy": -6.5, 
			 "cosmo_cavitation_energy": 19.87, 
			 "cosmo_dispersion_energy": -14.53, 
			 "cosmo_repulsion_energy": 1.25, 
			 "cosmo_total_nonelectrostatic_energy": 6.59, 
			 "SMD_solvation_energy": 5.5 
		},
		"coords": [
			{
				"x": 0.520410344,
				"y": -1.0170098823,
				"z": -0.7026413445,
				"element": "C" 
			},
			{
				"x": 0.0334080202,
				"y": -0.3063604371,
				"z": 0.4275320513,
				"element": "O" 
			},
			{
				"x": 0.9073566654,
				"y": 0.6521687652,
				"z": 0.9225009003,
				"element": "C" 
			},
			{
				"x": 2.06587278,
				"y": -0.0153881577,
				"z": 1.3698764782,
				"element": "O" 
			},
			{
				"x": 3.1336430522,
				"y": 0.8615354299,
				"z": 1.6982740513,
				"element": "C" 
			},
			{
				"x": 0.2808383029,
				"y": 1.3772413989,
				"z": 1.9234767198,
				"element": "O" 
			},
			{
				"x": -0.2424964173,
				"y": 0.5939959936,
				"z": 3.0010467475,
				"element": "C" 
			},
			{
				"x": 0.7942646297,
				"y": -0.3296151754,
				"z": -1.5171778102,
				"element": "H" 
			},
			{
				"x": 1.3911230344,
				"y": -1.6299901588,
				"z": -0.4491868703,
				"element": "H" 
			},
			{
				"x": -0.2953728544,
				"y": -1.6583796901,
				"z": -1.0419069984,
				"element": "H" 
			},
			{
				"x": 1.1804898152,
				"y": 1.3932494855,
				"z": 0.1486116155,
				"element": "H" 
			},
			{
				"x": 3.429991153,
				"y": 1.4757245209,
				"z": 0.8345530937,
				"element": "H" 
			},
			{
				"x": 3.9782133297,
				"y": 0.2353760452,
				"z": 1.9929113358,
				"element": "H" 
			},
			{
				"x": 2.8687444599,
				"y": 1.530019124,
				"z": 2.5259051261,
				"element": "H" 
			},
			{
				"x": -1.1104730814,
				"y": 0.0112870045,
				"z": 2.6787935897,
				"element": "H" 
			},
			{
				"x": 0.5173683402,
				"y": -0.0838964849,
				"z": 3.4033320644,
				"element": "H" 
			},
			{
				"x": -0.5432815739,
				"y": 1.3064422186,
				"z": 3.7714992497,
				"element": "H" 
			}
		],
		 "valence_orbital": [ 
			{
				"type": "occ",
				"energy": -0.33223,
				"method": "rhf"
			},
			{
				"type": "occ",
				"energy": -0.31604,
				"method": "rhf"
			},
			{
				"type": "occ",
				"energy": -0.27699,
				"method": "rhf"
			},
			{
				"type": "occ",
				"energy": -0.27299,
				"method": "rhf"
			},
			{
				"type": "occ",
				"energy": -0.26543,
				"method": "rhf"
			},
			{
				"type": "unocc",
				"energy": 0.09713,
				"method": "rhf"
			},
			{
				"type": "unocc",
				"energy": 0.11754,
				"method": "rhf"
			},
			{
				"type": "unocc",
				"energy": 0.12801,
				"method": "rhf"
			},
			{
				"type": "unocc",
				"energy": 0.14146,
				"method": "rhf"
			},
			{
				"type": "unocc",
				"energy": 0.14302,
				"method": "rhf"
			}
		],
		"cosmo_sigma_profile": { 
			"-0.025": 0.0,
			"-0.024": 0.0,
			"-0.023": 0.0,
			"-0.022": 0.0,
			"-0.021": 0.0,
			"-0.02": 0.0,
			"-0.019": 0.0,
			"-0.018": 0.0,
			"-0.017": 0.0,
			"-0.016": 0.0,
			"-0.015": 0.0,
			"-0.014": 0.0,
			"-0.013": 0.0,
			"-0.012": 0.0,
			"-0.011": 0.0,
			"-0.01": 0.0,
			"-0.009": 0.0,
			"-0.008": 0.0,
			"-0.007": 0.0,
			"-0.006": 3.31344857887,
			"-0.005": 14.4537964176,
			"-0.004": 17.9701544052,
			"-0.003": 23.2629275222,
			"-0.002": 25.7126439735,
			"-0.001": 10.514363067,
			"0.0": 8.88903378874,
			"0.001": 5.87311197671,
			"0.002": 4.95051064118,
			"0.003": 5.01102854268,
			"0.004": 4.1159608539,
			"0.005": 3.83781933939,
			"0.006": 4.66980711469,
			"0.007": 4.39704237943,
			"0.008": 4.08199649388,
			"0.009": 5.38529784335,
			"0.01": 3.2178159984,
			"0.011": 2.88434708077,
			"0.012": 2.06449619935,
			"0.013": 0.199434288211,
			"0.014": 0.0,
			"0.015": 0.0,
			"0.016": 0.0,
			"0.017": 0.0,
			"0.018": 0.0,
			"0.019": 0.0,
			"0.02": 0.0,
			"0.021": 0.0,
			"0.022": 0.0,
			"0.023": 0.0,
			"0.024": 0.0,
			"0.025": 0.0
		}
	}
}
