{
	 "smiles": "ClC1=CC=C(CN2CCC3=C(NC4=CC=C(Br)C=C34)C2=O)C=C1", 
	 "Tm": 506.15, 
	 "num_atms": 37, 
	 "gaussian": { 
		 "optdone": 1, 
		 "sigma_profile": "yes", 
		 "theory": "DFT", 
		 "functional": "B3LYP", 
		 "basiset": "6-31G**", 
		 "properties": { 
			 "R2extent": 17126.7187, 
			 "electric_dipole_moment_norm": 1.86473428938, 
			 "electric_quadrupole_moment_norm": 22.7823166588, 
			 "total_energy": -3910.71380619, 
			 "HOMO_LUMO_gap": 0.16672, 
			 "cosmo_polarized_energy": -14.4, 
			 "cosmo_cavitation_energy": 45.17, 
			 "cosmo_dispersion_energy": -32.57, 
			 "cosmo_repulsion_energy": 2.46, 
			 "cosmo_total_nonelectrostatic_energy": 15.06, 
			 "SMD_solvation_energy": 5.56 
		},
		"coords": [
			{
				"x": -5.7078019546,
				"y": 0.8394372323,
				"z": -4.1792424399,
				"element": "Cl" 
			},
			{
				"x": -4.3269528345,
				"y": -0.0001548656,
				"z": -3.4860145927,
				"element": "C" 
			},
			{
				"x": -3.1263329861,
				"y": 0.6882883732,
				"z": -3.3030365979,
				"element": "C" 
			},
			{
				"x": -2.0367266564,
				"y": 0.0178588912,
				"z": -2.7519569923,
				"element": "C" 
			},
			{
				"x": -2.1297791925,
				"y": -1.330357704,
				"z": -2.3795084901,
				"element": "C" 
			},
			{
				"x": -0.9266674586,
				"y": -2.0613074059,
				"z": -1.8146016557,
				"element": "C" 
			},
			{
				"x": -0.2881099342,
				"y": -1.34905249,
				"z": -0.709322717,
				"element": "N" 
			},
			{
				"x": -1.0178489617,
				"y": -1.3064320022,
				"z": 0.5712318039,
				"element": "C" 
			},
			{
				"x": -0.5993855821,
				"y": -0.1337082042,
				"z": 1.473010202,
				"element": "C" 
			},
			{
				"x": 0.8966656495,
				"y": -0.0569682929,
				"z": 1.5167648253,
				"element": "C" 
			},
			{
				"x": 1.6256338623,
				"y": -0.5569284052,
				"z": 0.4640400157,
				"element": "C" 
			},
			{
				"x": 2.9709217655,
				"y": -0.3393602982,
				"z": 0.6600396859,
				"element": "N" 
			},
			{
				"x": 3.1368959728,
				"y": 0.3147351099,
				"z": 1.8582119807,
				"element": "C" 
			},
			{
				"x": 4.3008686785,
				"y": 0.749902068,
				"z": 2.5032589298,
				"element": "C" 
			},
			{
				"x": 4.1665937066,
				"y": 1.394969575,
				"z": 3.7247474635,
				"element": "C" 
			},
			{
				"x": 2.8902074863,
				"y": 1.5967555642,
				"z": 4.2896079123,
				"element": "C" 
			},
			{
				"x": 2.7766650024,
				"y": 2.4936662782,
				"z": 5.9793926941,
				"element": "Br" 
			},
			{
				"x": 1.7278855541,
				"y": 1.1719289869,
				"z": 3.6700670717,
				"element": "C" 
			},
			{
				"x": 1.8408093064,
				"y": 0.516064871,
				"z": 2.4296787137,
				"element": "C" 
			},
			{
				"x": 1.082216369,
				"y": -1.1722709707,
				"z": -0.7500312729,
				"element": "C" 
			},
			{
				"x": 1.7926721271,
				"y": -1.457182348,
				"z": -1.7160714158,
				"element": "O" 
			},
			{
				"x": -3.3462303059,
				"y": -1.9934670357,
				"z": -2.5700901932,
				"element": "C" 
			},
			{
				"x": -4.4485011163,
				"y": -1.3396180708,
				"z": -3.1247270329,
				"element": "C" 
			},
			{
				"x": -3.0490764379,
				"y": 1.7308545134,
				"z": -3.5914792566,
				"element": "H" 
			},
			{
				"x": -1.1004405219,
				"y": 0.5485698481,
				"z": -2.6056439943,
				"element": "H" 
			},
			{
				"x": -1.2277378406,
				"y": -3.0670373799,
				"z": -1.4873853755,
				"element": "H" 
			},
			{
				"x": -0.1541249025,
				"y": -2.1853802133,
				"z": -2.5783849542,
				"element": "H" 
			},
			{
				"x": -0.8615931381,
				"y": -2.2541941097,
				"z": 1.1099617539,
				"element": "H" 
			},
			{
				"x": -2.0825262284,
				"y": -1.233289726,
				"z": 0.3350227593,
				"element": "H" 
			},
			{
				"x": -1.0202898382,
				"y": 0.8055211985,
				"z": 1.086946699,
				"element": "H" 
			},
			{
				"x": -1.0329909951,
				"y": -0.2872269346,
				"z": 2.4674532422,
				"element": "H" 
			},
			{
				"x": 3.6772935346,
				"y": -0.6063766007,
				"z": -0.0085086898,
				"element": "H" 
			},
			{
				"x": 5.2824288183,
				"y": 0.5933471648,
				"z": 2.0664287985,
				"element": "H" 
			},
			{
				"x": 5.043992572,
				"y": 1.7483909841,
				"z": 4.2534477064,
				"element": "H" 
			},
			{
				"x": 0.7613834052,
				"y": 1.3421840064,
				"z": 4.1307941502,
				"element": "H" 
			},
			{
				"x": -3.4396509342,
				"y": -3.0384982718,
				"z": -2.2849658907,
				"element": "H" 
			},
			{
				"x": -5.3888659905,
				"y": -1.8600633356,
				"z": -3.2687348463,
				"element": "H" 
			}
		],
		 "valence_orbital": [ 
			{
				"type": "occ",
				"energy": -0.26732,
				"method": "rhf"
			},
			{
				"type": "occ",
				"energy": -0.25616,
				"method": "rhf"
			},
			{
				"type": "occ",
				"energy": -0.24316,
				"method": "rhf"
			},
			{
				"type": "occ",
				"energy": -0.2279,
				"method": "rhf"
			},
			{
				"type": "occ",
				"energy": -0.21755,
				"method": "rhf"
			},
			{
				"type": "unocc",
				"energy": -0.05083,
				"method": "rhf"
			},
			{
				"type": "unocc",
				"energy": -0.02152,
				"method": "rhf"
			},
			{
				"type": "unocc",
				"energy": -0.01791,
				"method": "rhf"
			},
			{
				"type": "unocc",
				"energy": 0.00318,
				"method": "rhf"
			},
			{
				"type": "unocc",
				"energy": 0.00961,
				"method": "rhf"
			}
		],
		"cosmo_sigma_profile": { 
			"-0.025": 0.0,
			"-0.024": 0.0,
			"-0.023": 0.0,
			"-0.022": 0.0,
			"-0.021": 0.0,
			"-0.02": 0.0,
			"-0.019": 0.0,
			"-0.018": 0.0,
			"-0.017": 0.0,
			"-0.016": 0.270513693187,
			"-0.015": 0.784212531426,
			"-0.014": 1.03032910914,
			"-0.013": 1.03603493078,
			"-0.012": 0.927885180313,
			"-0.011": 1.00490077366,
			"-0.01": 0.93730932881,
			"-0.009": 1.07359989082,
			"-0.008": 2.08075640604,
			"-0.007": 8.03689747617,
			"-0.006": 15.9596274749,
			"-0.005": 24.3858627739,
			"-0.004": 31.4012167223,
			"-0.003": 28.6586013822,
			"-0.002": 27.648463155,
			"-0.001": 21.2030337052,
			"0.0": 22.0070148137,
			"0.001": 28.6652028587,
			"0.002": 29.2981826566,
			"0.003": 42.0705425342,
			"0.004": 39.8425507903,
			"0.005": 21.1841211555,
			"0.006": 2.56243107333,
			"0.007": 1.53789625207,
			"0.008": 0.524695898662,
			"0.009": 1.56087098932,
			"0.01": 0.915177868442,
			"0.011": 2.19354576595,
			"0.012": 1.64868450697,
			"0.013": 4.79906115977,
			"0.014": 1.52501256975,
			"0.015": 0.0,
			"0.016": 0.0,
			"0.017": 0.0,
			"0.018": 0.0,
			"0.019": 0.0,
			"0.02": 0.0,
			"0.021": 0.0,
			"0.022": 0.0,
			"0.023": 0.0,
			"0.024": 0.0,
			"0.025": 0.0
		}
	}
}
