{
	 "smiles": "COC1=CC=C(C=NN2C(C)=CC(C)=C(C#N)C2=O)C=C1", 
	 "Tm": 523.15, 
	 "num_atms": 36, 
	 "gaussian": { 
		 "optdone": 1, 
		 "sigma_profile": "yes", 
		 "theory": "DFT", 
		 "functional": "B3LYP", 
		 "basiset": "6-31G**", 
		 "properties": { 
			 "R2extent": 10467.7539, 
			 "electric_dipole_moment_norm": 8.88191672445, 
			 "electric_quadrupole_moment_norm": 44.0978348572, 
			 "total_energy": -933.398941055, 
			 "HOMO_LUMO_gap": 0.14251, 
			 "cosmo_polarized_energy": -20.32, 
			 "cosmo_cavitation_energy": 41.69, 
			 "cosmo_dispersion_energy": -29.07, 
			 "cosmo_repulsion_energy": 2.2, 
			 "cosmo_total_nonelectrostatic_energy": 14.83, 
			 "SMD_solvation_energy": 9.61 
		},
		"coords": [
			{
				"x": 3.8625286749,
				"y": -3.2052880498,
				"z": 4.8166106039,
				"element": "C" 
			},
			{
				"x": 2.5400636539,
				"y": -3.614373585,
				"z": 4.4936238202,
				"element": "O" 
			},
			{
				"x": 1.7888970588,
				"y": -2.8174253896,
				"z": 3.6902739978,
				"element": "C" 
			},
			{
				"x": 0.4896315893,
				"y": -3.276666699,
				"z": 3.420036672,
				"element": "C" 
			},
			{
				"x": -0.3531535039,
				"y": -2.530477804,
				"z": 2.6119652662,
				"element": "C" 
			},
			{
				"x": 0.0716446363,
				"y": -1.3123461989,
				"z": 2.0476580767,
				"element": "C" 
			},
			{
				"x": -0.850707928,
				"y": -0.5701605847,
				"z": 1.1937417501,
				"element": "C" 
			},
			{
				"x": -0.4665186197,
				"y": 0.5093030287,
				"z": 0.5999353196,
				"element": "N" 
			},
			{
				"x": -1.4008057746,
				"y": 1.2011114349,
				"z": -0.177897121,
				"element": "N" 
			},
			{
				"x": -0.872697138,
				"y": 1.8713994789,
				"z": -1.2578467919,
				"element": "C" 
			},
			{
				"x": 0.5766910339,
				"y": 1.6545155998,
				"z": -1.5778970004,
				"element": "C" 
			},
			{
				"x": -1.6730790407,
				"y": 2.6932351467,
				"z": -2.0136362973,
				"element": "C" 
			},
			{
				"x": -3.0323898868,
				"y": 2.9099217594,
				"z": -1.6868274683,
				"element": "C" 
			},
			{
				"x": -3.8600256195,
				"y": 3.8241673354,
				"z": -2.5502748125,
				"element": "C" 
			},
			{
				"x": -3.5503195473,
				"y": 2.2679277648,
				"z": -0.5725412179,
				"element": "C" 
			},
			{
				"x": -4.9111440829,
				"y": 2.445686962,
				"z": -0.1747095647,
				"element": "C" 
			},
			{
				"x": -6.0255119532,
				"y": 2.6163675906,
				"z": 0.1157561166,
				"element": "N" 
			},
			{
				"x": -2.7609446055,
				"y": 1.3673449623,
				"z": 0.2582178085,
				"element": "C" 
			},
			{
				"x": -3.1849176585,
				"y": 0.7835328677,
				"z": 1.2478839353,
				"element": "O" 
			},
			{
				"x": 1.3717278392,
				"y": -0.8627399014,
				"z": 2.3306550635,
				"element": "C" 
			},
			{
				"x": 2.22754183,
				"y": -1.6007795349,
				"z": 3.1401132278,
				"element": "C" 
			},
			{
				"x": 3.8684059001,
				"y": -2.2498441301,
				"z": 5.3555301134,
				"element": "H" 
			},
			{
				"x": 4.4881045897,
				"y": -3.1183080757,
				"z": 3.9195970441,
				"element": "H" 
			},
			{
				"x": 4.2672536658,
				"y": -3.9851156727,
				"z": 5.4628391264,
				"element": "H" 
			},
			{
				"x": 0.1700851524,
				"y": -4.2156163009,
				"z": 3.8591309091,
				"element": "H" 
			},
			{
				"x": -1.359262069,
				"y": -2.8892812964,
				"z": 2.411462877,
				"element": "H" 
			},
			{
				"x": -1.8531366892,
				"y": -0.9750448447,
				"z": 1.0875478116,
				"element": "H" 
			},
			{
				"x": 0.8468642779,
				"y": 2.2285233089,
				"z": -2.4661543199,
				"element": "H" 
			},
			{
				"x": 1.2085884714,
				"y": 1.9630814009,
				"z": -0.7403447204,
				"element": "H" 
			},
			{
				"x": 0.7899852039,
				"y": 0.5964403,
				"z": -1.7571730474,
				"element": "H" 
			},
			{
				"x": -1.2403178944,
				"y": 3.1868643512,
				"z": -2.8757237162,
				"element": "H" 
			},
			{
				"x": -4.8842929711,
				"y": 3.9164090125,
				"z": -2.1875669938,
				"element": "H" 
			},
			{
				"x": -3.4105873562,
				"y": 4.8230201904,
				"z": -2.5830173222,
				"element": "H" 
			},
			{
				"x": -3.8874738627,
				"y": 3.4506471112,
				"z": -3.5801576778,
				"element": "H" 
			},
			{
				"x": 1.7019151466,
				"y": 0.0811898576,
				"z": 1.9103244867,
				"element": "H" 
			},
			{
				"x": 3.223757477,
				"y": -1.2265213959,
				"z": 3.343264045,
				"element": "H" 
			}
		],
		 "valence_orbital": [ 
			{
				"type": "occ",
				"energy": -0.27783,
				"method": "rhf"
			},
			{
				"type": "occ",
				"energy": -0.26668,
				"method": "rhf"
			},
			{
				"type": "occ",
				"energy": -0.25418,
				"method": "rhf"
			},
			{
				"type": "occ",
				"energy": -0.2334,
				"method": "rhf"
			},
			{
				"type": "occ",
				"energy": -0.21328,
				"method": "rhf"
			},
			{
				"type": "unocc",
				"energy": -0.07077,
				"method": "rhf"
			},
			{
				"type": "unocc",
				"energy": -0.04056,
				"method": "rhf"
			},
			{
				"type": "unocc",
				"energy": -0.01341,
				"method": "rhf"
			},
			{
				"type": "unocc",
				"energy": -0.00064,
				"method": "rhf"
			},
			{
				"type": "unocc",
				"energy": 0.04462,
				"method": "rhf"
			}
		],
		"cosmo_sigma_profile": { 
			"-0.025": 0.0,
			"-0.024": 0.0,
			"-0.023": 0.0,
			"-0.022": 0.0,
			"-0.021": 0.0,
			"-0.02": 0.0,
			"-0.019": 0.0,
			"-0.018": 0.0,
			"-0.017": 0.0,
			"-0.016": 0.0,
			"-0.015": 0.0,
			"-0.014": 0.0,
			"-0.013": 0.0,
			"-0.012": 0.0,
			"-0.011": 0.0,
			"-0.01": 0.0,
			"-0.009": 0.108803787992,
			"-0.008": 1.94025926431,
			"-0.007": 9.71928797827,
			"-0.006": 22.9002214929,
			"-0.005": 29.2590683755,
			"-0.004": 29.0197692827,
			"-0.003": 32.3469297425,
			"-0.002": 34.8638118511,
			"-0.001": 26.3050200179,
			"0.0": 18.8664497328,
			"0.001": 15.7341429265,
			"0.002": 19.1389011503,
			"0.003": 20.2224887201,
			"0.004": 18.5161696024,
			"0.005": 5.92866596468,
			"0.006": 6.23378190256,
			"0.007": 6.28726061474,
			"0.008": 7.82975575851,
			"0.009": 6.49344950566,
			"0.01": 5.75266411799,
			"0.011": 5.2600223456,
			"0.012": 5.87004706516,
			"0.013": 4.85528724738,
			"0.014": 0.478433857505,
			"0.015": 0.0,
			"0.016": 0.0,
			"0.017": 0.0,
			"0.018": 0.0,
			"0.019": 0.0,
			"0.02": 0.0,
			"0.021": 0.0,
			"0.022": 0.0,
			"0.023": 0.0,
			"0.024": 0.0,
			"0.025": 0.0
		}
	}
}
