{
	 "smiles": "CCCCCCN", 
	 "Tm": 252.15, 
	 "num_atms": 22, 
	 "gaussian": { 
		 "optdone": 1, 
		 "sigma_profile": "yes", 
		 "theory": "DFT", 
		 "functional": "B3LYP", 
		 "basiset": "6-31G**", 
		 "properties": { 
			 "R2extent": 1367.3479, 
			 "electric_dipole_moment_norm": 1.38455755027, 
			 "electric_quadrupole_moment_norm": 4.47295531835, 
			 "total_energy": -292.441197008, 
			 "HOMO_LUMO_gap": 0.30871, 
			 "cosmo_polarized_energy": -4.52, 
			 "cosmo_cavitation_energy": 23.0, 
			 "cosmo_dispersion_energy": -16.83, 
			 "cosmo_repulsion_energy": 1.47, 
			 "cosmo_total_nonelectrostatic_energy": 7.64, 
			 "SMD_solvation_energy": 2.73 
		},
		"coords": [
			{
				"x": -1.4156042323,
				"y": -2.271480935,
				"z": 1.4076601763,
				"element": "C" 
			},
			{
				"x": -0.6290929324,
				"y": -1.0349663863,
				"z": 1.8597574863,
				"element": "C" 
			},
			{
				"x": -0.8505437843,
				"y": 0.2170302511,
				"z": 0.9934255429,
				"element": "C" 
			},
			{
				"x": -0.3120740091,
				"y": 0.098712554,
				"z": -0.4396737765,
				"element": "C" 
			},
			{
				"x": -0.5452497704,
				"y": 1.3476524209,
				"z": -1.3059132449,
				"element": "C" 
			},
			{
				"x": 0.2395597696,
				"y": 2.5950656041,
				"z": -0.8774843747,
				"element": "C" 
			},
			{
				"x": 1.6849613557,
				"y": 2.3409639831,
				"z": -0.8963686213,
				"element": "N" 
			},
			{
				"x": -1.1183096127,
				"y": -2.6035401597,
				"z": 0.4077465828,
				"element": "H" 
			},
			{
				"x": -2.492338543,
				"y": -2.0655879901,
				"z": 1.3811321814,
				"element": "H" 
			},
			{
				"x": -1.2560435468,
				"y": -3.1117533728,
				"z": 2.0917472612,
				"element": "H" 
			},
			{
				"x": -0.906743691,
				"y": -0.7987849118,
				"z": 2.8952300951,
				"element": "H" 
			},
			{
				"x": 0.4435633811,
				"y": -1.2712337773,
				"z": 1.8806922711,
				"element": "H" 
			},
			{
				"x": -0.3688378059,
				"y": 1.0680333499,
				"z": 1.4907232676,
				"element": "H" 
			},
			{
				"x": -1.9260623001,
				"y": 0.4482853567,
				"z": 0.9624396169,
				"element": "H" 
			},
			{
				"x": 0.7639936075,
				"y": -0.1078001463,
				"z": -0.4035167129,
				"element": "H" 
			},
			{
				"x": -0.7841668837,
				"y": -0.756596506,
				"z": -0.938827673,
				"element": "H" 
			},
			{
				"x": -1.614661281,
				"y": 1.5994260305,
				"z": -1.318069705,
				"element": "H" 
			},
			{
				"x": -0.2797505144,
				"y": 1.1142110291,
				"z": -2.3473274566,
				"element": "H" 
			},
			{
				"x": -0.0734085126,
				"y": 3.4389654784,
				"z": -1.5184100113,
				"element": "H" 
			},
			{
				"x": -0.0340374521,
				"y": 2.8726063528,
				"z": 0.1474578885,
				"element": "H" 
			},
			{
				"x": 2.1885885933,
				"y": 3.1573850138,
				"z": -0.5593029939,
				"element": "H" 
			},
			{
				"x": 1.9935581646,
				"y": 2.191706761,
				"z": -1.8550178,
				"element": "H" 
			}
		],
		 "valence_orbital": [ 
			{
				"type": "occ",
				"energy": -0.32885,
				"method": "rhf"
			},
			{
				"type": "occ",
				"energy": -0.31055,
				"method": "rhf"
			},
			{
				"type": "occ",
				"energy": -0.30788,
				"method": "rhf"
			},
			{
				"type": "occ",
				"energy": -0.29745,
				"method": "rhf"
			},
			{
				"type": "occ",
				"energy": -0.22872,
				"method": "rhf"
			},
			{
				"type": "unocc",
				"energy": 0.07999,
				"method": "rhf"
			},
			{
				"type": "unocc",
				"energy": 0.10539,
				"method": "rhf"
			},
			{
				"type": "unocc",
				"energy": 0.11819,
				"method": "rhf"
			},
			{
				"type": "unocc",
				"energy": 0.12817,
				"method": "rhf"
			},
			{
				"type": "unocc",
				"energy": 0.14146,
				"method": "rhf"
			}
		],
		"cosmo_sigma_profile": { 
			"-0.025": 0.0,
			"-0.024": 0.0,
			"-0.023": 0.0,
			"-0.022": 0.0,
			"-0.021": 0.0,
			"-0.02": 0.0,
			"-0.019": 0.0,
			"-0.018": 0.0,
			"-0.017": 0.0,
			"-0.016": 0.0,
			"-0.015": 0.0,
			"-0.014": 0.0,
			"-0.013": 0.0,
			"-0.012": 0.0,
			"-0.011": 0.0,
			"-0.01": 0.254314531219,
			"-0.009": 2.40947015285,
			"-0.008": 2.11555605696,
			"-0.007": 3.27599283318,
			"-0.006": 2.56236086432,
			"-0.005": 2.63902271693,
			"-0.004": 2.79791988756,
			"-0.003": 5.82856812049,
			"-0.002": 21.4772902979,
			"-0.001": 30.2411262508,
			"0.0": 37.5581727474,
			"0.001": 33.6934735104,
			"0.002": 16.4655187606,
			"0.003": 2.07594492115,
			"0.004": 1.27081169624,
			"0.005": 1.29426214787,
			"0.006": 1.12280143858,
			"0.007": 0.864395573038,
			"0.008": 0.886543640828,
			"0.009": 0.622063790039,
			"0.01": 0.856028906029,
			"0.011": 1.31649787025,
			"0.012": 0.411310637072,
			"0.013": 0.569472188058,
			"0.014": 0.984041923965,
			"0.015": 0.437033529607,
			"0.016": 0.500853171268,
			"0.017": 0.450502395244,
			"0.018": 0.731675723107,
			"0.019": 0.0632410809376,
			"0.02": 0.0,
			"0.021": 0.0,
			"0.022": 0.0,
			"0.023": 0.0,
			"0.024": 0.0,
			"0.025": 0.0
		}
	}
}
