{
	 "smiles": "OC(=O)CC1=CSC(=N1)N1CCNC1=O", 
	 "Tm": 453.15, 
	 "num_atms": 24, 
	 "gaussian": { 
		 "optdone": 1, 
		 "sigma_profile": "yes", 
		 "theory": "DFT", 
		 "functional": "B3LYP", 
		 "basiset": "6-31G**", 
		 "properties": { 
			 "R2extent": 4530.4121, 
			 "electric_dipole_moment_norm": 2.77905236547, 
			 "electric_quadrupole_moment_norm": 25.1638547943, 
			 "total_energy": -1098.42045088, 
			 "HOMO_LUMO_gap": 0.19661, 
			 "cosmo_polarized_energy": -20.73, 
			 "cosmo_cavitation_energy": 30.44, 
			 "cosmo_dispersion_energy": -22.68, 
			 "cosmo_repulsion_energy": 1.79, 
			 "cosmo_total_nonelectrostatic_energy": 9.54, 
			 "SMD_solvation_energy": 4.52 
		},
		"coords": [
			{
				"x": 1.6537843071,
				"y": -0.179293855,
				"z": 4.0007731626,
				"element": "O" 
			},
			{
				"x": 0.7554077477,
				"y": 0.8225998967,
				"z": 4.1511648207,
				"element": "C" 
			},
			{
				"x": 0.9855159038,
				"y": 1.8150656914,
				"z": 4.8040980199,
				"element": "O" 
			},
			{
				"x": -0.5571486774,
				"y": 0.5214057975,
				"z": 3.443834388,
				"element": "C" 
			},
			{
				"x": -0.3959946013,
				"y": 0.1390952381,
				"z": 1.9979626766,
				"element": "C" 
			},
			{
				"x": -0.7630588409,
				"y": -1.0432582,
				"z": 1.4312266781,
				"element": "C" 
			},
			{
				"x": -0.4006094923,
				"y": -1.0537028931,
				"z": -0.2765280492,
				"element": "S" 
			},
			{
				"x": 0.2266723078,
				"y": 0.5801871261,
				"z": -0.0745318926,
				"element": "C" 
			},
			{
				"x": 0.1658532835,
				"y": 1.063662468,
				"z": 1.1356527323,
				"element": "N" 
			},
			{
				"x": 0.7316906971,
				"y": 1.3206576948,
				"z": -1.1216312433,
				"element": "N" 
			},
			{
				"x": 1.3490846552,
				"y": 2.6318345438,
				"z": -0.9180321766,
				"element": "C" 
			},
			{
				"x": 1.598263714,
				"y": 3.0925598286,
				"z": -2.3708747662,
				"element": "C" 
			},
			{
				"x": 1.6468489358,
				"y": 1.8210964493,
				"z": -3.0868782366,
				"element": "N" 
			},
			{
				"x": 0.9600445312,
				"y": 0.8319869012,
				"z": -2.4112912555,
				"element": "C" 
			},
			{
				"x": 0.6222290096,
				"y": -0.2624042225,
				"z": -2.8285107493,
				"element": "O" 
			},
			{
				"x": 2.4467684391,
				"y": 0.0987997228,
				"z": 4.4890491014,
				"element": "H" 
			},
			{
				"x": -1.1743311469,
				"y": 1.4180542628,
				"z": 3.5421346416,
				"element": "H" 
			},
			{
				"x": -1.0483323739,
				"y": -0.2937509687,
				"z": 3.986408412,
				"element": "H" 
			},
			{
				"x": -1.2074207087,
				"y": -1.9065676782,
				"z": 1.9057657116,
				"element": "H" 
			},
			{
				"x": 0.683134755,
				"y": 3.2932092422,
				"z": -0.3618983548,
				"element": "H" 
			},
			{
				"x": 2.2812173509,
				"y": 2.527501731,
				"z": -0.3506780014,
				"element": "H" 
			},
			{
				"x": 0.7782757494,
				"y": 3.7311815425,
				"z": -2.7273755417,
				"element": "H" 
			},
			{
				"x": 2.5356473878,
				"y": 3.6466455628,
				"z": -2.4665565412,
				"element": "H" 
			},
			{
				"x": 1.6287570663,
				"y": 1.778934118,
				"z": -4.0952835363,
				"element": "H" 
			}
		],
		 "valence_orbital": [ 
			{
				"type": "occ",
				"energy": -0.27948,
				"method": "rhf"
			},
			{
				"type": "occ",
				"energy": -0.27525,
				"method": "rhf"
			},
			{
				"type": "occ",
				"energy": -0.26954,
				"method": "rhf"
			},
			{
				"type": "occ",
				"energy": -0.26541,
				"method": "rhf"
			},
			{
				"type": "occ",
				"energy": -0.21304,
				"method": "rhf"
			},
			{
				"type": "unocc",
				"energy": -0.01643,
				"method": "rhf"
			},
			{
				"type": "unocc",
				"energy": 0.0136,
				"method": "rhf"
			},
			{
				"type": "unocc",
				"energy": 0.03289,
				"method": "rhf"
			},
			{
				"type": "unocc",
				"energy": 0.0412,
				"method": "rhf"
			},
			{
				"type": "unocc",
				"energy": 0.06444,
				"method": "rhf"
			}
		],
		"cosmo_sigma_profile": { 
			"-0.025": 0.0,
			"-0.024": 0.0,
			"-0.023": 0.0,
			"-0.022": 0.0,
			"-0.021": 0.0,
			"-0.02": 0.0,
			"-0.019": 0.0710777217237,
			"-0.018": 0.706686605566,
			"-0.017": 0.902134368617,
			"-0.016": 0.803957565656,
			"-0.015": 1.56800124682,
			"-0.014": 2.73056380641,
			"-0.013": 1.03708988897,
			"-0.012": 1.9013818405,
			"-0.011": 1.75506851358,
			"-0.01": 1.71893742968,
			"-0.009": 2.59474844087,
			"-0.008": 5.47959513184,
			"-0.007": 8.65973361651,
			"-0.006": 20.6468430377,
			"-0.005": 21.3509032528,
			"-0.004": 16.2959874517,
			"-0.003": 12.7764127494,
			"-0.002": 10.4644972631,
			"-0.001": 9.4549244429,
			"0.0": 10.9260949203,
			"0.001": 11.6853116872,
			"0.002": 11.7422412075,
			"0.003": 13.5697196948,
			"0.004": 11.6203165587,
			"0.005": 9.82723216772,
			"0.006": 8.47180620208,
			"0.007": 6.20938215513,
			"0.008": 7.06634579751,
			"0.009": 6.62726981388,
			"0.01": 4.91589275719,
			"0.011": 7.93831520668,
			"0.012": 8.09419706994,
			"0.013": 3.72573246642,
			"0.014": 0.401695039728,
			"0.015": 0.0,
			"0.016": 0.0,
			"0.017": 0.0,
			"0.018": 0.0,
			"0.019": 0.0,
			"0.02": 0.0,
			"0.021": 0.0,
			"0.022": 0.0,
			"0.023": 0.0,
			"0.024": 0.0,
			"0.025": 0.0
		}
	}
}
