{
	 "smiles": "COC1=CC=CC2=C1N(C)C1=C(CC(O1)C(C)C)C2=O", 
	 "Tm": 392.15, 
	 "num_atms": 39, 
	 "gaussian": { 
		 "optdone": 1, 
		 "sigma_profile": "yes", 
		 "theory": "DFT", 
		 "functional": "B3LYP", 
		 "basiset": "6-31G**", 
		 "properties": { 
			 "R2extent": 6109.6474, 
			 "electric_dipole_moment_norm": 5.17205632413, 
			 "electric_quadrupole_moment_norm": 21.0267812558, 
			 "total_energy": -901.574118471, 
			 "HOMO_LUMO_gap": 0.17091, 
			 "cosmo_polarized_energy": -15.54, 
			 "cosmo_cavitation_energy": 39.84, 
			 "cosmo_dispersion_energy": -28.06, 
			 "cosmo_repulsion_energy": 2.12, 
			 "cosmo_total_nonelectrostatic_energy": 13.9, 
			 "SMD_solvation_energy": 7.59 
		},
		"coords": [
			{
				"x": -3.1555561352,
				"y": -0.1244322561,
				"z": 3.262080966,
				"element": "C" 
			},
			{
				"x": -2.5142049313,
				"y": -1.0862455314,
				"z": 2.4254552037,
				"element": "O" 
			},
			{
				"x": -1.1310313358,
				"y": -1.0876452892,
				"z": 2.4954811275,
				"element": "C" 
			},
			{
				"x": -0.5274630935,
				"y": -1.5965871167,
				"z": 3.6410080177,
				"element": "C" 
			},
			{
				"x": 0.8621832724,
				"y": -1.6210196722,
				"z": 3.7812118436,
				"element": "C" 
			},
			{
				"x": 1.6470578853,
				"y": -1.1218330001,
				"z": 2.7557148876,
				"element": "C" 
			},
			{
				"x": 1.0724027433,
				"y": -0.6210558914,
				"z": 1.5797775835,
				"element": "C" 
			},
			{
				"x": -0.3410315708,
				"y": -0.6116863452,
				"z": 1.4162522041,
				"element": "C" 
			},
			{
				"x": -0.8993393848,
				"y": -0.1354376848,
				"z": 0.2089828713,
				"element": "N" 
			},
			{
				"x": -2.3233306916,
				"y": -0.2456172652,
				"z": -0.1482713073,
				"element": "C" 
			},
			{
				"x": -0.0304060857,
				"y": 0.3663033759,
				"z": -0.7152864594,
				"element": "C" 
			},
			{
				"x": 1.3284238652,
				"y": 0.4284544673,
				"z": -0.6056884578,
				"element": "C" 
			},
			{
				"x": 1.8880501016,
				"y": 1.0413487882,
				"z": -1.8581132933,
				"element": "C" 
			},
			{
				"x": 0.6077103561,
				"y": 1.3285883632,
				"z": -2.6890312609,
				"element": "C" 
			},
			{
				"x": -0.5310716673,
				"y": 0.8538541321,
				"z": -1.8706000264,
				"element": "O" 
			},
			{
				"x": 0.5359152298,
				"y": 0.6731507354,
				"z": -4.0749214732,
				"element": "C" 
			},
			{
				"x": 0.5799982366,
				"y": -0.8606855692,
				"z": -4.0127377464,
				"element": "C" 
			},
			{
				"x": -0.6936918229,
				"y": 1.1604562658,
				"z": -4.8563738922,
				"element": "C" 
			},
			{
				"x": 2.0078674317,
				"y": -0.0894043504,
				"z": 0.538750284,
				"element": "C" 
			},
			{
				"x": 3.2370100372,
				"y": -0.1039589171,
				"z": 0.6866285462,
				"element": "O" 
			},
			{
				"x": -4.2305398987,
				"y": -0.273630181,
				"z": 3.1393538674,
				"element": "H" 
			},
			{
				"x": -2.8910893731,
				"y": -0.2636633099,
				"z": 4.3170164276,
				"element": "H" 
			},
			{
				"x": -2.8929971886,
				"y": 0.9005506667,
				"z": 2.9669534102,
				"element": "H" 
			},
			{
				"x": -1.174434763,
				"y": -1.9799895731,
				"z": 4.4244134523,
				"element": "H" 
			},
			{
				"x": 1.3124282022,
				"y": -2.0228363361,
				"z": 4.6836504832,
				"element": "H" 
			},
			{
				"x": 2.730330962,
				"y": -1.0991603391,
				"z": 2.8098902953,
				"element": "H" 
			},
			{
				"x": -2.930914208,
				"y": 0.4653368805,
				"z": 0.4160446289,
				"element": "H" 
			},
			{
				"x": -2.4156933949,
				"y": -0.0238192405,
				"z": -1.2086676035,
				"element": "H" 
			},
			{
				"x": -2.6854061033,
				"y": -1.2519513509,
				"z": 0.0524694923,
				"element": "H" 
			},
			{
				"x": 2.5739935874,
				"y": 0.3618541145,
				"z": -2.3780365273,
				"element": "H" 
			},
			{
				"x": 2.4500365228,
				"y": 1.9605585916,
				"z": -1.6585088886,
				"element": "H" 
			},
			{
				"x": 0.4438756907,
				"y": 2.4062545476,
				"z": -2.79404749,
				"element": "H" 
			},
			{
				"x": 1.436498966,
				"y": 1.0245470518,
				"z": -4.6004092162,
				"element": "H" 
			},
			{
				"x": 1.459333055,
				"y": -1.2306826361,
				"z": -3.4773403237,
				"element": "H" 
			},
			{
				"x": 0.606272423,
				"y": -1.2804475628,
				"z": -5.023111943,
				"element": "H" 
			},
			{
				"x": -0.3101951746,
				"y": -1.252740596,
				"z": -3.5110564453,
				"element": "H" 
			},
			{
				"x": -0.7012472169,
				"y": 2.2518530105,
				"z": -4.9527238313,
				"element": "H" 
			},
			{
				"x": -1.618299931,
				"y": 0.8614244828,
				"z": -4.3518847812,
				"element": "H" 
			},
			{
				"x": -0.7086445974,
				"y": 0.7347945402,
				"z": -5.8647246252,
				"element": "H" 
			}
		],
		 "valence_orbital": [ 
			{
				"type": "occ",
				"energy": -0.28529,
				"method": "rhf"
			},
			{
				"type": "occ",
				"energy": -0.23839,
				"method": "rhf"
			},
			{
				"type": "occ",
				"energy": -0.23221,
				"method": "rhf"
			},
			{
				"type": "occ",
				"energy": -0.21558,
				"method": "rhf"
			},
			{
				"type": "occ",
				"energy": -0.19674,
				"method": "rhf"
			},
			{
				"type": "unocc",
				"energy": -0.02583,
				"method": "rhf"
			},
			{
				"type": "unocc",
				"energy": -0.00446,
				"method": "rhf"
			},
			{
				"type": "unocc",
				"energy": 0.03036,
				"method": "rhf"
			},
			{
				"type": "unocc",
				"energy": 0.0697,
				"method": "rhf"
			},
			{
				"type": "unocc",
				"energy": 0.08169,
				"method": "rhf"
			}
		],
		"cosmo_sigma_profile": { 
			"-0.025": 0.0,
			"-0.024": 0.0,
			"-0.023": 0.0,
			"-0.022": 0.0,
			"-0.021": 0.0,
			"-0.02": 0.0,
			"-0.019": 0.0,
			"-0.018": 0.0,
			"-0.017": 0.0,
			"-0.016": 0.0,
			"-0.015": 0.0,
			"-0.014": 0.0,
			"-0.013": 0.0,
			"-0.012": 0.0,
			"-0.011": 0.0,
			"-0.01": 0.0,
			"-0.009": 0.0,
			"-0.008": 0.0,
			"-0.007": 0.928717453312,
			"-0.006": 7.61707775304,
			"-0.005": 23.7187918461,
			"-0.004": 34.2698543565,
			"-0.003": 38.491856702,
			"-0.002": 37.0076600118,
			"-0.001": 31.507470746,
			"0.0": 28.0640204895,
			"0.001": 28.3607261469,
			"0.002": 17.7657478195,
			"0.003": 15.2318554126,
			"0.004": 13.8746461547,
			"0.005": 7.05463287421,
			"0.006": 3.84686504252,
			"0.007": 3.07134390203,
			"0.008": 2.35822109363,
			"0.009": 2.2552164989,
			"0.01": 2.4981397786,
			"0.011": 1.7674110893,
			"0.012": 2.30186438332,
			"0.013": 1.49669928473,
			"0.014": 2.55792257833,
			"0.015": 5.90533528649,
			"0.016": 1.90982928718,
			"0.017": 0.0218254358634,
			"0.018": 0.0,
			"0.019": 0.0,
			"0.02": 0.0,
			"0.021": 0.0,
			"0.022": 0.0,
			"0.023": 0.0,
			"0.024": 0.0,
			"0.025": 0.0
		}
	}
}
