{
	 "smiles": "NC1=NN=NS1", 
	 "Tm": 394.15, 
	 "num_atms": 8, 
	 "gaussian": { 
		 "optdone": 1, 
		 "sigma_profile": "yes", 
		 "theory": "DFT", 
		 "functional": "B3LYP", 
		 "basiset": "6-31G**", 
		 "properties": { 
			 "R2extent": 1022.9276, 
			 "electric_dipole_moment_norm": 5.40107465603, 
			 "electric_quadrupole_moment_norm": 13.1527375447, 
			 "total_energy": -656.442437692, 
			 "HOMO_LUMO_gap": 0.21594, 
			 "cosmo_polarized_energy": -15.18, 
			 "cosmo_cavitation_energy": 14.44, 
			 "cosmo_dispersion_energy": -11.69, 
			 "cosmo_repulsion_energy": 0.96, 
			 "cosmo_total_nonelectrostatic_energy": 3.71, 
			 "SMD_solvation_energy": 0.33 
		},
		"coords": [
			{
				"x": -1.6959015639,
				"y": -0.1537093862,
				"z": 0.6777979442,
				"element": "N" 
			},
			{
				"x": -1.1038677887,
				"y": 0.9641845812,
				"z": 0.1956911919,
				"element": "C" 
			},
			{
				"x": -1.6506101002,
				"y": 2.1635048518,
				"z": 0.3478680082,
				"element": "N" 
			},
			{
				"x": -0.8611439418,
				"y": 3.1215710736,
				"z": -0.1701810666,
				"element": "N" 
			},
			{
				"x": 0.2302592763,
				"y": 2.7951210187,
				"z": -0.7103534113,
				"element": "N" 
			},
			{
				"x": 0.42608231,
				"y": 1.0272026802,
				"z": -0.6132650102,
				"element": "S" 
			},
			{
				"x": -1.4133611872,
				"y": -1.0633045488,
				"z": 0.3530859942,
				"element": "H" 
			},
			{
				"x": -2.6466570045,
				"y": -0.0497702705,
				"z": 1.0022563497,
				"element": "H" 
			}
		],
		 "valence_orbital": [ 
			{
				"type": "occ",
				"energy": -0.37535,
				"method": "rhf"
			},
			{
				"type": "occ",
				"energy": -0.30437,
				"method": "rhf"
			},
			{
				"type": "occ",
				"energy": -0.29398,
				"method": "rhf"
			},
			{
				"type": "occ",
				"energy": -0.27637,
				"method": "rhf"
			},
			{
				"type": "occ",
				"energy": -0.26439,
				"method": "rhf"
			},
			{
				"type": "unocc",
				"energy": -0.04845,
				"method": "rhf"
			},
			{
				"type": "unocc",
				"energy": -0.03315,
				"method": "rhf"
			},
			{
				"type": "unocc",
				"energy": 0.02447,
				"method": "rhf"
			},
			{
				"type": "unocc",
				"energy": 0.05161,
				"method": "rhf"
			},
			{
				"type": "unocc",
				"energy": 0.07709,
				"method": "rhf"
			}
		],
		"cosmo_sigma_profile": { 
			"-0.025": 0.0,
			"-0.024": 0.0,
			"-0.023": 0.0,
			"-0.022": 0.0,
			"-0.021": 0.0,
			"-0.02": 0.0,
			"-0.019": 0.0,
			"-0.018": 0.0,
			"-0.017": 0.612772595781,
			"-0.016": 2.18621645979,
			"-0.015": 2.85177492706,
			"-0.014": 3.21703963352,
			"-0.013": 2.91986186888,
			"-0.012": 2.24475635971,
			"-0.011": 1.65635081385,
			"-0.01": 2.0619738151,
			"-0.009": 1.7202418105,
			"-0.008": 1.91342769158,
			"-0.007": 1.71271769532,
			"-0.006": 1.94438670802,
			"-0.005": 1.95588088275,
			"-0.004": 3.72058942228,
			"-0.003": 6.07704075411,
			"-0.002": 8.28440373029,
			"-0.001": 8.95898043057,
			"0.0": 7.57434687435,
			"0.001": 8.13928034464,
			"0.002": 5.96588129054,
			"0.003": 3.66087241407,
			"0.004": 3.34527358891,
			"0.005": 3.17200208908,
			"0.006": 4.47396807024,
			"0.007": 3.7465140468,
			"0.008": 6.07345107892,
			"0.009": 5.16134261392,
			"0.01": 5.19068996197,
			"0.011": 3.30229716999,
			"0.012": 3.15907463716,
			"0.013": 1.23370556098,
			"0.014": 0.334013667313,
			"0.015": 0.0,
			"0.016": 0.0,
			"0.017": 0.0,
			"0.018": 0.0,
			"0.019": 0.0,
			"0.02": 0.0,
			"0.021": 0.0,
			"0.022": 0.0,
			"0.023": 0.0,
			"0.024": 0.0,
			"0.025": 0.0
		}
	}
}
