{
	 "smiles": "CC1=CC(C)=C(CCO)C(C)=C1", 
	 "Tm": 355.15, 
	 "num_atms": 28, 
	 "gaussian": { 
		 "optdone": 1, 
		 "sigma_profile": "yes", 
		 "theory": "DFT", 
		 "functional": "B3LYP", 
		 "basiset": "6-31G**", 
		 "properties": { 
			 "R2extent": 2475.8666, 
			 "electric_dipole_moment_norm": 1.63393979081, 
			 "electric_quadrupole_moment_norm": 9.79485322095, 
			 "total_energy": -504.052988146, 
			 "HOMO_LUMO_gap": 0.22478, 
			 "cosmo_polarized_energy": -6.58, 
			 "cosmo_cavitation_energy": 28.8, 
			 "cosmo_dispersion_energy": -20.87, 
			 "cosmo_repulsion_energy": 1.66, 
			 "cosmo_total_nonelectrostatic_energy": 9.59, 
			 "SMD_solvation_energy": 4.92 
		},
		"coords": [
			{
				"x": 1.492324502,
				"y": 2.6756291238,
				"z": -2.021251212,
				"element": "C" 
			},
			{
				"x": 0.9817787753,
				"y": 1.4935983475,
				"z": -1.230888543,
				"element": "C" 
			},
			{
				"x": 0.5566124732,
				"y": 0.3265724212,
				"z": -1.8678657502,
				"element": "C" 
			},
			{
				"x": 0.0547278101,
				"y": -0.7705629103,
				"z": -1.1557200339,
				"element": "C" 
			},
			{
				"x": -0.4221972631,
				"y": -1.9852157123,
				"z": -1.9273806306,
				"element": "C" 
			},
			{
				"x": -0.0199634907,
				"y": -0.7074529984,
				"z": 0.254431441,
				"element": "C" 
			},
			{
				"x": -0.5134767444,
				"y": -1.9013052009,
				"z": 1.0531475096,
				"element": "C" 
			},
			{
				"x": 0.6256999447,
				"y": -2.8279234268,
				"z": 1.526879485,
				"element": "C" 
			},
			{
				"x": 1.4162643995,
				"y": -3.3425763747,
				"z": 0.4645596768,
				"element": "O" 
			},
			{
				"x": 0.3996269936,
				"y": 0.47131698,
				"z": 0.9129196232,
				"element": "C" 
			},
			{
				"x": 0.3088764588,
				"y": 0.6155135408,
				"z": 2.4177232953,
				"element": "C" 
			},
			{
				"x": 0.8916709391,
				"y": 1.5440169161,
				"z": 0.1630580878,
				"element": "C" 
			},
			{
				"x": 0.6939776546,
				"y": 3.4057822784,
				"z": -2.2051537124,
				"element": "H" 
			},
			{
				"x": 2.2916024874,
				"y": 3.1998583067,
				"z": -1.4877063391,
				"element": "H" 
			},
			{
				"x": 1.8815822519,
				"y": 2.3672530566,
				"z": -2.9961162123,
				"element": "H" 
			},
			{
				"x": 0.612660853,
				"y": 0.264145529,
				"z": -2.9526824125,
				"element": "H" 
			},
			{
				"x": -0.1907621462,
				"y": -1.880876788,
				"z": -2.9908432719,
				"element": "H" 
			},
			{
				"x": -1.5088621743,
				"y": -2.1119841698,
				"z": -1.8406558208,
				"element": "H" 
			},
			{
				"x": 0.0395653459,
				"y": -2.9063131099,
				"z": -1.5620871775,
				"element": "H" 
			},
			{
				"x": -1.212179415,
				"y": -2.4945041364,
				"z": 0.456626996,
				"element": "H" 
			},
			{
				"x": -1.0664922517,
				"y": -1.5687008426,
				"z": 1.9391811829,
				"element": "H" 
			},
			{
				"x": 0.2005918457,
				"y": -3.7002312294,
				"z": 2.0341247247,
				"element": "H" 
			},
			{
				"x": 1.2574336388,
				"y": -2.3005644323,
				"z": 2.2585991783,
				"element": "H" 
			},
			{
				"x": 1.8200664203,
				"y": -2.5840449188,
				"z": 0.020142501,
				"element": "H" 
			},
			{
				"x": 0.6851555621,
				"y": 1.591455136,
				"z": 2.7353410467,
				"element": "H" 
			},
			{
				"x": -0.7262312192,
				"y": 0.5318616539,
				"z": 2.7708021817,
				"element": "H" 
			},
			{
				"x": 0.8871545829,
				"y": -0.1485509436,
				"z": 2.9483489887,
				"element": "H" 
			},
			{
				"x": 1.2127917656,
				"y": 2.4441039041,
				"z": 0.6835651977,
				"element": "H" 
			}
		],
		 "valence_orbital": [ 
			{
				"type": "occ",
				"energy": -0.32448,
				"method": "rhf"
			},
			{
				"type": "occ",
				"energy": -0.31187,
				"method": "rhf"
			},
			{
				"type": "occ",
				"energy": -0.26631,
				"method": "rhf"
			},
			{
				"type": "occ",
				"energy": -0.23292,
				"method": "rhf"
			},
			{
				"type": "occ",
				"energy": -0.22465,
				"method": "rhf"
			},
			{
				"type": "unocc",
				"energy": 0.00013,
				"method": "rhf"
			},
			{
				"type": "unocc",
				"energy": 0.0071,
				"method": "rhf"
			},
			{
				"type": "unocc",
				"energy": 0.08618,
				"method": "rhf"
			},
			{
				"type": "unocc",
				"energy": 0.10352,
				"method": "rhf"
			},
			{
				"type": "unocc",
				"energy": 0.10553,
				"method": "rhf"
			}
		],
		"cosmo_sigma_profile": { 
			"-0.025": 0.0,
			"-0.024": 0.0,
			"-0.023": 0.0,
			"-0.022": 0.0,
			"-0.021": 0.0,
			"-0.02": 0.0,
			"-0.019": 0.0,
			"-0.018": 0.0,
			"-0.017": 0.0,
			"-0.016": 0.0,
			"-0.015": 0.0,
			"-0.014": 0.0,
			"-0.013": 0.0666350148301,
			"-0.012": 0.885727537643,
			"-0.011": 0.54261721136,
			"-0.01": 0.456356909975,
			"-0.009": 0.918547468356,
			"-0.008": 0.973554559895,
			"-0.007": 0.962336386547,
			"-0.006": 0.913989546938,
			"-0.005": 3.08983121887,
			"-0.004": 23.0760202294,
			"-0.003": 32.0471500516,
			"-0.002": 26.8766582558,
			"-0.001": 25.7324097589,
			"0.0": 30.0623289396,
			"0.001": 23.5885985244,
			"0.002": 9.78961757973,
			"0.003": 7.8755171101,
			"0.004": 7.26495157594,
			"0.005": 6.8193581897,
			"0.006": 7.3033501541,
			"0.007": 5.55447005321,
			"0.008": 1.36981606376,
			"0.009": 1.29843204608,
			"0.01": 1.17365774999,
			"0.011": 0.78012652837,
			"0.012": 1.52049377108,
			"0.013": 1.29907036171,
			"0.014": 2.06198406238,
			"0.015": 0.644113326519,
			"0.016": 0.0,
			"0.017": 0.0,
			"0.018": 0.0,
			"0.019": 0.0,
			"0.02": 0.0,
			"0.021": 0.0,
			"0.022": 0.0,
			"0.023": 0.0,
			"0.024": 0.0,
			"0.025": 0.0
		}
	}
}
