{
	 "smiles": "NC1=NN=C(Br)S1", 
	 "Tm": 441.15, 
	 "num_atms": 9, 
	 "gaussian": { 
		 "optdone": 1, 
		 "sigma_profile": "yes", 
		 "theory": "DFT", 
		 "functional": "B3LYP", 
		 "basiset": "6-31G**", 
		 "properties": { 
			 "R2extent": 3512.2373, 
			 "electric_dipole_moment_norm": 4.14056328777, 
			 "electric_quadrupole_moment_norm": 11.9743265568, 
			 "total_energy": -3211.21914652, 
			 "HOMO_LUMO_gap": 0.20619, 
			 "cosmo_polarized_energy": -13.09, 
			 "cosmo_cavitation_energy": 17.84, 
			 "cosmo_dispersion_energy": -14.61, 
			 "cosmo_repulsion_energy": 1.2, 
			 "cosmo_total_nonelectrostatic_energy": 4.43, 
			 "SMD_solvation_energy": -0.11 
		},
		"coords": [
			{
				"x": -0.9045924369,
				"y": -0.7350069689,
				"z": -1.3097402027,
				"element": "N" 
			},
			{
				"x": -0.0949325376,
				"y": 0.3663675534,
				"z": -1.4097652953,
				"element": "C" 
			},
			{
				"x": -0.2599313491,
				"y": 1.2979769925,
				"z": -2.3130752839,
				"element": "N" 
			},
			{
				"x": 0.6137613413,
				"y": 2.3461442387,
				"z": -2.1647411957,
				"element": "N" 
			},
			{
				"x": 1.4233973387,
				"y": 2.1882523772,
				"z": -1.1761628254,
				"element": "C" 
			},
			{
				"x": 2.7696567058,
				"y": 3.4187263965,
				"z": -0.7117003551,
				"element": "Br" 
			},
			{
				"x": 1.1976829142,
				"y": 0.6981877418,
				"z": -0.2551070114,
				"element": "S" 
			},
			{
				"x": -0.4853142682,
				"y": -1.5924047419,
				"z": -0.980212637,
				"element": "H" 
			},
			{
				"x": -1.5119277082,
				"y": -0.8505435893,
				"z": -2.1115951935,
				"element": "H" 
			}
		],
		 "valence_orbital": [ 
			{
				"type": "occ",
				"energy": -0.31746,
				"method": "rhf"
			},
			{
				"type": "occ",
				"energy": -0.3061,
				"method": "rhf"
			},
			{
				"type": "occ",
				"energy": -0.29615,
				"method": "rhf"
			},
			{
				"type": "occ",
				"energy": -0.27259,
				"method": "rhf"
			},
			{
				"type": "occ",
				"energy": -0.24004,
				"method": "rhf"
			},
			{
				"type": "unocc",
				"energy": -0.03385,
				"method": "rhf"
			},
			{
				"type": "unocc",
				"energy": -0.02659,
				"method": "rhf"
			},
			{
				"type": "unocc",
				"energy": -0.00248,
				"method": "rhf"
			},
			{
				"type": "unocc",
				"energy": 0.03152,
				"method": "rhf"
			},
			{
				"type": "unocc",
				"energy": 0.05891,
				"method": "rhf"
			}
		],
		"cosmo_sigma_profile": { 
			"-0.025": 0.0,
			"-0.024": 0.0,
			"-0.023": 0.0,
			"-0.022": 0.0,
			"-0.021": 0.0,
			"-0.02": 0.0,
			"-0.019": 0.0,
			"-0.018": 0.0,
			"-0.017": 0.0,
			"-0.016": 0.366484904917,
			"-0.015": 2.17410485964,
			"-0.014": 3.0660444409,
			"-0.013": 2.85498961652,
			"-0.012": 2.45105756589,
			"-0.011": 2.72258602133,
			"-0.01": 1.72387026451,
			"-0.009": 2.12748650936,
			"-0.008": 1.80501451443,
			"-0.007": 2.3913439887,
			"-0.006": 3.58785279855,
			"-0.005": 2.95302906185,
			"-0.004": 4.21919396312,
			"-0.003": 8.67796791746,
			"-0.002": 12.6107778522,
			"-0.001": 12.7809039573,
			"0.0": 11.9211311132,
			"0.001": 12.7536270914,
			"0.002": 13.8793363349,
			"0.003": 11.2928229585,
			"0.004": 4.16632038951,
			"0.005": 3.39446966793,
			"0.006": 2.23096480482,
			"0.007": 3.14696500069,
			"0.008": 2.9726851317,
			"0.009": 3.24609000878,
			"0.01": 3.19378944725,
			"0.011": 3.27649366561,
			"0.012": 2.79334816562,
			"0.013": 2.78958744114,
			"0.014": 1.2862784526,
			"0.015": 0.328461297654,
			"0.016": 0.0,
			"0.017": 0.0,
			"0.018": 0.0,
			"0.019": 0.0,
			"0.02": 0.0,
			"0.021": 0.0,
			"0.022": 0.0,
			"0.023": 0.0,
			"0.024": 0.0,
			"0.025": 0.0
		}
	}
}
