{
	 "smiles": "CC(C(C#N)C(N)=O)C(C#N)C(N)=O", 
	 "Tm": 429.15, 
	 "num_atms": 24, 
	 "gaussian": { 
		 "optdone": 1, 
		 "sigma_profile": "yes", 
		 "theory": "DFT", 
		 "functional": "B3LYP", 
		 "basiset": "6-31G**", 
		 "properties": { 
			 "R2extent": 2911.0126, 
			 "electric_dipole_moment_norm": 8.73149541087, 
			 "electric_quadrupole_moment_norm": 28.6613303158, 
			 "total_energy": -680.324796632, 
			 "HOMO_LUMO_gap": 0.22361, 
			 "cosmo_polarized_energy": -32.07, 
			 "cosmo_cavitation_energy": 28.89, 
			 "cosmo_dispersion_energy": -19.2, 
			 "cosmo_repulsion_energy": 1.54, 
			 "cosmo_total_nonelectrostatic_energy": 11.23, 
			 "SMD_solvation_energy": 8.56 
		},
		"coords": [
			{
				"x": -2.1369822759,
				"y": -1.3186212732,
				"z": -0.5017328429,
				"element": "C" 
			},
			{
				"x": -0.8832204357,
				"y": -1.5811751793,
				"z": 0.3426126886,
				"element": "C" 
			},
			{
				"x": -1.161813565,
				"y": -1.2809303644,
				"z": 1.858735318,
				"element": "C" 
			},
			{
				"x": -1.6811066768,
				"y": 0.0671161674,
				"z": 2.124279654,
				"element": "C" 
			},
			{
				"x": -2.1267058867,
				"y": 1.1113591411,
				"z": 2.3628298272,
				"element": "N" 
			},
			{
				"x": 0.0753018413,
				"y": -1.5418424884,
				"z": 2.7472385724,
				"element": "C" 
			},
			{
				"x": 0.0449331129,
				"y": -2.6997051742,
				"z": 3.4500099135,
				"element": "N" 
			},
			{
				"x": 1.0337945305,
				"y": -0.776691171,
				"z": 2.7752866197,
				"element": "O" 
			},
			{
				"x": 0.3989802019,
				"y": -0.8840680231,
				"z": -0.228499777,
				"element": "C" 
			},
			{
				"x": 0.7096445148,
				"y": -1.4669842987,
				"z": -1.5381255143,
				"element": "C" 
			},
			{
				"x": 0.9589839236,
				"y": -1.9784585637,
				"z": -2.5494096711,
				"element": "N" 
			},
			{
				"x": 0.2650141798,
				"y": 0.6602242385,
				"z": -0.3570698108,
				"element": "C" 
			},
			{
				"x": 0.877529347,
				"y": 1.342552063,
				"z": 0.6454364641,
				"element": "N" 
			},
			{
				"x": -0.3296009314,
				"y": 1.1728503402,
				"z": -1.2905321903,
				"element": "O" 
			},
			{
				"x": -1.9670412923,
				"y": -1.636186364,
				"z": -1.5331274112,
				"element": "H" 
			},
			{
				"x": -2.9885217986,
				"y": -1.882605268,
				"z": -0.1071029229,
				"element": "H" 
			},
			{
				"x": -2.3934077448,
				"y": -0.257433879,
				"z": -0.5188482994,
				"element": "H" 
			},
			{
				"x": -0.6647042281,
				"y": -2.6557568124,
				"z": 0.3137052268,
				"element": "H" 
			},
			{
				"x": -1.9657223167,
				"y": -1.9699800311,
				"z": 2.1470159308,
				"element": "H" 
			},
			{
				"x": 0.838041662,
				"y": -2.9186300916,
				"z": 4.0361174238,
				"element": "H" 
			},
			{
				"x": -0.7646391296,
				"y": -3.2975908661,
				"z": 3.4870701311,
				"element": "H" 
			},
			{
				"x": 1.2415179442,
				"y": -1.1150858636,
				"z": 0.4299193384,
				"element": "H" 
			},
			{
				"x": 0.67955959,
				"y": 2.3322261914,
				"z": 0.6969693784,
				"element": "H" 
			},
			{
				"x": 1.1395654335,
				"y": 0.8594175701,
				"z": 1.498821953,
				"element": "H" 
			}
		],
		 "valence_orbital": [ 
			{
				"type": "occ",
				"energy": -0.325,
				"method": "rhf"
			},
			{
				"type": "occ",
				"energy": -0.31935,
				"method": "rhf"
			},
			{
				"type": "occ",
				"energy": -0.30329,
				"method": "rhf"
			},
			{
				"type": "occ",
				"energy": -0.27335,
				"method": "rhf"
			},
			{
				"type": "occ",
				"energy": -0.25779,
				"method": "rhf"
			},
			{
				"type": "unocc",
				"energy": -0.03418,
				"method": "rhf"
			},
			{
				"type": "unocc",
				"energy": -0.00594,
				"method": "rhf"
			},
			{
				"type": "unocc",
				"energy": 0.00518,
				"method": "rhf"
			},
			{
				"type": "unocc",
				"energy": 0.02671,
				"method": "rhf"
			},
			{
				"type": "unocc",
				"energy": 0.03459,
				"method": "rhf"
			}
		],
		"cosmo_sigma_profile": { 
			"-0.025": 0.0,
			"-0.024": 0.0,
			"-0.023": 0.0,
			"-0.022": 0.0,
			"-0.021": 0.0,
			"-0.02": 0.0,
			"-0.019": 0.0,
			"-0.018": 0.0,
			"-0.017": 0.355225397648,
			"-0.016": 2.36956258497,
			"-0.015": 3.97567189471,
			"-0.014": 3.88728292049,
			"-0.013": 4.15738505486,
			"-0.012": 3.78262591696,
			"-0.011": 4.7676581862,
			"-0.01": 5.73071745983,
			"-0.009": 7.69658114563,
			"-0.008": 9.11053150969,
			"-0.007": 7.28255712772,
			"-0.006": 8.42561049572,
			"-0.005": 8.32150151403,
			"-0.004": 8.79780497165,
			"-0.003": 11.1267889484,
			"-0.002": 10.3522572628,
			"-0.001": 12.6594488414,
			"0.0": 10.9062087967,
			"0.001": 7.5052509186,
			"0.002": 7.65004711811,
			"0.003": 8.0558513006,
			"0.004": 7.41151275181,
			"0.005": 7.89864926977,
			"0.006": 7.09394064593,
			"0.007": 9.91431294872,
			"0.008": 8.24276420265,
			"0.009": 8.89597717276,
			"0.01": 8.51279048872,
			"0.011": 8.7610577721,
			"0.012": 9.23399237457,
			"0.013": 5.9416979036,
			"0.014": 0.441266461612,
			"0.015": 0.0,
			"0.016": 0.0,
			"0.017": 0.0,
			"0.018": 0.0,
			"0.019": 0.0,
			"0.02": 0.0,
			"0.021": 0.0,
			"0.022": 0.0,
			"0.023": 0.0,
			"0.024": 0.0,
			"0.025": 0.0
		}
	}
}
