{
	 "smiles": "FC1=CC=C(C=C1)C1(CCOCC1)N=[N+]=[N-]", 
	 "Tm": 337.15, 
	 "num_atms": 28, 
	 "gaussian": { 
		 "optdone": 1, 
		 "sigma_profile": "yes", 
		 "theory": "DFT", 
		 "functional": "B3LYP", 
		 "basiset": "6-31G**", 
		 "properties": { 
			 "R2extent": 5120.6599, 
			 "electric_dipole_moment_norm": 2.715855484, 
			 "electric_quadrupole_moment_norm": 21.5456398728, 
			 "total_energy": -765.625207044, 
			 "HOMO_LUMO_gap": 0.21701, 
			 "cosmo_polarized_energy": -9.42, 
			 "cosmo_cavitation_energy": 31.25, 
			 "cosmo_dispersion_energy": -22.02, 
			 "cosmo_repulsion_energy": 1.67, 
			 "cosmo_total_nonelectrostatic_energy": 10.9, 
			 "SMD_solvation_energy": 3.55 
		},
		"coords": [
			{
				"x": 2.6541642276,
				"y": -2.8770587881,
				"z": -1.2688447646,
				"element": "F" 
			},
			{
				"x": 2.0086227665,
				"y": -1.703804994,
				"z": -1.1033424191,
				"element": "C" 
			},
			{
				"x": 0.7624726058,
				"y": -1.5289341752,
				"z": -1.6947338289,
				"element": "C" 
			},
			{
				"x": 0.1038740666,
				"y": -0.3135623403,
				"z": -1.5203916235,
				"element": "C" 
			},
			{
				"x": 0.6711450693,
				"y": 0.7265278118,
				"z": -0.7657908589,
				"element": "C" 
			},
			{
				"x": 1.9261078939,
				"y": 0.5095724035,
				"z": -0.184325625,
				"element": "C" 
			},
			{
				"x": 2.6018172353,
				"y": -0.7008056143,
				"z": -0.3496637789,
				"element": "C" 
			},
			{
				"x": -0.0922211384,
				"y": 2.0476599421,
				"z": -0.5872949282,
				"element": "C" 
			},
			{
				"x": -0.3707013577,
				"y": 2.7322800087,
				"z": -1.9570158285,
				"element": "C" 
			},
			{
				"x": -1.6483176355,
				"y": 3.5975931171,
				"z": -1.9088925459,
				"element": "C" 
			},
			{
				"x": -1.8540787828,
				"y": 4.1330015424,
				"z": -0.6119608121,
				"element": "O" 
			},
			{
				"x": -2.2072378235,
				"y": 3.1297535239,
				"z": 0.3387812568,
				"element": "C" 
			},
			{
				"x": -1.4464763413,
				"y": 1.8051710961,
				"z": 0.123003252,
				"element": "C" 
			},
			{
				"x": 0.7123689736,
				"y": 2.9074676578,
				"z": 0.3430046302,
				"element": "N" 
			},
			{
				"x": 0.9501811202,
				"y": 4.0732007025,
				"z": 0.0272913505,
				"element": "N" 
			},
			{
				"x": 1.2475621689,
				"y": 5.1628179378,
				"z": -0.1454634797,
				"element": "N" 
			},
			{
				"x": 0.3262290195,
				"y": -2.3327347461,
				"z": -2.2778209921,
				"element": "H" 
			},
			{
				"x": -0.8686248188,
				"y": -0.1846088049,
				"z": -1.986844232,
				"element": "H" 
			},
			{
				"x": 2.3769884747,
				"y": 1.2975803095,
				"z": 0.4064680939,
				"element": "H" 
			},
			{
				"x": 3.5754542424,
				"y": -0.8697268835,
				"z": 0.0977007679,
				"element": "H" 
			},
			{
				"x": 0.4992066626,
				"y": 3.3315774821,
				"z": -2.2451072989,
				"element": "H" 
			},
			{
				"x": -0.4775097182,
				"y": 1.9633505212,
				"z": -2.7270403853,
				"element": "H" 
			},
			{
				"x": -2.5247930481,
				"y": 3.0075748958,
				"z": -2.223581679,
				"element": "H" 
			},
			{
				"x": -1.5678608282,
				"y": 4.4510469979,
				"z": -2.5872633793,
				"element": "H" 
			},
			{
				"x": -1.9671327654,
				"y": 3.5573289514,
				"z": 1.3155203595,
				"element": "H" 
			},
			{
				"x": -3.2929669954,
				"y": 2.9454916025,
				"z": 0.3057607593,
				"element": "H" 
			},
			{
				"x": -1.2730304646,
				"y": 1.3087356989,
				"z": 1.0819150802,
				"element": "H" 
			},
			{
				"x": -2.0370428089,
				"y": 1.1167041434,
				"z": -0.4907670904,
				"element": "H" 
			}
		],
		 "valence_orbital": [ 
			{
				"type": "occ",
				"energy": -0.29436,
				"method": "rhf"
			},
			{
				"type": "occ",
				"energy": -0.26527,
				"method": "rhf"
			},
			{
				"type": "occ",
				"energy": -0.26166,
				"method": "rhf"
			},
			{
				"type": "occ",
				"energy": -0.25017,
				"method": "rhf"
			},
			{
				"type": "occ",
				"energy": -0.24306,
				"method": "rhf"
			},
			{
				"type": "unocc",
				"energy": -0.02605,
				"method": "rhf"
			},
			{
				"type": "unocc",
				"energy": -0.01617,
				"method": "rhf"
			},
			{
				"type": "unocc",
				"energy": -0.00487,
				"method": "rhf"
			},
			{
				"type": "unocc",
				"energy": 0.021,
				"method": "rhf"
			},
			{
				"type": "unocc",
				"energy": 0.06605,
				"method": "rhf"
			}
		],
		"cosmo_sigma_profile": { 
			"-0.025": 0.0,
			"-0.024": 0.0,
			"-0.023": 0.0,
			"-0.022": 0.0,
			"-0.021": 0.0,
			"-0.02": 0.0,
			"-0.019": 0.0,
			"-0.018": 0.0,
			"-0.017": 0.0,
			"-0.016": 0.0,
			"-0.015": 0.0,
			"-0.014": 0.0,
			"-0.013": 0.0,
			"-0.012": 0.0,
			"-0.011": 0.0,
			"-0.01": 0.0,
			"-0.009": 0.123914254968,
			"-0.008": 1.02409266112,
			"-0.007": 5.74774295549,
			"-0.006": 9.83453564913,
			"-0.005": 17.8304290505,
			"-0.004": 28.4929939361,
			"-0.003": 24.5283059022,
			"-0.002": 21.3788769036,
			"-0.001": 18.2315338403,
			"0.0": 14.2228207671,
			"0.001": 15.7981101332,
			"0.002": 15.8577496992,
			"0.003": 16.8236790794,
			"0.004": 22.5515707793,
			"0.005": 10.4405333993,
			"0.006": 4.94038873151,
			"0.007": 6.49679388986,
			"0.008": 6.90451558709,
			"0.009": 2.30296755037,
			"0.01": 1.11001458462,
			"0.011": 1.40717494383,
			"0.012": 0.747999895331,
			"0.013": 1.26717075528,
			"0.014": 0.124081686288,
			"0.015": 0.0,
			"0.016": 0.0,
			"0.017": 0.0,
			"0.018": 0.0,
			"0.019": 0.0,
			"0.02": 0.0,
			"0.021": 0.0,
			"0.022": 0.0,
			"0.023": 0.0,
			"0.024": 0.0,
			"0.025": 0.0
		}
	}
}
