{
	 "smiles": "CC1=C(C=CC=C1)N1CSC2=NN=C(N2C1)C1=CC(=CC=C1)[N+]([O-])=O", 
	 "Tm": 513.15, 
	 "num_atms": 40, 
	 "gaussian": { 
		 "optdone": 1, 
		 "sigma_profile": "yes", 
		 "theory": "DFT", 
		 "functional": "B3LYP", 
		 "basiset": "6-31G**", 
		 "properties": { 
			 "R2extent": 11223.7979, 
			 "electric_dipole_moment_norm": 10.3807729317, 
			 "electric_quadrupole_moment_norm": 20.5581091604, 
			 "total_energy": -1479.10338228, 
			 "HOMO_LUMO_gap": 0.13233, 
			 "cosmo_polarized_energy": -26.51, 
			 "cosmo_cavitation_energy": 45.71, 
			 "cosmo_dispersion_energy": -32.01, 
			 "cosmo_repulsion_energy": 2.34, 
			 "cosmo_total_nonelectrostatic_energy": 16.05, 
			 "SMD_solvation_energy": 6.42 
		},
		"coords": [
			{
				"x": 2.2846820572,
				"y": -0.9976343716,
				"z": 0.6474239552,
				"element": "C" 
			},
			{
				"x": 2.8896896451,
				"y": -0.5992516835,
				"z": -0.6764050248,
				"element": "C" 
			},
			{
				"x": 2.1113436474,
				"y": -0.5190330352,
				"z": -1.8520062123,
				"element": "C" 
			},
			{
				"x": 2.7092311945,
				"y": -0.177182152,
				"z": -3.0728661326,
				"element": "C" 
			},
			{
				"x": 4.0771124575,
				"y": 0.0822750754,
				"z": -3.1476830875,
				"element": "C" 
			},
			{
				"x": 4.8538183616,
				"y": 0.018588962,
				"z": -1.9918456348,
				"element": "C" 
			},
			{
				"x": 4.2577062113,
				"y": -0.3173831505,
				"z": -0.7761972834,
				"element": "C" 
			},
			{
				"x": 0.7070977915,
				"y": -0.8113127072,
				"z": -1.7762082857,
				"element": "N" 
			},
			{
				"x": 0.0942734191,
				"y": -1.4985574222,
				"z": -2.8908106827,
				"element": "C" 
			},
			{
				"x": -1.2964247158,
				"y": -2.5805932837,
				"z": -2.3133215911,
				"element": "S" 
			},
			{
				"x": -1.9716670384,
				"y": -1.454137908,
				"z": -1.1440035707,
				"element": "C" 
			},
			{
				"x": -3.0674922902,
				"y": -1.6780915425,
				"z": -0.4529364133,
				"element": "N" 
			},
			{
				"x": -3.2328824703,
				"y": -0.6118322922,
				"z": 0.3946558597,
				"element": "N" 
			},
			{
				"x": -2.2421530431,
				"y": 0.234164907,
				"z": 0.1985329857,
				"element": "C" 
			},
			{
				"x": -1.3951802424,
				"y": -0.260120844,
				"z": -0.7825160925,
				"element": "N" 
			},
			{
				"x": -0.1178818328,
				"y": 0.2675854188,
				"z": -1.2726761354,
				"element": "C" 
			},
			{
				"x": -2.0876351942,
				"y": 1.491846413,
				"z": 0.9384986233,
				"element": "C" 
			},
			{
				"x": -2.5979333102,
				"y": 1.5472321541,
				"z": 2.2464172786,
				"element": "C" 
			},
			{
				"x": -2.4895367239,
				"y": 2.7314192653,
				"z": 2.9622739777,
				"element": "C" 
			},
			{
				"x": -1.8901018928,
				"y": 3.8769062255,
				"z": 2.4383196743,
				"element": "C" 
			},
			{
				"x": -1.3954142074,
				"y": 3.8204132176,
				"z": 1.1388563757,
				"element": "C" 
			},
			{
				"x": -1.4973316084,
				"y": 2.6446032922,
				"z": 0.3922374253,
				"element": "C" 
			},
			{
				"x": -3.0201407981,
				"y": 2.7784043558,
				"z": 4.3394430951,
				"element": "N" 
			},
			{
				"x": -3.526129424,
				"y": 1.7544655804,
				"z": 4.7915185024,
				"element": "O" 
			},
			{
				"x": -2.9189593547,
				"y": 3.8429140161,
				"z": 4.9484352264,
				"element": "O" 
			},
			{
				"x": 3.0481924655,
				"y": -1.4081152267,
				"z": 1.3132789799,
				"element": "H" 
			},
			{
				"x": 1.4973090934,
				"y": -1.7433372218,
				"z": 0.5100877781,
				"element": "H" 
			},
			{
				"x": 1.8336436576,
				"y": -0.143288733,
				"z": 1.1696523917,
				"element": "H" 
			},
			{
				"x": 2.100466419,
				"y": -0.110491888,
				"z": -3.9699576283,
				"element": "H" 
			},
			{
				"x": 4.5272521554,
				"y": 0.3401655263,
				"z": -4.1016223476,
				"element": "H" 
			},
			{
				"x": 5.9199867924,
				"y": 0.2196777711,
				"z": -2.0356725993,
				"element": "H" 
			},
			{
				"x": 4.8693588541,
				"y": -0.3849606077,
				"z": 0.1198238134,
				"element": "H" 
			},
			{
				"x": -0.2999012749,
				"y": -0.8172165336,
				"z": -3.659667545,
				"element": "H" 
			},
			{
				"x": 0.8143666152,
				"y": -2.1753075632,
				"z": -3.3505918296,
				"element": "H" 
			},
			{
				"x": 0.3926838665,
				"y": 0.762012415,
				"z": -0.4458257162,
				"element": "H" 
			},
			{
				"x": -0.3212897681,
				"y": 1.0222085611,
				"z": -2.0543785231,
				"element": "H" 
			},
			{
				"x": -3.072637112,
				"y": 0.6801851508,
				"z": 2.6869201852,
				"element": "H" 
			},
			{
				"x": -1.828244823,
				"y": 4.7728672763,
				"z": 3.0424172863,
				"element": "H" 
			},
			{
				"x": -0.9384649945,
				"y": 4.7002540771,
				"z": 0.6973420826,
				"element": "H" 
			},
			{
				"x": -1.1431125851,
				"y": 2.6432585057,
				"z": -0.6329431608,
				"element": "H" 
			}
		],
		 "valence_orbital": [ 
			{
				"type": "occ",
				"energy": -0.28104,
				"method": "rhf"
			},
			{
				"type": "occ",
				"energy": -0.26445,
				"method": "rhf"
			},
			{
				"type": "occ",
				"energy": -0.25967,
				"method": "rhf"
			},
			{
				"type": "occ",
				"energy": -0.24274,
				"method": "rhf"
			},
			{
				"type": "occ",
				"energy": -0.22476,
				"method": "rhf"
			},
			{
				"type": "unocc",
				"energy": -0.09243,
				"method": "rhf"
			},
			{
				"type": "unocc",
				"energy": -0.05239,
				"method": "rhf"
			},
			{
				"type": "unocc",
				"energy": -0.02449,
				"method": "rhf"
			},
			{
				"type": "unocc",
				"energy": -0.02183,
				"method": "rhf"
			},
			{
				"type": "unocc",
				"energy": -0.01211,
				"method": "rhf"
			}
		],
		"cosmo_sigma_profile": { 
			"-0.025": 0.0,
			"-0.024": 0.0,
			"-0.023": 0.0,
			"-0.022": 0.0,
			"-0.021": 0.0,
			"-0.02": 0.0,
			"-0.019": 0.0,
			"-0.018": 0.0,
			"-0.017": 0.0,
			"-0.016": 0.0,
			"-0.015": 0.0,
			"-0.014": 0.0,
			"-0.013": 0.0,
			"-0.012": 0.0,
			"-0.011": 0.274185222056,
			"-0.01": 1.74536812814,
			"-0.009": 6.40612832339,
			"-0.008": 12.9949813967,
			"-0.007": 20.5876168865,
			"-0.006": 19.6975256331,
			"-0.005": 22.5792868264,
			"-0.004": 22.6051752605,
			"-0.003": 23.0567609665,
			"-0.002": 25.9607379433,
			"-0.001": 28.0267055712,
			"0.0": 30.6074518772,
			"0.001": 24.2633988306,
			"0.002": 19.6512653359,
			"0.003": 16.2597255658,
			"0.004": 17.5380304685,
			"0.005": 17.5442987214,
			"0.006": 13.4779231655,
			"0.007": 11.7274544202,
			"0.008": 8.4067036405,
			"0.009": 6.44688746691,
			"0.01": 3.67662282509,
			"0.011": 2.3499118702,
			"0.012": 2.86380311995,
			"0.013": 3.41050891187,
			"0.014": 2.86950987414,
			"0.015": 2.03892049747,
			"0.016": 1.22152111477,
			"0.017": 0.124565037153,
			"0.018": 0.0,
			"0.019": 0.0,
			"0.02": 0.0,
			"0.021": 0.0,
			"0.022": 0.0,
			"0.023": 0.0,
			"0.024": 0.0,
			"0.025": 0.0
		}
	}
}
