{
	 "smiles": "FC(F)F", 
	 "Tm": 115.15, 
	 "num_atms": 5, 
	 "gaussian": { 
		 "optdone": 1, 
		 "sigma_profile": "yes", 
		 "theory": "DFT", 
		 "functional": "B3LYP", 
		 "basiset": "6-31G**", 
		 "properties": { 
			 "R2extent": 669.8401, 
			 "electric_dipole_moment_norm": 1.42373676289, 
			 "electric_quadrupole_moment_norm": 2.29974689694, 
			 "total_energy": -338.223859648, 
			 "HOMO_LUMO_gap": 0.50513, 
			 "cosmo_polarized_energy": -2.84, 
			 "cosmo_cavitation_energy": 10.08, 
			 "cosmo_dispersion_energy": -7.22, 
			 "cosmo_repulsion_energy": 0.64, 
			 "cosmo_total_nonelectrostatic_energy": 3.5, 
			 "SMD_solvation_energy": 3.77 
		},
		"coords": [
			{
				"x": -1.6867862983,
				"y": 0.8007757391,
				"z": -2.2129325893,
				"element": "F" 
			},
			{
				"x": -1.274670501,
				"y": 0.1120994716,
				"z": -1.1373165396,
				"element": "C" 
			},
			{
				"x": -0.1972449026,
				"y": -0.6106806661,
				"z": -1.4805404043,
				"element": "F" 
			},
			{
				"x": -2.2531244923,
				"y": -0.7292551779,
				"z": -0.7687510864,
				"element": "F" 
			},
			{
				"x": -1.0303738059,
				"y": 0.7950606334,
				"z": -0.3179593805,
				"element": "H" 
			}
		],
		 "valence_orbital": [ 
			{
				"type": "occ",
				"energy": -0.45847,
				"method": "rhf"
			},
			{
				"type": "occ",
				"energy": -0.42412,
				"method": "rhf"
			},
			{
				"type": "occ",
				"energy": -0.42412,
				"method": "rhf"
			},
			{
				"type": "occ",
				"energy": -0.40238,
				"method": "rhf"
			},
			{
				"type": "occ",
				"energy": -0.3884,
				"method": "rhf"
			},
			{
				"type": "unocc",
				"energy": 0.11673,
				"method": "rhf"
			},
			{
				"type": "unocc",
				"energy": 0.15466,
				"method": "rhf"
			},
			{
				"type": "unocc",
				"energy": 0.15466,
				"method": "rhf"
			},
			{
				"type": "unocc",
				"energy": 0.21062,
				"method": "rhf"
			},
			{
				"type": "unocc",
				"energy": 0.46753,
				"method": "rhf"
			}
		],
		"cosmo_sigma_profile": { 
			"-0.025": 0.0,
			"-0.024": 0.0,
			"-0.023": 0.0,
			"-0.022": 0.0,
			"-0.021": 0.0,
			"-0.02": 0.0,
			"-0.019": 0.0,
			"-0.018": 0.0,
			"-0.017": 0.0,
			"-0.016": 0.0,
			"-0.015": 0.0,
			"-0.014": 0.0,
			"-0.013": 0.0,
			"-0.012": 0.60331603184,
			"-0.011": 3.65995718124,
			"-0.01": 2.59778725812,
			"-0.009": 0.965995646821,
			"-0.008": 1.09754606815,
			"-0.007": 1.73145151452,
			"-0.006": 2.03330686639,
			"-0.005": 1.04127505954,
			"-0.004": 1.52285359161,
			"-0.003": 2.26478247224,
			"-0.002": 1.82623001299,
			"-0.001": 3.0967919562,
			"0.0": 3.92212623834,
			"0.001": 6.38426481096,
			"0.002": 13.5720877817,
			"0.003": 32.5979221718,
			"0.004": 1.93095888848,
			"0.005": 0.0,
			"0.006": 0.0,
			"0.007": 0.0,
			"0.008": 0.0,
			"0.009": 0.0,
			"0.01": 0.0,
			"0.011": 0.0,
			"0.012": 0.0,
			"0.013": 0.0,
			"0.014": 0.0,
			"0.015": 0.0,
			"0.016": 0.0,
			"0.017": 0.0,
			"0.018": 0.0,
			"0.019": 0.0,
			"0.02": 0.0,
			"0.021": 0.0,
			"0.022": 0.0,
			"0.023": 0.0,
			"0.024": 0.0,
			"0.025": 0.0
		}
	}
}
