{
	 "smiles": "CC1=C(C=C(O1)S(=O)(=O)N1CCCCC1)C(O)=O", 
	 "Tm": 467.15, 
	 "num_atms": 33, 
	 "gaussian": { 
		 "optdone": 1, 
		 "sigma_profile": "yes", 
		 "theory": "DFT", 
		 "functional": "B3LYP", 
		 "basiset": "6-31G**", 
		 "properties": { 
			 "R2extent": 5252.9318, 
			 "electric_dipole_moment_norm": 6.31495887318, 
			 "electric_quadrupole_moment_norm": 17.0305050087, 
			 "total_energy": -1257.20044784, 
			 "HOMO_LUMO_gap": 0.1939, 
			 "cosmo_polarized_energy": -17.77, 
			 "cosmo_cavitation_energy": 36.9, 
			 "cosmo_dispersion_energy": -26.11, 
			 "cosmo_repulsion_energy": 2.0, 
			 "cosmo_total_nonelectrostatic_energy": 12.78, 
			 "SMD_solvation_energy": 5.99 
		},
		"coords": [
			{
				"x": 2.0503297056,
				"y": 1.4279908185,
				"z": 2.9115125514,
				"element": "C" 
			},
			{
				"x": 0.7861795671,
				"y": 1.1834676129,
				"z": 2.167833243,
				"element": "C" 
			},
			{
				"x": -0.3389613185,
				"y": 1.9295074068,
				"z": 1.8842811212,
				"element": "C" 
			},
			{
				"x": -1.2153795593,
				"y": 1.0885863571,
				"z": 1.1165567647,
				"element": "C" 
			},
			{
				"x": -0.5685828066,
				"y": -0.0971486717,
				"z": 0.9894770631,
				"element": "C" 
			},
			{
				"x": 0.6495782204,
				"y": -0.0547230932,
				"z": 1.6209338268,
				"element": "O" 
			},
			{
				"x": -1.0370363179,
				"y": -1.6148254462,
				"z": 0.1908051407,
				"element": "S" 
			},
			{
				"x": -2.3794624169,
				"y": -1.3384252484,
				"z": -0.3185575671,
				"element": "O" 
			},
			{
				"x": -0.7500229586,
				"y": -2.7000161412,
				"z": 1.1265477911,
				"element": "O" 
			},
			{
				"x": -0.0433433039,
				"y": -1.8337574477,
				"z": -1.1191860934,
				"element": "N" 
			},
			{
				"x": -0.2319354396,
				"y": -1.0279997083,
				"z": -2.3367048541,
				"element": "C" 
			},
			{
				"x": 0.9025679979,
				"y": -0.0125346851,
				"z": -2.5295308614,
				"element": "C" 
			},
			{
				"x": 2.2753746217,
				"y": -0.7002388963,
				"z": -2.4609195905,
				"element": "C" 
			},
			{
				"x": 2.4254650865,
				"y": -1.5027627025,
				"z": -1.1587085325,
				"element": "C" 
			},
			{
				"x": 1.2661942328,
				"y": -2.4928421529,
				"z": -0.9828989342,
				"element": "C" 
			},
			{
				"x": -0.6777150071,
				"y": 3.3131634823,
				"z": 2.2462966956,
				"element": "C" 
			},
			{
				"x": 0.2771095351,
				"y": 3.9367010608,
				"z": 2.986115145,
				"element": "O" 
			},
			{
				"x": -1.7085130094,
				"y": 3.8675468891,
				"z": 1.9228127372,
				"element": "O" 
			},
			{
				"x": 2.9162512604,
				"y": 1.3139555896,
				"z": 2.2497122107,
				"element": "H" 
			},
			{
				"x": 2.1603724946,
				"y": 0.7018936371,
				"z": 3.7243049002,
				"element": "H" 
			},
			{
				"x": 2.0500942464,
				"y": 2.4339495615,
				"z": 3.3269351526,
				"element": "H" 
			},
			{
				"x": -2.1909727934,
				"y": 1.3468978114,
				"z": 0.7359803213,
				"element": "H" 
			},
			{
				"x": -1.2108811255,
				"y": -0.5491721054,
				"z": -2.2877676202,
				"element": "H" 
			},
			{
				"x": -0.2572477794,
				"y": -1.7258572474,
				"z": -3.1854952902,
				"element": "H" 
			},
			{
				"x": 0.7715757175,
				"y": 0.4931165128,
				"z": -3.4935280022,
				"element": "H" 
			},
			{
				"x": 0.8328685862,
				"y": 0.7582885506,
				"z": -1.7514327753,
				"element": "H" 
			},
			{
				"x": 3.0779604822,
				"y": 0.0405581424,
				"z": -2.5482677579,
				"element": "H" 
			},
			{
				"x": 2.3818847822,
				"y": -1.3794676278,
				"z": -3.3189683309,
				"element": "H" 
			},
			{
				"x": 3.3723084443,
				"y": -2.0557516821,
				"z": -1.1531876539,
				"element": "H" 
			},
			{
				"x": 2.4443666614,
				"y": -0.8208575651,
				"z": -0.2999819142,
				"element": "H" 
			},
			{
				"x": 1.2984322788,
				"y": -2.9980950241,
				"z": -0.0172725429,
				"element": "H" 
			},
			{
				"x": 1.3169202724,
				"y": -3.2690592051,
				"z": -1.7597079733,
				"element": "H" 
			},
			{
				"x": -0.0664803575,
				"y": 4.8293112174,
				"z": 3.1578116295,
				"element": "H" 
			}
		],
		 "valence_orbital": [ 
			{
				"type": "occ",
				"energy": -0.30421,
				"method": "rhf"
			},
			{
				"type": "occ",
				"energy": -0.30127,
				"method": "rhf"
			},
			{
				"type": "occ",
				"energy": -0.28826,
				"method": "rhf"
			},
			{
				"type": "occ",
				"energy": -0.26874,
				"method": "rhf"
			},
			{
				"type": "occ",
				"energy": -0.24001,
				"method": "rhf"
			},
			{
				"type": "unocc",
				"energy": -0.04611,
				"method": "rhf"
			},
			{
				"type": "unocc",
				"energy": -0.01739,
				"method": "rhf"
			},
			{
				"type": "unocc",
				"energy": 0.06077,
				"method": "rhf"
			},
			{
				"type": "unocc",
				"energy": 0.07032,
				"method": "rhf"
			},
			{
				"type": "unocc",
				"energy": 0.07311,
				"method": "rhf"
			}
		],
		"cosmo_sigma_profile": { 
			"-0.025": 0.0,
			"-0.024": 0.0,
			"-0.023": 0.0,
			"-0.022": 0.0,
			"-0.021": 0.0,
			"-0.02": 0.0,
			"-0.019": 0.256437820421,
			"-0.018": 0.871068278737,
			"-0.017": 0.705902230265,
			"-0.016": 1.27165741242,
			"-0.015": 0.506051430144,
			"-0.014": 0.349709763065,
			"-0.013": 0.29971804039,
			"-0.012": 0.789750305669,
			"-0.011": 1.04228935699,
			"-0.01": 0.653436986146,
			"-0.009": 0.916565409793,
			"-0.008": 1.46768737551,
			"-0.007": 2.93846038584,
			"-0.006": 6.76118822732,
			"-0.005": 13.4424237053,
			"-0.004": 23.0628013119,
			"-0.003": 38.0400319192,
			"-0.002": 43.46402892,
			"-0.001": 33.3954594404,
			"0.0": 27.1890011132,
			"0.001": 12.6871715382,
			"0.002": 8.34066353617,
			"0.003": 7.4997457903,
			"0.004": 8.87902794508,
			"0.005": 7.7960507126,
			"0.006": 6.18350603992,
			"0.007": 4.27031796748,
			"0.008": 5.62458208717,
			"0.009": 5.52635222347,
			"0.01": 10.5720357814,
			"0.011": 12.2348659826,
			"0.012": 3.99242920002,
			"0.013": 0.0,
			"0.014": 0.0,
			"0.015": 0.0,
			"0.016": 0.0,
			"0.017": 0.0,
			"0.018": 0.0,
			"0.019": 0.0,
			"0.02": 0.0,
			"0.021": 0.0,
			"0.022": 0.0,
			"0.023": 0.0,
			"0.024": 0.0,
			"0.025": 0.0
		}
	}
}
