{
	 "smiles": "CC1=C(C)C2=C(CC2)C2=C1CC2", 
	 "Tm": 383.15, 
	 "num_atms": 26, 
	 "gaussian": { 
		 "optdone": 1, 
		 "sigma_profile": "yes", 
		 "theory": "DFT", 
		 "functional": "B3LYP", 
		 "basiset": "6-31G**", 
		 "properties": { 
			 "R2extent": 2185.0417, 
			 "electric_dipole_moment_norm": 0.233186856405, 
			 "electric_quadrupole_moment_norm": 2.90660562856, 
			 "total_energy": -465.65803214, 
			 "HOMO_LUMO_gap": 0.22259, 
			 "cosmo_polarized_energy": -2.83, 
			 "cosmo_cavitation_energy": 27.66, 
			 "cosmo_dispersion_energy": -20.25, 
			 "cosmo_repulsion_energy": 1.65, 
			 "cosmo_total_nonelectrostatic_energy": 9.06, 
			 "SMD_solvation_energy": 3.59 
		},
		"coords": [
			{
				"x": -1.5484221328,
				"y": 0.9393459054,
				"z": 2.383342791,
				"element": "C" 
			},
			{
				"x": -0.8461145761,
				"y": 0.1907362789,
				"z": 1.2762152216,
				"element": "C" 
			},
			{
				"x": -1.4668055712,
				"y": -0.0172026354,
				"z": 0.010667188,
				"element": "C" 
			},
			{
				"x": -2.8545504933,
				"y": 0.501739564,
				"z": -0.279593475,
				"element": "C" 
			},
			{
				"x": -0.7316287621,
				"y": -0.7213372782,
				"z": -0.9430967375,
				"element": "C" 
			},
			{
				"x": 0.5589629702,
				"y": -1.2368186048,
				"z": -0.757895003,
				"element": "C" 
			},
			{
				"x": 0.6361400827,
				"y": -1.8158874983,
				"z": -2.1616114608,
				"element": "C" 
			},
			{
				"x": -0.8202386517,
				"y": -1.2367384225,
				"z": -2.3771617818,
				"element": "C" 
			},
			{
				"x": 1.1606182099,
				"y": -1.0352613938,
				"z": 0.4688609368,
				"element": "C" 
			},
			{
				"x": 0.4376571816,
				"y": -0.3295941286,
				"z": 1.4409752925,
				"element": "C" 
			},
			{
				"x": 1.5579962664,
				"y": -0.4399473126,
				"z": 2.4718388186,
				"element": "C" 
			},
			{
				"x": 2.3684129513,
				"y": -1.2355799735,
				"z": 1.3704293855,
				"element": "C" 
			},
			{
				"x": -2.4902368395,
				"y": 0.4543823852,
				"z": 2.669337085,
				"element": "H" 
			},
			{
				"x": -1.8022106601,
				"y": 1.9642674498,
				"z": 2.0848082854,
				"element": "H" 
			},
			{
				"x": -0.9207005272,
				"y": 0.9990283225,
				"z": 3.2763067995,
				"element": "H" 
			},
			{
				"x": -3.5985133499,
				"y": 0.0827372797,
				"z": 0.4095751303,
				"element": "H" 
			},
			{
				"x": -3.1636588262,
				"y": 0.2478279415,
				"z": -1.2969260296,
				"element": "H" 
			},
			{
				"x": -2.911466833,
				"y": 1.5926277948,
				"z": -0.1760594979,
				"element": "H" 
			},
			{
				"x": 0.7071436869,
				"y": -2.9072257241,
				"z": -2.2241412964,
				"element": "H" 
			},
			{
				"x": 1.4009782702,
				"y": -1.3822889951,
				"z": -2.815051641,
				"element": "H" 
			},
			{
				"x": -1.5866905334,
				"y": -1.9964905905,
				"z": -2.5670375296,
				"element": "H" 
			},
			{
				"x": -0.8927692875,
				"y": -0.4714443405,
				"z": -3.1580545835,
				"element": "H" 
			},
			{
				"x": 1.3260130322,
				"y": -1.0205767806,
				"z": 3.371716262,
				"element": "H" 
			},
			{
				"x": 2.0199991522,
				"y": 0.5044464864,
				"z": 2.7807084857,
				"element": "H" 
			},
			{
				"x": 3.2935552149,
				"y": -0.7483949179,
				"z": 1.0437306989,
				"element": "H" 
			},
			{
				"x": 2.5995300254,
				"y": -2.273250812,
				"z": 1.6346166556,
				"element": "H" 
			}
		],
		 "valence_orbital": [ 
			{
				"type": "occ",
				"energy": -0.31713,
				"method": "rhf"
			},
			{
				"type": "occ",
				"energy": -0.29402,
				"method": "rhf"
			},
			{
				"type": "occ",
				"energy": -0.28997,
				"method": "rhf"
			},
			{
				"type": "occ",
				"energy": -0.21828,
				"method": "rhf"
			},
			{
				"type": "occ",
				"energy": -0.21573,
				"method": "rhf"
			},
			{
				"type": "unocc",
				"energy": 0.00686,
				"method": "rhf"
			},
			{
				"type": "unocc",
				"energy": 0.02176,
				"method": "rhf"
			},
			{
				"type": "unocc",
				"energy": 0.09223,
				"method": "rhf"
			},
			{
				"type": "unocc",
				"energy": 0.1116,
				"method": "rhf"
			},
			{
				"type": "unocc",
				"energy": 0.11839,
				"method": "rhf"
			}
		],
		"cosmo_sigma_profile": { 
			"-0.025": 0.0,
			"-0.024": 0.0,
			"-0.023": 0.0,
			"-0.022": 0.0,
			"-0.021": 0.0,
			"-0.02": 0.0,
			"-0.019": 0.0,
			"-0.018": 0.0,
			"-0.017": 0.0,
			"-0.016": 0.0,
			"-0.015": 0.0,
			"-0.014": 0.0,
			"-0.013": 0.0,
			"-0.012": 0.0,
			"-0.011": 0.0,
			"-0.01": 0.0,
			"-0.009": 0.0,
			"-0.008": 0.0,
			"-0.007": 0.0,
			"-0.006": 0.0,
			"-0.005": 0.0,
			"-0.004": 10.7427060594,
			"-0.003": 27.3121756323,
			"-0.002": 29.6688911625,
			"-0.001": 35.736810863,
			"0.0": 36.4386387364,
			"0.001": 30.1186238655,
			"0.002": 15.4846900351,
			"0.003": 7.90686520048,
			"0.004": 5.8743236699,
			"0.005": 5.81417351884,
			"0.006": 5.12223350856,
			"0.007": 5.13626028863,
			"0.008": 2.03102543235,
			"0.009": 0.0,
			"0.01": 0.0,
			"0.011": 0.0,
			"0.012": 0.0,
			"0.013": 0.0,
			"0.014": 0.0,
			"0.015": 0.0,
			"0.016": 0.0,
			"0.017": 0.0,
			"0.018": 0.0,
			"0.019": 0.0,
			"0.02": 0.0,
			"0.021": 0.0,
			"0.022": 0.0,
			"0.023": 0.0,
			"0.024": 0.0,
			"0.025": 0.0
		}
	}
}
