{
	 "smiles": "CC(C)NC(=O)CCCl", 
	 "Tm": 341.15, 
	 "num_atms": 21, 
	 "gaussian": { 
		 "optdone": 1, 
		 "sigma_profile": "yes", 
		 "theory": "DFT", 
		 "functional": "B3LYP", 
		 "basiset": "6-31G**", 
		 "properties": { 
			 "R2extent": 2149.921, 
			 "electric_dipole_moment_norm": 4.18081310154, 
			 "electric_quadrupole_moment_norm": 10.8275382521, 
			 "total_energy": -826.069282886, 
			 "HOMO_LUMO_gap": 0.26632, 
			 "cosmo_polarized_energy": -12.37, 
			 "cosmo_cavitation_energy": 25.52, 
			 "cosmo_dispersion_energy": -17.96, 
			 "cosmo_repulsion_energy": 1.51, 
			 "cosmo_total_nonelectrostatic_energy": 9.07, 
			 "SMD_solvation_energy": 4.42 
		},
		"coords": [
			{
				"x": -2.8084721855,
				"y": -0.2047632753,
				"z": -0.6749245542,
				"element": "C" 
			},
			{
				"x": -1.322185583,
				"y": 0.1646633118,
				"z": -0.73882805,
				"element": "C" 
			},
			{
				"x": -0.9599048905,
				"y": 0.8567755944,
				"z": -2.0616095282,
				"element": "C" 
			},
			{
				"x": -0.5256813953,
				"y": -1.0481219115,
				"z": -0.5212163742,
				"element": "N" 
			},
			{
				"x": 0.7399245203,
				"y": -1.1886925245,
				"z": -0.0257928992,
				"element": "C" 
			},
			{
				"x": 1.3239556378,
				"y": -2.2662760778,
				"z": -0.0670956831,
				"element": "O" 
			},
			{
				"x": 1.3923552011,
				"y": 0.0148263774,
				"z": 0.6643961489,
				"element": "C" 
			},
			{
				"x": 2.8941571033,
				"y": 0.0376459275,
				"z": 0.4251547656,
				"element": "C" 
			},
			{
				"x": 3.2910529495,
				"y": 0.6177419985,
				"z": -1.2561928262,
				"element": "Cl" 
			},
			{
				"x": -3.4304549958,
				"y": 0.6860701249,
				"z": -0.8011858636,
				"element": "H" 
			},
			{
				"x": -3.0697335103,
				"y": -0.9065014783,
				"z": -1.4762794088,
				"element": "H" 
			},
			{
				"x": -3.0575056762,
				"y": -0.6703794482,
				"z": 0.2828595307,
				"element": "H" 
			},
			{
				"x": -1.1133957339,
				"y": 0.8494732082,
				"z": 0.0895699912,
				"element": "H" 
			},
			{
				"x": -1.5425736164,
				"y": 1.775127315,
				"z": -2.1920675296,
				"element": "H" 
			},
			{
				"x": 0.1029728522,
				"y": 1.1130816311,
				"z": -2.0937354421,
				"element": "H" 
			},
			{
				"x": -1.1715224478,
				"y": 0.1962455905,
				"z": -2.9097818404,
				"element": "H" 
			},
			{
				"x": -0.8526747476,
				"y": -1.8939821114,
				"z": -0.974514029,
				"element": "H" 
			},
			{
				"x": 0.9488658179,
				"y": 0.9726219252,
				"z": 0.3865844083,
				"element": "H" 
			},
			{
				"x": 1.2284488715,
				"y": -0.1172472038,
				"z": 1.7432677143,
				"element": "H" 
			},
			{
				"x": 3.3031795833,
				"y": -0.9683050946,
				"z": 0.5090988402,
				"element": "H" 
			},
			{
				"x": 3.4024922453,
				"y": 0.7201961206,
				"z": 1.1059926293,
				"element": "H" 
			}
		],
		 "valence_orbital": [ 
			{
				"type": "occ",
				"energy": -0.34814,
				"method": "rhf"
			},
			{
				"type": "occ",
				"energy": -0.29384,
				"method": "rhf"
			},
			{
				"type": "occ",
				"energy": -0.29033,
				"method": "rhf"
			},
			{
				"type": "occ",
				"energy": -0.25313,
				"method": "rhf"
			},
			{
				"type": "occ",
				"energy": -0.248,
				"method": "rhf"
			},
			{
				"type": "unocc",
				"energy": 0.01832,
				"method": "rhf"
			},
			{
				"type": "unocc",
				"energy": 0.03198,
				"method": "rhf"
			},
			{
				"type": "unocc",
				"energy": 0.07386,
				"method": "rhf"
			},
			{
				"type": "unocc",
				"energy": 0.09243,
				"method": "rhf"
			},
			{
				"type": "unocc",
				"energy": 0.1122,
				"method": "rhf"
			}
		],
		"cosmo_sigma_profile": { 
			"-0.025": 0.0,
			"-0.024": 0.0,
			"-0.023": 0.0,
			"-0.022": 0.0,
			"-0.021": 0.0,
			"-0.02": 0.0,
			"-0.019": 0.0,
			"-0.018": 0.0,
			"-0.017": 0.0,
			"-0.016": 0.0,
			"-0.015": 0.0,
			"-0.014": 0.0,
			"-0.013": 0.244204355806,
			"-0.012": 0.919779022949,
			"-0.011": 0.946538866305,
			"-0.01": 0.930372479809,
			"-0.009": 1.32127646454,
			"-0.008": 1.42397053695,
			"-0.007": 7.61884470117,
			"-0.006": 10.1032787603,
			"-0.005": 11.5715302288,
			"-0.004": 17.8071181781,
			"-0.003": 20.9360332397,
			"-0.002": 14.9188704937,
			"-0.001": 15.8417095447,
			"0.0": 20.4994571327,
			"0.001": 16.4682678552,
			"0.002": 8.14409867727,
			"0.003": 6.60005268009,
			"0.004": 6.87203667692,
			"0.005": 6.39644058701,
			"0.006": 8.94265832917,
			"0.007": 6.5105123249,
			"0.008": 1.55795793929,
			"0.009": 1.3363038488,
			"0.01": 0.904947407897,
			"0.011": 1.74687809825,
			"0.012": 1.22177366199,
			"0.013": 3.10747552185,
			"0.014": 5.31280379382,
			"0.015": 0.973500584891,
			"0.016": 0.0,
			"0.017": 0.0,
			"0.018": 0.0,
			"0.019": 0.0,
			"0.02": 0.0,
			"0.021": 0.0,
			"0.022": 0.0,
			"0.023": 0.0,
			"0.024": 0.0,
			"0.025": 0.0
		}
	}
}
