{
	 "smiles": "O=C1OC(CC2=CC=CC=C12)C1=CC=CC=C1", 
	 "Tm": 362.15, 
	 "num_atms": 29, 
	 "gaussian": { 
		 "optdone": 1, 
		 "sigma_profile": "yes", 
		 "theory": "DFT", 
		 "functional": "B3LYP", 
		 "basiset": "6-31G**", 
		 "properties": { 
			 "R2extent": 3893.3626, 
			 "electric_dipole_moment_norm": 4.64100016053, 
			 "electric_quadrupole_moment_norm": 11.7098613258, 
			 "total_energy": -729.291439819, 
			 "HOMO_LUMO_gap": 0.19841, 
			 "cosmo_polarized_energy": -12.77, 
			 "cosmo_cavitation_energy": 32.07, 
			 "cosmo_dispersion_energy": -23.01, 
			 "cosmo_repulsion_energy": 1.77, 
			 "cosmo_total_nonelectrostatic_energy": 10.83, 
			 "SMD_solvation_energy": 5.8 
		},
		"coords": [
			{
				"x": 0.8880054808,
				"y": 2.3124671055,
				"z": -2.5253051078,
				"element": "O" 
			},
			{
				"x": 0.4816400653,
				"y": 1.2434881381,
				"z": -2.1260675469,
				"element": "C" 
			},
			{
				"x": 1.3931366607,
				"y": 0.2940222475,
				"z": -1.7577259391,
				"element": "O" 
			},
			{
				"x": 0.9786023241,
				"y": -0.8890246982,
				"z": -1.0406803305,
				"element": "C" 
			},
			{
				"x": -0.2816554574,
				"y": -1.4830391388,
				"z": -1.6872811963,
				"element": "C" 
			},
			{
				"x": -1.3598182594,
				"y": -0.4375581161,
				"z": -1.8052581149,
				"element": "C" 
			},
			{
				"x": -2.7231285236,
				"y": -0.7332721899,
				"z": -1.7350540843,
				"element": "C" 
			},
			{
				"x": -3.67263993,
				"y": 0.2779580496,
				"z": -1.8882923086,
				"element": "C" 
			},
			{
				"x": -3.2702218849,
				"y": 1.5978147898,
				"z": -2.1166628373,
				"element": "C" 
			},
			{
				"x": -1.9145652599,
				"y": 1.9030710509,
				"z": -2.1890568505,
				"element": "C" 
			},
			{
				"x": -0.9612476959,
				"y": 0.8897527302,
				"z": -2.0288578314,
				"element": "C" 
			},
			{
				"x": 0.8554201472,
				"y": -0.6196603897,
				"z": 0.456931293,
				"element": "C" 
			},
			{
				"x": 1.145950098,
				"y": 0.6332378789,
				"z": 1.0076057398,
				"element": "C" 
			},
			{
				"x": 1.0506665112,
				"y": 0.8405824059,
				"z": 2.3859615833,
				"element": "C" 
			},
			{
				"x": 0.6757712045,
				"y": -0.2012304468,
				"z": 3.233080455,
				"element": "C" 
			},
			{
				"x": 0.4027128032,
				"y": -1.460151467,
				"z": 2.6935376205,
				"element": "C" 
			},
			{
				"x": 0.4946441349,
				"y": -1.6664355473,
				"z": 1.3180342987,
				"element": "C" 
			},
			{
				"x": 1.8121846757,
				"y": -1.5823599885,
				"z": -1.1970464915,
				"element": "H" 
			},
			{
				"x": -0.6315392067,
				"y": -2.3462055596,
				"z": -1.1145702055,
				"element": "H" 
			},
			{
				"x": -0.0122145979,
				"y": -1.8527758171,
				"z": -2.6858973793,
				"element": "H" 
			},
			{
				"x": -3.0421576399,
				"y": -1.7570799895,
				"z": -1.5579468266,
				"element": "H" 
			},
			{
				"x": -4.7300008305,
				"y": 0.036293195,
				"z": -1.8272134378,
				"element": "H" 
			},
			{
				"x": -4.012395867,
				"y": 2.3810674168,
				"z": -2.2371715944,
				"element": "H" 
			},
			{
				"x": -1.5681247588,
				"y": 2.9150209379,
				"z": -2.369614954,
				"element": "H" 
			},
			{
				"x": 1.4596054333,
				"y": 1.4464717212,
				"z": 0.3631862615,
				"element": "H" 
			},
			{
				"x": 1.2754843918,
				"y": 1.8214507373,
				"z": 2.7950092215,
				"element": "H" 
			},
			{
				"x": 0.6029945912,
				"y": -0.0380235178,
				"z": 4.3043723409,
				"element": "H" 
			},
			{
				"x": 0.1198756864,
				"y": -2.2833200671,
				"z": 3.3435830603,
				"element": "H" 
			},
			{
				"x": 0.2908157037,
				"y": -2.6563614711,
				"z": 0.9172011624,
				"element": "H" 
			}
		],
		 "valence_orbital": [ 
			{
				"type": "occ",
				"energy": -0.26986,
				"method": "rhf"
			},
			{
				"type": "occ",
				"energy": -0.26103,
				"method": "rhf"
			},
			{
				"type": "occ",
				"energy": -0.25723,
				"method": "rhf"
			},
			{
				"type": "occ",
				"energy": -0.25316,
				"method": "rhf"
			},
			{
				"type": "occ",
				"energy": -0.24789,
				"method": "rhf"
			},
			{
				"type": "unocc",
				"energy": -0.04948,
				"method": "rhf"
			},
			{
				"type": "unocc",
				"energy": -0.01632,
				"method": "rhf"
			},
			{
				"type": "unocc",
				"energy": -0.00599,
				"method": "rhf"
			},
			{
				"type": "unocc",
				"energy": -0.00337,
				"method": "rhf"
			},
			{
				"type": "unocc",
				"energy": 0.05577,
				"method": "rhf"
			}
		],
		"cosmo_sigma_profile": { 
			"-0.025": 0.0,
			"-0.024": 0.0,
			"-0.023": 0.0,
			"-0.022": 0.0,
			"-0.021": 0.0,
			"-0.02": 0.0,
			"-0.019": 0.0,
			"-0.018": 0.0,
			"-0.017": 0.0,
			"-0.016": 0.0,
			"-0.015": 0.0,
			"-0.014": 0.0,
			"-0.013": 0.0,
			"-0.012": 0.0,
			"-0.011": 0.0,
			"-0.01": 0.0,
			"-0.009": 0.0,
			"-0.008": 0.830557078356,
			"-0.007": 8.15127354839,
			"-0.006": 20.8340767341,
			"-0.005": 24.7776231595,
			"-0.004": 23.5795055638,
			"-0.003": 20.9740125348,
			"-0.002": 15.6997996641,
			"-0.001": 14.1971815139,
			"0.0": 14.8373505733,
			"0.001": 15.8167393715,
			"0.002": 16.5987389169,
			"0.003": 22.0939957752,
			"0.004": 18.2586797072,
			"0.005": 10.8923791992,
			"0.006": 6.97327830726,
			"0.007": 2.5507336526,
			"0.008": 2.02920412829,
			"0.009": 2.5272963958,
			"0.01": 3.12459707136,
			"0.011": 4.12063421549,
			"0.012": 5.36704388239,
			"0.013": 1.99032006163,
			"0.014": 0.367599070995,
			"0.015": 0.0,
			"0.016": 0.0,
			"0.017": 0.0,
			"0.018": 0.0,
			"0.019": 0.0,
			"0.02": 0.0,
			"0.021": 0.0,
			"0.022": 0.0,
			"0.023": 0.0,
			"0.024": 0.0,
			"0.025": 0.0
		}
	}
}
