{
	 "smiles": "FC(F)(F)OC1=CC=C(OC2CCNCC2)C=C1", 
	 "Tm": 345.15, 
	 "num_atms": 32, 
	 "gaussian": { 
		 "optdone": 1, 
		 "sigma_profile": "yes", 
		 "theory": "DFT", 
		 "functional": "B3LYP", 
		 "basiset": "6-31G**", 
		 "properties": { 
			 "R2extent": 8235.6731, 
			 "electric_dipole_moment_norm": 2.61924742817, 
			 "electric_quadrupole_moment_norm": 18.9680255314, 
			 "total_energy": -970.419306176, 
			 "HOMO_LUMO_gap": 0.20964, 
			 "cosmo_polarized_energy": -9.22, 
			 "cosmo_cavitation_energy": 35.85, 
			 "cosmo_dispersion_energy": -25.69, 
			 "cosmo_repulsion_energy": 1.94, 
			 "cosmo_total_nonelectrostatic_energy": 12.1, 
			 "SMD_solvation_energy": 4.57 
		},
		"coords": [
			{
				"x": 1.4449231438,
				"y": -5.1834252839,
				"z": -0.9719978346,
				"element": "F" 
			},
			{
				"x": 0.2067290544,
				"y": -5.4327574418,
				"z": -1.4455957008,
				"element": "C" 
			},
			{
				"x": 0.2663568218,
				"y": -6.4995820413,
				"z": -2.2437348207,
				"element": "F" 
			},
			{
				"x": -0.5671135929,
				"y": -5.7348584321,
				"z": -0.383449798,
				"element": "F" 
			},
			{
				"x": -0.2880194517,
				"y": -4.4011991098,
				"z": -2.1707385975,
				"element": "O" 
			},
			{
				"x": -0.4420726105,
				"y": -3.1716406198,
				"z": -1.5023423447,
				"element": "C" 
			},
			{
				"x": 0.5966943451,
				"y": -2.250916153,
				"z": -1.5148083848,
				"element": "C" 
			},
			{
				"x": 0.422645367,
				"y": -0.9998524456,
				"z": -0.9177251624,
				"element": "C" 
			},
			{
				"x": -0.7973699988,
				"y": -0.6816246284,
				"z": -0.3051891247,
				"element": "C" 
			},
			{
				"x": -1.082269437,
				"y": 0.4947915874,
				"z": 0.3209300215,
				"element": "O" 
			},
			{
				"x": -0.0967504721,
				"y": 1.534794305,
				"z": 0.4158120767,
				"element": "C" 
			},
			{
				"x": -0.0055174509,
				"y": 2.3561029431,
				"z": -0.8881885184,
				"element": "C" 
			},
			{
				"x": 0.4625861028,
				"y": 3.8108632771,
				"z": -0.6001708571,
				"element": "C" 
			},
			{
				"x": 1.2854075162,
				"y": 3.9443156851,
				"z": 0.6019309093,
				"element": "N" 
			},
			{
				"x": 0.5627358124,
				"y": 3.5301671371,
				"z": 1.8166985259,
				"element": "C" 
			},
			{
				"x": -0.5075052162,
				"y": 2.4308450715,
				"z": 1.5810453112,
				"element": "C" 
			},
			{
				"x": -1.8380571636,
				"y": -1.6258311301,
				"z": -0.3062448119,
				"element": "C" 
			},
			{
				"x": -1.6634935875,
				"y": -2.8680545419,
				"z": -0.9024418839,
				"element": "C" 
			},
			{
				"x": 1.5341048703,
				"y": -2.5076169503,
				"z": -1.9956967415,
				"element": "H" 
			},
			{
				"x": 1.2383365227,
				"y": -0.2884148982,
				"z": -0.944476716,
				"element": "H" 
			},
			{
				"x": 0.8743523855,
				"y": 1.0774014975,
				"z": 0.6516599015,
				"element": "H" 
			},
			{
				"x": 0.6698362117,
				"y": 1.868498061,
				"z": -1.5994954278,
				"element": "H" 
			},
			{
				"x": -0.9993550051,
				"y": 2.3624361183,
				"z": -1.3505589643,
				"element": "H" 
			},
			{
				"x": 1.0176439511,
				"y": 4.2082860944,
				"z": -1.4558371074,
				"element": "H" 
			},
			{
				"x": -0.4102354407,
				"y": 4.4621484696,
				"z": -0.4707330241,
				"element": "H" 
			},
			{
				"x": 2.127463554,
				"y": 3.3850467162,
				"z": 0.4965763399,
				"element": "H" 
			},
			{
				"x": 0.0774391282,
				"y": 4.4092166859,
				"z": 2.2602649759,
				"element": "H" 
			},
			{
				"x": 1.3043735139,
				"y": 3.1848964416,
				"z": 2.5449086819,
				"element": "H" 
			},
			{
				"x": -1.4791226825,
				"y": 2.8796817064,
				"z": 1.3427585303,
				"element": "H" 
			},
			{
				"x": -0.6512138156,
				"y": 1.8279008603,
				"z": 2.4829474835,
				"element": "H" 
			},
			{
				"x": -2.7752938423,
				"y": -1.360866521,
				"z": 0.1711921742,
				"element": "H" 
			},
			{
				"x": -2.4618385334,
				"y": -3.6018524603,
				"z": -0.9092991111,
				"element": "H" 
			}
		],
		 "valence_orbital": [ 
			{
				"type": "occ",
				"energy": -0.3195,
				"method": "rhf"
			},
			{
				"type": "occ",
				"energy": -0.31189,
				"method": "rhf"
			},
			{
				"type": "occ",
				"energy": -0.26425,
				"method": "rhf"
			},
			{
				"type": "occ",
				"energy": -0.22565,
				"method": "rhf"
			},
			{
				"type": "occ",
				"energy": -0.22465,
				"method": "rhf"
			},
			{
				"type": "unocc",
				"energy": -0.01501,
				"method": "rhf"
			},
			{
				"type": "unocc",
				"energy": 0.00193,
				"method": "rhf"
			},
			{
				"type": "unocc",
				"energy": 0.05541,
				"method": "rhf"
			},
			{
				"type": "unocc",
				"energy": 0.08247,
				"method": "rhf"
			},
			{
				"type": "unocc",
				"energy": 0.09022,
				"method": "rhf"
			}
		],
		"cosmo_sigma_profile": { 
			"-0.025": 0.0,
			"-0.024": 0.0,
			"-0.023": 0.0,
			"-0.022": 0.0,
			"-0.021": 0.0,
			"-0.02": 0.0,
			"-0.019": 0.0,
			"-0.018": 0.0,
			"-0.017": 0.0,
			"-0.016": 0.0,
			"-0.015": 0.0,
			"-0.014": 0.0,
			"-0.013": 0.0,
			"-0.012": 0.0,
			"-0.011": 0.0,
			"-0.01": 0.703354781718,
			"-0.009": 1.78796726654,
			"-0.008": 2.7325525158,
			"-0.007": 8.14357889281,
			"-0.006": 10.6835226334,
			"-0.005": 10.8617436381,
			"-0.004": 15.0149305378,
			"-0.003": 29.6338099466,
			"-0.002": 25.9220293285,
			"-0.001": 23.0739296945,
			"0.0": 23.4604962887,
			"0.001": 23.1657109603,
			"0.002": 42.8760660212,
			"0.003": 28.4630587304,
			"0.004": 13.1667172462,
			"0.005": 4.42539558627,
			"0.006": 3.6176180425,
			"0.007": 4.00446939937,
			"0.008": 2.69893549053,
			"0.009": 1.75015777203,
			"0.01": 1.56622966654,
			"0.011": 0.389325894922,
			"0.012": 1.08457924197,
			"0.013": 0.416025460335,
			"0.014": 0.343950358343,
			"0.015": 0.897010214044,
			"0.016": 0.491957381211,
			"0.017": 0.604900587121,
			"0.018": 0.606277759372,
			"0.019": 0.0882515728598,
			"0.02": 0.0,
			"0.021": 0.0,
			"0.022": 0.0,
			"0.023": 0.0,
			"0.024": 0.0,
			"0.025": 0.0
		}
	}
}
