{
	 "smiles": "CC1=CSC(=C1)C(O)=O", 
	 "Tm": 397.15, 
	 "num_atms": 15, 
	 "gaussian": { 
		 "optdone": 1, 
		 "sigma_profile": "yes", 
		 "theory": "DFT", 
		 "functional": "B3LYP", 
		 "basiset": "6-31G**", 
		 "properties": { 
			 "R2extent": 1650.9058, 
			 "electric_dipole_moment_norm": 5.62709326918, 
			 "electric_quadrupole_moment_norm": 10.0285983756, 
			 "total_energy": -780.887406862, 
			 "HOMO_LUMO_gap": 0.19044, 
			 "cosmo_polarized_energy": -14.88, 
			 "cosmo_cavitation_energy": 21.02, 
			 "cosmo_dispersion_energy": -16.18, 
			 "cosmo_repulsion_energy": 1.28, 
			 "cosmo_total_nonelectrostatic_energy": 6.13, 
			 "SMD_solvation_energy": 4.95 
		},
		"coords": [
			{
				"x": -3.2626587465,
				"y": -0.4452994965,
				"z": -0.0567337114,
				"element": "C" 
			},
			{
				"x": -1.8833687952,
				"y": -0.3151758697,
				"z": -0.6453174237,
				"element": "C" 
			},
			{
				"x": -1.6029507464,
				"y": -0.2666140192,
				"z": -1.9906834072,
				"element": "C" 
			},
			{
				"x": 0.0833118198,
				"y": -0.1261560129,
				"z": -2.3320498159,
				"element": "S" 
			},
			{
				"x": 0.4578961441,
				"y": -0.1163640431,
				"z": -0.6322218699,
				"element": "C" 
			},
			{
				"x": -0.685598262,
				"y": -0.2298367572,
				"z": 0.1267821589,
				"element": "C" 
			},
			{
				"x": 1.8786205361,
				"y": -0.0218283,
				"z": -0.233925812,
				"element": "C" 
			},
			{
				"x": 2.1291340259,
				"y": 0.1383674185,
				"z": 1.0932912548,
				"element": "O" 
			},
			{
				"x": 2.793388535,
				"y": -0.0817656321,
				"z": -1.0235531394,
				"element": "O" 
			},
			{
				"x": -4.0227829399,
				"y": -0.4985355903,
				"z": -0.8401326773,
				"element": "H" 
			},
			{
				"x": -3.5048483852,
				"y": 0.4085097894,
				"z": 0.5862826291,
				"element": "H" 
			},
			{
				"x": -3.3508308776,
				"y": -1.3494347511,
				"z": 0.5562943409,
				"element": "H" 
			},
			{
				"x": -2.3140841605,
				"y": -0.3083592753,
				"z": -2.8055342299,
				"element": "H" 
			},
			{
				"x": -0.6935754077,
				"y": -0.2753198774,
				"z": 1.2127495046,
				"element": "H" 
			},
			{
				"x": 1.30604726,
				"y": 0.272512417,
				"z": 1.5825521986,
				"element": "H" 
			}
		],
		 "valence_orbital": [ 
			{
				"type": "occ",
				"energy": -0.35577,
				"method": "rhf"
			},
			{
				"type": "occ",
				"energy": -0.3167,
				"method": "rhf"
			},
			{
				"type": "occ",
				"energy": -0.27705,
				"method": "rhf"
			},
			{
				"type": "occ",
				"energy": -0.26625,
				"method": "rhf"
			},
			{
				"type": "occ",
				"energy": -0.24918,
				"method": "rhf"
			},
			{
				"type": "unocc",
				"energy": -0.05874,
				"method": "rhf"
			},
			{
				"type": "unocc",
				"energy": 0.0211,
				"method": "rhf"
			},
			{
				"type": "unocc",
				"energy": 0.02598,
				"method": "rhf"
			},
			{
				"type": "unocc",
				"energy": 0.05083,
				"method": "rhf"
			},
			{
				"type": "unocc",
				"energy": 0.08126,
				"method": "rhf"
			}
		],
		"cosmo_sigma_profile": { 
			"-0.025": 0.0,
			"-0.024": 0.0,
			"-0.023": 0.0,
			"-0.022": 0.0,
			"-0.021": 0.0,
			"-0.02": 0.0,
			"-0.019": 0.427742461252,
			"-0.018": 1.04116145339,
			"-0.017": 1.28480966247,
			"-0.016": 0.609358832784,
			"-0.015": 1.38093601445,
			"-0.014": 1.29621313318,
			"-0.013": 0.759933074965,
			"-0.012": 0.994369836351,
			"-0.011": 1.3570240841,
			"-0.01": 1.19190997574,
			"-0.009": 2.04014547517,
			"-0.008": 3.68884410882,
			"-0.007": 4.30937229851,
			"-0.006": 4.39288258244,
			"-0.005": 7.6714078789,
			"-0.004": 11.7197753555,
			"-0.003": 11.2312593826,
			"-0.002": 11.2303508461,
			"-0.001": 13.1321675532,
			"0.0": 11.5871322373,
			"0.001": 10.6350017606,
			"0.002": 15.4885291816,
			"0.003": 15.7671625782,
			"0.004": 6.0435623082,
			"0.005": 2.65194134129,
			"0.006": 1.87407820138,
			"0.007": 3.05577904717,
			"0.008": 3.26638451382,
			"0.009": 3.18655247078,
			"0.01": 4.95643892398,
			"0.011": 4.7700824638,
			"0.012": 5.3219676231,
			"0.013": 1.57835089031,
			"0.014": 0.0665729883745,
			"0.015": 0.0,
			"0.016": 0.0,
			"0.017": 0.0,
			"0.018": 0.0,
			"0.019": 0.0,
			"0.02": 0.0,
			"0.021": 0.0,
			"0.022": 0.0,
			"0.023": 0.0,
			"0.024": 0.0,
			"0.025": 0.0
		}
	}
}
