{
	 "smiles": "COC(=O)NC1=CC(OC(=O)NC2=CC(C)=CC=C2)=CC=C1", 
	 "Tm": 416.15, 
	 "num_atms": 38, 
	 "gaussian": { 
		 "optdone": 1, 
		 "sigma_profile": "yes", 
		 "theory": "DFT", 
		 "functional": "B3LYP", 
		 "basiset": "6-31G**", 
		 "properties": { 
			 "R2extent": 11020.937, 
			 "electric_dipole_moment_norm": 5.50630899696, 
			 "electric_quadrupole_moment_norm": 17.5379035725, 
			 "total_energy": -1029.78484057, 
			 "HOMO_LUMO_gap": 0.19443, 
			 "cosmo_polarized_energy": -19.94, 
			 "cosmo_cavitation_energy": 43.51, 
			 "cosmo_dispersion_energy": -30.7, 
			 "cosmo_repulsion_energy": 2.36, 
			 "cosmo_total_nonelectrostatic_energy": 15.16, 
			 "SMD_solvation_energy": 10.18 
		},
		"coords": [
			{
				"x": -3.5244774981,
				"y": 5.6578401348,
				"z": -3.3821969775,
				"element": "C" 
			},
			{
				"x": -2.5053415803,
				"y": 4.8785288735,
				"z": -2.73069002,
				"element": "O" 
			},
			{
				"x": -1.4685237211,
				"y": 4.5412900297,
				"z": -3.5259197938,
				"element": "C" 
			},
			{
				"x": -1.3711810089,
				"y": 4.8490880227,
				"z": -4.6982993202,
				"element": "O" 
			},
			{
				"x": -0.501656377,
				"y": 3.794721668,
				"z": -2.8828440156,
				"element": "N" 
			},
			{
				"x": -0.3556316856,
				"y": 3.3104804625,
				"z": -1.5707705116,
				"element": "C" 
			},
			{
				"x": 0.7870699256,
				"y": 2.5304946447,
				"z": -1.3208536504,
				"element": "C" 
			},
			{
				"x": 1.0204721312,
				"y": 2.0196431514,
				"z": -0.0477472437,
				"element": "C" 
			},
			{
				"x": 2.1997598959,
				"y": 1.3200196646,
				"z": 0.1719175309,
				"element": "O" 
			},
			{
				"x": 2.2489646286,
				"y": -0.0640064658,
				"z": 0.2432273714,
				"element": "C" 
			},
			{
				"x": 3.3091064869,
				"y": -0.5894572215,
				"z": 0.4889165566,
				"element": "O" 
			},
			{
				"x": 1.0535950595,
				"y": -0.689063618,
				"z": 0.0070613092,
				"element": "N" 
			},
			{
				"x": 0.7946792605,
				"y": -2.0795960152,
				"z": 0.00706873,
				"element": "C" 
			},
			{
				"x": -0.5250409198,
				"y": -2.4738267265,
				"z": -0.2652202331,
				"element": "C" 
			},
			{
				"x": -0.8914926947,
				"y": -3.8202017035,
				"z": -0.2919025966,
				"element": "C" 
			},
			{
				"x": -2.3215104315,
				"y": -4.2262190222,
				"z": -0.5634706787,
				"element": "C" 
			},
			{
				"x": 0.0942138747,
				"y": -4.7858552729,
				"z": -0.0430374231,
				"element": "C" 
			},
			{
				"x": 1.4036783809,
				"y": -4.3956072648,
				"z": 0.2273396275,
				"element": "C" 
			},
			{
				"x": 1.7727405683,
				"y": -3.0498083024,
				"z": 0.2569462102,
				"element": "C" 
			},
			{
				"x": 0.1343384375,
				"y": 2.2585589252,
				"z": 1.0047696232,
				"element": "C" 
			},
			{
				"x": -0.9999433213,
				"y": 3.0271385201,
				"z": 0.7444377267,
				"element": "C" 
			},
			{
				"x": -1.2571701393,
				"y": 3.5540652289,
				"z": -0.5211984792,
				"element": "C" 
			},
			{
				"x": -3.110309965,
				"y": 6.5981354546,
				"z": -3.7523062207,
				"element": "H" 
			},
			{
				"x": -4.2779865937,
				"y": 5.8445284976,
				"z": -2.6173636228,
				"element": "H" 
			},
			{
				"x": -3.9544388729,
				"y": 5.1038488772,
				"z": -4.2194072158,
				"element": "H" 
			},
			{
				"x": 0.247026267,
				"y": 3.5671297837,
				"z": -3.5221648007,
				"element": "H" 
			},
			{
				"x": 1.5099011918,
				"y": 2.3277533171,
				"z": -2.1055648489,
				"element": "H" 
			},
			{
				"x": 0.2562562012,
				"y": -0.0980764154,
				"z": -0.1819244248,
				"element": "H" 
			},
			{
				"x": -1.2792426183,
				"y": -1.7132752434,
				"z": -0.4609059452,
				"element": "H" 
			},
			{
				"x": -2.8219204608,
				"y": -4.5534975204,
				"z": 0.3561302627,
				"element": "H" 
			},
			{
				"x": -2.3706330723,
				"y": -5.0608919445,
				"z": -1.2704484675,
				"element": "H" 
			},
			{
				"x": -2.9038658904,
				"y": -3.3985807499,
				"z": -0.9784280809,
				"element": "H" 
			},
			{
				"x": -0.1673402421,
				"y": -5.8405453552,
				"z": -0.0633881352,
				"element": "H" 
			},
			{
				"x": 2.1617333904,
				"y": -5.1503152944,
				"z": 0.4175216802,
				"element": "H" 
			},
			{
				"x": 2.7895825644,
				"y": -2.748702743,
				"z": 0.4638513268,
				"element": "H" 
			},
			{
				"x": 0.3464413588,
				"y": 1.8656159663,
				"z": 1.9929465124,
				"element": "H" 
			},
			{
				"x": -1.7014259082,
				"y": 3.2307501405,
				"z": 1.548026283,
				"element": "H" 
			},
			{
				"x": -2.1399266217,
				"y": 4.1507955159,
				"z": -0.6934080447,
				"element": "H" 
			}
		],
		 "valence_orbital": [ 
			{
				"type": "occ",
				"energy": -0.28354,
				"method": "rhf"
			},
			{
				"type": "occ",
				"energy": -0.26222,
				"method": "rhf"
			},
			{
				"type": "occ",
				"energy": -0.24373,
				"method": "rhf"
			},
			{
				"type": "occ",
				"energy": -0.23632,
				"method": "rhf"
			},
			{
				"type": "occ",
				"energy": -0.2192,
				"method": "rhf"
			},
			{
				"type": "unocc",
				"energy": -0.02477,
				"method": "rhf"
			},
			{
				"type": "unocc",
				"energy": -0.02193,
				"method": "rhf"
			},
			{
				"type": "unocc",
				"energy": -0.00377,
				"method": "rhf"
			},
			{
				"type": "unocc",
				"energy": 0.00177,
				"method": "rhf"
			},
			{
				"type": "unocc",
				"energy": 0.04809,
				"method": "rhf"
			}
		],
		"cosmo_sigma_profile": { 
			"-0.025": 0.0,
			"-0.024": 0.0,
			"-0.023": 0.0,
			"-0.022": 0.0,
			"-0.021": 0.0,
			"-0.02": 0.0,
			"-0.019": 0.0,
			"-0.018": 0.0,
			"-0.017": 0.0,
			"-0.016": 0.247521520635,
			"-0.015": 1.3214873788,
			"-0.014": 0.830097811379,
			"-0.013": 1.9402406822,
			"-0.012": 1.7171093166,
			"-0.011": 2.59510468025,
			"-0.01": 2.14402679045,
			"-0.009": 2.78416158337,
			"-0.008": 3.13363186189,
			"-0.007": 7.06529673321,
			"-0.006": 14.8348737679,
			"-0.005": 22.9028277997,
			"-0.004": 29.472223465,
			"-0.003": 30.1025285217,
			"-0.002": 25.6893514087,
			"-0.001": 24.4524243153,
			"0.0": 29.0695918009,
			"0.001": 23.4918589943,
			"0.002": 23.9652760891,
			"0.003": 22.5010364666,
			"0.004": 17.7510673126,
			"0.005": 13.0692063911,
			"0.006": 10.6706861923,
			"0.007": 4.11364818926,
			"0.008": 2.82194466629,
			"0.009": 4.35239426018,
			"0.01": 4.91665418774,
			"0.011": 5.02591664027,
			"0.012": 8.75601583373,
			"0.013": 5.60410055128,
			"0.014": 0.171736289129,
			"0.015": 0.0,
			"0.016": 0.0,
			"0.017": 0.0,
			"0.018": 0.0,
			"0.019": 0.0,
			"0.02": 0.0,
			"0.021": 0.0,
			"0.022": 0.0,
			"0.023": 0.0,
			"0.024": 0.0,
			"0.025": 0.0
		}
	}
}
