{
	 "smiles": "CC(O)C1CCCNC1", 
	 "Tm": 326.15, 
	 "num_atms": 24, 
	 "gaussian": { 
		 "optdone": 1, 
		 "sigma_profile": "yes", 
		 "theory": "DFT", 
		 "functional": "B3LYP", 
		 "basiset": "6-31G**", 
		 "properties": { 
			 "R2extent": 1409.7862, 
			 "electric_dipole_moment_norm": 2.11711366015, 
			 "electric_quadrupole_moment_norm": 6.39900135334, 
			 "total_energy": -405.754546945, 
			 "HOMO_LUMO_gap": 0.28826, 
			 "cosmo_polarized_energy": -7.62, 
			 "cosmo_cavitation_energy": 23.34, 
			 "cosmo_dispersion_energy": -17.68, 
			 "cosmo_repulsion_energy": 1.44, 
			 "cosmo_total_nonelectrostatic_energy": 7.1, 
			 "SMD_solvation_energy": 2.26 
		},
		"coords": [
			{
				"x": -1.0531331034,
				"y": 0.2195658836,
				"z": -2.3283116861,
				"element": "C" 
			},
			{
				"x": -1.6294241448,
				"y": -0.6869723364,
				"z": -1.2402998795,
				"element": "C" 
			},
			{
				"x": -3.0607606802,
				"y": -0.6331989028,
				"z": -1.2460950197,
				"element": "O" 
			},
			{
				"x": -1.0989588311,
				"y": -0.4964081158,
				"z": 0.2053332709,
				"element": "C" 
			},
			{
				"x": -1.3299641351,
				"y": 0.89974337,
				"z": 0.8322516622,
				"element": "C" 
			},
			{
				"x": -0.240812243,
				"y": 1.9364071634,
				"z": 0.5010583579,
				"element": "C" 
			},
			{
				"x": 1.1569457838,
				"y": 1.3499164067,
				"z": 0.720546775,
				"element": "C" 
			},
			{
				"x": 1.2946374569,
				"y": 0.1256498026,
				"z": -0.0700363905,
				"element": "N" 
			},
			{
				"x": 0.3724769612,
				"y": -0.916776801,
				"z": 0.3876677981,
				"element": "C" 
			},
			{
				"x": -1.4181731502,
				"y": -0.104261803,
				"z": -3.3079754499,
				"element": "H" 
			},
			{
				"x": 0.0390715294,
				"y": 0.2074396295,
				"z": -2.3157195009,
				"element": "H" 
			},
			{
				"x": -1.3728416123,
				"y": 1.2590365526,
				"z": -2.1825054751,
				"element": "H" 
			},
			{
				"x": -1.4024018951,
				"y": -1.7273168092,
				"z": -1.5098323709,
				"element": "H" 
			},
			{
				"x": -3.3164190811,
				"y": 0.2984808575,
				"z": -1.2401130699,
				"element": "H" 
			},
			{
				"x": -1.700808171,
				"y": -1.207214577,
				"z": 0.7861956793,
				"element": "H" 
			},
			{
				"x": -2.3224547509,
				"y": 1.2783903042,
				"z": 0.5569215663,
				"element": "H" 
			},
			{
				"x": -1.3572887727,
				"y": 0.7731249167,
				"z": 1.9231203994,
				"element": "H" 
			},
			{
				"x": -0.3190471645,
				"y": 2.2656252501,
				"z": -0.5394749598,
				"element": "H" 
			},
			{
				"x": -0.372385087,
				"y": 2.8248404784,
				"z": 1.1306116366,
				"element": "H" 
			},
			{
				"x": 1.3065085248,
				"y": 1.1685904344,
				"z": 1.8045285757,
				"element": "H" 
			},
			{
				"x": 1.9248109361,
				"y": 2.0638571531,
				"z": 0.4026098772,
				"element": "H" 
			},
			{
				"x": 2.2495240311,
				"y": -0.2171248452,
				"z": -0.0147008888,
				"element": "H" 
			},
			{
				"x": 0.5267593778,
				"y": -1.159063505,
				"z": 1.4580069424,
				"element": "H" 
			},
			{
				"x": 0.5733382212,
				"y": -1.8345305074,
				"z": -0.17848785,
				"element": "H" 
			}
		],
		 "valence_orbital": [ 
			{
				"type": "occ",
				"energy": -0.31633,
				"method": "rhf"
			},
			{
				"type": "occ",
				"energy": -0.30534,
				"method": "rhf"
			},
			{
				"type": "occ",
				"energy": -0.29734,
				"method": "rhf"
			},
			{
				"type": "occ",
				"energy": -0.25509,
				"method": "rhf"
			},
			{
				"type": "occ",
				"energy": -0.22015,
				"method": "rhf"
			},
			{
				"type": "unocc",
				"energy": 0.06811,
				"method": "rhf"
			},
			{
				"type": "unocc",
				"energy": 0.08724,
				"method": "rhf"
			},
			{
				"type": "unocc",
				"energy": 0.11166,
				"method": "rhf"
			},
			{
				"type": "unocc",
				"energy": 0.12212,
				"method": "rhf"
			},
			{
				"type": "unocc",
				"energy": 0.12501,
				"method": "rhf"
			}
		],
		"cosmo_sigma_profile": { 
			"-0.025": 0.0,
			"-0.024": 0.0,
			"-0.023": 0.0,
			"-0.022": 0.0,
			"-0.021": 0.0,
			"-0.02": 0.0,
			"-0.019": 0.0,
			"-0.018": 0.0,
			"-0.017": 0.0,
			"-0.016": 0.0,
			"-0.015": 0.0,
			"-0.014": 0.426618924792,
			"-0.013": 0.656153859512,
			"-0.012": 0.831308404421,
			"-0.011": 1.35428237268,
			"-0.01": 1.8860838937,
			"-0.009": 2.23225208251,
			"-0.008": 2.31842154849,
			"-0.007": 2.02907448936,
			"-0.006": 2.42127775812,
			"-0.005": 3.41601681221,
			"-0.004": 4.3494301796,
			"-0.003": 15.5413175327,
			"-0.002": 20.2434550551,
			"-0.001": 33.9919627402,
			"0.0": 29.5297799643,
			"0.001": 19.9103991944,
			"0.002": 8.98495166147,
			"0.003": 2.70811525086,
			"0.004": 2.41714021674,
			"0.005": 3.38815273182,
			"0.006": 1.8599778018,
			"0.007": 2.25289173876,
			"0.008": 1.69866610973,
			"0.009": 2.33810413216,
			"0.01": 2.24733004085,
			"0.011": 1.53435360061,
			"0.012": 2.3507560683,
			"0.013": 1.39257257587,
			"0.014": 2.04818151783,
			"0.015": 1.99442949185,
			"0.016": 0.151892663355,
			"0.017": 0.0,
			"0.018": 0.0,
			"0.019": 0.0,
			"0.02": 0.0,
			"0.021": 0.0,
			"0.022": 0.0,
			"0.023": 0.0,
			"0.024": 0.0,
			"0.025": 0.0
		}
	}
}
