{
	 "smiles": "CC1=CC(Br)=CC(=C1N)[N+]([O-])=O", 
	 "Tm": 418.15, 
	 "num_atms": 19, 
	 "gaussian": { 
		 "optdone": 1, 
		 "sigma_profile": "yes", 
		 "theory": "DFT", 
		 "functional": "B3LYP", 
		 "basiset": "6-31G**", 
		 "properties": { 
			 "R2extent": 4460.2281, 
			 "electric_dipole_moment_norm": 5.34085332227, 
			 "electric_quadrupole_moment_norm": 4.74549019175, 
			 "total_energy": -3102.2326989, 
			 "HOMO_LUMO_gap": 0.13445, 
			 "cosmo_polarized_energy": -11.32, 
			 "cosmo_cavitation_energy": 25.45, 
			 "cosmo_dispersion_energy": -19.54, 
			 "cosmo_repulsion_energy": 1.55, 
			 "cosmo_total_nonelectrostatic_energy": 7.45, 
			 "SMD_solvation_energy": 5.11 
		},
		"coords": [
			{
				"x": -0.267348091,
				"y": 1.9572909522,
				"z": 2.1383804875,
				"element": "C" 
			},
			{
				"x": -0.2847238814,
				"y": 1.55254432,
				"z": 0.6855350608,
				"element": "C" 
			},
			{
				"x": -0.9187041723,
				"y": 2.340264824,
				"z": -0.2596647351,
				"element": "C" 
			},
			{
				"x": -0.9443776421,
				"y": 1.9791589565,
				"z": -1.6160552,
				"element": "C" 
			},
			{
				"x": -1.8352395456,
				"y": 3.1079678393,
				"z": -2.8706618844,
				"element": "Br" 
			},
			{
				"x": -0.3319658998,
				"y": 0.8206344596,
				"z": -2.0354947098,
				"element": "C" 
			},
			{
				"x": 0.3181718178,
				"y": 0.003938555,
				"z": -1.0951991909,
				"element": "C" 
			},
			{
				"x": 0.3633413544,
				"y": 0.3403922955,
				"z": 0.286922236,
				"element": "C" 
			},
			{
				"x": 0.9830378801,
				"y": -0.4239495384,
				"z": 1.2194372328,
				"element": "N" 
			},
			{
				"x": 0.9394015736,
				"y": -1.2008844442,
				"z": -1.613553444,
				"element": "N" 
			},
			{
				"x": 1.5300514866,
				"y": -1.9633244266,
				"z": -0.8239243509,
				"element": "O" 
			},
			{
				"x": 0.8611159384,
				"y": -1.4293549438,
				"z": -2.8203592019,
				"element": "O" 
			},
			{
				"x": 0.7566757085,
				"y": 2.095632494,
				"z": 2.5098524072,
				"element": "H" 
			},
			{
				"x": -0.7987281938,
				"y": 2.8996692905,
				"z": 2.2857214987,
				"element": "H" 
			},
			{
				"x": -0.7498618075,
				"y": 1.2048570403,
				"z": 2.7762635543,
				"element": "H" 
			},
			{
				"x": -1.4062261166,
				"y": 3.2568811452,
				"z": 0.0554351649,
				"element": "H" 
			},
			{
				"x": -0.332283432,
				"y": 0.5119477787,
				"z": -3.0714646299,
				"element": "H" 
			},
			{
				"x": 1.4293345212,
				"y": -1.2771166586,
				"z": 0.9136588541,
				"element": "H" 
			},
			{
				"x": 0.9815285015,
				"y": -0.1488499395,
				"z": 2.1853708506,
				"element": "H" 
			}
		],
		 "valence_orbital": [ 
			{
				"type": "occ",
				"energy": -0.29344,
				"method": "rhf"
			},
			{
				"type": "occ",
				"energy": -0.29225,
				"method": "rhf"
			},
			{
				"type": "occ",
				"energy": -0.28933,
				"method": "rhf"
			},
			{
				"type": "occ",
				"energy": -0.27808,
				"method": "rhf"
			},
			{
				"type": "occ",
				"energy": -0.22174,
				"method": "rhf"
			},
			{
				"type": "unocc",
				"energy": -0.08729,
				"method": "rhf"
			},
			{
				"type": "unocc",
				"energy": -0.01464,
				"method": "rhf"
			},
			{
				"type": "unocc",
				"energy": 0.00101,
				"method": "rhf"
			},
			{
				"type": "unocc",
				"energy": 0.00191,
				"method": "rhf"
			},
			{
				"type": "unocc",
				"energy": 0.06248,
				"method": "rhf"
			}
		],
		"cosmo_sigma_profile": { 
			"-0.025": 0.0,
			"-0.024": 0.0,
			"-0.023": 0.0,
			"-0.022": 0.0,
			"-0.021": 0.0,
			"-0.02": 0.0,
			"-0.019": 0.0,
			"-0.018": 0.0,
			"-0.017": 0.0,
			"-0.016": 0.0,
			"-0.015": 0.0106149891401,
			"-0.014": 1.00421042411,
			"-0.013": 0.539475230447,
			"-0.012": 1.31167091864,
			"-0.011": 1.46468498261,
			"-0.01": 2.69218687779,
			"-0.009": 2.2679203203,
			"-0.008": 3.18114893431,
			"-0.007": 5.33503990654,
			"-0.006": 6.55459525067,
			"-0.005": 11.2233481513,
			"-0.004": 11.7873629949,
			"-0.003": 13.5682195592,
			"-0.002": 13.6389417342,
			"-0.001": 18.0336730499,
			"0.0": 19.6193000683,
			"0.001": 18.3858415292,
			"0.002": 19.5879107811,
			"0.003": 10.4544383352,
			"0.004": 13.6457866165,
			"0.005": 8.35594357306,
			"0.006": 2.83823875233,
			"0.007": 3.55069586154,
			"0.008": 6.65328170512,
			"0.009": 4.43822970803,
			"0.01": 4.21558837956,
			"0.011": 2.27150126132,
			"0.012": 0.00903329682982,
			"0.013": 0.0,
			"0.014": 0.0,
			"0.015": 0.0,
			"0.016": 0.0,
			"0.017": 0.0,
			"0.018": 0.0,
			"0.019": 0.0,
			"0.02": 0.0,
			"0.021": 0.0,
			"0.022": 0.0,
			"0.023": 0.0,
			"0.024": 0.0,
			"0.025": 0.0
		}
	}
}
