{
	 "smiles": "COC1=C(C=C(F)C(F)=C1)[N+]([O-])=O", 
	 "Tm": 328.15, 
	 "num_atms": 18, 
	 "gaussian": { 
		 "optdone": 1, 
		 "sigma_profile": "yes", 
		 "theory": "DFT", 
		 "functional": "B3LYP", 
		 "basiset": "6-31G**", 
		 "properties": { 
			 "R2extent": 2768.4937, 
			 "electric_dipole_moment_norm": 4.66606932975, 
			 "electric_quadrupole_moment_norm": 9.605382641, 
			 "total_energy": -749.71506699, 
			 "HOMO_LUMO_gap": 0.16396, 
			 "cosmo_polarized_energy": -11.22, 
			 "cosmo_cavitation_energy": 24.43, 
			 "cosmo_dispersion_energy": -17.65, 
			 "cosmo_repulsion_energy": 1.35, 
			 "cosmo_total_nonelectrostatic_energy": 8.13, 
			 "SMD_solvation_energy": 8.38 
		},
		"coords": [
			{
				"x": -1.6882652429,
				"y": -1.8252531607,
				"z": -0.5290601465,
				"element": "C" 
			},
			{
				"x": -1.0753201257,
				"y": -0.5394641878,
				"z": -0.5485180958,
				"element": "O" 
			},
			{
				"x": -0.119580531,
				"y": -0.2590245134,
				"z": 0.3548670378,
				"element": "C" 
			},
			{
				"x": 0.5300231822,
				"y": 1.0004706141,
				"z": 0.3172009224,
				"element": "C" 
			},
			{
				"x": 1.55377845,
				"y": 1.3106978499,
				"z": 1.2165185354,
				"element": "C" 
			},
			{
				"x": 1.9397142145,
				"y": 0.3955247566,
				"z": 2.1745102835,
				"element": "C" 
			},
			{
				"x": 2.9125347548,
				"y": 0.6799266161,
				"z": 3.053943877,
				"element": "F" 
			},
			{
				"x": 1.3049754483,
				"y": -0.8455095023,
				"z": 2.2281386006,
				"element": "C" 
			},
			{
				"x": 1.6816759295,
				"y": -1.7312802847,
				"z": 3.1572296227,
				"element": "F" 
			},
			{
				"x": 0.2976853493,
				"y": -1.1762421145,
				"z": 1.334905682,
				"element": "C" 
			},
			{
				"x": 0.1769575356,
				"y": 2.0470929864,
				"z": -0.6489652106,
				"element": "N" 
			},
			{
				"x": 0.9883711355,
				"y": 2.9655359884,
				"z": -0.7969817925,
				"element": "O" 
			},
			{
				"x": -0.8971906684,
				"y": 1.966184567,
				"z": -1.2371100705,
				"element": "O" 
			},
			{
				"x": -2.4080664988,
				"y": -1.8139670259,
				"z": -1.3472031461,
				"element": "H" 
			},
			{
				"x": -0.9547151893,
				"y": -2.622531728,
				"z": -0.6982705663,
				"element": "H" 
			},
			{
				"x": -2.2147003227,
				"y": -2.0033211782,
				"z": 0.4160193111,
				"element": "H" 
			},
			{
				"x": 2.0383903896,
				"y": 2.2758813999,
				"z": 1.1482009528,
				"element": "H" 
			},
			{
				"x": -0.1491678105,
				"y": -2.1574210829,
				"z": 1.419374203,
				"element": "H" 
			}
		],
		 "valence_orbital": [ 
			{
				"type": "occ",
				"energy": -0.3046,
				"method": "rhf"
			},
			{
				"type": "occ",
				"energy": -0.30324,
				"method": "rhf"
			},
			{
				"type": "occ",
				"energy": -0.29158,
				"method": "rhf"
			},
			{
				"type": "occ",
				"energy": -0.28038,
				"method": "rhf"
			},
			{
				"type": "occ",
				"energy": -0.25041,
				"method": "rhf"
			},
			{
				"type": "unocc",
				"energy": -0.08645,
				"method": "rhf"
			},
			{
				"type": "unocc",
				"energy": -0.02641,
				"method": "rhf"
			},
			{
				"type": "unocc",
				"energy": -0.00124,
				"method": "rhf"
			},
			{
				"type": "unocc",
				"energy": 0.04904,
				"method": "rhf"
			},
			{
				"type": "unocc",
				"energy": 0.08185,
				"method": "rhf"
			}
		],
		"cosmo_sigma_profile": { 
			"-0.025": 0.0,
			"-0.024": 0.0,
			"-0.023": 0.0,
			"-0.022": 0.0,
			"-0.021": 0.0,
			"-0.02": 0.0,
			"-0.019": 0.0,
			"-0.018": 0.0,
			"-0.017": 0.0,
			"-0.016": 0.0,
			"-0.015": 0.0,
			"-0.014": 0.0,
			"-0.013": 0.0,
			"-0.012": 0.0,
			"-0.011": 0.0,
			"-0.01": 0.724262563874,
			"-0.009": 3.21045678559,
			"-0.008": 3.43979982495,
			"-0.007": 8.73827154267,
			"-0.006": 11.8422245136,
			"-0.005": 11.0817836108,
			"-0.004": 12.3649048388,
			"-0.003": 15.2305736633,
			"-0.002": 20.5976094145,
			"-0.001": 17.6092989383,
			"0.0": 10.6682141648,
			"0.001": 7.09480380363,
			"0.002": 11.7029772351,
			"0.003": 21.4730779514,
			"0.004": 4.5035313645,
			"0.005": 3.80043959995,
			"0.006": 3.23827072861,
			"0.007": 5.54565216361,
			"0.008": 9.53918347979,
			"0.009": 6.63144633088,
			"0.01": 4.88237218992,
			"0.011": 1.74804181679,
			"0.012": 0.903276328825,
			"0.013": 0.0102118478323,
			"0.014": 0.0,
			"0.015": 0.0,
			"0.016": 0.0,
			"0.017": 0.0,
			"0.018": 0.0,
			"0.019": 0.0,
			"0.02": 0.0,
			"0.021": 0.0,
			"0.022": 0.0,
			"0.023": 0.0,
			"0.024": 0.0,
			"0.025": 0.0
		}
	}
}
