{
	 "smiles": "CC(=O)NC1=CC(=CC=C1)N=NC1=CC=CC(NC(C)=O)=C1", 
	 "Tm": 545.15, 
	 "num_atms": 38, 
	 "gaussian": { 
		 "optdone": 1, 
		 "sigma_profile": "yes", 
		 "theory": "DFT", 
		 "functional": "B3LYP", 
		 "basiset": "6-31G**", 
		 "properties": { 
			 "R2extent": 14085.8021, 
			 "electric_dipole_moment_norm": 0.00115758369028, 
			 "electric_quadrupole_moment_norm": 56.051647871, 
			 "total_energy": -988.790667604, 
			 "HOMO_LUMO_gap": 0.13564, 
			 "cosmo_polarized_energy": -21.52, 
			 "cosmo_cavitation_energy": 43.9, 
			 "cosmo_dispersion_energy": -31.38, 
			 "cosmo_repulsion_energy": 2.4, 
			 "cosmo_total_nonelectrostatic_energy": 14.92, 
			 "SMD_solvation_energy": 7.88 
		},
		"coords": [
			{
				"x": -5.1635481042,
				"y": -4.7689098286,
				"z": -2.4591910847,
				"element": "C" 
			},
			{
				"x": -5.3200882164,
				"y": -3.3798192934,
				"z": -3.0474217127,
				"element": "C" 
			},
			{
				"x": -6.3145604135,
				"y": -3.0520263915,
				"z": -3.6770779245,
				"element": "O" 
			},
			{
				"x": -4.3098344822,
				"y": -2.4490944386,
				"z": -2.8483575642,
				"element": "N" 
			},
			{
				"x": -3.0842023611,
				"y": -2.5182965296,
				"z": -2.1527237895,
				"element": "C" 
			},
			{
				"x": -2.6705946737,
				"y": -1.3966675846,
				"z": -1.4207708829,
				"element": "C" 
			},
			{
				"x": -1.4471190973,
				"y": -1.3940497326,
				"z": -0.7450129576,
				"element": "C" 
			},
			{
				"x": -0.6176390896,
				"y": -2.5278461203,
				"z": -0.7782250742,
				"element": "C" 
			},
			{
				"x": -1.0269887401,
				"y": -3.6357619808,
				"z": -1.5086748442,
				"element": "C" 
			},
			{
				"x": -2.2388973551,
				"y": -3.6358266297,
				"z": -2.2083045609,
				"element": "C" 
			},
			{
				"x": -1.1519502503,
				"y": -0.1929025134,
				"z": -0.0486737513,
				"element": "N" 
			},
			{
				"x": -0.058078321,
				"y": -0.2027172183,
				"z": 0.5755330749,
				"element": "N" 
			},
			{
				"x": 0.2372538724,
				"y": 0.9983828579,
				"z": 1.2719188427,
				"element": "C" 
			},
			{
				"x": -0.5919087163,
				"y": 2.1324083134,
				"z": 1.3049594008,
				"element": "C" 
			},
			{
				"x": -0.1823976967,
				"y": 3.2402242467,
				"z": 2.0354873063,
				"element": "C" 
			},
			{
				"x": 1.0293682971,
				"y": 3.2399677938,
				"z": 2.7353432599,
				"element": "C" 
			},
			{
				"x": 1.8743912476,
				"y": 2.1222080417,
				"z": 2.6799061182,
				"element": "C" 
			},
			{
				"x": 3.0998578254,
				"y": 2.0526962898,
				"z": 3.3757999607,
				"element": "N" 
			},
			{
				"x": 4.1102818707,
				"y": 2.9831752668,
				"z": 3.5751201072,
				"element": "C" 
			},
			{
				"x": 3.9542948541,
				"y": 4.3722803555,
				"z": 2.9867714014,
				"element": "C" 
			},
			{
				"x": 5.1044718777,
				"y": 2.6551699238,
				"z": 4.2051152758,
				"element": "O" 
			},
			{
				"x": 1.4606223582,
				"y": 1.0006911633,
				"z": 1.9478924331,
				"element": "C" 
			},
			{
				"x": -4.6325801169,
				"y": -5.4206648893,
				"z": -3.1612379557,
				"element": "H" 
			},
			{
				"x": -6.1663525704,
				"y": -5.1745133243,
				"z": -2.3213197262,
				"element": "H" 
			},
			{
				"x": -4.6214321551,
				"y": -4.774870513,
				"z": -1.5110600098,
				"element": "H" 
			},
			{
				"x": -4.5892686254,
				"y": -1.5329067363,
				"z": -3.1781100262,
				"element": "H" 
			},
			{
				"x": -3.2960513593,
				"y": -0.5114308911,
				"z": -1.3572636089,
				"element": "H" 
			},
			{
				"x": 0.3238065211,
				"y": -2.5104463138,
				"z": -0.243018783,
				"element": "H" 
			},
			{
				"x": -0.3894224207,
				"y": -4.5135825497,
				"z": -1.5603794582,
				"element": "H" 
			},
			{
				"x": -2.5092933943,
				"y": -4.4928314296,
				"z": -2.8130805635,
				"element": "H" 
			},
			{
				"x": -1.5332580367,
				"y": 2.1152649525,
				"z": 0.7695816771,
				"element": "H" 
			},
			{
				"x": -0.819753829,
				"y": 4.1182041986,
				"z": 2.087072043,
				"element": "H" 
			},
			{
				"x": 1.2998935287,
				"y": 4.0968830922,
				"z": 3.3401901509,
				"element": "H" 
			},
			{
				"x": 3.3789689015,
				"y": 1.1364526772,
				"z": 3.7056716166,
				"element": "H" 
			},
			{
				"x": 3.4235847054,
				"y": 5.0242770967,
				"z": 3.6887915477,
				"element": "H" 
			},
			{
				"x": 3.4122169433,
				"y": 4.3784198118,
				"z": 2.0386242604,
				"element": "H" 
			},
			{
				"x": 4.95726631,
				"y": 4.7774809472,
				"z": 2.8489179382,
				"element": "H" 
			},
			{
				"x": 2.0858409119,
				"y": 0.1152778795,
				"z": 1.884507863,
				"element": "H" 
			}
		],
		 "valence_orbital": [ 
			{
				"type": "occ",
				"energy": -0.25727,
				"method": "rhf"
			},
			{
				"type": "occ",
				"energy": -0.25073,
				"method": "rhf"
			},
			{
				"type": "occ",
				"energy": -0.23921,
				"method": "rhf"
			},
			{
				"type": "occ",
				"energy": -0.23543,
				"method": "rhf"
			},
			{
				"type": "occ",
				"energy": -0.23016,
				"method": "rhf"
			},
			{
				"type": "unocc",
				"energy": -0.09452,
				"method": "rhf"
			},
			{
				"type": "unocc",
				"energy": -0.02394,
				"method": "rhf"
			},
			{
				"type": "unocc",
				"energy": -0.02343,
				"method": "rhf"
			},
			{
				"type": "unocc",
				"energy": -0.00762,
				"method": "rhf"
			},
			{
				"type": "unocc",
				"energy": 0.01472,
				"method": "rhf"
			}
		],
		"cosmo_sigma_profile": { 
			"-0.025": 0.0,
			"-0.024": 0.0,
			"-0.023": 0.0,
			"-0.022": 0.0,
			"-0.021": 0.0,
			"-0.02": 0.0,
			"-0.019": 0.0,
			"-0.018": 0.0,
			"-0.017": 0.0,
			"-0.016": 0.0,
			"-0.015": 0.16960742343,
			"-0.014": 1.66368566257,
			"-0.013": 2.22242116749,
			"-0.012": 1.56206097068,
			"-0.011": 2.89844186851,
			"-0.01": 3.24261625087,
			"-0.009": 1.76174956439,
			"-0.008": 6.3922731908,
			"-0.007": 12.4520323058,
			"-0.006": 17.3989423311,
			"-0.005": 24.3108694678,
			"-0.004": 22.0521919573,
			"-0.003": 26.469216874,
			"-0.002": 24.6038756279,
			"-0.001": 23.4438152092,
			"0.0": 22.6305897873,
			"0.001": 25.5939114817,
			"0.002": 36.4695045523,
			"0.003": 28.9814876131,
			"0.004": 15.0464849786,
			"0.005": 6.01870258569,
			"0.006": 4.71759973516,
			"0.007": 6.64257771374,
			"0.008": 2.1682856385,
			"0.009": 1.36039472763,
			"0.01": 3.62890041229,
			"0.011": 3.65339454999,
			"0.012": 4.74443962093,
			"0.013": 10.392713684,
			"0.014": 7.11801541383,
			"0.015": 0.617763375342,
			"0.016": 0.0,
			"0.017": 0.0,
			"0.018": 0.0,
			"0.019": 0.0,
			"0.02": 0.0,
			"0.021": 0.0,
			"0.022": 0.0,
			"0.023": 0.0,
			"0.024": 0.0,
			"0.025": 0.0
		}
	}
}
