{
	 "smiles": "NC1=C(C(O)=O)C(Cl)=CC=C1", 
	 "Tm": 432.15, 
	 "num_atms": 17, 
	 "gaussian": { 
		 "optdone": 1, 
		 "sigma_profile": "yes", 
		 "theory": "DFT", 
		 "functional": "B3LYP", 
		 "basiset": "6-31G**", 
		 "properties": { 
			 "R2extent": 2338.5986, 
			 "electric_dipole_moment_norm": 4.14196802136, 
			 "electric_quadrupole_moment_norm": 8.35250027836, 
			 "total_energy": -935.767121289, 
			 "HOMO_LUMO_gap": 0.16499, 
			 "cosmo_polarized_energy": -11.24, 
			 "cosmo_cavitation_energy": 22.36, 
			 "cosmo_dispersion_energy": -17.48, 
			 "cosmo_repulsion_energy": 1.38, 
			 "cosmo_total_nonelectrostatic_energy": 6.26, 
			 "SMD_solvation_energy": 4.52 
		},
		"coords": [
			{
				"x": -0.1953242623,
				"y": -1.8405046097,
				"z": 1.3024158105,
				"element": "N" 
			},
			{
				"x": -0.331063622,
				"y": -1.6257828484,
				"z": -0.032309194,
				"element": "C" 
			},
			{
				"x": -0.7180879784,
				"y": -0.344866121,
				"z": -0.5659717098,
				"element": "C" 
			},
			{
				"x": -0.9724588167,
				"y": 0.7639947905,
				"z": 0.4113948758,
				"element": "C" 
			},
			{
				"x": -1.649172948,
				"y": 1.8601603543,
				"z": 0.0316874612,
				"element": "O" 
			},
			{
				"x": -0.6136892967,
				"y": 0.703560297,
				"z": 1.5789922307,
				"element": "O" 
			},
			{
				"x": -0.8163771023,
				"y": -0.2636097325,
				"z": -1.977736132,
				"element": "C" 
			},
			{
				"x": -1.2089400676,
				"y": 1.2596305094,
				"z": -2.8127678859,
				"element": "Cl" 
			},
			{
				"x": -0.5884529767,
				"y": -1.3286440309,
				"z": -2.832712775,
				"element": "C" 
			},
			{
				"x": -0.2421770694,
				"y": -2.5666606406,
				"z": -2.278417804,
				"element": "C" 
			},
			{
				"x": -0.1153567372,
				"y": -2.7130198103,
				"z": -0.9143309169,
				"element": "C" 
			},
			{
				"x": 0.1810968422,
				"y": -2.7199991573,
				"z": 1.6147027014,
				"element": "H" 
			},
			{
				"x": -0.1880643933,
				"y": -1.0275026778,
				"z": 1.9080995526,
				"element": "H" 
			},
			{
				"x": -1.8746107437,
				"y": 1.8381466022,
				"z": -0.9124863303,
				"element": "H" 
			},
			{
				"x": -0.674040706,
				"y": -1.1946092915,
				"z": -3.9035417711,
				"element": "H" 
			},
			{
				"x": -0.0641936257,
				"y": -3.4147407205,
				"z": -2.932916207,
				"element": "H" 
			},
			{
				"x": 0.1627135037,
				"y": -3.673152913,
				"z": -0.4889019062,
				"element": "H" 
			}
		],
		 "valence_orbital": [ 
			{
				"type": "occ",
				"energy": -0.31959,
				"method": "rhf"
			},
			{
				"type": "occ",
				"energy": -0.30992,
				"method": "rhf"
			},
			{
				"type": "occ",
				"energy": -0.2779,
				"method": "rhf"
			},
			{
				"type": "occ",
				"energy": -0.26789,
				"method": "rhf"
			},
			{
				"type": "occ",
				"energy": -0.21788,
				"method": "rhf"
			},
			{
				"type": "unocc",
				"energy": -0.05289,
				"method": "rhf"
			},
			{
				"type": "unocc",
				"energy": -0.00626,
				"method": "rhf"
			},
			{
				"type": "unocc",
				"energy": 0.00333,
				"method": "rhf"
			},
			{
				"type": "unocc",
				"energy": 0.04598,
				"method": "rhf"
			},
			{
				"type": "unocc",
				"energy": 0.08072,
				"method": "rhf"
			}
		],
		"cosmo_sigma_profile": { 
			"-0.025": 0.0,
			"-0.024": 0.0,
			"-0.023": 0.0,
			"-0.022": 0.0,
			"-0.021": 0.0,
			"-0.02": 0.0,
			"-0.019": 0.0,
			"-0.018": 0.0,
			"-0.017": 0.0,
			"-0.016": 0.0,
			"-0.015": 0.0,
			"-0.014": 0.672045210053,
			"-0.013": 1.44640210894,
			"-0.012": 1.43006801133,
			"-0.011": 3.21235348659,
			"-0.01": 2.72086287835,
			"-0.009": 1.99073466734,
			"-0.008": 4.39296911921,
			"-0.007": 7.43322382894,
			"-0.006": 7.46472722335,
			"-0.005": 9.30944697857,
			"-0.004": 9.04801627022,
			"-0.003": 9.12275217907,
			"-0.002": 9.9144768254,
			"-0.001": 9.97175415082,
			"0.0": 12.6356770684,
			"0.001": 15.1811155342,
			"0.002": 20.8200206989,
			"0.003": 17.8932471654,
			"0.004": 9.92309447274,
			"0.005": 2.69383612042,
			"0.006": 2.55325657175,
			"0.007": 3.13889333766,
			"0.008": 3.28347045337,
			"0.009": 3.20078931706,
			"0.01": 3.383679383,
			"0.011": 4.05240789074,
			"0.012": 2.39529789545,
			"0.013": 1.96142320185,
			"0.014": 0.301931420777,
			"0.015": 0.0,
			"0.016": 0.0,
			"0.017": 0.0,
			"0.018": 0.0,
			"0.019": 0.0,
			"0.02": 0.0,
			"0.021": 0.0,
			"0.022": 0.0,
			"0.023": 0.0,
			"0.024": 0.0,
			"0.025": 0.0
		}
	}
}
