{
	 "smiles": "CCNC(=O)C(=O)NCC", 
	 "Tm": 451.15, 
	 "num_atms": 22, 
	 "gaussian": { 
		 "optdone": 1, 
		 "sigma_profile": "yes", 
		 "theory": "DFT", 
		 "functional": "B3LYP", 
		 "basiset": "6-31G**", 
		 "properties": { 
			 "R2extent": 2192.1957, 
			 "electric_dipole_moment_norm": 2.48070757245, 
			 "electric_quadrupole_moment_norm": 14.2296879323, 
			 "total_energy": -495.849117853, 
			 "HOMO_LUMO_gap": 0.20993, 
			 "cosmo_polarized_energy": -13.23, 
			 "cosmo_cavitation_energy": 25.45, 
			 "cosmo_dispersion_energy": -18.37, 
			 "cosmo_repulsion_energy": 1.56, 
			 "cosmo_total_nonelectrostatic_energy": 8.65, 
			 "SMD_solvation_energy": 5.03 
		},
		"coords": [
			{
				"x": 2.8657332839,
				"y": 1.3127739752,
				"z": -1.5214506353,
				"element": "C" 
			},
			{
				"x": 2.8114482,
				"y": -0.1571301663,
				"z": -1.0970741197,
				"element": "C" 
			},
			{
				"x": 1.4734599637,
				"y": -0.7297713054,
				"z": -1.2482910693,
				"element": "N" 
			},
			{
				"x": 0.5525412707,
				"y": -1.1068881215,
				"z": -0.3235798308,
				"element": "C" 
			},
			{
				"x": -0.5648843779,
				"y": -1.5090060087,
				"z": -0.6445987044,
				"element": "O" 
			},
			{
				"x": 0.9704437282,
				"y": -1.0852893239,
				"z": 1.1595828746,
				"element": "C" 
			},
			{
				"x": 2.1086635162,
				"y": -1.3872027983,
				"z": 1.5165692179,
				"element": "O" 
			},
			{
				"x": -0.0002921913,
				"y": -0.7634978281,
				"z": 2.0537786582,
				"element": "N" 
			},
			{
				"x": -1.4228230882,
				"y": -0.4687579494,
				"z": 1.8646479419,
				"element": "C" 
			},
			{
				"x": -1.9329979985,
				"y": 0.4024574147,
				"z": 3.01097216,
				"element": "C" 
			},
			{
				"x": 2.2147353155,
				"y": 1.9269711437,
				"z": -0.8914946368,
				"element": "H" 
			},
			{
				"x": 3.888255188,
				"y": 1.6944180659,
				"z": -1.433069339,
				"element": "H" 
			},
			{
				"x": 2.5491562027,
				"y": 1.4428932552,
				"z": -2.5625439377,
				"element": "H" 
			},
			{
				"x": 3.5047831476,
				"y": -0.7495579993,
				"z": -1.7070366192,
				"element": "H" 
			},
			{
				"x": 3.1126706192,
				"y": -0.2857668162,
				"z": -0.0595014984,
				"element": "H" 
			},
			{
				"x": 1.1095339995,
				"y": -0.8131027798,
				"z": -2.1908981914,
				"element": "H" 
			},
			{
				"x": 0.3220417783,
				"y": -0.8650925823,
				"z": 3.0093560103,
				"element": "H" 
			},
			{
				"x": -1.9973362962,
				"y": -1.4008632547,
				"z": 1.8038053201,
				"element": "H" 
			},
			{
				"x": -1.5549347396,
				"y": 0.0352823462,
				"z": 0.9073393428,
				"element": "H" 
			},
			{
				"x": -1.8128070657,
				"y": -0.0984396338,
				"z": 3.9788769159,
				"element": "H" 
			},
			{
				"x": -1.39825088,
				"y": 1.3565652042,
				"z": 3.0522646886,
				"element": "H" 
			},
			{
				"x": -2.9987395761,
				"y": 0.6107051622,
				"z": 2.8791454516,
				"element": "H" 
			}
		],
		 "valence_orbital": [ 
			{
				"type": "occ",
				"energy": -0.35345,
				"method": "rhf"
			},
			{
				"type": "occ",
				"energy": -0.28876,
				"method": "rhf"
			},
			{
				"type": "occ",
				"energy": -0.25353,
				"method": "rhf"
			},
			{
				"type": "occ",
				"energy": -0.25206,
				"method": "rhf"
			},
			{
				"type": "occ",
				"energy": -0.23345,
				"method": "rhf"
			},
			{
				"type": "unocc",
				"energy": -0.02352,
				"method": "rhf"
			},
			{
				"type": "unocc",
				"energy": 0.07002,
				"method": "rhf"
			},
			{
				"type": "unocc",
				"energy": 0.09046,
				"method": "rhf"
			},
			{
				"type": "unocc",
				"energy": 0.09325,
				"method": "rhf"
			},
			{
				"type": "unocc",
				"energy": 0.11568,
				"method": "rhf"
			}
		],
		"cosmo_sigma_profile": { 
			"-0.025": 0.0,
			"-0.024": 0.0,
			"-0.023": 0.0,
			"-0.022": 0.0,
			"-0.021": 0.0,
			"-0.02": 0.0,
			"-0.019": 0.0,
			"-0.018": 0.0,
			"-0.017": 0.0,
			"-0.016": 0.0,
			"-0.015": 0.0,
			"-0.014": 0.379952684188,
			"-0.013": 2.40063476612,
			"-0.012": 1.0358029096,
			"-0.011": 2.44348797789,
			"-0.01": 2.85066599945,
			"-0.009": 1.85205095211,
			"-0.008": 1.66250695867,
			"-0.007": 2.63768176971,
			"-0.006": 2.90937817169,
			"-0.005": 6.21064110045,
			"-0.004": 19.4926950228,
			"-0.003": 24.8094746205,
			"-0.002": 24.7255517425,
			"-0.001": 20.8092691553,
			"0.0": 19.4412820457,
			"0.001": 14.9886044044,
			"0.002": 5.68390861615,
			"0.003": 5.73771974392,
			"0.004": 2.7977431801,
			"0.005": 2.82014233825,
			"0.006": 3.02933218756,
			"0.007": 2.09550035061,
			"0.008": 2.8465720713,
			"0.009": 3.38432540572,
			"0.01": 2.80015790508,
			"0.011": 3.29079656447,
			"0.012": 4.38994953517,
			"0.013": 8.60980153869,
			"0.014": 2.81318720716,
			"0.015": 0.00228579566108,
			"0.016": 0.0,
			"0.017": 0.0,
			"0.018": 0.0,
			"0.019": 0.0,
			"0.02": 0.0,
			"0.021": 0.0,
			"0.022": 0.0,
			"0.023": 0.0,
			"0.024": 0.0,
			"0.025": 0.0
		}
	}
}
