{
	 "smiles": "O=CC(SCC1=CC=CC=C1)C=O", 
	 "Tm": 402.15, 
	 "num_atms": 23, 
	 "gaussian": { 
		 "optdone": 1, 
		 "sigma_profile": "yes", 
		 "theory": "DFT", 
		 "functional": "B3LYP", 
		 "basiset": "6-31G**", 
		 "properties": { 
			 "R2extent": 3531.3634, 
			 "electric_dipole_moment_norm": 3.21796745478, 
			 "electric_quadrupole_moment_norm": 11.9214206058, 
			 "total_energy": -935.693164409, 
			 "HOMO_LUMO_gap": 0.18802, 
			 "cosmo_polarized_energy": -10.15, 
			 "cosmo_cavitation_energy": 28.78, 
			 "cosmo_dispersion_energy": -20.46, 
			 "cosmo_repulsion_energy": 1.59, 
			 "cosmo_total_nonelectrostatic_energy": 9.91, 
			 "SMD_solvation_energy": 6.26 
		},
		"coords": [
			{
				"x": 3.9489773513,
				"y": -3.3425180587,
				"z": 0.1493997646,
				"element": "O" 
			},
			{
				"x": 2.8125653108,
				"y": -2.9362703092,
				"z": 0.2410841081,
				"element": "C" 
			},
			{
				"x": 2.3341401375,
				"y": -1.6289011638,
				"z": -0.3647795826,
				"element": "C" 
			},
			{
				"x": 1.0267379353,
				"y": -2.0293643898,
				"z": -1.6154021084,
				"element": "S" 
			},
			{
				"x": 0.2217412964,
				"y": -0.361252861,
				"z": -1.7814659701,
				"element": "C" 
			},
			{
				"x": -0.4246527982,
				"y": 0.159816888,
				"z": -0.526676552,
				"element": "C" 
			},
			{
				"x": 0.2376407317,
				"y": 1.1124360909,
				"z": 0.2621210015,
				"element": "C" 
			},
			{
				"x": -0.3586251885,
				"y": 1.6051935438,
				"z": 1.4259368914,
				"element": "C" 
			},
			{
				"x": -1.6204021312,
				"y": 1.1535478114,
				"z": 1.8123461029,
				"element": "C" 
			},
			{
				"x": -2.2861114939,
				"y": 0.2031118209,
				"z": 1.0322276845,
				"element": "C" 
			},
			{
				"x": -1.6913921719,
				"y": -0.2911532606,
				"z": -0.1266890474,
				"element": "C" 
			},
			{
				"x": 3.406736529,
				"y": -0.8360780434,
				"z": -1.0808749412,
				"element": "C" 
			},
			{
				"x": 3.421175244,
				"y": 0.3789467166,
				"z": -1.0994731362,
				"element": "O" 
			},
			{
				"x": 2.0288581111,
				"y": -3.503691874,
				"z": 0.7849970077,
				"element": "H" 
			},
			{
				"x": 1.8592015421,
				"y": -1.0205818044,
				"z": 0.4151168897,
				"element": "H" 
			},
			{
				"x": 0.9773984269,
				"y": 0.3317809902,
				"z": -2.1580648172,
				"element": "H" 
			},
			{
				"x": -0.5123532086,
				"y": -0.5310065525,
				"z": -2.5747217344,
				"element": "H" 
			},
			{
				"x": 1.2225129935,
				"y": 1.4591662391,
				"z": -0.039655952,
				"element": "H" 
			},
			{
				"x": 0.1638056425,
				"y": 2.3444518931,
				"z": 2.0263107284,
				"element": "H" 
			},
			{
				"x": -2.0858220315,
				"y": 1.539572681,
				"z": 2.7146200635,
				"element": "H" 
			},
			{
				"x": -3.270570622,
				"y": -0.1492799697,
				"z": 1.3265475545,
				"element": "H" 
			},
			{
				"x": -2.2113656074,
				"y": -1.0318393884,
				"z": -0.7292451385,
				"element": "H" 
			},
			{
				"x": 4.1471040012,
				"y": -1.4390869997,
				"z": -1.6386588167,
				"element": "H" 
			}
		],
		 "valence_orbital": [ 
			{
				"type": "occ",
				"energy": -0.28923,
				"method": "rhf"
			},
			{
				"type": "occ",
				"energy": -0.26967,
				"method": "rhf"
			},
			{
				"type": "occ",
				"energy": -0.26052,
				"method": "rhf"
			},
			{
				"type": "occ",
				"energy": -0.25288,
				"method": "rhf"
			},
			{
				"type": "occ",
				"energy": -0.2435,
				"method": "rhf"
			},
			{
				"type": "unocc",
				"energy": -0.05548,
				"method": "rhf"
			},
			{
				"type": "unocc",
				"energy": -0.04525,
				"method": "rhf"
			},
			{
				"type": "unocc",
				"energy": -0.02038,
				"method": "rhf"
			},
			{
				"type": "unocc",
				"energy": -0.01145,
				"method": "rhf"
			},
			{
				"type": "unocc",
				"energy": 0.02883,
				"method": "rhf"
			}
		],
		"cosmo_sigma_profile": { 
			"-0.025": 0.0,
			"-0.024": 0.0,
			"-0.023": 0.0,
			"-0.022": 0.0,
			"-0.021": 0.0,
			"-0.02": 0.0,
			"-0.019": 0.0,
			"-0.018": 0.0,
			"-0.017": 0.0,
			"-0.016": 0.0,
			"-0.015": 0.0,
			"-0.014": 0.0,
			"-0.013": 0.0,
			"-0.012": 0.0,
			"-0.011": 0.0,
			"-0.01": 0.105337231225,
			"-0.009": 1.93077986835,
			"-0.008": 5.97454830234,
			"-0.007": 9.63306975698,
			"-0.006": 13.5877360956,
			"-0.005": 18.3665203806,
			"-0.004": 19.3561466062,
			"-0.003": 20.1569826161,
			"-0.002": 14.2323656351,
			"-0.001": 14.7633800472,
			"0.0": 12.5134289064,
			"0.001": 11.5096222117,
			"0.002": 13.8745965733,
			"0.003": 13.824939675,
			"0.004": 13.9874122412,
			"0.005": 13.7953103401,
			"0.006": 8.27363980834,
			"0.007": 5.22947704056,
			"0.008": 5.14677479365,
			"0.009": 4.83683247436,
			"0.01": 5.97881247281,
			"0.011": 3.60778172075,
			"0.012": 0.964930813036,
			"0.013": 0.0,
			"0.014": 0.0,
			"0.015": 0.0,
			"0.016": 0.0,
			"0.017": 0.0,
			"0.018": 0.0,
			"0.019": 0.0,
			"0.02": 0.0,
			"0.021": 0.0,
			"0.022": 0.0,
			"0.023": 0.0,
			"0.024": 0.0,
			"0.025": 0.0
		}
	}
}
