{
	 "smiles": "NC(CC1=CC=CC=C1)C#N", 
	 "Tm": 313.15, 
	 "num_atms": 21, 
	 "gaussian": { 
		 "optdone": 1, 
		 "sigma_profile": "yes", 
		 "theory": "DFT", 
		 "functional": "B3LYP", 
		 "basiset": "6-31G**", 
		 "properties": { 
			 "R2extent": 2062.2763, 
			 "electric_dipole_moment_norm": 4.09854659483, 
			 "electric_quadrupole_moment_norm": 17.7160153263, 
			 "total_energy": -458.463939952, 
			 "HOMO_LUMO_gap": 0.23998, 
			 "cosmo_polarized_energy": -13.98, 
			 "cosmo_cavitation_energy": 25.55, 
			 "cosmo_dispersion_energy": -17.68, 
			 "cosmo_repulsion_energy": 1.45, 
			 "cosmo_total_nonelectrostatic_energy": 9.32, 
			 "SMD_solvation_energy": 4.41 
		},
		"coords": [
			{
				"x": 0.761935432,
				"y": -2.5462710115,
				"z": -2.6050481544,
				"element": "N" 
			},
			{
				"x": 0.8427387375,
				"y": -1.2678755704,
				"z": -1.8887568219,
				"element": "C" 
			},
			{
				"x": -0.099107648,
				"y": -1.3106125567,
				"z": -0.6554760176,
				"element": "C" 
			},
			{
				"x": -0.0165805335,
				"y": -0.0834105963,
				"z": 0.2245342006,
				"element": "C" 
			},
			{
				"x": 0.9191793378,
				"y": -0.0166585579,
				"z": 1.2660905315,
				"element": "C" 
			},
			{
				"x": 1.0190605236,
				"y": 1.12134931,
				"z": 2.0670932082,
				"element": "C" 
			},
			{
				"x": 0.1795152467,
				"y": 2.2128143477,
				"z": 1.8370665537,
				"element": "C" 
			},
			{
				"x": -0.7577896723,
				"y": 2.1575667246,
				"z": 0.80409946,
				"element": "C" 
			},
			{
				"x": -0.8550470499,
				"y": 1.0178191615,
				"z": 0.0048602128,
				"element": "C" 
			},
			{
				"x": 0.4531928229,
				"y": -0.1863959664,
				"z": -2.8138897266,
				"element": "C" 
			},
			{
				"x": 0.1592285932,
				"y": 0.660462477,
				"z": -3.5506809127,
				"element": "N" 
			},
			{
				"x": 1.3592924443,
				"y": -2.5300268136,
				"z": -3.4277409847,
				"element": "H" 
			},
			{
				"x": 1.1076579379,
				"y": -3.286846967,
				"z": -1.9994737414,
				"element": "H" 
			},
			{
				"x": 1.8555916489,
				"y": -1.0137923135,
				"z": -1.5296276456,
				"element": "H" 
			},
			{
				"x": 0.1834380993,
				"y": -2.2000210492,
				"z": -0.0791550722,
				"element": "H" 
			},
			{
				"x": -1.1175511709,
				"y": -1.4743286779,
				"z": -1.0193546544,
				"element": "H" 
			},
			{
				"x": 1.5704165091,
				"y": -0.8672169995,
				"z": 1.4564665739,
				"element": "H" 
			},
			{
				"x": 1.74752117,
				"y": 1.1533672918,
				"z": 2.8723923076,
				"element": "H" 
			},
			{
				"x": 0.2529699659,
				"y": 3.0988794571,
				"z": 2.4609671163,
				"element": "H" 
			},
			{
				"x": -1.4161114247,
				"y": 3.0015996028,
				"z": 0.6198004414,
				"element": "H" 
			},
			{
				"x": -1.58445097,
				"y": 0.9832987074,
				"z": -0.7995668745,
				"element": "H" 
			}
		],
		 "valence_orbital": [ 
			{
				"type": "occ",
				"energy": -0.32862,
				"method": "rhf"
			},
			{
				"type": "occ",
				"energy": -0.32457,
				"method": "rhf"
			},
			{
				"type": "occ",
				"energy": -0.26376,
				"method": "rhf"
			},
			{
				"type": "occ",
				"energy": -0.25256,
				"method": "rhf"
			},
			{
				"type": "occ",
				"energy": -0.24798,
				"method": "rhf"
			},
			{
				"type": "unocc",
				"energy": -0.008,
				"method": "rhf"
			},
			{
				"type": "unocc",
				"energy": -0.00519,
				"method": "rhf"
			},
			{
				"type": "unocc",
				"energy": 0.02558,
				"method": "rhf"
			},
			{
				"type": "unocc",
				"energy": 0.03521,
				"method": "rhf"
			},
			{
				"type": "unocc",
				"energy": 0.08339,
				"method": "rhf"
			}
		],
		"cosmo_sigma_profile": { 
			"-0.025": 0.0,
			"-0.024": 0.0,
			"-0.023": 0.0,
			"-0.022": 0.0,
			"-0.021": 0.0,
			"-0.02": 0.0,
			"-0.019": 0.0,
			"-0.018": 0.0,
			"-0.017": 0.0,
			"-0.016": 0.0,
			"-0.015": 0.0,
			"-0.014": 0.0,
			"-0.013": 0.0,
			"-0.012": 0.694809093897,
			"-0.011": 3.22763104736,
			"-0.01": 3.80967054957,
			"-0.009": 3.57627743802,
			"-0.008": 3.57661320092,
			"-0.007": 5.48873333973,
			"-0.006": 12.8951105419,
			"-0.005": 19.9302007387,
			"-0.004": 15.3071915168,
			"-0.003": 15.5211261816,
			"-0.002": 10.4017113425,
			"-0.001": 11.2738120541,
			"0.0": 8.46026866278,
			"0.001": 9.01969146455,
			"0.002": 8.30405016941,
			"0.003": 10.5680688078,
			"0.004": 11.8044334824,
			"0.005": 12.6062295087,
			"0.006": 10.7385950025,
			"0.007": 3.72528827242,
			"0.008": 3.48711937447,
			"0.009": 3.22309466573,
			"0.01": 3.73428518059,
			"0.011": 4.16764191098,
			"0.012": 2.97012174982,
			"0.013": 2.16013200984,
			"0.014": 0.681362860121,
			"0.015": 0.179679527796,
			"0.016": 0.617751243729,
			"0.017": 0.641981948966,
			"0.018": 0.0405615233058,
			"0.019": 0.0,
			"0.02": 0.0,
			"0.021": 0.0,
			"0.022": 0.0,
			"0.023": 0.0,
			"0.024": 0.0,
			"0.025": 0.0
		}
	}
}
