{
	 "smiles": "CC1(C)CCC(=CC2=CC=C(Cl)C=C2)C1(O)CN1C=NC=N1", 
	 "Tm": 413.15, 
	 "num_atms": 42, 
	 "gaussian": { 
		 "optdone": 1, 
		 "sigma_profile": "yes", 
		 "theory": "DFT", 
		 "functional": "B3LYP", 
		 "basiset": "6-31G**", 
		 "properties": { 
			 "R2extent": 8350.1597, 
			 "electric_dipole_moment_norm": 2.81615947347, 
			 "electric_quadrupole_moment_norm": 13.3224363117, 
			 "total_energy": -1359.50034685, 
			 "HOMO_LUMO_gap": 0.21507, 
			 "cosmo_polarized_energy": -13.28, 
			 "cosmo_cavitation_energy": 42.87, 
			 "cosmo_dispersion_energy": -29.1, 
			 "cosmo_repulsion_energy": 2.18, 
			 "cosmo_total_nonelectrostatic_energy": 15.95, 
			 "SMD_solvation_energy": 4.51 
		},
		"coords": [
			{
				"x": 2.6490821503,
				"y": 0.1265743503,
				"z": -2.0368607721,
				"element": "C" 
			},
			{
				"x": 1.7499451181,
				"y": -0.9941568555,
				"z": -1.4966041732,
				"element": "C" 
			},
			{
				"x": 2.30554803,
				"y": -1.5014133026,
				"z": -0.1515415211,
				"element": "C" 
			},
			{
				"x": 1.6435179718,
				"y": -2.1764115231,
				"z": -2.5083966204,
				"element": "C" 
			},
			{
				"x": 0.2262142528,
				"y": -2.7878126528,
				"z": -2.3323525114,
				"element": "C" 
			},
			{
				"x": -0.4437326571,
				"y": -1.9385686194,
				"z": -1.2600279677,
				"element": "C" 
			},
			{
				"x": -1.3599659573,
				"y": -2.4468493725,
				"z": -0.4245276542,
				"element": "C" 
			},
			{
				"x": -2.0414183152,
				"y": -1.8640589107,
				"z": 0.7634047718,
				"element": "C" 
			},
			{
				"x": -1.362723765,
				"y": -1.7118272612,
				"z": 1.983125189,
				"element": "C" 
			},
			{
				"x": -2.0200385957,
				"y": -1.263885568,
				"z": 3.1305201304,
				"element": "C" 
			},
			{
				"x": -3.3812093249,
				"y": -0.9715524969,
				"z": 3.0615412578,
				"element": "C" 
			},
			{
				"x": -4.2206364367,
				"y": -0.4135292666,
				"z": 4.5019011984,
				"element": "Cl" 
			},
			{
				"x": -4.0869606906,
				"y": -1.1238833118,
				"z": 1.868244158,
				"element": "C" 
			},
			{
				"x": -3.4152354223,
				"y": -1.5759071484,
				"z": 0.7334297706,
				"element": "C" 
			},
			{
				"x": 0.2372507734,
				"y": -0.5694028344,
				"z": -1.3771995679,
				"element": "C" 
			},
			{
				"x": -0.0900750773,
				"y": -0.0286554855,
				"z": -2.658949546,
				"element": "O" 
			},
			{
				"x": 0.0054531091,
				"y": 0.5052337044,
				"z": -0.3002006297,
				"element": "C" 
			},
			{
				"x": -1.3510408353,
				"y": 1.0669347155,
				"z": -0.2620472726,
				"element": "N" 
			},
			{
				"x": -1.9973803627,
				"y": 1.6246866528,
				"z": 0.7843775084,
				"element": "C" 
			},
			{
				"x": -3.1577461006,
				"y": 2.1375672548,
				"z": 0.4042392883,
				"element": "N" 
			},
			{
				"x": -3.1775495732,
				"y": 1.8671433338,
				"z": -0.925289505,
				"element": "C" 
			},
			{
				"x": -2.1073564875,
				"y": 1.2305274434,
				"z": -1.3818103601,
				"element": "N" 
			},
			{
				"x": 2.2184756541,
				"y": 0.5683760717,
				"z": -2.9369907428,
				"element": "H" 
			},
			{
				"x": 2.8042336298,
				"y": 0.9230103025,
				"z": -1.2993050058,
				"element": "H" 
			},
			{
				"x": 3.6372958225,
				"y": -0.2773698545,
				"z": -2.2839171348,
				"element": "H" 
			},
			{
				"x": 2.3714242203,
				"y": -0.7027541249,
				"z": 0.5962233559,
				"element": "H" 
			},
			{
				"x": 1.6977043437,
				"y": -2.3106730448,
				"z": 0.2653076159,
				"element": "H" 
			},
			{
				"x": 3.3195212847,
				"y": -1.8891705382,
				"z": -0.2950779719,
				"element": "H" 
			},
			{
				"x": 1.7714816133,
				"y": -1.80186358,
				"z": -3.5262084011,
				"element": "H" 
			},
			{
				"x": 2.435187895,
				"y": -2.9105756553,
				"z": -2.3268596164,
				"element": "H" 
			},
			{
				"x": 0.2478915556,
				"y": -3.8414729778,
				"z": -2.0401158482,
				"element": "H" 
			},
			{
				"x": -0.331470732,
				"y": -2.7194334824,
				"z": -3.2716982083,
				"element": "H" 
			},
			{
				"x": -1.6523819265,
				"y": -3.4810872184,
				"z": -0.6225888521,
				"element": "H" 
			},
			{
				"x": -0.3095165648,
				"y": -1.971139463,
				"z": 2.0424948809,
				"element": "H" 
			},
			{
				"x": -1.4874492554,
				"y": -1.1579521235,
				"z": 4.0696102534,
				"element": "H" 
			},
			{
				"x": -5.1446351636,
				"y": -0.8887919456,
				"z": 1.8292825516,
				"element": "H" 
			},
			{
				"x": -3.9641438423,
				"y": -1.6976303293,
				"z": -0.1955814938,
				"element": "H" 
			},
			{
				"x": -0.9858955838,
				"y": 0.3558434248,
				"z": -2.5822944436,
				"element": "H" 
			},
			{
				"x": 0.2075947159,
				"y": 0.1204241708,
				"z": 0.6996417528,
				"element": "H" 
			},
			{
				"x": 0.6999111421,
				"y": 1.3264889304,
				"z": -0.5049296788,
				"element": "H" 
			},
			{
				"x": -1.6021569252,
				"y": 1.6139558477,
				"z": 1.7899206446,
				"element": "H" 
			},
			{
				"x": -3.9937136877,
				"y": 2.1416627444,
				"z": -1.5792888285,
				"element": "H" 
			}
		],
		 "valence_orbital": [ 
			{
				"type": "occ",
				"energy": -0.27232,
				"method": "rhf"
			},
			{
				"type": "occ",
				"energy": -0.26884,
				"method": "rhf"
			},
			{
				"type": "occ",
				"energy": -0.26554,
				"method": "rhf"
			},
			{
				"type": "occ",
				"energy": -0.25537,
				"method": "rhf"
			},
			{
				"type": "occ",
				"energy": -0.23807,
				"method": "rhf"
			},
			{
				"type": "unocc",
				"energy": -0.023,
				"method": "rhf"
			},
			{
				"type": "unocc",
				"energy": -0.01854,
				"method": "rhf"
			},
			{
				"type": "unocc",
				"energy": -0.00211,
				"method": "rhf"
			},
			{
				"type": "unocc",
				"energy": 0.01195,
				"method": "rhf"
			},
			{
				"type": "unocc",
				"energy": 0.02829,
				"method": "rhf"
			}
		],
		"cosmo_sigma_profile": { 
			"-0.025": 0.0,
			"-0.024": 0.0,
			"-0.023": 0.0,
			"-0.022": 0.0,
			"-0.021": 0.0,
			"-0.02": 0.0,
			"-0.019": 0.0,
			"-0.018": 0.0,
			"-0.017": 0.0,
			"-0.016": 0.0,
			"-0.015": 0.0,
			"-0.014": 0.0,
			"-0.013": 0.0,
			"-0.012": 0.0,
			"-0.011": 0.0,
			"-0.01": 0.602927064413,
			"-0.009": 3.62684945692,
			"-0.008": 3.56418335693,
			"-0.007": 6.30700677495,
			"-0.006": 14.7879288455,
			"-0.005": 19.1095823908,
			"-0.004": 20.3447994052,
			"-0.003": 25.75044104,
			"-0.002": 32.763868552,
			"-0.001": 34.2707498208,
			"0.0": 33.5247869004,
			"0.001": 34.5484627424,
			"0.002": 26.9333729882,
			"0.003": 21.5037553806,
			"0.004": 22.1146623173,
			"0.005": 14.7898366193,
			"0.006": 4.99217095174,
			"0.007": 3.29533918904,
			"0.008": 3.37227746721,
			"0.009": 2.42044036793,
			"0.01": 2.62383867068,
			"0.011": 2.4135443397,
			"0.012": 1.33929757896,
			"0.013": 1.80223640784,
			"0.014": 0.788292685897,
			"0.015": 1.13057806576,
			"0.016": 0.824670132932,
			"0.017": 0.327030758591,
			"0.018": 0.0,
			"0.019": 0.0,
			"0.02": 0.0,
			"0.021": 0.0,
			"0.022": 0.0,
			"0.023": 0.0,
			"0.024": 0.0,
			"0.025": 0.0
		}
	}
}
