{
	 "smiles": "NC(=S)C1CN(CC2=CC=CC=C2)CCO1", 
	 "Tm": 364.15, 
	 "num_atms": 32, 
	 "gaussian": { 
		 "optdone": 1, 
		 "sigma_profile": "yes", 
		 "theory": "DFT", 
		 "functional": "B3LYP", 
		 "basiset": "6-31G**", 
		 "properties": { 
			 "R2extent": 5042.4979, 
			 "electric_dipole_moment_norm": 4.60490509566, 
			 "electric_quadrupole_moment_norm": 19.2527385148, 
			 "total_energy": -1049.82789053, 
			 "HOMO_LUMO_gap": 0.17931, 
			 "cosmo_polarized_energy": -15.91, 
			 "cosmo_cavitation_energy": 35.62, 
			 "cosmo_dispersion_energy": -25.43, 
			 "cosmo_repulsion_energy": 1.98, 
			 "cosmo_total_nonelectrostatic_energy": 12.16, 
			 "SMD_solvation_energy": 3.31 
		},
		"coords": [
			{
				"x": -1.0257352973,
				"y": 3.1231640549,
				"z": 2.501622287,
				"element": "N" 
			},
			{
				"x": -0.2589743673,
				"y": 2.7858783004,
				"z": 1.4589918929,
				"element": "C" 
			},
			{
				"x": 0.026451104,
				"y": 3.7692385517,
				"z": 0.1461193419,
				"element": "S" 
			},
			{
				"x": 0.3436995404,
				"y": 1.3874909538,
				"z": 1.557116274,
				"element": "C" 
			},
			{
				"x": -0.1843476617,
				"y": 0.4603356932,
				"z": 0.4525756956,
				"element": "C" 
			},
			{
				"x": 0.3863422403,
				"y": -0.8773828711,
				"z": 0.6212849121,
				"element": "N" 
			},
			{
				"x": 0.0028709285,
				"y": -1.7859329557,
				"z": -0.4610685125,
				"element": "C" 
			},
			{
				"x": 0.6267603665,
				"y": -1.4266262354,
				"z": -1.7966213309,
				"element": "C" 
			},
			{
				"x": 1.9867405868,
				"y": -1.097645392,
				"z": -1.881205747,
				"element": "C" 
			},
			{
				"x": 2.571923023,
				"y": -0.8137663023,
				"z": -3.1143048037,
				"element": "C" 
			},
			{
				"x": 1.8070427963,
				"y": -0.8593418851,
				"z": -4.2829731009,
				"element": "C" 
			},
			{
				"x": 0.452492415,
				"y": -1.1841352853,
				"z": -4.2083597778,
				"element": "C" 
			},
			{
				"x": -0.1328040961,
				"y": -1.4615016508,
				"z": -2.9708634259,
				"element": "C" 
			},
			{
				"x": 0.0545996854,
				"y": -1.410836416,
				"z": 1.9400267295,
				"element": "C" 
			},
			{
				"x": 0.5798218485,
				"y": -0.4648834272,
				"z": 3.0135792048,
				"element": "C" 
			},
			{
				"x": 0.0449160315,
				"y": 0.8463565168,
				"z": 2.8464681814,
				"element": "O" 
			},
			{
				"x": -1.4504609844,
				"y": 4.038100597,
				"z": 2.5278756243,
				"element": "H" 
			},
			{
				"x": -1.1142568276,
				"y": 2.4797756702,
				"z": 3.2773377715,
				"element": "H" 
			},
			{
				"x": 1.4329606179,
				"y": 1.4812293454,
				"z": 1.4408984545,
				"element": "H" 
			},
			{
				"x": -1.2906017393,
				"y": 0.444151984,
				"z": 0.5034626262,
				"element": "H" 
			},
			{
				"x": 0.1047926259,
				"y": 0.8651758075,
				"z": -0.5183572799,
				"element": "H" 
			},
			{
				"x": 0.3389618451,
				"y": -2.7896660035,
				"z": -0.1673948496,
				"element": "H" 
			},
			{
				"x": -1.0964277003,
				"y": -1.8491815746,
				"z": -0.5745608077,
				"element": "H" 
			},
			{
				"x": 2.5731160661,
				"y": -1.0523349006,
				"z": -0.9684032994,
				"element": "H" 
			},
			{
				"x": 3.626034086,
				"y": -0.5552796786,
				"z": -3.1645492093,
				"element": "H" 
			},
			{
				"x": 2.2634462901,
				"y": -0.636999296,
				"z": -5.2433001065,
				"element": "H" 
			},
			{
				"x": -0.1521666216,
				"y": -1.2134929811,
				"z": -5.1104651343,
				"element": "H" 
			},
			{
				"x": -1.1912067562,
				"y": -1.7057601037,
				"z": -2.916574183,
				"element": "H" 
			},
			{
				"x": -1.0372121395,
				"y": -1.5421843874,
				"z": 2.0749524481,
				"element": "H" 
			},
			{
				"x": 0.5252442941,
				"y": -2.3937995967,
				"z": 2.0602132986,
				"element": "H" 
			},
			{
				"x": 1.678519432,
				"y": -0.4264347342,
				"z": 2.9665176557,
				"element": "H" 
			},
			{
				"x": 0.2792583679,
				"y": -0.7948117975,
				"z": 4.0118591704,
				"element": "H" 
			}
		],
		 "valence_orbital": [ 
			{
				"type": "occ",
				"energy": -0.24596,
				"method": "rhf"
			},
			{
				"type": "occ",
				"energy": -0.24168,
				"method": "rhf"
			},
			{
				"type": "occ",
				"energy": -0.22701,
				"method": "rhf"
			},
			{
				"type": "occ",
				"energy": -0.22366,
				"method": "rhf"
			},
			{
				"type": "occ",
				"energy": -0.20485,
				"method": "rhf"
			},
			{
				"type": "unocc",
				"energy": -0.02554,
				"method": "rhf"
			},
			{
				"type": "unocc",
				"energy": -0.001,
				"method": "rhf"
			},
			{
				"type": "unocc",
				"energy": 0.00316,
				"method": "rhf"
			},
			{
				"type": "unocc",
				"energy": 0.07436,
				"method": "rhf"
			},
			{
				"type": "unocc",
				"energy": 0.08942,
				"method": "rhf"
			}
		],
		"cosmo_sigma_profile": { 
			"-0.025": 0.0,
			"-0.024": 0.0,
			"-0.023": 0.0,
			"-0.022": 0.0,
			"-0.021": 0.0,
			"-0.02": 0.0,
			"-0.019": 0.0,
			"-0.018": 0.0,
			"-0.017": 0.0,
			"-0.016": 0.0447144950753,
			"-0.015": 0.972125726299,
			"-0.014": 1.66092783974,
			"-0.013": 1.90379153996,
			"-0.012": 1.64968660061,
			"-0.011": 2.08681931855,
			"-0.01": 1.77381672927,
			"-0.009": 1.4149324149,
			"-0.008": 1.6382003414,
			"-0.007": 1.72032905573,
			"-0.006": 5.4694706442,
			"-0.005": 20.5331172321,
			"-0.004": 24.8178080504,
			"-0.003": 33.8803669032,
			"-0.002": 27.6432428196,
			"-0.001": 22.4981340197,
			"0.0": 16.8711197671,
			"0.001": 14.2286375127,
			"0.002": 15.9235172277,
			"0.003": 14.6195979926,
			"0.004": 12.3767679355,
			"0.005": 13.8374357282,
			"0.006": 13.4009229664,
			"0.007": 6.99740953668,
			"0.008": 6.31176327807,
			"0.009": 7.61972331765,
			"0.01": 5.27003149958,
			"0.011": 3.2963449023,
			"0.012": 2.27836699824,
			"0.013": 0.0576303826689,
			"0.014": 0.0,
			"0.015": 0.0,
			"0.016": 0.0,
			"0.017": 0.0,
			"0.018": 0.0,
			"0.019": 0.0,
			"0.02": 0.0,
			"0.021": 0.0,
			"0.022": 0.0,
			"0.023": 0.0,
			"0.024": 0.0,
			"0.025": 0.0
		}
	}
}
