{
	 "smiles": "ClC1=CC=C(CN2C(CN3CCCC3)=NC3=C2C=CC=C3)C=C1", 
	 "Tm": 440.15, 
	 "num_atms": 43, 
	 "gaussian": { 
		 "optdone": 1, 
		 "sigma_profile": "yes", 
		 "theory": "DFT", 
		 "functional": "B3LYP", 
		 "basiset": "6-31G**", 
		 "properties": { 
			 "R2extent": 10300.8193, 
			 "electric_dipole_moment_norm": 2.75996012471, 
			 "electric_quadrupole_moment_norm": 12.4082701006, 
			 "total_energy": -1360.53227968, 
			 "HOMO_LUMO_gap": 0.1996, 
			 "cosmo_polarized_energy": -12.01, 
			 "cosmo_cavitation_energy": 46.44, 
			 "cosmo_dispersion_energy": -31.82, 
			 "cosmo_repulsion_energy": 2.44, 
			 "cosmo_total_nonelectrostatic_energy": 17.06, 
			 "SMD_solvation_energy": 3.66 
		},
		"coords": [
			{
				"x": -5.2225669088,
				"y": 2.6365272231,
				"z": 2.369221793,
				"element": "Cl" 
			},
			{
				"x": -4.0440027785,
				"y": 1.5001705921,
				"z": 1.7274713562,
				"element": "C" 
			},
			{
				"x": -3.9711996892,
				"y": 1.2914927421,
				"z": 0.3506721372,
				"element": "C" 
			},
			{
				"x": -3.0288315049,
				"y": 0.393238189,
				"z": -0.1481953457,
				"element": "C" 
			},
			{
				"x": -2.1660640659,
				"y": -0.303149679,
				"z": 0.7076030926,
				"element": "C" 
			},
			{
				"x": -1.1854357045,
				"y": -1.3047121824,
				"z": 0.1150718225,
				"element": "C" 
			},
			{
				"x": 0.0038030085,
				"y": -1.5454689888,
				"z": 0.9199338688,
				"element": "N" 
			},
			{
				"x": 1.1716807056,
				"y": -0.7987963286,
				"z": 0.9169707079,
				"element": "C" 
			},
			{
				"x": 1.3566356259,
				"y": 0.4127015056,
				"z": 0.0518044703,
				"element": "C" 
			},
			{
				"x": 1.3049151715,
				"y": 0.0775819474,
				"z": -1.385157162,
				"element": "N" 
			},
			{
				"x": 2.4972452608,
				"y": -0.6714163491,
				"z": -1.8327325194,
				"element": "C" 
			},
			{
				"x": 3.596855247,
				"y": 0.380662055,
				"z": -2.1509293587,
				"element": "C" 
			},
			{
				"x": 2.8095744943,
				"y": 1.6972224975,
				"z": -2.3971845545,
				"element": "C" 
			},
			{
				"x": 1.3236229794,
				"y": 1.2770269208,
				"z": -2.2416758621,
				"element": "C" 
			},
			{
				"x": 2.0857384207,
				"y": -1.2620187025,
				"z": 1.7398874131,
				"element": "N" 
			},
			{
				"x": 1.5084294238,
				"y": -2.3733993815,
				"z": 2.335398144,
				"element": "C" 
			},
			{
				"x": 0.1983634846,
				"y": -2.5702080686,
				"z": 1.8356207307,
				"element": "C" 
			},
			{
				"x": -0.6159734875,
				"y": -3.6220508118,
				"z": 2.2647233113,
				"element": "C" 
			},
			{
				"x": -0.0761808393,
				"y": -4.4866472622,
				"z": 3.2145075756,
				"element": "C" 
			},
			{
				"x": 1.2271650186,
				"y": -4.3062992756,
				"z": 3.7202252177,
				"element": "C" 
			},
			{
				"x": 2.0303044527,
				"y": -3.2543338541,
				"z": 3.2910277166,
				"element": "C" 
			},
			{
				"x": -2.2591018772,
				"y": -0.0742475506,
				"z": 2.0849173649,
				"element": "C" 
			},
			{
				"x": -3.1927338335,
				"y": 0.825597994,
				"z": 2.6007699692,
				"element": "C" 
			},
			{
				"x": -4.6345429347,
				"y": 1.8292989601,
				"z": -0.3176934023,
				"element": "H" 
			},
			{
				"x": -2.9649771667,
				"y": 0.235799655,
				"z": -1.2221571886,
				"element": "H" 
			},
			{
				"x": -1.6799341519,
				"y": -2.2724638468,
				"z": -0.030135029,
				"element": "H" 
			},
			{
				"x": -0.8461060434,
				"y": -0.9630017713,
				"z": -0.8671720776,
				"element": "H" 
			},
			{
				"x": 0.5496048934,
				"y": 1.1288141984,
				"z": 0.2490159273,
				"element": "H" 
			},
			{
				"x": 2.2990890307,
				"y": 0.8812378138,
				"z": 0.3726031506,
				"element": "H" 
			},
			{
				"x": 2.799514434,
				"y": -1.3995546967,
				"z": -1.0767408319,
				"element": "H" 
			},
			{
				"x": 2.2281317544,
				"y": -1.2230894108,
				"z": -2.7414748184,
				"element": "H" 
			},
			{
				"x": 4.1925273617,
				"y": 0.08163304,
				"z": -3.0182084782,
				"element": "H" 
			},
			{
				"x": 4.2886597998,
				"y": 0.4894714859,
				"z": -1.310735646,
				"element": "H" 
			},
			{
				"x": 3.004729567,
				"y": 2.1277363007,
				"z": -3.3836905598,
				"element": "H" 
			},
			{
				"x": 3.079320184,
				"y": 2.45760148,
				"z": -1.6577460373,
				"element": "H" 
			},
			{
				"x": 0.6846040539,
				"y": 2.0610256644,
				"z": -1.8250093409,
				"element": "H" 
			},
			{
				"x": 0.9106318267,
				"y": 0.9991424493,
				"z": -3.2194490582,
				"element": "H" 
			},
			{
				"x": -1.6239450006,
				"y": -3.7636816917,
				"z": 1.8863584186,
				"element": "H" 
			},
			{
				"x": -0.6757213605,
				"y": -5.3171580977,
				"z": 3.5755226761,
				"element": "H" 
			},
			{
				"x": 1.6070999728,
				"y": -5.0037199425,
				"z": 4.4609379609,
				"element": "H" 
			},
			{
				"x": 3.0343358264,
				"y": -3.1083751302,
				"z": 3.6764716412,
				"element": "H" 
			},
			{
				"x": -1.5966753692,
				"y": -0.5988534153,
				"z": 2.7662019469,
				"element": "H" 
			},
			{
				"x": -3.2589892819,
				"y": 1.0010637237,
				"z": 3.6688488576,
				"element": "H" 
			}
		],
		 "valence_orbital": [ 
			{
				"type": "occ",
				"energy": -0.2666,
				"method": "rhf"
			},
			{
				"type": "occ",
				"energy": -0.24763,
				"method": "rhf"
			},
			{
				"type": "occ",
				"energy": -0.22577,
				"method": "rhf"
			},
			{
				"type": "occ",
				"energy": -0.22146,
				"method": "rhf"
			},
			{
				"type": "occ",
				"energy": -0.21969,
				"method": "rhf"
			},
			{
				"type": "unocc",
				"energy": -0.02009,
				"method": "rhf"
			},
			{
				"type": "unocc",
				"energy": -0.01854,
				"method": "rhf"
			},
			{
				"type": "unocc",
				"energy": -0.01497,
				"method": "rhf"
			},
			{
				"type": "unocc",
				"energy": 0.02299,
				"method": "rhf"
			},
			{
				"type": "unocc",
				"energy": 0.02777,
				"method": "rhf"
			}
		],
		"cosmo_sigma_profile": { 
			"-0.025": 0.0,
			"-0.024": 0.0,
			"-0.023": 0.0,
			"-0.022": 0.0,
			"-0.021": 0.0,
			"-0.02": 0.0,
			"-0.019": 0.0,
			"-0.018": 0.0,
			"-0.017": 0.0,
			"-0.016": 0.0,
			"-0.015": 0.0,
			"-0.014": 0.0,
			"-0.013": 0.0,
			"-0.012": 0.0,
			"-0.011": 0.0,
			"-0.01": 0.0,
			"-0.009": 0.00931852055295,
			"-0.008": 1.25761589232,
			"-0.007": 8.77113648608,
			"-0.006": 12.2253332408,
			"-0.005": 21.6943658316,
			"-0.004": 23.4100511446,
			"-0.003": 39.3760874166,
			"-0.002": 42.06457428,
			"-0.001": 37.6711432042,
			"0.0": 32.4605192129,
			"0.001": 28.2903248555,
			"0.002": 25.3225894166,
			"0.003": 25.0291780993,
			"0.004": 28.255605403,
			"0.005": 19.4188668527,
			"0.006": 10.0454845539,
			"0.007": 3.78501395781,
			"0.008": 2.10978479518,
			"0.009": 1.71686403655,
			"0.01": 1.09245002259,
			"0.011": 0.501917704054,
			"0.012": 1.63579736338,
			"0.013": 0.824519253297,
			"0.014": 0.691245954213,
			"0.015": 0.836935263415,
			"0.016": 0.867792281881,
			"0.017": 0.886022450591,
			"0.018": 0.262595210531,
			"0.019": 0.0,
			"0.02": 0.0,
			"0.021": 0.0,
			"0.022": 0.0,
			"0.023": 0.0,
			"0.024": 0.0,
			"0.025": 0.0
		}
	}
}
