{
	 "smiles": "CSC1=NN2C(=N1)N=C(C)C(CC(O)=O)=C2C", 
	 "Tm": 549.15, 
	 "num_atms": 29, 
	 "gaussian": { 
		 "optdone": 1, 
		 "sigma_profile": "yes", 
		 "theory": "DFT", 
		 "functional": "B3LYP", 
		 "basiset": "6-31G**", 
		 "properties": { 
			 "R2extent": 7534.8719, 
			 "electric_dipole_moment_norm": 6.82650842012, 
			 "electric_quadrupole_moment_norm": 31.5702142582, 
			 "total_energy": -1155.95177539, 
			 "HOMO_LUMO_gap": 0.16873, 
			 "cosmo_polarized_energy": -22.22, 
			 "cosmo_cavitation_energy": 34.84, 
			 "cosmo_dispersion_energy": -25.34, 
			 "cosmo_repulsion_energy": 1.93, 
			 "cosmo_total_nonelectrostatic_energy": 11.43, 
			 "SMD_solvation_energy": 3.03 
		},
		"coords": [
			{
				"x": 3.4929408038,
				"y": -2.9448656576,
				"z": -2.3518613768,
				"element": "C" 
			},
			{
				"x": 4.5994136441,
				"y": -2.653332155,
				"z": -0.9283797955,
				"element": "S" 
			},
			{
				"x": 3.5663490299,
				"y": -1.646654649,
				"z": 0.0745103351,
				"element": "C" 
			},
			{
				"x": 2.3195243736,
				"y": -1.2971599696,
				"z": -0.2809518683,
				"element": "N" 
			},
			{
				"x": 1.9466136655,
				"y": -0.5433160963,
				"z": 0.791033176,
				"element": "N" 
			},
			{
				"x": 2.9850552166,
				"y": -0.4823404731,
				"z": 1.7214095175,
				"element": "C" 
			},
			{
				"x": 4.0183709157,
				"y": -1.1879754329,
				"z": 1.2643239296,
				"element": "N" 
			},
			{
				"x": 2.8590668938,
				"y": 0.2106784346,
				"z": 2.8610961484,
				"element": "N" 
			},
			{
				"x": 1.7061807742,
				"y": 0.8282431884,
				"z": 3.0748607243,
				"element": "C" 
			},
			{
				"x": 1.6091230397,
				"y": 1.6122069658,
				"z": 4.3591410362,
				"element": "C" 
			},
			{
				"x": 0.6001330829,
				"y": 0.7814035589,
				"z": 2.1579066357,
				"element": "C" 
			},
			{
				"x": -0.695421023,
				"y": 1.4883764026,
				"z": 2.4805101552,
				"element": "C" 
			},
			{
				"x": -0.7065799384,
				"y": 2.9639175282,
				"z": 2.102817159,
				"element": "C" 
			},
			{
				"x": -1.974866037,
				"y": 3.4238856674,
				"z": 1.9918489602,
				"element": "O" 
			},
			{
				"x": 0.2652647564,
				"y": 3.6667367633,
				"z": 1.9451237203,
				"element": "O" 
			},
			{
				"x": 0.7473697119,
				"y": 0.0777823722,
				"z": 0.9726031853,
				"element": "C" 
			},
			{
				"x": -0.2418876455,
				"y": -0.0793685105,
				"z": -0.1406974734,
				"element": "C" 
			},
			{
				"x": 3.2298035336,
				"y": -2.0039311305,
				"z": -2.8367369623,
				"element": "H" 
			},
			{
				"x": 2.5856656883,
				"y": -3.4625655433,
				"z": -2.0379620712,
				"element": "H" 
			},
			{
				"x": 4.0573450639,
				"y": -3.5729624314,
				"z": -3.0438221385,
				"element": "H" 
			},
			{
				"x": 1.3766999643,
				"y": 2.6621910713,
				"z": 4.1559558662,
				"element": "H" 
			},
			{
				"x": 2.563927116,
				"y": 1.5500868213,
				"z": 4.8812714308,
				"element": "H" 
			},
			{
				"x": 0.8269274243,
				"y": 1.2154380942,
				"z": 5.0181629014,
				"element": "H" 
			},
			{
				"x": -1.5566934745,
				"y": 1.0063033465,
				"z": 2.0141170288,
				"element": "H" 
			},
			{
				"x": -0.8939704839,
				"y": 1.4491367326,
				"z": 3.5579487628,
				"element": "H" 
			},
			{
				"x": -1.9055597799,
				"y": 4.3732061753,
				"z": 1.7925172411,
				"element": "H" 
			},
			{
				"x": 0.2133383063,
				"y": 0.2410711039,
				"z": -1.0828977097,
				"element": "H" 
			},
			{
				"x": -1.1488901711,
				"y": 0.4987425611,
				"z": 0.0283041672,
				"element": "H" 
			},
			{
				"x": -0.5047444517,
				"y": -1.1349347384,
				"z": -0.2677526854,
				"element": "H" 
			}
		],
		 "valence_orbital": [ 
			{
				"type": "occ",
				"energy": -0.28096,
				"method": "rhf"
			},
			{
				"type": "occ",
				"energy": -0.27851,
				"method": "rhf"
			},
			{
				"type": "occ",
				"energy": -0.27011,
				"method": "rhf"
			},
			{
				"type": "occ",
				"energy": -0.24628,
				"method": "rhf"
			},
			{
				"type": "occ",
				"energy": -0.21987,
				"method": "rhf"
			},
			{
				"type": "unocc",
				"energy": -0.05114,
				"method": "rhf"
			},
			{
				"type": "unocc",
				"energy": -0.01794,
				"method": "rhf"
			},
			{
				"type": "unocc",
				"energy": -0.00836,
				"method": "rhf"
			},
			{
				"type": "unocc",
				"energy": 0.0364,
				"method": "rhf"
			},
			{
				"type": "unocc",
				"energy": 0.05263,
				"method": "rhf"
			}
		],
		"cosmo_sigma_profile": { 
			"-0.025": 0.0,
			"-0.024": 0.0,
			"-0.023": 0.0,
			"-0.022": 0.0,
			"-0.021": 0.0,
			"-0.02": 0.0,
			"-0.019": 0.226601891149,
			"-0.018": 0.828067497739,
			"-0.017": 0.926544271443,
			"-0.016": 0.826261668932,
			"-0.015": 0.945917152773,
			"-0.014": 0.641440135343,
			"-0.013": 0.382659115143,
			"-0.012": 0.429189279848,
			"-0.011": 1.0673931133,
			"-0.01": 0.76283944859,
			"-0.009": 2.00345133062,
			"-0.008": 7.23209831817,
			"-0.007": 10.4203027814,
			"-0.006": 14.7864057079,
			"-0.005": 18.3414539767,
			"-0.004": 25.1612049932,
			"-0.003": 26.4083967338,
			"-0.002": 24.8125615861,
			"-0.001": 18.6853606324,
			"0.0": 11.4093077614,
			"0.001": 12.5697265943,
			"0.002": 10.7378311915,
			"0.003": 11.7844922396,
			"0.004": 11.3221844326,
			"0.005": 10.9634744671,
			"0.006": 10.274348286,
			"0.007": 9.56793457995,
			"0.008": 7.52807088498,
			"0.009": 5.65029247497,
			"0.01": 4.63870325528,
			"0.011": 6.5828230399,
			"0.012": 4.90692056161,
			"0.013": 2.11196263839,
			"0.014": 2.23984325439,
			"0.015": 1.50928019688,
			"0.016": 0.484714978461,
			"0.017": 0.0,
			"0.018": 0.0,
			"0.019": 0.0,
			"0.02": 0.0,
			"0.021": 0.0,
			"0.022": 0.0,
			"0.023": 0.0,
			"0.024": 0.0,
			"0.025": 0.0
		}
	}
}
