{
	 "smiles": "CCCC(NC(=O)OC(C)(C)C)C(O)=O", 
	 "Tm": 318.15, 
	 "num_atms": 34, 
	 "gaussian": { 
		 "optdone": 1, 
		 "sigma_profile": "yes", 
		 "theory": "DFT", 
		 "functional": "B3LYP", 
		 "basiset": "6-31G**", 
		 "properties": { 
			 "R2extent": 3592.2778, 
			 "electric_dipole_moment_norm": 3.15616018922, 
			 "electric_quadrupole_moment_norm": 11.6270635184, 
			 "total_energy": -748.21806125, 
			 "HOMO_LUMO_gap": 0.2515, 
			 "cosmo_polarized_energy": -15.41, 
			 "cosmo_cavitation_energy": 35.57, 
			 "cosmo_dispersion_energy": -23.37, 
			 "cosmo_repulsion_energy": 1.86, 
			 "cosmo_total_nonelectrostatic_energy": 14.06, 
			 "SMD_solvation_energy": 7.41 
		},
		"coords": [
			{
				"x": -2.4535191778,
				"y": -1.1608202545,
				"z": 2.9260692414,
				"element": "C" 
			},
			{
				"x": -1.4756352949,
				"y": -0.3774238871,
				"z": 2.0434066643,
				"element": "C" 
			},
			{
				"x": -0.3333644522,
				"y": 0.2299848343,
				"z": 2.8649548054,
				"element": "C" 
			},
			{
				"x": 0.7381589873,
				"y": 1.0482165014,
				"z": 2.1097497429,
				"element": "C" 
			},
			{
				"x": 1.5517167164,
				"y": 0.2783835582,
				"z": 1.1777185517,
				"element": "N" 
			},
			{
				"x": 1.3495458245,
				"y": 0.0810507922,
				"z": -0.1704203739,
				"element": "C" 
			},
			{
				"x": 2.2232217369,
				"y": -0.3598461369,
				"z": -0.8979749956,
				"element": "O" 
			},
			{
				"x": 0.0877814555,
				"y": 0.3953384496,
				"z": -0.5306045979,
				"element": "O" 
			},
			{
				"x": -0.3020124991,
				"y": 0.4280551908,
				"z": -1.952614975,
				"element": "C" 
			},
			{
				"x": -1.745259577,
				"y": 0.9344304857,
				"z": -1.8918871637,
				"element": "C" 
			},
			{
				"x": 0.5875515317,
				"y": 1.4167517342,
				"z": -2.7137387704,
				"element": "C" 
			},
			{
				"x": -0.2432759426,
				"y": -0.9855416358,
				"z": -2.5399161611,
				"element": "C" 
			},
			{
				"x": 0.2634659368,
				"y": 2.3712984534,
				"z": 1.4877967213,
				"element": "C" 
			},
			{
				"x": -0.8640785812,
				"y": 2.8340518203,
				"z": 2.0771011872,
				"element": "O" 
			},
			{
				"x": 0.8540165094,
				"y": 2.9921940581,
				"z": 0.6351646732,
				"element": "O" 
			},
			{
				"x": -1.9496510038,
				"y": -1.9829980988,
				"z": 3.4476182339,
				"element": "H" 
			},
			{
				"x": -3.2641468875,
				"y": -1.5943609634,
				"z": 2.3314668002,
				"element": "H" 
			},
			{
				"x": -2.9082937175,
				"y": -0.5168376659,
				"z": 3.6877346967,
				"element": "H" 
			},
			{
				"x": -1.063550641,
				"y": -1.0351673364,
				"z": 1.2723487674,
				"element": "H" 
			},
			{
				"x": -2.0109942389,
				"y": 0.4196344996,
				"z": 1.5164999461,
				"element": "H" 
			},
			{
				"x": 0.2029567014,
				"y": -0.5761160661,
				"z": 3.3818989287,
				"element": "H" 
			},
			{
				"x": -0.7514154456,
				"y": 0.8764908587,
				"z": 3.6452346111,
				"element": "H" 
			},
			{
				"x": 1.4408824575,
				"y": 1.3910086241,
				"z": 2.8828269493,
				"element": "H" 
			},
			{
				"x": 2.5186533883,
				"y": 0.1309752873,
				"z": 1.4234226965,
				"element": "H" 
			},
			{
				"x": -2.3698525506,
				"y": 0.257846391,
				"z": -1.301361355,
				"element": "H" 
			},
			{
				"x": -2.1620926781,
				"y": 0.9969177797,
				"z": -2.9014976993,
				"element": "H" 
			},
			{
				"x": -1.7858361242,
				"y": 1.9291779421,
				"z": -1.4387825443,
				"element": "H" 
			},
			{
				"x": 0.1996070153,
				"y": 1.5493732923,
				"z": -3.7290547767,
				"element": "H" 
			},
			{
				"x": 1.6139458416,
				"y": 1.0541483964,
				"z": -2.7739028607,
				"element": "H" 
			},
			{
				"x": 0.5862987685,
				"y": 2.3876041296,
				"z": -2.2100624854,
				"element": "H" 
			},
			{
				"x": 0.7808026794,
				"y": -1.3587578867,
				"z": -2.5477552793,
				"element": "H" 
			},
			{
				"x": -0.8666224805,
				"y": -1.6687118258,
				"z": -1.9540307186,
				"element": "H" 
			},
			{
				"x": -0.6256393718,
				"y": -0.9726999037,
				"z": -3.5659889222,
				"element": "H" 
			},
			{
				"x": -1.0420648863,
				"y": 3.6976485822,
				"z": 1.6674804619,
				"element": "H" 
			}
		],
		 "valence_orbital": [ 
			{
				"type": "occ",
				"energy": -0.3196,
				"method": "rhf"
			},
			{
				"type": "occ",
				"energy": -0.2855,
				"method": "rhf"
			},
			{
				"type": "occ",
				"energy": -0.27934,
				"method": "rhf"
			},
			{
				"type": "occ",
				"energy": -0.26134,
				"method": "rhf"
			},
			{
				"type": "occ",
				"energy": -0.25162,
				"method": "rhf"
			},
			{
				"type": "unocc",
				"energy": -0.00012,
				"method": "rhf"
			},
			{
				"type": "unocc",
				"energy": 0.05269,
				"method": "rhf"
			},
			{
				"type": "unocc",
				"energy": 0.06873,
				"method": "rhf"
			},
			{
				"type": "unocc",
				"energy": 0.07572,
				"method": "rhf"
			},
			{
				"type": "unocc",
				"energy": 0.08624,
				"method": "rhf"
			}
		],
		"cosmo_sigma_profile": { 
			"-0.025": 0.0,
			"-0.024": 0.0,
			"-0.023": 0.0,
			"-0.022": 0.0,
			"-0.021": 0.0,
			"-0.02": 0.0,
			"-0.019": 0.0867538145424,
			"-0.018": 0.849995138107,
			"-0.017": 0.981836028788,
			"-0.016": 0.604653637362,
			"-0.015": 1.01345304691,
			"-0.014": 1.58993147861,
			"-0.013": 2.06184575218,
			"-0.012": 2.00409535558,
			"-0.011": 2.30440456829,
			"-0.01": 1.65912296374,
			"-0.009": 2.9902599336,
			"-0.008": 4.10747351742,
			"-0.007": 3.99218132125,
			"-0.006": 2.63765626707,
			"-0.005": 2.70412292952,
			"-0.004": 12.5451976466,
			"-0.003": 22.5212652127,
			"-0.002": 28.6421016345,
			"-0.001": 29.4166333121,
			"0.0": 41.1209118307,
			"0.001": 37.0653073511,
			"0.002": 14.7937906321,
			"0.003": 8.76871984804,
			"0.004": 8.56362321813,
			"0.005": 7.92155441919,
			"0.006": 5.32296547943,
			"0.007": 5.00139266373,
			"0.008": 4.00447196762,
			"0.009": 3.06682262446,
			"0.01": 3.07356026074,
			"0.011": 4.9100835732,
			"0.012": 3.63109921238,
			"0.013": 3.83707570753,
			"0.014": 1.55138699168,
			"0.015": 0.0,
			"0.016": 0.0,
			"0.017": 0.0,
			"0.018": 0.0,
			"0.019": 0.0,
			"0.02": 0.0,
			"0.021": 0.0,
			"0.022": 0.0,
			"0.023": 0.0,
			"0.024": 0.0,
			"0.025": 0.0
		}
	}
}
