{
	 "smiles": "OC(=O)C1=CSC(=N1)C1=CC2=C(OCCO2)C=C1", 
	 "Tm": 473.15, 
	 "num_atms": 27, 
	 "gaussian": { 
		 "optdone": 1, 
		 "sigma_profile": "yes", 
		 "theory": "DFT", 
		 "functional": "B3LYP", 
		 "basiset": "6-31G**", 
		 "properties": { 
			 "R2extent": 8337.4336, 
			 "electric_dipole_moment_norm": 7.64666821694, 
			 "electric_quadrupole_moment_norm": 24.4711919056, 
			 "total_energy": -1216.52892874, 
			 "HOMO_LUMO_gap": 0.15416, 
			 "cosmo_polarized_energy": -15.5, 
			 "cosmo_cavitation_energy": 33.41, 
			 "cosmo_dispersion_energy": -25.64, 
			 "cosmo_repulsion_energy": 1.91, 
			 "cosmo_total_nonelectrostatic_energy": 9.67, 
			 "SMD_solvation_energy": 6.36 
		},
		"coords": [
			{
				"x": -2.5248248874,
				"y": -3.5530217054,
				"z": 2.7938220768,
				"element": "O" 
			},
			{
				"x": -2.9978414425,
				"y": -4.3227973577,
				"z": 1.7925196115,
				"element": "C" 
			},
			{
				"x": -3.5223191503,
				"y": -5.3955556483,
				"z": 1.9846215229,
				"element": "O" 
			},
			{
				"x": -2.8112611835,
				"y": -3.724415282,
				"z": 0.4383453493,
				"element": "C" 
			},
			{
				"x": -3.2081141824,
				"y": -4.306127117,
				"z": -0.7327068881,
				"element": "C" 
			},
			{
				"x": -2.801704801,
				"y": -3.2791234538,
				"z": -2.0574498182,
				"element": "S" 
			},
			{
				"x": -2.1113156892,
				"y": -2.1055657951,
				"z": -0.9210154371,
				"element": "C" 
			},
			{
				"x": -2.2003056322,
				"y": -2.4972572338,
				"z": 0.3248550185,
				"element": "N" 
			},
			{
				"x": -1.5100930429,
				"y": -0.8442565847,
				"z": -1.3604835073,
				"element": "C" 
			},
			{
				"x": -0.9262693831,
				"y": 0.0003398869,
				"z": -0.4026771086,
				"element": "C" 
			},
			{
				"x": -0.3479047679,
				"y": 1.2059397322,
				"z": -0.7805944428,
				"element": "C" 
			},
			{
				"x": -0.3540255128,
				"y": 1.5958275369,
				"z": -2.134370437,
				"element": "C" 
			},
			{
				"x": 0.1844336406,
				"y": 2.7819157746,
				"z": -2.5491480003,
				"element": "O" 
			},
			{
				"x": 0.4443206902,
				"y": 3.7105849339,
				"z": -1.4919849376,
				"element": "C" 
			},
			{
				"x": 1.0927029656,
				"y": 2.9986382337,
				"z": -0.3166992441,
				"element": "C" 
			},
			{
				"x": 0.2160921282,
				"y": 1.9918637755,
				"z": 0.1918284194,
				"element": "O" 
			},
			{
				"x": -0.9205193698,
				"y": 0.7512077947,
				"z": -3.091467204,
				"element": "C" 
			},
			{
				"x": -1.4906737084,
				"y": -0.4573872018,
				"z": -2.7121787104,
				"element": "C" 
			},
			{
				"x": -2.1534668266,
				"y": -2.7460503498,
				"z": 2.3902270552,
				"element": "H" 
			},
			{
				"x": -3.7021300482,
				"y": -5.2579356717,
				"z": -0.8600886502,
				"element": "H" 
			},
			{
				"x": -0.913826396,
				"y": -0.282168384,
				"z": 0.6431467157,
				"element": "H" 
			},
			{
				"x": 1.1036597657,
				"y": 4.4754123196,
				"z": -1.9091251112,
				"element": "H" 
			},
			{
				"x": -0.4957332597,
				"y": 4.1808195837,
				"z": -1.174690285,
				"element": "H" 
			},
			{
				"x": 2.0420266138,
				"y": 2.5435572253,
				"z": -0.630054255,
				"element": "H" 
			},
			{
				"x": 1.283520964,
				"y": 3.688709446,
				"z": 0.5085687021,
				"element": "H" 
			},
			{
				"x": -0.9106646452,
				"y": 1.0693053097,
				"z": -4.1285642486,
				"element": "H" 
			},
			{
				"x": -1.9319628389,
				"y": -1.0922597675,
				"z": -3.4743361859,
				"element": "H" 
			}
		],
		 "valence_orbital": [ 
			{
				"type": "occ",
				"energy": -0.3026,
				"method": "rhf"
			},
			{
				"type": "occ",
				"energy": -0.27544,
				"method": "rhf"
			},
			{
				"type": "occ",
				"energy": -0.26669,
				"method": "rhf"
			},
			{
				"type": "occ",
				"energy": -0.24747,
				"method": "rhf"
			},
			{
				"type": "occ",
				"energy": -0.22063,
				"method": "rhf"
			},
			{
				"type": "unocc",
				"energy": -0.06647,
				"method": "rhf"
			},
			{
				"type": "unocc",
				"energy": -0.03355,
				"method": "rhf"
			},
			{
				"type": "unocc",
				"energy": -0.01185,
				"method": "rhf"
			},
			{
				"type": "unocc",
				"energy": 0.00378,
				"method": "rhf"
			},
			{
				"type": "unocc",
				"energy": 0.0375,
				"method": "rhf"
			}
		],
		"cosmo_sigma_profile": { 
			"-0.025": 0.0,
			"-0.024": 0.0,
			"-0.023": 0.0,
			"-0.022": 0.0,
			"-0.021": 0.0,
			"-0.02": 0.0,
			"-0.019": 0.0,
			"-0.018": 0.0,
			"-0.017": 0.0,
			"-0.016": 0.0,
			"-0.015": 0.0,
			"-0.014": 0.0231469609443,
			"-0.013": 0.443972480853,
			"-0.012": 0.634921742806,
			"-0.011": 1.21630378431,
			"-0.01": 2.33743615017,
			"-0.009": 2.29661192324,
			"-0.008": 3.74988793113,
			"-0.007": 13.6798619171,
			"-0.006": 19.3569469393,
			"-0.005": 19.5357149511,
			"-0.004": 15.6022990691,
			"-0.003": 14.6613105083,
			"-0.002": 15.435173016,
			"-0.001": 20.0844365646,
			"0.0": 23.2330422314,
			"0.001": 20.5534756544,
			"0.002": 20.9281929475,
			"0.003": 18.9214011049,
			"0.004": 11.6183971744,
			"0.005": 6.3935606098,
			"0.006": 4.56267697811,
			"0.007": 4.39714385437,
			"0.008": 5.52383571495,
			"0.009": 6.5517600844,
			"0.01": 7.34177355444,
			"0.011": 5.00043624324,
			"0.012": 4.72085390214,
			"0.013": 1.60142476709,
			"0.014": 0.0619370469697,
			"0.015": 0.0,
			"0.016": 0.0,
			"0.017": 0.0,
			"0.018": 0.0,
			"0.019": 0.0,
			"0.02": 0.0,
			"0.021": 0.0,
			"0.022": 0.0,
			"0.023": 0.0,
			"0.024": 0.0,
			"0.025": 0.0
		}
	}
}
