{
	 "smiles": "NC1=C(Cl)C=C(C=C1Cl)[N+]([O-])=O", 
	 "Tm": 463.15, 
	 "num_atms": 16, 
	 "gaussian": { 
		 "optdone": 1, 
		 "sigma_profile": "yes", 
		 "theory": "DFT", 
		 "functional": "B3LYP", 
		 "basiset": "6-31G**", 
		 "properties": { 
			 "R2extent": 2955.1431, 
			 "electric_dipole_moment_norm": 5.58419259159, 
			 "electric_quadrupole_moment_norm": 0.715449949333, 
			 "total_energy": -1411.29021166, 
			 "HOMO_LUMO_gap": 0.15462, 
			 "cosmo_polarized_energy": -11.07, 
			 "cosmo_cavitation_energy": 24.65, 
			 "cosmo_dispersion_energy": -18.76, 
			 "cosmo_repulsion_energy": 1.49, 
			 "cosmo_total_nonelectrostatic_energy": 7.38, 
			 "SMD_solvation_energy": 5.92 
		},
		"coords": [
			{
				"x": -2.9297525152,
				"y": -1.079731112,
				"z": -0.1315397321,
				"element": "N" 
			},
			{
				"x": -1.6910617612,
				"y": -0.5333091161,
				"z": -0.0310677592,
				"element": "C" 
			},
			{
				"x": -0.6894139083,
				"y": -1.0919606261,
				"z": 0.8044510989,
				"element": "C" 
			},
			{
				"x": -1.0711145509,
				"y": -2.557756874,
				"z": 1.6951809845,
				"element": "Cl" 
			},
			{
				"x": 0.5659206126,
				"y": -0.5277090705,
				"z": 0.9383497025,
				"element": "C" 
			},
			{
				"x": 0.8576459885,
				"y": 0.6330735083,
				"z": 0.2231671229,
				"element": "C" 
			},
			{
				"x": -0.0823663481,
				"y": 1.2280071302,
				"z": -0.6173353359,
				"element": "C" 
			},
			{
				"x": -1.3308161825,
				"y": 0.645088381,
				"z": -0.7346878085,
				"element": "C" 
			},
			{
				"x": -2.5250406397,
				"y": 1.3797971902,
				"z": -1.7937878594,
				"element": "Cl" 
			},
			{
				"x": 2.1786228385,
				"y": 1.2380841092,
				"z": 0.3555617533,
				"element": "N" 
			},
			{
				"x": 2.4052442341,
				"y": 2.2627008252,
				"z": -0.290625021,
				"element": "O" 
			},
			{
				"x": 2.9868894173,
				"y": 0.6872669922,
				"z": 1.1052748402,
				"element": "O" 
			},
			{
				"x": -3.5623023144,
				"y": -0.7377853784,
				"z": -0.8367037879,
				"element": "H" 
			},
			{
				"x": -3.1009254924,
				"y": -1.9871981267,
				"z": 0.2703390571,
				"element": "H" 
			},
			{
				"x": 1.31628679,
				"y": -0.9689760254,
				"z": 1.5808577372,
				"element": "H" 
			},
			{
				"x": 0.1730838315,
				"y": 2.1270081928,
				"z": -1.1624349925,
				"element": "H" 
			}
		],
		 "valence_orbital": [ 
			{
				"type": "occ",
				"energy": -0.3085,
				"method": "rhf"
			},
			{
				"type": "occ",
				"energy": -0.3077,
				"method": "rhf"
			},
			{
				"type": "occ",
				"energy": -0.29043,
				"method": "rhf"
			},
			{
				"type": "occ",
				"energy": -0.27397,
				"method": "rhf"
			},
			{
				"type": "occ",
				"energy": -0.24226,
				"method": "rhf"
			},
			{
				"type": "unocc",
				"energy": -0.08764,
				"method": "rhf"
			},
			{
				"type": "unocc",
				"energy": -0.04198,
				"method": "rhf"
			},
			{
				"type": "unocc",
				"energy": -0.01397,
				"method": "rhf"
			},
			{
				"type": "unocc",
				"energy": 0.00262,
				"method": "rhf"
			},
			{
				"type": "unocc",
				"energy": 0.0303,
				"method": "rhf"
			}
		],
		"cosmo_sigma_profile": { 
			"-0.025": 0.0,
			"-0.024": 0.0,
			"-0.023": 0.0,
			"-0.022": 0.0,
			"-0.021": 0.0,
			"-0.02": 0.0,
			"-0.019": 0.0,
			"-0.018": 0.0,
			"-0.017": 0.0,
			"-0.016": 0.0,
			"-0.015": 0.134634077064,
			"-0.014": 1.50429009435,
			"-0.013": 1.59771261569,
			"-0.012": 2.21170255838,
			"-0.011": 2.20659007571,
			"-0.01": 1.77017702356,
			"-0.009": 1.62635488451,
			"-0.008": 3.9472597936,
			"-0.007": 3.53188992284,
			"-0.006": 5.77349920734,
			"-0.005": 6.15052778104,
			"-0.004": 7.76388867403,
			"-0.003": 11.9927430149,
			"-0.002": 16.1863893418,
			"-0.001": 26.2746381531,
			"0.0": 27.1760438909,
			"0.001": 13.4362653792,
			"0.002": 11.1010566779,
			"0.003": 16.6253008293,
			"0.004": 10.4549937954,
			"0.005": 3.43818177011,
			"0.006": 2.97328901286,
			"0.007": 6.03044162982,
			"0.008": 9.08443470555,
			"0.009": 5.28797699158,
			"0.01": 3.64429413182,
			"0.011": 0.810716899604,
			"0.012": 0.0,
			"0.013": 0.0,
			"0.014": 0.0,
			"0.015": 0.0,
			"0.016": 0.0,
			"0.017": 0.0,
			"0.018": 0.0,
			"0.019": 0.0,
			"0.02": 0.0,
			"0.021": 0.0,
			"0.022": 0.0,
			"0.023": 0.0,
			"0.024": 0.0,
			"0.025": 0.0
		}
	}
}
