{
	 "smiles": "COC1=CC(=CC(OC)=C1OC)C1=NC2=C(C=CC=C2)C(=C1)C(=O)NN", 
	 "Tm": 474.15, 
	 "num_atms": 45, 
	 "gaussian": { 
		 "optdone": 1, 
		 "sigma_profile": "yes", 
		 "theory": "DFT", 
		 "functional": "B3LYP", 
		 "basiset": "6-31G**", 
		 "properties": { 
			 "R2extent": 12490.0748, 
			 "electric_dipole_moment_norm": 1.5498531995, 
			 "electric_quadrupole_moment_norm": 15.2509196559, 
			 "total_energy": -1200.57143219, 
			 "HOMO_LUMO_gap": 0.14178, 
			 "cosmo_polarized_energy": -19.34, 
			 "cosmo_cavitation_energy": 49.16, 
			 "cosmo_dispersion_energy": -34.45, 
			 "cosmo_repulsion_energy": 2.62, 
			 "cosmo_total_nonelectrostatic_energy": 17.33, 
			 "SMD_solvation_energy": 10.31 
		},
		"coords": [
			{
				"x": 3.7154022558,
				"y": -1.0051270482,
				"z": 4.2688351542,
				"element": "C" 
			},
			{
				"x": 2.441386681,
				"y": -0.4188368595,
				"z": 3.9815957912,
				"element": "O" 
			},
			{
				"x": 2.3285099061,
				"y": 0.2110115678,
				"z": 2.7666054519,
				"element": "C" 
			},
			{
				"x": 1.4181616175,
				"y": -0.3061976089,
				"z": 1.8406444109,
				"element": "C" 
			},
			{
				"x": 1.2127989581,
				"y": 0.330422906,
				"z": 0.6119139875,
				"element": "C" 
			},
			{
				"x": 1.9554139678,
				"y": 1.4848470725,
				"z": 0.3066023824,
				"element": "C" 
			},
			{
				"x": 2.8679351566,
				"y": 2.0022759739,
				"z": 1.2226535152,
				"element": "C" 
			},
			{
				"x": 3.6220092594,
				"y": 3.1208036285,
				"z": 1.0160187875,
				"element": "O" 
			},
			{
				"x": 3.4914815945,
				"y": 3.790849044,
				"z": -0.2296725212,
				"element": "C" 
			},
			{
				"x": 3.056834189,
				"y": 1.371626564,
				"z": 2.473641209,
				"element": "C" 
			},
			{
				"x": 3.9690901106,
				"y": 1.8539051689,
				"z": 3.3780541773,
				"element": "O" 
			},
			{
				"x": 3.5641229453,
				"y": 3.0384478441,
				"z": 4.0735864515,
				"element": "C" 
			},
			{
				"x": 0.2445961937,
				"y": -0.1843502979,
				"z": -0.393403524,
				"element": "C" 
			},
			{
				"x": 0.3061526711,
				"y": 0.3266336676,
				"z": -1.613777662,
				"element": "N" 
			},
			{
				"x": -0.5664149224,
				"y": -0.1027624082,
				"z": -2.5654764893,
				"element": "C" 
			},
			{
				"x": -1.5727648706,
				"y": -1.094181678,
				"z": -2.3192599783,
				"element": "C" 
			},
			{
				"x": -2.4363892544,
				"y": -1.4753191408,
				"z": -3.3804836687,
				"element": "C" 
			},
			{
				"x": -2.3025526126,
				"y": -0.9018610295,
				"z": -4.6265847212,
				"element": "C" 
			},
			{
				"x": -1.3080326526,
				"y": 0.0754601778,
				"z": -4.8713963583,
				"element": "C" 
			},
			{
				"x": -0.4589345387,
				"y": 0.4676820884,
				"z": -3.8626021358,
				"element": "C" 
			},
			{
				"x": -1.6153832501,
				"y": -1.6386812556,
				"z": -0.9965122713,
				"element": "C" 
			},
			{
				"x": -0.7207117766,
				"y": -1.1775541338,
				"z": -0.054109367,
				"element": "C" 
			},
			{
				"x": -2.6348277746,
				"y": -2.6758606741,
				"z": -0.6082482841,
				"element": "C" 
			},
			{
				"x": -3.7960331321,
				"y": -2.6831791994,
				"z": -1.0069044172,
				"element": "O" 
			},
			{
				"x": -2.1695227315,
				"y": -3.6381021303,
				"z": 0.2548073663,
				"element": "N" 
			},
			{
				"x": -2.9811911294,
				"y": -4.7385466684,
				"z": 0.6020093813,
				"element": "N" 
			},
			{
				"x": 3.615919037,
				"y": -1.477870638,
				"z": 5.2482867617,
				"element": "H" 
			},
			{
				"x": 4.5047934316,
				"y": -0.2498718082,
				"z": 4.3003596583,
				"element": "H" 
			},
			{
				"x": 3.967909943,
				"y": -1.7709992677,
				"z": 3.5238472687,
				"element": "H" 
			},
			{
				"x": 0.8941966709,
				"y": -1.2117681065,
				"z": 2.1219404948,
				"element": "H" 
			},
			{
				"x": 1.7934610593,
				"y": 1.948018581,
				"z": -0.6570112033,
				"element": "H" 
			},
			{
				"x": 3.7632560415,
				"y": 3.1375986932,
				"z": -1.0678512825,
				"element": "H" 
			},
			{
				"x": 2.4713694629,
				"y": 4.1643871695,
				"z": -0.3839455947,
				"element": "H" 
			},
			{
				"x": 4.183063757,
				"y": 4.6337628368,
				"z": -0.189545541,
				"element": "H" 
			},
			{
				"x": 2.6424236184,
				"y": 2.8612635408,
				"z": 4.6406955853,
				"element": "H" 
			},
			{
				"x": 4.3746503822,
				"y": 3.277476171,
				"z": 4.7651264529,
				"element": "H" 
			},
			{
				"x": 3.4188780973,
				"y": 3.8720065764,
				"z": 3.3796574855,
				"element": "H" 
			},
			{
				"x": -3.2124093215,
				"y": -2.2048907766,
				"z": -3.1872349097,
				"element": "H" 
			},
			{
				"x": -2.9704128943,
				"y": -1.1998125027,
				"z": -5.4295318602,
				"element": "H" 
			},
			{
				"x": -1.2189451196,
				"y": 0.5158016053,
				"z": -5.8604042799,
				"element": "H" 
			},
			{
				"x": 0.3136762297,
				"y": 1.2134555965,
				"z": -4.0179525452,
				"element": "H" 
			},
			{
				"x": -0.7853887065,
				"y": -1.5431696848,
				"z": 0.9633280965,
				"element": "H" 
			},
			{
				"x": -1.1765726409,
				"y": -3.8123743399,
				"z": 0.3170659482,
				"element": "H" 
			},
			{
				"x": -3.5958358116,
				"y": -4.4366153989,
				"z": 1.3576743785,
				"element": "H" 
			},
			{
				"x": -3.5989700974,
				"y": -4.9050038182,
				"z": -0.1944415817,
				"element": "H" 
			}
		],
		 "valence_orbital": [ 
			{
				"type": "occ",
				"energy": -0.25645,
				"method": "rhf"
			},
			{
				"type": "occ",
				"energy": -0.2518,
				"method": "rhf"
			},
			{
				"type": "occ",
				"energy": -0.23721,
				"method": "rhf"
			},
			{
				"type": "occ",
				"energy": -0.22349,
				"method": "rhf"
			},
			{
				"type": "occ",
				"energy": -0.21189,
				"method": "rhf"
			},
			{
				"type": "unocc",
				"energy": -0.07011,
				"method": "rhf"
			},
			{
				"type": "unocc",
				"energy": -0.03611,
				"method": "rhf"
			},
			{
				"type": "unocc",
				"energy": -0.0017,
				"method": "rhf"
			},
			{
				"type": "unocc",
				"energy": 0.01064,
				"method": "rhf"
			},
			{
				"type": "unocc",
				"energy": 0.01721,
				"method": "rhf"
			}
		],
		"cosmo_sigma_profile": { 
			"-0.025": 0.0,
			"-0.024": 0.0,
			"-0.023": 0.0,
			"-0.022": 0.0,
			"-0.021": 0.0,
			"-0.02": 0.0,
			"-0.019": 0.0,
			"-0.018": 0.0,
			"-0.017": 0.0,
			"-0.016": 0.0,
			"-0.015": 0.285688168708,
			"-0.014": 0.70255256128,
			"-0.013": 1.35366723446,
			"-0.012": 1.5834566599,
			"-0.011": 2.61879880838,
			"-0.01": 4.02527833158,
			"-0.009": 5.38470349791,
			"-0.008": 4.22935669491,
			"-0.007": 4.78442674743,
			"-0.006": 14.2444746727,
			"-0.005": 29.0056192363,
			"-0.004": 32.0282871262,
			"-0.003": 38.7951883498,
			"-0.002": 30.6787630526,
			"-0.001": 23.6014917823,
			"0.0": 27.8195582109,
			"0.001": 25.1357540194,
			"0.002": 27.2598067489,
			"0.003": 29.3875870561,
			"0.004": 27.9114995906,
			"0.005": 10.55748985,
			"0.006": 8.78612891734,
			"0.007": 7.619534083,
			"0.008": 6.51070265908,
			"0.009": 4.76536574426,
			"0.01": 5.7137104591,
			"0.011": 6.61559859326,
			"0.012": 5.10359018499,
			"0.013": 3.32542134586,
			"0.014": 0.79738521966,
			"0.015": 0.544801165182,
			"0.016": 0.498020009186,
			"0.017": 0.136767368923,
			"0.018": 0.0,
			"0.019": 0.0,
			"0.02": 0.0,
			"0.021": 0.0,
			"0.022": 0.0,
			"0.023": 0.0,
			"0.024": 0.0,
			"0.025": 0.0
		}
	}
}
