{
	 "smiles": "COC1=CC(Br)=CC(OC)=C1O", 
	 "Tm": 373.15, 
	 "num_atms": 21, 
	 "gaussian": { 
		 "optdone": 1, 
		 "sigma_profile": "yes", 
		 "theory": "DFT", 
		 "functional": "B3LYP", 
		 "basiset": "6-31G**", 
		 "properties": { 
			 "R2extent": 3789.7465, 
			 "electric_dipole_moment_norm": 3.63618706614, 
			 "electric_quadrupole_moment_norm": 10.3115404664, 
			 "total_energy": -3107.31376226, 
			 "HOMO_LUMO_gap": 0.20992, 
			 "cosmo_polarized_energy": -8.03, 
			 "cosmo_cavitation_energy": 26.97, 
			 "cosmo_dispersion_energy": -20.61, 
			 "cosmo_repulsion_energy": 1.65, 
			 "cosmo_total_nonelectrostatic_energy": 8.01, 
			 "SMD_solvation_energy": 5.31 
		},
		"coords": [
			{
				"x": -0.245265989,
				"y": 3.0762529703,
				"z": 1.2346276829,
				"element": "C" 
			},
			{
				"x": -0.6905529182,
				"y": 1.7726794394,
				"z": 1.5829945402,
				"element": "O" 
			},
			{
				"x": -0.7196835818,
				"y": 0.8091918972,
				"z": 0.6031999887,
				"element": "C" 
			},
			{
				"x": -0.3443125792,
				"y": 1.0049512354,
				"z": -0.7220696475,
				"element": "C" 
			},
			{
				"x": -0.4375728104,
				"y": -0.088965766,
				"z": -1.5853794587,
				"element": "C" 
			},
			{
				"x": 0.0694637294,
				"y": 0.1393700455,
				"z": -3.4165506452,
				"element": "Br" 
			},
			{
				"x": -0.8840202126,
				"y": -1.325388963,
				"z": -1.1543456304,
				"element": "C" 
			},
			{
				"x": -1.2623729971,
				"y": -1.5168809643,
				"z": 0.1877500784,
				"element": "C" 
			},
			{
				"x": -1.6805936826,
				"y": -2.7815915848,
				"z": 0.4697253519,
				"element": "O" 
			},
			{
				"x": -2.104440496,
				"y": -3.1680998269,
				"z": 1.7777475882,
				"element": "C" 
			},
			{
				"x": -1.1796907103,
				"y": -0.4366400959,
				"z": 1.07915496,
				"element": "C" 
			},
			{
				"x": -1.5301818188,
				"y": -0.5470421185,
				"z": 2.3991502993,
				"element": "O" 
			},
			{
				"x": -0.8887714264,
				"y": 3.5242149922,
				"z": 0.4679115882,
				"element": "H" 
			},
			{
				"x": 0.790399639,
				"y": 3.0591953452,
				"z": 0.8744632855,
				"element": "H" 
			},
			{
				"x": -0.3018465885,
				"y": 3.6703041838,
				"z": 2.147693711,
				"element": "H" 
			},
			{
				"x": 0.007394274,
				"y": 1.9619202773,
				"z": -1.0811728303,
				"element": "H" 
			},
			{
				"x": -0.9547848082,
				"y": -2.1707337134,
				"z": -1.8268644305,
				"element": "H" 
			},
			{
				"x": -2.3733230403,
				"y": -4.2222081258,
				"z": 1.6850935749,
				"element": "H" 
			},
			{
				"x": -2.9741640653,
				"y": -2.5943099219,
				"z": 2.1081530347,
				"element": "H" 
			},
			{
				"x": -1.3034676705,
				"y": -3.0560466006,
				"z": 2.5130716136,
				"element": "H" 
			},
			{
				"x": -1.3831122472,
				"y": 0.3281272946,
				"z": 2.7907453451,
				"element": "H" 
			}
		],
		 "valence_orbital": [ 
			{
				"type": "occ",
				"energy": -0.32294,
				"method": "rhf"
			},
			{
				"type": "occ",
				"energy": -0.27996,
				"method": "rhf"
			},
			{
				"type": "occ",
				"energy": -0.27229,
				"method": "rhf"
			},
			{
				"type": "occ",
				"energy": -0.22168,
				"method": "rhf"
			},
			{
				"type": "occ",
				"energy": -0.20323,
				"method": "rhf"
			},
			{
				"type": "unocc",
				"energy": 0.00669,
				"method": "rhf"
			},
			{
				"type": "unocc",
				"energy": 0.00917,
				"method": "rhf"
			},
			{
				"type": "unocc",
				"energy": 0.01078,
				"method": "rhf"
			},
			{
				"type": "unocc",
				"energy": 0.07003,
				"method": "rhf"
			},
			{
				"type": "unocc",
				"energy": 0.09336,
				"method": "rhf"
			}
		],
		"cosmo_sigma_profile": { 
			"-0.025": 0.0,
			"-0.024": 0.0,
			"-0.023": 0.0,
			"-0.022": 0.0,
			"-0.021": 0.0,
			"-0.02": 0.0,
			"-0.019": 0.0,
			"-0.018": 0.0,
			"-0.017": 0.0,
			"-0.016": 0.0,
			"-0.015": 0.0,
			"-0.014": 0.358202076078,
			"-0.013": 0.359908598615,
			"-0.012": 0.680576979463,
			"-0.011": 0.553112057755,
			"-0.01": 0.6230842774,
			"-0.009": 0.530554256069,
			"-0.008": 0.782503512445,
			"-0.007": 3.95487700313,
			"-0.006": 11.212784724,
			"-0.005": 15.0545294575,
			"-0.004": 19.223384251,
			"-0.003": 19.7031333532,
			"-0.002": 14.3756777484,
			"-0.001": 10.3141264192,
			"0.0": 11.1949526884,
			"0.001": 15.0723384732,
			"0.002": 20.8111167283,
			"0.003": 22.7150965564,
			"0.004": 22.6705374828,
			"0.005": 13.9590773611,
			"0.006": 4.34045242919,
			"0.007": 4.29064687383,
			"0.008": 2.28601657887,
			"0.009": 1.44574424792,
			"0.01": 1.24866764805,
			"0.011": 0.0228075807236,
			"0.012": 0.0,
			"0.013": 0.0,
			"0.014": 0.0,
			"0.015": 0.0,
			"0.016": 0.0,
			"0.017": 0.0,
			"0.018": 0.0,
			"0.019": 0.0,
			"0.02": 0.0,
			"0.021": 0.0,
			"0.022": 0.0,
			"0.023": 0.0,
			"0.024": 0.0,
			"0.025": 0.0
		}
	}
}
