{
	 "smiles": "COC(=O)C1C(O)CCC2CN3CCC4=C(NC5=C4C=CC=C5)C3CC12", 
	 "Tm": 507.15, 
	 "num_atms": 52, 
	 "gaussian": { 
		 "optdone": 1, 
		 "sigma_profile": "yes", 
		 "theory": "DFT", 
		 "functional": "B3LYP", 
		 "basiset": "6-31G**", 
		 "properties": { 
			 "R2extent": 12294.1195, 
			 "electric_dipole_moment_norm": 3.88560063568, 
			 "electric_quadrupole_moment_norm": 17.2654396142, 
			 "total_energy": -1151.10165874, 
			 "HOMO_LUMO_gap": 0.18811, 
			 "cosmo_polarized_energy": -19.52, 
			 "cosmo_cavitation_energy": 49.55, 
			 "cosmo_dispersion_energy": -35.01, 
			 "cosmo_repulsion_energy": 2.62, 
			 "cosmo_total_nonelectrostatic_energy": 17.17, 
			 "SMD_solvation_energy": 6.31 
		},
		"coords": [
			{
				"x": 1.772089359,
				"y": 3.1137580382,
				"z": 4.8938534226,
				"element": "C" 
			},
			{
				"x": 1.5873315501,
				"y": 2.3768070406,
				"z": 3.673363101,
				"element": "O" 
			},
			{
				"x": 1.5104170395,
				"y": 1.0319672639,
				"z": 3.8128013369,
				"element": "C" 
			},
			{
				"x": 1.6134596058,
				"y": 0.4755679677,
				"z": 4.8869043432,
				"element": "O" 
			},
			{
				"x": 1.2754269703,
				"y": 0.3618099018,
				"z": 2.4661293945,
				"element": "C" 
			},
			{
				"x": 1.6897582542,
				"y": -1.1319949772,
				"z": 2.5078254898,
				"element": "C" 
			},
			{
				"x": 1.8516223237,
				"y": -1.6506890082,
				"z": 1.1841214697,
				"element": "O" 
			},
			{
				"x": 0.6532858446,
				"y": -2.0126418691,
				"z": 3.2075252163,
				"element": "C" 
			},
			{
				"x": -0.7641727701,
				"y": -1.806516225,
				"z": 2.6588084605,
				"element": "C" 
			},
			{
				"x": -1.1898409364,
				"y": -0.3296453146,
				"z": 2.7371412641,
				"element": "C" 
			},
			{
				"x": -2.6090387122,
				"y": -0.0975119321,
				"z": 2.1948938599,
				"element": "C" 
			},
			{
				"x": -2.6734608758,
				"y": -0.2874231197,
				"z": 0.747929342,
				"element": "N" 
			},
			{
				"x": -4.0478799507,
				"y": -0.3182292211,
				"z": 0.2379822554,
				"element": "C" 
			},
			{
				"x": -4.0906672353,
				"y": -0.8440643094,
				"z": -1.2048361887,
				"element": "C" 
			},
			{
				"x": -3.0665539666,
				"y": -0.1128239222,
				"z": -2.0189162718,
				"element": "C" 
			},
			{
				"x": -2.047481128,
				"y": 0.5779340934,
				"z": -1.4182398472,
				"element": "C" 
			},
			{
				"x": -1.2621031973,
				"y": 1.1864414029,
				"z": -2.3848005227,
				"element": "N" 
			},
			{
				"x": -1.7664936893,
				"y": 0.8782177442,
				"z": -3.6351404484,
				"element": "C" 
			},
			{
				"x": -2.912409637,
				"y": 0.054072326,
				"z": -3.44017556,
				"element": "C" 
			},
			{
				"x": -3.6203369118,
				"y": -0.3973323393,
				"z": -4.566939502,
				"element": "C" 
			},
			{
				"x": -3.1821900987,
				"y": -0.0292922431,
				"z": -5.8341120381,
				"element": "C" 
			},
			{
				"x": -2.0445165362,
				"y": 0.7850225279,
				"z": -6.0026913487,
				"element": "C" 
			},
			{
				"x": -1.3225777413,
				"y": 1.2495418593,
				"z": -4.9071489675,
				"element": "C" 
			},
			{
				"x": -1.8236566045,
				"y": 0.6974580353,
				"z": 0.0607047689,
				"element": "C" 
			},
			{
				"x": -0.3558472265,
				"y": 0.4768365043,
				"z": 0.4722808179,
				"element": "C" 
			},
			{
				"x": -0.1943513765,
				"y": 0.5973538372,
				"z": 1.9993573085,
				"element": "C" 
			},
			{
				"x": 1.8070180031,
				"y": 4.1632186887,
				"z": 4.6017282072,
				"element": "H" 
			},
			{
				"x": 0.9426110527,
				"y": 2.9343560876,
				"z": 5.5824595159,
				"element": "H" 
			},
			{
				"x": 2.7040054941,
				"y": 2.8201613755,
				"z": 5.3833113048,
				"element": "H" 
			},
			{
				"x": 1.9329744827,
				"y": 0.8849190907,
				"z": 1.7572092628,
				"element": "H" 
			},
			{
				"x": 2.6403744276,
				"y": -1.2085642739,
				"z": 3.0558848567,
				"element": "H" 
			},
			{
				"x": 2.5594173129,
				"y": -1.157319423,
				"z": 0.7495698776,
				"element": "H" 
			},
			{
				"x": 0.6827441925,
				"y": -1.7739167324,
				"z": 4.27513617,
				"element": "H" 
			},
			{
				"x": 0.9639942904,
				"y": -3.0563946325,
				"z": 3.0906668846,
				"element": "H" 
			},
			{
				"x": -0.8276810466,
				"y": -2.1560727629,
				"z": 1.6244001689,
				"element": "H" 
			},
			{
				"x": -1.4709975016,
				"y": -2.4145477691,
				"z": 3.2373441347,
				"element": "H" 
			},
			{
				"x": -1.1985042634,
				"y": -0.039591828,
				"z": 3.7980413755,
				"element": "H" 
			},
			{
				"x": -2.9504220606,
				"y": 0.9185365811,
				"z": 2.4853185386,
				"element": "H" 
			},
			{
				"x": -3.2972870268,
				"y": -0.8094710339,
				"z": 2.6648362998,
				"element": "H" 
			},
			{
				"x": -4.6328298892,
				"y": -0.9724559581,
				"z": 0.8928483457,
				"element": "H" 
			},
			{
				"x": -4.5178833313,
				"y": 0.6844000278,
				"z": 0.2773479478,
				"element": "H" 
			},
			{
				"x": -3.8980646202,
				"y": -1.9256232608,
				"z": -1.206292117,
				"element": "H" 
			},
			{
				"x": -5.0995668446,
				"y": -0.7012253179,
				"z": -1.6127235671,
				"element": "H" 
			},
			{
				"x": -0.4385963588,
				"y": 1.7376406207,
				"z": -2.2093795583,
				"element": "H" 
			},
			{
				"x": -4.4980103677,
				"y": -1.0272269819,
				"z": -4.4492545729,
				"element": "H" 
			},
			{
				"x": -3.7227145059,
				"y": -0.3740503234,
				"z": -6.7109941391,
				"element": "H" 
			},
			{
				"x": -1.7250362803,
				"y": 1.0560396732,
				"z": -7.0048171619,
				"element": "H" 
			},
			{
				"x": -0.4460864653,
				"y": 1.8785133077,
				"z": -5.0386291483,
				"element": "H" 
			},
			{
				"x": -2.107252457,
				"y": 1.7284042387,
				"z": 0.3774763179,
				"element": "H" 
			},
			{
				"x": 0.2780940731,
				"y": 1.2345158247,
				"z": -0.0095832666,
				"element": "H" 
			},
			{
				"x": -0.0219428616,
				"y": -0.5006622951,
				"z": 0.1185240589,
				"element": "H" 
			},
			{
				"x": -0.449669801,
				"y": 1.6336930149,
				"z": 2.2604491081,
				"element": "H" 
			}
		],
		 "valence_orbital": [ 
			{
				"type": "occ",
				"energy": -0.26366,
				"method": "rhf"
			},
			{
				"type": "occ",
				"energy": -0.25995,
				"method": "rhf"
			},
			{
				"type": "occ",
				"energy": -0.21535,
				"method": "rhf"
			},
			{
				"type": "occ",
				"energy": -0.20728,
				"method": "rhf"
			},
			{
				"type": "occ",
				"energy": -0.18852,
				"method": "rhf"
			},
			{
				"type": "unocc",
				"energy": -0.00041,
				"method": "rhf"
			},
			{
				"type": "unocc",
				"energy": 0.00393,
				"method": "rhf"
			},
			{
				"type": "unocc",
				"energy": 0.03538,
				"method": "rhf"
			},
			{
				"type": "unocc",
				"energy": 0.06099,
				"method": "rhf"
			},
			{
				"type": "unocc",
				"energy": 0.07263,
				"method": "rhf"
			}
		],
		"cosmo_sigma_profile": { 
			"-0.025": 0.0,
			"-0.024": 0.0,
			"-0.023": 0.0,
			"-0.022": 0.0,
			"-0.021": 0.0,
			"-0.02": 0.0,
			"-0.019": 0.0,
			"-0.018": 0.0,
			"-0.017": 0.0,
			"-0.016": 0.0339003032343,
			"-0.015": 1.37168870711,
			"-0.014": 2.01781464379,
			"-0.013": 2.48417786939,
			"-0.012": 2.92335720915,
			"-0.011": 1.83427778973,
			"-0.01": 2.14543258306,
			"-0.009": 2.71934967036,
			"-0.008": 3.25968129433,
			"-0.007": 4.13235719814,
			"-0.006": 9.08978142273,
			"-0.005": 16.2015958408,
			"-0.004": 25.4775040226,
			"-0.003": 40.8568659796,
			"-0.002": 45.4928918471,
			"-0.001": 44.7203697199,
			"0.0": 35.5098597242,
			"0.001": 23.2806095661,
			"0.002": 15.7791298538,
			"0.003": 14.2854540078,
			"0.004": 14.4301233295,
			"0.005": 16.5556317865,
			"0.006": 18.08325584,
			"0.007": 15.8298724548,
			"0.008": 8.20174413406,
			"0.009": 4.05259510211,
			"0.01": 3.65654510325,
			"0.011": 4.67402315941,
			"0.012": 4.35973955239,
			"0.013": 1.52937246332,
			"0.014": 0.881837657633,
			"0.015": 0.118992257016,
			"0.016": 0.0,
			"0.017": 0.0,
			"0.018": 0.0,
			"0.019": 0.0,
			"0.02": 0.0,
			"0.021": 0.0,
			"0.022": 0.0,
			"0.023": 0.0,
			"0.024": 0.0,
			"0.025": 0.0
		}
	}
}
