{
	 "smiles": "ClCC1=NC2=C(C=CC(Cl)=C2)N1CC1=CC=CC=C1", 
	 "Tm": 383.15, 
	 "num_atms": 31, 
	 "gaussian": { 
		 "optdone": 1, 
		 "sigma_profile": "yes", 
		 "theory": "DFT", 
		 "functional": "B3LYP", 
		 "basiset": "6-31G**", 
		 "properties": { 
			 "R2extent": 7417.5054, 
			 "electric_dipole_moment_norm": 5.07917949082, 
			 "electric_quadrupole_moment_norm": 9.06346545092, 
			 "total_energy": -1608.73579936, 
			 "HOMO_LUMO_gap": 0.18315, 
			 "cosmo_polarized_energy": -12.31, 
			 "cosmo_cavitation_energy": 38.48, 
			 "cosmo_dispersion_energy": -27.01, 
			 "cosmo_repulsion_energy": 2.08, 
			 "cosmo_total_nonelectrostatic_energy": 13.55, 
			 "SMD_solvation_energy": 3.49 
		},
		"coords": [
			{
				"x": -1.64086005,
				"y": 3.2929475603,
				"z": -0.6168750592,
				"element": "Cl" 
			},
			{
				"x": -2.0856481291,
				"y": 1.6390430308,
				"z": 0.0469629272,
				"element": "C" 
			},
			{
				"x": -0.8945106281,
				"y": 0.7942791115,
				"z": 0.3202862427,
				"element": "C" 
			},
			{
				"x": -0.4746613511,
				"y": 0.5162975825,
				"z": 1.5348404877,
				"element": "N" 
			},
			{
				"x": 0.6266276926,
				"y": -0.2976778938,
				"z": 1.3527913056,
				"element": "C" 
			},
			{
				"x": 0.8640708468,
				"y": -0.5018611374,
				"z": -0.0286568503,
				"element": "C" 
			},
			{
				"x": 1.922043232,
				"y": -1.2906724198,
				"z": -0.4897773067,
				"element": "C" 
			},
			{
				"x": 2.7464668269,
				"y": -1.8730615638,
				"z": 0.4673770725,
				"element": "C" 
			},
			{
				"x": 2.5089293118,
				"y": -1.6677578366,
				"z": 1.8413565636,
				"element": "C" 
			},
			{
				"x": 3.5921339422,
				"y": -2.4377324625,
				"z": 2.9981924378,
				"element": "Cl" 
			},
			{
				"x": 1.4610276424,
				"y": -0.8893514505,
				"z": 2.3111328211,
				"element": "C" 
			},
			{
				"x": -0.1294926354,
				"y": 0.2139760526,
				"z": -0.6772297875,
				"element": "N" 
			},
			{
				"x": -0.3399094621,
				"y": 0.3112265355,
				"z": -2.121031288,
				"element": "C" 
			},
			{
				"x": -1.4955819225,
				"y": -0.5287818322,
				"z": -2.6409849422,
				"element": "C" 
			},
			{
				"x": -2.3882403738,
				"y": 0.0186163838,
				"z": -3.5697659701,
				"element": "C" 
			},
			{
				"x": -3.4329400861,
				"y": -0.7495520262,
				"z": -4.0891400021,
				"element": "C" 
			},
			{
				"x": -3.5981497033,
				"y": -2.072185055,
				"z": -3.6781026024,
				"element": "C" 
			},
			{
				"x": -2.7144347361,
				"y": -2.6235497947,
				"z": -2.7465256308,
				"element": "C" 
			},
			{
				"x": -1.6688044846,
				"y": -1.8580381335,
				"z": -2.2318695329,
				"element": "C" 
			},
			{
				"x": -2.7531829895,
				"y": 1.1982490031,
				"z": -0.6937762313,
				"element": "H" 
			},
			{
				"x": -2.6112534914,
				"y": 1.8122034034,
				"z": 0.9831476102,
				"element": "H" 
			},
			{
				"x": 2.1080239348,
				"y": -1.4551155372,
				"z": -1.5463839544,
				"element": "H" 
			},
			{
				"x": 3.5813784874,
				"y": -2.493235286,
				"z": 0.1620393254,
				"element": "H" 
			},
			{
				"x": 1.2894093806,
				"y": -0.7390085185,
				"z": 3.3702335598,
				"element": "H" 
			},
			{
				"x": 0.598771664,
				"y": 0.0074705852,
				"z": -2.5955393724,
				"element": "H" 
			},
			{
				"x": -0.4944081063,
				"y": 1.3626304373,
				"z": -2.3782503334,
				"element": "H" 
			},
			{
				"x": -2.2664621028,
				"y": 1.0512219388,
				"z": -3.8880152332,
				"element": "H" 
			},
			{
				"x": -4.1191168459,
				"y": -0.310841899,
				"z": -4.8076851234,
				"element": "H" 
			},
			{
				"x": -4.4122121327,
				"y": -2.6700711979,
				"z": -4.0771697285,
				"element": "H" 
			},
			{
				"x": -2.839631504,
				"y": -3.6519320731,
				"z": -2.4202478255,
				"element": "H" 
			},
			{
				"x": -0.9879822265,
				"y": -2.292435507,
				"z": -1.5050335794,
				"element": "H" 
			}
		],
		 "valence_orbital": [ 
			{
				"type": "occ",
				"energy": -0.28426,
				"method": "rhf"
			},
			{
				"type": "occ",
				"energy": -0.26671,
				"method": "rhf"
			},
			{
				"type": "occ",
				"energy": -0.26317,
				"method": "rhf"
			},
			{
				"type": "occ",
				"energy": -0.23862,
				"method": "rhf"
			},
			{
				"type": "occ",
				"energy": -0.2292,
				"method": "rhf"
			},
			{
				"type": "unocc",
				"energy": -0.04605,
				"method": "rhf"
			},
			{
				"type": "unocc",
				"energy": -0.02296,
				"method": "rhf"
			},
			{
				"type": "unocc",
				"energy": -0.01818,
				"method": "rhf"
			},
			{
				"type": "unocc",
				"energy": 0.00145,
				"method": "rhf"
			},
			{
				"type": "unocc",
				"energy": 0.01219,
				"method": "rhf"
			}
		],
		"cosmo_sigma_profile": { 
			"-0.025": 0.0,
			"-0.024": 0.0,
			"-0.023": 0.0,
			"-0.022": 0.0,
			"-0.021": 0.0,
			"-0.02": 0.0,
			"-0.019": 0.0,
			"-0.018": 0.0,
			"-0.017": 0.0,
			"-0.016": 0.0,
			"-0.015": 0.0,
			"-0.014": 0.0,
			"-0.013": 0.0,
			"-0.012": 0.0,
			"-0.011": 0.0,
			"-0.01": 0.195384221576,
			"-0.009": 2.90314483492,
			"-0.008": 5.10467614533,
			"-0.007": 9.99006679817,
			"-0.006": 18.6215603735,
			"-0.005": 22.9385960119,
			"-0.004": 23.2995695234,
			"-0.003": 20.3014683382,
			"-0.002": 19.2052624307,
			"-0.001": 19.4163275023,
			"0.0": 19.2931880572,
			"0.001": 20.5688640163,
			"0.002": 27.3750999369,
			"0.003": 33.2161691983,
			"0.004": 24.9462910551,
			"0.005": 26.4172408607,
			"0.006": 9.52372503185,
			"0.007": 1.3076262389,
			"0.008": 1.29175589838,
			"0.009": 1.22662447689,
			"0.01": 0.948622639496,
			"0.011": 1.03308407977,
			"0.012": 1.20638699241,
			"0.013": 0.393436214838,
			"0.014": 1.06687098971,
			"0.015": 0.763946308924,
			"0.016": 0.78489810769,
			"0.017": 0.0214845017929,
			"0.018": 0.0,
			"0.019": 0.0,
			"0.02": 0.0,
			"0.021": 0.0,
			"0.022": 0.0,
			"0.023": 0.0,
			"0.024": 0.0,
			"0.025": 0.0
		}
	}
}
