{
	 "smiles": "CN1N(C(=O)C(NC(=O)CSC2=C(C=CC=C2)C(O)=O)=C1C)C1=CC=CC=C1", 
	 "Tm": 395.15, 
	 "num_atms": 47, 
	 "gaussian": { 
		 "optdone": 1, 
		 "sigma_profile": "yes", 
		 "theory": "DFT", 
		 "functional": "B3LYP", 
		 "basiset": "6-31G**", 
		 "properties": { 
			 "R2extent": 9546.2558, 
			 "electric_dipole_moment_norm": 12.9190173237, 
			 "electric_quadrupole_moment_norm": 16.0026263791, 
			 "total_energy": -1636.90880763, 
			 "HOMO_LUMO_gap": 0.1691, 
			 "cosmo_polarized_energy": -30.85, 
			 "cosmo_cavitation_energy": 50.73, 
			 "cosmo_dispersion_energy": -31.98, 
			 "cosmo_repulsion_energy": 2.34, 
			 "cosmo_total_nonelectrostatic_energy": 21.09, 
			 "SMD_solvation_energy": 9.45 
		},
		"coords": [
			{
				"x": 0.3666154879,
				"y": -1.6291315665,
				"z": 3.3713314946,
				"element": "C" 
			},
			{
				"x": 0.1416765765,
				"y": -0.9855639378,
				"z": 2.0657893555,
				"element": "N" 
			},
			{
				"x": 1.2596339711,
				"y": -0.9924697591,
				"z": 1.2161469897,
				"element": "N" 
			},
			{
				"x": 0.8906742831,
				"y": -1.330531001,
				"z": -0.0845215865,
				"element": "C" 
			},
			{
				"x": 1.667911615,
				"y": -1.3106400701,
				"z": -1.0517709834,
				"element": "O" 
			},
			{
				"x": -0.5360507515,
				"y": -1.6235465938,
				"z": -0.0061512548,
				"element": "C" 
			},
			{
				"x": -1.3685390415,
				"y": -2.1406691819,
				"z": -1.0072049113,
				"element": "N" 
			},
			{
				"x": -1.5169214507,
				"y": -1.9184802688,
				"z": -2.3747689923,
				"element": "C" 
			},
			{
				"x": -2.367372059,
				"y": -2.5616094593,
				"z": -2.9705411732,
				"element": "O" 
			},
			{
				"x": -0.6342081298,
				"y": -0.913963462,
				"z": -3.0880390651,
				"element": "C" 
			},
			{
				"x": -1.3314185748,
				"y": 0.7984405527,
				"z": -3.1142257701,
				"element": "S" 
			},
			{
				"x": -0.607452569,
				"y": 1.6067094592,
				"z": -1.6819704663,
				"element": "C" 
			},
			{
				"x": 0.7404735556,
				"y": 2.0173821894,
				"z": -1.6420141074,
				"element": "C" 
			},
			{
				"x": 1.2009471544,
				"y": 2.7534773301,
				"z": -0.5429290139,
				"element": "C" 
			},
			{
				"x": 0.340121531,
				"y": 3.0993939925,
				"z": 0.4985900988,
				"element": "C" 
			},
			{
				"x": -0.9973417306,
				"y": 2.7059397009,
				"z": 0.454162735,
				"element": "C" 
			},
			{
				"x": -1.4630915821,
				"y": 1.959825752,
				"z": -0.6283734699,
				"element": "C" 
			},
			{
				"x": 1.7050287969,
				"y": 1.8050374259,
				"z": -2.7926610106,
				"element": "C" 
			},
			{
				"x": 2.4055438851,
				"y": 0.6596221183,
				"z": -2.796996332,
				"element": "O" 
			},
			{
				"x": 1.8768188049,
				"y": 2.6529160677,
				"z": -3.6359711674,
				"element": "O" 
			},
			{
				"x": -0.9292217244,
				"y": -1.418709778,
				"z": 1.2892047721,
				"element": "C" 
			},
			{
				"x": -2.2790885242,
				"y": -1.6246818163,
				"z": 1.8935894032,
				"element": "C" 
			},
			{
				"x": 2.4524666759,
				"y": -0.3168998451,
				"z": 1.5945830918,
				"element": "C" 
			},
			{
				"x": 3.6806400831,
				"y": -0.7651808927,
				"z": 1.0927744609,
				"element": "C" 
			},
			{
				"x": 4.8506179278,
				"y": -0.1020800533,
				"z": 1.4606578272,
				"element": "C" 
			},
			{
				"x": 4.8088386186,
				"y": 0.9821816482,
				"z": 2.3394883692,
				"element": "C" 
			},
			{
				"x": 3.5806822079,
				"y": 1.4172123858,
				"z": 2.8406319081,
				"element": "C" 
			},
			{
				"x": 2.3986698548,
				"y": 0.780558866,
				"z": 2.4634455256,
				"element": "C" 
			},
			{
				"x": 0.6039805072,
				"y": -2.6947441078,
				"z": 3.2609845037,
				"element": "H" 
			},
			{
				"x": -0.5374728727,
				"y": -1.5129832101,
				"z": 3.969839203,
				"element": "H" 
			},
			{
				"x": 1.1871973165,
				"y": -1.1259641105,
				"z": 3.8824145344,
				"element": "H" 
			},
			{
				"x": -2.0441296547,
				"y": -2.8323671091,
				"z": -0.7053842104,
				"element": "H" 
			},
			{
				"x": -0.6239710529,
				"y": -1.2162081617,
				"z": -4.1361779973,
				"element": "H" 
			},
			{
				"x": 0.3841301773,
				"y": -0.9051998009,
				"z": -2.7096815149,
				"element": "H" 
			},
			{
				"x": 2.237390959,
				"y": 3.076783246,
				"z": -0.5196754583,
				"element": "H" 
			},
			{
				"x": 0.7126929433,
				"y": 3.6867434804,
				"z": 1.3327014847,
				"element": "H" 
			},
			{
				"x": -1.678294548,
				"y": 2.9816921522,
				"z": 1.2543705848,
				"element": "H" 
			},
			{
				"x": -2.5029512231,
				"y": 1.6528024116,
				"z": -0.6768942584,
				"element": "H" 
			},
			{
				"x": 2.177110294,
				"y": 0.0657705411,
				"z": -2.0462988877,
				"element": "H" 
			},
			{
				"x": -2.5053095802,
				"y": -0.840603652,
				"z": 2.6219117465,
				"element": "H" 
			},
			{
				"x": -2.3680243397,
				"y": -2.5926967578,
				"z": 2.402512481,
				"element": "H" 
			},
			{
				"x": -3.0404918104,
				"y": -1.587092956,
				"z": 1.1106275501,
				"element": "H" 
			},
			{
				"x": 3.7081049236,
				"y": -1.6081552576,
				"z": 0.4143181506,
				"element": "H" 
			},
			{
				"x": 5.8009772983,
				"y": -0.4444707747,
				"z": 1.0627627412,
				"element": "H" 
			},
			{
				"x": 5.7257743411,
				"y": 1.4862947387,
				"z": 2.6286021962,
				"element": "H" 
			},
			{
				"x": 3.536774744,
				"y": 2.2654919551,
				"z": 3.5173906184,
				"element": "H" 
			},
			{
				"x": 1.4371566855,
				"y": 1.13826757,
				"z": 2.8140198045,
				"element": "H" 
			}
		],
		 "valence_orbital": [ 
			{
				"type": "occ",
				"energy": -0.2611,
				"method": "rhf"
			},
			{
				"type": "occ",
				"energy": -0.24669,
				"method": "rhf"
			},
			{
				"type": "occ",
				"energy": -0.2437,
				"method": "rhf"
			},
			{
				"type": "occ",
				"energy": -0.22966,
				"method": "rhf"
			},
			{
				"type": "occ",
				"energy": -0.22415,
				"method": "rhf"
			},
			{
				"type": "unocc",
				"energy": -0.05505,
				"method": "rhf"
			},
			{
				"type": "unocc",
				"energy": -0.03134,
				"method": "rhf"
			},
			{
				"type": "unocc",
				"energy": -0.02344,
				"method": "rhf"
			},
			{
				"type": "unocc",
				"energy": -0.01703,
				"method": "rhf"
			},
			{
				"type": "unocc",
				"energy": -0.01545,
				"method": "rhf"
			}
		],
		"cosmo_sigma_profile": { 
			"-0.025": -0.567698332094,
			"-0.024": 0.0,
			"-0.023": 0.0,
			"-0.022": 0.0,
			"-0.021": 0.0,
			"-0.02": 0.0,
			"-0.019": 0.0,
			"-0.018": 0.0,
			"-0.017": 0.0,
			"-0.016": 0.0,
			"-0.015": 0.0,
			"-0.014": 0.353023926185,
			"-0.013": 1.13678939253,
			"-0.012": 1.09502759968,
			"-0.011": 1.3451195947,
			"-0.01": 0.816069103335,
			"-0.009": 1.51175696384,
			"-0.008": 2.79068442272,
			"-0.007": 13.0027154543,
			"-0.006": 32.5335611105,
			"-0.005": 36.955721656,
			"-0.004": 35.1257836789,
			"-0.003": 30.6803431116,
			"-0.002": 27.3969591022,
			"-0.001": 22.2390586771,
			"0.0": 30.2253472186,
			"0.001": 26.106440303,
			"0.002": 26.0239364771,
			"0.003": 24.212877096,
			"0.004": 20.2093790727,
			"0.005": 11.8476493863,
			"0.006": 7.01492295021,
			"0.007": 7.88098198716,
			"0.008": 6.54896702304,
			"0.009": 5.07832817557,
			"0.01": 6.67340724973,
			"0.011": 9.19095336514,
			"0.012": 9.51456499785,
			"0.013": 7.39942481574,
			"0.014": 1.37735309125,
			"0.015": 0.0,
			"0.016": 0.0,
			"0.017": 0.0,
			"0.018": 0.0,
			"0.019": 0.0,
			"0.02": 0.0,
			"0.021": 0.0,
			"0.022": 5.26554304081,
			"0.023": 0.675919207058,
			"0.024": -4.25821649305,
			"0.025": -1.42580868772
		}
	}
}
