{
	 "smiles": "OC(=O)COC1=CC(Cl)=CC=C1", 
	 "Tm": 382.15, 
	 "num_atms": 19, 
	 "gaussian": { 
		 "optdone": 1, 
		 "sigma_profile": "yes", 
		 "theory": "DFT", 
		 "functional": "B3LYP", 
		 "basiset": "6-31G**", 
		 "properties": { 
			 "R2extent": 5185.0249, 
			 "electric_dipole_moment_norm": 2.01717911946, 
			 "electric_quadrupole_moment_norm": 7.36828808272, 
			 "total_energy": -994.929531749, 
			 "HOMO_LUMO_gap": 0.21521, 
			 "cosmo_polarized_energy": -12.41, 
			 "cosmo_cavitation_energy": 26.12, 
			 "cosmo_dispersion_energy": -19.32, 
			 "cosmo_repulsion_energy": 1.57, 
			 "cosmo_total_nonelectrostatic_energy": 8.37, 
			 "SMD_solvation_energy": 5.9 
		},
		"coords": [
			{
				"x": 2.5728862703,
				"y": -3.4000552426,
				"z": 1.905159205,
				"element": "O" 
			},
			{
				"x": 3.6553101194,
				"y": -2.7660642597,
				"z": 1.4265473885,
				"element": "C" 
			},
			{
				"x": 4.7940217442,
				"y": -3.0386107077,
				"z": 1.7335912443,
				"element": "O" 
			},
			{
				"x": 3.3412269538,
				"y": -1.650691177,
				"z": 0.4443910525,
				"element": "C" 
			},
			{
				"x": 1.951756374,
				"y": -1.5176334819,
				"z": 0.2422705901,
				"element": "O" 
			},
			{
				"x": 1.5095298206,
				"y": -0.5525162382,
				"z": -0.6181670787,
				"element": "C" 
			},
			{
				"x": 2.3496471311,
				"y": 0.3200735735,
				"z": -1.3185476632,
				"element": "C" 
			},
			{
				"x": 1.7690181686,
				"y": 1.264279429,
				"z": -2.1696710678,
				"element": "C" 
			},
			{
				"x": 2.8285998828,
				"y": 2.3601014331,
				"z": -3.0490572552,
				"element": "Cl" 
			},
			{
				"x": 0.3928750655,
				"y": 1.3621101853,
				"z": -2.340202622,
				"element": "C" 
			},
			{
				"x": -0.4251944287,
				"y": 0.4776892585,
				"z": -1.6281934292,
				"element": "C" 
			},
			{
				"x": 0.117967691,
				"y": -0.473176919,
				"z": -0.773704662,
				"element": "C" 
			},
			{
				"x": 2.9104115594,
				"y": -4.0801798276,
				"z": 2.5132390108,
				"element": "H" 
			},
			{
				"x": 3.8690697794,
				"y": -1.886346296,
				"z": -0.4902157739,
				"element": "H" 
			},
			{
				"x": 3.7849241508,
				"y": -0.7305053783,
				"z": 0.8493719755,
				"element": "H" 
			},
			{
				"x": 3.4265627742,
				"y": 0.2849943913,
				"z": -1.2208715324,
				"element": "H" 
			},
			{
				"x": -0.0267144813,
				"y": 2.1052156279,
				"z": -3.0077375349,
				"element": "H" 
			},
			{
				"x": -1.5029759893,
				"y": 0.53669516,
				"z": -1.7465402708,
				"element": "H" 
			},
			{
				"x": -0.5065225859,
				"y": -1.1632795307,
				"z": -0.2172615766,
				"element": "H" 
			}
		],
		 "valence_orbital": [ 
			{
				"type": "occ",
				"energy": -0.31547,
				"method": "rhf"
			},
			{
				"type": "occ",
				"energy": -0.31496,
				"method": "rhf"
			},
			{
				"type": "occ",
				"energy": -0.29098,
				"method": "rhf"
			},
			{
				"type": "occ",
				"energy": -0.25779,
				"method": "rhf"
			},
			{
				"type": "occ",
				"energy": -0.23442,
				"method": "rhf"
			},
			{
				"type": "unocc",
				"energy": -0.01921,
				"method": "rhf"
			},
			{
				"type": "unocc",
				"energy": -0.00691,
				"method": "rhf"
			},
			{
				"type": "unocc",
				"energy": 3e-05,
				"method": "rhf"
			},
			{
				"type": "unocc",
				"energy": 0.02526,
				"method": "rhf"
			},
			{
				"type": "unocc",
				"energy": 0.06366,
				"method": "rhf"
			}
		],
		"cosmo_sigma_profile": { 
			"-0.025": 0.0,
			"-0.024": 0.0,
			"-0.023": 0.0,
			"-0.022": 0.0,
			"-0.021": 0.0,
			"-0.02": 0.0,
			"-0.019": 0.472453664836,
			"-0.018": 1.11686184986,
			"-0.017": 0.589833502132,
			"-0.016": 1.03935282638,
			"-0.015": 1.00161959865,
			"-0.014": 0.670680296732,
			"-0.013": 0.563658387303,
			"-0.012": 0.483584838141,
			"-0.011": 0.622851025501,
			"-0.01": 0.823577529135,
			"-0.009": 3.78042254461,
			"-0.008": 9.31654153983,
			"-0.007": 9.48937787187,
			"-0.006": 11.4017241241,
			"-0.005": 11.2587598468,
			"-0.004": 9.19983145161,
			"-0.003": 8.94125446805,
			"-0.002": 8.39704653656,
			"-0.001": 10.1901728054,
			"0.0": 11.5538416797,
			"0.001": 13.6597441217,
			"0.002": 18.7543576032,
			"0.003": 20.6544254049,
			"0.004": 19.7307341481,
			"0.005": 10.8598477028,
			"0.006": 2.71083251778,
			"0.007": 2.98838487153,
			"0.008": 2.94808500551,
			"0.009": 3.19510082829,
			"0.01": 3.72560488961,
			"0.011": 6.69612517501,
			"0.012": 4.06260879859,
			"0.013": 0.103509717767,
			"0.014": 0.0,
			"0.015": 0.0,
			"0.016": 0.0,
			"0.017": 0.0,
			"0.018": 0.0,
			"0.019": 0.0,
			"0.02": 0.0,
			"0.021": 0.0,
			"0.022": 0.0,
			"0.023": 0.0,
			"0.024": 0.0,
			"0.025": 0.0
		}
	}
}
