{
	 "smiles": "CC1CC2=CC3=CC=CC=C3C(=O)N2C=C1", 
	 "Tm": 362.15, 
	 "num_atms": 29, 
	 "gaussian": { 
		 "optdone": 1, 
		 "sigma_profile": "yes", 
		 "theory": "DFT", 
		 "functional": "B3LYP", 
		 "basiset": "6-31G**", 
		 "properties": { 
			 "R2extent": 3970.9503, 
			 "electric_dipole_moment_norm": 3.57495950467, 
			 "electric_quadrupole_moment_norm": 12.8392409406, 
			 "total_energy": -671.322200642, 
			 "HOMO_LUMO_gap": 0.15807, 
			 "cosmo_polarized_energy": -9.68, 
			 "cosmo_cavitation_energy": 31.2, 
			 "cosmo_dispersion_energy": -23.01, 
			 "cosmo_repulsion_energy": 1.75, 
			 "cosmo_total_nonelectrostatic_energy": 9.94, 
			 "SMD_solvation_energy": 5.64 
		},
		"coords": [
			{
				"x": 0.8540733587,
				"y": -3.6999450115,
				"z": -0.2046847201,
				"element": "C" 
			},
			{
				"x": -0.5560097861,
				"y": -3.4267903281,
				"z": -0.7640302027,
				"element": "C" 
			},
			{
				"x": -0.5500148068,
				"y": -2.4181756909,
				"z": -1.9290728922,
				"element": "C" 
			},
			{
				"x": -0.366019034,
				"y": -0.9871332583,
				"z": -1.4862715679,
				"element": "C" 
			},
			{
				"x": 0.3558206898,
				"y": -0.0759108318,
				"z": -2.1852890342,
				"element": "C" 
			},
			{
				"x": 0.3847435287,
				"y": 1.3072649796,
				"z": -1.7945215661,
				"element": "C" 
			},
			{
				"x": 1.1197184957,
				"y": 2.2844170872,
				"z": -2.4988044525,
				"element": "C" 
			},
			{
				"x": 1.1007522124,
				"y": 3.6093091795,
				"z": -2.0910469504,
				"element": "C" 
			},
			{
				"x": 0.3490684371,
				"y": 4.0014674905,
				"z": -0.9691260263,
				"element": "C" 
			},
			{
				"x": -0.3797686776,
				"y": 3.0562871204,
				"z": -0.2635514683,
				"element": "C" 
			},
			{
				"x": -0.3693966847,
				"y": 1.7106101589,
				"z": -0.6668216518,
				"element": "C" 
			},
			{
				"x": -1.141759967,
				"y": 0.7352282647,
				"z": 0.1158665582,
				"element": "C" 
			},
			{
				"x": -1.7990527233,
				"y": 1.0197911451,
				"z": 1.1132461081,
				"element": "O" 
			},
			{
				"x": -1.0703260817,
				"y": -0.6064584035,
				"z": -0.3401354423,
				"element": "N" 
			},
			{
				"x": -1.6998805589,
				"y": -1.5899415743,
				"z": 0.4630272765,
				"element": "C" 
			},
			{
				"x": -1.4864464231,
				"y": -2.899350299,
				"z": 0.3013033014,
				"element": "C" 
			},
			{
				"x": 1.3196827913,
				"y": -2.7759308792,
				"z": 0.1527538146,
				"element": "H" 
			},
			{
				"x": 1.5020023432,
				"y": -4.1339119476,
				"z": -0.9748197613,
				"element": "H" 
			},
			{
				"x": 0.8130472649,
				"y": -4.3992783364,
				"z": 0.6362412002,
				"element": "H" 
			},
			{
				"x": -0.9551442107,
				"y": -4.3741511573,
				"z": -1.1482688073,
				"element": "H" 
			},
			{
				"x": 0.2203712912,
				"y": -2.6627838582,
				"z": -2.6663735978,
				"element": "H" 
			},
			{
				"x": -1.5197013599,
				"y": -2.4862784737,
				"z": -2.4427072704,
				"element": "H" 
			},
			{
				"x": 0.8905923465,
				"y": -0.3950802343,
				"z": -3.0733477143,
				"element": "H" 
			},
			{
				"x": 1.7001787133,
				"y": 1.9854942179,
				"z": -3.3675639742,
				"element": "H" 
			},
			{
				"x": 1.6715822926,
				"y": 4.3505220995,
				"z": -2.6435617319,
				"element": "H" 
			},
			{
				"x": 0.3414402646,
				"y": 5.0414363742,
				"z": -0.6573072765,
				"element": "H" 
			},
			{
				"x": -0.968505494,
				"y": 3.3228920736,
				"z": 0.6075649483,
				"element": "H" 
			},
			{
				"x": -2.3235207315,
				"y": -1.1597116547,
				"z": 1.2342016464,
				"element": "H" 
			},
			{
				"x": -1.9736274903,
				"y": -3.5937882524,
				"z": 0.9788012548,
				"element": "H" 
			}
		],
		 "valence_orbital": [ 
			{
				"type": "occ",
				"energy": -0.29504,
				"method": "rhf"
			},
			{
				"type": "occ",
				"energy": -0.2549,
				"method": "rhf"
			},
			{
				"type": "occ",
				"energy": -0.25477,
				"method": "rhf"
			},
			{
				"type": "occ",
				"energy": -0.24157,
				"method": "rhf"
			},
			{
				"type": "occ",
				"energy": -0.20177,
				"method": "rhf"
			},
			{
				"type": "unocc",
				"energy": -0.0437,
				"method": "rhf"
			},
			{
				"type": "unocc",
				"energy": -0.02835,
				"method": "rhf"
			},
			{
				"type": "unocc",
				"energy": 0.0278,
				"method": "rhf"
			},
			{
				"type": "unocc",
				"energy": 0.0414,
				"method": "rhf"
			},
			{
				"type": "unocc",
				"energy": 0.08304,
				"method": "rhf"
			}
		],
		"cosmo_sigma_profile": { 
			"-0.025": 0.0,
			"-0.024": 0.0,
			"-0.023": 0.0,
			"-0.022": 0.0,
			"-0.021": 0.0,
			"-0.02": 0.0,
			"-0.019": 0.0,
			"-0.018": 0.0,
			"-0.017": 0.0,
			"-0.016": 0.0,
			"-0.015": 0.0,
			"-0.014": 0.0,
			"-0.013": 0.0,
			"-0.012": 0.0,
			"-0.011": 0.0,
			"-0.01": 0.0,
			"-0.009": 0.0,
			"-0.008": 0.0,
			"-0.007": 1.06886383597,
			"-0.006": 11.6074320849,
			"-0.005": 17.5025393651,
			"-0.004": 22.3637228095,
			"-0.003": 26.1620642293,
			"-0.002": 23.4202667937,
			"-0.001": 24.2527915737,
			"0.0": 22.0584787765,
			"0.001": 19.7465328105,
			"0.002": 18.1192225531,
			"0.003": 19.5556488036,
			"0.004": 17.8389315531,
			"0.005": 7.00586109245,
			"0.006": 1.5500146671,
			"0.007": 2.57000560956,
			"0.008": 0.840701140619,
			"0.009": 0.87884548986,
			"0.01": 1.85502916684,
			"0.011": 1.833626584,
			"0.012": 2.42641074172,
			"0.013": 4.19913214715,
			"0.014": 1.34750571174,
			"0.015": 0.0,
			"0.016": 0.0,
			"0.017": 0.0,
			"0.018": 0.0,
			"0.019": 0.0,
			"0.02": 0.0,
			"0.021": 0.0,
			"0.022": 0.0,
			"0.023": 0.0,
			"0.024": 0.0,
			"0.025": 0.0
		}
	}
}
