{
	 "smiles": "OC(=O)C1=NN=C(C=C1)N1C=C(Br)C=N1", 
	 "Tm": 483.15, 
	 "num_atms": 20, 
	 "gaussian": { 
		 "optdone": 1, 
		 "sigma_profile": "yes", 
		 "theory": "DFT", 
		 "functional": "B3LYP", 
		 "basiset": "6-31G**", 
		 "properties": { 
			 "R2extent": 7574.8422, 
			 "electric_dipole_moment_norm": 4.718325791, 
			 "electric_quadrupole_moment_norm": 13.3555771043, 
			 "total_energy": -3248.65593721, 
			 "HOMO_LUMO_gap": 0.16668, 
			 "cosmo_polarized_energy": -20.3, 
			 "cosmo_cavitation_energy": 28.77, 
			 "cosmo_dispersion_energy": -21.96, 
			 "cosmo_repulsion_energy": 1.7, 
			 "cosmo_total_nonelectrostatic_energy": 8.52, 
			 "SMD_solvation_energy": 3.43 
		},
		"coords": [
			{
				"x": 4.3978655624,
				"y": 1.6068926728,
				"z": 0.2178017493,
				"element": "O" 
			},
			{
				"x": 3.2546713049,
				"y": 1.983772027,
				"z": 0.8031270988,
				"element": "C" 
			},
			{
				"x": 3.1915926214,
				"y": 2.81581508,
				"z": 1.6794033985,
				"element": "O" 
			},
			{
				"x": 2.0323183841,
				"y": 1.2792853548,
				"z": 0.2760866673,
				"element": "C" 
			},
			{
				"x": 2.2492311624,
				"y": 0.3856520929,
				"z": -0.6904702092,
				"element": "N" 
			},
			{
				"x": 1.2529780958,
				"y": -0.2954375745,
				"z": -1.2314243712,
				"element": "N" 
			},
			{
				"x": 0.0096066673,
				"y": -0.0731582638,
				"z": -0.7905107803,
				"element": "C" 
			},
			{
				"x": -0.2979642647,
				"y": 0.8533087689,
				"z": 0.2257236819,
				"element": "C" 
			},
			{
				"x": 0.7542665882,
				"y": 1.5527732268,
				"z": 0.7762651688,
				"element": "C" 
			},
			{
				"x": -1.0056525496,
				"y": -0.8298684366,
				"z": -1.4071939546,
				"element": "N" 
			},
			{
				"x": -2.3560493824,
				"y": -0.7921885838,
				"z": -1.1427383097,
				"element": "C" 
			},
			{
				"x": -2.9330366005,
				"y": -1.7016419674,
				"z": -1.9915358725,
				"element": "C" 
			},
			{
				"x": -4.7591503052,
				"y": -2.1214251819,
				"z": -2.1234256376,
				"element": "Br" 
			},
			{
				"x": -1.8621800483,
				"y": -2.2528828519,
				"z": -2.7429586755,
				"element": "C" 
			},
			{
				"x": -0.703657566,
				"y": -1.7268923009,
				"z": -2.3898220336,
				"element": "N" 
			},
			{
				"x": 4.168809044,
				"y": 0.927455586,
				"z": -0.4505987947,
				"element": "H" 
			},
			{
				"x": -1.3130899923,
				"y": 1.0159126613,
				"z": 0.5663844879,
				"element": "H" 
			},
			{
				"x": 0.6287829768,
				"y": 2.2880487253,
				"z": 1.562785566,
				"element": "H" 
			},
			{
				"x": -2.8040994967,
				"y": -0.1513519393,
				"z": -0.4022081114,
				"element": "H" 
			},
			{
				"x": -1.9092422017,
				"y": -3.0056690957,
				"z": -3.5172910683,
				"element": "H" 
			}
		],
		 "valence_orbital": [ 
			{
				"type": "occ",
				"energy": -0.30312,
				"method": "rhf"
			},
			{
				"type": "occ",
				"energy": -0.28528,
				"method": "rhf"
			},
			{
				"type": "occ",
				"energy": -0.2837,
				"method": "rhf"
			},
			{
				"type": "occ",
				"energy": -0.27036,
				"method": "rhf"
			},
			{
				"type": "occ",
				"energy": -0.25791,
				"method": "rhf"
			},
			{
				"type": "unocc",
				"energy": -0.09123,
				"method": "rhf"
			},
			{
				"type": "unocc",
				"energy": -0.08328,
				"method": "rhf"
			},
			{
				"type": "unocc",
				"energy": -0.02014,
				"method": "rhf"
			},
			{
				"type": "unocc",
				"energy": -0.00375,
				"method": "rhf"
			},
			{
				"type": "unocc",
				"energy": 0.03504,
				"method": "rhf"
			}
		],
		"cosmo_sigma_profile": { 
			"-0.025": 0.0,
			"-0.024": 0.0,
			"-0.023": 0.0,
			"-0.022": 0.0,
			"-0.021": 0.0,
			"-0.02": 0.0,
			"-0.019": 0.0,
			"-0.018": 0.0,
			"-0.017": 0.0,
			"-0.016": 0.0,
			"-0.015": 0.170693039178,
			"-0.014": 1.80433655661,
			"-0.013": 2.28311514509,
			"-0.012": 2.16015392588,
			"-0.011": 3.11624982077,
			"-0.01": 3.94086199044,
			"-0.009": 7.45548869805,
			"-0.008": 6.43429846524,
			"-0.007": 7.35354405738,
			"-0.006": 10.0303869947,
			"-0.005": 13.4422016827,
			"-0.004": 17.678387072,
			"-0.003": 16.3202246466,
			"-0.002": 13.6843580822,
			"-0.001": 11.2031830883,
			"0.0": 13.529166925,
			"0.001": 15.8218722634,
			"0.002": 12.7574936975,
			"0.003": 14.7480331695,
			"0.004": 12.9359625185,
			"0.005": 4.7911256468,
			"0.006": 4.04165630762,
			"0.007": 4.43937824916,
			"0.008": 6.5224601858,
			"0.009": 7.22612163914,
			"0.01": 6.48759923098,
			"0.011": 6.1326064713,
			"0.012": 3.82203640901,
			"0.013": 2.05988077636,
			"0.014": 1.15109440052,
			"0.015": 0.810187540621,
			"0.016": 1.17315222654,
			"0.017": 0.977541830645,
			"0.018": 0.421013106401,
			"0.019": 0.0,
			"0.02": 0.0,
			"0.021": 0.0,
			"0.022": 0.0,
			"0.023": 0.0,
			"0.024": 0.0,
			"0.025": 0.0
		}
	}
}
