{
	 "smiles": "OC(=O)C1=CC=C(C=C1)C1=NC=CS1", 
	 "Tm": 513.15, 
	 "num_atms": 21, 
	 "gaussian": { 
		 "optdone": 1, 
		 "sigma_profile": "yes", 
		 "theory": "DFT", 
		 "functional": "B3LYP", 
		 "basiset": "6-31G**", 
		 "properties": { 
			 "R2extent": 4779.5875, 
			 "electric_dipole_moment_norm": 1.9313836491, 
			 "electric_quadrupole_moment_norm": 16.8923149343, 
			 "total_energy": -988.68359959, 
			 "HOMO_LUMO_gap": 0.15725, 
			 "cosmo_polarized_energy": -11.2, 
			 "cosmo_cavitation_energy": 27.82, 
			 "cosmo_dispersion_energy": -21.28, 
			 "cosmo_repulsion_energy": 1.59, 
			 "cosmo_total_nonelectrostatic_energy": 8.13, 
			 "SMD_solvation_energy": 4.82 
		},
		"coords": [
			{
				"x": 0.4131097099,
				"y": -0.1017475235,
				"z": -4.6462684897,
				"element": "O" 
			},
			{
				"x": 1.2049232338,
				"y": -0.2955293337,
				"z": -3.5614814766,
				"element": "C" 
			},
			{
				"x": 2.2384192371,
				"y": -0.9327228552,
				"z": -3.6228717131,
				"element": "O" 
			},
			{
				"x": 0.6733522867,
				"y": 0.3442832088,
				"z": -2.3306964986,
				"element": "C" 
			},
			{
				"x": -0.5273760163,
				"y": 1.0697106505,
				"z": -2.3172951304,
				"element": "C" 
			},
			{
				"x": -0.9808125218,
				"y": 1.6488997038,
				"z": -1.1390843639,
				"element": "C" 
			},
			{
				"x": -0.2436159803,
				"y": 1.5155943966,
				"z": 0.0522373041,
				"element": "C" 
			},
			{
				"x": 0.9587652929,
				"y": 0.7870662703,
				"z": 0.0307550141,
				"element": "C" 
			},
			{
				"x": 1.4116980854,
				"y": 0.2082518296,
				"z": -1.1472684158,
				"element": "C" 
			},
			{
				"x": -0.7563099708,
				"y": 2.142478247,
				"z": 1.2769877256,
				"element": "C" 
			},
			{
				"x": -1.8704487312,
				"y": 2.8276876929,
				"z": 1.3349278973,
				"element": "N" 
			},
			{
				"x": -2.1093420714,
				"y": 3.2996982313,
				"z": 2.597533889,
				"element": "C" 
			},
			{
				"x": -1.1743197218,
				"y": 2.9832621493,
				"z": 3.5433928478,
				"element": "C" 
			},
			{
				"x": 0.0866198695,
				"y": 2.0390517032,
				"z": 2.8285517911,
				"element": "S" 
			},
			{
				"x": 0.8560198717,
				"y": -0.5588494769,
				"z": -5.3799918762,
				"element": "H" 
			},
			{
				"x": -1.0992806502,
				"y": 1.175529928,
				"z": -3.2321139563,
				"element": "H" 
			},
			{
				"x": -1.9068496271,
				"y": 2.2118763848,
				"z": -1.1152455179,
				"element": "H" 
			},
			{
				"x": 1.5442868185,
				"y": 0.6711626415,
				"z": 0.9383345135,
				"element": "H" 
			},
			{
				"x": 2.3378392651,
				"y": -0.3556003503,
				"z": -1.1743085045,
				"element": "H" 
			},
			{
				"x": -3.0020430873,
				"y": 3.8852346796,
				"z": 2.7844660391,
				"element": "H" 
			},
			{
				"x": -1.1557352927,
				"y": 3.2446618222,
				"z": 4.5916389215,
				"element": "H" 
			}
		],
		 "valence_orbital": [ 
			{
				"type": "occ",
				"energy": -0.28659,
				"method": "rhf"
			},
			{
				"type": "occ",
				"energy": -0.28231,
				"method": "rhf"
			},
			{
				"type": "occ",
				"energy": -0.27835,
				"method": "rhf"
			},
			{
				"type": "occ",
				"energy": -0.26583,
				"method": "rhf"
			},
			{
				"type": "occ",
				"energy": -0.23249,
				"method": "rhf"
			},
			{
				"type": "unocc",
				"energy": -0.07524,
				"method": "rhf"
			},
			{
				"type": "unocc",
				"energy": -0.01643,
				"method": "rhf"
			},
			{
				"type": "unocc",
				"energy": -0.01123,
				"method": "rhf"
			},
			{
				"type": "unocc",
				"energy": 0.01331,
				"method": "rhf"
			},
			{
				"type": "unocc",
				"energy": 0.03759,
				"method": "rhf"
			}
		],
		"cosmo_sigma_profile": { 
			"-0.025": 0.0,
			"-0.024": 0.0,
			"-0.023": 0.0,
			"-0.022": 0.0,
			"-0.021": 0.0,
			"-0.02": 0.0,
			"-0.019": 0.0425998802564,
			"-0.018": 0.860380313049,
			"-0.017": 0.724237038355,
			"-0.016": 1.14436631436,
			"-0.015": 0.562259289003,
			"-0.014": 0.571849146771,
			"-0.013": 0.709768264056,
			"-0.012": 0.412965010673,
			"-0.011": 1.34913884046,
			"-0.01": 1.47813102113,
			"-0.009": 2.12481186358,
			"-0.008": 3.9120652201,
			"-0.007": 7.46198932983,
			"-0.006": 10.6373959139,
			"-0.005": 12.2201065387,
			"-0.004": 9.49461411437,
			"-0.003": 11.2967915454,
			"-0.002": 11.8938119722,
			"-0.001": 15.9533178202,
			"0.0": 18.8941085505,
			"0.001": 26.8422654307,
			"0.002": 29.1389561452,
			"0.003": 20.3010644361,
			"0.004": 6.10667018152,
			"0.005": 4.60903114248,
			"0.006": 4.15302351532,
			"0.007": 5.31010191995,
			"0.008": 2.92054269374,
			"0.009": 2.56219380072,
			"0.01": 3.21922357352,
			"0.011": 5.28265045126,
			"0.012": 4.24921595511,
			"0.013": 0.108222451561,
			"0.014": 0.0,
			"0.015": 0.0,
			"0.016": 0.0,
			"0.017": 0.0,
			"0.018": 0.0,
			"0.019": 0.0,
			"0.02": 0.0,
			"0.021": 0.0,
			"0.022": 0.0,
			"0.023": 0.0,
			"0.024": 0.0,
			"0.025": 0.0
		}
	}
}
