{
	 "smiles": "COC1=CC(NS(=O)(=O)C2=CC=C(N)C=C2)=NC(C)=N1", 
	 "Tm": 419.15, 
	 "num_atms": 34, 
	 "gaussian": { 
		 "optdone": 1, 
		 "sigma_profile": "yes", 
		 "theory": "DFT", 
		 "functional": "B3LYP", 
		 "basiset": "6-31G**", 
		 "properties": { 
			 "R2extent": 7299.6134, 
			 "electric_dipole_moment_norm": 6.40444955792, 
			 "electric_quadrupole_moment_norm": 28.7295997626, 
			 "total_energy": -1308.52743883, 
			 "HOMO_LUMO_gap": 0.19795, 
			 "cosmo_polarized_energy": -23.36, 
			 "cosmo_cavitation_energy": 40.19, 
			 "cosmo_dispersion_energy": -28.64, 
			 "cosmo_repulsion_energy": 2.18, 
			 "cosmo_total_nonelectrostatic_energy": 13.74, 
			 "SMD_solvation_energy": 5.72 
		},
		"coords": [
			{
				"x": -2.544911081,
				"y": -4.7658060828,
				"z": 1.3558427939,
				"element": "C" 
			},
			{
				"x": -1.2096973478,
				"y": -4.3418948311,
				"z": 1.052202241,
				"element": "O" 
			},
			{
				"x": -1.0416450037,
				"y": -3.0720520753,
				"z": 0.6447821425,
				"element": "C" 
			},
			{
				"x": 0.257206229,
				"y": -2.6654478782,
				"z": 0.3323982262,
				"element": "C" 
			},
			{
				"x": 0.3853621435,
				"y": -1.3378250302,
				"z": -0.0794913276,
				"element": "C" 
			},
			{
				"x": 1.6403176969,
				"y": -0.8144741452,
				"z": -0.364583613,
				"element": "N" 
			},
			{
				"x": 1.9701973161,
				"y": 0.5330710352,
				"z": -1.3816202606,
				"element": "S" 
			},
			{
				"x": 3.4207946843,
				"y": 0.3987127021,
				"z": -1.5552376679,
				"element": "O" 
			},
			{
				"x": 1.0615003452,
				"y": 0.5303698737,
				"z": -2.52433214,
				"element": "O" 
			},
			{
				"x": 1.642722623,
				"y": 1.9630627153,
				"z": -0.3849589198,
				"element": "C" 
			},
			{
				"x": 2.6549089758,
				"y": 2.4699924031,
				"z": 0.4361711903,
				"element": "C" 
			},
			{
				"x": 2.4165799037,
				"y": 3.6038772995,
				"z": 1.1995974387,
				"element": "C" 
			},
			{
				"x": 1.1651103156,
				"y": 4.2512094936,
				"z": 1.1502461908,
				"element": "C" 
			},
			{
				"x": 0.9441117506,
				"y": 5.4099286357,
				"z": 1.8724039149,
				"element": "N" 
			},
			{
				"x": 0.1617530392,
				"y": 3.7282580828,
				"z": 0.3090467419,
				"element": "C" 
			},
			{
				"x": 0.3966706006,
				"y": 2.5932170668,
				"z": -0.4534281262,
				"element": "C" 
			},
			{
				"x": -0.6637087296,
				"y": -0.5044026087,
				"z": -0.1727963063,
				"element": "N" 
			},
			{
				"x": -1.8588343438,
				"y": -1.0121720084,
				"z": 0.1389118223,
				"element": "C" 
			},
			{
				"x": -3.0446147316,
				"y": -0.0955911757,
				"z": -0.0022033251,
				"element": "C" 
			},
			{
				"x": -2.1019572823,
				"y": -2.2656588531,
				"z": 0.5520892064,
				"element": "N" 
			},
			{
				"x": -2.9700736674,
				"y": -4.1731028535,
				"z": 2.1700132631,
				"element": "H" 
			},
			{
				"x": -2.4515864307,
				"y": -5.8106219312,
				"z": 1.6542059031,
				"element": "H" 
			},
			{
				"x": -3.1944036225,
				"y": -4.675282614,
				"z": 0.4813074393,
				"element": "H" 
			},
			{
				"x": 1.0935585466,
				"y": -3.3493516865,
				"z": 0.4096323272,
				"element": "H" 
			},
			{
				"x": 2.4288309303,
				"y": -1.451055688,
				"z": -0.3771950542,
				"element": "H" 
			},
			{
				"x": 3.6240290293,
				"y": 1.983862943,
				"z": 0.4599774948,
				"element": "H" 
			},
			{
				"x": 3.2034642704,
				"y": 4.0060128921,
				"z": 1.8320760377,
				"element": "H" 
			},
			{
				"x": -0.0166303176,
				"y": 5.6709317747,
				"z": 2.0370836867,
				"element": "H" 
			},
			{
				"x": 1.5524011941,
				"y": 5.5832814239,
				"z": 2.6586676163,
				"element": "H" 
			},
			{
				"x": -0.8025332914,
				"y": 4.2265518518,
				"z": 0.2539344132,
				"element": "H" 
			},
			{
				"x": -0.373196001,
				"y": 2.1832879957,
				"z": -1.0952570892,
				"element": "H" 
			},
			{
				"x": -3.9020745363,
				"y": -0.4936946074,
				"z": 0.5420091876,
				"element": "H" 
			},
			{
				"x": -3.3173287788,
				"y": -0.0015056795,
				"z": -1.0598611086,
				"element": "H" 
			},
			{
				"x": -2.7975244287,
				"y": 0.90511156,
				"z": 0.3608656604,
				"element": "H" 
			}
		],
		 "valence_orbital": [ 
			{
				"type": "occ",
				"energy": -0.26542,
				"method": "rhf"
			},
			{
				"type": "occ",
				"energy": -0.26144,
				"method": "rhf"
			},
			{
				"type": "occ",
				"energy": -0.25461,
				"method": "rhf"
			},
			{
				"type": "occ",
				"energy": -0.24176,
				"method": "rhf"
			},
			{
				"type": "occ",
				"energy": -0.21895,
				"method": "rhf"
			},
			{
				"type": "unocc",
				"energy": -0.021,
				"method": "rhf"
			},
			{
				"type": "unocc",
				"energy": -0.01656,
				"method": "rhf"
			},
			{
				"type": "unocc",
				"energy": -0.0102,
				"method": "rhf"
			},
			{
				"type": "unocc",
				"energy": -0.0079,
				"method": "rhf"
			},
			{
				"type": "unocc",
				"energy": 0.05615,
				"method": "rhf"
			}
		],
		"cosmo_sigma_profile": { 
			"-0.025": 0.0,
			"-0.024": 0.0,
			"-0.023": 0.0,
			"-0.022": 0.0,
			"-0.021": 0.0,
			"-0.02": 0.0,
			"-0.019": 0.0,
			"-0.018": 0.0,
			"-0.017": 0.0,
			"-0.016": 0.598941672042,
			"-0.015": 1.0027769783,
			"-0.014": 2.0244032531,
			"-0.013": 3.90906569956,
			"-0.012": 3.09392757834,
			"-0.011": 4.43861662939,
			"-0.01": 5.33542973143,
			"-0.009": 4.26482042594,
			"-0.008": 5.75380731797,
			"-0.007": 7.66210028322,
			"-0.006": 10.1310246859,
			"-0.005": 19.0869184174,
			"-0.004": 19.7649175372,
			"-0.003": 20.8104427686,
			"-0.002": 19.3200468895,
			"-0.001": 25.3802283519,
			"0.0": 22.3570495112,
			"0.001": 21.2884159547,
			"0.002": 18.7935474768,
			"0.003": 19.0007460278,
			"0.004": 20.4020400023,
			"0.005": 10.3332547655,
			"0.006": 7.34900038512,
			"0.007": 7.7930938037,
			"0.008": 8.46721599324,
			"0.009": 7.26133698694,
			"0.01": 10.2125547229,
			"0.011": 11.4141318726,
			"0.012": 2.71248224733,
			"0.013": 0.0,
			"0.014": 0.0,
			"0.015": 0.0,
			"0.016": 0.0,
			"0.017": 0.0,
			"0.018": 0.0,
			"0.019": 0.0,
			"0.02": 0.0,
			"0.021": 0.0,
			"0.022": 0.0,
			"0.023": 0.0,
			"0.024": 0.0,
			"0.025": 0.0
		}
	}
}
