{
	 "smiles": "FC1=CC=C(CCNC2=NCCS2)C=C1", 
	 "Tm": 380.15, 
	 "num_atms": 28, 
	 "gaussian": { 
		 "optdone": 1, 
		 "sigma_profile": "yes", 
		 "theory": "DFT", 
		 "functional": "B3LYP", 
		 "basiset": "6-31G**", 
		 "properties": { 
			 "R2extent": 6054.5947, 
			 "electric_dipole_moment_norm": 0.721159788119, 
			 "electric_quadrupole_moment_norm": 12.9849456949, 
			 "total_energy": -1034.53145193, 
			 "HOMO_LUMO_gap": 0.19909, 
			 "cosmo_polarized_energy": -10.59, 
			 "cosmo_cavitation_energy": 33.42, 
			 "cosmo_dispersion_energy": -24.34, 
			 "cosmo_repulsion_energy": 1.86, 
			 "cosmo_total_nonelectrostatic_energy": 10.94, 
			 "SMD_solvation_energy": 1.35 
		},
		"coords": [
			{
				"x": 5.5251041842,
				"y": -2.8149814768,
				"z": 1.5301126055,
				"element": "F" 
			},
			{
				"x": 4.4215738963,
				"y": -2.2383499214,
				"z": 1.0076566492,
				"element": "C" 
			},
			{
				"x": 3.1865772694,
				"y": -2.847902689,
				"z": 1.196785384,
				"element": "C" 
			},
			{
				"x": 2.0533282029,
				"y": -2.2463527124,
				"z": 0.6499756947,
				"element": "C" 
			},
			{
				"x": 2.1420715539,
				"y": -1.0516634296,
				"z": -0.079723787,
				"element": "C" 
			},
			{
				"x": 0.8985127881,
				"y": -0.3863296764,
				"z": -0.6259891686,
				"element": "C" 
			},
			{
				"x": 0.2382582513,
				"y": 0.55546227,
				"z": 0.4099834038,
				"element": "C" 
			},
			{
				"x": -0.9628771262,
				"y": 1.2232654794,
				"z": -0.0622697025,
				"element": "N" 
			},
			{
				"x": -2.2079832972,
				"y": 0.6576669931,
				"z": -0.1200589969,
				"element": "C" 
			},
			{
				"x": -3.1824168077,
				"y": 1.1549259918,
				"z": -0.7805696401,
				"element": "N" 
			},
			{
				"x": -4.3786623698,
				"y": 0.3331191982,
				"z": -0.7052203269,
				"element": "C" 
			},
			{
				"x": -4.3149821357,
				"y": -0.594939918,
				"z": 0.5341234914,
				"element": "C" 
			},
			{
				"x": -2.5216069702,
				"y": -0.8626438683,
				"z": 0.8307857613,
				"element": "S" 
			},
			{
				"x": 3.4064332044,
				"y": -0.4694823183,
				"z": -0.2472850404,
				"element": "C" 
			},
			{
				"x": 4.5527221046,
				"y": -1.0547880617,
				"z": 0.2911336305,
				"element": "C" 
			},
			{
				"x": 3.1261423198,
				"y": -3.7747277971,
				"z": 1.7570819258,
				"element": "H" 
			},
			{
				"x": 1.0836282126,
				"y": -2.718121873,
				"z": 0.7875573107,
				"element": "H" 
			},
			{
				"x": 0.1639486922,
				"y": -1.1414698333,
				"z": -0.9266599219,
				"element": "H" 
			},
			{
				"x": 1.1440994522,
				"y": 0.1946672414,
				"z": -1.5231624163,
				"element": "H" 
			},
			{
				"x": -0.0100416525,
				"y": -0.00607426,
				"z": 1.3163460614,
				"element": "H" 
			},
			{
				"x": 0.9554018584,
				"y": 1.326026263,
				"z": 0.7130507365,
				"element": "H" 
			},
			{
				"x": -0.8442331689,
				"y": 1.9640277551,
				"z": -0.7415662147,
				"element": "H" 
			},
			{
				"x": -4.4646761097,
				"y": -0.2680954289,
				"z": -1.6229707608,
				"element": "H" 
			},
			{
				"x": -5.2724770196,
				"y": 0.9651152203,
				"z": -0.6529056438,
				"element": "H" 
			},
			{
				"x": -4.8053545404,
				"y": -1.5562015748,
				"z": 0.3696711792,
				"element": "H" 
			},
			{
				"x": -4.7452471494,
				"y": -0.1202761002,
				"z": 1.4198852138,
				"element": "H" 
			},
			{
				"x": 3.500358168,
				"y": 0.4531147686,
				"z": -0.8148659469,
				"element": "H" 
			},
			{
				"x": 5.5346981887,
				"y": -0.6130902418,
				"z": 0.1598985188,
				"element": "H" 
			}
		],
		 "valence_orbital": [ 
			{
				"type": "occ",
				"energy": -0.26161,
				"method": "rhf"
			},
			{
				"type": "occ",
				"energy": -0.25577,
				"method": "rhf"
			},
			{
				"type": "occ",
				"energy": -0.24906,
				"method": "rhf"
			},
			{
				"type": "occ",
				"energy": -0.23618,
				"method": "rhf"
			},
			{
				"type": "occ",
				"energy": -0.21223,
				"method": "rhf"
			},
			{
				"type": "unocc",
				"energy": -0.01314,
				"method": "rhf"
			},
			{
				"type": "unocc",
				"energy": -0.00218,
				"method": "rhf"
			},
			{
				"type": "unocc",
				"energy": 0.01512,
				"method": "rhf"
			},
			{
				"type": "unocc",
				"energy": 0.03718,
				"method": "rhf"
			},
			{
				"type": "unocc",
				"energy": 0.0653,
				"method": "rhf"
			}
		],
		"cosmo_sigma_profile": { 
			"-0.025": 0.0,
			"-0.024": 0.0,
			"-0.023": 0.0,
			"-0.022": 0.0,
			"-0.021": 0.0,
			"-0.02": 0.0,
			"-0.019": 0.0,
			"-0.018": 0.0,
			"-0.017": 0.0,
			"-0.016": 0.0,
			"-0.015": 0.0,
			"-0.014": 0.0616581460862,
			"-0.013": 0.945910779651,
			"-0.012": 1.02196041415,
			"-0.011": 1.21606991812,
			"-0.01": 1.05008224014,
			"-0.009": 1.04490757442,
			"-0.008": 0.940524287651,
			"-0.007": 3.31265389176,
			"-0.006": 10.4877147326,
			"-0.005": 18.7380066304,
			"-0.004": 28.9655726091,
			"-0.003": 25.8092961493,
			"-0.002": 23.4207237529,
			"-0.001": 17.2192980817,
			"0.0": 15.8004063898,
			"0.001": 18.1862634516,
			"0.002": 17.7555882752,
			"0.003": 16.6725780574,
			"0.004": 24.4201211663,
			"0.005": 15.615930631,
			"0.006": 5.40879042503,
			"0.007": 5.29341049675,
			"0.008": 3.00359341255,
			"0.009": 1.97940242756,
			"0.01": 1.28078103441,
			"0.011": 1.39395201362,
			"0.012": 0.85490112627,
			"0.013": 0.986192647066,
			"0.014": 1.14932042899,
			"0.015": 1.09200927077,
			"0.016": 1.02214990525,
			"0.017": 0.493105232363,
			"0.018": 0.0,
			"0.019": 0.0,
			"0.02": 0.0,
			"0.021": 0.0,
			"0.022": 0.0,
			"0.023": 0.0,
			"0.024": 0.0,
			"0.025": 0.0
		}
	}
}
