{
	 "smiles": "COC1=CC=C2[C@H]3CC[C@@]4(C)[C@@]5(C[C@](Cl)(C#N)[C@@]4(OC(C)=O)C=C5)[C@@H]3CCC2=C1", 
	 "Tm": 456.65, 
	 "num_atms": 55, 
	 "gaussian": { 
		 "optdone": 1, 
		 "sigma_profile": "yes", 
		 "theory": "DFT", 
		 "functional": "B3LYP", 
		 "basiset": "6-31G**", 
		 "properties": { 
			 "R2extent": 14995.4504, 
			 "electric_dipole_moment_norm": 4.00135155416, 
			 "electric_quadrupole_moment_norm": 17.1859429223, 
			 "total_energy": -1670.79285509, 
			 "HOMO_LUMO_gap": 0.18203, 
			 "cosmo_polarized_energy": -16.55, 
			 "cosmo_cavitation_energy": 53.52, 
			 "cosmo_dispersion_energy": -36.49, 
			 "cosmo_repulsion_energy": 2.68, 
			 "cosmo_total_nonelectrostatic_energy": 19.71, 
			 "SMD_solvation_energy": 10.29 
		},
		"coords": [
			{
				"x": 1.8122722017,
				"y": -5.2142870914,
				"z": -5.1981177987,
				"element": "C" 
			},
			{
				"x": 1.5031814478,
				"y": -5.3337823597,
				"z": -3.8194876744,
				"element": "O" 
			},
			{
				"x": 1.3202937651,
				"y": -4.1870118922,
				"z": -3.0995526167,
				"element": "C" 
			},
			{
				"x": 1.4122045639,
				"y": -2.8921818468,
				"z": -3.619081688,
				"element": "C" 
			},
			{
				"x": 1.200975243,
				"y": -1.8040005394,
				"z": -2.7713951924,
				"element": "C" 
			},
			{
				"x": 0.8923283067,
				"y": -1.9511043221,
				"z": -1.4135340458,
				"element": "C" 
			},
			{
				"x": 0.7131614922,
				"y": -0.7252166236,
				"z": -0.5135242459,
				"element": "C" 
			},
			{
				"x": -0.02011456,
				"y": 0.4516772831,
				"z": -1.1973847985,
				"element": "C" 
			},
			{
				"x": -0.1277929653,
				"y": 1.7043381448,
				"z": -0.3006100099,
				"element": "C" 
			},
			{
				"x": -0.7754027881,
				"y": 1.368876906,
				"z": 1.0648127486,
				"element": "C" 
			},
			{
				"x": -2.2905956922,
				"y": 1.210330321,
				"z": 0.8317428075,
				"element": "C" 
			},
			{
				"x": -0.0285522973,
				"y": 0.1501624552,
				"z": 1.7229068061,
				"element": "C" 
			},
			{
				"x": -0.7726718078,
				"y": 0.0220603047,
				"z": 3.0977411286,
				"element": "C" 
			},
			{
				"x": -1.0254255085,
				"y": 1.5141449762,
				"z": 3.4985503934,
				"element": "C" 
			},
			{
				"x": -0.1876058577,
				"y": 1.9606874319,
				"z": 5.0771156246,
				"element": "Cl" 
			},
			{
				"x": -2.4322029504,
				"y": 1.8328959243,
				"z": 3.7467518735,
				"element": "C" 
			},
			{
				"x": -3.547418393,
				"y": 2.0744744425,
				"z": 3.9618711205,
				"element": "N" 
			},
			{
				"x": -0.3939589553,
				"y": 2.309047811,
				"z": 2.2682296003,
				"element": "C" 
			},
			{
				"x": -0.9119454512,
				"y": 3.6314343935,
				"z": 2.2999061268,
				"element": "O" 
			},
			{
				"x": -0.2876921793,
				"y": 4.6418514888,
				"z": 1.6296502746,
				"element": "C" 
			},
			{
				"x": -1.0160848485,
				"y": 5.9407364631,
				"z": 1.8690461225,
				"element": "C" 
			},
			{
				"x": 0.703612532,
				"y": 4.499968428,
				"z": 0.952620604,
				"element": "O" 
			},
			{
				"x": 1.0991881587,
				"y": 2.0777611583,
				"z": 2.3939340224,
				"element": "C" 
			},
			{
				"x": 1.3107352974,
				"y": 0.7977581861,
				"z": 2.0795029559,
				"element": "C" 
			},
			{
				"x": 0.0228866494,
				"y": -1.0884577218,
				"z": 0.8262620622,
				"element": "C" 
			},
			{
				"x": 0.702073598,
				"y": -2.3116292544,
				"z": 1.4562099808,
				"element": "C" 
			},
			{
				"x": 0.4926678991,
				"y": -3.5347607661,
				"z": 0.5597482023,
				"element": "C" 
			},
			{
				"x": 0.8165131985,
				"y": -3.2653311836,
				"z": -0.8991371215,
				"element": "C" 
			},
			{
				"x": 1.027886439,
				"y": -4.356240095,
				"z": -1.7430377289,
				"element": "C" 
			},
			{
				"x": 2.7551295553,
				"y": -4.6750429735,
				"z": -5.3582550063,
				"element": "H" 
			},
			{
				"x": 1.9149580986,
				"y": -6.2334145715,
				"z": -5.5745059724,
				"element": "H" 
			},
			{
				"x": 1.0121808868,
				"y": -4.7054186192,
				"z": -5.7515718547,
				"element": "H" 
			},
			{
				"x": 1.646609579,
				"y": -2.7175098927,
				"z": -4.6624555218,
				"element": "H" 
			},
			{
				"x": 1.289522815,
				"y": -0.809861345,
				"z": -3.1976153234,
				"element": "H" 
			},
			{
				"x": 1.721770509,
				"y": -0.3619686689,
				"z": -0.2552577398,
				"element": "H" 
			},
			{
				"x": 0.5060868878,
				"y": 0.7469792669,
				"z": -2.1100133548,
				"element": "H" 
			},
			{
				"x": -1.0110533016,
				"y": 0.1086266292,
				"z": -1.5210734312,
				"element": "H" 
			},
			{
				"x": -0.7268302433,
				"y": 2.4658301775,
				"z": -0.8129744193,
				"element": "H" 
			},
			{
				"x": 0.8633289939,
				"y": 2.1356451011,
				"z": -0.1621687948,
				"element": "H" 
			},
			{
				"x": -2.4774577554,
				"y": 0.6737757407,
				"z": -0.1010419341,
				"element": "H" 
			},
			{
				"x": -2.7487770729,
				"y": 2.1998989454,
				"z": 0.7359661848,
				"element": "H" 
			},
			{
				"x": -2.8307432205,
				"y": 0.6821340922,
				"z": 1.6164747329,
				"element": "H" 
			},
			{
				"x": -0.1747879138,
				"y": -0.4814079706,
				"z": 3.8573330927,
				"element": "H" 
			},
			{
				"x": -1.7201999353,
				"y": -0.5150924444,
				"z": 3.0057727744,
				"element": "H" 
			},
			{
				"x": -1.00998461,
				"y": 6.1781518663,
				"z": 2.9369500786,
				"element": "H" 
			},
			{
				"x": -0.5304070542,
				"y": 6.7368899284,
				"z": 1.3060876509,
				"element": "H" 
			},
			{
				"x": -2.0624117899,
				"y": 5.8464304853,
				"z": 1.5649969634,
				"element": "H" 
			},
			{
				"x": 1.7997852378,
				"y": 2.8063635166,
				"z": 2.7751952292,
				"element": "H" 
			},
			{
				"x": 2.2499222938,
				"y": 0.2617168598,
				"z": 2.1581019625,
				"element": "H" 
			},
			{
				"x": -1.0174895714,
				"y": -1.373855569,
				"z": 0.6030732532,
				"element": "H" 
			},
			{
				"x": 1.776036958,
				"y": -2.1185936447,
				"z": 1.579753879,
				"element": "H" 
			},
			{
				"x": 0.2998829581,
				"y": -2.514237346,
				"z": 2.4556194163,
				"element": "H" 
			},
			{
				"x": 1.0915742284,
				"y": -4.3800666173,
				"z": 0.9177238922,
				"element": "H" 
			},
			{
				"x": -0.5564381404,
				"y": -3.8559594328,
				"z": 0.6380459922,
				"element": "H" 
			},
			{
				"x": 0.9718750694,
				"y": -5.3696159362,
				"z": -1.3550012837,
				"element": "H" 
			}
		],
		 "valence_orbital": [ 
			{
				"type": "occ",
				"energy": -0.28473,
				"method": "rhf"
			},
			{
				"type": "occ",
				"energy": -0.28329,
				"method": "rhf"
			},
			{
				"type": "occ",
				"energy": -0.25336,
				"method": "rhf"
			},
			{
				"type": "occ",
				"energy": -0.24101,
				"method": "rhf"
			},
			{
				"type": "occ",
				"energy": -0.21287,
				"method": "rhf"
			},
			{
				"type": "unocc",
				"energy": -0.03084,
				"method": "rhf"
			},
			{
				"type": "unocc",
				"energy": -0.00784,
				"method": "rhf"
			},
			{
				"type": "unocc",
				"energy": -0.00312,
				"method": "rhf"
			},
			{
				"type": "unocc",
				"energy": -0.00213,
				"method": "rhf"
			},
			{
				"type": "unocc",
				"energy": 0.01477,
				"method": "rhf"
			}
		],
		"cosmo_sigma_profile": { 
			"-0.025": 0.0,
			"-0.024": 0.0,
			"-0.023": 0.0,
			"-0.022": 0.0,
			"-0.021": 0.0,
			"-0.02": 0.0,
			"-0.019": 0.0,
			"-0.018": 0.0,
			"-0.017": 0.0,
			"-0.016": 0.0,
			"-0.015": 0.0,
			"-0.014": 0.0,
			"-0.013": 0.0,
			"-0.012": 0.0,
			"-0.011": 0.0,
			"-0.01": 0.0,
			"-0.009": 0.0,
			"-0.008": 0.182366235028,
			"-0.007": 4.89264001018,
			"-0.006": 16.4465145324,
			"-0.005": 32.068980909,
			"-0.004": 41.0400762894,
			"-0.003": 56.4974419056,
			"-0.002": 45.955663845,
			"-0.001": 38.9777542039,
			"0.0": 30.3214653966,
			"0.001": 19.5093499455,
			"0.002": 21.0847155643,
			"0.003": 19.0957432796,
			"0.004": 23.0492798469,
			"0.005": 17.1083103013,
			"0.006": 16.8146435115,
			"0.007": 9.76648140289,
			"0.008": 6.35834629807,
			"0.009": 6.27391539133,
			"0.01": 5.92962551319,
			"0.011": 6.57405859705,
			"0.012": 4.07280749354,
			"0.013": 0.373332277692,
			"0.014": 0.0,
			"0.015": 0.0,
			"0.016": 0.0,
			"0.017": 0.0,
			"0.018": 0.0,
			"0.019": 0.0,
			"0.02": 0.0,
			"0.021": 0.0,
			"0.022": 0.0,
			"0.023": 0.0,
			"0.024": 0.0,
			"0.025": 0.0
		}
	}
}
