{
	 "smiles": "CC1CC(C)C(C)C1", 
	 "Tm": 141.15, 
	 "num_atms": 24, 
	 "gaussian": { 
		 "optdone": 1, 
		 "sigma_profile": "yes", 
		 "theory": "DFT", 
		 "functional": "B3LYP", 
		 "basiset": "6-31G**", 
		 "properties": { 
			 "R2extent": 1272.426, 
			 "electric_dipole_moment_norm": 0.172039355963, 
			 "electric_quadrupole_moment_norm": 0.76482269187, 
			 "total_energy": -314.515866453, 
			 "HOMO_LUMO_gap": 0.37216, 
			 "cosmo_polarized_energy": -0.62, 
			 "cosmo_cavitation_energy": 23.72, 
			 "cosmo_dispersion_energy": -17.34, 
			 "cosmo_repulsion_energy": 1.44, 
			 "cosmo_total_nonelectrostatic_energy": 7.82, 
			 "SMD_solvation_energy": 3.68 
		},
		"coords": [
			{
				"x": -1.0392105591,
				"y": 1.4291413814,
				"z": -2.901874982,
				"element": "C" 
			},
			{
				"x": -0.8562252029,
				"y": 0.2355904563,
				"z": -1.9646271748,
				"element": "C" 
			},
			{
				"x": 0.6053473154,
				"y": -0.1046696442,
				"z": -1.6299710494,
				"element": "C" 
			},
			{
				"x": 0.5393006847,
				"y": -1.0456129393,
				"z": -0.4028170132,
				"element": "C" 
			},
			{
				"x": 1.7997118184,
				"y": -0.9719534529,
				"z": 0.4657050109,
				"element": "C" 
			},
			{
				"x": -0.8317900792,
				"y": -0.699799701,
				"z": 0.3053298898,
				"element": "C" 
			},
			{
				"x": -0.763782973,
				"y": -0.3254201167,
				"z": 1.7897943151,
				"element": "C" 
			},
			{
				"x": -1.4612309048,
				"y": 0.4164627107,
				"z": -0.5627379582,
				"element": "C" 
			},
			{
				"x": -0.5662900984,
				"y": 1.2514516996,
				"z": -3.8742383975,
				"element": "H" 
			},
			{
				"x": -0.590037948,
				"y": 2.3337002174,
				"z": -2.473876219,
				"element": "H" 
			},
			{
				"x": -2.0995971071,
				"y": 1.638184252,
				"z": -3.0824221114,
				"element": "H" 
			},
			{
				"x": -1.3188539234,
				"y": -0.649203191,
				"z": -2.4284366572,
				"element": "H" 
			},
			{
				"x": 1.1319886366,
				"y": 0.8225643358,
				"z": -1.3584390923,
				"element": "H" 
			},
			{
				"x": 1.1519474979,
				"y": -0.5462198133,
				"z": -2.4711085187,
				"element": "H" 
			},
			{
				"x": 0.4617986166,
				"y": -2.0763205198,
				"z": -0.7726673905,
				"element": "H" 
			},
			{
				"x": 2.6850797229,
				"y": -1.2239671472,
				"z": -0.1289010061,
				"element": "H" 
			},
			{
				"x": 1.7617145802,
				"y": -1.6702352715,
				"z": 1.3083281812,
				"element": "H" 
			},
			{
				"x": 1.9552766994,
				"y": 0.0337444022,
				"z": 0.8715100592,
				"element": "H" 
			},
			{
				"x": -1.4707528841,
				"y": -1.5889057763,
				"z": 0.2255041417,
				"element": "H" 
			},
			{
				"x": -1.7665503277,
				"y": -0.1006666335,
				"z": 2.1704360346,
				"element": "H" 
			},
			{
				"x": -0.3556316911,
				"y": -1.1366060165,
				"z": 2.401717035,
				"element": "H" 
			},
			{
				"x": -0.1451563883,
				"y": 0.5632347674,
				"z": 1.9568104747,
				"element": "H" 
			},
			{
				"x": -1.1640790692,
				"y": 1.4015839946,
				"z": -0.1727730677,
				"element": "H" 
			},
			{
				"x": -2.5568764157,
				"y": 0.388922006,
				"z": -0.5557445039,
				"element": "H" 
			}
		],
		 "valence_orbital": [ 
			{
				"type": "occ",
				"energy": -0.31717,
				"method": "rhf"
			},
			{
				"type": "occ",
				"energy": -0.30676,
				"method": "rhf"
			},
			{
				"type": "occ",
				"energy": -0.30106,
				"method": "rhf"
			},
			{
				"type": "occ",
				"energy": -0.29734,
				"method": "rhf"
			},
			{
				"type": "occ",
				"energy": -0.29387,
				"method": "rhf"
			},
			{
				"type": "unocc",
				"energy": 0.07829,
				"method": "rhf"
			},
			{
				"type": "unocc",
				"energy": 0.10185,
				"method": "rhf"
			},
			{
				"type": "unocc",
				"energy": 0.10727,
				"method": "rhf"
			},
			{
				"type": "unocc",
				"energy": 0.14071,
				"method": "rhf"
			},
			{
				"type": "unocc",
				"energy": 0.14217,
				"method": "rhf"
			}
		],
		"cosmo_sigma_profile": { 
			"-0.025": 0.0,
			"-0.024": 0.0,
			"-0.023": 0.0,
			"-0.022": 0.0,
			"-0.021": 0.0,
			"-0.02": 0.0,
			"-0.019": 0.0,
			"-0.018": 0.0,
			"-0.017": 0.0,
			"-0.016": 0.0,
			"-0.015": 0.0,
			"-0.014": 0.0,
			"-0.013": 0.0,
			"-0.012": 0.0,
			"-0.011": 0.0,
			"-0.01": 0.0,
			"-0.009": 0.0,
			"-0.008": 0.0,
			"-0.007": 0.0,
			"-0.006": 0.0,
			"-0.005": 0.0,
			"-0.004": 0.0,
			"-0.003": 2.47637013171,
			"-0.002": 24.4664837774,
			"-0.001": 40.9767227612,
			"0.0": 45.2083083596,
			"0.001": 39.4333471018,
			"0.002": 26.3869620523,
			"0.003": 2.22484233208,
			"0.004": 0.0,
			"0.005": 0.0,
			"0.006": 0.0,
			"0.007": 0.0,
			"0.008": 0.0,
			"0.009": 0.0,
			"0.01": 0.0,
			"0.011": 0.0,
			"0.012": 0.0,
			"0.013": 0.0,
			"0.014": 0.0,
			"0.015": 0.0,
			"0.016": 0.0,
			"0.017": 0.0,
			"0.018": 0.0,
			"0.019": 0.0,
			"0.02": 0.0,
			"0.021": 0.0,
			"0.022": 0.0,
			"0.023": 0.0,
			"0.024": 0.0,
			"0.025": 0.0
		}
	}
}
