{
	 "smiles": "CC(N)(C(N)=O)C1=CC(Cl)=CC=C1", 
	 "Tm": 377.15, 
	 "num_atms": 24, 
	 "gaussian": { 
		 "optdone": 1, 
		 "sigma_profile": "yes", 
		 "theory": "DFT", 
		 "functional": "B3LYP", 
		 "basiset": "6-31G**", 
		 "properties": { 
			 "R2extent": 3682.2137, 
			 "electric_dipole_moment_norm": 2.09394468408, 
			 "electric_quadrupole_moment_norm": 16.6915276377, 
			 "total_energy": -994.522823978, 
			 "HOMO_LUMO_gap": 0.20554, 
			 "cosmo_polarized_energy": -14.84, 
			 "cosmo_cavitation_energy": 28.82, 
			 "cosmo_dispersion_energy": -20.64, 
			 "cosmo_repulsion_energy": 1.66, 
			 "cosmo_total_nonelectrostatic_energy": 9.84, 
			 "SMD_solvation_energy": 4.45 
		},
		"coords": [
			{
				"x": 0.1499365106,
				"y": 1.7646088415,
				"z": 1.5664099731,
				"element": "C" 
			},
			{
				"x": -0.6711616049,
				"y": 1.5934220732,
				"z": 0.2718937622,
				"element": "C" 
			},
			{
				"x": -1.5120965285,
				"y": 2.7843611454,
				"z": 0.1129101849,
				"element": "N" 
			},
			{
				"x": 0.2731945964,
				"y": 1.5481623038,
				"z": -0.9686786812,
				"element": "C" 
			},
			{
				"x": 1.3253619151,
				"y": 0.6860650788,
				"z": -0.8902599772,
				"element": "N" 
			},
			{
				"x": 0.0716208028,
				"y": 2.2434867778,
				"z": -1.9564540034,
				"element": "O" 
			},
			{
				"x": -1.4981861295,
				"y": 0.289067622,
				"z": 0.238936519,
				"element": "C" 
			},
			{
				"x": -1.4823060533,
				"y": -0.6431857143,
				"z": 1.2827824262,
				"element": "C" 
			},
			{
				"x": -2.2701075465,
				"y": -1.7937041695,
				"z": 1.1996536871,
				"element": "C" 
			},
			{
				"x": -2.2371333482,
				"y": -2.9445915142,
				"z": 2.5320342001,
				"element": "Cl" 
			},
			{
				"x": -3.076448042,
				"y": -2.0507702469,
				"z": 0.0957766534,
				"element": "C" 
			},
			{
				"x": -3.0872593478,
				"y": -1.1204413525,
				"z": -0.9472612096,
				"element": "C" 
			},
			{
				"x": -2.3132517753,
				"y": 0.0340092422,
				"z": -0.8775032547,
				"element": "C" 
			},
			{
				"x": 0.8414845281,
				"y": 0.9405809928,
				"z": 1.7685303825,
				"element": "H" 
			},
			{
				"x": -0.5265148913,
				"y": 1.8611267346,
				"z": 2.4205952084,
				"element": "H" 
			},
			{
				"x": 0.724938232,
				"y": 2.6896345133,
				"z": 1.4939923644,
				"element": "H" 
			},
			{
				"x": -2.4638458525,
				"y": 2.595379339,
				"z": 0.4077317925,
				"element": "H" 
			},
			{
				"x": -1.5126846906,
				"y": 3.0546149089,
				"z": -0.8685700182,
				"element": "H" 
			},
			{
				"x": 1.3693702751,
				"y": -0.0231449012,
				"z": -0.1763680671,
				"element": "H" 
			},
			{
				"x": 1.8643152751,
				"y": 0.5461418141,
				"z": -1.7320367815,
				"element": "H" 
			},
			{
				"x": -0.8771451069,
				"y": -0.4865173628,
				"z": 2.1670285133,
				"element": "H" 
			},
			{
				"x": -3.6784506294,
				"y": -2.9513837774,
				"z": 0.0536653532,
				"element": "H" 
			},
			{
				"x": -3.7074705905,
				"y": -1.3042888266,
				"z": -1.8197192724,
				"element": "H" 
			},
			{
				"x": -2.329759998,
				"y": 0.747966478,
				"z": -1.695289755,
				"element": "H" 
			}
		],
		 "valence_orbital": [ 
			{
				"type": "occ",
				"energy": -0.28588,
				"method": "rhf"
			},
			{
				"type": "occ",
				"energy": -0.27312,
				"method": "rhf"
			},
			{
				"type": "occ",
				"energy": -0.2581,
				"method": "rhf"
			},
			{
				"type": "occ",
				"energy": -0.25264,
				"method": "rhf"
			},
			{
				"type": "occ",
				"energy": -0.22964,
				"method": "rhf"
			},
			{
				"type": "unocc",
				"energy": -0.0241,
				"method": "rhf"
			},
			{
				"type": "unocc",
				"energy": -0.02128,
				"method": "rhf"
			},
			{
				"type": "unocc",
				"energy": 0.01981,
				"method": "rhf"
			},
			{
				"type": "unocc",
				"energy": 0.03028,
				"method": "rhf"
			},
			{
				"type": "unocc",
				"energy": 0.06597,
				"method": "rhf"
			}
		],
		"cosmo_sigma_profile": { 
			"-0.025": 0.0,
			"-0.024": 0.0,
			"-0.023": 0.0,
			"-0.022": 0.0,
			"-0.021": 0.0,
			"-0.02": 0.0,
			"-0.019": 0.0,
			"-0.018": 0.0,
			"-0.017": 0.0,
			"-0.016": 0.0,
			"-0.015": 0.0826743662862,
			"-0.014": 1.43117296366,
			"-0.013": 2.67555903653,
			"-0.012": 2.31388810678,
			"-0.011": 2.31857257725,
			"-0.01": 3.19944464266,
			"-0.009": 3.2218003457,
			"-0.008": 3.22191748351,
			"-0.007": 6.50044895121,
			"-0.006": 11.5407894944,
			"-0.005": 11.9912501903,
			"-0.004": 16.2916805558,
			"-0.003": 13.5878815869,
			"-0.002": 13.2180266792,
			"-0.001": 13.6374992378,
			"0.0": 15.3333270735,
			"0.001": 17.6829747608,
			"0.002": 18.2385741288,
			"0.003": 17.8698106443,
			"0.004": 17.4516250835,
			"0.005": 12.2606234974,
			"0.006": 2.57947182596,
			"0.007": 2.81755997369,
			"0.008": 2.50817744576,
			"0.009": 1.69920031302,
			"0.01": 1.67937377611,
			"0.011": 2.40069548403,
			"0.012": 3.7931813682,
			"0.013": 4.52922681762,
			"0.014": 1.61257012606,
			"0.015": 0.373556387327,
			"0.016": 0.53530445865,
			"0.017": 0.630195918821,
			"0.018": 0.397543253658,
			"0.019": 0.147172626748,
			"0.02": 0.0,
			"0.021": 0.0,
			"0.022": 0.0,
			"0.023": 0.0,
			"0.024": 0.0,
			"0.025": 0.0
		}
	}
}
