{
	 "smiles": "COC1=CC=C(C=C1)C1C(CCC(=O)N1C)C(N)=O", 
	 "Tm": 494.15, 
	 "num_atms": 37, 
	 "gaussian": { 
		 "optdone": 1, 
		 "sigma_profile": "yes", 
		 "theory": "DFT", 
		 "functional": "B3LYP", 
		 "basiset": "6-31G**", 
		 "properties": { 
			 "R2extent": 5749.1391, 
			 "electric_dipole_moment_norm": 5.58819652303, 
			 "electric_quadrupole_moment_norm": 21.7189392031, 
			 "total_energy": -879.534886077, 
			 "HOMO_LUMO_gap": 0.21128, 
			 "cosmo_polarized_energy": -24.4, 
			 "cosmo_cavitation_energy": 38.5, 
			 "cosmo_dispersion_energy": -26.64, 
			 "cosmo_repulsion_energy": 2.07, 
			 "cosmo_total_nonelectrostatic_energy": 13.92, 
			 "SMD_solvation_energy": 8.26 
		},
		"coords": [
			{
				"x": -5.0635065344,
				"y": -0.4621213665,
				"z": -0.2399355283,
				"element": "C" 
			},
			{
				"x": -4.1293103187,
				"y": -1.1699358412,
				"z": 0.5591739779,
				"element": "O" 
			},
			{
				"x": -2.8011377669,
				"y": -1.0140856187,
				"z": 0.2905056248,
				"element": "C" 
			},
			{
				"x": -1.9225656264,
				"y": -1.7243683357,
				"z": 1.1213304286,
				"element": "C" 
			},
			{
				"x": -0.5499882271,
				"y": -1.6326648191,
				"z": 0.9296430572,
				"element": "C" 
			},
			{
				"x": -0.0096814662,
				"y": -0.8319012465,
				"z": -0.08935709,
				"element": "C" 
			},
			{
				"x": -0.8995226048,
				"y": -0.1461423917,
				"z": -0.9205582772,
				"element": "C" 
			},
			{
				"x": -2.2824231128,
				"y": -0.2225140417,
				"z": -0.7403523371,
				"element": "C" 
			},
			{
				"x": 1.4988961144,
				"y": -0.7011043705,
				"z": -0.3091580983,
				"element": "C" 
			},
			{
				"x": 2.1599629921,
				"y": 0.4789385933,
				"z": 0.4639145412,
				"element": "C" 
			},
			{
				"x": 2.2317457207,
				"y": 0.1542288778,
				"z": 1.9534468186,
				"element": "C" 
			},
			{
				"x": 3.0992312565,
				"y": -1.0901302592,
				"z": 2.1513260036,
				"element": "C" 
			},
			{
				"x": 2.8946024392,
				"y": -2.2273891478,
				"z": 1.1528872602,
				"element": "C" 
			},
			{
				"x": 3.3747357352,
				"y": -3.3338366739,
				"z": 1.3796807198,
				"element": "O" 
			},
			{
				"x": 2.2172288725,
				"y": -1.9486581866,
				"z": -0.0170455199,
				"element": "N" 
			},
			{
				"x": 2.0264719986,
				"y": -3.0280229281,
				"z": -0.980721041,
				"element": "C" 
			},
			{
				"x": 1.4508353248,
				"y": 1.8116230862,
				"z": 0.2018345682,
				"element": "C" 
			},
			{
				"x": 1.6516810049,
				"y": 2.3356416221,
				"z": -1.0535473947,
				"element": "N" 
			},
			{
				"x": 0.7433574116,
				"y": 2.364802514,
				"z": 1.027607757,
				"element": "O" 
			},
			{
				"x": -6.0495052587,
				"y": -0.7168526088,
				"z": 0.1517152541,
				"element": "H" 
			},
			{
				"x": -4.9165872346,
				"y": 0.6233027372,
				"z": -0.1692359552,
				"element": "H" 
			},
			{
				"x": -5.0064360071,
				"y": -0.7634007269,
				"z": -1.2941212874,
				"element": "H" 
			},
			{
				"x": -2.3402435683,
				"y": -2.3451805234,
				"z": 1.9071351907,
				"element": "H" 
			},
			{
				"x": 0.1090760428,
				"y": -2.2090421509,
				"z": 1.5716473313,
				"element": "H" 
			},
			{
				"x": -0.5114514543,
				"y": 0.4735593802,
				"z": -1.7247146927,
				"element": "H" 
			},
			{
				"x": -2.9361166799,
				"y": 0.3285735347,
				"z": -1.4058769163,
				"element": "H" 
			},
			{
				"x": 1.6480056871,
				"y": -0.5066268053,
				"z": -1.3799618222,
				"element": "H" 
			},
			{
				"x": 3.184895462,
				"y": 0.5615473895,
				"z": 0.0710847595,
				"element": "H" 
			},
			{
				"x": 2.6399194336,
				"y": 1.0029691884,
				"z": 2.5098250972,
				"element": "H" 
			},
			{
				"x": 1.2179638209,
				"y": 0.0008515886,
				"z": 2.3337875004,
				"element": "H" 
			},
			{
				"x": 4.1626119829,
				"y": -0.8260249273,
				"z": 2.0752580576,
				"element": "H" 
			},
			{
				"x": 2.9721196377,
				"y": -1.5259247365,
				"z": 3.1461501158,
				"element": "H" 
			},
			{
				"x": 2.6079990508,
				"y": -3.8851020657,
				"z": -0.6458743615,
				"element": "H" 
			},
			{
				"x": 2.3696361788,
				"y": -2.7111301581,
				"z": -1.9730662694,
				"element": "H" 
			},
			{
				"x": 0.9695772758,
				"y": -3.3086855268,
				"z": -1.0519891714,
				"element": "H" 
			},
			{
				"x": 1.2886753516,
				"y": 3.2628304491,
				"z": -1.2219683478,
				"element": "H" 
			},
			{
				"x": 2.4025470658,
				"y": 2.0121764959,
				"z": -1.6432699532,
				"element": "H" 
			}
		],
		 "valence_orbital": [ 
			{
				"type": "occ",
				"energy": -0.2556,
				"method": "rhf"
			},
			{
				"type": "occ",
				"energy": -0.2518,
				"method": "rhf"
			},
			{
				"type": "occ",
				"energy": -0.23808,
				"method": "rhf"
			},
			{
				"type": "occ",
				"energy": -0.2349,
				"method": "rhf"
			},
			{
				"type": "occ",
				"energy": -0.21761,
				"method": "rhf"
			},
			{
				"type": "unocc",
				"energy": -0.00633,
				"method": "rhf"
			},
			{
				"type": "unocc",
				"energy": 0.00469,
				"method": "rhf"
			},
			{
				"type": "unocc",
				"energy": 0.0173,
				"method": "rhf"
			},
			{
				"type": "unocc",
				"energy": 0.0325,
				"method": "rhf"
			},
			{
				"type": "unocc",
				"energy": 0.05638,
				"method": "rhf"
			}
		],
		"cosmo_sigma_profile": { 
			"-0.025": 0.0,
			"-0.024": 0.0,
			"-0.023": 0.0,
			"-0.022": 0.0,
			"-0.021": 0.0,
			"-0.02": 0.0,
			"-0.019": 0.0,
			"-0.018": 0.0,
			"-0.017": 0.0,
			"-0.016": 0.0,
			"-0.015": 0.127719447866,
			"-0.014": 1.80348889805,
			"-0.013": 2.40008501676,
			"-0.012": 2.23133111385,
			"-0.011": 3.29500809703,
			"-0.01": 2.99404737708,
			"-0.009": 2.69664313332,
			"-0.008": 2.71956514947,
			"-0.007": 3.39986292874,
			"-0.006": 13.8668252054,
			"-0.005": 28.5340370216,
			"-0.004": 30.2722545666,
			"-0.003": 30.1497834002,
			"-0.002": 24.727274887,
			"-0.001": 24.8217989245,
			"0.0": 14.2045485843,
			"0.001": 11.8982481742,
			"0.002": 12.452216557,
			"0.003": 12.7908340776,
			"0.004": 12.4124394559,
			"0.005": 11.3471996572,
			"0.006": 7.09295264613,
			"0.007": 4.8407040805,
			"0.008": 6.04854189488,
			"0.009": 4.66426814323,
			"0.01": 4.17764193639,
			"0.011": 3.57858822286,
			"0.012": 3.06157434193,
			"0.013": 6.8830832434,
			"0.014": 9.47547583923,
			"0.015": 2.67232469606,
			"0.016": 0.308734941764,
			"0.017": 0.0,
			"0.018": 0.0,
			"0.019": 0.0,
			"0.02": 0.0,
			"0.021": 0.0,
			"0.022": 0.0,
			"0.023": 0.0,
			"0.024": 0.0,
			"0.025": 0.0
		}
	}
}
