{
	 "smiles": "CC(C)NC1=CC=C(C=C1)S(C)(=O)=O", 
	 "Tm": 385.15, 
	 "num_atms": 29, 
	 "gaussian": { 
		 "optdone": 1, 
		 "sigma_profile": "yes", 
		 "theory": "DFT", 
		 "functional": "B3LYP", 
		 "basiset": "6-31G**", 
		 "properties": { 
			 "R2extent": 5010.0363, 
			 "electric_dipole_moment_norm": 7.36378202149, 
			 "electric_quadrupole_moment_norm": 26.2343911258, 
			 "total_energy": -993.436936537, 
			 "HOMO_LUMO_gap": 0.19519, 
			 "cosmo_polarized_energy": -18.59, 
			 "cosmo_cavitation_energy": 32.66, 
			 "cosmo_dispersion_energy": -23.96, 
			 "cosmo_repulsion_energy": 1.85, 
			 "cosmo_total_nonelectrostatic_energy": 10.55, 
			 "SMD_solvation_energy": 4.95 
		},
		"coords": [
			{
				"x": -3.4383222878,
				"y": 0.1309497677,
				"z": 0.1876319368,
				"element": "C" 
			},
			{
				"x": -2.6787421242,
				"y": 0.6958168267,
				"z": -1.025491409,
				"element": "C" 
			},
			{
				"x": -2.4795288591,
				"y": -0.3418487336,
				"z": -2.1430047543,
				"element": "C" 
			},
			{
				"x": -1.4347794165,
				"y": 1.3918593203,
				"z": -0.6658433961,
				"element": "N" 
			},
			{
				"x": -0.3410835848,
				"y": 0.9129647453,
				"z": 0.0211280211,
				"element": "C" 
			},
			{
				"x": -0.1179313465,
				"y": -0.4555734935,
				"z": 0.2974468381,
				"element": "C" 
			},
			{
				"x": 1.0253872676,
				"y": -0.864974093,
				"z": 0.9739029736,
				"element": "C" 
			},
			{
				"x": 1.9755849923,
				"y": 0.0708359639,
				"z": 1.3871910788,
				"element": "C" 
			},
			{
				"x": 1.7710672756,
				"y": 1.4327453763,
				"z": 1.1346722001,
				"element": "C" 
			},
			{
				"x": 0.6325451102,
				"y": 1.8437068369,
				"z": 0.4625894466,
				"element": "C" 
			},
			{
				"x": 3.4422157097,
				"y": -0.466307709,
				"z": 2.2484383051,
				"element": "S" 
			},
			{
				"x": 4.6524098266,
				"y": -0.7539444646,
				"z": 0.9321540942,
				"element": "C" 
			},
			{
				"x": 3.1612848378,
				"y": -1.7735448554,
				"z": 2.8661173172,
				"element": "O" 
			},
			{
				"x": 3.9426533722,
				"y": 0.661994926,
				"z": 3.0521497701,
				"element": "O" 
			},
			{
				"x": -4.4033120863,
				"y": -0.276870732,
				"z": -0.1304004194,
				"element": "H" 
			},
			{
				"x": -3.6257718128,
				"y": 0.9173344544,
				"z": 0.924815754,
				"element": "H" 
			},
			{
				"x": -2.8853162531,
				"y": -0.6693468779,
				"z": 0.6856694864,
				"element": "H" 
			},
			{
				"x": -3.3042538941,
				"y": 1.489440497,
				"z": -1.4511945167,
				"element": "H" 
			},
			{
				"x": -3.452535863,
				"y": -0.7034403158,
				"z": -2.4909903951,
				"element": "H" 
			},
			{
				"x": -1.9046414602,
				"y": -1.2106559388,
				"z": -1.8128835234,
				"element": "H" 
			},
			{
				"x": -1.9545581616,
				"y": 0.1070872757,
				"z": -2.9907158213,
				"element": "H" 
			},
			{
				"x": -1.4998456697,
				"y": 2.3980131724,
				"z": -0.6836339877,
				"element": "H" 
			},
			{
				"x": -0.8381626904,
				"y": -1.202168604,
				"z": -0.0080872517,
				"element": "H" 
			},
			{
				"x": 1.1752479448,
				"y": -1.915173847,
				"z": 1.2028416271,
				"element": "H" 
			},
			{
				"x": 2.49456043,
				"y": 2.1598330001,
				"z": 1.4888610482,
				"element": "H" 
			},
			{
				"x": 0.4732572128,
				"y": 2.9031395141,
				"z": 0.2754320209,
				"element": "H" 
			},
			{
				"x": 5.569964691,
				"y": -1.0841809568,
				"z": 1.4236322515,
				"element": "H" 
			},
			{
				"x": 4.8248782718,
				"y": 0.1783641932,
				"z": 0.3926640375,
				"element": "H" 
			},
			{
				"x": 4.2783285679,
				"y": -1.5308552489,
				"z": 0.2640072673,
				"element": "H" 
			}
		],
		 "valence_orbital": [ 
			{
				"type": "occ",
				"energy": -0.29696,
				"method": "rhf"
			},
			{
				"type": "occ",
				"energy": -0.28097,
				"method": "rhf"
			},
			{
				"type": "occ",
				"energy": -0.27301,
				"method": "rhf"
			},
			{
				"type": "occ",
				"energy": -0.26314,
				"method": "rhf"
			},
			{
				"type": "occ",
				"energy": -0.21124,
				"method": "rhf"
			},
			{
				"type": "unocc",
				"energy": -0.01605,
				"method": "rhf"
			},
			{
				"type": "unocc",
				"energy": -0.01241,
				"method": "rhf"
			},
			{
				"type": "unocc",
				"energy": 0.05446,
				"method": "rhf"
			},
			{
				"type": "unocc",
				"energy": 0.07608,
				"method": "rhf"
			},
			{
				"type": "unocc",
				"energy": 0.08906,
				"method": "rhf"
			}
		],
		"cosmo_sigma_profile": { 
			"-0.025": 0.0,
			"-0.024": 0.0,
			"-0.023": 0.0,
			"-0.022": 0.0,
			"-0.021": 0.0,
			"-0.02": 0.0,
			"-0.019": 0.0,
			"-0.018": 0.0,
			"-0.017": 0.0,
			"-0.016": 0.0,
			"-0.015": 0.0,
			"-0.014": 0.196604747777,
			"-0.013": 1.39955973271,
			"-0.012": 1.44428575945,
			"-0.011": 1.24235218855,
			"-0.01": 2.19091524313,
			"-0.009": 1.212547472,
			"-0.008": 5.94751225067,
			"-0.007": 9.26071973317,
			"-0.006": 13.7264488944,
			"-0.005": 15.0668741343,
			"-0.004": 20.3241370738,
			"-0.003": 26.3891097165,
			"-0.002": 18.9773899208,
			"-0.001": 17.4236743838,
			"0.0": 19.5721007076,
			"0.001": 18.560812609,
			"0.002": 11.684463547,
			"0.003": 11.2800643128,
			"0.004": 14.953138307,
			"0.005": 9.42471405166,
			"0.006": 3.07014517005,
			"0.007": 2.94949056098,
			"0.008": 2.21249825238,
			"0.009": 2.7769875322,
			"0.01": 3.76794240386,
			"0.011": 7.07084792858,
			"0.012": 9.70690654493,
			"0.013": 5.62211659302,
			"0.014": 0.0,
			"0.015": 0.0,
			"0.016": 0.0,
			"0.017": 0.0,
			"0.018": 0.0,
			"0.019": 0.0,
			"0.02": 0.0,
			"0.021": 0.0,
			"0.022": 0.0,
			"0.023": 0.0,
			"0.024": 0.0,
			"0.025": 0.0
		}
	}
}
