{
	 "smiles": "CCC1=C(C)NN=C1C", 
	 "Tm": 315.65, 
	 "num_atms": 21, 
	 "gaussian": { 
		 "optdone": 1, 
		 "sigma_profile": "yes", 
		 "theory": "DFT", 
		 "functional": "B3LYP", 
		 "basiset": "6-31G**", 
		 "properties": { 
			 "R2extent": 1400.5442, 
			 "electric_dipole_moment_norm": 2.37263432918, 
			 "electric_quadrupole_moment_norm": 7.90164248305, 
			 "total_energy": -383.482060133, 
			 "HOMO_LUMO_gap": 0.25228, 
			 "cosmo_polarized_energy": -8.8, 
			 "cosmo_cavitation_energy": 23.74, 
			 "cosmo_dispersion_energy": -16.98, 
			 "cosmo_repulsion_energy": 1.42, 
			 "cosmo_total_nonelectrostatic_energy": 8.17, 
			 "SMD_solvation_energy": 3.33 
		},
		"coords": [
			{
				"x": 0.6049913215,
				"y": 0.5444552908,
				"z": 2.2367591683,
				"element": "C" 
			},
			{
				"x": -0.4667767715,
				"y": 1.1378440673,
				"z": 1.3034456188,
				"element": "C" 
			},
			{
				"x": -0.3113059223,
				"y": 0.7332278377,
				"z": -0.1360164379,
				"element": "C" 
			},
			{
				"x": 0.3500469187,
				"y": 1.4180173232,
				"z": -1.1465153214,
				"element": "C" 
			},
			{
				"x": 1.0865387642,
				"y": 2.7202597567,
				"z": -1.1548371614,
				"element": "C" 
			},
			{
				"x": 0.2332560596,
				"y": 0.6394406161,
				"z": -2.2589466208,
				"element": "N" 
			},
			{
				"x": -0.4610646193,
				"y": -0.502814631,
				"z": -2.0499966094,
				"element": "N" 
			},
			{
				"x": -0.7926626518,
				"y": -0.4551774637,
				"z": -0.7599837625,
				"element": "C" 
			},
			{
				"x": -1.5905618517,
				"y": -1.5652846049,
				"z": -0.1451661001,
				"element": "C" 
			},
			{
				"x": 0.4414387283,
				"y": 0.8553853711,
				"z": 3.2744953222,
				"element": "H" 
			},
			{
				"x": 0.5918544607,
				"y": -0.5498303473,
				"z": 2.206348942,
				"element": "H" 
			},
			{
				"x": 1.6072956092,
				"y": 0.8690639332,
				"z": 1.938647844,
				"element": "H" 
			},
			{
				"x": -1.4587034998,
				"y": 0.8327631762,
				"z": 1.6604883744,
				"element": "H" 
			},
			{
				"x": -0.4447353116,
				"y": 2.2320334486,
				"z": 1.3853151661,
				"element": "H" 
			},
			{
				"x": 0.8798182179,
				"y": 3.2943190733,
				"z": -2.0651907911,
				"element": "H" 
			},
			{
				"x": 2.1729375132,
				"y": 2.581171916,
				"z": -1.0911689724,
				"element": "H" 
			},
			{
				"x": 0.7849368721,
				"y": 3.3342379328,
				"z": -0.3023564661,
				"element": "H" 
			},
			{
				"x": 0.5813703175,
				"y": 0.8366658588,
				"z": -3.1839465014,
				"element": "H" 
			},
			{
				"x": -1.8632361629,
				"y": -2.2914083903,
				"z": -0.9142891045,
				"element": "H" 
			},
			{
				"x": -1.0268513681,
				"y": -2.0895729108,
				"z": 0.6355384561,
				"element": "H" 
			},
			{
				"x": -2.5116866241,
				"y": -1.191497254,
				"z": 0.3174749569,
				"element": "H" 
			}
		],
		 "valence_orbital": [ 
			{
				"type": "occ",
				"energy": -0.34624,
				"method": "rhf"
			},
			{
				"type": "occ",
				"energy": -0.33344,
				"method": "rhf"
			},
			{
				"type": "occ",
				"energy": -0.26946,
				"method": "rhf"
			},
			{
				"type": "occ",
				"energy": -0.22904,
				"method": "rhf"
			},
			{
				"type": "occ",
				"energy": -0.21929,
				"method": "rhf"
			},
			{
				"type": "unocc",
				"energy": 0.03299,
				"method": "rhf"
			},
			{
				"type": "unocc",
				"energy": 0.07183,
				"method": "rhf"
			},
			{
				"type": "unocc",
				"energy": 0.08346,
				"method": "rhf"
			},
			{
				"type": "unocc",
				"energy": 0.09585,
				"method": "rhf"
			},
			{
				"type": "unocc",
				"energy": 0.11598,
				"method": "rhf"
			}
		],
		"cosmo_sigma_profile": { 
			"-0.025": 0.0,
			"-0.024": 0.0,
			"-0.023": 0.0,
			"-0.022": 0.0,
			"-0.021": 0.0,
			"-0.02": 0.0,
			"-0.019": 0.0,
			"-0.018": 0.0,
			"-0.017": 0.0,
			"-0.016": 0.120791681382,
			"-0.015": 1.25866013491,
			"-0.014": 1.1088028892,
			"-0.013": 1.14700640043,
			"-0.012": 1.51780320683,
			"-0.011": 0.456253065777,
			"-0.01": 1.02114453182,
			"-0.009": 1.036112959,
			"-0.008": 1.19626618776,
			"-0.007": 1.14449861648,
			"-0.006": 1.08991106072,
			"-0.005": 5.29471864487,
			"-0.004": 10.5465037831,
			"-0.003": 19.0708968931,
			"-0.002": 22.4499560049,
			"-0.001": 26.4502769576,
			"0.0": 26.2801319269,
			"0.001": 17.979470927,
			"0.002": 8.93543948393,
			"0.003": 5.06727923988,
			"0.004": 4.89882063674,
			"0.005": 5.01858659298,
			"0.006": 5.60026166261,
			"0.007": 3.86056406698,
			"0.008": 1.88472103334,
			"0.009": 1.70558594117,
			"0.01": 1.5638719331,
			"0.011": 1.33248338898,
			"0.012": 0.999173563724,
			"0.013": 0.754149659419,
			"0.014": 1.56634774249,
			"0.015": 1.03202011216,
			"0.016": 1.09149121525,
			"0.017": 0.800781966382,
			"0.018": 0.279406787048,
			"0.019": 0.0,
			"0.02": 0.0,
			"0.021": 0.0,
			"0.022": 0.0,
			"0.023": 0.0,
			"0.024": 0.0,
			"0.025": 0.0
		}
	}
}
