{
	 "smiles": "CC1(C)OC2OC(CO)C(O)C2O1", 
	 "Tm": 342.15, 
	 "num_atms": 27, 
	 "gaussian": { 
		 "optdone": 1, 
		 "sigma_profile": "yes", 
		 "theory": "DFT", 
		 "functional": "B3LYP", 
		 "basiset": "6-31G**", 
		 "properties": { 
			 "R2extent": 2933.3994, 
			 "electric_dipole_moment_norm": 2.24989490199, 
			 "electric_quadrupole_moment_norm": 8.94570260293, 
			 "total_energy": -689.37595262, 
			 "HOMO_LUMO_gap": 0.30489, 
			 "cosmo_polarized_energy": -17.1, 
			 "cosmo_cavitation_energy": 28.75, 
			 "cosmo_dispersion_energy": -20.72, 
			 "cosmo_repulsion_energy": 1.67, 
			 "cosmo_total_nonelectrostatic_energy": 9.7, 
			 "SMD_solvation_energy": 4.58 
		},
		"coords": [
			{
				"x": 3.0658866798,
				"y": -0.6681406287,
				"z": -1.4122471225,
				"element": "C" 
			},
			{
				"x": 2.0520494355,
				"y": -1.8034095888,
				"z": -1.4336261495,
				"element": "C" 
			},
			{
				"x": 2.6484029967,
				"y": -3.1325597364,
				"z": -1.8979709361,
				"element": "C" 
			},
			{
				"x": 0.9578459155,
				"y": -1.4618195351,
				"z": -2.3040570009,
				"element": "O" 
			},
			{
				"x": -0.2570803699,
				"y": -1.5299878142,
				"z": -1.608731866,
				"element": "C" 
			},
			{
				"x": -0.8222257273,
				"y": -0.253366995,
				"z": -1.3280500035,
				"element": "O" 
			},
			{
				"x": -0.6268495059,
				"y": 0.0759290055,
				"z": 0.0591686179,
				"element": "C" 
			},
			{
				"x": -1.7176890838,
				"y": 1.0637316155,
				"z": 0.4372958778,
				"element": "C" 
			},
			{
				"x": -1.6371411984,
				"y": 2.2518067086,
				"z": -0.3253816805,
				"element": "O" 
			},
			{
				"x": -0.67048774,
				"y": -1.2948288771,
				"z": 0.7560998144,
				"element": "C" 
			},
			{
				"x": -0.0901014183,
				"y": -1.3502036903,
				"z": 2.0386853546,
				"element": "O" 
			},
			{
				"x": 0.0945959104,
				"y": -2.1629758833,
				"z": -0.2461147683,
				"element": "C" 
			},
			{
				"x": 1.4891058021,
				"y": -1.9333811557,
				"z": -0.1286000001,
				"element": "O" 
			},
			{
				"x": 3.8696478178,
				"y": -0.8936656418,
				"z": -0.7062362952,
				"element": "H" 
			},
			{
				"x": 2.5758473546,
				"y": 0.2593214893,
				"z": -1.1083104339,
				"element": "H" 
			},
			{
				"x": 3.4981448343,
				"y": -0.5301187275,
				"z": -2.4068205975,
				"element": "H" 
			},
			{
				"x": 1.8883655745,
				"y": -3.9184667867,
				"z": -1.8708744625,
				"element": "H" 
			},
			{
				"x": 3.0177282632,
				"y": -3.0456332406,
				"z": -2.9235274576,
				"element": "H" 
			},
			{
				"x": 3.4768090111,
				"y": -3.4244279062,
				"z": -1.2466647302,
				"element": "H" 
			},
			{
				"x": -0.9795958691,
				"y": -2.0692159867,
				"z": -2.2275564959,
				"element": "H" 
			},
			{
				"x": 0.3606280098,
				"y": 0.53017911,
				"z": 0.2165147604,
				"element": "H" 
			},
			{
				"x": -2.6984649566,
				"y": 0.5715317208,
				"z": 0.3208976198,
				"element": "H" 
			},
			{
				"x": -1.6069174788,
				"y": 1.3537359815,
				"z": 1.4890783676,
				"element": "H" 
			},
			{
				"x": -1.5997332919,
				"y": 1.9729158557,
				"z": -1.2514803923,
				"element": "H" 
			},
			{
				"x": -1.7159963495,
				"y": -1.6480390239,
				"z": 0.7657956572,
				"element": "H" 
			},
			{
				"x": -0.6905154039,
				"y": -0.9211119921,
				"z": 2.6605797395,
				"element": "H" 
			},
			{
				"x": -0.1459592118,
				"y": -3.2307982769,
				"z": -0.1702654169,
				"element": "H" 
			}
		],
		 "valence_orbital": [ 
			{
				"type": "occ",
				"energy": -0.29635,
				"method": "rhf"
			},
			{
				"type": "occ",
				"energy": -0.2848,
				"method": "rhf"
			},
			{
				"type": "occ",
				"energy": -0.27107,
				"method": "rhf"
			},
			{
				"type": "occ",
				"energy": -0.26721,
				"method": "rhf"
			},
			{
				"type": "occ",
				"energy": -0.257,
				"method": "rhf"
			},
			{
				"type": "unocc",
				"energy": 0.04789,
				"method": "rhf"
			},
			{
				"type": "unocc",
				"energy": 0.08032,
				"method": "rhf"
			},
			{
				"type": "unocc",
				"energy": 0.09337,
				"method": "rhf"
			},
			{
				"type": "unocc",
				"energy": 0.09643,
				"method": "rhf"
			},
			{
				"type": "unocc",
				"energy": 0.11011,
				"method": "rhf"
			}
		],
		"cosmo_sigma_profile": { 
			"-0.025": 0.0,
			"-0.024": 0.0,
			"-0.023": 0.0,
			"-0.022": 0.0,
			"-0.021": 0.0,
			"-0.02": 0.0,
			"-0.019": 0.0,
			"-0.018": 0.0,
			"-0.017": 0.0757674273854,
			"-0.016": 0.843758163053,
			"-0.015": 1.19449096241,
			"-0.014": 1.2187873687,
			"-0.013": 1.77402553593,
			"-0.012": 1.39155167253,
			"-0.011": 1.37941710878,
			"-0.01": 1.82259551227,
			"-0.009": 2.47183603256,
			"-0.008": 2.32591736584,
			"-0.007": 5.91353635789,
			"-0.006": 15.2287521821,
			"-0.005": 13.2960074357,
			"-0.004": 21.6091317436,
			"-0.003": 19.1647164767,
			"-0.002": 18.6932229943,
			"-0.001": 17.2646344263,
			"0.0": 17.3404458058,
			"0.001": 9.59923158306,
			"0.002": 6.48009192822,
			"0.003": 6.38876797746,
			"0.004": 4.82901351264,
			"0.005": 4.98666536272,
			"0.006": 5.86672644276,
			"0.007": 5.13821154777,
			"0.008": 5.65556229003,
			"0.009": 4.8315896992,
			"0.01": 4.6934532607,
			"0.011": 5.5090467195,
			"0.012": 5.37210094113,
			"0.013": 4.17637182758,
			"0.014": 4.25998709756,
			"0.015": 1.63050580359,
			"0.016": 0.0974681661826,
			"0.017": 0.0,
			"0.018": 0.0,
			"0.019": 0.0,
			"0.02": 0.0,
			"0.021": 0.0,
			"0.022": 0.0,
			"0.023": 0.0,
			"0.024": 0.0,
			"0.025": 0.0
		}
	}
}
