{
	 "smiles": "CCN1C(=O)C=CC1=O", 
	 "Tm": 317.95, 
	 "num_atms": 16, 
	 "gaussian": { 
		 "optdone": 1, 
		 "sigma_profile": "yes", 
		 "theory": "DFT", 
		 "functional": "B3LYP", 
		 "basiset": "6-31G**", 
		 "properties": { 
			 "R2extent": 1189.3805, 
			 "electric_dipole_moment_norm": 1.02196875686, 
			 "electric_quadrupole_moment_norm": 14.8284661816, 
			 "total_energy": -438.062763651, 
			 "HOMO_LUMO_gap": 0.17428, 
			 "cosmo_polarized_energy": -9.07, 
			 "cosmo_cavitation_energy": 20.61, 
			 "cosmo_dispersion_energy": -14.69, 
			 "cosmo_repulsion_energy": 1.21, 
			 "cosmo_total_nonelectrostatic_energy": 7.14, 
			 "SMD_solvation_energy": 5.31 
		},
		"coords": [
			{
				"x": -2.0911483217,
				"y": -0.8152793108,
				"z": 0.4226615029,
				"element": "C" 
			},
			{
				"x": -0.9127840461,
				"y": -0.5304924081,
				"z": -0.5103974204,
				"element": "C" 
			},
			{
				"x": 0.2560012558,
				"y": -0.0136416011,
				"z": 0.1941367907,
				"element": "N" 
			},
			{
				"x": 1.2675120601,
				"y": -0.8057655224,
				"z": 0.7444744305,
				"element": "C" 
			},
			{
				"x": 1.3257639621,
				"y": -2.0180277111,
				"z": 0.6955155908,
				"element": "O" 
			},
			{
				"x": 2.2404012428,
				"y": 0.1472750654,
				"z": 1.3832777356,
				"element": "C" 
			},
			{
				"x": 1.7964250065,
				"y": 1.3950198275,
				"z": 1.204372143,
				"element": "C" 
			},
			{
				"x": 0.5038899421,
				"y": 1.3403062673,
				"z": 0.4367734889,
				"element": "C" 
			},
			{
				"x": -0.1984211486,
				"y": 2.2654098389,
				"z": 0.0813662237,
				"element": "O" 
			},
			{
				"x": -1.8200663938,
				"y": -1.5633919637,
				"z": 1.1731249759,
				"element": "H" 
			},
			{
				"x": -2.4105133902,
				"y": 0.0971983511,
				"z": 0.9342620856,
				"element": "H" 
			},
			{
				"x": -2.9398264048,
				"y": -1.1996986053,
				"z": -0.1519922952,
				"element": "H" 
			},
			{
				"x": -0.596115355,
				"y": -1.4425632967,
				"z": -1.0230779536,
				"element": "H" 
			},
			{
				"x": -1.1856134061,
				"y": 0.2154491052,
				"z": -1.2614866729,
				"element": "H" 
			},
			{
				"x": 3.1334730577,
				"y": -0.2003658083,
				"z": 1.8856707718,
				"element": "H" 
			},
			{
				"x": 2.232021939,
				"y": 2.3330677722,
				"z": 1.5224186026,
				"element": "H" 
			}
		],
		 "valence_orbital": [ 
			{
				"type": "occ",
				"energy": -0.3598,
				"method": "rhf"
			},
			{
				"type": "occ",
				"energy": -0.3072,
				"method": "rhf"
			},
			{
				"type": "occ",
				"energy": -0.29667,
				"method": "rhf"
			},
			{
				"type": "occ",
				"energy": -0.27433,
				"method": "rhf"
			},
			{
				"type": "occ",
				"energy": -0.26984,
				"method": "rhf"
			},
			{
				"type": "unocc",
				"energy": -0.09556,
				"method": "rhf"
			},
			{
				"type": "unocc",
				"energy": 0.05571,
				"method": "rhf"
			},
			{
				"type": "unocc",
				"energy": 0.06577,
				"method": "rhf"
			},
			{
				"type": "unocc",
				"energy": 0.10112,
				"method": "rhf"
			},
			{
				"type": "unocc",
				"energy": 0.11188,
				"method": "rhf"
			}
		],
		"cosmo_sigma_profile": { 
			"-0.025": 0.0,
			"-0.024": 0.0,
			"-0.023": 0.0,
			"-0.022": 0.0,
			"-0.021": 0.0,
			"-0.02": 0.0,
			"-0.019": 0.0,
			"-0.018": 0.0,
			"-0.017": 0.0,
			"-0.016": 0.0,
			"-0.015": 0.0,
			"-0.014": 0.0,
			"-0.013": 0.0,
			"-0.012": 0.0,
			"-0.011": 0.0,
			"-0.01": 0.940291472526,
			"-0.009": 3.64116061619,
			"-0.008": 3.14102652645,
			"-0.007": 3.85640572902,
			"-0.006": 3.59373569468,
			"-0.005": 9.80535382713,
			"-0.004": 15.8925147561,
			"-0.003": 22.0385956557,
			"-0.002": 21.0718546658,
			"-0.001": 15.0968298769,
			"0.0": 14.4177012503,
			"0.001": 7.07695923124,
			"0.002": 3.61727067691,
			"0.003": 2.42068507152,
			"0.004": 2.98244682109,
			"0.005": 3.67307064273,
			"0.006": 2.1858622098,
			"0.007": 3.16560697641,
			"0.008": 2.56643299213,
			"0.009": 3.44162849984,
			"0.01": 6.17533968166,
			"0.011": 9.55377952745,
			"0.012": 3.72216670834,
			"0.013": 0.103733120972,
			"0.014": 0.0,
			"0.015": 0.0,
			"0.016": 0.0,
			"0.017": 0.0,
			"0.018": 0.0,
			"0.019": 0.0,
			"0.02": 0.0,
			"0.021": 0.0,
			"0.022": 0.0,
			"0.023": 0.0,
			"0.024": 0.0,
			"0.025": 0.0
		}
	}
}
