{
	 "smiles": "CCOP(=S)(OCC)OC1=CC2=C(C=C1)C1=C(CCCC1)C(=O)O2", 
	 "Tm": 361.35, 
	 "num_atms": 45, 
	 "gaussian": { 
		 "optdone": 1, 
		 "sigma_profile": "yes", 
		 "theory": "DFT", 
		 "functional": "B3LYP", 
		 "basiset": "6-31G**", 
		 "properties": { 
			 "R2extent": 14597.3447, 
			 "electric_dipole_moment_norm": 7.48837812948, 
			 "electric_quadrupole_moment_norm": 41.5079600759, 
			 "total_energy": -1776.2264851, 
			 "HOMO_LUMO_gap": 0.16775, 
			 "cosmo_polarized_energy": -18.41, 
			 "cosmo_cavitation_energy": 50.68, 
			 "cosmo_dispersion_energy": -35.5, 
			 "cosmo_repulsion_energy": 2.69, 
			 "cosmo_total_nonelectrostatic_energy": 17.87, 
			 "SMD_solvation_energy": 8.89 
		},
		"coords": [
			{
				"x": 2.9037484337,
				"y": -2.5444914147,
				"z": -3.0960271243,
				"element": "C" 
			},
			{
				"x": 2.8856759195,
				"y": -3.1620421965,
				"z": -1.7109665305,
				"element": "C" 
			},
			{
				"x": 2.628385412,
				"y": -2.0982738645,
				"z": -0.754849136,
				"element": "O" 
			},
			{
				"x": 2.5205944791,
				"y": -2.4402513239,
				"z": 0.8307994606,
				"element": "P" 
			},
			{
				"x": 1.4702191409,
				"y": -3.9770753767,
				"z": 1.3284760392,
				"element": "S" 
			},
			{
				"x": 4.0331870487,
				"y": -2.484295624,
				"z": 1.365663081,
				"element": "O" 
			},
			{
				"x": 4.948724729,
				"y": -1.3658486006,
				"z": 1.1927480337,
				"element": "C" 
			},
			{
				"x": 6.3243812715,
				"y": -1.8298887783,
				"z": 1.6300462819,
				"element": "C" 
			},
			{
				"x": 2.0687858353,
				"y": -0.9705122846,
				"z": 1.3858622456,
				"element": "O" 
			},
			{
				"x": 0.7670535927,
				"y": -0.4846059068,
				"z": 1.3736143243,
				"element": "C" 
			},
			{
				"x": 0.2445009119,
				"y": -0.0487217073,
				"z": 2.5830669303,
				"element": "C" 
			},
			{
				"x": -1.0338518132,
				"y": 0.5099081039,
				"z": 2.5951204886,
				"element": "C" 
			},
			{
				"x": -1.8093586465,
				"y": 0.6276178715,
				"z": 1.425569868,
				"element": "C" 
			},
			{
				"x": -1.2350463622,
				"y": 0.1726657618,
				"z": 0.2221182813,
				"element": "C" 
			},
			{
				"x": 0.0402659679,
				"y": -0.3727636254,
				"z": 0.1820995765,
				"element": "C" 
			},
			{
				"x": -3.1370131902,
				"y": 1.2159079744,
				"z": 1.5342803846,
				"element": "C" 
			},
			{
				"x": -3.5719071068,
				"y": 1.6653296027,
				"z": 2.7458254362,
				"element": "C" 
			},
			{
				"x": -4.9120541245,
				"y": 2.3280795163,
				"z": 2.9647614669,
				"element": "C" 
			},
			{
				"x": -5.5625610753,
				"y": 2.7795821233,
				"z": 1.6534840763,
				"element": "C" 
			},
			{
				"x": -5.4683955864,
				"y": 1.6691674312,
				"z": 0.6034149688,
				"element": "C" 
			},
			{
				"x": -4.0033829475,
				"y": 1.3286285152,
				"z": 0.2968341801,
				"element": "C" 
			},
			{
				"x": -2.7480763188,
				"y": 1.5219050535,
				"z": 3.9504941824,
				"element": "C" 
			},
			{
				"x": -3.0716678582,
				"y": 1.8735763432,
				"z": 5.0630898006,
				"element": "O" 
			},
			{
				"x": -1.4978481529,
				"y": 0.9335275861,
				"z": 3.8032141072,
				"element": "O" 
			},
			{
				"x": 3.6828735897,
				"y": -1.7812014471,
				"z": -3.1762356959,
				"element": "H" 
			},
			{
				"x": 3.1016544372,
				"y": -3.3202863868,
				"z": -3.8423567827,
				"element": "H" 
			},
			{
				"x": 1.9401434169,
				"y": -2.0821921594,
				"z": -3.3283909418,
				"element": "H" 
			},
			{
				"x": 3.8473065028,
				"y": -3.6289933239,
				"z": -1.4697645703,
				"element": "H" 
			},
			{
				"x": 2.1015106124,
				"y": -3.9187085291,
				"z": -1.6121933284,
				"element": "H" 
			},
			{
				"x": 4.9406983856,
				"y": -1.0579976267,
				"z": 0.1418938485,
				"element": "H" 
			},
			{
				"x": 4.5897274336,
				"y": -0.5316662067,
				"z": 1.8022282695,
				"element": "H" 
			},
			{
				"x": 6.6678129244,
				"y": -2.6669155793,
				"z": 1.0159243616,
				"element": "H" 
			},
			{
				"x": 7.0403836545,
				"y": -1.0078883839,
				"z": 1.5292296513,
				"element": "H" 
			},
			{
				"x": 6.3096290599,
				"y": -2.1509338481,
				"z": 2.6749281109,
				"element": "H" 
			},
			{
				"x": 0.8104530112,
				"y": -0.1367077126,
				"z": 3.5022870503,
				"element": "H" 
			},
			{
				"x": -1.7952915517,
				"y": 0.2574971362,
				"z": -0.7021372234,
				"element": "H" 
			},
			{
				"x": 0.4805497847,
				"y": -0.7059189701,
				"z": -0.7494505654,
				"element": "H" 
			},
			{
				"x": -5.5717475846,
				"y": 1.6257005056,
				"z": 3.4942995847,
				"element": "H" 
			},
			{
				"x": -4.7780714005,
				"y": 3.1672440245,
				"z": 3.6549479012,
				"element": "H" 
			},
			{
				"x": -5.0538957708,
				"y": 3.6782710102,
				"z": 1.2794095995,
				"element": "H" 
			},
			{
				"x": -6.6066544428,
				"y": 3.0588290843,
				"z": 1.83070721,
				"element": "H" 
			},
			{
				"x": -5.9788378859,
				"y": 0.7727774577,
				"z": 0.9791052953,
				"element": "H" 
			},
			{
				"x": -5.9780418383,
				"y": 1.9568157635,
				"z": -0.3225138745,
				"element": "H" 
			},
			{
				"x": -3.9510163614,
				"y": 0.3897775385,
				"z": -0.2668564865,
				"element": "H" 
			},
			{
				"x": -3.5691455369,
				"y": 2.0958724736,
				"z": -0.3612018369,
				"element": "H" 
			}
		],
		 "valence_orbital": [ 
			{
				"type": "occ",
				"energy": -0.26895,
				"method": "rhf"
			},
			{
				"type": "occ",
				"energy": -0.25385,
				"method": "rhf"
			},
			{
				"type": "occ",
				"energy": -0.24607,
				"method": "rhf"
			},
			{
				"type": "occ",
				"energy": -0.244,
				"method": "rhf"
			},
			{
				"type": "occ",
				"energy": -0.2264,
				"method": "rhf"
			},
			{
				"type": "unocc",
				"energy": -0.05865,
				"method": "rhf"
			},
			{
				"type": "unocc",
				"energy": -0.01449,
				"method": "rhf"
			},
			{
				"type": "unocc",
				"energy": 0.0032,
				"method": "rhf"
			},
			{
				"type": "unocc",
				"energy": 0.03687,
				"method": "rhf"
			},
			{
				"type": "unocc",
				"energy": 0.04742,
				"method": "rhf"
			}
		],
		"cosmo_sigma_profile": { 
			"-0.025": 0.0,
			"-0.024": 0.0,
			"-0.023": 0.0,
			"-0.022": 0.0,
			"-0.021": 0.0,
			"-0.02": 0.0,
			"-0.019": 0.0,
			"-0.018": 0.0,
			"-0.017": 0.0,
			"-0.016": 0.0,
			"-0.015": 0.0,
			"-0.014": 0.0,
			"-0.013": 0.0,
			"-0.012": 0.0,
			"-0.011": 0.0,
			"-0.01": 0.0,
			"-0.009": 0.0412563839243,
			"-0.008": 1.18059970174,
			"-0.007": 4.05505535463,
			"-0.006": 8.75144060219,
			"-0.005": 24.8652615314,
			"-0.004": 40.5103288063,
			"-0.003": 47.6321213218,
			"-0.002": 49.6342649314,
			"-0.001": 46.8634023456,
			"0.0": 41.9977313394,
			"0.001": 27.3621511836,
			"0.002": 17.9139373739,
			"0.003": 16.2282773008,
			"0.004": 11.2344876527,
			"0.005": 8.9752466061,
			"0.006": 8.52987165138,
			"0.007": 10.4675270759,
			"0.008": 11.7164218583,
			"0.009": 8.22231056348,
			"0.01": 3.06188158293,
			"0.011": 3.73197354717,
			"0.012": 5.53669499997,
			"0.013": 2.68740743835,
			"0.014": 0.23323844816,
			"0.015": 0.0,
			"0.016": 0.0,
			"0.017": 0.0,
			"0.018": 0.0,
			"0.019": 0.0,
			"0.02": 0.0,
			"0.021": 0.0,
			"0.022": 0.0,
			"0.023": 0.0,
			"0.024": 0.0,
			"0.025": 0.0
		}
	}
}
