{
	 "smiles": "OC(=O)CCC(=O)C1=C(F)C=C(F)C=C1", 
	 "Tm": 387.15, 
	 "num_atms": 23, 
	 "gaussian": { 
		 "optdone": 1, 
		 "sigma_profile": "yes", 
		 "theory": "DFT", 
		 "functional": "B3LYP", 
		 "basiset": "6-31G**", 
		 "properties": { 
			 "R2extent": 3939.1742, 
			 "electric_dipole_moment_norm": 5.45224280549, 
			 "electric_quadrupole_moment_norm": 17.248071516, 
			 "total_energy": -811.232124339, 
			 "HOMO_LUMO_gap": 0.18434, 
			 "cosmo_polarized_energy": -16.37, 
			 "cosmo_cavitation_energy": 28.4, 
			 "cosmo_dispersion_energy": -20.4, 
			 "cosmo_repulsion_energy": 1.55, 
			 "cosmo_total_nonelectrostatic_energy": 9.54, 
			 "SMD_solvation_energy": 7.16 
		},
		"coords": [
			{
				"x": 1.8872176208,
				"y": 1.3205855074,
				"z": 2.9048885767,
				"element": "O" 
			},
			{
				"x": 1.4402173684,
				"y": 0.0736121036,
				"z": 3.2138613872,
				"element": "C" 
			},
			{
				"x": 1.5229869947,
				"y": -0.3456567451,
				"z": 4.3398422481,
				"element": "O" 
			},
			{
				"x": 0.8319162942,
				"y": -0.6984221198,
				"z": 2.0479704381,
				"element": "C" 
			},
			{
				"x": -0.5274098451,
				"y": -0.0984917598,
				"z": 1.6003808934,
				"element": "C" 
			},
			{
				"x": -0.9550754184,
				"y": -0.6546904921,
				"z": 0.2510591338,
				"element": "C" 
			},
			{
				"x": -1.8164372973,
				"y": -1.5165084953,
				"z": 0.1848195867,
				"element": "O" 
			},
			{
				"x": -0.2962882622,
				"y": -0.1738938814,
				"z": -1.0170143135,
				"element": "C" 
			},
			{
				"x": 0.6477710883,
				"y": 0.8535711127,
				"z": -1.1387022632,
				"element": "C" 
			},
			{
				"x": 1.07765869,
				"y": 1.5391848428,
				"z": -0.041107429,
				"element": "F" 
			},
			{
				"x": 1.1992436616,
				"y": 1.2471591443,
				"z": -2.3496906365,
				"element": "C" 
			},
			{
				"x": 0.7830072871,
				"y": 0.5770992668,
				"z": -3.4939542541,
				"element": "C" 
			},
			{
				"x": 1.3033622989,
				"y": 0.9402200495,
				"z": -4.674590275,
				"element": "F" 
			},
			{
				"x": -0.1535070494,
				"y": -0.4539884042,
				"z": -3.4478604899,
				"element": "C" 
			},
			{
				"x": -0.6778529433,
				"y": -0.8112246867,
				"z": -2.2140385587,
				"element": "C" 
			},
			{
				"x": 1.7815884,
				"y": 1.4892690679,
				"z": 1.9566837386,
				"element": "H" 
			},
			{
				"x": 0.6948520159,
				"y": -1.7331422064,
				"z": 2.3649252687,
				"element": "H" 
			},
			{
				"x": 1.5443069544,
				"y": -0.6922952481,
				"z": 1.2142451873,
				"element": "H" 
			},
			{
				"x": -1.302121426,
				"y": -0.3711950325,
				"z": 2.3197164228,
				"element": "H" 
			},
			{
				"x": -0.465915346,
				"y": 0.9913593077,
				"z": 1.5532155902,
				"element": "H" 
			},
			{
				"x": 1.9252184818,
				"y": 2.0493715273,
				"z": -2.3971625946,
				"element": "H" 
			},
			{
				"x": -0.4523987933,
				"y": -0.9509979092,
				"z": -4.3635238764,
				"element": "H" 
			},
			{
				"x": -1.4126407751,
				"y": -1.6045249494,
				"z": -2.1300637808,
				"element": "H" 
			}
		],
		 "valence_orbital": [ 
			{
				"type": "occ",
				"energy": -0.31485,
				"method": "rhf"
			},
			{
				"type": "occ",
				"energy": -0.29079,
				"method": "rhf"
			},
			{
				"type": "occ",
				"energy": -0.28107,
				"method": "rhf"
			},
			{
				"type": "occ",
				"energy": -0.27955,
				"method": "rhf"
			},
			{
				"type": "occ",
				"energy": -0.26343,
				"method": "rhf"
			},
			{
				"type": "unocc",
				"energy": -0.07909,
				"method": "rhf"
			},
			{
				"type": "unocc",
				"energy": -0.03995,
				"method": "rhf"
			},
			{
				"type": "unocc",
				"energy": 0.00139,
				"method": "rhf"
			},
			{
				"type": "unocc",
				"energy": 0.01974,
				"method": "rhf"
			},
			{
				"type": "unocc",
				"energy": 0.04303,
				"method": "rhf"
			}
		],
		"cosmo_sigma_profile": { 
			"-0.025": 0.0,
			"-0.024": 0.0,
			"-0.023": 0.0,
			"-0.022": 0.0,
			"-0.021": 0.0,
			"-0.02": 0.0,
			"-0.019": 0.0,
			"-0.018": 0.0,
			"-0.017": 0.0,
			"-0.016": 0.0,
			"-0.015": 0.0,
			"-0.014": 0.0,
			"-0.013": 0.290668686784,
			"-0.012": 0.746434984438,
			"-0.011": 1.680658184,
			"-0.01": 3.05884682941,
			"-0.009": 3.6640502915,
			"-0.008": 5.99018117854,
			"-0.007": 9.96791751692,
			"-0.006": 15.064983443,
			"-0.005": 16.2583473346,
			"-0.004": 15.7887235808,
			"-0.003": 11.7773398977,
			"-0.002": 14.5283219437,
			"-0.001": 21.6359488442,
			"0.0": 18.3267635564,
			"0.001": 13.4689309959,
			"0.002": 10.8870600067,
			"0.003": 12.0948722219,
			"0.004": 6.51814380997,
			"0.005": 4.09622373572,
			"0.006": 2.23097626629,
			"0.007": 3.69395957618,
			"0.008": 4.83648503348,
			"0.009": 4.97921078567,
			"0.01": 7.63535406258,
			"0.011": 9.47665775087,
			"0.012": 6.92087463112,
			"0.013": 1.93795508476,
			"0.014": 0.0,
			"0.015": 0.0,
			"0.016": 0.0,
			"0.017": 0.0,
			"0.018": 0.0,
			"0.019": 0.0,
			"0.02": 0.0,
			"0.021": 0.0,
			"0.022": 0.0,
			"0.023": 0.0,
			"0.024": 0.0,
			"0.025": 0.0
		}
	}
}
