{
	 "smiles": "CC12CC(=O)C3C(CCC4=CC(=O)CCC34C)C1CCC2=O", 
	 "Tm": 495.15, 
	 "num_atms": 46, 
	 "gaussian": { 
		 "optdone": 1, 
		 "sigma_profile": "yes", 
		 "theory": "DFT", 
		 "functional": "B3LYP", 
		 "basiset": "6-31G**", 
		 "properties": { 
			 "R2extent": 6193.3935, 
			 "electric_dipole_moment_norm": 7.30742254013, 
			 "electric_quadrupole_moment_norm": 12.4914067887, 
			 "total_energy": -964.15232114, 
			 "HOMO_LUMO_gap": 0.18252, 
			 "cosmo_polarized_energy": -19.81, 
			 "cosmo_cavitation_energy": 41.62, 
			 "cosmo_dispersion_energy": -28.89, 
			 "cosmo_repulsion_energy": 2.12, 
			 "cosmo_total_nonelectrostatic_energy": 14.85, 
			 "SMD_solvation_energy": 7.52 
		},
		"coords": [
			{
				"x": 1.779445744,
				"y": -2.6255064415,
				"z": 1.7533890377,
				"element": "C" 
			},
			{
				"x": 0.7171828399,
				"y": -1.5046168298,
				"z": 1.6436263166,
				"element": "C" 
			},
			{
				"x": 1.2808869546,
				"y": -0.3383024074,
				"z": 0.7880123203,
				"element": "C" 
			},
			{
				"x": 0.9089017519,
				"y": -0.5400429517,
				"z": -0.6672100876,
				"element": "C" 
			},
			{
				"x": 1.7583768116,
				"y": -0.6603143122,
				"z": -1.533737093,
				"element": "O" 
			},
			{
				"x": -0.5852052877,
				"y": -0.6963308207,
				"z": -1.0013767022,
				"element": "C" 
			},
			{
				"x": -1.431316601,
				"y": -1.0644424904,
				"z": 0.2589193631,
				"element": "C" 
			},
			{
				"x": -1.9583436608,
				"y": 0.1498423934,
				"z": 1.0558560684,
				"element": "C" 
			},
			{
				"x": -2.6119946321,
				"y": 1.2138750173,
				"z": 0.1509872944,
				"element": "C" 
			},
			{
				"x": -1.6449369403,
				"y": 1.606893575,
				"z": -0.9358856721,
				"element": "C" 
			},
			{
				"x": -1.1694416061,
				"y": 2.8651854895,
				"z": -1.0244054777,
				"element": "C" 
			},
			{
				"x": -0.0865652179,
				"y": 3.2812422639,
				"z": -1.9384474404,
				"element": "C" 
			},
			{
				"x": 0.2289029124,
				"y": 4.4564363463,
				"z": -2.0630545625,
				"element": "O" 
			},
			{
				"x": 0.6531083465,
				"y": 2.1528809408,
				"z": -2.6324389728,
				"element": "C" 
			},
			{
				"x": -0.278024108,
				"y": 0.9903648095,
				"z": -2.9987079065,
				"element": "C" 
			},
			{
				"x": -1.2110883352,
				"y": 0.4771700136,
				"z": -1.8640601605,
				"element": "C" 
			},
			{
				"x": -2.4628226338,
				"y": -0.1085509299,
				"z": -2.5779290385,
				"element": "C" 
			},
			{
				"x": -0.6273408671,
				"y": -2.0819690815,
				"z": 1.1068285451,
				"element": "C" 
			},
			{
				"x": -1.3680626638,
				"y": -2.6112018002,
				"z": 2.3716561855,
				"element": "C" 
			},
			{
				"x": -0.8816084665,
				"y": -1.7618277351,
				"z": 3.5609573412,
				"element": "C" 
			},
			{
				"x": 0.3876019837,
				"y": -1.0545913884,
				"z": 3.0788129094,
				"element": "C" 
			},
			{
				"x": 1.0333422729,
				"y": -0.2522410468,
				"z": 3.7172429909,
				"element": "O" 
			},
			{
				"x": 2.6654117241,
				"y": -2.2599623489,
				"z": 2.2807245181,
				"element": "H" 
			},
			{
				"x": 2.0832479539,
				"y": -2.9520376635,
				"z": 0.7533178665,
				"element": "H" 
			},
			{
				"x": 1.3970125151,
				"y": -3.4988043882,
				"z": 2.2922149658,
				"element": "H" 
			},
			{
				"x": 2.3677985278,
				"y": -0.2773558889,
				"z": 0.8670315155,
				"element": "H" 
			},
			{
				"x": 0.8738949782,
				"y": 0.6183028014,
				"z": 1.133804679,
				"element": "H" 
			},
			{
				"x": -0.5928944334,
				"y": -1.5726769519,
				"z": -1.6632549906,
				"element": "H" 
			},
			{
				"x": -2.3194842042,
				"y": -1.5995970476,
				"z": -0.1021497804,
				"element": "H" 
			},
			{
				"x": -2.690986733,
				"y": -0.194556337,
				"z": 1.7944057158,
				"element": "H" 
			},
			{
				"x": -1.1565874712,
				"y": 0.6365198865,
				"z": 1.6205965016,
				"element": "H" 
			},
			{
				"x": -3.536405739,
				"y": 0.8086099614,
				"z": -0.2791225159,
				"element": "H" 
			},
			{
				"x": -2.8928042925,
				"y": 2.0884484534,
				"z": 0.7455825131,
				"element": "H" 
			},
			{
				"x": -1.5505885267,
				"y": 3.6465597769,
				"z": -0.3700437502,
				"element": "H" 
			},
			{
				"x": 1.1470882566,
				"y": 2.5543748756,
				"z": -3.5217965115,
				"element": "H" 
			},
			{
				"x": 1.4505807109,
				"y": 1.8187097176,
				"z": -1.958530575,
				"element": "H" 
			},
			{
				"x": -0.9262557872,
				"y": 1.3324804836,
				"z": -3.814726335,
				"element": "H" 
			},
			{
				"x": 0.3092816066,
				"y": 0.1546322413,
				"z": -3.3878009274,
				"element": "H" 
			},
			{
				"x": -2.1406163815,
				"y": -0.8122675465,
				"z": -3.3527235919,
				"element": "H" 
			},
			{
				"x": -3.0319691393,
				"y": 0.6898564191,
				"z": -3.0643779013,
				"element": "H" 
			},
			{
				"x": -3.1390231323,
				"y": -0.6415501374,
				"z": -1.9062248288,
				"element": "H" 
			},
			{
				"x": -0.4129160632,
				"y": -2.9269929471,
				"z": 0.4402846393,
				"element": "H" 
			},
			{
				"x": -2.4545862647,
				"y": -2.5761239867,
				"z": 2.2460462649,
				"element": "H" 
			},
			{
				"x": -1.108765817,
				"y": -3.6625365011,
				"z": 2.529813748,
				"element": "H" 
			},
			{
				"x": -1.598326718,
				"y": -0.9890856994,
				"z": 3.8596336173,
				"element": "H" 
			},
			{
				"x": -0.6649041671,
				"y": -2.3435997866,
				"z": 4.4627599046,
				"element": "H" 
			}
		],
		 "valence_orbital": [ 
			{
				"type": "occ",
				"energy": -0.30876,
				"method": "rhf"
			},
			{
				"type": "occ",
				"energy": -0.26124,
				"method": "rhf"
			},
			{
				"type": "occ",
				"energy": -0.25425,
				"method": "rhf"
			},
			{
				"type": "occ",
				"energy": -0.24238,
				"method": "rhf"
			},
			{
				"type": "occ",
				"energy": -0.23065,
				"method": "rhf"
			},
			{
				"type": "unocc",
				"energy": -0.04813,
				"method": "rhf"
			},
			{
				"type": "unocc",
				"energy": -0.0366,
				"method": "rhf"
			},
			{
				"type": "unocc",
				"energy": -0.02301,
				"method": "rhf"
			},
			{
				"type": "unocc",
				"energy": 0.05117,
				"method": "rhf"
			},
			{
				"type": "unocc",
				"energy": 0.06439,
				"method": "rhf"
			}
		],
		"cosmo_sigma_profile": { 
			"-0.025": 0.0,
			"-0.024": 0.0,
			"-0.023": 0.0,
			"-0.022": 0.0,
			"-0.021": 0.0,
			"-0.02": 0.0,
			"-0.019": 0.0,
			"-0.018": 0.0,
			"-0.017": 0.0,
			"-0.016": 0.0,
			"-0.015": 0.0,
			"-0.014": 0.0,
			"-0.013": 0.0,
			"-0.012": 0.0,
			"-0.011": 0.0,
			"-0.01": 0.0,
			"-0.009": 0.0,
			"-0.008": 0.0016983816236,
			"-0.007": 0.376956395327,
			"-0.006": 6.36697012807,
			"-0.005": 27.1668520572,
			"-0.004": 49.8819185924,
			"-0.003": 46.2779781918,
			"-0.002": 42.9035581438,
			"-0.001": 35.0859972543,
			"0.0": 25.7120180392,
			"0.001": 11.964402976,
			"0.002": 8.02354700982,
			"0.003": 6.1646096869,
			"0.004": 5.76757724226,
			"0.005": 3.5524805917,
			"0.006": 5.18743483542,
			"0.007": 4.82113144067,
			"0.008": 3.79947239461,
			"0.009": 4.10413991739,
			"0.01": 6.14508955589,
			"0.011": 7.55936554429,
			"0.012": 11.0653392777,
			"0.013": 7.35673975722,
			"0.014": 2.89842905157,
			"0.015": 0.292904286987,
			"0.016": 0.0,
			"0.017": 0.0,
			"0.018": 0.0,
			"0.019": 0.0,
			"0.02": 0.0,
			"0.021": 0.0,
			"0.022": 0.0,
			"0.023": 0.0,
			"0.024": 0.0,
			"0.025": 0.0
		}
	}
}
