{
	 "smiles": "CC1=C2CCCC2=C(OCC(=O)NN)C=C1", 
	 "Tm": 423.15, 
	 "num_atms": 32, 
	 "gaussian": { 
		 "optdone": 1, 
		 "sigma_profile": "yes", 
		 "theory": "DFT", 
		 "functional": "B3LYP", 
		 "basiset": "6-31G**", 
		 "properties": { 
			 "R2extent": 3762.7743, 
			 "electric_dipole_moment_norm": 3.17166647206, 
			 "electric_quadrupole_moment_norm": 14.960067074, 
			 "total_energy": -726.844775558, 
			 "HOMO_LUMO_gap": 0.21866, 
			 "cosmo_polarized_energy": -15.91, 
			 "cosmo_cavitation_energy": 33.77, 
			 "cosmo_dispersion_energy": -23.61, 
			 "cosmo_repulsion_energy": 1.87, 
			 "cosmo_total_nonelectrostatic_energy": 12.02, 
			 "SMD_solvation_energy": 6.04 
		},
		"coords": [
			{
				"x": 2.2423779371,
				"y": -0.847761649,
				"z": 2.4829013946,
				"element": "C" 
			},
			{
				"x": 1.4555726233,
				"y": -0.0505518706,
				"z": 1.4708121396,
				"element": "C" 
			},
			{
				"x": 0.0578554528,
				"y": 0.0354071143,
				"z": 1.5351160184,
				"element": "C" 
			},
			{
				"x": -0.8791719502,
				"y": -0.5913762634,
				"z": 2.5486478202,
				"element": "C" 
			},
			{
				"x": -2.2699846454,
				"y": -0.4776625458,
				"z": 1.8718291645,
				"element": "C" 
			},
			{
				"x": -2.1591660845,
				"y": 0.7196050504,
				"z": 0.89369347,
				"element": "C" 
			},
			{
				"x": -0.6780339559,
				"y": 0.7752355594,
				"z": 0.6011898022,
				"element": "C" 
			},
			{
				"x": -0.0225306583,
				"y": 1.4546067549,
				"z": -0.4244385237,
				"element": "C" 
			},
			{
				"x": -0.7744837756,
				"y": 2.2187796328,
				"z": -1.3024463915,
				"element": "O" 
			},
			{
				"x": -0.7310017966,
				"y": 1.8131322045,
				"z": -2.6663550582,
				"element": "C" 
			},
			{
				"x": -1.3894579909,
				"y": 0.4362190833,
				"z": -2.8619900531,
				"element": "C" 
			},
			{
				"x": -2.5787724057,
				"y": 0.2635608349,
				"z": -2.6333306492,
				"element": "O" 
			},
			{
				"x": -0.6058657882,
				"y": -0.5865687633,
				"z": -3.3373147911,
				"element": "N" 
			},
			{
				"x": 0.7973247686,
				"y": -0.658337325,
				"z": -3.3820127919,
				"element": "N" 
			},
			{
				"x": 1.3736256288,
				"y": 1.3856410766,
				"z": -0.5084263904,
				"element": "C" 
			},
			{
				"x": 2.0937249718,
				"y": 0.6378691387,
				"z": 0.4290351171,
				"element": "C" 
			},
			{
				"x": 1.9456640804,
				"y": -1.9036626889,
				"z": 2.4836656799,
				"element": "H" 
			},
			{
				"x": 3.3153728777,
				"y": -0.8037034825,
				"z": 2.2766531413,
				"element": "H" 
			},
			{
				"x": 2.0826165436,
				"y": -0.4740671874,
				"z": 3.5014575702,
				"element": "H" 
			},
			{
				"x": -0.6146010027,
				"y": -1.6247281762,
				"z": 2.7995566741,
				"element": "H" 
			},
			{
				"x": -0.8476713329,
				"y": -0.0255604134,
				"z": 3.4916513186,
				"element": "H" 
			},
			{
				"x": -2.4673937031,
				"y": -1.3913930448,
				"z": 1.300311226,
				"element": "H" 
			},
			{
				"x": -3.0836039764,
				"y": -0.3634539438,
				"z": 2.5934893823,
				"element": "H" 
			},
			{
				"x": -2.7603929485,
				"y": 0.601173513,
				"z": -0.011601966,
				"element": "H" 
			},
			{
				"x": -2.4825131555,
				"y": 1.655373595,
				"z": 1.3708358362,
				"element": "H" 
			},
			{
				"x": -1.3396223813,
				"y": 2.5388580158,
				"z": -3.2107771333,
				"element": "H" 
			},
			{
				"x": 0.2909020093,
				"y": 1.8457214843,
				"z": -3.0606081238,
				"element": "H" 
			},
			{
				"x": -1.0776846959,
				"y": -1.4811357049,
				"z": -3.3961274598,
				"element": "H" 
			},
			{
				"x": 1.1580462311,
				"y": -0.0795888716,
				"z": -4.1349068012,
				"element": "H" 
			},
			{
				"x": 1.201098067,
				"y": -0.3592673819,
				"z": -2.4968387264,
				"element": "H" 
			},
			{
				"x": 1.8970986738,
				"y": 1.9447301384,
				"z": -1.2791821328,
				"element": "H" 
			},
			{
				"x": 3.1778723822,
				"y": 0.600306116,
				"z": 0.3543112369,
				"element": "H" 
			}
		],
		 "valence_orbital": [ 
			{
				"type": "occ",
				"energy": -0.29112,
				"method": "rhf"
			},
			{
				"type": "occ",
				"energy": -0.26094,
				"method": "rhf"
			},
			{
				"type": "occ",
				"energy": -0.245,
				"method": "rhf"
			},
			{
				"type": "occ",
				"energy": -0.23462,
				"method": "rhf"
			},
			{
				"type": "occ",
				"energy": -0.22408,
				"method": "rhf"
			},
			{
				"type": "unocc",
				"energy": -0.00542,
				"method": "rhf"
			},
			{
				"type": "unocc",
				"energy": 0.00314,
				"method": "rhf"
			},
			{
				"type": "unocc",
				"energy": 0.0061,
				"method": "rhf"
			},
			{
				"type": "unocc",
				"energy": 0.06741,
				"method": "rhf"
			},
			{
				"type": "unocc",
				"energy": 0.0941,
				"method": "rhf"
			}
		],
		"cosmo_sigma_profile": { 
			"-0.025": 0.0,
			"-0.024": 0.0,
			"-0.023": 0.0,
			"-0.022": 0.0,
			"-0.021": 0.0,
			"-0.02": 0.0,
			"-0.019": 0.0,
			"-0.018": 0.0,
			"-0.017": 0.0,
			"-0.016": 0.0,
			"-0.015": 0.0,
			"-0.014": 0.287421042093,
			"-0.013": 0.90373890062,
			"-0.012": 2.73518035931,
			"-0.011": 2.37941919323,
			"-0.01": 2.83482589591,
			"-0.009": 4.42225249717,
			"-0.008": 4.19823739128,
			"-0.007": 6.79517301877,
			"-0.006": 7.48957546632,
			"-0.005": 10.0284876111,
			"-0.004": 15.6698653454,
			"-0.003": 25.436406516,
			"-0.002": 24.9891546844,
			"-0.001": 28.3883851264,
			"0.0": 27.5308517753,
			"0.001": 21.4892831634,
			"0.002": 10.8832905199,
			"0.003": 10.7678785233,
			"0.004": 10.092251183,
			"0.005": 9.87351731317,
			"0.006": 6.41541222121,
			"0.007": 3.59002042565,
			"0.008": 3.01132292132,
			"0.009": 4.40075450632,
			"0.01": 4.5924482421,
			"0.011": 3.77207081378,
			"0.012": 2.61045394954,
			"0.013": 4.8698448924,
			"0.014": 3.39271573469,
			"0.015": 0.61819422593,
			"0.016": 0.237778920908,
			"0.017": 0.0,
			"0.018": 0.0,
			"0.019": 0.0,
			"0.02": 0.0,
			"0.021": 0.0,
			"0.022": 0.0,
			"0.023": 0.0,
			"0.024": 0.0,
			"0.025": 0.0
		}
	}
}
