{
	 "smiles": "CNC(=O)NC(=O)C(Cl)C1=CC=CC=C1", 
	 "Tm": 404.15, 
	 "num_atms": 26, 
	 "gaussian": { 
		 "optdone": 1, 
		 "sigma_profile": "yes", 
		 "theory": "DFT", 
		 "functional": "B3LYP", 
		 "basiset": "6-31G**", 
		 "properties": { 
			 "R2extent": 4280.0354, 
			 "electric_dipole_moment_norm": 3.73578683145, 
			 "electric_quadrupole_moment_norm": 25.9094576985, 
			 "total_energy": -1107.86127519, 
			 "HOMO_LUMO_gap": 0.2088, 
			 "cosmo_polarized_energy": -17.32, 
			 "cosmo_cavitation_energy": 31.7, 
			 "cosmo_dispersion_energy": -22.7, 
			 "cosmo_repulsion_energy": 1.81, 
			 "cosmo_total_nonelectrostatic_energy": 10.81, 
			 "SMD_solvation_energy": 5.8 
		},
		"coords": [
			{
				"x": -0.0427853197,
				"y": -0.5707665413,
				"z": -5.3507605436,
				"element": "C" 
			},
			{
				"x": -0.9977211442,
				"y": 0.0861121133,
				"z": -4.4705883443,
				"element": "N" 
			},
			{
				"x": -0.8311893037,
				"y": 0.0186201522,
				"z": -3.1093957113,
				"element": "C" 
			},
			{
				"x": 0.0305612413,
				"y": -0.6381436386,
				"z": -2.557064848,
				"element": "O" 
			},
			{
				"x": -1.8267097648,
				"y": 0.7567551187,
				"z": -2.4257896399,
				"element": "N" 
			},
			{
				"x": -1.9517484021,
				"y": 1.0947496101,
				"z": -1.0864889,
				"element": "C" 
			},
			{
				"x": -3.0415179584,
				"y": 1.4539799091,
				"z": -0.6699836355,
				"element": "O" 
			},
			{
				"x": -0.7705258041,
				"y": 1.0858119703,
				"z": -0.100770969,
				"element": "C" 
			},
			{
				"x": 0.7255328277,
				"y": 1.8531297959,
				"z": -0.7905509557,
				"element": "Cl" 
			},
			{
				"x": -0.5566814534,
				"y": -0.2651129915,
				"z": 0.5719418875,
				"element": "C" 
			},
			{
				"x": -1.5568246821,
				"y": -0.6882968778,
				"z": 1.4602279559,
				"element": "C" 
			},
			{
				"x": -1.4372059059,
				"y": -1.9058374166,
				"z": 2.1289708126,
				"element": "C" 
			},
			{
				"x": -0.3120075049,
				"y": -2.7068666888,
				"z": 1.9260090996,
				"element": "C" 
			},
			{
				"x": 0.6849788629,
				"y": -2.2845940759,
				"z": 1.0458993557,
				"element": "C" 
			},
			{
				"x": 0.5643307311,
				"y": -1.0717891056,
				"z": 0.3656913735,
				"element": "C" 
			},
			{
				"x": 0.2848903157,
				"y": -1.4939543826,
				"z": -4.8725479074,
				"element": "H" 
			},
			{
				"x": -0.5280112227,
				"y": -0.808522947,
				"z": -6.3006191539,
				"element": "H" 
			},
			{
				"x": 0.8425187578,
				"y": 0.047797633,
				"z": -5.5439165355,
				"element": "H" 
			},
			{
				"x": -1.5039711603,
				"y": 0.8763741297,
				"z": -4.843544969,
				"element": "H" 
			},
			{
				"x": -2.7073793734,
				"y": 0.897178589,
				"z": -2.9080322382,
				"element": "H" 
			},
			{
				"x": -1.0992951115,
				"y": 1.7950347721,
				"z": 0.6584587449,
				"element": "H" 
			},
			{
				"x": -2.4313320813,
				"y": -0.0636015872,
				"z": 1.6200925135,
				"element": "H" 
			},
			{
				"x": -2.2187740649,
				"y": -2.2219257391,
				"z": 2.8139010532,
				"element": "H" 
			},
			{
				"x": -0.2122950729,
				"y": -3.6520189295,
				"z": 2.4521115674,
				"element": "H" 
			},
			{
				"x": 1.5629276101,
				"y": -2.9026107501,
				"z": 0.8810882977,
				"element": "H" 
			},
			{
				"x": 1.3306349838,
				"y": -0.7560021219,
				"z": -0.33003831,
				"element": "H" 
			}
		],
		 "valence_orbital": [ 
			{
				"type": "occ",
				"energy": -0.27984,
				"method": "rhf"
			},
			{
				"type": "occ",
				"energy": -0.27087,
				"method": "rhf"
			},
			{
				"type": "occ",
				"energy": -0.26636,
				"method": "rhf"
			},
			{
				"type": "occ",
				"energy": -0.24453,
				"method": "rhf"
			},
			{
				"type": "occ",
				"energy": -0.24022,
				"method": "rhf"
			},
			{
				"type": "unocc",
				"energy": -0.03142,
				"method": "rhf"
			},
			{
				"type": "unocc",
				"energy": 0.00068,
				"method": "rhf"
			},
			{
				"type": "unocc",
				"energy": 0.00627,
				"method": "rhf"
			},
			{
				"type": "unocc",
				"energy": 0.02754,
				"method": "rhf"
			},
			{
				"type": "unocc",
				"energy": 0.05068,
				"method": "rhf"
			}
		],
		"cosmo_sigma_profile": { 
			"-0.025": 0.0,
			"-0.024": 0.0,
			"-0.023": 0.0,
			"-0.022": 0.0,
			"-0.021": 0.0,
			"-0.02": 0.0,
			"-0.019": 0.0,
			"-0.018": 0.0,
			"-0.017": 0.726798166003,
			"-0.016": 2.04948735095,
			"-0.015": 2.32833759527,
			"-0.014": 1.65255784076,
			"-0.013": 2.2661876235,
			"-0.012": 1.55028051372,
			"-0.011": 1.32379779081,
			"-0.01": 2.03720781717,
			"-0.009": 1.60583632362,
			"-0.008": 2.7445098128,
			"-0.007": 2.99501292979,
			"-0.006": 10.3594947058,
			"-0.005": 16.2324154732,
			"-0.004": 19.095358109,
			"-0.003": 19.2218036078,
			"-0.002": 20.3416534983,
			"-0.001": 16.0607449324,
			"0.0": 14.0716533571,
			"0.001": 14.7453747182,
			"0.002": 15.203639303,
			"0.003": 16.7851713663,
			"0.004": 17.0051249638,
			"0.005": 16.7931559775,
			"0.006": 8.0005600648,
			"0.007": 3.86497454934,
			"0.008": 4.32293464222,
			"0.009": 3.93758319529,
			"0.01": 3.67275367452,
			"0.011": 6.45360416664,
			"0.012": 5.37703208132,
			"0.013": 0.894433008008,
			"0.014": 0.0,
			"0.015": 0.0,
			"0.016": 0.0,
			"0.017": 0.0,
			"0.018": 0.0,
			"0.019": 0.0,
			"0.02": 0.0,
			"0.021": 0.0,
			"0.022": 0.0,
			"0.023": 0.0,
			"0.024": 0.0,
			"0.025": 0.0
		}
	}
}
