{
	 "smiles": "NC1=NC=C(N1)C1=CC=C(Br)C=C1", 
	 "Tm": 468.15, 
	 "num_atms": 21, 
	 "gaussian": { 
		 "optdone": 1, 
		 "sigma_profile": "yes", 
		 "theory": "DFT", 
		 "functional": "B3LYP", 
		 "basiset": "6-31G**", 
		 "properties": { 
			 "R2extent": 5498.6809, 
			 "electric_dipole_moment_norm": 3.46605415134, 
			 "electric_quadrupole_moment_norm": 17.0681412775, 
			 "total_energy": -3083.44325906, 
			 "HOMO_LUMO_gap": 0.16134, 
			 "cosmo_polarized_energy": -16.94, 
			 "cosmo_cavitation_energy": 28.02, 
			 "cosmo_dispersion_energy": -21.28, 
			 "cosmo_repulsion_energy": 1.68, 
			 "cosmo_total_nonelectrostatic_energy": 8.41, 
			 "SMD_solvation_energy": 1.54 
		},
		"coords": [
			{
				"x": 0.5450476435,
				"y": 2.7275578721,
				"z": 4.4049396978,
				"element": "N" 
			},
			{
				"x": 0.5213188362,
				"y": 2.752675509,
				"z": 3.014239587,
				"element": "C" 
			},
			{
				"x": 0.748613766,
				"y": 3.8107022645,
				"z": 2.2606492621,
				"element": "N" 
			},
			{
				"x": 0.692846689,
				"y": 3.3448701787,
				"z": 0.9670433918,
				"element": "C" 
			},
			{
				"x": 0.418061176,
				"y": 1.9943175678,
				"z": 0.9209354563,
				"element": "C" 
			},
			{
				"x": 0.3246694319,
				"y": 1.6264107449,
				"z": 2.2679170316,
				"element": "N" 
			},
			{
				"x": 0.2598489303,
				"y": 1.0598239702,
				"z": -0.1846127185,
				"element": "C" 
			},
			{
				"x": -0.0202065262,
				"y": 1.5344758082,
				"z": -1.4814574672,
				"element": "C" 
			},
			{
				"x": -0.1615075806,
				"y": 0.6640213006,
				"z": -2.5565128478,
				"element": "C" 
			},
			{
				"x": -0.0389126975,
				"y": -0.7103796057,
				"z": -2.3481745492,
				"element": "C" 
			},
			{
				"x": -0.2475396377,
				"y": -1.9129082428,
				"z": -3.8188706557,
				"element": "Br" 
			},
			{
				"x": 0.2319633539,
				"y": -1.214069615,
				"z": -1.0783217625,
				"element": "C" 
			},
			{
				"x": 0.3848106346,
				"y": -0.3314118754,
				"z": -0.0109746526,
				"element": "C" 
			},
			{
				"x": 0.6615134461,
				"y": 3.6693994172,
				"z": 4.76016167,
				"element": "H" 
			},
			{
				"x": -0.2653282179,
				"y": 2.2882735587,
				"z": 4.8283719394,
				"element": "H" 
			},
			{
				"x": 0.8683094323,
				"y": 4.0073035366,
				"z": 0.130720444,
				"element": "H" 
			},
			{
				"x": 0.1456199162,
				"y": 0.7011151189,
				"z": 2.6242441628,
				"element": "H" 
			},
			{
				"x": -0.1457270628,
				"y": 2.6001335855,
				"z": -1.6448062186,
				"element": "H" 
			},
			{
				"x": -0.378408337,
				"y": 1.047340099,
				"z": -3.5471959235,
				"element": "H" 
			},
			{
				"x": 0.3337035421,
				"y": -2.2825430089,
				"z": -0.9252664585,
				"element": "H" 
			},
			{
				"x": 0.6333032615,
				"y": -0.7419081841,
				"z": 0.9639706113,
				"element": "H" 
			}
		],
		 "valence_orbital": [ 
			{
				"type": "occ",
				"energy": -0.28068,
				"method": "rhf"
			},
			{
				"type": "occ",
				"energy": -0.27128,
				"method": "rhf"
			},
			{
				"type": "occ",
				"energy": -0.26485,
				"method": "rhf"
			},
			{
				"type": "occ",
				"energy": -0.25327,
				"method": "rhf"
			},
			{
				"type": "occ",
				"energy": -0.19137,
				"method": "rhf"
			},
			{
				"type": "unocc",
				"energy": -0.03003,
				"method": "rhf"
			},
			{
				"type": "unocc",
				"energy": -0.01495,
				"method": "rhf"
			},
			{
				"type": "unocc",
				"energy": 0.00835,
				"method": "rhf"
			},
			{
				"type": "unocc",
				"energy": 0.04911,
				"method": "rhf"
			},
			{
				"type": "unocc",
				"energy": 0.06121,
				"method": "rhf"
			}
		],
		"cosmo_sigma_profile": { 
			"-0.025": 0.0,
			"-0.024": 0.0,
			"-0.023": 0.0,
			"-0.022": 0.0,
			"-0.021": 0.0,
			"-0.02": 0.0,
			"-0.019": 0.0,
			"-0.018": 0.0,
			"-0.017": 0.0278272754752,
			"-0.016": 0.899963593357,
			"-0.015": 1.82936124627,
			"-0.014": 2.0664132966,
			"-0.013": 4.3687927399,
			"-0.012": 3.53810758571,
			"-0.011": 3.79043202171,
			"-0.01": 3.82654917578,
			"-0.009": 2.69998009355,
			"-0.008": 3.18982752198,
			"-0.007": 7.1661501812,
			"-0.006": 10.8223464446,
			"-0.005": 11.3607406757,
			"-0.004": 8.68765539642,
			"-0.003": 10.4946043491,
			"-0.002": 8.71008201153,
			"-0.001": 10.2538745076,
			"0.0": 10.9563787621,
			"0.001": 13.5610167084,
			"0.002": 17.5371963712,
			"0.003": 25.158432793,
			"0.004": 27.7269459135,
			"0.005": 15.4876929473,
			"0.006": 4.09866540612,
			"0.007": 2.02115646084,
			"0.008": 2.28467197827,
			"0.009": 1.90398602568,
			"0.01": 3.09280635545,
			"0.011": 0.761529599429,
			"0.012": 1.66452101064,
			"0.013": 1.92296937748,
			"0.014": 1.83052237978,
			"0.015": 1.16921398091,
			"0.016": 1.11046464225,
			"0.017": 0.910218402647,
			"0.018": 0.668164507901,
			"0.019": 0.0314859205693,
			"0.02": 0.0,
			"0.021": 0.0,
			"0.022": 0.0,
			"0.023": 0.0,
			"0.024": 0.0,
			"0.025": 0.0
		}
	}
}
