{
	 "smiles": "CC(C)C(C)(C)C", 
	 "Tm": 248.15, 
	 "num_atms": 23, 
	 "gaussian": { 
		 "optdone": 1, 
		 "sigma_profile": "yes", 
		 "theory": "DFT", 
		 "functional": "B3LYP", 
		 "basiset": "6-31G**", 
		 "properties": { 
			 "R2extent": 1430.6927, 
			 "electric_dipole_moment_norm": 0.0346506854189, 
			 "electric_quadrupole_moment_norm": 0.346137241568, 
			 "total_energy": -276.410654334, 
			 "HOMO_LUMO_gap": 0.37187, 
			 "cosmo_polarized_energy": -0.73, 
			 "cosmo_cavitation_energy": 22.46, 
			 "cosmo_dispersion_energy": -16.18, 
			 "cosmo_repulsion_energy": 1.33, 
			 "cosmo_total_nonelectrostatic_energy": 7.6, 
			 "SMD_solvation_energy": 4.19 
		},
		"coords": [
			{
				"x": 1.0310362792,
				"y": -0.487858347,
				"z": 0.9126252836,
				"element": "C" 
			},
			{
				"x": -0.4721307027,
				"y": -0.1545212935,
				"z": 0.8934392975,
				"element": "C" 
			},
			{
				"x": -0.9530329959,
				"y": -0.0932002124,
				"z": -0.5680230425,
				"element": "C" 
			},
			{
				"x": -0.8584009379,
				"y": 1.1044557891,
				"z": 1.7468895387,
				"element": "C" 
			},
			{
				"x": -2.3917492722,
				"y": 1.2876570948,
				"z": 1.7416001426,
				"element": "C" 
			},
			{
				"x": -0.2033008007,
				"y": 2.3946560161,
				"z": 1.212949271,
				"element": "C" 
			},
			{
				"x": -0.4198371444,
				"y": 0.895293855,
				"z": 3.2127148246,
				"element": "C" 
			},
			{
				"x": 1.6266831539,
				"y": 0.3014556938,
				"z": 0.4405248662,
				"element": "H" 
			},
			{
				"x": 1.2178349378,
				"y": -1.4105889691,
				"z": 0.3526469407,
				"element": "H" 
			},
			{
				"x": 1.41563836,
				"y": -0.6388243581,
				"z": 1.9246658455,
				"element": "H" 
			},
			{
				"x": -0.9941535408,
				"y": -0.9999637138,
				"z": 1.3675598399,
				"element": "H" 
			},
			{
				"x": -2.0340946191,
				"y": 0.0467025637,
				"z": -0.6497080168,
				"element": "H" 
			},
			{
				"x": -0.7061344462,
				"y": -1.0275610784,
				"z": -1.0836880672,
				"element": "H" 
			},
			{
				"x": -0.4660252732,
				"y": 0.7179906298,
				"z": -1.1207284781,
				"element": "H" 
			},
			{
				"x": -2.9019824551,
				"y": 0.3746641595,
				"z": 2.0709790065,
				"element": "H" 
			},
			{
				"x": -2.7748130888,
				"y": 1.5476110303,
				"z": 0.7505344663,
				"element": "H" 
			},
			{
				"x": -2.6826291943,
				"y": 2.0940588857,
				"z": 2.4240418194,
				"element": "H" 
			},
			{
				"x": -0.4941835126,
				"y": 3.2513679893,
				"z": 1.8314249764,
				"element": "H" 
			},
			{
				"x": 0.8897396583,
				"y": 2.336106915,
				"z": 1.2314129586,
				"element": "H" 
			},
			{
				"x": -0.5117648065,
				"y": 2.6150456202,
				"z": 0.1859183001,
				"element": "H" 
			},
			{
				"x": 0.6683598291,
				"y": 0.8635707268,
				"z": 3.319362056,
				"element": "H" 
			},
			{
				"x": -0.7839912494,
				"y": 1.7155617257,
				"z": 3.8413334642,
				"element": "H" 
			},
			{
				"x": -0.8253681784,
				"y": -0.0388807227,
				"z": 3.6192247069,
				"element": "H" 
			}
		],
		 "valence_orbital": [ 
			{
				"type": "occ",
				"energy": -0.34092,
				"method": "rhf"
			},
			{
				"type": "occ",
				"energy": -0.33485,
				"method": "rhf"
			},
			{
				"type": "occ",
				"energy": -0.30656,
				"method": "rhf"
			},
			{
				"type": "occ",
				"energy": -0.30291,
				"method": "rhf"
			},
			{
				"type": "occ",
				"energy": -0.29669,
				"method": "rhf"
			},
			{
				"type": "unocc",
				"energy": 0.07518,
				"method": "rhf"
			},
			{
				"type": "unocc",
				"energy": 0.12313,
				"method": "rhf"
			},
			{
				"type": "unocc",
				"energy": 0.12902,
				"method": "rhf"
			},
			{
				"type": "unocc",
				"energy": 0.13076,
				"method": "rhf"
			},
			{
				"type": "unocc",
				"energy": 0.1321,
				"method": "rhf"
			}
		],
		"cosmo_sigma_profile": { 
			"-0.025": 0.0,
			"-0.024": 0.0,
			"-0.023": 0.0,
			"-0.022": 0.0,
			"-0.021": 0.0,
			"-0.02": 0.0,
			"-0.019": 0.0,
			"-0.018": 0.0,
			"-0.017": 0.0,
			"-0.016": 0.0,
			"-0.015": 0.0,
			"-0.014": 0.0,
			"-0.013": 0.0,
			"-0.012": 0.0,
			"-0.011": 0.0,
			"-0.01": 0.0,
			"-0.009": 0.0,
			"-0.008": 0.0,
			"-0.007": 0.0,
			"-0.006": 0.0,
			"-0.005": 0.0,
			"-0.004": 0.0,
			"-0.003": 3.59757280632,
			"-0.002": 29.1777471343,
			"-0.001": 35.3283479456,
			"0.0": 36.318700692,
			"0.001": 32.7510701536,
			"0.002": 30.8688279415,
			"0.003": 3.44321079776,
			"0.004": 0.0,
			"0.005": 0.0,
			"0.006": 0.0,
			"0.007": 0.0,
			"0.008": 0.0,
			"0.009": 0.0,
			"0.01": 0.0,
			"0.011": 0.0,
			"0.012": 0.0,
			"0.013": 0.0,
			"0.014": 0.0,
			"0.015": 0.0,
			"0.016": 0.0,
			"0.017": 0.0,
			"0.018": 0.0,
			"0.019": 0.0,
			"0.02": 0.0,
			"0.021": 0.0,
			"0.022": 0.0,
			"0.023": 0.0,
			"0.024": 0.0,
			"0.025": 0.0
		}
	}
}
