{
	 "smiles": "O=C1CCN(CCC2=CC=CC=C2)CC1", 
	 "Tm": 331.15, 
	 "num_atms": 32, 
	 "gaussian": { 
		 "optdone": 1, 
		 "sigma_profile": "yes", 
		 "theory": "DFT", 
		 "functional": "B3LYP", 
		 "basiset": "6-31G**", 
		 "properties": { 
			 "R2extent": 4431.6944, 
			 "electric_dipole_moment_norm": 3.40844044836, 
			 "electric_quadrupole_moment_norm": 14.5752081182, 
			 "total_energy": -635.594264798, 
			 "HOMO_LUMO_gap": 0.20859, 
			 "cosmo_polarized_energy": -10.72, 
			 "cosmo_cavitation_energy": 33.58, 
			 "cosmo_dispersion_energy": -23.36, 
			 "cosmo_repulsion_energy": 1.84, 
			 "cosmo_total_nonelectrostatic_energy": 12.06, 
			 "SMD_solvation_energy": 5.34 
		},
		"coords": [
			{
				"x": 1.3401946621,
				"y": -0.6645581195,
				"z": 4.1575188604,
				"element": "O" 
			},
			{
				"x": 1.398820752,
				"y": 0.051882573,
				"z": 3.1782938531,
				"element": "C" 
			},
			{
				"x": 0.8632213396,
				"y": 1.4744114832,
				"z": 3.1566212009,
				"element": "C" 
			},
			{
				"x": -0.0193371057,
				"y": 1.7655917422,
				"z": 1.917596728,
				"element": "C" 
			},
			{
				"x": 0.2010307628,
				"y": 0.7870425324,
				"z": 0.8464697274,
				"element": "N" 
			},
			{
				"x": -0.451132144,
				"y": 1.1907316806,
				"z": -0.4004696004,
				"element": "C" 
			},
			{
				"x": -0.8342290472,
				"y": 0.0015423325,
				"z": -1.3067572342,
				"element": "C" 
			},
			{
				"x": -2.0360542843,
				"y": -0.7829825642,
				"z": -0.8212319592,
				"element": "C" 
			},
			{
				"x": -1.9612522384,
				"y": -1.6122204676,
				"z": 0.308407185,
				"element": "C" 
			},
			{
				"x": -3.0818948269,
				"y": -2.313113219,
				"z": 0.7548848916,
				"element": "C" 
			},
			{
				"x": -4.2992694741,
				"y": -2.2011900671,
				"z": 0.0793298861,
				"element": "C" 
			},
			{
				"x": -4.3872365928,
				"y": -1.3809216544,
				"z": -1.0458402548,
				"element": "C" 
			},
			{
				"x": -3.2640707559,
				"y": -0.679594517,
				"z": -1.4888280341,
				"element": "C" 
			},
			{
				"x": 1.6228017223,
				"y": 0.4738999811,
				"z": 0.6931831861,
				"element": "C" 
			},
			{
				"x": 2.0658779686,
				"y": -0.3929716707,
				"z": 1.880134058,
				"element": "C" 
			},
			{
				"x": 1.7445109695,
				"y": 2.131231223,
				"z": 3.139540503,
				"element": "H" 
			},
			{
				"x": 0.3301884831,
				"y": 1.6697395442,
				"z": 4.0891355034,
				"element": "H" 
			},
			{
				"x": -1.0770826983,
				"y": 1.7193033371,
				"z": 2.197389083,
				"element": "H" 
			},
			{
				"x": 0.1785674322,
				"y": 2.7977112467,
				"z": 1.5709014976,
				"element": "H" 
			},
			{
				"x": -1.3666091971,
				"y": 1.73379617,
				"z": -0.1422433942,
				"element": "H" 
			},
			{
				"x": 0.1826267869,
				"y": 1.8982393628,
				"z": -0.9684426347,
				"element": "H" 
			},
			{
				"x": -1.0433812878,
				"y": 0.3965803937,
				"z": -2.3077454972,
				"element": "H" 
			},
			{
				"x": 0.0320022383,
				"y": -0.6626474737,
				"z": -1.4176524101,
				"element": "H" 
			},
			{
				"x": -1.0221573245,
				"y": -1.6918404049,
				"z": 0.8457691701,
				"element": "H" 
			},
			{
				"x": -3.0031345416,
				"y": -2.9498558487,
				"z": 1.6318567206,
				"element": "H" 
			},
			{
				"x": -5.1700580022,
				"y": -2.7505942838,
				"z": 0.4258321175,
				"element": "H" 
			},
			{
				"x": -5.3279796952,
				"y": -1.2877847241,
				"z": -1.5816481328,
				"element": "H" 
			},
			{
				"x": -3.3405128608,
				"y": -0.0450431926,
				"z": -2.3691245444,
				"element": "H" 
			},
			{
				"x": 1.7735609439,
				"y": -0.0726571425,
				"z": -0.2418075313,
				"element": "H" 
			},
			{
				"x": 2.2383170596,
				"y": 1.3922223844,
				"z": 0.6171752304,
				"element": "H" 
			},
			{
				"x": 3.154606589,
				"y": -0.3512409024,
				"z": 2.0207529468,
				"element": "H" 
			},
			{
				"x": 1.8060643667,
				"y": -1.4441097346,
				"z": 1.7226988787,
				"element": "H" 
			}
		],
		 "valence_orbital": [ 
			{
				"type": "occ",
				"energy": -0.32682,
				"method": "rhf"
			},
			{
				"type": "occ",
				"energy": -0.2433,
				"method": "rhf"
			},
			{
				"type": "occ",
				"energy": -0.23826,
				"method": "rhf"
			},
			{
				"type": "occ",
				"energy": -0.23656,
				"method": "rhf"
			},
			{
				"type": "occ",
				"energy": -0.21988,
				"method": "rhf"
			},
			{
				"type": "unocc",
				"energy": -0.01129,
				"method": "rhf"
			},
			{
				"type": "unocc",
				"energy": 0.00432,
				"method": "rhf"
			},
			{
				"type": "unocc",
				"energy": 0.00625,
				"method": "rhf"
			},
			{
				"type": "unocc",
				"energy": 0.0728,
				"method": "rhf"
			},
			{
				"type": "unocc",
				"energy": 0.09586,
				"method": "rhf"
			}
		],
		"cosmo_sigma_profile": { 
			"-0.025": 0.0,
			"-0.024": 0.0,
			"-0.023": 0.0,
			"-0.022": 0.0,
			"-0.021": 0.0,
			"-0.02": 0.0,
			"-0.019": 0.0,
			"-0.018": 0.0,
			"-0.017": 0.0,
			"-0.016": 0.0,
			"-0.015": 0.0,
			"-0.014": 0.0,
			"-0.013": 0.0,
			"-0.012": 0.0,
			"-0.011": 0.0,
			"-0.01": 0.0,
			"-0.009": 0.0,
			"-0.008": 0.0,
			"-0.007": 0.256028136052,
			"-0.006": 6.29624131897,
			"-0.005": 18.2431478111,
			"-0.004": 28.5217346003,
			"-0.003": 35.7563141873,
			"-0.002": 42.090372401,
			"-0.001": 28.730722144,
			"0.0": 17.6577999333,
			"0.001": 9.75965469986,
			"0.002": 9.62814343503,
			"0.003": 9.49822940591,
			"0.004": 10.2865561303,
			"0.005": 10.3907545576,
			"0.006": 11.0552251255,
			"0.007": 7.56062945793,
			"0.008": 2.4049605761,
			"0.009": 1.63894206067,
			"0.01": 1.59152556751,
			"0.011": 3.27146943221,
			"0.012": 4.16611362147,
			"0.013": 3.52735232894,
			"0.014": 0.839900340148,
			"0.015": 0.0,
			"0.016": 0.0,
			"0.017": 0.0,
			"0.018": 0.0,
			"0.019": 0.0,
			"0.02": 0.0,
			"0.021": 0.0,
			"0.022": 0.0,
			"0.023": 0.0,
			"0.024": 0.0,
			"0.025": 0.0
		}
	}
}
