{
	 "smiles": "[O-][N+](=O)C1=C(OCCN2CCOCC2)C=CC=C1", 
	 "Tm": 317.65, 
	 "num_atms": 34, 
	 "gaussian": { 
		 "optdone": 1, 
		 "sigma_profile": "yes", 
		 "theory": "DFT", 
		 "functional": "B3LYP", 
		 "basiset": "6-31G**", 
		 "properties": { 
			 "R2extent": 4189.1947, 
			 "electric_dipole_moment_norm": 4.73649819487, 
			 "electric_quadrupole_moment_norm": 17.2368092497, 
			 "total_energy": -877.175329835, 
			 "HOMO_LUMO_gap": 0.14033, 
			 "cosmo_polarized_energy": -14.1, 
			 "cosmo_cavitation_energy": 35.43, 
			 "cosmo_dispersion_energy": -24.33, 
			 "cosmo_repulsion_energy": 1.85, 
			 "cosmo_total_nonelectrostatic_energy": 12.96, 
			 "SMD_solvation_energy": 7.59 
		},
		"coords": [
			{
				"x": -0.0957031811,
				"y": -0.1897353026,
				"z": -2.4845791242,
				"element": "O" 
			},
			{
				"x": 0.8039754813,
				"y": 0.4318105227,
				"z": -1.9265365161,
				"element": "N" 
			},
			{
				"x": 1.9759787964,
				"y": 0.0447433376,
				"z": -1.8567591619,
				"element": "O" 
			},
			{
				"x": 0.4968712866,
				"y": 1.720872614,
				"z": -1.3013608046,
				"element": "C" 
			},
			{
				"x": -0.7905108288,
				"y": 2.0237437237,
				"z": -0.8112971961,
				"element": "C" 
			},
			{
				"x": -1.8376332714,
				"y": 1.1793526902,
				"z": -0.9834759349,
				"element": "O" 
			},
			{
				"x": -2.4719721826,
				"y": 0.6202173644,
				"z": 0.1787069385,
				"element": "C" 
			},
			{
				"x": -1.9215081357,
				"y": -0.7746713263,
				"z": 0.4664926176,
				"element": "C" 
			},
			{
				"x": -0.527535823,
				"y": -0.7600410064,
				"z": 0.8996654451,
				"element": "N" 
			},
			{
				"x": 0.1636393237,
				"y": -2.0229171745,
				"z": 0.6068666877,
				"element": "C" 
			},
			{
				"x": 1.627852566,
				"y": -1.9254538256,
				"z": 1.0298882214,
				"element": "C" 
			},
			{
				"x": 1.7464189301,
				"y": -1.5999304048,
				"z": 2.4113948157,
				"element": "O" 
			},
			{
				"x": 1.1046078058,
				"y": -0.3659287169,
				"z": 2.6869661619,
				"element": "C" 
			},
			{
				"x": -0.3765340931,
				"y": -0.4182382016,
				"z": 2.3163480948,
				"element": "C" 
			},
			{
				"x": -0.9712810691,
				"y": 3.2617959897,
				"z": -0.1761420371,
				"element": "C" 
			},
			{
				"x": 0.0787431755,
				"y": 4.1664740678,
				"z": -0.0487241141,
				"element": "C" 
			},
			{
				"x": 1.3462693939,
				"y": 3.8540585808,
				"z": -0.5487580685,
				"element": "C" 
			},
			{
				"x": 1.5523767191,
				"y": 2.6263355809,
				"z": -1.166023751,
				"element": "C" 
			},
			{
				"x": -2.3575573198,
				"y": 1.2931080774,
				"z": 1.0365230047,
				"element": "H" 
			},
			{
				"x": -3.5375964102,
				"y": 0.5520107957,
				"z": -0.0603361538,
				"element": "H" 
			},
			{
				"x": -1.9862931223,
				"y": -1.3443201712,
				"z": -0.4652144495,
				"element": "H" 
			},
			{
				"x": -2.5856116636,
				"y": -1.2719232498,
				"z": 1.2017618382,
				"element": "H" 
			},
			{
				"x": -0.3088516738,
				"y": -2.8757947644,
				"z": 1.1310383377,
				"element": "H" 
			},
			{
				"x": 0.1086912979,
				"y": -2.2092919896,
				"z": -0.471169075,
				"element": "H" 
			},
			{
				"x": 2.1360674535,
				"y": -1.1697975171,
				"z": 0.4128663407,
				"element": "H" 
			},
			{
				"x": 2.1297985534,
				"y": -2.8871931594,
				"z": 0.8912229588,
				"element": "H" 
			},
			{
				"x": 1.2239133933,
				"y": -0.1798224171,
				"z": 3.7586795974,
				"element": "H" 
			},
			{
				"x": 1.5898714155,
				"y": 0.4523860837,
				"z": 2.1299941995,
				"element": "H" 
			},
			{
				"x": -0.8858989554,
				"y": -1.1577391198,
				"z": 2.9651012071,
				"element": "H" 
			},
			{
				"x": -0.8302953862,
				"y": 0.5605041248,
				"z": 2.511307808,
				"element": "H" 
			},
			{
				"x": -1.9616007574,
				"y": 3.5101613028,
				"z": 0.1918283977,
				"element": "H" 
			},
			{
				"x": -0.0963618288,
				"y": 5.1237346037,
				"z": 0.4334842386,
				"element": "H" 
			},
			{
				"x": 2.1652919642,
				"y": 4.5596816205,
				"z": -0.4582640365,
				"element": "H" 
			},
			{
				"x": 2.5251781461,
				"y": 2.3370072669,
				"z": -1.5440964879,
				"element": "H" 
			}
		],
		 "valence_orbital": [ 
			{
				"type": "occ",
				"energy": -0.28249,
				"method": "rhf"
			},
			{
				"type": "occ",
				"energy": -0.27023,
				"method": "rhf"
			},
			{
				"type": "occ",
				"energy": -0.25587,
				"method": "rhf"
			},
			{
				"type": "occ",
				"energy": -0.24604,
				"method": "rhf"
			},
			{
				"type": "occ",
				"energy": -0.22014,
				"method": "rhf"
			},
			{
				"type": "unocc",
				"energy": -0.07981,
				"method": "rhf"
			},
			{
				"type": "unocc",
				"energy": -0.01995,
				"method": "rhf"
			},
			{
				"type": "unocc",
				"energy": -0.00103,
				"method": "rhf"
			},
			{
				"type": "unocc",
				"energy": 0.07293,
				"method": "rhf"
			},
			{
				"type": "unocc",
				"energy": 0.08357,
				"method": "rhf"
			}
		],
		"cosmo_sigma_profile": { 
			"-0.025": 0.0,
			"-0.024": 0.0,
			"-0.023": 0.0,
			"-0.022": 0.0,
			"-0.021": 0.0,
			"-0.02": 0.0,
			"-0.019": 0.0,
			"-0.018": 0.0,
			"-0.017": 0.0,
			"-0.016": 0.0,
			"-0.015": 0.0,
			"-0.014": 0.0,
			"-0.013": 0.0,
			"-0.012": 0.0,
			"-0.011": 0.0,
			"-0.01": 0.0,
			"-0.009": 0.0,
			"-0.008": 0.977320240836,
			"-0.007": 8.44296605109,
			"-0.006": 15.148354137,
			"-0.005": 20.388392827,
			"-0.004": 24.3859450818,
			"-0.003": 29.3407931484,
			"-0.002": 31.3187694837,
			"-0.001": 25.8507972892,
			"0.0": 17.2250877482,
			"0.001": 18.0581912575,
			"0.002": 18.0845969844,
			"0.003": 13.5767743564,
			"0.004": 7.10583004267,
			"0.005": 5.98272822777,
			"0.006": 6.32678437065,
			"0.007": 6.55703931525,
			"0.008": 8.61313861148,
			"0.009": 6.6119326041,
			"0.01": 5.44406653501,
			"0.011": 3.35704812342,
			"0.012": 2.62415195974,
			"0.013": 2.44614922925,
			"0.014": 0.79555404118,
			"0.015": 0.0,
			"0.016": 0.0,
			"0.017": 0.0,
			"0.018": 0.0,
			"0.019": 0.0,
			"0.02": 0.0,
			"0.021": 0.0,
			"0.022": 0.0,
			"0.023": 0.0,
			"0.024": 0.0,
			"0.025": 0.0
		}
	}
}
