{
	 "smiles": "NC(=O)CN1C=C(N=N1)C(O)=O", 
	 "Tm": 472.15, 
	 "num_atms": 18, 
	 "gaussian": { 
		 "optdone": 1, 
		 "sigma_profile": "yes", 
		 "theory": "DFT", 
		 "functional": "B3LYP", 
		 "basiset": "6-31G**", 
		 "properties": { 
			 "R2extent": 2680.9244, 
			 "electric_dipole_moment_norm": 3.44423767327, 
			 "electric_quadrupole_moment_norm": 18.0466147623, 
			 "total_energy": -638.810786354, 
			 "HOMO_LUMO_gap": 0.22386, 
			 "cosmo_polarized_energy": -21.73, 
			 "cosmo_cavitation_energy": 23.93, 
			 "cosmo_dispersion_energy": -17.63, 
			 "cosmo_repulsion_energy": 1.43, 
			 "cosmo_total_nonelectrostatic_energy": 7.73, 
			 "SMD_solvation_energy": 5.4 
		},
		"coords": [
			{
				"x": -0.246098972,
				"y": 1.2000411382,
				"z": 2.9228744123,
				"element": "N" 
			},
			{
				"x": -0.3320270488,
				"y": 2.2465879765,
				"z": 2.0663904015,
				"element": "C" 
			},
			{
				"x": -1.0608979151,
				"y": 3.2139137398,
				"z": 2.2119465315,
				"element": "O" 
			},
			{
				"x": 0.619387101,
				"y": 2.2000970872,
				"z": 0.8505283348,
				"element": "C" 
			},
			{
				"x": 0.8918469861,
				"y": 0.8711363554,
				"z": 0.3116402763,
				"element": "N" 
			},
			{
				"x": 0.4546810622,
				"y": 0.3095813416,
				"z": -0.8365746038,
				"element": "C" 
			},
			{
				"x": 0.994315457,
				"y": -0.9617463105,
				"z": -0.8166253151,
				"element": "C" 
			},
			{
				"x": 1.7143065361,
				"y": -1.1076562558,
				"z": 0.3298622333,
				"element": "N" 
			},
			{
				"x": 1.6598557184,
				"y": -0.0022673961,
				"z": 1.015171319,
				"element": "N" 
			},
			{
				"x": 0.8766430373,
				"y": -2.051578896,
				"z": -1.8147004437,
				"element": "C" 
			},
			{
				"x": 1.5418741691,
				"y": -3.1756856761,
				"z": -1.4809309693,
				"element": "O" 
			},
			{
				"x": 0.2415768762,
				"y": -1.9462159907,
				"z": -2.8376575349,
				"element": "O" 
			},
			{
				"x": -0.8018492174,
				"y": 1.2346466301,
				"z": 3.7642328276,
				"element": "H" 
			},
			{
				"x": 0.4479364745,
				"y": 0.4744281666,
				"z": 2.8044612074,
				"element": "H" 
			},
			{
				"x": 0.1692256597,
				"y": 2.8075222464,
				"z": 0.0666889557,
				"element": "H" 
			},
			{
				"x": 1.5738441319,
				"y": 2.65151743,
				"z": 1.1372751679,
				"element": "H" 
			},
			{
				"x": -0.1687253999,
				"y": 0.8184480683,
				"z": -1.5542681853,
				"element": "H" 
			},
			{
				"x": 1.9817053438,
				"y": -3.0353696548,
				"z": -0.6230146151,
				"element": "H" 
			}
		],
		 "valence_orbital": [ 
			{
				"type": "occ",
				"energy": -0.31597,
				"method": "rhf"
			},
			{
				"type": "occ",
				"energy": -0.29704,
				"method": "rhf"
			},
			{
				"type": "occ",
				"energy": -0.29023,
				"method": "rhf"
			},
			{
				"type": "occ",
				"energy": -0.28267,
				"method": "rhf"
			},
			{
				"type": "occ",
				"energy": -0.27106,
				"method": "rhf"
			},
			{
				"type": "unocc",
				"energy": -0.0472,
				"method": "rhf"
			},
			{
				"type": "unocc",
				"energy": -0.04411,
				"method": "rhf"
			},
			{
				"type": "unocc",
				"energy": 0.00177,
				"method": "rhf"
			},
			{
				"type": "unocc",
				"energy": 0.06595,
				"method": "rhf"
			},
			{
				"type": "unocc",
				"energy": 0.08973,
				"method": "rhf"
			}
		],
		"cosmo_sigma_profile": { 
			"-0.025": 0.0,
			"-0.024": 0.0,
			"-0.023": 0.0,
			"-0.022": 0.0,
			"-0.021": 0.0,
			"-0.02": 0.0,
			"-0.019": 0.0,
			"-0.018": 0.0,
			"-0.017": 0.0,
			"-0.016": 0.0616963365521,
			"-0.015": 0.877587253301,
			"-0.014": 1.85743837193,
			"-0.013": 2.6816843648,
			"-0.012": 4.70646637699,
			"-0.011": 6.24383132443,
			"-0.01": 5.98092306591,
			"-0.009": 7.28409921639,
			"-0.008": 6.82124497885,
			"-0.007": 7.78465539032,
			"-0.006": 9.2832575384,
			"-0.005": 8.72884691232,
			"-0.004": 8.70205112283,
			"-0.003": 10.8777046039,
			"-0.002": 12.403707798,
			"-0.001": 7.31130322711,
			"0.0": 5.91649147607,
			"0.001": 5.87981385602,
			"0.002": 6.37915022984,
			"0.003": 5.49102136746,
			"0.004": 5.24384044315,
			"0.005": 4.63306379495,
			"0.006": 5.00362328422,
			"0.007": 6.59879601873,
			"0.008": 7.18724793531,
			"0.009": 7.07860088842,
			"0.01": 8.21785996446,
			"0.011": 7.07112147962,
			"0.012": 6.25392723688,
			"0.013": 6.96855629686,
			"0.014": 1.91834588196,
			"0.015": 0.0,
			"0.016": 0.0,
			"0.017": 0.0,
			"0.018": 0.0,
			"0.019": 0.0,
			"0.02": 0.0,
			"0.021": 0.0,
			"0.022": 0.0,
			"0.023": 0.0,
			"0.024": 0.0,
			"0.025": 0.0
		}
	}
}
