{
	 "smiles": "CC(C)(O)CCCC1=CCC(CC1)C=O", 
	 "Tm": 243.15, 
	 "num_atms": 37, 
	 "gaussian": { 
		 "optdone": 1, 
		 "sigma_profile": "yes", 
		 "theory": "DFT", 
		 "functional": "B3LYP", 
		 "basiset": "6-31G**", 
		 "properties": { 
			 "R2extent": 5591.7624, 
			 "electric_dipole_moment_norm": 2.23981515309, 
			 "electric_quadrupole_moment_norm": 18.0480793061, 
			 "total_energy": -659.083777262, 
			 "HOMO_LUMO_gap": 0.21551, 
			 "cosmo_polarized_energy": -11.67, 
			 "cosmo_cavitation_energy": 37.34, 
			 "cosmo_dispersion_energy": -25.33, 
			 "cosmo_repulsion_energy": 2.02, 
			 "cosmo_total_nonelectrostatic_energy": 14.03, 
			 "SMD_solvation_energy": 6.46 
		},
		"coords": [
			{
				"x": 0.2342116736,
				"y": -2.9388675336,
				"z": 2.7859420729,
				"element": "C" 
			},
			{
				"x": -0.4648911015,
				"y": -2.3440979608,
				"z": 1.5602684927,
				"element": "C" 
			},
			{
				"x": -1.5268903518,
				"y": -1.3163374111,
				"z": 1.9819570117,
				"element": "C" 
			},
			{
				"x": -1.1178894235,
				"y": -3.4669273248,
				"z": 0.9420614942,
				"element": "O" 
			},
			{
				"x": 0.5411749452,
				"y": -1.7568591533,
				"z": 0.5440518124,
				"element": "C" 
			},
			{
				"x": 1.4116442887,
				"y": -0.5867319744,
				"z": 1.020359253,
				"element": "C" 
			},
			{
				"x": 2.3844279445,
				"y": -0.0695772877,
				"z": -0.0656394008,
				"element": "C" 
			},
			{
				"x": 1.7239819813,
				"y": 0.5680929433,
				"z": -1.2696584011,
				"element": "C" 
			},
			{
				"x": 1.7339738059,
				"y": -0.0217224042,
				"z": -2.4741875183,
				"element": "C" 
			},
			{
				"x": 1.134006626,
				"y": 0.5666743385,
				"z": -3.7276994012,
				"element": "C" 
			},
			{
				"x": 0.8285008243,
				"y": 2.0723528493,
				"z": -3.5637342554,
				"element": "C" 
			},
			{
				"x": 0.1602372696,
				"y": 2.3460438575,
				"z": -2.2151691507,
				"element": "C" 
			},
			{
				"x": 1.0773329348,
				"y": 1.924149135,
				"z": -1.0597484492,
				"element": "C" 
			},
			{
				"x": 0.0278075447,
				"y": 2.5788268401,
				"z": -4.7440609716,
				"element": "C" 
			},
			{
				"x": -1.0190669927,
				"y": 3.184444273,
				"z": -4.6663120563,
				"element": "O" 
			},
			{
				"x": -0.499448288,
				"y": -3.4452556973,
				"z": 3.4198077773,
				"element": "H" 
			},
			{
				"x": 0.981591519,
				"y": -3.6761890789,
				"z": 2.4774321388,
				"element": "H" 
			},
			{
				"x": 0.728630566,
				"y": -2.1659271461,
				"z": 3.3808694556,
				"element": "H" 
			},
			{
				"x": -2.2763517281,
				"y": -1.7985216653,
				"z": 2.616262259,
				"element": "H" 
			},
			{
				"x": -1.0942719315,
				"y": -0.478834769,
				"z": 2.5383050134,
				"element": "H" 
			},
			{
				"x": -2.0392293886,
				"y": -0.9036104139,
				"z": 1.1038659858,
				"element": "H" 
			},
			{
				"x": -1.5639300863,
				"y": -3.1420778917,
				"z": 0.1480072587,
				"element": "H" 
			},
			{
				"x": -0.0223566496,
				"y": -1.4390897816,
				"z": -0.344993289,
				"element": "H" 
			},
			{
				"x": 1.1875883914,
				"y": -2.5812352035,
				"z": 0.2157644907,
				"element": "H" 
			},
			{
				"x": 2.0090198455,
				"y": -0.896727088,
				"z": 1.8860053316,
				"element": "H" 
			},
			{
				"x": 0.7793443803,
				"y": 0.2392710813,
				"z": 1.3680789509,
				"element": "H" 
			},
			{
				"x": 3.0184544574,
				"y": -0.901139885,
				"z": -0.3966376711,
				"element": "H" 
			},
			{
				"x": 3.0549985074,
				"y": 0.6667977915,
				"z": 0.4005944991,
				"element": "H" 
			},
			{
				"x": 2.2074636828,
				"y": -0.9971054654,
				"z": -2.5810962013,
				"element": "H" 
			},
			{
				"x": 1.8139479707,
				"y": 0.4093532998,
				"z": -4.5755184011,
				"element": "H" 
			},
			{
				"x": 0.21012015,
				"y": 0.0252474128,
				"z": -3.98588029,
				"element": "H" 
			},
			{
				"x": 1.7949171727,
				"y": 2.6033873355,
				"z": -3.6046408015,
				"element": "H" 
			},
			{
				"x": -0.1100380968,
				"y": 3.4029436222,
				"z": -2.1326113609,
				"element": "H" 
			},
			{
				"x": -0.7808033593,
				"y": 1.7843483135,
				"z": -2.1695430405,
				"element": "H" 
			},
			{
				"x": 0.5090489934,
				"y": 1.9253038495,
				"z": -0.1209980573,
				"element": "H" 
			},
			{
				"x": 1.8720669181,
				"y": 2.672851055,
				"z": -0.9149211002,
				"element": "H" 
			},
			{
				"x": 0.4755750044,
				"y": 2.3481471376,
				"z": -5.7396834801,
				"element": "H" 
			}
		],
		 "valence_orbital": [ 
			{
				"type": "occ",
				"energy": -0.31167,
				"method": "rhf"
			},
			{
				"type": "occ",
				"energy": -0.30682,
				"method": "rhf"
			},
			{
				"type": "occ",
				"energy": -0.25898,
				"method": "rhf"
			},
			{
				"type": "occ",
				"energy": -0.25132,
				"method": "rhf"
			},
			{
				"type": "occ",
				"energy": -0.23863,
				"method": "rhf"
			},
			{
				"type": "unocc",
				"energy": -0.02312,
				"method": "rhf"
			},
			{
				"type": "unocc",
				"energy": 0.01877,
				"method": "rhf"
			},
			{
				"type": "unocc",
				"energy": 0.06837,
				"method": "rhf"
			},
			{
				"type": "unocc",
				"energy": 0.08829,
				"method": "rhf"
			},
			{
				"type": "unocc",
				"energy": 0.09404,
				"method": "rhf"
			}
		],
		"cosmo_sigma_profile": { 
			"-0.025": 0.0,
			"-0.024": 0.0,
			"-0.023": 0.0,
			"-0.022": 0.0,
			"-0.021": 0.0,
			"-0.02": 0.0,
			"-0.019": 0.0,
			"-0.018": 0.0,
			"-0.017": 0.0,
			"-0.016": 0.0,
			"-0.015": 0.0256758434008,
			"-0.014": 0.605823906343,
			"-0.013": 1.07996520783,
			"-0.012": 0.659862509374,
			"-0.011": 0.78193070922,
			"-0.01": 0.963467703654,
			"-0.009": 1.4302964098,
			"-0.008": 0.858778832975,
			"-0.007": 0.902598934236,
			"-0.006": 5.92373945418,
			"-0.005": 11.4104992253,
			"-0.004": 15.6782008876,
			"-0.003": 33.2992201481,
			"-0.002": 44.1866399368,
			"-0.001": 42.9320179396,
			"0.0": 34.5838767139,
			"0.001": 26.8394675763,
			"0.002": 13.3525173749,
			"0.003": 7.57942305248,
			"0.004": 7.06662689436,
			"0.005": 4.12234677649,
			"0.006": 4.10270816118,
			"0.007": 2.77569202697,
			"0.008": 3.45481077659,
			"0.009": 3.39313208958,
			"0.01": 4.61824935425,
			"0.011": 4.52962912729,
			"0.012": 4.78847232065,
			"0.013": 2.36766057214,
			"0.014": 1.76547656497,
			"0.015": 1.68273708825,
			"0.016": 0.0258359712122,
			"0.017": 0.0,
			"0.018": 0.0,
			"0.019": 0.0,
			"0.02": 0.0,
			"0.021": 0.0,
			"0.022": 0.0,
			"0.023": 0.0,
			"0.024": 0.0,
			"0.025": 0.0
		}
	}
}
