{
	 "smiles": "CC(Cl)C(=O)NC1=CC(C)=NO1", 
	 "Tm": 352.15, 
	 "num_atms": 21, 
	 "gaussian": { 
		 "optdone": 1, 
		 "sigma_profile": "yes", 
		 "theory": "DFT", 
		 "functional": "B3LYP", 
		 "basiset": "6-31G**", 
		 "properties": { 
			 "R2extent": 2891.0026, 
			 "electric_dipole_moment_norm": 3.02489363449, 
			 "electric_quadrupole_moment_norm": 14.9620494205, 
			 "total_energy": -992.278821423, 
			 "HOMO_LUMO_gap": 0.19873, 
			 "cosmo_polarized_energy": -13.9, 
			 "cosmo_cavitation_energy": 27.26, 
			 "cosmo_dispersion_energy": -19.63, 
			 "cosmo_repulsion_energy": 1.6, 
			 "cosmo_total_nonelectrostatic_energy": 9.23, 
			 "SMD_solvation_energy": 4.95 
		},
		"coords": [
			{
				"x": -1.008034321,
				"y": -0.7735451693,
				"z": 3.9110204785,
				"element": "C" 
			},
			{
				"x": -0.6864964506,
				"y": -0.3282710796,
				"z": 2.4963938695,
				"element": "C" 
			},
			{
				"x": -1.2255878862,
				"y": 1.4076709142,
				"z": 2.2335135133,
				"element": "Cl" 
			},
			{
				"x": -1.4129271208,
				"y": -1.1829832585,
				"z": 1.4529120843,
				"element": "C" 
			},
			{
				"x": -2.3389130655,
				"y": -1.9164599029,
				"z": 1.7468021111,
				"element": "O" 
			},
			{
				"x": -1.0094548503,
				"y": -1.1026942698,
				"z": 0.1223438454,
				"element": "N" 
			},
			{
				"x": 0.0116458903,
				"y": -0.4010673426,
				"z": -0.4952369968,
				"element": "C" 
			},
			{
				"x": 0.1311617673,
				"y": 0.0566248457,
				"z": -1.7760387117,
				"element": "C" 
			},
			{
				"x": 1.4393706859,
				"y": 0.6240722841,
				"z": -1.8057066855,
				"element": "C" 
			},
			{
				"x": 2.1323832508,
				"y": 1.2959259302,
				"z": -2.9500795374,
				"element": "C" 
			},
			{
				"x": 2.0497798218,
				"y": 0.5217035106,
				"z": -0.6455938976,
				"element": "N" 
			},
			{
				"x": 1.1373020969,
				"y": -0.1561161889,
				"z": 0.1975333965,
				"element": "O" 
			},
			{
				"x": -0.5201697462,
				"y": -0.1139255394,
				"z": 4.6314043555,
				"element": "H" 
			},
			{
				"x": -2.0849471383,
				"y": -0.7742732296,
				"z": 4.0833589646,
				"element": "H" 
			},
			{
				"x": -0.6387882012,
				"y": -1.79339901,
				"z": 4.060586214,
				"element": "H" 
			},
			{
				"x": 0.3852946946,
				"y": -0.312360591,
				"z": 2.306836962,
				"element": "H" 
			},
			{
				"x": -1.6308462462,
				"y": -1.6134241135,
				"z": -0.4924882925,
				"element": "H" 
			},
			{
				"x": -0.6024597254,
				"y": 0.0231016307,
				"z": -2.5664480802,
				"element": "H" 
			},
			{
				"x": 1.5610497622,
				"y": 2.1637002867,
				"z": -3.2952212008,
				"element": "H" 
			},
			{
				"x": 2.2397002891,
				"y": 0.61037013,
				"z": -3.7969814423,
				"element": "H" 
			},
			{
				"x": 3.1246364927,
				"y": 1.6302501629,
				"z": -2.6413109501,
				"element": "H" 
			}
		],
		 "valence_orbital": [ 
			{
				"type": "occ",
				"energy": -0.31169,
				"method": "rhf"
			},
			{
				"type": "occ",
				"energy": -0.30182,
				"method": "rhf"
			},
			{
				"type": "occ",
				"energy": -0.29651,
				"method": "rhf"
			},
			{
				"type": "occ",
				"energy": -0.27759,
				"method": "rhf"
			},
			{
				"type": "occ",
				"energy": -0.24392,
				"method": "rhf"
			},
			{
				"type": "unocc",
				"energy": -0.04519,
				"method": "rhf"
			},
			{
				"type": "unocc",
				"energy": -0.0013,
				"method": "rhf"
			},
			{
				"type": "unocc",
				"energy": 0.04129,
				"method": "rhf"
			},
			{
				"type": "unocc",
				"energy": 0.05268,
				"method": "rhf"
			},
			{
				"type": "unocc",
				"energy": 0.07526,
				"method": "rhf"
			}
		],
		"cosmo_sigma_profile": { 
			"-0.025": 0.0,
			"-0.024": 0.0,
			"-0.023": 0.0,
			"-0.022": 0.0,
			"-0.021": 0.0,
			"-0.02": 0.0,
			"-0.019": 0.0,
			"-0.018": 0.0,
			"-0.017": 0.243960433963,
			"-0.016": 1.17165613261,
			"-0.015": 1.36672894348,
			"-0.014": 1.10690804785,
			"-0.013": 1.04211508572,
			"-0.012": 0.865044641018,
			"-0.011": 0.934026735754,
			"-0.01": 1.09633941471,
			"-0.009": 2.43622923555,
			"-0.008": 3.68597271406,
			"-0.007": 5.87770775891,
			"-0.006": 8.35249967497,
			"-0.005": 14.336164618,
			"-0.004": 16.3315308527,
			"-0.003": 15.3464166294,
			"-0.002": 17.0987649339,
			"-0.001": 20.8430549024,
			"0.0": 14.4296504662,
			"0.001": 12.9061695564,
			"0.002": 12.0144445601,
			"0.003": 10.915760263,
			"0.004": 11.6074585418,
			"0.005": 10.9866735865,
			"0.006": 6.17924125768,
			"0.007": 4.41869478089,
			"0.008": 3.14479555452,
			"0.009": 3.66757770668,
			"0.01": 3.38932145955,
			"0.011": 6.13748575076,
			"0.012": 3.88053118073,
			"0.013": 1.545291959,
			"0.014": 0.979960805627,
			"0.015": 0.232488266651,
			"0.016": 0.0,
			"0.017": 0.0,
			"0.018": 0.0,
			"0.019": 0.0,
			"0.02": 0.0,
			"0.021": 0.0,
			"0.022": 0.0,
			"0.023": 0.0,
			"0.024": 0.0,
			"0.025": 0.0
		}
	}
}
