{
	 "smiles": "OC(=O)CC1=CC=C(OCCOC2=CC=CC=C2)C=C1", 
	 "Tm": 443.15, 
	 "num_atms": 36, 
	 "gaussian": { 
		 "optdone": 1, 
		 "sigma_profile": "yes", 
		 "theory": "DFT", 
		 "functional": "B3LYP", 
		 "basiset": "6-31G**", 
		 "properties": { 
			 "R2extent": 11543.8963, 
			 "electric_dipole_moment_norm": 3.05750092723, 
			 "electric_quadrupole_moment_norm": 15.3874537968, 
			 "total_energy": -920.238954694, 
			 "HOMO_LUMO_gap": 0.21103, 
			 "cosmo_polarized_energy": -16.74, 
			 "cosmo_cavitation_energy": 41.32, 
			 "cosmo_dispersion_energy": -29.57, 
			 "cosmo_repulsion_energy": 2.3, 
			 "cosmo_total_nonelectrostatic_energy": 14.05, 
			 "SMD_solvation_energy": 8.27 
		},
		"coords": [
			{
				"x": -0.7295338198,
				"y": -6.0457250274,
				"z": 1.7851731259,
				"element": "O" 
			},
			{
				"x": -1.7848396902,
				"y": -5.7076404301,
				"z": 1.0072519412,
				"element": "C" 
			},
			{
				"x": -2.9205537549,
				"y": -5.6652220382,
				"z": 1.4280825828,
				"element": "O" 
			},
			{
				"x": -1.3636102847,
				"y": -5.3605667173,
				"z": -0.4088816172,
				"element": "C" 
			},
			{
				"x": -1.1830451694,
				"y": -3.8591616739,
				"z": -0.5730501158,
				"element": "C" 
			},
			{
				"x": -2.2704494982,
				"y": -2.985719499,
				"z": -0.4031972254,
				"element": "C" 
			},
			{
				"x": -2.1155801238,
				"y": -1.6152948411,
				"z": -0.5559008823,
				"element": "C" 
			},
			{
				"x": -0.860852726,
				"y": -1.0787078323,
				"z": -0.8845660518,
				"element": "C" 
			},
			{
				"x": -0.815734638,
				"y": 0.2797054266,
				"z": -1.0204291008,
				"element": "O" 
			},
			{
				"x": 0.4283546582,
				"y": 0.8910486237,
				"z": -1.3265776367,
				"element": "C" 
			},
			{
				"x": 0.2183062363,
				"y": 2.3899680604,
				"z": -1.3799382538,
				"element": "C" 
			},
			{
				"x": 0.0097733381,
				"y": 2.8546019517,
				"z": -0.055868314,
				"element": "O" 
			},
			{
				"x": -0.2359330136,
				"y": 4.1856655031,
				"z": 0.1403798191,
				"element": "C" 
			},
			{
				"x": -0.2706107223,
				"y": 5.1457786266,
				"z": -0.8776056679,
				"element": "C" 
			},
			{
				"x": -0.5277913421,
				"y": 6.4821561287,
				"z": -0.5527361479,
				"element": "C" 
			},
			{
				"x": -0.7485292655,
				"y": 6.8689456311,
				"z": 0.766775258,
				"element": "C" 
			},
			{
				"x": -0.7117008647,
				"y": 5.901274738,
				"z": 1.7773047083,
				"element": "C" 
			},
			{
				"x": -0.4582036095,
				"y": 4.5691291593,
				"z": 1.4713565417,
				"element": "C" 
			},
			{
				"x": 0.2325918932,
				"y": -1.9339120183,
				"z": -1.0531778048,
				"element": "C" 
			},
			{
				"x": 0.0597108881,
				"y": -3.3128598131,
				"z": -0.8924560165,
				"element": "C" 
			},
			{
				"x": -1.0904520288,
				"y": -6.204824318,
				"z": 2.6740337691,
				"element": "H" 
			},
			{
				"x": -0.4351054496,
				"y": -5.8815740694,
				"z": -0.6529221588,
				"element": "H" 
			},
			{
				"x": -2.1544346766,
				"y": -5.725124293,
				"z": -1.0720834425,
				"element": "H" 
			},
			{
				"x": -3.2423878753,
				"y": -3.3908747167,
				"z": -0.1367666083,
				"element": "H" 
			},
			{
				"x": -2.9509495871,
				"y": -0.9352987839,
				"z": -0.4250411861,
				"element": "H" 
			},
			{
				"x": 0.7997428333,
				"y": 0.5449056477,
				"z": -2.3023641004,
				"element": "H" 
			},
			{
				"x": 1.1799905791,
				"y": 0.650794061,
				"z": -0.5628503608,
				"element": "H" 
			},
			{
				"x": 1.1090630664,
				"y": 2.8611542428,
				"z": -1.8210931251,
				"element": "H" 
			},
			{
				"x": -0.6469046885,
				"y": 2.6189543916,
				"z": -2.016443267,
				"element": "H" 
			},
			{
				"x": -0.1024000552,
				"y": 4.8711510815,
				"z": -1.912269774,
				"element": "H" 
			},
			{
				"x": -0.5538119166,
				"y": 7.2216174452,
				"z": -1.3483786547,
				"element": "H" 
			},
			{
				"x": -0.9474517316,
				"y": 7.9083393614,
				"z": 1.008569507,
				"element": "H" 
			},
			{
				"x": -0.8830431709,
				"y": 6.1868775781,
				"z": 2.8113982158,
				"element": "H" 
			},
			{
				"x": -0.4280385413,
				"y": 3.8047864806,
				"z": 2.2410041081,
				"element": "H" 
			},
			{
				"x": 1.2135731433,
				"y": -1.548747246,
				"z": -1.3047599724,
				"element": "H" 
			},
			{
				"x": 0.9172416083,
				"y": -3.9679008216,
				"z": -1.0234720921,
				"element": "H" 
			}
		],
		 "valence_orbital": [ 
			{
				"type": "occ",
				"energy": -0.27374,
				"method": "rhf"
			},
			{
				"type": "occ",
				"energy": -0.25229,
				"method": "rhf"
			},
			{
				"type": "occ",
				"energy": -0.24892,
				"method": "rhf"
			},
			{
				"type": "occ",
				"energy": -0.22071,
				"method": "rhf"
			},
			{
				"type": "occ",
				"energy": -0.21644,
				"method": "rhf"
			},
			{
				"type": "unocc",
				"energy": -0.00541,
				"method": "rhf"
			},
			{
				"type": "unocc",
				"energy": -0.00198,
				"method": "rhf"
			},
			{
				"type": "unocc",
				"energy": 0.00046,
				"method": "rhf"
			},
			{
				"type": "unocc",
				"energy": 0.01441,
				"method": "rhf"
			},
			{
				"type": "unocc",
				"energy": 0.02411,
				"method": "rhf"
			}
		],
		"cosmo_sigma_profile": { 
			"-0.025": 0.0,
			"-0.024": 0.0,
			"-0.023": 0.0,
			"-0.022": 0.0,
			"-0.021": 0.0,
			"-0.02": 0.0,
			"-0.019": 0.063646086756,
			"-0.018": 0.650081947829,
			"-0.017": 0.960732431087,
			"-0.016": 0.897295554445,
			"-0.015": 0.680248634157,
			"-0.014": 0.615883877687,
			"-0.013": 0.345632691121,
			"-0.012": 1.04543218609,
			"-0.011": 1.16040099021,
			"-0.01": 0.574003116487,
			"-0.009": 0.267517298246,
			"-0.008": 0.542921627375,
			"-0.007": 4.81166805284,
			"-0.006": 29.4030064206,
			"-0.005": 32.3589834625,
			"-0.004": 29.6762737621,
			"-0.003": 23.5979542928,
			"-0.002": 17.677401742,
			"-0.001": 17.533050396,
			"0.0": 14.656917683,
			"0.001": 16.3498305497,
			"0.002": 18.3526038191,
			"0.003": 20.9490299683,
			"0.004": 24.077374974,
			"0.005": 24.563027304,
			"0.006": 15.522348295,
			"0.007": 6.91922128167,
			"0.008": 4.24210261696,
			"0.009": 6.01710426112,
			"0.01": 4.53332665739,
			"0.011": 4.58643862104,
			"0.012": 4.24006822832,
			"0.013": 0.35756283893,
			"0.014": 0.0,
			"0.015": 0.0,
			"0.016": 0.0,
			"0.017": 0.0,
			"0.018": 0.0,
			"0.019": 0.0,
			"0.02": 0.0,
			"0.021": 0.0,
			"0.022": 0.0,
			"0.023": 0.0,
			"0.024": 0.0,
			"0.025": 0.0
		}
	}
}
