{
	 "smiles": "CN1CC[C@@]23[C@H]4OC5=C2C(C[C@@H]1[C@@H]3CC[C@@H]4O)=CC=C5O", 
	 "Tm": 430.15, 
	 "num_atms": 42, 
	 "gaussian": { 
		 "optdone": 1, 
		 "sigma_profile": "yes", 
		 "theory": "DFT", 
		 "functional": "B3LYP", 
		 "basiset": "6-31G**", 
		 "properties": { 
			 "R2extent": 5914.3264, 
			 "electric_dipole_moment_norm": 4.20654060244, 
			 "electric_quadrupole_moment_norm": 11.0060943522, 
			 "total_energy": -940.854227272, 
			 "HOMO_LUMO_gap": 0.20472, 
			 "cosmo_polarized_energy": -15.15, 
			 "cosmo_cavitation_energy": 38.5, 
			 "cosmo_dispersion_energy": -28.05, 
			 "cosmo_repulsion_energy": 2.1, 
			 "cosmo_total_nonelectrostatic_energy": 12.55, 
			 "SMD_solvation_energy": 4.39 
		},
		"coords": [
			{
				"x": 0.2062742472,
				"y": -0.1275601009,
				"z": 3.6662881412,
				"element": "C" 
			},
			{
				"x": -0.4142681211,
				"y": 0.1897208733,
				"z": 2.3934623472,
				"element": "N" 
			},
			{
				"x": -1.7838909007,
				"y": -0.2843212747,
				"z": 2.2828750031,
				"element": "C" 
			},
			{
				"x": -2.4284627294,
				"y": 0.2470831386,
				"z": 0.9993019623,
				"element": "C" 
			},
			{
				"x": -1.5113278346,
				"y": 0.0684964543,
				"z": -0.259316938,
				"element": "C" 
			},
			{
				"x": -2.3430914568,
				"y": -0.3251917354,
				"z": -1.525510762,
				"element": "C" 
			},
			{
				"x": -2.4939578495,
				"y": 0.895115486,
				"z": -2.3221527034,
				"element": "O" 
			},
			{
				"x": -1.5593867826,
				"y": 1.7932243395,
				"z": -1.8677648431,
				"element": "C" 
			},
			{
				"x": -0.9041797131,
				"y": 1.3700786666,
				"z": -0.7277861748,
				"element": "C" 
			},
			{
				"x": 0.2442650976,
				"y": 1.9891389552,
				"z": -0.2531049379,
				"element": "C" 
			},
			{
				"x": 1.097307471,
				"y": 1.2469167572,
				"z": 0.7585714056,
				"element": "C" 
			},
			{
				"x": 0.4623627042,
				"y": -0.0940569037,
				"z": 1.2301572212,
				"element": "C" 
			},
			{
				"x": -0.3180156137,
				"y": -0.8420480237,
				"z": 0.1049933093,
				"element": "C" 
			},
			{
				"x": 0.5779234891,
				"y": -1.2125270682,
				"z": -1.1098840139,
				"element": "C" 
			},
			{
				"x": -0.1611994723,
				"y": -1.2099771176,
				"z": -2.4743477975,
				"element": "C" 
			},
			{
				"x": -1.6675062283,
				"y": -1.4431293164,
				"z": -2.3261533389,
				"element": "C" 
			},
			{
				"x": -2.3399758902,
				"y": -1.5502611113,
				"z": -3.5705895515,
				"element": "O" 
			},
			{
				"x": 0.6164549938,
				"y": 3.1826113444,
				"z": -0.8961934937,
				"element": "C" 
			},
			{
				"x": -0.1087021544,
				"y": 3.6750827848,
				"z": -1.9878099417,
				"element": "C" 
			},
			{
				"x": -1.1977034197,
				"y": 2.9687645582,
				"z": -2.5204885831,
				"element": "C" 
			},
			{
				"x": -1.828179508,
				"y": 3.4098386229,
				"z": -3.6507018443,
				"element": "O" 
			},
			{
				"x": 0.3625971622,
				"y": -1.2130468231,
				"z": 3.8263500475,
				"element": "H" 
			},
			{
				"x": -0.4154609011,
				"y": 0.246035514,
				"z": 4.4871218864,
				"element": "H" 
			},
			{
				"x": 1.1823319721,
				"y": 0.3635422163,
				"z": 3.7412970787,
				"element": "H" 
			},
			{
				"x": -1.8657607176,
				"y": -1.3897386739,
				"z": 2.3256199316,
				"element": "H" 
			},
			{
				"x": -2.3427246797,
				"y": 0.0892584541,
				"z": 3.149187951,
				"element": "H" 
			},
			{
				"x": -3.3783943523,
				"y": -0.2776172109,
				"z": 0.8455914114,
				"element": "H" 
			},
			{
				"x": -2.6625121433,
				"y": 1.3087349903,
				"z": 1.1242006078,
				"element": "H" 
			},
			{
				"x": -3.3619947524,
				"y": -0.6341501923,
				"z": -1.2802952365,
				"element": "H" 
			},
			{
				"x": 1.2842694128,
				"y": 1.852077193,
				"z": 1.6529447324,
				"element": "H" 
			},
			{
				"x": 2.0817661348,
				"y": 1.059120292,
				"z": 0.3075063555,
				"element": "H" 
			},
			{
				"x": 1.2799103203,
				"y": -0.7587878639,
				"z": 1.5507557587,
				"element": "H" 
			},
			{
				"x": -0.693404212,
				"y": -1.7768870146,
				"z": 0.5368442948,
				"element": "H" 
			},
			{
				"x": 1.4285581576,
				"y": -0.5297756093,
				"z": -1.180501337,
				"element": "H" 
			},
			{
				"x": 1.0038402216,
				"y": -2.2045634138,
				"z": -0.9212506926,
				"element": "H" 
			},
			{
				"x": -0.0119543222,
				"y": -0.2612965156,
				"z": -2.9985422545,
				"element": "H" 
			},
			{
				"x": 0.2599644728,
				"y": -1.9910049543,
				"z": -3.1207965772,
				"element": "H" 
			},
			{
				"x": -1.8194269678,
				"y": -2.3621990396,
				"z": -1.7292806913,
				"element": "H" 
			},
			{
				"x": -1.9031637542,
				"y": -2.2435261195,
				"z": -4.0817176384,
				"element": "H" 
			},
			{
				"x": 1.5014096469,
				"y": 3.7220285516,
				"z": -0.5679474374,
				"element": "H" 
			},
			{
				"x": 0.1956120606,
				"y": 4.5911387013,
				"z": -2.484648208,
				"element": "H" 
			},
			{
				"x": -2.4924030881,
				"y": 2.7487581891,
				"z": -3.8934844489,
				"element": "H" 
			}
		],
		 "valence_orbital": [ 
			{
				"type": "occ",
				"energy": -0.28872,
				"method": "rhf"
			},
			{
				"type": "occ",
				"energy": -0.26745,
				"method": "rhf"
			},
			{
				"type": "occ",
				"energy": -0.21655,
				"method": "rhf"
			},
			{
				"type": "occ",
				"energy": -0.20293,
				"method": "rhf"
			},
			{
				"type": "occ",
				"energy": -0.19271,
				"method": "rhf"
			},
			{
				"type": "unocc",
				"energy": 0.01201,
				"method": "rhf"
			},
			{
				"type": "unocc",
				"energy": 0.02264,
				"method": "rhf"
			},
			{
				"type": "unocc",
				"energy": 0.06392,
				"method": "rhf"
			},
			{
				"type": "unocc",
				"energy": 0.07051,
				"method": "rhf"
			},
			{
				"type": "unocc",
				"energy": 0.08738,
				"method": "rhf"
			}
		],
		"cosmo_sigma_profile": { 
			"-0.025": 0.0,
			"-0.024": 0.0,
			"-0.023": 0.0,
			"-0.022": 0.0,
			"-0.021": 0.0,
			"-0.02": 0.0,
			"-0.019": 0.0,
			"-0.018": 0.0,
			"-0.017": 0.0,
			"-0.016": 0.369616970569,
			"-0.015": 1.61466048822,
			"-0.014": 1.67590173802,
			"-0.013": 1.59526672175,
			"-0.012": 1.09066187249,
			"-0.011": 1.62466976986,
			"-0.01": 1.69079051029,
			"-0.009": 1.98759084652,
			"-0.008": 1.79217519824,
			"-0.007": 1.86318996282,
			"-0.006": 3.99597570399,
			"-0.005": 10.8624162977,
			"-0.004": 19.3374766253,
			"-0.003": 35.1723186683,
			"-0.002": 42.5520328699,
			"-0.001": 39.9150704321,
			"0.0": 33.8128972021,
			"0.001": 14.8485821652,
			"0.002": 10.168217064,
			"0.003": 8.64177445584,
			"0.004": 10.2713935969,
			"0.005": 10.3815982907,
			"0.006": 10.2118209024,
			"0.007": 6.47362495676,
			"0.008": 3.83054587934,
			"0.009": 4.18334317952,
			"0.01": 4.93986986451,
			"0.011": 3.75062333907,
			"0.012": 3.71123325522,
			"0.013": 2.08655138634,
			"0.014": 2.55928592247,
			"0.015": 1.32178149966,
			"0.016": 0.272384146994,
			"0.017": 0.0,
			"0.018": 0.0,
			"0.019": 0.0,
			"0.02": 0.0,
			"0.021": 0.0,
			"0.022": 0.0,
			"0.023": 0.0,
			"0.024": 0.0,
			"0.025": 0.0
		}
	}
}
