{
	 "smiles": "FC(F)(F)C1=CC(Br)=C(I)C(Cl)=C1", 
	 "Tm": 303.15, 
	 "num_atms": 15, 
	 "gaussian": { 
		 "optdone": 1, 
		 "sigma_profile": "no", 
		 "theory": "DFT", 
		 "functional": "B3LYP", 
		 "basiset": "6-31G**", 
		 "properties": { 
			 "R2extent": 4732.3524, 
			 "electric_dipole_moment_norm": 0.399056011106, 
			 "electric_quadrupole_moment_norm": 2.92778069022, 
			 "total_energy": -3610.44559454, 
			 "HOMO_LUMO_gap": 0.19259, 
			 "cosmo_polarized_energy": -80012.93, 
			 "cosmo_cavitation_energy": 28.2, 
			 "cosmo_dispersion_energy": -21.91, 
			 "cosmo_repulsion_energy": 1.64, 
			 "cosmo_total_nonelectrostatic_energy": 7.93, 
			 "SMD_solvation_energy": 3.88 
		},
		"coords": [
			{
				"x": -1.7692279051,
				"y": -0.9196450294,
				"z": -2.2092015792,
				"element": "F" 
			},
			{
				"x": -1.5549164777,
				"y": 0.3258121345,
				"z": -1.7369274569,
				"element": "C" 
			},
			{
				"x": -0.8447710213,
				"y": 0.991064775,
				"z": -2.6734317716,
				"element": "F" 
			},
			{
				"x": -2.7512308303,
				"y": 0.9403593139,
				"z": -1.6324393264,
				"element": "F" 
			},
			{
				"x": -0.8277422233,
				"y": 0.2996404695,
				"z": -0.415645852,
				"element": "C" 
			},
			{
				"x": -1.0183131126,
				"y": 1.3311037406,
				"z": 0.4994334452,
				"element": "C" 
			},
			{
				"x": -0.303999192,
				"y": 1.3359449659,
				"z": 1.6969735987,
				"element": "C" 
			},
			{
				"x": -0.6414654728,
				"y": 2.7874849609,
				"z": 2.8794986818,
				"element": "Br" 
			},
			{
				"x": 0.6123438945,
				"y": 0.3122921097,
				"z": 2.0013398808,
				"element": "C" 
			},
			{
				"x": 1.6965462336,
				"y": 0.30568257,
				"z": 3.8049288382,
				"element": "I" 
			},
			{
				"x": 0.7832973471,
				"y": -0.7192250421,
				"z": 1.0571162648,
				"element": "C" 
			},
			{
				"x": 1.8869965377,
				"y": -2.0437792616,
				"z": 1.3285856121,
				"element": "Cl" 
			},
			{
				"x": 0.0707252944,
				"y": -0.7270393319,
				"z": -0.1413453038,
				"element": "C" 
			},
			{
				"x": -1.7239889465,
				"y": 2.1252389213,
				"z": 0.2926025136,
				"element": "H" 
			},
			{
				"x": 0.2157458742,
				"y": -1.5373352964,
				"z": -0.8447875453,
				"element": "H" 
			}
		],
		 "valence_orbital": [ 
			{
				"type": "occ",
				"energy": -0.3174,
				"method": "rhf"
			},
			{
				"type": "occ",
				"energy": -0.31124,
				"method": "rhf"
			},
			{
				"type": "occ",
				"energy": -0.26984,
				"method": "rhf"
			},
			{
				"type": "occ",
				"energy": -0.26933,
				"method": "rhf"
			},
			{
				"type": "occ",
				"energy": -0.26323,
				"method": "rhf"
			},
			{
				"type": "unocc",
				"energy": -0.07064,
				"method": "rhf"
			},
			{
				"type": "unocc",
				"energy": -0.06027,
				"method": "rhf"
			},
			{
				"type": "unocc",
				"energy": -0.04896,
				"method": "rhf"
			},
			{
				"type": "unocc",
				"energy": -0.00302,
				"method": "rhf"
			},
			{
				"type": "unocc",
				"energy": 0.02067,
				"method": "rhf"
			}
		],
		"cosmo_sigma_profile": { 
			"0.0": 0.0,
			"0.0": 0.0,
			"0.0": 0.0,
			"0.0": 0.0,
			"0.0": 0.0,
			"0.0": 0.0,
			"0.0": 0.0,
			"0.0": 0.0,
			"0.0": 0.0,
			"0.0": 0.0,
			"0.0": 0.0,
			"0.0": 0.0,
			"0.0": 0.0,
			"0.0": 0.0,
			"0.0": 0.0,
			"0.0": 0.0,
			"0.0": 0.0,
			"0.0": 0.0,
			"0.0": 0.0,
			"0.0": 0.0,
			"0.0": 0.0,
			"0.0": 0.0,
			"0.0": 0.0,
			"0.0": 0.0,
			"0.0": 0.0,
			"0.0": 0.0,
			"0.0": 0.0,
			"0.0": 0.0,
			"0.0": 0.0,
			"0.0": 0.0,
			"0.0": 0.0,
			"0.0": 0.0,
			"0.0": 0.0,
			"0.0": 0.0,
			"0.0": 0.0,
			"0.0": 0.0,
			"0.0": 0.0,
			"0.0": 0.0,
			"0.0": 0.0,
			"0.0": 0.0,
			"0.0": 0.0,
			"0.0": 0.0,
			"0.0": 0.0,
			"0.0": 0.0,
			"0.0": 0.0,
			"0.0": 0.0,
			"0.0": 0.0,
			"0.0": 0.0,
			"0.0": 0.0,
			"0.0": 0.0,
			"0.0": 0.0
		}
	}
}
