{
	 "smiles": "CNC1=CC=C(C=C1)C(O)=O", 
	 "Tm": 435.15, 
	 "num_atms": 20, 
	 "gaussian": { 
		 "optdone": 1, 
		 "sigma_profile": "yes", 
		 "theory": "DFT", 
		 "functional": "B3LYP", 
		 "basiset": "6-31G**", 
		 "properties": { 
			 "R2extent": 2812.7081, 
			 "electric_dipole_moment_norm": 7.34644035571, 
			 "electric_quadrupole_moment_norm": 19.2655782592, 
			 "total_energy": -515.485069177, 
			 "HOMO_LUMO_gap": 0.18128, 
			 "cosmo_polarized_energy": -18.08, 
			 "cosmo_cavitation_energy": 24.03, 
			 "cosmo_dispersion_energy": -17.95, 
			 "cosmo_repulsion_energy": 1.43, 
			 "cosmo_total_nonelectrostatic_energy": 7.51, 
			 "SMD_solvation_energy": 4.7 
		},
		"coords": [
			{
				"x": -0.7389878164,
				"y": -1.0746001323,
				"z": 2.484332061,
				"element": "C" 
			},
			{
				"x": 0.1922486099,
				"y": 0.0040065457,
				"z": 2.2230772202,
				"element": "N" 
			},
			{
				"x": 0.3775497165,
				"y": 0.5638738435,
				"z": 0.9800090468,
				"element": "C" 
			},
			{
				"x": 1.1677583679,
				"y": 1.7278424825,
				"z": 0.845666399,
				"element": "C" 
			},
			{
				"x": 1.3837387255,
				"y": 2.2973922148,
				"z": -0.3986559132,
				"element": "C" 
			},
			{
				"x": 0.8262707761,
				"y": 1.7378491117,
				"z": -1.5620081442,
				"element": "C" 
			},
			{
				"x": 0.0604683062,
				"y": 0.5704430592,
				"z": -1.4282590959,
				"element": "C" 
			},
			{
				"x": -0.1747255007,
				"y": -0.0057441377,
				"z": -0.1884156676,
				"element": "C" 
			},
			{
				"x": 1.0261705464,
				"y": 2.2890616892,
				"z": -2.9303583283,
				"element": "C" 
			},
			{
				"x": 1.4800150087,
				"y": 3.5740721224,
				"z": -3.019156233,
				"element": "O" 
			},
			{
				"x": 0.8075251027,
				"y": 1.6661443326,
				"z": -3.9454996094,
				"element": "O" 
			},
			{
				"x": -0.4501251954,
				"y": -1.9828888573,
				"z": 1.9430754519,
				"element": "H" 
			},
			{
				"x": -1.7732018717,
				"y": -0.8249590679,
				"z": 2.2044923604,
				"element": "H" 
			},
			{
				"x": -0.7179412402,
				"y": -1.3050674979,
				"z": 3.5512973739,
				"element": "H" 
			},
			{
				"x": 0.4539843317,
				"y": 0.5761790966,
				"z": 3.0103953834,
				"element": "H" 
			},
			{
				"x": 1.6216562293,
				"y": 2.1683327376,
				"z": 1.729994873,
				"element": "H" 
			},
			{
				"x": 2.0311292086,
				"y": 3.170140582,
				"z": -0.4542393345,
				"element": "H" 
			},
			{
				"x": -0.3546858686,
				"y": 0.1272860313,
				"z": -2.3273724172,
				"element": "H" 
			},
			{
				"x": -0.7838717816,
				"y": -0.9000733804,
				"z": -0.1227317198,
				"element": "H" 
			},
			{
				"x": 1.4415243451,
				"y": 3.9982092244,
				"z": -2.1514437066,
				"element": "H" 
			}
		],
		 "valence_orbital": [ 
			{
				"type": "occ",
				"energy": -0.31324,
				"method": "rhf"
			},
			{
				"type": "occ",
				"energy": -0.2962,
				"method": "rhf"
			},
			{
				"type": "occ",
				"energy": -0.26282,
				"method": "rhf"
			},
			{
				"type": "occ",
				"energy": -0.25757,
				"method": "rhf"
			},
			{
				"type": "occ",
				"energy": -0.21048,
				"method": "rhf"
			},
			{
				"type": "unocc",
				"energy": -0.0292,
				"method": "rhf"
			},
			{
				"type": "unocc",
				"energy": -0.01174,
				"method": "rhf"
			},
			{
				"type": "unocc",
				"energy": 0.06343,
				"method": "rhf"
			},
			{
				"type": "unocc",
				"energy": 0.06464,
				"method": "rhf"
			},
			{
				"type": "unocc",
				"energy": 0.07624,
				"method": "rhf"
			}
		],
		"cosmo_sigma_profile": { 
			"-0.025": 0.0,
			"-0.024": 0.0,
			"-0.023": 0.0,
			"-0.022": 0.0,
			"-0.021": 0.0,
			"-0.02": 0.0,
			"-0.019": 0.0,
			"-0.018": 0.341209955889,
			"-0.017": 0.909757011684,
			"-0.016": 0.864872060759,
			"-0.015": 1.08001862922,
			"-0.014": 1.38188154308,
			"-0.013": 2.2416982334,
			"-0.012": 2.41992939902,
			"-0.011": 2.57595912064,
			"-0.01": 2.82438659417,
			"-0.009": 2.1914090646,
			"-0.008": 3.77086838261,
			"-0.007": 4.52669530742,
			"-0.006": 6.13227103801,
			"-0.005": 12.5864652527,
			"-0.004": 14.2061988183,
			"-0.003": 12.8361260302,
			"-0.002": 14.6846143251,
			"-0.001": 10.6311319087,
			"0.0": 9.42977959743,
			"0.001": 9.56451641656,
			"0.002": 8.47965363973,
			"0.003": 8.73142677653,
			"0.004": 12.9275620918,
			"0.005": 13.1890601341,
			"0.006": 3.39481216783,
			"0.007": 3.52449327846,
			"0.008": 2.80601597362,
			"0.009": 2.91598579136,
			"0.01": 3.27212705566,
			"0.011": 4.61073794406,
			"0.012": 5.88634245627,
			"0.013": 4.61663167198,
			"0.014": 1.32409196604,
			"0.015": 0.0130525450795,
			"0.016": 0.0,
			"0.017": 0.0,
			"0.018": 0.0,
			"0.019": 0.0,
			"0.02": 0.0,
			"0.021": 0.0,
			"0.022": 0.0,
			"0.023": 0.0,
			"0.024": 0.0,
			"0.025": 0.0
		}
	}
}
