{
	 "smiles": "ClCC(=O)NC(C1CC1)C1CC1", 
	 "Tm": 388.15, 
	 "num_atms": 26, 
	 "gaussian": { 
		 "optdone": 1, 
		 "sigma_profile": "yes", 
		 "theory": "DFT", 
		 "functional": "B3LYP", 
		 "basiset": "6-31G**", 
		 "properties": { 
			 "R2extent": 3395.3236, 
			 "electric_dipole_moment_norm": 5.86547967263, 
			 "electric_quadrupole_moment_norm": 17.6978425233, 
			 "total_energy": -941.508612396, 
			 "HOMO_LUMO_gap": 0.27192, 
			 "cosmo_polarized_energy": -16.29, 
			 "cosmo_cavitation_energy": 30.16, 
			 "cosmo_dispersion_energy": -21.03, 
			 "cosmo_repulsion_energy": 1.72, 
			 "cosmo_total_nonelectrostatic_energy": 10.84, 
			 "SMD_solvation_energy": 4.65 
		},
		"coords": [
			{
				"x": -2.6290202817,
				"y": -2.5688911732,
				"z": -2.9168443994,
				"element": "Cl" 
			},
			{
				"x": -1.4698805454,
				"y": -1.84013329,
				"z": -1.7648497867,
				"element": "C" 
			},
			{
				"x": -2.009526029,
				"y": -0.5448798001,
				"z": -1.1307019372,
				"element": "C" 
			},
			{
				"x": -3.0999381428,
				"y": -0.0761821583,
				"z": -1.407018178,
				"element": "O" 
			},
			{
				"x": -1.1806092722,
				"y": 0.0447121759,
				"z": -0.2139047736,
				"element": "N" 
			},
			{
				"x": 0.1613610984,
				"y": -0.3274241878,
				"z": 0.2557933604,
				"element": "C" 
			},
			{
				"x": 0.1035328975,
				"y": -0.5232124582,
				"z": 1.7705571306,
				"element": "C" 
			},
			{
				"x": 1.2999704243,
				"y": -0.3835396819,
				"z": 2.6769540608,
				"element": "C" 
			},
			{
				"x": 0.1851042193,
				"y": 0.6322590577,
				"z": 2.7436388107,
				"element": "C" 
			},
			{
				"x": 1.1999996433,
				"y": 0.6779844684,
				"z": -0.2243727258,
				"element": "C" 
			},
			{
				"x": 2.6281948312,
				"y": 0.2545375559,
				"z": -0.4798420554,
				"element": "C" 
			},
			{
				"x": 1.7264913305,
				"y": 0.6073592,
				"z": -1.6357529098,
				"element": "C" 
			},
			{
				"x": -1.2627574349,
				"y": -2.5875211472,
				"z": -0.9954709236,
				"element": "H" 
			},
			{
				"x": -0.5463464372,
				"y": -1.645059775,
				"z": -2.3131660745,
				"element": "H" 
			},
			{
				"x": -1.5866925222,
				"y": 0.8770980274,
				"z": 0.196665166,
				"element": "H" 
			},
			{
				"x": 0.4091213064,
				"y": -1.2953724547,
				"z": -0.193128677,
				"element": "H" 
			},
			{
				"x": -0.6059559985,
				"y": -1.3006127312,
				"z": 2.0472500465,
				"element": "H" 
			},
			{
				"x": 1.4037756518,
				"y": -1.0938771914,
				"z": 3.4914994079,
				"element": "H" 
			},
			{
				"x": 2.239388751,
				"y": -0.0636169623,
				"z": 2.2399894055,
				"element": "H" 
			},
			{
				"x": -0.481282794,
				"y": 0.6213743779,
				"z": 3.6004886018,
				"element": "H" 
			},
			{
				"x": 0.393344318,
				"y": 1.6275605922,
				"z": 2.3619363361,
				"element": "H" 
			},
			{
				"x": 1.0618254447,
				"y": 1.6831528777,
				"z": 0.1693712237,
				"element": "H" 
			},
			{
				"x": 3.4269178908,
				"y": 0.940364413,
				"z": -0.2140082673,
				"element": "H" 
			},
			{
				"x": 2.879894345,
				"y": -0.7926844578,
				"z": -0.3354695964,
				"element": "H" 
			},
			{
				"x": 1.3818275334,
				"y": -0.2010061007,
				"z": -2.274688536,
				"element": "H" 
			},
			{
				"x": 1.8992597723,
				"y": 1.5391108237,
				"z": -2.1648247093,
				"element": "H" 
			}
		],
		 "valence_orbital": [ 
			{
				"type": "occ",
				"energy": -0.29951,
				"method": "rhf"
			},
			{
				"type": "occ",
				"energy": -0.29331,
				"method": "rhf"
			},
			{
				"type": "occ",
				"energy": -0.29255,
				"method": "rhf"
			},
			{
				"type": "occ",
				"energy": -0.25306,
				"method": "rhf"
			},
			{
				"type": "occ",
				"energy": -0.25015,
				"method": "rhf"
			},
			{
				"type": "unocc",
				"energy": 0.02177,
				"method": "rhf"
			},
			{
				"type": "unocc",
				"energy": 0.02381,
				"method": "rhf"
			},
			{
				"type": "unocc",
				"energy": 0.06417,
				"method": "rhf"
			},
			{
				"type": "unocc",
				"energy": 0.07657,
				"method": "rhf"
			},
			{
				"type": "unocc",
				"energy": 0.08365,
				"method": "rhf"
			}
		],
		"cosmo_sigma_profile": { 
			"-0.025": 0.0,
			"-0.024": 0.0,
			"-0.023": 0.0,
			"-0.022": 0.0,
			"-0.021": 0.0,
			"-0.02": 0.0,
			"-0.019": 0.0,
			"-0.018": 0.0,
			"-0.017": 0.0,
			"-0.016": 0.0,
			"-0.015": 0.0,
			"-0.014": 0.0,
			"-0.013": 0.0982142329958,
			"-0.012": 0.711896048718,
			"-0.011": 1.49065800986,
			"-0.01": 0.97791649081,
			"-0.009": 5.05672781096,
			"-0.008": 8.13352532385,
			"-0.007": 6.89839889664,
			"-0.006": 7.2038274243,
			"-0.005": 13.0817084892,
			"-0.004": 19.5735278625,
			"-0.003": 20.1323506356,
			"-0.002": 19.6038245619,
			"-0.001": 20.6947159237,
			"0.0": 18.8967389791,
			"0.001": 16.1214190967,
			"0.002": 12.8885336643,
			"0.003": 12.1917068844,
			"0.004": 11.2455313657,
			"0.005": 10.0484905125,
			"0.006": 9.99852759216,
			"0.007": 2.79338191268,
			"0.008": 2.12026592335,
			"0.009": 1.72703721278,
			"0.01": 1.903326357,
			"0.011": 1.70882621811,
			"0.012": 2.24219549783,
			"0.013": 5.29057746671,
			"0.014": 4.82211234623,
			"0.015": 1.10897820738,
			"0.016": 0.0,
			"0.017": 0.0,
			"0.018": 0.0,
			"0.019": 0.0,
			"0.02": 0.0,
			"0.021": 0.0,
			"0.022": 0.0,
			"0.023": 0.0,
			"0.024": 0.0,
			"0.025": 0.0
		}
	}
}
