{
	 "smiles": "OCCCC1=NC2=CC(=CC=C2N1)C(F)(F)F", 
	 "Tm": 407.15, 
	 "num_atms": 28, 
	 "gaussian": { 
		 "optdone": 1, 
		 "sigma_profile": "yes", 
		 "theory": "DFT", 
		 "functional": "B3LYP", 
		 "basiset": "6-31G**", 
		 "properties": { 
			 "R2extent": 7370.2147, 
			 "electric_dipole_moment_norm": 6.69905477885, 
			 "electric_quadrupole_moment_norm": 9.07929281662, 
			 "total_energy": -910.06871491, 
			 "HOMO_LUMO_gap": 0.20664, 
			 "cosmo_polarized_energy": -16.6, 
			 "cosmo_cavitation_energy": 33.71, 
			 "cosmo_dispersion_energy": -24.11, 
			 "cosmo_repulsion_energy": 1.84, 
			 "cosmo_total_nonelectrostatic_energy": 11.44, 
			 "SMD_solvation_energy": 4.36 
		},
		"coords": [
			{
				"x": 4.9067368142,
				"y": -1.0934301214,
				"z": -1.1270510692,
				"element": "O" 
			},
			{
				"x": 4.3666395123,
				"y": 0.2075686304,
				"z": -1.3385208104,
				"element": "C" 
			},
			{
				"x": 2.9465445997,
				"y": 0.2180981133,
				"z": -0.7868970062,
				"element": "C" 
			},
			{
				"x": 2.0222169038,
				"y": -0.7713849138,
				"z": -1.5275610171,
				"element": "C" 
			},
			{
				"x": 0.6561671203,
				"y": -0.8566947307,
				"z": -0.9255748796,
				"element": "C" 
			},
			{
				"x": -0.4061667022,
				"y": -0.2085413031,
				"z": -1.3421089036,
				"element": "N" 
			},
			{
				"x": -1.4194512062,
				"y": -0.5645831535,
				"z": -0.4639272556,
				"element": "C" 
			},
			{
				"x": -2.7603596023,
				"y": -0.1695002363,
				"z": -0.4398210051,
				"element": "C" 
			},
			{
				"x": -3.572851597,
				"y": -0.6837190874,
				"z": 0.5676364113,
				"element": "C" 
			},
			{
				"x": -3.0723327526,
				"y": -1.5784424019,
				"z": 1.5382291212,
				"element": "C" 
			},
			{
				"x": -1.7427719655,
				"y": -1.9828794574,
				"z": 1.5285783069,
				"element": "C" 
			},
			{
				"x": -0.93193207,
				"y": -1.4628436509,
				"z": 0.5174027753,
				"element": "C" 
			},
			{
				"x": 0.4009648206,
				"y": -1.6281946903,
				"z": 0.1964477991,
				"element": "N" 
			},
			{
				"x": -5.0321172965,
				"y": -0.3291554318,
				"z": 0.6168015824,
				"element": "C" 
			},
			{
				"x": -5.3285242469,
				"y": 0.7423150774,
				"z": -0.1505377377,
				"element": "F" 
			},
			{
				"x": -5.4377520612,
				"y": -0.0464720096,
				"z": 1.8786963486,
				"element": "F" 
			},
			{
				"x": -5.8141813238,
				"y": -1.3503225614,
				"z": 0.187342836,
				"element": "F" 
			},
			{
				"x": 5.776395442,
				"y": -1.1335284883,
				"z": -1.5428285653,
				"element": "H" 
			},
			{
				"x": 4.351606617,
				"y": 0.4636305933,
				"z": -2.4105148314,
				"element": "H" 
			},
			{
				"x": 4.9653253424,
				"y": 0.9754995721,
				"z": -0.8241889634,
				"element": "H" 
			},
			{
				"x": 2.5362740984,
				"y": 1.2312887065,
				"z": -0.8614308872,
				"element": "H" 
			},
			{
				"x": 2.9886030443,
				"y": -0.0347653482,
				"z": 0.2795926854,
				"element": "H" 
			},
			{
				"x": 2.4978909234,
				"y": -1.7580850938,
				"z": -1.5332770395,
				"element": "H" 
			},
			{
				"x": 1.9016729193,
				"y": -0.4557353771,
				"z": -2.5679184473,
				"element": "H" 
			},
			{
				"x": -3.1476748695,
				"y": 0.5191545979,
				"z": -1.1811129582,
				"element": "H" 
			},
			{
				"x": -3.7402129602,
				"y": -1.947756344,
				"z": 2.3090907919,
				"element": "H" 
			},
			{
				"x": -1.3611777018,
				"y": -2.6679878949,
				"z": 2.279225435,
				"element": "H" 
			},
			{
				"x": 1.0673681979,
				"y": -2.2181329951,
				"z": 0.6707272835,
				"element": "H" 
			}
		],
		 "valence_orbital": [ 
			{
				"type": "occ",
				"energy": -0.30977,
				"method": "rhf"
			},
			{
				"type": "occ",
				"energy": -0.2799,
				"method": "rhf"
			},
			{
				"type": "occ",
				"energy": -0.27383,
				"method": "rhf"
			},
			{
				"type": "occ",
				"energy": -0.23792,
				"method": "rhf"
			},
			{
				"type": "occ",
				"energy": -0.22908,
				"method": "rhf"
			},
			{
				"type": "unocc",
				"energy": -0.02244,
				"method": "rhf"
			},
			{
				"type": "unocc",
				"energy": 0.0012,
				"method": "rhf"
			},
			{
				"type": "unocc",
				"energy": 0.04738,
				"method": "rhf"
			},
			{
				"type": "unocc",
				"energy": 0.06318,
				"method": "rhf"
			},
			{
				"type": "unocc",
				"energy": 0.06876,
				"method": "rhf"
			}
		],
		"cosmo_sigma_profile": { 
			"-0.025": 0.0,
			"-0.024": 0.0,
			"-0.023": 0.0,
			"-0.022": 0.0,
			"-0.021": 0.0,
			"-0.02": 0.0,
			"-0.019": 0.0,
			"-0.018": 0.0,
			"-0.017": 0.126890258582,
			"-0.016": 1.87448812111,
			"-0.015": 2.71380358647,
			"-0.014": 2.42956819591,
			"-0.013": 2.52111020818,
			"-0.012": 1.41362082945,
			"-0.011": 2.34752956213,
			"-0.01": 2.08127607384,
			"-0.009": 2.58971379512,
			"-0.008": 2.02597775846,
			"-0.007": 5.5937474834,
			"-0.006": 7.92895381524,
			"-0.005": 8.41701754244,
			"-0.004": 17.4509365833,
			"-0.003": 22.3082157064,
			"-0.002": 18.6131120769,
			"-0.001": 17.2978340944,
			"0.0": 15.6487524542,
			"0.001": 17.2120949053,
			"0.002": 21.8989660149,
			"0.003": 46.2586189428,
			"0.004": 19.0813478789,
			"0.005": 4.0822371748,
			"0.006": 3.12412719522,
			"0.007": 3.04277236416,
			"0.008": 1.51778821818,
			"0.009": 3.72487014055,
			"0.01": 2.83653322707,
			"0.011": 2.00500431403,
			"0.012": 1.8523341156,
			"0.013": 2.26681387583,
			"0.014": 2.07157356681,
			"0.015": 0.77209534398,
			"0.016": 1.1303569296,
			"0.017": 0.743431808832,
			"0.018": 0.26928745897,
			"0.019": 0.0,
			"0.02": 0.0,
			"0.021": 0.0,
			"0.022": 0.0,
			"0.023": 0.0,
			"0.024": 0.0,
			"0.025": 0.0
		}
	}
}
