{
	 "smiles": "OC(=O)C1=CSC(=N1)C1=CC=C(O)C=C1", 
	 "Tm": 488.15, 
	 "num_atms": 22, 
	 "gaussian": { 
		 "optdone": 1, 
		 "sigma_profile": "yes", 
		 "theory": "DFT", 
		 "functional": "B3LYP", 
		 "basiset": "6-31G**", 
		 "properties": { 
			 "R2extent": 4740.1695, 
			 "electric_dipole_moment_norm": 2.84846052105, 
			 "electric_quadrupole_moment_norm": 11.9289256645, 
			 "total_energy": -1063.90129714, 
			 "HOMO_LUMO_gap": 0.15961, 
			 "cosmo_polarized_energy": -17.0, 
			 "cosmo_cavitation_energy": 29.44, 
			 "cosmo_dispersion_energy": -22.26, 
			 "cosmo_repulsion_energy": 1.69, 
			 "cosmo_total_nonelectrostatic_energy": 8.87, 
			 "SMD_solvation_energy": 5.47 
		},
		"coords": [
			{
				"x": -1.1103549543,
				"y": 1.529204055,
				"z": 3.5153873442,
				"element": "O" 
			},
			{
				"x": -0.6789507099,
				"y": 2.4052228659,
				"z": 2.58414285,
				"element": "C" 
			},
			{
				"x": -0.7287822577,
				"y": 3.6110297337,
				"z": 2.7348901579,
				"element": "O" 
			},
			{
				"x": -0.1407132476,
				"y": 1.7485727364,
				"z": 1.3692257627,
				"element": "C" 
			},
			{
				"x": 0.3442431919,
				"y": 2.4822229198,
				"z": 0.3166373333,
				"element": "C" 
			},
			{
				"x": 0.8910357552,
				"y": 1.4293878124,
				"z": -0.9303383918,
				"element": "S" 
			},
			{
				"x": 0.4177635332,
				"y": 0.0368587122,
				"z": 0.0758170609,
				"element": "C" 
			},
			{
				"x": -0.0948651157,
				"y": 0.3836840228,
				"z": 1.2242459649,
				"element": "N" 
			},
			{
				"x": 0.5969851573,
				"y": -1.3482900599,
				"z": -0.3658617147,
				"element": "C" 
			},
			{
				"x": 1.1545060135,
				"y": -1.6797504569,
				"z": -1.6131586985,
				"element": "C" 
			},
			{
				"x": 1.3104998974,
				"y": -3.0035303941,
				"z": -2.0013860822,
				"element": "C" 
			},
			{
				"x": 0.9078300165,
				"y": -4.0326810725,
				"z": -1.1409716467,
				"element": "C" 
			},
			{
				"x": 1.0827257293,
				"y": -5.3129262906,
				"z": -1.5697767186,
				"element": "O" 
			},
			{
				"x": 0.3503215408,
				"y": -3.7195758356,
				"z": 0.1057353593,
				"element": "C" 
			},
			{
				"x": 0.1976300056,
				"y": -2.3924113291,
				"z": 0.4867388608,
				"element": "C" 
			},
			{
				"x": -1.4341364924,
				"y": 2.0739645642,
				"z": 4.2523234339,
				"element": "H" 
			},
			{
				"x": 0.3951242082,
				"y": 3.5580961055,
				"z": 0.237921298,
				"element": "H" 
			},
			{
				"x": 1.4731667482,
				"y": -0.896000094,
				"z": -2.2950310102,
				"element": "H" 
			},
			{
				"x": 1.7403700135,
				"y": -3.2615957376,
				"z": -2.9631689781,
				"element": "H" 
			},
			{
				"x": 0.7679614006,
				"y": -5.9243797784,
				"z": -0.8908462419,
				"element": "H" 
			},
			{
				"x": 0.0365038704,
				"y": -4.5166604268,
				"z": 0.7764708009,
				"element": "H" 
			},
			{
				"x": -0.2329643039,
				"y": -2.1416420524,
				"z": 1.449903256,
				"element": "H" 
			}
		],
		 "valence_orbital": [ 
			{
				"type": "occ",
				"energy": -0.28525,
				"method": "rhf"
			},
			{
				"type": "occ",
				"energy": -0.27363,
				"method": "rhf"
			},
			{
				"type": "occ",
				"energy": -0.27292,
				"method": "rhf"
			},
			{
				"type": "occ",
				"energy": -0.26532,
				"method": "rhf"
			},
			{
				"type": "occ",
				"energy": -0.21744,
				"method": "rhf"
			},
			{
				"type": "unocc",
				"energy": -0.05783,
				"method": "rhf"
			},
			{
				"type": "unocc",
				"energy": -0.03153,
				"method": "rhf"
			},
			{
				"type": "unocc",
				"energy": -0.01335,
				"method": "rhf"
			},
			{
				"type": "unocc",
				"energy": 0.01181,
				"method": "rhf"
			},
			{
				"type": "unocc",
				"energy": 0.04488,
				"method": "rhf"
			}
		],
		"cosmo_sigma_profile": { 
			"-0.025": 0.0,
			"-0.024": 0.0,
			"-0.023": 0.0,
			"-0.022": 0.0,
			"-0.021": 0.0,
			"-0.02": 0.0,
			"-0.019": 0.121834156812,
			"-0.018": 1.70397550665,
			"-0.017": 2.63669837544,
			"-0.016": 1.30169569765,
			"-0.015": 2.1260983317,
			"-0.014": 1.45280686294,
			"-0.013": 2.27637850734,
			"-0.012": 1.96442354335,
			"-0.011": 1.51911510001,
			"-0.01": 2.55537639532,
			"-0.009": 3.00487387199,
			"-0.008": 3.6452468616,
			"-0.007": 7.43604503665,
			"-0.006": 8.7436697408,
			"-0.005": 10.2505038189,
			"-0.004": 8.64326171036,
			"-0.003": 10.8482087399,
			"-0.002": 12.8715539952,
			"-0.001": 16.449753,
			"0.0": 21.6512112052,
			"0.001": 21.3212425902,
			"0.002": 17.7168197929,
			"0.003": 18.7348179743,
			"0.004": 15.9331871724,
			"0.005": 6.09277736249,
			"0.006": 4.31776960123,
			"0.007": 4.40517340552,
			"0.008": 4.64156126827,
			"0.009": 5.23847895513,
			"0.01": 5.46656340771,
			"0.011": 6.5143312419,
			"0.012": 5.24526229872,
			"0.013": 1.25674550488,
			"0.014": 0.707646487227,
			"0.015": 0.0540498382733,
			"0.016": 0.0,
			"0.017": 0.0,
			"0.018": 0.0,
			"0.019": 0.0,
			"0.02": 0.0,
			"0.021": 0.0,
			"0.022": 0.0,
			"0.023": 0.0,
			"0.024": 0.0,
			"0.025": 0.0
		}
	}
}
