{
	 "smiles": "FC1=CC=CC=C1C12OCCN1CC(=O)NC1=CC=C(Br)C=C21", 
	 "Tm": 458.15, 
	 "num_atms": 37, 
	 "gaussian": { 
		 "optdone": 1, 
		 "sigma_profile": "yes", 
		 "theory": "DFT", 
		 "functional": "B3LYP", 
		 "basiset": "6-31G**", 
		 "properties": { 
			 "R2extent": 8981.66, 
			 "electric_dipole_moment_norm": 0.565666244353, 
			 "electric_quadrupole_moment_norm": 19.3993507399, 
			 "total_energy": -3587.4201753, 
			 "HOMO_LUMO_gap": 0.18933, 
			 "cosmo_polarized_energy": -14.6, 
			 "cosmo_cavitation_energy": 40.83, 
			 "cosmo_dispersion_energy": -29.07, 
			 "cosmo_repulsion_energy": 2.19, 
			 "cosmo_total_nonelectrostatic_energy": 13.95, 
			 "SMD_solvation_energy": 5.22 
		},
		"coords": [
			{
				"x": -2.6504789365,
				"y": -2.0806551032,
				"z": 0.2535153093,
				"element": "F" 
			},
			{
				"x": -2.3070703853,
				"y": -0.9827244727,
				"z": 0.9690678224,
				"element": "C" 
			},
			{
				"x": -2.9901741261,
				"y": -0.7596093827,
				"z": 2.1561408699,
				"element": "C" 
			},
			{
				"x": -2.6557398646,
				"y": 0.351781684,
				"z": 2.9301907541,
				"element": "C" 
			},
			{
				"x": -1.6470393227,
				"y": 1.212750754,
				"z": 2.5013728442,
				"element": "C" 
			},
			{
				"x": -0.9780937381,
				"y": 0.9627995116,
				"z": 1.3016371783,
				"element": "C" 
			},
			{
				"x": -1.2864821291,
				"y": -0.1456088394,
				"z": 0.5019782777,
				"element": "C" 
			},
			{
				"x": -0.5994405784,
				"y": -0.412780321,
				"z": -0.8509102759,
				"element": "C" 
			},
			{
				"x": -1.6264490861,
				"y": -0.3824521099,
				"z": -1.8390919835,
				"element": "O" 
			},
			{
				"x": -1.3840751566,
				"y": -1.4280334439,
				"z": -2.7874210732,
				"element": "C" 
			},
			{
				"x": -0.7446669171,
				"y": -2.5335001248,
				"z": -1.9540178139,
				"element": "C" 
			},
			{
				"x": 0.0364565821,
				"y": -1.7377198863,
				"z": -1.015555824,
				"element": "N" 
			},
			{
				"x": 0.5941886479,
				"y": -2.3892724623,
				"z": 0.1389235074,
				"element": "C" 
			},
			{
				"x": 1.7325397748,
				"y": -1.6472544871,
				"z": 0.8241276367,
				"element": "C" 
			},
			{
				"x": 2.3026696301,
				"y": -2.1604536201,
				"z": 1.7760851765,
				"element": "O" 
			},
			{
				"x": 2.1770871959,
				"y": -0.4180953409,
				"z": 0.3622421851,
				"element": "N" 
			},
			{
				"x": 1.7733184061,
				"y": 0.5366238793,
				"z": -0.595317164,
				"element": "C" 
			},
			{
				"x": 2.7325624862,
				"y": 1.5029882221,
				"z": -0.9398848782,
				"element": "C" 
			},
			{
				"x": 2.4458791005,
				"y": 2.5320559437,
				"z": -1.8311241954,
				"element": "C" 
			},
			{
				"x": 1.1736858904,
				"y": 2.6012726473,
				"z": -2.3898374383,
				"element": "C" 
			},
			{
				"x": 0.7524462804,
				"y": 4.0017217111,
				"z": -3.6204668724,
				"element": "Br" 
			},
			{
				"x": 0.2036317793,
				"y": 1.6598897234,
				"z": -2.0577414669,
				"element": "C" 
			},
			{
				"x": 0.4861530332,
				"y": 0.6249638864,
				"z": -1.164908888,
				"element": "C" 
			},
			{
				"x": -3.7677331373,
				"y": -1.4554380193,
				"z": 2.4522253996,
				"element": "H" 
			},
			{
				"x": -3.1822808583,
				"y": 0.5382149935,
				"z": 3.8611565843,
				"element": "H" 
			},
			{
				"x": -1.3807791985,
				"y": 2.0824282885,
				"z": 3.093585351,
				"element": "H" 
			},
			{
				"x": -0.2066610331,
				"y": 1.6489169193,
				"z": 0.9722320034,
				"element": "H" 
			},
			{
				"x": -0.7040495692,
				"y": -1.0818169453,
				"z": -3.5775489732,
				"element": "H" 
			},
			{
				"x": -2.3447768898,
				"y": -1.7027065715,
				"z": -3.2281464266,
				"element": "H" 
			},
			{
				"x": -1.5077602002,
				"y": -3.1557319258,
				"z": -1.4660721025,
				"element": "H" 
			},
			{
				"x": -0.0893620973,
				"y": -3.1789943928,
				"z": -2.5504930396,
				"element": "H" 
			},
			{
				"x": -0.1356119632,
				"y": -2.6448734555,
				"z": 0.9257095212,
				"element": "H" 
			},
			{
				"x": 1.0350702872,
				"y": -3.3388419429,
				"z": -0.1839368637,
				"element": "H" 
			},
			{
				"x": 2.9967569313,
				"y": -0.1500797239,
				"z": 0.8953241128,
				"element": "H" 
			},
			{
				"x": 3.7272851728,
				"y": 1.4389716133,
				"z": -0.506186515,
				"element": "H" 
			},
			{
				"x": 3.2042057596,
				"y": 3.2627665843,
				"z": -2.087287389,
				"element": "H" 
			},
			{
				"x": -0.7890117702,
				"y": 1.7113962092,
				"z": -2.4867653504,
				"element": "H" 
			}
		],
		 "valence_orbital": [ 
			{
				"type": "occ",
				"energy": -0.26403,
				"method": "rhf"
			},
			{
				"type": "occ",
				"energy": -0.26241,
				"method": "rhf"
			},
			{
				"type": "occ",
				"energy": -0.25043,
				"method": "rhf"
			},
			{
				"type": "occ",
				"energy": -0.22797,
				"method": "rhf"
			},
			{
				"type": "occ",
				"energy": -0.21682,
				"method": "rhf"
			},
			{
				"type": "unocc",
				"energy": -0.02749,
				"method": "rhf"
			},
			{
				"type": "unocc",
				"energy": -0.02209,
				"method": "rhf"
			},
			{
				"type": "unocc",
				"energy": -0.01946,
				"method": "rhf"
			},
			{
				"type": "unocc",
				"energy": -0.00781,
				"method": "rhf"
			},
			{
				"type": "unocc",
				"energy": 0.00766,
				"method": "rhf"
			}
		],
		"cosmo_sigma_profile": { 
			"-0.025": 0.0,
			"-0.024": 0.0,
			"-0.023": 0.0,
			"-0.022": 0.0,
			"-0.021": 0.0,
			"-0.02": 0.0,
			"-0.019": 0.0,
			"-0.018": 0.0,
			"-0.017": 0.0,
			"-0.016": 0.0,
			"-0.015": 0.337214550053,
			"-0.014": 1.29616675476,
			"-0.013": 1.05835010244,
			"-0.012": 0.680413031099,
			"-0.011": 1.34630832064,
			"-0.01": 1.3492600847,
			"-0.009": 1.3889985669,
			"-0.008": 2.7678208796,
			"-0.007": 8.4710900246,
			"-0.006": 15.4338945275,
			"-0.005": 21.781847858,
			"-0.004": 27.35859499,
			"-0.003": 27.7621409189,
			"-0.002": 22.928322082,
			"-0.001": 20.2797791923,
			"0.0": 24.4480300996,
			"0.001": 24.1131937994,
			"0.002": 27.2595601669,
			"0.003": 31.5371565314,
			"0.004": 25.1319406705,
			"0.005": 13.6498715459,
			"0.006": 4.5778679878,
			"0.007": 3.3753858438,
			"0.008": 2.88385237914,
			"0.009": 2.03552208987,
			"0.01": 2.73171029458,
			"0.011": 2.37634452149,
			"0.012": 3.01755821737,
			"0.013": 5.80079567912,
			"0.014": 1.7752532786,
			"0.015": 0.0219469679613,
			"0.016": 0.0,
			"0.017": 0.0,
			"0.018": 0.0,
			"0.019": 0.0,
			"0.02": 0.0,
			"0.021": 0.0,
			"0.022": 0.0,
			"0.023": 0.0,
			"0.024": 0.0,
			"0.025": 0.0
		}
	}
}
