{
	 "smiles": "COC1=CC(=CC=C1)C(N)C(O)=O", 
	 "Tm": 472.15, 
	 "num_atms": 24, 
	 "gaussian": { 
		 "optdone": 1, 
		 "sigma_profile": "yes", 
		 "theory": "DFT", 
		 "functional": "B3LYP", 
		 "basiset": "6-31G**", 
		 "properties": { 
			 "R2extent": 3463.2955, 
			 "electric_dipole_moment_norm": 4.43092306185, 
			 "electric_quadrupole_moment_norm": 25.1367768302, 
			 "total_energy": -630.00815984, 
			 "HOMO_LUMO_gap": 0.20707, 
			 "cosmo_polarized_energy": -16.59, 
			 "cosmo_cavitation_energy": 27.79, 
			 "cosmo_dispersion_energy": -20.04, 
			 "cosmo_repulsion_energy": 1.61, 
			 "cosmo_total_nonelectrostatic_energy": 9.36, 
			 "SMD_solvation_energy": 6.45 
		},
		"coords": [
			{
				"x": -1.9997092409,
				"y": 0.1816942823,
				"z": -4.2610645078,
				"element": "C" 
			},
			{
				"x": -2.1911408044,
				"y": 0.9173572952,
				"z": -3.0611430239,
				"element": "O" 
			},
			{
				"x": -1.4666852661,
				"y": 0.5624464744,
				"z": -1.9630350864,
				"element": "C" 
			},
			{
				"x": -0.5002624192,
				"y": -0.4466661695,
				"z": -1.9465051903,
				"element": "C" 
			},
			{
				"x": 0.1911427894,
				"y": -0.7380599333,
				"z": -0.7610259108,
				"element": "C" 
			},
			{
				"x": -0.0953752448,
				"y": -0.0278681172,
				"z": 0.4067953281,
				"element": "C" 
			},
			{
				"x": -1.0558452785,
				"y": 0.9907917112,
				"z": 0.3766892163,
				"element": "C" 
			},
			{
				"x": -1.7378737346,
				"y": 1.2916666859,
				"z": -0.7935058652,
				"element": "C" 
			},
			{
				"x": 1.2126770001,
				"y": -1.8691132864,
				"z": -0.7852945988,
				"element": "C" 
			},
			{
				"x": 2.1751665539,
				"y": -1.766415506,
				"z": 0.3223041258,
				"element": "N" 
			},
			{
				"x": 0.4609954377,
				"y": -3.2199293518,
				"z": -0.6635454636,
				"element": "C" 
			},
			{
				"x": 0.493775561,
				"y": -3.7423989392,
				"z": 0.5708520077,
				"element": "O" 
			},
			{
				"x": -0.1130673145,
				"y": -3.7330653779,
				"z": -1.5937543026,
				"element": "O" 
			},
			{
				"x": -2.6910025402,
				"y": 0.6092876614,
				"z": -4.988716191,
				"element": "H" 
			},
			{
				"x": -0.9735089961,
				"y": 0.2817159448,
				"z": -4.6376424933,
				"element": "H" 
			},
			{
				"x": -2.2292182731,
				"y": -0.8821430669,
				"z": -4.1233860587,
				"element": "H" 
			},
			{
				"x": -0.2864383424,
				"y": -1.0304297177,
				"z": -2.8334582783,
				"element": "H" 
			},
			{
				"x": 0.4090912281,
				"y": -0.2675738162,
				"z": 1.3366394263,
				"element": "H" 
			},
			{
				"x": -1.276000798,
				"y": 1.5481128452,
				"z": 1.2826679464,
				"element": "H" 
			},
			{
				"x": -2.4865003126,
				"y": 2.0759080183,
				"z": -0.8322890109,
				"element": "H" 
			},
			{
				"x": 1.688807488,
				"y": -1.8826391691,
				"z": -1.7737084675,
				"element": "H" 
			},
			{
				"x": 2.4329083501,
				"y": -0.7973012429,
				"z": 0.4861283833,
				"element": "H" 
			},
			{
				"x": 3.0270155087,
				"y": -2.2745458439,
				"z": 0.0990967967,
				"element": "H" 
			},
			{
				"x": 1.0630486483,
				"y": -3.131131381,
				"z": 1.0930012187,
				"element": "H" 
			}
		],
		 "valence_orbital": [ 
			{
				"type": "occ",
				"energy": -0.30232,
				"method": "rhf"
			},
			{
				"type": "occ",
				"energy": -0.29328,
				"method": "rhf"
			},
			{
				"type": "occ",
				"energy": -0.26311,
				"method": "rhf"
			},
			{
				"type": "occ",
				"energy": -0.24597,
				"method": "rhf"
			},
			{
				"type": "occ",
				"energy": -0.22325,
				"method": "rhf"
			},
			{
				"type": "unocc",
				"energy": -0.01618,
				"method": "rhf"
			},
			{
				"type": "unocc",
				"energy": 0.00537,
				"method": "rhf"
			},
			{
				"type": "unocc",
				"energy": 0.03071,
				"method": "rhf"
			},
			{
				"type": "unocc",
				"energy": 0.06054,
				"method": "rhf"
			},
			{
				"type": "unocc",
				"energy": 0.09699,
				"method": "rhf"
			}
		],
		"cosmo_sigma_profile": { 
			"-0.025": 0.0,
			"-0.024": 0.0,
			"-0.023": 0.0,
			"-0.022": 0.0,
			"-0.021": 0.0,
			"-0.02": 0.0,
			"-0.019": 0.0,
			"-0.018": 0.0,
			"-0.017": 0.0,
			"-0.016": 0.0,
			"-0.015": 0.0,
			"-0.014": 0.0,
			"-0.013": 0.258822305803,
			"-0.012": 2.325439892,
			"-0.011": 3.15867547058,
			"-0.01": 3.92629486151,
			"-0.009": 3.88280879977,
			"-0.008": 4.0048695636,
			"-0.007": 4.5516679042,
			"-0.006": 14.6666801523,
			"-0.005": 20.0836701431,
			"-0.004": 19.6181661641,
			"-0.003": 17.5814942688,
			"-0.002": 11.4163167664,
			"-0.001": 9.19488035667,
			"0.0": 8.43438347006,
			"0.001": 8.88443507723,
			"0.002": 10.2428623022,
			"0.003": 11.3761473971,
			"0.004": 13.4327692515,
			"0.005": 13.0090844118,
			"0.006": 6.19371400543,
			"0.007": 4.11080393331,
			"0.008": 4.7094516913,
			"0.009": 4.81145473567,
			"0.01": 6.4190903509,
			"0.011": 4.87032063895,
			"0.012": 5.20189268784,
			"0.013": 2.97434730382,
			"0.014": 0.387890655975,
			"0.015": 0.0,
			"0.016": 0.0,
			"0.017": 0.0,
			"0.018": 0.0,
			"0.019": 0.0,
			"0.02": 0.0,
			"0.021": 0.0,
			"0.022": 0.0,
			"0.023": 0.0,
			"0.024": 0.0,
			"0.025": 0.0
		}
	}
}
