{
	 "smiles": "CC1=C(N)C=CC(SC(C)(C)C)=C1", 
	 "Tm": 343.15, 
	 "num_atms": 30, 
	 "gaussian": { 
		 "optdone": 1, 
		 "sigma_profile": "yes", 
		 "theory": "DFT", 
		 "functional": "B3LYP", 
		 "basiset": "6-31G**", 
		 "properties": { 
			 "R2extent": 3473.3003, 
			 "electric_dipole_moment_norm": 3.73136520191, 
			 "electric_quadrupole_moment_norm": 11.1080935619, 
			 "total_energy": -882.380686323, 
			 "HOMO_LUMO_gap": 0.20238, 
			 "cosmo_polarized_energy": -10.2, 
			 "cosmo_cavitation_energy": 32.64, 
			 "cosmo_dispersion_energy": -23.24, 
			 "cosmo_repulsion_energy": 1.8, 
			 "cosmo_total_nonelectrostatic_energy": 11.2, 
			 "SMD_solvation_energy": 5.07 
		},
		"coords": [
			{
				"x": -3.7141259285,
				"y": -0.2164390716,
				"z": 0.4448318421,
				"element": "C" 
			},
			{
				"x": -2.2730886091,
				"y": -0.0505170269,
				"z": 0.8602374627,
				"element": "C" 
			},
			{
				"x": -1.8300638202,
				"y": -0.5495193166,
				"z": 2.1080728236,
				"element": "C" 
			},
			{
				"x": -2.7295016092,
				"y": -1.1641358463,
				"z": 2.9789128575,
				"element": "N" 
			},
			{
				"x": -0.4914536048,
				"y": -0.3592774904,
				"z": 2.4885434567,
				"element": "C" 
			},
			{
				"x": 0.4011871706,
				"y": 0.3061685034,
				"z": 1.6549907149,
				"element": "C" 
			},
			{
				"x": -0.0146608316,
				"y": 0.7907876532,
				"z": 0.4067919894,
				"element": "C" 
			},
			{
				"x": 1.1045420249,
				"y": 1.7099098087,
				"z": -0.6437319254,
				"element": "S" 
			},
			{
				"x": 1.9020011177,
				"y": 0.4054891894,
				"z": -1.7493769642,
				"element": "C" 
			},
			{
				"x": 2.6837229628,
				"y": -0.6091353272,
				"z": -0.9068960741,
				"element": "C" 
			},
			{
				"x": 0.8407407169,
				"y": -0.3004366091,
				"z": -2.6013138149,
				"element": "C" 
			},
			{
				"x": 2.8570179291,
				"y": 1.2138478292,
				"z": -2.640942086,
				"element": "C" 
			},
			{
				"x": -1.3570231746,
				"y": 0.6082170364,
				"z": 0.0394783415,
				"element": "C" 
			},
			{
				"x": -3.903870491,
				"y": 0.269749475,
				"z": -0.5151398159,
				"element": "H" 
			},
			{
				"x": -3.9931538251,
				"y": -1.2742363928,
				"z": 0.3321753329,
				"element": "H" 
			},
			{
				"x": -4.3979795646,
				"y": 0.2188159326,
				"z": 1.184312993,
				"element": "H" 
			},
			{
				"x": -2.3082297544,
				"y": -1.7212857679,
				"z": 3.7090319107,
				"element": "H" 
			},
			{
				"x": -3.514604625,
				"y": -1.6312169629,
				"z": 2.5482100821,
				"element": "H" 
			},
			{
				"x": -0.1557564975,
				"y": -0.7306923244,
				"z": 3.4542322599,
				"element": "H" 
			},
			{
				"x": 1.4279975017,
				"y": 0.4559869174,
				"z": 1.9727850093,
				"element": "H" 
			},
			{
				"x": 3.4600749876,
				"y": -0.1159936741,
				"z": -0.3145488064,
				"element": "H" 
			},
			{
				"x": 2.0237239855,
				"y": -1.151751686,
				"z": -0.22402059,
				"element": "H" 
			},
			{
				"x": 3.1675474794,
				"y": -1.3453253377,
				"z": -1.5616647397,
				"element": "H" 
			},
			{
				"x": 0.1186530773,
				"y": -0.8333324371,
				"z": -1.9760440946,
				"element": "H" 
			},
			{
				"x": 1.3191465293,
				"y": -1.0351310197,
				"z": -3.261734548,
				"element": "H" 
			},
			{
				"x": 0.2943115313,
				"y": 0.4141155816,
				"z": -3.2239237833,
				"element": "H" 
			},
			{
				"x": 3.61183726,
				"y": 1.7373534278,
				"z": -2.0458693447,
				"element": "H" 
			},
			{
				"x": 3.3776273524,
				"y": 0.538665255,
				"z": -3.330159011,
				"element": "H" 
			},
			{
				"x": 2.3154973967,
				"y": 1.9544654391,
				"z": -3.2377522795,
				"element": "H" 
			},
			{
				"x": -1.6973166873,
				"y": 1.0031542418,
				"z": -0.9135891986,
				"element": "H" 
			}
		],
		 "valence_orbital": [ 
			{
				"type": "occ",
				"energy": -0.31713,
				"method": "rhf"
			},
			{
				"type": "occ",
				"energy": -0.27996,
				"method": "rhf"
			},
			{
				"type": "occ",
				"energy": -0.24132,
				"method": "rhf"
			},
			{
				"type": "occ",
				"energy": -0.21182,
				"method": "rhf"
			},
			{
				"type": "occ",
				"energy": -0.20076,
				"method": "rhf"
			},
			{
				"type": "unocc",
				"energy": 0.00162,
				"method": "rhf"
			},
			{
				"type": "unocc",
				"energy": 0.00439,
				"method": "rhf"
			},
			{
				"type": "unocc",
				"energy": 0.06766,
				"method": "rhf"
			},
			{
				"type": "unocc",
				"energy": 0.07136,
				"method": "rhf"
			},
			{
				"type": "unocc",
				"energy": 0.07901,
				"method": "rhf"
			}
		],
		"cosmo_sigma_profile": { 
			"-0.025": 0.0,
			"-0.024": 0.0,
			"-0.023": 0.0,
			"-0.022": 0.0,
			"-0.021": 0.0,
			"-0.02": 0.0,
			"-0.019": 0.0,
			"-0.018": 0.0,
			"-0.017": 0.0,
			"-0.016": 0.0,
			"-0.015": 0.0,
			"-0.014": 0.0,
			"-0.013": 0.193298326385,
			"-0.012": 2.16851645957,
			"-0.011": 2.12108026249,
			"-0.01": 3.17763435163,
			"-0.009": 2.86581813034,
			"-0.008": 2.95337191336,
			"-0.007": 3.29986555969,
			"-0.006": 3.33889945462,
			"-0.005": 7.28969798895,
			"-0.004": 13.2050719892,
			"-0.003": 23.9264389723,
			"-0.002": 26.108828954,
			"-0.001": 27.4575838439,
			"0.0": 33.6624488223,
			"0.001": 31.1019718281,
			"0.002": 11.9122265415,
			"0.003": 10.0213391249,
			"0.004": 11.6266463302,
			"0.005": 11.080547851,
			"0.006": 11.47447637,
			"0.007": 4.5787772473,
			"0.008": 3.7109021659,
			"0.009": 2.99500382425,
			"0.01": 1.92344197566,
			"0.011": 2.27698427191,
			"0.012": 1.07339264385,
			"0.013": 0.34316779812,
			"0.014": 0.451961768446,
			"0.015": 0.0131319442825,
			"0.016": 0.0,
			"0.017": 0.0,
			"0.018": 0.0,
			"0.019": 0.0,
			"0.02": 0.0,
			"0.021": 0.0,
			"0.022": 0.0,
			"0.023": 0.0,
			"0.024": 0.0,
			"0.025": 0.0
		}
	}
}
