{
	 "smiles": "COC1=CC(C2=CC(=NO2)C(O)=O)=C(OC)C=C1", 
	 "Tm": 466.15, 
	 "num_atms": 29, 
	 "gaussian": { 
		 "optdone": 1, 
		 "sigma_profile": "yes", 
		 "theory": "DFT", 
		 "functional": "B3LYP", 
		 "basiset": "6-31G**", 
		 "properties": { 
			 "R2extent": 5848.5816, 
			 "electric_dipole_moment_norm": 5.66110654731, 
			 "electric_quadrupole_moment_norm": 24.2007186152, 
			 "total_energy": -894.71318756, 
			 "HOMO_LUMO_gap": 0.14946, 
			 "cosmo_polarized_energy": -14.17, 
			 "cosmo_cavitation_energy": 34.39, 
			 "cosmo_dispersion_energy": -25.08, 
			 "cosmo_repulsion_energy": 1.92, 
			 "cosmo_total_nonelectrostatic_energy": 11.23, 
			 "SMD_solvation_energy": 8.63 
		},
		"coords": [
			{
				"x": 4.7852019489,
				"y": 0.3904904365,
				"z": -1.5589269368,
				"element": "C" 
			},
			{
				"x": 4.5545306368,
				"y": 1.2822926338,
				"z": -0.4790581558,
				"element": "O" 
			},
			{
				"x": 3.2958129525,
				"y": 1.3453062355,
				"z": 0.0457556649,
				"element": "C" 
			},
			{
				"x": 2.2098004036,
				"y": 0.5951403311,
				"z": -0.4004664682,
				"element": "C" 
			},
			{
				"x": 0.9431873995,
				"y": 0.7255209512,
				"z": 0.2025146862,
				"element": "C" 
			},
			{
				"x": -0.1676118841,
				"y": -0.0785109065,
				"z": -0.2953128337,
				"element": "C" 
			},
			{
				"x": -1.4949187286,
				"y": -0.2194991158,
				"z": 0.0255684489,
				"element": "C" 
			},
			{
				"x": -1.9637863259,
				"y": -1.190590577,
				"z": -0.8905909451,
				"element": "C" 
			},
			{
				"x": -1.0151936632,
				"y": -1.6114071687,
				"z": -1.7023886596,
				"element": "N" 
			},
			{
				"x": 0.1196749783,
				"y": -0.9178307283,
				"z": -1.336373516,
				"element": "O" 
			},
			{
				"x": -3.3412699823,
				"y": -1.7535884054,
				"z": -1.0232383416,
				"element": "C" 
			},
			{
				"x": -3.4802492124,
				"y": -2.6729072037,
				"z": -2.000081976,
				"element": "O" 
			},
			{
				"x": -4.2583283393,
				"y": -1.4152433951,
				"z": -0.315006302,
				"element": "O" 
			},
			{
				"x": 0.7773762169,
				"y": 1.6310502916,
				"z": 1.2742898986,
				"element": "C" 
			},
			{
				"x": -0.4680056143,
				"y": 1.7207283317,
				"z": 1.8237464753,
				"element": "O" 
			},
			{
				"x": -0.675367852,
				"y": 2.6199751895,
				"z": 2.9046142789,
				"element": "C" 
			},
			{
				"x": 1.876525966,
				"y": 2.3802007064,
				"z": 1.7145260483,
				"element": "C" 
			},
			{
				"x": 3.1193045927,
				"y": 2.2401165142,
				"z": 1.1093250956,
				"element": "C" 
			},
			{
				"x": 4.5887745327,
				"y": -0.6510468514,
				"z": -1.2733336916,
				"element": "H" 
			},
			{
				"x": 4.170526176,
				"y": 0.6441293309,
				"z": -2.4323078909,
				"element": "H" 
			},
			{
				"x": 5.8392328876,
				"y": 0.4985789967,
				"z": -1.8185164913,
				"element": "H" 
			},
			{
				"x": 2.3149764883,
				"y": -0.1034430965,
				"z": -1.2191919242,
				"element": "H" 
			},
			{
				"x": -2.0536247258,
				"y": 0.2860034505,
				"z": 0.7912309099,
				"element": "H" 
			},
			{
				"x": -2.6215477927,
				"y": -2.7929760236,
				"z": -2.443548611,
				"element": "H" 
			},
			{
				"x": -0.0532680707,
				"y": 2.3595021304,
				"z": 3.7696795496,
				"element": "H" 
			},
			{
				"x": -0.4722192059,
				"y": 3.656850432,
				"z": 2.6099819163,
				"element": "H" 
			},
			{
				"x": -1.7272489098,
				"y": 2.5227382778,
				"z": 3.1758293295,
				"element": "H" 
			},
			{
				"x": 1.7688190095,
				"y": 3.0792944242,
				"z": 2.534408938,
				"element": "H" 
			},
			{
				"x": 3.9706961177,
				"y": 2.8199248077,
				"z": 1.4497715037,
				"element": "H" 
			}
		],
		 "valence_orbital": [ 
			{
				"type": "occ",
				"energy": -0.30364,
				"method": "rhf"
			},
			{
				"type": "occ",
				"energy": -0.2953,
				"method": "rhf"
			},
			{
				"type": "occ",
				"energy": -0.27822,
				"method": "rhf"
			},
			{
				"type": "occ",
				"energy": -0.25017,
				"method": "rhf"
			},
			{
				"type": "occ",
				"energy": -0.21421,
				"method": "rhf"
			},
			{
				"type": "unocc",
				"energy": -0.06475,
				"method": "rhf"
			},
			{
				"type": "unocc",
				"energy": -0.03256,
				"method": "rhf"
			},
			{
				"type": "unocc",
				"energy": 0.00417,
				"method": "rhf"
			},
			{
				"type": "unocc",
				"energy": 0.04755,
				"method": "rhf"
			},
			{
				"type": "unocc",
				"energy": 0.06994,
				"method": "rhf"
			}
		],
		"cosmo_sigma_profile": { 
			"-0.025": 0.0,
			"-0.024": 0.0,
			"-0.023": 0.0,
			"-0.022": 0.0,
			"-0.021": 0.0,
			"-0.02": 0.0,
			"-0.019": 0.0,
			"-0.018": 0.0,
			"-0.017": 0.0,
			"-0.016": 0.256234664718,
			"-0.015": 0.803612574693,
			"-0.014": 0.430459733822,
			"-0.013": 0.561673149772,
			"-0.012": 1.13098976953,
			"-0.011": 0.692100990963,
			"-0.01": 0.168175975479,
			"-0.009": 0.779055730634,
			"-0.008": 1.6338891635,
			"-0.007": 6.92372619706,
			"-0.006": 19.4926214582,
			"-0.005": 24.0442468899,
			"-0.004": 23.0665789236,
			"-0.003": 21.4171633789,
			"-0.002": 16.5723564923,
			"-0.001": 19.0271900552,
			"0.0": 17.7800305946,
			"0.001": 18.4399686872,
			"0.002": 18.6798788558,
			"0.003": 21.5678235788,
			"0.004": 12.0105524452,
			"0.005": 9.00908530417,
			"0.006": 7.77219516731,
			"0.007": 6.27685397809,
			"0.008": 5.43173795605,
			"0.009": 7.65961607917,
			"0.01": 6.09992492577,
			"0.011": 5.83042939411,
			"0.012": 1.75913650298,
			"0.013": 0.0849707866104,
			"0.014": 0.0,
			"0.015": 0.0,
			"0.016": 0.0,
			"0.017": 0.0,
			"0.018": 0.0,
			"0.019": 0.0,
			"0.02": 0.0,
			"0.021": 0.0,
			"0.022": 0.0,
			"0.023": 0.0,
			"0.024": 0.0,
			"0.025": 0.0
		}
	}
}
