{
	 "smiles": "COC1=C(OCC(N)=O)C=C(C=O)C=C1", 
	 "Tm": 410.15, 
	 "num_atms": 26, 
	 "gaussian": { 
		 "optdone": 1, 
		 "sigma_profile": "yes", 
		 "theory": "DFT", 
		 "functional": "B3LYP", 
		 "basiset": "6-31G**", 
		 "properties": { 
			 "R2extent": 4258.6726, 
			 "electric_dipole_moment_norm": 7.49764663211, 
			 "electric_quadrupole_moment_norm": 10.5639213283, 
			 "total_energy": -743.323961498, 
			 "HOMO_LUMO_gap": 0.16991, 
			 "cosmo_polarized_energy": -19.3, 
			 "cosmo_cavitation_energy": 31.31, 
			 "cosmo_dispersion_energy": -22.33, 
			 "cosmo_repulsion_energy": 1.77, 
			 "cosmo_total_nonelectrostatic_energy": 10.75, 
			 "SMD_solvation_energy": 8.36 
		},
		"coords": [
			{
				"x": -1.5822860482,
				"y": 2.6387631847,
				"z": 0.3855511252,
				"element": "C" 
			},
			{
				"x": -0.4645960691,
				"y": 1.7870946832,
				"z": 0.1674214576,
				"element": "O" 
			},
			{
				"x": -0.6730516803,
				"y": 0.4463420287,
				"z": 0.153892816,
				"element": "C" 
			},
			{
				"x": 0.4898966883,
				"y": -0.3453821702,
				"z": -0.06949089,
				"element": "C" 
			},
			{
				"x": 1.6414452757,
				"y": 0.3625661055,
				"z": -0.2366903183,
				"element": "O" 
			},
			{
				"x": 2.8582590186,
				"y": -0.3367136133,
				"z": -0.4673880328,
				"element": "C" 
			},
			{
				"x": 4.0076736276,
				"y": 0.6604479181,
				"z": -0.62588889,
				"element": "C" 
			},
			{
				"x": 3.657162354,
				"y": 1.9665743605,
				"z": -0.5217598646,
				"element": "N" 
			},
			{
				"x": 5.1407204508,
				"y": 0.2523297933,
				"z": -0.830664009,
				"element": "O" 
			},
			{
				"x": 0.3871831167,
				"y": -1.7248724105,
				"z": -0.1020839743,
				"element": "C" 
			},
			{
				"x": -0.8642161916,
				"y": -2.3460121283,
				"z": 0.0849246573,
				"element": "C" 
			},
			{
				"x": -0.9626157474,
				"y": -3.8163071766,
				"z": 0.0482795339,
				"element": "C" 
			},
			{
				"x": -0.0238853711,
				"y": -4.5704798258,
				"z": -0.1360989604,
				"element": "O" 
			},
			{
				"x": -2.0009884287,
				"y": -1.5701594788,
				"z": 0.3031401624,
				"element": "C" 
			},
			{
				"x": -1.9083219247,
				"y": -0.1759763921,
				"z": 0.3380815696,
				"element": "C" 
			},
			{
				"x": -1.1923133177,
				"y": 3.6568565997,
				"z": 0.3572041479,
				"element": "H" 
			},
			{
				"x": -2.3383017741,
				"y": 2.517903687,
				"z": -0.3998868414,
				"element": "H" 
			},
			{
				"x": -2.0429062828,
				"y": 2.4538530188,
				"z": 1.3636713331,
				"element": "H" 
			},
			{
				"x": 2.802781194,
				"y": -0.941681663,
				"z": -1.3810170304,
				"element": "H" 
			},
			{
				"x": 3.0986374153,
				"y": -1.0044390407,
				"z": 0.3693381152,
				"element": "H" 
			},
			{
				"x": 4.3767778153,
				"y": 2.6655872256,
				"z": -0.6181549791,
				"element": "H" 
			},
			{
				"x": 2.6984197018,
				"y": 2.2282600397,
				"z": -0.3508550561,
				"element": "H" 
			},
			{
				"x": 1.248458296,
				"y": -2.3610554936,
				"z": -0.2691237559,
				"element": "H" 
			},
			{
				"x": -1.9906356628,
				"y": -4.213016856,
				"z": 0.2059860279,
				"element": "H" 
			},
			{
				"x": -2.965193392,
				"y": -2.0506463415,
				"z": 0.4470856977,
				"element": "H" 
			},
			{
				"x": -2.7980030634,
				"y": 0.4178639453,
				"z": 0.5083259586,
				"element": "H" 
			}
		],
		 "valence_orbital": [ 
			{
				"type": "occ",
				"energy": -0.26792,
				"method": "rhf"
			},
			{
				"type": "occ",
				"energy": -0.25707,
				"method": "rhf"
			},
			{
				"type": "occ",
				"energy": -0.25249,
				"method": "rhf"
			},
			{
				"type": "occ",
				"energy": -0.25121,
				"method": "rhf"
			},
			{
				"type": "occ",
				"energy": -0.22731,
				"method": "rhf"
			},
			{
				"type": "unocc",
				"energy": -0.0574,
				"method": "rhf"
			},
			{
				"type": "unocc",
				"energy": -0.00887,
				"method": "rhf"
			},
			{
				"type": "unocc",
				"energy": 0.02864,
				"method": "rhf"
			},
			{
				"type": "unocc",
				"energy": 0.04817,
				"method": "rhf"
			},
			{
				"type": "unocc",
				"energy": 0.07069,
				"method": "rhf"
			}
		],
		"cosmo_sigma_profile": { 
			"-0.025": 0.0,
			"-0.024": 0.0,
			"-0.023": 0.0,
			"-0.022": 0.0,
			"-0.021": 0.0,
			"-0.02": 0.0,
			"-0.019": 0.0,
			"-0.018": 0.0,
			"-0.017": 0.0,
			"-0.016": 0.0,
			"-0.015": 0.0490023385635,
			"-0.014": 1.18417960193,
			"-0.013": 0.914750895939,
			"-0.012": 1.6589689562,
			"-0.011": 1.70801770917,
			"-0.01": 1.80770283544,
			"-0.009": 1.92146029155,
			"-0.008": 4.15248215024,
			"-0.007": 16.0591945598,
			"-0.006": 21.1022502988,
			"-0.005": 19.7871112692,
			"-0.004": 17.6431383049,
			"-0.003": 15.8859843815,
			"-0.002": 10.9973706803,
			"-0.001": 10.9479594371,
			"0.0": 13.5965266525,
			"0.001": 15.9824386678,
			"0.002": 17.6825694544,
			"0.003": 16.6068347881,
			"0.004": 10.2042458076,
			"0.005": 5.77910267305,
			"0.006": 4.23406573167,
			"0.007": 4.33286890377,
			"0.008": 4.54817879027,
			"0.009": 3.38732315307,
			"0.01": 3.52199752964,
			"0.011": 4.75396405193,
			"0.012": 5.82326818449,
			"0.013": 6.41292195695,
			"0.014": 5.3963825718,
			"0.015": 0.869932666184,
			"0.016": 0.0,
			"0.017": 0.0,
			"0.018": 0.0,
			"0.019": 0.0,
			"0.02": 0.0,
			"0.021": 0.0,
			"0.022": 0.0,
			"0.023": 0.0,
			"0.024": 0.0,
			"0.025": 0.0
		}
	}
}
