{
	 "smiles": "NNC(=O)C1=CSC=C1", 
	 "Tm": 400.15, 
	 "num_atms": 15, 
	 "gaussian": { 
		 "optdone": 1, 
		 "sigma_profile": "yes", 
		 "theory": "DFT", 
		 "functional": "B3LYP", 
		 "basiset": "6-31G**", 
		 "properties": { 
			 "R2extent": 1705.3417, 
			 "electric_dipole_moment_norm": 4.24686115384, 
			 "electric_quadrupole_moment_norm": 13.8849910684, 
			 "total_energy": -777.019473881, 
			 "HOMO_LUMO_gap": 0.20679, 
			 "cosmo_polarized_energy": -13.91, 
			 "cosmo_cavitation_energy": 20.85, 
			 "cosmo_dispersion_energy": -16.39, 
			 "cosmo_repulsion_energy": 1.32, 
			 "cosmo_total_nonelectrostatic_energy": 5.78, 
			 "SMD_solvation_energy": 5.33 
		},
		"coords": [
			{
				"x": 1.9998004849,
				"y": -1.2927557443,
				"z": 1.4887632278,
				"element": "N" 
			},
			{
				"x": 1.6663129059,
				"y": -2.0094721164,
				"z": 0.3345177722,
				"element": "N" 
			},
			{
				"x": 0.4879082654,
				"y": -1.9055170842,
				"z": -0.3751396367,
				"element": "C" 
			},
			{
				"x": 0.2900494739,
				"y": -2.7174869996,
				"z": -1.2766197027,
				"element": "O" 
			},
			{
				"x": -0.5027480092,
				"y": -0.8298403739,
				"z": -0.0749019265,
				"element": "C" 
			},
			{
				"x": -1.6708025671,
				"y": -0.8333034002,
				"z": -0.8042827758,
				"element": "C" 
			},
			{
				"x": -2.7116366226,
				"y": 0.4663060868,
				"z": -0.3745262905,
				"element": "S" 
			},
			{
				"x": -1.5753197344,
				"y": 1.0465765264,
				"z": 0.8067445647,
				"element": "C" 
			},
			{
				"x": -0.4573756741,
				"y": 0.2656737692,
				"z": 0.8568575071,
				"element": "C" 
			},
			{
				"x": 2.0300556982,
				"y": -1.9114367746,
				"z": 2.2964859917,
				"element": "H" 
			},
			{
				"x": 2.913115189,
				"y": -0.8612945808,
				"z": 1.3727984633,
				"element": "H" 
			},
			{
				"x": 2.2170842081,
				"y": -2.8147304415,
				"z": 0.0518960228,
				"element": "H" 
			},
			{
				"x": -1.9380307425,
				"y": -1.5474564628,
				"z": -1.5692778619,
				"element": "H" 
			},
			{
				"x": -1.8034395882,
				"y": 1.9267737147,
				"z": 1.3917011492,
				"element": "H" 
			},
			{
				"x": 0.3725267128,
				"y": 0.4405638811,
				"z": 1.5247834952,
				"element": "H" 
			}
		],
		 "valence_orbital": [ 
			{
				"type": "occ",
				"energy": -0.28472,
				"method": "rhf"
			},
			{
				"type": "occ",
				"energy": -0.256,
				"method": "rhf"
			},
			{
				"type": "occ",
				"energy": -0.25025,
				"method": "rhf"
			},
			{
				"type": "occ",
				"energy": -0.24793,
				"method": "rhf"
			},
			{
				"type": "occ",
				"energy": -0.23265,
				"method": "rhf"
			},
			{
				"type": "unocc",
				"energy": -0.02586,
				"method": "rhf"
			},
			{
				"type": "unocc",
				"energy": 0.01915,
				"method": "rhf"
			},
			{
				"type": "unocc",
				"energy": 0.03576,
				"method": "rhf"
			},
			{
				"type": "unocc",
				"energy": 0.06046,
				"method": "rhf"
			},
			{
				"type": "unocc",
				"energy": 0.10558,
				"method": "rhf"
			}
		],
		"cosmo_sigma_profile": { 
			"-0.025": 0.0,
			"-0.024": 0.0,
			"-0.023": 0.0,
			"-0.022": 0.0,
			"-0.021": 0.0,
			"-0.02": 0.0,
			"-0.019": 0.0,
			"-0.018": 0.0,
			"-0.017": 0.0,
			"-0.016": 0.0,
			"-0.015": 0.0,
			"-0.014": 0.00582087058474,
			"-0.013": 1.22311871473,
			"-0.012": 3.68668318247,
			"-0.011": 5.34896324093,
			"-0.01": 4.88142042266,
			"-0.009": 5.13341283642,
			"-0.008": 6.43973834441,
			"-0.007": 5.7571661117,
			"-0.006": 4.65549027106,
			"-0.005": 5.97790433193,
			"-0.004": 5.07053763923,
			"-0.003": 6.85009544716,
			"-0.002": 5.90833475134,
			"-0.001": 7.75196828467,
			"0.0": 10.32297355,
			"0.001": 11.4541555706,
			"0.002": 14.570871621,
			"0.003": 20.313899529,
			"0.004": 14.8093373879,
			"0.005": 7.11570205899,
			"0.006": 2.8216197509,
			"0.007": 1.43757874654,
			"0.008": 1.43834076653,
			"0.009": 1.94047306546,
			"0.01": 0.976218254259,
			"0.011": 1.16439177956,
			"0.012": 1.98267950135,
			"0.013": 2.86234203264,
			"0.014": 5.61751444045,
			"0.015": 0.74001005758,
			"0.016": 0.0,
			"0.017": 0.0,
			"0.018": 0.0,
			"0.019": 0.0,
			"0.02": 0.0,
			"0.021": 0.0,
			"0.022": 0.0,
			"0.023": 0.0,
			"0.024": 0.0,
			"0.025": 0.0
		}
	}
}
