{
	 "smiles": "C1CCCC2=C(CC1)NC1=CC=CC=C21", 
	 "Tm": 347.15, 
	 "num_atms": 32, 
	 "gaussian": { 
		 "optdone": 1, 
		 "sigma_profile": "yes", 
		 "theory": "DFT", 
		 "functional": "B3LYP", 
		 "basiset": "6-31G**", 
		 "properties": { 
			 "R2extent": 3775.222, 
			 "electric_dipole_moment_norm": 2.34662830674, 
			 "electric_quadrupole_moment_norm": 8.36766540978, 
			 "total_energy": -598.511333311, 
			 "HOMO_LUMO_gap": 0.18699, 
			 "cosmo_polarized_energy": -7.87, 
			 "cosmo_cavitation_energy": 31.82, 
			 "cosmo_dispersion_energy": -23.4, 
			 "cosmo_repulsion_energy": 1.81, 
			 "cosmo_total_nonelectrostatic_energy": 10.23, 
			 "SMD_solvation_energy": 3.78 
		},
		"coords": [
			{
				"x": 1.3404208994,
				"y": 0.8667299784,
				"z": -1.890457714,
				"element": "C" 
			},
			{
				"x": 2.4283958545,
				"y": 1.7761912016,
				"z": -1.2630579027,
				"element": "C" 
			},
			{
				"x": 2.0340915097,
				"y": 2.5389566818,
				"z": 0.0192336788,
				"element": "C" 
			},
			{
				"x": 1.8866892006,
				"y": 1.7050518067,
				"z": 1.3124152576,
				"element": "C" 
			},
			{
				"x": 0.7098264117,
				"y": 0.7681001796,
				"z": 1.3593922794,
				"element": "C" 
			},
			{
				"x": 0.6266581487,
				"y": -0.4515637704,
				"z": 0.726275045,
				"element": "C" 
			},
			{
				"x": 1.6300269027,
				"y": -1.0858651858,
				"z": -0.1819812697,
				"element": "C" 
			},
			{
				"x": 1.4961929645,
				"y": -0.6476889794,
				"z": -1.6611515202,
				"element": "C" 
			},
			{
				"x": -0.6199352393,
				"y": -1.0118133379,
				"z": 0.9694750721,
				"element": "N" 
			},
			{
				"x": -1.3557509402,
				"y": -0.1705193068,
				"z": 1.7792377507,
				"element": "C" 
			},
			{
				"x": -2.6441334372,
				"y": -0.3104879446,
				"z": 2.3036050518,
				"element": "C" 
			},
			{
				"x": -3.1309427211,
				"y": 0.7216840393,
				"z": 3.0993890468,
				"element": "C" 
			},
			{
				"x": -2.3500960701,
				"y": 1.8642191794,
				"z": 3.3678881345,
				"element": "C" 
			},
			{
				"x": -1.0682032991,
				"y": 1.9967561248,
				"z": 2.847117878,
				"element": "C" 
			},
			{
				"x": -0.5458022016,
				"y": 0.9713175805,
				"z": 2.0392460607,
				"element": "C" 
			},
			{
				"x": 0.3553850377,
				"y": 1.1855547901,
				"z": -1.5310542023,
				"element": "H" 
			},
			{
				"x": 1.3270369124,
				"y": 1.0232686992,
				"z": -2.9760265528,
				"element": "H" 
			},
			{
				"x": 3.3439647841,
				"y": 1.1966670982,
				"z": -1.075918207,
				"element": "H" 
			},
			{
				"x": 2.712993247,
				"y": 2.5318485066,
				"z": -2.0052113442,
				"element": "H" 
			},
			{
				"x": 2.801243037,
				"y": 3.3034141656,
				"z": 0.2024999168,
				"element": "H" 
			},
			{
				"x": 1.0976478905,
				"y": 3.0823929158,
				"z": -0.1636719093,
				"element": "H" 
			},
			{
				"x": 2.8184352115,
				"y": 1.1427725189,
				"z": 1.4700963784,
				"element": "H" 
			},
			{
				"x": 1.816519524,
				"y": 2.3980045623,
				"z": 2.1594445855,
				"element": "H" 
			},
			{
				"x": 2.6290006185,
				"y": -0.8183196201,
				"z": 0.1806025082,
				"element": "H" 
			},
			{
				"x": 1.5693678924,
				"y": -2.1804479727,
				"z": -0.1227202191,
				"element": "H" 
			},
			{
				"x": 0.6309522893,
				"y": -1.1531515737,
				"z": -2.1096576809,
				"element": "H" 
			},
			{
				"x": 2.3789125518,
				"y": -1.0132549859,
				"z": -2.2025426761,
				"element": "H" 
			},
			{
				"x": -0.9164337867,
				"y": -1.9188349,
				"z": 0.6473081717,
				"element": "H" 
			},
			{
				"x": -3.2458437275,
				"y": -1.1914147368,
				"z": 2.0961006325,
				"element": "H" 
			},
			{
				"x": -4.1293058903,
				"y": 0.6453527276,
				"z": 3.5203506504,
				"element": "H" 
			},
			{
				"x": -2.760578386,
				"y": 2.6526377454,
				"z": 3.9923453502,
				"element": "H" 
			},
			{
				"x": -0.4781351889,
				"y": 2.8838418123,
				"z": 3.0619277491,
				"element": "H" 
			}
		],
		 "valence_orbital": [ 
			{
				"type": "occ",
				"energy": -0.30722,
				"method": "rhf"
			},
			{
				"type": "occ",
				"energy": -0.3058,
				"method": "rhf"
			},
			{
				"type": "occ",
				"energy": -0.2586,
				"method": "rhf"
			},
			{
				"type": "occ",
				"energy": -0.20867,
				"method": "rhf"
			},
			{
				"type": "occ",
				"energy": -0.18642,
				"method": "rhf"
			},
			{
				"type": "unocc",
				"energy": 0.00057,
				"method": "rhf"
			},
			{
				"type": "unocc",
				"energy": 0.03687,
				"method": "rhf"
			},
			{
				"type": "unocc",
				"energy": 0.0701,
				"method": "rhf"
			},
			{
				"type": "unocc",
				"energy": 0.07623,
				"method": "rhf"
			},
			{
				"type": "unocc",
				"energy": 0.09485,
				"method": "rhf"
			}
		],
		"cosmo_sigma_profile": { 
			"-0.025": 0.0,
			"-0.024": 0.0,
			"-0.023": 0.0,
			"-0.022": 0.0,
			"-0.021": 0.0,
			"-0.02": 0.0,
			"-0.019": 0.0,
			"-0.018": 0.0,
			"-0.017": 0.0,
			"-0.016": 0.0,
			"-0.015": 0.418800364614,
			"-0.014": 1.5063747762,
			"-0.013": 0.927848638394,
			"-0.012": 1.23511816563,
			"-0.011": 1.23208211189,
			"-0.01": 1.22248981507,
			"-0.009": 1.44081388763,
			"-0.008": 1.43223053157,
			"-0.007": 1.49841976102,
			"-0.006": 2.80826701421,
			"-0.005": 5.65888701773,
			"-0.004": 11.2874387772,
			"-0.003": 19.0123362258,
			"-0.002": 31.3261770918,
			"-0.001": 34.1095602958,
			"0.0": 37.6158535921,
			"0.001": 27.7658929152,
			"0.002": 11.8617666196,
			"0.003": 8.81123692454,
			"0.004": 8.457724436,
			"0.005": 11.3377459053,
			"0.006": 11.2233266889,
			"0.007": 10.0976260578,
			"0.008": 6.15515395564,
			"0.009": 0.222349089357,
			"0.01": 0.0,
			"0.011": 0.0,
			"0.012": 0.0,
			"0.013": 0.0,
			"0.014": 0.0,
			"0.015": 0.0,
			"0.016": 0.0,
			"0.017": 0.0,
			"0.018": 0.0,
			"0.019": 0.0,
			"0.02": 0.0,
			"0.021": 0.0,
			"0.022": 0.0,
			"0.023": 0.0,
			"0.024": 0.0,
			"0.025": 0.0
		}
	}
}
