{
	 "smiles": "CC(C)C1=C(Cl)C2=C(N=C1C)C(F)=CC=C2", 
	 "Tm": 321.15, 
	 "num_atms": 29, 
	 "gaussian": { 
		 "optdone": 1, 
		 "sigma_profile": "yes", 
		 "theory": "DFT", 
		 "functional": "B3LYP", 
		 "basiset": "6-31G**", 
		 "properties": { 
			 "R2extent": 4142.1633, 
			 "electric_dipole_moment_norm": 1.63442887884, 
			 "electric_quadrupole_moment_norm": 11.5707847992, 
			 "total_energy": -1118.01509081, 
			 "HOMO_LUMO_gap": 0.17075, 
			 "cosmo_polarized_energy": -6.62, 
			 "cosmo_cavitation_energy": 32.92, 
			 "cosmo_dispersion_energy": -23.7, 
			 "cosmo_repulsion_energy": 1.8, 
			 "cosmo_total_nonelectrostatic_energy": 11.02, 
			 "SMD_solvation_energy": 4.73 
		},
		"coords": [
			{
				"x": 0.2585052246,
				"y": -2.4866181489,
				"z": 2.6351710082,
				"element": "C" 
			},
			{
				"x": 1.0413863947,
				"y": -1.1646309061,
				"z": 2.4907703925,
				"element": "C" 
			},
			{
				"x": 0.9640625095,
				"y": -0.2933080221,
				"z": 3.7621344773,
				"element": "C" 
			},
			{
				"x": 0.7115026366,
				"y": -0.3988072735,
				"z": 1.2072017902,
				"element": "C" 
			},
			{
				"x": -0.5212120562,
				"y": 0.1523984466,
				"z": 0.9026763134,
				"element": "C" 
			},
			{
				"x": -1.8830289711,
				"y": 0.0155834514,
				"z": 2.018818003,
				"element": "Cl" 
			},
			{
				"x": -0.7690668358,
				"y": 0.85641576,
				"z": -0.3138432881,
				"element": "C" 
			},
			{
				"x": 0.3468396904,
				"y": 0.9538552185,
				"z": -1.1988566575,
				"element": "C" 
			},
			{
				"x": 1.5635828387,
				"y": 0.4247028946,
				"z": -0.9257780189,
				"element": "N" 
			},
			{
				"x": 1.7445599785,
				"y": -0.2172240215,
				"z": 0.2112232082,
				"element": "C" 
			},
			{
				"x": 3.1424880151,
				"y": -0.7649178176,
				"z": 0.408448039,
				"element": "C" 
			},
			{
				"x": 0.1617986078,
				"y": 1.6446826136,
				"z": -2.4293445935,
				"element": "C" 
			},
			{
				"x": 1.2075672955,
				"y": 1.7384208543,
				"z": -3.2633586991,
				"element": "F" 
			},
			{
				"x": -1.0398174631,
				"y": 2.2077929404,
				"z": -2.7778751299,
				"element": "C" 
			},
			{
				"x": -2.1320615657,
				"y": 2.1000601625,
				"z": -1.8875208672,
				"element": "C" 
			},
			{
				"x": -2.0082651885,
				"y": 1.4423714109,
				"z": -0.6832546348,
				"element": "C" 
			},
			{
				"x": 0.6480713812,
				"y": -3.0503319827,
				"z": 3.489752588,
				"element": "H" 
			},
			{
				"x": 0.3728033443,
				"y": -3.1097679854,
				"z": 1.7422895485,
				"element": "H" 
			},
			{
				"x": -0.8079556475,
				"y": -2.3240979071,
				"z": 2.7993922245,
				"element": "H" 
			},
			{
				"x": 2.0891493891,
				"y": -1.4562227227,
				"z": 2.4021204983,
				"element": "H" 
			},
			{
				"x": -0.0571200554,
				"y": 0.010369658,
				"z": 3.9982319699,
				"element": "H" 
			},
			{
				"x": 1.3526769395,
				"y": -0.8582165379,
				"z": 4.6163597033,
				"element": "H" 
			},
			{
				"x": 1.5705491867,
				"y": 0.6118409754,
				"z": 3.6549095149,
				"element": "H" 
			},
			{
				"x": 3.1468399769,
				"y": -1.8552344638,
				"z": 0.5181429901,
				"element": "H" 
			},
			{
				"x": 3.6287772746,
				"y": -0.3448669379,
				"z": 1.2960922208,
				"element": "H" 
			},
			{
				"x": 3.7336465245,
				"y": -0.5016807774,
				"z": -0.4689612196,
				"element": "H" 
			},
			{
				"x": -1.1302881954,
				"y": 2.7240124793,
				"z": -3.7272540593,
				"element": "H" 
			},
			{
				"x": -3.0829819922,
				"y": 2.5454502926,
				"z": -2.1629604726,
				"element": "H" 
			},
			{
				"x": -2.8543092374,
				"y": 1.3682683467,
				"z": -0.0119268495,
				"element": "H" 
			}
		],
		 "valence_orbital": [ 
			{
				"type": "occ",
				"energy": -0.30931,
				"method": "rhf"
			},
			{
				"type": "occ",
				"energy": -0.28223,
				"method": "rhf"
			},
			{
				"type": "occ",
				"energy": -0.25829,
				"method": "rhf"
			},
			{
				"type": "occ",
				"energy": -0.25329,
				"method": "rhf"
			},
			{
				"type": "occ",
				"energy": -0.22847,
				"method": "rhf"
			},
			{
				"type": "unocc",
				"energy": -0.05772,
				"method": "rhf"
			},
			{
				"type": "unocc",
				"energy": -0.0265,
				"method": "rhf"
			},
			{
				"type": "unocc",
				"energy": 0.02227,
				"method": "rhf"
			},
			{
				"type": "unocc",
				"energy": 0.02324,
				"method": "rhf"
			},
			{
				"type": "unocc",
				"energy": 0.07297,
				"method": "rhf"
			}
		],
		"cosmo_sigma_profile": { 
			"-0.025": 0.0,
			"-0.024": 0.0,
			"-0.023": 0.0,
			"-0.022": 0.0,
			"-0.021": 0.0,
			"-0.02": 0.0,
			"-0.019": 0.0,
			"-0.018": 0.0,
			"-0.017": 0.0,
			"-0.016": 0.0,
			"-0.015": 0.0,
			"-0.014": 0.0,
			"-0.013": 0.0,
			"-0.012": 0.0,
			"-0.011": 0.0,
			"-0.01": 0.0,
			"-0.009": 0.0,
			"-0.008": 0.65376600859,
			"-0.007": 3.3581580535,
			"-0.006": 4.86222585806,
			"-0.005": 11.8252164108,
			"-0.004": 15.3916800545,
			"-0.003": 23.4739001129,
			"-0.002": 23.1929713237,
			"-0.001": 26.3616634844,
			"0.0": 45.3497578722,
			"0.001": 43.5834755791,
			"0.002": 18.7565889956,
			"0.003": 15.7538934736,
			"0.004": 14.6010979823,
			"0.005": 4.09429288061,
			"0.006": 2.29952536231,
			"0.007": 1.82116073842,
			"0.008": 1.51230233297,
			"0.009": 1.43371009522,
			"0.01": 1.37671029433,
			"0.011": 0.922766798805,
			"0.012": 1.19964625325,
			"0.013": 0.818445418637,
			"0.014": 0.928783133825,
			"0.015": 0.125438381215,
			"0.016": 0.0,
			"0.017": 0.0,
			"0.018": 0.0,
			"0.019": 0.0,
			"0.02": 0.0,
			"0.021": 0.0,
			"0.022": 0.0,
			"0.023": 0.0,
			"0.024": 0.0,
			"0.025": 0.0
		}
	}
}
