{
	 "smiles": "CC(CC(O)=O)CC(C)(C)C", 
	 "Tm": 203.15, 
	 "num_atms": 29, 
	 "gaussian": { 
		 "optdone": 1, 
		 "sigma_profile": "yes", 
		 "theory": "DFT", 
		 "functional": "B3LYP", 
		 "basiset": "6-31G**", 
		 "properties": { 
			 "R2extent": 2687.6032, 
			 "electric_dipole_moment_norm": 1.42972301164, 
			 "electric_quadrupole_moment_norm": 7.05169106669, 
			 "total_energy": -504.289699982, 
			 "HOMO_LUMO_gap": 0.27463, 
			 "cosmo_polarized_energy": -8.08, 
			 "cosmo_cavitation_energy": 29.38, 
			 "cosmo_dispersion_energy": -20.25, 
			 "cosmo_repulsion_energy": 1.62, 
			 "cosmo_total_nonelectrostatic_energy": 10.76, 
			 "SMD_solvation_energy": 6.03 
		},
		"coords": [
			{
				"x": -1.5084990245,
				"y": 0.1603173832,
				"z": 1.5603480248,
				"element": "C" 
			},
			{
				"x": -0.9395748336,
				"y": 1.3872931548,
				"z": 0.8286630284,
				"element": "C" 
			},
			{
				"x": -2.0869585577,
				"y": 2.1861037917,
				"z": 0.1413170661,
				"element": "C" 
			},
			{
				"x": -2.8724576257,
				"y": 1.3674418869,
				"z": -0.860450623,
				"element": "C" 
			},
			{
				"x": -4.0940940953,
				"y": 1.0132689818,
				"z": -0.3860025523,
				"element": "O" 
			},
			{
				"x": -2.4889147776,
				"y": 1.0288494222,
				"z": -1.9605694829,
				"element": "O" 
			},
			{
				"x": 0.1909499331,
				"y": 1.0934810299,
				"z": -0.1846313271,
				"element": "C" 
			},
			{
				"x": 1.5472786359,
				"y": 0.5063990452,
				"z": 0.3093075571,
				"element": "C" 
			},
			{
				"x": 2.0414773222,
				"y": 1.2164233056,
				"z": 1.5841525442,
				"element": "C" 
			},
			{
				"x": 2.5755981982,
				"y": 0.7463862945,
				"z": -0.8183284553,
				"element": "C" 
			},
			{
				"x": 1.473179391,
				"y": -1.0157096497,
				"z": 0.5545913229,
				"element": "C" 
			},
			{
				"x": -1.793788952,
				"y": -0.6307530445,
				"z": 0.8577231412,
				"element": "H" 
			},
			{
				"x": -2.4011781327,
				"y": 0.4295229906,
				"z": 2.1350233997,
				"element": "H" 
			},
			{
				"x": -0.7847540529,
				"y": -0.2631854344,
				"z": 2.2601285209,
				"element": "H" 
			},
			{
				"x": -0.5424748418,
				"y": 2.0731479187,
				"z": 1.5882795496,
				"element": "H" 
			},
			{
				"x": -1.6631521552,
				"y": 3.0382296077,
				"z": -0.3996371313,
				"element": "H" 
			},
			{
				"x": -2.7730600409,
				"y": 2.5659589577,
				"z": 0.9029085349,
				"element": "H" 
			},
			{
				"x": -4.5068037344,
				"y": 0.4784326013,
				"z": -1.0857624155,
				"element": "H" 
			},
			{
				"x": 0.4186809837,
				"y": 2.0503233346,
				"z": -0.6741146898,
				"element": "H" 
			},
			{
				"x": -0.2007384551,
				"y": 0.4484432288,
				"z": -0.9801344283,
				"element": "H" 
			},
			{
				"x": 1.3886268851,
				"y": 1.0244064606,
				"z": 2.4422311206,
				"element": "H" 
			},
			{
				"x": 2.095470448,
				"y": 2.3020255309,
				"z": 1.4398853639,
				"element": "H" 
			},
			{
				"x": 3.0452168324,
				"y": 0.869061151,
				"z": 1.854089388,
				"element": "H" 
			},
			{
				"x": 2.2438128376,
				"y": 0.2909990341,
				"z": -1.7583598638,
				"element": "H" 
			},
			{
				"x": 2.7236607868,
				"y": 1.8168106092,
				"z": -1.0006296596,
				"element": "H" 
			},
			{
				"x": 3.5484122031,
				"y": 0.3121369822,
				"z": -0.5612901486,
				"element": "H" 
			},
			{
				"x": 0.8099195011,
				"y": -1.27924973,
				"z": 1.3815306018,
				"element": "H" 
			},
			{
				"x": 2.4668965669,
				"y": -1.4111833141,
				"z": 0.7951653388,
				"element": "H" 
			},
			{
				"x": 1.1163687545,
				"y": -1.5389815309,
				"z": -0.3397337252,
				"element": "H" 
			}
		],
		 "valence_orbital": [ 
			{
				"type": "occ",
				"energy": -0.31652,
				"method": "rhf"
			},
			{
				"type": "occ",
				"energy": -0.31014,
				"method": "rhf"
			},
			{
				"type": "occ",
				"energy": -0.30824,
				"method": "rhf"
			},
			{
				"type": "occ",
				"energy": -0.2995,
				"method": "rhf"
			},
			{
				"type": "occ",
				"energy": -0.26757,
				"method": "rhf"
			},
			{
				"type": "unocc",
				"energy": 0.00706,
				"method": "rhf"
			},
			{
				"type": "unocc",
				"energy": 0.07203,
				"method": "rhf"
			},
			{
				"type": "unocc",
				"energy": 0.08293,
				"method": "rhf"
			},
			{
				"type": "unocc",
				"energy": 0.11128,
				"method": "rhf"
			},
			{
				"type": "unocc",
				"energy": 0.11915,
				"method": "rhf"
			}
		],
		"cosmo_sigma_profile": { 
			"-0.025": 0.0,
			"-0.024": 0.0,
			"-0.023": 0.0,
			"-0.022": 0.0,
			"-0.021": 0.0,
			"-0.02": 0.0,
			"-0.019": 0.0,
			"-0.018": 0.202331597287,
			"-0.017": 1.0183803063,
			"-0.016": 0.678853680035,
			"-0.015": 1.34013585103,
			"-0.014": 0.714141143514,
			"-0.013": 0.524743599854,
			"-0.012": 0.132083957979,
			"-0.011": 0.721489168001,
			"-0.01": 1.25203139627,
			"-0.009": 0.630807886436,
			"-0.008": 0.463132081446,
			"-0.007": 0.688246630297,
			"-0.006": 1.2098098995,
			"-0.005": 3.82742763983,
			"-0.004": 7.56658276111,
			"-0.003": 18.8793223362,
			"-0.002": 38.5087593417,
			"-0.001": 35.8198531161,
			"0.0": 28.0430204929,
			"0.001": 27.2796734521,
			"0.002": 22.7648581281,
			"0.003": 4.69893128743,
			"0.004": 2.48291154298,
			"0.005": 3.13057749342,
			"0.006": 2.93141358649,
			"0.007": 2.98203993059,
			"0.008": 2.57463573403,
			"0.009": 3.44762742473,
			"0.01": 2.00330350757,
			"0.011": 2.7978010949,
			"0.012": 4.80258228689,
			"0.013": 1.54716981275,
			"0.014": 0.0221245812939,
			"0.015": 0.0,
			"0.016": 0.0,
			"0.017": 0.0,
			"0.018": 0.0,
			"0.019": 0.0,
			"0.02": 0.0,
			"0.021": 0.0,
			"0.022": 0.0,
			"0.023": 0.0,
			"0.024": 0.0,
			"0.025": 0.0
		}
	}
}
