{
	 "smiles": "ClC1=CC=C2SC3=C(C=CC=C3)N(CCCN3CCC4(CC3)NC(=O)CS4)C2=C1", 
	 "Tm": 428.15, 
	 "num_atms": 53, 
	 "gaussian": { 
		 "optdone": 1, 
		 "sigma_profile": "yes", 
		 "theory": "DFT", 
		 "functional": "B3LYP", 
		 "basiset": "6-31G**", 
		 "properties": { 
			 "R2extent": 15717.864, 
			 "electric_dipole_moment_norm": 5.22040696689, 
			 "electric_quadrupole_moment_norm": 34.4563312129, 
			 "total_energy": -2348.85737401, 
			 "HOMO_LUMO_gap": 0.17472, 
			 "cosmo_polarized_energy": -19.02, 
			 "cosmo_cavitation_energy": 56.86, 
			 "cosmo_dispersion_energy": -37.83, 
			 "cosmo_repulsion_energy": 2.74, 
			 "cosmo_total_nonelectrostatic_energy": 21.77, 
			 "SMD_solvation_energy": 7.83 
		},
		"coords": [
			{
				"x": -2.9144170652,
				"y": 3.1136520601,
				"z": -3.0263421278,
				"element": "Cl" 
			},
			{
				"x": -1.5891261787,
				"y": 1.9603604364,
				"z": -2.9133303965,
				"element": "C" 
			},
			{
				"x": -1.2832361663,
				"y": 1.1632780845,
				"z": -4.0121535889,
				"element": "C" 
			},
			{
				"x": -0.215259361,
				"y": 0.2721332547,
				"z": -3.9027552768,
				"element": "C" 
			},
			{
				"x": 0.4982118938,
				"y": 0.1532758094,
				"z": -2.7108075695,
				"element": "C" 
			},
			{
				"x": 1.778482124,
				"y": -1.0731774075,
				"z": -2.539902037,
				"element": "S" 
			},
			{
				"x": 2.8852641147,
				"y": -0.1270018179,
				"z": -1.5104225643,
				"element": "C" 
			},
			{
				"x": 2.335559021,
				"y": 0.7070367224,
				"z": -0.5172364226,
				"element": "C" 
			},
			{
				"x": 3.2155059591,
				"y": 1.4038634857,
				"z": 0.325263596,
				"element": "C" 
			},
			{
				"x": 4.5968860977,
				"y": 1.2485992005,
				"z": 0.1983401977,
				"element": "C" 
			},
			{
				"x": 5.1295498767,
				"y": 0.4233124666,
				"z": -0.7906493518,
				"element": "C" 
			},
			{
				"x": 4.2671521518,
				"y": -0.2503501864,
				"z": -1.6568881534,
				"element": "C" 
			},
			{
				"x": 0.9252132314,
				"y": 0.8218652829,
				"z": -0.4050184815,
				"element": "N" 
			},
			{
				"x": 0.3414644917,
				"y": 1.2655437579,
				"z": 0.8663520995,
				"element": "C" 
			},
			{
				"x": 0.6240937032,
				"y": 0.2878973563,
				"z": 2.0181573468,
				"element": "C" 
			},
			{
				"x": -0.0960144995,
				"y": -1.0562630506,
				"z": 1.8481016868,
				"element": "C" 
			},
			{
				"x": -1.5544355222,
				"y": -0.9402226444,
				"z": 1.918740055,
				"element": "N" 
			},
			{
				"x": -2.0737157768,
				"y": -0.8136740169,
				"z": 3.2802545272,
				"element": "C" 
			},
			{
				"x": -3.5198560447,
				"y": -0.271404324,
				"z": 3.244244949,
				"element": "C" 
			},
			{
				"x": -4.2245225416,
				"y": -0.6145009327,
				"z": 1.9104416853,
				"element": "C" 
			},
			{
				"x": -3.7517266373,
				"y": -2.005362071,
				"z": 1.4521653927,
				"element": "C" 
			},
			{
				"x": -2.226207065,
				"y": -2.0361733475,
				"z": 1.2080580158,
				"element": "C" 
			},
			{
				"x": -5.6678370362,
				"y": -0.551968401,
				"z": 2.0555772433,
				"element": "N" 
			},
			{
				"x": -6.46567203,
				"y": 0.1924594699,
				"z": 1.2305031926,
				"element": "C" 
			},
			{
				"x": -7.6825855544,
				"y": 0.2249985085,
				"z": 1.2862945283,
				"element": "O" 
			},
			{
				"x": -5.6281921574,
				"y": 0.9820485149,
				"z": 0.2267556215,
				"element": "C" 
			},
			{
				"x": -3.8601890709,
				"y": 0.6711692894,
				"z": 0.5910946353,
				"element": "S" 
			},
			{
				"x": 0.1803089666,
				"y": 0.9608724418,
				"z": -1.5997340949,
				"element": "C" 
			},
			{
				"x": -0.8633290775,
				"y": 1.8907214012,
				"z": -1.7255751739,
				"element": "C" 
			},
			{
				"x": -1.8560823039,
				"y": 1.2402508525,
				"z": -4.9286177458,
				"element": "H" 
			},
			{
				"x": 0.0568806192,
				"y": -0.3512680166,
				"z": -4.748868373,
				"element": "H" 
			},
			{
				"x": 2.8244493036,
				"y": 2.0689526855,
				"z": 1.086459619,
				"element": "H" 
			},
			{
				"x": 5.2551233136,
				"y": 1.7894520423,
				"z": 0.8718504652,
				"element": "H" 
			},
			{
				"x": 6.2037926515,
				"y": 0.3077894402,
				"z": -0.8946790768,
				"element": "H" 
			},
			{
				"x": 4.6612863017,
				"y": -0.8859551778,
				"z": -2.4441223446,
				"element": "H" 
			},
			{
				"x": -0.739945287,
				"y": 1.3009995959,
				"z": 0.7331021932,
				"element": "H" 
			},
			{
				"x": 0.6710190257,
				"y": 2.280714545,
				"z": 1.1319867885,
				"element": "H" 
			},
			{
				"x": 0.3156453764,
				"y": 0.773981807,
				"z": 2.9517469304,
				"element": "H" 
			},
			{
				"x": 1.6982649278,
				"y": 0.099900814,
				"z": 2.1125862794,
				"element": "H" 
			},
			{
				"x": 0.285510821,
				"y": -1.7806321993,
				"z": 2.5918090136,
				"element": "H" 
			},
			{
				"x": 0.1596978722,
				"y": -1.4587253074,
				"z": 0.8621802055,
				"element": "H" 
			},
			{
				"x": -2.0336990626,
				"y": -1.7838436167,
				"z": 3.814030886,
				"element": "H" 
			},
			{
				"x": -1.4386865136,
				"y": -0.1277549475,
				"z": 3.846444341,
				"element": "H" 
			},
			{
				"x": -3.5432227591,
				"y": 0.8108534752,
				"z": 3.3910870636,
				"element": "H" 
			},
			{
				"x": -4.095835317,
				"y": -0.7216113792,
				"z": 4.0634148663,
				"element": "H" 
			},
			{
				"x": -4.0221530054,
				"y": -2.7210512525,
				"z": 2.2413015315,
				"element": "H" 
			},
			{
				"x": -4.2909715793,
				"y": -2.305711467,
				"z": 0.5501915454,
				"element": "H" 
			},
			{
				"x": -1.8316028183,
				"y": -3.0224448605,
				"z": 1.5178586203,
				"element": "H" 
			},
			{
				"x": -2.01284863,
				"y": -1.9200374259,
				"z": 0.1412705225,
				"element": "H" 
			},
			{
				"x": -6.129233091,
				"y": -1.1363649144,
				"z": 2.7407340361,
				"element": "H" 
			},
			{
				"x": -5.8659643103,
				"y": 2.0438324546,
				"z": 0.3230589388,
				"element": "H" 
			},
			{
				"x": -5.8922460004,
				"y": 0.6641206736,
				"z": -0.7853081895,
				"element": "H" 
			},
			{
				"x": -1.1164493817,
				"y": 2.5574628357,
				"z": -0.9120476507,
				"element": "H" 
			}
		],
		 "valence_orbital": [ 
			{
				"type": "occ",
				"energy": -0.24909,
				"method": "rhf"
			},
			{
				"type": "occ",
				"energy": -0.22888,
				"method": "rhf"
			},
			{
				"type": "occ",
				"energy": -0.22632,
				"method": "rhf"
			},
			{
				"type": "occ",
				"energy": -0.22223,
				"method": "rhf"
			},
			{
				"type": "occ",
				"energy": -0.19388,
				"method": "rhf"
			},
			{
				"type": "unocc",
				"energy": -0.01916,
				"method": "rhf"
			},
			{
				"type": "unocc",
				"energy": -0.01563,
				"method": "rhf"
			},
			{
				"type": "unocc",
				"energy": -0.00873,
				"method": "rhf"
			},
			{
				"type": "unocc",
				"energy": 0.00307,
				"method": "rhf"
			},
			{
				"type": "unocc",
				"energy": 0.01901,
				"method": "rhf"
			}
		],
		"cosmo_sigma_profile": { 
			"-0.025": 0.0,
			"-0.024": 0.0,
			"-0.023": 0.0,
			"-0.022": 0.0,
			"-0.021": 0.0,
			"-0.02": 0.0,
			"-0.019": 0.0,
			"-0.018": 0.0,
			"-0.017": 0.0,
			"-0.016": 0.0,
			"-0.015": 0.196233970396,
			"-0.014": 0.973035503778,
			"-0.013": 1.54650903351,
			"-0.012": 0.818890421996,
			"-0.011": 0.952136440107,
			"-0.01": 1.82177647518,
			"-0.009": 1.17944365292,
			"-0.008": 1.94853513444,
			"-0.007": 10.2294343411,
			"-0.006": 18.4045883761,
			"-0.005": 24.9637655012,
			"-0.004": 32.6741567456,
			"-0.003": 38.9166950416,
			"-0.002": 49.4025898984,
			"-0.001": 47.0510880724,
			"0.0": 33.4287164145,
			"0.001": 26.8707044051,
			"0.002": 34.0392410076,
			"0.003": 37.8192114438,
			"0.004": 32.7358485835,
			"0.005": 22.5738248513,
			"0.006": 8.8335437014,
			"0.007": 6.13478303267,
			"0.008": 3.22017980785,
			"0.009": 1.9379399583,
			"0.01": 2.44741732785,
			"0.011": 1.30400639715,
			"0.012": 2.20794359185,
			"0.013": 5.61978395865,
			"0.014": 4.28570539815,
			"0.015": 0.44666010454,
			"0.016": 0.0,
			"0.017": 0.0,
			"0.018": 0.0,
			"0.019": 0.0,
			"0.02": 0.0,
			"0.021": 0.0,
			"0.022": 0.0,
			"0.023": 0.0,
			"0.024": 0.0,
			"0.025": 0.0
		}
	}
}
