{
	 "smiles": "CC1=C(C)C=C(C=C1)C(=O)CC1=CC=CC=C1", 
	 "Tm": 367.15, 
	 "num_atms": 33, 
	 "gaussian": { 
		 "optdone": 1, 
		 "sigma_profile": "yes", 
		 "theory": "DFT", 
		 "functional": "B3LYP", 
		 "basiset": "6-31G**", 
		 "properties": { 
			 "R2extent": 5159.1613, 
			 "electric_dipole_moment_norm": 3.55348726042, 
			 "electric_quadrupole_moment_norm": 8.99121990944, 
			 "total_energy": -694.589962741, 
			 "HOMO_LUMO_gap": 0.18076, 
			 "cosmo_polarized_energy": -9.87, 
			 "cosmo_cavitation_energy": 36.18, 
			 "cosmo_dispersion_energy": -25.11, 
			 "cosmo_repulsion_energy": 1.94, 
			 "cosmo_total_nonelectrostatic_energy": 13.01, 
			 "SMD_solvation_energy": 6.38 
		},
		"coords": [
			{
				"x": -4.0464027868,
				"y": 1.458960652,
				"z": -2.2572533317,
				"element": "C" 
			},
			{
				"x": -2.7042081265,
				"y": 0.7887716449,
				"z": -2.097591487,
				"element": "C" 
			},
			{
				"x": -1.8387304826,
				"y": 1.1456935797,
				"z": -1.0401857745,
				"element": "C" 
			},
			{
				"x": -2.2370758526,
				"y": 2.2029196175,
				"z": -0.0376996447,
				"element": "C" 
			},
			{
				"x": -0.6018290211,
				"y": 0.5051079632,
				"z": -0.930598348,
				"element": "C" 
			},
			{
				"x": -0.1993835816,
				"y": -0.4871810406,
				"z": -1.836842129,
				"element": "C" 
			},
			{
				"x": -1.0700305814,
				"y": -0.839218572,
				"z": -2.8773974652,
				"element": "C" 
			},
			{
				"x": -2.2993813103,
				"y": -0.203877888,
				"z": -3.0010827985,
				"element": "C" 
			},
			{
				"x": 1.1149612916,
				"y": -1.1936081873,
				"z": -1.7492306678,
				"element": "C" 
			},
			{
				"x": 1.3830813714,
				"y": -2.1140826483,
				"z": -2.5104064604,
				"element": "O" 
			},
			{
				"x": 2.1376381975,
				"y": -0.7817639816,
				"z": -0.6843907515,
				"element": "C" 
			},
			{
				"x": 1.8703658753,
				"y": -1.4392351191,
				"z": 0.6620018951,
				"element": "C" 
			},
			{
				"x": 1.800355582,
				"y": -0.6781915709,
				"z": 1.8351884706,
				"element": "C" 
			},
			{
				"x": 1.5758892331,
				"y": -1.2884253717,
				"z": 3.0710821464,
				"element": "C" 
			},
			{
				"x": 1.4148181397,
				"y": -2.672023507,
				"z": 3.1488675268,
				"element": "C" 
			},
			{
				"x": 1.483310061,
				"y": -3.4401080851,
				"z": 1.9839696782,
				"element": "C" 
			},
			{
				"x": 1.709512952,
				"y": -2.8296439096,
				"z": 0.7507503248,
				"element": "C" 
			},
			{
				"x": -4.5844736452,
				"y": 1.0649476937,
				"z": -3.1230091957,
				"element": "H" 
			},
			{
				"x": -4.6784766936,
				"y": 1.311093475,
				"z": -1.3731424478,
				"element": "H" 
			},
			{
				"x": -3.9430275746,
				"y": 2.5427418665,
				"z": -2.3906616498,
				"element": "H" 
			},
			{
				"x": -1.4545766229,
				"y": 2.350874379,
				"z": 0.7109917857,
				"element": "H" 
			},
			{
				"x": -2.4246506531,
				"y": 3.1698058768,
				"z": -0.5203740768,
				"element": "H" 
			},
			{
				"x": -3.1580240952,
				"y": 1.9318956331,
				"z": 0.4925618161,
				"element": "H" 
			},
			{
				"x": 0.0471065836,
				"y": 0.7792970172,
				"z": -0.1051647149,
				"element": "H" 
			},
			{
				"x": -0.7586732631,
				"y": -1.6099220444,
				"z": -3.5742035903,
				"element": "H" 
			},
			{
				"x": -2.966652336,
				"y": -0.4795373975,
				"z": -3.8139142993,
				"element": "H" 
			},
			{
				"x": 3.1096811966,
				"y": -1.1052215507,
				"z": -1.0699411964,
				"element": "H" 
			},
			{
				"x": 2.1684443229,
				"y": 0.3056603937,
				"z": -0.5689333759,
				"element": "H" 
			},
			{
				"x": 1.9325218075,
				"y": 0.4002274491,
				"z": 1.7835609021,
				"element": "H" 
			},
			{
				"x": 1.5279236376,
				"y": -0.6816933449,
				"z": 3.9711192716,
				"element": "H" 
			},
			{
				"x": 1.2391419,
				"y": -3.1489110853,
				"z": 4.108840658,
				"element": "H" 
			},
			{
				"x": 1.3608005323,
				"y": -4.5184005862,
				"z": 2.0354142692,
				"element": "H" 
			},
			{
				"x": 1.7621439423,
				"y": -3.4287513513,
				"z": -0.1539253391,
				"element": "H" 
			}
		],
		 "valence_orbital": [ 
			{
				"type": "occ",
				"energy": -0.25585,
				"method": "rhf"
			},
			{
				"type": "occ",
				"energy": -0.24994,
				"method": "rhf"
			},
			{
				"type": "occ",
				"energy": -0.24871,
				"method": "rhf"
			},
			{
				"type": "occ",
				"energy": -0.24063,
				"method": "rhf"
			},
			{
				"type": "occ",
				"energy": -0.23286,
				"method": "rhf"
			},
			{
				"type": "unocc",
				"energy": -0.0521,
				"method": "rhf"
			},
			{
				"type": "unocc",
				"energy": -0.00445,
				"method": "rhf"
			},
			{
				"type": "unocc",
				"energy": -0.0003,
				"method": "rhf"
			},
			{
				"type": "unocc",
				"energy": 0.00202,
				"method": "rhf"
			},
			{
				"type": "unocc",
				"energy": 0.04308,
				"method": "rhf"
			}
		],
		"cosmo_sigma_profile": { 
			"-0.025": 0.0,
			"-0.024": 0.0,
			"-0.023": 0.0,
			"-0.022": 0.0,
			"-0.021": 0.0,
			"-0.02": 0.0,
			"-0.019": 0.0,
			"-0.018": 0.0,
			"-0.017": 0.0,
			"-0.016": 0.0,
			"-0.015": 0.0,
			"-0.014": 0.0,
			"-0.013": 0.0,
			"-0.012": 0.0,
			"-0.011": 0.0,
			"-0.01": 0.0,
			"-0.009": 0.0,
			"-0.008": 0.380150318915,
			"-0.007": 1.81431593849,
			"-0.006": 8.65435445403,
			"-0.005": 20.646848286,
			"-0.004": 33.1487711671,
			"-0.003": 29.4532595862,
			"-0.002": 25.0917752946,
			"-0.001": 26.0080875616,
			"0.0": 27.198345563,
			"0.001": 19.8844698043,
			"0.002": 18.7698367751,
			"0.003": 18.2762853337,
			"0.004": 19.8417225696,
			"0.005": 14.8251377657,
			"0.006": 9.30921721059,
			"0.007": 1.45944022653,
			"0.008": 1.31115802967,
			"0.009": 1.75476303148,
			"0.01": 1.70127752061,
			"0.011": 2.30958948523,
			"0.012": 4.02567957037,
			"0.013": 1.2540972286,
			"0.014": 0.0687824785832,
			"0.015": 0.0,
			"0.016": 0.0,
			"0.017": 0.0,
			"0.018": 0.0,
			"0.019": 0.0,
			"0.02": 0.0,
			"0.021": 0.0,
			"0.022": 0.0,
			"0.023": 0.0,
			"0.024": 0.0,
			"0.025": 0.0
		}
	}
}
