{
	 "smiles": "[O-][N+](=O)C1=C(C=C(Cl)C=C1)C(F)(F)F", 
	 "Tm": 294.65, 
	 "num_atms": 17, 
	 "gaussian": { 
		 "optdone": 1, 
		 "sigma_profile": "yes", 
		 "theory": "DFT", 
		 "functional": "B3LYP", 
		 "basiset": "6-31G**", 
		 "properties": { 
			 "R2extent": 3299.9723, 
			 "electric_dipole_moment_norm": 3.90110554715, 
			 "electric_quadrupole_moment_norm": 9.45221263779, 
			 "total_energy": -1233.35590958, 
			 "HOMO_LUMO_gap": 0.18002, 
			 "cosmo_polarized_energy": -8.35, 
			 "cosmo_cavitation_energy": 25.49, 
			 "cosmo_dispersion_energy": -18.43, 
			 "cosmo_repulsion_energy": 1.39, 
			 "cosmo_total_nonelectrostatic_energy": 8.45, 
			 "SMD_solvation_energy": 7.31 
		},
		"coords": [
			{
				"x": 2.1689268284,
				"y": 1.6807867224,
				"z": 1.2663668994,
				"element": "O" 
			},
			{
				"x": 1.0826132546,
				"y": 1.1070336568,
				"z": 1.3242253434,
				"element": "N" 
			},
			{
				"x": 0.6125318594,
				"y": 0.5734966341,
				"z": 2.3226942594,
				"element": "O" 
			},
			{
				"x": 0.2642591173,
				"y": 1.1067316781,
				"z": 0.0954890034,
				"element": "C" 
			},
			{
				"x": -0.6365723539,
				"y": 0.07543024,
				"z": -0.2205929195,
				"element": "C" 
			},
			{
				"x": -1.3904772445,
				"y": 0.2006287268,
				"z": -1.3888842732,
				"element": "C" 
			},
			{
				"x": -1.2576282131,
				"y": 1.3265494994,
				"z": -2.2021842885,
				"element": "C" 
			},
			{
				"x": -2.2322587769,
				"y": 1.4538914459,
				"z": -3.6455408207,
				"element": "Cl" 
			},
			{
				"x": -0.3528182206,
				"y": 2.3384379276,
				"z": -1.8883214305,
				"element": "C" 
			},
			{
				"x": 0.4164625903,
				"y": 2.2137823857,
				"z": -0.7363648734,
				"element": "C" 
			},
			{
				"x": -0.8162108744,
				"y": -1.1991245251,
				"z": 0.5940901468,
				"element": "C" 
			},
			{
				"x": -1.5577943827,
				"y": -1.0009565217,
				"z": 1.6931151707,
				"element": "F" 
			},
			{
				"x": -1.4563264404,
				"y": -2.1359820179,
				"z": -0.1459243026,
				"element": "F" 
			},
			{
				"x": 0.3653079827,
				"y": -1.7284340243,
				"z": 0.9545396917,
				"element": "F" 
			},
			{
				"x": -2.0735972975,
				"y": -0.5896285958,
				"z": -1.6698325992,
				"element": "H" 
			},
			{
				"x": -0.2498725866,
				"y": 3.2043345468,
				"z": -2.5318670932,
				"element": "H" 
			},
			{
				"x": 1.140554758,
				"y": 2.9713222212,
				"z": -0.4635079139,
				"element": "H" 
			}
		],
		 "valence_orbital": [ 
			{
				"type": "occ",
				"energy": -0.32386,
				"method": "rhf"
			},
			{
				"type": "occ",
				"energy": -0.32241,
				"method": "rhf"
			},
			{
				"type": "occ",
				"energy": -0.31107,
				"method": "rhf"
			},
			{
				"type": "occ",
				"energy": -0.3077,
				"method": "rhf"
			},
			{
				"type": "occ",
				"energy": -0.28473,
				"method": "rhf"
			},
			{
				"type": "unocc",
				"energy": -0.10471,
				"method": "rhf"
			},
			{
				"type": "unocc",
				"energy": -0.06082,
				"method": "rhf"
			},
			{
				"type": "unocc",
				"energy": -0.03338,
				"method": "rhf"
			},
			{
				"type": "unocc",
				"energy": 0.00094,
				"method": "rhf"
			},
			{
				"type": "unocc",
				"energy": 0.07668,
				"method": "rhf"
			}
		],
		"cosmo_sigma_profile": { 
			"-0.025": 0.0,
			"-0.024": 0.0,
			"-0.023": 0.0,
			"-0.022": 0.0,
			"-0.021": 0.0,
			"-0.02": 0.0,
			"-0.019": 0.0,
			"-0.018": 0.0,
			"-0.017": 0.0,
			"-0.016": 0.0,
			"-0.015": 0.0,
			"-0.014": 0.0,
			"-0.013": 0.0,
			"-0.012": 0.0,
			"-0.011": 0.0,
			"-0.01": 0.480934649676,
			"-0.009": 4.73881401977,
			"-0.008": 5.63219746891,
			"-0.007": 5.96159017758,
			"-0.006": 7.45995337287,
			"-0.005": 7.47026475689,
			"-0.004": 9.18753568975,
			"-0.003": 14.679409018,
			"-0.002": 19.5168114281,
			"-0.001": 20.8154698484,
			"0.0": 13.7906540622,
			"0.001": 14.0705352041,
			"0.002": 29.4935548854,
			"0.003": 19.6005246291,
			"0.004": 6.4906947219,
			"0.005": 4.85278353283,
			"0.006": 7.40757855008,
			"0.007": 8.97708484207,
			"0.008": 4.65573562027,
			"0.009": 2.77064150796,
			"0.01": 0.26386483809,
			"0.011": 0.0,
			"0.012": 0.0,
			"0.013": 0.0,
			"0.014": 0.0,
			"0.015": 0.0,
			"0.016": 0.0,
			"0.017": 0.0,
			"0.018": 0.0,
			"0.019": 0.0,
			"0.02": 0.0,
			"0.021": 0.0,
			"0.022": 0.0,
			"0.023": 0.0,
			"0.024": 0.0,
			"0.025": 0.0
		}
	}
}
