{
	 "smiles": "NC1=CC(Cl)=C(O)C=C1", 
	 "Tm": 425.15, 
	 "num_atms": 15, 
	 "gaussian": { 
		 "optdone": 1, 
		 "sigma_profile": "yes", 
		 "theory": "DFT", 
		 "functional": "B3LYP", 
		 "basiset": "6-31G**", 
		 "properties": { 
			 "R2extent": 1956.0143, 
			 "electric_dipole_moment_norm": 2.49314632342, 
			 "electric_quadrupole_moment_norm": 6.73375026193, 
			 "total_energy": -822.419733958, 
			 "HOMO_LUMO_gap": 0.18486, 
			 "cosmo_polarized_energy": -10.09, 
			 "cosmo_cavitation_energy": 20.65, 
			 "cosmo_dispersion_energy": -15.88, 
			 "cosmo_repulsion_energy": 1.3, 
			 "cosmo_total_nonelectrostatic_energy": 6.08, 
			 "SMD_solvation_energy": 3.55 
		},
		"coords": [
			{
				"x": -1.0085270217,
				"y": 0.2556995237,
				"z": 1.8752013903,
				"element": "N" 
			},
			{
				"x": -0.2305322608,
				"y": -0.0555374163,
				"z": 0.7505764938,
				"element": "C" 
			},
			{
				"x": 0.4839078189,
				"y": -1.2594926747,
				"z": 0.6846711122,
				"element": "C" 
			},
			{
				"x": 1.2004327616,
				"y": -1.5811291733,
				"z": -0.4653132566,
				"element": "C" 
			},
			{
				"x": 2.0997630212,
				"y": -3.1006512985,
				"z": -0.5314348092,
				"element": "Cl" 
			},
			{
				"x": 1.2393975294,
				"y": -0.7371904963,
				"z": -1.5813121827,
				"element": "C" 
			},
			{
				"x": 1.9308013915,
				"y": -1.014764197,
				"z": -2.7212732895,
				"element": "O" 
			},
			{
				"x": 0.5228729466,
				"y": 0.462140121,
				"z": -1.5052040044,
				"element": "C" 
			},
			{
				"x": -0.1977039668,
				"y": 0.7986721456,
				"z": -0.3656508831,
				"element": "C" 
			},
			{
				"x": -1.1661380061,
				"y": 1.2458657788,
				"z": 2.0087379655,
				"element": "H" 
			},
			{
				"x": -0.6963059436,
				"y": -0.1783692551,
				"z": 2.7337822245,
				"element": "H" 
			},
			{
				"x": 0.4809599671,
				"y": -1.9508144443,
				"z": 1.5211920327,
				"element": "H" 
			},
			{
				"x": 2.3637721603,
				"y": -1.8751163418,
				"z": -2.6177110415,
				"element": "H" 
			},
			{
				"x": 0.5476132805,
				"y": 1.1252928935,
				"z": -2.3637781259,
				"element": "H" 
			},
			{
				"x": -0.748413678,
				"y": 1.7351948348,
				"z": -0.3392836261,
				"element": "H" 
			}
		],
		 "valence_orbital": [ 
			{
				"type": "occ",
				"energy": -0.34832,
				"method": "rhf"
			},
			{
				"type": "occ",
				"energy": -0.32587,
				"method": "rhf"
			},
			{
				"type": "occ",
				"energy": -0.28439,
				"method": "rhf"
			},
			{
				"type": "occ",
				"energy": -0.24868,
				"method": "rhf"
			},
			{
				"type": "occ",
				"energy": -0.19424,
				"method": "rhf"
			},
			{
				"type": "unocc",
				"energy": -0.00938,
				"method": "rhf"
			},
			{
				"type": "unocc",
				"energy": 0.0215,
				"method": "rhf"
			},
			{
				"type": "unocc",
				"energy": 0.02407,
				"method": "rhf"
			},
			{
				"type": "unocc",
				"energy": 0.07694,
				"method": "rhf"
			},
			{
				"type": "unocc",
				"energy": 0.09718,
				"method": "rhf"
			}
		],
		"cosmo_sigma_profile": { 
			"-0.025": 0.0,
			"-0.024": 0.0,
			"-0.023": 0.0,
			"-0.022": 0.0,
			"-0.021": 0.0,
			"-0.02": 0.0,
			"-0.019": 0.0,
			"-0.018": 0.0,
			"-0.017": 0.0,
			"-0.016": 0.0,
			"-0.015": 0.22275023226,
			"-0.014": 0.591865780388,
			"-0.013": 0.862392197081,
			"-0.012": 3.33088395809,
			"-0.011": 3.29298547985,
			"-0.01": 4.19593837035,
			"-0.009": 4.08099470313,
			"-0.008": 4.82816176607,
			"-0.007": 4.62529044673,
			"-0.006": 7.81690220185,
			"-0.005": 7.47470054191,
			"-0.004": 6.23584440584,
			"-0.003": 6.75451046637,
			"-0.002": 7.26848980697,
			"-0.001": 6.77712603622,
			"0.0": 9.3155553179,
			"0.001": 9.9256491455,
			"0.002": 11.9374567627,
			"0.003": 16.4354922165,
			"0.004": 18.4839477587,
			"0.005": 12.8647864432,
			"0.006": 4.13500609003,
			"0.007": 2.60737358394,
			"0.008": 2.16132767789,
			"0.009": 2.44134754808,
			"0.01": 2.31359612336,
			"0.011": 2.49157547344,
			"0.012": 1.09750516822,
			"0.013": 0.969559225896,
			"0.014": 0.502456742927,
			"0.015": 0.45378229581,
			"0.016": 0.0545779876867,
			"0.017": 0.0,
			"0.018": 0.0,
			"0.019": 0.0,
			"0.02": 0.0,
			"0.021": 0.0,
			"0.022": 0.0,
			"0.023": 0.0,
			"0.024": 0.0,
			"0.025": 0.0
		}
	}
}
