{
	 "smiles": "CCOC(=O)C1=COC(Cl)=N1", 
	 "Tm": 370.65, 
	 "num_atms": 17, 
	 "gaussian": { 
		 "optdone": 1, 
		 "sigma_profile": "yes", 
		 "theory": "DFT", 
		 "functional": "B3LYP", 
		 "basiset": "6-31G**", 
		 "properties": { 
			 "R2extent": 3844.0037, 
			 "electric_dipole_moment_norm": 0.530710674473, 
			 "electric_quadrupole_moment_norm": 11.2408151453, 
			 "total_energy": -972.850659442, 
			 "HOMO_LUMO_gap": 0.21716, 
			 "cosmo_polarized_energy": -8.79, 
			 "cosmo_cavitation_energy": 24.44, 
			 "cosmo_dispersion_energy": -18.16, 
			 "cosmo_repulsion_energy": 1.5, 
			 "cosmo_total_nonelectrostatic_energy": 7.78, 
			 "SMD_solvation_energy": 4.63 
		},
		"coords": [
			{
				"x": 3.4576581883,
				"y": 0.2450880805,
				"z": 0.9984190462,
				"element": "C" 
			},
			{
				"x": 2.7402266327,
				"y": -0.4124154919,
				"z": -0.1705664095,
				"element": "C" 
			},
			{
				"x": 1.561770666,
				"y": -1.1305814611,
				"z": 0.2744438307,
				"element": "O" 
			},
			{
				"x": 0.4362877946,
				"y": -0.4125909658,
				"z": 0.3936181361,
				"element": "C" 
			},
			{
				"x": 0.328828246,
				"y": 0.7763151626,
				"z": 0.1548221762,
				"element": "O" 
			},
			{
				"x": -0.7069079231,
				"y": -1.2302985221,
				"z": 0.8540834218,
				"element": "C" 
			},
			{
				"x": -1.9688241783,
				"y": -0.7613817824,
				"z": 1.0559937489,
				"element": "C" 
			},
			{
				"x": -2.7410016614,
				"y": -1.8074127268,
				"z": 1.4753935801,
				"element": "O" 
			},
			{
				"x": -1.876115336,
				"y": -2.8582113979,
				"z": 1.5012236386,
				"element": "C" 
			},
			{
				"x": -2.5233240322,
				"y": -4.3614602909,
				"z": 1.9932976505,
				"element": "Cl" 
			},
			{
				"x": -0.6664566388,
				"y": -2.5931071756,
				"z": 1.1488949669,
				"element": "N" 
			},
			{
				"x": 2.8327279327,
				"y": 1.0214772355,
				"z": 1.4464923455,
				"element": "H" 
			},
			{
				"x": 4.3846564176,
				"y": 0.7109396413,
				"z": 0.6479412005,
				"element": "H" 
			},
			{
				"x": 3.7116554635,
				"y": -0.4934567661,
				"z": 1.7641034102,
				"element": "H" 
			},
			{
				"x": 3.3578139568,
				"y": -1.1801382048,
				"z": -0.6415576384,
				"element": "H" 
			},
			{
				"x": 2.4408827109,
				"y": 0.3259460762,
				"z": -0.9180487883,
				"element": "H" 
			},
			{
				"x": -2.4429782393,
				"y": 0.2005885893,
				"z": 0.9561456842,
				"element": "H" 
			}
		],
		 "valence_orbital": [ 
			{
				"type": "occ",
				"energy": -0.33741,
				"method": "rhf"
			},
			{
				"type": "occ",
				"energy": -0.31734,
				"method": "rhf"
			},
			{
				"type": "occ",
				"energy": -0.30443,
				"method": "rhf"
			},
			{
				"type": "occ",
				"energy": -0.28392,
				"method": "rhf"
			},
			{
				"type": "occ",
				"energy": -0.26368,
				"method": "rhf"
			},
			{
				"type": "unocc",
				"energy": -0.04652,
				"method": "rhf"
			},
			{
				"type": "unocc",
				"energy": -0.00982,
				"method": "rhf"
			},
			{
				"type": "unocc",
				"energy": 0.01647,
				"method": "rhf"
			},
			{
				"type": "unocc",
				"energy": 0.0986,
				"method": "rhf"
			},
			{
				"type": "unocc",
				"energy": 0.10852,
				"method": "rhf"
			}
		],
		"cosmo_sigma_profile": { 
			"-0.025": 0.0,
			"-0.024": 0.0,
			"-0.023": 0.0,
			"-0.022": 0.0,
			"-0.021": 0.0,
			"-0.02": 0.0,
			"-0.019": 0.0,
			"-0.018": 0.0,
			"-0.017": 0.0,
			"-0.016": 0.0,
			"-0.015": 0.0,
			"-0.014": 0.0,
			"-0.013": 0.00871145258504,
			"-0.012": 1.34808295044,
			"-0.011": 1.52281666829,
			"-0.01": 1.64716005372,
			"-0.009": 0.902079048603,
			"-0.008": 1.2482353718,
			"-0.007": 1.12064940778,
			"-0.006": 4.48576941126,
			"-0.005": 11.5361216966,
			"-0.004": 19.4174745687,
			"-0.003": 21.8615921537,
			"-0.002": 21.9187622916,
			"-0.001": 18.5932619071,
			"0.0": 18.6154708391,
			"0.001": 17.8915973385,
			"0.002": 12.5297739109,
			"0.003": 6.76068977216,
			"0.004": 6.03609167228,
			"0.005": 3.97863207118,
			"0.006": 2.91023698609,
			"0.007": 2.91561438067,
			"0.008": 3.29972044745,
			"0.009": 2.84384622641,
			"0.01": 3.69541030809,
			"0.011": 5.30838361267,
			"0.012": 3.70257742943,
			"0.013": 1.31216013141,
			"0.014": 0.784485993403,
			"0.015": 0.0,
			"0.016": 0.0,
			"0.017": 0.0,
			"0.018": 0.0,
			"0.019": 0.0,
			"0.02": 0.0,
			"0.021": 0.0,
			"0.022": 0.0,
			"0.023": 0.0,
			"0.024": 0.0,
			"0.025": 0.0
		}
	}
}
