{
	 "smiles": "CC1(CC(C1)C(=N/NC(N)=S)C1=CC2=C(O1)C=CC=C2)C1=CC=CC=C1", 
	 "Tm": 479.15, 
	 "num_atms": 47, 
	 "gaussian": { 
		 "optdone": 1, 
		 "sigma_profile": "yes", 
		 "theory": "DFT", 
		 "functional": "B3LYP", 
		 "basiset": "6-31G**", 
		 "properties": { 
			 "R2extent": 12625.6362, 
			 "electric_dipole_moment_norm": 5.81372893159, 
			 "electric_quadrupole_moment_norm": 24.9866748452, 
			 "total_energy": -1450.52065466, 
			 "HOMO_LUMO_gap": 0.13824, 
			 "cosmo_polarized_energy": -20.14, 
			 "cosmo_cavitation_energy": 51.5, 
			 "cosmo_dispersion_energy": -35.48, 
			 "cosmo_repulsion_energy": 2.68, 
			 "cosmo_total_nonelectrostatic_energy": 18.7, 
			 "SMD_solvation_energy": 7.24 
		},
		"coords": [
			{
				"x": -2.6273552365,
				"y": -2.8193347082,
				"z": 0.8802993488,
				"element": "C" 
			},
			{
				"x": -2.0118962894,
				"y": -1.4099446415,
				"z": 0.9498558919,
				"element": "C" 
			},
			{
				"x": -0.5299994276,
				"y": -1.4483858703,
				"z": 1.453358857,
				"element": "C" 
			},
			{
				"x": -0.0401367047,
				"y": -1.3506746699,
				"z": -0.0255468498,
				"element": "C" 
			},
			{
				"x": -1.4852597332,
				"y": -0.9373183084,
				"z": -0.4466153268,
				"element": "C" 
			},
			{
				"x": 1.1327915444,
				"y": -0.4651401369,
				"z": -0.3771595418,
				"element": "C" 
			},
			{
				"x": 2.1986555504,
				"y": -0.8438954851,
				"z": -1.0160687786,
				"element": "N" 
			},
			{
				"x": 2.365409768,
				"y": -2.1103195109,
				"z": -1.4418251987,
				"element": "N" 
			},
			{
				"x": 3.5128527822,
				"y": -2.4704479448,
				"z": -2.1168011444,
				"element": "C" 
			},
			{
				"x": 4.3975096748,
				"y": -1.474728316,
				"z": -2.2934492216,
				"element": "N" 
			},
			{
				"x": 3.7101921755,
				"y": -4.0514154389,
				"z": -2.6427109274,
				"element": "S" 
			},
			{
				"x": 1.1287215968,
				"y": 0.9472394606,
				"z": 0.0059301621,
				"element": "C" 
			},
			{
				"x": 0.2274170662,
				"y": 1.7386207226,
				"z": 0.6723139094,
				"element": "C" 
			},
			{
				"x": 0.7992111098,
				"y": 3.0549235239,
				"z": 0.7400808649,
				"element": "C" 
			},
			{
				"x": 2.0424856323,
				"y": 2.9539669685,
				"z": 0.0881246469,
				"element": "C" 
			},
			{
				"x": 2.2435989075,
				"y": 1.6791635292,
				"z": -0.3568667109,
				"element": "O" 
			},
			{
				"x": 2.9200143776,
				"y": 4.0206058303,
				"z": -0.0649743064,
				"element": "C" 
			},
			{
				"x": 2.5103316417,
				"y": 5.2415183633,
				"z": 0.4703135374,
				"element": "C" 
			},
			{
				"x": 1.2720756215,
				"y": 5.3755308459,
				"z": 1.1286369257,
				"element": "C" 
			},
			{
				"x": 0.4075988917,
				"y": 4.2948374159,
				"z": 1.2713945512,
				"element": "C" 
			},
			{
				"x": -2.9562331774,
				"y": -0.4686934936,
				"z": 1.6775931358,
				"element": "C" 
			},
			{
				"x": -2.8957733845,
				"y": -0.3245087502,
				"z": 3.0713762321,
				"element": "C" 
			},
			{
				"x": -3.7941669859,
				"y": 0.5025647614,
				"z": 3.7474547544,
				"element": "C" 
			},
			{
				"x": -4.7734690091,
				"y": 1.2017055125,
				"z": 3.0397981729,
				"element": "C" 
			},
			{
				"x": -4.8472405595,
				"y": 1.0654047709,
				"z": 1.6525281891,
				"element": "C" 
			},
			{
				"x": -3.9470686133,
				"y": 0.2373807602,
				"z": 0.9799460561,
				"element": "C" 
			},
			{
				"x": -1.9643103966,
				"y": -3.519670225,
				"z": 0.3590708263,
				"element": "H" 
			},
			{
				"x": -3.5838184221,
				"y": -2.7988092729,
				"z": 0.3475871012,
				"element": "H" 
			},
			{
				"x": -2.8111103297,
				"y": -3.2121200295,
				"z": 1.8857759803,
				"element": "H" 
			},
			{
				"x": -0.2565179253,
				"y": -0.5724633409,
				"z": 2.0433482056,
				"element": "H" 
			},
			{
				"x": -0.2186306095,
				"y": -2.3451259866,
				"z": 1.9974675185,
				"element": "H" 
			},
			{
				"x": 0.1490179819,
				"y": -2.3615187482,
				"z": -0.3925354666,
				"element": "H" 
			},
			{
				"x": -1.5851007185,
				"y": 0.1382981859,
				"z": -0.5988997159,
				"element": "H" 
			},
			{
				"x": -1.8886119781,
				"y": -1.4516013998,
				"z": -1.3240963887,
				"element": "H" 
			},
			{
				"x": 1.6909056191,
				"y": -2.8551043925,
				"z": -1.3030491487,
				"element": "H" 
			},
			{
				"x": 4.1844426432,
				"y": -0.5520052356,
				"z": -1.9375294735,
				"element": "H" 
			},
			{
				"x": 5.2542718343,
				"y": -1.6764602368,
				"z": -2.7797609123,
				"element": "H" 
			},
			{
				"x": -0.7290656608,
				"y": 1.438731396,
				"z": 1.0719215305,
				"element": "H" 
			},
			{
				"x": 3.8701152652,
				"y": 3.9022928509,
				"z": -0.5742588515,
				"element": "H" 
			},
			{
				"x": 3.1599469925,
				"y": 6.1065352679,
				"z": 0.3773317814,
				"element": "H" 
			},
			{
				"x": 0.9899958228,
				"y": 6.3436163121,
				"z": 1.5315903497,
				"element": "H" 
			},
			{
				"x": -0.5451498524,
				"y": 4.4062608279,
				"z": 1.7801504127,
				"element": "H" 
			},
			{
				"x": -2.1387027076,
				"y": -0.8640178322,
				"z": 3.634840475,
				"element": "H" 
			},
			{
				"x": -3.7269143045,
				"y": 0.6018466465,
				"z": 4.8272841857,
				"element": "H" 
			},
			{
				"x": -5.4712521517,
				"y": 1.8479913718,
				"z": 3.5642358154,
				"element": "H" 
			},
			{
				"x": -5.6047873348,
				"y": 1.6054846652,
				"z": 1.0914201293,
				"element": "H" 
			},
			{
				"x": -4.0163909863,
				"y": 0.1394839853,
				"z": -0.1004815836,
				"element": "H" 
			}
		],
		 "valence_orbital": [ 
			{
				"type": "occ",
				"energy": -0.24815,
				"method": "rhf"
			},
			{
				"type": "occ",
				"energy": -0.24134,
				"method": "rhf"
			},
			{
				"type": "occ",
				"energy": -0.22678,
				"method": "rhf"
			},
			{
				"type": "occ",
				"energy": -0.207,
				"method": "rhf"
			},
			{
				"type": "occ",
				"energy": -0.20139,
				"method": "rhf"
			},
			{
				"type": "unocc",
				"energy": -0.06315,
				"method": "rhf"
			},
			{
				"type": "unocc",
				"energy": -0.00958,
				"method": "rhf"
			},
			{
				"type": "unocc",
				"energy": -0.00915,
				"method": "rhf"
			},
			{
				"type": "unocc",
				"energy": -0.00319,
				"method": "rhf"
			},
			{
				"type": "unocc",
				"energy": 0.01029,
				"method": "rhf"
			}
		],
		"cosmo_sigma_profile": { 
			"-0.025": 0.0,
			"-0.024": 0.0,
			"-0.023": 0.0,
			"-0.022": 0.0,
			"-0.021": 0.0,
			"-0.02": 0.0,
			"-0.019": 0.0,
			"-0.018": 0.0,
			"-0.017": 0.0,
			"-0.016": 0.0,
			"-0.015": 0.73934104522,
			"-0.014": 2.0188438646,
			"-0.013": 2.73781067082,
			"-0.012": 2.73317508419,
			"-0.011": 2.98273296204,
			"-0.01": 3.30714181037,
			"-0.009": 1.67710479694,
			"-0.008": 3.32091471726,
			"-0.007": 4.61212643977,
			"-0.006": 11.1081587599,
			"-0.005": 21.2391718107,
			"-0.004": 31.3835890548,
			"-0.003": 44.6626522927,
			"-0.002": 38.1272439334,
			"-0.001": 33.8556443831,
			"0.0": 30.5437952786,
			"0.001": 31.927947546,
			"0.002": 26.717080899,
			"0.003": 24.270267531,
			"0.004": 23.4353680267,
			"0.005": 20.8156652483,
			"0.006": 14.6845793583,
			"0.007": 6.60845237866,
			"0.008": 5.06471980658,
			"0.009": 5.26364375818,
			"0.01": 5.61032073187,
			"0.011": 8.33184161176,
			"0.012": 4.65604808458,
			"0.013": 0.427946630711,
			"0.014": 0.0,
			"0.015": 0.0,
			"0.016": 0.0,
			"0.017": 0.0,
			"0.018": 0.0,
			"0.019": 0.0,
			"0.02": 0.0,
			"0.021": 0.0,
			"0.022": 0.0,
			"0.023": 0.0,
			"0.024": 0.0,
			"0.025": 0.0
		}
	}
}
