{
	 "smiles": "CNC1=CC(=CC=C1)[N+]([O-])=O", 
	 "Tm": 339.15, 
	 "num_atms": 19, 
	 "gaussian": { 
		 "optdone": 1, 
		 "sigma_profile": "yes", 
		 "theory": "DFT", 
		 "functional": "B3LYP", 
		 "basiset": "6-31G**", 
		 "properties": { 
			 "R2extent": 2369.4508, 
			 "electric_dipole_moment_norm": 5.9166932775, 
			 "electric_quadrupole_moment_norm": 9.69861660341, 
			 "total_energy": -531.416630121, 
			 "HOMO_LUMO_gap": 0.13512, 
			 "cosmo_polarized_energy": -10.7, 
			 "cosmo_cavitation_energy": 23.48, 
			 "cosmo_dispersion_energy": -17.45, 
			 "cosmo_repulsion_energy": 1.4, 
			 "cosmo_total_nonelectrostatic_energy": 7.43, 
			 "SMD_solvation_energy": 5.73 
		},
		"coords": [
			{
				"x": 2.0271935681,
				"y": 1.8308181626,
				"z": 2.1925798728,
				"element": "C" 
			},
			{
				"x": 1.4580962076,
				"y": 0.5943320293,
				"z": 1.6949390156,
				"element": "N" 
			},
			{
				"x": 1.3044206617,
				"y": 0.3334655188,
				"z": 0.3462206866,
				"element": "C" 
			},
			{
				"x": 0.5264770902,
				"y": -0.7662616969,
				"z": -0.0638017696,
				"element": "C" 
			},
			{
				"x": 0.4021515803,
				"y": -1.0463275382,
				"z": -1.4170549229,
				"element": "C" 
			},
			{
				"x": 1.0168328843,
				"y": -0.2863894552,
				"z": -2.4121060845,
				"element": "C" 
			},
			{
				"x": 1.7824909953,
				"y": 0.8007453341,
				"z": -1.9990098465,
				"element": "C" 
			},
			{
				"x": 1.9273596257,
				"y": 1.1171364771,
				"z": -0.6478697002,
				"element": "C" 
			},
			{
				"x": -0.4220363046,
				"y": -2.2024844975,
				"z": -1.8139295048,
				"element": "N" 
			},
			{
				"x": -0.9645926506,
				"y": -2.8558327401,
				"z": -0.922114245,
				"element": "O" 
			},
			{
				"x": -0.5208701971,
				"y": -2.4478746835,
				"z": -3.0155827492,
				"element": "O" 
			},
			{
				"x": 1.5015463946,
				"y": 2.7276800913,
				"z": 1.8300794114,
				"element": "H" 
			},
			{
				"x": 1.9813650338,
				"y": 1.8227181333,
				"z": 3.2833993958,
				"element": "H" 
			},
			{
				"x": 3.0822067203,
				"y": 1.9172442251,
				"z": 1.9084215032,
				"element": "H" 
			},
			{
				"x": 0.7866322936,
				"y": 0.1441307916,
				"z": 2.2979072822,
				"element": "H" 
			},
			{
				"x": 0.0248436012,
				"y": -1.402531071,
				"z": 0.6558359452,
				"element": "H" 
			},
			{
				"x": 0.8877187382,
				"y": -0.5479487232,
				"z": -3.4534043839,
				"element": "H" 
			},
			{
				"x": 2.2749822634,
				"y": 1.4209869834,
				"z": -2.7418526702,
				"element": "H" 
			},
			{
				"x": 2.5274814941,
				"y": 1.9743926593,
				"z": -0.364957236,
				"element": "H" 
			}
		],
		 "valence_orbital": [ 
			{
				"type": "occ",
				"energy": -0.30149,
				"method": "rhf"
			},
			{
				"type": "occ",
				"energy": -0.29935,
				"method": "rhf"
			},
			{
				"type": "occ",
				"energy": -0.28265,
				"method": "rhf"
			},
			{
				"type": "occ",
				"energy": -0.27185,
				"method": "rhf"
			},
			{
				"type": "occ",
				"energy": -0.21488,
				"method": "rhf"
			},
			{
				"type": "unocc",
				"energy": -0.07976,
				"method": "rhf"
			},
			{
				"type": "unocc",
				"energy": -0.00867,
				"method": "rhf"
			},
			{
				"type": "unocc",
				"energy": 0.01816,
				"method": "rhf"
			},
			{
				"type": "unocc",
				"energy": 0.06801,
				"method": "rhf"
			},
			{
				"type": "unocc",
				"energy": 0.08797,
				"method": "rhf"
			}
		],
		"cosmo_sigma_profile": { 
			"-0.025": 0.0,
			"-0.024": 0.0,
			"-0.023": 0.0,
			"-0.022": 0.0,
			"-0.021": 0.0,
			"-0.02": 0.0,
			"-0.019": 0.0,
			"-0.018": 0.0,
			"-0.017": 0.0,
			"-0.016": 0.0,
			"-0.015": 0.0,
			"-0.014": 0.261236251272,
			"-0.013": 1.43240319583,
			"-0.012": 1.91096796761,
			"-0.011": 1.36343396727,
			"-0.01": 1.14994559472,
			"-0.009": 1.63869370556,
			"-0.008": 2.48510432807,
			"-0.007": 2.92610637595,
			"-0.006": 9.48933400528,
			"-0.005": 12.0975656133,
			"-0.004": 15.1931585904,
			"-0.003": 14.0303774149,
			"-0.002": 14.8930093263,
			"-0.001": 12.8132404327,
			"0.0": 10.9376810333,
			"0.001": 12.8721241574,
			"0.002": 11.223072169,
			"0.003": 15.1453193915,
			"0.004": 10.6722592044,
			"0.005": 3.22306545705,
			"0.006": 4.60722484615,
			"0.007": 7.03631824819,
			"0.008": 10.1712180124,
			"0.009": 5.53430317854,
			"0.01": 3.43600928686,
			"0.011": 0.497686783879,
			"0.012": 0.0,
			"0.013": 0.0,
			"0.014": 0.0,
			"0.015": 0.0,
			"0.016": 0.0,
			"0.017": 0.0,
			"0.018": 0.0,
			"0.019": 0.0,
			"0.02": 0.0,
			"0.021": 0.0,
			"0.022": 0.0,
			"0.023": 0.0,
			"0.024": 0.0,
			"0.025": 0.0
		}
	}
}
