{
	 "smiles": "COC(=O)C1=C(Cl)C(Cl)=C(C(=O)OC)C(Cl)=C1Cl", 
	 "Tm": 429.15, 
	 "num_atms": 24, 
	 "gaussian": { 
		 "optdone": 1, 
		 "sigma_profile": "yes", 
		 "theory": "DFT", 
		 "functional": "B3LYP", 
		 "basiset": "6-31G**", 
		 "properties": { 
			 "R2extent": 8661.4638, 
			 "electric_dipole_moment_norm": 3.52592944059, 
			 "electric_quadrupole_moment_norm": 21.311356206, 
			 "total_energy": -2526.32325083, 
			 "HOMO_LUMO_gap": 0.20537, 
			 "cosmo_polarized_energy": -10.51, 
			 "cosmo_cavitation_energy": 37.32, 
			 "cosmo_dispersion_energy": -25.6, 
			 "cosmo_repulsion_energy": 2.0, 
			 "cosmo_total_nonelectrostatic_energy": 13.72, 
			 "SMD_solvation_energy": 8.2 
		},
		"coords": [
			{
				"x": 1.6381122544,
				"y": 2.1393525571,
				"z": -3.0085995892,
				"element": "C" 
			},
			{
				"x": 1.2809157144,
				"y": 1.4272572632,
				"z": -1.8058426885,
				"element": "O" 
			},
			{
				"x": 2.1171002671,
				"y": 1.5969246533,
				"z": -0.7732047738,
				"element": "C" 
			},
			{
				"x": 3.1123620938,
				"y": 2.2803473858,
				"z": -0.7803133849,
				"element": "O" 
			},
			{
				"x": 1.6488854277,
				"y": 0.8078719008,
				"z": 0.4303946088,
				"element": "C" 
			},
			{
				"x": 0.7996400164,
				"y": 1.3998664379,
				"z": 1.3711966003,
				"element": "C" 
			},
			{
				"x": 0.2335415152,
				"y": 3.0234466286,
				"z": 1.0971321809,
				"element": "Cl" 
			},
			{
				"x": 0.4099986604,
				"y": 0.6883191822,
				"z": 2.5137329526,
				"element": "C" 
			},
			{
				"x": -0.6513394902,
				"y": 1.4075734514,
				"z": 3.6917787787,
				"element": "Cl" 
			},
			{
				"x": 0.8684830383,
				"y": -0.6172737554,
				"z": 2.7187207095,
				"element": "C" 
			},
			{
				"x": 0.4954820552,
				"y": -1.3640603433,
				"z": 3.9811237147,
				"element": "C" 
			},
			{
				"x": 1.139707379,
				"y": -1.3190555378,
				"z": 5.001227525,
				"element": "O" 
			},
			{
				"x": -0.6309322456,
				"y": -2.0662918576,
				"z": 3.8011616982,
				"element": "O" 
			},
			{
				"x": -1.0761727292,
				"y": -2.8176812941,
				"z": 4.9494116002,
				"element": "C" 
			},
			{
				"x": 1.7110149912,
				"y": -1.2122506542,
				"z": 1.7737722245,
				"element": "C" 
			},
			{
				"x": 2.2589790407,
				"y": -2.8438854892,
				"z": 2.0366274335,
				"element": "Cl" 
			},
			{
				"x": 2.1006626071,
				"y": -0.5006977243,
				"z": 0.6312415531,
				"element": "C" 
			},
			{
				"x": 3.1438161822,
				"y": -1.2280130312,
				"z": -0.5580413083,
				"element": "Cl" 
			},
			{
				"x": 2.6187208684,
				"y": 1.8147135958,
				"z": -3.363681322,
				"element": "H" 
			},
			{
				"x": 0.8632702851,
				"y": 1.8920039744,
				"z": -3.7328347378,
				"element": "H" 
			},
			{
				"x": 1.6626090048,
				"y": 3.2147434785,
				"z": -2.8188729956,
				"element": "H" 
			},
			{
				"x": -0.3160016091,
				"y": -3.5444438835,
				"z": 5.2444039684,
				"element": "H" 
			},
			{
				"x": -1.2754084099,
				"y": -2.1459605844,
				"z": 5.7873608892,
				"element": "H" 
			},
			{
				"x": -1.9885469175,
				"y": -3.3200063539,
				"z": 4.6311043625,
				"element": "H" 
			}
		],
		 "valence_orbital": [ 
			{
				"type": "occ",
				"energy": -0.31933,
				"method": "rhf"
			},
			{
				"type": "occ",
				"energy": -0.30548,
				"method": "rhf"
			},
			{
				"type": "occ",
				"energy": -0.29508,
				"method": "rhf"
			},
			{
				"type": "occ",
				"energy": -0.27241,
				"method": "rhf"
			},
			{
				"type": "occ",
				"energy": -0.26235,
				"method": "rhf"
			},
			{
				"type": "unocc",
				"energy": -0.05698,
				"method": "rhf"
			},
			{
				"type": "unocc",
				"energy": -0.0519,
				"method": "rhf"
			},
			{
				"type": "unocc",
				"energy": -0.03272,
				"method": "rhf"
			},
			{
				"type": "unocc",
				"energy": -0.0155,
				"method": "rhf"
			},
			{
				"type": "unocc",
				"energy": -0.01392,
				"method": "rhf"
			}
		],
		"cosmo_sigma_profile": { 
			"-0.025": 0.0,
			"-0.024": 0.0,
			"-0.023": 0.0,
			"-0.022": 0.0,
			"-0.021": 0.0,
			"-0.02": 0.0,
			"-0.019": 0.0,
			"-0.018": 0.0,
			"-0.017": 0.0,
			"-0.016": 0.0,
			"-0.015": 0.0,
			"-0.014": 0.0,
			"-0.013": 0.0,
			"-0.012": 0.0,
			"-0.011": 0.0,
			"-0.01": 0.0,
			"-0.009": 0.0,
			"-0.008": 0.396917010747,
			"-0.007": 7.41664271208,
			"-0.006": 13.0278633753,
			"-0.005": 17.8253196921,
			"-0.004": 28.0333916376,
			"-0.003": 31.1292075122,
			"-0.002": 25.2390507862,
			"-0.001": 25.1143574632,
			"0.0": 24.6491914519,
			"0.001": 29.1252246135,
			"0.002": 36.7668343241,
			"0.003": 25.182133997,
			"0.004": 6.33671865492,
			"0.005": 5.10573375614,
			"0.006": 5.67918754691,
			"0.007": 4.70838576152,
			"0.008": 3.95772761357,
			"0.009": 4.06598194883,
			"0.01": 9.33154540881,
			"0.011": 4.45014626791,
			"0.012": 0.157008120304,
			"0.013": 0.0,
			"0.014": 0.0,
			"0.015": 0.0,
			"0.016": 0.0,
			"0.017": 0.0,
			"0.018": 0.0,
			"0.019": 0.0,
			"0.02": 0.0,
			"0.021": 0.0,
			"0.022": 0.0,
			"0.023": 0.0,
			"0.024": 0.0,
			"0.025": 0.0
		}
	}
}
