{
	 "smiles": "CC(=O)NC1=CC=C2C(NC(=C2OC(C)=O)C2=CC=CC=C2)=C1", 
	 "Tm": 492.15, 
	 "num_atms": 39, 
	 "gaussian": { 
		 "optdone": 1, 
		 "sigma_profile": "yes", 
		 "theory": "DFT", 
		 "functional": "B3LYP", 
		 "basiset": "6-31G**", 
		 "properties": { 
			 "R2extent": 9742.6757, 
			 "electric_dipole_moment_norm": 5.55842694834, 
			 "electric_quadrupole_moment_norm": 24.7355049358, 
			 "total_energy": -1030.76833146, 
			 "HOMO_LUMO_gap": 0.15042, 
			 "cosmo_polarized_energy": -22.17, 
			 "cosmo_cavitation_energy": 43.95, 
			 "cosmo_dispersion_energy": -30.72, 
			 "cosmo_repulsion_energy": 2.34, 
			 "cosmo_total_nonelectrostatic_energy": 15.57, 
			 "SMD_solvation_energy": 8.89 
		},
		"coords": [
			{
				"x": 3.690075281,
				"y": 1.3950103372,
				"z": -3.5156754772,
				"element": "C" 
			},
			{
				"x": 4.8605065664,
				"y": 0.9328463922,
				"z": -2.6671890626,
				"element": "C" 
			},
			{
				"x": 6.0197915282,
				"y": 1.1395067526,
				"z": -2.9988983234,
				"element": "O" 
			},
			{
				"x": 4.5992918011,
				"y": 0.2447384737,
				"z": -1.4950255824,
				"element": "N" 
			},
			{
				"x": 3.3846312566,
				"y": -0.141486946,
				"z": -0.880236701,
				"element": "C" 
			},
			{
				"x": 3.3069009758,
				"y": -1.4478748726,
				"z": -0.3336286829,
				"element": "C" 
			},
			{
				"x": 2.1681613197,
				"y": -1.9006175902,
				"z": 0.3099437951,
				"element": "C" 
			},
			{
				"x": 1.0550960952,
				"y": -1.0467329459,
				"z": 0.4114368015,
				"element": "C" 
			},
			{
				"x": 1.1544000532,
				"y": 0.2650433146,
				"z": -0.1241846525,
				"element": "C" 
			},
			{
				"x": -0.0265623831,
				"y": 0.9212569216,
				"z": 0.1433036967,
				"element": "N" 
			},
			{
				"x": -0.9157130757,
				"y": 0.0642438521,
				"z": 0.7901346537,
				"element": "C" 
			},
			{
				"x": -0.2616413208,
				"y": -1.1401618142,
				"z": 0.9686071657,
				"element": "C" 
			},
			{
				"x": -0.7898928885,
				"y": -2.1643880979,
				"z": 1.7402082529,
				"element": "O" 
			},
			{
				"x": -0.7830686527,
				"y": -3.4507571377,
				"z": 1.2634740504,
				"element": "C" 
			},
			{
				"x": -1.3692315649,
				"y": -4.377118495,
				"z": 2.3001431734,
				"element": "C" 
			},
			{
				"x": -0.3572170006,
				"y": -3.7689911732,
				"z": 0.1812234417,
				"element": "O" 
			},
			{
				"x": -2.2427801772,
				"y": 0.5216581469,
				"z": 1.2037248561,
				"element": "C" 
			},
			{
				"x": -2.4786762045,
				"y": 1.885442484,
				"z": 1.4629652296,
				"element": "C" 
			},
			{
				"x": -3.7442837475,
				"y": 2.3341057725,
				"z": 1.8349363718,
				"element": "C" 
			},
			{
				"x": -4.800597369,
				"y": 1.4309005756,
				"z": 1.9648262267,
				"element": "C" 
			},
			{
				"x": -4.5778984648,
				"y": 0.0740342401,
				"z": 1.7177403803,
				"element": "C" 
			},
			{
				"x": -3.3168150711,
				"y": -0.3778390956,
				"z": 1.3377471858,
				"element": "C" 
			},
			{
				"x": 2.3074098333,
				"y": 0.7358404731,
				"z": -0.7595333065,
				"element": "C" 
			},
			{
				"x": 4.0451653768,
				"y": 1.4620343446,
				"z": -4.5447624264,
				"element": "H" 
			},
			{
				"x": 3.3712649298,
				"y": 2.3965959705,
				"z": -3.2073690213,
				"element": "H" 
			},
			{
				"x": 2.8272799997,
				"y": 0.7285051719,
				"z": -3.4550902689,
				"element": "H" 
			},
			{
				"x": 5.4513129152,
				"y": -0.1147298642,
				"z": -1.0815660917,
				"element": "H" 
			},
			{
				"x": 4.1615791832,
				"y": -2.1083218767,
				"z": -0.4479142564,
				"element": "H" 
			},
			{
				"x": 2.1269771293,
				"y": -2.9111738905,
				"z": 0.6985194404,
				"element": "H" 
			},
			{
				"x": -0.3075340761,
				"y": 1.7917494449,
				"z": -0.2787686171,
				"element": "H" 
			},
			{
				"x": -2.3611719086,
				"y": -4.0311042512,
				"z": 2.6041124864,
				"element": "H" 
			},
			{
				"x": -1.4304617728,
				"y": -5.384534323,
				"z": 1.8902146338,
				"element": "H" 
			},
			{
				"x": -0.7390758235,
				"y": -4.3787154795,
				"z": 3.1948615901,
				"element": "H" 
			},
			{
				"x": -1.6577372328,
				"y": 2.5947648116,
				"z": 1.4056919786,
				"element": "H" 
			},
			{
				"x": -3.901877055,
				"y": 3.3902214066,
				"z": 2.0342721949,
				"element": "H" 
			},
			{
				"x": -5.7865124061,
				"y": 1.7798165892,
				"z": 2.2570337858,
				"element": "H" 
			},
			{
				"x": -5.3945391065,
				"y": -0.6361692834,
				"z": 1.8113322798,
				"element": "H" 
			},
			{
				"x": -3.1598384628,
				"y": -1.429185264,
				"z": 1.1283317731,
				"element": "H" 
			},
			{
				"x": 2.37328152,
				"y": 1.7573869255,
				"z": -1.1156429743,
				"element": "H" 
			}
		],
		 "valence_orbital": [ 
			{
				"type": "occ",
				"energy": -0.26065,
				"method": "rhf"
			},
			{
				"type": "occ",
				"energy": -0.24851,
				"method": "rhf"
			},
			{
				"type": "occ",
				"energy": -0.24564,
				"method": "rhf"
			},
			{
				"type": "occ",
				"energy": -0.22543,
				"method": "rhf"
			},
			{
				"type": "occ",
				"energy": -0.19484,
				"method": "rhf"
			},
			{
				"type": "unocc",
				"energy": -0.04442,
				"method": "rhf"
			},
			{
				"type": "unocc",
				"energy": -0.01166,
				"method": "rhf"
			},
			{
				"type": "unocc",
				"energy": -0.00098,
				"method": "rhf"
			},
			{
				"type": "unocc",
				"energy": 0.00299,
				"method": "rhf"
			},
			{
				"type": "unocc",
				"energy": 0.00993,
				"method": "rhf"
			}
		],
		"cosmo_sigma_profile": { 
			"-0.025": 0.0,
			"-0.024": 0.0,
			"-0.023": 0.0,
			"-0.022": 0.0,
			"-0.021": 0.0,
			"-0.02": 0.0,
			"-0.019": 0.0,
			"-0.018": 0.0,
			"-0.017": 0.0,
			"-0.016": 0.233166935769,
			"-0.015": 0.962980911395,
			"-0.014": 1.70326450238,
			"-0.013": 2.34008600046,
			"-0.012": 2.6283749077,
			"-0.011": 2.14768453522,
			"-0.01": 2.01035337844,
			"-0.009": 2.95830911456,
			"-0.008": 4.11603382756,
			"-0.007": 9.3635595149,
			"-0.006": 20.99143885,
			"-0.005": 26.9717020833,
			"-0.004": 27.8229531251,
			"-0.003": 25.9545183176,
			"-0.002": 28.0112601158,
			"-0.001": 23.1319095009,
			"0.0": 15.0428641433,
			"0.001": 17.5026717365,
			"0.002": 19.8332829745,
			"0.003": 24.0510195604,
			"0.004": 25.0387475104,
			"0.005": 22.9453280043,
			"0.006": 7.72309267349,
			"0.007": 4.38253878844,
			"0.008": 4.29668702016,
			"0.009": 2.93836196284,
			"0.01": 4.32965837089,
			"0.011": 5.38222734384,
			"0.012": 5.87890655105,
			"0.013": 4.18870651167,
			"0.014": 4.96144643315,
			"0.015": 1.1746820795,
			"0.016": 0.000280439553686,
			"0.017": 0.0,
			"0.018": 0.0,
			"0.019": 0.0,
			"0.02": 0.0,
			"0.021": 0.0,
			"0.022": 0.0,
			"0.023": 0.0,
			"0.024": 0.0,
			"0.025": 0.0
		}
	}
}
