{
	 "smiles": "NC1=NNC(C(O)=O)=C1C1=CC=CC=C1", 
	 "Tm": 543.15, 
	 "num_atms": 24, 
	 "gaussian": { 
		 "optdone": 1, 
		 "sigma_profile": "yes", 
		 "theory": "DFT", 
		 "functional": "B3LYP", 
		 "basiset": "6-31G**", 
		 "properties": { 
			 "R2extent": 4034.498, 
			 "electric_dipole_moment_norm": 4.93563392281, 
			 "electric_quadrupole_moment_norm": 20.1282068816, 
			 "total_energy": -701.190215744, 
			 "HOMO_LUMO_gap": 0.16491, 
			 "cosmo_polarized_energy": -16.11, 
			 "cosmo_cavitation_energy": 28.58, 
			 "cosmo_dispersion_energy": -20.84, 
			 "cosmo_repulsion_energy": 1.63, 
			 "cosmo_total_nonelectrostatic_energy": 9.37, 
			 "SMD_solvation_energy": 4.8 
		},
		"coords": [
			{
				"x": -0.6667723169,
				"y": 0.8176812202,
				"z": 1.4562589785,
				"element": "N" 
			},
			{
				"x": 0.0149927621,
				"y": -0.393082635,
				"z": 1.3712541373,
				"element": "C" 
			},
			{
				"x": 0.6235266381,
				"y": -0.9122400777,
				"z": 2.4416854642,
				"element": "N" 
			},
			{
				"x": 1.1127590559,
				"y": -2.0884260464,
				"z": 2.0112046502,
				"element": "N" 
			},
			{
				"x": 0.8520579886,
				"y": -2.3397980199,
				"z": 0.7057506196,
				"element": "C" 
			},
			{
				"x": 1.2853095487,
				"y": -3.6518230846,
				"z": 0.1753275294,
				"element": "C" 
			},
			{
				"x": 0.8971498434,
				"y": -3.9876623383,
				"z": -1.0716651685,
				"element": "O" 
			},
			{
				"x": 1.9528378293,
				"y": -4.4109633583,
				"z": 0.8469222008,
				"element": "O" 
			},
			{
				"x": 0.1279463616,
				"y": -1.2385133571,
				"z": 0.2279578559,
				"element": "C" 
			},
			{
				"x": -0.3941686892,
				"y": -0.9711682385,
				"z": -1.1243374608,
				"element": "C" 
			},
			{
				"x": 0.4064052125,
				"y": -1.1495347765,
				"z": -2.2705575789,
				"element": "C" 
			},
			{
				"x": -0.1058196348,
				"y": -0.9033715892,
				"z": -3.5463213916,
				"element": "C" 
			},
			{
				"x": -1.417024332,
				"y": -0.4531203962,
				"z": -3.70191229,
				"element": "C" 
			},
			{
				"x": -2.2142453064,
				"y": -0.2491593132,
				"z": -2.5723512511,
				"element": "C" 
			},
			{
				"x": -1.7126744404,
				"y": -0.5070683943,
				"z": -1.2980036622,
				"element": "C" 
			},
			{
				"x": -0.4067289781,
				"y": 1.3425865192,
				"z": 2.2824791341,
				"element": "H" 
			},
			{
				"x": -0.6011548459,
				"y": 1.3821427754,
				"z": 0.6183591862,
				"element": "H" 
			},
			{
				"x": 1.6023020999,
				"y": -2.7174022565,
				"z": 2.6311056495,
				"element": "H" 
			},
			{
				"x": 0.3473796373,
				"y": -3.2903897676,
				"z": -1.4673304454,
				"element": "H" 
			},
			{
				"x": 1.4437397661,
				"y": -1.4524346284,
				"z": -2.1571551445,
				"element": "H" 
			},
			{
				"x": 0.528606012,
				"y": -1.0489304151,
				"z": -4.4157807076,
				"element": "H" 
			},
			{
				"x": -1.8131759717,
				"y": -0.2561186708,
				"z": -4.693525138,
				"element": "H" 
			},
			{
				"x": -3.2355582791,
				"y": 0.103342353,
				"z": -2.6849558522,
				"element": "H" 
			},
			{
				"x": -2.339289961,
				"y": -0.3587455042,
				"z": -0.424009315,
				"element": "H" 
			}
		],
		 "valence_orbital": [ 
			{
				"type": "occ",
				"energy": -0.28731,
				"method": "rhf"
			},
			{
				"type": "occ",
				"energy": -0.28174,
				"method": "rhf"
			},
			{
				"type": "occ",
				"energy": -0.27001,
				"method": "rhf"
			},
			{
				"type": "occ",
				"energy": -0.24607,
				"method": "rhf"
			},
			{
				"type": "occ",
				"energy": -0.21662,
				"method": "rhf"
			},
			{
				"type": "unocc",
				"energy": -0.05171,
				"method": "rhf"
			},
			{
				"type": "unocc",
				"energy": -0.02481,
				"method": "rhf"
			},
			{
				"type": "unocc",
				"energy": -0.01532,
				"method": "rhf"
			},
			{
				"type": "unocc",
				"energy": 0.05917,
				"method": "rhf"
			},
			{
				"type": "unocc",
				"energy": 0.07811,
				"method": "rhf"
			}
		],
		"cosmo_sigma_profile": { 
			"-0.025": 0.0,
			"-0.024": 0.0,
			"-0.023": 0.0,
			"-0.022": 0.0,
			"-0.021": 0.0,
			"-0.02": 0.0,
			"-0.019": 0.0,
			"-0.018": 0.0,
			"-0.017": 0.0,
			"-0.016": 0.374653933828,
			"-0.015": 0.854248538247,
			"-0.014": 0.970100965076,
			"-0.013": 1.20989202335,
			"-0.012": 2.6239461187,
			"-0.011": 4.42640142486,
			"-0.01": 4.20462829414,
			"-0.009": 3.33113388536,
			"-0.008": 3.80042835582,
			"-0.007": 7.0779481346,
			"-0.006": 12.1030455605,
			"-0.005": 15.337545965,
			"-0.004": 15.2012715663,
			"-0.003": 12.7533047084,
			"-0.002": 14.2494025994,
			"-0.001": 13.4407716992,
			"0.0": 13.4547783325,
			"0.001": 13.3925727751,
			"0.002": 16.4151684456,
			"0.003": 12.4673961972,
			"0.004": 12.0308254402,
			"0.005": 7.50688413318,
			"0.006": 5.08983576359,
			"0.007": 4.47233557187,
			"0.008": 4.37302843634,
			"0.009": 6.08363176573,
			"0.01": 6.19728933152,
			"0.011": 6.6176800481,
			"0.012": 4.20070626022,
			"0.013": 2.60544405733,
			"0.014": 1.14476593482,
			"0.015": 0.642126530772,
			"0.016": 0.0,
			"0.017": 0.0,
			"0.018": 0.0,
			"0.019": 0.0,
			"0.02": 0.0,
			"0.021": 0.0,
			"0.022": 0.0,
			"0.023": 0.0,
			"0.024": 0.0,
			"0.025": 0.0
		}
	}
}
