{
	 "smiles": "COC1=C(OC)C(=CC=C1)C(N)=S", 
	 "Tm": 420.15, 
	 "num_atms": 24, 
	 "gaussian": { 
		 "optdone": 1, 
		 "sigma_profile": "yes", 
		 "theory": "DFT", 
		 "functional": "B3LYP", 
		 "basiset": "6-31G**", 
		 "properties": { 
			 "R2extent": 4040.1845, 
			 "electric_dipole_moment_norm": 5.26697288772, 
			 "electric_quadrupole_moment_norm": 24.3422455544, 
			 "total_energy": -952.950882662, 
			 "HOMO_LUMO_gap": 0.14363, 
			 "cosmo_polarized_energy": -14.03, 
			 "cosmo_cavitation_energy": 28.84, 
			 "cosmo_dispersion_energy": -21.15, 
			 "cosmo_repulsion_energy": 1.64, 
			 "cosmo_total_nonelectrostatic_energy": 9.33, 
			 "SMD_solvation_energy": 5.45 
		},
		"coords": [
			{
				"x": 0.2144383021,
				"y": -2.6706488459,
				"z": -0.5051740327,
				"element": "C" 
			},
			{
				"x": -0.4473210377,
				"y": -1.4696106947,
				"z": -0.0904581292,
				"element": "O" 
			},
			{
				"x": -0.2330896269,
				"y": -0.3799514278,
				"z": -0.9059272265,
				"element": "C" 
			},
			{
				"x": 0.988778481,
				"y": 0.3170490337,
				"z": -0.8538946873,
				"element": "C" 
			},
			{
				"x": 1.9761053609,
				"y": -0.1686551245,
				"z": -0.0100915118,
				"element": "O" 
			},
			{
				"x": 1.7454833081,
				"y": 0.0880505603,
				"z": 1.3891066925,
				"element": "C" 
			},
			{
				"x": 1.1993466062,
				"y": 1.4601461999,
				"z": -1.6592435297,
				"element": "C" 
			},
			{
				"x": 0.1468112149,
				"y": 1.8675234667,
				"z": -2.5000107246,
				"element": "C" 
			},
			{
				"x": -1.0619369403,
				"y": 1.1847100018,
				"z": -2.5399791402,
				"element": "C" 
			},
			{
				"x": -1.256042629,
				"y": 0.0550618988,
				"z": -1.7440696795,
				"element": "C" 
			},
			{
				"x": 2.4724053497,
				"y": 2.2555493836,
				"z": -1.6760382328,
				"element": "C" 
			},
			{
				"x": 3.5634984292,
				"y": 1.6528180652,
				"z": -1.170091679,
				"element": "N" 
			},
			{
				"x": 2.5704150811,
				"y": 3.8081794949,
				"z": -2.3027839782,
				"element": "S" 
			},
			{
				"x": -0.0601676874,
				"y": -3.4377145555,
				"z": 0.221650566,
				"element": "H" 
			},
			{
				"x": 1.3016805801,
				"y": -2.543507791,
				"z": -0.5131747626,
				"element": "H" 
			},
			{
				"x": -0.1256698446,
				"y": -2.9780131355,
				"z": -1.5018863459,
				"element": "H" 
			},
			{
				"x": 2.580406575,
				"y": -0.3690168736,
				"z": 1.9235462982,
				"element": "H" 
			},
			{
				"x": 1.7288360785,
				"y": 1.1661432772,
				"z": 1.5835389719,
				"element": "H" 
			},
			{
				"x": 0.8055673311,
				"y": -0.3676063921,
				"z": 1.7089729437,
				"element": "H" 
			},
			{
				"x": 0.3098648339,
				"y": 2.7466929898,
				"z": -3.1124700464,
				"element": "H" 
			},
			{
				"x": -1.8539619188,
				"y": 1.5278635635,
				"z": -3.1981418203,
				"element": "H" 
			},
			{
				"x": -2.1884879241,
				"y": -0.5004282858,
				"z": -1.7537801999,
				"element": "H" 
			},
			{
				"x": 3.4891063966,
				"y": 0.74725914,
				"z": -0.7234348088,
				"element": "H" 
			},
			{
				"x": 4.4265336804,
				"y": 2.175506051,
				"z": -1.161164937,
				"element": "H" 
			}
		],
		 "valence_orbital": [ 
			{
				"type": "occ",
				"energy": -0.27874,
				"method": "rhf"
			},
			{
				"type": "occ",
				"energy": -0.26197,
				"method": "rhf"
			},
			{
				"type": "occ",
				"energy": -0.24513,
				"method": "rhf"
			},
			{
				"type": "occ",
				"energy": -0.21788,
				"method": "rhf"
			},
			{
				"type": "occ",
				"energy": -0.20188,
				"method": "rhf"
			},
			{
				"type": "unocc",
				"energy": -0.05825,
				"method": "rhf"
			},
			{
				"type": "unocc",
				"energy": -0.00877,
				"method": "rhf"
			},
			{
				"type": "unocc",
				"energy": 0.02913,
				"method": "rhf"
			},
			{
				"type": "unocc",
				"energy": 0.06606,
				"method": "rhf"
			},
			{
				"type": "unocc",
				"energy": 0.09065,
				"method": "rhf"
			}
		],
		"cosmo_sigma_profile": { 
			"-0.025": 0.0,
			"-0.024": 0.0,
			"-0.023": 0.0,
			"-0.022": 0.0,
			"-0.021": 0.0,
			"-0.02": 0.0,
			"-0.019": 0.0,
			"-0.018": 0.0,
			"-0.017": 0.0,
			"-0.016": 0.0,
			"-0.015": 0.296797106284,
			"-0.014": 0.840154467624,
			"-0.013": 1.18733638725,
			"-0.012": 1.1508465851,
			"-0.011": 1.5209944822,
			"-0.01": 1.94168900612,
			"-0.009": 1.84454096209,
			"-0.008": 1.61833847142,
			"-0.007": 3.2454521242,
			"-0.006": 9.98659382458,
			"-0.005": 15.9399313117,
			"-0.004": 22.4305479798,
			"-0.003": 25.8454086639,
			"-0.002": 19.2292241855,
			"-0.001": 13.1477259413,
			"0.0": 13.6996369484,
			"0.001": 14.3593827663,
			"0.002": 15.2534494639,
			"0.003": 14.0962671663,
			"0.004": 10.3096094015,
			"0.005": 5.35307879845,
			"0.006": 6.32758825536,
			"0.007": 5.26774456891,
			"0.008": 5.67427903676,
			"0.009": 8.4342746715,
			"0.01": 6.4483005287,
			"0.011": 5.0046564901,
			"0.012": 1.64825555351,
			"0.013": 0.102111868238,
			"0.014": 0.0,
			"0.015": 0.0,
			"0.016": 0.0,
			"0.017": 0.0,
			"0.018": 0.0,
			"0.019": 0.0,
			"0.02": 0.0,
			"0.021": 0.0,
			"0.022": 0.0,
			"0.023": 0.0,
			"0.024": 0.0,
			"0.025": 0.0
		}
	}
}
