{
	 "smiles": "OC1=C(Br)C=C(C=C1)C#N", 
	 "Tm": 431.65, 
	 "num_atms": 14, 
	 "gaussian": { 
		 "optdone": 1, 
		 "sigma_profile": "yes", 
		 "theory": "DFT", 
		 "functional": "B3LYP", 
		 "basiset": "6-31G**", 
		 "properties": { 
			 "R2extent": 2657.0035, 
			 "electric_dipole_moment_norm": 4.02506875221, 
			 "electric_quadrupole_moment_norm": 16.3318020178, 
			 "total_energy": -2970.51572315, 
			 "HOMO_LUMO_gap": 0.19833, 
			 "cosmo_polarized_energy": -10.31, 
			 "cosmo_cavitation_energy": 21.99, 
			 "cosmo_dispersion_energy": -16.33, 
			 "cosmo_repulsion_energy": 1.32, 
			 "cosmo_total_nonelectrostatic_energy": 6.98, 
			 "SMD_solvation_energy": 4.54 
		},
		"coords": [
			{
				"x": 2.8233939391,
				"y": 0.0208150594,
				"z": 0.0086139644,
				"element": "O" 
			},
			{
				"x": 1.514265731,
				"y": -0.2865114158,
				"z": -0.0761540149,
				"element": "C" 
			},
			{
				"x": 0.689181314,
				"y": -0.4862714541,
				"z": 1.0449752498,
				"element": "C" 
			},
			{
				"x": 1.4649164084,
				"y": -0.3130421818,
				"z": 2.7857466847,
				"element": "Br" 
			},
			{
				"x": -0.6548518789,
				"y": -0.8014550748,
				"z": 0.9093848269,
				"element": "C" 
			},
			{
				"x": -1.2091524739,
				"y": -0.9250872925,
				"z": -0.3747250855,
				"element": "C" 
			},
			{
				"x": -0.3934953399,
				"y": -0.7275761233,
				"z": -1.5044662188,
				"element": "C" 
			},
			{
				"x": 0.9479777554,
				"y": -0.4130520146,
				"z": -1.3537017303,
				"element": "C" 
			},
			{
				"x": -2.5951789612,
				"y": -1.2499703251,
				"z": -0.5257004293,
				"element": "C" 
			},
			{
				"x": -3.7215215518,
				"y": -1.5139393372,
				"z": -0.6508596375,
				"element": "N" 
			},
			{
				"x": 3.0760132381,
				"y": 0.0755999011,
				"z": 0.9454815622,
				"element": "H" 
			},
			{
				"x": -1.2712993849,
				"y": -0.9508624528,
				"z": 1.7876326277,
				"element": "H" 
			},
			{
				"x": -0.8217115944,
				"y": -0.8231131815,
				"z": -2.496192548,
				"element": "H" 
			},
			{
				"x": 1.5904627989,
				"y": -0.2576341069,
				"z": -2.2134352512,
				"element": "H" 
			}
		],
		 "valence_orbital": [ 
			{
				"type": "occ",
				"energy": -0.33484,
				"method": "rhf"
			},
			{
				"type": "occ",
				"energy": -0.32735,
				"method": "rhf"
			},
			{
				"type": "occ",
				"energy": -0.32445,
				"method": "rhf"
			},
			{
				"type": "occ",
				"energy": -0.27781,
				"method": "rhf"
			},
			{
				"type": "occ",
				"energy": -0.24968,
				"method": "rhf"
			},
			{
				"type": "unocc",
				"energy": -0.05135,
				"method": "rhf"
			},
			{
				"type": "unocc",
				"energy": -0.03938,
				"method": "rhf"
			},
			{
				"type": "unocc",
				"energy": -0.0238,
				"method": "rhf"
			},
			{
				"type": "unocc",
				"energy": 0.03385,
				"method": "rhf"
			},
			{
				"type": "unocc",
				"energy": 0.07122,
				"method": "rhf"
			}
		],
		"cosmo_sigma_profile": { 
			"-0.025": 0.0,
			"-0.024": 0.0,
			"-0.023": 0.0,
			"-0.022": 0.0,
			"-0.021": 0.0,
			"-0.02": 0.0,
			"-0.019": 0.0,
			"-0.018": 0.0,
			"-0.017": 0.0,
			"-0.016": 0.0133405715214,
			"-0.015": 0.499949826057,
			"-0.014": 0.640078742961,
			"-0.013": 0.644331454053,
			"-0.012": 0.955718676289,
			"-0.011": 0.836746012363,
			"-0.01": 0.92037437902,
			"-0.009": 3.16019772824,
			"-0.008": 6.54627447349,
			"-0.007": 7.94774306659,
			"-0.006": 7.48076856995,
			"-0.005": 7.77612998721,
			"-0.004": 8.59537660099,
			"-0.003": 9.05987968726,
			"-0.002": 11.4053311438,
			"-0.001": 15.5386753012,
			"0.0": 21.6900301688,
			"0.001": 18.1641094592,
			"0.002": 12.7308666537,
			"0.003": 10.0576755938,
			"0.004": 5.06020665983,
			"0.005": 2.98396689388,
			"0.006": 3.91369857898,
			"0.007": 3.65340998078,
			"0.008": 5.33064365165,
			"0.009": 4.81179190464,
			"0.01": 3.93499345897,
			"0.011": 2.91279361619,
			"0.012": 2.54840845299,
			"0.013": 1.71108297888,
			"0.014": 0.0804843887097,
			"0.015": 0.0,
			"0.016": 0.0,
			"0.017": 0.0,
			"0.018": 0.0,
			"0.019": 0.0,
			"0.02": 0.0,
			"0.021": 0.0,
			"0.022": 0.0,
			"0.023": 0.0,
			"0.024": 0.0,
			"0.025": 0.0
		}
	}
}
