{
	 "smiles": "CCN1C(=O)CC(=O)N(CC)C1=S", 
	 "Tm": 381.15, 
	 "num_atms": 25, 
	 "gaussian": { 
		 "optdone": 1, 
		 "sigma_profile": "yes", 
		 "theory": "DFT", 
		 "functional": "B3LYP", 
		 "basiset": "6-31G**", 
		 "properties": { 
			 "R2extent": 2893.3174, 
			 "electric_dipole_moment_norm": 0.49416931309, 
			 "electric_quadrupole_moment_norm": 7.21991253687, 
			 "total_energy": -970.262928059, 
			 "HOMO_LUMO_gap": 0.15324, 
			 "cosmo_polarized_energy": -11.5, 
			 "cosmo_cavitation_energy": 28.91, 
			 "cosmo_dispersion_energy": -21.22, 
			 "cosmo_repulsion_energy": 1.63, 
			 "cosmo_total_nonelectrostatic_energy": 9.33, 
			 "SMD_solvation_energy": 5.38 
		},
		"coords": [
			{
				"x": 1.3929369655,
				"y": 3.3812690199,
				"z": -1.3453875658,
				"element": "C" 
			},
			{
				"x": 0.6243851222,
				"y": 2.9053321147,
				"z": -0.1146943363,
				"element": "C" 
			},
			{
				"x": 0.4544448954,
				"y": 1.4289331398,
				"z": -0.0878992508,
				"element": "N" 
			},
			{
				"x": 1.4816692095,
				"y": 0.7223565516,
				"z": 0.5531945494,
				"element": "C" 
			},
			{
				"x": 2.4822115908,
				"y": 1.2798055823,
				"z": 0.962762085,
				"element": "O" 
			},
			{
				"x": 1.2359675221,
				"y": -0.7441708692,
				"z": 0.7789656386,
				"element": "C" 
			},
			{
				"x": 0.2564706886,
				"y": -1.4056640113,
				"z": -0.1513951444,
				"element": "C" 
			},
			{
				"x": 0.2168713956,
				"y": -2.6140029273,
				"z": -0.2871294763,
				"element": "O" 
			},
			{
				"x": -0.644077293,
				"y": -0.5595993359,
				"z": -0.8144065577,
				"element": "N" 
			},
			{
				"x": -1.6798715518,
				"y": -1.2559393492,
				"z": -1.6225455196,
				"element": "C" 
			},
			{
				"x": -2.9052256992,
				"y": -1.6391303164,
				"z": -0.7960605009,
				"element": "C" 
			},
			{
				"x": -0.628802788,
				"y": 0.8342118764,
				"z": -0.7376100817,
				"element": "C" 
			},
			{
				"x": -1.8407952039,
				"y": 1.7532497458,
				"z": -1.4268900502,
				"element": "S" 
			},
			{
				"x": 0.8630783654,
				"y": 3.1216671687,
				"z": -2.265498015,
				"element": "H" 
			},
			{
				"x": 2.3948314811,
				"y": 2.9448165957,
				"z": -1.36900922,
				"element": "H" 
			},
			{
				"x": 1.4966187577,
				"y": 4.4704012981,
				"z": -1.309779437,
				"element": "H" 
			},
			{
				"x": 1.1688678211,
				"y": 3.1578401238,
				"z": 0.7947621254,
				"element": "H" 
			},
			{
				"x": -0.3715264991,
				"y": 3.342671709,
				"z": -0.0780436412,
				"element": "H" 
			},
			{
				"x": 0.8497553159,
				"y": -0.8587030291,
				"z": 1.8017831761,
				"element": "H" 
			},
			{
				"x": 2.1843101763,
				"y": -1.2828253122,
				"z": 0.7458906897,
				"element": "H" 
			},
			{
				"x": -1.1939586391,
				"y": -2.1470890799,
				"z": -2.019183505,
				"element": "H" 
			},
			{
				"x": -1.9493914507,
				"y": -0.5913829626,
				"z": -2.4407725661,
				"element": "H" 
			},
			{
				"x": -3.6253746213,
				"y": -2.1595760752,
				"z": -1.4353678192,
				"element": "H" 
			},
			{
				"x": -3.3938286641,
				"y": -0.7528394024,
				"z": -0.3839462676,
				"element": "H" 
			},
			{
				"x": -2.629566897,
				"y": -2.3134322551,
				"z": 0.0193606906,
				"element": "H" 
			}
		],
		 "valence_orbital": [ 
			{
				"type": "occ",
				"energy": -0.30228,
				"method": "rhf"
			},
			{
				"type": "occ",
				"energy": -0.28594,
				"method": "rhf"
			},
			{
				"type": "occ",
				"energy": -0.28195,
				"method": "rhf"
			},
			{
				"type": "occ",
				"energy": -0.25233,
				"method": "rhf"
			},
			{
				"type": "occ",
				"energy": -0.23066,
				"method": "rhf"
			},
			{
				"type": "unocc",
				"energy": -0.07742,
				"method": "rhf"
			},
			{
				"type": "unocc",
				"energy": -0.00941,
				"method": "rhf"
			},
			{
				"type": "unocc",
				"energy": 0.01681,
				"method": "rhf"
			},
			{
				"type": "unocc",
				"energy": 0.07766,
				"method": "rhf"
			},
			{
				"type": "unocc",
				"energy": 0.09464,
				"method": "rhf"
			}
		],
		"cosmo_sigma_profile": { 
			"-0.025": 0.0,
			"-0.024": 0.0,
			"-0.023": 0.0,
			"-0.022": 0.0,
			"-0.021": 0.0,
			"-0.02": 0.0,
			"-0.019": 0.0,
			"-0.018": 0.0,
			"-0.017": 0.0,
			"-0.016": 0.0,
			"-0.015": 0.0,
			"-0.014": 0.0,
			"-0.013": 0.0,
			"-0.012": 0.029123150666,
			"-0.011": 2.55314200963,
			"-0.01": 4.51566330847,
			"-0.009": 4.09568528499,
			"-0.008": 4.87429999296,
			"-0.007": 4.77262961334,
			"-0.006": 4.37253551622,
			"-0.005": 8.09779348632,
			"-0.004": 18.9064954097,
			"-0.003": 27.7755785869,
			"-0.002": 23.2761880592,
			"-0.001": 18.3982458844,
			"0.0": 22.0507762038,
			"0.001": 12.1315456245,
			"0.002": 8.11724233123,
			"0.003": 8.74504263237,
			"0.004": 8.53359309983,
			"0.005": 9.01194124405,
			"0.006": 11.4830182199,
			"0.007": 6.94917087201,
			"0.008": 3.11857021599,
			"0.009": 3.02076346375,
			"0.01": 5.07218130405,
			"0.011": 7.87925408528,
			"0.012": 2.82196277806,
			"0.013": 0.0775642143699,
			"0.014": 0.0,
			"0.015": 0.0,
			"0.016": 0.0,
			"0.017": 0.0,
			"0.018": 0.0,
			"0.019": 0.0,
			"0.02": 0.0,
			"0.021": 0.0,
			"0.022": 0.0,
			"0.023": 0.0,
			"0.024": 0.0,
			"0.025": 0.0
		}
	}
}
