{
	 "smiles": "COC1=C(C=CC=C1)C(=O)NCC(O)=O", 
	 "Tm": 343.15, 
	 "num_atms": 26, 
	 "gaussian": { 
		 "optdone": 1, 
		 "sigma_profile": "yes", 
		 "theory": "DFT", 
		 "functional": "B3LYP", 
		 "basiset": "6-31G**", 
		 "properties": { 
			 "R2extent": 3066.77, 
			 "electric_dipole_moment_norm": 3.38702094177, 
			 "electric_quadrupole_moment_norm": 11.1933916513, 
			 "total_energy": -743.346827408, 
			 "HOMO_LUMO_gap": 0.21284, 
			 "cosmo_polarized_energy": -17.39, 
			 "cosmo_cavitation_energy": 29.99, 
			 "cosmo_dispersion_energy": -20.99, 
			 "cosmo_repulsion_energy": 1.66, 
			 "cosmo_total_nonelectrostatic_energy": 10.67, 
			 "SMD_solvation_energy": 7.08 
		},
		"coords": [
			{
				"x": 1.3156915013,
				"y": 1.6798322751,
				"z": 0.3409213506,
				"element": "C" 
			},
			{
				"x": 0.0583941479,
				"y": 1.234267191,
				"z": -0.1874884483,
				"element": "O" 
			},
			{
				"x": 0.1414220399,
				"y": 0.416095569,
				"z": -1.294855358,
				"element": "C" 
			},
			{
				"x": 0.473044196,
				"y": -0.9447784766,
				"z": -1.1678835013,
				"element": "C" 
			},
			{
				"x": 0.5550638361,
				"y": -1.7275667976,
				"z": -2.3280985029,
				"element": "C" 
			},
			{
				"x": 0.2579193345,
				"y": -1.1905010096,
				"z": -3.578276823,
				"element": "C" 
			},
			{
				"x": -0.1007012034,
				"y": 0.1555941213,
				"z": -3.6873929919,
				"element": "C" 
			},
			{
				"x": -0.1473398021,
				"y": 0.9593913797,
				"z": -2.5495095612,
				"element": "C" 
			},
			{
				"x": 0.8584325149,
				"y": -1.5958458105,
				"z": 0.1367441044,
				"element": "C" 
			},
			{
				"x": 1.9057962123,
				"y": -2.2278264982,
				"z": 0.231203957,
				"element": "O" 
			},
			{
				"x": 0.0026663098,
				"y": -1.4976284643,
				"z": 1.203628962,
				"element": "N" 
			},
			{
				"x": -1.3195517693,
				"y": -0.9316705228,
				"z": 1.2584476475,
				"element": "C" 
			},
			{
				"x": -1.4020265116,
				"y": 0.3057614858,
				"z": 2.1427394317,
				"element": "C" 
			},
			{
				"x": -2.6209571462,
				"y": 0.8794095491,
				"z": 2.0381826311,
				"element": "O" 
			},
			{
				"x": -0.5369295027,
				"y": 0.7053060529,
				"z": 2.8875360785,
				"element": "O" 
			},
			{
				"x": 1.0903553007,
				"y": 2.1790327519,
				"z": 1.2833285201,
				"element": "H" 
			},
			{
				"x": 1.9911208701,
				"y": 0.8396382838,
				"z": 0.5336752899,
				"element": "H" 
			},
			{
				"x": 1.7971359429,
				"y": 2.3789987562,
				"z": -0.3539589542,
				"element": "H" 
			},
			{
				"x": 0.8552290205,
				"y": -2.7658119537,
				"z": -2.2283152366,
				"element": "H" 
			},
			{
				"x": 0.3097992224,
				"y": -1.8166419114,
				"z": -4.4636487563,
				"element": "H" 
			},
			{
				"x": -0.3321618591,
				"y": 0.5828439059,
				"z": -4.6588106453,
				"element": "H" 
			},
			{
				"x": -0.4059197007,
				"y": 2.011829173,
				"z": -2.6089241489,
				"element": "H" 
			},
			{
				"x": 0.3789335875,
				"y": -1.9010447498,
				"z": 2.051707484,
				"element": "H" 
			},
			{
				"x": -1.6641671392,
				"y": -0.6754572442,
				"z": 0.25663323,
				"element": "H" 
			},
			{
				"x": -2.0372722497,
				"y": -1.6633194795,
				"z": 1.6558997203,
				"element": "H" 
			},
			{
				"x": -2.6194771528,
				"y": 1.6405924233,
				"z": 2.6423145208,
				"element": "H" 
			}
		],
		 "valence_orbital": [ 
			{
				"type": "occ",
				"energy": -0.28139,
				"method": "rhf"
			},
			{
				"type": "occ",
				"energy": -0.26878,
				"method": "rhf"
			},
			{
				"type": "occ",
				"energy": -0.25402,
				"method": "rhf"
			},
			{
				"type": "occ",
				"energy": -0.24871,
				"method": "rhf"
			},
			{
				"type": "occ",
				"energy": -0.24025,
				"method": "rhf"
			},
			{
				"type": "unocc",
				"energy": -0.02741,
				"method": "rhf"
			},
			{
				"type": "unocc",
				"energy": -0.00764,
				"method": "rhf"
			},
			{
				"type": "unocc",
				"energy": 0.00742,
				"method": "rhf"
			},
			{
				"type": "unocc",
				"energy": 0.04175,
				"method": "rhf"
			},
			{
				"type": "unocc",
				"energy": 0.07127,
				"method": "rhf"
			}
		],
		"cosmo_sigma_profile": { 
			"-0.025": 0.0,
			"-0.024": 0.0,
			"-0.023": 0.0,
			"-0.022": 0.0,
			"-0.021": 0.0,
			"-0.02": 0.0,
			"-0.019": 0.177344523088,
			"-0.018": 0.887761210227,
			"-0.017": 0.87678831556,
			"-0.016": 1.16857750586,
			"-0.015": 0.31793636403,
			"-0.014": 1.42315115426,
			"-0.013": 1.30128679361,
			"-0.012": 2.13164102747,
			"-0.011": 1.71209933838,
			"-0.01": 1.9382969693,
			"-0.009": 1.07406376802,
			"-0.008": 5.16650562236,
			"-0.007": 6.12991489894,
			"-0.006": 11.948422632,
			"-0.005": 16.9279274379,
			"-0.004": 19.4943203005,
			"-0.003": 20.5806492593,
			"-0.002": 18.1810016067,
			"-0.001": 12.8422250816,
			"0.0": 10.9252081838,
			"0.001": 11.718737676,
			"0.002": 12.6953324731,
			"0.003": 13.868933106,
			"0.004": 13.5708256692,
			"0.005": 7.14358798429,
			"0.006": 5.51915898991,
			"0.007": 5.35734332633,
			"0.008": 5.69636002149,
			"0.009": 4.77269893571,
			"0.01": 3.95977180893,
			"0.011": 4.43663483438,
			"0.012": 4.44609074413,
			"0.013": 4.75490320399,
			"0.014": 4.00314299258,
			"0.015": 0.53563944204,
			"0.016": 0.0,
			"0.017": 0.0,
			"0.018": 0.0,
			"0.019": 0.0,
			"0.02": 0.0,
			"0.021": 0.0,
			"0.022": 0.0,
			"0.023": 0.0,
			"0.024": 0.0,
			"0.025": 0.0
		}
	}
}
