{
	 "smiles": "COC1=C(C=C(F)C=C1)C(F)(F)C(O)=O", 
	 "Tm": 399.15, 
	 "num_atms": 22, 
	 "gaussian": { 
		 "optdone": 1, 
		 "sigma_profile": "yes", 
		 "theory": "DFT", 
		 "functional": "B3LYP", 
		 "basiset": "6-31G**", 
		 "properties": { 
			 "R2extent": 3251.4374, 
			 "electric_dipole_moment_norm": 3.83296243264, 
			 "electric_quadrupole_moment_norm": 10.6109634355, 
			 "total_energy": -872.347304654, 
			 "HOMO_LUMO_gap": 0.20008, 
			 "cosmo_polarized_energy": -12.64, 
			 "cosmo_cavitation_energy": 28.31, 
			 "cosmo_dispersion_energy": -19.47, 
			 "cosmo_repulsion_energy": 1.48, 
			 "cosmo_total_nonelectrostatic_energy": 10.32, 
			 "SMD_solvation_energy": 8.12 
		},
		"coords": [
			{
				"x": 0.5825978352,
				"y": -2.991326903,
				"z": 0.4322455917,
				"element": "C" 
			},
			{
				"x": 0.7581382121,
				"y": -1.7152722739,
				"z": -0.1668044891,
				"element": "O" 
			},
			{
				"x": -0.2118208274,
				"y": -0.7723940002,
				"z": 0.0079229949,
				"element": "C" 
			},
			{
				"x": -0.006770557,
				"y": 0.4417225026,
				"z": -0.6763018878,
				"element": "C" 
			},
			{
				"x": -0.9369860015,
				"y": 1.4702199591,
				"z": -0.5670484199,
				"element": "C" 
			},
			{
				"x": -2.0676826656,
				"y": 1.2806323378,
				"z": 0.2198057615,
				"element": "C" 
			},
			{
				"x": -2.96891794,
				"y": 2.2808970335,
				"z": 0.3217411178,
				"element": "F" 
			},
			{
				"x": -2.2903060575,
				"y": 0.092542756,
				"z": 0.898049164,
				"element": "C" 
			},
			{
				"x": -1.3573307692,
				"y": -0.9427017741,
				"z": 0.7898117014,
				"element": "C" 
			},
			{
				"x": 1.2515586576,
				"y": 0.6276616495,
				"z": -1.4884529456,
				"element": "C" 
			},
			{
				"x": 1.2247806031,
				"y": 1.842959991,
				"z": -2.1309113289,
				"element": "F" 
			},
			{
				"x": 2.346804824,
				"y": 0.6338844769,
				"z": -0.6769129791,
				"element": "F" 
			},
			{
				"x": 1.4282368285,
				"y": -0.420254942,
				"z": -2.6106974056,
				"element": "C" 
			},
			{
				"x": 2.711071398,
				"y": -0.7750165528,
				"z": -2.7772461539,
				"element": "O" 
			},
			{
				"x": 0.5115196388,
				"y": -0.8114026831,
				"z": -3.2912577699,
				"element": "O" 
			},
			{
				"x": -0.3279322616,
				"y": -3.483405901,
				"z": 0.0687838944,
				"element": "H" 
			},
			{
				"x": 0.5451265973,
				"y": -2.9177467649,
				"z": 1.5260919132,
				"element": "H" 
			},
			{
				"x": 1.4534591331,
				"y": -3.5802013007,
				"z": 0.1422912749,
				"element": "H" 
			},
			{
				"x": -0.7902884341,
				"y": 2.4052846297,
				"z": -1.0925284313,
				"element": "H" 
			},
			{
				"x": -3.1844408722,
				"y": -0.0223090975,
				"z": 1.5009812726,
				"element": "H" 
			},
			{
				"x": -1.5342590348,
				"y": -1.8711998204,
				"z": 1.318286275,
				"element": "H" 
			},
			{
				"x": 2.7265416932,
				"y": -1.3822733227,
				"z": -3.5367491504,
				"element": "H" 
			}
		],
		 "valence_orbital": [ 
			{
				"type": "occ",
				"energy": -0.3313,
				"method": "rhf"
			},
			{
				"type": "occ",
				"energy": -0.3256,
				"method": "rhf"
			},
			{
				"type": "occ",
				"energy": -0.28596,
				"method": "rhf"
			},
			{
				"type": "occ",
				"energy": -0.27212,
				"method": "rhf"
			},
			{
				"type": "occ",
				"energy": -0.22875,
				"method": "rhf"
			},
			{
				"type": "unocc",
				"energy": -0.02867,
				"method": "rhf"
			},
			{
				"type": "unocc",
				"energy": -0.01262,
				"method": "rhf"
			},
			{
				"type": "unocc",
				"energy": 0.00246,
				"method": "rhf"
			},
			{
				"type": "unocc",
				"energy": 0.06705,
				"method": "rhf"
			},
			{
				"type": "unocc",
				"energy": 0.07959,
				"method": "rhf"
			}
		],
		"cosmo_sigma_profile": { 
			"-0.025": 0.0,
			"-0.024": 0.0,
			"-0.023": 0.0,
			"-0.022": 0.0,
			"-0.021": 0.0,
			"-0.02": 0.337069936284,
			"-0.019": 1.02630107217,
			"-0.018": 1.08850759839,
			"-0.017": 0.853877014091,
			"-0.016": 0.302419433598,
			"-0.015": 0.398891690515,
			"-0.014": 1.0893870882,
			"-0.013": 1.12091005075,
			"-0.012": 0.756136075214,
			"-0.011": 0.294717862132,
			"-0.01": 0.590447859291,
			"-0.009": 0.965185020582,
			"-0.008": 3.65475037014,
			"-0.007": 8.15693294255,
			"-0.006": 13.536082534,
			"-0.005": 13.0888218459,
			"-0.004": 13.5246870395,
			"-0.003": 10.6644206345,
			"-0.002": 9.46705585594,
			"-0.001": 10.8223875563,
			"0.0": 13.3921691333,
			"0.001": 19.2574361771,
			"0.002": 22.0112039463,
			"0.003": 23.8853225453,
			"0.004": 20.6514667336,
			"0.005": 8.9034194097,
			"0.006": 5.46664447527,
			"0.007": 6.18273251333,
			"0.008": 4.45615053329,
			"0.009": 3.13821805354,
			"0.01": 4.46975193269,
			"0.011": 2.74072589159,
			"0.012": 0.0349802188963,
			"0.013": 0.0,
			"0.014": 0.0,
			"0.015": 0.0,
			"0.016": 0.0,
			"0.017": 0.0,
			"0.018": 0.0,
			"0.019": 0.0,
			"0.02": 0.0,
			"0.021": 0.0,
			"0.022": 0.0,
			"0.023": 0.0,
			"0.024": 0.0,
			"0.025": 0.0
		}
	}
}
