{
	 "smiles": "NC1CCCCCCCCCCC1", 
	 "Tm": 302.15, 
	 "num_atms": 38, 
	 "gaussian": { 
		 "optdone": 1, 
		 "sigma_profile": "yes", 
		 "theory": "DFT", 
		 "functional": "B3LYP", 
		 "basiset": "6-31G**", 
		 "properties": { 
			 "R2extent": 3145.2505, 
			 "electric_dipole_moment_norm": 1.28579381706, 
			 "electric_quadrupole_moment_norm": 8.04363697527, 
			 "total_energy": -527.108772049, 
			 "HOMO_LUMO_gap": 0.30317, 
			 "cosmo_polarized_energy": -5.12, 
			 "cosmo_cavitation_energy": 33.45, 
			 "cosmo_dispersion_energy": -24.1, 
			 "cosmo_repulsion_energy": 1.9, 
			 "cosmo_total_nonelectrostatic_energy": 11.25, 
			 "SMD_solvation_energy": 2.86 
		},
		"coords": [
			{
				"x": 1.2981920024,
				"y": 3.0883004964,
				"z": -0.6691694259,
				"element": "N" 
			},
			{
				"x": 1.2127860125,
				"y": 2.2514146564,
				"z": 0.5400716739,
				"element": "C" 
			},
			{
				"x": -0.2647457359,
				"y": 1.8971609051,
				"z": 0.8042100271,
				"element": "C" 
			},
			{
				"x": -0.5741219887,
				"y": 1.5549985609,
				"z": 2.2732790207,
				"element": "C" 
			},
			{
				"x": -1.9229266599,
				"y": 0.8535761295,
				"z": 2.5476994522,
				"element": "C" 
			},
			{
				"x": -1.955704764,
				"y": -0.658946293,
				"z": 2.2268630374,
				"element": "C" 
			},
			{
				"x": -2.3500873765,
				"y": -1.037232022,
				"z": 0.7790638143,
				"element": "C" 
			},
			{
				"x": -1.761782504,
				"y": -2.3647702149,
				"z": 0.2449501321,
				"element": "C" 
			},
			{
				"x": -0.4100951735,
				"y": -2.225782709,
				"z": -0.4873429065,
				"element": "C" 
			},
			{
				"x": 0.8252734713,
				"y": -1.9770456484,
				"z": 0.3989274706,
				"element": "C" 
			},
			{
				"x": 2.0442007175,
				"y": -1.435905882,
				"z": -0.3737837513,
				"element": "C" 
			},
			{
				"x": 1.9364327795,
				"y": 0.0653929835,
				"z": -0.7099715336,
				"element": "C" 
			},
			{
				"x": 2.122979286,
				"y": 0.9949118674,
				"z": 0.5146601396,
				"element": "C" 
			},
			{
				"x": 0.9647739183,
				"y": 2.5601285272,
				"z": -1.4739150199,
				"element": "H" 
			},
			{
				"x": 2.2732823809,
				"y": 3.3076852773,
				"z": -0.8662386915,
				"element": "H" 
			},
			{
				"x": 1.5550827598,
				"y": 2.884268582,
				"z": 1.3716584692,
				"element": "H" 
			},
			{
				"x": -0.5497684243,
				"y": 1.0666211761,
				"z": 0.1502273539,
				"element": "H" 
			},
			{
				"x": -0.8765627729,
				"y": 2.7529205588,
				"z": 0.4962622351,
				"element": "H" 
			},
			{
				"x": 0.2232371146,
				"y": 0.9231862904,
				"z": 2.6880181043,
				"element": "H" 
			},
			{
				"x": -0.5375012544,
				"y": 2.4886752911,
				"z": 2.8501715897,
				"element": "H" 
			},
			{
				"x": -2.7323016506,
				"y": 1.3698005007,
				"z": 2.0123115612,
				"element": "H" 
			},
			{
				"x": -2.1453517317,
				"y": 0.9802098074,
				"z": 3.6145152255,
				"element": "H" 
			},
			{
				"x": -2.6622012973,
				"y": -1.1515209865,
				"z": 2.9071176839,
				"element": "H" 
			},
			{
				"x": -0.9774564467,
				"y": -1.0844276419,
				"z": 2.4782127612,
				"element": "H" 
			},
			{
				"x": -3.4452644182,
				"y": -1.0857073179,
				"z": 0.7306718411,
				"element": "H" 
			},
			{
				"x": -2.0715032175,
				"y": -0.2352224589,
				"z": 0.0865511436,
				"element": "H" 
			},
			{
				"x": -2.4761476326,
				"y": -2.7996916789,
				"z": -0.4650807119,
				"element": "H" 
			},
			{
				"x": -1.6750795259,
				"y": -3.093650489,
				"z": 1.0633207389,
				"element": "H" 
			},
			{
				"x": -0.2284716396,
				"y": -3.1337072102,
				"z": -1.0783814374,
				"element": "H" 
			},
			{
				"x": -0.5092919603,
				"y": -1.4138198258,
				"z": -1.2209856605,
				"element": "H" 
			},
			{
				"x": 0.5810456455,
				"y": -1.2706019018,
				"z": 1.1977756609,
				"element": "H" 
			},
			{
				"x": 1.0908909913,
				"y": -2.9147954136,
				"z": 0.9039363073,
				"element": "H" 
			},
			{
				"x": 2.9564319444,
				"y": -1.603201783,
				"z": 0.2139593267,
				"element": "H" 
			},
			{
				"x": 2.1701441392,
				"y": -2.0123234481,
				"z": -1.3003701263,
				"element": "H" 
			},
			{
				"x": 0.9606453915,
				"y": 0.2465514469,
				"z": -1.1793514194,
				"element": "H" 
			},
			{
				"x": 2.6777188079,
				"y": 0.3174139121,
				"z": -1.4772401489,
				"element": "H" 
			},
			{
				"x": 1.9588185569,
				"y": 0.4283130289,
				"z": 1.439989859,
				"element": "H" 
			},
			{
				"x": 3.170530255,
				"y": 1.3217229271,
				"z": 0.5594062035,
				"element": "H" 
			}
		],
		 "valence_orbital": [ 
			{
				"type": "occ",
				"energy": -0.30687,
				"method": "rhf"
			},
			{
				"type": "occ",
				"energy": -0.30516,
				"method": "rhf"
			},
			{
				"type": "occ",
				"energy": -0.29227,
				"method": "rhf"
			},
			{
				"type": "occ",
				"energy": -0.28815,
				"method": "rhf"
			},
			{
				"type": "occ",
				"energy": -0.22646,
				"method": "rhf"
			},
			{
				"type": "unocc",
				"energy": 0.07671,
				"method": "rhf"
			},
			{
				"type": "unocc",
				"energy": 0.08208,
				"method": "rhf"
			},
			{
				"type": "unocc",
				"energy": 0.09082,
				"method": "rhf"
			},
			{
				"type": "unocc",
				"energy": 0.10686,
				"method": "rhf"
			},
			{
				"type": "unocc",
				"energy": 0.10996,
				"method": "rhf"
			}
		],
		"cosmo_sigma_profile": { 
			"-0.025": 0.0,
			"-0.024": 0.0,
			"-0.023": 0.0,
			"-0.022": 0.0,
			"-0.021": 0.0,
			"-0.02": 0.0,
			"-0.019": 0.0,
			"-0.018": 0.0,
			"-0.017": 0.0,
			"-0.016": 0.0,
			"-0.015": 0.0,
			"-0.014": 0.0,
			"-0.013": 0.0,
			"-0.012": 0.0,
			"-0.011": 0.0,
			"-0.01": 0.0,
			"-0.009": 0.639610888422,
			"-0.008": 2.04487349122,
			"-0.007": 2.82976406261,
			"-0.006": 2.3110796159,
			"-0.005": 4.05817870988,
			"-0.004": 3.92645653258,
			"-0.003": 9.72768917998,
			"-0.002": 31.949370147,
			"-0.001": 50.2178282325,
			"0.0": 61.6159779449,
			"0.001": 50.4877232254,
			"0.002": 21.046399859,
			"0.003": 1.39275620494,
			"0.004": 1.09690001562,
			"0.005": 1.09100985012,
			"0.006": 0.995823782995,
			"0.007": 0.892267569932,
			"0.008": 0.789896357938,
			"0.009": 0.791875233048,
			"0.01": 0.614661219326,
			"0.011": 0.582305007113,
			"0.012": 0.529170889515,
			"0.013": 1.26122000354,
			"0.014": 0.628603227963,
			"0.015": 0.230110215562,
			"0.016": 0.70229884081,
			"0.017": 0.54859192604,
			"0.018": 0.506341771071,
			"0.019": 0.760231535361,
			"0.02": 0.455362900832,
			"0.021": 0.102846000866,
			"0.022": 0.0,
			"0.023": 0.0,
			"0.024": 0.0,
			"0.025": 0.0
		}
	}
}
