{
	 "smiles": "N#CCOC1=CC=C(C=C1)C1=NCCS1", 
	 "Tm": 357.15, 
	 "num_atms": 25, 
	 "gaussian": { 
		 "optdone": 1, 
		 "sigma_profile": "yes", 
		 "theory": "DFT", 
		 "functional": "B3LYP", 
		 "basiset": "6-31G**", 
		 "properties": { 
			 "R2extent": 5234.9886, 
			 "electric_dipole_moment_norm": 3.28917178329, 
			 "electric_quadrupole_moment_norm": 23.3665352643, 
			 "total_energy": -1008.0695402, 
			 "HOMO_LUMO_gap": 0.18163, 
			 "cosmo_polarized_energy": -14.12, 
			 "cosmo_cavitation_energy": 31.42, 
			 "cosmo_dispersion_energy": -23.31, 
			 "cosmo_repulsion_energy": 1.78, 
			 "cosmo_total_nonelectrostatic_energy": 9.89, 
			 "SMD_solvation_energy": 3.81 
		},
		"coords": [
			{
				"x": -2.1159178807,
				"y": 4.6300173004,
				"z": -2.6334695889,
				"element": "N" 
			},
			{
				"x": -2.6200995967,
				"y": 4.1777585628,
				"z": -1.691692615,
				"element": "C" 
			},
			{
				"x": -3.2767037522,
				"y": 3.6098398486,
				"z": -0.4971645427,
				"element": "C" 
			},
			{
				"x": -2.3811563174,
				"y": 3.3464486654,
				"z": 0.5642098568,
				"element": "O" 
			},
			{
				"x": -1.5773550881,
				"y": 2.2316633193,
				"z": 0.4994815226,
				"element": "C" 
			},
			{
				"x": -0.8377094069,
				"y": 1.9674032118,
				"z": 1.6578483117,
				"element": "C" 
			},
			{
				"x": -0.0017686976,
				"y": 0.8600280107,
				"z": 1.7065979421,
				"element": "C" 
			},
			{
				"x": 0.1165171926,
				"y": -0.0024232215,
				"z": 0.6041288225,
				"element": "C" 
			},
			{
				"x": -0.6269328221,
				"y": 0.2818164943,
				"z": -0.5504477113,
				"element": "C" 
			},
			{
				"x": -1.4700544038,
				"y": 1.388272325,
				"z": -0.6125960802,
				"element": "C" 
			},
			{
				"x": 0.9952262985,
				"y": -1.1867131303,
				"z": 0.6221838877,
				"element": "C" 
			},
			{
				"x": 1.0114965004,
				"y": -2.0635142017,
				"z": -0.3044869491,
				"element": "N" 
			},
			{
				"x": 2.0371539147,
				"y": -3.0796580413,
				"z": -0.1132487851,
				"element": "C" 
			},
			{
				"x": 2.484387572,
				"y": -3.119132008,
				"z": 1.3677501568,
				"element": "C" 
			},
			{
				"x": 2.1534689889,
				"y": -1.4269092134,
				"z": 1.9991206916,
				"element": "S" 
			},
			{
				"x": -3.8366832738,
				"y": 2.7119098262,
				"z": -0.789414269,
				"element": "H" 
			},
			{
				"x": -3.9882362892,
				"y": 4.344856671,
				"z": -0.1109744094,
				"element": "H" 
			},
			{
				"x": -0.9389644528,
				"y": 2.6356788274,
				"z": 2.5060842148,
				"element": "H" 
			},
			{
				"x": 0.5533260661,
				"y": 0.6575070686,
				"z": 2.6172202748,
				"element": "H" 
			},
			{
				"x": -0.5281397558,
				"y": -0.3779083365,
				"z": -1.4051971075,
				"element": "H" 
			},
			{
				"x": -2.0088336265,
				"y": 1.5888101307,
				"z": -1.5312108763,
				"element": "H" 
			},
			{
				"x": 1.6602548562,
				"y": -4.0568901141,
				"z": -0.4328146282,
				"element": "H" 
			},
			{
				"x": 2.885850971,
				"y": -2.831743401,
				"z": -0.7669900436,
				"element": "H" 
			},
			{
				"x": 3.5446897508,
				"y": -3.3515348424,
				"z": 1.4798938608,
				"element": "H" 
			},
			{
				"x": 1.8988832522,
				"y": -3.8343837522,
				"z": 1.9515880642,
				"element": "H" 
			}
		],
		 "valence_orbital": [ 
			{
				"type": "occ",
				"energy": -0.31876,
				"method": "rhf"
			},
			{
				"type": "occ",
				"energy": -0.26679,
				"method": "rhf"
			},
			{
				"type": "occ",
				"energy": -0.26356,
				"method": "rhf"
			},
			{
				"type": "occ",
				"energy": -0.23936,
				"method": "rhf"
			},
			{
				"type": "occ",
				"energy": -0.22554,
				"method": "rhf"
			},
			{
				"type": "unocc",
				"energy": -0.04391,
				"method": "rhf"
			},
			{
				"type": "unocc",
				"energy": -0.01658,
				"method": "rhf"
			},
			{
				"type": "unocc",
				"energy": -0.00166,
				"method": "rhf"
			},
			{
				"type": "unocc",
				"energy": 0.01703,
				"method": "rhf"
			},
			{
				"type": "unocc",
				"energy": 0.02342,
				"method": "rhf"
			}
		],
		"cosmo_sigma_profile": { 
			"-0.025": 0.0,
			"-0.024": 0.0,
			"-0.023": 0.0,
			"-0.022": 0.0,
			"-0.021": 0.0,
			"-0.02": 0.0,
			"-0.019": 0.0,
			"-0.018": 0.0,
			"-0.017": 0.0,
			"-0.016": 0.0,
			"-0.015": 0.0,
			"-0.014": 0.0,
			"-0.013": 0.0,
			"-0.012": 0.106873229959,
			"-0.011": 2.95503976915,
			"-0.01": 6.44708210637,
			"-0.009": 5.38697853394,
			"-0.008": 5.41904917713,
			"-0.007": 6.09493336586,
			"-0.006": 11.6433476042,
			"-0.005": 20.5424046933,
			"-0.004": 17.1651347979,
			"-0.003": 16.5627267734,
			"-0.002": 13.6141455863,
			"-0.001": 11.4001818281,
			"0.0": 13.7961546821,
			"0.001": 17.0467406167,
			"0.002": 22.7439771939,
			"0.003": 22.3626386048,
			"0.004": 12.2366799061,
			"0.005": 9.31033593065,
			"0.006": 7.34227268759,
			"0.007": 9.12711128434,
			"0.008": 7.11389995001,
			"0.009": 4.6675831139,
			"0.01": 3.72990833954,
			"0.011": 3.32251948748,
			"0.012": 2.88716725089,
			"0.013": 1.17773508255,
			"0.014": 0.170076621914,
			"0.015": 0.0,
			"0.016": 0.0,
			"0.017": 0.0,
			"0.018": 0.0,
			"0.019": 0.0,
			"0.02": 0.0,
			"0.021": 0.0,
			"0.022": 0.0,
			"0.023": 0.0,
			"0.024": 0.0,
			"0.025": 0.0
		}
	}
}
