{
	 "smiles": "NC1=NON=C1C1=CC=CC=C1", 
	 "Tm": 370.15, 
	 "num_atms": 19, 
	 "gaussian": { 
		 "optdone": 1, 
		 "sigma_profile": "yes", 
		 "theory": "DFT", 
		 "functional": "B3LYP", 
		 "basiset": "6-31G**", 
		 "properties": { 
			 "R2extent": 2585.9353, 
			 "electric_dipole_moment_norm": 4.76587547886, 
			 "electric_quadrupole_moment_norm": 14.7365886076, 
			 "total_energy": -548.467634582, 
			 "HOMO_LUMO_gap": 0.19077, 
			 "cosmo_polarized_energy": -12.75, 
			 "cosmo_cavitation_energy": 23.7, 
			 "cosmo_dispersion_energy": -17.78, 
			 "cosmo_repulsion_energy": 1.41, 
			 "cosmo_total_nonelectrostatic_energy": 7.32, 
			 "SMD_solvation_energy": 3.7 
		},
		"coords": [
			{
				"x": 2.15197203,
				"y": -0.8756059017,
				"z": 1.7083694521,
				"element": "N" 
			},
			{
				"x": 2.2811460076,
				"y": 0.4811475578,
				"z": 1.4712101061,
				"element": "C" 
			},
			{
				"x": 3.1440315705,
				"y": 1.2359173638,
				"z": 2.1049953308,
				"element": "N" 
			},
			{
				"x": 2.999016421,
				"y": 2.4963617289,
				"z": 1.5485820722,
				"element": "O" 
			},
			{
				"x": 2.0323058616,
				"y": 2.507585309,
				"z": 0.5874214966,
				"element": "N" 
			},
			{
				"x": 1.569157619,
				"y": 1.2826710919,
				"z": 0.5048743923,
				"element": "C" 
			},
			{
				"x": 0.4920697485,
				"y": 0.9030783247,
				"z": -0.4217589054,
				"element": "C" 
			},
			{
				"x": -0.4499951357,
				"y": 1.861927033,
				"z": -0.8322164903,
				"element": "C" 
			},
			{
				"x": -1.4664003427,
				"y": 1.5136619753,
				"z": -1.7172573911,
				"element": "C" 
			},
			{
				"x": -1.5614524212,
				"y": 0.206227479,
				"z": -2.2028722318,
				"element": "C" 
			},
			{
				"x": -0.6269711507,
				"y": -0.750020156,
				"z": -1.8040756793,
				"element": "C" 
			},
			{
				"x": 0.3962396344,
				"y": -0.4070711115,
				"z": -0.9196439551,
				"element": "C" 
			},
			{
				"x": 2.6249217796,
				"y": -1.1750143328,
				"z": 2.5523801623,
				"element": "H" 
			},
			{
				"x": 1.1991005821,
				"y": -1.213777703,
				"z": 1.6631914357,
				"element": "H" 
			},
			{
				"x": -0.3738612513,
				"y": 2.8737880807,
				"z": -0.4483047654,
				"element": "H" 
			},
			{
				"x": -2.1896717903,
				"y": 2.2626794962,
				"z": -2.0260265031,
				"element": "H" 
			},
			{
				"x": -2.3583462892,
				"y": -0.0634300533,
				"z": -2.8896811331,
				"element": "H" 
			},
			{
				"x": -0.6872147701,
				"y": -1.764452257,
				"z": -2.1873304749,
				"element": "H" 
			},
			{
				"x": 1.139751897,
				"y": -1.146873925,
				"z": -0.6400569185,
				"element": "H" 
			}
		],
		 "valence_orbital": [ 
			{
				"type": "occ",
				"energy": -0.31636,
				"method": "rhf"
			},
			{
				"type": "occ",
				"energy": -0.3053,
				"method": "rhf"
			},
			{
				"type": "occ",
				"energy": -0.26497,
				"method": "rhf"
			},
			{
				"type": "occ",
				"energy": -0.2613,
				"method": "rhf"
			},
			{
				"type": "occ",
				"energy": -0.24076,
				"method": "rhf"
			},
			{
				"type": "unocc",
				"energy": -0.04999,
				"method": "rhf"
			},
			{
				"type": "unocc",
				"energy": -0.01652,
				"method": "rhf"
			},
			{
				"type": "unocc",
				"energy": -0.00495,
				"method": "rhf"
			},
			{
				"type": "unocc",
				"energy": 0.05901,
				"method": "rhf"
			},
			{
				"type": "unocc",
				"energy": 0.07643,
				"method": "rhf"
			}
		],
		"cosmo_sigma_profile": { 
			"-0.025": 0.0,
			"-0.024": 0.0,
			"-0.023": 0.0,
			"-0.022": 0.0,
			"-0.021": 0.0,
			"-0.02": 0.0,
			"-0.019": 0.0,
			"-0.018": 0.0,
			"-0.017": 0.0,
			"-0.016": 0.0,
			"-0.015": 0.0299905525434,
			"-0.014": 1.56133351557,
			"-0.013": 2.69237370425,
			"-0.012": 2.51111545929,
			"-0.011": 2.94968880238,
			"-0.01": 2.50817084802,
			"-0.009": 2.23446414958,
			"-0.008": 1.87122180146,
			"-0.007": 3.75117234638,
			"-0.006": 9.9994813906,
			"-0.005": 12.5910465673,
			"-0.004": 11.8699345695,
			"-0.003": 10.4005414351,
			"-0.002": 12.787105669,
			"-0.001": 10.4011458541,
			"0.0": 9.96998195364,
			"0.001": 11.5273195588,
			"0.002": 11.166318218,
			"0.003": 13.5043912274,
			"0.004": 15.4711163727,
			"0.005": 7.43690243222,
			"0.006": 8.68988811466,
			"0.007": 8.95861448924,
			"0.008": 3.89430755785,
			"0.009": 3.58145304114,
			"0.01": 3.04573721897,
			"0.011": 2.39108624843,
			"0.012": 1.9616566855,
			"0.013": 0.692518803643,
			"0.014": 0.0136680947827,
			"0.015": 0.0,
			"0.016": 0.0,
			"0.017": 0.0,
			"0.018": 0.0,
			"0.019": 0.0,
			"0.02": 0.0,
			"0.021": 0.0,
			"0.022": 0.0,
			"0.023": 0.0,
			"0.024": 0.0,
			"0.025": 0.0
		}
	}
}
