{
	 "smiles": "C1CCNC1", 
	 "Tm": 215.35, 
	 "num_atms": 14, 
	 "gaussian": { 
		 "optdone": 1, 
		 "sigma_profile": "yes", 
		 "theory": "DFT", 
		 "functional": "B3LYP", 
		 "basiset": "6-31G**", 
		 "properties": { 
			 "R2extent": 475.6367, 
			 "electric_dipole_moment_norm": 0.918245598955, 
			 "electric_quadrupole_moment_norm": 1.97712329914, 
			 "total_energy": -212.591820229, 
			 "HOMO_LUMO_gap": 0.29744, 
			 "cosmo_polarized_energy": -3.37, 
			 "cosmo_cavitation_energy": 15.33, 
			 "cosmo_dispersion_energy": -12.19, 
			 "cosmo_repulsion_energy": 1.09, 
			 "cosmo_total_nonelectrostatic_energy": 4.23, 
			 "SMD_solvation_energy": -0.2 
		},
		"coords": [
			{
				"x": 0.9363953357,
				"y": 0.6856900499,
				"z": 1.1315854906,
				"element": "C" 
			},
			{
				"x": 1.3478265336,
				"y": -0.8117160725,
				"z": 1.013733402,
				"element": "C" 
			},
			{
				"x": 1.0262006405,
				"y": -1.1834209976,
				"z": -0.4498783828,
				"element": "C" 
			},
			{
				"x": -0.0406711242,
				"y": -0.240866395,
				"z": -0.7972509061,
				"element": "N" 
			},
			{
				"x": 0.4121864794,
				"y": 1.0508039154,
				"z": -0.2739909572,
				"element": "C" 
			},
			{
				"x": 0.1459231931,
				"y": 0.8068714535,
				"z": 1.8772275621,
				"element": "H" 
			},
			{
				"x": 1.7695008755,
				"y": 1.3288888479,
				"z": 1.4286654174,
				"element": "H" 
			},
			{
				"x": 2.4032532826,
				"y": -0.9777805457,
				"z": 1.247244662,
				"element": "H" 
			},
			{
				"x": 0.7589765066,
				"y": -1.4246796458,
				"z": 1.7015145018,
				"element": "H" 
			},
			{
				"x": 0.6859369427,
				"y": -2.2180026883,
				"z": -0.5651693609,
				"element": "H" 
			},
			{
				"x": 1.9324064992,
				"y": -1.057775058,
				"z": -1.0724438517,
				"element": "H" 
			},
			{
				"x": -0.2123091965,
				"y": -0.209194113,
				"z": -1.7987018332,
				"element": "H" 
			},
			{
				"x": 1.230753947,
				"y": 1.4952538482,
				"z": -0.8714789703,
				"element": "H" 
			},
			{
				"x": -0.4108799152,
				"y": 1.772927401,
				"z": -0.2509567737,
				"element": "H" 
			}
		],
		 "valence_orbital": [ 
			{
				"type": "occ",
				"energy": -0.36273,
				"method": "rhf"
			},
			{
				"type": "occ",
				"energy": -0.3358,
				"method": "rhf"
			},
			{
				"type": "occ",
				"energy": -0.33294,
				"method": "rhf"
			},
			{
				"type": "occ",
				"energy": -0.31357,
				"method": "rhf"
			},
			{
				"type": "occ",
				"energy": -0.21437,
				"method": "rhf"
			},
			{
				"type": "unocc",
				"energy": 0.08307,
				"method": "rhf"
			},
			{
				"type": "unocc",
				"energy": 0.10725,
				"method": "rhf"
			},
			{
				"type": "unocc",
				"energy": 0.13829,
				"method": "rhf"
			},
			{
				"type": "unocc",
				"energy": 0.1453,
				"method": "rhf"
			},
			{
				"type": "unocc",
				"energy": 0.1615,
				"method": "rhf"
			}
		],
		"cosmo_sigma_profile": { 
			"-0.025": 0.0,
			"-0.024": 0.0,
			"-0.023": 0.0,
			"-0.022": 0.0,
			"-0.021": 0.0,
			"-0.02": 0.0,
			"-0.019": 0.0,
			"-0.018": 0.0,
			"-0.017": 0.0,
			"-0.016": 0.0,
			"-0.015": 0.0,
			"-0.014": 0.0,
			"-0.013": 0.0,
			"-0.012": 0.0,
			"-0.011": 0.0,
			"-0.01": 0.493475607441,
			"-0.009": 1.30002369014,
			"-0.008": 1.04660888742,
			"-0.007": 1.05909059853,
			"-0.006": 1.24838854728,
			"-0.005": 1.34657729062,
			"-0.004": 1.566409173,
			"-0.003": 8.57594996294,
			"-0.002": 16.3957905856,
			"-0.001": 29.7125549825,
			"0.0": 24.6117490323,
			"0.001": 14.7248806289,
			"0.002": 3.66727774503,
			"0.003": 1.20291333581,
			"0.004": 1.32209087125,
			"0.005": 0.842724373978,
			"0.006": 0.574085312299,
			"0.007": 1.12661082392,
			"0.008": 0.810615557772,
			"0.009": 0.681548730789,
			"0.01": 0.4876547918,
			"0.011": 0.620053677882,
			"0.012": 0.819022866913,
			"0.013": 0.63657187874,
			"0.014": 1.0714072239,
			"0.015": 0.298090207272,
			"0.016": 0.34817136691,
			"0.017": 0.439391113335,
			"0.018": 0.646137819935,
			"0.019": 0.427902661721,
			"0.02": 0.0,
			"0.021": 0.0,
			"0.022": 0.0,
			"0.023": 0.0,
			"0.024": 0.0,
			"0.025": 0.0
		}
	}
}
