{
	 "smiles": "CCOC(=O)C1=C(NC(=O)CCl)SC(=C1C)C1=CC=CC=C1", 
	 "Tm": 380.15, 
	 "num_atms": 38, 
	 "gaussian": { 
		 "optdone": 1, 
		 "sigma_profile": "yes", 
		 "theory": "DFT", 
		 "functional": "B3LYP", 
		 "basiset": "6-31G**", 
		 "properties": { 
			 "R2extent": 9513.8342, 
			 "electric_dipole_moment_norm": 6.177836453, 
			 "electric_quadrupole_moment_norm": 25.5861668163, 
			 "total_energy": -1758.16886618, 
			 "HOMO_LUMO_gap": 0.17149, 
			 "cosmo_polarized_energy": -15.03, 
			 "cosmo_cavitation_energy": 45.17, 
			 "cosmo_dispersion_energy": -31.07, 
			 "cosmo_repulsion_energy": 2.41, 
			 "cosmo_total_nonelectrostatic_energy": 16.5, 
			 "SMD_solvation_energy": 8.41 
		},
		"coords": [
			{
				"x": -4.9311892853,
				"y": 0.1158623617,
				"z": -0.2682699683,
				"element": "C" 
			},
			{
				"x": -3.9096487517,
				"y": -1.0042894682,
				"z": -0.3887645546,
				"element": "C" 
			},
			{
				"x": -2.584530971,
				"y": -0.5537701528,
				"z": -0.0060798426,
				"element": "O" 
			},
			{
				"x": -1.8526763874,
				"y": 0.0514233631,
				"z": -0.9644563104,
				"element": "C" 
			},
			{
				"x": -2.2646350181,
				"y": 0.238982357,
				"z": -2.0968907392,
				"element": "O" 
			},
			{
				"x": -0.5120466792,
				"y": 0.4711286551,
				"z": -0.4800825872,
				"element": "C" 
			},
			{
				"x": 0.1167811884,
				"y": 1.5772070889,
				"z": -1.0302845286,
				"element": "C" 
			},
			{
				"x": -0.3365955548,
				"y": 2.4637551519,
				"z": -2.0160177831,
				"element": "N" 
			},
			{
				"x": -0.5024160713,
				"y": 2.2559840755,
				"z": -3.3767534836,
				"element": "C" 
			},
			{
				"x": -1.0101682957,
				"y": 3.1138876144,
				"z": -4.0743145784,
				"element": "O" 
			},
			{
				"x": 0.022233605,
				"y": 0.9510883751,
				"z": -3.9608563899,
				"element": "C" 
			},
			{
				"x": 1.8201886189,
				"y": 1.0482010485,
				"z": -4.2095479366,
				"element": "Cl" 
			},
			{
				"x": 1.6415464563,
				"y": 1.8833317706,
				"z": -0.2535925125,
				"element": "S" 
			},
			{
				"x": 1.439049838,
				"y": 0.5171577423,
				"z": 0.8185305682,
				"element": "C" 
			},
			{
				"x": 0.2511616346,
				"y": -0.1436157436,
				"z": 0.5842104475,
				"element": "C" 
			},
			{
				"x": -0.2034463289,
				"y": -1.3413806015,
				"z": 1.37929728,
				"element": "C" 
			},
			{
				"x": 2.5093984829,
				"y": 0.2217003409,
				"z": 1.7951051907,
				"element": "C" 
			},
			{
				"x": 3.1071692385,
				"y": -1.0496113534,
				"z": 1.848636461,
				"element": "C" 
			},
			{
				"x": 4.1233115749,
				"y": -1.3191978017,
				"z": 2.7646955637,
				"element": "C" 
			},
			{
				"x": 4.5708966897,
				"y": -0.3216741244,
				"z": 3.6329771104,
				"element": "C" 
			},
			{
				"x": 3.9954566678,
				"y": 0.9492458086,
				"z": 3.5792579984,
				"element": "C" 
			},
			{
				"x": 2.9736262721,
				"y": 1.2191041226,
				"z": 2.6700846486,
				"element": "C" 
			},
			{
				"x": -4.7130875271,
				"y": 0.9136543006,
				"z": -0.981966783,
				"element": "H" 
			},
			{
				"x": -5.931956754,
				"y": -0.2731155871,
				"z": -0.4832759342,
				"element": "H" 
			},
			{
				"x": -4.9351376346,
				"y": 0.5328967228,
				"z": 0.7430389554,
				"element": "H" 
			},
			{
				"x": -3.8674154865,
				"y": -1.3931889941,
				"z": -1.4085680351,
				"element": "H" 
			},
			{
				"x": -4.1241352324,
				"y": -1.8203717007,
				"z": 0.3051687727,
				"element": "H" 
			},
			{
				"x": -0.6164813319,
				"y": 3.3953472422,
				"z": -1.7303807436,
				"element": "H" 
			},
			{
				"x": -0.1770628287,
				"y": 0.0928794358,
				"z": -3.3263663923,
				"element": "H" 
			},
			{
				"x": -0.432182506,
				"y": 0.8225030003,
				"z": -4.9404529389,
				"element": "H" 
			},
			{
				"x": 0.5389530899,
				"y": -1.6099996379,
				"z": 2.1313668706,
				"element": "H" 
			},
			{
				"x": -1.1512841637,
				"y": -1.1368391355,
				"z": 1.8818949644,
				"element": "H" 
			},
			{
				"x": -0.3683030212,
				"y": -2.2117221975,
				"z": 0.7347469526,
				"element": "H" 
			},
			{
				"x": 2.7852979881,
				"y": -1.8188393705,
				"z": 1.1537275291,
				"element": "H" 
			},
			{
				"x": 4.5745917816,
				"y": -2.306870661,
				"z": 2.7903617762,
				"element": "H" 
			},
			{
				"x": 5.3655624736,
				"y": -0.5318273521,
				"z": 4.3427275618,
				"element": "H" 
			},
			{
				"x": 4.3380697181,
				"y": 1.7316852368,
				"z": 4.250168487,
				"element": "H" 
			},
			{
				"x": 2.5190045113,
				"y": 2.2051880674,
				"z": 2.6429249038,
				"element": "H" 
			}
		],
		 "valence_orbital": [ 
			{
				"type": "occ",
				"energy": -0.27055,
				"method": "rhf"
			},
			{
				"type": "occ",
				"energy": -0.26235,
				"method": "rhf"
			},
			{
				"type": "occ",
				"energy": -0.26056,
				"method": "rhf"
			},
			{
				"type": "occ",
				"energy": -0.25652,
				"method": "rhf"
			},
			{
				"type": "occ",
				"energy": -0.2268,
				"method": "rhf"
			},
			{
				"type": "unocc",
				"energy": -0.05531,
				"method": "rhf"
			},
			{
				"type": "unocc",
				"energy": -0.02704,
				"method": "rhf"
			},
			{
				"type": "unocc",
				"energy": -0.0165,
				"method": "rhf"
			},
			{
				"type": "unocc",
				"energy": -0.01428,
				"method": "rhf"
			},
			{
				"type": "unocc",
				"energy": 0.0077,
				"method": "rhf"
			}
		],
		"cosmo_sigma_profile": { 
			"-0.025": 0.0,
			"-0.024": 0.0,
			"-0.023": 0.0,
			"-0.022": 0.0,
			"-0.021": 0.0,
			"-0.02": 0.0,
			"-0.019": 0.0,
			"-0.018": 0.0,
			"-0.017": 0.0,
			"-0.016": 0.194643891392,
			"-0.015": 1.06262435246,
			"-0.014": 1.12865830772,
			"-0.013": 0.996680693672,
			"-0.012": 0.781894984117,
			"-0.011": 1.04802571082,
			"-0.01": 1.06699596895,
			"-0.009": 1.47953398329,
			"-0.008": 2.58165946893,
			"-0.007": 3.07083344674,
			"-0.006": 12.9487820297,
			"-0.005": 20.8026135355,
			"-0.004": 30.9326614101,
			"-0.003": 31.6687468981,
			"-0.002": 31.5713702734,
			"-0.001": 33.2663377034,
			"0.0": 34.5253773998,
			"0.001": 30.7980225728,
			"0.002": 25.8483721802,
			"0.003": 23.2980218438,
			"0.004": 20.7802502454,
			"0.005": 22.0347899162,
			"0.006": 8.27027573585,
			"0.007": 2.92050303838,
			"0.008": 2.64967431194,
			"0.009": 2.57416261932,
			"0.01": 3.30893044935,
			"0.011": 4.16911103692,
			"0.012": 5.7178007994,
			"0.013": 1.92330234676,
			"0.014": 0.0497551885676,
			"0.015": 0.0,
			"0.016": 0.0,
			"0.017": 0.0,
			"0.018": 0.0,
			"0.019": 0.0,
			"0.02": 0.0,
			"0.021": 0.0,
			"0.022": 0.0,
			"0.023": 0.0,
			"0.024": 0.0,
			"0.025": 0.0
		}
	}
}
