{
	 "smiles": "CC1(C)CC(=O)C(=NNC2=CC=CC=C2[N+]([O-])=O)C(=O)C1", 
	 "Tm": 413.15, 
	 "num_atms": 36, 
	 "gaussian": { 
		 "optdone": 1, 
		 "sigma_profile": "yes", 
		 "theory": "DFT", 
		 "functional": "B3LYP", 
		 "basiset": "6-31G**", 
		 "properties": { 
			 "R2extent": 7986.5639, 
			 "electric_dipole_moment_norm": 5.17199972351, 
			 "electric_quadrupole_moment_norm": 32.5693374836, 
			 "total_energy": -1007.54612618, 
			 "HOMO_LUMO_gap": 0.13958, 
			 "cosmo_polarized_energy": -21.53, 
			 "cosmo_cavitation_energy": 40.07, 
			 "cosmo_dispersion_energy": -27.5, 
			 "cosmo_repulsion_energy": 2.08, 
			 "cosmo_total_nonelectrostatic_energy": 14.65, 
			 "SMD_solvation_energy": 9.62 
		},
		"coords": [
			{
				"x": 2.7757329405,
				"y": 1.6054192562,
				"z": -0.1573950858,
				"element": "C" 
			},
			{
				"x": 3.0570267712,
				"y": 0.1280954427,
				"z": 0.1859408728,
				"element": "C" 
			},
			{
				"x": 4.5622782628,
				"y": -0.1487733426,
				"z": 0.0323301675,
				"element": "C" 
			},
			{
				"x": 2.2608309799,
				"y": -0.804843355,
				"z": -0.7501730707,
				"element": "C" 
			},
			{
				"x": 0.7439377441,
				"y": -0.7414058308,
				"z": -0.595816253,
				"element": "C" 
			},
			{
				"x": 0.0058608008,
				"y": -0.9945259119,
				"z": -1.530516351,
				"element": "O" 
			},
			{
				"x": 0.2211712928,
				"y": -0.3926105461,
				"z": 0.7647069911,
				"element": "C" 
			},
			{
				"x": -1.0956387374,
				"y": -0.3253435909,
				"z": 0.8594299119,
				"element": "N" 
			},
			{
				"x": -1.6537987682,
				"y": -0.0438252203,
				"z": 2.0062921866,
				"element": "N" 
			},
			{
				"x": -3.0470145197,
				"y": 0.0615625584,
				"z": 2.1145217041,
				"element": "C" 
			},
			{
				"x": -3.6350708351,
				"y": -0.3368545144,
				"z": 3.3232910408,
				"element": "C" 
			},
			{
				"x": -5.0172285625,
				"y": -0.321611453,
				"z": 3.4852096608,
				"element": "C" 
			},
			{
				"x": -5.8450773035,
				"y": 0.0661242168,
				"z": 2.4291451499,
				"element": "C" 
			},
			{
				"x": -5.2765644711,
				"y": 0.4752053955,
				"z": 1.2259388106,
				"element": "C" 
			},
			{
				"x": -3.8905754845,
				"y": 0.5051615573,
				"z": 1.079529724,
				"element": "C" 
			},
			{
				"x": -3.3805570939,
				"y": 1.1392979922,
				"z": -0.1503681616,
				"element": "N" 
			},
			{
				"x": -4.0008813519,
				"y": 0.9214399,
				"z": -1.1874913217,
				"element": "O" 
			},
			{
				"x": -2.4254960788,
				"y": 1.9020532602,
				"z": -0.0369207627,
				"element": "O" 
			},
			{
				"x": 1.1330501934,
				"y": -0.1225863659,
				"z": 1.8865603856,
				"element": "C" 
			},
			{
				"x": 0.7074225033,
				"y": 0.1285316043,
				"z": 3.0256836835,
				"element": "O" 
			},
			{
				"x": 2.6284545527,
				"y": -0.1802872921,
				"z": 1.6367099134,
				"element": "C" 
			},
			{
				"x": 3.3346145908,
				"y": 2.271826137,
				"z": 0.5086513112,
				"element": "H" 
			},
			{
				"x": 1.7141770441,
				"y": 1.8587601204,
				"z": -0.0683967136,
				"element": "H" 
			},
			{
				"x": 3.0804758715,
				"y": 1.8258268376,
				"z": -1.1858139391,
				"element": "H" 
			},
			{
				"x": 5.1494739399,
				"y": 0.490072635,
				"z": 0.7014565192,
				"element": "H" 
			},
			{
				"x": 4.8029151053,
				"y": -1.1920719294,
				"z": 0.2659640141,
				"element": "H" 
			},
			{
				"x": 4.8918819531,
				"y": 0.0498942308,
				"z": -0.993126182,
				"element": "H" 
			},
			{
				"x": 2.5540436211,
				"y": -1.8478016813,
				"z": -0.5543021809,
				"element": "H" 
			},
			{
				"x": 2.4866952848,
				"y": -0.612243073,
				"z": -1.803425909,
				"element": "H" 
			},
			{
				"x": -1.0317082373,
				"y": 0.0809331724,
				"z": 2.8202508953,
				"element": "H" 
			},
			{
				"x": -2.9908710673,
				"y": -0.6900875531,
				"z": 4.1229996275,
				"element": "H" 
			},
			{
				"x": -5.4474863353,
				"y": -0.6364710184,
				"z": 4.4306827283,
				"element": "H" 
			},
			{
				"x": -6.9238697879,
				"y": 0.0607650643,
				"z": 2.5429974613,
				"element": "H" 
			},
			{
				"x": -5.8865541258,
				"y": 0.8030581793,
				"z": 0.3926149764,
				"element": "H" 
			},
			{
				"x": 3.1062623802,
				"y": 0.4903285019,
				"z": 2.3584843534,
				"element": "H" 
			},
			{
				"x": 2.9501869279,
				"y": -1.1994133839,
				"z": 1.9009538418,
				"element": "H" 
			}
		],
		 "valence_orbital": [ 
			{
				"type": "occ",
				"energy": -0.29561,
				"method": "rhf"
			},
			{
				"type": "occ",
				"energy": -0.27525,
				"method": "rhf"
			},
			{
				"type": "occ",
				"energy": -0.25868,
				"method": "rhf"
			},
			{
				"type": "occ",
				"energy": -0.23937,
				"method": "rhf"
			},
			{
				"type": "occ",
				"energy": -0.23727,
				"method": "rhf"
			},
			{
				"type": "unocc",
				"energy": -0.09769,
				"method": "rhf"
			},
			{
				"type": "unocc",
				"energy": -0.07134,
				"method": "rhf"
			},
			{
				"type": "unocc",
				"energy": -0.02806,
				"method": "rhf"
			},
			{
				"type": "unocc",
				"energy": -0.02175,
				"method": "rhf"
			},
			{
				"type": "unocc",
				"energy": -0.01008,
				"method": "rhf"
			}
		],
		"cosmo_sigma_profile": { 
			"-0.025": 0.0,
			"-0.024": 0.0,
			"-0.023": 0.0,
			"-0.022": 0.0,
			"-0.021": 0.0,
			"-0.02": 0.0,
			"-0.019": 0.0,
			"-0.018": 0.0,
			"-0.017": 0.0,
			"-0.016": 0.0,
			"-0.015": 0.0,
			"-0.014": 0.0,
			"-0.013": 0.356637899781,
			"-0.012": 0.830901148606,
			"-0.011": 1.31316831995,
			"-0.01": 1.40933080293,
			"-0.009": 1.62770276874,
			"-0.008": 7.32806446894,
			"-0.007": 12.8804583736,
			"-0.006": 17.8319382303,
			"-0.005": 16.2351326642,
			"-0.004": 24.196645117,
			"-0.003": 33.3203129563,
			"-0.002": 25.8442129733,
			"-0.001": 29.2291855983,
			"0.0": 27.5031463953,
			"0.001": 23.7913560229,
			"0.002": 13.6171018426,
			"0.003": 6.84293567057,
			"0.004": 6.41982789123,
			"0.005": 6.72451842455,
			"0.006": 8.6909285667,
			"0.007": 12.1921629997,
			"0.008": 9.92553095794,
			"0.009": 7.60759797726,
			"0.01": 5.51366771444,
			"0.011": 4.7995654249,
			"0.012": 6.05516861183,
			"0.013": 3.53176318866,
			"0.014": 1.60965046864,
			"0.015": 0.322111419704,
			"0.016": 0.0,
			"0.017": 0.0,
			"0.018": 0.0,
			"0.019": 0.0,
			"0.02": 0.0,
			"0.021": 0.0,
			"0.022": 0.0,
			"0.023": 0.0,
			"0.024": 0.0,
			"0.025": 0.0
		}
	}
}
