{
	 "smiles": "NS(=O)(=O)C1CCS(=O)(=O)C1", 
	 "Tm": 418.15, 
	 "num_atms": 20, 
	 "gaussian": { 
		 "optdone": 1, 
		 "sigma_profile": "yes", 
		 "theory": "DFT", 
		 "functional": "B3LYP", 
		 "basiset": "6-31G**", 
		 "properties": { 
			 "R2extent": 2580.4704, 
			 "electric_dipole_moment_norm": 4.07894589079, 
			 "electric_quadrupole_moment_norm": 18.9986312028, 
			 "total_energy": -1309.74295179, 
			 "HOMO_LUMO_gap": 0.30825, 
			 "cosmo_polarized_energy": -25.19, 
			 "cosmo_cavitation_energy": 25.42, 
			 "cosmo_dispersion_energy": -19.88, 
			 "cosmo_repulsion_energy": 1.5, 
			 "cosmo_total_nonelectrostatic_energy": 7.03, 
			 "SMD_solvation_energy": 2.78 
		},
		"coords": [
			{
				"x": -0.1318873657,
				"y": -2.6170797307,
				"z": -0.7156138299,
				"element": "N" 
			},
			{
				"x": 0.8633829988,
				"y": -2.0660429637,
				"z": 0.5395366236,
				"element": "S" 
			},
			{
				"x": 2.2337710689,
				"y": -2.4845895522,
				"z": 0.2373954175,
				"element": "O" 
			},
			{
				"x": 0.2046233189,
				"y": -2.3856868456,
				"z": 1.8088787823,
				"element": "O" 
			},
			{
				"x": 0.7917733353,
				"y": -0.2575684476,
				"z": 0.3442143942,
				"element": "C" 
			},
			{
				"x": -0.6251361858,
				"y": 0.3135362457,
				"z": 0.5536038304,
				"element": "C" 
			},
			{
				"x": -0.5342296913,
				"y": 1.8079457357,
				"z": 0.2268412777,
				"element": "C" 
			},
			{
				"x": 0.6493690694,
				"y": 1.935446161,
				"z": -1.1783204145,
				"element": "S" 
			},
			{
				"x": -0.0909330128,
				"y": 2.0557473919,
				"z": -2.4425636375,
				"element": "O" 
			},
			{
				"x": 1.7146023308,
				"y": 2.8862953981,
				"z": -0.8297202863,
				"element": "O" 
			},
			{
				"x": 1.2901118431,
				"y": 0.2109493083,
				"z": -1.0206536079,
				"element": "C" 
			},
			{
				"x": -0.9242697562,
				"y": -3.1217211968,
				"z": -0.326865294,
				"element": "H" 
			},
			{
				"x": 0.4080788111,
				"y": -3.2056820754,
				"z": -1.3447803161,
				"element": "H" 
			},
			{
				"x": 1.4618898937,
				"y": 0.0935840004,
				"z": 1.1372618441,
				"element": "H" 
			},
			{
				"x": -0.9727636032,
				"y": 0.1417347915,
				"z": 1.574101303,
				"element": "H" 
			},
			{
				"x": -1.3174381712,
				"y": -0.1810573734,
				"z": -0.1353986478,
				"element": "H" 
			},
			{
				"x": -1.4764948388,
				"y": 2.25336413,
				"z": -0.0953143196,
				"element": "H" 
			},
			{
				"x": -0.1032592291,
				"y": 2.3907437191,
				"z": 1.0440952167,
				"element": "H" 
			},
			{
				"x": 0.8369587417,
				"y": -0.3601388839,
				"z": -1.8339122402,
				"element": "H" 
			},
			{
				"x": 2.3747504425,
				"y": 0.2375201876,
				"z": -1.1195860959,
				"element": "H" 
			}
		],
		 "valence_orbital": [ 
			{
				"type": "occ",
				"energy": -0.3234,
				"method": "rhf"
			},
			{
				"type": "occ",
				"energy": -0.31794,
				"method": "rhf"
			},
			{
				"type": "occ",
				"energy": -0.3137,
				"method": "rhf"
			},
			{
				"type": "occ",
				"energy": -0.30499,
				"method": "rhf"
			},
			{
				"type": "occ",
				"energy": -0.29031,
				"method": "rhf"
			},
			{
				"type": "unocc",
				"energy": 0.01794,
				"method": "rhf"
			},
			{
				"type": "unocc",
				"energy": 0.03581,
				"method": "rhf"
			},
			{
				"type": "unocc",
				"energy": 0.03901,
				"method": "rhf"
			},
			{
				"type": "unocc",
				"energy": 0.05309,
				"method": "rhf"
			},
			{
				"type": "unocc",
				"energy": 0.05796,
				"method": "rhf"
			}
		],
		"cosmo_sigma_profile": { 
			"-0.025": 0.0,
			"-0.024": 0.0,
			"-0.023": 0.0,
			"-0.022": 0.0,
			"-0.021": 0.0,
			"-0.02": 0.0,
			"-0.019": 0.0,
			"-0.018": 0.0,
			"-0.017": 0.0,
			"-0.016": 0.1392277164,
			"-0.015": 1.82861266013,
			"-0.014": 2.73320872372,
			"-0.013": 2.62445226515,
			"-0.012": 2.28289696602,
			"-0.011": 2.11429703002,
			"-0.01": 5.27833637808,
			"-0.009": 8.33639538861,
			"-0.008": 11.920992687,
			"-0.007": 14.2494665634,
			"-0.006": 15.0595985006,
			"-0.005": 12.7603175442,
			"-0.004": 10.5090573541,
			"-0.003": 7.51433539212,
			"-0.002": 5.887513087,
			"-0.001": 4.83358936842,
			"0.0": 4.80987185167,
			"0.001": 6.13263623965,
			"0.002": 3.14580361129,
			"0.003": 3.19680388552,
			"0.004": 3.27730224029,
			"0.005": 4.2315025272,
			"0.006": 5.08690717729,
			"0.007": 5.31869479086,
			"0.008": 6.05812359021,
			"0.009": 6.79438440075,
			"0.01": 13.721773475,
			"0.011": 21.3213652467,
			"0.012": 8.58943774501,
			"0.013": 0.131184661598,
			"0.014": 0.0,
			"0.015": 0.0,
			"0.016": 0.0,
			"0.017": 0.0,
			"0.018": 0.0,
			"0.019": 0.0,
			"0.02": 0.0,
			"0.021": 0.0,
			"0.022": 0.0,
			"0.023": 0.0,
			"0.024": 0.0,
			"0.025": 0.0
		}
	}
}
