{
	 "smiles": "CCCCC=O", 
	 "Tm": 181.65, 
	 "num_atms": 16, 
	 "gaussian": { 
		 "optdone": 1, 
		 "sigma_profile": "yes", 
		 "theory": "DFT", 
		 "functional": "B3LYP", 
		 "basiset": "6-31G**", 
		 "properties": { 
			 "R2extent": 1284.7566, 
			 "electric_dipole_moment_norm": 2.7448883511, 
			 "electric_quadrupole_moment_norm": 10.7240744295, 
			 "total_energy": -271.779613045, 
			 "HOMO_LUMO_gap": 0.22736, 
			 "cosmo_polarized_energy": -5.91, 
			 "cosmo_cavitation_energy": 18.85, 
			 "cosmo_dispersion_energy": -13.6, 
			 "cosmo_repulsion_energy": 1.21, 
			 "cosmo_total_nonelectrostatic_energy": 6.46, 
			 "SMD_solvation_energy": 4.17 
		},
		"coords": [
			{
				"x": -0.3660644926,
				"y": 1.4397666677,
				"z": -2.1521156632,
				"element": "C" 
			},
			{
				"x": -1.0845718591,
				"y": 1.4615848299,
				"z": -0.7998173318,
				"element": "C" 
			},
			{
				"x": -0.9353974713,
				"y": 0.1469579032,
				"z": -0.0220723866,
				"element": "C" 
			},
			{
				"x": -1.6616814135,
				"y": 0.1503669533,
				"z": 1.3363072501,
				"element": "C" 
			},
			{
				"x": -1.0352572707,
				"y": 1.1067960062,
				"z": 2.3265769657,
				"element": "C" 
			},
			{
				"x": -1.6345720791,
				"y": 1.9438884743,
				"z": 2.9640664356,
				"element": "O" 
			},
			{
				"x": 0.7095149903,
				"y": 1.2696682314,
				"z": -2.0279247316,
				"element": "H" 
			},
			{
				"x": -0.4929684068,
				"y": 2.3868128346,
				"z": -2.6860073348,
				"element": "H" 
			},
			{
				"x": -0.7544270391,
				"y": 0.6410903402,
				"z": -2.7944649,
				"element": "H" 
			},
			{
				"x": -2.1521555043,
				"y": 1.6688643723,
				"z": -0.9514527251,
				"element": "H" 
			},
			{
				"x": -0.7010403313,
				"y": 2.293357002,
				"z": -0.1936842819,
				"element": "H" 
			},
			{
				"x": 0.131284602,
				"y": -0.0662007376,
				"z": 0.1378653553,
				"element": "H" 
			},
			{
				"x": -1.3213573572,
				"y": -0.6825746621,
				"z": -0.6270841424,
				"element": "H" 
			},
			{
				"x": -1.5980107628,
				"y": -0.854130132,
				"z": 1.7808852531,
				"element": "H" 
			},
			{
				"x": -2.7216871267,
				"y": 0.4033526612,
				"z": 1.2318537136,
				"element": "H" 
			},
			{
				"x": 0.0686915223,
				"y": 0.9847992556,
				"z": 2.4452685239,
				"element": "H" 
			}
		],
		 "valence_orbital": [ 
			{
				"type": "occ",
				"energy": -0.36822,
				"method": "rhf"
			},
			{
				"type": "occ",
				"energy": -0.34525,
				"method": "rhf"
			},
			{
				"type": "occ",
				"energy": -0.33487,
				"method": "rhf"
			},
			{
				"type": "occ",
				"energy": -0.33025,
				"method": "rhf"
			},
			{
				"type": "occ",
				"energy": -0.24922,
				"method": "rhf"
			},
			{
				"type": "unocc",
				"energy": -0.02186,
				"method": "rhf"
			},
			{
				"type": "unocc",
				"energy": 0.09105,
				"method": "rhf"
			},
			{
				"type": "unocc",
				"energy": 0.11099,
				"method": "rhf"
			},
			{
				"type": "unocc",
				"energy": 0.11435,
				"method": "rhf"
			},
			{
				"type": "unocc",
				"energy": 0.14129,
				"method": "rhf"
			}
		],
		"cosmo_sigma_profile": { 
			"-0.025": 0.0,
			"-0.024": 0.0,
			"-0.023": 0.0,
			"-0.022": 0.0,
			"-0.021": 0.0,
			"-0.02": 0.0,
			"-0.019": 0.0,
			"-0.018": 0.0,
			"-0.017": 0.0,
			"-0.016": 0.0,
			"-0.015": 0.0,
			"-0.014": 0.0,
			"-0.013": 0.0,
			"-0.012": 0.0,
			"-0.011": 0.0,
			"-0.01": 0.0,
			"-0.009": 0.0,
			"-0.008": 0.0,
			"-0.007": 0.0490203749035,
			"-0.006": 5.08622657815,
			"-0.005": 9.01075901085,
			"-0.004": 9.49228107473,
			"-0.003": 16.7190899313,
			"-0.002": 23.2461288643,
			"-0.001": 21.9251243929,
			"0.0": 17.3717046691,
			"0.001": 14.3284339127,
			"0.002": 5.59481018813,
			"0.003": 1.64022798614,
			"0.004": 1.56272890842,
			"0.005": 1.5295654128,
			"0.006": 1.11519794656,
			"0.007": 1.63645739235,
			"0.008": 1.6366063804,
			"0.009": 2.41230576999,
			"0.01": 2.56853904759,
			"0.011": 4.15248702424,
			"0.012": 4.08435587413,
			"0.013": 1.11271548133,
			"0.014": 0.0,
			"0.015": 0.0,
			"0.016": 0.0,
			"0.017": 0.0,
			"0.018": 0.0,
			"0.019": 0.0,
			"0.02": 0.0,
			"0.021": 0.0,
			"0.022": 0.0,
			"0.023": 0.0,
			"0.024": 0.0,
			"0.025": 0.0
		}
	}
}
