{
	 "smiles": "OC1=CC=C(NC2=CC=CC=C2)C=C1", 
	 "Tm": 344.15, 
	 "num_atms": 25, 
	 "gaussian": { 
		 "optdone": 1, 
		 "sigma_profile": "yes", 
		 "theory": "DFT", 
		 "functional": "B3LYP", 
		 "basiset": "6-31G**", 
		 "properties": { 
			 "R2extent": 3973.1144, 
			 "electric_dipole_moment_norm": 2.26498430458, 
			 "electric_quadrupole_moment_norm": 12.0179902122, 
			 "total_energy": -593.87707573, 
			 "HOMO_LUMO_gap": 0.17472, 
			 "cosmo_polarized_energy": -12.23, 
			 "cosmo_cavitation_energy": 28.88, 
			 "cosmo_dispersion_energy": -21.43, 
			 "cosmo_repulsion_energy": 1.67, 
			 "cosmo_total_nonelectrostatic_energy": 9.13, 
			 "SMD_solvation_energy": 5.0 
		},
		"coords": [
			{
				"x": 3.54912455,
				"y": 3.576759684,
				"z": -1.5900638527,
				"element": "O" 
			},
			{
				"x": 2.7959329213,
				"y": 2.773732847,
				"z": -0.77488371,
				"element": "C" 
			},
			{
				"x": 1.6786788169,
				"y": 2.1454331954,
				"z": -1.3347972876,
				"element": "C" 
			},
			{
				"x": 0.8680162685,
				"y": 1.3247756828,
				"z": -0.557594616,
				"element": "C" 
			},
			{
				"x": 1.1698516635,
				"y": 1.0860739824,
				"z": 0.7952479064,
				"element": "C" 
			},
			{
				"x": 0.353923599,
				"y": 0.2968911052,
				"z": 1.6242420366,
				"element": "N" 
			},
			{
				"x": -0.3593892104,
				"y": -0.8607554179,
				"z": 1.3081975725,
				"element": "C" 
			},
			{
				"x": -1.3452026085,
				"y": -1.3069578546,
				"z": 2.2097248014,
				"element": "C" 
			},
			{
				"x": -2.0622809792,
				"y": -2.4728770406,
				"z": 1.9600439214,
				"element": "C" 
			},
			{
				"x": -1.8284292424,
				"y": -3.2186076798,
				"z": 0.8019566618,
				"element": "C" 
			},
			{
				"x": -0.8508803776,
				"y": -2.7812794918,
				"z": -0.0931506676,
				"element": "C" 
			},
			{
				"x": -0.1150138681,
				"y": -1.6224613871,
				"z": 0.1507968635,
				"element": "C" 
			},
			{
				"x": 2.2945734693,
				"y": 1.7190878341,
				"z": 1.3444379343,
				"element": "C" 
			},
			{
				"x": 3.0922329027,
				"y": 2.5642553615,
				"z": 0.574437352,
				"element": "C" 
			},
			{
				"x": 4.2833033066,
				"y": 3.9421920784,
				"z": -1.0802933578,
				"element": "H" 
			},
			{
				"x": 1.4453063471,
				"y": 2.3259395438,
				"z": -2.3790689399,
				"element": "H" 
			},
			{
				"x": -0.0162223195,
				"y": 0.8776298554,
				"z": -0.997629097,
				"element": "H" 
			},
			{
				"x": 0.3451301918,
				"y": 0.5560365104,
				"z": 2.5988111871,
				"element": "H" 
			},
			{
				"x": -1.5467088926,
				"y": -0.7253021051,
				"z": 3.1065739011,
				"element": "H" 
			},
			{
				"x": -2.8158759615,
				"y": -2.7950706716,
				"z": 2.6735718631,
				"element": "H" 
			},
			{
				"x": -2.3949551555,
				"y": -4.1228895056,
				"z": 0.6034150256,
				"element": "H" 
			},
			{
				"x": -0.6436611811,
				"y": -3.354634178,
				"z": -0.9928407114,
				"element": "H" 
			},
			{
				"x": 0.6614034005,
				"y": -1.3197607397,
				"z": -0.5419917256,
				"element": "H" 
			},
			{
				"x": 2.5496651767,
				"y": 1.5453035999,
				"z": 2.3867754057,
				"element": "H" 
			},
			{
				"x": 3.9561771824,
				"y": 3.0480847914,
				"z": 1.0257815332,
				"element": "H" 
			}
		],
		 "valence_orbital": [ 
			{
				"type": "occ",
				"energy": -0.298,
				"method": "rhf"
			},
			{
				"type": "occ",
				"energy": -0.25259,
				"method": "rhf"
			},
			{
				"type": "occ",
				"energy": -0.24338,
				"method": "rhf"
			},
			{
				"type": "occ",
				"energy": -0.23254,
				"method": "rhf"
			},
			{
				"type": "occ",
				"energy": -0.17912,
				"method": "rhf"
			},
			{
				"type": "unocc",
				"energy": -0.0044,
				"method": "rhf"
			},
			{
				"type": "unocc",
				"energy": 0.00245,
				"method": "rhf"
			},
			{
				"type": "unocc",
				"energy": 0.00602,
				"method": "rhf"
			},
			{
				"type": "unocc",
				"energy": 0.03865,
				"method": "rhf"
			},
			{
				"type": "unocc",
				"energy": 0.07198,
				"method": "rhf"
			}
		],
		"cosmo_sigma_profile": { 
			"-0.025": 0.0,
			"-0.024": 0.0,
			"-0.023": 0.0,
			"-0.022": 0.0,
			"-0.021": 0.0,
			"-0.02": 0.0,
			"-0.019": 0.0,
			"-0.018": 0.0850909938594,
			"-0.017": 1.3914055616,
			"-0.016": 0.597618261533,
			"-0.015": 0.767002509984,
			"-0.014": 1.72948246396,
			"-0.013": 1.80271999955,
			"-0.012": 2.13222579575,
			"-0.011": 2.67310413866,
			"-0.01": 2.13159857873,
			"-0.009": 2.48748084127,
			"-0.008": 2.95565915291,
			"-0.007": 4.19974782723,
			"-0.006": 6.08624849539,
			"-0.005": 14.7516845233,
			"-0.004": 16.610473615,
			"-0.003": 18.1316727055,
			"-0.002": 13.9630077952,
			"-0.001": 12.9958396725,
			"0.0": 11.0848175632,
			"0.001": 11.4341164389,
			"0.002": 12.5706671515,
			"0.003": 14.641535334,
			"0.004": 20.1263642287,
			"0.005": 21.3332637411,
			"0.006": 17.1101707488,
			"0.007": 8.07349555071,
			"0.008": 2.5743027144,
			"0.009": 1.00977998895,
			"0.01": 1.42626566716,
			"0.011": 2.0696225807,
			"0.012": 1.62575065996,
			"0.013": 0.00490590492832,
			"0.014": 0.0,
			"0.015": 0.0,
			"0.016": 0.0,
			"0.017": 0.0,
			"0.018": 0.0,
			"0.019": 0.0,
			"0.02": 0.0,
			"0.021": 0.0,
			"0.022": 0.0,
			"0.023": 0.0,
			"0.024": 0.0,
			"0.025": 0.0
		}
	}
}
