{
	 "smiles": "NC(=O)NN=CC1=C(O)C=CC=C1", 
	 "Tm": 506.15, 
	 "num_atms": 22, 
	 "gaussian": { 
		 "optdone": 1, 
		 "sigma_profile": "yes", 
		 "theory": "DFT", 
		 "functional": "B3LYP", 
		 "basiset": "6-31G**", 
		 "properties": { 
			 "R2extent": 4243.3942, 
			 "electric_dipole_moment_norm": 5.1294231742, 
			 "electric_quadrupole_moment_norm": 22.1821743386, 
			 "total_energy": -624.968782468, 
			 "HOMO_LUMO_gap": 0.16175, 
			 "cosmo_polarized_energy": -18.71, 
			 "cosmo_cavitation_energy": 27.4, 
			 "cosmo_dispersion_energy": -20.26, 
			 "cosmo_repulsion_energy": 1.63, 
			 "cosmo_total_nonelectrostatic_energy": 8.77, 
			 "SMD_solvation_energy": 6.02 
		},
		"coords": [
			{
				"x": 0.1287800912,
				"y": -1.3270817463,
				"z": 4.6067410914,
				"element": "N" 
			},
			{
				"x": 1.4744984369,
				"y": -1.3105012397,
				"z": 4.3760455722,
				"element": "C" 
			},
			{
				"x": 2.341194976,
				"y": -1.3681544933,
				"z": 5.2370481851,
				"element": "O" 
			},
			{
				"x": 1.8292877021,
				"y": -1.1864351242,
				"z": 3.031376856,
				"element": "N" 
			},
			{
				"x": 0.9150147487,
				"y": -1.171304146,
				"z": 2.0345032746,
				"element": "N" 
			},
			{
				"x": 1.3445735714,
				"y": -1.0710151987,
				"z": 0.8243149717,
				"element": "C" 
			},
			{
				"x": 0.4326219394,
				"y": -1.0455454525,
				"z": -0.3183050862,
				"element": "C" 
			},
			{
				"x": 0.9584854697,
				"y": -0.9568046431,
				"z": -1.6255404707,
				"element": "C" 
			},
			{
				"x": 2.3194790615,
				"y": -0.9001694718,
				"z": -1.7569177493,
				"element": "O" 
			},
			{
				"x": 0.1080729017,
				"y": -0.9296563913,
				"z": -2.7344149522,
				"element": "C" 
			},
			{
				"x": -1.2728910078,
				"y": -0.9900905739,
				"z": -2.5596701323,
				"element": "C" 
			},
			{
				"x": -1.812431321,
				"y": -1.0777959219,
				"z": -1.2728730684,
				"element": "C" 
			},
			{
				"x": -0.9639058279,
				"y": -1.1043295697,
				"z": -0.1717283225,
				"element": "C" 
			},
			{
				"x": -0.5026052638,
				"y": -1.4413848196,
				"z": 3.8292238901,
				"element": "H" 
			},
			{
				"x": -0.1587727328,
				"y": -1.5903809625,
				"z": 5.5343418932,
				"element": "H" 
			},
			{
				"x": 2.8278913648,
				"y": -1.1450968923,
				"z": 2.8456838738,
				"element": "H" 
			},
			{
				"x": 2.4139654489,
				"y": -1.0008141064,
				"z": 0.6072396735,
				"element": "H" 
			},
			{
				"x": 2.5455534317,
				"y": -0.8381105571,
				"z": -2.693633382,
				"element": "H" 
			},
			{
				"x": 0.533094001,
				"y": -0.8612822916,
				"z": -3.7338675282,
				"element": "H" 
			},
			{
				"x": -1.9240777846,
				"y": -0.9680378007,
				"z": -3.4283750804,
				"element": "H" 
			},
			{
				"x": -2.887702617,
				"y": -1.1238533117,
				"z": -1.132340345,
				"element": "H" 
			},
			{
				"x": -1.3679265902,
				"y": -1.1696552856,
				"z": 0.8327468357,
				"element": "H" 
			}
		],
		 "valence_orbital": [ 
			{
				"type": "occ",
				"energy": -0.28189,
				"method": "rhf"
			},
			{
				"type": "occ",
				"energy": -0.26126,
				"method": "rhf"
			},
			{
				"type": "occ",
				"energy": -0.25495,
				"method": "rhf"
			},
			{
				"type": "occ",
				"energy": -0.24079,
				"method": "rhf"
			},
			{
				"type": "occ",
				"energy": -0.20948,
				"method": "rhf"
			},
			{
				"type": "unocc",
				"energy": -0.04773,
				"method": "rhf"
			},
			{
				"type": "unocc",
				"energy": 0.00328,
				"method": "rhf"
			},
			{
				"type": "unocc",
				"energy": 0.04092,
				"method": "rhf"
			},
			{
				"type": "unocc",
				"energy": 0.05846,
				"method": "rhf"
			},
			{
				"type": "unocc",
				"energy": 0.07979,
				"method": "rhf"
			}
		],
		"cosmo_sigma_profile": { 
			"-0.025": 0.0,
			"-0.024": 0.0,
			"-0.023": 0.0,
			"-0.022": 0.0,
			"-0.021": 0.0,
			"-0.02": 0.0,
			"-0.019": 0.00670016316065,
			"-0.018": 0.687541330188,
			"-0.017": 1.20245312827,
			"-0.016": 1.03701460409,
			"-0.015": 1.76372216413,
			"-0.014": 2.72242069999,
			"-0.013": 3.46388627911,
			"-0.012": 3.57330390159,
			"-0.011": 3.80046489236,
			"-0.01": 3.5018187805,
			"-0.009": 4.18348998784,
			"-0.008": 4.18967371845,
			"-0.007": 4.63850302968,
			"-0.006": 7.34999314403,
			"-0.005": 10.7458452354,
			"-0.004": 10.909953384,
			"-0.003": 10.0144743655,
			"-0.002": 9.25794995101,
			"-0.001": 8.50373675954,
			"0.0": 12.0119071522,
			"0.001": 14.5728377111,
			"0.002": 16.9917550818,
			"0.003": 17.0093155794,
			"0.004": 17.6765831771,
			"0.005": 15.7696432495,
			"0.006": 7.02899274575,
			"0.007": 3.21010181365,
			"0.008": 3.35327403311,
			"0.009": 3.22225624475,
			"0.01": 1.33533546894,
			"0.011": 1.10482897674,
			"0.012": 1.75679900332,
			"0.013": 2.31140645099,
			"0.014": 6.90381102166,
			"0.015": 2.31726291318,
			"0.016": 0.0127821440076,
			"0.017": 0.0,
			"0.018": 0.0,
			"0.019": 0.0,
			"0.02": 0.0,
			"0.021": 0.0,
			"0.022": 0.0,
			"0.023": 0.0,
			"0.024": 0.0,
			"0.025": 0.0
		}
	}
}
