{
	 "smiles": "CN(C)CC[NH2+]CC1=CC(=CC=C1[O-])[N+]([O-])=O", 
	 "Tm": 431.65, 
	 "num_atms": 34, 
	 "gaussian": { 
		 "optdone": 1, 
		 "sigma_profile": "yes", 
		 "theory": "DFT", 
		 "functional": "B3LYP", 
		 "basiset": "6-31G**", 
		 "properties": { 
			 "R2extent": 6213.7541, 
			 "electric_dipole_moment_norm": 14.1390239302, 
			 "electric_quadrupole_moment_norm": 23.378122384, 
			 "total_energy": -819.204330792, 
			 "HOMO_LUMO_gap": 0.14025, 
			 "cosmo_polarized_energy": -36.41, 
			 "cosmo_cavitation_energy": 36.25, 
			 "cosmo_dispersion_energy": -25.58, 
			 "cosmo_repulsion_energy": 1.97, 
			 "cosmo_total_nonelectrostatic_energy": 12.64, 
			 "SMD_solvation_energy": 9.03 
		},
		"coords": [
			{
				"x": 4.6342549722,
				"y": -0.2532948157,
				"z": 1.0984882124,
				"element": "C" 
			},
			{
				"x": 3.3839354682,
				"y": 0.2716370406,
				"z": 1.6556532961,
				"element": "N" 
			},
			{
				"x": 3.611774951,
				"y": 0.8740612005,
				"z": 2.9724055378,
				"element": "C" 
			},
			{
				"x": 2.6972077779,
				"y": 1.1876380058,
				"z": 0.7311573326,
				"element": "C" 
			},
			{
				"x": 1.1844190798,
				"y": 1.1422270506,
				"z": 0.9587281117,
				"element": "C" 
			},
			{
				"x": 0.7853055023,
				"y": -0.3104585432,
				"z": 1.0523412352,
				"element": "N" 
			},
			{
				"x": 0.6070176065,
				"y": -1.0811327149,
				"z": -0.2781591238,
				"element": "C" 
			},
			{
				"x": -0.5025793211,
				"y": -0.5512672456,
				"z": -1.110827713,
				"element": "C" 
			},
			{
				"x": -1.7716268894,
				"y": -1.1103770577,
				"z": -1.0718931032,
				"element": "C" 
			},
			{
				"x": -2.7749471686,
				"y": -0.6219147534,
				"z": -1.9113910442,
				"element": "C" 
			},
			{
				"x": -2.4946815338,
				"y": 0.4211484208,
				"z": -2.824286418,
				"element": "C" 
			},
			{
				"x": -1.2398414795,
				"y": 0.9761108438,
				"z": -2.8833958828,
				"element": "C" 
			},
			{
				"x": -0.1672053863,
				"y": 0.5441463646,
				"z": -2.0151857225,
				"element": "C" 
			},
			{
				"x": 0.981711943,
				"y": 1.0739414249,
				"z": -2.0040078324,
				"element": "O" 
			},
			{
				"x": -4.0892044622,
				"y": -1.1961570698,
				"z": -1.8489460151,
				"element": "N" 
			},
			{
				"x": -4.9596805869,
				"y": -0.7594665546,
				"z": -2.6160395742,
				"element": "O" 
			},
			{
				"x": -4.2986445176,
				"y": -2.1028216404,
				"z": -1.0244512393,
				"element": "O" 
			},
			{
				"x": 5.3922425343,
				"y": 0.531858256,
				"z": 0.9404753479,
				"element": "H" 
			},
			{
				"x": 4.4390917462,
				"y": -0.7391811503,
				"z": 0.1389918531,
				"element": "H" 
			},
			{
				"x": 5.0535278976,
				"y": -0.9978289974,
				"z": 1.7818029983,
				"element": "H" 
			},
			{
				"x": 4.310017313,
				"y": 1.7271249189,
				"z": 2.9284994256,
				"element": "H" 
			},
			{
				"x": 4.0263212537,
				"y": 0.1258496719,
				"z": 3.6541129699,
				"element": "H" 
			},
			{
				"x": 2.6702264475,
				"y": 1.2312486877,
				"z": 3.400215455,
				"element": "H" 
			},
			{
				"x": 2.8779775659,
				"y": 0.8825684714,
				"z": -0.3023963335,
				"element": "H" 
			},
			{
				"x": 3.0414625213,
				"y": 2.2291547054,
				"z": 0.825079368,
				"element": "H" 
			},
			{
				"x": 0.6687536382,
				"y": 1.599080152,
				"z": 0.1160546943,
				"element": "H" 
			},
			{
				"x": 0.8888174662,
				"y": 1.6082046394,
				"z": 1.9028934541,
				"element": "H" 
			},
			{
				"x": 1.5700118053,
				"y": -0.7323008631,
				"z": 1.5890191461,
				"element": "H" 
			},
			{
				"x": -0.0885076449,
				"y": -0.4008173594,
				"z": 1.5724900043,
				"element": "H" 
			},
			{
				"x": 1.5608018143,
				"y": -0.9773139383,
				"z": -0.7981493423,
				"element": "H" 
			},
			{
				"x": 0.4521137726,
				"y": -2.1172410327,
				"z": 0.0348466382,
				"element": "H" 
			},
			{
				"x": -2.0147370331,
				"y": -1.9366741044,
				"z": -0.4100412439,
				"element": "H" 
			},
			{
				"x": -3.2954208532,
				"y": 0.7638930949,
				"z": -3.4697153072,
				"element": "H" 
			},
			{
				"x": -1.0162162005,
				"y": 1.7763548916,
				"z": -3.582069185,
				"element": "H" 
			}
		],
		 "valence_orbital": [ 
			{
				"type": "occ",
				"energy": -0.26118,
				"method": "rhf"
			},
			{
				"type": "occ",
				"energy": -0.24334,
				"method": "rhf"
			},
			{
				"type": "occ",
				"energy": -0.24118,
				"method": "rhf"
			},
			{
				"type": "occ",
				"energy": -0.20856,
				"method": "rhf"
			},
			{
				"type": "occ",
				"energy": -0.17754,
				"method": "rhf"
			},
			{
				"type": "unocc",
				"energy": -0.03729,
				"method": "rhf"
			},
			{
				"type": "unocc",
				"energy": -0.0057,
				"method": "rhf"
			},
			{
				"type": "unocc",
				"energy": 0.01705,
				"method": "rhf"
			},
			{
				"type": "unocc",
				"energy": 0.04909,
				"method": "rhf"
			},
			{
				"type": "unocc",
				"energy": 0.06215,
				"method": "rhf"
			}
		],
		"cosmo_sigma_profile": { 
			"-0.025": 0.0,
			"-0.024": 0.0,
			"-0.023": 0.0,
			"-0.022": 0.0,
			"-0.021": 0.0,
			"-0.02": 0.0,
			"-0.019": 0.0,
			"-0.018": 0.367170307886,
			"-0.017": 2.83311300236,
			"-0.016": 2.78213262585,
			"-0.015": 2.51846036804,
			"-0.014": 1.91842455492,
			"-0.013": 2.05982854665,
			"-0.012": 2.06182834045,
			"-0.011": 1.82899431677,
			"-0.01": 3.03224258964,
			"-0.009": 3.13565197803,
			"-0.008": 4.36379530723,
			"-0.007": 7.30676478573,
			"-0.006": 8.91933717702,
			"-0.005": 14.4318925654,
			"-0.004": 25.2363095805,
			"-0.003": 23.8065042332,
			"-0.002": 23.7533283037,
			"-0.001": 26.0678263135,
			"0.0": 14.2875307267,
			"0.001": 10.4456615174,
			"0.002": 12.8821408678,
			"0.003": 11.9577908161,
			"0.004": 12.7155089388,
			"0.005": 10.2785793699,
			"0.006": 5.88581134825,
			"0.007": 4.26059291548,
			"0.008": 4.16351036352,
			"0.009": 6.43801284507,
			"0.01": 12.0855693522,
			"0.011": 7.08796075706,
			"0.012": 5.20846425967,
			"0.013": 3.30191473322,
			"0.014": 1.08422480505,
			"0.015": 1.58405383893,
			"0.016": 1.89143159943,
			"0.017": 1.8487020591,
			"0.018": 0.887744162092,
			"0.019": 0.00846745635448,
			"0.02": 0.0,
			"0.021": 0.0,
			"0.022": 0.0,
			"0.023": 0.0,
			"0.024": 0.0,
			"0.025": 0.0
		}
	}
}
