{
	 "smiles": "COC1=CC=C(C=CC2=CC(OC)=CC(=O)O2)C=C1", 
	 "Tm": 429.15, 
	 "num_atms": 33, 
	 "gaussian": { 
		 "optdone": 1, 
		 "sigma_profile": "yes", 
		 "theory": "DFT", 
		 "functional": "B3LYP", 
		 "basiset": "6-31G**", 
		 "properties": { 
			 "R2extent": 9574.1546, 
			 "electric_dipole_moment_norm": 7.46913573113, 
			 "electric_quadrupole_moment_norm": 44.217973537, 
			 "total_energy": -880.886526961, 
			 "HOMO_LUMO_gap": 0.1258, 
			 "cosmo_polarized_energy": -19.37, 
			 "cosmo_cavitation_energy": 38.39, 
			 "cosmo_dispersion_energy": -27.9, 
			 "cosmo_repulsion_energy": 2.13, 
			 "cosmo_total_nonelectrostatic_energy": 12.62, 
			 "SMD_solvation_energy": 9.43 
		},
		"coords": [
			{
				"x": -0.8776917212,
				"y": -3.4171934832,
				"z": -5.2598848213,
				"element": "C" 
			},
			{
				"x": -1.7166598066,
				"y": -3.2925192474,
				"z": -4.1195312406,
				"element": "O" 
			},
			{
				"x": -1.4002956334,
				"y": -2.3638698138,
				"z": -3.1785754969,
				"element": "C" 
			},
			{
				"x": -0.2920161077,
				"y": -1.5046495349,
				"z": -3.2447445871,
				"element": "C" 
			},
			{
				"x": -0.0631448129,
				"y": -0.5894538983,
				"z": -2.222405518,
				"element": "C" 
			},
			{
				"x": -0.9181914196,
				"y": -0.4958441992,
				"z": -1.1090656927,
				"element": "C" 
			},
			{
				"x": -0.7199205498,
				"y": 0.4465656359,
				"z": -0.0138958277,
				"element": "C" 
			},
			{
				"x": 0.2737261117,
				"y": 1.3533781164,
				"z": 0.1155808814,
				"element": "C" 
			},
			{
				"x": 0.4452208243,
				"y": 2.28167318,
				"z": 1.2218908799,
				"element": "C" 
			},
			{
				"x": -0.3510625106,
				"y": 2.4099185202,
				"z": 2.3298777125,
				"element": "C" 
			},
			{
				"x": -0.005594569,
				"y": 3.3911985458,
				"z": 3.3072803946,
				"element": "C" 
			},
			{
				"x": -0.7312103903,
				"y": 3.5909544718,
				"z": 4.4330074829,
				"element": "O" 
			},
			{
				"x": -1.8907718111,
				"y": 2.8003869362,
				"z": 4.6697040142,
				"element": "C" 
			},
			{
				"x": 1.1017385475,
				"y": 4.1864659416,
				"z": 3.1364690269,
				"element": "C" 
			},
			{
				"x": 1.9423655666,
				"y": 4.0623570718,
				"z": 1.9842394717,
				"element": "C" 
			},
			{
				"x": 2.9392826654,
				"y": 4.6849556211,
				"z": 1.7003868934,
				"element": "O" 
			},
			{
				"x": 1.534385138,
				"y": 3.0601065928,
				"z": 1.0490911099,
				"element": "O" 
			},
			{
				"x": -2.0246651853,
				"y": -1.3711659086,
				"z": -1.0673008124,
				"element": "C" 
			},
			{
				"x": -2.2667949447,
				"y": -2.2882108772,
				"z": -2.0770202753,
				"element": "C" 
			},
			{
				"x": -1.3160890754,
				"y": -4.2085176003,
				"z": -5.8692029879,
				"element": "H" 
			},
			{
				"x": -0.8474067751,
				"y": -2.4876632804,
				"z": -5.8418769804,
				"element": "H" 
			},
			{
				"x": 0.1443266756,
				"y": -3.7010678412,
				"z": -4.9795963309,
				"element": "H" 
			},
			{
				"x": 0.3921264183,
				"y": -1.542856744,
				"z": -4.0839259771,
				"element": "H" 
			},
			{
				"x": 0.800992101,
				"y": 0.062944453,
				"z": -2.2985689572,
				"element": "H" 
			},
			{
				"x": -1.4739547435,
				"y": 0.3872377827,
				"z": 0.7700478991,
				"element": "H" 
			},
			{
				"x": 1.0445290003,
				"y": 1.4456500717,
				"z": -0.643822978,
				"element": "H" 
			},
			{
				"x": -1.2159684894,
				"y": 1.7736498324,
				"z": 2.443104271,
				"element": "H" 
			},
			{
				"x": -1.644894407,
				"y": 1.7347951804,
				"z": 4.7488487911,
				"element": "H" 
			},
			{
				"x": -2.6458179356,
				"y": 2.945221451,
				"z": 3.8879502208,
				"element": "H" 
			},
			{
				"x": -2.2930373938,
				"y": 3.145558322,
				"z": 5.6228324657,
				"element": "H" 
			},
			{
				"x": 1.3679406282,
				"y": 4.9314276796,
				"z": 3.8744174406,
				"element": "H" 
			},
			{
				"x": -2.704659749,
				"y": -1.3241247527,
				"z": -0.2203701356,
				"element": "H" 
			},
			{
				"x": -3.118785646,
				"y": -2.9588082251,
				"z": -2.0402403369,
				"element": "H" 
			}
		],
		 "valence_orbital": [ 
			{
				"type": "occ",
				"energy": -0.27211,
				"method": "rhf"
			},
			{
				"type": "occ",
				"energy": -0.26657,
				"method": "rhf"
			},
			{
				"type": "occ",
				"energy": -0.25481,
				"method": "rhf"
			},
			{
				"type": "occ",
				"energy": -0.23192,
				"method": "rhf"
			},
			{
				"type": "occ",
				"energy": -0.1997,
				"method": "rhf"
			},
			{
				"type": "unocc",
				"energy": -0.0739,
				"method": "rhf"
			},
			{
				"type": "unocc",
				"energy": -0.01608,
				"method": "rhf"
			},
			{
				"type": "unocc",
				"energy": -0.00681,
				"method": "rhf"
			},
			{
				"type": "unocc",
				"energy": 0.02463,
				"method": "rhf"
			},
			{
				"type": "unocc",
				"energy": 0.07358,
				"method": "rhf"
			}
		],
		"cosmo_sigma_profile": { 
			"-0.025": 0.0,
			"-0.024": 0.0,
			"-0.023": 0.0,
			"-0.022": 0.0,
			"-0.021": 0.0,
			"-0.02": 0.0,
			"-0.019": 0.0,
			"-0.018": 0.0,
			"-0.017": 0.0,
			"-0.016": 0.0,
			"-0.015": 0.0,
			"-0.014": 0.0,
			"-0.013": 0.0,
			"-0.012": 0.0,
			"-0.011": 0.0,
			"-0.01": 0.455301211677,
			"-0.009": 2.26260470892,
			"-0.008": 4.60080598998,
			"-0.007": 11.965859177,
			"-0.006": 26.0701250789,
			"-0.005": 28.1610919721,
			"-0.004": 25.5990836626,
			"-0.003": 20.7311870146,
			"-0.002": 15.7888715641,
			"-0.001": 16.8802504821,
			"0.0": 17.5682053302,
			"0.001": 21.0772347471,
			"0.002": 23.5580839183,
			"0.003": 25.4126698833,
			"0.004": 19.6945083774,
			"0.005": 9.23853303549,
			"0.006": 4.24722993406,
			"0.007": 4.08979209421,
			"0.008": 5.90395174993,
			"0.009": 4.01435920294,
			"0.01": 3.19971777489,
			"0.011": 2.3983690923,
			"0.012": 3.25824424316,
			"0.013": 7.06241548876,
			"0.014": 3.68263363198,
			"0.015": 0.167812648113,
			"0.016": 0.0,
			"0.017": 0.0,
			"0.018": 0.0,
			"0.019": 0.0,
			"0.02": 0.0,
			"0.021": 0.0,
			"0.022": 0.0,
			"0.023": 0.0,
			"0.024": 0.0,
			"0.025": 0.0
		}
	}
}
