{
	 "smiles": "NC1=C(C=CC=C1)C(=O)NCC(F)(F)F", 
	 "Tm": 401.15, 
	 "num_atms": 24, 
	 "gaussian": { 
		 "optdone": 1, 
		 "sigma_profile": "yes", 
		 "theory": "DFT", 
		 "functional": "B3LYP", 
		 "basiset": "6-31G**", 
		 "properties": { 
			 "R2extent": 4341.6189, 
			 "electric_dipole_moment_norm": 2.16230887017, 
			 "electric_quadrupole_moment_norm": 15.526905484, 
			 "total_energy": -832.657795748, 
			 "HOMO_LUMO_gap": 0.16717, 
			 "cosmo_polarized_energy": -12.04, 
			 "cosmo_cavitation_energy": 29.18, 
			 "cosmo_dispersion_energy": -20.5, 
			 "cosmo_repulsion_energy": 1.56, 
			 "cosmo_total_nonelectrostatic_energy": 10.25, 
			 "SMD_solvation_energy": 5.64 
		},
		"coords": [
			{
				"x": 1.4493803724,
				"y": 1.1597145407,
				"z": -1.656552838,
				"element": "N" 
			},
			{
				"x": 0.4122434681,
				"y": 0.3371231776,
				"z": -1.2911336735,
				"element": "C" 
			},
			{
				"x": 0.2227587331,
				"y": -0.0670854909,
				"z": 0.0621545564,
				"element": "C" 
			},
			{
				"x": -0.8745940644,
				"y": -0.885878546,
				"z": 0.3853246574,
				"element": "C" 
			},
			{
				"x": -1.749910091,
				"y": -1.3571418383,
				"z": -0.5843612138,
				"element": "C" 
			},
			{
				"x": -1.5247693342,
				"y": -1.0051603035,
				"z": -1.9215623054,
				"element": "C" 
			},
			{
				"x": -0.4695501994,
				"y": -0.1751860697,
				"z": -2.2679893295,
				"element": "C" 
			},
			{
				"x": 1.1288203237,
				"y": 0.4536514559,
				"z": 1.11932327,
				"element": "C" 
			},
			{
				"x": 1.6656889491,
				"y": 1.5615906592,
				"z": 1.0526186181,
				"element": "O" 
			},
			{
				"x": 1.3196509452,
				"y": -0.3143942909,
				"z": 2.2666933599,
				"element": "N" 
			},
			{
				"x": 1.5194510257,
				"y": -1.7512046251,
				"z": 2.282399685,
				"element": "C" 
			},
			{
				"x": 2.9813862746,
				"y": -2.1283710215,
				"z": 2.0836618157,
				"element": "C" 
			},
			{
				"x": 3.1387816373,
				"y": -3.4655344798,
				"z": 2.1611000801,
				"element": "F" 
			},
			{
				"x": 3.7615334986,
				"y": -1.5639695366,
				"z": 3.034825126,
				"element": "F" 
			},
			{
				"x": 3.4420949888,
				"y": -1.7201414439,
				"z": 0.8867327837,
				"element": "F" 
			},
			{
				"x": 1.8234284944,
				"y": 1.7394267907,
				"z": -0.9148705462,
				"element": "H" 
			},
			{
				"x": 1.4001933957,
				"y": 1.5744075743,
				"z": -2.5741527312,
				"element": "H" 
			},
			{
				"x": -1.0555672008,
				"y": -1.1210693308,
				"z": 1.4298560113,
				"element": "H" 
			},
			{
				"x": -2.5958851534,
				"y": -1.9777732599,
				"z": -0.3085417838,
				"element": "H" 
			},
			{
				"x": -2.191375365,
				"y": -1.3686796223,
				"z": -2.6988774663,
				"element": "H" 
			},
			{
				"x": -0.3169942579,
				"y": 0.1078330788,
				"z": -3.3065456143,
				"element": "H" 
			},
			{
				"x": 1.9201352071,
				"y": 0.1876889847,
				"z": 2.9134012385,
				"element": "H" 
			},
			{
				"x": 0.9441837247,
				"y": -2.2249863698,
				"z": 1.4884303136,
				"element": "H" 
			},
			{
				"x": 1.1972146276,
				"y": -2.1741600328,
				"z": 3.2394659863,
				"element": "H" 
			}
		],
		 "valence_orbital": [ 
			{
				"type": "occ",
				"energy": -0.31456,
				"method": "rhf"
			},
			{
				"type": "occ",
				"energy": -0.27888,
				"method": "rhf"
			},
			{
				"type": "occ",
				"energy": -0.26018,
				"method": "rhf"
			},
			{
				"type": "occ",
				"energy": -0.25278,
				"method": "rhf"
			},
			{
				"type": "occ",
				"energy": -0.20616,
				"method": "rhf"
			},
			{
				"type": "unocc",
				"energy": -0.03899,
				"method": "rhf"
			},
			{
				"type": "unocc",
				"energy": 0.00675,
				"method": "rhf"
			},
			{
				"type": "unocc",
				"energy": 0.04491,
				"method": "rhf"
			},
			{
				"type": "unocc",
				"energy": 0.08653,
				"method": "rhf"
			},
			{
				"type": "unocc",
				"energy": 0.0948,
				"method": "rhf"
			}
		],
		"cosmo_sigma_profile": { 
			"-0.025": 0.0,
			"-0.024": 0.0,
			"-0.023": 0.0,
			"-0.022": 0.0,
			"-0.021": 0.0,
			"-0.02": 0.0,
			"-0.019": 0.0,
			"-0.018": 0.0,
			"-0.017": 0.0,
			"-0.016": 0.0,
			"-0.015": 0.0,
			"-0.014": 0.0,
			"-0.013": 0.984664943337,
			"-0.012": 2.43044299097,
			"-0.011": 2.21324658879,
			"-0.01": 2.35016027282,
			"-0.009": 3.06691522943,
			"-0.008": 7.73114913079,
			"-0.007": 6.73527397629,
			"-0.006": 13.5685033318,
			"-0.005": 13.4395386711,
			"-0.004": 12.2476731937,
			"-0.003": 11.5180511873,
			"-0.002": 10.1172800348,
			"-0.001": 10.1259791917,
			"0.0": 11.2934930306,
			"0.001": 15.7196813951,
			"0.002": 29.080012513,
			"0.003": 33.8981049967,
			"0.004": 12.7419015313,
			"0.005": 10.726207092,
			"0.006": 5.13277407914,
			"0.007": 3.52248455828,
			"0.008": 1.77267311817,
			"0.009": 1.94056043435,
			"0.01": 2.20952988261,
			"0.011": 2.28783666233,
			"0.012": 3.44644279312,
			"0.013": 1.98623499771,
			"0.014": 0.165101370014,
			"0.015": 0.0,
			"0.016": 0.0,
			"0.017": 0.0,
			"0.018": 0.0,
			"0.019": 0.0,
			"0.02": 0.0,
			"0.021": 0.0,
			"0.022": 0.0,
			"0.023": 0.0,
			"0.024": 0.0,
			"0.025": 0.0
		}
	}
}
