{
	 "smiles": "NS(=O)(=O)C1=CC2=C(NCCC2)C=C1", 
	 "Tm": 435.15, 
	 "num_atms": 26, 
	 "gaussian": { 
		 "optdone": 1, 
		 "sigma_profile": "yes", 
		 "theory": "DFT", 
		 "functional": "B3LYP", 
		 "basiset": "6-31G**", 
		 "properties": { 
			 "R2extent": 4595.649, 
			 "electric_dipole_moment_norm": 6.04476833799, 
			 "electric_quadrupole_moment_norm": 22.7653194054, 
			 "total_energy": -1008.27422035, 
			 "HOMO_LUMO_gap": 0.19171, 
			 "cosmo_polarized_energy": -18.55, 
			 "cosmo_cavitation_energy": 29.76, 
			 "cosmo_dispersion_energy": -22.92, 
			 "cosmo_repulsion_energy": 1.77, 
			 "cosmo_total_nonelectrostatic_energy": 8.61, 
			 "SMD_solvation_energy": 3.23 
		},
		"coords": [
			{
				"x": 0.0885497154,
				"y": -3.2637253001,
				"z": 3.5217350018,
				"element": "N" 
			},
			{
				"x": 0.2183167796,
				"y": -1.5962660701,
				"z": 3.8509911359,
				"element": "S" 
			},
			{
				"x": -1.0975435045,
				"y": -1.1669036495,
				"z": 4.3409054386,
				"element": "O" 
			},
			{
				"x": 1.4415830639,
				"y": -1.4234223465,
				"z": 4.6441608172,
				"element": "O" 
			},
			{
				"x": 0.4847322995,
				"y": -0.8507302998,
				"z": 2.2602800469,
				"element": "C" 
			},
			{
				"x": -0.6091200998,
				"y": -0.4308896072,
				"z": 1.4999784616,
				"element": "C" 
			},
			{
				"x": -0.4319582971,
				"y": 0.1448222909,
				"z": 0.2454978966,
				"element": "C" 
			},
			{
				"x": 0.8863995866,
				"y": 0.316866094,
				"z": -0.2481909645,
				"element": "C" 
			},
			{
				"x": 1.1050627201,
				"y": 0.9317261936,
				"z": -1.4648147211,
				"element": "N" 
			},
			{
				"x": 0.0199935057,
				"y": 1.1866381,
				"z": -2.4010140061,
				"element": "C" 
			},
			{
				"x": -1.2200184763,
				"y": 1.643999325,
				"z": -1.6297824461,
				"element": "C" 
			},
			{
				"x": -1.6175013522,
				"y": 0.582946877,
				"z": -0.5943008585,
				"element": "C" 
			},
			{
				"x": 1.9813484486,
				"y": -0.101141084,
				"z": 0.537129654,
				"element": "C" 
			},
			{
				"x": 1.7868279172,
				"y": -0.6820812679,
				"z": 1.7804638857,
				"element": "C" 
			},
			{
				"x": 0.8275089416,
				"y": -3.7491642411,
				"z": 4.0243114255,
				"element": "H" 
			},
			{
				"x": -0.8262034881,
				"y": -3.5821419679,
				"z": 3.8317652421,
				"element": "H" 
			},
			{
				"x": -1.610970063,
				"y": -0.5448742368,
				"z": 1.903112702,
				"element": "H" 
			},
			{
				"x": 2.0323938743,
				"y": 0.8406198353,
				"z": -1.851639935,
				"element": "H" 
			},
			{
				"x": 0.3463097854,
				"y": 1.9615166525,
				"z": -3.1025668954,
				"element": "H" 
			},
			{
				"x": -0.225591946,
				"y": 0.2898894842,
				"z": -2.9948664295,
				"element": "H" 
			},
			{
				"x": -0.9952910957,
				"y": 2.5919865297,
				"z": -1.1277644409,
				"element": "H" 
			},
			{
				"x": -2.0425361817,
				"y": 1.8270077511,
				"z": -2.3285912229,
				"element": "H" 
			},
			{
				"x": -2.0401567988,
				"y": -0.2876770369,
				"z": -1.1160931813,
				"element": "H" 
			},
			{
				"x": -2.4128743424,
				"y": 0.9636413276,
				"z": 0.0558714321,
				"element": "H" 
			},
			{
				"x": 2.9906754174,
				"y": 0.0493272797,
				"z": 0.161947843,
				"element": "H" 
			},
			{
				"x": 2.6320635903,
				"y": -0.9852706328,
				"z": 2.3883741181,
				"element": "H" 
			}
		],
		 "valence_orbital": [ 
			{
				"type": "occ",
				"energy": -0.30411,
				"method": "rhf"
			},
			{
				"type": "occ",
				"energy": -0.29133,
				"method": "rhf"
			},
			{
				"type": "occ",
				"energy": -0.27475,
				"method": "rhf"
			},
			{
				"type": "occ",
				"energy": -0.252,
				"method": "rhf"
			},
			{
				"type": "occ",
				"energy": -0.20419,
				"method": "rhf"
			},
			{
				"type": "unocc",
				"energy": -0.01248,
				"method": "rhf"
			},
			{
				"type": "unocc",
				"energy": -0.00827,
				"method": "rhf"
			},
			{
				"type": "unocc",
				"energy": 0.06527,
				"method": "rhf"
			},
			{
				"type": "unocc",
				"energy": 0.07332,
				"method": "rhf"
			},
			{
				"type": "unocc",
				"energy": 0.09003,
				"method": "rhf"
			}
		],
		"cosmo_sigma_profile": { 
			"-0.025": 0.0,
			"-0.024": 0.0,
			"-0.023": 0.0,
			"-0.022": 0.0,
			"-0.021": 0.0,
			"-0.02": 0.0,
			"-0.019": 0.0,
			"-0.018": 0.0,
			"-0.017": 0.0,
			"-0.016": 0.0,
			"-0.015": 0.128518949029,
			"-0.014": 2.06238596403,
			"-0.013": 3.4772793243,
			"-0.012": 4.19232074149,
			"-0.011": 3.94152052289,
			"-0.01": 2.55655723764,
			"-0.009": 2.89666961585,
			"-0.008": 3.69900795421,
			"-0.007": 4.34399069856,
			"-0.006": 6.09184839893,
			"-0.005": 9.42040468251,
			"-0.004": 17.5034363253,
			"-0.003": 24.8170336946,
			"-0.002": 24.1263833987,
			"-0.001": 18.0351718735,
			"0.0": 12.3529595204,
			"0.001": 8.87970150239,
			"0.002": 9.01078063418,
			"0.003": 10.7664202486,
			"0.004": 13.1265778171,
			"0.005": 10.403430261,
			"0.006": 5.15562681979,
			"0.007": 4.87748659202,
			"0.008": 3.62157651685,
			"0.009": 4.09257894106,
			"0.01": 5.99938128236,
			"0.011": 9.79223585344,
			"0.012": 7.85727140764,
			"0.013": 1.12710667587,
			"0.014": 0.233407041772,
			"0.015": 0.0,
			"0.016": 0.0,
			"0.017": 0.0,
			"0.018": 0.0,
			"0.019": 0.0,
			"0.02": 0.0,
			"0.021": 0.0,
			"0.022": 0.0,
			"0.023": 0.0,
			"0.024": 0.0,
			"0.025": 0.0
		}
	}
}
