{
	 "smiles": "NCC(O)C1=CC(F)=C(F)C=C1", 
	 "Tm": 327.15, 
	 "num_atms": 21, 
	 "gaussian": { 
		 "optdone": 1, 
		 "sigma_profile": "yes", 
		 "theory": "DFT", 
		 "functional": "B3LYP", 
		 "basiset": "6-31G**", 
		 "properties": { 
			 "R2extent": 3780.9638, 
			 "electric_dipole_moment_norm": 1.61808692906, 
			 "electric_quadrupole_moment_norm": 12.7176529619, 
			 "total_energy": -639.898905736, 
			 "HOMO_LUMO_gap": 0.22346, 
			 "cosmo_polarized_energy": -11.64, 
			 "cosmo_cavitation_energy": 25.33, 
			 "cosmo_dispersion_energy": -18.13, 
			 "cosmo_repulsion_energy": 1.41, 
			 "cosmo_total_nonelectrostatic_energy": 8.61, 
			 "SMD_solvation_energy": 3.87 
		},
		"coords": [
			{
				"x": 2.0491514333,
				"y": 0.4802862618,
				"z": 1.7786259206,
				"element": "N" 
			},
			{
				"x": 0.6447446595,
				"y": 0.5011923422,
				"z": 1.3819551988,
				"element": "C" 
			},
			{
				"x": 0.2427425704,
				"y": -0.4769908665,
				"z": 0.2519341791,
				"element": "C" 
			},
			{
				"x": 0.492540467,
				"y": -1.8195154406,
				"z": 0.652721141,
				"element": "O" 
			},
			{
				"x": 0.8988474126,
				"y": -0.1506129765,
				"z": -1.0924040341,
				"element": "C" 
			},
			{
				"x": 1.500344802,
				"y": -1.1704190815,
				"z": -1.8411584487,
				"element": "C" 
			},
			{
				"x": 2.0819903296,
				"y": -0.8863271663,
				"z": -3.0685435358,
				"element": "C" 
			},
			{
				"x": 2.6620730846,
				"y": -1.8636440746,
				"z": -3.7873288796,
				"element": "F" 
			},
			{
				"x": 2.0712831556,
				"y": 0.4106080584,
				"z": -3.5770070141,
				"element": "C" 
			},
			{
				"x": 2.6436142846,
				"y": 0.6567342382,
				"z": -4.768110051,
				"element": "F" 
			},
			{
				"x": 1.4697952308,
				"y": 1.4321149435,
				"z": -2.8544703764,
				"element": "C" 
			},
			{
				"x": 0.887185689,
				"y": 1.1502927428,
				"z": -1.6176928488,
				"element": "C" 
			},
			{
				"x": 2.2962996884,
				"y": -0.3853412204,
				"z": 2.2484727286,
				"element": "H" 
			},
			{
				"x": 2.6642893522,
				"y": 0.6003461337,
				"z": 0.9782602067,
				"element": "H" 
			},
			{
				"x": 0.3795327846,
				"y": 1.5249821985,
				"z": 1.0952743677,
				"element": "H" 
			},
			{
				"x": 0.0412285919,
				"y": 0.2558592992,
				"z": 2.2619469255,
				"element": "H" 
			},
			{
				"x": -0.8466620983,
				"y": -0.4212672423,
				"z": 0.1282298941,
				"element": "H" 
			},
			{
				"x": 1.4321473275,
				"y": -1.8699539109,
				"z": 0.8824595959,
				"element": "H" 
			},
			{
				"x": 1.4975434854,
				"y": -2.1922045448,
				"z": -1.4806670352,
				"element": "H" 
			},
			{
				"x": 1.4661048306,
				"y": 2.4347066288,
				"z": -3.2688365128,
				"element": "H" 
			},
			{
				"x": 0.4136029187,
				"y": 1.9587536773,
				"z": -1.0700614215,
				"element": "H" 
			}
		],
		 "valence_orbital": [ 
			{
				"type": "occ",
				"energy": -0.33931,
				"method": "rhf"
			},
			{
				"type": "occ",
				"energy": -0.2923,
				"method": "rhf"
			},
			{
				"type": "occ",
				"energy": -0.26504,
				"method": "rhf"
			},
			{
				"type": "occ",
				"energy": -0.24939,
				"method": "rhf"
			},
			{
				"type": "occ",
				"energy": -0.24037,
				"method": "rhf"
			},
			{
				"type": "unocc",
				"energy": -0.01691,
				"method": "rhf"
			},
			{
				"type": "unocc",
				"energy": -0.0105,
				"method": "rhf"
			},
			{
				"type": "unocc",
				"energy": 0.05127,
				"method": "rhf"
			},
			{
				"type": "unocc",
				"energy": 0.07095,
				"method": "rhf"
			},
			{
				"type": "unocc",
				"energy": 0.10246,
				"method": "rhf"
			}
		],
		"cosmo_sigma_profile": { 
			"-0.025": 0.0,
			"-0.024": 0.0,
			"-0.023": 0.0,
			"-0.022": 0.0,
			"-0.021": 0.0,
			"-0.02": 0.0,
			"-0.019": 0.0,
			"-0.018": 0.0,
			"-0.017": 0.0,
			"-0.016": 0.000436974865355,
			"-0.015": 0.636238580038,
			"-0.014": 1.37761110168,
			"-0.013": 1.27981131613,
			"-0.012": 1.08083670696,
			"-0.011": 1.76719070018,
			"-0.01": 2.16858110864,
			"-0.009": 2.99926876448,
			"-0.008": 3.6304249391,
			"-0.007": 6.70254230552,
			"-0.006": 9.95510763817,
			"-0.005": 11.4365439671,
			"-0.004": 11.8122300332,
			"-0.003": 12.4827227425,
			"-0.002": 10.0646741773,
			"-0.001": 12.3397521064,
			"0.0": 14.9223328793,
			"0.001": 15.6914476852,
			"0.002": 14.8184955396,
			"0.003": 17.7709631217,
			"0.004": 23.7204099166,
			"0.005": 4.22605006017,
			"0.006": 1.8539327758,
			"0.007": 1.91979815512,
			"0.008": 1.1864992873,
			"0.009": 1.31482792798,
			"0.01": 2.4600662119,
			"0.011": 2.27580686545,
			"0.012": 1.25864658038,
			"0.013": 2.43756383547,
			"0.014": 1.79714910287,
			"0.015": 0.838390527106,
			"0.016": 0.584570844387,
			"0.017": 0.700943203674,
			"0.018": 0.502287289281,
			"0.019": 0.444065179518,
			"0.02": 0.0,
			"0.021": 0.0,
			"0.022": 0.0,
			"0.023": 0.0,
			"0.024": 0.0,
			"0.025": 0.0
		}
	}
}
