{
	 "smiles": "COC(=O)C1=CC2=C(C=CC(Cl)=N2)N1C", 
	 "Tm": 408.15, 
	 "num_atms": 24, 
	 "gaussian": { 
		 "optdone": 1, 
		 "sigma_profile": "yes", 
		 "theory": "DFT", 
		 "functional": "B3LYP", 
		 "basiset": "6-31G**", 
		 "properties": { 
			 "R2extent": 5004.5474, 
			 "electric_dipole_moment_norm": 4.07739046205, 
			 "electric_quadrupole_moment_norm": 18.4057094033, 
			 "total_energy": -1106.64159872, 
			 "HOMO_LUMO_gap": 0.16868, 
			 "cosmo_polarized_energy": -12.09, 
			 "cosmo_cavitation_energy": 30.42, 
			 "cosmo_dispersion_energy": -22.58, 
			 "cosmo_repulsion_energy": 1.75, 
			 "cosmo_total_nonelectrostatic_energy": 9.59, 
			 "SMD_solvation_energy": 4.7 
		},
		"coords": [
			{
				"x": -4.4119949039,
				"y": 1.2384011496,
				"z": 1.6909322957,
				"element": "C" 
			},
			{
				"x": -3.0457725595,
				"y": 0.798172909,
				"z": 1.6342416118,
				"element": "O" 
			},
			{
				"x": -2.719868537,
				"y": 0.0745683262,
				"z": 0.5424784099,
				"element": "C" 
			},
			{
				"x": -3.5103922108,
				"y": -0.1986766412,
				"z": -0.3446515881,
				"element": "O" 
			},
			{
				"x": -1.3060241657,
				"y": -0.3276289445,
				"z": 0.5765995635,
				"element": "C" 
			},
			{
				"x": -0.3633081389,
				"y": -0.0505578465,
				"z": 1.5491768651,
				"element": "C" 
			},
			{
				"x": 0.8482303477,
				"y": -0.6554339434,
				"z": 1.1243698614,
				"element": "C" 
			},
			{
				"x": 0.58385946,
				"y": -1.2929579965,
				"z": -0.1238989831,
				"element": "C" 
			},
			{
				"x": 1.616863968,
				"y": -1.9770162514,
				"z": -0.7792574317,
				"element": "C" 
			},
			{
				"x": 2.8531003173,
				"y": -1.9870584652,
				"z": -0.1546722783,
				"element": "C" 
			},
			{
				"x": 3.0007406198,
				"y": -1.319131978,
				"z": 1.085803415,
				"element": "C" 
			},
			{
				"x": 4.5993018326,
				"y": -1.361960692,
				"z": 1.841284488,
				"element": "Cl" 
			},
			{
				"x": 2.059792074,
				"y": -0.6722289975,
				"z": 1.7243471475,
				"element": "N" 
			},
			{
				"x": -0.7350098673,
				"y": -1.0848323621,
				"z": -0.4462774044,
				"element": "N" 
			},
			{
				"x": -1.3979572943,
				"y": -1.5776551143,
				"z": -1.6496011107,
				"element": "C" 
			},
			{
				"x": -5.0926858555,
				"y": 0.3834047782,
				"z": 1.691813231,
				"element": "H" 
			},
			{
				"x": -4.499126518,
				"y": 1.7983997125,
				"z": 2.6215476265,
				"element": "H" 
			},
			{
				"x": -4.6472008034,
				"y": 1.8762189808,
				"z": 0.8352295068,
				"element": "H" 
			},
			{
				"x": -0.5327235953,
				"y": 0.5172178413,
				"z": 2.4504909753,
				"element": "H" 
			},
			{
				"x": 1.4764739185,
				"y": -2.4808964962,
				"z": -1.7301060952,
				"element": "H" 
			},
			{
				"x": 3.7011345073,
				"y": -2.4941645141,
				"z": -0.5977754843,
				"element": "H" 
			},
			{
				"x": -1.7892180821,
				"y": -0.7503353734,
				"z": -2.2438501908,
				"element": "H" 
			},
			{
				"x": -0.6685403329,
				"y": -2.1331346512,
				"z": -2.2396004622,
				"element": "H" 
			},
			{
				"x": -2.2308741807,
				"y": -2.2342134302,
				"z": -1.3929239688,
				"element": "H" 
			}
		],
		 "valence_orbital": [ 
			{
				"type": "occ",
				"energy": -0.30701,
				"method": "rhf"
			},
			{
				"type": "occ",
				"energy": -0.28687,
				"method": "rhf"
			},
			{
				"type": "occ",
				"energy": -0.27137,
				"method": "rhf"
			},
			{
				"type": "occ",
				"energy": -0.23611,
				"method": "rhf"
			},
			{
				"type": "occ",
				"energy": -0.23489,
				"method": "rhf"
			},
			{
				"type": "unocc",
				"energy": -0.06621,
				"method": "rhf"
			},
			{
				"type": "unocc",
				"energy": -0.00734,
				"method": "rhf"
			},
			{
				"type": "unocc",
				"energy": 0.0109,
				"method": "rhf"
			},
			{
				"type": "unocc",
				"energy": 0.03878,
				"method": "rhf"
			},
			{
				"type": "unocc",
				"energy": 0.08684,
				"method": "rhf"
			}
		],
		"cosmo_sigma_profile": { 
			"-0.025": 0.0,
			"-0.024": 0.0,
			"-0.023": 0.0,
			"-0.022": 0.0,
			"-0.021": 0.0,
			"-0.02": 0.0,
			"-0.019": 0.0,
			"-0.018": 0.0,
			"-0.017": 0.0,
			"-0.016": 0.0,
			"-0.015": 0.0,
			"-0.014": 0.0,
			"-0.013": 0.0,
			"-0.012": 0.0,
			"-0.011": 0.0,
			"-0.01": 0.875674338845,
			"-0.009": 2.83798669727,
			"-0.008": 3.90426297482,
			"-0.007": 7.22626175014,
			"-0.006": 13.0768297815,
			"-0.005": 16.6042036818,
			"-0.004": 18.5944920694,
			"-0.003": 24.3286350002,
			"-0.002": 14.6037490319,
			"-0.001": 14.7156321478,
			"0.0": 22.4080701499,
			"0.001": 20.0957756635,
			"0.002": 18.0960823618,
			"0.003": 15.4922782456,
			"0.004": 12.7359155149,
			"0.005": 11.949700457,
			"0.006": 7.24646891361,
			"0.007": 3.91758463708,
			"0.008": 2.61544105629,
			"0.009": 3.32231250975,
			"0.01": 2.91011722178,
			"0.011": 3.63626696992,
			"0.012": 3.17920900073,
			"0.013": 0.845828837952,
			"0.014": 0.728473786184,
			"0.015": 0.253086441346,
			"0.016": 0.0,
			"0.017": 0.0,
			"0.018": 0.0,
			"0.019": 0.0,
			"0.02": 0.0,
			"0.021": 0.0,
			"0.022": 0.0,
			"0.023": 0.0,
			"0.024": 0.0,
			"0.025": 0.0
		}
	}
}
