{
	 "smiles": "[O-][N+](=O)C1=CC=C(NCN2C(=S)SC(=CC3=CC=C(C=C3)[N+]([O-])=O)C2=O)C=C1", 
	 "Tm": 462.15, 
	 "num_atms": 40, 
	 "gaussian": { 
		 "optdone": 1, 
		 "sigma_profile": "yes", 
		 "theory": "DFT", 
		 "functional": "B3LYP", 
		 "basiset": "6-31G**", 
		 "properties": { 
			 "R2extent": 17253.8345, 
			 "electric_dipole_moment_norm": 7.67384552946, 
			 "electric_quadrupole_moment_norm": 30.6645183977, 
			 "total_energy": -2046.34941905, 
			 "HOMO_LUMO_gap": 0.10044, 
			 "cosmo_polarized_energy": -23.83, 
			 "cosmo_cavitation_energy": 50.25, 
			 "cosmo_dispersion_energy": -36.03, 
			 "cosmo_repulsion_energy": 2.58, 
			 "cosmo_total_nonelectrostatic_energy": 16.8, 
			 "SMD_solvation_energy": 11.16 
		},
		"coords": [
			{
				"x": 1.3437854266,
				"y": 2.3474044989,
				"z": -5.284422549,
				"element": "O" 
			},
			{
				"x": 0.3293649608,
				"y": 1.6926799856,
				"z": -5.5368131585,
				"element": "N" 
			},
			{
				"x": -0.4084487461,
				"y": 1.8960742417,
				"z": -6.504251402,
				"element": "O" 
			},
			{
				"x": -0.022119678,
				"y": 0.6051541391,
				"z": -4.6310071922,
				"element": "C" 
			},
			{
				"x": 0.7847003828,
				"y": 0.3439943649,
				"z": -3.5242994458,
				"element": "C" 
			},
			{
				"x": 0.4528877836,
				"y": -0.6864275283,
				"z": -2.6542287756,
				"element": "C" 
			},
			{
				"x": -0.6933134895,
				"y": -1.4729723542,
				"z": -2.8917968004,
				"element": "C" 
			},
			{
				"x": -1.0530635767,
				"y": -2.5443352182,
				"z": -2.0866162683,
				"element": "N" 
			},
			{
				"x": -0.4748593704,
				"y": -2.8653414381,
				"z": -0.8230939161,
				"element": "C" 
			},
			{
				"x": -0.9191939072,
				"y": -2.0046211129,
				"z": 0.3127446306,
				"element": "N" 
			},
			{
				"x": -2.2041250042,
				"y": -2.0645936612,
				"z": 0.8001918157,
				"element": "C" 
			},
			{
				"x": -3.4277894106,
				"y": -3.0265171023,
				"z": 0.2504875827,
				"element": "S" 
			},
			{
				"x": -2.3833831775,
				"y": -0.944371528,
				"z": 2.1496967705,
				"element": "S" 
			},
			{
				"x": -0.6816769921,
				"y": -0.4235095056,
				"z": 2.0650966891,
				"element": "C" 
			},
			{
				"x": -0.2213037081,
				"y": 0.5093539938,
				"z": 2.9431921591,
				"element": "C" 
			},
			{
				"x": 1.0573567315,
				"y": 1.1686791172,
				"z": 3.1895956442,
				"element": "C" 
			},
			{
				"x": 1.0596268465,
				"y": 2.1174027503,
				"z": 4.2408335366,
				"element": "C" 
			},
			{
				"x": 2.2060388421,
				"y": 2.8174520718,
				"z": 4.5862401422,
				"element": "C" 
			},
			{
				"x": 3.3746166037,
				"y": 2.5663112818,
				"z": 3.8701722596,
				"element": "C" 
			},
			{
				"x": 3.4165520697,
				"y": 1.6415991153,
				"z": 2.8285871183,
				"element": "C" 
			},
			{
				"x": 2.263221352,
				"y": 0.9447697941,
				"z": 2.4886070951,
				"element": "C" 
			},
			{
				"x": 4.6010170545,
				"y": 3.300100814,
				"z": 4.2282180021,
				"element": "N" 
			},
			{
				"x": 5.6182915683,
				"y": 3.0552315919,
				"z": 3.5824980846,
				"element": "O" 
			},
			{
				"x": 4.5278254091,
				"y": 4.1100560636,
				"z": 5.1512461973,
				"element": "O" 
			},
			{
				"x": -0.0075025091,
				"y": -1.1526541509,
				"z": 0.9627289132,
				"element": "C" 
			},
			{
				"x": 1.1629439589,
				"y": -1.0796323588,
				"z": 0.617974885,
				"element": "O" 
			},
			{
				"x": -1.496915575,
				"y": -1.1847636079,
				"z": -4.0174427665,
				"element": "C" 
			},
			{
				"x": -1.1668421007,
				"y": -0.1555648776,
				"z": -4.8818838991,
				"element": "C" 
			},
			{
				"x": 1.6611769632,
				"y": 0.956992314,
				"z": -3.3543402261,
				"element": "H" 
			},
			{
				"x": 1.0773971027,
				"y": -0.8631172783,
				"z": -1.7865363007,
				"element": "H" 
			},
			{
				"x": -1.9932207833,
				"y": -2.8946831997,
				"z": -2.2117525146,
				"element": "H" 
			},
			{
				"x": 0.6103902763,
				"y": -2.7753503828,
				"z": -0.8430020405,
				"element": "H" 
			},
			{
				"x": -0.7542688175,
				"y": -3.8877912334,
				"z": -0.5653664547,
				"element": "H" 
			},
			{
				"x": -0.9870115987,
				"y": 0.8570968239,
				"z": 3.6363589438,
				"element": "H" 
			},
			{
				"x": 0.1425861884,
				"y": 2.3041987648,
				"z": 4.791941982,
				"element": "H" 
			},
			{
				"x": 2.2141089345,
				"y": 3.5441550407,
				"z": 5.3885781208,
				"element": "H" 
			},
			{
				"x": 4.3476202398,
				"y": 1.4796594784,
				"z": 2.3000393613,
				"element": "H" 
			},
			{
				"x": 2.2857839551,
				"y": 0.2250390415,
				"z": 1.6830401656,
				"element": "H" 
			},
			{
				"x": -2.3822502477,
				"y": -1.7852154952,
				"z": -4.2079351721,
				"element": "H" 
			},
			{
				"x": -1.7763039575,
				"y": 0.0724567458,
				"z": -5.7473812171,
				"element": "H" 
			}
		],
		 "valence_orbital": [ 
			{
				"type": "occ",
				"energy": -0.27917,
				"method": "rhf"
			},
			{
				"type": "occ",
				"energy": -0.27704,
				"method": "rhf"
			},
			{
				"type": "occ",
				"energy": -0.26231,
				"method": "rhf"
			},
			{
				"type": "occ",
				"energy": -0.25458,
				"method": "rhf"
			},
			{
				"type": "occ",
				"energy": -0.23469,
				"method": "rhf"
			},
			{
				"type": "unocc",
				"energy": -0.13425,
				"method": "rhf"
			},
			{
				"type": "unocc",
				"energy": -0.09121,
				"method": "rhf"
			},
			{
				"type": "unocc",
				"energy": -0.07711,
				"method": "rhf"
			},
			{
				"type": "unocc",
				"energy": -0.06184,
				"method": "rhf"
			},
			{
				"type": "unocc",
				"energy": -0.04316,
				"method": "rhf"
			}
		],
		"cosmo_sigma_profile": { 
			"-0.025": 0.0,
			"-0.024": 0.0,
			"-0.023": 0.0,
			"-0.022": 0.0,
			"-0.021": 0.0,
			"-0.02": 0.0,
			"-0.019": 0.0,
			"-0.018": 0.0,
			"-0.017": 0.0,
			"-0.016": 0.0,
			"-0.015": 0.0,
			"-0.014": 0.0,
			"-0.013": 0.385229545752,
			"-0.012": 1.11215586325,
			"-0.011": 2.24682966925,
			"-0.01": 4.88173313929,
			"-0.009": 4.35979490132,
			"-0.008": 12.121576555,
			"-0.007": 18.880658418,
			"-0.006": 19.9107273292,
			"-0.005": 18.6357149459,
			"-0.004": 20.149690021,
			"-0.003": 25.3405920262,
			"-0.002": 26.1017551099,
			"-0.001": 34.8342991554,
			"0.0": 40.8547297626,
			"0.001": 36.6709409902,
			"0.002": 30.2574359314,
			"0.003": 18.8125447448,
			"0.004": 12.6867655711,
			"0.005": 14.5271302887,
			"0.006": 12.1307422473,
			"0.007": 15.8240387722,
			"0.008": 18.9359458811,
			"0.009": 12.0790678094,
			"0.01": 6.39831303164,
			"0.011": 2.50189101854,
			"0.012": 0.094144588621,
			"0.013": 0.0,
			"0.014": 0.0,
			"0.015": 0.0,
			"0.016": 0.0,
			"0.017": 0.0,
			"0.018": 0.0,
			"0.019": 0.0,
			"0.02": 0.0,
			"0.021": 0.0,
			"0.022": 0.0,
			"0.023": 0.0,
			"0.024": 0.0,
			"0.025": 0.0
		}
	}
}
