{
	 "smiles": "CC(C)N1CCC(CC1)C(O)=O", 
	 "Tm": 442.15, 
	 "num_atms": 29, 
	 "gaussian": { 
		 "optdone": 1, 
		 "sigma_profile": "yes", 
		 "theory": "DFT", 
		 "functional": "B3LYP", 
		 "basiset": "6-31G**", 
		 "properties": { 
			 "R2extent": 3066.3518, 
			 "electric_dipole_moment_norm": 4.39454240394, 
			 "electric_quadrupole_moment_norm": 15.4507677337, 
			 "total_energy": -558.409780421, 
			 "HOMO_LUMO_gap": 0.21063, 
			 "cosmo_polarized_energy": -14.62, 
			 "cosmo_cavitation_energy": 28.41, 
			 "cosmo_dispersion_energy": -20.72, 
			 "cosmo_repulsion_energy": 1.62, 
			 "cosmo_total_nonelectrostatic_energy": 9.31, 
			 "SMD_solvation_energy": 3.25 
		},
		"coords": [
			{
				"x": -1.2740411336,
				"y": -1.711066268,
				"z": -1.827129287,
				"element": "C" 
			},
			{
				"x": -1.4720940608,
				"y": -0.1919385351,
				"z": -1.6988752099,
				"element": "C" 
			},
			{
				"x": -1.6140642003,
				"y": 0.4102581791,
				"z": -3.1055588882,
				"element": "C" 
			},
			{
				"x": -0.3340305042,
				"y": 0.4163444462,
				"z": -0.97391898,
				"element": "N" 
			},
			{
				"x": -0.114075192,
				"y": -0.0850357756,
				"z": 0.3925514206,
				"element": "C" 
			},
			{
				"x": -1.1483475945,
				"y": 0.409896897,
				"z": 1.4243018466,
				"element": "C" 
			},
			{
				"x": -1.251740198,
				"y": 1.9474598326,
				"z": 1.4442165609,
				"element": "C" 
			},
			{
				"x": -1.380344704,
				"y": 2.4975298711,
				"z": -0.002434344,
				"element": "C" 
			},
			{
				"x": -0.3130280803,
				"y": 1.8822505524,
				"z": -0.9305617579,
				"element": "C" 
			},
			{
				"x": -0.0671758708,
				"y": 2.5792048377,
				"z": 2.1845227369,
				"element": "C" 
			},
			{
				"x": -0.14492438,
				"y": 3.9281860341,
				"z": 2.3650575937,
				"element": "O" 
			},
			{
				"x": 0.8897204709,
				"y": 1.9800758074,
				"z": 2.6104653639,
				"element": "O" 
			},
			{
				"x": -0.3039492013,
				"y": -1.9265043599,
				"z": -2.2871361091,
				"element": "H" 
			},
			{
				"x": -2.0603977516,
				"y": -2.1367066277,
				"z": -2.4580159681,
				"element": "H" 
			},
			{
				"x": -1.3192875201,
				"y": -2.2292068901,
				"z": -0.8660603149,
				"element": "H" 
			},
			{
				"x": -2.433136212,
				"y": -0.0281363515,
				"z": -1.1735197848,
				"element": "H" 
			},
			{
				"x": -1.9433218277,
				"y": 1.4528245693,
				"z": -3.0931070532,
				"element": "H" 
			},
			{
				"x": -0.6594312839,
				"y": 0.3564524259,
				"z": -3.64006744,
				"element": "H" 
			},
			{
				"x": -2.3588217764,
				"y": -0.1536539965,
				"z": -3.6749365772,
				"element": "H" 
			},
			{
				"x": -0.0871624798,
				"y": -1.1761767336,
				"z": 0.3879196791,
				"element": "H" 
			},
			{
				"x": 0.8787479383,
				"y": 0.2499775449,
				"z": 0.7097984946,
				"element": "H" 
			},
			{
				"x": -2.1383542744,
				"y": 0.000209149,
				"z": 1.1898501665,
				"element": "H" 
			},
			{
				"x": -0.8740971917,
				"y": 0.0456666453,
				"z": 2.4189432767,
				"element": "H" 
			},
			{
				"x": -2.1487606228,
				"y": 2.2420380245,
				"z": 2.0099458175,
				"element": "H" 
			},
			{
				"x": -1.2999120126,
				"y": 3.5923591872,
				"z": -0.0241253635,
				"element": "H" 
			},
			{
				"x": -2.3817870428,
				"y": 2.2558277448,
				"z": -0.3772724293,
				"element": "H" 
			},
			{
				"x": 0.6831451497,
				"y": 2.1807502555,
				"z": -0.5772527493,
				"element": "H" 
			},
			{
				"x": -0.4139584366,
				"y": 2.2908407564,
				"z": -1.9377711333,
				"element": "H" 
			},
			{
				"x": -0.9733700067,
				"y": 4.2667727777,
				"z": 1.9971704327,
				"element": "H" 
			}
		],
		 "valence_orbital": [ 
			{
				"type": "occ",
				"energy": -0.32961,
				"method": "rhf"
			},
			{
				"type": "occ",
				"energy": -0.3165,
				"method": "rhf"
			},
			{
				"type": "occ",
				"energy": -0.31071,
				"method": "rhf"
			},
			{
				"type": "occ",
				"energy": -0.26735,
				"method": "rhf"
			},
			{
				"type": "occ",
				"energy": -0.20356,
				"method": "rhf"
			},
			{
				"type": "unocc",
				"energy": 0.00707,
				"method": "rhf"
			},
			{
				"type": "unocc",
				"energy": 0.04701,
				"method": "rhf"
			},
			{
				"type": "unocc",
				"energy": 0.07664,
				"method": "rhf"
			},
			{
				"type": "unocc",
				"energy": 0.10523,
				"method": "rhf"
			},
			{
				"type": "unocc",
				"energy": 0.11615,
				"method": "rhf"
			}
		],
		"cosmo_sigma_profile": { 
			"-0.025": 0.0,
			"-0.024": 0.0,
			"-0.023": 0.0,
			"-0.022": 0.0,
			"-0.021": 0.0,
			"-0.02": 0.0,
			"-0.019": 0.0431541652495,
			"-0.018": 0.635750352187,
			"-0.017": 0.888083862267,
			"-0.016": 1.26878264456,
			"-0.015": 1.23477352764,
			"-0.014": 0.703198800592,
			"-0.013": 1.29392837092,
			"-0.012": 0.947079922516,
			"-0.011": 1.03422385714,
			"-0.01": 1.03207677875,
			"-0.009": 0.916965975066,
			"-0.008": 1.72479016188,
			"-0.007": 1.98705231388,
			"-0.006": 3.03955073536,
			"-0.005": 3.63468844274,
			"-0.004": 11.2204707442,
			"-0.003": 30.9397378379,
			"-0.002": 30.7269280456,
			"-0.001": 26.7133314348,
			"0.0": 25.4113723193,
			"0.001": 20.0662478223,
			"0.002": 8.85564939243,
			"0.003": 3.51855077086,
			"0.004": 3.76674027371,
			"0.005": 3.29131833709,
			"0.006": 3.0268070578,
			"0.007": 3.8191989594,
			"0.008": 3.69757457857,
			"0.009": 3.73918048447,
			"0.01": 4.37254042711,
			"0.011": 6.31755172231,
			"0.012": 5.15078220705,
			"0.013": 2.95507579836,
			"0.014": 0.360125432522,
			"0.015": 0.506526636519,
			"0.016": 0.196990786156,
			"0.017": 0.233258587844,
			"0.018": 0.0,
			"0.019": 0.0,
			"0.02": 0.0,
			"0.021": 0.0,
			"0.022": 0.0,
			"0.023": 0.0,
			"0.024": 0.0,
			"0.025": 0.0
		}
	}
}
