{
	 "smiles": "COC1=C(C=CC=C1)C1=NN(C(N)=C1)C1=CC=C(C)C=C1", 
	 "Tm": 378.15, 
	 "num_atms": 38, 
	 "gaussian": { 
		 "optdone": 1, 
		 "sigma_profile": "yes", 
		 "theory": "DFT", 
		 "functional": "B3LYP", 
		 "basiset": "6-31G**", 
		 "properties": { 
			 "R2extent": 8558.0573, 
			 "electric_dipole_moment_norm": 2.8566037002, 
			 "electric_quadrupole_moment_norm": 13.7568575936, 
			 "total_energy": -897.511633375, 
			 "HOMO_LUMO_gap": 0.17358, 
			 "cosmo_polarized_energy": -14.46, 
			 "cosmo_cavitation_energy": 41.4, 
			 "cosmo_dispersion_energy": -29.58, 
			 "cosmo_repulsion_energy": 2.26, 
			 "cosmo_total_nonelectrostatic_energy": 14.08, 
			 "SMD_solvation_energy": 6.91 
		},
		"coords": [
			{
				"x": -4.5569884839,
				"y": -1.3141297486,
				"z": -1.9848944782,
				"element": "C" 
			},
			{
				"x": -3.9752729317,
				"y": -2.3226703253,
				"z": -1.1578577044,
				"element": "O" 
			},
			{
				"x": -3.9291074201,
				"y": -1.9908757296,
				"z": 0.1860252293,
				"element": "C" 
			},
			{
				"x": -2.7923127054,
				"y": -1.3722538443,
				"z": 0.7435543461,
				"element": "C" 
			},
			{
				"x": -2.8201330499,
				"y": -1.0810613023,
				"z": 2.1203964864,
				"element": "C" 
			},
			{
				"x": -3.9232874209,
				"y": -1.3897760303,
				"z": 2.9092727041,
				"element": "C" 
			},
			{
				"x": -5.0364803813,
				"y": -2.0143886801,
				"z": 2.3404207961,
				"element": "C" 
			},
			{
				"x": -5.0342008962,
				"y": -2.309937461,
				"z": 0.9792668767,
				"element": "C" 
			},
			{
				"x": -1.5916679555,
				"y": -1.0342756221,
				"z": -0.0430147588,
				"element": "C" 
			},
			{
				"x": -0.7006923933,
				"y": -0.178204886,
				"z": 0.4608286893,
				"element": "N" 
			},
			{
				"x": 0.2883812385,
				"y": -0.0902658813,
				"z": -0.4816808945,
				"element": "N" 
			},
			{
				"x": 0.0338772264,
				"y": -0.909052894,
				"z": -1.5560493188,
				"element": "C" 
			},
			{
				"x": 0.8843409739,
				"y": -1.0004652348,
				"z": -2.6584044029,
				"element": "N" 
			},
			{
				"x": -1.1789628536,
				"y": -1.5227824361,
				"z": -1.3130564079,
				"element": "C" 
			},
			{
				"x": 1.4166067468,
				"y": 0.7325981113,
				"z": -0.2313384941,
				"element": "C" 
			},
			{
				"x": 2.0600532916,
				"y": 1.4188177214,
				"z": -1.2677979021,
				"element": "C" 
			},
			{
				"x": 3.168625254,
				"y": 2.2182825892,
				"z": -0.9834577363,
				"element": "C" 
			},
			{
				"x": 3.6471658269,
				"y": 2.3707279416,
				"z": 0.3219103168,
				"element": "C" 
			},
			{
				"x": 4.8565376021,
				"y": 3.2243421778,
				"z": 0.6215649644,
				"element": "C" 
			},
			{
				"x": 2.9703916672,
				"y": 1.6935566376,
				"z": 1.3484827548,
				"element": "C" 
			},
			{
				"x": 1.8745552759,
				"y": 0.8796094103,
				"z": 1.0848808648,
				"element": "C" 
			},
			{
				"x": -5.5821690724,
				"y": -1.0838580606,
				"z": -1.6673762431,
				"element": "H" 
			},
			{
				"x": -4.5765784029,
				"y": -1.7150332875,
				"z": -3.0009647701,
				"element": "H" 
			},
			{
				"x": -3.9612412129,
				"y": -0.3931718093,
				"z": -1.9697858695,
				"element": "H" 
			},
			{
				"x": -1.9478301954,
				"y": -0.6055392558,
				"z": 2.5551230519,
				"element": "H" 
			},
			{
				"x": -3.9107257996,
				"y": -1.154129133,
				"z": 3.9694706519,
				"element": "H" 
			},
			{
				"x": -5.8970643775,
				"y": -2.2717633639,
				"z": 2.9511560481,
				"element": "H" 
			},
			{
				"x": -5.8801860716,
				"y": -2.8003576398,
				"z": 0.5071086939,
				"element": "H" 
			},
			{
				"x": 0.6838212469,
				"y": -1.8232398752,
				"z": -3.2132072593,
				"element": "H" 
			},
			{
				"x": 1.8690344298,
				"y": -0.968037252,
				"z": -2.4168278829,
				"element": "H" 
			},
			{
				"x": -1.6829141841,
				"y": -2.2456955215,
				"z": -1.93239437,
				"element": "H" 
			},
			{
				"x": 1.6829390861,
				"y": 1.349659466,
				"z": -2.281861425,
				"element": "H" 
			},
			{
				"x": 3.6571416524,
				"y": 2.7482092613,
				"z": -1.7973574978,
				"element": "H" 
			},
			{
				"x": 4.6958952534,
				"y": 3.8498171046,
				"z": 1.5059340553,
				"element": "H" 
			},
			{
				"x": 5.7414879173,
				"y": 2.6070098239,
				"z": 0.8208352305,
				"element": "H" 
			},
			{
				"x": 5.0985855663,
				"y": 3.8831177284,
				"z": -0.2172700178,
				"element": "H" 
			},
			{
				"x": 3.3120406985,
				"y": 1.8018082024,
				"z": 2.3751051495,
				"element": "H" 
			},
			{
				"x": 1.3522348543,
				"y": 0.3631090987,
				"z": 1.8810605239,
				"element": "H" 
			}
		],
		 "valence_orbital": [ 
			{
				"type": "occ",
				"energy": -0.25319,
				"method": "rhf"
			},
			{
				"type": "occ",
				"energy": -0.24265,
				"method": "rhf"
			},
			{
				"type": "occ",
				"energy": -0.23277,
				"method": "rhf"
			},
			{
				"type": "occ",
				"energy": -0.20994,
				"method": "rhf"
			},
			{
				"type": "occ",
				"energy": -0.19625,
				"method": "rhf"
			},
			{
				"type": "unocc",
				"energy": -0.02267,
				"method": "rhf"
			},
			{
				"type": "unocc",
				"energy": -0.00607,
				"method": "rhf"
			},
			{
				"type": "unocc",
				"energy": 0.00342,
				"method": "rhf"
			},
			{
				"type": "unocc",
				"energy": 0.01148,
				"method": "rhf"
			},
			{
				"type": "unocc",
				"energy": 0.05677,
				"method": "rhf"
			}
		],
		"cosmo_sigma_profile": { 
			"-0.025": 0.0,
			"-0.024": 0.0,
			"-0.023": 0.0,
			"-0.022": 0.0,
			"-0.021": 0.0,
			"-0.02": 0.0,
			"-0.019": 0.0,
			"-0.018": 0.0,
			"-0.017": 0.0,
			"-0.016": 0.0,
			"-0.015": 0.0,
			"-0.014": 0.254069353739,
			"-0.013": 1.56934044301,
			"-0.012": 2.44524526739,
			"-0.011": 2.50056548706,
			"-0.01": 3.04697285561,
			"-0.009": 1.89477066511,
			"-0.008": 2.63515201866,
			"-0.007": 2.10554035153,
			"-0.006": 8.73300080672,
			"-0.005": 19.5781209656,
			"-0.004": 32.089643906,
			"-0.003": 30.1201811409,
			"-0.002": 28.9354404101,
			"-0.001": 25.1496244814,
			"0.0": 22.2199204536,
			"0.001": 20.1569152491,
			"0.002": 17.6692447468,
			"0.003": 24.4495705767,
			"0.004": 26.8634608132,
			"0.005": 28.6867004343,
			"0.006": 9.63064387706,
			"0.007": 4.71042725267,
			"0.008": 3.26980022577,
			"0.009": 2.3082970185,
			"0.01": 2.65399933527,
			"0.011": 3.04148004824,
			"0.012": 1.53552815885,
			"0.013": 0.951405398953,
			"0.014": 0.499980308619,
			"0.015": 0.0861963767239,
			"0.016": 0.0,
			"0.017": 0.0,
			"0.018": 0.0,
			"0.019": 0.0,
			"0.02": 0.0,
			"0.021": 0.0,
			"0.022": 0.0,
			"0.023": 0.0,
			"0.024": 0.0,
			"0.025": 0.0
		}
	}
}
