{
	 "smiles": "CC(=O)C1=CC=C(F)C=C1O", 
	 "Tm": 304.65, 
	 "num_atms": 18, 
	 "gaussian": { 
		 "optdone": 1, 
		 "sigma_profile": "yes", 
		 "theory": "DFT", 
		 "functional": "B3LYP", 
		 "basiset": "6-31G**", 
		 "properties": { 
			 "R2extent": 2144.2884, 
			 "electric_dipole_moment_norm": 3.11415875318, 
			 "electric_quadrupole_moment_norm": 3.5814828591, 
			 "total_energy": -559.366771638, 
			 "HOMO_LUMO_gap": 0.1714, 
			 "cosmo_polarized_energy": -7.48, 
			 "cosmo_cavitation_energy": 22.42, 
			 "cosmo_dispersion_energy": -16.74, 
			 "cosmo_repulsion_energy": 1.3, 
			 "cosmo_total_nonelectrostatic_energy": 6.98, 
			 "SMD_solvation_energy": 5.32 
		},
		"coords": [
			{
				"x": -0.2735887369,
				"y": 0.364478333,
				"z": 2.2155439212,
				"element": "C" 
			},
			{
				"x": 0.6043746421,
				"y": 0.5606636042,
				"z": 0.9962248831,
				"element": "C" 
			},
			{
				"x": 1.4752004489,
				"y": 1.4469916992,
				"z": 1.0241977101,
				"element": "O" 
			},
			{
				"x": 0.4243403991,
				"y": -0.2831030115,
				"z": -0.1908465699,
				"element": "C" 
			},
			{
				"x": -0.5542462427,
				"y": -1.2975632848,
				"z": -0.2558986193,
				"element": "C" 
			},
			{
				"x": -0.7153610872,
				"y": -2.0875434606,
				"z": -1.3806408393,
				"element": "C" 
			},
			{
				"x": 0.1310762155,
				"y": -1.8509913719,
				"z": -2.4705019461,
				"element": "C" 
			},
			{
				"x": -0.0169549761,
				"y": -2.612767273,
				"z": -3.5681997712,
				"element": "F" 
			},
			{
				"x": 1.1081151953,
				"y": -0.8739906965,
				"z": -2.4697219694,
				"element": "C" 
			},
			{
				"x": 1.2666995355,
				"y": -0.0756759066,
				"z": -1.3255666144,
				"element": "C" 
			},
			{
				"x": 2.2147482708,
				"y": 0.8628662341,
				"z": -1.3416575871,
				"element": "O" 
			},
			{
				"x": 0.0238992197,
				"y": 1.0869602049,
				"z": 2.9757956388,
				"element": "H" 
			},
			{
				"x": -1.3298886341,
				"y": 0.5129570195,
				"z": 1.9678206077,
				"element": "H" 
			},
			{
				"x": -0.1682690666,
				"y": -0.6487761729,
				"z": 2.6172980436,
				"element": "H" 
			},
			{
				"x": -1.2009871037,
				"y": -1.4661485808,
				"z": 0.598481519,
				"element": "H" 
			},
			{
				"x": -1.4642012617,
				"y": -2.8683291041,
				"z": -1.4384613977,
				"element": "H" 
			},
			{
				"x": 1.745807223,
				"y": -0.7184287036,
				"z": -3.3313603173,
				"element": "H" 
			},
			{
				"x": 2.170135959,
				"y": 1.3145004714,
				"z": -0.4542066917,
				"element": "H" 
			}
		],
		 "valence_orbital": [ 
			{
				"type": "occ",
				"energy": -0.35898,
				"method": "rhf"
			},
			{
				"type": "occ",
				"energy": -0.3407,
				"method": "rhf"
			},
			{
				"type": "occ",
				"energy": -0.26941,
				"method": "rhf"
			},
			{
				"type": "occ",
				"energy": -0.26397,
				"method": "rhf"
			},
			{
				"type": "occ",
				"energy": -0.23653,
				"method": "rhf"
			},
			{
				"type": "unocc",
				"energy": -0.06513,
				"method": "rhf"
			},
			{
				"type": "unocc",
				"energy": -0.00785,
				"method": "rhf"
			},
			{
				"type": "unocc",
				"energy": 0.03334,
				"method": "rhf"
			},
			{
				"type": "unocc",
				"energy": 0.07885,
				"method": "rhf"
			},
			{
				"type": "unocc",
				"energy": 0.10604,
				"method": "rhf"
			}
		],
		"cosmo_sigma_profile": { 
			"-0.025": 0.0,
			"-0.024": 0.0,
			"-0.023": 0.0,
			"-0.022": 0.0,
			"-0.021": 0.0,
			"-0.02": 0.0,
			"-0.019": 0.0,
			"-0.018": 0.0,
			"-0.017": 0.0,
			"-0.016": 0.0,
			"-0.015": 0.0,
			"-0.014": 0.0,
			"-0.013": 0.0,
			"-0.012": 0.0,
			"-0.011": 0.0,
			"-0.01": 0.0,
			"-0.009": 0.0,
			"-0.008": 1.79006005195,
			"-0.007": 8.99877386337,
			"-0.006": 11.7892319569,
			"-0.005": 11.3899887005,
			"-0.004": 9.35904354565,
			"-0.003": 12.9913070524,
			"-0.002": 14.3802187626,
			"-0.001": 13.8103741542,
			"0.0": 15.3910603597,
			"0.001": 16.1826101058,
			"0.002": 17.1750544453,
			"0.003": 12.7654971892,
			"0.004": 11.2946185042,
			"0.005": 2.86710785214,
			"0.006": 3.16017036714,
			"0.007": 2.42650957034,
			"0.008": 2.67450696688,
			"0.009": 3.16086603929,
			"0.01": 3.04846562385,
			"0.011": 3.32209666068,
			"0.012": 1.36168299281,
			"0.013": 0.276877639031,
			"0.014": 0.0,
			"0.015": 0.0,
			"0.016": 0.0,
			"0.017": 0.0,
			"0.018": 0.0,
			"0.019": 0.0,
			"0.02": 0.0,
			"0.021": 0.0,
			"0.022": 0.0,
			"0.023": 0.0,
			"0.024": 0.0,
			"0.025": 0.0
		}
	}
}
