{
	 "smiles": "[O-][N+](=O)C1=CC(=CC(I)=C1)[N+]([O-])=O", 
	 "Tm": 374.15, 
	 "num_atms": 16, 
	 "gaussian": { 
		 "optdone": 1, 
		 "sigma_profile": "no", 
		 "theory": "DFT", 
		 "functional": "B3LYP", 
		 "basiset": "6-31G**", 
		 "properties": { 
			 "R2extent": 4352.0628, 
			 "electric_dipole_moment_norm": 3.09508170813, 
			 "electric_quadrupole_moment_norm": 15.5450175889, 
			 "total_energy": -652.017752734, 
			 "HOMO_LUMO_gap": 0.15759, 
			 "cosmo_polarized_energy": -95202.54, 
			 "cosmo_cavitation_energy": 26.04, 
			 "cosmo_dispersion_energy": -20.31, 
			 "cosmo_repulsion_energy": 1.58, 
			 "cosmo_total_nonelectrostatic_energy": 7.31, 
			 "SMD_solvation_energy": 8.2 
		},
		"coords": [
			{
				"x": -4.5642295295,
				"y": -2.6928537071,
				"z": -0.6475592131,
				"element": "O" 
			},
			{
				"x": -4.2358543864,
				"y": -1.672145048,
				"z": -0.0487608434,
				"element": "N" 
			},
			{
				"x": -4.8056404321,
				"y": -1.2088348422,
				"z": 0.9345578746,
				"element": "O" 
			},
			{
				"x": -3.0537817191,
				"y": -0.9397484486,
				"z": -0.5536669432,
				"element": "C" 
			},
			{
				"x": -2.6578265452,
				"y": 0.2183430862,
				"z": 0.1035547872,
				"element": "C" 
			},
			{
				"x": -1.5433455707,
				"y": 0.874925681,
				"z": -0.403152096,
				"element": "C" 
			},
			{
				"x": -0.8367837652,
				"y": 0.4186615832,
				"z": -1.5143402718,
				"element": "C" 
			},
			{
				"x": -1.2705524157,
				"y": -0.7499358712,
				"z": -2.1438300574,
				"element": "C" 
			},
			{
				"x": -0.2298990171,
				"y": -1.4761976533,
				"z": -3.8297952739,
				"element": "I" 
			},
			{
				"x": -2.3860975947,
				"y": -1.4426683806,
				"z": -1.6687517927,
				"element": "C" 
			},
			{
				"x": -1.085534706,
				"y": 2.1127670976,
				"z": 0.2652711985,
				"element": "N" 
			},
			{
				"x": -1.7246204553,
				"y": 2.4930178478,
				"z": 1.2415946309,
				"element": "O" 
			},
			{
				"x": -0.0975280437,
				"y": 2.672928003,
				"z": -0.201962107,
				"element": "O" 
			},
			{
				"x": -3.1909981283,
				"y": 0.5905677793,
				"z": 0.9673378473,
				"element": "H" 
			},
			{
				"x": 0.0239313445,
				"y": 0.9758885045,
				"z": -1.8601897451,
				"element": "H" 
			},
			{
				"x": -2.7448390353,
				"y": -2.3503156315,
				"z": -2.136107995,
				"element": "H" 
			}
		],
		 "valence_orbital": [ 
			{
				"type": "occ",
				"energy": -0.32264,
				"method": "rhf"
			},
			{
				"type": "occ",
				"energy": -0.31795,
				"method": "rhf"
			},
			{
				"type": "occ",
				"energy": -0.31705,
				"method": "rhf"
			},
			{
				"type": "occ",
				"energy": -0.29898,
				"method": "rhf"
			},
			{
				"type": "occ",
				"energy": -0.28039,
				"method": "rhf"
			},
			{
				"type": "unocc",
				"energy": -0.1228,
				"method": "rhf"
			},
			{
				"type": "unocc",
				"energy": -0.11149,
				"method": "rhf"
			},
			{
				"type": "unocc",
				"energy": -0.07222,
				"method": "rhf"
			},
			{
				"type": "unocc",
				"energy": -0.05188,
				"method": "rhf"
			},
			{
				"type": "unocc",
				"energy": -0.01972,
				"method": "rhf"
			}
		],
		"cosmo_sigma_profile": { 
			"0.0": 0.0,
			"0.0": 0.0,
			"0.0": 0.0,
			"0.0": 0.0,
			"0.0": 0.0,
			"0.0": 0.0,
			"0.0": 0.0,
			"0.0": 0.0,
			"0.0": 0.0,
			"0.0": 0.0,
			"0.0": 0.0,
			"0.0": 0.0,
			"0.0": 0.0,
			"0.0": 0.0,
			"0.0": 0.0,
			"0.0": 0.0,
			"0.0": 0.0,
			"0.0": 0.0,
			"0.0": 0.0,
			"0.0": 0.0,
			"0.0": 0.0,
			"0.0": 0.0,
			"0.0": 0.0,
			"0.0": 0.0,
			"0.0": 0.0,
			"0.0": 0.0,
			"0.0": 0.0,
			"0.0": 0.0,
			"0.0": 0.0,
			"0.0": 0.0,
			"0.0": 0.0,
			"0.0": 0.0,
			"0.0": 0.0,
			"0.0": 0.0,
			"0.0": 0.0,
			"0.0": 0.0,
			"0.0": 0.0,
			"0.0": 0.0,
			"0.0": 0.0,
			"0.0": 0.0,
			"0.0": 0.0,
			"0.0": 0.0,
			"0.0": 0.0,
			"0.0": 0.0,
			"0.0": 0.0,
			"0.0": 0.0,
			"0.0": 0.0,
			"0.0": 0.0,
			"0.0": 0.0,
			"0.0": 0.0,
			"0.0": 0.0
		}
	}
}
