{
	 "smiles": "NC1=C(C#N)C(NC2=NC(=NN12)C(F)(F)F)C1=C(Cl)C=C(Cl)C=C1", 
	 "Tm": 579.15, 
	 "num_atms": 31, 
	 "gaussian": { 
		 "optdone": 1, 
		 "sigma_profile": "yes", 
		 "theory": "DFT", 
		 "functional": "B3LYP", 
		 "basiset": "6-31G**", 
		 "properties": { 
			 "R2extent": 10590.9593, 
			 "electric_dipole_moment_norm": 0.782698632936, 
			 "electric_quadrupole_moment_norm": 24.5970794667, 
			 "total_energy": -2047.98170454, 
			 "HOMO_LUMO_gap": 0.17086, 
			 "cosmo_polarized_energy": -19.28, 
			 "cosmo_cavitation_energy": 42.43, 
			 "cosmo_dispersion_energy": -29.16, 
			 "cosmo_repulsion_energy": 2.18, 
			 "cosmo_total_nonelectrostatic_energy": 15.44, 
			 "SMD_solvation_energy": 5.28 
		},
		"coords": [
			{
				"x": 2.5818824007,
				"y": -0.1515469833,
				"z": 2.3459614996,
				"element": "N" 
			},
			{
				"x": 1.5239185078,
				"y": -0.4274396938,
				"z": 1.5555958013,
				"element": "C" 
			},
			{
				"x": 1.5359021815,
				"y": -0.967762597,
				"z": 0.2898462613,
				"element": "C" 
			},
			{
				"x": 2.7740572427,
				"y": -1.3541327449,
				"z": -0.2719102213,
				"element": "C" 
			},
			{
				"x": 3.8162418584,
				"y": -1.6588217749,
				"z": -0.7019830313,
				"element": "N" 
			},
			{
				"x": 0.2580012237,
				"y": -1.0938221264,
				"z": -0.5330205504,
				"element": "C" 
			},
			{
				"x": -0.8928795686,
				"y": -1.2368177387,
				"z": 0.3839818448,
				"element": "N" 
			},
			{
				"x": -0.9080053424,
				"y": -0.5656733008,
				"z": 1.5563395597,
				"element": "C" 
			},
			{
				"x": -1.9069093997,
				"y": -0.2890434812,
				"z": 2.3764121434,
				"element": "N" 
			},
			{
				"x": -1.2579101239,
				"y": 0.2981044181,
				"z": 3.4264004916,
				"element": "C" 
			},
			{
				"x": 0.0520808486,
				"y": 0.4197125251,
				"z": 3.3339904547,
				"element": "N" 
			},
			{
				"x": 0.2766005033,
				"y": -0.1340458647,
				"z": 2.095839173,
				"element": "N" 
			},
			{
				"x": -2.0123829919,
				"y": 0.8021600555,
				"z": 4.6265036641,
				"element": "C" 
			},
			{
				"x": -1.1741649635,
				"y": 1.2835068526,
				"z": 5.5585800845,
				"element": "F" 
			},
			{
				"x": -2.738257508,
				"y": -0.1860101067,
				"z": 5.181072056,
				"element": "F" 
			},
			{
				"x": -2.8628030466,
				"y": 1.7860723561,
				"z": 4.2771236986,
				"element": "F" 
			},
			{
				"x": 0.0357666177,
				"y": 0.0452073882,
				"z": -1.5422163959,
				"element": "C" 
			},
			{
				"x": -0.8869164572,
				"y": -0.0880050105,
				"z": -2.591211318,
				"element": "C" 
			},
			{
				"x": -1.8147694557,
				"y": -1.5802182343,
				"z": -2.7761413602,
				"element": "Cl" 
			},
			{
				"x": -1.122045163,
				"y": 0.9255605866,
				"z": -3.5162774289,
				"element": "C" 
			},
			{
				"x": -0.4117472012,
				"y": 2.1187119812,
				"z": -3.389158308,
				"element": "C" 
			},
			{
				"x": -0.6934701812,
				"y": 3.4048438737,
				"z": -4.5436194089,
				"element": "Cl" 
			},
			{
				"x": 0.5137593882,
				"y": 2.2968645163,
				"z": -2.3635625852,
				"element": "C" 
			},
			{
				"x": 0.7259715623,
				"y": 1.2594575905,
				"z": -1.4575011663,
				"element": "C" 
			},
			{
				"x": 3.5053713976,
				"y": -0.4257888708,
				"z": 2.0489657495,
				"element": "H" 
			},
			{
				"x": 2.4099760358,
				"y": 0.086626774,
				"z": 3.311625413,
				"element": "H" 
			},
			{
				"x": 0.3133351764,
				"y": -2.0273329129,
				"z": -1.0994624948,
				"element": "H" 
			},
			{
				"x": -1.7908679548,
				"y": -1.46606598,
				"z": -0.019909618,
				"element": "H" 
			},
			{
				"x": -1.839729792,
				"y": 0.7878333717,
				"z": -4.3154618736,
				"element": "H" 
			},
			{
				"x": 1.0618984563,
				"y": 3.2279395407,
				"z": -2.277895542,
				"element": "H" 
			},
			{
				"x": 1.4596957485,
				"y": 1.3894255906,
				"z": -0.6693065923,
				"element": "H" 
			}
		],
		 "valence_orbital": [ 
			{
				"type": "occ",
				"energy": -0.3131,
				"method": "rhf"
			},
			{
				"type": "occ",
				"energy": -0.28166,
				"method": "rhf"
			},
			{
				"type": "occ",
				"energy": -0.27282,
				"method": "rhf"
			},
			{
				"type": "occ",
				"energy": -0.25936,
				"method": "rhf"
			},
			{
				"type": "occ",
				"energy": -0.23518,
				"method": "rhf"
			},
			{
				"type": "unocc",
				"energy": -0.06432,
				"method": "rhf"
			},
			{
				"type": "unocc",
				"energy": -0.04221,
				"method": "rhf"
			},
			{
				"type": "unocc",
				"energy": -0.04139,
				"method": "rhf"
			},
			{
				"type": "unocc",
				"energy": -0.01179,
				"method": "rhf"
			},
			{
				"type": "unocc",
				"energy": 0.00388,
				"method": "rhf"
			}
		],
		"cosmo_sigma_profile": { 
			"-0.025": 0.0,
			"-0.024": 0.0,
			"-0.023": 0.0,
			"-0.022": 0.0,
			"-0.021": 0.0,
			"-0.02": 0.0,
			"-0.019": 0.0,
			"-0.018": 0.0,
			"-0.017": 0.0,
			"-0.016": 0.358719529864,
			"-0.015": 1.36906059734,
			"-0.014": 2.17447173333,
			"-0.013": 2.92977410145,
			"-0.012": 2.41834019759,
			"-0.011": 3.08103923198,
			"-0.01": 2.23343556916,
			"-0.009": 3.61955851614,
			"-0.008": 8.10702582951,
			"-0.007": 11.0342556481,
			"-0.006": 14.1919428192,
			"-0.005": 13.6664743269,
			"-0.004": 13.1000677605,
			"-0.003": 18.4847859727,
			"-0.002": 20.9240466331,
			"-0.001": 23.0695129328,
			"0.0": 29.044751717,
			"0.001": 38.1421193536,
			"0.002": 48.1771078347,
			"0.003": 29.0687950525,
			"0.004": 20.2160217129,
			"0.005": 5.98988001905,
			"0.006": 4.33119645411,
			"0.007": 4.95694599625,
			"0.008": 5.48324287969,
			"0.009": 4.02900522991,
			"0.01": 4.21983071367,
			"0.011": 4.29571049364,
			"0.012": 3.74233755453,
			"0.013": 3.40468176459,
			"0.014": 1.49096923397,
			"0.015": 0.0,
			"0.016": 0.0,
			"0.017": 0.0,
			"0.018": 0.0,
			"0.019": 0.0,
			"0.02": 0.0,
			"0.021": 0.0,
			"0.022": 0.0,
			"0.023": 0.0,
			"0.024": 0.0,
			"0.025": 0.0
		}
	}
}
