{
	 "smiles": "CC1=CC=C(C)N1C1=CC=CC=C1", 
	 "Tm": 322.95, 
	 "num_atms": 26, 
	 "gaussian": { 
		 "optdone": 1, 
		 "sigma_profile": "yes", 
		 "theory": "DFT", 
		 "functional": "B3LYP", 
		 "basiset": "6-31G**", 
		 "properties": { 
			 "R2extent": 2900.3527, 
			 "electric_dipole_moment_norm": 2.14620621097, 
			 "electric_quadrupole_moment_norm": 4.53195740051, 
			 "total_energy": -519.863659444, 
			 "HOMO_LUMO_gap": 0.17119, 
			 "cosmo_polarized_energy": -5.7, 
			 "cosmo_cavitation_energy": 28.94, 
			 "cosmo_dispersion_energy": -20.21, 
			 "cosmo_repulsion_energy": 1.61, 
			 "cosmo_total_nonelectrostatic_energy": 10.35, 
			 "SMD_solvation_energy": 5.18 
		},
		"coords": [
			{
				"x": 1.2132444777,
				"y": -0.7843222375,
				"z": 0.543486638,
				"element": "C" 
			},
			{
				"x": 0.5871192895,
				"y": 0.5716243216,
				"z": 0.4620313538,
				"element": "C" 
			},
			{
				"x": 0.8751537644,
				"y": 1.7255730821,
				"z": 1.1558598572,
				"element": "C" 
			},
			{
				"x": -0.0429547449,
				"y": 2.731831567,
				"z": 0.7390287895,
				"element": "C" 
			},
			{
				"x": -0.8853426755,
				"y": 2.1784051303,
				"z": -0.1990824609,
				"element": "C" 
			},
			{
				"x": -1.9978161602,
				"y": 2.8000506357,
				"z": -0.9821908043,
				"element": "C" 
			},
			{
				"x": -0.4964897674,
				"y": 0.850328838,
				"z": -0.3700514112,
				"element": "N" 
			},
			{
				"x": -1.1125543944,
				"y": -0.0804014357,
				"z": -1.2596491323,
				"element": "C" 
			},
			{
				"x": -2.3924897967,
				"y": -0.5743931725,
				"z": -0.9827450216,
				"element": "C" 
			},
			{
				"x": -2.9950874561,
				"y": -1.4794515863,
				"z": -1.8571245723,
				"element": "C" 
			},
			{
				"x": -2.3197513279,
				"y": -1.9050449851,
				"z": -3.0028898528,
				"element": "C" 
			},
			{
				"x": -1.0401384484,
				"y": -1.4172337307,
				"z": -3.2760535393,
				"element": "C" 
			},
			{
				"x": -0.4385092552,
				"y": -0.5021447917,
				"z": -2.4114920357,
				"element": "C" 
			},
			{
				"x": 1.6889668536,
				"y": -1.0934128758,
				"z": -0.3952007454,
				"element": "H" 
			},
			{
				"x": 1.9841617984,
				"y": -0.7771486072,
				"z": 1.3180615496,
				"element": "H" 
			},
			{
				"x": 0.4849946283,
				"y": -1.5626117924,
				"z": 0.8031725206,
				"element": "H" 
			},
			{
				"x": 1.6617600133,
				"y": 1.8274512104,
				"z": 1.8914215338,
				"element": "H" 
			},
			{
				"x": -0.0832042323,
				"y": 3.7572975805,
				"z": 1.0810559541,
				"element": "H" 
			},
			{
				"x": -2.9752944056,
				"y": 2.3509959405,
				"z": -0.7679880673,
				"element": "H" 
			},
			{
				"x": -2.0606555108,
				"y": 3.8624981727,
				"z": -0.7340102537,
				"element": "H" 
			},
			{
				"x": -1.8395756018,
				"y": 2.7179156464,
				"z": -2.0646575737,
				"element": "H" 
			},
			{
				"x": -2.9000292133,
				"y": -0.2514501201,
				"z": -0.0792331741,
				"element": "H" 
			},
			{
				"x": -3.9889831091,
				"y": -1.8586030569,
				"z": -1.637795982,
				"element": "H" 
			},
			{
				"x": -2.7883983052,
				"y": -2.6134361723,
				"z": -3.6796415514,
				"element": "H" 
			},
			{
				"x": -0.5118992893,
				"y": -1.741930016,
				"z": -4.1678086289,
				"element": "H" 
			},
			{
				"x": 0.5477728689,
				"y": -0.1015875449,
				"z": -2.6237033896,
				"element": "H" 
			}
		],
		 "valence_orbital": [ 
			{
				"type": "occ",
				"energy": -0.34009,
				"method": "rhf"
			},
			{
				"type": "occ",
				"energy": -0.26036,
				"method": "rhf"
			},
			{
				"type": "occ",
				"energy": -0.25954,
				"method": "rhf"
			},
			{
				"type": "occ",
				"energy": -0.22067,
				"method": "rhf"
			},
			{
				"type": "occ",
				"energy": -0.18466,
				"method": "rhf"
			},
			{
				"type": "unocc",
				"energy": -0.01347,
				"method": "rhf"
			},
			{
				"type": "unocc",
				"energy": -0.01111,
				"method": "rhf"
			},
			{
				"type": "unocc",
				"energy": 0.04996,
				"method": "rhf"
			},
			{
				"type": "unocc",
				"energy": 0.0839,
				"method": "rhf"
			},
			{
				"type": "unocc",
				"energy": 0.10123,
				"method": "rhf"
			}
		],
		"cosmo_sigma_profile": { 
			"-0.025": 0.0,
			"-0.024": 0.0,
			"-0.023": 0.0,
			"-0.022": 0.0,
			"-0.021": 0.0,
			"-0.02": 0.0,
			"-0.019": 0.0,
			"-0.018": 0.0,
			"-0.017": 0.0,
			"-0.016": 0.0,
			"-0.015": 0.0,
			"-0.014": 0.0,
			"-0.013": 0.0,
			"-0.012": 0.0,
			"-0.011": 0.0,
			"-0.01": 0.0,
			"-0.009": 0.0,
			"-0.008": 0.0,
			"-0.007": 0.612997054657,
			"-0.006": 8.57179298322,
			"-0.005": 11.3967930475,
			"-0.004": 23.4356339688,
			"-0.003": 24.442277396,
			"-0.002": 21.4296205075,
			"-0.001": 22.9840001113,
			"0.0": 26.9326235407,
			"0.001": 18.5100246459,
			"0.002": 14.5946279508,
			"0.003": 12.3993891123,
			"0.004": 13.6708024667,
			"0.005": 11.5795820265,
			"0.006": 4.56550673717,
			"0.007": 4.32796491785,
			"0.008": 4.49785428507,
			"0.009": 4.14675049382,
			"0.01": 1.64147224402,
			"0.011": 0.0,
			"0.012": 0.0,
			"0.013": 0.0,
			"0.014": 0.0,
			"0.015": 0.0,
			"0.016": 0.0,
			"0.017": 0.0,
			"0.018": 0.0,
			"0.019": 0.0,
			"0.02": 0.0,
			"0.021": 0.0,
			"0.022": 0.0,
			"0.023": 0.0,
			"0.024": 0.0,
			"0.025": 0.0
		}
	}
}
