{
	 "smiles": "CC(=O)C1=CC=C(C=C1)N=C=O", 
	 "Tm": 307.15, 
	 "num_atms": 19, 
	 "gaussian": { 
		 "optdone": 1, 
		 "sigma_profile": "yes", 
		 "theory": "DFT", 
		 "functional": "B3LYP", 
		 "basiset": "6-31G**", 
		 "properties": { 
			 "R2extent": 3125.8984, 
			 "electric_dipole_moment_norm": 2.47046188596, 
			 "electric_quadrupole_moment_norm": 17.3646919025, 
			 "total_energy": -552.379445137, 
			 "HOMO_LUMO_gap": 0.18116, 
			 "cosmo_polarized_energy": -9.29, 
			 "cosmo_cavitation_energy": 25.12, 
			 "cosmo_dispersion_energy": -17.91, 
			 "cosmo_repulsion_energy": 1.42, 
			 "cosmo_total_nonelectrostatic_energy": 8.63, 
			 "SMD_solvation_energy": 7.38 
		},
		"coords": [
			{
				"x": -0.9333943805,
				"y": 2.4159165086,
				"z": -3.4415551019,
				"element": "C" 
			},
			{
				"x": 0.0609718868,
				"y": 1.447784341,
				"z": -2.8230862147,
				"element": "C" 
			},
			{
				"x": 0.8154895632,
				"y": 0.7949582832,
				"z": -3.5289022093,
				"element": "O" 
			},
			{
				"x": 0.101845525,
				"y": 1.306164717,
				"z": -1.3322615191,
				"element": "C" 
			},
			{
				"x": -0.7376532015,
				"y": 2.0272638234,
				"z": -0.4702233023,
				"element": "C" 
			},
			{
				"x": -0.6585438246,
				"y": 1.8579828079,
				"z": 0.9087008945,
				"element": "C" 
			},
			{
				"x": 0.2689050848,
				"y": 0.9577954661,
				"z": 1.4481503189,
				"element": "C" 
			},
			{
				"x": 1.1162992281,
				"y": 0.2288099722,
				"z": 0.5950974051,
				"element": "C" 
			},
			{
				"x": 1.0275516993,
				"y": 0.4066094102,
				"z": -0.7772044529,
				"element": "C" 
			},
			{
				"x": 0.3182232313,
				"y": 0.8156508272,
				"z": 2.8344809436,
				"element": "N" 
			},
			{
				"x": 0.924107105,
				"y": 0.1931938027,
				"z": 3.6787367853,
				"element": "C" 
			},
			{
				"x": 1.4308672003,
				"y": -0.3426066303,
				"z": 4.5960766449,
				"element": "O" 
			},
			{
				"x": -0.7604976301,
				"y": 3.438130841,
				"z": -3.0870389289,
				"element": "H" 
			},
			{
				"x": -1.9619729799,
				"y": 2.1474111711,
				"z": -3.1762026512,
				"element": "H" 
			},
			{
				"x": -0.8203957339,
				"y": 2.385649454,
				"z": -4.5254610472,
				"element": "H" 
			},
			{
				"x": -1.4621844411,
				"y": 2.7290491575,
				"z": -0.869846782,
				"element": "H" 
			},
			{
				"x": -1.3052044865,
				"y": 2.4130198635,
				"z": 1.5794199557,
				"element": "H" 
			},
			{
				"x": 1.8339780191,
				"y": -0.4680548877,
				"z": 1.017864205,
				"element": "H" 
			},
			{
				"x": 1.6715081351,
				"y": -0.1453289286,
				"z": -1.4536449435,
				"element": "H" 
			}
		],
		 "valence_orbital": [ 
			{
				"type": "occ",
				"energy": -0.33006,
				"method": "rhf"
			},
			{
				"type": "occ",
				"energy": -0.31762,
				"method": "rhf"
			},
			{
				"type": "occ",
				"energy": -0.27445,
				"method": "rhf"
			},
			{
				"type": "occ",
				"energy": -0.25343,
				"method": "rhf"
			},
			{
				"type": "occ",
				"energy": -0.24793,
				"method": "rhf"
			},
			{
				"type": "unocc",
				"energy": -0.06677,
				"method": "rhf"
			},
			{
				"type": "unocc",
				"energy": -0.02252,
				"method": "rhf"
			},
			{
				"type": "unocc",
				"energy": 0.00192,
				"method": "rhf"
			},
			{
				"type": "unocc",
				"energy": 0.01321,
				"method": "rhf"
			},
			{
				"type": "unocc",
				"energy": 0.0821,
				"method": "rhf"
			}
		],
		"cosmo_sigma_profile": { 
			"-0.025": 0.0,
			"-0.024": 0.0,
			"-0.023": 0.0,
			"-0.022": 0.0,
			"-0.021": 0.0,
			"-0.02": 0.0,
			"-0.019": 0.0,
			"-0.018": 0.0,
			"-0.017": 0.0,
			"-0.016": 0.0,
			"-0.015": 0.0,
			"-0.014": 0.0,
			"-0.013": 0.0,
			"-0.012": 0.0,
			"-0.011": 0.0,
			"-0.01": 0.0,
			"-0.009": 0.352128376986,
			"-0.008": 2.79203549267,
			"-0.007": 7.61445704679,
			"-0.006": 15.0335879011,
			"-0.005": 15.0210422351,
			"-0.004": 13.4668761226,
			"-0.003": 17.1898807841,
			"-0.002": 13.4053466588,
			"-0.001": 15.9652132019,
			"0.0": 13.9161036549,
			"0.001": 16.0984815127,
			"0.002": 18.4329553266,
			"0.003": 15.117407941,
			"0.004": 4.32973272724,
			"0.005": 5.23710986908,
			"0.006": 5.59713422825,
			"0.007": 8.72478794107,
			"0.008": 1.86464033975,
			"0.009": 1.87126621381,
			"0.01": 1.76004897142,
			"0.011": 3.24557588719,
			"0.012": 3.9043614876,
			"0.013": 1.51271825398,
			"0.014": 0.14291775849,
			"0.015": 0.0,
			"0.016": 0.0,
			"0.017": 0.0,
			"0.018": 0.0,
			"0.019": 0.0,
			"0.02": 0.0,
			"0.021": 0.0,
			"0.022": 0.0,
			"0.023": 0.0,
			"0.024": 0.0,
			"0.025": 0.0
		}
	}
}
