{
	 "smiles": "OC(=O)CNS(=O)(=O)C1=CC(=CC=C1)C(F)(F)F", 
	 "Tm": 354.15, 
	 "num_atms": 26, 
	 "gaussian": { 
		 "optdone": 1, 
		 "sigma_profile": "yes", 
		 "theory": "DFT", 
		 "functional": "B3LYP", 
		 "basiset": "6-31G**", 
		 "properties": { 
			 "R2extent": 5676.6274, 
			 "electric_dipole_moment_norm": 2.70249635337, 
			 "electric_quadrupole_moment_norm": 25.4823363821, 
			 "total_energy": -1401.07814799, 
			 "HOMO_LUMO_gap": 0.22257, 
			 "cosmo_polarized_energy": -19.6, 
			 "cosmo_cavitation_energy": 33.72, 
			 "cosmo_dispersion_energy": -23.87, 
			 "cosmo_repulsion_energy": 1.75, 
			 "cosmo_total_nonelectrostatic_energy": 11.6, 
			 "SMD_solvation_energy": 6.96 
		},
		"coords": [
			{
				"x": 1.4973551906,
				"y": -0.4671914024,
				"z": 4.58589801,
				"element": "O" 
			},
			{
				"x": 1.3274773796,
				"y": -0.4312042713,
				"z": 3.2475959095,
				"element": "C" 
			},
			{
				"x": 1.9422146736,
				"y": 0.3125049731,
				"z": 2.5201046615,
				"element": "O" 
			},
			{
				"x": 0.2860611299,
				"y": -1.4625627166,
				"z": 2.8367517758,
				"element": "C" 
			},
			{
				"x": 0.0098731542,
				"y": -1.442031577,
				"z": 1.4036581187,
				"element": "N" 
			},
			{
				"x": -1.188175166,
				"y": -0.3660084792,
				"z": 0.8589903504,
				"element": "S" 
			},
			{
				"x": -2.3276108835,
				"y": -1.1471278445,
				"z": 0.3620996189,
				"element": "O" 
			},
			{
				"x": -1.3546174503,
				"y": 0.6248232334,
				"z": 1.9252543807,
				"element": "O" 
			},
			{
				"x": -0.4222652111,
				"y": 0.4054285161,
				"z": -0.5705120375,
				"element": "C" 
			},
			{
				"x": 0.8298340064,
				"y": 1.0113381672,
				"z": -0.451596398,
				"element": "C" 
			},
			{
				"x": 1.3622351011,
				"y": 1.6513211094,
				"z": -1.570652421,
				"element": "C" 
			},
			{
				"x": 0.6538397581,
				"y": 1.688917672,
				"z": -2.7771139014,
				"element": "C" 
			},
			{
				"x": -0.5951251027,
				"y": 1.0793706279,
				"z": -2.8718978437,
				"element": "C" 
			},
			{
				"x": -1.1430731005,
				"y": 0.429067899,
				"z": -1.7648347104,
				"element": "C" 
			},
			{
				"x": 2.7398948199,
				"y": 2.2591402695,
				"z": -1.4993404257,
				"element": "C" 
			},
			{
				"x": 2.8492580287,
				"y": 3.3349127102,
				"z": -2.3117563072,
				"element": "F" 
			},
			{
				"x": 3.053797391,
				"y": 2.6545682159,
				"z": -0.2507990101,
				"element": "F" 
			},
			{
				"x": 3.6883437195,
				"y": 1.3763604885,
				"z": -1.8897034511,
				"element": "F" 
			},
			{
				"x": 2.1640177025,
				"y": 0.2067875664,
				"z": 4.8004036162,
				"element": "H" 
			},
			{
				"x": -0.600170202,
				"y": -1.3102823364,
				"z": 3.46256662,
				"element": "H" 
			},
			{
				"x": 0.6876851018,
				"y": -2.4502238513,
				"z": 3.0851836018,
				"element": "H" 
			},
			{
				"x": -0.176803884,
				"y": -2.3607952992,
				"z": 1.0142661991,
				"element": "H" 
			},
			{
				"x": 1.375721151,
				"y": 0.9715508977,
				"z": 0.4854877211,
				"element": "H" 
			},
			{
				"x": 1.0809746752,
				"y": 2.2002012792,
				"z": -3.6330786627,
				"element": "H" 
			},
			{
				"x": -1.1450618358,
				"y": 1.1100864107,
				"z": -3.8070367785,
				"element": "H" 
			},
			{
				"x": -2.1110801471,
				"y": -0.0562522583,
				"z": -1.8157386365,
				"element": "H" 
			}
		],
		 "valence_orbital": [ 
			{
				"type": "occ",
				"energy": -0.3117,
				"method": "rhf"
			},
			{
				"type": "occ",
				"energy": -0.29985,
				"method": "rhf"
			},
			{
				"type": "occ",
				"energy": -0.29162,
				"method": "rhf"
			},
			{
				"type": "occ",
				"energy": -0.28123,
				"method": "rhf"
			},
			{
				"type": "occ",
				"energy": -0.27205,
				"method": "rhf"
			},
			{
				"type": "unocc",
				"energy": -0.04948,
				"method": "rhf"
			},
			{
				"type": "unocc",
				"energy": -0.03601,
				"method": "rhf"
			},
			{
				"type": "unocc",
				"energy": -0.00671,
				"method": "rhf"
			},
			{
				"type": "unocc",
				"energy": 0.04916,
				"method": "rhf"
			},
			{
				"type": "unocc",
				"energy": 0.06004,
				"method": "rhf"
			}
		],
		"cosmo_sigma_profile": { 
			"-0.025": 0.0,
			"-0.024": 0.0,
			"-0.023": 0.0,
			"-0.022": 0.0,
			"-0.021": 0.0,
			"-0.02": 0.0,
			"-0.019": 0.416070567543,
			"-0.018": 1.30171437637,
			"-0.017": 0.860243716182,
			"-0.016": 1.08187637059,
			"-0.015": 2.41912095094,
			"-0.014": 1.88440142395,
			"-0.013": 1.87793050554,
			"-0.012": 2.27956332801,
			"-0.011": 1.96939563249,
			"-0.01": 3.4703437785,
			"-0.009": 3.5035585408,
			"-0.008": 7.55381145748,
			"-0.007": 12.4180523136,
			"-0.006": 11.5550645044,
			"-0.005": 8.86769295106,
			"-0.004": 9.09556529298,
			"-0.003": 10.5700926969,
			"-0.002": 10.958017167,
			"-0.001": 15.1513403657,
			"0.0": 21.5771148353,
			"0.001": 24.2705302796,
			"0.002": 29.4755166509,
			"0.003": 27.8293462667,
			"0.004": 6.96182920604,
			"0.005": 5.7976064206,
			"0.006": 6.25521338247,
			"0.007": 6.64743102498,
			"0.008": 8.5040510436,
			"0.009": 7.96378661348,
			"0.01": 9.56229593861,
			"0.011": 7.30185448945,
			"0.012": 0.574418975177,
			"0.013": 0.0,
			"0.014": 0.0,
			"0.015": 0.0,
			"0.016": 0.0,
			"0.017": 0.0,
			"0.018": 0.0,
			"0.019": 0.0,
			"0.02": 0.0,
			"0.021": 0.0,
			"0.022": 0.0,
			"0.023": 0.0,
			"0.024": 0.0,
			"0.025": 0.0
		}
	}
}
