{
	 "smiles": "CN1CCOC(C1)C(=O)C1=CC=C(Cl)C=C1", 
	 "Tm": 333.15, 
	 "num_atms": 30, 
	 "gaussian": { 
		 "optdone": 1, 
		 "sigma_profile": "yes", 
		 "theory": "DFT", 
		 "functional": "B3LYP", 
		 "basiset": "6-31G**", 
		 "properties": { 
			 "R2extent": 6151.7349, 
			 "electric_dipole_moment_norm": 2.65411634636, 
			 "electric_quadrupole_moment_norm": 9.96579000581, 
			 "total_energy": -1131.07147182, 
			 "HOMO_LUMO_gap": 0.14465, 
			 "cosmo_polarized_energy": -9.21, 
			 "cosmo_cavitation_energy": 34.17, 
			 "cosmo_dispersion_energy": -24.99, 
			 "cosmo_repulsion_energy": 1.94, 
			 "cosmo_total_nonelectrostatic_energy": 11.13, 
			 "SMD_solvation_energy": 3.1 
		},
		"coords": [
			{
				"x": -2.7705679381,
				"y": -3.0848658104,
				"z": -1.1737070738,
				"element": "C" 
			},
			{
				"x": -1.8936871494,
				"y": -2.7967165196,
				"z": -0.0505342058,
				"element": "N" 
			},
			{
				"x": -2.5900056643,
				"y": -2.0692281611,
				"z": 1.0136959631,
				"element": "C" 
			},
			{
				"x": -1.5839251206,
				"y": -1.34604144,
				"z": 1.8961008611,
				"element": "C" 
			},
			{
				"x": -0.8803356008,
				"y": -0.3313284966,
				"z": 1.1699906105,
				"element": "O" 
			},
			{
				"x": -0.6069635324,
				"y": -0.6618620153,
				"z": -0.2009060936,
				"element": "C" 
			},
			{
				"x": -0.6106505047,
				"y": -2.17847156,
				"z": -0.4193421884,
				"element": "C" 
			},
			{
				"x": 0.7399111492,
				"y": -0.0279664556,
				"z": -0.5936483639,
				"element": "C" 
			},
			{
				"x": 1.5859762346,
				"y": -0.7151542739,
				"z": -1.1480016759,
				"element": "O" 
			},
			{
				"x": 0.9767696806,
				"y": 1.4273458011,
				"z": -0.3450282482,
				"element": "C" 
			},
			{
				"x": 2.2129121372,
				"y": 1.9617372924,
				"z": -0.7448625733,
				"element": "C" 
			},
			{
				"x": 2.4950861285,
				"y": 3.3124989783,
				"z": -0.5814386836,
				"element": "C" 
			},
			{
				"x": 1.5238096405,
				"y": 4.1405549778,
				"z": -0.0128884687,
				"element": "C" 
			},
			{
				"x": 1.8665387646,
				"y": 5.8488964087,
				"z": 0.1952818273,
				"element": "Cl" 
			},
			{
				"x": 0.288247015,
				"y": 3.6366505388,
				"z": 0.3935767985,
				"element": "C" 
			},
			{
				"x": 0.0191675975,
				"y": 2.2795859866,
				"z": 0.227311112,
				"element": "C" 
			},
			{
				"x": -3.1501646879,
				"y": -2.1820446106,
				"z": -1.6918916774,
				"element": "H" 
			},
			{
				"x": -3.6408042369,
				"y": -3.6488342219,
				"z": -0.8199137936,
				"element": "H" 
			},
			{
				"x": -2.2481873063,
				"y": -3.7061940072,
				"z": -1.9072290277,
				"element": "H" 
			},
			{
				"x": -3.1855397325,
				"y": -2.7678539797,
				"z": 1.617252324,
				"element": "H" 
			},
			{
				"x": -3.293844814,
				"y": -1.3154028781,
				"z": 0.6095347902,
				"element": "H" 
			},
			{
				"x": -0.8753275178,
				"y": -2.0673464738,
				"z": 2.3277484563,
				"element": "H" 
			},
			{
				"x": -2.0885770803,
				"y": -0.8335780773,
				"z": 2.7200604584,
				"element": "H" 
			},
			{
				"x": -1.3830824557,
				"y": -0.2036747229,
				"z": -0.8400902749,
				"element": "H" 
			},
			{
				"x": 0.2060178855,
				"y": -2.6135105234,
				"z": 0.1689128252,
				"element": "H" 
			},
			{
				"x": -0.38168398,
				"y": -2.3953333339,
				"z": -1.4643750247,
				"element": "H" 
			},
			{
				"x": 2.9425102168,
				"y": 1.2931953419,
				"z": -1.189290891,
				"element": "H" 
			},
			{
				"x": 3.4491836819,
				"y": 3.7256102047,
				"z": -0.8892796478,
				"element": "H" 
			},
			{
				"x": -0.4480485734,
				"y": 4.2976672397,
				"z": 0.8368507324,
				"element": "H" 
			},
			{
				"x": -0.9273342368,
				"y": 1.8785647914,
				"z": 0.569011153,
				"element": "H" 
			}
		],
		 "valence_orbital": [ 
			{
				"type": "occ",
				"energy": -0.2797,
				"method": "rhf"
			},
			{
				"type": "occ",
				"energy": -0.26965,
				"method": "rhf"
			},
			{
				"type": "occ",
				"energy": -0.25378,
				"method": "rhf"
			},
			{
				"type": "occ",
				"energy": -0.24676,
				"method": "rhf"
			},
			{
				"type": "occ",
				"energy": -0.21059,
				"method": "rhf"
			},
			{
				"type": "unocc",
				"energy": -0.06594,
				"method": "rhf"
			},
			{
				"type": "unocc",
				"energy": -0.01813,
				"method": "rhf"
			},
			{
				"type": "unocc",
				"energy": 0.02361,
				"method": "rhf"
			},
			{
				"type": "unocc",
				"energy": 0.02695,
				"method": "rhf"
			},
			{
				"type": "unocc",
				"energy": 0.07554,
				"method": "rhf"
			}
		],
		"cosmo_sigma_profile": { 
			"-0.025": 0.0,
			"-0.024": 0.0,
			"-0.023": 0.0,
			"-0.022": 0.0,
			"-0.021": 0.0,
			"-0.02": 0.0,
			"-0.019": 0.0,
			"-0.018": 0.0,
			"-0.017": 0.0,
			"-0.016": 0.0,
			"-0.015": 0.0,
			"-0.014": 0.0,
			"-0.013": 0.0,
			"-0.012": 0.0,
			"-0.011": 0.0,
			"-0.01": 0.0,
			"-0.009": 0.0,
			"-0.008": 1.26698911671,
			"-0.007": 4.54206970632,
			"-0.006": 9.68900965239,
			"-0.005": 15.898101053,
			"-0.004": 25.2972081701,
			"-0.003": 28.2801195541,
			"-0.002": 27.1583201821,
			"-0.001": 25.0517469611,
			"0.0": 25.1221488078,
			"0.001": 21.7681764933,
			"0.002": 24.8508677126,
			"0.003": 15.9223900793,
			"0.004": 15.4840175701,
			"0.005": 6.66782099415,
			"0.006": 3.47417899951,
			"0.007": 3.11875989821,
			"0.008": 3.96778570124,
			"0.009": 3.51070255375,
			"0.01": 3.54931128764,
			"0.011": 4.31352228251,
			"0.012": 1.43103344888,
			"0.013": 0.340728969075,
			"0.014": 0.659702447534,
			"0.015": 0.294821845903,
			"0.016": 0.393769887645,
			"0.017": 0.0,
			"0.018": 0.0,
			"0.019": 0.0,
			"0.02": 0.0,
			"0.021": 0.0,
			"0.022": 0.0,
			"0.023": 0.0,
			"0.024": 0.0,
			"0.025": 0.0
		}
	}
}
