{
	 "smiles": "CCCC1=C(C=NN1C1=CC(F)=CC=C1)C(O)=O", 
	 "Tm": 371.15, 
	 "num_atms": 31, 
	 "gaussian": { 
		 "optdone": 1, 
		 "sigma_profile": "yes", 
		 "theory": "DFT", 
		 "functional": "B3LYP", 
		 "basiset": "6-31G**", 
		 "properties": { 
			 "R2extent": 5679.5794, 
			 "electric_dipole_moment_norm": 6.20429806344, 
			 "electric_quadrupole_moment_norm": 15.3424201539, 
			 "total_energy": -862.997912129, 
			 "HOMO_LUMO_gap": 0.20494, 
			 "cosmo_polarized_energy": -18.1, 
			 "cosmo_cavitation_energy": 35.54, 
			 "cosmo_dispersion_energy": -23.99, 
			 "cosmo_repulsion_energy": 1.84, 
			 "cosmo_total_nonelectrostatic_energy": 13.39, 
			 "SMD_solvation_energy": 6.84 
		},
		"coords": [
			{
				"x": 0.0369795527,
				"y": -1.9154813436,
				"z": -1.9898153461,
				"element": "C" 
			},
			{
				"x": 0.8259885774,
				"y": -1.1498628561,
				"z": -0.9243883803,
				"element": "C" 
			},
			{
				"x": 0.0037324201,
				"y": -0.8188157915,
				"z": 0.3455486852,
				"element": "C" 
			},
			{
				"x": -1.1719823356,
				"y": 0.0886523709,
				"z": 0.093438687,
				"element": "C" 
			},
			{
				"x": -2.5382045092,
				"y": -0.1961731176,
				"z": 0.0199252404,
				"element": "C" 
			},
			{
				"x": -3.1378526827,
				"y": 0.9885165283,
				"z": -0.4784139533,
				"element": "C" 
			},
			{
				"x": -2.251994448,
				"y": 1.9472791206,
				"z": -0.6740327267,
				"element": "N" 
			},
			{
				"x": -1.0526833731,
				"y": 1.3916378874,
				"z": -0.3206934121,
				"element": "N" 
			},
			{
				"x": 0.1173011203,
				"y": 2.1985121754,
				"z": -0.4408337395,
				"element": "C" 
			},
			{
				"x": 0.3166580172,
				"y": 2.9050345021,
				"z": -1.6303126958,
				"element": "C" 
			},
			{
				"x": 1.4450708943,
				"y": 3.7070462033,
				"z": -1.7353961427,
				"element": "C" 
			},
			{
				"x": 1.6461098538,
				"y": 4.389787103,
				"z": -2.8781499995,
				"element": "F" 
			},
			{
				"x": 2.3781711072,
				"y": 3.8221397416,
				"z": -0.7092883593,
				"element": "C" 
			},
			{
				"x": 2.1527585655,
				"y": 3.116462789,
				"z": 0.4721422566,
				"element": "C" 
			},
			{
				"x": 1.0215180699,
				"y": 2.31221773,
				"z": 0.6197531299,
				"element": "C" 
			},
			{
				"x": -3.2952452297,
				"y": -1.4343322949,
				"z": 0.3043492618,
				"element": "C" 
			},
			{
				"x": -2.7885622822,
				"y": -2.2597818797,
				"z": 1.2705948923,
				"element": "O" 
			},
			{
				"x": -4.3248744846,
				"y": -1.7275681599,
				"z": -0.2554431618,
				"element": "O" 
			},
			{
				"x": 0.6724963967,
				"y": -2.1446203449,
				"z": -2.850731953,
				"element": "H" 
			},
			{
				"x": -0.8192126468,
				"y": -1.3381084194,
				"z": -2.3520561504,
				"element": "H" 
			},
			{
				"x": -0.3461146457,
				"y": -2.8636555672,
				"z": -1.596372482,
				"element": "H" 
			},
			{
				"x": 1.6916236926,
				"y": -1.7438581544,
				"z": -0.6073665965,
				"element": "H" 
			},
			{
				"x": 1.2279267116,
				"y": -0.222958781,
				"z": -1.3481435884,
				"element": "H" 
			},
			{
				"x": -0.3755782036,
				"y": -1.7598311131,
				"z": 0.7546864684,
				"element": "H" 
			},
			{
				"x": 0.6698577347,
				"y": -0.3923344593,
				"z": 1.1017039737,
				"element": "H" 
			},
			{
				"x": -4.1876343543,
				"y": 1.1561561416,
				"z": -0.6753387645,
				"element": "H" 
			},
			{
				"x": -0.3959006361,
				"y": 2.8387523158,
				"z": -2.4427598197,
				"element": "H" 
			},
			{
				"x": 3.2457285929,
				"y": 4.4587171968,
				"z": -0.841584142,
				"element": "H" 
			},
			{
				"x": 2.8559279678,
				"y": 3.2080227476,
				"z": 1.2938770014,
				"element": "H" 
			},
			{
				"x": 0.8256364196,
				"y": 1.8070819863,
				"z": 1.5582417644,
				"element": "H" 
			},
			{
				"x": -2.1089458626,
				"y": -1.7883342569,
				"z": 1.7716600523,
				"element": "H" 
			}
		],
		 "valence_orbital": [ 
			{
				"type": "occ",
				"energy": -0.29845,
				"method": "rhf"
			},
			{
				"type": "occ",
				"energy": -0.27317,
				"method": "rhf"
			},
			{
				"type": "occ",
				"energy": -0.26846,
				"method": "rhf"
			},
			{
				"type": "occ",
				"energy": -0.26031,
				"method": "rhf"
			},
			{
				"type": "occ",
				"energy": -0.25176,
				"method": "rhf"
			},
			{
				"type": "unocc",
				"energy": -0.04682,
				"method": "rhf"
			},
			{
				"type": "unocc",
				"energy": -0.02437,
				"method": "rhf"
			},
			{
				"type": "unocc",
				"energy": -0.01235,
				"method": "rhf"
			},
			{
				"type": "unocc",
				"energy": 0.01044,
				"method": "rhf"
			},
			{
				"type": "unocc",
				"energy": 0.055,
				"method": "rhf"
			}
		],
		"cosmo_sigma_profile": { 
			"-0.025": 0.0,
			"-0.024": 0.0,
			"-0.023": 0.0,
			"-0.022": 0.0,
			"-0.021": 0.0,
			"-0.02": 0.0,
			"-0.019": 0.0,
			"-0.018": 0.520997579897,
			"-0.017": 1.18570402618,
			"-0.016": 0.385629786655,
			"-0.015": 0.9949469989,
			"-0.014": 0.915447895047,
			"-0.013": 0.756230942522,
			"-0.012": 1.19393763009,
			"-0.011": 1.08580352366,
			"-0.01": 0.918893324665,
			"-0.009": 1.17099781364,
			"-0.008": 5.95055991107,
			"-0.007": 11.2463385861,
			"-0.006": 10.7734583719,
			"-0.005": 12.4076617924,
			"-0.004": 13.7031303028,
			"-0.003": 22.1135036388,
			"-0.002": 26.3219876595,
			"-0.001": 27.0398809831,
			"0.0": 28.2353984,
			"0.001": 24.6010116445,
			"0.002": 17.9451196504,
			"0.003": 15.4309571336,
			"0.004": 14.2422884862,
			"0.005": 5.14304684176,
			"0.006": 4.1308800538,
			"0.007": 4.26828251409,
			"0.008": 3.83380873648,
			"0.009": 3.92920173813,
			"0.01": 5.58437539076,
			"0.011": 7.02388532088,
			"0.012": 6.29645464129,
			"0.013": 2.96594877831,
			"0.014": 0.810145316293,
			"0.015": 0.0783902716476,
			"0.016": 0.0,
			"0.017": 0.0,
			"0.018": 0.0,
			"0.019": 0.0,
			"0.02": 0.0,
			"0.021": 0.0,
			"0.022": 0.0,
			"0.023": 0.0,
			"0.024": 0.0,
			"0.025": 0.0
		}
	}
}
