{
	 "smiles": "CC(=O)C1=C(C)SC(Br)=C1", 
	 "Tm": 315.15, 
	 "num_atms": 17, 
	 "gaussian": { 
		 "optdone": 1, 
		 "sigma_profile": "yes", 
		 "theory": "DFT", 
		 "functional": "B3LYP", 
		 "basiset": "6-31G**", 
		 "properties": { 
			 "R2extent": 5026.9944, 
			 "electric_dipole_moment_norm": 0.934828401366, 
			 "electric_quadrupole_moment_norm": 8.54615879445, 
			 "total_energy": -3315.76751647, 
			 "HOMO_LUMO_gap": 0.18012, 
			 "cosmo_polarized_energy": -6.8, 
			 "cosmo_cavitation_energy": 24.91, 
			 "cosmo_dispersion_energy": -19.05, 
			 "cosmo_repulsion_energy": 1.5, 
			 "cosmo_total_nonelectrostatic_energy": 7.36, 
			 "SMD_solvation_energy": 3.52 
		},
		"coords": [
			{
				"x": -1.3327877978,
				"y": 0.8724259192,
				"z": -1.4414638183,
				"element": "C" 
			},
			{
				"x": -0.1250138785,
				"y": -0.0305449528,
				"z": -1.634611049,
				"element": "C" 
			},
			{
				"x": 0.7704817151,
				"y": 0.2815725583,
				"z": -2.4094941462,
				"element": "O" 
			},
			{
				"x": -0.0711972899,
				"y": -1.2941083314,
				"z": -0.8559956817,
				"element": "C" 
			},
			{
				"x": 0.9823849233,
				"y": -2.1899761393,
				"z": -0.9553309353,
				"element": "C" 
			},
			{
				"x": 2.2204285151,
				"y": -2.1153294222,
				"z": -1.7974707945,
				"element": "C" 
			},
			{
				"x": 0.727265848,
				"y": -3.557518151,
				"z": 0.0882036359,
				"element": "S" 
			},
			{
				"x": -0.7923378766,
				"y": -2.9172038519,
				"z": 0.6510240996,
				"element": "C" 
			},
			{
				"x": -1.8255712543,
				"y": -3.8569955893,
				"z": 1.9178833683,
				"element": "Br" 
			},
			{
				"x": -1.0857827849,
				"y": -1.7222412469,
				"z": 0.0702898233,
				"element": "C" 
			},
			{
				"x": -1.2199473498,
				"y": 1.7499037293,
				"z": -2.0787342813,
				"element": "H" 
			},
			{
				"x": -1.4213778383,
				"y": 1.1903530192,
				"z": -0.3965250164,
				"element": "H" 
			},
			{
				"x": -2.259300935,
				"y": 0.349091519,
				"z": -1.7032165862,
				"element": "H" 
			},
			{
				"x": 2.7908523859,
				"y": -1.212300861,
				"z": -1.5623701155,
				"element": "H" 
			},
			{
				"x": 1.9601490432,
				"y": -2.0453302996,
				"z": -2.8574135008,
				"element": "H" 
			},
			{
				"x": 2.858975538,
				"y": -2.9896191899,
				"z": -1.6447064519,
				"element": "H" 
			},
			{
				"x": -1.9878209637,
				"y": -1.1669787098,
				"z": 0.2915314501,
				"element": "H" 
			}
		],
		 "valence_orbital": [ 
			{
				"type": "occ",
				"energy": -0.31672,
				"method": "rhf"
			},
			{
				"type": "occ",
				"energy": -0.30248,
				"method": "rhf"
			},
			{
				"type": "occ",
				"energy": -0.27052,
				"method": "rhf"
			},
			{
				"type": "occ",
				"energy": -0.2497,
				"method": "rhf"
			},
			{
				"type": "occ",
				"energy": -0.23315,
				"method": "rhf"
			},
			{
				"type": "unocc",
				"energy": -0.05303,
				"method": "rhf"
			},
			{
				"type": "unocc",
				"energy": -0.01245,
				"method": "rhf"
			},
			{
				"type": "unocc",
				"energy": -0.00933,
				"method": "rhf"
			},
			{
				"type": "unocc",
				"energy": 0.0089,
				"method": "rhf"
			},
			{
				"type": "unocc",
				"energy": 0.08406,
				"method": "rhf"
			}
		],
		"cosmo_sigma_profile": { 
			"-0.025": 0.0,
			"-0.024": 0.0,
			"-0.023": 0.0,
			"-0.022": 0.0,
			"-0.021": 0.0,
			"-0.02": 0.0,
			"-0.019": 0.0,
			"-0.018": 0.0,
			"-0.017": 0.0,
			"-0.016": 0.0,
			"-0.015": 0.0,
			"-0.014": 0.0,
			"-0.013": 0.0,
			"-0.012": 0.0,
			"-0.011": 0.0,
			"-0.01": 0.0,
			"-0.009": 0.02184568776,
			"-0.008": 1.08605545686,
			"-0.007": 3.49051814448,
			"-0.006": 9.95875801078,
			"-0.005": 13.5669276119,
			"-0.004": 13.15534263,
			"-0.003": 13.9193612436,
			"-0.002": 20.227392398,
			"-0.001": 23.9860957715,
			"0.0": 17.0349268731,
			"0.001": 22.6158552738,
			"0.002": 21.1778781846,
			"0.003": 17.7286771291,
			"0.004": 8.83686746438,
			"0.005": 1.53161364101,
			"0.006": 2.06881103718,
			"0.007": 0.92908374574,
			"0.008": 2.04321379429,
			"0.009": 1.38490844849,
			"0.01": 2.28514915875,
			"0.011": 1.77611112859,
			"0.012": 2.87472919332,
			"0.013": 2.00713587457,
			"0.014": 0.350603566139,
			"0.015": 0.0,
			"0.016": 0.0,
			"0.017": 0.0,
			"0.018": 0.0,
			"0.019": 0.0,
			"0.02": 0.0,
			"0.021": 0.0,
			"0.022": 0.0,
			"0.023": 0.0,
			"0.024": 0.0,
			"0.025": 0.0
		}
	}
}
