{
	 "smiles": "CC1=CC(C)=C2C(NC(=O)C2=O)=C1", 
	 "Tm": 507.15, 
	 "num_atms": 22, 
	 "gaussian": { 
		 "optdone": 1, 
		 "sigma_profile": "yes", 
		 "theory": "DFT", 
		 "functional": "B3LYP", 
		 "basiset": "6-31G**", 
		 "properties": { 
			 "R2extent": 2674.0103, 
			 "electric_dipole_moment_norm": 6.28908541364, 
			 "electric_quadrupole_moment_norm": 17.3620388549, 
			 "total_energy": -591.706494395, 
			 "HOMO_LUMO_gap": 0.14384, 
			 "cosmo_polarized_energy": -15.4, 
			 "cosmo_cavitation_energy": 26.49, 
			 "cosmo_dispersion_energy": -19.28, 
			 "cosmo_repulsion_energy": 1.52, 
			 "cosmo_total_nonelectrostatic_energy": 8.72, 
			 "SMD_solvation_energy": 5.84 
		},
		"coords": [
			{
				"x": 1.1851451508,
				"y": 2.9198225838,
				"z": 0.5357991875,
				"element": "C" 
			},
			{
				"x": 0.6504425436,
				"y": 1.508348353,
				"z": 0.5294638955,
				"element": "C" 
			},
			{
				"x": 1.2234333131,
				"y": 0.5270906043,
				"z": 1.3521096313,
				"element": "C" 
			},
			{
				"x": 0.7523519767,
				"y": -0.7932138655,
				"z": 1.3813691842,
				"element": "C" 
			},
			{
				"x": 1.3737660757,
				"y": -1.8389871479,
				"z": 2.2680271332,
				"element": "C" 
			},
			{
				"x": -0.3283342926,
				"y": -1.1018179979,
				"z": 0.5449783232,
				"element": "C" 
			},
			{
				"x": -0.9074782762,
				"y": -0.1176951244,
				"z": -0.2851729156,
				"element": "C" 
			},
			{
				"x": -1.9652388098,
				"y": -0.6681333678,
				"z": -1.0231625898,
				"element": "N" 
			},
			{
				"x": -2.1535591352,
				"y": -2.0125535911,
				"z": -0.7415037846,
				"element": "C" 
			},
			{
				"x": -2.9847691903,
				"y": -2.7502429426,
				"z": -1.2202735068,
				"element": "O" 
			},
			{
				"x": -1.0556698319,
				"y": -2.3556205732,
				"z": 0.3274607629,
				"element": "C" 
			},
			{
				"x": -0.9078347028,
				"y": -3.4561000578,
				"z": 0.8206443127,
				"element": "O" 
			},
			{
				"x": -0.4352450297,
				"y": 1.1835445072,
				"z": -0.306972045,
				"element": "C" 
			},
			{
				"x": 2.0650173839,
				"y": 3.0133258717,
				"z": 1.1766877326,
				"element": "H" 
			},
			{
				"x": 0.4278204693,
				"y": 3.624828225,
				"z": 0.8982943861,
				"element": "H" 
			},
			{
				"x": 1.4644669002,
				"y": 3.2411079798,
				"z": -0.4738637234,
				"element": "H" 
			},
			{
				"x": 2.0611483937,
				"y": 0.8003301139,
				"z": 1.9881089851,
				"element": "H" 
			},
			{
				"x": 2.2043071053,
				"y": -1.4241061429,
				"z": 2.8443927201,
				"element": "H" 
			},
			{
				"x": 0.6352939731,
				"y": -2.2533254071,
				"z": 2.9620001262,
				"element": "H" 
			},
			{
				"x": 1.74103963,
				"y": -2.6850929049,
				"z": 1.6784085615,
				"element": "H" 
			},
			{
				"x": -2.5345821494,
				"y": -0.162828693,
				"z": -1.6860791561,
				"element": "H" 
			},
			{
				"x": -0.8835214974,
				"y": 1.9375195772,
				"z": -0.948017221,
				"element": "H" 
			}
		],
		 "valence_orbital": [ 
			{
				"type": "occ",
				"energy": -0.31424,
				"method": "rhf"
			},
			{
				"type": "occ",
				"energy": -0.30283,
				"method": "rhf"
			},
			{
				"type": "occ",
				"energy": -0.26003,
				"method": "rhf"
			},
			{
				"type": "occ",
				"energy": -0.24005,
				"method": "rhf"
			},
			{
				"type": "occ",
				"energy": -0.2338,
				"method": "rhf"
			},
			{
				"type": "unocc",
				"energy": -0.08996,
				"method": "rhf"
			},
			{
				"type": "unocc",
				"energy": -0.01704,
				"method": "rhf"
			},
			{
				"type": "unocc",
				"energy": 0.01428,
				"method": "rhf"
			},
			{
				"type": "unocc",
				"energy": 0.07871,
				"method": "rhf"
			},
			{
				"type": "unocc",
				"energy": 0.08938,
				"method": "rhf"
			}
		],
		"cosmo_sigma_profile": { 
			"-0.025": 0.0,
			"-0.024": 0.0,
			"-0.023": 0.0,
			"-0.022": 0.0,
			"-0.021": 0.0,
			"-0.02": 0.0,
			"-0.019": 0.0,
			"-0.018": 0.0,
			"-0.017": 0.0884849939618,
			"-0.016": 1.2084507872,
			"-0.015": 1.60544647358,
			"-0.014": 1.32265066563,
			"-0.013": 1.06360674136,
			"-0.012": 0.714412847499,
			"-0.011": 1.33583248961,
			"-0.01": 1.26466283252,
			"-0.009": 0.934385066001,
			"-0.008": 1.50890318804,
			"-0.007": 3.09204933268,
			"-0.006": 6.17486965608,
			"-0.005": 14.5785100575,
			"-0.004": 18.283818136,
			"-0.003": 18.3773064449,
			"-0.002": 17.3275244691,
			"-0.001": 24.3096156808,
			"0.0": 19.9502727157,
			"0.001": 11.6421871873,
			"0.002": 11.0478465638,
			"0.003": 12.0856215056,
			"0.004": 5.53839703373,
			"0.005": 2.37942799306,
			"0.006": 2.93625584131,
			"0.007": 2.44234033269,
			"0.008": 3.36381227012,
			"0.009": 3.7642249626,
			"0.01": 5.95748827016,
			"0.011": 9.54776567904,
			"0.012": 5.9357766281,
			"0.013": 1.19812867737,
			"0.014": 0.0,
			"0.015": 0.0,
			"0.016": 0.0,
			"0.017": 0.0,
			"0.018": 0.0,
			"0.019": 0.0,
			"0.02": 0.0,
			"0.021": 0.0,
			"0.022": 0.0,
			"0.023": 0.0,
			"0.024": 0.0,
			"0.0": 0.0
		}
	}
}
