{
	 "smiles": "CC1=CC(Br)=CC=C1Br", 
	 "Tm": 278.65, 
	 "num_atms": 15, 
	 "gaussian": { 
		 "optdone": 1, 
		 "sigma_profile": "yes", 
		 "theory": "DFT", 
		 "functional": "B3LYP", 
		 "basiset": "6-31G**", 
		 "properties": { 
			 "R2extent": 4053.3865, 
			 "electric_dipole_moment_norm": 0.572352845717, 
			 "electric_quadrupole_moment_norm": 6.11751557252, 
			 "total_energy": -5413.17673602, 
			 "HOMO_LUMO_gap": 0.21403, 
			 "cosmo_polarized_energy": -3.68, 
			 "cosmo_cavitation_energy": 23.31, 
			 "cosmo_dispersion_energy": -18.06, 
			 "cosmo_repulsion_energy": 1.47, 
			 "cosmo_total_nonelectrostatic_energy": 6.72, 
			 "SMD_solvation_energy": 1.83 
		},
		"coords": [
			{
				"x": -0.2573838868,
				"y": 2.0426043242,
				"z": 0.4682962787,
				"element": "C" 
			},
			{
				"x": 0.4262791844,
				"y": 0.8369805851,
				"z": -0.1223372104,
				"element": "C" 
			},
			{
				"x": -0.331342946,
				"y": -0.2217094602,
				"z": -0.6426520204,
				"element": "C" 
			},
			{
				"x": 0.2849645523,
				"y": -1.3429848309,
				"z": -1.1920571745,
				"element": "C" 
			},
			{
				"x": -0.7946463655,
				"y": -2.7574288302,
				"z": -1.8874598787,
				"element": "Br" 
			},
			{
				"x": 1.672044061,
				"y": -1.449772925,
				"z": -1.2428059823,
				"element": "C" 
			},
			{
				"x": 2.4429578528,
				"y": -0.4073055129,
				"z": -0.7304107628,
				"element": "C" 
			},
			{
				"x": 1.8228052111,
				"y": 0.7131223679,
				"z": -0.181414889,
				"element": "C" 
			},
			{
				"x": 2.9378053671,
				"y": 2.1099496902,
				"z": 0.5053689695,
				"element": "Br" 
			},
			{
				"x": 0.0263363373,
				"y": 2.1832069876,
				"z": 1.5165786147,
				"element": "H" 
			},
			{
				"x": -1.3434553622,
				"y": 1.9376203616,
				"z": 0.4154403005,
				"element": "H" 
			},
			{
				"x": 0.0282925371,
				"y": 2.9574026297,
				"z": -0.0615149511,
				"element": "H" 
			},
			{
				"x": -1.4139068643,
				"y": -0.1627730223,
				"z": -0.6150158814,
				"element": "H" 
			},
			{
				"x": 2.1453276631,
				"y": -2.3251557925,
				"z": -1.6717601558,
				"element": "H" 
			},
			{
				"x": 3.5250226585,
				"y": -0.4662565724,
				"z": -0.7580552572,
				"element": "H" 
			}
		],
		 "valence_orbital": [ 
			{
				"type": "occ",
				"energy": -0.29392,
				"method": "rhf"
			},
			{
				"type": "occ",
				"energy": -0.29374,
				"method": "rhf"
			},
			{
				"type": "occ",
				"energy": -0.2902,
				"method": "rhf"
			},
			{
				"type": "occ",
				"energy": -0.2666,
				"method": "rhf"
			},
			{
				"type": "occ",
				"energy": -0.23887,
				"method": "rhf"
			},
			{
				"type": "unocc",
				"energy": -0.02484,
				"method": "rhf"
			},
			{
				"type": "unocc",
				"energy": -0.02139,
				"method": "rhf"
			},
			{
				"type": "unocc",
				"energy": -0.00397,
				"method": "rhf"
			},
			{
				"type": "unocc",
				"energy": 0.0106,
				"method": "rhf"
			},
			{
				"type": "unocc",
				"energy": 0.10975,
				"method": "rhf"
			}
		],
		"cosmo_sigma_profile": { 
			"-0.025": 0.0,
			"-0.024": 0.0,
			"-0.023": 0.0,
			"-0.022": 0.0,
			"-0.021": 0.0,
			"-0.02": 0.0,
			"-0.019": 0.0,
			"-0.018": 0.0,
			"-0.017": 0.0,
			"-0.016": 0.0,
			"-0.015": 0.0,
			"-0.014": 0.0,
			"-0.013": 0.0,
			"-0.012": 0.0,
			"-0.011": 0.0,
			"-0.01": 0.0,
			"-0.009": 0.0,
			"-0.008": 1.40127876408,
			"-0.007": 5.90105988255,
			"-0.006": 5.99950519286,
			"-0.005": 8.44191047361,
			"-0.004": 10.6770560661,
			"-0.003": 14.1192080636,
			"-0.002": 14.3621504097,
			"-0.001": 18.3043200257,
			"0.0": 17.3439768203,
			"0.001": 18.3282530798,
			"0.002": 28.1182597726,
			"0.003": 21.8851409592,
			"0.004": 19.9830394569,
			"0.005": 8.12013536002,
			"0.006": 0.0,
			"0.007": 0.0,
			"0.008": 0.0,
			"0.009": 0.0,
			"0.01": 0.0,
			"0.011": 0.0,
			"0.012": 0.0,
			"0.013": 0.0,
			"0.014": 0.0,
			"0.015": 0.0,
			"0.016": 0.0,
			"0.017": 0.0,
			"0.018": 0.0,
			"0.019": 0.0,
			"0.02": 0.0,
			"0.021": 0.0,
			"0.022": 0.0,
			"0.023": 0.0,
			"0.024": 0.0,
			"0.025": 0.0
		}
	}
}
