{
	 "smiles": "CCOC1=CC=C(C=C1)[C@@]1(CC1(Cl)Cl)C(=O)N1CCC[C@H](C)[C@@H]1C", 
	 "Tm": 433.0, 
	 "num_atms": 49, 
	 "gaussian": { 
		 "optdone": 1, 
		 "sigma_profile": "yes", 
		 "theory": "DFT", 
		 "functional": "B3LYP", 
		 "basiset": "6-31G**", 
		 "properties": { 
			 "R2extent": 11674.0174, 
			 "electric_dipole_moment_norm": 3.56995069294, 
			 "electric_quadrupole_moment_norm": 17.8311560206, 
			 "total_energy": -1864.65284343, 
			 "HOMO_LUMO_gap": 0.20548, 
			 "cosmo_polarized_energy": -11.7, 
			 "cosmo_cavitation_energy": 50.77, 
			 "cosmo_dispersion_energy": -33.54, 
			 "cosmo_repulsion_energy": 2.57, 
			 "cosmo_total_nonelectrostatic_energy": 19.8, 
			 "SMD_solvation_energy": 7.6 
		},
		"coords": [
			{
				"x": 4.7992322794,
				"y": -1.7118442626,
				"z": 3.8477564634,
				"element": "C" 
			},
			{
				"x": 3.314141974,
				"y": -1.8187898891,
				"z": 3.5489850917,
				"element": "C" 
			},
			{
				"x": 3.1646416246,
				"y": -1.8856964967,
				"z": 2.1305467704,
				"element": "O" 
			},
			{
				"x": 1.9114016016,
				"y": -1.9902486163,
				"z": 1.6065071619,
				"element": "C" 
			},
			{
				"x": 1.8360351721,
				"y": -2.0540675573,
				"z": 0.2076877397,
				"element": "C" 
			},
			{
				"x": 0.6046512569,
				"y": -2.1609299141,
				"z": -0.4283590183,
				"element": "C" 
			},
			{
				"x": -0.5877209484,
				"y": -2.2187984958,
				"z": 0.3109171074,
				"element": "C" 
			},
			{
				"x": -0.4982365773,
				"y": -2.1507784447,
				"z": 1.7073413307,
				"element": "C" 
			},
			{
				"x": 0.7305269939,
				"y": -2.0360144538,
				"z": 2.3589321876,
				"element": "C" 
			},
			{
				"x": -1.9720175599,
				"y": -2.2935274697,
				"z": -0.2945300544,
				"element": "C" 
			},
			{
				"x": -2.8080025389,
				"y": -3.5390048574,
				"z": -0.0178687426,
				"element": "C" 
			},
			{
				"x": -2.3605409106,
				"y": -3.2523264606,
				"z": -1.4081804749,
				"element": "C" 
			},
			{
				"x": -3.5936039822,
				"y": -2.7472050171,
				"z": -2.6003442011,
				"element": "Cl" 
			},
			{
				"x": -1.1601734016,
				"y": -4.3420693846,
				"z": -2.1614300093,
				"element": "Cl" 
			},
			{
				"x": -2.77248284,
				"y": -0.9797020066,
				"z": -0.088291012,
				"element": "C" 
			},
			{
				"x": -3.5118037045,
				"y": -0.9258522004,
				"z": 0.8911320401,
				"element": "O" 
			},
			{
				"x": -2.5826520991,
				"y": 0.0464805404,
				"z": -0.965277206,
				"element": "N" 
			},
			{
				"x": -1.5565351871,
				"y": 0.0506484989,
				"z": -2.0143752018,
				"element": "C" 
			},
			{
				"x": -0.4545284969,
				"y": 1.0706159962,
				"z": -1.691037654,
				"element": "C" 
			},
			{
				"x": -1.0477161505,
				"y": 2.4633099227,
				"z": -1.4233936769,
				"element": "C" 
			},
			{
				"x": -2.2004587078,
				"y": 2.4304098249,
				"z": -0.3938247983,
				"element": "C" 
			},
			{
				"x": -1.702343562,
				"y": 2.2162252642,
				"z": 1.0432135279,
				"element": "C" 
			},
			{
				"x": -3.2433973867,
				"y": 1.3753076577,
				"z": -0.8511125659,
				"element": "C" 
			},
			{
				"x": -4.5664943285,
				"y": 1.4237090715,
				"z": -0.0837225316,
				"element": "C" 
			},
			{
				"x": 5.2214298243,
				"y": -0.8142426294,
				"z": 3.3874240823,
				"element": "H" 
			},
			{
				"x": 5.334188709,
				"y": -2.5826299523,
				"z": 3.4587384316,
				"element": "H" 
			},
			{
				"x": 4.9623017037,
				"y": -1.6578257252,
				"z": 4.9284665058,
				"element": "H" 
			},
			{
				"x": 2.8849378035,
				"y": -2.7181214177,
				"z": 4.0128193344,
				"element": "H" 
			},
			{
				"x": 2.7716122637,
				"y": -0.9470728573,
				"z": 3.9414654297,
				"element": "H" 
			},
			{
				"x": 2.7586249333,
				"y": -2.0204091776,
				"z": -0.3624428052,
				"element": "H" 
			},
			{
				"x": 0.5815126975,
				"y": -2.2186116699,
				"z": -1.5104357314,
				"element": "H" 
			},
			{
				"x": -1.4120054239,
				"y": -2.1751303399,
				"z": 2.2936291734,
				"element": "H" 
			},
			{
				"x": 0.7532918035,
				"y": -1.9859555924,
				"z": 3.4408757133,
				"element": "H" 
			},
			{
				"x": -2.3202657027,
				"y": -4.3609236412,
				"z": 0.4961847652,
				"element": "H" 
			},
			{
				"x": -3.8526187886,
				"y": -3.3810467661,
				"z": 0.2284705185,
				"element": "H" 
			},
			{
				"x": -2.0437325063,
				"y": 0.3105984614,
				"z": -2.9639684267,
				"element": "H" 
			},
			{
				"x": -1.145112067,
				"y": -0.9480775477,
				"z": -2.1351679174,
				"element": "H" 
			},
			{
				"x": 0.2522807698,
				"y": 1.1149096879,
				"z": -2.5285447504,
				"element": "H" 
			},
			{
				"x": 0.108169244,
				"y": 0.7171461815,
				"z": -0.8204544701,
				"element": "H" 
			},
			{
				"x": -0.2613829181,
				"y": 3.1506067241,
				"z": -1.0893555458,
				"element": "H" 
			},
			{
				"x": -1.4353683545,
				"y": 2.8698448942,
				"z": -2.3679967726,
				"element": "H" 
			},
			{
				"x": -2.7081181809,
				"y": 3.4044723228,
				"z": -0.4331711601,
				"element": "H" 
			},
			{
				"x": -2.5211761546,
				"y": 2.2732294638,
				"z": 1.7655959397,
				"element": "H" 
			},
			{
				"x": -1.220858251,
				"y": 1.2423644039,
				"z": 1.1702908551,
				"element": "H" 
			},
			{
				"x": -0.9711278436,
				"y": 2.9874694665,
				"z": 1.3089194108,
				"element": "H" 
			},
			{
				"x": -3.4917939073,
				"y": 1.6292096579,
				"z": -1.8927669799,
				"element": "H" 
			},
			{
				"x": -4.4488644374,
				"y": 1.2708012771,
				"z": 0.9864370375,
				"element": "H" 
			},
			{
				"x": -5.0139582712,
				"y": 2.4085617195,
				"z": -0.2617968227,
				"element": "H" 
			},
			{
				"x": -5.2606894657,
				"y": 0.6644818063,
				"z": -0.4510880889,
				"element": "H" 
			}
		],
		 "valence_orbital": [ 
			{
				"type": "occ",
				"energy": -0.27988,
				"method": "rhf"
			},
			{
				"type": "occ",
				"energy": -0.2548,
				"method": "rhf"
			},
			{
				"type": "occ",
				"energy": -0.24539,
				"method": "rhf"
			},
			{
				"type": "occ",
				"energy": -0.23417,
				"method": "rhf"
			},
			{
				"type": "occ",
				"energy": -0.21814,
				"method": "rhf"
			},
			{
				"type": "unocc",
				"energy": -0.01266,
				"method": "rhf"
			},
			{
				"type": "unocc",
				"energy": -0.00738,
				"method": "rhf"
			},
			{
				"type": "unocc",
				"energy": 0.00278,
				"method": "rhf"
			},
			{
				"type": "unocc",
				"energy": 0.01405,
				"method": "rhf"
			},
			{
				"type": "unocc",
				"energy": 0.04089,
				"method": "rhf"
			}
		],
		"cosmo_sigma_profile": { 
			"-0.025": 0.0,
			"-0.024": 0.0,
			"-0.023": 0.0,
			"-0.022": 0.0,
			"-0.021": 0.0,
			"-0.02": 0.0,
			"-0.019": 0.0,
			"-0.018": 0.0,
			"-0.017": 0.0,
			"-0.016": 0.0,
			"-0.015": 0.0,
			"-0.014": 0.0,
			"-0.013": 0.0,
			"-0.012": 0.0,
			"-0.011": 0.0,
			"-0.01": 0.0,
			"-0.009": 0.0355743744399,
			"-0.008": 0.329135429181,
			"-0.007": 2.87811527194,
			"-0.006": 8.24246523339,
			"-0.005": 18.2500074091,
			"-0.004": 29.2001013279,
			"-0.003": 47.340995339,
			"-0.002": 48.5078341983,
			"-0.001": 44.1220557721,
			"0.0": 45.2968615658,
			"0.001": 37.1953378528,
			"0.002": 25.6995624342,
			"0.003": 26.3390272426,
			"0.004": 29.268194538,
			"0.005": 17.5837610929,
			"0.006": 3.47232139562,
			"0.007": 2.59272749059,
			"0.008": 3.14637106733,
			"0.009": 3.11555358685,
			"0.01": 2.41537237628,
			"0.011": 1.31645716102,
			"0.012": 1.68578681079,
			"0.013": 1.94591024208,
			"0.014": 1.3391606613,
			"0.015": 0.0210564976676,
			"0.016": 0.0,
			"0.017": 0.0,
			"0.018": 0.0,
			"0.019": 0.0,
			"0.02": 0.0,
			"0.021": 0.0,
			"0.022": 0.0,
			"0.023": 0.0,
			"0.024": 0.0,
			"0.025": 0.0
		}
	}
}
