{
	 "smiles": "FC1=CC(C=O)=C(Br)C=C1", 
	 "Tm": 327.15, 
	 "num_atms": 14, 
	 "gaussian": { 
		 "optdone": 1, 
		 "sigma_profile": "yes", 
		 "theory": "DFT", 
		 "functional": "B3LYP", 
		 "basiset": "6-31G**", 
		 "properties": { 
			 "R2extent": 3293.3252, 
			 "electric_dipole_moment_norm": 2.90447613521, 
			 "electric_quadrupole_moment_norm": 3.60422927545, 
			 "total_energy": -3015.60259911, 
			 "HOMO_LUMO_gap": 0.17472, 
			 "cosmo_polarized_energy": -6.2, 
			 "cosmo_cavitation_energy": 21.65, 
			 "cosmo_dispersion_energy": -16.18, 
			 "cosmo_repulsion_energy": 1.27, 
			 "cosmo_total_nonelectrostatic_energy": 6.74, 
			 "SMD_solvation_energy": 4.31 
		},
		"coords": [
			{
				"x": 0.5096112098,
				"y": 1.2229622647,
				"z": 2.3052753326,
				"element": "F" 
			},
			{
				"x": 0.236738486,
				"y": 1.233290869,
				"z": 0.9879251013,
				"element": "C" 
			},
			{
				"x": 0.8900857523,
				"y": 0.3473189301,
				"z": 0.1503625947,
				"element": "C" 
			},
			{
				"x": 0.6096351708,
				"y": 0.3532720022,
				"z": -1.2250086219,
				"element": "C" 
			},
			{
				"x": 1.3444292844,
				"y": -0.6237221124,
				"z": -2.0778423842,
				"element": "C" 
			},
			{
				"x": 2.1598954935,
				"y": -1.4078291218,
				"z": -1.6323623086,
				"element": "O" 
			},
			{
				"x": -0.3350988436,
				"y": 1.2667071548,
				"z": -1.7175729853,
				"element": "C" 
			},
			{
				"x": -0.7835118254,
				"y": 1.3491221357,
				"z": -3.5776465492,
				"element": "Br" 
			},
			{
				"x": -0.986849021,
				"y": 2.1550357182,
				"z": -0.8613650077,
				"element": "C" 
			},
			{
				"x": -0.7017972803,
				"y": 2.1416323698,
				"z": 0.5023193177,
				"element": "C" 
			},
			{
				"x": 1.6200527575,
				"y": -0.3582370302,
				"z": 0.5321144038,
				"element": "H" 
			},
			{
				"x": 1.1032902888,
				"y": -0.5957972864,
				"z": -3.1555731137,
				"element": "H" 
			},
			{
				"x": -1.7134661972,
				"y": 2.8533866996,
				"z": -1.2599737959,
				"element": "H" 
			},
			{
				"x": -1.1961152755,
				"y": 2.8228574068,
				"z": 1.1863480164,
				"element": "H" 
			}
		],
		 "valence_orbital": [ 
			{
				"type": "occ",
				"energy": -0.32511,
				"method": "rhf"
			},
			{
				"type": "occ",
				"energy": -0.31021,
				"method": "rhf"
			},
			{
				"type": "occ",
				"energy": -0.286,
				"method": "rhf"
			},
			{
				"type": "occ",
				"energy": -0.26614,
				"method": "rhf"
			},
			{
				"type": "occ",
				"energy": -0.25684,
				"method": "rhf"
			},
			{
				"type": "unocc",
				"energy": -0.08212,
				"method": "rhf"
			},
			{
				"type": "unocc",
				"energy": -0.02899,
				"method": "rhf"
			},
			{
				"type": "unocc",
				"energy": -0.01121,
				"method": "rhf"
			},
			{
				"type": "unocc",
				"energy": 0.02353,
				"method": "rhf"
			},
			{
				"type": "unocc",
				"energy": 0.0896,
				"method": "rhf"
			}
		],
		"cosmo_sigma_profile": { 
			"-0.025": 0.0,
			"-0.024": 0.0,
			"-0.023": 0.0,
			"-0.022": 0.0,
			"-0.021": 0.0,
			"-0.02": 0.0,
			"-0.019": 0.0,
			"-0.018": 0.0,
			"-0.017": 0.0,
			"-0.016": 0.0,
			"-0.015": 0.0,
			"-0.014": 0.0,
			"-0.013": 0.0,
			"-0.012": 0.0,
			"-0.011": 0.0,
			"-0.01": 0.0,
			"-0.009": 1.19519362695,
			"-0.008": 4.4766009704,
			"-0.007": 5.76518590169,
			"-0.006": 6.39606307995,
			"-0.005": 9.35564110748,
			"-0.004": 10.8613998522,
			"-0.003": 9.99465163069,
			"-0.002": 11.9345399399,
			"-0.001": 19.3961227419,
			"0.0": 24.916386188,
			"0.001": 17.7280320207,
			"0.002": 10.3815762281,
			"0.003": 15.5789680367,
			"0.004": 13.5907787453,
			"0.005": 1.66196262202,
			"0.006": 1.10985846088,
			"0.007": 1.99279613478,
			"0.008": 2.05746747089,
			"0.009": 2.23126095109,
			"0.01": 3.45084059179,
			"0.011": 3.08398701349,
			"0.012": 1.15539647404,
			"0.013": 0.0410737240617,
			"0.014": 0.0,
			"0.015": 0.0,
			"0.016": 0.0,
			"0.017": 0.0,
			"0.018": 0.0,
			"0.019": 0.0,
			"0.02": 0.0,
			"0.021": 0.0,
			"0.022": 0.0,
			"0.023": 0.0,
			"0.024": 0.0,
			"0.025": 0.0
		}
	}
}
