{
	 "smiles": "OC1=CC=NC2=C1C=CC=C2C(F)(F)F", 
	 "Tm": 445.15, 
	 "num_atms": 21, 
	 "gaussian": { 
		 "optdone": 1, 
		 "sigma_profile": "yes", 
		 "theory": "DFT", 
		 "functional": "B3LYP", 
		 "basiset": "6-31G**", 
		 "properties": { 
			 "R2extent": 3986.8452, 
			 "electric_dipole_moment_norm": 4.74382124663, 
			 "electric_quadrupole_moment_norm": 12.7505937097, 
			 "total_energy": -814.182021384, 
			 "HOMO_LUMO_gap": 0.17405, 
			 "cosmo_polarized_energy": -13.15, 
			 "cosmo_cavitation_energy": 26.43, 
			 "cosmo_dispersion_energy": -19.44, 
			 "cosmo_repulsion_energy": 1.43, 
			 "cosmo_total_nonelectrostatic_energy": 8.42, 
			 "SMD_solvation_energy": 5.01 
		},
		"coords": [
			{
				"x": 2.9141769227,
				"y": -0.6723610855,
				"z": -0.4961274625,
				"element": "O" 
			},
			{
				"x": 2.0161701394,
				"y": 0.3087857501,
				"z": -0.7550499616,
				"element": "C" 
			},
			{
				"x": 2.2214954423,
				"y": 1.0972087203,
				"z": -1.869203039,
				"element": "C" 
			},
			{
				"x": 1.2963216957,
				"y": 2.1205109374,
				"z": -2.15092668,
				"element": "C" 
			},
			{
				"x": 0.2284132177,
				"y": 2.3942878093,
				"z": -1.4245584049,
				"element": "N" 
			},
			{
				"x": 0.0095752489,
				"y": 1.6282199921,
				"z": -0.3232906212,
				"element": "C" 
			},
			{
				"x": 0.8762276914,
				"y": 0.5558000983,
				"z": 0.0723148226,
				"element": "C" 
			},
			{
				"x": 0.5737863825,
				"y": -0.194888503,
				"z": 1.2373626474,
				"element": "C" 
			},
			{
				"x": -0.5401012214,
				"y": 0.0945750835,
				"z": 1.9905801541,
				"element": "C" 
			},
			{
				"x": -1.3996802834,
				"y": 1.1486162653,
				"z": 1.6093316583,
				"element": "C" 
			},
			{
				"x": -1.1396728747,
				"y": 1.9003330341,
				"z": 0.4841899372,
				"element": "C" 
			},
			{
				"x": -2.0769349947,
				"y": 3.0232261057,
				"z": 0.0988388675,
				"element": "C" 
			},
			{
				"x": -3.1024136846,
				"y": 3.1227362773,
				"z": 0.9845239593,
				"element": "F" 
			},
			{
				"x": -1.459044642,
				"y": 4.219149088,
				"z": 0.0863004393,
				"element": "F" 
			},
			{
				"x": -2.6298151547,
				"y": 2.8303461715,
				"z": -1.1132676008,
				"element": "F" 
			},
			{
				"x": 2.6695283724,
				"y": -1.1529713254,
				"z": 0.3043457631,
				"element": "H" 
			},
			{
				"x": 3.0810066618,
				"y": 0.9221688696,
				"z": -2.5060233985,
				"element": "H" 
			},
			{
				"x": 1.4530235417,
				"y": 2.7461260851,
				"z": -3.0286303192,
				"element": "H" 
			},
			{
				"x": 1.2164756871,
				"y": -1.0130946608,
				"z": 1.5566069509,
				"element": "H" 
			},
			{
				"x": -0.7642456926,
				"y": -0.4844867223,
				"z": 2.8805224689,
				"element": "H" 
			},
			{
				"x": -2.2753924558,
				"y": 1.3711120093,
				"z": 2.2070598192,
				"element": "H" 
			}
		],
		 "valence_orbital": [ 
			{
				"type": "occ",
				"energy": -0.3555,
				"method": "rhf"
			},
			{
				"type": "occ",
				"energy": -0.29362,
				"method": "rhf"
			},
			{
				"type": "occ",
				"energy": -0.2668,
				"method": "rhf"
			},
			{
				"type": "occ",
				"energy": -0.26091,
				"method": "rhf"
			},
			{
				"type": "occ",
				"energy": -0.2381,
				"method": "rhf"
			},
			{
				"type": "unocc",
				"energy": -0.06405,
				"method": "rhf"
			},
			{
				"type": "unocc",
				"energy": -0.0302,
				"method": "rhf"
			},
			{
				"type": "unocc",
				"energy": 0.00867,
				"method": "rhf"
			},
			{
				"type": "unocc",
				"energy": 0.03862,
				"method": "rhf"
			},
			{
				"type": "unocc",
				"energy": 0.07512,
				"method": "rhf"
			}
		],
		"cosmo_sigma_profile": { 
			"-0.025": 0.0,
			"-0.024": 0.0,
			"-0.023": 0.0,
			"-0.022": 0.0,
			"-0.021": 0.0,
			"-0.02": 0.0,
			"-0.019": 0.715048614958,
			"-0.018": 1.05167848228,
			"-0.017": 1.01597886547,
			"-0.016": 0.986933074895,
			"-0.015": 0.997448769245,
			"-0.014": 0.774851886437,
			"-0.013": 0.497847851309,
			"-0.012": 1.80997979277,
			"-0.011": 1.35085812923,
			"-0.01": 0.999571156921,
			"-0.009": 1.02534386446,
			"-0.008": 2.03763316042,
			"-0.007": 8.16967082513,
			"-0.006": 10.6102425172,
			"-0.005": 9.10135636121,
			"-0.004": 7.25865243163,
			"-0.003": 8.32530818916,
			"-0.002": 9.41370286095,
			"-0.001": 10.8410202818,
			"0.0": 17.0014571517,
			"0.001": 24.5754001389,
			"0.002": 27.2913027276,
			"0.003": 31.9381948269,
			"0.004": 9.66893259915,
			"0.005": 5.16390007646,
			"0.006": 3.38823796735,
			"0.007": 3.76874578546,
			"0.008": 3.84087695673,
			"0.009": 3.08740559846,
			"0.01": 2.24198739259,
			"0.011": 1.53130027279,
			"0.012": 1.40047247546,
			"0.013": 1.07901615587,
			"0.014": 0.282211112004,
			"0.015": 0.0,
			"0.016": 0.0,
			"0.017": 0.0,
			"0.018": 0.0,
			"0.019": 0.0,
			"0.02": 0.0,
			"0.021": 0.0,
			"0.022": 0.0,
			"0.023": 0.0,
			"0.024": 0.0,
			"0.025": 0.0
		}
	}
}
