{
	 "smiles": "COC(=O)N1CCCNC(=O)C1", 
	 "Tm": 408.15, 
	 "num_atms": 24, 
	 "gaussian": { 
		 "optdone": 1, 
		 "sigma_profile": "yes", 
		 "theory": "DFT", 
		 "functional": "B3LYP", 
		 "basiset": "6-31G**", 
		 "properties": { 
			 "R2extent": 2183.4622, 
			 "electric_dipole_moment_norm": 5.08408653152, 
			 "electric_quadrupole_moment_norm": 10.1166790598, 
			 "total_energy": -609.176053124, 
			 "HOMO_LUMO_gap": 0.26092, 
			 "cosmo_polarized_energy": -15.63, 
			 "cosmo_cavitation_energy": 26.26, 
			 "cosmo_dispersion_energy": -19.31, 
			 "cosmo_repulsion_energy": 1.56, 
			 "cosmo_total_nonelectrostatic_energy": 8.51, 
			 "SMD_solvation_energy": 5.62 
		},
		"coords": [
			{
				"x": -3.3934276161,
				"y": -1.1153369042,
				"z": 0.2195788313,
				"element": "C" 
			},
			{
				"x": -2.0322496811,
				"y": -0.9182085656,
				"z": 0.6260369776,
				"element": "O" 
			},
			{
				"x": -1.1638456807,
				"y": -0.7020062601,
				"z": -0.4014171707,
				"element": "C" 
			},
			{
				"x": -1.5058411906,
				"y": -0.6375366189,
				"z": -1.5708658842,
				"element": "O" 
			},
			{
				"x": 0.1201426996,
				"y": -0.5699352848,
				"z": 0.05655251,
				"element": "N" 
			},
			{
				"x": 0.4671621826,
				"y": -0.5906611563,
				"z": 1.4777322525,
				"element": "C" 
			},
			{
				"x": 0.2688427758,
				"y": 0.7882111692,
				"z": 2.1406808025,
				"element": "C" 
			},
			{
				"x": 0.566068632,
				"y": 1.9258572768,
				"z": 1.1523487348,
				"element": "C" 
			},
			{
				"x": 1.8310966778,
				"y": 1.7633246461,
				"z": 0.4369932947,
				"element": "N" 
			},
			{
				"x": 2.1521543129,
				"y": 0.8621649522,
				"z": -0.5435330869,
				"element": "C" 
			},
			{
				"x": 3.2177145135,
				"y": 0.9253369365,
				"z": -1.1430184445,
				"element": "O" 
			},
			{
				"x": 1.171108338,
				"y": -0.2625858641,
				"z": -0.9052635828,
				"element": "C" 
			},
			{
				"x": -3.7685854746,
				"y": -0.2422514402,
				"z": -0.3198469233,
				"element": "H" 
			},
			{
				"x": -3.9545735779,
				"y": -1.2644988527,
				"z": 1.1425987174,
				"element": "H" 
			},
			{
				"x": -3.4829726764,
				"y": -1.9920185737,
				"z": -0.4268094099,
				"element": "H" 
			},
			{
				"x": 1.5178954436,
				"y": -0.8890164895,
				"z": 1.5410131591,
				"element": "H" 
			},
			{
				"x": -0.1204071361,
				"y": -1.3550636349,
				"z": 1.9878608928,
				"element": "H" 
			},
			{
				"x": -0.7667545667,
				"y": 0.8941759871,
				"z": 2.4817114555,
				"element": "H" 
			},
			{
				"x": 0.9163278256,
				"y": 0.8622718308,
				"z": 3.0219834494,
				"element": "H" 
			},
			{
				"x": 0.6184101558,
				"y": 2.878951733,
				"z": 1.6854260013,
				"element": "H" 
			},
			{
				"x": -0.2583616316,
				"y": 2.0159264001,
				"z": 0.4365179455,
				"element": "H" 
			},
			{
				"x": 2.5524707529,
				"y": 2.4599376682,
				"z": 0.5671427024,
				"element": "H" 
			},
			{
				"x": 0.6925066643,
				"y": -0.010441858,
				"z": -1.8548543179,
				"element": "H" 
			},
			{
				"x": 1.8047182573,
				"y": -1.1386970969,
				"z": -1.0895689065,
				"element": "H" 
			}
		],
		 "valence_orbital": [ 
			{
				"type": "occ",
				"energy": -0.29921,
				"method": "rhf"
			},
			{
				"type": "occ",
				"energy": -0.27377,
				"method": "rhf"
			},
			{
				"type": "occ",
				"energy": -0.25906,
				"method": "rhf"
			},
			{
				"type": "occ",
				"energy": -0.25232,
				"method": "rhf"
			},
			{
				"type": "occ",
				"energy": -0.23854,
				"method": "rhf"
			},
			{
				"type": "unocc",
				"energy": 0.02238,
				"method": "rhf"
			},
			{
				"type": "unocc",
				"energy": 0.04703,
				"method": "rhf"
			},
			{
				"type": "unocc",
				"energy": 0.06916,
				"method": "rhf"
			},
			{
				"type": "unocc",
				"energy": 0.09455,
				"method": "rhf"
			},
			{
				"type": "unocc",
				"energy": 0.10805,
				"method": "rhf"
			}
		],
		"cosmo_sigma_profile": { 
			"-0.025": 0.0,
			"-0.024": 0.0,
			"-0.023": 0.0,
			"-0.022": 0.0,
			"-0.021": 0.0,
			"-0.02": 0.0,
			"-0.019": 0.0,
			"-0.018": 0.0,
			"-0.017": 0.0,
			"-0.016": 0.0,
			"-0.015": 0.0,
			"-0.014": 0.361520879136,
			"-0.013": 1.35773617337,
			"-0.012": 0.897754454452,
			"-0.011": 1.23537875703,
			"-0.01": 1.03018579695,
			"-0.009": 1.31000458821,
			"-0.008": 1.05103134516,
			"-0.007": 1.86512288376,
			"-0.006": 11.0813298463,
			"-0.005": 19.7825272917,
			"-0.004": 24.0344341154,
			"-0.003": 28.6016104104,
			"-0.002": 19.4541146374,
			"-0.001": 14.3508198128,
			"0.0": 11.4401569131,
			"0.001": 9.17312528356,
			"0.002": 6.34458423937,
			"0.003": 5.38715655272,
			"0.004": 5.21311563266,
			"0.005": 4.31482324786,
			"0.006": 3.87582127558,
			"0.007": 2.51885729996,
			"0.008": 2.35437607234,
			"0.009": 2.16215561897,
			"0.01": 2.0021331357,
			"0.011": 3.55786298854,
			"0.012": 4.23928883104,
			"0.013": 8.38118746169,
			"0.014": 6.52800313007,
			"0.015": 1.47575953571,
			"0.016": 0.0,
			"0.017": 0.0,
			"0.018": 0.0,
			"0.019": 0.0,
			"0.02": 0.0,
			"0.021": 0.0,
			"0.022": 0.0,
			"0.023": 0.0,
			"0.024": 0.0,
			"0.025": 0.0
		}
	}
}
