{
	 "smiles": "CCC(Br)(CC)C(=O)NC(=O)NC(C)=O", 
	 "Tm": 382.15, 
	 "num_atms": 30, 
	 "gaussian": { 
		 "optdone": 1, 
		 "sigma_profile": "yes", 
		 "theory": "DFT", 
		 "functional": "B3LYP", 
		 "basiset": "6-31G**", 
		 "properties": { 
			 "R2extent": 4593.0433, 
			 "electric_dipole_moment_norm": 4.90738420444, 
			 "electric_quadrupole_moment_norm": 12.0179448572, 
			 "total_energy": -3258.62370062, 
			 "HOMO_LUMO_gap": 0.20453, 
			 "cosmo_polarized_energy": -18.31, 
			 "cosmo_cavitation_energy": 34.3, 
			 "cosmo_dispersion_energy": -23.73, 
			 "cosmo_repulsion_energy": 1.87, 
			 "cosmo_total_nonelectrostatic_energy": 12.43, 
			 "SMD_solvation_energy": 7.45 
		},
		"coords": [
			{
				"x": 1.3635466909,
				"y": -1.2011224688,
				"z": 2.6728687212,
				"element": "C" 
			},
			{
				"x": 1.3061785188,
				"y": 0.3266053356,
				"z": 2.5268158577,
				"element": "C" 
			},
			{
				"x": 1.1507822044,
				"y": 0.9356371638,
				"z": 1.1215521338,
				"element": "C" 
			},
			{
				"x": 2.5634094575,
				"y": 0.1277630564,
				"z": -0.0786130959,
				"element": "Br" 
			},
			{
				"x": 1.338400599,
				"y": 2.4701543404,
				"z": 1.1178518626,
				"element": "C" 
			},
			{
				"x": 2.6556678469,
				"y": 3.0133467295,
				"z": 1.6751400295,
				"element": "C" 
			},
			{
				"x": -0.1809940256,
				"y": 0.6699186403,
				"z": 0.3645036913,
				"element": "C" 
			},
			{
				"x": -0.379727051,
				"y": 1.1277191518,
				"z": -0.7423360152,
				"element": "O" 
			},
			{
				"x": -1.1376940451,
				"y": -0.0718920981,
				"z": 1.0561399695,
				"element": "N" 
			},
			{
				"x": -2.5269281174,
				"y": -0.1269526165,
				"z": 0.7786719724,
				"element": "C" 
			},
			{
				"x": -3.3169379515,
				"y": -0.0417484032,
				"z": 1.7019941513,
				"element": "O" 
			},
			{
				"x": -2.9432447881,
				"y": -0.2656410469,
				"z": -0.5297431241,
				"element": "N" 
			},
			{
				"x": -2.421623314,
				"y": -0.8614614152,
				"z": -1.70302767,
				"element": "C" 
			},
			{
				"x": -1.1294142475,
				"y": -1.6398099094,
				"z": -1.6449383591,
				"element": "C" 
			},
			{
				"x": -3.0937958251,
				"y": -0.7786027537,
				"z": -2.7107454616,
				"element": "O" 
			},
			{
				"x": 0.4944708228,
				"y": -1.7148754699,
				"z": 2.2533528326,
				"element": "H" 
			},
			{
				"x": 2.2488917366,
				"y": -1.5983754912,
				"z": 2.1728027844,
				"element": "H" 
			},
			{
				"x": 1.4257828899,
				"y": -1.4627935777,
				"z": 3.7334418095,
				"element": "H" 
			},
			{
				"x": 0.4979245131,
				"y": 0.7447574307,
				"z": 3.1475473726,
				"element": "H" 
			},
			{
				"x": 2.226298489,
				"y": 0.7355255205,
				"z": 2.9515941782,
				"element": "H" 
			},
			{
				"x": 0.498394676,
				"y": 2.8841360033,
				"z": 1.6960800819,
				"element": "H" 
			},
			{
				"x": 1.197108146,
				"y": 2.8073446634,
				"z": 0.0886904207,
				"element": "H" 
			},
			{
				"x": 2.686187818,
				"y": 4.0979807448,
				"z": 1.5353519316,
				"element": "H" 
			},
			{
				"x": 3.5132024303,
				"y": 2.5827035185,
				"z": 1.1516266577,
				"element": "H" 
			},
			{
				"x": 2.7738022261,
				"y": 2.8216852846,
				"z": 2.7457827635,
				"element": "H" 
			},
			{
				"x": -0.9922468338,
				"y": -0.1930405863,
				"z": 2.049592996,
				"element": "H" 
			},
			{
				"x": -3.9216916258,
				"y": -0.0226308764,
				"z": -0.642230871,
				"element": "H" 
			},
			{
				"x": -1.2063082833,
				"y": -2.4420548096,
				"z": -2.3800938416,
				"element": "H" 
			},
			{
				"x": -0.9221977206,
				"y": -2.0553350602,
				"z": -0.6577569226,
				"element": "H" 
			},
			{
				"x": -0.3000452366,
				"y": -0.9880410004,
				"z": -1.9289168568,
				"element": "H" 
			}
		],
		 "valence_orbital": [ 
			{
				"type": "occ",
				"energy": -0.29436,
				"method": "rhf"
			},
			{
				"type": "occ",
				"energy": -0.28656,
				"method": "rhf"
			},
			{
				"type": "occ",
				"energy": -0.28411,
				"method": "rhf"
			},
			{
				"type": "occ",
				"energy": -0.27667,
				"method": "rhf"
			},
			{
				"type": "occ",
				"energy": -0.26536,
				"method": "rhf"
			},
			{
				"type": "unocc",
				"energy": -0.06083,
				"method": "rhf"
			},
			{
				"type": "unocc",
				"energy": -0.02238,
				"method": "rhf"
			},
			{
				"type": "unocc",
				"energy": 0.01377,
				"method": "rhf"
			},
			{
				"type": "unocc",
				"energy": 0.0412,
				"method": "rhf"
			},
			{
				"type": "unocc",
				"energy": 0.05212,
				"method": "rhf"
			}
		],
		"cosmo_sigma_profile": { 
			"-0.025": 0.0,
			"-0.024": 0.0,
			"-0.023": 0.0,
			"-0.022": 0.0,
			"-0.021": 0.0,
			"-0.02": 0.0,
			"-0.019": 0.0,
			"-0.018": 0.0,
			"-0.017": 0.0,
			"-0.016": 0.229214466996,
			"-0.015": 0.7066126606,
			"-0.014": 1.71992893434,
			"-0.013": 2.42700292495,
			"-0.012": 1.73730833075,
			"-0.011": 2.02867110862,
			"-0.01": 2.6575718228,
			"-0.009": 2.39180734315,
			"-0.008": 3.6423804701,
			"-0.007": 5.24151045642,
			"-0.006": 8.23112845437,
			"-0.005": 14.2018862205,
			"-0.004": 21.5091245202,
			"-0.003": 27.6520875391,
			"-0.002": 28.4371861188,
			"-0.001": 23.7649989631,
			"0.0": 22.488789691,
			"0.001": 16.0974953998,
			"0.002": 10.3089045786,
			"0.003": 11.1924650676,
			"0.004": 10.864274996,
			"0.005": 7.9720087251,
			"0.006": 5.32762750628,
			"0.007": 5.27251618522,
			"0.008": 4.51837984497,
			"0.009": 4.78023988635,
			"0.01": 7.1177684132,
			"0.011": 11.3553115717,
			"0.012": 7.1576780434,
			"0.013": 0.90890244619,
			"0.014": 0.0,
			"0.015": 0.0,
			"0.016": 0.0,
			"0.017": 0.0,
			"0.018": 0.0,
			"0.019": 0.0,
			"0.02": 0.0,
			"0.021": 0.0,
			"0.022": 0.0,
			"0.023": 0.0,
			"0.024": 0.0,
			"0.025": 0.0
		}
	}
}
