{
	 "smiles": "CCOC(=O)C1=COC(N)=N1", 
	 "Tm": 399.15, 
	 "num_atms": 19, 
	 "gaussian": { 
		 "optdone": 1, 
		 "sigma_profile": "yes", 
		 "theory": "DFT", 
		 "functional": "B3LYP", 
		 "basiset": "6-31G**", 
		 "properties": { 
			 "R2extent": 2759.5189, 
			 "electric_dipole_moment_norm": 2.81578819338, 
			 "electric_quadrupole_moment_norm": 13.159828508, 
			 "total_energy": -568.632352824, 
			 "HOMO_LUMO_gap": 0.19409, 
			 "cosmo_polarized_energy": -15.04, 
			 "cosmo_cavitation_energy": 24.23, 
			 "cosmo_dispersion_energy": -17.94, 
			 "cosmo_repulsion_energy": 1.48, 
			 "cosmo_total_nonelectrostatic_energy": 7.77, 
			 "SMD_solvation_energy": 4.7 
		},
		"coords": [
			{
				"x": 2.7209410604,
				"y": 0.6497714228,
				"z": -2.8230062115,
				"element": "C" 
			},
			{
				"x": 1.7942536318,
				"y": -0.4870483693,
				"z": -3.2282434938,
				"element": "C" 
			},
			{
				"x": 0.526415553,
				"y": -0.4036669822,
				"z": -2.5365140405,
				"element": "O" 
			},
			{
				"x": 0.4774353453,
				"y": -0.9654963074,
				"z": -1.3151090278,
				"element": "C" 
			},
			{
				"x": 1.411561584,
				"y": -1.528942517,
				"z": -0.7718472383,
				"element": "O" 
			},
			{
				"x": -0.8515350355,
				"y": -0.8323868214,
				"z": -0.6878381567,
				"element": "C" 
			},
			{
				"x": -1.1724025344,
				"y": -1.3155393696,
				"z": 0.5405461436,
				"element": "C" 
			},
			{
				"x": -2.4897652954,
				"y": -1.0014329872,
				"z": 0.7783729986,
				"element": "O" 
			},
			{
				"x": -2.8789435919,
				"y": -0.3328882744,
				"z": -0.3468988471,
				"element": "C" 
			},
			{
				"x": -4.1938622236,
				"y": 0.0470187282,
				"z": -0.4052216968,
				"element": "N" 
			},
			{
				"x": -1.9585682038,
				"y": -0.1938960209,
				"z": -1.2508881918,
				"element": "N" 
			},
			{
				"x": 2.9927425408,
				"y": 0.565023608,
				"z": -1.7680701225,
				"element": "H" 
			},
			{
				"x": 3.6391439843,
				"y": 0.6112660222,
				"z": -3.4187750694,
				"element": "H" 
			},
			{
				"x": 2.2425153131,
				"y": 1.6192764629,
				"z": -2.989940852,
				"element": "H" 
			},
			{
				"x": 2.2485711711,
				"y": -1.4586622693,
				"z": -3.0194749786,
				"element": "H" 
			},
			{
				"x": 1.5277843346,
				"y": -0.4287985276,
				"z": -4.2861854333,
				"element": "H" 
			},
			{
				"x": -0.640778242,
				"y": -1.8508606175,
				"z": 1.3082771757,
				"element": "H" 
			},
			{
				"x": -4.6300846044,
				"y": 0.2459013077,
				"z": 0.4841360241,
				"element": "H" 
			},
			{
				"x": -4.3807247874,
				"y": 0.7301615121,
				"z": -1.1253189819,
				"element": "H" 
			}
		],
		 "valence_orbital": [ 
			{
				"type": "occ",
				"energy": -0.30756,
				"method": "rhf"
			},
			{
				"type": "occ",
				"energy": -0.29139,
				"method": "rhf"
			},
			{
				"type": "occ",
				"energy": -0.29059,
				"method": "rhf"
			},
			{
				"type": "occ",
				"energy": -0.26837,
				"method": "rhf"
			},
			{
				"type": "occ",
				"energy": -0.22126,
				"method": "rhf"
			},
			{
				"type": "unocc",
				"energy": -0.02717,
				"method": "rhf"
			},
			{
				"type": "unocc",
				"energy": 0.03469,
				"method": "rhf"
			},
			{
				"type": "unocc",
				"energy": 0.07126,
				"method": "rhf"
			},
			{
				"type": "unocc",
				"energy": 0.11338,
				"method": "rhf"
			},
			{
				"type": "unocc",
				"energy": 0.1155,
				"method": "rhf"
			}
		],
		"cosmo_sigma_profile": { 
			"-0.025": 0.0,
			"-0.024": 0.0,
			"-0.023": 0.0,
			"-0.022": 0.0,
			"-0.021": 0.0,
			"-0.02": 0.0,
			"-0.019": 0.0,
			"-0.018": 0.0,
			"-0.017": 0.0,
			"-0.016": 0.0,
			"-0.015": 1.19255057398,
			"-0.014": 2.9709714178,
			"-0.013": 2.34667817675,
			"-0.012": 2.108361546,
			"-0.011": 2.94119692577,
			"-0.01": 4.02985112265,
			"-0.009": 2.6934046636,
			"-0.008": 3.25555814663,
			"-0.007": 3.11230088144,
			"-0.006": 3.89265947722,
			"-0.005": 7.43707271729,
			"-0.004": 13.2481862641,
			"-0.003": 15.6658192375,
			"-0.002": 17.1536715014,
			"-0.001": 15.4461767451,
			"0.0": 18.8553566443,
			"0.001": 12.8186382221,
			"0.002": 6.929181514,
			"0.003": 7.07596880451,
			"0.004": 6.55218577102,
			"0.005": 6.21473039122,
			"0.006": 4.9714766358,
			"0.007": 4.41485781126,
			"0.008": 2.9436509629,
			"0.009": 3.88105205444,
			"0.01": 4.35072952043,
			"0.011": 3.90546343486,
			"0.012": 5.98714455607,
			"0.013": 1.96665608824,
			"0.014": 1.29254487502,
			"0.015": 1.4302213549,
			"0.016": 1.1678285434,
			"0.017": 0.138315349279,
			"0.018": 0.0,
			"0.019": 0.0,
			"0.02": 0.0,
			"0.021": 0.0,
			"0.022": 0.0,
			"0.023": 0.0,
			"0.024": 0.0,
			"0.025": 0.0
		}
	}
}
