{
	 "smiles": "CCNC1=NN=C(C)C=C1", 
	 "Tm": 373.15, 
	 "num_atms": 21, 
	 "gaussian": { 
		 "optdone": 1, 
		 "sigma_profile": "yes", 
		 "theory": "DFT", 
		 "functional": "B3LYP", 
		 "basiset": "6-31G**", 
		 "properties": { 
			 "R2extent": 2218.2761, 
			 "electric_dipole_moment_norm": 4.00607730704, 
			 "electric_quadrupole_moment_norm": 10.5084028334, 
			 "total_energy": -437.604244087, 
			 "HOMO_LUMO_gap": 0.17577, 
			 "cosmo_polarized_energy": -12.57, 
			 "cosmo_cavitation_energy": 24.21, 
			 "cosmo_dispersion_energy": -17.9, 
			 "cosmo_repulsion_energy": 1.48, 
			 "cosmo_total_nonelectrostatic_energy": 7.79, 
			 "SMD_solvation_energy": 1.84 
		},
		"coords": [
			{
				"x": 2.3728852412,
				"y": -1.2427892956,
				"z": 0.3564841607,
				"element": "C" 
			},
			{
				"x": 1.8031040224,
				"y": 0.0203021422,
				"z": 1.0172094415,
				"element": "C" 
			},
			{
				"x": 0.3804739571,
				"y": 0.2321546583,
				"z": 0.8033072419,
				"element": "N" 
			},
			{
				"x": -0.1815232827,
				"y": 0.5893875795,
				"z": -0.4003722061,
				"element": "C" 
			},
			{
				"x": -1.5024964542,
				"y": 0.3426864623,
				"z": -0.4984958257,
				"element": "N" 
			},
			{
				"x": -2.1755581492,
				"y": 0.69597474,
				"z": -1.5876467558,
				"element": "N" 
			},
			{
				"x": -1.558172391,
				"y": 1.2906726232,
				"z": -2.6143267768,
				"element": "C" 
			},
			{
				"x": -2.4128082212,
				"y": 1.6466333384,
				"z": -3.8027491862,
				"element": "C" 
			},
			{
				"x": -0.1766352452,
				"y": 1.5575490402,
				"z": -2.5729135169,
				"element": "C" 
			},
			{
				"x": 0.5381896723,
				"y": 1.2033242777,
				"z": -1.4503281773,
				"element": "C" 
			},
			{
				"x": 2.2341488904,
				"y": -1.2184844052,
				"z": -0.7288103185,
				"element": "H" 
			},
			{
				"x": 1.8748061244,
				"y": -2.1398758051,
				"z": 0.7380794584,
				"element": "H" 
			},
			{
				"x": 3.4450581363,
				"y": -1.3352367628,
				"z": 0.5609689248,
				"element": "H" 
			},
			{
				"x": 2.3475736237,
				"y": 0.9066025129,
				"z": 0.6710271661,
				"element": "H" 
			},
			{
				"x": 1.9616256345,
				"y": -0.0212899179,
				"z": 2.0998136332,
				"element": "H" 
			},
			{
				"x": -0.2595106591,
				"y": -0.3088708573,
				"z": 1.3712164012,
				"element": "H" 
			},
			{
				"x": -2.4016801225,
				"y": 2.7255480526,
				"z": -3.9974970659,
				"element": "H" 
			},
			{
				"x": -3.4421488365,
				"y": 1.3386490874,
				"z": -3.6105630367,
				"element": "H" 
			},
			{
				"x": -2.0631714891,
				"y": 1.1479508621,
				"z": -4.7144447947,
				"element": "H" 
			},
			{
				"x": 0.3153665911,
				"y": 2.0343432549,
				"z": -3.4165326063,
				"element": "H" 
			},
			{
				"x": 1.6037729571,
				"y": 1.3912684122,
				"z": -1.3765261609,
				"element": "H" 
			}
		],
		 "valence_orbital": [ 
			{
				"type": "occ",
				"energy": -0.31173,
				"method": "rhf"
			},
			{
				"type": "occ",
				"energy": -0.30136,
				"method": "rhf"
			},
			{
				"type": "occ",
				"energy": -0.28953,
				"method": "rhf"
			},
			{
				"type": "occ",
				"energy": -0.21563,
				"method": "rhf"
			},
			{
				"type": "occ",
				"energy": -0.20959,
				"method": "rhf"
			},
			{
				"type": "unocc",
				"energy": -0.03382,
				"method": "rhf"
			},
			{
				"type": "unocc",
				"energy": 0.00571,
				"method": "rhf"
			},
			{
				"type": "unocc",
				"energy": 0.08081,
				"method": "rhf"
			},
			{
				"type": "unocc",
				"energy": 0.09463,
				"method": "rhf"
			},
			{
				"type": "unocc",
				"energy": 0.12066,
				"method": "rhf"
			}
		],
		"cosmo_sigma_profile": { 
			"-0.025": 0.0,
			"-0.024": 0.0,
			"-0.023": 0.0,
			"-0.022": 0.0,
			"-0.021": 0.0,
			"-0.02": 0.0,
			"-0.019": 0.0,
			"-0.018": 0.0,
			"-0.017": 0.0,
			"-0.016": 0.0,
			"-0.015": 0.0,
			"-0.014": 0.0,
			"-0.013": 0.0337501230406,
			"-0.012": 0.686421542268,
			"-0.011": 1.360028335,
			"-0.01": 0.740557879229,
			"-0.009": 1.03128977277,
			"-0.008": 2.01979822303,
			"-0.007": 5.78172125895,
			"-0.006": 7.00858784076,
			"-0.005": 10.5721483695,
			"-0.004": 15.8443436226,
			"-0.003": 21.3400576475,
			"-0.002": 20.1867864663,
			"-0.001": 18.0615387434,
			"0.0": 20.1802419643,
			"0.001": 17.5774270627,
			"0.002": 10.4188603353,
			"0.003": 4.14611474556,
			"0.004": 3.94980781326,
			"0.005": 3.20434814699,
			"0.006": 3.81308990021,
			"0.007": 2.30236155822,
			"0.008": 2.82295459259,
			"0.009": 2.19426476197,
			"0.01": 2.00030854244,
			"0.011": 1.41775077629,
			"0.012": 2.15393389021,
			"0.013": 1.53929534606,
			"0.014": 2.07997758308,
			"0.015": 3.06216337384,
			"0.016": 2.31730728086,
			"0.017": 1.05944922575,
			"0.018": 0.0262067349774,
			"0.019": 0.0,
			"0.02": 0.0,
			"0.021": 0.0,
			"0.022": 0.0,
			"0.023": 0.0,
			"0.024": 0.0,
			"0.025": 0.0
		}
	}
}
