{
	 "smiles": "COC(=O)C1=CN=C(Cl)N=C1", 
	 "Tm": 351.15, 
	 "num_atms": 16, 
	 "gaussian": { 
		 "optdone": 1, 
		 "sigma_profile": "yes", 
		 "theory": "DFT", 
		 "functional": "B3LYP", 
		 "basiset": "6-31G**", 
		 "properties": { 
			 "R2extent": 4515.469, 
			 "electric_dipole_moment_norm": 3.88374373511, 
			 "electric_quadrupole_moment_norm": 15.8205716942, 
			 "total_energy": -951.790729554, 
			 "HOMO_LUMO_gap": 0.19831, 
			 "cosmo_polarized_energy": -9.46, 
			 "cosmo_cavitation_energy": 23.43, 
			 "cosmo_dispersion_energy": -17.56, 
			 "cosmo_repulsion_energy": 1.42, 
			 "cosmo_total_nonelectrostatic_energy": 7.29, 
			 "SMD_solvation_energy": 2.64 
		},
		"coords": [
			{
				"x": -3.1902455065,
				"y": 1.3350588069,
				"z": -0.3278233675,
				"element": "C" 
			},
			{
				"x": -2.6594043533,
				"y": 0.0565708762,
				"z": -0.7229202461,
				"element": "O" 
			},
			{
				"x": -1.3696714099,
				"y": -0.1585063897,
				"z": -0.3959340058,
				"element": "C" 
			},
			{
				"x": -0.6723952066,
				"y": 0.6444606205,
				"z": 0.1898807326,
				"element": "O" 
			},
			{
				"x": -0.8996408985,
				"y": -1.4985525765,
				"z": -0.8382781703,
				"element": "C" 
			},
			{
				"x": 0.4193513235,
				"y": -1.8863394432,
				"z": -0.5787808754,
				"element": "C" 
			},
			{
				"x": 0.9026565167,
				"y": -3.0746367641,
				"z": -0.9490263135,
				"element": "N" 
			},
			{
				"x": 0.0411905582,
				"y": -3.8663678361,
				"z": -1.5832038142,
				"element": "C" 
			},
			{
				"x": 0.6597796711,
				"y": -5.4244381246,
				"z": -2.0742321158,
				"element": "Cl" 
			},
			{
				"x": -1.2295494431,
				"y": -3.6241741215,
				"z": -1.891978655,
				"element": "N" 
			},
			{
				"x": -1.6952541289,
				"y": -2.4297775106,
				"z": -1.5132237986,
				"element": "C" 
			},
			{
				"x": -3.137658676,
				"y": 1.4508793469,
				"z": 0.7571897315,
				"element": "H" 
			},
			{
				"x": -2.6271934267,
				"y": 2.1438541706,
				"z": -0.7992593314,
				"element": "H" 
			},
			{
				"x": -4.2257790068,
				"y": 1.3383818647,
				"z": -0.6659623574,
				"element": "H" 
			},
			{
				"x": 1.0937566735,
				"y": -1.2116266037,
				"z": -0.0577562638,
				"element": "H" 
			},
			{
				"x": -2.7312426864,
				"y": -2.2096863158,
				"z": -1.7546911495,
				"element": "H" 
			}
		],
		 "valence_orbital": [ 
			{
				"type": "occ",
				"energy": -0.32538,
				"method": "rhf"
			},
			{
				"type": "occ",
				"energy": -0.32282,
				"method": "rhf"
			},
			{
				"type": "occ",
				"energy": -0.29606,
				"method": "rhf"
			},
			{
				"type": "occ",
				"energy": -0.2887,
				"method": "rhf"
			},
			{
				"type": "occ",
				"energy": -0.27666,
				"method": "rhf"
			},
			{
				"type": "unocc",
				"energy": -0.07835,
				"method": "rhf"
			},
			{
				"type": "unocc",
				"energy": -0.06489,
				"method": "rhf"
			},
			{
				"type": "unocc",
				"energy": 0.02045,
				"method": "rhf"
			},
			{
				"type": "unocc",
				"energy": 0.03168,
				"method": "rhf"
			},
			{
				"type": "unocc",
				"energy": 0.09294,
				"method": "rhf"
			}
		],
		"cosmo_sigma_profile": { 
			"-0.025": 0.0,
			"-0.024": 0.0,
			"-0.023": 0.0,
			"-0.022": 0.0,
			"-0.021": 0.0,
			"-0.02": 0.0,
			"-0.019": 0.0,
			"-0.018": 0.0,
			"-0.017": 0.0,
			"-0.016": 0.0,
			"-0.015": 0.0,
			"-0.014": 0.0,
			"-0.013": 0.0,
			"-0.012": 0.0,
			"-0.011": 0.0,
			"-0.01": 0.045472917835,
			"-0.009": 1.98099646502,
			"-0.008": 2.5776986827,
			"-0.007": 4.5831934113,
			"-0.006": 10.757692114,
			"-0.005": 15.054202797,
			"-0.004": 25.4596554895,
			"-0.003": 20.1211282361,
			"-0.002": 11.7058327871,
			"-0.001": 10.191247394,
			"0.0": 9.18044619337,
			"0.001": 10.1537976222,
			"0.002": 10.1471132094,
			"0.003": 13.9735596382,
			"0.004": 9.94703469649,
			"0.005": 6.47448871947,
			"0.006": 4.16811234128,
			"0.007": 3.95890010058,
			"0.008": 3.22537552741,
			"0.009": 4.42479777312,
			"0.01": 4.03745248204,
			"0.011": 5.80791267096,
			"0.012": 2.36413665709,
			"0.013": 0.83927943278,
			"0.014": 0.00208564312111,
			"0.015": 0.0,
			"0.016": 0.0,
			"0.017": 0.0,
			"0.018": 0.0,
			"0.019": 0.0,
			"0.02": 0.0,
			"0.021": 0.0,
			"0.022": 0.0,
			"0.023": 0.0,
			"0.024": 0.0,
			"0.025": 0.0
		}
	}
}
