{
	 "smiles": "COC(=O)C1=CSC=C1OC", 
	 "Tm": 343.65, 
	 "num_atms": 19, 
	 "gaussian": { 
		 "optdone": 1, 
		 "sigma_profile": "yes", 
		 "theory": "DFT", 
		 "functional": "B3LYP", 
		 "basiset": "6-31G**", 
		 "properties": { 
			 "R2extent": 2482.0228, 
			 "electric_dipole_moment_norm": 2.10670283144, 
			 "electric_quadrupole_moment_norm": 9.50685482586, 
			 "total_energy": -895.394414813, 
			 "HOMO_LUMO_gap": 0.19773, 
			 "cosmo_polarized_energy": -8.9, 
			 "cosmo_cavitation_energy": 24.99, 
			 "cosmo_dispersion_energy": -18.55, 
			 "cosmo_repulsion_energy": 1.45, 
			 "cosmo_total_nonelectrostatic_energy": 7.89, 
			 "SMD_solvation_energy": 6.91 
		},
		"coords": [
			{
				"x": -1.5894536474,
				"y": 1.6795375332,
				"z": -3.1082320892,
				"element": "C" 
			},
			{
				"x": -0.9196505192,
				"y": 0.9930032172,
				"z": -2.0387193946,
				"element": "O" 
			},
			{
				"x": 0.1369727401,
				"y": 0.2397318872,
				"z": -2.4178283824,
				"element": "C" 
			},
			{
				"x": 0.488606235,
				"y": 0.1273908456,
				"z": -3.5770765804,
				"element": "O" 
			},
			{
				"x": 0.8150499742,
				"y": -0.4266369519,
				"z": -1.2810079483,
				"element": "C" 
			},
			{
				"x": 1.894109504,
				"y": -1.2378645631,
				"z": -1.5379829639,
				"element": "C" 
			},
			{
				"x": 2.5895004132,
				"y": -1.8825463114,
				"z": -0.1032407766,
				"element": "S" 
			},
			{
				"x": 1.424153364,
				"y": -1.0671733483,
				"z": 0.8890502474,
				"element": "C" 
			},
			{
				"x": 0.5471583853,
				"y": -0.3291969408,
				"z": 0.139635897,
				"element": "C" 
			},
			{
				"x": -0.4173987371,
				"y": 0.446496903,
				"z": 0.7174571855,
				"element": "O" 
			},
			{
				"x": -1.7270215989,
				"y": -0.1270411915,
				"z": 0.7384857713,
				"element": "C" 
			},
			{
				"x": -2.3940834774,
				"y": 2.2425295573,
				"z": -2.6355181761,
				"element": "H" 
			},
			{
				"x": -1.9910900897,
				"y": 0.9674154319,
				"z": -3.8336549667,
				"element": "H" 
			},
			{
				"x": -0.9003615713,
				"y": 2.3532931475,
				"z": -3.6231466805,
				"element": "H" 
			},
			{
				"x": 2.3012993839,
				"y": -1.4607112596,
				"z": -2.5136293572,
				"element": "H" 
			},
			{
				"x": 1.4475905189,
				"y": -1.1497041474,
				"z": 1.9658670066,
				"element": "H" 
			},
			{
				"x": -2.1037310121,
				"y": -0.2937030726,
				"z": -0.2755288389,
				"element": "H" 
			},
			{
				"x": -1.7307682953,
				"y": -1.0731789305,
				"z": 1.2946435545,
				"element": "H" 
			},
			{
				"x": -2.3679815702,
				"y": 0.5954581944,
				"z": 1.2475264924,
				"element": "H" 
			}
		],
		 "valence_orbital": [ 
			{
				"type": "occ",
				"energy": -0.30201,
				"method": "rhf"
			},
			{
				"type": "occ",
				"energy": -0.27997,
				"method": "rhf"
			},
			{
				"type": "occ",
				"energy": -0.27013,
				"method": "rhf"
			},
			{
				"type": "occ",
				"energy": -0.25551,
				"method": "rhf"
			},
			{
				"type": "occ",
				"energy": -0.23828,
				"method": "rhf"
			},
			{
				"type": "unocc",
				"energy": -0.04055,
				"method": "rhf"
			},
			{
				"type": "unocc",
				"energy": 0.00981,
				"method": "rhf"
			},
			{
				"type": "unocc",
				"energy": 0.02449,
				"method": "rhf"
			},
			{
				"type": "unocc",
				"energy": 0.08626,
				"method": "rhf"
			},
			{
				"type": "unocc",
				"energy": 0.1027,
				"method": "rhf"
			}
		],
		"cosmo_sigma_profile": { 
			"-0.025": 0.0,
			"-0.024": 0.0,
			"-0.023": 0.0,
			"-0.022": 0.0,
			"-0.021": 0.0,
			"-0.02": 0.0,
			"-0.019": 0.0,
			"-0.018": 0.0,
			"-0.017": 0.0,
			"-0.016": 0.0,
			"-0.015": 0.0,
			"-0.014": 0.0,
			"-0.013": 0.0,
			"-0.012": 0.0,
			"-0.011": 0.0,
			"-0.01": 0.169612633389,
			"-0.009": 2.58775659185,
			"-0.008": 3.40759238528,
			"-0.007": 3.34676301278,
			"-0.006": 8.58051628455,
			"-0.005": 13.769098658,
			"-0.004": 17.3968055222,
			"-0.003": 22.3672538656,
			"-0.002": 18.8350178178,
			"-0.001": 13.8820099498,
			"0.0": 13.958622632,
			"0.001": 15.5589217327,
			"0.002": 19.6261466511,
			"0.003": 12.3321720536,
			"0.004": 4.94049214897,
			"0.005": 3.85891854835,
			"0.006": 3.04908122808,
			"0.007": 3.43771668247,
			"0.008": 2.87859595437,
			"0.009": 3.24111430677,
			"0.01": 2.62986676619,
			"0.011": 5.24873735202,
			"0.012": 6.09906284166,
			"0.013": 0.336713820408,
			"0.014": 0.0,
			"0.015": 0.0,
			"0.016": 0.0,
			"0.017": 0.0,
			"0.018": 0.0,
			"0.019": 0.0,
			"0.02": 0.0,
			"0.021": 0.0,
			"0.022": 0.0,
			"0.023": 0.0,
			"0.024": 0.0,
			"0.025": 0.0
		}
	}
}
