{
	 "smiles": "COC1=CC(=CC=C1O)C1NN2C(S1)=NN=C2C1=CC=CC=C1OC", 
	 "Tm": 410.15, 
	 "num_atms": 41, 
	 "gaussian": { 
		 "optdone": 1, 
		 "sigma_profile": "yes", 
		 "theory": "DFT", 
		 "functional": "B3LYP", 
		 "basiset": "6-31G**", 
		 "properties": { 
			 "R2extent": 11900.4522, 
			 "electric_dipole_moment_norm": 5.26288767313, 
			 "electric_quadrupole_moment_norm": 36.5903324459, 
			 "total_energy": -1500.2147635, 
			 "HOMO_LUMO_gap": 0.17775, 
			 "cosmo_polarized_energy": -24.61, 
			 "cosmo_cavitation_energy": 46.71, 
			 "cosmo_dispersion_energy": -32.22, 
			 "cosmo_repulsion_energy": 2.41, 
			 "cosmo_total_nonelectrostatic_energy": 16.91, 
			 "SMD_solvation_energy": 6.5 
		},
		"coords": [
			{
				"x": 3.4706278363,
				"y": 3.0665284332,
				"z": 3.8582790066,
				"element": "C" 
			},
			{
				"x": 3.7258796516,
				"y": 2.4406954304,
				"z": 2.6090466787,
				"element": "O" 
			},
			{
				"x": 2.655915831,
				"y": 2.1356160169,
				"z": 1.8037787014,
				"element": "C" 
			},
			{
				"x": 1.3265729963,
				"y": 2.4381818262,
				"z": 2.0625206041,
				"element": "C" 
			},
			{
				"x": 0.3255515561,
				"y": 2.0596849408,
				"z": 1.1492169692,
				"element": "C" 
			},
			{
				"x": 0.6861485754,
				"y": 1.3838307733,
				"z": -0.0166505178,
				"element": "C" 
			},
			{
				"x": 2.0255482133,
				"y": 1.074493082,
				"z": -0.2749628414,
				"element": "C" 
			},
			{
				"x": 3.0158172207,
				"y": 1.4454027466,
				"z": 0.6248891652,
				"element": "C" 
			},
			{
				"x": 4.3191122727,
				"y": 1.1467317077,
				"z": 0.381132546,
				"element": "O" 
			},
			{
				"x": -1.1147852729,
				"y": 2.4576376535,
				"z": 1.4076722977,
				"element": "C" 
			},
			{
				"x": -2.0558104535,
				"y": 1.8121766168,
				"z": 0.496167168,
				"element": "N" 
			},
			{
				"x": -2.4670681713,
				"y": 0.6308657975,
				"z": 1.1266309627,
				"element": "N" 
			},
			{
				"x": -2.3188380725,
				"y": 0.5132367472,
				"z": 2.4795961338,
				"element": "C" 
			},
			{
				"x": -1.6801839916,
				"y": 1.9904846087,
				"z": 3.1927327292,
				"element": "S" 
			},
			{
				"x": -2.6748906469,
				"y": -0.6794002399,
				"z": 2.8860804766,
				"element": "N" 
			},
			{
				"x": -3.0945581983,
				"y": -1.3660402921,
				"z": 1.7516278224,
				"element": "N" 
			},
			{
				"x": -2.9536871319,
				"y": -0.5783712962,
				"z": 0.6983398974,
				"element": "C" 
			},
			{
				"x": -3.2711142588,
				"y": -0.9132207549,
				"z": -0.6929340475,
				"element": "C" 
			},
			{
				"x": -2.8873756199,
				"y": -2.1567076207,
				"z": -1.2180270902,
				"element": "C" 
			},
			{
				"x": -3.1838991969,
				"y": -2.4931808053,
				"z": -2.5365785452,
				"element": "C" 
			},
			{
				"x": -3.862191761,
				"y": -1.5847049793,
				"z": -3.3532539732,
				"element": "C" 
			},
			{
				"x": -4.2648800913,
				"y": -0.3509641298,
				"z": -2.8419377042,
				"element": "C" 
			},
			{
				"x": -3.9825749213,
				"y": -0.020982606,
				"z": -1.5161146007,
				"element": "C" 
			},
			{
				"x": -4.4146126475,
				"y": 1.1934622807,
				"z": -1.0047491275,
				"element": "O" 
			},
			{
				"x": -5.7818168253,
				"y": 1.1822011774,
				"z": -0.5737767941,
				"element": "C" 
			},
			{
				"x": 2.8208466851,
				"y": 2.4470427204,
				"z": 4.4882548129,
				"element": "H" 
			},
			{
				"x": 3.0098366107,
				"y": 4.0531233272,
				"z": 3.7231056345,
				"element": "H" 
			},
			{
				"x": 4.4404606652,
				"y": 3.1858544333,
				"z": 4.3431244338,
				"element": "H" 
			},
			{
				"x": 1.0531711297,
				"y": 2.9466142605,
				"z": 2.9801095397,
				"element": "H" 
			},
			{
				"x": -0.0808567648,
				"y": 1.1021374607,
				"z": -0.7278041187,
				"element": "H" 
			},
			{
				"x": 2.3141013795,
				"y": 0.5416947063,
				"z": -1.174905427,
				"element": "H" 
			},
			{
				"x": 4.8327042685,
				"y": 1.4784731177,
				"z": 1.1339172295,
				"element": "H" 
			},
			{
				"x": -1.2493297543,
				"y": 3.5395950243,
				"z": 1.3301941831,
				"element": "H" 
			},
			{
				"x": -2.8889231334,
				"y": 2.3737568993,
				"z": 0.3246848259,
				"element": "H" 
			},
			{
				"x": -2.3534252999,
				"y": -2.8460581554,
				"z": -0.5725789136,
				"element": "H" 
			},
			{
				"x": -2.8760404024,
				"y": -3.4568772472,
				"z": -2.9302321173,
				"element": "H" 
			},
			{
				"x": -4.0809373206,
				"y": -1.8364656531,
				"z": -4.3867992392,
				"element": "H" 
			},
			{
				"x": -4.8000750364,
				"y": 0.3655507654,
				"z": -3.4573926221,
				"element": "H" 
			},
			{
				"x": -6.0059943228,
				"y": 2.1907916119,
				"z": -0.2202212212,
				"element": "H" 
			},
			{
				"x": -6.4546881164,
				"y": 0.9309262504,
				"z": -1.4021094032,
				"element": "H" 
			},
			{
				"x": -5.93263748,
				"y": 0.4647833635,
				"z": 0.2417264856,
				"element": "H" 
			}
		],
		 "valence_orbital": [ 
			{
				"type": "occ",
				"energy": -0.25251,
				"method": "rhf"
			},
			{
				"type": "occ",
				"energy": -0.24338,
				"method": "rhf"
			},
			{
				"type": "occ",
				"energy": -0.24201,
				"method": "rhf"
			},
			{
				"type": "occ",
				"energy": -0.21705,
				"method": "rhf"
			},
			{
				"type": "occ",
				"energy": -0.21023,
				"method": "rhf"
			},
			{
				"type": "unocc",
				"energy": -0.03248,
				"method": "rhf"
			},
			{
				"type": "unocc",
				"energy": -0.01977,
				"method": "rhf"
			},
			{
				"type": "unocc",
				"energy": -0.00938,
				"method": "rhf"
			},
			{
				"type": "unocc",
				"energy": 0.00445,
				"method": "rhf"
			},
			{
				"type": "unocc",
				"energy": 0.01431,
				"method": "rhf"
			}
		],
		"cosmo_sigma_profile": { 
			"-0.025": 0.0,
			"-0.024": 0.0,
			"-0.023": 0.0,
			"-0.022": 0.0,
			"-0.021": 0.0,
			"-0.02": 0.0,
			"-0.019": 0.0,
			"-0.018": 0.0,
			"-0.017": 0.0,
			"-0.016": 0.0,
			"-0.015": 0.119260647583,
			"-0.014": 1.33888575484,
			"-0.013": 1.46352171915,
			"-0.012": 1.70547265016,
			"-0.011": 1.88366367412,
			"-0.01": 3.51894367176,
			"-0.009": 4.63791973421,
			"-0.008": 4.04596466025,
			"-0.007": 7.64643704101,
			"-0.006": 21.1066769064,
			"-0.005": 30.779215421,
			"-0.004": 32.2200631717,
			"-0.003": 32.1740997072,
			"-0.002": 24.2193150903,
			"-0.001": 21.9008721363,
			"0.0": 20.0724084752,
			"0.001": 21.6302649023,
			"0.002": 26.568994636,
			"0.003": 27.7173337469,
			"0.004": 28.3381999095,
			"0.005": 17.1523178297,
			"0.006": 8.35890064565,
			"0.007": 4.81731733459,
			"0.008": 4.16229719361,
			"0.009": 3.69640874408,
			"0.01": 4.39976380187,
			"0.011": 4.02144369,
			"0.012": 3.50915098232,
			"0.013": 3.33176048184,
			"0.014": 3.49447812035,
			"0.015": 2.88728695536,
			"0.016": 2.00493102896,
			"0.017": 0.549884108665,
			"0.018": 0.0,
			"0.019": 0.0,
			"0.02": 0.0,
			"0.021": 0.0,
			"0.022": 0.0,
			"0.023": 0.0,
			"0.024": 0.0,
			"0.025": 0.0
		}
	}
}
