{
	 "smiles": "CCOC(=O)C(C)(C#N)C1=CC=CC=C1[N+]([O-])=O", 
	 "Tm": 341.15, 
	 "num_atms": 30, 
	 "gaussian": { 
		 "optdone": 1, 
		 "sigma_profile": "yes", 
		 "theory": "DFT", 
		 "functional": "B3LYP", 
		 "basiset": "6-31G**", 
		 "properties": { 
			 "R2extent": 4883.6239, 
			 "electric_dipole_moment_norm": 8.33528984979, 
			 "electric_quadrupole_moment_norm": 24.8505334476, 
			 "total_energy": -874.785850376, 
			 "HOMO_LUMO_gap": 0.17607, 
			 "cosmo_polarized_energy": -19.62, 
			 "cosmo_cavitation_energy": 34.93, 
			 "cosmo_dispersion_energy": -23.12, 
			 "cosmo_repulsion_energy": 1.81, 
			 "cosmo_total_nonelectrostatic_energy": 13.62, 
			 "SMD_solvation_energy": 9.87 
		},
		"coords": [
			{
				"x": 1.1911604557,
				"y": 3.0796126527,
				"z": -0.2077559463,
				"element": "C" 
			},
			{
				"x": 0.316582121,
				"y": 2.5148830364,
				"z": 0.8998583721,
				"element": "C" 
			},
			{
				"x": 0.2218593456,
				"y": 1.0663785986,
				"z": 0.8144357019,
				"element": "O" 
			},
			{
				"x": -0.7227873858,
				"y": 0.583789315,
				"z": -0.0075048511,
				"element": "C" 
			},
			{
				"x": -1.4352424407,
				"y": 1.2411741342,
				"z": -0.7256714805,
				"element": "O" 
			},
			{
				"x": -0.6754038254,
				"y": -0.9683358326,
				"z": -0.0461969591,
				"element": "C" 
			},
			{
				"x": 0.1781211133,
				"y": -1.297137201,
				"z": -1.30779343,
				"element": "C" 
			},
			{
				"x": -2.0263807977,
				"y": -1.4976008115,
				"z": -0.3162626288,
				"element": "C" 
			},
			{
				"x": -3.0394396022,
				"y": -2.002672747,
				"z": -0.5695902088,
				"element": "N" 
			},
			{
				"x": -0.126760211,
				"y": -1.5994369933,
				"z": 1.2525083892,
				"element": "C" 
			},
			{
				"x": 1.0751082085,
				"y": -2.3176639952,
				"z": 1.2158642104,
				"element": "C" 
			},
			{
				"x": 1.6101136705,
				"y": -2.9423583433,
				"z": 2.3431166898,
				"element": "C" 
			},
			{
				"x": 0.9410072661,
				"y": -2.8828120044,
				"z": 3.5620392113,
				"element": "C" 
			},
			{
				"x": -0.2606676599,
				"y": -2.1881367481,
				"z": 3.6372255608,
				"element": "C" 
			},
			{
				"x": -0.7769594608,
				"y": -1.5536510771,
				"z": 2.5068982527,
				"element": "C" 
			},
			{
				"x": -2.0344157065,
				"y": -0.8129081878,
				"z": 2.7323028244,
				"element": "N" 
			},
			{
				"x": -2.689229733,
				"y": -1.0893730658,
				"z": 3.7332841691,
				"element": "O" 
			},
			{
				"x": -2.3485389218,
				"y": 0.0607051883,
				"z": 1.9222846724,
				"element": "O" 
			},
			{
				"x": 0.7355097621,
				"y": 2.9054656076,
				"z": -1.1853443153,
				"element": "H" 
			},
			{
				"x": 2.1867740346,
				"y": 2.6260770401,
				"z": -0.1904317027,
				"element": "H" 
			},
			{
				"x": 1.3055551841,
				"y": 4.1600194846,
				"z": -0.0715411742,
				"element": "H" 
			},
			{
				"x": -0.6932768225,
				"y": 2.9287449066,
				"z": 0.8632501237,
				"element": "H" 
			},
			{
				"x": 0.7483148956,
				"y": 2.6943423234,
				"z": 1.8868367819,
				"element": "H" 
			},
			{
				"x": -0.3025135595,
				"y": -0.8375953757,
				"z": -2.1728358345,
				"element": "H" 
			},
			{
				"x": 1.1849011077,
				"y": -0.8836974456,
				"z": -1.2090041036,
				"element": "H" 
			},
			{
				"x": 0.2382326637,
				"y": -2.3744350506,
				"z": -1.4750490006,
				"element": "H" 
			},
			{
				"x": 1.6163185471,
				"y": -2.4005277987,
				"z": 0.2832660925,
				"element": "H" 
			},
			{
				"x": 2.5490169867,
				"y": -3.4807446988,
				"z": 2.2573251226,
				"element": "H" 
			},
			{
				"x": 1.3438000329,
				"y": -3.3688882268,
				"z": 4.4444375866,
				"element": "H" 
			},
			{
				"x": -0.8191592684,
				"y": -2.1197166845,
				"z": 4.5617478739,
				"element": "H" 
			}
		],
		 "valence_orbital": [ 
			{
				"type": "occ",
				"energy": -0.31009,
				"method": "rhf"
			},
			{
				"type": "occ",
				"energy": -0.30499,
				"method": "rhf"
			},
			{
				"type": "occ",
				"energy": -0.29557,
				"method": "rhf"
			},
			{
				"type": "occ",
				"energy": -0.28771,
				"method": "rhf"
			},
			{
				"type": "occ",
				"energy": -0.27443,
				"method": "rhf"
			},
			{
				"type": "unocc",
				"energy": -0.09836,
				"method": "rhf"
			},
			{
				"type": "unocc",
				"energy": -0.04185,
				"method": "rhf"
			},
			{
				"type": "unocc",
				"energy": -0.01641,
				"method": "rhf"
			},
			{
				"type": "unocc",
				"energy": 0.00259,
				"method": "rhf"
			},
			{
				"type": "unocc",
				"energy": 0.03694,
				"method": "rhf"
			}
		],
		"cosmo_sigma_profile": { 
			"-0.025": 0.0,
			"-0.024": 0.0,
			"-0.023": 0.0,
			"-0.022": 0.0,
			"-0.021": 0.0,
			"-0.02": 0.0,
			"-0.019": 0.0,
			"-0.018": 0.0,
			"-0.017": 0.0,
			"-0.016": 0.0,
			"-0.015": 0.0,
			"-0.014": 0.0,
			"-0.013": 0.0,
			"-0.012": 0.0,
			"-0.011": 0.0,
			"-0.01": 0.0,
			"-0.009": 0.133179133209,
			"-0.008": 6.72173301762,
			"-0.007": 15.2080093576,
			"-0.006": 18.2230666082,
			"-0.005": 19.5533890631,
			"-0.004": 25.1005425169,
			"-0.003": 24.0046221137,
			"-0.002": 22.3372626896,
			"-0.001": 19.458512841,
			"0.0": 19.8230007426,
			"0.001": 17.9980232906,
			"0.002": 11.9194835338,
			"0.003": 6.55161909515,
			"0.004": 6.09419478398,
			"0.005": 6.48688303641,
			"0.006": 10.7838377097,
			"0.007": 13.9797424827,
			"0.008": 9.99852135712,
			"0.009": 8.11919849728,
			"0.01": 6.15848049572,
			"0.011": 6.41171824776,
			"0.012": 2.55201236578,
			"0.013": 0.657815587457,
			"0.014": 0.0,
			"0.015": 0.0,
			"0.016": 0.0,
			"0.017": 0.0,
			"0.018": 0.0,
			"0.019": 0.0,
			"0.02": 0.0,
			"0.021": 0.0,
			"0.022": 0.0,
			"0.023": 0.0,
			"0.024": 0.0,
			"0.025": 0.0
		}
	}
}
