{
	 "smiles": "[O-][N+](=O)C1=C(Cl)C(Cl)=C(Cl)C(Cl)=C1NCC1=CC=CC=C1", 
	 "Tm": 369.65, 
	 "num_atms": 29, 
	 "gaussian": { 
		 "optdone": 1, 
		 "sigma_profile": "yes", 
		 "theory": "DFT", 
		 "functional": "B3LYP", 
		 "basiset": "6-31G**", 
		 "properties": { 
			 "R2extent": 9819.2056, 
			 "electric_dipole_moment_norm": 1.89261915345, 
			 "electric_quadrupole_moment_norm": 8.49904832143, 
			 "total_energy": -2600.77908279, 
			 "HOMO_LUMO_gap": 0.14537, 
			 "cosmo_polarized_energy": -9.49, 
			 "cosmo_cavitation_energy": 40.63, 
			 "cosmo_dispersion_energy": -27.88, 
			 "cosmo_repulsion_energy": 2.13, 
			 "cosmo_total_nonelectrostatic_energy": 14.89, 
			 "SMD_solvation_energy": 7.05 
		},
		"coords": [
			{
				"x": -4.0599454184,
				"y": -0.12024841,
				"z": -0.9264670647,
				"element": "O" 
			},
			{
				"x": -3.3616309185,
				"y": 0.335088246,
				"z": -1.8220394148,
				"element": "N" 
			},
			{
				"x": -3.5884114697,
				"y": 1.3679991297,
				"z": -2.4533887753,
				"element": "O" 
			},
			{
				"x": -2.1223668611,
				"y": -0.392684316,
				"z": -2.1597200515,
				"element": "C" 
			},
			{
				"x": -2.2100799694,
				"y": -1.7129270518,
				"z": -2.6084383346,
				"element": "C" 
			},
			{
				"x": -3.7545084012,
				"y": -2.4651135049,
				"z": -2.855726789,
				"element": "Cl" 
			},
			{
				"x": -1.0251655923,
				"y": -2.4090582487,
				"z": -2.8885503324,
				"element": "C" 
			},
			{
				"x": -1.095732944,
				"y": -4.0471816915,
				"z": -3.4506743671,
				"element": "Cl" 
			},
			{
				"x": 0.2154592085,
				"y": -1.7665652484,
				"z": -2.7220948675,
				"element": "C" 
			},
			{
				"x": 1.6771704289,
				"y": -2.6276446865,
				"z": -3.077322747,
				"element": "Cl" 
			},
			{
				"x": 0.2740798485,
				"y": -0.4272395419,
				"z": -2.2966819351,
				"element": "C" 
			},
			{
				"x": 1.8031847136,
				"y": 0.3773812761,
				"z": -2.1925207003,
				"element": "Cl" 
			},
			{
				"x": -0.902155337,
				"y": 0.2911154596,
				"z": -2.0023060747,
				"element": "C" 
			},
			{
				"x": -0.8440926653,
				"y": 1.6457723744,
				"z": -1.5917557133,
				"element": "N" 
			},
			{
				"x": -0.9798472531,
				"y": 1.9036776957,
				"z": -0.1287129302,
				"element": "C" 
			},
			{
				"x": 0.2544778123,
				"y": 1.5803788371,
				"z": 0.682712447,
				"element": "C" 
			},
			{
				"x": 0.2949839666,
				"y": 0.4423103069,
				"z": 1.4949659562,
				"element": "C" 
			},
			{
				"x": 1.4297406122,
				"y": 0.1484832728,
				"z": 2.2553975079,
				"element": "C" 
			},
			{
				"x": 2.5351322768,
				"y": 0.9974636577,
				"z": 2.2136124951,
				"element": "C" 
			},
			{
				"x": 2.5018826345,
				"y": 2.1413027156,
				"z": 1.4101324552,
				"element": "C" 
			},
			{
				"x": 1.3696920476,
				"y": 2.4289826111,
				"z": 0.6512485843,
				"element": "C" 
			},
			{
				"x": -1.5800114132,
				"y": 2.156120402,
				"z": -2.0718594033,
				"element": "H" 
			},
			{
				"x": -1.8400872052,
				"y": 1.3649857361,
				"z": 0.2963514298,
				"element": "H" 
			},
			{
				"x": -1.2004288931,
				"y": 2.9726914727,
				"z": -0.0480164772,
				"element": "H" 
			},
			{
				"x": -0.5694785194,
				"y": -0.2161373498,
				"z": 1.5384923778,
				"element": "H" 
			},
			{
				"x": 1.4462021441,
				"y": -0.7391549439,
				"z": 2.8812353286,
				"element": "H" 
			},
			{
				"x": 3.4172111628,
				"y": 0.7740685691,
				"z": 2.8068121425,
				"element": "H" 
			},
			{
				"x": 3.3581341998,
				"y": 2.8091262156,
				"z": 1.3791908596,
				"element": "H" 
			},
			{
				"x": 1.3472918048,
				"y": 3.3147070149,
				"z": 0.0217243939,
				"element": "H" 
			}
		],
		 "valence_orbital": [ 
			{
				"type": "occ",
				"energy": -0.28218,
				"method": "rhf"
			},
			{
				"type": "occ",
				"energy": -0.2711,
				"method": "rhf"
			},
			{
				"type": "occ",
				"energy": -0.25679,
				"method": "rhf"
			},
			{
				"type": "occ",
				"energy": -0.25529,
				"method": "rhf"
			},
			{
				"type": "occ",
				"energy": -0.2508,
				"method": "rhf"
			},
			{
				"type": "unocc",
				"energy": -0.10543,
				"method": "rhf"
			},
			{
				"type": "unocc",
				"energy": -0.0583,
				"method": "rhf"
			},
			{
				"type": "unocc",
				"energy": -0.05314,
				"method": "rhf"
			},
			{
				"type": "unocc",
				"energy": -0.04441,
				"method": "rhf"
			},
			{
				"type": "unocc",
				"energy": -0.01347,
				"method": "rhf"
			}
		],
		"cosmo_sigma_profile": { 
			"-0.025": 0.0,
			"-0.024": 0.0,
			"-0.023": 0.0,
			"-0.022": 0.0,
			"-0.021": 0.0,
			"-0.02": 0.0,
			"-0.019": 0.0,
			"-0.018": 0.0,
			"-0.017": 0.0,
			"-0.016": 0.0,
			"-0.015": 0.0,
			"-0.014": 0.0,
			"-0.013": 0.0,
			"-0.012": 0.0,
			"-0.011": 0.247700708368,
			"-0.01": 0.904658635279,
			"-0.009": 1.13839827022,
			"-0.008": 1.49472945425,
			"-0.007": 3.95696711794,
			"-0.006": 10.5707608946,
			"-0.005": 22.2763978122,
			"-0.004": 30.6809717127,
			"-0.003": 37.3939249739,
			"-0.002": 23.6442916999,
			"-0.001": 23.9972535262,
			"0.0": 21.8645234018,
			"0.001": 25.9333478237,
			"0.002": 35.1211429415,
			"0.003": 32.9463226289,
			"0.004": 17.6352501801,
			"0.005": 15.6071288014,
			"0.006": 15.812675624,
			"0.007": 6.23651917736,
			"0.008": 3.71149191515,
			"0.009": 1.08842690407,
			"0.01": 0.832677959092,
			"0.011": 0.799376575549,
			"0.012": 0.538555748533,
			"0.013": 0.0678031551679,
			"0.014": 0.0,
			"0.015": 0.0,
			"0.016": 0.0,
			"0.017": 0.0,
			"0.018": 0.0,
			"0.019": 0.0,
			"0.02": 0.0,
			"0.021": 0.0,
			"0.022": 0.0,
			"0.023": 0.0,
			"0.024": 0.0,
			"0.025": 0.0
		}
	}
}
