{
	 "smiles": "CC1=CC=C(C=C1)C1=C(C(=NO1)C(=O)C1=CC=CS1)S(=O)(=O)C1=CC=CC=C1", 
	 "Tm": 401.15, 
	 "num_atms": 43, 
	 "gaussian": { 
		 "optdone": 1, 
		 "sigma_profile": "yes", 
		 "theory": "DFT", 
		 "functional": "B3LYP", 
		 "basiset": "6-31G**", 
		 "properties": { 
			 "R2extent": 12505.1901, 
			 "electric_dipole_moment_norm": 7.604598733, 
			 "electric_quadrupole_moment_norm": 42.4472366023, 
			 "total_energy": -1961.15396955, 
			 "HOMO_LUMO_gap": 0.17384, 
			 "cosmo_polarized_energy": -21.79, 
			 "cosmo_cavitation_energy": 51.38, 
			 "cosmo_dispersion_energy": -34.37, 
			 "cosmo_repulsion_energy": 2.52, 
			 "cosmo_total_nonelectrostatic_energy": 19.53, 
			 "SMD_solvation_energy": 8.3 
		},
		"coords": [
			{
				"x": -1.9458570787,
				"y": 1.8488084035,
				"z": 6.1645954398,
				"element": "C" 
			},
			{
				"x": -1.355325549,
				"y": 1.9256817773,
				"z": 4.7780005683,
				"element": "C" 
			},
			{
				"x": -0.1324403101,
				"y": 1.3119225552,
				"z": 4.4766830133,
				"element": "C" 
			},
			{
				"x": 0.4338525011,
				"y": 1.4019898013,
				"z": 3.207256589,
				"element": "C" 
			},
			{
				"x": -0.2269115103,
				"y": 2.1164888876,
				"z": 2.1943404039,
				"element": "C" 
			},
			{
				"x": -1.451522761,
				"y": 2.7441010199,
				"z": 2.488775148,
				"element": "C" 
			},
			{
				"x": -2.0037738856,
				"y": 2.6414221802,
				"z": 3.7595672346,
				"element": "C" 
			},
			{
				"x": 0.3510101208,
				"y": 2.2650522212,
				"z": 0.8587944191,
				"element": "C" 
			},
			{
				"x": 1.1448265697,
				"y": 1.5039042806,
				"z": 0.0220242009,
				"element": "C" 
			},
			{
				"x": 1.3097022379,
				"y": 2.3155676556,
				"z": -1.1456593209,
				"element": "C" 
			},
			{
				"x": 0.6607967803,
				"y": 3.4498165835,
				"z": -1.0384263117,
				"element": "N" 
			},
			{
				"x": 0.0585333973,
				"y": 3.4205029669,
				"z": 0.2235551273,
				"element": "O" 
			},
			{
				"x": 2.20616415,
				"y": 2.1103049143,
				"z": -2.3544225983,
				"element": "C" 
			},
			{
				"x": 3.4140238344,
				"y": 2.1581665794,
				"z": -2.2052060071,
				"element": "O" 
			},
			{
				"x": 1.5769724937,
				"y": 1.9078531221,
				"z": -3.66267124,
				"element": "C" 
			},
			{
				"x": 2.2558313871,
				"y": 1.6775364308,
				"z": -4.8418526562,
				"element": "C" 
			},
			{
				"x": 1.3953538915,
				"y": 1.4919626584,
				"z": -5.9516099581,
				"element": "C" 
			},
			{
				"x": 0.0673571182,
				"y": 1.5799995078,
				"z": -5.6075017155,
				"element": "C" 
			},
			{
				"x": -0.1532566123,
				"y": 1.8992176515,
				"z": -3.9270843829,
				"element": "S" 
			},
			{
				"x": 1.6891125538,
				"y": -0.1899561988,
				"z": 0.1640447529,
				"element": "S" 
			},
			{
				"x": 2.3402302957,
				"y": -0.5026786522,
				"z": -1.1141457904,
				"element": "O" 
			},
			{
				"x": 2.3907402447,
				"y": -0.3717272042,
				"z": 1.4440591224,
				"element": "O" 
			},
			{
				"x": 0.1580535968,
				"y": -1.1353975882,
				"z": 0.2355550374,
				"element": "C" 
			},
			{
				"x": -0.5468006774,
				"y": -1.3615814759,
				"z": -0.9503973697,
				"element": "C" 
			},
			{
				"x": -1.7208302842,
				"y": -2.1109903162,
				"z": -0.9036491926,
				"element": "C" 
			},
			{
				"x": -2.1728596677,
				"y": -2.6313204583,
				"z": 0.3128075157,
				"element": "C" 
			},
			{
				"x": -1.4508382579,
				"y": -2.4093424054,
				"z": 1.486571573,
				"element": "C" 
			},
			{
				"x": -0.2750739938,
				"y": -1.6570741911,
				"z": 1.4548349797,
				"element": "C" 
			},
			{
				"x": -1.5638436929,
				"y": 0.9853266152,
				"z": 6.7161769689,
				"element": "H" 
			},
			{
				"x": -3.0374688434,
				"y": 1.7785092186,
				"z": 6.1315409808,
				"element": "H" 
			},
			{
				"x": -1.6969659593,
				"y": 2.7453550001,
				"z": 6.7459965287,
				"element": "H" 
			},
			{
				"x": 0.3936478793,
				"y": 0.7609982325,
				"z": 5.251960786,
				"element": "H" 
			},
			{
				"x": 1.3904241678,
				"y": 0.9347973267,
				"z": 3.0023913175,
				"element": "H" 
			},
			{
				"x": -1.9663865739,
				"y": 3.302785994,
				"z": 1.7145829472,
				"element": "H" 
			},
			{
				"x": -2.9553786561,
				"y": 3.1239034412,
				"z": 3.9670741871,
				"element": "H" 
			},
			{
				"x": 3.3378777566,
				"y": 1.6419757319,
				"z": -4.8748128902,
				"element": "H" 
			},
			{
				"x": 1.7376729029,
				"y": 1.300973885,
				"z": -6.9619844388,
				"element": "H" 
			},
			{
				"x": -0.7941453485,
				"y": 1.4871380664,
				"z": -6.2551950447,
				"element": "H" 
			},
			{
				"x": -0.1716084602,
				"y": -0.9701719847,
				"z": -1.8900956852,
				"element": "H" 
			},
			{
				"x": -2.2780448541,
				"y": -2.2961705325,
				"z": -1.8168897687,
				"element": "H" 
			},
			{
				"x": -3.0865455049,
				"y": -3.2177113165,
				"z": 0.3429038574,
				"element": "H" 
			},
			{
				"x": -1.797826259,
				"y": -2.8248528229,
				"z": 2.4277147052,
				"element": "H" 
			},
			{
				"x": 0.3089208606,
				"y": -1.4865875618,
				"z": 2.3512969668,
				"element": "H" 
			}
		],
		 "valence_orbital": [ 
			{
				"type": "occ",
				"energy": -0.26712,
				"method": "rhf"
			},
			{
				"type": "occ",
				"energy": -0.26654,
				"method": "rhf"
			},
			{
				"type": "occ",
				"energy": -0.26279,
				"method": "rhf"
			},
			{
				"type": "occ",
				"energy": -0.25012,
				"method": "rhf"
			},
			{
				"type": "occ",
				"energy": -0.24544,
				"method": "rhf"
			},
			{
				"type": "unocc",
				"energy": -0.0716,
				"method": "rhf"
			},
			{
				"type": "unocc",
				"energy": -0.06419,
				"method": "rhf"
			},
			{
				"type": "unocc",
				"energy": -0.04321,
				"method": "rhf"
			},
			{
				"type": "unocc",
				"energy": -0.02527,
				"method": "rhf"
			},
			{
				"type": "unocc",
				"energy": -0.01616,
				"method": "rhf"
			}
		],
		"cosmo_sigma_profile": { 
			"-0.025": 0.0,
			"-0.024": 0.0,
			"-0.023": 0.0,
			"-0.022": 0.0,
			"-0.021": 0.0,
			"-0.02": 0.0,
			"-0.019": 0.0,
			"-0.018": 0.0,
			"-0.017": 0.0,
			"-0.016": 0.0,
			"-0.015": 0.0,
			"-0.014": 0.0,
			"-0.013": 0.0,
			"-0.012": 0.0,
			"-0.011": 0.0,
			"-0.01": 1.08079618418,
			"-0.009": 2.68020793557,
			"-0.008": 4.68846399314,
			"-0.007": 13.7119831127,
			"-0.006": 22.140094854,
			"-0.005": 30.4514128635,
			"-0.004": 29.5328012617,
			"-0.003": 31.0450372463,
			"-0.002": 32.9350184196,
			"-0.001": 32.4141725851,
			"0.0": 33.8194909283,
			"0.001": 36.4818288734,
			"0.002": 40.122403613,
			"0.003": 33.4664546817,
			"0.004": 12.7354036415,
			"0.005": 7.57476218401,
			"0.006": 7.48934188228,
			"0.007": 5.31025002468,
			"0.008": 6.10176183212,
			"0.009": 8.269265883,
			"0.01": 10.9636253086,
			"0.011": 11.7284954168,
			"0.012": 1.26714004755,
			"0.013": 0.0,
			"0.014": 0.0,
			"0.015": 0.0,
			"0.016": 0.0,
			"0.017": 0.0,
			"0.018": 0.0,
			"0.019": 0.0,
			"0.02": 0.0,
			"0.021": 0.0,
			"0.022": 0.0,
			"0.023": 0.0,
			"0.024": 0.0,
			"0.025": 0.0
		}
	}
}
