{
	 "smiles": "NC1=C(F)C=C(O)C=C1", 
	 "Tm": 412.15, 
	 "num_atms": 15, 
	 "gaussian": { 
		 "optdone": 1, 
		 "sigma_profile": "yes", 
		 "theory": "DFT", 
		 "functional": "B3LYP", 
		 "basiset": "6-31G**", 
		 "properties": { 
			 "R2extent": 1387.6079, 
			 "electric_dipole_moment_norm": 1.25982334476, 
			 "electric_quadrupole_moment_norm": 10.8854573758, 
			 "total_energy": -462.057250647, 
			 "HOMO_LUMO_gap": 0.19051, 
			 "cosmo_polarized_energy": -11.29, 
			 "cosmo_cavitation_energy": 19.47, 
			 "cosmo_dispersion_energy": -14.66, 
			 "cosmo_repulsion_energy": 1.19, 
			 "cosmo_total_nonelectrostatic_energy": 5.99, 
			 "SMD_solvation_energy": 4.09 
		},
		"coords": [
			{
				"x": -0.8974852641,
				"y": 2.7851814791,
				"z": -0.5705023373,
				"element": "N" 
			},
			{
				"x": -1.0769018962,
				"y": 1.4264600575,
				"z": -0.2759905552,
				"element": "C" 
			},
			{
				"x": -0.1510988572,
				"y": 0.7476020737,
				"z": 0.5224439359,
				"element": "C" 
			},
			{
				"x": 0.868572525,
				"y": 1.4721520543,
				"z": 1.05612065,
				"element": "F" 
			},
			{
				"x": -0.2311246728,
				"y": -0.6084181583,
				"z": 0.802415385,
				"element": "C" 
			},
			{
				"x": -1.2909188046,
				"y": -1.3470343837,
				"z": 0.2661532128,
				"element": "C" 
			},
			{
				"x": -1.4472028092,
				"y": -2.6897761175,
				"z": 0.4927300235,
				"element": "O" 
			},
			{
				"x": -2.2408653257,
				"y": -0.7043324653,
				"z": -0.5325607794,
				"element": "C" 
			},
			{
				"x": -2.1283883991,
				"y": 0.6589983273,
				"z": -0.7984419666,
				"element": "C" 
			},
			{
				"x": -0.2876142097,
				"y": 3.2543286654,
				"z": 0.0862487786,
				"element": "H" 
			},
			{
				"x": -1.760950391,
				"y": 3.2952571946,
				"z": -0.7016675466,
				"element": "H" 
			},
			{
				"x": 0.5270995941,
				"y": -1.0610342501,
				"z": 1.4348713071,
				"element": "H" 
			},
			{
				"x": -0.7235258976,
				"y": -3.0030089991,
				"z": 1.0495246333,
				"element": "H" 
			},
			{
				"x": -3.0604868229,
				"y": -1.2843024872,
				"z": -0.9424677841,
				"element": "H" 
			},
			{
				"x": -2.868308769,
				"y": 1.1438270092,
				"z": -1.4297769571,
				"element": "H" 
			}
		],
		 "valence_orbital": [ 
			{
				"type": "occ",
				"energy": -0.35397,
				"method": "rhf"
			},
			{
				"type": "occ",
				"energy": -0.35018,
				"method": "rhf"
			},
			{
				"type": "occ",
				"energy": -0.284,
				"method": "rhf"
			},
			{
				"type": "occ",
				"energy": -0.24551,
				"method": "rhf"
			},
			{
				"type": "occ",
				"energy": -0.18929,
				"method": "rhf"
			},
			{
				"type": "unocc",
				"energy": 0.00122,
				"method": "rhf"
			},
			{
				"type": "unocc",
				"energy": 0.02866,
				"method": "rhf"
			},
			{
				"type": "unocc",
				"energy": 0.06955,
				"method": "rhf"
			},
			{
				"type": "unocc",
				"energy": 0.0869,
				"method": "rhf"
			},
			{
				"type": "unocc",
				"energy": 0.09771,
				"method": "rhf"
			}
		],
		"cosmo_sigma_profile": { 
			"-0.025": 0.0,
			"-0.024": 0.0,
			"-0.023": 0.0,
			"-0.022": 0.0,
			"-0.021": 0.0,
			"-0.02": 0.0,
			"-0.019": 0.0,
			"-0.018": 0.178236750548,
			"-0.017": 1.09715487169,
			"-0.016": 1.30941723901,
			"-0.015": 0.935979839126,
			"-0.014": 1.02833547836,
			"-0.013": 1.04452056748,
			"-0.012": 1.93477950353,
			"-0.011": 3.56391460952,
			"-0.01": 3.43657266802,
			"-0.009": 4.38095008452,
			"-0.008": 3.77542050423,
			"-0.007": 4.46978473916,
			"-0.006": 6.20085485725,
			"-0.005": 6.69246213271,
			"-0.004": 6.87384046383,
			"-0.003": 5.60224957725,
			"-0.002": 5.33886702347,
			"-0.001": 5.83461118847,
			"0.0": 5.84310029985,
			"0.001": 6.82032732381,
			"0.002": 11.6405009637,
			"0.003": 12.5389798811,
			"0.004": 17.1150906872,
			"0.005": 14.9341225789,
			"0.006": 6.74352601029,
			"0.007": 2.02168254914,
			"0.008": 1.657225179,
			"0.009": 2.46309874683,
			"0.01": 3.0407786533,
			"0.011": 2.17394425101,
			"0.012": 1.93725165033,
			"0.013": 0.871096673746,
			"0.014": 0.658922989877,
			"0.015": 0.590230718622,
			"0.016": 0.104069133153,
			"0.017": 0.0,
			"0.018": 0.0,
			"0.019": 0.0,
			"0.02": 0.0,
			"0.021": 0.0,
			"0.022": 0.0,
			"0.023": 0.0,
			"0.024": 0.0,
			"0.025": 0.0
		}
	}
}
