{
	 "smiles": "CC(=O)OCC1OC(OC2OC=CC3C(OC(=O)C4=CC=C(OC(C)=O)C=C4)C4OC4(COC(C)=O)C23)C(OC(C)=O)C(OC(C)=O)C1OC(C)=O", 
	 "Tm": 408.15, 
	 "num_atms": 90, 
	 "gaussian": { 
		 "optdone": 1, 
		 "sigma_profile": "yes", 
		 "theory": "DFT", 
		 "functional": "B3LYP", 
		 "basiset": "6-31G**", 
		 "properties": { 
			 "R2extent": 46667.7457, 
			 "electric_dipole_moment_norm": 3.23310272339, 
			 "electric_quadrupole_moment_norm": 31.2768433319, 
			 "total_energy": -2672.55065691, 
			 "HOMO_LUMO_gap": 0.18579, 
			 "cosmo_polarized_energy": -40.28, 
			 "cosmo_cavitation_energy": 95.06, 
			 "cosmo_dispersion_energy": -55.67, 
			 "cosmo_repulsion_energy": 4.21, 
			 "cosmo_total_nonelectrostatic_energy": 43.61, 
			 "SMD_solvation_energy": 22.6 
		},
		"coords": [
			{
				"x": 3.4689807656,
				"y": -3.5546132207,
				"z": 1.0359040955,
				"element": "C" 
			},
			{
				"x": 2.1903393605,
				"y": -3.855557814,
				"z": 1.7773955609,
				"element": "C" 
			},
			{
				"x": 1.9785468669,
				"y": -3.6176645653,
				"z": 2.9463201608,
				"element": "O" 
			},
			{
				"x": 1.2799295612,
				"y": -4.4359163903,
				"z": 0.9505222876,
				"element": "O" 
			},
			{
				"x": 0.0181781535,
				"y": -4.7868031606,
				"z": 1.5428196636,
				"element": "C" 
			},
			{
				"x": -0.9847797936,
				"y": -3.6484100897,
				"z": 1.4614233437,
				"element": "C" 
			},
			{
				"x": -1.3976467732,
				"y": -3.5277535482,
				"z": 0.0945653939,
				"element": "O" 
			},
			{
				"x": -2.1385415234,
				"y": -2.3764529955,
				"z": -0.2104144141,
				"element": "C" 
			},
			{
				"x": -1.240945757,
				"y": -1.3283295911,
				"z": -0.5493788602,
				"element": "O" 
			},
			{
				"x": -1.5973968523,
				"y": -0.5263137939,
				"z": -1.6420177985,
				"element": "C" 
			},
			{
				"x": -1.7049753651,
				"y": -1.3592578365,
				"z": -2.8024527834,
				"element": "O" 
			},
			{
				"x": -1.7857460122,
				"y": -0.6635571539,
				"z": -3.9737010681,
				"element": "C" 
			},
			{
				"x": -1.4870990243,
				"y": 0.6321855445,
				"z": -4.1227331163,
				"element": "C" 
			},
			{
				"x": -0.9290783088,
				"y": 1.4886445918,
				"z": -3.0098815676,
				"element": "C" 
			},
			{
				"x": 0.4026689602,
				"y": 2.1406493218,
				"z": -3.4556663059,
				"element": "C" 
			},
			{
				"x": 0.5053589881,
				"y": 3.4224252814,
				"z": -2.7997337009,
				"element": "O" 
			},
			{
				"x": 1.5351533093,
				"y": 4.2075079467,
				"z": -3.1972669838,
				"element": "C" 
			},
			{
				"x": 2.3209090628,
				"y": 3.8800543908,
				"z": -4.0667779304,
				"element": "O" 
			},
			{
				"x": 1.5813450627,
				"y": 5.5017564954,
				"z": -2.4663984779,
				"element": "C" 
			},
			{
				"x": 2.5956795815,
				"y": 6.4095105011,
				"z": -2.8027018358,
				"element": "C" 
			},
			{
				"x": 2.6844740318,
				"y": 7.6311914029,
				"z": -2.1497551862,
				"element": "C" 
			},
			{
				"x": 1.757726635,
				"y": 7.9529036292,
				"z": -1.1527179952,
				"element": "C" 
			},
			{
				"x": 1.9183077861,
				"y": 9.2258840463,
				"z": -0.6161727103,
				"element": "O" 
			},
			{
				"x": 1.5096275945,
				"y": 9.5815035781,
				"z": 0.6437922546,
				"element": "C" 
			},
			{
				"x": 1.8596547281,
				"y": 11.0282932073,
				"z": 0.8887033658,
				"element": "C" 
			},
			{
				"x": 0.9621016954,
				"y": 8.8450374833,
				"z": 1.4264655315,
				"element": "O" 
			},
			{
				"x": 0.735532333,
				"y": 7.0642408315,
				"z": -0.8054883961,
				"element": "C" 
			},
			{
				"x": 0.6589070413,
				"y": 5.8406197081,
				"z": -1.4684665987,
				"element": "C" 
			},
			{
				"x": 1.4919726619,
				"y": 1.1701007321,
				"z": -3.0030167622,
				"element": "C" 
			},
			{
				"x": 1.7665116995,
				"y": 1.243828435,
				"z": -1.5985117142,
				"element": "O" 
			},
			{
				"x": 0.9090588883,
				"y": 0.1827443603,
				"z": -2.0689378124,
				"element": "C" 
			},
			{
				"x": 1.494061786,
				"y": -1.2086257465,
				"z": -1.9222379125,
				"element": "C" 
			},
			{
				"x": 1.2079060216,
				"y": -2.0360624802,
				"z": -3.0719287572,
				"element": "O" 
			},
			{
				"x": 2.1431451135,
				"y": -2.0817206105,
				"z": -4.0500056425,
				"element": "C" 
			},
			{
				"x": 1.6920320728,
				"y": -2.9911920356,
				"z": -5.1678956438,
				"element": "C" 
			},
			{
				"x": 3.1913015877,
				"y": -1.472345786,
				"z": -4.0238279448,
				"element": "O" 
			},
			{
				"x": -0.5609258245,
				"y": 0.5773366548,
				"z": -1.8017292171,
				"element": "C" 
			},
			{
				"x": -3.0742581046,
				"y": -1.956670138,
				"z": 0.9599058303,
				"element": "C" 
			},
			{
				"x": -2.4094265515,
				"y": -1.0687297473,
				"z": 1.8715611579,
				"element": "O" 
			},
			{
				"x": -2.5473566533,
				"y": 0.2640610788,
				"z": 1.6592787152,
				"element": "C" 
			},
			{
				"x": -1.7428964277,
				"y": 1.0465272767,
				"z": 2.6651126441,
				"element": "C" 
			},
			{
				"x": -3.2245158512,
				"y": 0.7410461477,
				"z": 0.7731486377,
				"element": "O" 
			},
			{
				"x": -3.4585293191,
				"y": -3.221896788,
				"z": 1.7147819668,
				"element": "C" 
			},
			{
				"x": -4.4298932486,
				"y": -2.9236683166,
				"z": 2.7200775593,
				"element": "O" 
			},
			{
				"x": -5.5129284197,
				"y": -3.7609760899,
				"z": 2.7888004849,
				"element": "C" 
			},
			{
				"x": -6.337368973,
				"y": -3.454815089,
				"z": 4.0094326407,
				"element": "C" 
			},
			{
				"x": -5.7379204743,
				"y": -4.6294918895,
				"z": 1.9795912633,
				"element": "O" 
			},
			{
				"x": -2.2241393859,
				"y": -3.9153592287,
				"z": 2.3426027986,
				"element": "C" 
			},
			{
				"x": -1.9071843442,
				"y": -3.3881211016,
				"z": 3.6400122525,
				"element": "O" 
			},
			{
				"x": -2.4548283579,
				"y": -3.9940451648,
				"z": 4.7244140289,
				"element": "C" 
			},
			{
				"x": -1.9905690867,
				"y": -3.3167361279,
				"z": 5.9894507792,
				"element": "C" 
			},
			{
				"x": -3.2050104753,
				"y": -4.944028874,
				"z": 4.6654906075,
				"element": "O" 
			},
			{
				"x": 4.2235004193,
				"y": -3.2084011957,
				"z": 1.7413940263,
				"element": "H" 
			},
			{
				"x": 3.2877546909,
				"y": -2.7790250556,
				"z": 0.2853777902,
				"element": "H" 
			},
			{
				"x": 3.8212359892,
				"y": -4.4436698766,
				"z": 0.5063884582,
				"element": "H" 
			},
			{
				"x": -0.3476746909,
				"y": -5.6441278364,
				"z": 0.9727658886,
				"element": "H" 
			},
			{
				"x": 0.1691851304,
				"y": -5.0599082042,
				"z": 2.5897694513,
				"element": "H" 
			},
			{
				"x": -0.5158414638,
				"y": -2.7225497505,
				"z": 1.8089008485,
				"element": "H" 
			},
			{
				"x": -2.7432828175,
				"y": -2.6390261297,
				"z": -1.0827409926,
				"element": "H" 
			},
			{
				"x": -2.5814809329,
				"y": -0.0646529993,
				"z": -1.476698592,
				"element": "H" 
			},
			{
				"x": -2.1333565107,
				"y": -1.2947521742,
				"z": -4.7853620356,
				"element": "H" 
			},
			{
				"x": -1.6131467469,
				"y": 1.07488111,
				"z": -5.1062363301,
				"element": "H" 
			},
			{
				"x": -1.6386426421,
				"y": 2.2769952032,
				"z": -2.7310552068,
				"element": "H" 
			},
			{
				"x": 0.4511114579,
				"y": 2.3013015759,
				"z": -4.5356935393,
				"element": "H" 
			},
			{
				"x": 3.3041848191,
				"y": 6.1369173739,
				"z": -3.5771494002,
				"element": "H" 
			},
			{
				"x": 3.4592963199,
				"y": 8.3491433972,
				"z": -2.3964233875,
				"element": "H" 
			},
			{
				"x": 1.383579488,
				"y": 11.6622365707,
				"z": 0.1349018224,
				"element": "H" 
			},
			{
				"x": 2.9404469177,
				"y": 11.1728387166,
				"z": 0.800693238,
				"element": "H" 
			},
			{
				"x": 1.5249181433,
				"y": 11.3156059237,
				"z": 1.8846942037,
				"element": "H" 
			},
			{
				"x": 0.0292520314,
				"y": 7.3158719088,
				"z": -0.0284092494,
				"element": "H" 
			},
			{
				"x": -0.1250634722,
				"y": 5.139608454,
				"z": -1.2070563854,
				"element": "H" 
			},
			{
				"x": 2.346153554,
				"y": 0.9562693186,
				"z": -3.6373692555,
				"element": "H" 
			},
			{
				"x": 2.574622792,
				"y": -1.1030744054,
				"z": -1.8088773983,
				"element": "H" 
			},
			{
				"x": 1.0571435303,
				"y": -1.7409225281,
				"z": -1.0784358863,
				"element": "H" 
			},
			{
				"x": 1.4076441921,
				"y": -3.9692682543,
				"z": -4.7709117519,
				"element": "H" 
			},
			{
				"x": 0.8068898183,
				"y": -2.5651738383,
				"z": -5.6504650801,
				"element": "H" 
			},
			{
				"x": 2.4942070684,
				"y": -3.0954016376,
				"z": -5.8977308245,
				"element": "H" 
			},
			{
				"x": -0.5765504008,
				"y": 1.1566006105,
				"z": -0.8742746001,
				"element": "H" 
			},
			{
				"x": -3.9566320016,
				"y": -1.4512910435,
				"z": 0.5620782305,
				"element": "H" 
			},
			{
				"x": -0.6790502777,
				"y": 0.9557883375,
				"z": 2.421939348,
				"element": "H" 
			},
			{
				"x": -2.0331284553,
				"y": 2.0960093498,
				"z": 2.6266311228,
				"element": "H" 
			},
			{
				"x": -1.8848515084,
				"y": 0.6428069354,
				"z": 3.670190344,
				"element": "H" 
			},
			{
				"x": -3.9036194691,
				"y": -3.9179400742,
				"z": 0.9984866197,
				"element": "H" 
			},
			{
				"x": -6.3863442735,
				"y": -2.3796198537,
				"z": 4.1942159454,
				"element": "H" 
			},
			{
				"x": -7.3363561943,
				"y": -3.873655203,
				"z": 3.8899878066,
				"element": "H" 
			},
			{
				"x": -5.8500334042,
				"y": -3.9277254991,
				"z": 4.8686685758,
				"element": "H" 
			},
			{
				"x": -2.439326517,
				"y": -4.9826656944,
				"z": 2.4461793974,
				"element": "H" 
			},
			{
				"x": -0.8989197732,
				"y": -3.2595356479,
				"z": 6.0081996548,
				"element": "H" 
			},
			{
				"x": -2.3723115272,
				"y": -2.2913791994,
				"z": 6.0165522218,
				"element": "H" 
			},
			{
				"x": -2.3571637246,
				"y": -3.8695459565,
				"z": 6.8537190329,
				"element": "H" 
			}
		],
		 "valence_orbital": [ 
			{
				"type": "occ",
				"energy": -0.2706,
				"method": "rhf"
			},
			{
				"type": "occ",
				"energy": -0.26454,
				"method": "rhf"
			},
			{
				"type": "occ",
				"energy": -0.2618,
				"method": "rhf"
			},
			{
				"type": "occ",
				"energy": -0.24748,
				"method": "rhf"
			},
			{
				"type": "occ",
				"energy": -0.23318,
				"method": "rhf"
			},
			{
				"type": "unocc",
				"energy": -0.04739,
				"method": "rhf"
			},
			{
				"type": "unocc",
				"energy": -0.0112,
				"method": "rhf"
			},
			{
				"type": "unocc",
				"energy": -0.0029,
				"method": "rhf"
			},
			{
				"type": "unocc",
				"energy": -0.00198,
				"method": "rhf"
			},
			{
				"type": "unocc",
				"energy": -0.00025,
				"method": "rhf"
			}
		],
		"cosmo_sigma_profile": { 
			"-0.025": 0.0,
			"-0.024": 0.0,
			"-0.023": 0.0,
			"-0.022": 0.0,
			"-0.021": 0.0,
			"-0.02": 0.0,
			"-0.019": 0.0,
			"-0.018": 0.0,
			"-0.017": 0.0,
			"-0.016": 0.0,
			"-0.015": 0.0,
			"-0.014": 0.0,
			"-0.013": 0.0,
			"-0.012": 0.0,
			"-0.011": 0.355178286907,
			"-0.01": 2.15215402313,
			"-0.009": 3.07236024316,
			"-0.008": 6.80884943161,
			"-0.007": 22.3515350847,
			"-0.006": 49.9101365936,
			"-0.005": 67.0633678513,
			"-0.004": 70.0536405264,
			"-0.003": 71.0482870578,
			"-0.002": 74.7139990915,
			"-0.001": 54.2070952428,
			"0.0": 39.0801795363,
			"0.001": 40.1546426889,
			"0.002": 43.5644594905,
			"0.003": 34.2300757902,
			"0.004": 22.3483596627,
			"0.005": 20.7104783498,
			"0.006": 18.6980470227,
			"0.007": 18.2125464393,
			"0.008": 15.9204769373,
			"0.009": 18.5771870242,
			"0.01": 18.2719850252,
			"0.011": 24.0395347986,
			"0.012": 13.5988977447,
			"0.013": 2.19503618753,
			"0.014": 0.0,
			"0.015": 0.0,
			"0.016": 0.0,
			"0.017": 0.0,
			"0.018": 0.0,
			"0.019": 0.0,
			"0.02": 0.0,
			"0.021": 0.0,
			"0.022": 0.0,
			"0.023": 0.0,
			"0.024": 0.0,
			"0.025": 0.0
		}
	}
}
