{
	 "smiles": "NC1=NC=C(S1)S(=O)(=O)C1=CC=C(C=C1)[N+]([O-])=O", 
	 "Tm": 497.15, 
	 "num_atms": 25, 
	 "gaussian": { 
		 "optdone": 1, 
		 "sigma_profile": "yes", 
		 "theory": "DFT", 
		 "functional": "B3LYP", 
		 "basiset": "6-31G**", 
		 "properties": { 
			 "R2extent": 6714.9095, 
			 "electric_dipole_moment_norm": 6.20674537097, 
			 "electric_quadrupole_moment_norm": 31.399147709, 
			 "total_energy": -1608.51408847, 
			 "HOMO_LUMO_gap": 0.1352, 
			 "cosmo_polarized_energy": -22.48, 
			 "cosmo_cavitation_energy": 34.6, 
			 "cosmo_dispersion_energy": -25.47, 
			 "cosmo_repulsion_energy": 1.88, 
			 "cosmo_total_nonelectrostatic_energy": 11.01, 
			 "SMD_solvation_energy": 5.7 
		},
		"coords": [
			{
				"x": -4.0311712459,
				"y": -2.9790449804,
				"z": -0.4020503227,
				"element": "N" 
			},
			{
				"x": -3.4245437977,
				"y": -1.7664434341,
				"z": -0.2945485103,
				"element": "C" 
			},
			{
				"x": -3.4975977898,
				"y": -1.0204244821,
				"z": 0.7836954358,
				"element": "N" 
			},
			{
				"x": -2.8466355295,
				"y": 0.1629998989,
				"z": 0.5886058925,
				"element": "C" 
			},
			{
				"x": -2.2579615899,
				"y": 0.3458221204,
				"z": -0.6343211624,
				"element": "C" 
			},
			{
				"x": -2.5505800596,
				"y": -1.0538726592,
				"z": -1.6575943156,
				"element": "S" 
			},
			{
				"x": -1.3564750038,
				"y": 1.7686629856,
				"z": -1.1487365037,
				"element": "S" 
			},
			{
				"x": -1.5833842167,
				"y": 1.9595093366,
				"z": -2.5870738626,
				"element": "O" 
			},
			{
				"x": -1.6325910898,
				"y": 2.8183228669,
				"z": -0.1590600567,
				"element": "O" 
			},
			{
				"x": 0.3802808543,
				"y": 1.3039123895,
				"z": -0.9547577774,
				"element": "C" 
			},
			{
				"x": 1.0674721531,
				"y": 0.7736233905,
				"z": -2.0488678496,
				"element": "C" 
			},
			{
				"x": 2.4051878138,
				"y": 0.4135312337,
				"z": -1.9021842914,
				"element": "C" 
			},
			{
				"x": 3.0144218816,
				"y": 0.6014735689,
				"z": -0.6633712749,
				"element": "C" 
			},
			{
				"x": 2.3415937949,
				"y": 1.1450207552,
				"z": 0.4301107303,
				"element": "C" 
			},
			{
				"x": 1.0046026692,
				"y": 1.502087406,
				"z": 0.2794252594,
				"element": "C" 
			},
			{
				"x": 4.4304687705,
				"y": 0.2165630138,
				"z": -0.5043204463,
				"element": "N" 
			},
			{
				"x": 5.0019775485,
				"y": -0.2611179191,
				"z": -1.4824041414,
				"element": "O" 
			},
			{
				"x": 4.9468338881,
				"y": 0.3957273947,
				"z": 0.5968599193,
				"element": "O" 
			},
			{
				"x": -3.7165310636,
				"y": -3.6390152174,
				"z": -1.0954181798,
				"element": "H" 
			},
			{
				"x": -4.3866235076,
				"y": -3.3621762126,
				"z": 0.4623985772,
				"element": "H" 
			},
			{
				"x": -2.8199537788,
				"y": 0.9030001164,
				"z": 1.3797345704,
				"element": "H" 
			},
			{
				"x": 0.5632221284,
				"y": 0.6667351891,
				"z": -3.0027506249,
				"element": "H" 
			},
			{
				"x": 2.9788517369,
				"y": 0.0009286238,
				"z": -2.7224212024,
				"element": "H" 
			},
			{
				"x": 2.8678351291,
				"y": 1.2828356953,
				"z": 1.3661560318,
				"element": "H" 
			},
			{
				"x": 0.4523003043,
				"y": 1.9466389194,
				"z": 1.0997941055,
				"element": "H" 
			}
		],
		 "valence_orbital": [ 
			{
				"type": "occ",
				"energy": -0.30275,
				"method": "rhf"
			},
			{
				"type": "occ",
				"energy": -0.2995,
				"method": "rhf"
			},
			{
				"type": "occ",
				"energy": -0.29456,
				"method": "rhf"
			},
			{
				"type": "occ",
				"energy": -0.29267,
				"method": "rhf"
			},
			{
				"type": "occ",
				"energy": -0.24208,
				"method": "rhf"
			},
			{
				"type": "unocc",
				"energy": -0.10688,
				"method": "rhf"
			},
			{
				"type": "unocc",
				"energy": -0.05287,
				"method": "rhf"
			},
			{
				"type": "unocc",
				"energy": -0.04487,
				"method": "rhf"
			},
			{
				"type": "unocc",
				"energy": -0.02406,
				"method": "rhf"
			},
			{
				"type": "unocc",
				"energy": -0.01746,
				"method": "rhf"
			}
		],
		"cosmo_sigma_profile": { 
			"-0.025": 0.0,
			"-0.024": 0.0,
			"-0.023": 0.0,
			"-0.022": 0.0,
			"-0.021": 0.0,
			"-0.02": 0.0,
			"-0.019": 0.0,
			"-0.018": 0.0,
			"-0.017": 0.0140740249775,
			"-0.016": 1.27357304801,
			"-0.015": 2.73017788052,
			"-0.014": 2.7966772218,
			"-0.013": 2.51433881746,
			"-0.012": 2.47868045301,
			"-0.011": 2.75327066715,
			"-0.01": 2.04081698415,
			"-0.009": 4.21764065495,
			"-0.008": 9.6938274244,
			"-0.007": 10.2183045854,
			"-0.006": 12.1447156978,
			"-0.005": 11.5723871899,
			"-0.004": 11.9652634185,
			"-0.003": 13.8330470034,
			"-0.002": 18.4377263521,
			"-0.001": 28.37403897,
			"0.0": 26.7167345116,
			"0.001": 15.3323033765,
			"0.002": 11.0209542967,
			"0.003": 11.3609534927,
			"0.004": 7.52885585898,
			"0.005": 7.99429747418,
			"0.006": 11.0684552824,
			"0.007": 13.1742491704,
			"0.008": 10.412560135,
			"0.009": 8.71874996224,
			"0.01": 8.77405132275,
			"0.011": 8.67122383654,
			"0.012": 1.61896298677,
			"0.013": 0.665103036013,
			"0.014": 0.778762037576,
			"0.015": 0.038907806999,
			"0.016": 0.0,
			"0.017": 0.0,
			"0.018": 0.0,
			"0.019": 0.0,
			"0.02": 0.0,
			"0.021": 0.0,
			"0.022": 0.0,
			"0.023": 0.0,
			"0.024": 0.0,
			"0.025": 0.0
		}
	}
}
