{
	 "smiles": "OCC1=CC=C(C=C1)N1CCCCC1", 
	 "Tm": 421.15, 
	 "num_atms": 31, 
	 "gaussian": { 
		 "optdone": 1, 
		 "sigma_profile": "yes", 
		 "theory": "DFT", 
		 "functional": "B3LYP", 
		 "basiset": "6-31G**", 
		 "properties": { 
			 "R2extent": 4104.2636, 
			 "electric_dipole_moment_norm": 3.43303750198, 
			 "electric_quadrupole_moment_norm": 9.99965036939, 
			 "total_energy": -597.486738167, 
			 "HOMO_LUMO_gap": 0.18935, 
			 "cosmo_polarized_energy": -8.52, 
			 "cosmo_cavitation_energy": 31.53, 
			 "cosmo_dispersion_energy": -23.45, 
			 "cosmo_repulsion_energy": 1.85, 
			 "cosmo_total_nonelectrostatic_energy": 9.93, 
			 "SMD_solvation_energy": 3.98 
		},
		"coords": [
			{
				"x": -4.0607747122,
				"y": -2.6292407356,
				"z": 2.3099122189,
				"element": "O" 
			},
			{
				"x": -4.007889781,
				"y": -2.0520639083,
				"z": 1.0086332735,
				"element": "C" 
			},
			{
				"x": -2.6452181688,
				"y": -1.502313931,
				"z": 0.6472760781,
				"element": "C" 
			},
			{
				"x": -2.5019906066,
				"y": -0.3246542236,
				"z": -0.0961538427,
				"element": "C" 
			},
			{
				"x": -1.2520187284,
				"y": 0.1682889391,
				"z": -0.4526365822,
				"element": "C" 
			},
			{
				"x": -0.0670412828,
				"y": -0.505533996,
				"z": -0.0779368705,
				"element": "C" 
			},
			{
				"x": -0.215419845,
				"y": -1.6868151877,
				"z": 0.683305169,
				"element": "C" 
			},
			{
				"x": -1.4760153668,
				"y": -2.1645806253,
				"z": 1.0337572377,
				"element": "C" 
			},
			{
				"x": 1.1944502245,
				"y": -0.0025776206,
				"z": -0.3957726803,
				"element": "N" 
			},
			{
				"x": 2.3875553121,
				"y": -0.6669619585,
				"z": 0.1279398244,
				"element": "C" 
			},
			{
				"x": 3.6601834079,
				"y": 0.1345001502,
				"z": -0.2107863109,
				"element": "C" 
			},
			{
				"x": 3.3763439991,
				"y": 1.6406816417,
				"z": -0.173401253,
				"element": "C" 
			},
			{
				"x": 2.3326758883,
				"y": 2.0149505127,
				"z": -1.2527095603,
				"element": "C" 
			},
			{
				"x": 1.4394607784,
				"y": 0.8042763932,
				"z": -1.589381766,
				"element": "C" 
			},
			{
				"x": -3.711664775,
				"y": -1.9698985351,
				"z": 2.9247473551,
				"element": "H" 
			},
			{
				"x": -4.766897254,
				"y": -1.2617682048,
				"z": 0.8868823943,
				"element": "H" 
			},
			{
				"x": -4.2920587824,
				"y": -2.8670554155,
				"z": 0.3310520321,
				"element": "H" 
			},
			{
				"x": -3.3885209838,
				"y": 0.2313621212,
				"z": -0.3951234385,
				"element": "H" 
			},
			{
				"x": -1.1999099458,
				"y": 1.1059952542,
				"z": -0.9946887209,
				"element": "H" 
			},
			{
				"x": 0.6561934111,
				"y": -2.2491895189,
				"z": 0.9949047016,
				"element": "H" 
			},
			{
				"x": -1.5569722664,
				"y": -3.0748551239,
				"z": 1.6215273196,
				"element": "H" 
			},
			{
				"x": 2.4840490988,
				"y": -1.6988924319,
				"z": -0.2536579118,
				"element": "H" 
			},
			{
				"x": 2.2850578285,
				"y": -0.7394550197,
				"z": 1.2179796419,
				"element": "H" 
			},
			{
				"x": 4.0322287668,
				"y": -0.1446175232,
				"z": -1.204357834,
				"element": "H" 
			},
			{
				"x": 4.4473734514,
				"y": -0.139655542,
				"z": 0.499416716,
				"element": "H" 
			},
			{
				"x": 4.2993825943,
				"y": 2.2132079034,
				"z": -0.3131467118,
				"element": "H" 
			},
			{
				"x": 2.991392927,
				"y": 1.9023288204,
				"z": 0.819193474,
				"element": "H" 
			},
			{
				"x": 1.7165927865,
				"y": 2.8495058477,
				"z": -0.9008888475,
				"element": "H" 
			},
			{
				"x": 2.8290326026,
				"y": 2.3501325094,
				"z": -2.17161729,
				"element": "H" 
			},
			{
				"x": 0.4937571693,
				"y": 1.1289870358,
				"z": -2.0199788134,
				"element": "H" 
			},
			{
				"x": 1.9250622527,
				"y": 0.1845123726,
				"z": -2.3616890022,
				"element": "H" 
			}
		],
		 "valence_orbital": [ 
			{
				"type": "occ",
				"energy": -0.31258,
				"method": "rhf"
			},
			{
				"type": "occ",
				"energy": -0.27502,
				"method": "rhf"
			},
			{
				"type": "occ",
				"energy": -0.2573,
				"method": "rhf"
			},
			{
				"type": "occ",
				"energy": -0.24029,
				"method": "rhf"
			},
			{
				"type": "occ",
				"energy": -0.18253,
				"method": "rhf"
			},
			{
				"type": "unocc",
				"energy": 0.00682,
				"method": "rhf"
			},
			{
				"type": "unocc",
				"energy": 0.01741,
				"method": "rhf"
			},
			{
				"type": "unocc",
				"energy": 0.07742,
				"method": "rhf"
			},
			{
				"type": "unocc",
				"energy": 0.09987,
				"method": "rhf"
			},
			{
				"type": "unocc",
				"energy": 0.10154,
				"method": "rhf"
			}
		],
		"cosmo_sigma_profile": { 
			"-0.025": 0.0,
			"-0.024": 0.0,
			"-0.023": 0.0,
			"-0.022": 0.0,
			"-0.021": 0.0,
			"-0.02": 0.0,
			"-0.019": 0.0,
			"-0.018": 0.0,
			"-0.017": 0.0,
			"-0.016": 0.0,
			"-0.015": 0.312443779054,
			"-0.014": 0.822857619513,
			"-0.013": 1.27115236619,
			"-0.012": 0.284450420096,
			"-0.011": 0.865340962776,
			"-0.01": 0.561701599386,
			"-0.009": 0.84256510333,
			"-0.008": 0.888167089837,
			"-0.007": 1.69163746706,
			"-0.006": 2.70220159276,
			"-0.005": 6.0450088305,
			"-0.004": 15.753338149,
			"-0.003": 31.6880905295,
			"-0.002": 39.6438723321,
			"-0.001": 35.2077047735,
			"0.0": 25.2314326075,
			"0.001": 16.8842419744,
			"0.002": 9.6347667502,
			"0.003": 7.20586737767,
			"0.004": 8.79002753926,
			"0.005": 8.27477901066,
			"0.006": 9.38108563958,
			"0.007": 9.66124813099,
			"0.008": 2.63674273644,
			"0.009": 1.43928958023,
			"0.01": 1.61310002261,
			"0.011": 0.960566049036,
			"0.012": 1.08388148379,
			"0.013": 1.55225439771,
			"0.014": 2.25893703951,
			"0.015": 0.770658906775,
			"0.016": 0.0,
			"0.017": 0.0,
			"0.018": 0.0,
			"0.019": 0.0,
			"0.02": 0.0,
			"0.021": 0.0,
			"0.022": 0.0,
			"0.023": 0.0,
			"0.024": 0.0,
			"0.025": 0.0
		}
	}
}
