{
	 "smiles": "CN1C=CN=C1CC(=O)C1=CC=CC=C1", 
	 "Tm": 370.15, 
	 "num_atms": 27, 
	 "gaussian": { 
		 "optdone": 1, 
		 "sigma_profile": "yes", 
		 "theory": "DFT", 
		 "functional": "B3LYP", 
		 "basiset": "6-31G**", 
		 "properties": { 
			 "R2extent": 3639.4771, 
			 "electric_dipole_moment_norm": 0.973297225928, 
			 "electric_quadrupole_moment_norm": 13.5818875824, 
			 "total_energy": -649.235712234, 
			 "HOMO_LUMO_gap": 0.15757, 
			 "cosmo_polarized_energy": -11.35, 
			 "cosmo_cavitation_energy": 30.56, 
			 "cosmo_dispersion_energy": -21.91, 
			 "cosmo_repulsion_energy": 1.69, 
			 "cosmo_total_nonelectrostatic_energy": 10.35, 
			 "SMD_solvation_energy": 4.87 
		},
		"coords": [
			{
				"x": -2.3082266003,
				"y": -0.5386462143,
				"z": -2.4830211292,
				"element": "C" 
			},
			{
				"x": -1.7763580953,
				"y": -1.3808877178,
				"z": -1.4177808984,
				"element": "N" 
			},
			{
				"x": -1.2735159939,
				"y": -2.6580222222,
				"z": -1.5752870002,
				"element": "C" 
			},
			{
				"x": -0.9606199079,
				"y": -3.0967306528,
				"z": -0.3138757747,
				"element": "C" 
			},
			{
				"x": -1.2623242092,
				"y": -2.1315337014,
				"z": 0.6170979302,
				"element": "N" 
			},
			{
				"x": -1.7568266853,
				"y": -1.1163494757,
				"z": -0.0706308611,
				"element": "C" 
			},
			{
				"x": -2.2163893765,
				"y": 0.1773788289,
				"z": 0.539411431,
				"element": "C" 
			},
			{
				"x": -1.2296102663,
				"y": 1.3338896857,
				"z": 0.3067318379,
				"element": "C" 
			},
			{
				"x": -1.4382845149,
				"y": 2.1217970302,
				"z": -0.6081154045,
				"element": "O" 
			},
			{
				"x": -0.0404891292,
				"y": 1.4796757954,
				"z": 1.1969276074,
				"element": "C" 
			},
			{
				"x": 0.3452224207,
				"y": 0.4898464539,
				"z": 2.1165119236,
				"element": "C" 
			},
			{
				"x": 1.4678677569,
				"y": 0.6887800243,
				"z": 2.9206263084,
				"element": "C" 
			},
			{
				"x": 2.2037505828,
				"y": 1.8711300314,
				"z": 2.8226131929,
				"element": "C" 
			},
			{
				"x": 1.8262685843,
				"y": 2.8580461634,
				"z": 1.9058583897,
				"element": "C" 
			},
			{
				"x": 0.7150361058,
				"y": 2.6604452331,
				"z": 1.0935429587,
				"element": "C" 
			},
			{
				"x": -3.348059598,
				"y": -0.8001028452,
				"z": -2.7088944324,
				"element": "H" 
			},
			{
				"x": -1.7074904735,
				"y": -0.6770314887,
				"z": -3.3848155463,
				"element": "H" 
			},
			{
				"x": -2.2523680843,
				"y": 0.5093438165,
				"z": -2.1866108525,
				"element": "H" 
			},
			{
				"x": -1.188761761,
				"y": -3.1160286648,
				"z": -2.5492186958,
				"element": "H" 
			},
			{
				"x": -0.5345869424,
				"y": -4.0476916977,
				"z": -0.0254907497,
				"element": "H" 
			},
			{
				"x": -3.1717609814,
				"y": 0.4998135757,
				"z": 0.1153076903,
				"element": "H" 
			},
			{
				"x": -2.3595518337,
				"y": -0.0060739358,
				"z": 1.6059996774,
				"element": "H" 
			},
			{
				"x": -0.1984930447,
				"y": -0.4477797023,
				"z": 2.1768843461,
				"element": "H" 
			},
			{
				"x": 1.7690735853,
				"y": -0.0829933913,
				"z": 3.6227734202,
				"element": "H" 
			},
			{
				"x": 3.0729474823,
				"y": 2.0234339557,
				"z": 3.4565107966,
				"element": "H" 
			},
			{
				"x": 2.4004595962,
				"y": 3.7766938353,
				"z": 1.827335639,
				"element": "H" 
			},
			{
				"x": 0.4049913836,
				"y": 3.4075972805,
				"z": 0.3706081953,
				"element": "H" 
			}
		],
		 "valence_orbital": [ 
			{
				"type": "occ",
				"energy": -0.26531,
				"method": "rhf"
			},
			{
				"type": "occ",
				"energy": -0.26053,
				"method": "rhf"
			},
			{
				"type": "occ",
				"energy": -0.25642,
				"method": "rhf"
			},
			{
				"type": "occ",
				"energy": -0.25431,
				"method": "rhf"
			},
			{
				"type": "occ",
				"energy": -0.21642,
				"method": "rhf"
			},
			{
				"type": "unocc",
				"energy": -0.05885,
				"method": "rhf"
			},
			{
				"type": "unocc",
				"energy": -0.00533,
				"method": "rhf"
			},
			{
				"type": "unocc",
				"energy": 0.02309,
				"method": "rhf"
			},
			{
				"type": "unocc",
				"energy": 0.04182,
				"method": "rhf"
			},
			{
				"type": "unocc",
				"energy": 0.07049,
				"method": "rhf"
			}
		],
		"cosmo_sigma_profile": { 
			"-0.025": 0.0,
			"-0.024": 0.0,
			"-0.023": 0.0,
			"-0.022": 0.0,
			"-0.021": 0.0,
			"-0.02": 0.0,
			"-0.019": 0.0,
			"-0.018": 0.0,
			"-0.017": 0.0,
			"-0.016": 0.0,
			"-0.015": 0.0,
			"-0.014": 0.0,
			"-0.013": 0.0,
			"-0.012": 0.0,
			"-0.011": 0.0,
			"-0.01": 0.0,
			"-0.009": 0.120407905376,
			"-0.008": 1.92831899717,
			"-0.007": 6.09110485798,
			"-0.006": 18.1884177141,
			"-0.005": 22.3723907371,
			"-0.004": 22.8086165275,
			"-0.003": 24.794883602,
			"-0.002": 17.2425230494,
			"-0.001": 13.2056264138,
			"0.0": 14.4354635027,
			"0.001": 13.4499616417,
			"0.002": 15.622170268,
			"0.003": 16.8091240124,
			"0.004": 19.4667572517,
			"0.005": 7.48548212797,
			"0.006": 6.60948948758,
			"0.007": 3.69072633374,
			"0.008": 3.86303790641,
			"0.009": 3.35784684707,
			"0.01": 3.03193882198,
			"0.011": 4.1200171416,
			"0.012": 2.71527270632,
			"0.013": 0.63404304976,
			"0.014": 0.849503623722,
			"0.015": 0.794039368731,
			"0.016": 0.816040207846,
			"0.017": 0.179910050428,
			"0.018": 0.0,
			"0.019": 0.0,
			"0.02": 0.0,
			"0.021": 0.0,
			"0.022": 0.0,
			"0.023": 0.0,
			"0.024": 0.0,
			"0.025": 0.0
		}
	}
}
