{
	 "smiles": "OC(=O)C1=CC=C(S1)C1=CC(OC(F)(F)F)=CC=C1", 
	 "Tm": 423.15, 
	 "num_atms": 26, 
	 "gaussian": { 
		 "optdone": 1, 
		 "sigma_profile": "yes", 
		 "theory": "DFT", 
		 "functional": "B3LYP", 
		 "basiset": "6-31G**", 
		 "properties": { 
			 "R2extent": 8539.8412, 
			 "electric_dipole_moment_norm": 4.80566229047, 
			 "electric_quadrupole_moment_norm": 30.0095611216, 
			 "total_energy": -1384.87581815, 
			 "HOMO_LUMO_gap": 0.15985, 
			 "cosmo_polarized_energy": -14.33, 
			 "cosmo_cavitation_energy": 34.77, 
			 "cosmo_dispersion_energy": -25.13, 
			 "cosmo_repulsion_energy": 1.81, 
			 "cosmo_total_nonelectrostatic_energy": 11.46, 
			 "SMD_solvation_energy": 8.28 
		},
		"coords": [
			{
				"x": -5.7587392064,
				"y": 0.9657847068,
				"z": 1.5869699834,
				"element": "O" 
			},
			{
				"x": -4.939803879,
				"y": 2.0472902521,
				"z": 1.6870863578,
				"element": "C" 
			},
			{
				"x": -5.4012327001,
				"y": 3.1363633549,
				"z": 1.9375860308,
				"element": "O" 
			},
			{
				"x": -3.4899378875,
				"y": 1.8326632552,
				"z": 1.4759217387,
				"element": "C" 
			},
			{
				"x": -2.5222769673,
				"y": 2.7815611494,
				"z": 1.7090127043,
				"element": "C" 
			},
			{
				"x": -1.2104717985,
				"y": 2.323423028,
				"z": 1.438263318,
				"element": "C" 
			},
			{
				"x": -1.1582064871,
				"y": 1.0184504277,
				"z": 0.9902264143,
				"element": "C" 
			},
			{
				"x": -2.7716056482,
				"y": 0.3518079462,
				"z": 0.8844219069,
				"element": "S" 
			},
			{
				"x": 0.0202423664,
				"y": 0.2288033518,
				"z": 0.611423462,
				"element": "C" 
			},
			{
				"x": 1.1644919173,
				"y": 0.8913655744,
				"z": 0.1292509726,
				"element": "C" 
			},
			{
				"x": 2.2927899386,
				"y": 0.1492868632,
				"z": -0.2045323675,
				"element": "C" 
			},
			{
				"x": 3.4677339668,
				"y": 0.7060467905,
				"z": -0.7139013172,
				"element": "O" 
			},
			{
				"x": 3.7906049407,
				"y": 2.0007572106,
				"z": -0.4679702727,
				"element": "C" 
			},
			{
				"x": 2.9872693707,
				"y": 2.8674156338,
				"z": -1.1230773431,
				"element": "F" 
			},
			{
				"x": 5.0370903806,
				"y": 2.1884207989,
				"z": -0.8940410785,
				"element": "F" 
			},
			{
				"x": 3.7240010939,
				"y": 2.3082101922,
				"z": 0.8394247455,
				"element": "F" 
			},
			{
				"x": 2.3088878568,
				"y": -1.2414281782,
				"z": -0.1005923089,
				"element": "C" 
			},
			{
				"x": 1.1674094415,
				"y": -1.8948834702,
				"z": 0.3573562939,
				"element": "C" 
			},
			{
				"x": 0.0329828944,
				"y": -1.1715070284,
				"z": 0.7198349643,
				"element": "C" 
			},
			{
				"x": -5.256518693,
				"y": 0.1426192227,
				"z": 1.5028915966,
				"element": "H" 
			},
			{
				"x": -2.7734249473,
				"y": 3.7683992185,
				"z": 2.0781070722,
				"element": "H" 
			},
			{
				"x": -0.3214758216,
				"y": 2.9229991839,
				"z": 1.5954742932,
				"element": "H" 
			},
			{
				"x": 1.1490297461,
				"y": 1.9639620628,
				"z": -0.0065772146,
				"element": "H" 
			},
			{
				"x": 3.2061721681,
				"y": -1.7828805055,
				"z": -0.3784973343,
				"element": "H" 
			},
			{
				"x": 1.1692028308,
				"y": -2.9766468658,
				"z": 0.4465573492,
				"element": "H" 
			},
			{
				"x": -0.8368148768,
				"y": -1.6915841756,
				"z": 1.108380033,
				"element": "H" 
			}
		],
		 "valence_orbital": [ 
			{
				"type": "occ",
				"energy": -0.29797,
				"method": "rhf"
			},
			{
				"type": "occ",
				"energy": -0.28018,
				"method": "rhf"
			},
			{
				"type": "occ",
				"energy": -0.27865,
				"method": "rhf"
			},
			{
				"type": "occ",
				"energy": -0.26815,
				"method": "rhf"
			},
			{
				"type": "occ",
				"energy": -0.23961,
				"method": "rhf"
			},
			{
				"type": "unocc",
				"energy": -0.07976,
				"method": "rhf"
			},
			{
				"type": "unocc",
				"energy": -0.02973,
				"method": "rhf"
			},
			{
				"type": "unocc",
				"energy": -0.02393,
				"method": "rhf"
			},
			{
				"type": "unocc",
				"energy": -0.00589,
				"method": "rhf"
			},
			{
				"type": "unocc",
				"energy": 0.03107,
				"method": "rhf"
			}
		],
		"cosmo_sigma_profile": { 
			"-0.025": 0.0,
			"-0.024": 0.0,
			"-0.023": 0.0,
			"-0.022": 0.0,
			"-0.021": 0.0,
			"-0.02": 0.0,
			"-0.019": 0.0,
			"-0.018": 0.603936819439,
			"-0.017": 0.701973362409,
			"-0.016": 0.957141990121,
			"-0.015": 0.796859114789,
			"-0.014": 0.442999879236,
			"-0.013": 1.39753717549,
			"-0.012": 1.74443189116,
			"-0.011": 0.983638314208,
			"-0.01": 0.391482313926,
			"-0.009": 1.44213464611,
			"-0.008": 5.23371419803,
			"-0.007": 10.4753446473,
			"-0.006": 11.4728206914,
			"-0.005": 13.5855054359,
			"-0.004": 9.84893814146,
			"-0.003": 12.2601743932,
			"-0.002": 15.8394083924,
			"-0.001": 20.8675935165,
			"0.0": 26.9717345402,
			"0.001": 44.4596876569,
			"0.002": 49.8052969427,
			"0.003": 15.8127726135,
			"0.004": 5.27207814153,
			"0.005": 3.18054242452,
			"0.006": 3.09935565144,
			"0.007": 2.92905099536,
			"0.008": 2.40603073198,
			"0.009": 3.79568782151,
			"0.01": 4.50867678784,
			"0.011": 5.40211109978,
			"0.012": 4.61139159567,
			"0.013": 1.24146204399,
			"0.014": 0.0,
			"0.015": 0.0,
			"0.016": 0.0,
			"0.017": 0.0,
			"0.018": 0.0,
			"0.019": 0.0,
			"0.02": 0.0,
			"0.021": 0.0,
			"0.022": 0.0,
			"0.023": 0.0,
			"0.024": 0.0,
			"0.025": 0.0
		}
	}
}
