{
	 "smiles": "CC(C)C1=C(C=NC2=NC=NN12)C(O)=O", 
	 "Tm": 481.15, 
	 "num_atms": 25, 
	 "gaussian": { 
		 "optdone": 1, 
		 "sigma_profile": "yes", 
		 "theory": "DFT", 
		 "functional": "B3LYP", 
		 "basiset": "6-31G**", 
		 "properties": { 
			 "R2extent": 3116.9774, 
			 "electric_dipole_moment_norm": 4.69204866236, 
			 "electric_quadrupole_moment_norm": 13.7299739872, 
			 "total_energy": -718.424685401, 
			 "HOMO_LUMO_gap": 0.18736, 
			 "cosmo_polarized_energy": -19.29, 
			 "cosmo_cavitation_energy": 28.39, 
			 "cosmo_dispersion_energy": -20.64, 
			 "cosmo_repulsion_energy": 1.58, 
			 "cosmo_total_nonelectrostatic_energy": 9.33, 
			 "SMD_solvation_energy": 2.03 
		},
		"coords": [
			{
				"x": 0.6642369986,
				"y": 1.4002659235,
				"z": -1.5909035823,
				"element": "C" 
			},
			{
				"x": -0.241770953,
				"y": 0.2739179501,
				"z": -1.0658065808,
				"element": "C" 
			},
			{
				"x": -1.7326750293,
				"y": 0.5085094581,
				"z": -1.3951056532,
				"element": "C" 
			},
			{
				"x": -0.0424142114,
				"y": -0.0720572725,
				"z": 0.4015749531,
				"element": "C" 
			},
			{
				"x": 0.2712542548,
				"y": 0.7376352435,
				"z": 1.4867297424,
				"element": "C" 
			},
			{
				"x": 0.5370335625,
				"y": 0.1345292178,
				"z": 2.7573069155,
				"element": "C" 
			},
			{
				"x": 0.4492738344,
				"y": -1.1494576608,
				"z": 3.0229357977,
				"element": "N" 
			},
			{
				"x": 0.0974802478,
				"y": -1.9351611605,
				"z": 1.9908585175,
				"element": "C" 
			},
			{
				"x": -0.0686278392,
				"y": -3.2536804108,
				"z": 1.9491488488,
				"element": "N" 
			},
			{
				"x": -0.3911280952,
				"y": -3.4759537819,
				"z": 0.6572583192,
				"element": "C" 
			},
			{
				"x": -0.4477304487,
				"y": -2.4125252195,
				"z": -0.1478303936,
				"element": "N" 
			},
			{
				"x": -0.1355011678,
				"y": -1.4048278245,
				"z": 0.7099663274,
				"element": "N" 
			},
			{
				"x": 0.4045600654,
				"y": 2.2336987366,
				"z": 1.4624370066,
				"element": "C" 
			},
			{
				"x": -0.6194715905,
				"y": 2.9298033259,
				"z": 0.9008379384,
				"element": "O" 
			},
			{
				"x": 1.3295167204,
				"y": 2.8149914201,
				"z": 1.9720378694,
				"element": "O" 
			},
			{
				"x": 0.6012018516,
				"y": 1.419530955,
				"z": -2.6830844668,
				"element": "H" 
			},
			{
				"x": 0.3705730831,
				"y": 2.3862592737,
				"z": -1.2268160122,
				"element": "H" 
			},
			{
				"x": 1.7104126662,
				"y": 1.2295939935,
				"z": -1.3207896557,
				"element": "H" 
			},
			{
				"x": 0.0385653096,
				"y": -0.6450018597,
				"z": -1.5894150261,
				"element": "H" 
			},
			{
				"x": -1.8571053843,
				"y": 0.5965439244,
				"z": -2.4783093713,
				"element": "H" 
			},
			{
				"x": -2.1165458185,
				"y": 1.4369960448,
				"z": -0.9556583951,
				"element": "H" 
			},
			{
				"x": -2.3515120449,
				"y": -0.3235983329,
				"z": -1.0498940349,
				"element": "H" 
			},
			{
				"x": 0.8344800649,
				"y": 0.7896146748,
				"z": 3.5727385118,
				"element": "H" 
			},
			{
				"x": -0.600995141,
				"y": -4.463894477,
				"z": 0.2687379672,
				"element": "H" 
			},
			{
				"x": -1.3433109356,
				"y": 2.3294678583,
				"z": 0.6717444568,
				"element": "H" 
			}
		],
		 "valence_orbital": [ 
			{
				"type": "occ",
				"energy": -0.30561,
				"method": "rhf"
			},
			{
				"type": "occ",
				"energy": -0.29478,
				"method": "rhf"
			},
			{
				"type": "occ",
				"energy": -0.28832,
				"method": "rhf"
			},
			{
				"type": "occ",
				"energy": -0.28026,
				"method": "rhf"
			},
			{
				"type": "occ",
				"energy": -0.26762,
				"method": "rhf"
			},
			{
				"type": "unocc",
				"energy": -0.08026,
				"method": "rhf"
			},
			{
				"type": "unocc",
				"energy": -0.05232,
				"method": "rhf"
			},
			{
				"type": "unocc",
				"energy": 0.0027,
				"method": "rhf"
			},
			{
				"type": "unocc",
				"energy": 0.0342,
				"method": "rhf"
			},
			{
				"type": "unocc",
				"energy": 0.0355,
				"method": "rhf"
			}
		],
		"cosmo_sigma_profile": { 
			"-0.025": 0.0,
			"-0.024": 0.0,
			"-0.023": 0.0,
			"-0.022": 0.0,
			"-0.021": 0.0,
			"-0.02": 0.0,
			"-0.019": 0.0,
			"-0.018": 0.574700883952,
			"-0.017": 1.08308141837,
			"-0.016": 1.07506234857,
			"-0.015": 0.685344652818,
			"-0.014": 1.11929573679,
			"-0.013": 1.10238478047,
			"-0.012": 0.954502698859,
			"-0.011": 0.698840953272,
			"-0.01": 2.05305609962,
			"-0.009": 4.27128310935,
			"-0.008": 5.20935512544,
			"-0.007": 8.18863161309,
			"-0.006": 7.96743069992,
			"-0.005": 16.1308787377,
			"-0.004": 20.5035381301,
			"-0.003": 18.1781863759,
			"-0.002": 18.501793756,
			"-0.001": 20.3968001361,
			"0.0": 14.7447367752,
			"0.001": 7.15967882768,
			"0.002": 7.02443905535,
			"0.003": 6.61166696464,
			"0.004": 4.99745538001,
			"0.005": 5.58301503674,
			"0.006": 6.46025367865,
			"0.007": 5.52381917536,
			"0.008": 6.9623575822,
			"0.009": 6.55522829612,
			"0.01": 8.64021827064,
			"0.011": 8.12653481928,
			"0.012": 4.58396114943,
			"0.013": 2.06829735425,
			"0.014": 1.65195722334,
			"0.015": 1.15371783393,
			"0.016": 0.257824738823,
			"0.017": 0.0,
			"0.018": 0.0,
			"0.019": 0.0,
			"0.02": 0.0,
			"0.021": 0.0,
			"0.022": 0.0,
			"0.023": 0.0,
			"0.024": 0.0,
			"0.025": 0.0
		}
	}
}
