{
	 "smiles": "ClC1=NC=C(Br)C=C1", 
	 "Tm": 343.15, 
	 "num_atms": 11, 
	 "gaussian": { 
		 "optdone": 1, 
		 "sigma_profile": "yes", 
		 "theory": "DFT", 
		 "functional": "B3LYP", 
		 "basiset": "6-31G**", 
		 "properties": { 
			 "R2extent": 2364.6938, 
			 "electric_dipole_moment_norm": 2.33928612615, 
			 "electric_quadrupole_moment_norm": 7.76092220165, 
			 "total_energy": -3278.67956701, 
			 "HOMO_LUMO_gap": 0.20676, 
			 "cosmo_polarized_energy": -5.82, 
			 "cosmo_cavitation_energy": 19.76, 
			 "cosmo_dispersion_energy": -15.46, 
			 "cosmo_repulsion_energy": 1.28, 
			 "cosmo_total_nonelectrostatic_energy": 5.59, 
			 "SMD_solvation_energy": 0.69 
		},
		"coords": [
			{
				"x": 2.7712078972,
				"y": -2.2782694957,
				"z": -1.5055376345,
				"element": "Cl" 
			},
			{
				"x": 1.5112717654,
				"y": -1.1216359933,
				"z": -1.0959090278,
				"element": "C" 
			},
			{
				"x": 1.8308386924,
				"y": -0.1722404585,
				"z": -0.2348921417,
				"element": "N" 
			},
			{
				"x": 0.8888856083,
				"y": 0.7202303736,
				"z": 0.092798459,
				"element": "C" 
			},
			{
				"x": -0.3979175219,
				"y": 0.674347248,
				"z": -0.4417507328,
				"element": "C" 
			},
			{
				"x": -1.6864664741,
				"y": 1.9769965302,
				"z": 0.0699177707,
				"element": "Br" 
			},
			{
				"x": -0.7249537335,
				"y": -0.3325436955,
				"z": -1.3502888142,
				"element": "C" 
			},
			{
				"x": 0.2538027508,
				"y": -1.2606721755,
				"z": -1.691411884,
				"element": "C" 
			},
			{
				"x": 1.1698157334,
				"y": 1.4934809048,
				"z": 0.8020683325,
				"element": "H" 
			},
			{
				"x": -1.7188277029,
				"y": -0.3896718613,
				"z": -1.779980901,
				"element": "H" 
			},
			{
				"x": 0.0537429848,
				"y": -2.0627213768,
				"z": -2.3917134261,
				"element": "H" 
			}
		],
		 "valence_orbital": [ 
			{
				"type": "occ",
				"energy": -0.32308,
				"method": "rhf"
			},
			{
				"type": "occ",
				"energy": -0.30937,
				"method": "rhf"
			},
			{
				"type": "occ",
				"energy": -0.30656,
				"method": "rhf"
			},
			{
				"type": "occ",
				"energy": -0.28612,
				"method": "rhf"
			},
			{
				"type": "occ",
				"energy": -0.25835,
				"method": "rhf"
			},
			{
				"type": "unocc",
				"energy": -0.05159,
				"method": "rhf"
			},
			{
				"type": "unocc",
				"energy": -0.03954,
				"method": "rhf"
			},
			{
				"type": "unocc",
				"energy": -0.009,
				"method": "rhf"
			},
			{
				"type": "unocc",
				"energy": 0.02678,
				"method": "rhf"
			},
			{
				"type": "unocc",
				"energy": 0.11284,
				"method": "rhf"
			}
		],
		"cosmo_sigma_profile": { 
			"-0.025": 0.0,
			"-0.024": 0.0,
			"-0.023": 0.0,
			"-0.022": 0.0,
			"-0.021": 0.0,
			"-0.02": 0.0,
			"-0.019": 0.0,
			"-0.018": 0.0,
			"-0.017": 0.0,
			"-0.016": 0.0,
			"-0.015": 0.0,
			"-0.014": 0.0,
			"-0.013": 0.0,
			"-0.012": 0.0,
			"-0.011": 0.0,
			"-0.01": 0.0585567111056,
			"-0.009": 3.40418268998,
			"-0.008": 6.10896903298,
			"-0.007": 4.99778770104,
			"-0.006": 4.9709037412,
			"-0.005": 6.95717898821,
			"-0.004": 4.91354734262,
			"-0.003": 8.20865991008,
			"-0.002": 12.2589359733,
			"-0.001": 22.3953956096,
			"0.0": 19.0586594042,
			"0.001": 10.8884029033,
			"0.002": 13.2709339,
			"0.003": 15.7139056422,
			"0.004": 17.7921508372,
			"0.005": 4.40200534973,
			"0.006": 1.96042983462,
			"0.007": 1.62791401426,
			"0.008": 1.1984890357,
			"0.009": 1.2008241328,
			"0.01": 1.14013436088,
			"0.011": 0.859478389559,
			"0.012": 1.00852189504,
			"0.013": 0.802549193414,
			"0.014": 0.247227492941,
			"0.015": 0.0,
			"0.016": 0.0,
			"0.017": 0.0,
			"0.018": 0.0,
			"0.019": 0.0,
			"0.02": 0.0,
			"0.021": 0.0,
			"0.022": 0.0,
			"0.023": 0.0,
			"0.024": 0.0,
			"0.025": 0.0
		}
	}
}
