{
	 "smiles": "OC(=O)C1=C(NC(=O)CCl)C=C(Cl)C=C1", 
	 "Tm": 426.15, 
	 "num_atms": 22, 
	 "gaussian": { 
		 "optdone": 1, 
		 "sigma_profile": "yes", 
		 "theory": "DFT", 
		 "functional": "B3LYP", 
		 "basiset": "6-31G**", 
		 "properties": { 
			 "R2extent": 5687.8453, 
			 "electric_dipole_moment_norm": 1.9933918531, 
			 "electric_quadrupole_moment_norm": 19.5922709207, 
			 "total_energy": -1548.00684593, 
			 "HOMO_LUMO_gap": 0.19006, 
			 "cosmo_polarized_energy": -17.34, 
			 "cosmo_cavitation_energy": 30.67, 
			 "cosmo_dispersion_energy": -22.3, 
			 "cosmo_repulsion_energy": 1.75, 
			 "cosmo_total_nonelectrostatic_energy": 10.12, 
			 "SMD_solvation_energy": 6.39 
		},
		"coords": [
			{
				"x": 2.3362346995,
				"y": -0.0628639522,
				"z": 0.2550691908,
				"element": "O" 
			},
			{
				"x": 1.2121774489,
				"y": -0.6656521121,
				"z": -0.2404548184,
				"element": "C" 
			},
			{
				"x": 1.2972328525,
				"y": -1.7562754895,
				"z": -0.7481638427,
				"element": "O" 
			},
			{
				"x": -0.0757074311,
				"y": 0.0946652174,
				"z": -0.1288941843,
				"element": "C" 
			},
			{
				"x": -0.4280084724,
				"y": 0.9633509835,
				"z": 0.9345365646,
				"element": "C" 
			},
			{
				"x": 0.4455207137,
				"y": 1.1001907379,
				"z": 2.0403795611,
				"element": "N" 
			},
			{
				"x": 0.3412260207,
				"y": 1.97670775,
				"z": 3.0903188456,
				"element": "C" 
			},
			{
				"x": -0.5053996352,
				"y": 2.8458408144,
				"z": 3.2220685883,
				"element": "O" 
			},
			{
				"x": 1.3764660147,
				"y": 1.8405091252,
				"z": 4.2123367845,
				"element": "C" 
			},
			{
				"x": 2.7604945587,
				"y": 0.711163529,
				"z": 3.9217758375,
				"element": "Cl" 
			},
			{
				"x": -1.6579944257,
				"y": 1.6375146275,
				"z": 0.8973595726,
				"element": "C" 
			},
			{
				"x": -2.5185996598,
				"y": 1.4280300122,
				"z": -0.1761395347,
				"element": "C" 
			},
			{
				"x": -4.0448645976,
				"y": 2.2876377792,
				"z": -0.2073771226,
				"element": "Cl" 
			},
			{
				"x": -2.2115488535,
				"y": 0.5475671949,
				"z": -1.2136787972,
				"element": "C" 
			},
			{
				"x": -0.9939577747,
				"y": -0.1172114797,
				"z": -1.1663785784,
				"element": "C" 
			},
			{
				"x": 2.1858259241,
				"y": 0.8856942421,
				"z": 0.3837963529,
				"element": "H" 
			},
			{
				"x": 1.1895931441,
				"y": 0.4159354183,
				"z": 2.1201343248,
				"element": "H" 
			},
			{
				"x": 1.7911123276,
				"y": 2.8301507651,
				"z": 4.4024542058,
				"element": "H" 
			},
			{
				"x": 0.8609575678,
				"y": 1.4980687168,
				"z": 5.1111189387,
				"element": "H" 
			},
			{
				"x": -1.9268201707,
				"y": 2.3078286857,
				"z": 1.6998137266,
				"element": "H" 
			},
			{
				"x": -2.9064014955,
				"y": 0.391303393,
				"z": -2.0301638177,
				"element": "H" 
			},
			{
				"x": -0.7186387561,
				"y": -0.8172559585,
				"z": -1.9476117978,
				"element": "H" 
			}
		],
		 "valence_orbital": [ 
			{
				"type": "occ",
				"energy": -0.32372,
				"method": "rhf"
			},
			{
				"type": "occ",
				"energy": -0.29339,
				"method": "rhf"
			},
			{
				"type": "occ",
				"energy": -0.28739,
				"method": "rhf"
			},
			{
				"type": "occ",
				"energy": -0.26949,
				"method": "rhf"
			},
			{
				"type": "occ",
				"energy": -0.25667,
				"method": "rhf"
			},
			{
				"type": "unocc",
				"energy": -0.06661,
				"method": "rhf"
			},
			{
				"type": "unocc",
				"energy": -0.04439,
				"method": "rhf"
			},
			{
				"type": "unocc",
				"energy": -0.00457,
				"method": "rhf"
			},
			{
				"type": "unocc",
				"energy": 0.00794,
				"method": "rhf"
			},
			{
				"type": "unocc",
				"energy": 0.01758,
				"method": "rhf"
			}
		],
		"cosmo_sigma_profile": { 
			"-0.025": 0.0,
			"-0.024": 0.0,
			"-0.023": 0.0,
			"-0.022": 0.0,
			"-0.021": 0.0,
			"-0.02": 0.0,
			"-0.019": 0.340076834808,
			"-0.018": 0.906340681192,
			"-0.017": 0.219996511921,
			"-0.016": 0.868834243421,
			"-0.015": 1.17500919531,
			"-0.014": 0.979875628872,
			"-0.013": 1.71628396448,
			"-0.012": 1.58801782544,
			"-0.011": 1.21403704715,
			"-0.01": 3.44429277756,
			"-0.009": 6.39453507656,
			"-0.008": 8.43019720482,
			"-0.007": 10.1059849193,
			"-0.006": 10.4691692208,
			"-0.005": 9.76846748406,
			"-0.004": 8.56452799038,
			"-0.003": 12.0437250052,
			"-0.002": 13.1163193855,
			"-0.001": 14.3646082971,
			"0.0": 21.2294038099,
			"0.001": 25.5100784255,
			"0.002": 18.2623932495,
			"0.003": 15.5828136001,
			"0.004": 17.7207530952,
			"0.005": 10.0560787804,
			"0.006": 3.75465863825,
			"0.007": 3.50697462727,
			"0.008": 4.70752451421,
			"0.009": 5.06330713049,
			"0.01": 6.83544164957,
			"0.011": 8.70271244635,
			"0.012": 3.99191118629,
			"0.013": 0.40747568221,
			"0.014": 0.0,
			"0.015": 0.0,
			"0.016": 0.0,
			"0.017": 0.0,
			"0.018": 0.0,
			"0.019": 0.0,
			"0.02": 0.0,
			"0.021": 0.0,
			"0.022": 0.0,
			"0.023": 0.0,
			"0.024": 0.0,
			"0.025": 0.0
		}
	}
}
