{
	 "smiles": "OC(=O)CC1=CN(N=C1C1=CC=C(Cl)C=C1)C1=CC=CC=C1", 
	 "Tm": 423.15, 
	 "num_atms": 35, 
	 "gaussian": { 
		 "optdone": 1, 
		 "sigma_profile": "yes", 
		 "theory": "DFT", 
		 "functional": "B3LYP", 
		 "basiset": "6-31G**", 
		 "properties": { 
			 "R2extent": 9921.4658, 
			 "electric_dipole_moment_norm": 6.81730796209, 
			 "electric_quadrupole_moment_norm": 16.4952704573, 
			 "total_energy": -1375.78757923, 
			 "HOMO_LUMO_gap": 0.1739, 
			 "cosmo_polarized_energy": -18.71, 
			 "cosmo_cavitation_energy": 41.74, 
			 "cosmo_dispersion_energy": -29.63, 
			 "cosmo_repulsion_energy": 2.24, 
			 "cosmo_total_nonelectrostatic_energy": 14.35, 
			 "SMD_solvation_energy": 7.02 
		},
		"coords": [
			{
				"x": 1.0236059044,
				"y": -1.9654021432,
				"z": 3.4248499775,
				"element": "O" 
			},
			{
				"x": -0.3011348805,
				"y": -1.7090927369,
				"z": 3.5076665203,
				"element": "C" 
			},
			{
				"x": -0.840239648,
				"y": -1.5450635006,
				"z": 4.5741328655,
				"element": "O" 
			},
			{
				"x": -1.0659070568,
				"y": -1.691726866,
				"z": 2.1735795361,
				"element": "C" 
			},
			{
				"x": -0.2751085917,
				"y": -1.244149785,
				"z": 0.9786241837,
				"element": "C" 
			},
			{
				"x": 0.3507772859,
				"y": -2.0739924399,
				"z": 0.0650908019,
				"element": "C" 
			},
			{
				"x": 0.9267101684,
				"y": -1.2810434921,
				"z": -0.8834286323,
				"element": "N" 
			},
			{
				"x": 0.7015934555,
				"y": 0.0287194487,
				"z": -0.6386908207,
				"element": "N" 
			},
			{
				"x": -0.0213595892,
				"y": 0.0783928882,
				"z": 0.4845715724,
				"element": "C" 
			},
			{
				"x": -0.4652980574,
				"y": 1.3874191044,
				"z": 0.9993573954,
				"element": "C" 
			},
			{
				"x": -0.5415848995,
				"y": 2.48034272,
				"z": 0.1165725752,
				"element": "C" 
			},
			{
				"x": -0.9498088664,
				"y": 3.7351246289,
				"z": 0.5545873416,
				"element": "C" 
			},
			{
				"x": -1.2936045668,
				"y": 3.9104207359,
				"z": 1.8960284599,
				"element": "C" 
			},
			{
				"x": -1.818475183,
				"y": 5.4906896225,
				"z": 2.4557237709,
				"element": "Cl" 
			},
			{
				"x": -1.2245241238,
				"y": 2.8492912868,
				"z": 2.7951768547,
				"element": "C" 
			},
			{
				"x": -0.8088072135,
				"y": 1.5960971759,
				"z": 2.3453625303,
				"element": "C" 
			},
			{
				"x": 1.6749125409,
				"y": -1.6824596926,
				"z": -2.0241646181,
				"element": "C" 
			},
			{
				"x": 2.290978447,
				"y": -2.9382206841,
				"z": -2.0561871961,
				"element": "C" 
			},
			{
				"x": 3.0017596765,
				"y": -3.3265199971,
				"z": -3.1912859759,
				"element": "C" 
			},
			{
				"x": 3.1157673539,
				"y": -2.4655294016,
				"z": -4.2835683132,
				"element": "C" 
			},
			{
				"x": 2.5112937315,
				"y": -1.2072621603,
				"z": -4.2343306623,
				"element": "C" 
			},
			{
				"x": 1.7871661926,
				"y": -0.8106103416,
				"z": -3.1123533292,
				"element": "C" 
			},
			{
				"x": 1.2867604115,
				"y": -1.9711985535,
				"z": 2.4892682061,
				"element": "H" 
			},
			{
				"x": -1.9554469065,
				"y": -1.0776868426,
				"z": 2.3275089821,
				"element": "H" 
			},
			{
				"x": -1.4204835308,
				"y": -2.7185102113,
				"z": 2.0158305188,
				"element": "H" 
			},
			{
				"x": 0.3692798821,
				"y": -3.1516632627,
				"z": -0.0013476463,
				"element": "H" 
			},
			{
				"x": -0.2768261897,
				"y": 2.3325437287,
				"z": -0.9243235301,
				"element": "H" 
			},
			{
				"x": -1.0081126845,
				"y": 4.569755632,
				"z": -0.1353050872,
				"element": "H" 
			},
			{
				"x": -1.4837141502,
				"y": 2.9985766012,
				"z": 3.8372717058,
				"element": "H" 
			},
			{
				"x": -0.7417469394,
				"y": 0.7961145402,
				"z": 3.0727944648,
				"element": "H" 
			},
			{
				"x": 2.2394100928,
				"y": -3.6005048894,
				"z": -1.1985614523,
				"element": "H" 
			},
			{
				"x": 3.4787322257,
				"y": -4.3017094326,
				"z": -3.2118218438,
				"element": "H" 
			},
			{
				"x": 3.6752696319,
				"y": -2.7698770451,
				"z": -5.1625785177,
				"element": "H" 
			},
			{
				"x": 2.5971973581,
				"y": -0.5286478004,
				"z": -5.0776635905,
				"element": "H" 
			},
			{
				"x": 1.3103687188,
				"y": 0.1601831654,
				"z": -3.0611870473,
				"element": "H" 
			}
		],
		 "valence_orbital": [ 
			{
				"type": "occ",
				"energy": -0.27191,
				"method": "rhf"
			},
			{
				"type": "occ",
				"energy": -0.26788,
				"method": "rhf"
			},
			{
				"type": "occ",
				"energy": -0.2654,
				"method": "rhf"
			},
			{
				"type": "occ",
				"energy": -0.25334,
				"method": "rhf"
			},
			{
				"type": "occ",
				"energy": -0.22555,
				"method": "rhf"
			},
			{
				"type": "unocc",
				"energy": -0.05165,
				"method": "rhf"
			},
			{
				"type": "unocc",
				"energy": -0.02602,
				"method": "rhf"
			},
			{
				"type": "unocc",
				"energy": -0.02027,
				"method": "rhf"
			},
			{
				"type": "unocc",
				"energy": -0.0159,
				"method": "rhf"
			},
			{
				"type": "unocc",
				"energy": 0.00461,
				"method": "rhf"
			}
		],
		"cosmo_sigma_profile": { 
			"-0.025": 0.0,
			"-0.024": 0.0,
			"-0.023": 0.0,
			"-0.022": 0.0,
			"-0.021": 0.0,
			"-0.02": 0.0,
			"-0.019": 0.0,
			"-0.018": 0.0,
			"-0.017": 0.0,
			"-0.016": 0.0,
			"-0.015": 0.0800342246775,
			"-0.014": 0.356749087323,
			"-0.013": 0.555113724805,
			"-0.012": 1.88201158717,
			"-0.011": 1.84920939321,
			"-0.01": 4.29698386036,
			"-0.009": 6.57194315956,
			"-0.008": 7.02795462678,
			"-0.007": 9.65093996165,
			"-0.006": 19.409599513,
			"-0.005": 21.7593338187,
			"-0.004": 22.8421321418,
			"-0.003": 17.6957136859,
			"-0.002": 17.133898964,
			"-0.001": 17.9903380473,
			"0.0": 21.9316487769,
			"0.001": 25.1023465362,
			"0.002": 29.5705857759,
			"0.003": 34.5888237463,
			"0.004": 28.4762652831,
			"0.005": 15.6869590996,
			"0.006": 3.70695540975,
			"0.007": 3.67284803515,
			"0.008": 4.26752946017,
			"0.009": 3.44147485699,
			"0.01": 5.47007601536,
			"0.011": 5.30608358791,
			"0.012": 5.84274025154,
			"0.013": 1.84095025307,
			"0.014": 0.0226483258144,
			"0.015": 0.0,
			"0.016": 0.0,
			"0.017": 0.0,
			"0.018": 0.0,
			"0.019": 0.0,
			"0.02": 0.0,
			"0.021": 0.0,
			"0.022": 0.0,
			"0.023": 0.0,
			"0.024": 0.0,
			"0.025": 0.0
		}
	}
}
