{
	 "smiles": "S(SC1=CC=C2C=CC=CC2=C1)C1=CC2=CC=CC=C2C=C1", 
	 "Tm": 413.15, 
	 "num_atms": 36, 
	 "gaussian": { 
		 "optdone": 1, 
		 "sigma_profile": "yes", 
		 "theory": "DFT", 
		 "functional": "B3LYP", 
		 "basiset": "6-31G**", 
		 "properties": { 
			 "R2extent": 8914.7017, 
			 "electric_dipole_moment_norm": 3.46146322962, 
			 "electric_quadrupole_moment_norm": 12.5351735748, 
			 "total_energy": -1566.96691524, 
			 "HOMO_LUMO_gap": 0.15548, 
			 "cosmo_polarized_energy": -9.22, 
			 "cosmo_cavitation_energy": 44.05, 
			 "cosmo_dispersion_energy": -30.58, 
			 "cosmo_repulsion_energy": 2.25, 
			 "cosmo_total_nonelectrostatic_energy": 15.72, 
			 "SMD_solvation_energy": 5.5 
		},
		"coords": [
			{
				"x": 0.4323358349,
				"y": 1.7731891603,
				"z": -2.0656116709,
				"element": "S" 
			},
			{
				"x": 1.6319120197,
				"y": 0.0374207465,
				"z": -2.2815605404,
				"element": "S" 
			},
			{
				"x": 2.4026120361,
				"y": -0.1525755541,
				"z": -0.6755964874,
				"element": "C" 
			},
			{
				"x": 3.4799415063,
				"y": 0.6916536101,
				"z": -0.285663525,
				"element": "C" 
			},
			{
				"x": 4.0981908747,
				"y": 0.5064464308,
				"z": 0.9270904832,
				"element": "C" 
			},
			{
				"x": 3.6876291013,
				"y": -0.5304766736,
				"z": 1.8110648254,
				"element": "C" 
			},
			{
				"x": 4.3119120545,
				"y": -0.7500665811,
				"z": 3.0670589366,
				"element": "C" 
			},
			{
				"x": 3.8868961504,
				"y": -1.763786001,
				"z": 3.8975883931,
				"element": "C" 
			},
			{
				"x": 2.8161756195,
				"y": -2.6060674357,
				"z": 3.5097970724,
				"element": "C" 
			},
			{
				"x": 2.1903349919,
				"y": -2.4197075237,
				"z": 2.2974685306,
				"element": "C" 
			},
			{
				"x": 2.6056978182,
				"y": -1.383735842,
				"z": 1.4178996759,
				"element": "C" 
			},
			{
				"x": 1.9754084063,
				"y": -1.1633370163,
				"z": 0.1636356649,
				"element": "C" 
			},
			{
				"x": -1.0232888473,
				"y": 1.1830294351,
				"z": -1.2040740015,
				"element": "C" 
			},
			{
				"x": -1.1953064843,
				"y": 1.5014001744,
				"z": 0.1291698041,
				"element": "C" 
			},
			{
				"x": -2.3670427325,
				"y": 1.1036712252,
				"z": 0.8276136591,
				"element": "C" 
			},
			{
				"x": -2.5719769379,
				"y": 1.4227359873,
				"z": 2.1971571445,
				"element": "C" 
			},
			{
				"x": -3.7151141466,
				"y": 1.0187963887,
				"z": 2.8499866164,
				"element": "C" 
			},
			{
				"x": -4.7060778229,
				"y": 0.2767392365,
				"z": 2.1617801706,
				"element": "C" 
			},
			{
				"x": -4.5359672151,
				"y": -0.0488322095,
				"z": 0.833968978,
				"element": "C" 
			},
			{
				"x": -3.3687105317,
				"y": 0.3513718409,
				"z": 0.1319367388,
				"element": "C" 
			},
			{
				"x": -3.1574269684,
				"y": 0.0331635221,
				"z": -1.2389205378,
				"element": "C" 
			},
			{
				"x": -2.02071088,
				"y": 0.4392157797,
				"z": -1.8949193997,
				"element": "C" 
			},
			{
				"x": 3.8036214443,
				"y": 1.4794094905,
				"z": -0.9579870147,
				"element": "H" 
			},
			{
				"x": 4.9217071852,
				"y": 1.1510966787,
				"z": 1.2236577903,
				"element": "H" 
			},
			{
				"x": 5.1335692603,
				"y": -0.1032583911,
				"z": 3.3637388684,
				"element": "H" 
			},
			{
				"x": 4.3730961098,
				"y": -1.9213351115,
				"z": 4.8559986951,
				"element": "H" 
			},
			{
				"x": 2.4909035217,
				"y": -3.4013568264,
				"z": 4.1740671268,
				"element": "H" 
			},
			{
				"x": 1.3681818467,
				"y": -3.0635007287,
				"z": 1.9960587404,
				"element": "H" 
			},
			{
				"x": 1.1491768955,
				"y": -1.8017996778,
				"z": -0.1345722951,
				"element": "H" 
			},
			{
				"x": -0.4295522221,
				"y": 2.0641509532,
				"z": 0.6546670288,
				"element": "H" 
			},
			{
				"x": -1.8089485975,
				"y": 1.9920838574,
				"z": 2.7214501086,
				"element": "H" 
			},
			{
				"x": -3.8616509254,
				"y": 1.268620355,
				"z": 3.8967233082,
				"element": "H" 
			},
			{
				"x": -5.6038306485,
				"y": -0.0354698237,
				"z": 2.6874478057,
				"element": "H" 
			},
			{
				"x": -5.2959145305,
				"y": -0.6181667232,
				"z": 0.3049726369,
				"element": "H" 
			},
			{
				"x": -3.919264691,
				"y": -0.5340349779,
				"z": -1.7676856911,
				"element": "H" 
			},
			{
				"x": -1.8700184959,
				"y": 0.1996122249,
				"z": -2.9424076393,
				"element": "H" 
			}
		],
		 "valence_orbital": [ 
			{
				"type": "occ",
				"energy": -0.25025,
				"method": "rhf"
			},
			{
				"type": "occ",
				"energy": -0.24948,
				"method": "rhf"
			},
			{
				"type": "occ",
				"energy": -0.23031,
				"method": "rhf"
			},
			{
				"type": "occ",
				"energy": -0.2231,
				"method": "rhf"
			},
			{
				"type": "occ",
				"energy": -0.21882,
				"method": "rhf"
			},
			{
				"type": "unocc",
				"energy": -0.06334,
				"method": "rhf"
			},
			{
				"type": "unocc",
				"energy": -0.04361,
				"method": "rhf"
			},
			{
				"type": "unocc",
				"energy": -0.03612,
				"method": "rhf"
			},
			{
				"type": "unocc",
				"energy": -0.01611,
				"method": "rhf"
			},
			{
				"type": "unocc",
				"energy": 0.00718,
				"method": "rhf"
			}
		],
		"cosmo_sigma_profile": { 
			"-0.025": 0.0,
			"-0.024": 0.0,
			"-0.023": 0.0,
			"-0.022": 0.0,
			"-0.021": 0.0,
			"-0.02": 0.0,
			"-0.019": 0.0,
			"-0.018": 0.0,
			"-0.017": 0.0,
			"-0.016": 0.0,
			"-0.015": 0.0,
			"-0.014": 0.0,
			"-0.013": 0.0,
			"-0.012": 0.0,
			"-0.011": 0.0,
			"-0.01": 0.0,
			"-0.009": 0.0,
			"-0.008": 0.0,
			"-0.007": 6.40419649314,
			"-0.006": 28.9829767223,
			"-0.005": 26.5749129289,
			"-0.004": 27.5850865876,
			"-0.003": 19.4311921808,
			"-0.002": 18.8429369594,
			"-0.001": 20.5181482232,
			"0.0": 23.9998629983,
			"0.001": 26.0151126686,
			"0.002": 37.8752947317,
			"0.003": 55.2942034243,
			"0.004": 40.2533421888,
			"0.005": 17.0048631542,
			"0.006": 4.59733297455,
			"0.007": 3.76442409859,
			"0.008": 1.32607304962,
			"0.009": 0.0,
			"0.01": 0.0,
			"0.011": 0.0,
			"0.012": 0.0,
			"0.013": 0.0,
			"0.014": 0.0,
			"0.015": 0.0,
			"0.016": 0.0,
			"0.017": 0.0,
			"0.018": 0.0,
			"0.019": 0.0,
			"0.02": 0.0,
			"0.021": 0.0,
			"0.022": 0.0,
			"0.023": 0.0,
			"0.024": 0.0,
			"0.025": 0.0
		}
	}
}
