{
	 "smiles": "FC(F)(F)C1=CC(=CC(NC(=O)C2=CN=CC(Cl)=N2)=C1)C(F)(F)F", 
	 "Tm": 406.15, 
	 "num_atms": 30, 
	 "gaussian": { 
		 "optdone": 1, 
		 "sigma_profile": "yes", 
		 "theory": "DFT", 
		 "functional": "B3LYP", 
		 "basiset": "6-31G**", 
		 "properties": { 
			 "R2extent": 12320.0814, 
			 "electric_dipole_moment_norm": 3.89117987377, 
			 "electric_quadrupole_moment_norm": 15.5749392606, 
			 "total_energy": -1797.73588703, 
			 "HOMO_LUMO_gap": 0.15267, 
			 "cosmo_polarized_energy": -11.52, 
			 "cosmo_cavitation_energy": 41.54, 
			 "cosmo_dispersion_energy": -28.8, 
			 "cosmo_repulsion_energy": 2.05, 
			 "cosmo_total_nonelectrostatic_energy": 14.79, 
			 "SMD_solvation_energy": 7.18 
		},
		"coords": [
			{
				"x": -0.1107632827,
				"y": 2.7578553127,
				"z": 3.2289362082,
				"element": "F" 
			},
			{
				"x": 0.5455766191,
				"y": 3.0847426453,
				"z": 2.0968617363,
				"element": "C" 
			},
			{
				"x": 0.2408587678,
				"y": 4.3668922873,
				"z": 1.8014516692,
				"element": "F" 
			},
			{
				"x": 1.8671067931,
				"y": 3.0456326775,
				"z": 2.3786833461,
				"element": "F" 
			},
			{
				"x": 0.2015956372,
				"y": 2.1535045601,
				"z": 0.9604605248,
				"element": "C" 
			},
			{
				"x": 0.1913666505,
				"y": 2.6374480597,
				"z": -0.3465469319,
				"element": "C" 
			},
			{
				"x": -0.0786718849,
				"y": 1.7491951159,
				"z": -1.3886151151,
				"element": "C" 
			},
			{
				"x": -0.3337376017,
				"y": 0.4061601855,
				"z": -1.1290901795,
				"element": "C" 
			},
			{
				"x": -0.3227000387,
				"y": -0.072499345,
				"z": 0.1897669467,
				"element": "C" 
			},
			{
				"x": -0.5973263405,
				"y": -1.4347718403,
				"z": 0.3840561315,
				"element": "N" 
			},
			{
				"x": -0.6451601021,
				"y": -2.1350280915,
				"z": 1.5593628171,
				"element": "C" 
			},
			{
				"x": -0.4535497352,
				"y": -1.6794108665,
				"z": 2.6805405393,
				"element": "O" 
			},
			{
				"x": -0.9700103263,
				"y": -3.5949866547,
				"z": 1.364164349,
				"element": "C" 
			},
			{
				"x": -1.0567043474,
				"y": -4.4462266125,
				"z": 2.4674295483,
				"element": "C" 
			},
			{
				"x": -1.3433560026,
				"y": -5.7469258878,
				"z": 2.3227936413,
				"element": "N" 
			},
			{
				"x": -1.5419939006,
				"y": -6.1940104014,
				"z": 1.0844182582,
				"element": "C" 
			},
			{
				"x": -1.4520044933,
				"y": -5.3273238267,
				"z": -0.0172967291,
				"element": "C" 
			},
			{
				"x": -1.7190204789,
				"y": -5.9486369908,
				"z": -1.6299020776,
				"element": "Cl" 
			},
			{
				"x": -1.1704680362,
				"y": -4.0455962891,
				"z": 0.1141993843,
				"element": "N" 
			},
			{
				"x": -0.0516306508,
				"y": 0.8109919822,
				"z": 1.2449036369,
				"element": "C" 
			},
			{
				"x": -0.0405927667,
				"y": 2.2387217277,
				"z": -2.8137118512,
				"element": "C" 
			},
			{
				"x": -0.4647804036,
				"y": 3.5156162151,
				"z": -2.9129522183,
				"element": "F" 
			},
			{
				"x": 1.2140968992,
				"y": 2.1977664374,
				"z": -3.3150315123,
				"element": "F" 
			},
			{
				"x": -0.8149447513,
				"y": 1.4843174034,
				"z": -3.624432076,
				"element": "F" 
			},
			{
				"x": 0.3729787632,
				"y": 3.6855996929,
				"z": -0.5486911818,
				"element": "H" 
			},
			{
				"x": -0.553516491,
				"y": -0.2669871391,
				"z": -1.9517932797,
				"element": "H" 
			},
			{
				"x": -0.7849094875,
				"y": -1.9949506443,
				"z": -0.4411589207,
				"element": "H" 
			},
			{
				"x": -0.8913878583,
				"y": -4.0626344072,
				"z": 3.4684862751,
				"element": "H" 
			},
			{
				"x": -1.7753411107,
				"y": -7.2461759551,
				"z": 0.9490176695,
				"element": "H" 
			},
			{
				"x": -0.053010039,
				"y": 0.4479206492,
				"z": 2.2626893913,
				"element": "H" 
			}
		],
		 "valence_orbital": [ 
			{
				"type": "occ",
				"energy": -0.3057,
				"method": "rhf"
			},
			{
				"type": "occ",
				"energy": -0.29404,
				"method": "rhf"
			},
			{
				"type": "occ",
				"energy": -0.28861,
				"method": "rhf"
			},
			{
				"type": "occ",
				"energy": -0.27863,
				"method": "rhf"
			},
			{
				"type": "occ",
				"energy": -0.25315,
				"method": "rhf"
			},
			{
				"type": "unocc",
				"energy": -0.10048,
				"method": "rhf"
			},
			{
				"type": "unocc",
				"energy": -0.0742,
				"method": "rhf"
			},
			{
				"type": "unocc",
				"energy": -0.04912,
				"method": "rhf"
			},
			{
				"type": "unocc",
				"energy": -0.0335,
				"method": "rhf"
			},
			{
				"type": "unocc",
				"energy": 0.00652,
				"method": "rhf"
			}
		],
		"cosmo_sigma_profile": { 
			"-0.025": 0.0,
			"-0.024": 0.0,
			"-0.023": 0.0,
			"-0.022": 0.0,
			"-0.021": 0.0,
			"-0.02": 0.0,
			"-0.019": 0.0,
			"-0.018": 0.0,
			"-0.017": 0.0,
			"-0.016": 0.0,
			"-0.015": 0.477961526749,
			"-0.014": 0.998435420751,
			"-0.013": 0.912479238316,
			"-0.012": 0.827887228966,
			"-0.011": 1.19332155785,
			"-0.01": 2.00973508133,
			"-0.009": 3.63909740192,
			"-0.008": 4.45376404558,
			"-0.007": 5.58954743064,
			"-0.006": 9.14252995044,
			"-0.005": 13.0682771102,
			"-0.004": 21.3001595602,
			"-0.003": 21.5451789607,
			"-0.002": 22.274085367,
			"-0.001": 25.2061114742,
			"0.0": 36.2034097448,
			"0.001": 34.4121920744,
			"0.002": 53.6578562358,
			"0.003": 52.0503124432,
			"0.004": 7.70564506663,
			"0.005": 4.19890946229,
			"0.006": 1.80496631655,
			"0.007": 2.04569267781,
			"0.008": 2.86150266706,
			"0.009": 1.97790417118,
			"0.01": 3.6263924971,
			"0.011": 3.36986566463,
			"0.012": 1.32177874302,
			"0.013": 0.831338666594,
			"0.014": 0.0872155410784,
			"0.015": 0.0,
			"0.016": 0.0,
			"0.017": 0.0,
			"0.018": 0.0,
			"0.019": 0.0,
			"0.02": 0.0,
			"0.021": 0.0,
			"0.022": 0.0,
			"0.023": 0.0,
			"0.024": 0.0,
			"0.025": 0.0
		}
	}
}
