{
	 "smiles": "CC1=NN=C2N1C=CN=C2Cl", 
	 "Tm": 486.15, 
	 "num_atms": 16, 
	 "gaussian": { 
		 "optdone": 1, 
		 "sigma_profile": "yes", 
		 "theory": "DFT", 
		 "functional": "B3LYP", 
		 "basiset": "6-31G**", 
		 "properties": { 
			 "R2extent": 2355.3608, 
			 "electric_dipole_moment_norm": 6.02051607921, 
			 "electric_quadrupole_moment_norm": 15.2173480679, 
			 "total_energy": -910.812112078, 
			 "HOMO_LUMO_gap": 0.17433, 
			 "cosmo_polarized_energy": -17.0, 
			 "cosmo_cavitation_energy": 22.56, 
			 "cosmo_dispersion_energy": -17.04, 
			 "cosmo_repulsion_energy": 1.35, 
			 "cosmo_total_nonelectrostatic_energy": 6.87, 
			 "SMD_solvation_energy": 0.67 
		},
		"coords": [
			{
				"x": 2.2542406021,
				"y": -3.1397762909,
				"z": -1.238486657,
				"element": "C" 
			},
			{
				"x": 2.0556098752,
				"y": -1.6657748584,
				"z": -1.2945668211,
				"element": "C" 
			},
			{
				"x": 2.7147257448,
				"y": -0.8155284796,
				"z": -2.0673713033,
				"element": "N" 
			},
			{
				"x": 2.2617964104,
				"y": 0.4496414475,
				"z": -1.8455126275,
				"element": "N" 
			},
			{
				"x": 1.3159794859,
				"y": 0.3611838664,
				"z": -0.9253093385,
				"element": "C" 
			},
			{
				"x": 1.1444328934,
				"y": -0.9708564755,
				"z": -0.5385368022,
				"element": "N" 
			},
			{
				"x": 0.2116051663,
				"y": -1.3286039759,
				"z": 0.414101771,
				"element": "C" 
			},
			{
				"x": -0.5349615985,
				"y": -0.3306073469,
				"z": 0.9618417689,
				"element": "C" 
			},
			{
				"x": -0.4061778484,
				"y": 0.9943540845,
				"z": 0.6171587921,
				"element": "N" 
			},
			{
				"x": 0.4735463716,
				"y": 1.3165204159,
				"z": -0.2786175757,
				"element": "C" 
			},
			{
				"x": 0.6540495102,
				"y": 2.9875349002,
				"z": -0.73079134,
				"element": "Cl" 
			},
			{
				"x": 3.0403635744,
				"y": -3.4048269749,
				"z": -1.946708119,
				"element": "H" 
			},
			{
				"x": 2.5601715737,
				"y": -3.4716040078,
				"z": -0.2395252113,
				"element": "H" 
			},
			{
				"x": 1.3426848008,
				"y": -3.6840235101,
				"z": -1.5114098544,
				"element": "H" 
			},
			{
				"x": 0.125417697,
				"y": -2.375978744,
				"z": 0.67165586,
				"element": "H" 
			},
			{
				"x": -1.2818842589,
				"y": -0.5571540505,
				"z": 1.7145774581,
				"element": "H" 
			}
		],
		 "valence_orbital": [ 
			{
				"type": "occ",
				"energy": -0.32501,
				"method": "rhf"
			},
			{
				"type": "occ",
				"energy": -0.29694,
				"method": "rhf"
			},
			{
				"type": "occ",
				"energy": -0.28659,
				"method": "rhf"
			},
			{
				"type": "occ",
				"energy": -0.2676,
				"method": "rhf"
			},
			{
				"type": "occ",
				"energy": -0.248,
				"method": "rhf"
			},
			{
				"type": "unocc",
				"energy": -0.07367,
				"method": "rhf"
			},
			{
				"type": "unocc",
				"energy": -0.0319,
				"method": "rhf"
			},
			{
				"type": "unocc",
				"energy": 0.0273,
				"method": "rhf"
			},
			{
				"type": "unocc",
				"energy": 0.03331,
				"method": "rhf"
			},
			{
				"type": "unocc",
				"energy": 0.07157,
				"method": "rhf"
			}
		],
		"cosmo_sigma_profile": { 
			"-0.025": 0.0,
			"-0.024": 0.0,
			"-0.023": 0.0,
			"-0.022": 0.0,
			"-0.021": 0.0,
			"-0.02": 0.0,
			"-0.019": 0.0,
			"-0.018": 0.0,
			"-0.017": 0.0,
			"-0.016": 0.0,
			"-0.015": 0.0,
			"-0.014": 0.0,
			"-0.013": 0.0,
			"-0.012": 0.0203688225518,
			"-0.011": 1.38703158213,
			"-0.01": 2.51241361161,
			"-0.009": 5.80761162045,
			"-0.008": 6.34110909387,
			"-0.007": 8.04008709253,
			"-0.006": 11.5756316585,
			"-0.005": 12.3682097052,
			"-0.004": 12.664142372,
			"-0.003": 14.4187441524,
			"-0.002": 14.1661117153,
			"-0.001": 10.9265479032,
			"0.0": 10.7759865332,
			"0.001": 7.81626930181,
			"0.002": 8.49512799765,
			"0.003": 11.0221807874,
			"0.004": 7.37176948882,
			"0.005": 5.11952497529,
			"0.006": 2.84962538247,
			"0.007": 4.57584756104,
			"0.008": 2.92623719335,
			"0.009": 3.25914270787,
			"0.01": 2.88182743,
			"0.011": 4.21172928803,
			"0.012": 4.25877067769,
			"0.013": 3.68093828813,
			"0.014": 2.00180361383,
			"0.015": 2.23328384112,
			"0.016": 0.740332092393,
			"0.017": 0.0137030731232,
			"0.018": 0.0,
			"0.019": 0.0,
			"0.02": 0.0,
			"0.021": 0.0,
			"0.022": 0.0,
			"0.023": 0.0,
			"0.024": 0.0,
			"0.025": 0.0
		}
	}
}
