{
	 "smiles": "OC1=C(Br)C=C(C=C1Br)C1(OC(=O)C2=CC=CC=C12)C1=CC(Br)=C(O)C(Br)=C1", 
	 "Tm": 569.15, 
	 "num_atms": 38, 
	 "gaussian": { 
		 "optdone": 1, 
		 "sigma_profile": "yes", 
		 "theory": "DFT", 
		 "functional": "B3LYP", 
		 "basiset": "6-31G**", 
		 "properties": { 
			 "R2extent": 22876.1972, 
			 "electric_dipole_moment_norm": 6.44129434353, 
			 "electric_quadrupole_moment_norm": 7.41907726405, 
			 "total_energy": -11354.6686394, 
			 "HOMO_LUMO_gap": 0.17628, 
			 "cosmo_polarized_energy": -19.61, 
			 "cosmo_cavitation_energy": 52.46, 
			 "cosmo_dispersion_energy": -36.68, 
			 "cosmo_repulsion_energy": 2.86, 
			 "cosmo_total_nonelectrostatic_energy": 18.63, 
			 "SMD_solvation_energy": 5.88 
		},
		"coords": [
			{
				"x": -0.96501901,
				"y": 4.1452533561,
				"z": 3.8143821502,
				"element": "O" 
			},
			{
				"x": -0.6158550767,
				"y": 3.1225831866,
				"z": 3.0107597055,
				"element": "C" 
			},
			{
				"x": -1.0250453609,
				"y": 1.8180187554,
				"z": 3.3346496278,
				"element": "C" 
			},
			{
				"x": -2.0574232139,
				"y": 1.5400274721,
				"z": 4.9068078472,
				"element": "Br" 
			},
			{
				"x": -0.6885340697,
				"y": 0.7316734497,
				"z": 2.5347149949,
				"element": "C" 
			},
			{
				"x": 0.0784064073,
				"y": 0.9091164817,
				"z": 1.378674,
				"element": "C" 
			},
			{
				"x": 0.5048566104,
				"y": 2.1970357566,
				"z": 1.041507304,
				"element": "C" 
			},
			{
				"x": 0.1537046974,
				"y": 3.2740025754,
				"z": 1.8462219996,
				"element": "C" 
			},
			{
				"x": 0.7408383375,
				"y": 5.0385750058,
				"z": 1.3816478294,
				"element": "Br" 
			},
			{
				"x": 0.3866916661,
				"y": -0.271216096,
				"z": 0.4500336134,
				"element": "C" 
			},
			{
				"x": 0.2735235268,
				"y": -1.5070599776,
				"z": 1.2184978457,
				"element": "O" 
			},
			{
				"x": -0.6617689223,
				"y": -2.3683018181,
				"z": 0.6810206456,
				"element": "C" 
			},
			{
				"x": -0.8763690992,
				"y": -3.459066113,
				"z": 1.1430197476,
				"element": "O" 
			},
			{
				"x": -1.2850222764,
				"y": -1.6773782157,
				"z": -0.4671820695,
				"element": "C" 
			},
			{
				"x": -2.3213539457,
				"y": -2.1128361715,
				"z": -1.2907020588,
				"element": "C" 
			},
			{
				"x": -2.7633170983,
				"y": -1.244948426,
				"z": -2.2883888742,
				"element": "C" 
			},
			{
				"x": -2.1804607174,
				"y": 0.0227827861,
				"z": -2.4364032201,
				"element": "C" 
			},
			{
				"x": -1.1434274637,
				"y": 0.4493985809,
				"z": -1.600403211,
				"element": "C" 
			},
			{
				"x": -0.6946741365,
				"y": -0.4278764869,
				"z": -0.6154556136,
				"element": "C" 
			},
			{
				"x": 1.8191464559,
				"y": -0.2228225811,
				"z": -0.0907615355,
				"element": "C" 
			},
			{
				"x": 2.8750750501,
				"y": -0.19424742,
				"z": 0.8329774885,
				"element": "C" 
			},
			{
				"x": 4.1944296762,
				"y": -0.1934920555,
				"z": 0.4065284987,
				"element": "C" 
			},
			{
				"x": 5.5996552612,
				"y": -0.1567898591,
				"z": 1.6861229226,
				"element": "Br" 
			},
			{
				"x": 4.5190785492,
				"y": -0.2175601022,
				"z": -0.9634386591,
				"element": "C" 
			},
			{
				"x": 5.8127425327,
				"y": -0.2087165319,
				"z": -1.3339932119,
				"element": "O" 
			},
			{
				"x": 3.4485543454,
				"y": -0.2481400108,
				"z": -1.8675126826,
				"element": "C" 
			},
			{
				"x": 3.8565480201,
				"y": -0.2829089484,
				"z": -3.7404049049,
				"element": "Br" 
			},
			{
				"x": 2.1195231046,
				"y": -0.2567561498,
				"z": -1.4522697084,
				"element": "C" 
			},
			{
				"x": -0.5938716925,
				"y": 4.9662878754,
				"z": 3.4512117905,
				"element": "H" 
			},
			{
				"x": -1.0131920235,
				"y": -0.2588708666,
				"z": 2.8254133512,
				"element": "H" 
			},
			{
				"x": 1.119986456,
				"y": 2.3668207817,
				"z": 0.1658201626,
				"element": "H" 
			},
			{
				"x": -2.7623293042,
				"y": -3.0935680777,
				"z": -1.1437048473,
				"element": "H" 
			},
			{
				"x": -3.5691076736,
				"y": -1.5443803187,
				"z": -2.9513592057,
				"element": "H" 
			},
			{
				"x": -2.5460518064,
				"y": 0.6895723849,
				"z": -3.2118224487,
				"element": "H" 
			},
			{
				"x": -0.7153859253,
				"y": 1.4402279129,
				"z": -1.7170045781,
				"element": "H" 
			},
			{
				"x": 2.6644191099,
				"y": -0.1809314089,
				"z": 1.8957191167,
				"element": "H" 
			},
			{
				"x": 5.8580496277,
				"y": -0.2361299859,
				"z": -2.3041922396,
				"element": "H" 
			},
			{
				"x": 1.3350793816,
				"y": -0.2942787399,
				"z": -2.1969315728,
				"element": "H" 
			}
		],
		 "valence_orbital": [ 
			{
				"type": "occ",
				"energy": -0.27917,
				"method": "rhf"
			},
			{
				"type": "occ",
				"energy": -0.2586,
				"method": "rhf"
			},
			{
				"type": "occ",
				"energy": -0.25602,
				"method": "rhf"
			},
			{
				"type": "occ",
				"energy": -0.24497,
				"method": "rhf"
			},
			{
				"type": "occ",
				"energy": -0.23896,
				"method": "rhf"
			},
			{
				"type": "unocc",
				"energy": -0.06268,
				"method": "rhf"
			},
			{
				"type": "unocc",
				"energy": -0.04425,
				"method": "rhf"
			},
			{
				"type": "unocc",
				"energy": -0.04165,
				"method": "rhf"
			},
			{
				"type": "unocc",
				"energy": -0.03129,
				"method": "rhf"
			},
			{
				"type": "unocc",
				"energy": -0.02773,
				"method": "rhf"
			}
		],
		"cosmo_sigma_profile": { 
			"-0.025": 0.0,
			"-0.024": 0.0,
			"-0.023": 0.0,
			"-0.022": 0.0,
			"-0.021": 0.0,
			"-0.02": 0.0,
			"-0.019": 0.0,
			"-0.018": 0.0,
			"-0.017": 0.0,
			"-0.016": 0.0818654245073,
			"-0.015": 0.972137760138,
			"-0.014": 1.76701654419,
			"-0.013": 1.23038849366,
			"-0.012": 1.06894828068,
			"-0.011": 1.87569706964,
			"-0.01": 1.99802803798,
			"-0.009": 2.42370607969,
			"-0.008": 4.06641219253,
			"-0.007": 15.8884120806,
			"-0.006": 18.0580122292,
			"-0.005": 24.0042798219,
			"-0.004": 25.9786038814,
			"-0.003": 22.8787331491,
			"-0.002": 25.870605839,
			"-0.001": 35.4271889149,
			"0.0": 47.7591790856,
			"0.001": 52.3492014701,
			"0.002": 38.7232123593,
			"0.003": 35.6205498049,
			"0.004": 25.8265945799,
			"0.005": 11.0151219385,
			"0.006": 5.47457713995,
			"0.007": 6.21562539327,
			"0.008": 6.17886671821,
			"0.009": 8.37702563944,
			"0.01": 5.43205839113,
			"0.011": 5.91677174133,
			"0.012": 3.25975739204,
			"0.013": 0.318105389229,
			"0.014": 0.0,
			"0.015": 0.0,
			"0.016": 0.0,
			"0.017": 0.0,
			"0.018": 0.0,
			"0.019": 0.0,
			"0.02": 0.0,
			"0.021": 0.0,
			"0.022": 0.0,
			"0.023": 0.0,
			"0.024": 0.0,
			"0.025": 0.0
		}
	}
}
