{
	 "smiles": "OC(=O)C1=CC=C(C=C1)S(=O)(=O)NC1=C(Cl)C=CC=C1", 
	 "Tm": 385.15, 
	 "num_atms": 30, 
	 "gaussian": { 
		 "optdone": 1, 
		 "sigma_profile": "yes", 
		 "theory": "DFT", 
		 "functional": "B3LYP", 
		 "basiset": "6-31G**", 
		 "properties": { 
			 "R2extent": 8013.5912, 
			 "electric_dipole_moment_norm": 2.85966286999, 
			 "electric_quadrupole_moment_norm": 22.5681574157, 
			 "total_energy": -1715.37796511, 
			 "HOMO_LUMO_gap": 0.17386, 
			 "cosmo_polarized_energy": -19.55, 
			 "cosmo_cavitation_energy": 38.45, 
			 "cosmo_dispersion_energy": -27.42, 
			 "cosmo_repulsion_energy": 2.04, 
			 "cosmo_total_nonelectrostatic_energy": 13.07, 
			 "SMD_solvation_energy": 6.7 
		},
		"coords": [
			{
				"x": -4.3296198917,
				"y": 3.3570998943,
				"z": -2.5886273008,
				"element": "O" 
			},
			{
				"x": -3.1880315955,
				"y": 3.2002891758,
				"z": -3.3003827062,
				"element": "C" 
			},
			{
				"x": -3.1139579576,
				"y": 3.4740415204,
				"z": -4.4810890478,
				"element": "O" 
			},
			{
				"x": -2.0619531607,
				"y": 2.6647201342,
				"z": -2.4836706465,
				"element": "C" 
			},
			{
				"x": -0.8294440034,
				"y": 2.469281294,
				"z": -3.1229596214,
				"element": "C" 
			},
			{
				"x": 0.2564900141,
				"y": 1.9755917309,
				"z": -2.4092394989,
				"element": "C" 
			},
			{
				"x": 0.0913125289,
				"y": 1.6683644746,
				"z": -1.0559366011,
				"element": "C" 
			},
			{
				"x": -1.1236711608,
				"y": 1.8653906685,
				"z": -0.4009797022,
				"element": "C" 
			},
			{
				"x": -2.2055038587,
				"y": 2.3676449527,
				"z": -1.1225316208,
				"element": "C" 
			},
			{
				"x": 1.500984979,
				"y": 1.0691290432,
				"z": -0.1172933088,
				"element": "S" 
			},
			{
				"x": 1.137618018,
				"y": 1.0602303729,
				"z": 1.2982681151,
				"element": "O" 
			},
			{
				"x": 2.6850293795,
				"y": 1.771510676,
				"z": -0.6253504675,
				"element": "O" 
			},
			{
				"x": 1.7010590415,
				"y": -0.562090205,
				"z": -0.6444079688,
				"element": "N" 
			},
			{
				"x": 1.6635967339,
				"y": -1.623617299,
				"z": 0.3082068814,
				"element": "C" 
			},
			{
				"x": 0.453275372,
				"y": -2.210241741,
				"z": 0.7106333226,
				"element": "C" 
			},
			{
				"x": -1.0716960641,
				"y": -1.6300810008,
				"z": 0.0761303757,
				"element": "Cl" 
			},
			{
				"x": 0.4394964041,
				"y": -3.2793128301,
				"z": 1.6063575211,
				"element": "C" 
			},
			{
				"x": 1.6388518788,
				"y": -3.7931053778,
				"z": 2.0965118059,
				"element": "C" 
			},
			{
				"x": 2.8521804591,
				"y": -3.2328155342,
				"z": 1.6954484532,
				"element": "C" 
			},
			{
				"x": 2.8579684984,
				"y": -2.1514366906,
				"z": 0.8188026505,
				"element": "C" 
			},
			{
				"x": -4.9875256059,
				"y": 3.706889304,
				"z": -3.2118600039,
				"element": "H" 
			},
			{
				"x": -0.7430570816,
				"y": 2.7173598625,
				"z": -4.1750536498,
				"element": "H" 
			},
			{
				"x": 1.2209816593,
				"y": 1.8445359973,
				"z": -2.8869323577,
				"element": "H" 
			},
			{
				"x": -1.2096065879,
				"y": 1.632147196,
				"z": 0.6535929247,
				"element": "H" 
			},
			{
				"x": -3.1586030408,
				"y": 2.530984434,
				"z": -0.633446889,
				"element": "H" 
			},
			{
				"x": 2.5588927106,
				"y": -0.5666317253,
				"z": -1.1902247624,
				"element": "H" 
			},
			{
				"x": -0.5113497649,
				"y": -3.7087198087,
				"z": 1.901482482,
				"element": "H" 
			},
			{
				"x": 1.6207771373,
				"y": -4.6300914271,
				"z": 2.7874530744,
				"element": "H" 
			},
			{
				"x": 3.7908976321,
				"y": -3.6255173419,
				"z": 2.0730054888,
				"element": "H" 
			},
			{
				"x": 3.7975073269,
				"y": -1.69424975,
				"z": 0.5206930582,
				"element": "H" 
			}
		],
		 "valence_orbital": [ 
			{
				"type": "occ",
				"energy": -0.28854,
				"method": "rhf"
			},
			{
				"type": "occ",
				"energy": -0.27933,
				"method": "rhf"
			},
			{
				"type": "occ",
				"energy": -0.27754,
				"method": "rhf"
			},
			{
				"type": "occ",
				"energy": -0.26138,
				"method": "rhf"
			},
			{
				"type": "occ",
				"energy": -0.24719,
				"method": "rhf"
			},
			{
				"type": "unocc",
				"energy": -0.07333,
				"method": "rhf"
			},
			{
				"type": "unocc",
				"energy": -0.0301,
				"method": "rhf"
			},
			{
				"type": "unocc",
				"energy": -0.02719,
				"method": "rhf"
			},
			{
				"type": "unocc",
				"energy": -0.02282,
				"method": "rhf"
			},
			{
				"type": "unocc",
				"energy": 0.02174,
				"method": "rhf"
			}
		],
		"cosmo_sigma_profile": { 
			"-0.025": 0.0,
			"-0.024": 0.0,
			"-0.023": 0.0,
			"-0.022": 0.0,
			"-0.021": 0.0,
			"-0.02": 0.0,
			"-0.019": 0.0993603249554,
			"-0.018": 1.45809688002,
			"-0.017": 0.447631100419,
			"-0.016": 0.696120987324,
			"-0.015": 2.17572736668,
			"-0.014": 1.89059766254,
			"-0.013": 1.65292573128,
			"-0.012": 1.5814702998,
			"-0.011": 1.9986525921,
			"-0.01": 2.03972453776,
			"-0.009": 2.22087304202,
			"-0.008": 6.8097969137,
			"-0.007": 14.652653287,
			"-0.006": 16.3730358224,
			"-0.005": 14.860312885,
			"-0.004": 14.9263346442,
			"-0.003": 15.6370853554,
			"-0.002": 15.4786507683,
			"-0.001": 20.5256039333,
			"0.0": 25.7464581598,
			"0.001": 28.2233661272,
			"0.002": 22.5043789586,
			"0.003": 21.3851821852,
			"0.004": 17.558354568,
			"0.005": 9.541380855,
			"0.006": 7.66051301813,
			"0.007": 7.22420354059,
			"0.008": 5.5469355968,
			"0.009": 7.84089072547,
			"0.01": 11.3483733738,
			"0.011": 9.25075655848,
			"0.012": 1.35161841989,
			"0.013": 0.0,
			"0.014": 0.0,
			"0.015": 0.0,
			"0.016": 0.0,
			"0.017": 0.0,
			"0.018": 0.0,
			"0.019": 0.0,
			"0.02": 0.0,
			"0.021": 0.0,
			"0.022": 0.0,
			"0.023": 0.0,
			"0.024": 0.0,
			"0.0": 0.0
		}
	}
}
