{
	 "smiles": "COC(=O)CNS(=O)(=O)C1=CC=C(N)C=C1", 
	 "Tm": 352.15, 
	 "num_atms": 28, 
	 "gaussian": { 
		 "optdone": 1, 
		 "sigma_profile": "yes", 
		 "theory": "DFT", 
		 "functional": "B3LYP", 
		 "basiset": "6-31G**", 
		 "properties": { 
			 "R2extent": 4252.7826, 
			 "electric_dipole_moment_norm": 8.0553341588, 
			 "electric_quadrupole_moment_norm": 24.7878718094, 
			 "total_energy": -1158.71223362, 
			 "HOMO_LUMO_gap": 0.19971, 
			 "cosmo_polarized_energy": -24.71, 
			 "cosmo_cavitation_energy": 33.68, 
			 "cosmo_dispersion_energy": -23.22, 
			 "cosmo_repulsion_energy": 1.79, 
			 "cosmo_total_nonelectrostatic_energy": 12.25, 
			 "SMD_solvation_energy": 5.65 
		},
		"coords": [
			{
				"x": 3.1377214956,
				"y": 0.9906998334,
				"z": 1.3063053523,
				"element": "C" 
			},
			{
				"x": 2.298048934,
				"y": 0.63426653,
				"z": 0.1940261451,
				"element": "O" 
			},
			{
				"x": 2.4681005297,
				"y": -0.6181613904,
				"z": -0.2807071256,
				"element": "C" 
			},
			{
				"x": 3.2886330699,
				"y": -1.4002723363,
				"z": 0.142194559,
				"element": "O" 
			},
			{
				"x": 1.5457127037,
				"y": -0.8959933944,
				"z": -1.4661878249,
				"element": "C" 
			},
			{
				"x": 0.291579341,
				"y": -0.1579557882,
				"z": -1.5108409404,
				"element": "N" 
			},
			{
				"x": -1.0601165026,
				"y": -0.7761558653,
				"z": -0.7001047825,
				"element": "S" 
			},
			{
				"x": -1.1519506741,
				"y": -2.1791480714,
				"z": -1.1107175545,
				"element": "O" 
			},
			{
				"x": -2.1147982326,
				"y": 0.2041136404,
				"z": -0.962017662,
				"element": "O" 
			},
			{
				"x": -0.7255669857,
				"y": -0.7571113329,
				"z": 1.0541970924,
				"element": "C" 
			},
			{
				"x": -0.1510459338,
				"y": -1.8739630206,
				"z": 1.6706118099,
				"element": "C" 
			},
			{
				"x": 0.1297728226,
				"y": -1.8467711191,
				"z": 3.0307301268,
				"element": "C" 
			},
			{
				"x": -0.1662698585,
				"y": -0.7053786426,
				"z": 3.8026637164,
				"element": "C" 
			},
			{
				"x": 0.0592046701,
				"y": -0.6995566374,
				"z": 5.1667802787,
				"element": "N" 
			},
			{
				"x": -0.7526451444,
				"y": 0.4089210258,
				"z": 3.166762359,
				"element": "C" 
			},
			{
				"x": -1.0297402564,
				"y": 0.3825951611,
				"z": 1.8070895994,
				"element": "C" 
			},
			{
				"x": 2.928913117,
				"y": 0.3403278645,
				"z": 2.1587472542,
				"element": "H" 
			},
			{
				"x": 2.8898414261,
				"y": 2.0249060193,
				"z": 1.5435546616,
				"element": "H" 
			},
			{
				"x": 4.1920832825,
				"y": 0.8979624063,
				"z": 1.0356776994,
				"element": "H" 
			},
			{
				"x": 1.330499179,
				"y": -1.9652252245,
				"z": -1.4960608633,
				"element": "H" 
			},
			{
				"x": 2.1151840847,
				"y": -0.6654201678,
				"z": -2.3758996551,
				"element": "H" 
			},
			{
				"x": 0.3843709278,
				"y": 0.8393101742,
				"z": -1.3414863392,
				"element": "H" 
			},
			{
				"x": 0.0545251284,
				"y": -2.7650845344,
				"z": 1.0877309024,
				"element": "H" 
			},
			{
				"x": 0.5662464958,
				"y": -2.7193288888,
				"z": 3.5091803689,
				"element": "H" 
			},
			{
				"x": 0.7126649054,
				"y": -1.3765729826,
				"z": 5.5307068842,
				"element": "H" 
			},
			{
				"x": 0.098192131,
				"y": 0.197504496,
				"z": 5.6265489163,
				"element": "H" 
			},
			{
				"x": -1.0055125484,
				"y": 1.2880798393,
				"z": 3.753719295,
				"element": "H" 
			},
			{
				"x": -1.502648108,
				"y": 1.2327124065,
				"z": 1.3268957266,
				"element": "H" 
			}
		],
		 "valence_orbital": [ 
			{
				"type": "occ",
				"energy": -0.29707,
				"method": "rhf"
			},
			{
				"type": "occ",
				"energy": -0.29398,
				"method": "rhf"
			},
			{
				"type": "occ",
				"energy": -0.26949,
				"method": "rhf"
			},
			{
				"type": "occ",
				"energy": -0.264,
				"method": "rhf"
			},
			{
				"type": "occ",
				"energy": -0.22328,
				"method": "rhf"
			},
			{
				"type": "unocc",
				"energy": -0.02357,
				"method": "rhf"
			},
			{
				"type": "unocc",
				"energy": -0.02041,
				"method": "rhf"
			},
			{
				"type": "unocc",
				"energy": 0.00145,
				"method": "rhf"
			},
			{
				"type": "unocc",
				"energy": 0.05611,
				"method": "rhf"
			},
			{
				"type": "unocc",
				"energy": 0.06768,
				"method": "rhf"
			}
		],
		"cosmo_sigma_profile": { 
			"-0.025": 0.0,
			"-0.024": 0.0,
			"-0.023": 0.0,
			"-0.022": 0.0,
			"-0.021": 0.0,
			"-0.02": 0.0,
			"-0.019": 0.0,
			"-0.018": 0.0,
			"-0.017": 0.0,
			"-0.016": 0.0,
			"-0.015": 0.017092349605,
			"-0.014": 0.626141649574,
			"-0.013": 3.57063238961,
			"-0.012": 3.81990616257,
			"-0.011": 4.453665425,
			"-0.01": 3.85119851508,
			"-0.009": 5.23952969697,
			"-0.008": 8.07257272941,
			"-0.007": 10.6640100143,
			"-0.006": 16.3391720834,
			"-0.005": 19.1965480302,
			"-0.004": 19.1748560688,
			"-0.003": 13.7115821125,
			"-0.002": 12.5156395878,
			"-0.001": 10.7575449446,
			"0.0": 12.9900858679,
			"0.001": 14.4779251185,
			"0.002": 13.9783890797,
			"0.003": 15.4719480737,
			"0.004": 13.6140985742,
			"0.005": 6.31523350178,
			"0.006": 5.87422759352,
			"0.007": 7.25776126323,
			"0.008": 5.80248985293,
			"0.009": 6.98357534053,
			"0.01": 8.77836391795,
			"0.011": 14.286268803,
			"0.012": 8.76252736296,
			"0.013": 0.231282789711,
			"0.014": 0.0,
			"0.015": 0.0,
			"0.016": 0.0,
			"0.017": 0.0,
			"0.018": 0.0,
			"0.019": 0.0,
			"0.02": 0.0,
			"0.021": 0.0,
			"0.022": 0.0,
			"0.023": 0.0,
			"0.024": 0.0,
			"0.025": 0.0
		}
	}
}
