{
	 "smiles": "NS(=O)(=O)C1=CC=C(SCCCO)C=C1", 
	 "Tm": 390.15, 
	 "num_atms": 28, 
	 "gaussian": { 
		 "optdone": 1, 
		 "sigma_profile": "yes", 
		 "theory": "DFT", 
		 "functional": "B3LYP", 
		 "basiset": "6-31G**", 
		 "properties": { 
			 "R2extent": 6920.8548, 
			 "electric_dipole_moment_norm": 3.45569395925, 
			 "electric_quadrupole_moment_norm": 9.1492742898, 
			 "total_energy": -1427.51208623, 
			 "HOMO_LUMO_gap": 0.18619, 
			 "cosmo_polarized_energy": -21.97, 
			 "cosmo_cavitation_energy": 34.69, 
			 "cosmo_dispersion_energy": -25.9, 
			 "cosmo_repulsion_energy": 1.98, 
			 "cosmo_total_nonelectrostatic_energy": 10.78, 
			 "SMD_solvation_energy": 4.86 
		},
		"coords": [
			{
				"x": -1.7785080689,
				"y": -4.3696594224,
				"z": 2.4032812069,
				"element": "N" 
			},
			{
				"x": -0.2717591847,
				"y": -3.7044568019,
				"z": 1.9939041066,
				"element": "S" 
			},
			{
				"x": 0.5396810861,
				"y": -4.8284260782,
				"z": 1.5175461154,
				"element": "O" 
			},
			{
				"x": 0.1651484869,
				"y": -2.8350970891,
				"z": 3.0920890228,
				"element": "O" 
			},
			{
				"x": -0.6492310917,
				"y": -2.6543948346,
				"z": 0.5979967312,
				"element": "C" 
			},
			{
				"x": -0.7747339934,
				"y": -1.2794407114,
				"z": 0.7868130446,
				"element": "C" 
			},
			{
				"x": -1.0643306296,
				"y": -0.4576539866,
				"z": -0.3018613604,
				"element": "C" 
			},
			{
				"x": -1.2149483478,
				"y": -1.0056712686,
				"z": -1.5840213646,
				"element": "C" 
			},
			{
				"x": -1.6347478117,
				"y": -0.0673815097,
				"z": -3.0377277424,
				"element": "S" 
			},
			{
				"x": -1.179628834,
				"y": 1.6611288549,
				"z": -2.6221859362,
				"element": "C" 
			},
			{
				"x": 0.3249414709,
				"y": 1.9213591088,
				"z": -2.5141168707,
				"element": "C" 
			},
			{
				"x": 0.6378317077,
				"y": 3.3842733822,
				"z": -2.1761070951,
				"element": "C" 
			},
			{
				"x": 2.0304335895,
				"y": 3.652078255,
				"z": -2.1566657782,
				"element": "O" 
			},
			{
				"x": -1.0700511677,
				"y": -2.39503458,
				"z": -1.7568544883,
				"element": "C" 
			},
			{
				"x": -0.7934467787,
				"y": -3.2183669497,
				"z": -0.6729341197,
				"element": "C" 
			},
			{
				"x": -2.1220711251,
				"y": -3.9454759178,
				"z": 3.2612681702,
				"element": "H" 
			},
			{
				"x": -1.6653759494,
				"y": -5.3746470341,
				"z": 2.511248849,
				"element": "H" 
			},
			{
				"x": -0.6385103722,
				"y": -0.8587473494,
				"z": 1.7770929961,
				"element": "H" 
			},
			{
				"x": -1.1724583129,
				"y": 0.6083189957,
				"z": -0.1377893653,
				"element": "H" 
			},
			{
				"x": -1.7167286563,
				"y": 1.9719320426,
				"z": -1.7201167907,
				"element": "H" 
			},
			{
				"x": -1.6115648057,
				"y": 2.2326761836,
				"z": -3.4505871415,
				"element": "H" 
			},
			{
				"x": 0.7580801211,
				"y": 1.2716762142,
				"z": -1.7427019037,
				"element": "H" 
			},
			{
				"x": 0.8147060776,
				"y": 1.6619311342,
				"z": -3.4581193773,
				"element": "H" 
			},
			{
				"x": 0.2206617656,
				"y": 4.0448976941,
				"z": -2.9444588152,
				"element": "H" 
			},
			{
				"x": 0.1596410611,
				"y": 3.6615954257,
				"z": -1.2212996925,
				"element": "H" 
			},
			{
				"x": 2.4255336756,
				"y": 3.1250544736,
				"z": -1.4499454037,
				"element": "H" 
			},
			{
				"x": -1.1624837475,
				"y": -2.8252783402,
				"z": -2.7494819718,
				"element": "H" 
			},
			{
				"x": -0.6634801647,
				"y": -4.2861898907,
				"z": -0.8116650255,
				"element": "H" 
			}
		],
		 "valence_orbital": [ 
			{
				"type": "occ",
				"energy": -0.30534,
				"method": "rhf"
			},
			{
				"type": "occ",
				"energy": -0.2864,
				"method": "rhf"
			},
			{
				"type": "occ",
				"energy": -0.27643,
				"method": "rhf"
			},
			{
				"type": "occ",
				"energy": -0.27428,
				"method": "rhf"
			},
			{
				"type": "occ",
				"energy": -0.22749,
				"method": "rhf"
			},
			{
				"type": "unocc",
				"energy": -0.0413,
				"method": "rhf"
			},
			{
				"type": "unocc",
				"energy": -0.0257,
				"method": "rhf"
			},
			{
				"type": "unocc",
				"energy": 0.02432,
				"method": "rhf"
			},
			{
				"type": "unocc",
				"energy": 0.04739,
				"method": "rhf"
			},
			{
				"type": "unocc",
				"energy": 0.06265,
				"method": "rhf"
			}
		],
		"cosmo_sigma_profile": { 
			"-0.025": 0.0,
			"-0.024": 0.0,
			"-0.023": 0.0,
			"-0.022": 0.0,
			"-0.021": 0.0,
			"-0.02": 0.0,
			"-0.019": 0.0,
			"-0.018": 0.0,
			"-0.017": 0.0,
			"-0.016": 0.0378117756825,
			"-0.015": 1.85441282621,
			"-0.014": 3.09211397744,
			"-0.013": 4.17021994795,
			"-0.012": 3.60994374203,
			"-0.011": 2.30005791217,
			"-0.01": 3.3267945458,
			"-0.009": 3.39758886122,
			"-0.008": 5.26236887856,
			"-0.007": 10.9797248605,
			"-0.006": 16.0993904325,
			"-0.005": 16.6091764785,
			"-0.004": 17.4800011241,
			"-0.003": 19.3716521736,
			"-0.002": 15.9688780926,
			"-0.001": 13.3206427684,
			"0.0": 14.488925084,
			"0.001": 13.3953669468,
			"0.002": 18.1469782863,
			"0.003": 18.88194731,
			"0.004": 8.18352647182,
			"0.005": 9.05196397053,
			"0.006": 6.3153032903,
			"0.007": 7.4632685265,
			"0.008": 7.01048862593,
			"0.009": 5.50891116933,
			"0.01": 8.85410168889,
			"0.011": 10.802339776,
			"0.012": 5.79338818753,
			"0.013": 1.75113138497,
			"0.014": 2.41529193608,
			"0.015": 0.855351537905,
			"0.016": 0.0,
			"0.017": 0.0,
			"0.018": 0.0,
			"0.019": 0.0,
			"0.02": 0.0,
			"0.021": 0.0,
			"0.022": 0.0,
			"0.023": 0.0,
			"0.024": 0.0,
			"0.025": 0.0
		}
	}
}
