{
	 "smiles": "NC1C2CCC(C2)C1C(O)=O", 
	 "Tm": 549.15, 
	 "num_atms": 24, 
	 "gaussian": { 
		 "optdone": 1, 
		 "sigma_profile": "yes", 
		 "theory": "DFT", 
		 "functional": "B3LYP", 
		 "basiset": "6-31G**", 
		 "properties": { 
			 "R2extent": 1816.3749, 
			 "electric_dipole_moment_norm": 1.93606075576, 
			 "electric_quadrupole_moment_norm": 9.77009359167, 
			 "total_energy": -517.89666007, 
			 "HOMO_LUMO_gap": 0.24934, 
			 "cosmo_polarized_energy": -10.54, 
			 "cosmo_cavitation_energy": 24.79, 
			 "cosmo_dispersion_energy": -18.45, 
			 "cosmo_repulsion_energy": 1.49, 
			 "cosmo_total_nonelectrostatic_energy": 7.82, 
			 "SMD_solvation_energy": 3.93 
		},
		"coords": [
			{
				"x": 0.6573902264,
				"y": -2.3277139792,
				"z": -0.5348392692,
				"element": "N" 
			},
			{
				"x": 0.4481227038,
				"y": -0.9739930673,
				"z": -0.0245823811,
				"element": "C" 
			},
			{
				"x": 0.6853454152,
				"y": -0.8151260612,
				"z": 1.4983039109,
				"element": "C" 
			},
			{
				"x": -0.1609743418,
				"y": -1.854090766,
				"z": 2.2708779665,
				"element": "C" 
			},
			{
				"x": -1.6149958359,
				"y": -1.2933305661,
				"z": 2.1419165476,
				"element": "C" 
			},
			{
				"x": -1.4304592618,
				"y": -0.0440367603,
				"z": 1.2508778479,
				"element": "C" 
			},
			{
				"x": -0.0782619973,
				"y": 0.499041989,
				"z": 1.7657350017,
				"element": "C" 
			},
			{
				"x": -1.0591182225,
				"y": -0.537486735,
				"z": -0.1671430839,
				"element": "C" 
			},
			{
				"x": -1.2380749827,
				"y": 0.4984655829,
				"z": -1.2502093212,
				"element": "C" 
			},
			{
				"x": -0.9512105747,
				"y": -0.0229948215,
				"z": -2.4758058388,
				"element": "O" 
			},
			{
				"x": -1.5739512006,
				"y": 1.6541756462,
				"z": -1.1090532953,
				"element": "O" 
			},
			{
				"x": 1.6423617774,
				"y": -2.5745892704,
				"z": -0.4585766434,
				"element": "H" 
			},
			{
				"x": 0.4361420633,
				"y": -2.3440478933,
				"z": -1.5284212753,
				"element": "H" 
			},
			{
				"x": 1.0821558676,
				"y": -0.2282530627,
				"z": -0.5344246945,
				"element": "H" 
			},
			{
				"x": 1.7477842225,
				"y": -0.8192403291,
				"z": 1.7627796219,
				"element": "H" 
			},
			{
				"x": 0.1554454649,
				"y": -1.9053679339,
				"z": 3.3176614777,
				"element": "H" 
			},
			{
				"x": -0.0581139392,
				"y": -2.8500021354,
				"z": 1.8348885361,
				"element": "H" 
			},
			{
				"x": -2.0183514747,
				"y": -1.0059230021,
				"z": 3.1186900956,
				"element": "H" 
			},
			{
				"x": -2.308665655,
				"y": -2.0180542068,
				"z": 1.7032278821,
				"element": "H" 
			},
			{
				"x": -2.2680790783,
				"y": 0.6554147258,
				"z": 1.2596127193,
				"element": "H" 
			},
			{
				"x": -0.1033504001,
				"y": 0.7767497999,
				"z": 2.8245929302,
				"element": "H" 
			},
			{
				"x": 0.2917331708,
				"y": 1.3511133464,
				"z": 1.1866698658,
				"element": "H" 
			},
			{
				"x": -1.6441502001,
				"y": -1.4183648792,
				"z": -0.457145815,
				"element": "H" 
			},
			{
				"x": -1.0660237473,
				"y": 0.7038543793,
				"z": -3.1109327855,
				"element": "H" 
			}
		],
		 "valence_orbital": [ 
			{
				"type": "occ",
				"energy": -0.31518,
				"method": "rhf"
			},
			{
				"type": "occ",
				"energy": -0.3102,
				"method": "rhf"
			},
			{
				"type": "occ",
				"energy": -0.30077,
				"method": "rhf"
			},
			{
				"type": "occ",
				"energy": -0.26969,
				"method": "rhf"
			},
			{
				"type": "occ",
				"energy": -0.23853,
				"method": "rhf"
			},
			{
				"type": "unocc",
				"energy": 0.01081,
				"method": "rhf"
			},
			{
				"type": "unocc",
				"energy": 0.06886,
				"method": "rhf"
			},
			{
				"type": "unocc",
				"energy": 0.09068,
				"method": "rhf"
			},
			{
				"type": "unocc",
				"energy": 0.09816,
				"method": "rhf"
			},
			{
				"type": "unocc",
				"energy": 0.11416,
				"method": "rhf"
			}
		],
		"cosmo_sigma_profile": { 
			"-0.025": 0.0,
			"-0.024": 0.0,
			"-0.023": 0.0,
			"-0.022": 0.0,
			"-0.021": 0.0,
			"-0.02": 0.0,
			"-0.019": 0.0,
			"-0.018": 0.435989622233,
			"-0.017": 0.762550976612,
			"-0.016": 1.34366747772,
			"-0.015": 0.589703744992,
			"-0.014": 0.796281934479,
			"-0.013": 0.301723472012,
			"-0.012": 0.285229434823,
			"-0.011": 0.853328759184,
			"-0.01": 2.01152154121,
			"-0.009": 2.78675006346,
			"-0.008": 2.32729885802,
			"-0.007": 3.48917021072,
			"-0.006": 3.4444979913,
			"-0.005": 4.37807322093,
			"-0.004": 8.03415845117,
			"-0.003": 17.634837219,
			"-0.002": 24.5841389539,
			"-0.001": 23.2887814698,
			"0.0": 21.1596932335,
			"0.001": 19.5648618882,
			"0.002": 11.8017104384,
			"0.003": 4.82482276204,
			"0.004": 5.06028567088,
			"0.005": 3.62631626724,
			"0.006": 3.54523914337,
			"0.007": 3.53410406535,
			"0.008": 2.86308460111,
			"0.009": 2.96876562214,
			"0.01": 2.76143468728,
			"0.011": 3.99441417191,
			"0.012": 5.04499624825,
			"0.013": 1.25256219835,
			"0.014": 0.638261376691,
			"0.015": 0.468025431631,
			"0.016": 0.269345758524,
			"0.017": 0.406421939863,
			"0.018": 0.10059625757,
			"0.019": 0.0,
			"0.02": 0.0,
			"0.021": 0.0,
			"0.022": 0.0,
			"0.023": 0.0,
			"0.024": 0.0,
			"0.025": 0.0
		}
	}
}
