{
	 "smiles": "CCOC(=O)C(=O)C1=NC=C(Cl)N1C", 
	 "Tm": 320.15, 
	 "num_atms": 23, 
	 "gaussian": { 
		 "optdone": 1, 
		 "sigma_profile": "yes", 
		 "theory": "DFT", 
		 "functional": "B3LYP", 
		 "basiset": "6-31G**", 
		 "properties": { 
			 "R2extent": 5054.9043, 
			 "electric_dipole_moment_norm": 2.49822832023, 
			 "electric_quadrupole_moment_norm": 18.6325949148, 
			 "total_energy": -1105.6298492, 
			 "HOMO_LUMO_gap": 0.17644, 
			 "cosmo_polarized_energy": -12.22, 
			 "cosmo_cavitation_energy": 30.3, 
			 "cosmo_dispersion_energy": -21.57, 
			 "cosmo_repulsion_energy": 1.74, 
			 "cosmo_total_nonelectrostatic_energy": 10.47, 
			 "SMD_solvation_energy": 5.57 
		},
		"coords": [
			{
				"x": -2.6099346907,
				"y": 1.9942018835,
				"z": 1.8594082884,
				"element": "C" 
			},
			{
				"x": -2.2445220846,
				"y": 0.55240078,
				"z": 1.5450047017,
				"element": "C" 
			},
			{
				"x": -1.0588098266,
				"y": 0.4841041375,
				"z": 0.7045912354,
				"element": "O" 
			},
			{
				"x": 0.1207836094,
				"y": 0.5139517202,
				"z": 1.3349316018,
				"element": "C" 
			},
			{
				"x": 0.2996539783,
				"y": 0.6043352413,
				"z": 2.5275060251,
				"element": "O" 
			},
			{
				"x": 1.2819699716,
				"y": 0.5046554715,
				"z": 0.32898539,
				"element": "C" 
			},
			{
				"x": 1.7205011091,
				"y": 1.5595711394,
				"z": -0.1089734617,
				"element": "O" 
			},
			{
				"x": 1.824136769,
				"y": -0.8112123687,
				"z": 0.0103851706,
				"element": "C" 
			},
			{
				"x": 1.3042700935,
				"y": -1.9522364455,
				"z": 0.4559852221,
				"element": "N" 
			},
			{
				"x": 2.0678521471,
				"y": -2.9409677254,
				"z": -0.0660085966,
				"element": "C" 
			},
			{
				"x": 3.0711494273,
				"y": -2.3865738518,
				"z": -0.8443620479,
				"element": "C" 
			},
			{
				"x": 4.3187654094,
				"y": -3.168170918,
				"z": -1.7369836722,
				"element": "Cl" 
			},
			{
				"x": 2.9217765511,
				"y": -1.0263552581,
				"z": -0.8005491204,
				"element": "N" 
			},
			{
				"x": 3.7448530547,
				"y": -0.0158546875,
				"z": -1.4657503485,
				"element": "C" 
			},
			{
				"x": -2.7469437321,
				"y": 2.5710645864,
				"z": 0.9403357516,
				"element": "H" 
			},
			{
				"x": -3.5461797934,
				"y": 2.0220325294,
				"z": 2.426818114,
				"element": "H" 
			},
			{
				"x": -1.8300298772,
				"y": 2.4668237907,
				"z": 2.4612286468,
				"element": "H" 
			},
			{
				"x": -3.0178134467,
				"y": 0.056882857,
				"z": 0.9544689739,
				"element": "H" 
			},
			{
				"x": -2.0576300458,
				"y": -0.0210971809,
				"z": 2.4556573726,
				"element": "H" 
			},
			{
				"x": 1.886431546,
				"y": -3.9891339615,
				"z": 0.1226275195,
				"element": "H" 
			},
			{
				"x": 4.5746748145,
				"y": -0.5180546608,
				"z": -1.9613076328,
				"element": "H" 
			},
			{
				"x": 4.1208690246,
				"y": 0.6954149151,
				"z": -0.7305567228,
				"element": "H" 
			},
			{
				"x": 3.1475759914,
				"y": 0.5294180059,
				"z": -2.1979424104,
				"element": "H" 
			}
		],
		 "valence_orbital": [ 
			{
				"type": "occ",
				"energy": -0.30441,
				"method": "rhf"
			},
			{
				"type": "occ",
				"energy": -0.29914,
				"method": "rhf"
			},
			{
				"type": "occ",
				"energy": -0.29721,
				"method": "rhf"
			},
			{
				"type": "occ",
				"energy": -0.25355,
				"method": "rhf"
			},
			{
				"type": "occ",
				"energy": -0.24689,
				"method": "rhf"
			},
			{
				"type": "unocc",
				"energy": -0.07045,
				"method": "rhf"
			},
			{
				"type": "unocc",
				"energy": 0.00082,
				"method": "rhf"
			},
			{
				"type": "unocc",
				"energy": 0.0213,
				"method": "rhf"
			},
			{
				"type": "unocc",
				"energy": 0.02606,
				"method": "rhf"
			},
			{
				"type": "unocc",
				"energy": 0.0655,
				"method": "rhf"
			}
		],
		"cosmo_sigma_profile": { 
			"-0.025": 0.0,
			"-0.024": 0.0,
			"-0.023": 0.0,
			"-0.022": 0.0,
			"-0.021": 0.0,
			"-0.02": 0.0,
			"-0.019": 0.0,
			"-0.018": 0.0,
			"-0.017": 0.0,
			"-0.016": 0.0,
			"-0.015": 0.0,
			"-0.014": 0.0,
			"-0.013": 0.0,
			"-0.012": 0.0,
			"-0.011": 0.0,
			"-0.01": 0.0178647929205,
			"-0.009": 1.23158891956,
			"-0.008": 1.85231139105,
			"-0.007": 6.22835104436,
			"-0.006": 12.3143293586,
			"-0.005": 18.6932911611,
			"-0.004": 29.1757533348,
			"-0.003": 22.6437287603,
			"-0.002": 19.4557666898,
			"-0.001": 20.5279086539,
			"0.0": 19.4122001555,
			"0.001": 15.2367475055,
			"0.002": 14.9904997588,
			"0.003": 10.1461417571,
			"0.004": 6.02014654456,
			"0.005": 5.89904798595,
			"0.006": 7.21873733559,
			"0.007": 6.75927316863,
			"0.008": 4.70887663239,
			"0.009": 5.22415017509,
			"0.01": 7.87535098628,
			"0.011": 6.04358505563,
			"0.012": 1.51153381857,
			"0.013": 0.757028951076,
			"0.014": 0.0897002238525,
			"0.015": 0.0,
			"0.016": 0.0,
			"0.017": 0.0,
			"0.018": 0.0,
			"0.019": 0.0,
			"0.02": 0.0,
			"0.021": 0.0,
			"0.022": 0.0,
			"0.023": 0.0,
			"0.024": 0.0,
			"0.025": 0.0
		}
	}
}
