{
	 "smiles": "CCCN1CCCC(C1)C(O)=O", 
	 "Tm": 411.15, 
	 "num_atms": 29, 
	 "gaussian": { 
		 "optdone": 1, 
		 "sigma_profile": "yes", 
		 "theory": "DFT", 
		 "functional": "B3LYP", 
		 "basiset": "6-31G**", 
		 "properties": { 
			 "R2extent": 2360.6214, 
			 "electric_dipole_moment_norm": 4.28286533176, 
			 "electric_quadrupole_moment_norm": 9.4997436097, 
			 "total_energy": -558.406076215, 
			 "HOMO_LUMO_gap": 0.2218, 
			 "cosmo_polarized_energy": -13.9, 
			 "cosmo_cavitation_energy": 28.97, 
			 "cosmo_dispersion_energy": -20.63, 
			 "cosmo_repulsion_energy": 1.65, 
			 "cosmo_total_nonelectrostatic_energy": 9.99, 
			 "SMD_solvation_energy": 4.56 
		},
		"coords": [
			{
				"x": -1.2177777802,
				"y": -0.6816562598,
				"z": -2.4456199146,
				"element": "C" 
			},
			{
				"x": -0.1096314961,
				"y": -1.7154726017,
				"z": -2.2229048608,
				"element": "C" 
			},
			{
				"x": 1.1422393075,
				"y": -1.1377116664,
				"z": -1.5435705827,
				"element": "C" 
			},
			{
				"x": 0.8687076016,
				"y": -0.4754784743,
				"z": -0.2691592505,
				"element": "N" 
			},
			{
				"x": 1.9244845678,
				"y": 0.4664669498,
				"z": 0.1805879391,
				"element": "C" 
			},
			{
				"x": 2.5889343582,
				"y": 0.0359807659,
				"z": 1.4945992572,
				"element": "C" 
			},
			{
				"x": 1.5472045663,
				"y": -0.0857297988,
				"z": 2.6251772817,
				"element": "C" 
			},
			{
				"x": 0.1963089006,
				"y": -0.6171607518,
				"z": 2.0891120839,
				"element": "C" 
			},
			{
				"x": 0.4098785098,
				"y": -1.385870627,
				"z": 0.7706743263,
				"element": "C" 
			},
			{
				"x": -0.8217426392,
				"y": 0.5194410568,
				"z": 1.8860558764,
				"element": "C" 
			},
			{
				"x": -2.0504858115,
				"y": 0.1335691122,
				"z": 1.4462486871,
				"element": "O" 
			},
			{
				"x": -0.6139838931,
				"y": 1.6845299318,
				"z": 2.117928513,
				"element": "O" 
			},
			{
				"x": -0.8635586176,
				"y": 0.1419155986,
				"z": -3.0758682202,
				"element": "H" 
			},
			{
				"x": -2.0840598641,
				"y": -1.1319188302,
				"z": -2.941335839,
				"element": "H" 
			},
			{
				"x": -1.5473971067,
				"y": -0.2437683841,
				"z": -1.4992319185,
				"element": "H" 
			},
			{
				"x": 0.2075272335,
				"y": -2.1407955299,
				"z": -3.183542727,
				"element": "H" 
			},
			{
				"x": -0.4993231943,
				"y": -2.5633899899,
				"z": -1.6445906414,
				"element": "H" 
			},
			{
				"x": 1.5737094259,
				"y": -0.384946734,
				"z": -2.2129138102,
				"element": "H" 
			},
			{
				"x": 1.8991427801,
				"y": -1.9420017173,
				"z": -1.4388265531,
				"element": "H" 
			},
			{
				"x": 1.4863200699,
				"y": 1.4643144108,
				"z": 0.3131042076,
				"element": "H" 
			},
			{
				"x": 2.6819315333,
				"y": 0.5502652319,
				"z": -0.605959424,
				"element": "H" 
			},
			{
				"x": 3.1022871309,
				"y": -0.9219814922,
				"z": 1.3447996144,
				"element": "H" 
			},
			{
				"x": 3.3618132265,
				"y": 0.7617892527,
				"z": 1.7694999612,
				"element": "H" 
			},
			{
				"x": 1.3733471339,
				"y": 0.8915464495,
				"z": 3.0816514718,
				"element": "H" 
			},
			{
				"x": 1.9217561429,
				"y": -0.7541952724,
				"z": 3.4072803189,
				"element": "H" 
			},
			{
				"x": -0.2517967858,
				"y": -1.3062946762,
				"z": 2.8183211049,
				"element": "H" 
			},
			{
				"x": 1.1082060922,
				"y": -2.2253174017,
				"z": 0.962536785,
				"element": "H" 
			},
			{
				"x": -0.5236467003,
				"y": -1.8588143809,
				"z": 0.438819977,
				"element": "H" 
			},
			{
				"x": -2.0620946921,
				"y": -0.8191141712,
				"z": 1.2788263367,
				"element": "H" 
			}
		],
		 "valence_orbital": [ 
			{
				"type": "occ",
				"energy": -0.32183,
				"method": "rhf"
			},
			{
				"type": "occ",
				"energy": -0.31516,
				"method": "rhf"
			},
			{
				"type": "occ",
				"energy": -0.30962,
				"method": "rhf"
			},
			{
				"type": "occ",
				"energy": -0.2664,
				"method": "rhf"
			},
			{
				"type": "occ",
				"energy": -0.20796,
				"method": "rhf"
			},
			{
				"type": "unocc",
				"energy": 0.01384,
				"method": "rhf"
			},
			{
				"type": "unocc",
				"energy": 0.04208,
				"method": "rhf"
			},
			{
				"type": "unocc",
				"energy": 0.08832,
				"method": "rhf"
			},
			{
				"type": "unocc",
				"energy": 0.09601,
				"method": "rhf"
			},
			{
				"type": "unocc",
				"energy": 0.1154,
				"method": "rhf"
			}
		],
		"cosmo_sigma_profile": { 
			"-0.025": 0.0,
			"-0.024": 0.0,
			"-0.023": 0.0,
			"-0.022": 0.0,
			"-0.021": 0.0,
			"-0.02": 0.0,
			"-0.019": 0.0,
			"-0.018": 0.659432731898,
			"-0.017": 0.66928764391,
			"-0.016": 1.06797520395,
			"-0.015": 1.03780672174,
			"-0.014": 1.14655674141,
			"-0.013": 0.818629101043,
			"-0.012": 0.800288935718,
			"-0.011": 0.9365163363,
			"-0.01": 1.08358749686,
			"-0.009": 1.14056531875,
			"-0.008": 1.65034034103,
			"-0.007": 2.5134062327,
			"-0.006": 3.24887739131,
			"-0.005": 3.65594622705,
			"-0.004": 8.1552718959,
			"-0.003": 22.707341876,
			"-0.002": 32.1613019357,
			"-0.001": 36.9021927737,
			"0.0": 29.7683457269,
			"0.001": 19.5690210913,
			"0.002": 10.0984569664,
			"0.003": 4.08892834874,
			"0.004": 3.09690452941,
			"0.005": 4.50846999531,
			"0.006": 4.27940990199,
			"0.007": 3.47918009313,
			"0.008": 3.35955123299,
			"0.009": 3.91451918689,
			"0.01": 4.53783285792,
			"0.011": 5.28716656867,
			"0.012": 5.05256674538,
			"0.013": 1.9874872011,
			"0.014": 0.13400852884,
			"0.015": 0.0,
			"0.016": 0.0,
			"0.017": 0.0,
			"0.018": 0.0,
			"0.019": 0.0,
			"0.02": 0.0,
			"0.021": 0.0,
			"0.022": 0.0,
			"0.023": 0.0,
			"0.024": 0.0,
			"0.025": 0.0
		}
	}
}
