{
	 "smiles": "CC(=O)OCC1OC(C(OC(C)=O)C1OC(C)=O)N1C=NC2=C1N=C(N)NC2=O", 
	 "Tm": 501.15, 
	 "num_atms": 48, 
	 "gaussian": { 
		 "optdone": 1, 
		 "sigma_profile": "yes", 
		 "theory": "DFT", 
		 "functional": "B3LYP", 
		 "basiset": "6-31G**", 
		 "properties": { 
			 "R2extent": 12098.7606, 
			 "electric_dipole_moment_norm": 9.62679086144, 
			 "electric_quadrupole_moment_norm": 41.230081576, 
			 "total_energy": -1496.75832028, 
			 "HOMO_LUMO_gap": 0.19358, 
			 "cosmo_polarized_energy": -40.3, 
			 "cosmo_cavitation_energy": 53.68, 
			 "cosmo_dispersion_energy": -34.64, 
			 "cosmo_repulsion_energy": 2.7, 
			 "cosmo_total_nonelectrostatic_energy": 21.73, 
			 "SMD_solvation_energy": 9.44 
		},
		"coords": [
			{
				"x": 3.7034903853,
				"y": 0.793889883,
				"z": -3.8271320457,
				"element": "C" 
			},
			{
				"x": 3.1399532749,
				"y": 1.4527227782,
				"z": -2.5951484261,
				"element": "C" 
			},
			{
				"x": 3.6258338313,
				"y": 1.4033009518,
				"z": -1.486807194,
				"element": "O" 
			},
			{
				"x": 1.9924007681,
				"y": 2.1217137071,
				"z": -2.8935019177,
				"element": "O" 
			},
			{
				"x": 1.276176013,
				"y": 2.7017658375,
				"z": -1.7965854907,
				"element": "C" 
			},
			{
				"x": 0.0349738765,
				"y": 1.8628342182,
				"z": -1.4916393807,
				"element": "C" 
			},
			{
				"x": 0.4128872954,
				"y": 0.4917055675,
				"z": -1.2635291855,
				"element": "O" 
			},
			{
				"x": -0.0111995768,
				"y": 0.0655775012,
				"z": 0.0291928989,
				"element": "C" 
			},
			{
				"x": -0.1134820118,
				"y": 1.3706925075,
				"z": 0.8303558324,
				"element": "C" 
			},
			{
				"x": -0.9489981857,
				"y": 1.2058176752,
				"z": 1.9659407989,
				"element": "O" 
			},
			{
				"x": -0.6586221379,
				"y": 2.0021462152,
				"z": 3.0459547176,
				"element": "C" 
			},
			{
				"x": -1.699889913,
				"y": 1.8346732496,
				"z": 4.1184923033,
				"element": "C" 
			},
			{
				"x": 0.294685565,
				"y": 2.7411720097,
				"z": 3.0848795531,
				"element": "O" 
			},
			{
				"x": -0.6801233067,
				"y": 2.3386821406,
				"z": -0.2192060302,
				"element": "C" 
			},
			{
				"x": -2.0893111608,
				"y": 2.1040067411,
				"z": -0.4042289159,
				"element": "O" 
			},
			{
				"x": -2.9486529177,
				"y": 2.8318233826,
				"z": 0.3600521257,
				"element": "C" 
			},
			{
				"x": -4.3744065634,
				"y": 2.4344830392,
				"z": 0.0710420424,
				"element": "C" 
			},
			{
				"x": -2.5956986466,
				"y": 3.6773601623,
				"z": 1.1509762697,
				"element": "O" 
			},
			{
				"x": 0.9192490778,
				"y": -0.9053342707,
				"z": 0.5455331192,
				"element": "N" 
			},
			{
				"x": 2.3093974659,
				"y": -0.8187595227,
				"z": 0.6235707016,
				"element": "C" 
			},
			{
				"x": 2.8548426274,
				"y": -1.8888097758,
				"z": 1.1392889221,
				"element": "N" 
			},
			{
				"x": 1.7943560482,
				"y": -2.7287340734,
				"z": 1.4193409754,
				"element": "C" 
			},
			{
				"x": 0.5856737915,
				"y": -2.1431280118,
				"z": 1.0505356523,
				"element": "C" 
			},
			{
				"x": -0.675203862,
				"y": -2.6381004085,
				"z": 1.1577741644,
				"element": "N" 
			},
			{
				"x": -0.7014223236,
				"y": -3.8498911412,
				"z": 1.6599976153,
				"element": "C" 
			},
			{
				"x": -1.9031134647,
				"y": -4.5179763973,
				"z": 1.7596532302,
				"element": "N" 
			},
			{
				"x": 0.4209958145,
				"y": -4.5281140888,
				"z": 2.0568335109,
				"element": "N" 
			},
			{
				"x": 1.7802636389,
				"y": -4.054244165,
				"z": 1.9829519698,
				"element": "C" 
			},
			{
				"x": 2.6811944737,
				"y": -4.7785813982,
				"z": 2.3675808566,
				"element": "O" 
			},
			{
				"x": 3.0828092477,
				"y": -0.0711401122,
				"z": -4.0827880155,
				"element": "H" 
			},
			{
				"x": 3.682590737,
				"y": 1.4795438203,
				"z": -4.6775719612,
				"element": "H" 
			},
			{
				"x": 4.7207632482,
				"y": 0.4597298651,
				"z": -3.6262097296,
				"element": "H" 
			},
			{
				"x": 0.9741478101,
				"y": 3.7056687935,
				"z": -2.1107974561,
				"element": "H" 
			},
			{
				"x": 1.936963339,
				"y": 2.7713691887,
				"z": -0.9294925924,
				"element": "H" 
			},
			{
				"x": -0.6519003515,
				"y": 1.8936884882,
				"z": -2.3443440912,
				"element": "H" 
			},
			{
				"x": -0.987936409,
				"y": -0.4304152715,
				"z": -0.0065486883,
				"element": "H" 
			},
			{
				"x": 0.8765837906,
				"y": 1.7115622258,
				"z": 1.1447169268,
				"element": "H" 
			},
			{
				"x": -2.0173429099,
				"y": 0.7931864284,
				"z": 4.2015882639,
				"element": "H" 
			},
			{
				"x": -2.5708583937,
				"y": 2.4380301092,
				"z": 3.8410759455,
				"element": "H" 
			},
			{
				"x": -1.304817018,
				"y": 2.1964103735,
				"z": 5.0675004244,
				"element": "H" 
			},
			{
				"x": -0.515773237,
				"y": 3.38701922,
				"z": 0.0369695301,
				"element": "H" 
			},
			{
				"x": -5.0515097559,
				"y": 3.1022934151,
				"z": 0.6024386324,
				"element": "H" 
			},
			{
				"x": -4.5708221457,
				"y": 2.4709593102,
				"z": -1.0037605406,
				"element": "H" 
			},
			{
				"x": -4.5394052956,
				"y": 1.4033520082,
				"z": 0.3988668386,
				"element": "H" 
			},
			{
				"x": 2.8420110065,
				"y": 0.0411242105,
				"z": 0.2402111409,
				"element": "H" 
			},
			{
				"x": -2.6987640977,
				"y": -3.913102121,
				"z": 1.6102186281,
				"element": "H" 
			},
			{
				"x": -2.0133868005,
				"y": -5.1609243625,
				"z": 2.5313392799,
				"element": "H" 
			},
			{
				"x": 0.3486973589,
				"y": -5.4853499036,
				"z": 2.3798187911,
				"element": "H" 
			}
		],
		 "valence_orbital": [ 
			{
				"type": "occ",
				"energy": -0.28013,
				"method": "rhf"
			},
			{
				"type": "occ",
				"energy": -0.26366,
				"method": "rhf"
			},
			{
				"type": "occ",
				"energy": -0.26048,
				"method": "rhf"
			},
			{
				"type": "occ",
				"energy": -0.24967,
				"method": "rhf"
			},
			{
				"type": "occ",
				"energy": -0.20418,
				"method": "rhf"
			},
			{
				"type": "unocc",
				"energy": -0.0106,
				"method": "rhf"
			},
			{
				"type": "unocc",
				"energy": -0.00625,
				"method": "rhf"
			},
			{
				"type": "unocc",
				"energy": 0.00264,
				"method": "rhf"
			},
			{
				"type": "unocc",
				"energy": 0.00308,
				"method": "rhf"
			},
			{
				"type": "unocc",
				"energy": 0.00591,
				"method": "rhf"
			}
		],
		"cosmo_sigma_profile": { 
			"-0.025": 0.0,
			"-0.024": 0.0,
			"-0.023": 0.0,
			"-0.022": 0.0,
			"-0.021": 0.0,
			"-0.02": 0.0,
			"-0.019": 0.0,
			"-0.018": 0.26369964738,
			"-0.017": 2.0740554635,
			"-0.016": 1.58699691375,
			"-0.015": 2.23647542147,
			"-0.014": 2.9359306146,
			"-0.013": 3.25686647562,
			"-0.012": 3.22155789366,
			"-0.011": 2.88049777538,
			"-0.01": 3.38533670806,
			"-0.009": 5.78632909815,
			"-0.008": 8.93599015287,
			"-0.007": 14.0861534338,
			"-0.006": 22.5514731259,
			"-0.005": 26.2195407097,
			"-0.004": 30.2437773721,
			"-0.003": 35.5713097727,
			"-0.002": 37.8636368776,
			"-0.001": 28.9881743551,
			"0.0": 23.0645327782,
			"0.001": 19.9313172477,
			"0.002": 16.9364189072,
			"0.003": 15.727038311,
			"0.004": 14.5060437296,
			"0.005": 14.4128018516,
			"0.006": 10.9999962556,
			"0.007": 10.2459159775,
			"0.008": 10.4701268362,
			"0.009": 9.19258994879,
			"0.01": 11.8637076025,
			"0.011": 12.5553879848,
			"0.012": 8.33163001565,
			"0.013": 7.77831811946,
			"0.014": 4.30468342342,
			"0.015": 1.56182522759,
			"0.016": 1.17693810947,
			"0.017": 0.363752424327,
			"0.018": 0.0,
			"0.019": 0.0,
			"0.02": 0.0,
			"0.021": 0.0,
			"0.022": 0.0,
			"0.023": 0.0,
			"0.024": 0.0,
			"0.025": 0.0
		}
	}
}
