{
	 "smiles": "COC1=C(OCC(N)=O)C=CC(=C1)C(O)=O", 
	 "Tm": 531.15, 
	 "num_atms": 27, 
	 "gaussian": { 
		 "optdone": 1, 
		 "sigma_profile": "yes", 
		 "theory": "DFT", 
		 "functional": "B3LYP", 
		 "basiset": "6-31G**", 
		 "properties": { 
			 "R2extent": 5555.862, 
			 "electric_dipole_moment_norm": 4.41820885201, 
			 "electric_quadrupole_moment_norm": 30.5373064926, 
			 "total_energy": -818.559151584, 
			 "HOMO_LUMO_gap": 0.18715, 
			 "cosmo_polarized_energy": -24.61, 
			 "cosmo_cavitation_energy": 32.33, 
			 "cosmo_dispersion_energy": -23.1, 
			 "cosmo_repulsion_energy": 1.84, 
			 "cosmo_total_nonelectrostatic_energy": 11.07, 
			 "SMD_solvation_energy": 8.63 
		},
		"coords": [
			{
				"x": -1.3040507217,
				"y": -1.8631430994,
				"z": -3.1105666196,
				"element": "C" 
			},
			{
				"x": -0.0684299237,
				"y": -1.5052422843,
				"z": -2.5053769939,
				"element": "O" 
			},
			{
				"x": -0.0948771073,
				"y": -0.8496542497,
				"z": -1.3119009575,
				"element": "C" 
			},
			{
				"x": 1.1635953845,
				"y": -0.5137281489,
				"z": -0.7590784536,
				"element": "C" 
			},
			{
				"x": 2.3312869318,
				"y": -0.7851544087,
				"z": -1.4267961944,
				"element": "O" 
			},
			{
				"x": 2.6838413841,
				"y": -2.1685626509,
				"z": -1.5927938254,
				"element": "C" 
			},
			{
				"x": 4.0475653702,
				"y": -2.2970378409,
				"z": -2.2668458568,
				"element": "C" 
			},
			{
				"x": 4.655807837,
				"y": -1.1263369747,
				"z": -2.5824157484,
				"element": "N" 
			},
			{
				"x": 4.5128251173,
				"y": -3.4061754651,
				"z": -2.484393573,
				"element": "O" 
			},
			{
				"x": 1.2284298137,
				"y": 0.1600166504,
				"z": 0.4578114925,
				"element": "C" 
			},
			{
				"x": 0.0671651979,
				"y": 0.508819632,
				"z": 1.1446575434,
				"element": "C" 
			},
			{
				"x": -1.17933111,
				"y": 0.1901479845,
				"z": 0.6029055901,
				"element": "C" 
			},
			{
				"x": -1.2560246075,
				"y": -0.497668975,
				"z": -0.62147642,
				"element": "C" 
			},
			{
				"x": -2.4007130856,
				"y": 0.57811184,
				"z": 1.3786208345,
				"element": "C" 
			},
			{
				"x": -3.5606611958,
				"y": 0.6942303064,
				"z": 0.6722027365,
				"element": "O" 
			},
			{
				"x": -2.3966405919,
				"y": 0.7859377542,
				"z": 2.5686701868,
				"element": "O" 
			},
			{
				"x": -1.0456095061,
				"y": -2.3591822556,
				"z": -4.0464989247,
				"element": "H" 
			},
			{
				"x": -1.9148577074,
				"y": -0.9777856126,
				"z": -3.3273722175,
				"element": "H" 
			},
			{
				"x": -1.8767536463,
				"y": -2.5548391353,
				"z": -2.4803039138,
				"element": "H" 
			},
			{
				"x": 1.947367027,
				"y": -2.6887870869,
				"z": -2.2106791441,
				"element": "H" 
			},
			{
				"x": 2.7386397158,
				"y": -2.6674717708,
				"z": -0.6176453712,
				"element": "H" 
			},
			{
				"x": 5.5531534155,
				"y": -1.1574133107,
				"z": -3.0403424274,
				"element": "H" 
			},
			{
				"x": 4.2079967597,
				"y": -0.2460951857,
				"z": -2.3828346765,
				"element": "H" 
			},
			{
				"x": 2.2097322132,
				"y": 0.4049677927,
				"z": 0.8510377914,
				"element": "H" 
			},
			{
				"x": 0.1092542553,
				"y": 1.0221221982,
				"z": 2.0983087546,
				"element": "H" 
			},
			{
				"x": -2.219769336,
				"y": -0.7982674426,
				"z": -1.0171910055,
				"element": "H" 
			},
			{
				"x": -3.3695418838,
				"y": 0.697291739,
				"z": -0.2758026065,
				"element": "H" 
			}
		],
		 "valence_orbital": [ 
			{
				"type": "occ",
				"energy": -0.27651,
				"method": "rhf"
			},
			{
				"type": "occ",
				"energy": -0.27074,
				"method": "rhf"
			},
			{
				"type": "occ",
				"energy": -0.26581,
				"method": "rhf"
			},
			{
				"type": "occ",
				"energy": -0.25239,
				"method": "rhf"
			},
			{
				"type": "occ",
				"energy": -0.23983,
				"method": "rhf"
			},
			{
				"type": "unocc",
				"energy": -0.05268,
				"method": "rhf"
			},
			{
				"type": "unocc",
				"energy": -0.01844,
				"method": "rhf"
			},
			{
				"type": "unocc",
				"energy": 0.02957,
				"method": "rhf"
			},
			{
				"type": "unocc",
				"energy": 0.0435,
				"method": "rhf"
			},
			{
				"type": "unocc",
				"energy": 0.05088,
				"method": "rhf"
			}
		],
		"cosmo_sigma_profile": { 
			"-0.025": 0.0,
			"-0.024": 0.0,
			"-0.023": 0.0,
			"-0.022": 0.0,
			"-0.021": 0.0,
			"-0.02": 0.0,
			"-0.019": 0.0943095903119,
			"-0.018": 0.889972365407,
			"-0.017": 0.536348044164,
			"-0.016": 1.1596992662,
			"-0.015": 1.24219923952,
			"-0.014": 1.75893262654,
			"-0.013": 3.03892863458,
			"-0.012": 2.73480531992,
			"-0.011": 2.6647462346,
			"-0.01": 3.90843746241,
			"-0.009": 3.00599845829,
			"-0.008": 3.88436102806,
			"-0.007": 9.18880339848,
			"-0.006": 15.5027492163,
			"-0.005": 17.2246400786,
			"-0.004": 17.7678921444,
			"-0.003": 17.6778195278,
			"-0.002": 13.669460946,
			"-0.001": 13.0089674023,
			"0.0": 12.8705786767,
			"0.001": 16.3102922151,
			"0.002": 18.5087328328,
			"0.003": 15.506155463,
			"0.004": 7.79666944102,
			"0.005": 5.15924117082,
			"0.006": 4.55224487839,
			"0.007": 4.56940396322,
			"0.008": 5.93523222161,
			"0.009": 4.52076820232,
			"0.01": 5.63397067022,
			"0.011": 7.34118303449,
			"0.012": 6.63959606755,
			"0.013": 5.6839785237,
			"0.014": 5.83747033367,
			"0.015": 1.16667679755,
			"0.016": 0.0,
			"0.017": 0.0,
			"0.018": 0.0,
			"0.019": 0.0,
			"0.02": 0.0,
			"0.021": 0.0,
			"0.022": 0.0,
			"0.023": 0.0,
			"0.024": 0.0,
			"0.025": 0.0
		}
	}
}
