{
	 "smiles": "OC(=O)C1=CC=C(OCC2CCCO2)C=C1", 
	 "Tm": 404.15, 
	 "num_atms": 30, 
	 "gaussian": { 
		 "optdone": 1, 
		 "sigma_profile": "yes", 
		 "theory": "DFT", 
		 "functional": "B3LYP", 
		 "basiset": "6-31G**", 
		 "properties": { 
			 "R2extent": 6337.3133, 
			 "electric_dipole_moment_norm": 3.26504396295, 
			 "electric_quadrupole_moment_norm": 10.7997924962, 
			 "total_energy": -766.613762633, 
			 "HOMO_LUMO_gap": 0.19381, 
			 "cosmo_polarized_energy": -13.44, 
			 "cosmo_cavitation_energy": 33.39, 
			 "cosmo_dispersion_energy": -24.33, 
			 "cosmo_repulsion_energy": 1.9, 
			 "cosmo_total_nonelectrostatic_energy": 10.96, 
			 "SMD_solvation_energy": 6.62 
		},
		"coords": [
			{
				"x": -1.993396447,
				"y": 5.1718471947,
				"z": 2.7562413674,
				"element": "O" 
			},
			{
				"x": -2.6642928191,
				"y": 4.4978606424,
				"z": 1.7841253305,
				"element": "C" 
			},
			{
				"x": -3.7946703771,
				"y": 4.8075821476,
				"z": 1.4561645326,
				"element": "O" 
			},
			{
				"x": -1.8806607011,
				"y": 3.3871355635,
				"z": 1.1999836511,
				"element": "C" 
			},
			{
				"x": -2.4692765121,
				"y": 2.6216832134,
				"z": 0.1871720404,
				"element": "C" 
			},
			{
				"x": -1.7852475192,
				"y": 1.5625955578,
				"z": -0.4027143866,
				"element": "C" 
			},
			{
				"x": -0.483834735,
				"y": 1.257945404,
				"z": 0.025843797,
				"element": "C" 
			},
			{
				"x": 0.2743031717,
				"y": 0.2483497423,
				"z": -0.4742232771,
				"element": "O" 
			},
			{
				"x": -0.2580061302,
				"y": -0.5729617729,
				"z": -1.5124734408,
				"element": "C" 
			},
			{
				"x": 0.7927093366,
				"y": -1.5968975032,
				"z": -1.9224753827,
				"element": "C" 
			},
			{
				"x": 1.4765119854,
				"y": -2.337961488,
				"z": -0.7458644254,
				"element": "C" 
			},
			{
				"x": 2.8613226153,
				"y": -1.673288038,
				"z": -0.672693875,
				"element": "C" 
			},
			{
				"x": 3.1045680782,
				"y": -1.3140984403,
				"z": -2.1389685997,
				"element": "C" 
			},
			{
				"x": 1.8285685495,
				"y": -0.9259181006,
				"z": -2.6476941096,
				"element": "O" 
			},
			{
				"x": 0.1145837126,
				"y": 2.0230308731,
				"z": 1.042336381,
				"element": "C" 
			},
			{
				"x": -0.5762972616,
				"y": 3.0749083251,
				"z": 1.6219876718,
				"element": "C" 
			},
			{
				"x": -2.6022823853,
				"y": 5.8661180575,
				"z": 3.0562791809,
				"element": "H" 
			},
			{
				"x": -3.4758228554,
				"y": 2.8719000483,
				"z": -0.1311863871,
				"element": "H" 
			},
			{
				"x": -2.2641379414,
				"y": 0.9870418793,
				"z": -1.1851780258,
				"element": "H" 
			},
			{
				"x": -0.5207427364,
				"y": 0.0399249434,
				"z": -2.3838500968,
				"element": "H" 
			},
			{
				"x": -1.1620392583,
				"y": -1.0889587957,
				"z": -1.158651461,
				"element": "H" 
			},
			{
				"x": 0.2877489343,
				"y": -2.3109245209,
				"z": -2.5916426591,
				"element": "H" 
			},
			{
				"x": 1.5726636445,
				"y": -3.4028856717,
				"z": -0.9810275993,
				"element": "H" 
			},
			{
				"x": 0.9130313005,
				"y": -2.2467433115,
				"z": 0.1855200786,
				"element": "H" 
			},
			{
				"x": 3.6329968489,
				"y": -2.328466617,
				"z": -0.2584898203,
				"element": "H" 
			},
			{
				"x": 2.8099599743,
				"y": -0.7633164854,
				"z": -0.0688188954,
				"element": "H" 
			},
			{
				"x": 3.7922904386,
				"y": -0.475558469,
				"z": -2.2839751992,
				"element": "H" 
			},
			{
				"x": 3.4944781653,
				"y": -2.1807064348,
				"z": -2.6979635817,
				"element": "H" 
			},
			{
				"x": 1.1218920364,
				"y": 1.7691117925,
				"z": 1.3551360244,
				"element": "H" 
			},
			{
				"x": -0.1119211129,
				"y": 3.6631502642,
				"z": 2.4053011668,
				"element": "H" 
			}
		],
		 "valence_orbital": [ 
			{
				"type": "occ",
				"energy": -0.30873,
				"method": "rhf"
			},
			{
				"type": "occ",
				"energy": -0.26917,
				"method": "rhf"
			},
			{
				"type": "occ",
				"energy": -0.26051,
				"method": "rhf"
			},
			{
				"type": "occ",
				"energy": -0.2525,
				"method": "rhf"
			},
			{
				"type": "occ",
				"energy": -0.22993,
				"method": "rhf"
			},
			{
				"type": "unocc",
				"energy": -0.03612,
				"method": "rhf"
			},
			{
				"type": "unocc",
				"energy": -0.00812,
				"method": "rhf"
			},
			{
				"type": "unocc",
				"energy": 0.06871,
				"method": "rhf"
			},
			{
				"type": "unocc",
				"energy": 0.08007,
				"method": "rhf"
			},
			{
				"type": "unocc",
				"energy": 0.08285,
				"method": "rhf"
			}
		],
		"cosmo_sigma_profile": { 
			"-0.025": 0.0,
			"-0.024": 0.0,
			"-0.023": 0.0,
			"-0.022": 0.0,
			"-0.021": 0.0,
			"-0.02": 0.0,
			"-0.019": 0.0,
			"-0.018": 0.460442031364,
			"-0.017": 1.06874438978,
			"-0.016": 0.940413946476,
			"-0.015": 0.407263657776,
			"-0.014": 0.854907827942,
			"-0.013": 0.387104362971,
			"-0.012": 0.894219304657,
			"-0.011": 0.718342159646,
			"-0.01": 0.817674086607,
			"-0.009": 0.576153665135,
			"-0.008": 0.366599131464,
			"-0.007": 3.75260604453,
			"-0.006": 12.00260185,
			"-0.005": 18.0968716457,
			"-0.004": 21.2203024223,
			"-0.003": 25.7998770956,
			"-0.002": 25.4804608761,
			"-0.001": 21.4278409429,
			"0.0": 20.0037958585,
			"0.001": 17.6123169137,
			"0.002": 17.1961741887,
			"0.003": 18.0900375302,
			"0.004": 14.2210769484,
			"0.005": 6.4215095417,
			"0.006": 4.50626248121,
			"0.007": 5.12936005271,
			"0.008": 3.7331142409,
			"0.009": 3.21460793563,
			"0.01": 3.72026360203,
			"0.011": 4.12846336679,
			"0.012": 6.84192171054,
			"0.013": 2.39460595879,
			"0.014": 0.840303292307,
			"0.015": 0.0,
			"0.016": 0.0,
			"0.017": 0.0,
			"0.018": 0.0,
			"0.019": 0.0,
			"0.02": 0.0,
			"0.021": 0.0,
			"0.022": 0.0,
			"0.023": 0.0,
			"0.024": 0.0,
			"0.025": 0.0
		}
	}
}
