{
	 "smiles": "ClCC1=CC=C(C=C1)C(Cl)=O", 
	 "Tm": 304.15, 
	 "num_atms": 17, 
	 "gaussian": { 
		 "optdone": 1, 
		 "sigma_profile": "yes", 
		 "theory": "DFT", 
		 "functional": "B3LYP", 
		 "basiset": "6-31G**", 
		 "properties": { 
			 "R2extent": 3517.4159, 
			 "electric_dipole_moment_norm": 3.46223968697, 
			 "electric_quadrupole_moment_norm": 15.8003969143, 
			 "total_energy": -1304.08930755, 
			 "HOMO_LUMO_gap": 0.19181, 
			 "cosmo_polarized_energy": -8.83, 
			 "cosmo_cavitation_energy": 25.43, 
			 "cosmo_dispersion_energy": -18.69, 
			 "cosmo_repulsion_energy": 1.51, 
			 "cosmo_total_nonelectrostatic_energy": 8.25, 
			 "SMD_solvation_energy": 4.58 
		},
		"coords": [
			{
				"x": -1.7708189295,
				"y": 0.2144351043,
				"z": 2.7609068706,
				"element": "Cl" 
			},
			{
				"x": -1.4102345118,
				"y": 1.3136135937,
				"z": 1.3421454957,
				"element": "C" 
			},
			{
				"x": -0.4738048971,
				"y": 0.6697380765,
				"z": 0.3611673727,
				"element": "C" 
			},
			{
				"x": -0.9732490918,
				"y": -0.1149067303,
				"z": -0.6886286645,
				"element": "C" 
			},
			{
				"x": -0.1086721112,
				"y": -0.708952404,
				"z": -1.5984843659,
				"element": "C" 
			},
			{
				"x": 1.2802870844,
				"y": -0.5280192234,
				"z": -1.4731414024,
				"element": "C" 
			},
			{
				"x": 1.7854687984,
				"y": 0.253181088,
				"z": -0.4250647936,
				"element": "C" 
			},
			{
				"x": 0.9109864018,
				"y": 0.8442499741,
				"z": 0.4817123044,
				"element": "C" 
			},
			{
				"x": 2.1238505465,
				"y": -1.1962275253,
				"z": -2.4938263124,
				"element": "C" 
			},
			{
				"x": 3.9264556675,
				"y": -0.9413102306,
				"z": -2.3068187993,
				"element": "Cl" 
			},
			{
				"x": 1.7296638652,
				"y": -1.8661933982,
				"z": -3.400405977,
				"element": "O" 
			},
			{
				"x": -2.376729399,
				"y": 1.541190498,
				"z": 0.8921753867,
				"element": "H" 
			},
			{
				"x": -0.9874718542,
				"y": 2.2219404903,
				"z": 1.771582028,
				"element": "H" 
			},
			{
				"x": -2.0451445421,
				"y": -0.260323068,
				"z": -0.7888665362,
				"element": "H" 
			},
			{
				"x": -0.4876600301,
				"y": -1.3143059965,
				"z": -2.4142359843,
				"element": "H" 
			},
			{
				"x": 2.854134234,
				"y": 0.3970548956,
				"z": -0.3243133198,
				"element": "H" 
			},
			{
				"x": 1.3076387691,
				"y": 1.4468348559,
				"z": 1.2937966974,
				"element": "H" 
			}
		],
		 "valence_orbital": [ 
			{
				"type": "occ",
				"energy": -0.31136,
				"method": "rhf"
			},
			{
				"type": "occ",
				"energy": -0.30798,
				"method": "rhf"
			},
			{
				"type": "occ",
				"energy": -0.29807,
				"method": "rhf"
			},
			{
				"type": "occ",
				"energy": -0.28326,
				"method": "rhf"
			},
			{
				"type": "occ",
				"energy": -0.28079,
				"method": "rhf"
			},
			{
				"type": "unocc",
				"energy": -0.08898,
				"method": "rhf"
			},
			{
				"type": "unocc",
				"energy": -0.03255,
				"method": "rhf"
			},
			{
				"type": "unocc",
				"energy": -0.00775,
				"method": "rhf"
			},
			{
				"type": "unocc",
				"energy": 0.01499,
				"method": "rhf"
			},
			{
				"type": "unocc",
				"energy": 0.04108,
				"method": "rhf"
			}
		],
		"cosmo_sigma_profile": { 
			"-0.025": 0.0,
			"-0.024": 0.0,
			"-0.023": 0.0,
			"-0.022": 0.0,
			"-0.021": 0.0,
			"-0.02": 0.0,
			"-0.019": 0.0,
			"-0.018": 0.0,
			"-0.017": 0.0,
			"-0.016": 0.0,
			"-0.015": 0.0,
			"-0.014": 0.0,
			"-0.013": 0.0,
			"-0.012": 0.0,
			"-0.011": 0.0,
			"-0.01": 0.0,
			"-0.009": 0.996845333951,
			"-0.008": 8.84302710731,
			"-0.007": 10.7561004276,
			"-0.006": 11.9332755871,
			"-0.005": 11.2567398137,
			"-0.004": 9.82281567802,
			"-0.003": 9.71871864839,
			"-0.002": 11.8868687351,
			"-0.001": 15.4809722408,
			"0.0": 15.0873067221,
			"0.001": 18.9988581811,
			"0.002": 19.765849292,
			"0.003": 12.9430852397,
			"0.004": 13.6679538424,
			"0.005": 12.031063192,
			"0.006": 13.355590987,
			"0.007": 4.59429904009,
			"0.008": 4.36345869251,
			"0.009": 2.760227685,
			"0.01": 0.431739362988,
			"0.011": 0.0,
			"0.012": 0.0,
			"0.013": 0.0,
			"0.014": 0.0,
			"0.015": 0.0,
			"0.016": 0.0,
			"0.017": 0.0,
			"0.018": 0.0,
			"0.019": 0.0,
			"0.02": 0.0,
			"0.021": 0.0,
			"0.022": 0.0,
			"0.023": 0.0,
			"0.024": 0.0,
			"0.025": 0.0
		}
	}
}
