{
	 "smiles": "NC1=CN(N=C1)C1=NC2=C(C=CC=C2)N=C1", 
	 "Tm": 443.15, 
	 "num_atms": 25, 
	 "gaussian": { 
		 "optdone": 1, 
		 "sigma_profile": "yes", 
		 "theory": "DFT", 
		 "functional": "B3LYP", 
		 "basiset": "6-31G**", 
		 "properties": { 
			 "R2extent": 4835.1709, 
			 "electric_dipole_moment_norm": 3.11949591441, 
			 "electric_quadrupole_moment_norm": 19.0698459239, 
			 "total_energy": -698.328476733, 
			 "HOMO_LUMO_gap": 0.13544, 
			 "cosmo_polarized_energy": -12.9, 
			 "cosmo_cavitation_energy": 30.0, 
			 "cosmo_dispersion_energy": -22.54, 
			 "cosmo_repulsion_energy": 1.72, 
			 "cosmo_total_nonelectrostatic_energy": 9.18, 
			 "SMD_solvation_energy": 2.1 
		},
		"coords": [
			{
				"x": 0.2806693439,
				"y": 3.710900482,
				"z": -3.1952460316,
				"element": "N" 
			},
			{
				"x": 0.308267196,
				"y": 2.5077304997,
				"z": -2.4839970129,
				"element": "C" 
			},
			{
				"x": 0.5473432958,
				"y": 2.3008766756,
				"z": -1.1416576044,
				"element": "C" 
			},
			{
				"x": 0.3783831132,
				"y": 0.9504954441,
				"z": -0.9221782517,
				"element": "N" 
			},
			{
				"x": 0.0490337152,
				"y": 0.2795627661,
				"z": -2.0541663904,
				"element": "N" 
			},
			{
				"x": 0.0017883483,
				"y": 1.2109881205,
				"z": -2.9950849908,
				"element": "C" 
			},
			{
				"x": 0.5214069399,
				"y": 0.2725380852,
				"z": 0.2955507121,
				"element": "C" 
			},
			{
				"x": 0.8464457608,
				"y": 0.9872413452,
				"z": 1.3477270996,
				"element": "N" 
			},
			{
				"x": 0.9807391646,
				"y": 0.3110809898,
				"z": 2.5254694987,
				"element": "C" 
			},
			{
				"x": 0.7748963296,
				"y": -1.1007703386,
				"z": 2.5890628677,
				"element": "C" 
			},
			{
				"x": 0.9217085797,
				"y": -1.7739471541,
				"z": 3.8254419697,
				"element": "C" 
			},
			{
				"x": 1.2615662924,
				"y": -1.0669923373,
				"z": 4.9596248692,
				"element": "C" 
			},
			{
				"x": 1.465687601,
				"y": 0.3333800174,
				"z": 4.8966947541,
				"element": "C" 
			},
			{
				"x": 1.3292017477,
				"y": 1.0141045712,
				"z": 3.705205692,
				"element": "C" 
			},
			{
				"x": 0.4371760719,
				"y": -1.8112859686,
				"z": 1.4680471977,
				"element": "N" 
			},
			{
				"x": 0.3125472922,
				"y": -1.1449935926,
				"z": 0.3474761186,
				"element": "C" 
			},
			{
				"x": 0.8149795448,
				"y": 4.4529717579,
				"z": -2.7618006393,
				"element": "H" 
			},
			{
				"x": 0.5486290215,
				"y": 3.6102676979,
				"z": -4.1661280517,
				"element": "H" 
			},
			{
				"x": 0.8090984132,
				"y": 2.9632625232,
				"z": -0.3333444184,
				"element": "H" 
			},
			{
				"x": -0.2508514625,
				"y": 0.9397226186,
				"z": -4.0121709688,
				"element": "H" 
			},
			{
				"x": 0.7586880197,
				"y": -2.8467894753,
				"z": 3.8418851657,
				"element": "H" 
			},
			{
				"x": 1.3744208869,
				"y": -1.5820174251,
				"z": 5.9088808234,
				"element": "H" 
			},
			{
				"x": 1.7326508478,
				"y": 0.8743333403,
				"z": 5.7999663763,
				"element": "H" 
			},
			{
				"x": 1.4808839041,
				"y": 2.0864978414,
				"z": 3.6361007651,
				"element": "H" 
			},
			{
				"x": 0.0454400322,
				"y": -1.6814584847,
				"z": -0.55695955,
				"element": "H" 
			}
		],
		 "valence_orbital": [ 
			{
				"type": "occ",
				"energy": -0.2763,
				"method": "rhf"
			},
			{
				"type": "occ",
				"energy": -0.25035,
				"method": "rhf"
			},
			{
				"type": "occ",
				"energy": -0.24878,
				"method": "rhf"
			},
			{
				"type": "occ",
				"energy": -0.23665,
				"method": "rhf"
			},
			{
				"type": "occ",
				"energy": -0.20346,
				"method": "rhf"
			},
			{
				"type": "unocc",
				"energy": -0.06802,
				"method": "rhf"
			},
			{
				"type": "unocc",
				"energy": -0.03015,
				"method": "rhf"
			},
			{
				"type": "unocc",
				"energy": 0.00938,
				"method": "rhf"
			},
			{
				"type": "unocc",
				"energy": 0.02363,
				"method": "rhf"
			},
			{
				"type": "unocc",
				"energy": 0.0663,
				"method": "rhf"
			}
		],
		"cosmo_sigma_profile": { 
			"-0.025": 0.0,
			"-0.024": 0.0,
			"-0.023": 0.0,
			"-0.022": 0.0,
			"-0.021": 0.0,
			"-0.02": 0.0,
			"-0.019": 0.0,
			"-0.018": 0.0,
			"-0.017": 0.0,
			"-0.016": 0.0,
			"-0.015": 0.0,
			"-0.014": 0.0,
			"-0.013": 1.01975004524,
			"-0.012": 2.73695417489,
			"-0.011": 3.09386921132,
			"-0.01": 3.17530717433,
			"-0.009": 2.91239058307,
			"-0.008": 5.50449086229,
			"-0.007": 8.11653204662,
			"-0.006": 11.9626699602,
			"-0.005": 14.4733142125,
			"-0.004": 11.3976018001,
			"-0.003": 13.8159288924,
			"-0.002": 15.2562380158,
			"-0.001": 14.6102569802,
			"0.0": 15.2241211458,
			"0.001": 17.7945338094,
			"0.002": 24.0588890635,
			"0.003": 22.4379710513,
			"0.004": 15.6520355978,
			"0.005": 7.60884316307,
			"0.006": 5.3642349661,
			"0.007": 4.89037698747,
			"0.008": 5.30008766851,
			"0.009": 4.1824342345,
			"0.01": 2.19331746733,
			"0.011": 3.44214750402,
			"0.012": 2.12738507342,
			"0.013": 1.03438617769,
			"0.014": 1.65312712685,
			"0.015": 0.7452809036,
			"0.016": 0.0313511946493,
			"0.017": 0.0,
			"0.018": 0.0,
			"0.019": 0.0,
			"0.02": 0.0,
			"0.021": 0.0,
			"0.022": 0.0,
			"0.023": 0.0,
			"0.024": 0.0,
			"0.025": 0.0
		}
	}
}
