{
	 "smiles": "CCC1(O)CCC2C3CCC4=CC(=O)CCC4C3CCC12C", 
	 "Tm": 413.15, 
	 "num_atms": 52, 
	 "gaussian": { 
		 "optdone": 1, 
		 "sigma_profile": "yes", 
		 "theory": "DFT", 
		 "functional": "B3LYP", 
		 "basiset": "6-31G**", 
		 "properties": { 
			 "R2extent": 8544.1825, 
			 "electric_dipole_moment_norm": 6.41239889667, 
			 "electric_quadrupole_moment_norm": 26.8770773117, 
			 "total_energy": -930.660555268, 
			 "HOMO_LUMO_gap": 0.18742, 
			 "cosmo_polarized_energy": -12.48, 
			 "cosmo_cavitation_energy": 44.94, 
			 "cosmo_dispersion_energy": -31.65, 
			 "cosmo_repulsion_energy": 2.35, 
			 "cosmo_total_nonelectrostatic_energy": 15.63, 
			 "SMD_solvation_energy": 6.59 
		},
		"coords": [
			{
				"x": 1.4773844282,
				"y": -1.170163391,
				"z": 4.4194865796,
				"element": "C" 
			},
			{
				"x": 0.5975914194,
				"y": -1.7047369967,
				"z": 3.2809631541,
				"element": "C" 
			},
			{
				"x": -0.3233744257,
				"y": -0.6504879952,
				"z": 2.6350536791,
				"element": "C" 
			},
			{
				"x": 0.4782461343,
				"y": 0.4639726454,
				"z": 2.1959372855,
				"element": "O" 
			},
			{
				"x": -1.4419263668,
				"y": -0.1312754826,
				"z": 3.5613896537,
				"element": "C" 
			},
			{
				"x": -2.3920032538,
				"y": 0.6158332144,
				"z": 2.6150182429,
				"element": "C" 
			},
			{
				"x": -2.4027000233,
				"y": -0.2282573581,
				"z": 1.312707912,
				"element": "C" 
			},
			{
				"x": -2.4979576642,
				"y": 0.579013856,
				"z": 0.0031156156,
				"element": "C" 
			},
			{
				"x": -3.7032116087,
				"y": 1.5254072937,
				"z": -0.0903458038,
				"element": "C" 
			},
			{
				"x": -3.8400997801,
				"y": 2.0501849232,
				"z": -1.5411318397,
				"element": "C" 
			},
			{
				"x": -2.490089873,
				"y": 2.2395962762,
				"z": -2.2045096548,
				"element": "C" 
			},
			{
				"x": -2.3112362472,
				"y": 2.1420668937,
				"z": -3.5373846385,
				"element": "C" 
			},
			{
				"x": -1.0031908398,
				"y": 2.3007106583,
				"z": -4.1960474531,
				"element": "C" 
			},
			{
				"x": -0.8908492302,
				"y": 2.2639160213,
				"z": -5.4152673974,
				"element": "O" 
			},
			{
				"x": 0.2152395913,
				"y": 2.4508688722,
				"z": -3.2905488308,
				"element": "C" 
			},
			{
				"x": -0.1094203556,
				"y": 3.0960941483,
				"z": -1.9347296535,
				"element": "C" 
			},
			{
				"x": -1.3668729623,
				"y": 2.5308982247,
				"z": -1.2399594014,
				"element": "C" 
			},
			{
				"x": -1.1648309389,
				"y": 1.3175036054,
				"z": -0.2641212875,
				"element": "C" 
			},
			{
				"x": -0.1057675566,
				"y": 0.2751111121,
				"z": -0.6681025729,
				"element": "C" 
			},
			{
				"x": -0.2808084414,
				"y": -1.091854569,
				"z": 0.0531437302,
				"element": "C" 
			},
			{
				"x": -1.1119207141,
				"y": -1.1453401632,
				"z": 1.3657797335,
				"element": "C" 
			},
			{
				"x": -1.5655890101,
				"y": -2.6110408312,
				"z": 1.5509895506,
				"element": "C" 
			},
			{
				"x": 2.0924672353,
				"y": -1.9728811953,
				"z": 4.8373815994,
				"element": "H" 
			},
			{
				"x": 2.1647764427,
				"y": -0.3932420127,
				"z": 4.0674015185,
				"element": "H" 
			},
			{
				"x": 0.8818904448,
				"y": -0.755513075,
				"z": 5.2404133975,
				"element": "H" 
			},
			{
				"x": -0.0092938574,
				"y": -2.5315895036,
				"z": 3.6634605567,
				"element": "H" 
			},
			{
				"x": 1.2468850558,
				"y": -2.1228574403,
				"z": 2.5018621359,
				"element": "H" 
			},
			{
				"x": 0.8220377938,
				"y": 0.9049756704,
				"z": 2.9833526567,
				"element": "H" 
			},
			{
				"x": -1.9525987697,
				"y": -0.9772003959,
				"z": 4.0375669483,
				"element": "H" 
			},
			{
				"x": -1.0547261122,
				"y": 0.5006649675,
				"z": 4.3697432499,
				"element": "H" 
			},
			{
				"x": -1.9991611445,
				"y": 1.6196897901,
				"z": 2.4265669203,
				"element": "H" 
			},
			{
				"x": -3.3942799177,
				"y": 0.7382709004,
				"z": 3.0370620814,
				"element": "H" 
			},
			{
				"x": -3.2813230216,
				"y": -0.8855352369,
				"z": 1.3491550453,
				"element": "H" 
			},
			{
				"x": -2.6313208722,
				"y": -0.1538404702,
				"z": -0.8093551581,
				"element": "H" 
			},
			{
				"x": -4.6262130383,
				"y": 1.0116150395,
				"z": 0.2033637111,
				"element": "H" 
			},
			{
				"x": -3.5818545738,
				"y": 2.3612907472,
				"z": 0.6096742578,
				"element": "H" 
			},
			{
				"x": -4.3761453145,
				"y": 3.0100625599,
				"z": -1.5408288323,
				"element": "H" 
			},
			{
				"x": -4.4456858198,
				"y": 1.3619916967,
				"z": -2.1416615949,
				"element": "H" 
			},
			{
				"x": -3.1453425985,
				"y": 1.9310017374,
				"z": -4.2038643203,
				"element": "H" 
			},
			{
				"x": 0.635699741,
				"y": 1.4464223358,
				"z": -3.1587680982,
				"element": "H" 
			},
			{
				"x": 0.9678537687,
				"y": 3.02799387,
				"z": -3.8362256874,
				"element": "H" 
			},
			{
				"x": -0.2816262896,
				"y": 4.1660768557,
				"z": -2.1058191751,
				"element": "H" 
			},
			{
				"x": 0.7547822584,
				"y": 3.0303207029,
				"z": -1.2643952584,
				"element": "H" 
			},
			{
				"x": -1.7448773992,
				"y": 3.3355940939,
				"z": -0.5920182651,
				"element": "H" 
			},
			{
				"x": -0.8241587371,
				"y": 1.7492289275,
				"z": 0.6811810637,
				"element": "H" 
			},
			{
				"x": -0.1712019139,
				"y": 0.0817170574,
				"z": -1.7449376834,
				"element": "H" 
			},
			{
				"x": 0.8919229135,
				"y": 0.6753312988,
				"z": -0.470576399,
				"element": "H" 
			},
			{
				"x": -0.7714521684,
				"y": -1.7790819918,
				"z": -0.6462541382,
				"element": "H" 
			},
			{
				"x": 0.7057119573,
				"y": -1.5295428743,
				"z": 0.2424078902,
				"element": "H" 
			},
			{
				"x": -2.1053931811,
				"y": -2.763018472,
				"z": 2.4918962542,
				"element": "H" 
			},
			{
				"x": -0.7242415211,
				"y": -3.3108655852,
				"z": 1.525855414,
				"element": "H" 
			},
			{
				"x": -2.245543642,
				"y": -2.8884009557,
				"z": 0.7386233061,
				"element": "H" 
			}
		],
		 "valence_orbital": [ 
			{
				"type": "occ",
				"energy": -0.28416,
				"method": "rhf"
			},
			{
				"type": "occ",
				"energy": -0.27864,
				"method": "rhf"
			},
			{
				"type": "occ",
				"energy": -0.26665,
				"method": "rhf"
			},
			{
				"type": "occ",
				"energy": -0.24282,
				"method": "rhf"
			},
			{
				"type": "occ",
				"energy": -0.22179,
				"method": "rhf"
			},
			{
				"type": "unocc",
				"energy": -0.03437,
				"method": "rhf"
			},
			{
				"type": "unocc",
				"energy": 0.05886,
				"method": "rhf"
			},
			{
				"type": "unocc",
				"energy": 0.07044,
				"method": "rhf"
			},
			{
				"type": "unocc",
				"energy": 0.07873,
				"method": "rhf"
			},
			{
				"type": "unocc",
				"energy": 0.08203,
				"method": "rhf"
			}
		],
		"cosmo_sigma_profile": { 
			"-0.025": 0.0,
			"-0.024": 0.0,
			"-0.023": 0.0,
			"-0.022": 0.0,
			"-0.021": 0.0,
			"-0.02": 0.0,
			"-0.019": 0.0,
			"-0.018": 0.0,
			"-0.017": 0.0,
			"-0.016": 0.0,
			"-0.015": 0.0,
			"-0.014": 0.213190782082,
			"-0.013": 0.570435238032,
			"-0.012": 0.724834306917,
			"-0.011": 0.916767598309,
			"-0.01": 0.976672659333,
			"-0.009": 1.03909148906,
			"-0.008": 1.19294837083,
			"-0.007": 1.18970894345,
			"-0.006": 0.799755224567,
			"-0.005": 3.62239314607,
			"-0.004": 16.4742173334,
			"-0.003": 36.0856546839,
			"-0.002": 57.9082615402,
			"-0.001": 67.162823252,
			"0.0": 53.7760290303,
			"0.001": 37.3521493251,
			"0.002": 18.8700588994,
			"0.003": 7.6015883186,
			"0.004": 4.84936692774,
			"0.005": 3.17392069265,
			"0.006": 2.52108764715,
			"0.007": 3.3601044493,
			"0.008": 3.49081250843,
			"0.009": 2.24725940775,
			"0.01": 2.44345299854,
			"0.011": 2.87402914305,
			"0.012": 3.41072048645,
			"0.013": 4.78984444213,
			"0.014": 3.73779959279,
			"0.015": 1.1247107914,
			"0.016": 0.0,
			"0.017": 0.0,
			"0.018": 0.0,
			"0.019": 0.0,
			"0.02": 0.0,
			"0.021": 0.0,
			"0.022": 0.0,
			"0.023": 0.0,
			"0.024": 0.0,
			"0.025": 0.0
		}
	}
}
