{
	 "smiles": "COP(Cl)Cl", 
	 "Tm": 182.15, 
	 "num_atms": 8, 
	 "gaussian": { 
		 "optdone": 1, 
		 "sigma_profile": "yes", 
		 "theory": "DFT", 
		 "functional": "B3LYP", 
		 "basiset": "6-31G**", 
		 "properties": { 
			 "R2extent": 3027.2707, 
			 "electric_dipole_moment_norm": 3.24452158107, 
			 "electric_quadrupole_moment_norm": 13.151225511, 
			 "total_energy": -1376.92045999, 
			 "HOMO_LUMO_gap": 0.23041, 
			 "cosmo_polarized_energy": -5.89, 
			 "cosmo_cavitation_energy": 16.98, 
			 "cosmo_dispersion_energy": -13.93, 
			 "cosmo_repulsion_energy": 1.4, 
			 "cosmo_total_nonelectrostatic_energy": 4.44, 
			 "SMD_solvation_energy": 3.07 
		},
		"coords": [
			{
				"x": -2.0277026017,
				"y": -3.186913382,
				"z": -0.0417998707,
				"element": "C" 
			},
			{
				"x": -2.1640190781,
				"y": -1.7686765454,
				"z": 0.1794029347,
				"element": "O" 
			},
			{
				"x": -3.4349743195,
				"y": -1.0057421823,
				"z": -0.5103440332,
				"element": "P" 
			},
			{
				"x": -2.973077486,
				"y": 0.8968424401,
				"z": 0.2022663948,
				"element": "Cl" 
			},
			{
				"x": -2.8061289031,
				"y": -0.8682588558,
				"z": -2.5381263566,
				"element": "Cl" 
			},
			{
				"x": -2.984334141,
				"y": -3.7080382888,
				"z": 0.0793188548,
				"element": "H" 
			},
			{
				"x": -1.6296581733,
				"y": -3.3744991985,
				"z": -1.0432202418,
				"element": "H" 
			},
			{
				"x": -1.3227052972,
				"y": -3.5452139874,
				"z": 0.708702318,
				"element": "H" 
			}
		],
		 "valence_orbital": [ 
			{
				"type": "occ",
				"energy": -0.34799,
				"method": "rhf"
			},
			{
				"type": "occ",
				"energy": -0.3354,
				"method": "rhf"
			},
			{
				"type": "occ",
				"energy": -0.32155,
				"method": "rhf"
			},
			{
				"type": "occ",
				"energy": -0.31867,
				"method": "rhf"
			},
			{
				"type": "occ",
				"energy": -0.27943,
				"method": "rhf"
			},
			{
				"type": "unocc",
				"energy": -0.04902,
				"method": "rhf"
			},
			{
				"type": "unocc",
				"energy": -0.03746,
				"method": "rhf"
			},
			{
				"type": "unocc",
				"energy": 0.01179,
				"method": "rhf"
			},
			{
				"type": "unocc",
				"energy": 0.10113,
				"method": "rhf"
			},
			{
				"type": "unocc",
				"energy": 0.12272,
				"method": "rhf"
			}
		],
		"cosmo_sigma_profile": { 
			"-0.025": 0.0,
			"-0.024": 0.0,
			"-0.023": 0.0,
			"-0.022": 0.0,
			"-0.021": 0.0,
			"-0.02": 0.0,
			"-0.019": 0.0,
			"-0.018": 0.0,
			"-0.017": 0.0,
			"-0.016": 0.0,
			"-0.015": 0.0,
			"-0.014": 0.0,
			"-0.013": 0.0,
			"-0.012": 0.0,
			"-0.011": 0.0,
			"-0.01": 0.0,
			"-0.009": 0.492211783246,
			"-0.008": 2.17368378233,
			"-0.007": 6.98763511421,
			"-0.006": 9.61046722793,
			"-0.005": 10.7772510645,
			"-0.004": 11.5494289229,
			"-0.003": 6.84952021385,
			"-0.002": 6.29458714094,
			"-0.001": 5.79877967143,
			"0.0": 6.2911240158,
			"0.001": 10.2459501495,
			"0.002": 11.4071769727,
			"0.003": 13.5277128494,
			"0.004": 20.4399426983,
			"0.005": 13.1064306305,
			"0.006": 2.88431869335,
			"0.007": 1.12082291702,
			"0.008": 1.5856860269,
			"0.009": 0.62743695813,
			"0.01": 0.0,
			"0.011": 0.0,
			"0.012": 0.0,
			"0.013": 0.0,
			"0.014": 0.0,
			"0.015": 0.0,
			"0.016": 0.0,
			"0.017": 0.0,
			"0.018": 0.0,
			"0.019": 0.0,
			"0.02": 0.0,
			"0.021": 0.0,
			"0.022": 0.0,
			"0.023": 0.0,
			"0.024": 0.0,
			"0.025": 0.0
		}
	}
}
