{
	 "smiles": "CC(=O)NC1=CC(NC(C)=O)=C(C=CC2=CC=CC=C2)C(NC(C)=O)=C1C=CC1=CC=CC=C1", 
	 "Tm": 603.15, 
	 "num_atms": 61, 
	 "gaussian": { 
		 "optdone": 1, 
		 "sigma_profile": "yes", 
		 "theory": "DFT", 
		 "functional": "B3LYP", 
		 "basiset": "6-31G**", 
		 "properties": { 
			 "R2extent": 20312.7534, 
			 "electric_dipole_moment_norm": 9.5743354114, 
			 "electric_quadrupole_moment_norm": 29.8894081708, 
			 "total_energy": -1473.21286582, 
			 "HOMO_LUMO_gap": 0.13794, 
			 "cosmo_polarized_energy": -32.65, 
			 "cosmo_cavitation_energy": 65.97, 
			 "cosmo_dispersion_energy": -41.85, 
			 "cosmo_repulsion_energy": 3.23, 
			 "cosmo_total_nonelectrostatic_energy": 27.35, 
			 "SMD_solvation_energy": 13.67 
		},
		"coords": [
			{
				"x": -4.4719346287,
				"y": -3.6413342735,
				"z": 1.2133664867,
				"element": "C" 
			},
			{
				"x": -3.0813118256,
				"y": -3.5248371299,
				"z": 0.6056250021,
				"element": "C" 
			},
			{
				"x": -2.4831970415,
				"y": -4.5021467888,
				"z": 0.1798361016,
				"element": "O" 
			},
			{
				"x": -2.5763854021,
				"y": -2.2391576015,
				"z": 0.6027212646,
				"element": "N" 
			},
			{
				"x": -1.3065802055,
				"y": -1.7877961791,
				"z": 0.2007251413,
				"element": "C" 
			},
			{
				"x": -0.296090654,
				"y": -2.6717450718,
				"z": -0.1886182449,
				"element": "C" 
			},
			{
				"x": 0.967259423,
				"y": -2.1970351981,
				"z": -0.5389523615,
				"element": "C" 
			},
			{
				"x": 1.9620831037,
				"y": -3.1533738234,
				"z": -0.9073871336,
				"element": "N" 
			},
			{
				"x": 2.3652557974,
				"y": -3.5189704327,
				"z": -2.1855974233,
				"element": "C" 
			},
			{
				"x": 1.8468078545,
				"y": -2.678762644,
				"z": -3.3363413742,
				"element": "C" 
			},
			{
				"x": 3.1045719282,
				"y": -4.4781533253,
				"z": -2.3415919449,
				"element": "O" 
			},
			{
				"x": 1.2807366169,
				"y": -0.8196517683,
				"z": -0.5131763173,
				"element": "C" 
			},
			{
				"x": 2.6337482147,
				"y": -0.3841205587,
				"z": -0.8967929209,
				"element": "C" 
			},
			{
				"x": 2.9414806263,
				"y": 0.6812376675,
				"z": -1.6619770855,
				"element": "C" 
			},
			{
				"x": 4.2878623462,
				"y": 1.1120627908,
				"z": -2.0584373806,
				"element": "C" 
			},
			{
				"x": 4.4219328685,
				"y": 2.0664412748,
				"z": -3.0838880714,
				"element": "C" 
			},
			{
				"x": 5.6766354063,
				"y": 2.5001392307,
				"z": -3.508321561,
				"element": "C" 
			},
			{
				"x": 6.8306689594,
				"y": 1.9921271996,
				"z": -2.9102125227,
				"element": "C" 
			},
			{
				"x": 6.7154720225,
				"y": 1.0520556764,
				"z": -1.8813716654,
				"element": "C" 
			},
			{
				"x": 5.4625551269,
				"y": 0.620077047,
				"z": -1.4569246693,
				"element": "C" 
			},
			{
				"x": 0.2590540337,
				"y": 0.0549097327,
				"z": -0.0826966738,
				"element": "C" 
			},
			{
				"x": 0.5065221321,
				"y": 1.4540036786,
				"z": 0.0303540756,
				"element": "N" 
			},
			{
				"x": 1.4066418201,
				"y": 2.0069440853,
				"z": 0.9283263886,
				"element": "C" 
			},
			{
				"x": 1.50213358,
				"y": 3.5231658774,
				"z": 0.8624657672,
				"element": "C" 
			},
			{
				"x": 2.0970134511,
				"y": 1.3340482436,
				"z": 1.6726010749,
				"element": "O" 
			},
			{
				"x": -1.0333326054,
				"y": -0.3961191625,
				"z": 0.2522352096,
				"element": "C" 
			},
			{
				"x": -2.0214686282,
				"y": 0.5973938519,
				"z": 0.7250247003,
				"element": "C" 
			},
			{
				"x": -3.2822005159,
				"y": 0.7460893955,
				"z": 0.2643623288,
				"element": "C" 
			},
			{
				"x": -4.2777890844,
				"y": 1.723838034,
				"z": 0.7256922941,
				"element": "C" 
			},
			{
				"x": -5.4272595932,
				"y": 1.940335852,
				"z": -0.0558683788,
				"element": "C" 
			},
			{
				"x": -6.3935145474,
				"y": 2.8694105906,
				"z": 0.3259160499,
				"element": "C" 
			},
			{
				"x": -6.2344104751,
				"y": 3.5987984667,
				"z": 1.5050138638,
				"element": "C" 
			},
			{
				"x": -5.1037914463,
				"y": 3.3864956594,
				"z": 2.3000162024,
				"element": "C" 
			},
			{
				"x": -4.139033219,
				"y": 2.4584697627,
				"z": 1.9190762073,
				"element": "C" 
			},
			{
				"x": -4.3852492375,
				"y": -4.0563748197,
				"z": 2.2230124989,
				"element": "H" 
			},
			{
				"x": -5.0096327246,
				"y": -2.6908823015,
				"z": 1.2744958616,
				"element": "H" 
			},
			{
				"x": -5.0511799932,
				"y": -4.347976838,
				"z": 0.6161248054,
				"element": "H" 
			},
			{
				"x": -3.1692634773,
				"y": -1.5204907141,
				"z": 0.9939541817,
				"element": "H" 
			},
			{
				"x": -0.50838071,
				"y": -3.7307457706,
				"z": -0.2280999085,
				"element": "H" 
			},
			{
				"x": 2.1959276522,
				"y": -3.8598219008,
				"z": -0.2193828611,
				"element": "H" 
			},
			{
				"x": 0.7555504234,
				"y": -2.6002265533,
				"z": -3.3079580303,
				"element": "H" 
			},
			{
				"x": 2.2543356363,
				"y": -1.6648579783,
				"z": -3.2894324003,
				"element": "H" 
			},
			{
				"x": 2.1594715867,
				"y": -3.1543749204,
				"z": -4.2654763246,
				"element": "H" 
			},
			{
				"x": 3.4275833179,
				"y": -1.0507302272,
				"z": -0.5694679467,
				"element": "H" 
			},
			{
				"x": 2.1310569058,
				"y": 1.2926385655,
				"z": -2.0536624232,
				"element": "H" 
			},
			{
				"x": 3.5263751152,
				"y": 2.4627656786,
				"z": -3.5568767982,
				"element": "H" 
			},
			{
				"x": 5.7528311367,
				"y": 3.2343540631,
				"z": -4.3054914848,
				"element": "H" 
			},
			{
				"x": 7.8105040362,
				"y": 2.3288573835,
				"z": -3.2359497749,
				"element": "H" 
			},
			{
				"x": 7.6080815131,
				"y": 0.6602438816,
				"z": -1.4018953675,
				"element": "H" 
			},
			{
				"x": 5.3925210158,
				"y": -0.090895941,
				"z": -0.6398064506,
				"element": "H" 
			},
			{
				"x": -0.1570458213,
				"y": 2.074612388,
				"z": -0.4107118664,
				"element": "H" 
			},
			{
				"x": 2.3154951667,
				"y": 3.7939571152,
				"z": 0.180283957,
				"element": "H" 
			},
			{
				"x": 0.5851165838,
				"y": 4.0044494897,
				"z": 0.5085470044,
				"element": "H" 
			},
			{
				"x": 1.7553396875,
				"y": 3.901721949,
				"z": 1.8536471257,
				"element": "H" 
			},
			{
				"x": -1.6554015554,
				"y": 1.2858764631,
				"z": 1.4850261768,
				"element": "H" 
			},
			{
				"x": -3.6080456996,
				"y": 0.1153445205,
				"z": -0.5629171682,
				"element": "H" 
			},
			{
				"x": -5.5553428703,
				"y": 1.3766984935,
				"z": -0.9767794086,
				"element": "H" 
			},
			{
				"x": -7.2706116584,
				"y": 3.0219897936,
				"z": -0.2962575931,
				"element": "H" 
			},
			{
				"x": -6.987035682,
				"y": 4.3206182078,
				"z": 1.8079144666,
				"element": "H" 
			},
			{
				"x": -4.9793562709,
				"y": 3.9406717355,
				"z": 3.2259257329,
				"element": "H" 
			},
			{
				"x": -3.280279516,
				"y": 2.2898380773,
				"z": 2.5619315663,
				"element": "H" 
			}
		],
		 "valence_orbital": [ 
			{
				"type": "occ",
				"energy": -0.24887,
				"method": "rhf"
			},
			{
				"type": "occ",
				"energy": -0.24093,
				"method": "rhf"
			},
			{
				"type": "occ",
				"energy": -0.23868,
				"method": "rhf"
			},
			{
				"type": "occ",
				"energy": -0.22547,
				"method": "rhf"
			},
			{
				"type": "occ",
				"energy": -0.20317,
				"method": "rhf"
			},
			{
				"type": "unocc",
				"energy": -0.06523,
				"method": "rhf"
			},
			{
				"type": "unocc",
				"energy": -0.04958,
				"method": "rhf"
			},
			{
				"type": "unocc",
				"energy": -0.01769,
				"method": "rhf"
			},
			{
				"type": "unocc",
				"energy": -0.01502,
				"method": "rhf"
			},
			{
				"type": "unocc",
				"energy": -0.00654,
				"method": "rhf"
			}
		],
		"cosmo_sigma_profile": { 
			"-0.025": 0.0,
			"-0.024": 0.0,
			"-0.023": 0.0,
			"-0.022": 0.0,
			"-0.021": 0.0,
			"-0.02": 0.0,
			"-0.019": 0.0,
			"-0.018": 0.0,
			"-0.017": 0.0,
			"-0.016": 0.0,
			"-0.015": 0.0,
			"-0.014": 0.949350901083,
			"-0.013": 2.53476350257,
			"-0.012": 2.21927956735,
			"-0.011": 3.1049123603,
			"-0.01": 3.10782108004,
			"-0.009": 3.9150446998,
			"-0.008": 5.1622447354,
			"-0.007": 8.58353539574,
			"-0.006": 27.9140141,
			"-0.005": 41.7271304576,
			"-0.004": 46.0480500505,
			"-0.003": 46.6370319516,
			"-0.002": 48.1796001296,
			"-0.001": 45.1994061288,
			"0.0": 35.3852930088,
			"0.001": 28.1762967201,
			"0.002": 29.086454517,
			"0.003": 27.9951922349,
			"0.004": 24.2905480441,
			"0.005": 26.421832312,
			"0.006": 14.1315701376,
			"0.007": 4.14440573695,
			"0.008": 4.37016774801,
			"0.009": 4.27639110565,
			"0.01": 5.44524636279,
			"0.011": 5.84503793646,
			"0.012": 7.17661609494,
			"0.013": 11.4565940257,
			"0.014": 10.4471716515,
			"0.015": 1.50645786704,
			"0.016": 0.0,
			"0.017": 0.0,
			"0.018": 0.0,
			"0.019": 0.0,
			"0.02": 0.0,
			"0.021": 0.0,
			"0.022": 0.0,
			"0.023": 0.0,
			"0.024": 0.0,
			"0.025": 0.0
		}
	}
}
