{
	 "smiles": "FC1=CC=C(NC(=O)CCl)C=C1", 
	 "Tm": 405.15, 
	 "num_atms": 19, 
	 "gaussian": { 
		 "optdone": 1, 
		 "sigma_profile": "yes", 
		 "theory": "DFT", 
		 "functional": "B3LYP", 
		 "basiset": "6-31G**", 
		 "properties": { 
			 "R2extent": 3088.1128, 
			 "electric_dipole_moment_norm": 3.09240901887, 
			 "electric_quadrupole_moment_norm": 11.7945267663, 
			 "total_energy": -999.079173061, 
			 "HOMO_LUMO_gap": 0.20242, 
			 "cosmo_polarized_energy": -12.07, 
			 "cosmo_cavitation_energy": 25.72, 
			 "cosmo_dispersion_energy": -18.61, 
			 "cosmo_repulsion_energy": 1.47, 
			 "cosmo_total_nonelectrostatic_energy": 8.58, 
			 "SMD_solvation_energy": 5.41 
		},
		"coords": [
			{
				"x": -3.1512564924,
				"y": 2.4655340457,
				"z": 2.2574447323,
				"element": "F" 
			},
			{
				"x": -2.1514710248,
				"y": 1.8312813784,
				"z": 1.6134441741,
				"element": "C" 
			},
			{
				"x": -2.2446958178,
				"y": 1.6376641071,
				"z": 0.2405703979,
				"element": "C" 
			},
			{
				"x": -1.2022345805,
				"y": 0.9953274719,
				"z": -0.4272864662,
				"element": "C" 
			},
			{
				"x": -0.0946819611,
				"y": 0.5171222388,
				"z": 0.2867114364,
				"element": "C" 
			},
			{
				"x": 0.9944319167,
				"y": -0.1277087426,
				"z": -0.3578467249,
				"element": "N" 
			},
			{
				"x": 1.0338540211,
				"y": -1.1664775079,
				"z": -1.262783856,
				"element": "C" 
			},
			{
				"x": 2.0977817598,
				"y": -1.5945462822,
				"z": -1.6798223542,
				"element": "O" 
			},
			{
				"x": -0.2879909802,
				"y": -1.7986246356,
				"z": -1.692041951,
				"element": "C" 
			},
			{
				"x": -0.8234319995,
				"y": -1.158750329,
				"z": -3.3033006057,
				"element": "Cl" 
			},
			{
				"x": -0.0259791034,
				"y": 0.7267191085,
				"z": 1.6722372614,
				"element": "C" 
			},
			{
				"x": -1.0493632709,
				"y": 1.3938131183,
				"z": 2.3407602068,
				"element": "C" 
			},
			{
				"x": -3.1112080763,
				"y": 2.0080472465,
				"z": -0.2960876212,
				"element": "H" 
			},
			{
				"x": -1.2435882804,
				"y": 0.8791911862,
				"z": -1.5045096044,
				"element": "H" 
			},
			{
				"x": 1.92600541,
				"y": 0.1397318342,
				"z": -0.0618650177,
				"element": "H" 
			},
			{
				"x": -0.1084273534,
				"y": -2.8636282715,
				"z": -1.8282734922,
				"element": "H" 
			},
			{
				"x": -1.1043916032,
				"y": -1.6292706701,
				"z": -0.9913431633,
				"element": "H" 
			},
			{
				"x": 0.8315651889,
				"y": 0.3573569371,
				"z": 2.2271090631,
				"element": "H" 
			},
			{
				"x": -1.0089177524,
				"y": 1.5652177664,
				"z": 3.4107835849,
				"element": "H" 
			}
		],
		 "valence_orbital": [ 
			{
				"type": "occ",
				"energy": -0.31127,
				"method": "rhf"
			},
			{
				"type": "occ",
				"energy": -0.29938,
				"method": "rhf"
			},
			{
				"type": "occ",
				"energy": -0.27859,
				"method": "rhf"
			},
			{
				"type": "occ",
				"energy": -0.26717,
				"method": "rhf"
			},
			{
				"type": "occ",
				"energy": -0.2393,
				"method": "rhf"
			},
			{
				"type": "unocc",
				"energy": -0.03688,
				"method": "rhf"
			},
			{
				"type": "unocc",
				"energy": -0.02944,
				"method": "rhf"
			},
			{
				"type": "unocc",
				"energy": -0.00911,
				"method": "rhf"
			},
			{
				"type": "unocc",
				"energy": 0.05391,
				"method": "rhf"
			},
			{
				"type": "unocc",
				"energy": 0.07501,
				"method": "rhf"
			}
		],
		"cosmo_sigma_profile": { 
			"-0.025": 0.0,
			"-0.024": 0.0,
			"-0.023": 0.0,
			"-0.022": 0.0,
			"-0.021": 0.0,
			"-0.02": 0.0,
			"-0.019": 0.0,
			"-0.018": 0.0,
			"-0.017": 0.0,
			"-0.016": 0.0,
			"-0.015": 0.608536435738,
			"-0.014": 1.03657992622,
			"-0.013": 1.19101504368,
			"-0.012": 0.892992006095,
			"-0.011": 0.990576226144,
			"-0.01": 1.27062940302,
			"-0.009": 1.99211560933,
			"-0.008": 6.07661692366,
			"-0.007": 11.826556328,
			"-0.006": 11.2225698539,
			"-0.005": 12.1456672449,
			"-0.004": 8.94641294498,
			"-0.003": 8.7764078616,
			"-0.002": 11.3543924825,
			"-0.001": 12.0674379652,
			"0.0": 15.306300832,
			"0.001": 17.4759840531,
			"0.002": 17.7115989692,
			"0.003": 18.137647148,
			"0.004": 16.7016076509,
			"0.005": 10.9078578267,
			"0.006": 4.50073837198,
			"0.007": 1.36556396622,
			"0.008": 0.904989304314,
			"0.009": 1.63249694965,
			"0.01": 1.73304214497,
			"0.011": 2.21260788052,
			"0.012": 3.82961687453,
			"0.013": 4.81750412414,
			"0.014": 0.564275302929,
			"0.015": 0.0,
			"0.016": 0.0,
			"0.017": 0.0,
			"0.018": 0.0,
			"0.019": 0.0,
			"0.02": 0.0,
			"0.021": 0.0,
			"0.022": 0.0,
			"0.023": 0.0,
			"0.024": 0.0,
			"0.025": 0.0
		}
	}
}
