{
	 "smiles": "CCCCCCC(C)CCCCCC", 
	 "Tm": 235.95, 
	 "num_atms": 44, 
	 "gaussian": { 
		 "optdone": 1, 
		 "sigma_profile": "yes", 
		 "theory": "DFT", 
		 "functional": "B3LYP", 
		 "basiset": "6-31G**", 
		 "properties": { 
			 "R2extent": 4457.6027, 
			 "electric_dipole_moment_norm": 0.125353978796, 
			 "electric_quadrupole_moment_norm": 0.469512672885, 
			 "total_energy": -551.61380943, 
			 "HOMO_LUMO_gap": 0.34724, 
			 "cosmo_polarized_energy": -1.04, 
			 "cosmo_cavitation_energy": 41.99, 
			 "cosmo_dispersion_energy": -26.74, 
			 "cosmo_repulsion_energy": 2.15, 
			 "cosmo_total_nonelectrostatic_energy": 17.4, 
			 "SMD_solvation_energy": 5.89 
		},
		"coords": [
			{
				"x": 0.6299309364,
				"y": 3.0951039724,
				"z": 0.5247436447,
				"element": "C" 
			},
			{
				"x": 0.5871263647,
				"y": 3.0333951399,
				"z": -1.0066542623,
				"element": "C" 
			},
			{
				"x": 1.8258079818,
				"y": 2.3852143597,
				"z": -1.6507144087,
				"element": "C" 
			},
			{
				"x": 2.071912998,
				"y": 0.907544188,
				"z": -1.2953287597,
				"element": "C" 
			},
			{
				"x": 0.9556227856,
				"y": -0.0395430325,
				"z": -1.7656293515,
				"element": "C" 
			},
			{
				"x": 1.2718325118,
				"y": -1.5491765795,
				"z": -1.733769939,
				"element": "C" 
			},
			{
				"x": 1.3448759336,
				"y": -2.2808722638,
				"z": -0.3681612105,
				"element": "C" 
			},
			{
				"x": 2.6301840324,
				"y": -1.9891785957,
				"z": 0.4253802011,
				"element": "C" 
			},
			{
				"x": 0.1014955133,
				"y": -2.0716147752,
				"z": 0.5209539654,
				"element": "C" 
			},
			{
				"x": -1.2238426374,
				"y": -2.5413020558,
				"z": -0.0974322297,
				"element": "C" 
			},
			{
				"x": -2.4154813376,
				"y": -2.528782037,
				"z": 0.8777000124,
				"element": "C" 
			},
			{
				"x": -2.8334193889,
				"y": -1.1490333982,
				"z": 1.4165259132,
				"element": "C" 
			},
			{
				"x": -3.3567810682,
				"y": -0.1750939564,
				"z": 0.3516066088,
				"element": "C" 
			},
			{
				"x": -3.8321528774,
				"y": 1.1565123817,
				"z": 0.942351927,
				"element": "C" 
			},
			{
				"x": 0.6454577027,
				"y": 2.0966175174,
				"z": 0.9744953717,
				"element": "H" 
			},
			{
				"x": 1.5225589427,
				"y": 3.6272646265,
				"z": 0.8743645141,
				"element": "H" 
			},
			{
				"x": -0.2455365642,
				"y": 3.6189651621,
				"z": 0.9227802154,
				"element": "H" 
			},
			{
				"x": -0.3190984599,
				"y": 2.5026234696,
				"z": -1.3252667343,
				"element": "H" 
			},
			{
				"x": 0.4885931295,
				"y": 4.0529719865,
				"z": -1.401019235,
				"element": "H" 
			},
			{
				"x": 2.7133336385,
				"y": 2.967509826,
				"z": -1.3664976775,
				"element": "H" 
			},
			{
				"x": 1.7412235528,
				"y": 2.4746549711,
				"z": -2.7427071436,
				"element": "H" 
			},
			{
				"x": 3.0187933924,
				"y": 0.5953807348,
				"z": -1.7565804356,
				"element": "H" 
			},
			{
				"x": 2.2225407778,
				"y": 0.8135787,
				"z": -0.214391486,
				"element": "H" 
			},
			{
				"x": 0.7156970543,
				"y": 0.2172241726,
				"z": -2.8074398542,
				"element": "H" 
			},
			{
				"x": 0.0368284764,
				"y": 0.1570941784,
				"z": -1.1990441871,
				"element": "H" 
			},
			{
				"x": 0.5051704512,
				"y": -2.0527238948,
				"z": -2.3360424252,
				"element": "H" 
			},
			{
				"x": 2.219043022,
				"y": -1.7216166038,
				"z": -2.2641871736,
				"element": "H" 
			},
			{
				"x": 1.375438259,
				"y": -3.3524158521,
				"z": -0.620137051,
				"element": "H" 
			},
			{
				"x": 2.7267841315,
				"y": -2.6820638611,
				"z": 1.2689639651,
				"element": "H" 
			},
			{
				"x": 3.5211658323,
				"y": -2.1027067588,
				"z": -0.2019023809,
				"element": "H" 
			},
			{
				"x": 2.6411627695,
				"y": -0.9751901537,
				"z": 0.8366578338,
				"element": "H" 
			},
			{
				"x": 0.0323246098,
				"y": -1.0126291451,
				"z": 0.8034592902,
				"element": "H" 
			},
			{
				"x": 0.2599635914,
				"y": -2.6179118319,
				"z": 1.4618625686,
				"element": "H" 
			},
			{
				"x": -1.4634379319,
				"y": -1.9364049251,
				"z": -0.9804462464,
				"element": "H" 
			},
			{
				"x": -1.0940713073,
				"y": -3.5681863032,
				"z": -0.4666154394,
				"element": "H" 
			},
			{
				"x": -2.1769659887,
				"y": -3.1804562305,
				"z": 1.7295409136,
				"element": "H" 
			},
			{
				"x": -3.2813293565,
				"y": -2.9871831576,
				"z": 0.3801796504,
				"element": "H" 
			},
			{
				"x": -3.6183168155,
				"y": -1.2967119642,
				"z": 2.171103267,
				"element": "H" 
			},
			{
				"x": -1.99338278,
				"y": -0.684262478,
				"z": 1.9502564516,
				"element": "H" 
			},
			{
				"x": -2.574964143,
				"y": 0.0210844283,
				"z": -0.3933362208,
				"element": "H" 
			},
			{
				"x": -4.1832968947,
				"y": -0.6499355608,
				"z": -0.1952951286,
				"element": "H" 
			},
			{
				"x": -3.0173601099,
				"y": 1.670907349,
				"z": 1.4649761546,
				"element": "H" 
			},
			{
				"x": -4.2053160723,
				"y": 1.8309480993,
				"z": 0.164536171,
				"element": "H" 
			},
			{
				"x": -4.6412146577,
				"y": 1.0028001518,
				"z": 1.6657603409,
				"element": "H" 
			}
		],
		 "valence_orbital": [ 
			{
				"type": "occ",
				"energy": -0.30612,
				"method": "rhf"
			},
			{
				"type": "occ",
				"energy": -0.30468,
				"method": "rhf"
			},
			{
				"type": "occ",
				"energy": -0.29712,
				"method": "rhf"
			},
			{
				"type": "occ",
				"energy": -0.29546,
				"method": "rhf"
			},
			{
				"type": "occ",
				"energy": -0.29285,
				"method": "rhf"
			},
			{
				"type": "unocc",
				"energy": 0.05439,
				"method": "rhf"
			},
			{
				"type": "unocc",
				"energy": 0.08837,
				"method": "rhf"
			},
			{
				"type": "unocc",
				"energy": 0.09069,
				"method": "rhf"
			},
			{
				"type": "unocc",
				"energy": 0.1034,
				"method": "rhf"
			},
			{
				"type": "unocc",
				"energy": 0.10776,
				"method": "rhf"
			}
		],
		"cosmo_sigma_profile": { 
			"-0.025": 0.0,
			"-0.024": 0.0,
			"-0.023": 0.0,
			"-0.022": 0.0,
			"-0.021": 0.0,
			"-0.02": 0.0,
			"-0.019": 0.0,
			"-0.018": 0.0,
			"-0.017": 0.0,
			"-0.016": 0.0,
			"-0.015": 0.0,
			"-0.014": 0.0,
			"-0.013": 0.0,
			"-0.012": 0.0,
			"-0.011": 0.0,
			"-0.01": 0.0,
			"-0.009": 0.0,
			"-0.008": 0.0,
			"-0.007": 0.0,
			"-0.006": 0.0,
			"-0.005": 0.0,
			"-0.004": 0.000864632486236,
			"-0.003": 3.50810396969,
			"-0.002": 35.5312950519,
			"-0.001": 81.5639849057,
			"0.0": 81.2487110298,
			"0.001": 76.7189740856,
			"0.002": 39.3948975895,
			"0.003": 2.08813980531,
			"0.004": 0.0,
			"0.005": 0.0,
			"0.006": 0.0,
			"0.007": 0.0,
			"0.008": 0.0,
			"0.009": 0.0,
			"0.01": 0.0,
			"0.011": 0.0,
			"0.012": 0.0,
			"0.013": 0.0,
			"0.014": 0.0,
			"0.015": 0.0,
			"0.016": 0.0,
			"0.017": 0.0,
			"0.018": 0.0,
			"0.019": 0.0,
			"0.02": 0.0,
			"0.021": 0.0,
			"0.022": 0.0,
			"0.023": 0.0,
			"0.024": 0.0,
			"0.025": 0.0
		}
	}
}
