{
	 "smiles": "CC(O)CN1C(=O)C=CC1=O", 
	 "Tm": 348.15, 
	 "num_atms": 20, 
	 "gaussian": { 
		 "optdone": 1, 
		 "sigma_profile": "yes", 
		 "theory": "DFT", 
		 "functional": "B3LYP", 
		 "basiset": "6-31G**", 
		 "properties": { 
			 "R2extent": 1728.7961, 
			 "electric_dipole_moment_norm": 3.1954997872, 
			 "electric_quadrupole_moment_norm": 10.9071072279, 
			 "total_energy": -552.593320938, 
			 "HOMO_LUMO_gap": 0.14693, 
			 "cosmo_polarized_energy": -11.79, 
			 "cosmo_cavitation_energy": 23.58, 
			 "cosmo_dispersion_energy": -17.03, 
			 "cosmo_repulsion_energy": 1.37, 
			 "cosmo_total_nonelectrostatic_energy": 7.92, 
			 "SMD_solvation_energy": 5.51 
		},
		"coords": [
			{
				"x": -0.1555137746,
				"y": -2.5772636481,
				"z": -0.7975052545,
				"element": "C" 
			},
			{
				"x": 0.7196515027,
				"y": -1.6233761728,
				"z": -1.6166818222,
				"element": "C" 
			},
			{
				"x": -0.0115839648,
				"y": -0.9666795374,
				"z": -2.6354723445,
				"element": "O" 
			},
			{
				"x": 1.527301383,
				"y": -0.6375779731,
				"z": -0.7465034869,
				"element": "C" 
			},
			{
				"x": 0.7789889551,
				"y": 0.0282123443,
				"z": 0.3258057285,
				"element": "N" 
			},
			{
				"x": 1.1951920612,
				"y": 0.0176045828,
				"z": 1.6700957202,
				"element": "C" 
			},
			{
				"x": 2.1506172192,
				"y": -0.5871227898,
				"z": 2.1073865402,
				"element": "O" 
			},
			{
				"x": 0.2314955782,
				"y": 0.8946725478,
				"z": 2.4165840477,
				"element": "C" 
			},
			{
				"x": -0.6596178967,
				"y": 1.3791335671,
				"z": 1.547294281,
				"element": "C" 
			},
			{
				"x": -0.3434731014,
				"y": 0.8350134197,
				"z": 0.1842825458,
				"element": "C" 
			},
			{
				"x": -0.9630372133,
				"y": 1.0393737829,
				"z": -0.8480922924,
				"element": "O" 
			},
			{
				"x": -0.6299572669,
				"y": -3.2987991041,
				"z": -1.4671490432,
				"element": "H" 
			},
			{
				"x": -0.9499728742,
				"y": -2.03409012,
				"z": -0.2751753137,
				"element": "H" 
			},
			{
				"x": 0.4319172138,
				"y": -3.1245347329,
				"z": -0.0516791792,
				"element": "H" 
			},
			{
				"x": 1.475242456,
				"y": -2.217349537,
				"z": -2.1478765086,
				"element": "H" 
			},
			{
				"x": -0.5376231116,
				"y": -0.264482718,
				"z": -2.2155196673,
				"element": "H" 
			},
			{
				"x": 1.964381093,
				"y": 0.1212690267,
				"z": -1.4041957124,
				"element": "H" 
			},
			{
				"x": 2.3390885615,
				"y": -1.160016462,
				"z": -0.2339534989,
				"element": "H" 
			},
			{
				"x": 0.3131170988,
				"y": 1.0559489201,
				"z": 3.4832754232,
				"element": "H" 
			},
			{
				"x": -1.5012139189,
				"y": 2.0379646038,
				"z": 1.7148798371,
				"element": "H" 
			}
		],
		 "valence_orbital": [ 
			{
				"type": "occ",
				"energy": -0.31967,
				"method": "rhf"
			},
			{
				"type": "occ",
				"energy": -0.30761,
				"method": "rhf"
			},
			{
				"type": "occ",
				"energy": -0.28757,
				"method": "rhf"
			},
			{
				"type": "occ",
				"energy": -0.28115,
				"method": "rhf"
			},
			{
				"type": "occ",
				"energy": -0.25593,
				"method": "rhf"
			},
			{
				"type": "unocc",
				"energy": -0.109,
				"method": "rhf"
			},
			{
				"type": "unocc",
				"energy": 0.03898,
				"method": "rhf"
			},
			{
				"type": "unocc",
				"energy": 0.05338,
				"method": "rhf"
			},
			{
				"type": "unocc",
				"energy": 0.09282,
				"method": "rhf"
			},
			{
				"type": "unocc",
				"energy": 0.09655,
				"method": "rhf"
			}
		],
		"cosmo_sigma_profile": { 
			"-0.025": 0.0,
			"-0.024": 0.0,
			"-0.023": 0.0,
			"-0.022": 0.0,
			"-0.021": 0.0,
			"-0.02": 0.0,
			"-0.019": 0.0,
			"-0.018": 0.0,
			"-0.017": 0.0,
			"-0.016": 0.0,
			"-0.015": 0.0,
			"-0.014": 0.0,
			"-0.013": 0.0,
			"-0.012": 0.0,
			"-0.011": 0.01359879599,
			"-0.01": 2.44927346716,
			"-0.009": 3.41761131647,
			"-0.008": 3.0273279341,
			"-0.007": 3.86488778117,
			"-0.006": 8.46925892246,
			"-0.005": 15.4995918922,
			"-0.004": 20.6517471477,
			"-0.003": 21.6876180905,
			"-0.002": 16.5650551058,
			"-0.001": 14.3572511612,
			"0.0": 13.1530174178,
			"0.001": 10.0097913472,
			"0.002": 4.41872173444,
			"0.003": 4.32331089627,
			"0.004": 5.13949889786,
			"0.005": 2.94882547537,
			"0.006": 3.2126004922,
			"0.007": 4.39507299046,
			"0.008": 4.50169983436,
			"0.009": 5.5617069434,
			"0.01": 6.78432855155,
			"0.011": 5.46203551701,
			"0.012": 1.52903858486,
			"0.013": 1.65520598824,
			"0.014": 1.62204257171,
			"0.015": 2.17965176488,
			"0.016": 0.104229973775,
			"0.017": 0.0,
			"0.018": 0.0,
			"0.019": 0.0,
			"0.02": 0.0,
			"0.021": 0.0,
			"0.022": 0.0,
			"0.023": 0.0,
			"0.024": 0.0,
			"0.025": 0.0
		}
	}
}
