{
	 "smiles": "NC1=C(C=CC(F)=C1)N1C(=O)C2CCCCC2C1=O", 
	 "Tm": 448.15, 
	 "num_atms": 34, 
	 "gaussian": { 
		 "optdone": 1, 
		 "sigma_profile": "yes", 
		 "theory": "DFT", 
		 "functional": "B3LYP", 
		 "basiset": "6-31G**", 
		 "properties": { 
			 "R2extent": 6140.2919, 
			 "electric_dipole_moment_norm": 3.83369816496, 
			 "electric_quadrupole_moment_norm": 12.961581667, 
			 "total_energy": -902.361271209, 
			 "HOMO_LUMO_gap": 0.18648, 
			 "cosmo_polarized_energy": -14.84, 
			 "cosmo_cavitation_energy": 36.04, 
			 "cosmo_dispersion_energy": -25.76, 
			 "cosmo_repulsion_energy": 1.95, 
			 "cosmo_total_nonelectrostatic_energy": 12.23, 
			 "SMD_solvation_energy": 6.68 
		},
		"coords": [
			{
				"x": 2.5592928574,
				"y": 1.1069886149,
				"z": 1.5323804132,
				"element": "N" 
			},
			{
				"x": 2.7607473872,
				"y": 0.1959786199,
				"z": 0.4989047839,
				"element": "C" 
			},
			{
				"x": 1.7145062432,
				"y": -0.1647656829,
				"z": -0.3840605677,
				"element": "C" 
			},
			{
				"x": 1.9526058903,
				"y": -1.047816895,
				"z": -1.4403655839,
				"element": "C" 
			},
			{
				"x": 3.216179338,
				"y": -1.5831880328,
				"z": -1.6689750937,
				"element": "C" 
			},
			{
				"x": 4.2381648283,
				"y": -1.2101028312,
				"z": -0.8035866722,
				"element": "C" 
			},
			{
				"x": 5.4754475123,
				"y": -1.7128129448,
				"z": -0.9956798965,
				"element": "F" 
			},
			{
				"x": 4.0337691611,
				"y": -0.353167995,
				"z": 0.2653321526,
				"element": "C" 
			},
			{
				"x": 0.4084551502,
				"y": 0.4193954101,
				"z": -0.2691995442,
				"element": "N" 
			},
			{
				"x": -0.3816140697,
				"y": 0.4119070928,
				"z": 0.8807722186,
				"element": "C" 
			},
			{
				"x": -0.0360104264,
				"y": -0.037551419,
				"z": 1.9615301141,
				"element": "O" 
			},
			{
				"x": -1.716564046,
				"y": 1.0729056144,
				"z": 0.5710746252,
				"element": "C" 
			},
			{
				"x": -2.0976319507,
				"y": 2.1585556443,
				"z": 1.5964967584,
				"element": "C" 
			},
			{
				"x": -3.2584669385,
				"y": 3.003361722,
				"z": 1.0504836888,
				"element": "C" 
			},
			{
				"x": -2.9079386437,
				"y": 3.6917544753,
				"z": -0.301683683,
				"element": "C" 
			},
			{
				"x": -1.6148690878,
				"y": 3.1459926401,
				"z": -0.936347258,
				"element": "C" 
			},
			{
				"x": -1.5696989851,
				"y": 1.6068078604,
				"z": -0.8720199036,
				"element": "C" 
			},
			{
				"x": -0.2271202071,
				"y": 1.0742370881,
				"z": -1.3540913012,
				"element": "C" 
			},
			{
				"x": 0.2435042645,
				"y": 1.1910862884,
				"z": -2.4624103901,
				"element": "O" 
			},
			{
				"x": 1.7144549345,
				"y": 0.9185902734,
				"z": 2.0649628453,
				"element": "H" 
			},
			{
				"x": 3.3631434907,
				"y": 1.1993947002,
				"z": 2.1399727393,
				"element": "H" 
			},
			{
				"x": 1.1344076034,
				"y": -1.300117435,
				"z": -2.1043441463,
				"element": "H" 
			},
			{
				"x": 3.4119575606,
				"y": -2.2630857556,
				"z": -2.4891730754,
				"element": "H" 
			},
			{
				"x": 4.8647619293,
				"y": -0.1145777541,
				"z": 0.9213106861,
				"element": "H" 
			},
			{
				"x": -2.4759061327,
				"y": 0.2813460193,
				"z": 0.6098266993,
				"element": "H" 
			},
			{
				"x": -2.3645765988,
				"y": 1.6849591424,
				"z": 2.5451987833,
				"element": "H" 
			},
			{
				"x": -1.2309794602,
				"y": 2.7975898695,
				"z": 1.8040831738,
				"element": "H" 
			},
			{
				"x": -4.1295290244,
				"y": 2.3492388726,
				"z": 0.9184936945,
				"element": "H" 
			},
			{
				"x": -3.5523462495,
				"y": 3.7514072202,
				"z": 1.7939012771,
				"element": "H" 
			},
			{
				"x": -3.7382595841,
				"y": 3.5617292318,
				"z": -1.0054081438,
				"element": "H" 
			},
			{
				"x": -2.7958341598,
				"y": 4.772072515,
				"z": -0.1603869264,
				"element": "H" 
			},
			{
				"x": -1.5213127659,
				"y": 3.4691942321,
				"z": -1.976896699,
				"element": "H" 
			},
			{
				"x": -0.7419909348,
				"y": 3.5489795941,
				"z": -0.4085918122,
				"element": "H" 
			},
			{
				"x": -2.3434488858,
				"y": 1.2040140039,
				"z": -1.5355039559,
				"element": "H" 
			}
		],
		 "valence_orbital": [ 
			{
				"type": "occ",
				"energy": -0.2956,
				"method": "rhf"
			},
			{
				"type": "occ",
				"energy": -0.28386,
				"method": "rhf"
			},
			{
				"type": "occ",
				"energy": -0.26133,
				"method": "rhf"
			},
			{
				"type": "occ",
				"energy": -0.24115,
				"method": "rhf"
			},
			{
				"type": "occ",
				"energy": -0.21182,
				"method": "rhf"
			},
			{
				"type": "unocc",
				"energy": -0.02534,
				"method": "rhf"
			},
			{
				"type": "unocc",
				"energy": -0.01025,
				"method": "rhf"
			},
			{
				"type": "unocc",
				"energy": 0.00679,
				"method": "rhf"
			},
			{
				"type": "unocc",
				"energy": 0.02738,
				"method": "rhf"
			},
			{
				"type": "unocc",
				"energy": 0.07005,
				"method": "rhf"
			}
		],
		"cosmo_sigma_profile": { 
			"-0.025": 0.0,
			"-0.024": 0.0,
			"-0.023": 0.0,
			"-0.022": 0.0,
			"-0.021": 0.0,
			"-0.02": 0.0,
			"-0.019": 0.0,
			"-0.018": 0.0,
			"-0.017": 0.0,
			"-0.016": 0.0,
			"-0.015": 0.0,
			"-0.014": 0.0,
			"-0.013": 0.611975132306,
			"-0.012": 1.60139666125,
			"-0.011": 1.63696956737,
			"-0.01": 2.09883871642,
			"-0.009": 1.91043921194,
			"-0.008": 4.06641518768,
			"-0.007": 9.36314489821,
			"-0.006": 16.8435235342,
			"-0.005": 13.7076457601,
			"-0.004": 18.4663581137,
			"-0.003": 26.0041601056,
			"-0.002": 27.5842030741,
			"-0.001": 24.1554875793,
			"0.0": 19.9823187396,
			"0.001": 17.4040898658,
			"0.002": 13.7409738662,
			"0.003": 17.5977363444,
			"0.004": 20.2846075542,
			"0.005": 10.0474887954,
			"0.006": 4.0471042136,
			"0.007": 4.5855100884,
			"0.008": 3.21952317207,
			"0.009": 4.53894898291,
			"0.01": 5.35574973229,
			"0.011": 8.04544163953,
			"0.012": 5.59624480401,
			"0.013": 1.07016879845,
			"0.014": 0.452932511886,
			"0.015": 0.0338286569747,
			"0.016": 0.0,
			"0.017": 0.0,
			"0.018": 0.0,
			"0.019": 0.0,
			"0.02": 0.0,
			"0.021": 0.0,
			"0.022": 0.0,
			"0.023": 0.0,
			"0.024": 0.0,
			"0.025": 0.0
		}
	}
}
