{
	 "smiles": "OC(=O)C1=CC=C(CBr)C=C1", 
	 "Tm": 501.15, 
	 "num_atms": 18, 
	 "gaussian": { 
		 "optdone": 1, 
		 "sigma_profile": "yes", 
		 "theory": "DFT", 
		 "functional": "B3LYP", 
		 "basiset": "6-31G**", 
		 "properties": { 
			 "R2extent": 4357.7328, 
			 "electric_dipole_moment_norm": 2.20315955391, 
			 "electric_quadrupole_moment_norm": 10.46978543, 
			 "total_energy": -3030.94698855, 
			 "HOMO_LUMO_gap": 0.19377, 
			 "cosmo_polarized_energy": -11.42, 
			 "cosmo_cavitation_energy": 25.19, 
			 "cosmo_dispersion_energy": -18.7, 
			 "cosmo_repulsion_energy": 1.51, 
			 "cosmo_total_nonelectrostatic_energy": 8.0, 
			 "SMD_solvation_energy": 4.32 
		},
		"coords": [
			{
				"x": -2.932353165,
				"y": -0.2746023718,
				"z": 1.2773747539,
				"element": "O" 
			},
			{
				"x": -1.8711076888,
				"y": -0.4912287378,
				"z": 2.0940644788,
				"element": "C" 
			},
			{
				"x": -1.9876838996,
				"y": -0.5558785793,
				"z": 3.3018085438,
				"element": "O" 
			},
			{
				"x": -0.588318379,
				"y": -0.6360325775,
				"z": 1.3556598228,
				"element": "C" 
			},
			{
				"x": 0.5769937166,
				"y": -0.8607690893,
				"z": 2.1009943017,
				"element": "C" 
			},
			{
				"x": 1.7996069256,
				"y": -1.0062062663,
				"z": 1.4560795775,
				"element": "C" 
			},
			{
				"x": 1.880993557,
				"y": -0.9323187536,
				"z": 0.0573415427,
				"element": "C" 
			},
			{
				"x": 3.1936148417,
				"y": -1.1075217021,
				"z": -0.6360126788,
				"element": "C" 
			},
			{
				"x": 4.1463483078,
				"y": 0.6368931342,
				"z": -0.889837136,
				"element": "Br" 
			},
			{
				"x": 0.7111227876,
				"y": -0.704834818,
				"z": -0.6818296551,
				"element": "C" 
			},
			{
				"x": -0.515760303,
				"y": -0.5578189711,
				"z": -0.0420601009,
				"element": "C" 
			},
			{
				"x": -3.7035784116,
				"y": -0.1953556952,
				"z": 1.8624139678,
				"element": "H" 
			},
			{
				"x": 0.4996344251,
				"y": -0.9194579995,
				"z": 3.1812929983,
				"element": "H" 
			},
			{
				"x": 2.7017111023,
				"y": -1.1763698259,
				"z": 2.0373341587,
				"element": "H" 
			},
			{
				"x": 3.0870677384,
				"y": -1.5054396528,
				"z": -1.6434792255,
				"element": "H" 
			},
			{
				"x": 3.8923092092,
				"y": -1.7160236055,
				"z": -0.0648784539,
				"element": "H" 
			},
			{
				"x": 0.7662059812,
				"y": -0.6401451601,
				"z": -1.7650744044,
				"element": "H" 
			},
			{
				"x": -1.4180067455,
				"y": -0.3851893283,
				"z": -0.6173924913,
				"element": "H" 
			}
		],
		 "valence_orbital": [ 
			{
				"type": "occ",
				"energy": -0.28204,
				"method": "rhf"
			},
			{
				"type": "occ",
				"energy": -0.281,
				"method": "rhf"
			},
			{
				"type": "occ",
				"energy": -0.27753,
				"method": "rhf"
			},
			{
				"type": "occ",
				"energy": -0.26819,
				"method": "rhf"
			},
			{
				"type": "occ",
				"energy": -0.26093,
				"method": "rhf"
			},
			{
				"type": "unocc",
				"energy": -0.06716,
				"method": "rhf"
			},
			{
				"type": "unocc",
				"energy": -0.01901,
				"method": "rhf"
			},
			{
				"type": "unocc",
				"energy": -0.00284,
				"method": "rhf"
			},
			{
				"type": "unocc",
				"energy": 0.05717,
				"method": "rhf"
			},
			{
				"type": "unocc",
				"energy": 0.07273,
				"method": "rhf"
			}
		],
		"cosmo_sigma_profile": { 
			"-0.025": 0.0,
			"-0.024": 0.0,
			"-0.023": 0.0,
			"-0.022": 0.0,
			"-0.021": 0.0,
			"-0.02": 0.0,
			"-0.019": 0.0994373882609,
			"-0.018": 0.607911934599,
			"-0.017": 1.16333830218,
			"-0.016": 0.757730849255,
			"-0.015": 0.688492288294,
			"-0.014": 0.826170549371,
			"-0.013": 0.743704389962,
			"-0.012": 0.547368411572,
			"-0.011": 0.654085226231,
			"-0.01": 1.05433168187,
			"-0.009": 0.278988907599,
			"-0.008": 6.01948975407,
			"-0.007": 10.0416146491,
			"-0.006": 11.1488232514,
			"-0.005": 12.3493458375,
			"-0.004": 9.91796876644,
			"-0.003": 9.4927855812,
			"-0.002": 11.139122493,
			"-0.001": 12.1455747557,
			"0.0": 12.5375813582,
			"0.001": 14.8848594776,
			"0.002": 16.2299027406,
			"0.003": 18.4275892566,
			"0.004": 10.5397450638,
			"0.005": 10.2545693162,
			"0.006": 13.6963372494,
			"0.007": 5.22141572468,
			"0.008": 1.49816770103,
			"0.009": 2.39284475233,
			"0.01": 1.67623551115,
			"0.011": 3.77995820883,
			"0.012": 3.6337885241,
			"0.013": 0.0633427708752,
			"0.014": 0.0,
			"0.015": 0.0,
			"0.016": 0.0,
			"0.017": 0.0,
			"0.018": 0.0,
			"0.019": 0.0,
			"0.02": 0.0,
			"0.021": 0.0,
			"0.022": 0.0,
			"0.023": 0.0,
			"0.024": 0.0,
			"0.025": 0.0
		}
	}
}
