{
	 "smiles": "CCOC(=O)C1=CC(N)=C(NC)C=C1", 
	 "Tm": 360.65, 
	 "num_atms": 28, 
	 "gaussian": { 
		 "optdone": 1, 
		 "sigma_profile": "yes", 
		 "theory": "DFT", 
		 "functional": "B3LYP", 
		 "basiset": "6-31G**", 
		 "properties": { 
			 "R2extent": 4166.6361, 
			 "electric_dipole_moment_norm": 2.59533426171, 
			 "electric_quadrupole_moment_norm": 11.1589544931, 
			 "total_energy": -649.474343088, 
			 "HOMO_LUMO_gap": 0.16766, 
			 "cosmo_polarized_energy": -12.58, 
			 "cosmo_cavitation_energy": 31.29, 
			 "cosmo_dispersion_energy": -22.82, 
			 "cosmo_repulsion_energy": 1.82, 
			 "cosmo_total_nonelectrostatic_energy": 10.3, 
			 "SMD_solvation_energy": 5.92 
		},
		"coords": [
			{
				"x": 0.3131873291,
				"y": 1.2056648705,
				"z": -4.9182456975,
				"element": "C" 
			},
			{
				"x": -0.3036443974,
				"y": 2.2521705568,
				"z": -4.0014436525,
				"element": "C" 
			},
			{
				"x": 0.075624242,
				"y": 2.0367560862,
				"z": -2.6243956047,
				"element": "O" 
			},
			{
				"x": -0.6785938071,
				"y": 1.155141667,
				"z": -1.921925234,
				"element": "C" 
			},
			{
				"x": -1.6347740219,
				"y": 0.5686755861,
				"z": -2.3976659265,
				"element": "O" 
			},
			{
				"x": -0.2082467701,
				"y": 0.9972728466,
				"z": -0.5208395676,
				"element": "C" 
			},
			{
				"x": -0.9233747448,
				"y": 0.1210918112,
				"z": 0.3064516401,
				"element": "C" 
			},
			{
				"x": -0.5561142285,
				"y": -0.0769870773,
				"z": 1.6376569172,
				"element": "C" 
			},
			{
				"x": -1.2647022236,
				"y": -0.9387224955,
				"z": 2.4824032002,
				"element": "N" 
			},
			{
				"x": 0.5822557423,
				"y": 0.6022850603,
				"z": 2.1444697181,
				"element": "C" 
			},
			{
				"x": 0.9401928943,
				"y": 0.4042288904,
				"z": 3.5026610124,
				"element": "N" 
			},
			{
				"x": 1.5465655488,
				"y": -0.8974476021,
				"z": 3.832255355,
				"element": "C" 
			},
			{
				"x": 1.2773237035,
				"y": 1.4855201777,
				"z": 1.3114824506,
				"element": "C" 
			},
			{
				"x": 0.8913768604,
				"y": 1.6973958063,
				"z": -0.010047819,
				"element": "C" 
			},
			{
				"x": 1.4019392422,
				"y": 1.1872614104,
				"z": -4.8116764921,
				"element": "H" 
			},
			{
				"x": 0.0733068627,
				"y": 1.4363954174,
				"z": -5.961757844,
				"element": "H" 
			},
			{
				"x": -0.0823377842,
				"y": 0.2140109362,
				"z": -4.6860946235,
				"element": "H" 
			},
			{
				"x": -1.3938677155,
				"y": 2.2424763748,
				"z": -4.0736846781,
				"element": "H" 
			},
			{
				"x": 0.0670441596,
				"y": 3.254085557,
				"z": -4.2327327736,
				"element": "H" 
			},
			{
				"x": -1.7899336461,
				"y": -0.3866580683,
				"z": -0.1063875143,
				"element": "H" 
			},
			{
				"x": -1.2375455341,
				"y": -0.6295568492,
				"z": 3.4487599286,
				"element": "H" 
			},
			{
				"x": -2.2097156979,
				"y": -1.1270677982,
				"z": 2.1736371438,
				"element": "H" 
			},
			{
				"x": 1.5485277603,
				"y": 1.1546420098,
				"z": 3.8137966298,
				"element": "H" 
			},
			{
				"x": 0.8556421774,
				"y": -1.6991586623,
				"z": 3.5633324069,
				"element": "H" 
			},
			{
				"x": 2.4973365272,
				"y": -1.0762152612,
				"z": 3.3080184337,
				"element": "H" 
			},
			{
				"x": 1.7257737293,
				"y": -0.9423953114,
				"z": 4.910464709,
				"element": "H" 
			},
			{
				"x": 2.1429289768,
				"y": 2.0087004884,
				"z": 1.7122035902,
				"element": "H" 
			},
			{
				"x": 1.4413248152,
				"y": 2.3820335726,
				"z": -0.6438957083,
				"element": "H" 
			}
		],
		 "valence_orbital": [ 
			{
				"type": "occ",
				"energy": -0.2875,
				"method": "rhf"
			},
			{
				"type": "occ",
				"energy": -0.27484,
				"method": "rhf"
			},
			{
				"type": "occ",
				"energy": -0.26128,
				"method": "rhf"
			},
			{
				"type": "occ",
				"energy": -0.22713,
				"method": "rhf"
			},
			{
				"type": "occ",
				"energy": -0.19748,
				"method": "rhf"
			},
			{
				"type": "unocc",
				"energy": -0.02982,
				"method": "rhf"
			},
			{
				"type": "unocc",
				"energy": 0.01237,
				"method": "rhf"
			},
			{
				"type": "unocc",
				"energy": 0.07275,
				"method": "rhf"
			},
			{
				"type": "unocc",
				"energy": 0.08175,
				"method": "rhf"
			},
			{
				"type": "unocc",
				"energy": 0.10028,
				"method": "rhf"
			}
		],
		"cosmo_sigma_profile": { 
			"-0.025": 0.0,
			"-0.024": 0.0,
			"-0.023": 0.0,
			"-0.022": 0.0,
			"-0.021": 0.0,
			"-0.02": 0.0,
			"-0.019": 0.0,
			"-0.018": 0.0,
			"-0.017": 0.0,
			"-0.016": 0.0,
			"-0.015": 0.0,
			"-0.014": 0.0,
			"-0.013": 0.0774067600319,
			"-0.012": 1.75601937137,
			"-0.011": 3.17722796364,
			"-0.01": 3.35697757658,
			"-0.009": 3.796973405,
			"-0.008": 5.1496136342,
			"-0.007": 3.78486738158,
			"-0.006": 6.44079719839,
			"-0.005": 9.54513698046,
			"-0.004": 17.1764915893,
			"-0.003": 21.9906485429,
			"-0.002": 23.4047009819,
			"-0.001": 24.366291297,
			"0.0": 22.5711313873,
			"0.001": 13.646780035,
			"0.002": 11.3820785198,
			"0.003": 14.7414795921,
			"0.004": 15.1153001884,
			"0.005": 14.9366637463,
			"0.006": 7.64164024243,
			"0.007": 4.10807111192,
			"0.008": 3.45050739317,
			"0.009": 1.73042574074,
			"0.01": 2.66857460782,
			"0.011": 3.77888091995,
			"0.012": 4.52380099498,
			"0.013": 2.15619586639,
			"0.014": 0.0249842281192,
			"0.015": 0.0,
			"0.016": 0.0,
			"0.017": 0.0,
			"0.018": 0.0,
			"0.019": 0.0,
			"0.02": 0.0,
			"0.021": 0.0,
			"0.022": 0.0,
			"0.023": 0.0,
			"0.024": 0.0,
			"0.025": 0.0
		}
	}
}
