{
	 "smiles": "NS(=O)(=O)N1CCC2=C1C=CC=C2", 
	 "Tm": 423.15, 
	 "num_atms": 23, 
	 "gaussian": { 
		 "optdone": 1, 
		 "sigma_profile": "yes", 
		 "theory": "DFT", 
		 "functional": "B3LYP", 
		 "basiset": "6-31G**", 
		 "properties": { 
			 "R2extent": 3262.6978, 
			 "electric_dipole_moment_norm": 3.90529375336, 
			 "electric_quadrupole_moment_norm": 16.124156003, 
			 "total_energy": -968.945389483, 
			 "HOMO_LUMO_gap": 0.20964, 
			 "cosmo_polarized_energy": -14.59, 
			 "cosmo_cavitation_energy": 26.97, 
			 "cosmo_dispersion_energy": -20.72, 
			 "cosmo_repulsion_energy": 1.59, 
			 "cosmo_total_nonelectrostatic_energy": 7.83, 
			 "SMD_solvation_energy": 3.05 
		},
		"coords": [
			{
				"x": 1.9012262641,
				"y": -0.9814174642,
				"z": -3.0267188699,
				"element": "N" 
			},
			{
				"x": 2.4915551886,
				"y": -0.4438869426,
				"z": -1.5259938681,
				"element": "S" 
			},
			{
				"x": 2.3588688593,
				"y": -1.5164702663,
				"z": -0.544653186,
				"element": "O" 
			},
			{
				"x": 3.7642161549,
				"y": 0.2025028075,
				"z": -1.8205198255,
				"element": "O" 
			},
			{
				"x": 1.4372641896,
				"y": 0.7763170632,
				"z": -1.0749505954,
				"element": "N" 
			},
			{
				"x": 1.4726954982,
				"y": 2.0107900005,
				"z": -1.9141106932,
				"element": "C" 
			},
			{
				"x": 0.1970423053,
				"y": 2.7705999481,
				"z": -1.4980218914,
				"element": "C" 
			},
			{
				"x": -0.689643278,
				"y": 1.6718291968,
				"z": -0.9583665918,
				"element": "C" 
			},
			{
				"x": 0.0780368575,
				"y": 0.5265552798,
				"z": -0.7030073614,
				"element": "C" 
			},
			{
				"x": -0.4842014791,
				"y": -0.6097920744,
				"z": -0.1221915723,
				"element": "C" 
			},
			{
				"x": -1.8529491708,
				"y": -0.5836079381,
				"z": 0.1693564402,
				"element": "C" 
			},
			{
				"x": -2.632161274,
				"y": 0.5443757063,
				"z": -0.0936787796,
				"element": "C" 
			},
			{
				"x": -2.0447041043,
				"y": 1.6852739168,
				"z": -0.652927209,
				"element": "C" 
			},
			{
				"x": 2.6903169075,
				"y": -1.1322445468,
				"z": -3.6493235176,
				"element": "H" 
			},
			{
				"x": 1.3597377583,
				"y": -1.8336983455,
				"z": -2.9091355197,
				"element": "H" 
			},
			{
				"x": 1.4302810881,
				"y": 1.7325546751,
				"z": -2.9747514938,
				"element": "H" 
			},
			{
				"x": 2.3969475962,
				"y": 2.5551766299,
				"z": -1.7244486119,
				"element": "H" 
			},
			{
				"x": 0.4199359709,
				"y": 3.5033415712,
				"z": -0.7120031274,
				"element": "H" 
			},
			{
				"x": -0.2414319199,
				"y": 3.3154162726,
				"z": -2.3391501564,
				"element": "H" 
			},
			{
				"x": 0.1197977852,
				"y": -1.4794103185,
				"z": 0.1021949492,
				"element": "H" 
			},
			{
				"x": -2.3108531946,
				"y": -1.4623652454,
				"z": 0.6142916089,
				"element": "H" 
			},
			{
				"x": -3.691987205,
				"y": 0.5401045124,
				"z": 0.1418124361,
				"element": "H" 
			},
			{
				"x": -2.6413907981,
				"y": 2.5722555614,
				"z": -0.849002564,
				"element": "H" 
			}
		],
		 "valence_orbital": [ 
			{
				"type": "occ",
				"energy": -0.31409,
				"method": "rhf"
			},
			{
				"type": "occ",
				"energy": -0.30986,
				"method": "rhf"
			},
			{
				"type": "occ",
				"energy": -0.29142,
				"method": "rhf"
			},
			{
				"type": "occ",
				"energy": -0.25107,
				"method": "rhf"
			},
			{
				"type": "occ",
				"energy": -0.21933,
				"method": "rhf"
			},
			{
				"type": "unocc",
				"energy": -0.00969,
				"method": "rhf"
			},
			{
				"type": "unocc",
				"energy": 0.00057,
				"method": "rhf"
			},
			{
				"type": "unocc",
				"energy": 0.04826,
				"method": "rhf"
			},
			{
				"type": "unocc",
				"energy": 0.08167,
				"method": "rhf"
			},
			{
				"type": "unocc",
				"energy": 0.08971,
				"method": "rhf"
			}
		],
		"cosmo_sigma_profile": { 
			"-0.025": 0.0,
			"-0.024": 0.0,
			"-0.023": 0.0,
			"-0.022": 0.0,
			"-0.021": 0.0,
			"-0.02": 0.0,
			"-0.019": 0.0,
			"-0.018": 0.0,
			"-0.017": 0.0,
			"-0.016": 0.0355618239391,
			"-0.015": 1.50478055876,
			"-0.014": 2.71455247828,
			"-0.013": 2.27263914652,
			"-0.012": 2.83168762015,
			"-0.011": 1.77430162462,
			"-0.01": 2.01400760225,
			"-0.009": 1.47460256646,
			"-0.008": 1.99996811441,
			"-0.007": 1.74697972583,
			"-0.006": 7.389875251,
			"-0.005": 18.3800166148,
			"-0.004": 19.2170379353,
			"-0.003": 19.4451743519,
			"-0.002": 13.6957293674,
			"-0.001": 11.4700981904,
			"0.0": 9.5213020114,
			"0.001": 8.59676539089,
			"0.002": 10.3000707496,
			"0.003": 12.1037500748,
			"0.004": 14.1921213895,
			"0.005": 12.8691304877,
			"0.006": 8.74474978075,
			"0.007": 5.72072268822,
			"0.008": 3.59607125312,
			"0.009": 4.24853590297,
			"0.01": 9.22594633313,
			"0.011": 6.85876055905,
			"0.012": 0.182571895931,
			"0.013": 0.0,
			"0.014": 0.0,
			"0.015": 0.0,
			"0.016": 0.0,
			"0.017": 0.0,
			"0.018": 0.0,
			"0.019": 0.0,
			"0.02": 0.0,
			"0.021": 0.0,
			"0.022": 0.0,
			"0.023": 0.0,
			"0.024": 0.0,
			"0.025": 0.0
		}
	}
}
