{
	 "smiles": "COC1=C(CO)C=C(N)C=C1", 
	 "Tm": 389.15, 
	 "num_atms": 22, 
	 "gaussian": { 
		 "optdone": 1, 
		 "sigma_profile": "yes", 
		 "theory": "DFT", 
		 "functional": "B3LYP", 
		 "basiset": "6-31G**", 
		 "properties": { 
			 "R2extent": 2247.9949, 
			 "electric_dipole_moment_norm": 3.08800419365, 
			 "electric_quadrupole_moment_norm": 15.3655521163, 
			 "total_energy": -516.657792485, 
			 "HOMO_LUMO_gap": 0.18815, 
			 "cosmo_polarized_energy": -13.11, 
			 "cosmo_cavitation_energy": 25.17, 
			 "cosmo_dispersion_energy": -18.73, 
			 "cosmo_repulsion_energy": 1.53, 
			 "cosmo_total_nonelectrostatic_energy": 7.97, 
			 "SMD_solvation_energy": 4.99 
		},
		"coords": [
			{
				"x": 2.1993661805,
				"y": 0.5735602149,
				"z": 1.4055275086,
				"element": "C" 
			},
			{
				"x": 1.2517161183,
				"y": -0.4606126789,
				"z": 1.2181317407,
				"element": "O" 
			},
			{
				"x": 0.1014576373,
				"y": -0.1644906574,
				"z": 0.5228044619,
				"element": "C" 
			},
			{
				"x": -0.8172788765,
				"y": -1.2236222413,
				"z": 0.3885760197,
				"element": "C" 
			},
			{
				"x": -0.5053130325,
				"y": -2.5771174799,
				"z": 1.0002529793,
				"element": "C" 
			},
			{
				"x": -1.6329585212,
				"y": -3.4380835439,
				"z": 1.0911195324,
				"element": "O" 
			},
			{
				"x": -1.9994355787,
				"y": -1.0119814186,
				"z": -0.3138235882,
				"element": "C" 
			},
			{
				"x": -2.3080319797,
				"y": 0.2353201812,
				"z": -0.8847008923,
				"element": "C" 
			},
			{
				"x": -3.4779942291,
				"y": 0.4033690583,
				"z": -1.6431968329,
				"element": "N" 
			},
			{
				"x": -1.3883359328,
				"y": 1.2777365206,
				"z": -0.730249973,
				"element": "C" 
			},
			{
				"x": -0.1921360321,
				"y": 1.0805678972,
				"z": -0.033894644,
				"element": "C" 
			},
			{
				"x": 1.7762259475,
				"y": 1.4176500562,
				"z": 1.9670896374,
				"element": "H" 
			},
			{
				"x": 3.0181591063,
				"y": 0.1365427053,
				"z": 1.9800924598,
				"element": "H" 
			},
			{
				"x": 2.5903864193,
				"y": 0.9452833862,
				"z": 0.4488082315,
				"element": "H" 
			},
			{
				"x": -0.0262752264,
				"y": -2.4338552339,
				"z": 1.9789253727,
				"element": "H" 
			},
			{
				"x": 0.2226885758,
				"y": -3.1101554274,
				"z": 0.3773970126,
				"element": "H" 
			},
			{
				"x": -2.2656648029,
				"y": -3.0175974023,
				"z": 1.6885085777,
				"element": "H" 
			},
			{
				"x": -2.6865006001,
				"y": -1.8466076408,
				"z": -0.4230953409,
				"element": "H" 
			},
			{
				"x": -3.8140724111,
				"y": 1.3566214222,
				"z": -1.6830858233,
				"element": "H" 
			},
			{
				"x": -4.2253925257,
				"y": -0.2324165033,
				"z": -1.3976574375,
				"element": "H" 
			},
			{
				"x": -1.5982743555,
				"y": 2.252927284,
				"z": -1.162723738,
				"element": "H" 
			},
			{
				"x": 0.4983641193,
				"y": 1.9100615016,
				"z": 0.0657947357,
				"element": "H" 
			}
		],
		 "valence_orbital": [ 
			{
				"type": "occ",
				"energy": -0.31625,
				"method": "rhf"
			},
			{
				"type": "occ",
				"energy": -0.27326,
				"method": "rhf"
			},
			{
				"type": "occ",
				"energy": -0.26641,
				"method": "rhf"
			},
			{
				"type": "occ",
				"energy": -0.23633,
				"method": "rhf"
			},
			{
				"type": "occ",
				"energy": -0.18207,
				"method": "rhf"
			},
			{
				"type": "unocc",
				"energy": 0.00608,
				"method": "rhf"
			},
			{
				"type": "unocc",
				"energy": 0.03142,
				"method": "rhf"
			},
			{
				"type": "unocc",
				"energy": 0.08534,
				"method": "rhf"
			},
			{
				"type": "unocc",
				"energy": 0.08964,
				"method": "rhf"
			},
			{
				"type": "unocc",
				"energy": 0.10177,
				"method": "rhf"
			}
		],
		"cosmo_sigma_profile": { 
			"-0.025": 0.0,
			"-0.024": 0.0,
			"-0.023": 0.0,
			"-0.022": 0.0,
			"-0.021": 0.0,
			"-0.02": 0.0,
			"-0.019": 0.0,
			"-0.018": 0.0,
			"-0.017": 0.0,
			"-0.016": 0.117079748733,
			"-0.015": 0.851475230114,
			"-0.014": 1.04704409569,
			"-0.013": 0.729745804145,
			"-0.012": 1.8052750887,
			"-0.011": 3.46648411458,
			"-0.01": 3.60248815809,
			"-0.009": 2.96613710497,
			"-0.008": 3.84167712751,
			"-0.007": 4.86304297031,
			"-0.006": 6.51448849768,
			"-0.005": 14.5970624203,
			"-0.004": 17.83318025,
			"-0.003": 17.9708920572,
			"-0.002": 13.0427027058,
			"-0.001": 9.85483993338,
			"0.0": 7.91844596284,
			"0.001": 7.93809441024,
			"0.002": 7.91431900849,
			"0.003": 9.2999126863,
			"0.004": 10.758229524,
			"0.005": 9.4700411483,
			"0.006": 11.46255931,
			"0.007": 10.4942297471,
			"0.008": 4.92426875281,
			"0.009": 2.60678279255,
			"0.01": 1.64462918726,
			"0.011": 1.98878140406,
			"0.012": 1.63394029423,
			"0.013": 2.84296331182,
			"0.014": 2.82573915794,
			"0.015": 0.692915729872,
			"0.016": 0.331211892932,
			"0.017": 0.0,
			"0.018": 0.0,
			"0.019": 0.0,
			"0.02": 0.0,
			"0.021": 0.0,
			"0.022": 0.0,
			"0.023": 0.0,
			"0.024": 0.0,
			"0.025": 0.0
		}
	}
}
