{
	 "smiles": "COC1=CC2=C(C=C1)C(=O)NC=N2", 
	 "Tm": 525.15, 
	 "num_atms": 21, 
	 "gaussian": { 
		 "optdone": 1, 
		 "sigma_profile": "yes", 
		 "theory": "DFT", 
		 "functional": "B3LYP", 
		 "basiset": "6-31G**", 
		 "properties": { 
			 "R2extent": 3127.1177, 
			 "electric_dipole_moment_norm": 2.94456291154, 
			 "electric_quadrupole_moment_norm": 14.0145618765, 
			 "total_energy": -607.745800965, 
			 "HOMO_LUMO_gap": 0.19046, 
			 "cosmo_polarized_energy": -14.87, 
			 "cosmo_cavitation_energy": 25.38, 
			 "cosmo_dispersion_energy": -19.17, 
			 "cosmo_repulsion_energy": 1.49, 
			 "cosmo_total_nonelectrostatic_energy": 7.69, 
			 "SMD_solvation_energy": 4.58 
		},
		"coords": [
			{
				"x": -3.3961495192,
				"y": -0.0244819861,
				"z": 1.3133062562,
				"element": "C" 
			},
			{
				"x": -2.0042960693,
				"y": 0.0952399985,
				"z": 1.5772068591,
				"element": "O" 
			},
			{
				"x": -1.1286070756,
				"y": -0.3068138515,
				"z": 0.6201487653,
				"element": "C" 
			},
			{
				"x": -1.4969297196,
				"y": -0.8337590485,
				"z": -0.6150625781,
				"element": "C" 
			},
			{
				"x": -0.5045946323,
				"y": -1.2197276189,
				"z": -1.5353873555,
				"element": "C" 
			},
			{
				"x": 0.8613780185,
				"y": -1.068154377,
				"z": -1.1957524096,
				"element": "C" 
			},
			{
				"x": 1.2129832642,
				"y": -0.5335043703,
				"z": 0.0576447015,
				"element": "C" 
			},
			{
				"x": 0.2374368756,
				"y": -0.1566614021,
				"z": 0.9563660651,
				"element": "C" 
			},
			{
				"x": 1.8974770054,
				"y": -1.4669383845,
				"z": -2.1464613697,
				"element": "C" 
			},
			{
				"x": 3.1094984353,
				"y": -1.3954803625,
				"z": -1.9936132052,
				"element": "O" 
			},
			{
				"x": 1.3556978843,
				"y": -1.9778301563,
				"z": -3.3411169503,
				"element": "N" 
			},
			{
				"x": 0.0113119723,
				"y": -2.087798852,
				"z": -3.58337583,
				"element": "C" 
			},
			{
				"x": -0.9192281604,
				"y": -1.7420844078,
				"z": -2.7589697613,
				"element": "N" 
			},
			{
				"x": -3.6932435363,
				"y": 0.5760489157,
				"z": 0.4448188664,
				"element": "H" 
			},
			{
				"x": -3.9031416659,
				"y": 0.3508526356,
				"z": 2.2030826694,
				"element": "H" 
			},
			{
				"x": -3.684276698,
				"y": -1.0692191433,
				"z": 1.1439525084,
				"element": "H" 
			},
			{
				"x": -2.5302304951,
				"y": -0.9642975583,
				"z": -0.9092564964,
				"element": "H" 
			},
			{
				"x": 2.266683844,
				"y": -0.4277182464,
				"z": 0.2934881938,
				"element": "H" 
			},
			{
				"x": 0.4851281384,
				"y": 0.2575232484,
				"z": 1.9277529924,
				"element": "H" 
			},
			{
				"x": 2.0304815159,
				"y": -2.2702896953,
				"z": -4.0372162194,
				"element": "H" 
			},
			{
				"x": -0.2558793824,
				"y": -2.5019053371,
				"z": -4.5540557021,
				"element": "H" 
			}
		],
		 "valence_orbital": [ 
			{
				"type": "occ",
				"energy": -0.28589,
				"method": "rhf"
			},
			{
				"type": "occ",
				"energy": -0.27823,
				"method": "rhf"
			},
			{
				"type": "occ",
				"energy": -0.26021,
				"method": "rhf"
			},
			{
				"type": "occ",
				"energy": -0.23973,
				"method": "rhf"
			},
			{
				"type": "occ",
				"energy": -0.22672,
				"method": "rhf"
			},
			{
				"type": "unocc",
				"energy": -0.03626,
				"method": "rhf"
			},
			{
				"type": "unocc",
				"energy": -0.03084,
				"method": "rhf"
			},
			{
				"type": "unocc",
				"energy": 0.02819,
				"method": "rhf"
			},
			{
				"type": "unocc",
				"energy": 0.07405,
				"method": "rhf"
			},
			{
				"type": "unocc",
				"energy": 0.08265,
				"method": "rhf"
			}
		],
		"cosmo_sigma_profile": { 
			"-0.025": 0.0,
			"-0.024": 0.0,
			"-0.023": 0.0,
			"-0.022": 0.0,
			"-0.021": 0.0,
			"-0.02": 0.0,
			"-0.019": 0.0,
			"-0.018": 0.0,
			"-0.017": 0.326448029865,
			"-0.016": 1.57189036054,
			"-0.015": 1.28769960501,
			"-0.014": 1.40833525392,
			"-0.013": 1.36265651389,
			"-0.012": 1.22636917971,
			"-0.011": 1.23457033691,
			"-0.01": 2.44320109952,
			"-0.009": 2.82778536459,
			"-0.008": 2.30775638953,
			"-0.007": 4.51668129214,
			"-0.006": 11.7884095552,
			"-0.005": 14.1374542898,
			"-0.004": 15.8995237111,
			"-0.003": 15.0035651868,
			"-0.002": 11.8897133433,
			"-0.001": 12.2959207371,
			"0.0": 8.47041624155,
			"0.001": 12.5227389564,
			"0.002": 17.795405023,
			"0.003": 16.6227729246,
			"0.004": 7.09255983961,
			"0.005": 4.35127195746,
			"0.006": 4.09969086126,
			"0.007": 4.73161341805,
			"0.008": 3.42503854657,
			"0.009": 3.35318569528,
			"0.01": 3.06902690711,
			"0.011": 2.96169681361,
			"0.012": 3.59067837923,
			"0.013": 6.76034435669,
			"0.014": 2.07789529361,
			"0.015": 0.717765465317,
			"0.016": 0.148262084806,
			"0.017": 0.0,
			"0.018": 0.0,
			"0.019": 0.0,
			"0.02": 0.0,
			"0.021": 0.0,
			"0.022": 0.0,
			"0.023": 0.0,
			"0.024": 0.0,
			"0.025": 0.0
		}
	}
}
