{
	 "smiles": "CCCCC(CO)(CO)CCCC", 
	 "Tm": 313.15, 
	 "num_atms": 37, 
	 "gaussian": { 
		 "optdone": 1, 
		 "sigma_profile": "yes", 
		 "theory": "DFT", 
		 "functional": "B3LYP", 
		 "basiset": "6-31G**", 
		 "properties": { 
			 "R2extent": 3427.8305, 
			 "electric_dipole_moment_norm": 0.512606759612, 
			 "electric_quadrupole_moment_norm": 8.38917473891, 
			 "total_energy": -584.079958479, 
			 "HOMO_LUMO_gap": 0.32351, 
			 "cosmo_polarized_energy": -9.4, 
			 "cosmo_cavitation_energy": 35.53, 
			 "cosmo_dispersion_energy": -24.11, 
			 "cosmo_repulsion_energy": 1.96, 
			 "cosmo_total_nonelectrostatic_energy": 13.38, 
			 "SMD_solvation_energy": 5.63 
		},
		"coords": [
			{
				"x": -3.1249319319,
				"y": -2.4136695892,
				"z": -0.0039797044,
				"element": "C" 
			},
			{
				"x": -1.5952276766,
				"y": -2.5208301198,
				"z": -0.0316172821,
				"element": "C" 
			},
			{
				"x": -0.9429281347,
				"y": -1.9845455921,
				"z": -1.3202536652,
				"element": "C" 
			},
			{
				"x": -1.0373509597,
				"y": -0.4590734427,
				"z": -1.5664530189,
				"element": "C" 
			},
			{
				"x": 0.0687643858,
				"y": 0.4830427334,
				"z": -1.0039275665,
				"element": "C" 
			},
			{
				"x": -0.2769627533,
				"y": 1.9306657614,
				"z": -1.4445617192,
				"element": "C" 
			},
			{
				"x": -0.1829825677,
				"y": 2.1571413742,
				"z": -2.8490287444,
				"element": "O" 
			},
			{
				"x": 1.4504327756,
				"y": 0.1676922859,
				"z": -1.6198513911,
				"element": "C" 
			},
			{
				"x": 1.990742958,
				"y": -1.0308546154,
				"z": -1.0632966375,
				"element": "O" 
			},
			{
				"x": 0.2034777929,
				"y": 0.4542170258,
				"z": 0.541299315,
				"element": "C" 
			},
			{
				"x": -1.0196704277,
				"y": 0.8828359683,
				"z": 1.3675486596,
				"element": "C" 
			},
			{
				"x": -0.7847834687,
				"y": 0.7296052758,
				"z": 2.8771843369,
				"element": "C" 
			},
			{
				"x": -1.9828975249,
				"y": 1.170185463,
				"z": 3.7240026075,
				"element": "C" 
			},
			{
				"x": -3.5717183538,
				"y": -2.9508305223,
				"z": -0.8490501652,
				"element": "H" 
			},
			{
				"x": -3.4680673245,
				"y": -1.3745793022,
				"z": -0.0589614277,
				"element": "H" 
			},
			{
				"x": -3.5355020227,
				"y": -2.8426197979,
				"z": 0.9163355265,
				"element": "H" 
			},
			{
				"x": -1.1761940246,
				"y": -2.0183570795,
				"z": 0.8474776647,
				"element": "H" 
			},
			{
				"x": -1.3179659274,
				"y": -3.5780188867,
				"z": 0.0715510653,
				"element": "H" 
			},
			{
				"x": 0.1076196804,
				"y": -2.2828872211,
				"z": -1.3447478437,
				"element": "H" 
			},
			{
				"x": -1.4300306064,
				"y": -2.489648639,
				"z": -2.1662813099,
				"element": "H" 
			},
			{
				"x": -2.0133735799,
				"y": -0.0927406451,
				"z": -1.2211209703,
				"element": "H" 
			},
			{
				"x": -1.0402484849,
				"y": -0.3091120547,
				"z": -2.6550729743,
				"element": "H" 
			},
			{
				"x": -1.2762250079,
				"y": 2.2027358809,
				"z": -1.0765286916,
				"element": "H" 
			},
			{
				"x": 0.4378430738,
				"y": 2.6264750614,
				"z": -0.9900661141,
				"element": "H" 
			},
			{
				"x": -0.9359899884,
				"y": 1.7250259485,
				"z": -3.270197575,
				"element": "H" 
			},
			{
				"x": 2.1236939947,
				"y": 1.016322421,
				"z": -1.41478887,
				"element": "H" 
			},
			{
				"x": 1.3518594621,
				"y": 0.0918663453,
				"z": -2.7107630915,
				"element": "H" 
			},
			{
				"x": 2.8341975698,
				"y": -1.2027344798,
				"z": -1.4990319983,
				"element": "H" 
			},
			{
				"x": 0.5112239756,
				"y": -0.5522991792,
				"z": 0.8401228748,
				"element": "H" 
			},
			{
				"x": 1.0472998854,
				"y": 1.1056923305,
				"z": 0.8131474594,
				"element": "H" 
			},
			{
				"x": -1.2776765902,
				"y": 1.9293836848,
				"z": 1.1582958635,
				"element": "H" 
			},
			{
				"x": -1.8999488208,
				"y": 0.2914496269,
				"z": 1.0851824262,
				"element": "H" 
			},
			{
				"x": -0.5432700391,
				"y": -0.3187042773,
				"z": 3.0997281052,
				"element": "H" 
			},
			{
				"x": 0.1018580261,
				"y": 1.3105304796,
				"z": 3.1658334051,
				"element": "H" 
			},
			{
				"x": -2.8766832372,
				"y": 0.5835962179,
				"z": 3.4821336536,
				"element": "H" 
			},
			{
				"x": -2.2248221517,
				"y": 2.2251889274,
				"z": 3.5507234869,
				"element": "H" 
			},
			{
				"x": -1.7845619755,
				"y": 1.0468526323,
				"z": 4.7938143107,
				"element": "H" 
			}
		],
		 "valence_orbital": [ 
			{
				"type": "occ",
				"energy": -0.30697,
				"method": "rhf"
			},
			{
				"type": "occ",
				"energy": -0.29805,
				"method": "rhf"
			},
			{
				"type": "occ",
				"energy": -0.29089,
				"method": "rhf"
			},
			{
				"type": "occ",
				"energy": -0.26283,
				"method": "rhf"
			},
			{
				"type": "occ",
				"energy": -0.25514,
				"method": "rhf"
			},
			{
				"type": "unocc",
				"energy": 0.06837,
				"method": "rhf"
			},
			{
				"type": "unocc",
				"energy": 0.07297,
				"method": "rhf"
			},
			{
				"type": "unocc",
				"energy": 0.08031,
				"method": "rhf"
			},
			{
				"type": "unocc",
				"energy": 0.10221,
				"method": "rhf"
			},
			{
				"type": "unocc",
				"energy": 0.10807,
				"method": "rhf"
			}
		],
		"cosmo_sigma_profile": { 
			"-0.025": 0.0,
			"-0.024": 0.0,
			"-0.023": 0.0,
			"-0.022": 0.0,
			"-0.021": 0.0,
			"-0.02": 0.0,
			"-0.019": 0.0,
			"-0.018": 0.0,
			"-0.017": 0.0,
			"-0.016": 0.200382026603,
			"-0.015": 1.03899642426,
			"-0.014": 1.88041971062,
			"-0.013": 1.69004194578,
			"-0.012": 1.71569934039,
			"-0.011": 1.75290952746,
			"-0.01": 1.8027921466,
			"-0.009": 1.66219450716,
			"-0.008": 1.48686374013,
			"-0.007": 2.20922064222,
			"-0.006": 2.60234164799,
			"-0.005": 2.15960027254,
			"-0.004": 3.72425141117,
			"-0.003": 16.7805449206,
			"-0.002": 39.8279699061,
			"-0.001": 42.9706799435,
			"0.0": 43.1721428646,
			"0.001": 40.4710616701,
			"0.002": 26.622057098,
			"0.003": 6.01888128411,
			"0.004": 3.73621650804,
			"0.005": 3.25230722042,
			"0.006": 3.65999787838,
			"0.007": 3.09854525998,
			"0.008": 2.57710448158,
			"0.009": 2.85894936951,
			"0.01": 2.27474482301,
			"0.011": 2.37897897807,
			"0.012": 2.6646434166,
			"0.013": 2.11783415145,
			"0.014": 1.91479895775,
			"0.015": 0.751861470251,
			"0.016": 0.0,
			"0.017": 0.0,
			"0.018": 0.0,
			"0.019": 0.0,
			"0.02": 0.0,
			"0.021": 0.0,
			"0.022": 0.0,
			"0.023": 0.0,
			"0.024": 0.0,
			"0.025": 0.0
		}
	}
}
