{
	 "smiles": "CC1=C(C=CC=C1)C1=NNC(N)=C1", 
	 "Tm": 442.15, 
	 "num_atms": 24, 
	 "gaussian": { 
		 "optdone": 1, 
		 "sigma_profile": "yes", 
		 "theory": "DFT", 
		 "functional": "B3LYP", 
		 "basiset": "6-31G**", 
		 "properties": { 
			 "R2extent": 3237.0506, 
			 "electric_dipole_moment_norm": 3.68335202228, 
			 "electric_quadrupole_moment_norm": 10.7490306335, 
			 "total_energy": -551.934690483, 
			 "HOMO_LUMO_gap": 0.19762, 
			 "cosmo_polarized_energy": -14.96, 
			 "cosmo_cavitation_energy": 27.46, 
			 "cosmo_dispersion_energy": -20.47, 
			 "cosmo_repulsion_energy": 1.63, 
			 "cosmo_total_nonelectrostatic_energy": 8.62, 
			 "SMD_solvation_energy": 3.96 
		},
		"coords": [
			{
				"x": 2.6395423893,
				"y": 1.6200457654,
				"z": 1.4606875462,
				"element": "C" 
			},
			{
				"x": 1.2919235073,
				"y": 2.2788745005,
				"z": 1.2824809635,
				"element": "C" 
			},
			{
				"x": 0.2899511398,
				"y": 1.7684675017,
				"z": 0.4190412912,
				"element": "C" 
			},
			{
				"x": -0.9310916715,
				"y": 2.4578919166,
				"z": 0.3132742193,
				"element": "C" 
			},
			{
				"x": -1.1802257183,
				"y": 3.6254014726,
				"z": 1.0289934938,
				"element": "C" 
			},
			{
				"x": -0.1962213868,
				"y": 4.129920872,
				"z": 1.8774597241,
				"element": "C" 
			},
			{
				"x": 1.018515713,
				"y": 3.4556178588,
				"z": 1.9927077671,
				"element": "C" 
			},
			{
				"x": 0.463834046,
				"y": 0.5490097949,
				"z": -0.3972528667,
				"element": "C" 
			},
			{
				"x": 1.2627116191,
				"y": -0.4559407116,
				"z": -0.0250420968,
				"element": "N" 
			},
			{
				"x": 1.1229743813,
				"y": -1.3834579279,
				"z": -1.0080927441,
				"element": "N" 
			},
			{
				"x": 0.2608400957,
				"y": -1.0006859267,
				"z": -1.9894789533,
				"element": "C" 
			},
			{
				"x": 0.0483094124,
				"y": -1.7992843312,
				"z": -3.1183990803,
				"element": "N" 
			},
			{
				"x": -0.1948751585,
				"y": 0.2526379537,
				"z": -1.6278766509,
				"element": "C" 
			},
			{
				"x": 3.1051178664,
				"y": 1.3874970064,
				"z": 0.4984915667,
				"element": "H" 
			},
			{
				"x": 3.3097800738,
				"y": 2.2741008952,
				"z": 2.0263718141,
				"element": "H" 
			},
			{
				"x": 2.5529377166,
				"y": 0.6665048243,
				"z": 1.9890821543,
				"element": "H" 
			},
			{
				"x": -1.7063893583,
				"y": 2.0536718465,
				"z": -0.3305326718,
				"element": "H" 
			},
			{
				"x": -2.1363865719,
				"y": 4.130987159,
				"z": 0.9279383146,
				"element": "H" 
			},
			{
				"x": -0.3697118375,
				"y": 5.039724756,
				"z": 2.4453398492,
				"element": "H" 
			},
			{
				"x": 1.7878480284,
				"y": 3.8528714617,
				"z": 2.6504245923,
				"element": "H" 
			},
			{
				"x": 1.6999954321,
				"y": -2.2094676016,
				"z": -0.9921739321,
				"element": "H" 
			},
			{
				"x": -0.6221684958,
				"y": -1.3807792284,
				"z": -3.7507969114,
				"element": "H" 
			},
			{
				"x": -0.2481938359,
				"y": -2.7435986857,
				"z": -2.8931854074,
				"element": "H" 
			},
			{
				"x": -0.8879173868,
				"y": 0.870488828,
				"z": -2.1782619817,
				"element": "H" 
			}
		],
		 "valence_orbital": [ 
			{
				"type": "occ",
				"energy": -0.27658,
				"method": "rhf"
			},
			{
				"type": "occ",
				"energy": -0.26793,
				"method": "rhf"
			},
			{
				"type": "occ",
				"energy": -0.23013,
				"method": "rhf"
			},
			{
				"type": "occ",
				"energy": -0.21742,
				"method": "rhf"
			},
			{
				"type": "occ",
				"energy": -0.20456,
				"method": "rhf"
			},
			{
				"type": "unocc",
				"energy": -0.00694,
				"method": "rhf"
			},
			{
				"type": "unocc",
				"energy": 0.01474,
				"method": "rhf"
			},
			{
				"type": "unocc",
				"energy": 0.04248,
				"method": "rhf"
			},
			{
				"type": "unocc",
				"energy": 0.0664,
				"method": "rhf"
			},
			{
				"type": "unocc",
				"energy": 0.09454,
				"method": "rhf"
			}
		],
		"cosmo_sigma_profile": { 
			"-0.025": 0.0,
			"-0.024": 0.0,
			"-0.023": 0.0,
			"-0.022": 0.0,
			"-0.021": 0.0,
			"-0.02": 0.0,
			"-0.019": 0.0,
			"-0.018": 0.0,
			"-0.017": 0.0,
			"-0.016": 0.787552446832,
			"-0.015": 1.52471099216,
			"-0.014": 1.35899466003,
			"-0.013": 3.29227134547,
			"-0.012": 4.61144269944,
			"-0.011": 3.3985402253,
			"-0.01": 3.90985760451,
			"-0.009": 3.76877647623,
			"-0.008": 2.20053332662,
			"-0.007": 2.52124597002,
			"-0.006": 5.42988034764,
			"-0.005": 12.38505002,
			"-0.004": 12.1352652086,
			"-0.003": 13.9786953157,
			"-0.002": 12.7555032346,
			"-0.001": 12.6687567907,
			"0.0": 13.374840666,
			"0.001": 13.3572476256,
			"0.002": 13.0911229043,
			"0.003": 11.6114048382,
			"0.004": 15.007798961,
			"0.005": 17.1523104343,
			"0.006": 17.4191620906,
			"0.007": 5.66932124788,
			"0.008": 2.86564266344,
			"0.009": 2.33124438371,
			"0.01": 1.96641325994,
			"0.011": 2.25922604352,
			"0.012": 2.15515966466,
			"0.013": 1.08191879769,
			"0.014": 1.39958692989,
			"0.015": 0.442023117376,
			"0.016": 0.0,
			"0.017": 0.0,
			"0.018": 0.0,
			"0.019": 0.0,
			"0.02": 0.0,
			"0.021": 0.0,
			"0.022": 0.0,
			"0.023": 0.0,
			"0.024": 0.0,
			"0.025": 0.0
		}
	}
}
