{
	 "smiles": "CCOC(CN1C=C(N=N1)C(O)=O)OCC", 
	 "Tm": 412.15, 
	 "num_atms": 31, 
	 "gaussian": { 
		 "optdone": 1, 
		 "sigma_profile": "yes", 
		 "theory": "DFT", 
		 "functional": "B3LYP", 
		 "basiset": "6-31G**", 
		 "properties": { 
			 "R2extent": 5139.5582, 
			 "electric_dipole_moment_norm": 9.03755096583, 
			 "electric_quadrupole_moment_norm": 39.5360550917, 
			 "total_energy": -817.096843447, 
			 "HOMO_LUMO_gap": 0.23574, 
			 "cosmo_polarized_energy": -26.2, 
			 "cosmo_cavitation_energy": 35.39, 
			 "cosmo_dispersion_energy": -23.55, 
			 "cosmo_repulsion_energy": 1.9, 
			 "cosmo_total_nonelectrostatic_energy": 13.74, 
			 "SMD_solvation_energy": 6.36 
		},
		"coords": [
			{
				"x": 1.227462061,
				"y": 1.7020954996,
				"z": -1.1845198958,
				"element": "C" 
			},
			{
				"x": 0.5786482983,
				"y": 0.5731476393,
				"z": -1.972872898,
				"element": "C" 
			},
			{
				"x": -0.190382447,
				"y": -0.3007601139,
				"z": -1.1259388492,
				"element": "O" 
			},
			{
				"x": 0.4174919302,
				"y": -1.5090195097,
				"z": -0.7898209004,
				"element": "C" 
			},
			{
				"x": -0.6196344571,
				"y": -2.3151216907,
				"z": 0.0125290141,
				"element": "C" 
			},
			{
				"x": -0.8189295901,
				"y": -1.7840541059,
				"z": 1.3503687486,
				"element": "N" 
			},
			{
				"x": -1.2704349142,
				"y": -0.5738473606,
				"z": 1.7427956751,
				"element": "C" 
			},
			{
				"x": -1.1816667445,
				"y": -0.6067090517,
				"z": 3.1249872585,
				"element": "C" 
			},
			{
				"x": -0.674135734,
				"y": -1.8234371984,
				"z": 3.4936969057,
				"element": "N" 
			},
			{
				"x": -0.4591824704,
				"y": -2.5321497098,
				"z": 2.4309393185,
				"element": "N" 
			},
			{
				"x": -1.4961897953,
				"y": 0.4461297322,
				"z": 4.1240192075,
				"element": "C" 
			},
			{
				"x": -2.339255332,
				"y": 1.4267987002,
				"z": 3.6820485114,
				"element": "O" 
			},
			{
				"x": -1.0465757956,
				"y": 0.483256226,
				"z": 5.239614482,
				"element": "O" 
			},
			{
				"x": 1.5907906307,
				"y": -1.2482283065,
				"z": -0.0601476562,
				"element": "O" 
			},
			{
				"x": 2.4529890605,
				"y": -2.3716264286,
				"z": 0.1434731222,
				"element": "C" 
			},
			{
				"x": 3.7638701809,
				"y": -1.8598546592,
				"z": 0.7149717981,
				"element": "C" 
			},
			{
				"x": 0.4696852951,
				"y": 2.2799942508,
				"z": -0.6465368118,
				"element": "H" 
			},
			{
				"x": 1.9397771273,
				"y": 1.303416025,
				"z": -0.4600482188,
				"element": "H" 
			},
			{
				"x": 1.7523194625,
				"y": 2.3823125053,
				"z": -1.8643949292,
				"element": "H" 
			},
			{
				"x": -0.1280356956,
				"y": 0.9707644573,
				"z": -2.7098673715,
				"element": "H" 
			},
			{
				"x": 1.3339282087,
				"y": -0.0114739359,
				"z": -2.5133070903,
				"element": "H" 
			},
			{
				"x": 0.6716165966,
				"y": -2.0874422231,
				"z": -1.7013999278,
				"element": "H" 
			},
			{
				"x": -1.5650156829,
				"y": -2.3191596295,
				"z": -0.5369023394,
				"element": "H" 
			},
			{
				"x": -0.2887546587,
				"y": -3.3455304056,
				"z": 0.1497300415,
				"element": "H" 
			},
			{
				"x": -1.5435712836,
				"y": 0.1832724973,
				"z": 1.0248705434,
				"element": "H" 
			},
			{
				"x": -2.7466623111,
				"y": 1.164598585,
				"z": 2.8449491338,
				"element": "H" 
			},
			{
				"x": 2.6194114404,
				"y": -2.8908808785,
				"z": -0.8144912904,
				"element": "H" 
			},
			{
				"x": 1.9879505111,
				"y": -3.0844123532,
				"z": 0.8381458097,
				"element": "H" 
			},
			{
				"x": 3.5896643941,
				"y": -1.3419922692,
				"z": 1.6619406509,
				"element": "H" 
			},
			{
				"x": 4.2441252392,
				"y": -1.1636605198,
				"z": 0.0213195548,
				"element": "H" 
			},
			{
				"x": 4.4464964755,
				"y": -2.6950257681,
				"z": 0.8990484031,
				"element": "H" 
			}
		],
		 "valence_orbital": [ 
			{
				"type": "occ",
				"energy": -0.29561,
				"method": "rhf"
			},
			{
				"type": "occ",
				"energy": -0.28423,
				"method": "rhf"
			},
			{
				"type": "occ",
				"energy": -0.27656,
				"method": "rhf"
			},
			{
				"type": "occ",
				"energy": -0.27457,
				"method": "rhf"
			},
			{
				"type": "occ",
				"energy": -0.26567,
				"method": "rhf"
			},
			{
				"type": "unocc",
				"energy": -0.02993,
				"method": "rhf"
			},
			{
				"type": "unocc",
				"energy": -0.01362,
				"method": "rhf"
			},
			{
				"type": "unocc",
				"energy": 0.05981,
				"method": "rhf"
			},
			{
				"type": "unocc",
				"energy": 0.06355,
				"method": "rhf"
			},
			{
				"type": "unocc",
				"energy": 0.08754,
				"method": "rhf"
			}
		],
		"cosmo_sigma_profile": { 
			"-0.025": 0.0,
			"-0.024": 0.0,
			"-0.023": 0.0,
			"-0.022": 0.0,
			"-0.021": 0.0,
			"-0.02": 0.0371006863817,
			"-0.019": 0.843927228452,
			"-0.018": 1.34619605948,
			"-0.017": 1.27528772127,
			"-0.016": 1.06767704013,
			"-0.015": 0.958242780683,
			"-0.014": 1.46249291684,
			"-0.013": 1.10989822206,
			"-0.012": 1.29270429583,
			"-0.011": 0.884567837714,
			"-0.01": 1.20883109074,
			"-0.009": 1.75389534316,
			"-0.008": 6.99331178526,
			"-0.007": 8.723145452,
			"-0.006": 10.8417575883,
			"-0.005": 13.5077901308,
			"-0.004": 21.5956329838,
			"-0.003": 27.6530844741,
			"-0.002": 25.3220568329,
			"-0.001": 21.5838492701,
			"0.0": 21.6857611601,
			"0.001": 17.8757969309,
			"0.002": 9.90475760493,
			"0.003": 7.84943908869,
			"0.004": 6.6881716362,
			"0.005": 7.50233642754,
			"0.006": 7.48583732308,
			"0.007": 5.67245362238,
			"0.008": 6.73350394738,
			"0.009": 8.14381130605,
			"0.01": 8.64060552151,
			"0.011": 8.71750589424,
			"0.012": 6.72636044153,
			"0.013": 3.528551585,
			"0.014": 1.45972065458,
			"0.015": 0.413237235839,
			"0.016": 0.0,
			"0.017": 0.0,
			"0.018": 0.0,
			"0.019": 0.0,
			"0.02": 0.0,
			"0.021": 0.0,
			"0.022": 0.0,
			"0.023": 0.0,
			"0.024": 0.0,
			"0.025": 0.0
		}
	}
}
