{
	 "smiles": "CCCS(=O)CCC", 
	 "Tm": 295.65, 
	 "num_atms": 22, 
	 "gaussian": { 
		 "optdone": 1, 
		 "sigma_profile": "yes", 
		 "theory": "DFT", 
		 "functional": "B3LYP", 
		 "basiset": "6-31G**", 
		 "properties": { 
			 "R2extent": 2267.2133, 
			 "electric_dipole_moment_norm": 4.31511605522, 
			 "electric_quadrupole_moment_norm": 17.8712488713, 
			 "total_energy": -710.44991294, 
			 "HOMO_LUMO_gap": 0.24644, 
			 "cosmo_polarized_energy": -12.18, 
			 "cosmo_cavitation_energy": 24.88, 
			 "cosmo_dispersion_energy": -18.08, 
			 "cosmo_repulsion_energy": 1.48, 
			 "cosmo_total_nonelectrostatic_energy": 8.28, 
			 "SMD_solvation_energy": 3.63 
		},
		"coords": [
			{
				"x": 2.2183500742,
				"y": -1.6936247608,
				"z": 0.0872335846,
				"element": "C" 
			},
			{
				"x": 1.9058206347,
				"y": -0.925178563,
				"z": -1.2028701493,
				"element": "C" 
			},
			{
				"x": 1.0055275832,
				"y": -1.6814144301,
				"z": -2.1833437904,
				"element": "C" 
			},
			{
				"x": -0.7117560153,
				"y": -2.0591949323,
				"z": -1.5948375847,
				"element": "S" 
			},
			{
				"x": -1.3807590978,
				"y": -2.7734222776,
				"z": -2.7531412079,
				"element": "O" 
			},
			{
				"x": -1.3649225135,
				"y": -0.3125715295,
				"z": -1.5727673518,
				"element": "C" 
			},
			{
				"x": -1.4803727276,
				"y": 0.2777038087,
				"z": -0.1625199685,
				"element": "C" 
			},
			{
				"x": -2.5460318722,
				"y": -0.4005338749,
				"z": 0.7054972947,
				"element": "C" 
			},
			{
				"x": 2.8984259002,
				"y": -1.1222897838,
				"z": 0.726541069,
				"element": "H" 
			},
			{
				"x": 2.6963860148,
				"y": -2.6539022556,
				"z": -0.1351735574,
				"element": "H" 
			},
			{
				"x": 1.3132184766,
				"y": -1.9045820675,
				"z": 0.665206593,
				"element": "H" 
			},
			{
				"x": 1.4662914104,
				"y": 0.0508559707,
				"z": -0.9629672512,
				"element": "H" 
			},
			{
				"x": 2.8439043561,
				"y": -0.7034845075,
				"z": -1.7274591437,
				"element": "H" 
			},
			{
				"x": 1.4135783324,
				"y": -2.6727179636,
				"z": -2.4072028078,
				"element": "H" 
			},
			{
				"x": 0.881635429,
				"y": -1.1522552897,
				"z": -3.1343476904,
				"element": "H" 
			},
			{
				"x": -2.3493172583,
				"y": -0.4262025108,
				"z": -2.0380977134,
				"element": "H" 
			},
			{
				"x": -0.7482215274,
				"y": 0.3061147027,
				"z": -2.2324020925,
				"element": "H" 
			},
			{
				"x": -0.5078076035,
				"y": 0.233539135,
				"z": 0.3435421765,
				"element": "H" 
			},
			{
				"x": -1.7153532669,
				"y": 1.3448846444,
				"z": -0.2639465943,
				"element": "H" 
			},
			{
				"x": -2.3324395406,
				"y": -1.4654043201,
				"z": 0.8413235784,
				"element": "H" 
			},
			{
				"x": -2.5946501228,
				"y": 0.0599205172,
				"z": 1.6971039447,
				"element": "H" 
			},
			{
				"x": -3.5374066655,
				"y": -0.316339712,
				"z": 0.2471286623,
				"element": "H" 
			}
		],
		 "valence_orbital": [ 
			{
				"type": "occ",
				"energy": -0.35462,
				"method": "rhf"
			},
			{
				"type": "occ",
				"energy": -0.34016,
				"method": "rhf"
			},
			{
				"type": "occ",
				"energy": -0.33442,
				"method": "rhf"
			},
			{
				"type": "occ",
				"energy": -0.24745,
				"method": "rhf"
			},
			{
				"type": "occ",
				"energy": -0.21123,
				"method": "rhf"
			},
			{
				"type": "unocc",
				"energy": 0.03521,
				"method": "rhf"
			},
			{
				"type": "unocc",
				"energy": 0.04418,
				"method": "rhf"
			},
			{
				"type": "unocc",
				"energy": 0.0713,
				"method": "rhf"
			},
			{
				"type": "unocc",
				"energy": 0.09471,
				"method": "rhf"
			},
			{
				"type": "unocc",
				"energy": 0.10579,
				"method": "rhf"
			}
		],
		"cosmo_sigma_profile": { 
			"-0.025": 0.0,
			"-0.024": 0.0,
			"-0.023": 0.0,
			"-0.022": 0.0,
			"-0.021": 0.0,
			"-0.02": 0.0,
			"-0.019": 0.0,
			"-0.018": 0.0,
			"-0.017": 0.0,
			"-0.016": 0.0,
			"-0.015": 0.0,
			"-0.014": 0.0,
			"-0.013": 0.0,
			"-0.012": 0.0,
			"-0.011": 0.0,
			"-0.01": 0.0,
			"-0.009": 0.0,
			"-0.008": 0.0,
			"-0.007": 1.16127148878,
			"-0.006": 5.41660191179,
			"-0.005": 9.43361102271,
			"-0.004": 18.1173356012,
			"-0.003": 30.2448622844,
			"-0.002": 31.0817337674,
			"-0.001": 28.8579478161,
			"0.0": 20.9597985047,
			"0.001": 15.7283106977,
			"0.002": 3.79254867269,
			"0.003": 2.84497276504,
			"0.004": 2.06983607413,
			"0.005": 0.999053028416,
			"0.006": 1.53823205838,
			"0.007": 1.0175242633,
			"0.008": 1.18185856083,
			"0.009": 1.12793625597,
			"0.01": 1.1774278949,
			"0.011": 1.18254499647,
			"0.012": 1.089226584,
			"0.013": 0.95661828627,
			"0.014": 1.97024374909,
			"0.015": 4.21739764805,
			"0.016": 5.95814165211,
			"0.017": 1.43051149253,
			"0.018": 0.0,
			"0.019": 0.0,
			"0.02": 0.0,
			"0.021": 0.0,
			"0.022": 0.0,
			"0.023": 0.0,
			"0.024": 0.0,
			"0.025": 0.0
		}
	}
}
