{
	 "smiles": "CCS(=O)(=O)C(C)(C)S(=O)(=O)CC", 
	 "Tm": 399.15, 
	 "num_atms": 29, 
	 "gaussian": { 
		 "optdone": 1, 
		 "sigma_profile": "yes", 
		 "theory": "DFT", 
		 "functional": "B3LYP", 
		 "basiset": "6-31G**", 
		 "properties": { 
			 "R2extent": 3018.6048, 
			 "electric_dipole_moment_norm": 0.160717298384, 
			 "electric_quadrupole_moment_norm": 16.9819535516, 
			 "total_energy": -1373.55117382, 
			 "HOMO_LUMO_gap": 0.30338, 
			 "cosmo_polarized_energy": -16.06, 
			 "cosmo_cavitation_energy": 31.54, 
			 "cosmo_dispersion_energy": -23.08, 
			 "cosmo_repulsion_energy": 1.7, 
			 "cosmo_total_nonelectrostatic_energy": 10.17, 
			 "SMD_solvation_energy": 4.49 
		},
		"coords": [
			{
				"x": -2.2622331431,
				"y": -0.0522365507,
				"z": -2.7356325797,
				"element": "C" 
			},
			{
				"x": -1.7583021016,
				"y": 0.9502032707,
				"z": -1.703106053,
				"element": "C" 
			},
			{
				"x": 0.0479195664,
				"y": 0.8982659689,
				"z": -1.4090590903,
				"element": "S" 
			},
			{
				"x": 0.437291947,
				"y": 2.2282064643,
				"z": -0.8962742436,
				"element": "O" 
			},
			{
				"x": 0.70665348,
				"y": 0.3552299298,
				"z": -2.6110527208,
				"element": "O" 
			},
			{
				"x": 0.4338736436,
				"y": -0.3332749256,
				"z": -0.0457612216,
				"element": "C" 
			},
			{
				"x": -0.1896197568,
				"y": -1.6974259604,
				"z": -0.3579468471,
				"element": "C" 
			},
			{
				"x": 1.9631247443,
				"y": -0.4086927123,
				"z": 0.0288853688,
				"element": "C" 
			},
			{
				"x": -0.2682391578,
				"y": 0.1812393028,
				"z": 1.6153884924,
				"element": "S" 
			},
			{
				"x": 0.0872064389,
				"y": -0.9135636887,
				"z": 2.5369976956,
				"element": "O" 
			},
			{
				"x": -1.6916516984,
				"y": 0.5200216467,
				"z": 1.4049796354,
				"element": "O" 
			},
			{
				"x": 0.6011530661,
				"y": 1.6843493149,
				"z": 2.1659452725,
				"element": "C" 
			},
			{
				"x": -0.0183314803,
				"y": 2.1689369007,
				"z": 3.4773703862,
				"element": "C" 
			},
			{
				"x": -1.6802016952,
				"y": 0.0085903665,
				"z": -3.6574110119,
				"element": "H" 
			},
			{
				"x": -2.2220100903,
				"y": -1.0804334428,
				"z": -2.3703360968,
				"element": "H" 
			},
			{
				"x": -3.3066495765,
				"y": 0.1791190143,
				"z": -2.966943159,
				"element": "H" 
			},
			{
				"x": -2.2295317639,
				"y": 0.8599192064,
				"z": -0.721987364,
				"element": "H" 
			},
			{
				"x": -1.8789794409,
				"y": 1.9819287948,
				"z": -2.0482169436,
				"element": "H" 
			},
			{
				"x": 0.1602577625,
				"y": -2.4277931159,
				"z": 0.374835752,
				"element": "H" 
			},
			{
				"x": 0.1245606835,
				"y": -2.0131597009,
				"z": -1.3558310796,
				"element": "H" 
			},
			{
				"x": -1.2804570447,
				"y": -1.6689369183,
				"z": -0.3116318436,
				"element": "H" 
			},
			{
				"x": 2.4168727318,
				"y": 0.5764208697,
				"z": 0.1574882288,
				"element": "H" 
			},
			{
				"x": 2.2470151701,
				"y": -1.0532770336,
				"z": 0.8648125721,
				"element": "H" 
			},
			{
				"x": 2.3465425165,
				"y": -0.8388603994,
				"z": -0.8989010461,
				"element": "H" 
			},
			{
				"x": 0.5115104262,
				"y": 2.4085910751,
				"z": 1.3550708251,
				"element": "H" 
			},
			{
				"x": 1.6492390001,
				"y": 1.402763918,
				"z": 2.2905152563,
				"element": "H" 
			},
			{
				"x": 0.5112026134,
				"y": 3.067462392,
				"z": 3.8063259821,
				"element": "H" 
			},
			{
				"x": 0.0667395998,
				"y": 1.4104526153,
				"z": 4.2592990202,
				"element": "H" 
			},
			{
				"x": -1.0731564406,
				"y": 2.4175533974,
				"z": 3.3415768131,
				"element": "H" 
			}
		],
		 "valence_orbital": [ 
			{
				"type": "occ",
				"energy": -0.31977,
				"method": "rhf"
			},
			{
				"type": "occ",
				"energy": -0.30996,
				"method": "rhf"
			},
			{
				"type": "occ",
				"energy": -0.30443,
				"method": "rhf"
			},
			{
				"type": "occ",
				"energy": -0.2934,
				"method": "rhf"
			},
			{
				"type": "occ",
				"energy": -0.28308,
				"method": "rhf"
			},
			{
				"type": "unocc",
				"energy": 0.0203,
				"method": "rhf"
			},
			{
				"type": "unocc",
				"energy": 0.02543,
				"method": "rhf"
			},
			{
				"type": "unocc",
				"energy": 0.04357,
				"method": "rhf"
			},
			{
				"type": "unocc",
				"energy": 0.06028,
				"method": "rhf"
			},
			{
				"type": "unocc",
				"energy": 0.06757,
				"method": "rhf"
			}
		],
		"cosmo_sigma_profile": { 
			"-0.025": 0.0,
			"-0.024": 0.0,
			"-0.023": 0.0,
			"-0.022": 0.0,
			"-0.021": 0.0,
			"-0.02": 0.0,
			"-0.019": 0.0,
			"-0.018": 0.0,
			"-0.017": 0.0,
			"-0.016": 0.0,
			"-0.015": 0.0,
			"-0.014": 0.0,
			"-0.013": 0.0,
			"-0.012": 0.0,
			"-0.011": 0.0,
			"-0.01": 0.0,
			"-0.009": 0.42824810292,
			"-0.008": 5.17196395683,
			"-0.007": 5.68914008358,
			"-0.006": 12.5798311801,
			"-0.005": 26.8412995036,
			"-0.004": 30.2172501885,
			"-0.003": 27.2415084798,
			"-0.002": 24.473584933,
			"-0.001": 20.6336318603,
			"0.0": 12.8012620116,
			"0.001": 6.8609911301,
			"0.002": 5.98978995983,
			"0.003": 5.81094758227,
			"0.004": 4.85905321675,
			"0.005": 5.31444952845,
			"0.006": 4.62794266229,
			"0.007": 4.31953930275,
			"0.008": 5.5187834813,
			"0.009": 7.66790344926,
			"0.01": 10.3678218743,
			"0.011": 13.1614674376,
			"0.012": 5.75997608784,
			"0.013": 0.0,
			"0.014": 0.0,
			"0.015": 0.0,
			"0.016": 0.0,
			"0.017": 0.0,
			"0.018": 0.0,
			"0.019": 0.0,
			"0.02": 0.0,
			"0.021": 0.0,
			"0.022": 0.0,
			"0.023": 0.0,
			"0.024": 0.0,
			"0.025": 0.0
		}
	}
}
