{
	 "smiles": "COC1=CC(=CC=C1F)C(O)=O", 
	 "Tm": 480.15, 
	 "num_atms": 19, 
	 "gaussian": { 
		 "optdone": 1, 
		 "sigma_profile": "yes", 
		 "theory": "DFT", 
		 "functional": "B3LYP", 
		 "basiset": "6-31G**", 
		 "properties": { 
			 "R2extent": 2791.6249, 
			 "electric_dipole_moment_norm": 4.71238597846, 
			 "electric_quadrupole_moment_norm": 14.438468745, 
			 "total_energy": -634.563253045, 
			 "HOMO_LUMO_gap": 0.19399, 
			 "cosmo_polarized_energy": -14.38, 
			 "cosmo_cavitation_energy": 24.11, 
			 "cosmo_dispersion_energy": -17.82, 
			 "cosmo_repulsion_energy": 1.4, 
			 "cosmo_total_nonelectrostatic_energy": 7.69, 
			 "SMD_solvation_energy": 6.58 
		},
		"coords": [
			{
				"x": -3.6573312672,
				"y": 2.6189303705,
				"z": 0.6781568893,
				"element": "C" 
			},
			{
				"x": -2.2724746983,
				"y": 2.292953971,
				"z": 0.5172047948,
				"element": "O" 
			},
			{
				"x": -1.8919593754,
				"y": 1.0126443519,
				"z": 0.2745887062,
				"element": "C" 
			},
			{
				"x": -0.6872396319,
				"y": 0.8361003624,
				"z": -0.4120934466,
				"element": "C" 
			},
			{
				"x": -0.1727147157,
				"y": -0.4371046255,
				"z": -0.6713175402,
				"element": "C" 
			},
			{
				"x": -0.8942854118,
				"y": -1.5727759579,
				"z": -0.2739268402,
				"element": "C" 
			},
			{
				"x": -2.1002778685,
				"y": -1.4182933354,
				"z": 0.4037643772,
				"element": "C" 
			},
			{
				"x": -2.5765471447,
				"y": -0.1443206803,
				"z": 0.6864832016,
				"element": "C" 
			},
			{
				"x": -3.7325521966,
				"y": -0.0369348615,
				"z": 1.3804080139,
				"element": "F" 
			},
			{
				"x": 1.1253176764,
				"y": -0.5153734165,
				"z": -1.4179475038,
				"element": "C" 
			},
			{
				"x": 1.820955073,
				"y": -1.6798008081,
				"z": -1.3058502494,
				"element": "O" 
			},
			{
				"x": 1.5622522049,
				"y": 0.3864939141,
				"z": -2.092591281,
				"element": "O" 
			},
			{
				"x": -4.2670696152,
				"y": 2.1603761021,
				"z": -0.1075697468,
				"element": "H" 
			},
			{
				"x": -4.0350982705,
				"y": 2.311973634,
				"z": 1.6560048622,
				"element": "H" 
			},
			{
				"x": -3.7085230968,
				"y": 3.70508634,
				"z": 0.5880261581,
				"element": "H" 
			},
			{
				"x": -0.1437508817,
				"y": 1.7120581629,
				"z": -0.747236123,
				"element": "H" 
			},
			{
				"x": -0.5545381826,
				"y": -2.574464998,
				"z": -0.5207462632,
				"element": "H" 
			},
			{
				"x": -2.6873347565,
				"y": -2.2710924594,
				"z": 0.7272927317,
				"element": "H" 
			},
			{
				"x": 1.441372159,
				"y": -2.2276560662,
				"z": -0.6050507408,
				"element": "H" 
			}
		],
		 "valence_orbital": [ 
			{
				"type": "occ",
				"energy": -0.32676,
				"method": "rhf"
			},
			{
				"type": "occ",
				"energy": -0.31614,
				"method": "rhf"
			},
			{
				"type": "occ",
				"energy": -0.27794,
				"method": "rhf"
			},
			{
				"type": "occ",
				"energy": -0.26452,
				"method": "rhf"
			},
			{
				"type": "occ",
				"energy": -0.24252,
				"method": "rhf"
			},
			{
				"type": "unocc",
				"energy": -0.04853,
				"method": "rhf"
			},
			{
				"type": "unocc",
				"energy": -0.02369,
				"method": "rhf"
			},
			{
				"type": "unocc",
				"energy": 0.04721,
				"method": "rhf"
			},
			{
				"type": "unocc",
				"energy": 0.05799,
				"method": "rhf"
			},
			{
				"type": "unocc",
				"energy": 0.07822,
				"method": "rhf"
			}
		],
		"cosmo_sigma_profile": { 
			"-0.025": 0.0,
			"-0.024": 0.0,
			"-0.023": 0.0,
			"-0.022": 0.0,
			"-0.021": 0.0,
			"-0.02": 0.0,
			"-0.019": 0.165956172515,
			"-0.018": 1.01304772316,
			"-0.017": 0.79340476119,
			"-0.016": 0.921825408503,
			"-0.015": 0.650933231121,
			"-0.014": 1.28152621281,
			"-0.013": 1.00469834585,
			"-0.012": 1.56565862279,
			"-0.011": 1.10623039627,
			"-0.01": 1.17760478923,
			"-0.009": 1.47752912154,
			"-0.008": 3.31869174413,
			"-0.007": 4.0273461075,
			"-0.006": 9.3222433628,
			"-0.005": 11.1949312317,
			"-0.004": 13.3158583093,
			"-0.003": 14.669298166,
			"-0.002": 10.8195119427,
			"-0.001": 13.3566294803,
			"0.0": 14.2773345444,
			"0.001": 15.7829059923,
			"0.002": 16.5430393133,
			"0.003": 10.8234620386,
			"0.004": 7.08107548439,
			"0.005": 4.10329442367,
			"0.006": 4.26072546608,
			"0.007": 3.19972919956,
			"0.008": 3.97818056155,
			"0.009": 4.55859120251,
			"0.01": 5.89334744401,
			"0.011": 5.18694097784,
			"0.012": 4.8376659668,
			"0.013": 1.30590367684,
			"0.014": 0.0138654108061,
			"0.015": 0.0,
			"0.016": 0.0,
			"0.017": 0.0,
			"0.018": 0.0,
			"0.019": 0.0,
			"0.02": 0.0,
			"0.021": 0.0,
			"0.022": 0.0,
			"0.023": 0.0,
			"0.024": 0.0,
			"0.025": 0.0
		}
	}
}
