{
	 "smiles": "NC1=CC(=CC(=C1O)[N+]([O-])=O)[N+]([O-])=O", 
	 "Tm": 442.15, 
	 "num_atms": 19, 
	 "gaussian": { 
		 "optdone": 1, 
		 "sigma_profile": "yes", 
		 "theory": "DFT", 
		 "functional": "B3LYP", 
		 "basiset": "6-31G**", 
		 "properties": { 
			 "R2extent": 3324.5406, 
			 "electric_dipole_moment_norm": 7.02889818464, 
			 "electric_quadrupole_moment_norm": 15.8788421288, 
			 "total_energy": -771.813064003, 
			 "HOMO_LUMO_gap": 0.1718, 
			 "cosmo_polarized_energy": -19.88, 
			 "cosmo_cavitation_energy": 25.3, 
			 "cosmo_dispersion_energy": -18.83, 
			 "cosmo_repulsion_energy": 1.49, 
			 "cosmo_total_nonelectrostatic_energy": 7.96, 
			 "SMD_solvation_energy": 9.68 
		},
		"coords": [
			{
				"x": 1.4533415494,
				"y": 0.1536969146,
				"z": -1.5047076704,
				"element": "N" 
			},
			{
				"x": 0.6284805629,
				"y": 0.2857554446,
				"z": -0.3341219282,
				"element": "C" 
			},
			{
				"x": 0.9960278369,
				"y": 0.9170941242,
				"z": 0.838798356,
				"element": "C" 
			},
			{
				"x": 0.0774064125,
				"y": 0.980183824,
				"z": 1.8929528615,
				"element": "C" 
			},
			{
				"x": -1.1873479594,
				"y": 0.4230461619,
				"z": 1.7905539879,
				"element": "C" 
			},
			{
				"x": -1.5588808011,
				"y": -0.2178929991,
				"z": 0.6109117965,
				"element": "C" 
			},
			{
				"x": -0.6643529241,
				"y": -0.2974766829,
				"z": -0.4793439645,
				"element": "C" 
			},
			{
				"x": -0.9556740795,
				"y": -0.8679312348,
				"z": -1.6424228939,
				"element": "O" 
			},
			{
				"x": -2.9097892635,
				"y": -0.7963091166,
				"z": 0.5572425192,
				"element": "N" 
			},
			{
				"x": -3.1990971717,
				"y": -1.4962735287,
				"z": -0.4073665312,
				"element": "O" 
			},
			{
				"x": -3.6634127605,
				"y": -0.5419739678,
				"z": 1.498155487,
				"element": "O" 
			},
			{
				"x": 0.4668728697,
				"y": 1.6506407801,
				"z": 3.135794082,
				"element": "N" 
			},
			{
				"x": 1.5979475217,
				"y": 2.1377941213,
				"z": 3.1839927279,
				"element": "O" 
			},
			{
				"x": -0.3551016187,
				"y": 1.6855415233,
				"z": 4.0492378198,
				"element": "O" 
			},
			{
				"x": 2.2545612759,
				"y": -0.4508660423,
				"z": -1.3419549873,
				"element": "H" 
			},
			{
				"x": 1.7982586688,
				"y": 1.0510053527,
				"z": -1.8334235319,
				"element": "H" 
			},
			{
				"x": 1.9758401741,
				"y": 1.3638713443,
				"z": 0.9610294007,
				"element": "H" 
			},
			{
				"x": -1.8890210636,
				"y": 0.4812609083,
				"z": 2.6115308494,
				"element": "H" 
			},
			{
				"x": -0.14245923,
				"y": -0.716566927,
				"z": -2.1830583806,
				"element": "H" 
			}
		],
		 "valence_orbital": [ 
			{
				"type": "occ",
				"energy": -0.30974,
				"method": "rhf"
			},
			{
				"type": "occ",
				"energy": -0.3048,
				"method": "rhf"
			},
			{
				"type": "occ",
				"energy": -0.30093,
				"method": "rhf"
			},
			{
				"type": "occ",
				"energy": -0.29234,
				"method": "rhf"
			},
			{
				"type": "occ",
				"energy": -0.27119,
				"method": "rhf"
			},
			{
				"type": "unocc",
				"energy": -0.09939,
				"method": "rhf"
			},
			{
				"type": "unocc",
				"energy": -0.09566,
				"method": "rhf"
			},
			{
				"type": "unocc",
				"energy": -0.03206,
				"method": "rhf"
			},
			{
				"type": "unocc",
				"energy": 0.00103,
				"method": "rhf"
			},
			{
				"type": "unocc",
				"energy": 0.03497,
				"method": "rhf"
			}
		],
		"cosmo_sigma_profile": { 
			"-0.025": 0.0,
			"-0.024": 0.0,
			"-0.023": 0.0,
			"-0.022": 0.0,
			"-0.021": 0.0,
			"-0.02": 0.0,
			"-0.019": 0.0,
			"-0.018": 0.0,
			"-0.017": 0.0,
			"-0.016": 0.0,
			"-0.015": 0.0,
			"-0.014": 0.42406473553,
			"-0.013": 3.12757590145,
			"-0.012": 3.74017862414,
			"-0.011": 3.72760191871,
			"-0.01": 4.02464098956,
			"-0.009": 4.50477218927,
			"-0.008": 6.07858322193,
			"-0.007": 6.25531006972,
			"-0.006": 8.38009426147,
			"-0.005": 10.6664820076,
			"-0.004": 12.757733823,
			"-0.003": 18.2880374127,
			"-0.002": 15.8730201492,
			"-0.001": 12.1036711098,
			"0.0": 5.63848185619,
			"0.001": 4.4144649308,
			"0.002": 5.98198868794,
			"0.003": 5.03281723275,
			"0.004": 6.44274963763,
			"0.005": 6.73607861574,
			"0.006": 7.97733269843,
			"0.007": 16.1237696499,
			"0.008": 15.1387210783,
			"0.009": 10.6780270466,
			"0.01": 5.67857270892,
			"0.011": 1.4434339661,
			"0.012": 1.36695627131,
			"0.013": 0.0931769452793,
			"0.014": 0.0,
			"0.015": 0.0,
			"0.016": 0.0,
			"0.017": 0.0,
			"0.018": 0.0,
			"0.019": 0.0,
			"0.02": 0.0,
			"0.021": 0.0,
			"0.022": 0.0,
			"0.023": 0.0,
			"0.024": 0.0,
			"0.025": 0.0
		}
	}
}
