{
	 "smiles": "COC(=O)CNC1=CC=CC=C1", 
	 "Tm": 319.15, 
	 "num_atms": 23, 
	 "gaussian": { 
		 "optdone": 1, 
		 "sigma_profile": "yes", 
		 "theory": "DFT", 
		 "functional": "B3LYP", 
		 "basiset": "6-31G**", 
		 "properties": { 
			 "R2extent": 2418.9644, 
			 "electric_dipole_moment_norm": 2.38657343696, 
			 "electric_quadrupole_moment_norm": 6.94383658362, 
			 "total_energy": -554.788206113, 
			 "HOMO_LUMO_gap": 0.19669, 
			 "cosmo_polarized_energy": -11.1, 
			 "cosmo_cavitation_energy": 26.99, 
			 "cosmo_dispersion_energy": -19.16, 
			 "cosmo_repulsion_energy": 1.56, 
			 "cosmo_total_nonelectrostatic_energy": 9.4, 
			 "SMD_solvation_energy": 5.2 
		},
		"coords": [
			{
				"x": -1.6234699587,
				"y": -0.3992628165,
				"z": -2.4558943744,
				"element": "C" 
			},
			{
				"x": -1.2352047887,
				"y": -0.9400075173,
				"z": -1.1809488212,
				"element": "O" 
			},
			{
				"x": 0.0148866166,
				"y": -1.4407040711,
				"z": -1.1242283569,
				"element": "C" 
			},
			{
				"x": 0.7751429113,
				"y": -1.4833309596,
				"z": -2.0661662613,
				"element": "O" 
			},
			{
				"x": 0.3335547851,
				"y": -2.0011365386,
				"z": 0.2673131059,
				"element": "C" 
			},
			{
				"x": -0.2499318395,
				"y": -1.3180847527,
				"z": 1.3974779028,
				"element": "N" 
			},
			{
				"x": 0.0884391993,
				"y": 0.0074751974,
				"z": 1.6980958687,
				"element": "C" 
			},
			{
				"x": -0.701158983,
				"y": 0.7165373871,
				"z": 2.6236623793,
				"element": "C" 
			},
			{
				"x": -0.3732375211,
				"y": 2.0175557116,
				"z": 2.9878536613,
				"element": "C" 
			},
			{
				"x": 0.7507265527,
				"y": 2.6483006765,
				"z": 2.4451828809,
				"element": "C" 
			},
			{
				"x": 1.5345080386,
				"y": 1.9515265278,
				"z": 1.527097635,
				"element": "C" 
			},
			{
				"x": 1.2126329414,
				"y": 0.646811207,
				"z": 1.1471410275,
				"element": "C" 
			},
			{
				"x": -0.9568417241,
				"y": 0.4176494547,
				"z": -2.7420109242,
				"element": "H" 
			},
			{
				"x": -1.5877627279,
				"y": -1.1719775499,
				"z": -3.2279048726,
				"element": "H" 
			},
			{
				"x": -2.6416415062,
				"y": -0.0340432764,
				"z": -2.3238842464,
				"element": "H" 
			},
			{
				"x": 1.4225190007,
				"y": -2.0373932926,
				"z": 0.3524777362,
				"element": "H" 
			},
			{
				"x": -0.012202265,
				"y": -3.0415215823,
				"z": 0.2807071903,
				"element": "H" 
			},
			{
				"x": -1.2331908379,
				"y": -1.5147246853,
				"z": 1.5239331516,
				"element": "H" 
			},
			{
				"x": -1.5715211496,
				"y": 0.2313596882,
				"z": 3.0598039877,
				"element": "H" 
			},
			{
				"x": -1.0005046189,
				"y": 2.5426379191,
				"z": 3.7032068547,
				"element": "H" 
			},
			{
				"x": 1.0059377681,
				"y": 3.6636597947,
				"z": 2.731701467,
				"element": "H" 
			},
			{
				"x": 2.4083472245,
				"y": 2.4255033286,
				"z": 1.088213725,
				"element": "H" 
			},
			{
				"x": 1.8358728824,
				"y": 0.1395701498,
				"z": 0.4186692831,
				"element": "H" 
			}
		],
		 "valence_orbital": [ 
			{
				"type": "occ",
				"energy": -0.3095,
				"method": "rhf"
			},
			{
				"type": "occ",
				"energy": -0.30494,
				"method": "rhf"
			},
			{
				"type": "occ",
				"energy": -0.27117,
				"method": "rhf"
			},
			{
				"type": "occ",
				"energy": -0.24334,
				"method": "rhf"
			},
			{
				"type": "occ",
				"energy": -0.19822,
				"method": "rhf"
			},
			{
				"type": "unocc",
				"energy": -0.00153,
				"method": "rhf"
			},
			{
				"type": "unocc",
				"energy": 0.01315,
				"method": "rhf"
			},
			{
				"type": "unocc",
				"energy": 0.02016,
				"method": "rhf"
			},
			{
				"type": "unocc",
				"energy": 0.08345,
				"method": "rhf"
			},
			{
				"type": "unocc",
				"energy": 0.10195,
				"method": "rhf"
			}
		],
		"cosmo_sigma_profile": { 
			"-0.025": 0.0,
			"-0.024": 0.0,
			"-0.023": 0.0,
			"-0.022": 0.0,
			"-0.021": 0.0,
			"-0.02": 0.0,
			"-0.019": 0.0,
			"-0.018": 0.0,
			"-0.017": 0.0,
			"-0.016": 0.0,
			"-0.015": 0.0,
			"-0.014": 0.0,
			"-0.013": 0.459920298206,
			"-0.012": 0.962140049829,
			"-0.011": 1.47754725179,
			"-0.01": 1.19856155018,
			"-0.009": 1.40834797547,
			"-0.008": 4.55702072068,
			"-0.007": 5.58766835713,
			"-0.006": 11.1267645542,
			"-0.005": 18.780704563,
			"-0.004": 20.5770106637,
			"-0.003": 21.2642119761,
			"-0.002": 14.8056323737,
			"-0.001": 13.0696344355,
			"0.0": 8.77841353799,
			"0.001": 8.11111823797,
			"0.002": 10.6739258652,
			"0.003": 9.01327932388,
			"0.004": 9.81606780415,
			"0.005": 12.0483997318,
			"0.006": 13.3723252503,
			"0.007": 10.2650414239,
			"0.008": 3.16582018055,
			"0.009": 1.63640412776,
			"0.01": 2.6268918004,
			"0.011": 3.36868506937,
			"0.012": 4.91315813573,
			"0.013": 0.859203483456,
			"0.014": 0.0,
			"0.015": 0.0,
			"0.016": 0.0,
			"0.017": 0.0,
			"0.018": 0.0,
			"0.019": 0.0,
			"0.02": 0.0,
			"0.021": 0.0,
			"0.022": 0.0,
			"0.023": 0.0,
			"0.024": 0.0,
			"0.025": 0.0
		}
	}
}
