{
	 "smiles": "ClC1=CCS(=O)(=O)C1", 
	 "Tm": 364.15, 
	 "num_atms": 13, 
	 "gaussian": { 
		 "optdone": 1, 
		 "sigma_profile": "yes", 
		 "theory": "DFT", 
		 "functional": "B3LYP", 
		 "basiset": "6-31G**", 
		 "properties": { 
			 "R2extent": 2497.508, 
			 "electric_dipole_moment_norm": 3.54758402437, 
			 "electric_quadrupole_moment_norm": 9.60660129442, 
			 "total_energy": -1164.17647569, 
			 "HOMO_LUMO_gap": 0.25159, 
			 "cosmo_polarized_energy": -13.32, 
			 "cosmo_cavitation_energy": 19.81, 
			 "cosmo_dispersion_energy": -15.76, 
			 "cosmo_repulsion_energy": 1.27, 
			 "cosmo_total_nonelectrostatic_energy": 5.31, 
			 "SMD_solvation_energy": 2.36 
		},
		"coords": [
			{
				"x": -1.3955277078,
				"y": -3.0429629614,
				"z": 3.3449142581,
				"element": "Cl" 
			},
			{
				"x": -1.2271981501,
				"y": -1.5993203175,
				"z": 2.3794556636,
				"element": "C" 
			},
			{
				"x": -2.2305426747,
				"y": -0.7510122497,
				"z": 2.1395228191,
				"element": "C" 
			},
			{
				"x": -1.9118604881,
				"y": 0.442508225,
				"z": 1.2878817526,
				"element": "C" 
			},
			{
				"x": -0.1253063305,
				"y": 0.2659084612,
				"z": 0.8696327747,
				"element": "S" 
			},
			{
				"x": 0.6367952592,
				"y": 1.3361383366,
				"z": 1.5264724734,
				"element": "O" 
			},
			{
				"x": 0.0147713731,
				"y": 0.007534365,
				"z": -0.5695516688,
				"element": "O" 
			},
			{
				"x": 0.1226597396,
				"y": -1.3112730287,
				"z": 1.7957592838,
				"element": "C" 
			},
			{
				"x": -3.2319453841,
				"y": -0.8969635303,
				"z": 2.5295604043,
				"element": "H" 
			},
			{
				"x": -2.0341238066,
				"y": 1.397647154,
				"z": 1.8084106375,
				"element": "H" 
			},
			{
				"x": -2.4682674333,
				"y": 0.4697501177,
				"z": 0.3456221559,
				"element": "H" 
			},
			{
				"x": 0.8937714352,
				"y": -1.1434533372,
				"z": 2.552693913,
				"element": "H" 
			},
			{
				"x": 0.4580741683,
				"y": -2.0729012348,
				"z": 1.086425533,
				"element": "H" 
			}
		],
		 "valence_orbital": [ 
			{
				"type": "occ",
				"energy": -0.32992,
				"method": "rhf"
			},
			{
				"type": "occ",
				"energy": -0.32079,
				"method": "rhf"
			},
			{
				"type": "occ",
				"energy": -0.30706,
				"method": "rhf"
			},
			{
				"type": "occ",
				"energy": -0.29492,
				"method": "rhf"
			},
			{
				"type": "occ",
				"energy": -0.27841,
				"method": "rhf"
			},
			{
				"type": "unocc",
				"energy": -0.02682,
				"method": "rhf"
			},
			{
				"type": "unocc",
				"energy": 0.00151,
				"method": "rhf"
			},
			{
				"type": "unocc",
				"energy": 0.04397,
				"method": "rhf"
			},
			{
				"type": "unocc",
				"energy": 0.05555,
				"method": "rhf"
			},
			{
				"type": "unocc",
				"energy": 0.06424,
				"method": "rhf"
			}
		],
		"cosmo_sigma_profile": { 
			"-0.025": 0.0,
			"-0.024": 0.0,
			"-0.023": 0.0,
			"-0.022": 0.0,
			"-0.021": 0.0,
			"-0.02": 0.0,
			"-0.019": 0.0,
			"-0.018": 0.0,
			"-0.017": 0.0,
			"-0.016": 0.0,
			"-0.015": 0.0,
			"-0.014": 0.0,
			"-0.013": 0.0,
			"-0.012": 0.0,
			"-0.011": 0.0,
			"-0.01": 0.405268941828,
			"-0.009": 7.38417795077,
			"-0.008": 11.0121401731,
			"-0.007": 12.2891769598,
			"-0.006": 12.8330565643,
			"-0.005": 10.1654731254,
			"-0.004": 6.75271349703,
			"-0.003": 6.59065740686,
			"-0.002": 7.3475206544,
			"-0.001": 6.46822957147,
			"0.0": 8.11378826893,
			"0.001": 7.95003142143,
			"0.002": 7.77079684274,
			"0.003": 10.4796724053,
			"0.004": 9.01692091442,
			"0.005": 1.82054446666,
			"0.006": 2.09811639022,
			"0.007": 2.08847762111,
			"0.008": 2.73651541801,
			"0.009": 3.31837424761,
			"0.01": 6.2231604798,
			"0.011": 12.9244647831,
			"0.012": 4.55482152965,
			"0.013": 0.0,
			"0.014": 0.0,
			"0.015": 0.0,
			"0.016": 0.0,
			"0.017": 0.0,
			"0.018": 0.0,
			"0.019": 0.0,
			"0.02": 0.0,
			"0.021": 0.0,
			"0.022": 0.0,
			"0.023": 0.0,
			"0.024": 0.0,
			"0.025": 0.0
		}
	}
}
