{
	 "smiles": "NCC1(CCCCC1)NC1=CC=CC=C1", 
	 "Tm": 335.15, 
	 "num_atms": 35, 
	 "gaussian": { 
		 "optdone": 1, 
		 "sigma_profile": "yes", 
		 "theory": "DFT", 
		 "functional": "B3LYP", 
		 "basiset": "6-31G**", 
		 "properties": { 
			 "R2extent": 4047.8076, 
			 "electric_dipole_moment_norm": 1.27016785111, 
			 "electric_quadrupole_moment_norm": 5.30370744197, 
			 "total_energy": -616.942001358, 
			 "HOMO_LUMO_gap": 0.19639, 
			 "cosmo_polarized_energy": -8.14, 
			 "cosmo_cavitation_energy": 33.58, 
			 "cosmo_dispersion_energy": -24.46, 
			 "cosmo_repulsion_energy": 1.92, 
			 "cosmo_total_nonelectrostatic_energy": 11.03, 
			 "SMD_solvation_energy": 3.61 
		},
		"coords": [
			{
				"x": 1.6526162344,
				"y": -1.7540212639,
				"z": -1.8094966941,
				"element": "N" 
			},
			{
				"x": 0.6812003516,
				"y": -0.6607209444,
				"z": -1.8824339312,
				"element": "C" 
			},
			{
				"x": 0.0220108749,
				"y": -0.3986875287,
				"z": -0.4998802233,
				"element": "C" 
			},
			{
				"x": -0.8727535291,
				"y": 0.874869818,
				"z": -0.5719746487,
				"element": "C" 
			},
			{
				"x": -2.0630199622,
				"y": 0.7984470862,
				"z": 0.3919006792,
				"element": "C" 
			},
			{
				"x": -3.0324724985,
				"y": -0.3398171538,
				"z": 0.0022117222,
				"element": "C" 
			},
			{
				"x": -2.2801385762,
				"y": -1.5211539494,
				"z": -0.6544780005,
				"element": "C" 
			},
			{
				"x": -0.8483683563,
				"y": -1.6313371377,
				"z": -0.1187580377,
				"element": "C" 
			},
			{
				"x": 1.027385938,
				"y": -0.2714351081,
				"z": 0.5750921038,
				"element": "N" 
			},
			{
				"x": 2.2032958259,
				"y": 0.4779850379,
				"z": 0.5629791758,
				"element": "C" 
			},
			{
				"x": 2.4384556263,
				"y": 1.5926207847,
				"z": -0.2689520386,
				"element": "C" 
			},
			{
				"x": 3.6343960274,
				"y": 2.3076213567,
				"z": -0.1777573208,
				"element": "C" 
			},
			{
				"x": 4.6282425041,
				"y": 1.9488863948,
				"z": 0.7307886339,
				"element": "C" 
			},
			{
				"x": 4.405542175,
				"y": 0.8455978954,
				"z": 1.5604234236,
				"element": "C" 
			},
			{
				"x": 3.2216150991,
				"y": 0.1231345554,
				"z": 1.4781798022,
				"element": "C" 
			},
			{
				"x": 1.9191618138,
				"y": -2.0418129064,
				"z": -2.7468806331,
				"element": "H" 
			},
			{
				"x": 2.5022449904,
				"y": -1.4235128732,
				"z": -1.3581646529,
				"element": "H" 
			},
			{
				"x": -0.1139340794,
				"y": -0.9552223751,
				"z": -2.5776969315,
				"element": "H" 
			},
			{
				"x": 1.1003544982,
				"y": 0.2776462485,
				"z": -2.2771436305,
				"element": "H" 
			},
			{
				"x": -1.2422947032,
				"y": 0.9969555127,
				"z": -1.599605268,
				"element": "H" 
			},
			{
				"x": -0.2737111471,
				"y": 1.7609408592,
				"z": -0.3507540012,
				"element": "H" 
			},
			{
				"x": -2.5918570752,
				"y": 1.7575078022,
				"z": 0.4205405134,
				"element": "H" 
			},
			{
				"x": -1.672949152,
				"y": 0.6339132142,
				"z": 1.4035463587,
				"element": "H" 
			},
			{
				"x": -3.5673026026,
				"y": -0.685631084,
				"z": 0.8948744389,
				"element": "H" 
			},
			{
				"x": -3.7979227331,
				"y": 0.036015251,
				"z": -0.6873205304,
				"element": "H" 
			},
			{
				"x": -2.2506903084,
				"y": -1.3880140354,
				"z": -1.7436010398,
				"element": "H" 
			},
			{
				"x": -2.8172194079,
				"y": -2.4606654285,
				"z": -0.4846480088,
				"element": "H" 
			},
			{
				"x": -0.3453065508,
				"y": -2.5317262621,
				"z": -0.4848704757,
				"element": "H" 
			},
			{
				"x": -0.8950391766,
				"y": -1.7057499546,
				"z": 0.9760310303,
				"element": "H" 
			},
			{
				"x": 1.1376485034,
				"y": -1.1329941139,
				"z": 1.0913727681,
				"element": "H" 
			},
			{
				"x": 1.6933753065,
				"y": 1.9135442686,
				"z": -0.9846940034,
				"element": "H" 
			},
			{
				"x": 3.7820591974,
				"y": 3.1613509745,
				"z": -0.8341823485,
				"element": "H" 
			},
			{
				"x": 5.5537247524,
				"y": 2.5123779219,
				"z": 0.7933200165,
				"element": "H" 
			},
			{
				"x": 5.1628664636,
				"y": 0.5404231761,
				"z": 2.2777609786,
				"element": "H" 
			},
			{
				"x": 3.0650836761,
				"y": -0.7315360382,
				"z": 2.1332707733,
				"element": "H" 
			}
		],
		 "valence_orbital": [ 
			{
				"type": "occ",
				"energy": -0.29488,
				"method": "rhf"
			},
			{
				"type": "occ",
				"energy": -0.28172,
				"method": "rhf"
			},
			{
				"type": "occ",
				"energy": -0.24082,
				"method": "rhf"
			},
			{
				"type": "occ",
				"energy": -0.23331,
				"method": "rhf"
			},
			{
				"type": "occ",
				"energy": -0.18876,
				"method": "rhf"
			},
			{
				"type": "unocc",
				"energy": 0.00763,
				"method": "rhf"
			},
			{
				"type": "unocc",
				"energy": 0.02242,
				"method": "rhf"
			},
			{
				"type": "unocc",
				"energy": 0.07754,
				"method": "rhf"
			},
			{
				"type": "unocc",
				"energy": 0.0932,
				"method": "rhf"
			},
			{
				"type": "unocc",
				"energy": 0.09517,
				"method": "rhf"
			}
		],
		"cosmo_sigma_profile": { 
			"-0.025": 0.0,
			"-0.024": 0.0,
			"-0.023": 0.0,
			"-0.022": 0.0,
			"-0.021": 0.0,
			"-0.02": 0.0,
			"-0.019": 0.0,
			"-0.018": 0.0,
			"-0.017": 0.0,
			"-0.016": 0.0,
			"-0.015": 0.0,
			"-0.014": 0.0,
			"-0.013": 0.0,
			"-0.012": 0.0205467989143,
			"-0.011": 0.604373244589,
			"-0.01": 1.94258136893,
			"-0.009": 2.22666620335,
			"-0.008": 2.66835314237,
			"-0.007": 3.60287171815,
			"-0.006": 4.64291889674,
			"-0.005": 10.020635745,
			"-0.004": 13.7109613664,
			"-0.003": 23.3249177599,
			"-0.002": 30.6760561739,
			"-0.001": 35.9368400749,
			"0.0": 35.5468643401,
			"0.001": 27.8343008254,
			"0.002": 12.6496012876,
			"0.003": 8.7832314171,
			"0.004": 8.1287451561,
			"0.005": 8.13626103623,
			"0.006": 11.1301558741,
			"0.007": 8.3540166206,
			"0.008": 4.03944570468,
			"0.009": 1.24976779576,
			"0.01": 1.5113963719,
			"0.011": 1.05449529289,
			"0.012": 0.216556583734,
			"0.013": 0.614882470429,
			"0.014": 0.690116082932,
			"0.015": 0.728686104174,
			"0.016": 0.463353516551,
			"0.017": 0.356552474536,
			"0.018": 0.0162617331318,
			"0.019": 0.0,
			"0.02": 0.0,
			"0.021": 0.0,
			"0.022": 0.0,
			"0.023": 0.0,
			"0.024": 0.0,
			"0.025": 0.0
		}
	}
}
