{
	 "smiles": "CN1C(S)=NC2=C1C=CC(=C2)S(N)(=O)=O", 
	 "Tm": 587.15, 
	 "num_atms": 24, 
	 "gaussian": { 
		 "optdone": 1, 
		 "sigma_profile": "yes", 
		 "theory": "DFT", 
		 "functional": "B3LYP", 
		 "basiset": "6-31G**", 
		 "properties": { 
			 "R2extent": 5332.4604, 
			 "electric_dipole_moment_norm": 8.25415654928, 
			 "electric_quadrupole_moment_norm": 30.6404882035, 
			 "total_energy": -1421.28861474, 
			 "HOMO_LUMO_gap": 0.19541, 
			 "cosmo_polarized_energy": -24.72, 
			 "cosmo_cavitation_energy": 31.39, 
			 "cosmo_dispersion_energy": -24.09, 
			 "cosmo_repulsion_energy": 1.78, 
			 "cosmo_total_nonelectrostatic_energy": 9.08, 
			 "SMD_solvation_energy": 2.62 
		},
		"coords": [
			{
				"x": -0.3628640545,
				"y": 1.9072294766,
				"z": -3.2342199878,
				"element": "C" 
			},
			{
				"x": -0.4218001889,
				"y": 1.3449953737,
				"z": -1.8959764687,
				"element": "N" 
			},
			{
				"x": -1.1182891656,
				"y": 1.8232610429,
				"z": -0.7998596218,
				"element": "C" 
			},
			{
				"x": -2.1059947997,
				"y": 3.2851337185,
				"z": -0.9261795936,
				"element": "S" 
			},
			{
				"x": -0.969223508,
				"y": 1.110603423,
				"z": 0.2883341074,
				"element": "N" 
			},
			{
				"x": -0.1127381939,
				"y": 0.085875877,
				"z": -0.0853535037,
				"element": "C" 
			},
			{
				"x": 0.2504015764,
				"y": 0.217960881,
				"z": -1.4487612269,
				"element": "C" 
			},
			{
				"x": 1.1028364182,
				"y": -0.6803632147,
				"z": -2.0927356533,
				"element": "C" 
			},
			{
				"x": 1.598036451,
				"y": -1.7365603424,
				"z": -1.3324605699,
				"element": "C" 
			},
			{
				"x": 1.2420760586,
				"y": -1.8695050881,
				"z": 0.0237603254,
				"element": "C" 
			},
			{
				"x": 0.3839218807,
				"y": -0.9794914767,
				"z": 0.6688757197,
				"element": "C" 
			},
			{
				"x": 1.9424478345,
				"y": -3.2304271809,
				"z": 0.9660698073,
				"element": "S" 
			},
			{
				"x": 3.3743808421,
				"y": -2.6646354107,
				"z": 1.652853549,
				"element": "N" 
			},
			{
				"x": 1.0498457481,
				"y": -3.4959214001,
				"z": 2.0929008235,
				"element": "O" 
			},
			{
				"x": 2.3501875548,
				"y": -4.2621565047,
				"z": 0.0128180903,
				"element": "O" 
			},
			{
				"x": 0.5285287453,
				"y": 2.5290146535,
				"z": -3.3699230787,
				"element": "H" 
			},
			{
				"x": -1.2514670264,
				"y": 2.5145811463,
				"z": -3.4163333491,
				"element": "H" 
			},
			{
				"x": -0.3495791028,
				"y": 1.0973620877,
				"z": -3.9677390197,
				"element": "H" 
			},
			{
				"x": -2.580984257,
				"y": 3.1510141676,
				"z": 0.3253384164,
				"element": "H" 
			},
			{
				"x": 1.3691189659,
				"y": -0.5768551934,
				"z": -3.1396978246,
				"element": "H" 
			},
			{
				"x": 2.2423671592,
				"y": -2.4831269594,
				"z": -1.7830005316,
				"element": "H" 
			},
			{
				"x": 0.0968462824,
				"y": -1.1211110232,
				"z": 1.7045652818,
				"element": "H" 
			},
			{
				"x": 3.213017311,
				"y": -1.9184951133,
				"z": 2.3225092582,
				"element": "H" 
			},
			{
				"x": 4.0685274685,
				"y": -2.41918294,
				"z": 0.9536150505,
				"element": "H" 
			}
		],
		 "valence_orbital": [ 
			{
				"type": "occ",
				"energy": -0.2973,
				"method": "rhf"
			},
			{
				"type": "occ",
				"energy": -0.29488,
				"method": "rhf"
			},
			{
				"type": "occ",
				"energy": -0.29243,
				"method": "rhf"
			},
			{
				"type": "occ",
				"energy": -0.24703,
				"method": "rhf"
			},
			{
				"type": "occ",
				"energy": -0.2335,
				"method": "rhf"
			},
			{
				"type": "unocc",
				"energy": -0.03809,
				"method": "rhf"
			},
			{
				"type": "unocc",
				"energy": -0.0198,
				"method": "rhf"
			},
			{
				"type": "unocc",
				"energy": -0.00709,
				"method": "rhf"
			},
			{
				"type": "unocc",
				"energy": 0.03187,
				"method": "rhf"
			},
			{
				"type": "unocc",
				"energy": 0.0496,
				"method": "rhf"
			}
		],
		"cosmo_sigma_profile": { 
			"-0.025": 0.0,
			"-0.024": 0.0,
			"-0.023": 0.0,
			"-0.022": 0.0,
			"-0.021": 0.0,
			"-0.02": 0.0,
			"-0.019": 0.0,
			"-0.018": 0.0,
			"-0.017": 0.0,
			"-0.016": 0.0,
			"-0.015": 1.5772159349,
			"-0.014": 2.89316731066,
			"-0.013": 2.49114723713,
			"-0.012": 4.28888906145,
			"-0.011": 3.75599123582,
			"-0.01": 4.10568661022,
			"-0.009": 2.86610985347,
			"-0.008": 6.34965213376,
			"-0.007": 12.0118312631,
			"-0.006": 15.9216161353,
			"-0.005": 16.035422406,
			"-0.004": 16.8240554544,
			"-0.003": 11.612988473,
			"-0.002": 10.3799053651,
			"-0.001": 11.7991374732,
			"0.0": 10.5412472035,
			"0.001": 13.7282065465,
			"0.002": 20.8173222532,
			"0.003": 15.3585429325,
			"0.004": 8.41071014053,
			"0.005": 7.25263462715,
			"0.006": 6.35969231399,
			"0.007": 5.76839927433,
			"0.008": 6.30739952836,
			"0.009": 5.34409030445,
			"0.01": 7.54809017025,
			"0.011": 11.600327876,
			"0.012": 7.94572082401,
			"0.013": 1.62204215552,
			"0.014": 0.805394229179,
			"0.015": 0.78349795282,
			"0.016": 0.312231268254,
			"0.017": 0.0,
			"0.018": 0.0,
			"0.019": 0.0,
			"0.02": 0.0,
			"0.021": 0.0,
			"0.022": 0.0,
			"0.023": 0.0,
			"0.024": 0.0,
			"0.025": 0.0
		}
	}
}
