{
	 "smiles": "N#CC1CCCCC1", 
	 "Tm": 284.15, 
	 "num_atms": 19, 
	 "gaussian": { 
		 "optdone": 1, 
		 "sigma_profile": "yes", 
		 "theory": "DFT", 
		 "functional": "B3LYP", 
		 "basiset": "6-31G**", 
		 "properties": { 
			 "R2extent": 974.0594, 
			 "electric_dipole_moment_norm": 3.95093708125, 
			 "electric_quadrupole_moment_norm": 10.0365383903, 
			 "total_energy": -328.11791436, 
			 "HOMO_LUMO_gap": 0.33769, 
			 "cosmo_polarized_energy": -7.74, 
			 "cosmo_cavitation_energy": 20.7, 
			 "cosmo_dispersion_energy": -15.14, 
			 "cosmo_repulsion_energy": 1.27, 
			 "cosmo_total_nonelectrostatic_energy": 6.83, 
			 "SMD_solvation_energy": 3.99 
		},
		"coords": [
			{
				"x": 2.1043087405,
				"y": -1.1226299219,
				"z": -2.0391574176,
				"element": "N" 
			},
			{
				"x": 1.4219800441,
				"y": -0.282014118,
				"z": -1.6181873944,
				"element": "C" 
			},
			{
				"x": 0.5546597691,
				"y": 0.7794175648,
				"z": -1.08298393,
				"element": "C" 
			},
			{
				"x": -0.9351700078,
				"y": 0.4441340753,
				"z": -1.3323214055,
				"element": "C" 
			},
			{
				"x": -1.3665459812,
				"y": -0.8514631335,
				"z": -0.6102370639,
				"element": "C" 
			},
			{
				"x": -0.6232474929,
				"y": -1.0547616026,
				"z": 0.7335253638,
				"element": "C" 
			},
			{
				"x": -0.1990889542,
				"y": 0.2879710758,
				"z": 1.3434375848,
				"element": "C" 
			},
			{
				"x": 0.8156889869,
				"y": 1.0244296908,
				"z": 0.4403301456,
				"element": "C" 
			},
			{
				"x": 0.8141057391,
				"y": 1.6888125441,
				"z": -1.6380658888,
				"element": "H" 
			},
			{
				"x": -1.5159041433,
				"y": 1.2972466734,
				"z": -0.9626283658,
				"element": "H" 
			},
			{
				"x": -1.1332862032,
				"y": 0.3724757963,
				"z": -2.4061548636,
				"element": "H" 
			},
			{
				"x": -1.1862692998,
				"y": -1.7137000104,
				"z": -1.2605473086,
				"element": "H" 
			},
			{
				"x": -2.4486038599,
				"y": -0.8101811449,
				"z": -0.4412831443,
				"element": "H" 
			},
			{
				"x": -1.2562893011,
				"y": -1.6107613542,
				"z": 1.4331155301,
				"element": "H" 
			},
			{
				"x": 0.2704930537,
				"y": -1.6694987839,
				"z": 0.5725330672,
				"element": "H" 
			},
			{
				"x": -1.0886264542,
				"y": 0.9138458155,
				"z": 1.4915607631,
				"element": "H" 
			},
			{
				"x": 0.2389024888,
				"y": 0.141792022,
				"z": 2.3365837201,
				"element": "H" 
			},
			{
				"x": 1.8353537746,
				"y": 0.7105334504,
				"z": 0.6836719246,
				"element": "H" 
			},
			{
				"x": 0.7672391009,
				"y": 2.1021513612,
				"z": 0.6283086832,
				"element": "H" 
			}
		],
		 "valence_orbital": [ 
			{
				"type": "occ",
				"energy": -0.33369,
				"method": "rhf"
			},
			{
				"type": "occ",
				"energy": -0.32858,
				"method": "rhf"
			},
			{
				"type": "occ",
				"energy": -0.31904,
				"method": "rhf"
			},
			{
				"type": "occ",
				"energy": -0.30525,
				"method": "rhf"
			},
			{
				"type": "occ",
				"energy": -0.3029,
				"method": "rhf"
			},
			{
				"type": "unocc",
				"energy": 0.03479,
				"method": "rhf"
			},
			{
				"type": "unocc",
				"energy": 0.04269,
				"method": "rhf"
			},
			{
				"type": "unocc",
				"energy": 0.07224,
				"method": "rhf"
			},
			{
				"type": "unocc",
				"energy": 0.10403,
				"method": "rhf"
			},
			{
				"type": "unocc",
				"energy": 0.1217,
				"method": "rhf"
			}
		],
		"cosmo_sigma_profile": { 
			"-0.025": 0.0,
			"-0.024": 0.0,
			"-0.023": 0.0,
			"-0.022": 0.0,
			"-0.021": 0.0,
			"-0.02": 0.0,
			"-0.019": 0.0,
			"-0.018": 0.0,
			"-0.017": 0.0,
			"-0.016": 0.0,
			"-0.015": 0.0,
			"-0.014": 0.0,
			"-0.013": 0.0,
			"-0.012": 0.0,
			"-0.011": 0.0,
			"-0.01": 0.0,
			"-0.009": 0.0,
			"-0.008": 0.30716142258,
			"-0.007": 2.97483665796,
			"-0.006": 3.03850381009,
			"-0.005": 3.92665270163,
			"-0.004": 14.9259065584,
			"-0.003": 22.1326535289,
			"-0.002": 27.4120351651,
			"-0.001": 25.4598187656,
			"0.0": 19.422725772,
			"0.001": 10.6905542769,
			"0.002": 2.66354705062,
			"0.003": 1.65517858682,
			"0.004": 1.43663052629,
			"0.005": 1.70270238687,
			"0.006": 2.10864530665,
			"0.007": 2.48665263976,
			"0.008": 2.46998097581,
			"0.009": 3.41263758348,
			"0.01": 3.50499013667,
			"0.011": 3.2747346774,
			"0.012": 2.68336311542,
			"0.013": 2.36513143666,
			"0.014": 1.21302557634,
			"0.015": 0.0,
			"0.016": 0.0,
			"0.017": 0.0,
			"0.018": 0.0,
			"0.019": 0.0,
			"0.02": 0.0,
			"0.021": 0.0,
			"0.022": 0.0,
			"0.023": 0.0,
			"0.024": 0.0,
			"0.025": 0.0
		}
	}
}
