{
	 "smiles": "CCOC(=O)C1=C(C)C(Br)=C(C)N1", 
	 "Tm": 415.15, 
	 "num_atms": 25, 
	 "gaussian": { 
		 "optdone": 1, 
		 "sigma_profile": "yes", 
		 "theory": "DFT", 
		 "functional": "B3LYP", 
		 "basiset": "6-31G**", 
		 "properties": { 
			 "R2extent": 5345.4975, 
			 "electric_dipole_moment_norm": 0.78420364702, 
			 "electric_quadrupole_moment_norm": 13.9689057778, 
			 "total_energy": -3126.82409414, 
			 "HOMO_LUMO_gap": 0.18861, 
			 "cosmo_polarized_energy": -9.06, 
			 "cosmo_cavitation_energy": 31.14, 
			 "cosmo_dispersion_energy": -22.44, 
			 "cosmo_repulsion_energy": 1.81, 
			 "cosmo_total_nonelectrostatic_energy": 10.51, 
			 "SMD_solvation_energy": 5.33 
		},
		"coords": [
			{
				"x": 2.7071411991,
				"y": 1.4141174915,
				"z": -2.5489590857,
				"element": "C" 
			},
			{
				"x": 1.2817913089,
				"y": 0.8970523514,
				"z": -2.5073960012,
				"element": "C" 
			},
			{
				"x": 1.0090170496,
				"y": 0.4857685769,
				"z": -1.1491681678,
				"element": "O" 
			},
			{
				"x": -0.2298762646,
				"y": -0.0068685314,
				"z": -0.9265335926,
				"element": "C" 
			},
			{
				"x": -1.087268629,
				"y": -0.1116643607,
				"z": -1.7935419522,
				"element": "O" 
			},
			{
				"x": -0.446360807,
				"y": -0.4047348726,
				"z": 0.4561554163,
				"element": "C" 
			},
			{
				"x": 0.3349567498,
				"y": -0.3951956975,
				"z": 1.6142816261,
				"element": "C" 
			},
			{
				"x": 1.7494456106,
				"y": 0.0738713959,
				"z": 1.7649507734,
				"element": "C" 
			},
			{
				"x": -0.5033559496,
				"y": -0.9282147945,
				"z": 2.6240554927,
				"element": "C" 
			},
			{
				"x": -0.0462496507,
				"y": -1.1877189502,
				"z": 4.4428401756,
				"element": "Br" 
			},
			{
				"x": -1.7499077732,
				"y": -1.2489225317,
				"z": 2.0923354089,
				"element": "C" 
			},
			{
				"x": -2.9640281991,
				"y": -1.8309614115,
				"z": 2.7365649022,
				"element": "C" 
			},
			{
				"x": -1.6863962917,
				"y": -0.9205629215,
				"z": 0.774934867,
				"element": "N" 
			},
			{
				"x": 2.9548960261,
				"y": 1.7372031246,
				"z": -3.5648708294,
				"element": "H" 
			},
			{
				"x": 3.4153203206,
				"y": 0.6344713298,
				"z": -2.253841216,
				"element": "H" 
			},
			{
				"x": 2.8340049482,
				"y": 2.2673032564,
				"z": -1.8763260981,
				"element": "H" 
			},
			{
				"x": 1.1355430796,
				"y": 0.0405680942,
				"z": -3.1732994932,
				"element": "H" 
			},
			{
				"x": 0.5573028934,
				"y": 1.6646769922,
				"z": -2.7976342931,
				"element": "H" 
			},
			{
				"x": 1.8501807467,
				"y": 1.1283952187,
				"z": 1.4902843891,
				"element": "H" 
			},
			{
				"x": 2.0804736031,
				"y": -0.0481997167,
				"z": 2.798568868,
				"element": "H" 
			},
			{
				"x": 2.4264603367,
				"y": -0.4886553055,
				"z": 1.1147057388,
				"element": "H" 
			},
			{
				"x": -3.7735628617,
				"y": -1.9505609093,
				"z": 2.0110292737,
				"element": "H" 
			},
			{
				"x": -2.7488219936,
				"y": -2.8127879063,
				"z": 3.1714991788,
				"element": "H" 
			},
			{
				"x": -3.3261302378,
				"y": -1.1912063806,
				"z": 3.548383032,
				"element": "H" 
			},
			{
				"x": -2.4143752143,
				"y": -1.0188735418,
				"z": 0.0808815869,
				"element": "H" 
			}
		],
		 "valence_orbital": [ 
			{
				"type": "occ",
				"energy": -0.29611,
				"method": "rhf"
			},
			{
				"type": "occ",
				"energy": -0.28532,
				"method": "rhf"
			},
			{
				"type": "occ",
				"energy": -0.27233,
				"method": "rhf"
			},
			{
				"type": "occ",
				"energy": -0.23668,
				"method": "rhf"
			},
			{
				"type": "occ",
				"energy": -0.21336,
				"method": "rhf"
			},
			{
				"type": "unocc",
				"energy": -0.02475,
				"method": "rhf"
			},
			{
				"type": "unocc",
				"energy": 0.02315,
				"method": "rhf"
			},
			{
				"type": "unocc",
				"energy": 0.05066,
				"method": "rhf"
			},
			{
				"type": "unocc",
				"energy": 0.09095,
				"method": "rhf"
			},
			{
				"type": "unocc",
				"energy": 0.09901,
				"method": "rhf"
			}
		],
		"cosmo_sigma_profile": { 
			"-0.025": 0.0,
			"-0.024": 0.0,
			"-0.023": 0.0,
			"-0.022": 0.0,
			"-0.021": 0.0,
			"-0.02": 0.0,
			"-0.019": 0.0,
			"-0.018": 0.0,
			"-0.017": 0.0,
			"-0.016": 0.0,
			"-0.015": 0.368416191268,
			"-0.014": 1.12896229166,
			"-0.013": 0.891087426026,
			"-0.012": 0.932678141348,
			"-0.011": 1.26531677904,
			"-0.01": 1.04913841756,
			"-0.009": 0.75434641767,
			"-0.008": 1.57565815925,
			"-0.007": 1.45741531814,
			"-0.006": 2.41179628526,
			"-0.005": 10.4478537683,
			"-0.004": 20.4727562955,
			"-0.003": 23.6882574893,
			"-0.002": 25.9893107429,
			"-0.001": 28.5588369121,
			"0.0": 26.7578995284,
			"0.001": 20.2355136558,
			"0.002": 16.8527085999,
			"0.003": 16.9864241976,
			"0.004": 19.3540847903,
			"0.005": 11.2892071142,
			"0.006": 3.13970831469,
			"0.007": 1.44032337147,
			"0.008": 1.52296977723,
			"0.009": 0.713575399885,
			"0.01": 1.27153101331,
			"0.011": 2.55019177179,
			"0.012": 3.56838487327,
			"0.013": 2.27455732892,
			"0.014": 0.0260734609318,
			"0.015": 0.0,
			"0.016": 0.0,
			"0.017": 0.0,
			"0.018": 0.0,
			"0.019": 0.0,
			"0.02": 0.0,
			"0.021": 0.0,
			"0.022": 0.0,
			"0.023": 0.0,
			"0.024": 0.0,
			"0.025": 0.0
		}
	}
}
