{
	 "smiles": "CC(=O)CSC1=C(C=CC=C1)C(O)=O", 
	 "Tm": 432.15, 
	 "num_atms": 24, 
	 "gaussian": { 
		 "optdone": 1, 
		 "sigma_profile": "yes", 
		 "theory": "DFT", 
		 "functional": "B3LYP", 
		 "basiset": "6-31G**", 
		 "properties": { 
			 "R2extent": 3034.9328, 
			 "electric_dipole_moment_norm": 1.41658883237, 
			 "electric_quadrupole_moment_norm": 16.0660268639, 
			 "total_energy": -1010.95477697, 
			 "HOMO_LUMO_gap": 0.1642, 
			 "cosmo_polarized_energy": -14.85, 
			 "cosmo_cavitation_energy": 29.74, 
			 "cosmo_dispersion_energy": -21.17, 
			 "cosmo_repulsion_energy": 1.63, 
			 "cosmo_total_nonelectrostatic_energy": 10.2, 
			 "SMD_solvation_energy": 6.34 
		},
		"coords": [
			{
				"x": -1.3583251184,
				"y": -1.6835121286,
				"z": 2.5331459678,
				"element": "C" 
			},
			{
				"x": -0.1178737996,
				"y": -1.2334348485,
				"z": 1.7936012731,
				"element": "C" 
			},
			{
				"x": 0.5388963316,
				"y": -1.972043292,
				"z": 1.0852982847,
				"element": "O" 
			},
			{
				"x": 0.3205018585,
				"y": 0.2182176773,
				"z": 1.9898616458,
				"element": "C" 
			},
			{
				"x": -0.6123853971,
				"y": 1.4166047028,
				"z": 0.936185842,
				"element": "S" 
			},
			{
				"x": 0.0343610811,
				"y": 1.0230214431,
				"z": -0.6982330058,
				"element": "C" 
			},
			{
				"x": -0.658144042,
				"y": 0.2536964203,
				"z": -1.6608305637,
				"element": "C" 
			},
			{
				"x": -0.1024865203,
				"y": 0.1014916783,
				"z": -2.9426190933,
				"element": "C" 
			},
			{
				"x": 1.1239901951,
				"y": 0.6714134081,
				"z": -3.2696681831,
				"element": "C" 
			},
			{
				"x": 1.8075419434,
				"y": 1.4295063075,
				"z": -2.3198513461,
				"element": "C" 
			},
			{
				"x": 1.2549662204,
				"y": 1.6124704318,
				"z": -1.0534391861,
				"element": "C" 
			},
			{
				"x": -1.9475720533,
				"y": -0.445672902,
				"z": -1.3725148925,
				"element": "C" 
			},
			{
				"x": -2.6728035995,
				"y": -0.6540271371,
				"z": -2.5032244558,
				"element": "O" 
			},
			{
				"x": -2.3438034223,
				"y": -0.8268756343,
				"z": -0.2915316654,
				"element": "O" 
			},
			{
				"x": -1.6215835575,
				"y": -2.695688525,
				"z": 2.2251690875,
				"element": "H" 
			},
			{
				"x": -2.1898505397,
				"y": -1.0062234964,
				"z": 2.322779573,
				"element": "H" 
			},
			{
				"x": -1.1700305524,
				"y": -1.6667485029,
				"z": 3.6141759072,
				"element": "H" 
			},
			{
				"x": 0.128863763,
				"y": 0.5614336356,
				"z": 3.0117019657,
				"element": "H" 
			},
			{
				"x": 1.386547596,
				"y": 0.3009086101,
				"z": 1.768881566,
				"element": "H" 
			},
			{
				"x": -0.6429830028,
				"y": -0.4829021859,
				"z": -3.6774852058,
				"element": "H" 
			},
			{
				"x": 1.5387343458,
				"y": 0.5289198752,
				"z": -4.2628428573,
				"element": "H" 
			},
			{
				"x": 2.7607237039,
				"y": 1.8889415606,
				"z": -2.564678901,
				"element": "H" 
			},
			{
				"x": 1.7663409928,
				"y": 2.2281792545,
				"z": -0.3205972429,
				"element": "H" 
			},
			{
				"x": -3.4567264267,
				"y": -1.1524763524,
				"z": -2.218884514,
				"element": "H" 
			}
		],
		 "valence_orbital": [ 
			{
				"type": "occ",
				"energy": -0.28756,
				"method": "rhf"
			},
			{
				"type": "occ",
				"energy": -0.26775,
				"method": "rhf"
			},
			{
				"type": "occ",
				"energy": -0.26496,
				"method": "rhf"
			},
			{
				"type": "occ",
				"energy": -0.24857,
				"method": "rhf"
			},
			{
				"type": "occ",
				"energy": -0.21928,
				"method": "rhf"
			},
			{
				"type": "unocc",
				"energy": -0.05508,
				"method": "rhf"
			},
			{
				"type": "unocc",
				"energy": -0.0302,
				"method": "rhf"
			},
			{
				"type": "unocc",
				"energy": -0.00873,
				"method": "rhf"
			},
			{
				"type": "unocc",
				"energy": 0.03999,
				"method": "rhf"
			},
			{
				"type": "unocc",
				"energy": 0.04991,
				"method": "rhf"
			}
		],
		"cosmo_sigma_profile": { 
			"-0.025": 0.0,
			"-0.024": 0.0,
			"-0.023": 0.0,
			"-0.022": 0.0,
			"-0.021": 0.0,
			"-0.02": 0.0,
			"-0.019": 0.0406452034498,
			"-0.018": 0.651537266271,
			"-0.017": 0.963316121022,
			"-0.016": 0.669764817058,
			"-0.015": 0.895572352727,
			"-0.014": 0.986713497785,
			"-0.013": 0.535477201081,
			"-0.012": 0.445163950128,
			"-0.011": 0.938787998931,
			"-0.01": 1.17189292207,
			"-0.009": 0.153735611482,
			"-0.008": 2.57709786721,
			"-0.007": 10.3695102019,
			"-0.006": 15.6989204668,
			"-0.005": 16.3934140868,
			"-0.004": 15.5137871508,
			"-0.003": 18.1143629537,
			"-0.002": 15.5175246322,
			"-0.001": 16.7568691767,
			"0.0": 14.9511995277,
			"0.001": 13.1041496303,
			"0.002": 16.4583038496,
			"0.003": 16.796331116,
			"0.004": 9.16548880965,
			"0.005": 7.95286653516,
			"0.006": 7.78996911941,
			"0.007": 7.05641510717,
			"0.008": 6.13368714634,
			"0.009": 5.42378973165,
			"0.01": 4.1439460115,
			"0.011": 4.51908501101,
			"0.012": 4.55882991521,
			"0.013": 1.66193824446,
			"0.014": 0.10360690478,
			"0.015": 0.0,
			"0.016": 0.0,
			"0.017": 0.0,
			"0.018": 0.0,
			"0.019": 0.0,
			"0.02": 0.0,
			"0.021": 0.0,
			"0.022": 0.0,
			"0.023": 0.0,
			"0.024": 0.0,
			"0.025": 0.0
		}
	}
}
