{
	 "smiles": "CCC1=CC=CC=C1CC1=CC=CC=C1N", 
	 "Tm": 308.15, 
	 "num_atms": 33, 
	 "gaussian": { 
		 "optdone": 1, 
		 "sigma_profile": "yes", 
		 "theory": "DFT", 
		 "functional": "B3LYP", 
		 "basiset": "6-31G**", 
		 "properties": { 
			 "R2extent": 4221.0033, 
			 "electric_dipole_moment_norm": 1.33848685462, 
			 "electric_quadrupole_moment_norm": 7.23941211287, 
			 "total_energy": -636.609956778, 
			 "HOMO_LUMO_gap": 0.18826, 
			 "cosmo_polarized_energy": -9.02, 
			 "cosmo_cavitation_energy": 34.03, 
			 "cosmo_dispersion_energy": -23.73, 
			 "cosmo_repulsion_energy": 1.84, 
			 "cosmo_total_nonelectrostatic_energy": 12.14, 
			 "SMD_solvation_energy": 5.2 
		},
		"coords": [
			{
				"x": 0.0263144016,
				"y": -1.3751707162,
				"z": 2.0369651455,
				"element": "C" 
			},
			{
				"x": 0.8296306398,
				"y": -0.0823002527,
				"z": 1.8055055094,
				"element": "C" 
			},
			{
				"x": 0.2803201879,
				"y": 0.7729720097,
				"z": 0.6785703962,
				"element": "C" 
			},
			{
				"x": -0.8475535377,
				"y": 1.5646657445,
				"z": 0.940862855,
				"element": "C" 
			},
			{
				"x": -1.4219775976,
				"y": 2.3826286618,
				"z": -0.0301095487,
				"element": "C" 
			},
			{
				"x": -0.8554208737,
				"y": 2.4321555832,
				"z": -1.3024282989,
				"element": "C" 
			},
			{
				"x": 0.2699461514,
				"y": 1.6562946313,
				"z": -1.5769672937,
				"element": "C" 
			},
			{
				"x": 0.8473560301,
				"y": 0.8122806064,
				"z": -0.6142456269,
				"element": "C" 
			},
			{
				"x": 2.1000945342,
				"y": 0.0287163032,
				"z": -1.0031819171,
				"element": "C" 
			},
			{
				"x": 2.0706029026,
				"y": -1.4925557541,
				"z": -0.930673954,
				"element": "C" 
			},
			{
				"x": 3.0599856365,
				"y": -2.1644741773,
				"z": -0.2027478704,
				"element": "C" 
			},
			{
				"x": 3.1450495534,
				"y": -3.5554500032,
				"z": -0.1580531081,
				"element": "C" 
			},
			{
				"x": 2.2097967708,
				"y": -4.3075806281,
				"z": -0.8703584509,
				"element": "C" 
			},
			{
				"x": 1.2145089374,
				"y": -3.6710294735,
				"z": -1.6034618961,
				"element": "C" 
			},
			{
				"x": 1.1255217297,
				"y": -2.2661570167,
				"z": -1.6500690362,
				"element": "C" 
			},
			{
				"x": 0.0896093057,
				"y": -1.6815525195,
				"z": -2.3662358097,
				"element": "N" 
			},
			{
				"x": 0.0497744125,
				"y": -2.0158348049,
				"z": 1.1519151884,
				"element": "H" 
			},
			{
				"x": 0.4401811055,
				"y": -1.9411312132,
				"z": 2.8782253936,
				"element": "H" 
			},
			{
				"x": -1.0211164188,
				"y": -1.1495569518,
				"z": 2.2633996424,
				"element": "H" 
			},
			{
				"x": 0.8171627223,
				"y": 0.5123435495,
				"z": 2.7278267767,
				"element": "H" 
			},
			{
				"x": 1.8751478505,
				"y": -0.3399515391,
				"z": 1.6194813088,
				"element": "H" 
			},
			{
				"x": -1.2779850304,
				"y": 1.5398862821,
				"z": 1.9397453849,
				"element": "H" 
			},
			{
				"x": -2.2951284935,
				"y": 2.9829238465,
				"z": 0.2093296787,
				"element": "H" 
			},
			{
				"x": -1.2760839213,
				"y": 3.0738187311,
				"z": -2.0714398659,
				"element": "H" 
			},
			{
				"x": 0.7263422915,
				"y": 1.7141710447,
				"z": -2.5639158732,
				"element": "H" 
			},
			{
				"x": 2.938380793,
				"y": 0.3703281254,
				"z": -0.3837706441,
				"element": "H" 
			},
			{
				"x": 2.3604613887,
				"y": 0.3253257118,
				"z": -2.0294215221,
				"element": "H" 
			},
			{
				"x": 3.7928731497,
				"y": -1.5692504484,
				"z": 0.338117235,
				"element": "H" 
			},
			{
				"x": 3.9275822621,
				"y": -4.0399449613,
				"z": 0.4172639709,
				"element": "H" 
			},
			{
				"x": 2.2515678977,
				"y": -5.393284845,
				"z": -0.8564840221,
				"element": "H" 
			},
			{
				"x": 0.4819971603,
				"y": -4.2588934392,
				"z": -2.1521683926,
				"element": "H" 
			},
			{
				"x": -0.3090889574,
				"y": -2.2246260592,
				"z": -3.1161058059,
				"element": "H" 
			},
			{
				"x": 0.1141470156,
				"y": -0.6886660281,
				"z": -2.5312695489,
				"element": "H" 
			}
		],
		 "valence_orbital": [ 
			{
				"type": "occ",
				"energy": -0.29935,
				"method": "rhf"
			},
			{
				"type": "occ",
				"energy": -0.24233,
				"method": "rhf"
			},
			{
				"type": "occ",
				"energy": -0.23714,
				"method": "rhf"
			},
			{
				"type": "occ",
				"energy": -0.23072,
				"method": "rhf"
			},
			{
				"type": "occ",
				"energy": -0.19119,
				"method": "rhf"
			},
			{
				"type": "unocc",
				"energy": -0.00293,
				"method": "rhf"
			},
			{
				"type": "unocc",
				"energy": 0.00029,
				"method": "rhf"
			},
			{
				"type": "unocc",
				"energy": 0.01354,
				"method": "rhf"
			},
			{
				"type": "unocc",
				"energy": 0.02411,
				"method": "rhf"
			},
			{
				"type": "unocc",
				"energy": 0.08804,
				"method": "rhf"
			}
		],
		"cosmo_sigma_profile": { 
			"-0.025": 0.0,
			"-0.024": 0.0,
			"-0.023": 0.0,
			"-0.022": 0.0,
			"-0.021": 0.0,
			"-0.02": 0.0,
			"-0.019": 0.0,
			"-0.018": 0.0,
			"-0.017": 0.0,
			"-0.016": 0.0,
			"-0.015": 0.0,
			"-0.014": 0.0,
			"-0.013": 0.151797565159,
			"-0.012": 1.23272815657,
			"-0.011": 1.33602318466,
			"-0.01": 1.22230359528,
			"-0.009": 2.04756158991,
			"-0.008": 3.12085920782,
			"-0.007": 3.43756500378,
			"-0.006": 5.67175224362,
			"-0.005": 17.0553236134,
			"-0.004": 21.0781659793,
			"-0.003": 25.5057675534,
			"-0.002": 26.2403201446,
			"-0.001": 20.878972555,
			"0.0": 22.4336540887,
			"0.001": 21.5230336219,
			"0.002": 17.27280928,
			"0.003": 15.6147513226,
			"0.004": 15.2941558885,
			"0.005": 16.5983810918,
			"0.006": 15.9991212852,
			"0.007": 8.85268593895,
			"0.008": 2.85540617411,
			"0.009": 1.12778265983,
			"0.01": 0.701846757199,
			"0.011": 0.120410093984,
			"0.012": 0.783033163363,
			"0.013": 0.476950227521,
			"0.014": 0.0,
			"0.015": 0.0,
			"0.016": 0.0,
			"0.017": 0.0,
			"0.018": 0.0,
			"0.019": 0.0,
			"0.02": 0.0,
			"0.021": 0.0,
			"0.022": 0.0,
			"0.023": 0.0,
			"0.024": 0.0,
			"0.025": 0.0
		}
	}
}
