{
	 "smiles": "CN1C(=O)CC(C1=O)C1=CC=CC=C1", 
	 "Tm": 345.15, 
	 "num_atms": 25, 
	 "gaussian": { 
		 "optdone": 1, 
		 "sigma_profile": "yes", 
		 "theory": "DFT", 
		 "functional": "B3LYP", 
		 "basiset": "6-31G**", 
		 "properties": { 
			 "R2extent": 3112.4148, 
			 "electric_dipole_moment_norm": 1.65934809187, 
			 "electric_quadrupole_moment_norm": 16.5637963372, 
			 "total_energy": -631.034869288, 
			 "HOMO_LUMO_gap": 0.22795, 
			 "cosmo_polarized_energy": -13.82, 
			 "cosmo_cavitation_energy": 28.95, 
			 "cosmo_dispersion_energy": -20.57, 
			 "cosmo_repulsion_energy": 1.63, 
			 "cosmo_total_nonelectrostatic_energy": 10.01, 
			 "SMD_solvation_energy": 6.25 
		},
		"coords": [
			{
				"x": -1.3962695724,
				"y": 3.0214976363,
				"z": 2.3435982462,
				"element": "C" 
			},
			{
				"x": -1.2920097866,
				"y": 1.7218425227,
				"z": 1.6991152074,
				"element": "N" 
			},
			{
				"x": -2.3960311807,
				"y": 0.9213502358,
				"z": 1.4026658147,
				"element": "C" 
			},
			{
				"x": -3.5474588537,
				"y": 1.2100782724,
				"z": 1.654381246,
				"element": "O" 
			},
			{
				"x": -1.8834264528,
				"y": -0.3346529965,
				"z": 0.7100936075,
				"element": "C" 
			},
			{
				"x": -0.340287917,
				"y": -0.2361716891,
				"z": 0.7423225185,
				"element": "C" 
			},
			{
				"x": -0.0699628092,
				"y": 1.1578050815,
				"z": 1.3402756634,
				"element": "C" 
			},
			{
				"x": 1.0038854559,
				"y": 1.6943375211,
				"z": 1.5088856218,
				"element": "O" 
			},
			{
				"x": 0.3656255141,
				"y": -0.4542348614,
				"z": -0.5827183943,
				"element": "C" 
			},
			{
				"x": 1.3151098513,
				"y": -1.4714509021,
				"z": -0.7226540214,
				"element": "C" 
			},
			{
				"x": 1.958676133,
				"y": -1.6852455165,
				"z": -1.9432862918,
				"element": "C" 
			},
			{
				"x": 1.6610335418,
				"y": -0.8789737132,
				"z": -3.0416531423,
				"element": "C" 
			},
			{
				"x": 0.7178005416,
				"y": 0.1433118079,
				"z": -2.9117898055,
				"element": "C" 
			},
			{
				"x": 0.0759728205,
				"y": 0.3528684337,
				"z": -1.6924208203,
				"element": "C" 
			},
			{
				"x": -1.0051161088,
				"y": 3.801978069,
				"z": 1.6859364962,
				"element": "H" 
			},
			{
				"x": -2.4511436844,
				"y": 3.1995774493,
				"z": 2.5531878891,
				"element": "H" 
			},
			{
				"x": -0.8184810201,
				"y": 3.0275559267,
				"z": 3.2710816251,
				"element": "H" 
			},
			{
				"x": -2.2767607179,
				"y": -1.2173619428,
				"z": 1.2209475478,
				"element": "H" 
			},
			{
				"x": -2.2769331421,
				"y": -0.3537775272,
				"z": -0.3107023921,
				"element": "H" 
			},
			{
				"x": 0.0658102669,
				"y": -0.9494957301,
				"z": 1.4684642747,
				"element": "H" 
			},
			{
				"x": 1.5540636177,
				"y": -2.101374699,
				"z": 0.1304163173,
				"element": "H" 
			},
			{
				"x": 2.6922673674,
				"y": -2.4812372655,
				"z": -2.0331716096,
				"element": "H" 
			},
			{
				"x": 2.1609666135,
				"y": -1.0427228323,
				"z": -3.9917699728,
				"element": "H" 
			},
			{
				"x": 0.4839476811,
				"y": 0.7801763454,
				"z": -3.7600639145,
				"element": "H" 
			},
			{
				"x": -0.6510781591,
				"y": 1.1569203738,
				"z": -1.603441711,
				"element": "H" 
			}
		],
		 "valence_orbital": [ 
			{
				"type": "occ",
				"energy": -0.2893,
				"method": "rhf"
			},
			{
				"type": "occ",
				"energy": -0.27809,
				"method": "rhf"
			},
			{
				"type": "occ",
				"energy": -0.25837,
				"method": "rhf"
			},
			{
				"type": "occ",
				"energy": -0.25693,
				"method": "rhf"
			},
			{
				"type": "occ",
				"energy": -0.24882,
				"method": "rhf"
			},
			{
				"type": "unocc",
				"energy": -0.02087,
				"method": "rhf"
			},
			{
				"type": "unocc",
				"energy": -0.01214,
				"method": "rhf"
			},
			{
				"type": "unocc",
				"energy": -0.00752,
				"method": "rhf"
			},
			{
				"type": "unocc",
				"energy": 0.02355,
				"method": "rhf"
			},
			{
				"type": "unocc",
				"energy": 0.08821,
				"method": "rhf"
			}
		],
		"cosmo_sigma_profile": { 
			"-0.025": 0.0,
			"-0.024": 0.0,
			"-0.023": 0.0,
			"-0.022": 0.0,
			"-0.021": 0.0,
			"-0.02": 0.0,
			"-0.019": 0.0,
			"-0.018": 0.0,
			"-0.017": 0.0,
			"-0.016": 0.0,
			"-0.015": 0.0,
			"-0.014": 0.0,
			"-0.013": 0.0,
			"-0.012": 0.0,
			"-0.011": 0.0024774160259,
			"-0.01": 0.632001911994,
			"-0.009": 1.50923732758,
			"-0.008": 3.93034133112,
			"-0.007": 11.6690987683,
			"-0.006": 18.1829636556,
			"-0.005": 20.7805762333,
			"-0.004": 22.8290151377,
			"-0.003": 24.3683695666,
			"-0.002": 15.6597942444,
			"-0.001": 10.2447171253,
			"0.0": 9.46682283061,
			"0.001": 9.17879761041,
			"0.002": 9.00746128556,
			"0.003": 9.65346368059,
			"0.004": 9.23314566046,
			"0.005": 12.2785199266,
			"0.006": 9.19123225115,
			"0.007": 2.42553387027,
			"0.008": 3.06705782228,
			"0.009": 4.12578950127,
			"0.01": 3.84353122683,
			"0.011": 7.11357994519,
			"0.012": 9.58207573338,
			"0.013": 2.33880895342,
			"0.014": 0.0,
			"0.015": 0.0,
			"0.016": 0.0,
			"0.017": 0.0,
			"0.018": 0.0,
			"0.019": 0.0,
			"0.02": 0.0,
			"0.021": 0.0,
			"0.022": 0.0,
			"0.023": 0.0,
			"0.024": 0.0,
			"0.025": 0.0
		}
	}
}
