{
	 "smiles": "C(C1=CC=CC=C1)C1=CC=CC2=CC=CC=C12", 
	 "Tm": 332.65, 
	 "num_atms": 31, 
	 "gaussian": { 
		 "optdone": 1, 
		 "sigma_profile": "yes", 
		 "theory": "DFT", 
		 "functional": "B3LYP", 
		 "basiset": "6-31G**", 
		 "properties": { 
			 "R2extent": 4991.9546, 
			 "electric_dipole_moment_norm": 0.0845556621404, 
			 "electric_quadrupole_moment_norm": 6.23815115158, 
			 "total_energy": -656.265211746, 
			 "HOMO_LUMO_gap": 0.17456, 
			 "cosmo_polarized_energy": -6.66, 
			 "cosmo_cavitation_energy": 33.83, 
			 "cosmo_dispersion_energy": -24.07, 
			 "cosmo_repulsion_energy": 1.85, 
			 "cosmo_total_nonelectrostatic_energy": 11.61, 
			 "SMD_solvation_energy": 5.15 
		},
		"coords": [
			{
				"x": 0.0973432239,
				"y": -1.7264956217,
				"z": -2.6657300304,
				"element": "C" 
			},
			{
				"x": 1.1560426281,
				"y": -2.1429769518,
				"z": -1.6500678185,
				"element": "C" 
			},
			{
				"x": 2.5132055948,
				"y": -2.1151794309,
				"z": -1.9972244362,
				"element": "C" 
			},
			{
				"x": 3.4937208656,
				"y": -2.5404989722,
				"z": -1.0990695915,
				"element": "C" 
			},
			{
				"x": 3.129815062,
				"y": -3.000612828,
				"z": 0.1670934316,
				"element": "C" 
			},
			{
				"x": 1.7803475831,
				"y": -3.0310624192,
				"z": 0.524858702,
				"element": "C" 
			},
			{
				"x": 0.8030925512,
				"y": -2.6058689583,
				"z": -0.3756166754,
				"element": "C" 
			},
			{
				"x": -1.1032097756,
				"y": -0.9842249917,
				"z": -2.1089630692,
				"element": "C" 
			},
			{
				"x": -2.335330437,
				"y": -1.6082516698,
				"z": -2.0688928823,
				"element": "C" 
			},
			{
				"x": -3.4890303535,
				"y": -0.9544018683,
				"z": -1.5734865956,
				"element": "C" 
			},
			{
				"x": -3.405883552,
				"y": 0.3399384218,
				"z": -1.12115627,
				"element": "C" 
			},
			{
				"x": -2.1645293279,
				"y": 1.0320360263,
				"z": -1.142189902,
				"element": "C" 
			},
			{
				"x": -2.0604962645,
				"y": 2.3736166108,
				"z": -0.6859186415,
				"element": "C" 
			},
			{
				"x": -0.8565496803,
				"y": 3.0399202494,
				"z": -0.7089646043,
				"element": "C" 
			},
			{
				"x": 0.3018299802,
				"y": 2.3859532022,
				"z": -1.1897507241,
				"element": "C" 
			},
			{
				"x": 0.2353470803,
				"y": 1.0849958027,
				"z": -1.6389177669,
				"element": "C" 
			},
			{
				"x": -0.9922720364,
				"y": 0.3661548862,
				"z": -1.635295011,
				"element": "C" 
			},
			{
				"x": -0.2699524286,
				"y": -2.6273918226,
				"z": -3.1738998143,
				"element": "H" 
			},
			{
				"x": 0.5789139325,
				"y": -1.1239646655,
				"z": -3.4455932422,
				"element": "H" 
			},
			{
				"x": 2.8049112028,
				"y": -1.7580433057,
				"z": -2.9825941739,
				"element": "H" 
			},
			{
				"x": 4.5406418846,
				"y": -2.5083601691,
				"z": -1.3882139297,
				"element": "H" 
			},
			{
				"x": 3.8902075998,
				"y": -3.3292663963,
				"z": 0.8697487599,
				"element": "H" 
			},
			{
				"x": 1.4867715828,
				"y": -3.3843942165,
				"z": 1.5095895995,
				"element": "H" 
			},
			{
				"x": -0.2438068747,
				"y": -2.6250280288,
				"z": -0.0865025806,
				"element": "H" 
			},
			{
				"x": -2.4235979125,
				"y": -2.6285072433,
				"z": -2.4342429763,
				"element": "H" 
			},
			{
				"x": -4.4383283505,
				"y": -1.4821305626,
				"z": -1.5591921711,
				"element": "H" 
			},
			{
				"x": -4.2859628549,
				"y": 0.8540626732,
				"z": -0.7434296691,
				"element": "H" 
			},
			{
				"x": -2.9560089271,
				"y": 2.8668875534,
				"z": -0.3161788704,
				"element": "H" 
			},
			{
				"x": -0.7916856113,
				"y": 4.0655393974,
				"z": -0.3571310392,
				"element": "H" 
			},
			{
				"x": 1.2515423223,
				"y": 2.9131556083,
				"z": -1.2007080633,
				"element": "H" 
			},
			{
				"x": 1.1379112927,
				"y": 0.5949996904,
				"z": -1.986259944,
				"element": "H" 
			}
		],
		 "valence_orbital": [ 
			{
				"type": "occ",
				"energy": -0.27559,
				"method": "rhf"
			},
			{
				"type": "occ",
				"energy": -0.24557,
				"method": "rhf"
			},
			{
				"type": "occ",
				"energy": -0.2413,
				"method": "rhf"
			},
			{
				"type": "occ",
				"energy": -0.23564,
				"method": "rhf"
			},
			{
				"type": "occ",
				"energy": -0.21079,
				"method": "rhf"
			},
			{
				"type": "unocc",
				"energy": -0.03623,
				"method": "rhf"
			},
			{
				"type": "unocc",
				"energy": -0.00815,
				"method": "rhf"
			},
			{
				"type": "unocc",
				"energy": 0.00194,
				"method": "rhf"
			},
			{
				"type": "unocc",
				"energy": 0.00457,
				"method": "rhf"
			},
			{
				"type": "unocc",
				"energy": 0.03671,
				"method": "rhf"
			}
		],
		"cosmo_sigma_profile": { 
			"-0.025": 0.0,
			"-0.024": 0.0,
			"-0.023": 0.0,
			"-0.022": 0.0,
			"-0.021": 0.0,
			"-0.02": 0.0,
			"-0.019": 0.0,
			"-0.018": 0.0,
			"-0.017": 0.0,
			"-0.016": 0.0,
			"-0.015": 0.0,
			"-0.014": 0.0,
			"-0.013": 0.0,
			"-0.012": 0.0,
			"-0.011": 0.0,
			"-0.01": 0.0,
			"-0.009": 0.0,
			"-0.008": 0.0,
			"-0.007": 0.0,
			"-0.006": 7.50683088558,
			"-0.005": 27.7468375331,
			"-0.004": 29.003198817,
			"-0.003": 27.716490413,
			"-0.002": 20.2651985552,
			"-0.001": 20.9672573394,
			"0.0": 15.2974833873,
			"0.001": 17.5966375099,
			"0.002": 17.0446465226,
			"0.003": 17.7392665057,
			"0.004": 27.9628014526,
			"0.005": 26.8354475885,
			"0.006": 12.8285004281,
			"0.007": 2.17557543307,
			"0.008": 0.0,
			"0.009": 0.0,
			"0.01": 0.0,
			"0.011": 0.0,
			"0.012": 0.0,
			"0.013": 0.0,
			"0.014": 0.0,
			"0.015": 0.0,
			"0.016": 0.0,
			"0.017": 0.0,
			"0.018": 0.0,
			"0.019": 0.0,
			"0.02": 0.0,
			"0.021": 0.0,
			"0.022": 0.0,
			"0.023": 0.0,
			"0.024": 0.0,
			"0.025": 0.0
		}
	}
}
