{
	 "smiles": "CN1CC(=O)NC2=C1N=C(Cl)C=C2", 
	 "Tm": 507.15, 
	 "num_atms": 21, 
	 "gaussian": { 
		 "optdone": 1, 
		 "sigma_profile": "yes", 
		 "theory": "DFT", 
		 "functional": "B3LYP", 
		 "basiset": "6-31G**", 
		 "properties": { 
			 "R2extent": 3266.5121, 
			 "electric_dipole_moment_norm": 1.01772058051, 
			 "electric_quadrupole_moment_norm": 21.4592700412, 
			 "total_energy": -1009.36217322, 
			 "HOMO_LUMO_gap": 0.1752, 
			 "cosmo_polarized_energy": -14.01, 
			 "cosmo_cavitation_energy": 26.57, 
			 "cosmo_dispersion_energy": -20.06, 
			 "cosmo_repulsion_energy": 1.59, 
			 "cosmo_total_nonelectrostatic_energy": 8.1, 
			 "SMD_solvation_energy": 3.07 
		},
		"coords": [
			{
				"x": 0.8159559543,
				"y": 1.298189056,
				"z": 2.2400130208,
				"element": "C" 
			},
			{
				"x": 0.8053696074,
				"y": 1.2946542245,
				"z": 0.7839513081,
				"element": "N" 
			},
			{
				"x": 0.050434923,
				"y": 2.3709059315,
				"z": 0.1542619164,
				"element": "C" 
			},
			{
				"x": 0.2752985484,
				"y": 2.4871454066,
				"z": -1.3496655768,
				"element": "C" 
			},
			{
				"x": 0.0880903605,
				"y": 3.5273419233,
				"z": -1.9567720317,
				"element": "O" 
			},
			{
				"x": 0.6529395178,
				"y": 1.3223374731,
				"z": -1.9702708465,
				"element": "N" 
			},
			{
				"x": 0.8614544003,
				"y": 0.1028619265,
				"z": -1.3123695668,
				"element": "C" 
			},
			{
				"x": 0.9335501977,
				"y": 0.0990382208,
				"z": 0.1059013806,
				"element": "C" 
			},
			{
				"x": 1.1728476903,
				"y": -1.0210777678,
				"z": 0.7928474874,
				"element": "N" 
			},
			{
				"x": 1.3546313339,
				"y": -2.1482625662,
				"z": 0.121439599,
				"element": "C" 
			},
			{
				"x": 1.6883478171,
				"y": -3.5854291101,
				"z": 1.0897668416,
				"element": "Cl" 
			},
			{
				"x": 1.2942727017,
				"y": -2.2683913957,
				"z": -1.2607976255,
				"element": "C" 
			},
			{
				"x": 1.0354823091,
				"y": -1.0977317177,
				"z": -1.9837515532,
				"element": "C" 
			},
			{
				"x": -0.169816446,
				"y": 1.0525567321,
				"z": 2.6625465094,
				"element": "H" 
			},
			{
				"x": 1.532578816,
				"y": 0.5611196418,
				"z": 2.5988930337,
				"element": "H" 
			},
			{
				"x": 1.1074225054,
				"y": 2.2940401535,
				"z": 2.5865354877,
				"element": "H" 
			},
			{
				"x": 0.3497407762,
				"y": 3.3268581751,
				"z": 0.5914764477,
				"element": "H" 
			},
			{
				"x": -1.0379287769,
				"y": 2.2686358443,
				"z": 0.3214665852,
				"element": "H" 
			},
			{
				"x": 0.7492071911,
				"y": 1.3744686628,
				"z": -2.9766908351,
				"element": "H" 
			},
			{
				"x": 1.4408709305,
				"y": -3.2209993297,
				"z": -1.7526020163,
				"element": "H" 
			},
			{
				"x": 0.9831496423,
				"y": -1.1247614848,
				"z": -3.0688795657,
				"element": "H" 
			}
		],
		 "valence_orbital": [ 
			{
				"type": "occ",
				"energy": -0.29999,
				"method": "rhf"
			},
			{
				"type": "occ",
				"energy": -0.28338,
				"method": "rhf"
			},
			{
				"type": "occ",
				"energy": -0.27392,
				"method": "rhf"
			},
			{
				"type": "occ",
				"energy": -0.25931,
				"method": "rhf"
			},
			{
				"type": "occ",
				"energy": -0.20818,
				"method": "rhf"
			},
			{
				"type": "unocc",
				"energy": -0.03298,
				"method": "rhf"
			},
			{
				"type": "unocc",
				"energy": -0.01857,
				"method": "rhf"
			},
			{
				"type": "unocc",
				"energy": 0.02128,
				"method": "rhf"
			},
			{
				"type": "unocc",
				"energy": 0.03493,
				"method": "rhf"
			},
			{
				"type": "unocc",
				"energy": 0.07404,
				"method": "rhf"
			}
		],
		"cosmo_sigma_profile": { 
			"-0.025": 0.0,
			"-0.024": 0.0,
			"-0.023": 0.0,
			"-0.022": 0.0,
			"-0.021": 0.0,
			"-0.02": 0.0,
			"-0.019": 0.0,
			"-0.018": 0.0,
			"-0.017": 0.0,
			"-0.016": 0.575410653982,
			"-0.015": 1.20596673658,
			"-0.014": 1.63047884725,
			"-0.013": 0.956236301672,
			"-0.012": 1.16734794118,
			"-0.011": 1.35716454085,
			"-0.01": 1.26492412879,
			"-0.009": 1.75507101061,
			"-0.008": 2.98200209061,
			"-0.007": 9.15051659798,
			"-0.006": 11.9977297815,
			"-0.005": 12.2794830311,
			"-0.004": 13.9438641773,
			"-0.003": 13.5970562582,
			"-0.002": 14.4657204168,
			"-0.001": 13.4433837418,
			"0.0": 14.3734018788,
			"0.001": 17.5563108079,
			"0.002": 15.5148138527,
			"0.003": 12.4197367361,
			"0.004": 10.3096247027,
			"0.005": 12.2193001551,
			"0.006": 5.12454405742,
			"0.007": 4.12512548706,
			"0.008": 2.18175280654,
			"0.009": 2.78516437268,
			"0.01": 2.7495925037,
			"0.011": 2.84205548425,
			"0.012": 4.61510415675,
			"0.013": 4.87507981476,
			"0.014": 0.728754533255,
			"0.015": 0.0,
			"0.016": 0.0,
			"0.017": 0.0,
			"0.018": 0.0,
			"0.019": 0.0,
			"0.02": 0.0,
			"0.021": 0.0,
			"0.022": 0.0,
			"0.023": 0.0,
			"0.024": 0.0,
			"0.025": 0.0
		}
	}
}
