{
	 "smiles": "S=C=NC(C1=CC=CC=C1)(C1=CC=CC=C1)C1=CC=CC=C1", 
	 "Tm": 412.15, 
	 "num_atms": 37, 
	 "gaussian": { 
		 "optdone": 1, 
		 "sigma_profile": "yes", 
		 "theory": "DFT", 
		 "functional": "B3LYP", 
		 "basiset": "6-31G**", 
		 "properties": { 
			 "R2extent": 7037.2837, 
			 "electric_dipole_moment_norm": 3.73793482019, 
			 "electric_quadrupole_moment_norm": 18.0712184412, 
			 "total_energy": -1224.09333978, 
			 "HOMO_LUMO_gap": 0.20874, 
			 "cosmo_polarized_energy": -8.09, 
			 "cosmo_cavitation_energy": 42.59, 
			 "cosmo_dispersion_energy": -28.71, 
			 "cosmo_repulsion_energy": 2.2, 
			 "cosmo_total_nonelectrostatic_energy": 16.08, 
			 "SMD_solvation_energy": 7.02 
		},
		"coords": [
			{
				"x": 1.6400230224,
				"y": 0.9896290101,
				"z": -4.6717024997,
				"element": "S" 
			},
			{
				"x": 1.3097785829,
				"y": 0.3965894221,
				"z": -3.2304914936,
				"element": "C" 
			},
			{
				"x": 1.0759565218,
				"y": -0.1273537492,
				"z": -2.1843651886,
				"element": "N" 
			},
			{
				"x": 0.7366031862,
				"y": -0.0381109574,
				"z": -0.7684002822,
				"element": "C" 
			},
			{
				"x": 0.4169983621,
				"y": -1.4673491423,
				"z": -0.275301684,
				"element": "C" 
			},
			{
				"x": -0.0327925624,
				"y": -2.4455643514,
				"z": -1.1699215147,
				"element": "C" 
			},
			{
				"x": -0.3604766561,
				"y": -3.7253609821,
				"z": -0.7193450567,
				"element": "C" 
			},
			{
				"x": -0.2490608398,
				"y": -4.0446111811,
				"z": 0.6341760397,
				"element": "C" 
			},
			{
				"x": 0.1942038672,
				"y": -3.0733743721,
				"z": 1.5331585409,
				"element": "C" 
			},
			{
				"x": 0.5273367649,
				"y": -1.7955701572,
				"z": 1.08208873,
				"element": "C" 
			},
			{
				"x": -0.4861910486,
				"y": 0.9066602096,
				"z": -0.6500099792,
				"element": "C" 
			},
			{
				"x": -0.3812464572,
				"y": 2.2174915734,
				"z": -1.1430355039,
				"element": "C" 
			},
			{
				"x": -1.4606724395,
				"y": 3.0939466632,
				"z": -1.071480821,
				"element": "C" 
			},
			{
				"x": -2.6677630741,
				"y": 2.6768822227,
				"z": -0.5031875201,
				"element": "C" 
			},
			{
				"x": -2.7804149207,
				"y": 1.378904362,
				"z": -0.0108380724,
				"element": "C" 
			},
			{
				"x": -1.6973273842,
				"y": 0.4969977426,
				"z": -0.0848750607,
				"element": "C" 
			},
			{
				"x": 1.9743125605,
				"y": 0.5123774009,
				"z": -0.0184595046,
				"element": "C" 
			},
			{
				"x": 3.2534209957,
				"y": 0.0640436259,
				"z": -0.3762861149,
				"element": "C" 
			},
			{
				"x": 4.3798272988,
				"y": 0.5044914852,
				"z": 0.3156051657,
				"element": "C" 
			},
			{
				"x": 4.2459475961,
				"y": 1.393064101,
				"z": 1.3852283512,
				"element": "C" 
			},
			{
				"x": 2.9766638701,
				"y": 1.8347649735,
				"z": 1.7545078344,
				"element": "C" 
			},
			{
				"x": 1.8465371227,
				"y": 1.3993719263,
				"z": 1.0564899634,
				"element": "C" 
			},
			{
				"x": -0.121089644,
				"y": -2.2057699282,
				"z": -2.2240042817,
				"element": "H" 
			},
			{
				"x": -0.7013895771,
				"y": -4.4723540677,
				"z": -1.4304852104,
				"element": "H" 
			},
			{
				"x": -0.5012860293,
				"y": -5.0411571526,
				"z": 0.9848324159,
				"element": "H" 
			},
			{
				"x": 0.2901134345,
				"y": -3.3098934219,
				"z": 2.5890020907,
				"element": "H" 
			},
			{
				"x": 0.8826728103,
				"y": -1.0549748699,
				"z": 1.7904647426,
				"element": "H" 
			},
			{
				"x": 0.5516393173,
				"y": 2.5560464004,
				"z": -1.5834426261,
				"element": "H" 
			},
			{
				"x": -1.3596149874,
				"y": 4.1027482005,
				"z": -1.4609760556,
				"element": "H" 
			},
			{
				"x": -3.5108045971,
				"y": 3.359459934,
				"z": -0.4482147042,
				"element": "H" 
			},
			{
				"x": -3.7136591379,
				"y": 1.0411227266,
				"z": 0.4305940869,
				"element": "H" 
			},
			{
				"x": -1.8044729952,
				"y": -0.510680344,
				"z": 0.2982936927,
				"element": "H" 
			},
			{
				"x": 3.3661834044,
				"y": -0.6305407583,
				"z": -1.2025067014,
				"element": "H" 
			},
			{
				"x": 5.3634126688,
				"y": 0.1524198581,
				"z": 0.0183564469,
				"element": "H" 
			},
			{
				"x": 5.1240339555,
				"y": 1.7376959368,
				"z": 1.9235368523,
				"element": "H" 
			},
			{
				"x": 2.8584754395,
				"y": 2.5261440729,
				"z": 2.583977456,
				"element": "H" 
			},
			{
				"x": 0.866221569,
				"y": 1.7583135873,
				"z": 1.3494174666,
				"element": "H" 
			}
		],
		 "valence_orbital": [ 
			{
				"type": "occ",
				"energy": -0.25383,
				"method": "rhf"
			},
			{
				"type": "occ",
				"energy": -0.2526,
				"method": "rhf"
			},
			{
				"type": "occ",
				"energy": -0.24674,
				"method": "rhf"
			},
			{
				"type": "occ",
				"energy": -0.2435,
				"method": "rhf"
			},
			{
				"type": "occ",
				"energy": -0.23965,
				"method": "rhf"
			},
			{
				"type": "unocc",
				"energy": -0.03091,
				"method": "rhf"
			},
			{
				"type": "unocc",
				"energy": -0.01857,
				"method": "rhf"
			},
			{
				"type": "unocc",
				"energy": -0.01405,
				"method": "rhf"
			},
			{
				"type": "unocc",
				"energy": -0.01314,
				"method": "rhf"
			},
			{
				"type": "unocc",
				"energy": -0.00298,
				"method": "rhf"
			}
		],
		"cosmo_sigma_profile": { 
			"-0.025": 0.0,
			"-0.024": 0.0,
			"-0.023": 0.0,
			"-0.022": 0.0,
			"-0.021": 0.0,
			"-0.02": 0.0,
			"-0.019": 0.0,
			"-0.018": 0.0,
			"-0.017": 0.0,
			"-0.016": 0.0,
			"-0.015": 0.0,
			"-0.014": 0.0,
			"-0.013": 0.0,
			"-0.012": 0.0,
			"-0.011": 0.0,
			"-0.01": 0.0,
			"-0.009": 0.0,
			"-0.008": 0.0,
			"-0.007": 0.207777668232,
			"-0.006": 16.0815030374,
			"-0.005": 28.1643857495,
			"-0.004": 33.99884898,
			"-0.003": 28.1371731476,
			"-0.002": 26.1397015021,
			"-0.001": 23.5222165665,
			"0.0": 27.2270098122,
			"0.001": 29.1894578503,
			"0.002": 29.8767357377,
			"0.003": 29.2826239957,
			"0.004": 30.3474172644,
			"0.005": 30.599179992,
			"0.006": 12.1218219692,
			"0.007": 0.992039896342,
			"0.008": 0.0,
			"0.009": 0.0,
			"0.01": 0.0,
			"0.011": 0.0,
			"0.012": 0.0,
			"0.013": 0.0,
			"0.014": 0.0,
			"0.015": 0.0,
			"0.016": 0.0,
			"0.017": 0.0,
			"0.018": 0.0,
			"0.019": 0.0,
			"0.02": 0.0,
			"0.021": 0.0,
			"0.022": 0.0,
			"0.023": 0.0,
			"0.024": 0.0,
			"0.025": 0.0
		}
	}
}
