{
	 "smiles": "NNC(=O)C1=CC(=NN1)C1=CC=CC=C1", 
	 "Tm": 481.15, 
	 "num_atms": 25, 
	 "gaussian": { 
		 "optdone": 1, 
		 "sigma_profile": "yes", 
		 "theory": "DFT", 
		 "functional": "B3LYP", 
		 "basiset": "6-31G**", 
		 "properties": { 
			 "R2extent": 4753.839, 
			 "electric_dipole_moment_norm": 2.01101735945, 
			 "electric_quadrupole_moment_norm": 5.82647848104, 
			 "total_energy": -681.292221128, 
			 "HOMO_LUMO_gap": 0.18562, 
			 "cosmo_polarized_energy": -16.72, 
			 "cosmo_cavitation_energy": 30.2, 
			 "cosmo_dispersion_energy": -22.36, 
			 "cosmo_repulsion_energy": 1.74, 
			 "cosmo_total_nonelectrostatic_energy": 9.58, 
			 "SMD_solvation_energy": 5.23 
		},
		"coords": [
			{
				"x": -1.1436747655,
				"y": 4.8092339463,
				"z": -2.4725595419,
				"element": "N" 
			},
			{
				"x": -0.9478878871,
				"y": 3.5127761237,
				"z": -1.9673786702,
				"element": "N" 
			},
			{
				"x": -1.5948099448,
				"y": 3.0626529431,
				"z": -0.855248822,
				"element": "C" 
			},
			{
				"x": -2.3940823201,
				"y": 3.7584648936,
				"z": -0.2277657469,
				"element": "O" 
			},
			{
				"x": -1.2895499912,
				"y": 1.6798494783,
				"z": -0.4284826568,
				"element": "C" 
			},
			{
				"x": -0.4795368376,
				"y": 0.6440122032,
				"z": -0.8705088439,
				"element": "C" 
			},
			{
				"x": -0.6978823168,
				"y": -0.4150264901,
				"z": 0.0479815702,
				"element": "C" 
			},
			{
				"x": -1.5854228658,
				"y": -0.0458816763,
				"z": 0.9898058996,
				"element": "N" 
			},
			{
				"x": -1.9198288179,
				"y": 1.207750016,
				"z": 0.6789074844,
				"element": "N" 
			},
			{
				"x": -0.098914412,
				"y": -1.7605308367,
				"z": 0.0668850148,
				"element": "C" 
			},
			{
				"x": 0.829522977,
				"y": -2.155701848,
				"z": -0.908595824,
				"element": "C" 
			},
			{
				"x": 1.3910716557,
				"y": -3.4316042523,
				"z": -0.8826466549,
				"element": "C" 
			},
			{
				"x": 1.0347798227,
				"y": -4.3358534125,
				"z": 0.1190268585,
				"element": "C" 
			},
			{
				"x": 0.1113194329,
				"y": -3.9520617337,
				"z": 1.0949690211,
				"element": "C" 
			},
			{
				"x": -0.4508348958,
				"y": -2.6783833867,
				"z": 1.0710969334,
				"element": "C" 
			},
			{
				"x": -0.9438906713,
				"y": 5.4660590126,
				"z": -1.7181873317,
				"element": "H" 
			},
			{
				"x": -2.1390643434,
				"y": 4.9160049036,
				"z": -2.6678718426,
				"element": "H" 
			},
			{
				"x": -0.286400895,
				"y": 2.9425207172,
				"z": -2.4710125469,
				"element": "H" 
			},
			{
				"x": 0.174791311,
				"y": 0.6451252882,
				"z": -1.7292235456,
				"element": "H" 
			},
			{
				"x": -2.5821095913,
				"y": 1.7350364364,
				"z": 1.230971997,
				"element": "H" 
			},
			{
				"x": 1.1183468097,
				"y": -1.4648729716,
				"z": -1.6952500191,
				"element": "H" 
			},
			{
				"x": 2.1080061874,
				"y": -3.7185967578,
				"z": -1.6467179153,
				"element": "H" 
			},
			{
				"x": 1.4721468355,
				"y": -5.3298369189,
				"z": 0.1393524783,
				"element": "H" 
			},
			{
				"x": -0.1723847773,
				"y": -4.6487890594,
				"z": 1.8787987201,
				"element": "H" 
			},
			{
				"x": -1.1679096989,
				"y": -2.3771466183,
				"z": 1.8269539843,
				"element": "H" 
			}
		],
		 "valence_orbital": [ 
			{
				"type": "occ",
				"energy": -0.27564,
				"method": "rhf"
			},
			{
				"type": "occ",
				"energy": -0.27347,
				"method": "rhf"
			},
			{
				"type": "occ",
				"energy": -0.26074,
				"method": "rhf"
			},
			{
				"type": "occ",
				"energy": -0.24858,
				"method": "rhf"
			},
			{
				"type": "occ",
				"energy": -0.22263,
				"method": "rhf"
			},
			{
				"type": "unocc",
				"energy": -0.03701,
				"method": "rhf"
			},
			{
				"type": "unocc",
				"energy": -0.02234,
				"method": "rhf"
			},
			{
				"type": "unocc",
				"energy": 0.0022,
				"method": "rhf"
			},
			{
				"type": "unocc",
				"energy": 0.06606,
				"method": "rhf"
			},
			{
				"type": "unocc",
				"energy": 0.07259,
				"method": "rhf"
			}
		],
		"cosmo_sigma_profile": { 
			"-0.025": 0.0,
			"-0.024": 0.0,
			"-0.023": 0.0,
			"-0.022": 0.0,
			"-0.021": 0.0,
			"-0.02": 0.0,
			"-0.019": 0.0,
			"-0.018": 0.0,
			"-0.017": 0.0,
			"-0.016": 0.504007781441,
			"-0.015": 1.65646551783,
			"-0.014": 1.94356008183,
			"-0.013": 2.28340148619,
			"-0.012": 2.4563442676,
			"-0.011": 4.17140630504,
			"-0.01": 5.57881154785,
			"-0.009": 4.90855040073,
			"-0.008": 4.66922581012,
			"-0.007": 5.88337996872,
			"-0.006": 8.63401159402,
			"-0.005": 12.7781828367,
			"-0.004": 13.4346834312,
			"-0.003": 14.5599917478,
			"-0.002": 12.4253581181,
			"-0.001": 15.8069170995,
			"0.0": 13.4126040787,
			"0.001": 13.7335262314,
			"0.002": 14.5014319132,
			"0.003": 19.7954661481,
			"0.004": 16.4896818396,
			"0.005": 14.4676126379,
			"0.006": 9.39080120497,
			"0.007": 3.54182652931,
			"0.008": 2.58794421122,
			"0.009": 3.13672304958,
			"0.01": 3.31908435966,
			"0.011": 3.09400641623,
			"0.012": 4.28512539984,
			"0.013": 5.48196833998,
			"0.014": 1.09032133917,
			"0.015": 0.588093283606,
			"0.016": 0.436838874734,
			"0.017": 0.0833795672335,
			"0.018": 0.0,
			"0.019": 0.0,
			"0.02": 0.0,
			"0.021": 0.0,
			"0.022": 0.0,
			"0.023": 0.0,
			"0.024": 0.0,
			"0.025": 0.0
		}
	}
}
