{
	 "smiles": "COC(=O)C1=CN=C(NCC=C)S1", 
	 "Tm": 383.15, 
	 "num_atms": 23, 
	 "gaussian": { 
		 "optdone": 1, 
		 "sigma_profile": "yes", 
		 "theory": "DFT", 
		 "functional": "B3LYP", 
		 "basiset": "6-31G**", 
		 "properties": { 
			 "R2extent": 5444.1451, 
			 "electric_dipole_moment_norm": 4.04778867655, 
			 "electric_quadrupole_moment_norm": 12.7913333887, 
			 "total_energy": -968.993155056, 
			 "HOMO_LUMO_gap": 0.17224, 
			 "cosmo_polarized_energy": -12.77, 
			 "cosmo_cavitation_energy": 30.05, 
			 "cosmo_dispersion_energy": -22.15, 
			 "cosmo_repulsion_energy": 1.74, 
			 "cosmo_total_nonelectrostatic_energy": 9.64, 
			 "SMD_solvation_energy": 5.37 
		},
		"coords": [
			{
				"x": 3.4832795104,
				"y": 3.4609377233,
				"z": 4.2963059498,
				"element": "C" 
			},
			{
				"x": 2.6190327048,
				"y": 2.8613459603,
				"z": 3.3206270454,
				"element": "O" 
			},
			{
				"x": 3.2535888036,
				"y": 2.234600166,
				"z": 2.2958293837,
				"element": "C" 
			},
			{
				"x": 4.4647282599,
				"y": 2.1726415543,
				"z": 2.1905836862,
				"element": "O" 
			},
			{
				"x": 2.3068976127,
				"y": 1.6521288511,
				"z": 1.3502283092,
				"element": "C" 
			},
			{
				"x": 2.6234933548,
				"y": 0.957428258,
				"z": 0.2118282957,
				"element": "C" 
			},
			{
				"x": 1.5922525664,
				"y": 0.4967624966,
				"z": -0.5529969467,
				"element": "N" 
			},
			{
				"x": 0.439589195,
				"y": 0.8251091385,
				"z": -0.0077067827,
				"element": "C" 
			},
			{
				"x": -0.766414782,
				"y": 0.4714917837,
				"z": -0.5225052373,
				"element": "N" 
			},
			{
				"x": -0.8992583069,
				"y": -0.1619003923,
				"z": -1.8359752215,
				"element": "C" 
			},
			{
				"x": -2.1013295032,
				"y": -1.0642533926,
				"z": -1.8674618952,
				"element": "C" 
			},
			{
				"x": -3.1183867541,
				"y": -0.9227568504,
				"z": -2.7172231809,
				"element": "C" 
			},
			{
				"x": 0.5523854833,
				"y": 1.7424151123,
				"z": 1.5016902766,
				"element": "S" 
			},
			{
				"x": 4.117876675,
				"y": 4.2218571528,
				"z": 3.834643758,
				"element": "H" 
			},
			{
				"x": 2.8227651701,
				"y": 3.9119984728,
				"z": 5.0368839817,
				"element": "H" 
			},
			{
				"x": 4.1225161731,
				"y": 2.7062880005,
				"z": 4.7617962999,
				"element": "H" 
			},
			{
				"x": 3.6466685762,
				"y": 0.7722002796,
				"z": -0.0945092907,
				"element": "H" 
			},
			{
				"x": -1.5928844545,
				"y": 0.9025296327,
				"z": -0.1357017443,
				"element": "H" 
			},
			{
				"x": 0.0227932388,
				"y": -0.727348009,
				"z": -1.9997837247,
				"element": "H" 
			},
			{
				"x": -0.9636394483,
				"y": 0.5925060189,
				"z": -2.633036577,
				"element": "H" 
			},
			{
				"x": -2.1052028267,
				"y": -1.8724491372,
				"z": -1.1370510718,
				"element": "H" 
			},
			{
				"x": -3.139249541,
				"y": -0.1214256514,
				"z": -3.452415232,
				"element": "H" 
			},
			{
				"x": -3.9607017074,
				"y": -1.6078071685,
				"z": -2.7189500812,
				"element": "H" 
			}
		],
		 "valence_orbital": [ 
			{
				"type": "occ",
				"energy": -0.28714,
				"method": "rhf"
			},
			{
				"type": "occ",
				"energy": -0.28072,
				"method": "rhf"
			},
			{
				"type": "occ",
				"energy": -0.27144,
				"method": "rhf"
			},
			{
				"type": "occ",
				"energy": -0.26799,
				"method": "rhf"
			},
			{
				"type": "occ",
				"energy": -0.2118,
				"method": "rhf"
			},
			{
				"type": "unocc",
				"energy": -0.03956,
				"method": "rhf"
			},
			{
				"type": "unocc",
				"energy": -0.00254,
				"method": "rhf"
			},
			{
				"type": "unocc",
				"energy": 0.00584,
				"method": "rhf"
			},
			{
				"type": "unocc",
				"energy": 0.03558,
				"method": "rhf"
			},
			{
				"type": "unocc",
				"energy": 0.08986,
				"method": "rhf"
			}
		],
		"cosmo_sigma_profile": { 
			"-0.025": 0.0,
			"-0.024": 0.0,
			"-0.023": 0.0,
			"-0.022": 0.0,
			"-0.021": 0.0,
			"-0.02": 0.0,
			"-0.019": 0.0,
			"-0.018": 0.0,
			"-0.017": 0.0,
			"-0.016": 0.190865897191,
			"-0.015": 1.11887234103,
			"-0.014": 1.50059630428,
			"-0.013": 1.17148464648,
			"-0.012": 0.828582736449,
			"-0.011": 1.02674659688,
			"-0.01": 1.20150507706,
			"-0.009": 1.35699433382,
			"-0.008": 1.89409571234,
			"-0.007": 2.76384189743,
			"-0.006": 8.14410846564,
			"-0.005": 19.5776982673,
			"-0.004": 21.3517499238,
			"-0.003": 20.1615773403,
			"-0.002": 17.3147365783,
			"-0.001": 16.1578295398,
			"0.0": 16.8318812538,
			"0.001": 20.8074634925,
			"0.002": 21.3589159737,
			"0.003": 16.8909782888,
			"0.004": 11.5760614206,
			"0.005": 8.13663798178,
			"0.006": 7.4416580676,
			"0.007": 3.2819369117,
			"0.008": 2.60831739655,
			"0.009": 2.04488407013,
			"0.01": 2.33302991484,
			"0.011": 4.18687700989,
			"0.012": 5.97192195358,
			"0.013": 2.29104969241,
			"0.014": 0.0,
			"0.015": 0.0,
			"0.016": 0.0,
			"0.017": 0.0,
			"0.018": 0.0,
			"0.019": 0.0,
			"0.02": 0.0,
			"0.021": 0.0,
			"0.022": 0.0,
			"0.023": 0.0,
			"0.024": 0.0,
			"0.025": 0.0
		}
	}
}
