{
	 "smiles": "C[Si](C)(C)[Si]([Si](C)(C)C)([Si](C)(C)C)[Si](C)(C)C", 
	 "Tm": 540.15, 
	 "num_atms": 53, 
	 "gaussian": { 
		 "optdone": 1, 
		 "sigma_profile": "yes", 
		 "theory": "DFT", 
		 "functional": "B3LYP", 
		 "basiset": "6-31G**", 
		 "properties": { 
			 "R2extent": 6996.8346, 
			 "electric_dipole_moment_norm": 0.00539351462406, 
			 "electric_quadrupole_moment_norm": 0.0149355281125, 
			 "total_energy": -1926.63368964, 
			 "HOMO_LUMO_gap": 0.25979, 
			 "cosmo_polarized_energy": -2.68, 
			 "cosmo_cavitation_energy": 62.81, 
			 "cosmo_dispersion_energy": -26.51, 
			 "cosmo_repulsion_energy": 2.34, 
			 "cosmo_total_nonelectrostatic_energy": 38.64, 
			 "SMD_solvation_energy": 14.05 
		},
		"coords": [
			{
				"x": 2.7910196735,
				"y": -1.2507724368,
				"z": 1.0751669021,
				"element": "C" 
			},
			{
				"x": 0.9987225912,
				"y": -1.8880818442,
				"z": 1.0091847498,
				"element": "Si" 
			},
			{
				"x": 0.5495853432,
				"y": -2.5418966676,
				"z": 2.739582383,
				"element": "C" 
			},
			{
				"x": 0.9481985103,
				"y": -3.3584658131,
				"z": -0.1986091961,
				"element": "C" 
			},
			{
				"x": -0.497660845,
				"y": -0.1644513621,
				"z": 0.3270914989,
				"element": "Si" 
			},
			{
				"x": -2.734105188,
				"y": -0.800214208,
				"z": 0.8468931459,
				"element": "Si" 
			},
			{
				"x": -3.0655142989,
				"y": -2.6110525175,
				"z": 0.3624773497,
				"element": "C" 
			},
			{
				"x": -3.9904296989,
				"y": 0.2874586226,
				"z": -0.0814504573,
				"element": "C" 
			},
			{
				"x": -3.0759385517,
				"y": -0.6245542568,
				"z": 2.7109458584,
				"element": "C" 
			},
			{
				"x": -0.2936039166,
				"y": 0.1858822539,
				"z": -2.0201942003,
				"element": "Si" 
			},
			{
				"x": -1.100445453,
				"y": 1.8301715707,
				"z": -2.5385903242,
				"element": "C" 
			},
			{
				"x": 1.5337766343,
				"y": 0.242491812,
				"z": -2.5499574871,
				"element": "C" 
			},
			{
				"x": -1.1396113348,
				"y": -1.2109336546,
				"z": -2.9981663321,
				"element": "C" 
			},
			{
				"x": 0.0390944238,
				"y": 1.8511190307,
				"z": 1.4785431035,
				"element": "Si" 
			},
			{
				"x": -1.3814241231,
				"y": 3.1119704673,
				"z": 1.3522609922,
				"element": "C" 
			},
			{
				"x": 0.3606779624,
				"y": 1.5212307776,
				"z": 3.3256481365,
				"element": "C" 
			},
			{
				"x": 1.6011013082,
				"y": 2.6618496845,
				"z": 0.7531460686,
				"element": "C" 
			},
			{
				"x": 3.1189962827,
				"y": -0.8618730322,
				"z": 0.1056867941,
				"element": "H" 
			},
			{
				"x": 2.909421124,
				"y": -0.449438082,
				"z": 1.8121532908,
				"element": "H" 
			},
			{
				"x": 3.4735174721,
				"y": -2.0618998291,
				"z": 1.3568291679,
				"element": "H" 
			},
			{
				"x": 1.2693915018,
				"y": -3.306974537,
				"z": 3.0552666736,
				"element": "H" 
			},
			{
				"x": -0.4452880089,
				"y": -2.9994613001,
				"z": 2.7551932875,
				"element": "H" 
			},
			{
				"x": 0.5608780215,
				"y": -1.7451115285,
				"z": 3.4903735807,
				"element": "H" 
			},
			{
				"x": -0.0594423875,
				"y": -3.7778426971,
				"z": -0.2855703136,
				"element": "H" 
			},
			{
				"x": 1.6131259674,
				"y": -4.1587749345,
				"z": 0.1484932234,
				"element": "H" 
			},
			{
				"x": 1.2762896174,
				"y": -3.0700850285,
				"z": -1.202893628,
				"element": "H" 
			},
			{
				"x": -2.4240672751,
				"y": -3.3042829097,
				"z": 0.9168702857,
				"element": "H" 
			},
			{
				"x": -4.1065894295,
				"y": -2.8780926961,
				"z": 0.5815432685,
				"element": "H" 
			},
			{
				"x": -2.8962822729,
				"y": -2.7831917542,
				"z": -0.7054694183,
				"element": "H" 
			},
			{
				"x": -3.8595551779,
				"y": 1.3490336478,
				"z": 0.1521752116,
				"element": "H" 
			},
			{
				"x": -3.9021493119,
				"y": 0.1724178682,
				"z": -1.1669860104,
				"element": "H" 
			},
			{
				"x": -5.0139524425,
				"y": 0.0088013392,
				"z": 0.1975845846,
				"element": "H" 
			},
			{
				"x": -4.0955895335,
				"y": -0.9545240441,
				"z": 2.9443543417,
				"element": "H" 
			},
			{
				"x": -2.9811059375,
				"y": 0.414300208,
				"z": 3.0442528286,
				"element": "H" 
			},
			{
				"x": -2.3856867722,
				"y": -1.2294257486,
				"z": 3.3078686601,
				"element": "H" 
			},
			{
				"x": -1.0314235207,
				"y": 1.9618213468,
				"z": -3.6253283499,
				"element": "H" 
			},
			{
				"x": -0.6077746515,
				"y": 2.6891453516,
				"z": -2.0708078484,
				"element": "H" 
			},
			{
				"x": -2.1602385846,
				"y": 1.8658416452,
				"z": -2.2660891452,
				"element": "H" 
			},
			{
				"x": 1.6115709563,
				"y": 0.4368691643,
				"z": -3.6266580356,
				"element": "H" 
			},
			{
				"x": 2.0443212118,
				"y": -0.7051959686,
				"z": -2.3486807387,
				"element": "H" 
			},
			{
				"x": 2.0832533962,
				"y": 1.0333003471,
				"z": -2.0290335088,
				"element": "H" 
			},
			{
				"x": -1.0127627306,
				"y": -1.0511745327,
				"z": -4.0758972206,
				"element": "H" 
			},
			{
				"x": -0.7158803652,
				"y": -2.1908603824,
				"z": -2.7553813796,
				"element": "H" 
			},
			{
				"x": -2.2150659987,
				"y": -1.254270599,
				"z": -2.7959235697,
				"element": "H" 
			},
			{
				"x": -1.1066230956,
				"y": 4.0462406376,
				"z": 1.856965827,
				"element": "H" 
			},
			{
				"x": -2.2972650513,
				"y": 2.7400085895,
				"z": 1.8236542492,
				"element": "H" 
			},
			{
				"x": -1.6181306158,
				"y": 3.3539513791,
				"z": 0.3110248989,
				"element": "H" 
			},
			{
				"x": 1.2202722212,
				"y": 0.8595757369,
				"z": 3.476476774,
				"element": "H" 
			},
			{
				"x": -0.5042520052,
				"y": 1.0588797336,
				"z": 3.8123528763,
				"element": "H" 
			},
			{
				"x": 0.5730359129,
				"y": 2.461958043,
				"z": 3.848219381,
				"element": "H" 
			},
			{
				"x": 2.46470675,
				"y": 1.9902648249,
				"z": 0.7960335735,
				"element": "H" 
			},
			{
				"x": 1.4584998538,
				"y": 2.9542037549,
				"z": -0.2925828672,
				"element": "H" 
			},
			{
				"x": 1.8555018429,
				"y": 3.5676145281,
				"z": 1.3170570634,
				"element": "H" 
			}
		],
		 "valence_orbital": [ 
			{
				"type": "occ",
				"energy": -0.28929,
				"method": "rhf"
			},
			{
				"type": "occ",
				"energy": -0.28927,
				"method": "rhf"
			},
			{
				"type": "occ",
				"energy": -0.23388,
				"method": "rhf"
			},
			{
				"type": "occ",
				"energy": -0.23387,
				"method": "rhf"
			},
			{
				"type": "occ",
				"energy": -0.23382,
				"method": "rhf"
			},
			{
				"type": "unocc",
				"energy": 0.02597,
				"method": "rhf"
			},
			{
				"type": "unocc",
				"energy": 0.02601,
				"method": "rhf"
			},
			{
				"type": "unocc",
				"energy": 0.02607,
				"method": "rhf"
			},
			{
				"type": "unocc",
				"energy": 0.04445,
				"method": "rhf"
			},
			{
				"type": "unocc",
				"energy": 0.05193,
				"method": "rhf"
			}
		],
		"cosmo_sigma_profile": { 
			"-0.025": 0.0,
			"-0.024": 0.0,
			"-0.023": 0.0,
			"-0.022": 0.0,
			"-0.021": 0.0,
			"-0.02": 0.0,
			"-0.019": 0.0,
			"-0.018": 0.0,
			"-0.017": 0.0,
			"-0.016": 0.0,
			"-0.015": 0.0,
			"-0.014": 0.0,
			"-0.013": 0.0,
			"-0.012": 0.0,
			"-0.011": 0.0,
			"-0.01": 0.0,
			"-0.009": 0.0,
			"-0.008": 0.0,
			"-0.007": 0.0,
			"-0.006": 0.0,
			"-0.005": 0.0,
			"-0.004": 0.19024547661,
			"-0.003": 25.9566405414,
			"-0.002": 75.8547038128,
			"-0.001": 91.7853876851,
			"0.0": 82.8453577509,
			"0.001": 65.7242374623,
			"0.002": 67.741464644,
			"0.003": 28.2028064848,
			"0.004": 5.09993134599,
			"0.005": 0.0,
			"0.006": 0.0,
			"0.007": 0.0,
			"0.008": 0.0,
			"0.009": 0.0,
			"0.01": 0.0,
			"0.011": 0.0,
			"0.012": 0.0,
			"0.013": 0.0,
			"0.014": 0.0,
			"0.015": 0.0,
			"0.016": 0.0,
			"0.017": 0.0,
			"0.018": 0.0,
			"0.019": 0.0,
			"0.02": 0.0,
			"0.021": 0.0,
			"0.022": 0.0,
			"0.023": 0.0,
			"0.024": 0.0,
			"0.025": 0.0
		}
	}
}
