{
	 "smiles": "OC(=O)CNC(=O)C1=CC2=C(N1)C=CC=C2", 
	 "Tm": 505.15, 
	 "num_atms": 26, 
	 "gaussian": { 
		 "optdone": 1, 
		 "sigma_profile": "yes", 
		 "theory": "DFT", 
		 "functional": "B3LYP", 
		 "basiset": "6-31G**", 
		 "properties": { 
			 "R2extent": 4388.2544, 
			 "electric_dipole_moment_norm": 4.65876229379, 
			 "electric_quadrupole_moment_norm": 27.0891628595, 
			 "total_energy": -760.393280799, 
			 "HOMO_LUMO_gap": 0.1707, 
			 "cosmo_polarized_energy": -25.43, 
			 "cosmo_cavitation_energy": 30.91, 
			 "cosmo_dispersion_energy": -22.37, 
			 "cosmo_repulsion_energy": 1.74, 
			 "cosmo_total_nonelectrostatic_energy": 10.28, 
			 "SMD_solvation_energy": 6.2 
		},
		"coords": [
			{
				"x": 1.1200414944,
				"y": -1.113346973,
				"z": 4.4421446846,
				"element": "O" 
			},
			{
				"x": 1.7217941457,
				"y": -0.2228286118,
				"z": 3.6073315339,
				"element": "C" 
			},
			{
				"x": 2.8023559249,
				"y": -0.4478362416,
				"z": 3.1357599678,
				"element": "O" 
			},
			{
				"x": 0.9192828862,
				"y": 1.0690218531,
				"z": 3.3692025532,
				"element": "C" 
			},
			{
				"x": 1.4207159534,
				"y": 1.8819298104,
				"z": 2.2975988023,
				"element": "N" 
			},
			{
				"x": 1.1183739877,
				"y": 1.8204316621,
				"z": 0.9601120958,
				"element": "C" 
			},
			{
				"x": 1.6086657087,
				"y": 2.6355986598,
				"z": 0.1769389577,
				"element": "O" 
			},
			{
				"x": 0.1679685624,
				"y": 0.805541815,
				"z": 0.4465174644,
				"element": "C" 
			},
			{
				"x": -0.3751172767,
				"y": -0.3907689117,
				"z": 0.8873496424,
				"element": "C" 
			},
			{
				"x": -1.1829007942,
				"y": -0.9054422971,
				"z": -0.1748588909,
				"element": "C" 
			},
			{
				"x": -1.0942658333,
				"y": 0.025031909,
				"z": -1.251396112,
				"element": "C" 
			},
			{
				"x": -0.2749851687,
				"y": 1.0431076549,
				"z": -0.8414309103,
				"element": "N" 
			},
			{
				"x": -1.7705060135,
				"y": -0.1725541074,
				"z": -2.4639462427,
				"element": "C" 
			},
			{
				"x": -2.5383608734,
				"y": -1.3214260133,
				"z": -2.5855383925,
				"element": "C" 
			},
			{
				"x": -2.6392257568,
				"y": -2.2582827839,
				"z": -1.5309106272,
				"element": "C" 
			},
			{
				"x": -1.9718253923,
				"y": -2.062150805,
				"z": -0.3325189803,
				"element": "C" 
			},
			{
				"x": 0.2559965828,
				"y": -0.7858079469,
				"z": 4.7323752654,
				"element": "H" 
			},
			{
				"x": -0.1340433435,
				"y": 0.8308081906,
				"z": 3.1874933126,
				"element": "H" 
			},
			{
				"x": 0.950841498,
				"y": 1.6496987396,
				"z": 4.3003354605,
				"element": "H" 
			},
			{
				"x": 2.1710015553,
				"y": 2.5293123472,
				"z": 2.4960016977,
				"element": "H" 
			},
			{
				"x": -0.1934828079,
				"y": -0.8873788804,
				"z": 1.82757234,
				"element": "H" 
			},
			{
				"x": 0.0748222903,
				"y": 1.8288977355,
				"z": -1.3711272081,
				"element": "H" 
			},
			{
				"x": -1.6937844712,
				"y": 0.5443522048,
				"z": -3.275862496,
				"element": "H" 
			},
			{
				"x": -3.0735456868,
				"y": -1.5073361495,
				"z": -3.5121066711,
				"element": "H" 
			},
			{
				"x": -3.2504744255,
				"y": -3.1451898679,
				"z": -1.6684174733,
				"element": "H" 
			},
			{
				"x": -2.051642746,
				"y": -2.7875829924,
				"z": 0.4722802258,
				"element": "H" 
			}
		],
		 "valence_orbital": [ 
			{
				"type": "occ",
				"energy": -0.28604,
				"method": "rhf"
			},
			{
				"type": "occ",
				"energy": -0.26736,
				"method": "rhf"
			},
			{
				"type": "occ",
				"energy": -0.26413,
				"method": "rhf"
			},
			{
				"type": "occ",
				"energy": -0.22749,
				"method": "rhf"
			},
			{
				"type": "occ",
				"energy": -0.21505,
				"method": "rhf"
			},
			{
				"type": "unocc",
				"energy": -0.04435,
				"method": "rhf"
			},
			{
				"type": "unocc",
				"energy": -0.00709,
				"method": "rhf"
			},
			{
				"type": "unocc",
				"energy": 0.01645,
				"method": "rhf"
			},
			{
				"type": "unocc",
				"energy": 0.02796,
				"method": "rhf"
			},
			{
				"type": "unocc",
				"energy": 0.03333,
				"method": "rhf"
			}
		],
		"cosmo_sigma_profile": { 
			"-0.025": 0.0,
			"-0.024": 0.0,
			"-0.023": 0.0,
			"-0.022": 0.0,
			"-0.021": 0.0,
			"-0.02": 0.319348410047,
			"-0.019": 1.62419706618,
			"-0.018": 1.1371266911,
			"-0.017": 1.55933198212,
			"-0.016": 1.25335262985,
			"-0.015": 1.60180243098,
			"-0.014": 2.92995255949,
			"-0.013": 3.27884494627,
			"-0.012": 3.20644297688,
			"-0.011": 4.1622904591,
			"-0.01": 5.77925039496,
			"-0.009": 4.72016001439,
			"-0.008": 4.70898243608,
			"-0.007": 5.59292239155,
			"-0.006": 8.31842403914,
			"-0.005": 13.4427743004,
			"-0.004": 12.9280724171,
			"-0.003": 13.3393583531,
			"-0.002": 10.6459087798,
			"-0.001": 10.2349264277,
			"0.0": 10.7233417056,
			"0.001": 12.004103858,
			"0.002": 14.5500237337,
			"0.003": 16.2511316241,
			"0.004": 16.2199280305,
			"0.005": 14.7670625467,
			"0.006": 10.929576725,
			"0.007": 4.92003888163,
			"0.008": 4.46939950525,
			"0.009": 4.87681303835,
			"0.01": 6.69849404458,
			"0.011": 7.59250129265,
			"0.012": 5.48114789767,
			"0.013": 4.86596171602,
			"0.014": 1.6063892254,
			"0.015": 0.0296982195835,
			"0.016": 0.0,
			"0.017": 0.0,
			"0.018": 0.0,
			"0.019": 0.0,
			"0.02": 0.0,
			"0.021": 0.0,
			"0.022": 0.0,
			"0.023": 0.0,
			"0.024": 0.0,
			"0.025": 0.0
		}
	}
}
