{
	 "smiles": "CN1[C@H]2CC[C@@H]1CC(=O)C2", 
	 "Tm": 315.65, 
	 "num_atms": 23, 
	 "gaussian": { 
		 "optdone": 1, 
		 "sigma_profile": "yes", 
		 "theory": "DFT", 
		 "functional": "B3LYP", 
		 "basiset": "6-31G**", 
		 "properties": { 
			 "R2extent": 1292.335, 
			 "electric_dipole_moment_norm": 2.73108531906, 
			 "electric_quadrupole_moment_norm": 12.1137953569, 
			 "total_energy": -442.651374113, 
			 "HOMO_LUMO_gap": 0.20299, 
			 "cosmo_polarized_energy": -8.21, 
			 "cosmo_cavitation_energy": 23.08, 
			 "cosmo_dispersion_energy": -17.45, 
			 "cosmo_repulsion_energy": 1.4, 
			 "cosmo_total_nonelectrostatic_energy": 7.03, 
			 "SMD_solvation_energy": 1.75 
		},
		"coords": [
			{
				"x": 1.3617985351,
				"y": -0.7712731103,
				"z": -1.6524834086,
				"element": "C" 
			},
			{
				"x": -0.0198514009,
				"y": -0.5148718745,
				"z": -1.2940368287,
				"element": "N" 
			},
			{
				"x": -0.3740935896,
				"y": 0.8263364736,
				"z": -0.8159320403,
				"element": "C" 
			},
			{
				"x": -1.901104403,
				"y": 0.6826187256,
				"z": -0.6153232416,
				"element": "C" 
			},
			{
				"x": -2.093659841,
				"y": -0.8281934154,
				"z": -0.2766006768,
				"element": "C" 
			},
			{
				"x": -0.6582954985,
				"y": -1.4033556152,
				"z": -0.3163208943,
				"element": "C" 
			},
			{
				"x": 0.0195413898,
				"y": -1.3145624211,
				"z": 1.0817665804,
				"element": "C" 
			},
			{
				"x": 0.0372659905,
				"y": 0.1235022056,
				"z": 1.5880253417,
				"element": "C" 
			},
			{
				"x": -0.1931364357,
				"y": 0.4127227341,
				"z": 2.7477401613,
				"element": "O" 
			},
			{
				"x": 0.3367161147,
				"y": 1.1738583219,
				"z": 0.5241884325,
				"element": "C" 
			},
			{
				"x": 1.6648226483,
				"y": -0.0733574792,
				"z": -2.4403751584,
				"element": "H" 
			},
			{
				"x": 2.0941690881,
				"y": -0.680870955,
				"z": -0.8302069135,
				"element": "H" 
			},
			{
				"x": 1.4464590352,
				"y": -1.7853678241,
				"z": -2.0576157795,
				"element": "H" 
			},
			{
				"x": -0.1170029246,
				"y": 1.5763406496,
				"z": -1.5721155037,
				"element": "H" 
			},
			{
				"x": -2.4270669666,
				"y": 0.9396694235,
				"z": -1.5380654341,
				"element": "H" 
			},
			{
				"x": -2.2732146052,
				"y": 1.3425255162,
				"z": 0.1736459572,
				"element": "H" 
			},
			{
				"x": -2.5695979847,
				"y": -0.9851149281,
				"z": 0.6956560519,
				"element": "H" 
			},
			{
				"x": -2.7147631424,
				"y": -1.3153646425,
				"z": -1.0322851985,
				"element": "H" 
			},
			{
				"x": -0.6288809523,
				"y": -2.4390712482,
				"z": -0.6724713429,
				"element": "H" 
			},
			{
				"x": 1.0587534278,
				"y": -1.6639750828,
				"z": 1.0042589127,
				"element": "H" 
			},
			{
				"x": -0.480653913,
				"y": -1.9426838866,
				"z": 1.8248282011,
				"element": "H" 
			},
			{
				"x": 1.4236410766,
				"y": 1.1985785434,
				"z": 0.3628518934,
				"element": "H" 
			},
			{
				"x": 0.0418543514,
				"y": 2.1555098894,
				"z": 0.9066708887,
				"element": "H" 
			}
		],
		 "valence_orbital": [ 
			{
				"type": "occ",
				"energy": -0.33634,
				"method": "rhf"
			},
			{
				"type": "occ",
				"energy": -0.32907,
				"method": "rhf"
			},
			{
				"type": "occ",
				"energy": -0.31809,
				"method": "rhf"
			},
			{
				"type": "occ",
				"energy": -0.23432,
				"method": "rhf"
			},
			{
				"type": "occ",
				"energy": -0.21494,
				"method": "rhf"
			},
			{
				"type": "unocc",
				"energy": -0.01195,
				"method": "rhf"
			},
			{
				"type": "unocc",
				"energy": 0.07659,
				"method": "rhf"
			},
			{
				"type": "unocc",
				"energy": 0.10472,
				"method": "rhf"
			},
			{
				"type": "unocc",
				"energy": 0.11137,
				"method": "rhf"
			},
			{
				"type": "unocc",
				"energy": 0.1234,
				"method": "rhf"
			}
		],
		"cosmo_sigma_profile": { 
			"-0.025": 0.0,
			"-0.024": 0.0,
			"-0.023": 0.0,
			"-0.022": 0.0,
			"-0.021": 0.0,
			"-0.02": 0.0,
			"-0.019": 0.0,
			"-0.018": 0.0,
			"-0.017": 0.0,
			"-0.016": 0.0,
			"-0.015": 0.0,
			"-0.014": 0.0,
			"-0.013": 0.0,
			"-0.012": 0.0,
			"-0.011": 0.0,
			"-0.01": 0.0,
			"-0.009": 0.0,
			"-0.008": 0.0,
			"-0.007": 0.376929458706,
			"-0.006": 2.82847547985,
			"-0.005": 6.36555364614,
			"-0.004": 19.6818249543,
			"-0.003": 33.2585337856,
			"-0.002": 29.7432720695,
			"-0.001": 25.4398883728,
			"0.0": 16.5249733631,
			"0.001": 8.32841237184,
			"0.002": 2.71268314197,
			"0.003": 2.62234350386,
			"0.004": 2.43880484728,
			"0.005": 1.99276492115,
			"0.006": 2.82716324628,
			"0.007": 2.36774633214,
			"0.008": 2.30730180422,
			"0.009": 1.42614584519,
			"0.01": 3.01671822732,
			"0.011": 3.47892830712,
			"0.012": 4.29050426317,
			"0.013": 4.70968119363,
			"0.014": 1.49609761551,
			"0.015": 0.32042601141,
			"0.016": 0.0667975928002,
			"0.017": 0.0,
			"0.018": 0.0,
			"0.019": 0.0,
			"0.02": 0.0,
			"0.021": 0.0,
			"0.022": 0.0,
			"0.023": 0.0,
			"0.024": 0.0,
			"0.025": 0.0
		}
	}
}
