{
	 "smiles": "CC1=CC=C(C=C1)C(=O)C(O)=O", 
	 "Tm": 450.15, 
	 "num_atms": 20, 
	 "gaussian": { 
		 "optdone": 1, 
		 "sigma_profile": "yes", 
		 "theory": "DFT", 
		 "functional": "B3LYP", 
		 "basiset": "6-31G**", 
		 "properties": { 
			 "R2extent": 2748.1617, 
			 "electric_dipole_moment_norm": 2.78191465002, 
			 "electric_quadrupole_moment_norm": 14.4253717553, 
			 "total_energy": -573.457855486, 
			 "HOMO_LUMO_gap": 0.17067, 
			 "cosmo_polarized_energy": -11.89, 
			 "cosmo_cavitation_energy": 25.11, 
			 "cosmo_dispersion_energy": -18.33, 
			 "cosmo_repulsion_energy": 1.46, 
			 "cosmo_total_nonelectrostatic_energy": 8.25, 
			 "SMD_solvation_energy": 6.35 
		},
		"coords": [
			{
				"x": -1.8333654264,
				"y": 3.0150120378,
				"z": -0.5669626941,
				"element": "C" 
			},
			{
				"x": -0.8042956293,
				"y": 1.9198105255,
				"z": -0.4362028613,
				"element": "C" 
			},
			{
				"x": 0.4269011456,
				"y": 2.1667765427,
				"z": 0.1962862613,
				"element": "C" 
			},
			{
				"x": 1.3692725112,
				"y": 1.1595536917,
				"z": 0.3391643736,
				"element": "C" 
			},
			{
				"x": 1.1108940655,
				"y": -0.1363880784,
				"z": -0.1460294645,
				"element": "C" 
			},
			{
				"x": -0.1153957232,
				"y": -0.3907751521,
				"z": -0.7820660317,
				"element": "C" 
			},
			{
				"x": -1.0533513518,
				"y": 0.6298437521,
				"z": -0.9220022409,
				"element": "C" 
			},
			{
				"x": 2.1845578819,
				"y": -1.1457295188,
				"z": 0.0192272136,
				"element": "C" 
			},
			{
				"x": 3.2558948664,
				"y": -0.9010587691,
				"z": 0.548709027,
				"element": "O" 
			},
			{
				"x": 1.9404919992,
				"y": -2.5920019893,
				"z": -0.4629249732,
				"element": "C" 
			},
			{
				"x": 3.0717841812,
				"y": -3.144501065,
				"z": -0.9283706021,
				"element": "O" 
			},
			{
				"x": 0.8836021657,
				"y": -3.1825370201,
				"z": -0.3895320548,
				"element": "O" 
			},
			{
				"x": -2.5985565011,
				"y": 2.7619592023,
				"z": -1.3055913154,
				"element": "H" 
			},
			{
				"x": -1.3717817639,
				"y": 3.9627205279,
				"z": -0.8625270609,
				"element": "H" 
			},
			{
				"x": -2.3415646595,
				"y": 3.1894544551,
				"z": 0.3895570097,
				"element": "H" 
			},
			{
				"x": 0.6423829903,
				"y": 3.1627595706,
				"z": 0.5750323,
				"element": "H" 
			},
			{
				"x": 2.3223931658,
				"y": 1.3482218339,
				"z": 0.8217471726,
				"element": "H" 
			},
			{
				"x": -0.339214086,
				"y": -1.3832628222,
				"z": -1.1522697492,
				"element": "H" 
			},
			{
				"x": -1.9980703891,
				"y": 0.4199746318,
				"z": -1.4165156072,
				"element": "H" 
			},
			{
				"x": 2.8509205574,
				"y": -4.062132356,
				"z": -1.1639287025,
				"element": "H" 
			}
		],
		 "valence_orbital": [ 
			{
				"type": "occ",
				"energy": -0.33109,
				"method": "rhf"
			},
			{
				"type": "occ",
				"energy": -0.31644,
				"method": "rhf"
			},
			{
				"type": "occ",
				"energy": -0.26312,
				"method": "rhf"
			},
			{
				"type": "occ",
				"energy": -0.25724,
				"method": "rhf"
			},
			{
				"type": "occ",
				"energy": -0.25171,
				"method": "rhf"
			},
			{
				"type": "unocc",
				"energy": -0.08104,
				"method": "rhf"
			},
			{
				"type": "unocc",
				"energy": -0.01548,
				"method": "rhf"
			},
			{
				"type": "unocc",
				"energy": -0.00582,
				"method": "rhf"
			},
			{
				"type": "unocc",
				"energy": 0.05785,
				"method": "rhf"
			},
			{
				"type": "unocc",
				"energy": 0.07334,
				"method": "rhf"
			}
		],
		"cosmo_sigma_profile": { 
			"-0.025": 0.0,
			"-0.024": 0.0,
			"-0.023": 0.0,
			"-0.022": 0.0,
			"-0.021": 0.0,
			"-0.02": 0.154846336303,
			"-0.019": 0.704997993145,
			"-0.018": 1.06392573457,
			"-0.017": 1.04295853988,
			"-0.016": 0.830531734737,
			"-0.015": 0.364360374616,
			"-0.014": 0.566688370051,
			"-0.013": 0.679089376964,
			"-0.012": 1.36618677349,
			"-0.011": 0.256250138845,
			"-0.01": 0.365253177309,
			"-0.009": 1.10820855941,
			"-0.008": 1.34520121469,
			"-0.007": 1.49468397644,
			"-0.006": 7.3226827711,
			"-0.005": 16.6283428626,
			"-0.004": 18.4886793264,
			"-0.003": 14.5817787401,
			"-0.002": 15.087159251,
			"-0.001": 15.9659374228,
			"0.0": 15.7490497269,
			"0.001": 11.7770573355,
			"0.002": 11.2090752725,
			"0.003": 17.1614115262,
			"0.004": 9.70379617627,
			"0.005": 3.05429514729,
			"0.006": 3.2850578901,
			"0.007": 4.26197481227,
			"0.008": 4.61468712087,
			"0.009": 5.25876743106,
			"0.01": 8.43684156488,
			"0.011": 5.08854138168,
			"0.012": 1.51678046406,
			"0.013": 0.0588416838823,
			"0.014": 0.0,
			"0.015": 0.0,
			"0.016": 0.0,
			"0.017": 0.0,
			"0.018": 0.0,
			"0.019": 0.0,
			"0.02": 0.0,
			"0.021": 0.0,
			"0.022": 0.0,
			"0.023": 0.0,
			"0.024": 0.0,
			"0.025": 0.0
		}
	}
}
