{
	 "smiles": "OC(=O)CSC1=C(C=CC=C1)[N+]([O-])=O", 
	 "Tm": 440.15, 
	 "num_atms": 21, 
	 "gaussian": { 
		 "optdone": 1, 
		 "sigma_profile": "yes", 
		 "theory": "DFT", 
		 "functional": "B3LYP", 
		 "basiset": "6-31G**", 
		 "properties": { 
			 "R2extent": 3554.6902, 
			 "electric_dipole_moment_norm": 3.71757025623, 
			 "electric_quadrupole_moment_norm": 15.173591875, 
			 "total_energy": -1062.80302199, 
			 "HOMO_LUMO_gap": 0.15214, 
			 "cosmo_polarized_energy": -14.17, 
			 "cosmo_cavitation_energy": 27.9, 
			 "cosmo_dispersion_energy": -20.45, 
			 "cosmo_repulsion_energy": 1.58, 
			 "cosmo_total_nonelectrostatic_energy": 9.03, 
			 "SMD_solvation_energy": 7.67 
		},
		"coords": [
			{
				"x": 2.7555591291,
				"y": 2.325223536,
				"z": -0.0399463908,
				"element": "O" 
			},
			{
				"x": 2.512620997,
				"y": 1.0614054229,
				"z": 0.3823363437,
				"element": "C" 
			},
			{
				"x": 3.3170281931,
				"y": 0.1657322831,
				"z": 0.2685402042,
				"element": "O" 
			},
			{
				"x": 1.1158794408,
				"y": 0.9767256662,
				"z": 0.9718209719,
				"element": "C" 
			},
			{
				"x": 0.7197239388,
				"y": -0.5928897365,
				"z": 1.809617111,
				"element": "S" 
			},
			{
				"x": 0.5654525062,
				"y": -1.7423857861,
				"z": 0.4378544425,
				"element": "C" 
			},
			{
				"x": -0.6150580665,
				"y": -1.9659136214,
				"z": -0.2976063073,
				"element": "C" 
			},
			{
				"x": -0.7158700239,
				"y": -2.994754612,
				"z": -1.2347186838,
				"element": "C" 
			},
			{
				"x": 0.38273433,
				"y": -3.8128081005,
				"z": -1.4807682035,
				"element": "C" 
			},
			{
				"x": 1.5668080825,
				"y": -3.6099391986,
				"z": -0.7715432181,
				"element": "C" 
			},
			{
				"x": 1.6491039497,
				"y": -2.5947539981,
				"z": 0.18173415,
				"element": "C" 
			},
			{
				"x": -1.8178122214,
				"y": -1.1322364232,
				"z": -0.1373713051,
				"element": "N" 
			},
			{
				"x": -2.9066973146,
				"y": -1.6949840991,
				"z": -0.2379275015,
				"element": "O" 
			},
			{
				"x": -1.6686688031,
				"y": 0.0738377845,
				"z": 0.0549315073,
				"element": "O" 
			},
			{
				"x": 3.6491277159,
				"y": 2.318130298,
				"z": -0.4228708567,
				"element": "H" 
			},
			{
				"x": 0.3721566707,
				"y": 1.1729598776,
				"z": 0.1956175267,
				"element": "H" 
			},
			{
				"x": 0.9998843288,
				"y": 1.7618437584,
				"z": 1.7252277877,
				"element": "H" 
			},
			{
				"x": -1.6552428144,
				"y": -3.1330724169,
				"z": -1.756355067,
				"element": "H" 
			},
			{
				"x": 0.3099647183,
				"y": -4.604012495,
				"z": -2.2201304626,
				"element": "H" 
			},
			{
				"x": 2.4294701721,
				"y": -4.243054596,
				"z": -0.9552289374,
				"element": "H" 
			},
			{
				"x": 2.565435071,
				"y": -2.4311535432,
				"z": 0.7355868888,
				"element": "H" 
			}
		],
		 "valence_orbital": [ 
			{
				"type": "occ",
				"energy": -0.30586,
				"method": "rhf"
			},
			{
				"type": "occ",
				"energy": -0.2898,
				"method": "rhf"
			},
			{
				"type": "occ",
				"energy": -0.27706,
				"method": "rhf"
			},
			{
				"type": "occ",
				"energy": -0.2746,
				"method": "rhf"
			},
			{
				"type": "occ",
				"energy": -0.24103,
				"method": "rhf"
			},
			{
				"type": "unocc",
				"energy": -0.08889,
				"method": "rhf"
			},
			{
				"type": "unocc",
				"energy": -0.03983,
				"method": "rhf"
			},
			{
				"type": "unocc",
				"energy": -0.0156,
				"method": "rhf"
			},
			{
				"type": "unocc",
				"energy": 0.0001,
				"method": "rhf"
			},
			{
				"type": "unocc",
				"energy": 0.03343,
				"method": "rhf"
			}
		],
		"cosmo_sigma_profile": { 
			"-0.025": 0.0,
			"-0.024": 0.0,
			"-0.023": 0.0,
			"-0.022": 0.0,
			"-0.021": 0.0,
			"-0.02": 0.0,
			"-0.019": 0.0694225602985,
			"-0.018": 0.884205967666,
			"-0.017": 1.31489321452,
			"-0.016": 0.548516692066,
			"-0.015": 0.51107328609,
			"-0.014": 0.731783493155,
			"-0.013": 0.689904775302,
			"-0.012": 1.05484096993,
			"-0.011": 0.815941590105,
			"-0.01": 0.865149882175,
			"-0.009": 2.56387582453,
			"-0.008": 6.51071722945,
			"-0.007": 11.6972295626,
			"-0.006": 14.6721562239,
			"-0.005": 12.4629717097,
			"-0.004": 12.0709815443,
			"-0.003": 11.4243468576,
			"-0.002": 12.7391037197,
			"-0.001": 12.897681636,
			"0.0": 14.6172462694,
			"0.001": 18.1678608206,
			"0.002": 13.7898380065,
			"0.003": 9.28150605076,
			"0.004": 7.37336079713,
			"0.005": 8.77360409784,
			"0.006": 9.25957488429,
			"0.007": 12.4099398105,
			"0.008": 11.478486514,
			"0.009": 7.7640867008,
			"0.01": 4.31933963173,
			"0.011": 2.65885351135,
			"0.012": 0.73956478815,
			"0.013": 0.0,
			"0.014": 0.0,
			"0.015": 0.0,
			"0.016": 0.0,
			"0.017": 0.0,
			"0.018": 0.0,
			"0.019": 0.0,
			"0.02": 0.0,
			"0.021": 0.0,
			"0.022": 0.0,
			"0.023": 0.0,
			"0.024": 0.0,
			"0.025": 0.0
		}
	}
}
