{
	 "smiles": "OC(=O)C1CCCN1C(=O)C12CC3CC(CC(C3)C1)C2", 
	 "Tm": 467.15, 
	 "num_atms": 43, 
	 "gaussian": { 
		 "optdone": 1, 
		 "sigma_profile": "yes", 
		 "theory": "DFT", 
		 "functional": "B3LYP", 
		 "basiset": "6-31G**", 
		 "properties": { 
			 "R2extent": 5772.2258, 
			 "electric_dipole_moment_norm": 4.73823824749, 
			 "electric_quadrupole_moment_norm": 13.5786017259, 
			 "total_energy": -904.040830228, 
			 "HOMO_LUMO_gap": 0.25028, 
			 "cosmo_polarized_energy": -15.93, 
			 "cosmo_cavitation_energy": 39.1, 
			 "cosmo_dispersion_energy": -28.23, 
			 "cosmo_repulsion_energy": 2.14, 
			 "cosmo_total_nonelectrostatic_energy": 13.01, 
			 "SMD_solvation_energy": 5.81 
		},
		"coords": [
			{
				"x": -2.1972419296,
				"y": -2.1941858508,
				"z": -0.9444572098,
				"element": "O" 
			},
			{
				"x": -1.5498424166,
				"y": -2.9925335352,
				"z": -0.061134566,
				"element": "C" 
			},
			{
				"x": -2.0973676648,
				"y": -3.8920181174,
				"z": 0.5340087095,
				"element": "O" 
			},
			{
				"x": -0.0489095696,
				"y": -2.7156956455,
				"z": 0.0181191752,
				"element": "C" 
			},
			{
				"x": 0.7254903537,
				"y": -3.5268887786,
				"z": -1.0456328463,
				"element": "C" 
			},
			{
				"x": 0.8361317556,
				"y": -2.5498935264,
				"z": -2.2240150695,
				"element": "C" 
			},
			{
				"x": 1.0771399705,
				"y": -1.2038421056,
				"z": -1.5274163461,
				"element": "C" 
			},
			{
				"x": 0.3144868799,
				"y": -1.323241826,
				"z": -0.2733184002,
				"element": "N" 
			},
			{
				"x": -0.1820125591,
				"y": -0.3711283029,
				"z": 0.5880383183,
				"element": "C" 
			},
			{
				"x": -0.8834746275,
				"y": -0.7535690298,
				"z": 1.5264996791,
				"element": "O" 
			},
			{
				"x": 0.0919484885,
				"y": 1.136275874,
				"z": 0.3868113161,
				"element": "C" 
			},
			{
				"x": 1.5873739806,
				"y": 1.4846133134,
				"z": 0.1551140422,
				"element": "C" 
			},
			{
				"x": 1.7649208443,
				"y": 3.0124905078,
				"z": 0.0104332245,
				"element": "C" 
			},
			{
				"x": 0.9281183387,
				"y": 3.5123209895,
				"z": -1.1862289411,
				"element": "C" 
			},
			{
				"x": -0.563998346,
				"y": 3.2037376942,
				"z": -0.9417711243,
				"element": "C" 
			},
			{
				"x": -1.028261315,
				"y": 3.9074065827,
				"z": 0.3484923901,
				"element": "C" 
			},
			{
				"x": -0.1909195585,
				"y": 3.3940541045,
				"z": 1.5369017786,
				"element": "C" 
			},
			{
				"x": 1.2961910279,
				"y": 3.7186484788,
				"z": 1.2965815781,
				"element": "C" 
			},
			{
				"x": -0.3721508313,
				"y": 1.8705471372,
				"z": 1.6745270466,
				"element": "C" 
			},
			{
				"x": -0.7582512503,
				"y": 1.6790590433,
				"z": -0.7996764387,
				"element": "C" 
			},
			{
				"x": -3.1271289835,
				"y": -2.4758108086,
				"z": -0.9166668354,
				"element": "H" 
			},
			{
				"x": 0.2355725528,
				"y": -2.9882520951,
				"z": 1.0363645741,
				"element": "H" 
			},
			{
				"x": 1.7194371102,
				"y": -3.771412154,
				"z": -0.6557216148,
				"element": "H" 
			},
			{
				"x": 0.2254813734,
				"y": -4.4661311078,
				"z": -1.2933406813,
				"element": "H" 
			},
			{
				"x": -0.1069820311,
				"y": -2.5181782588,
				"z": -2.7781120422,
				"element": "H" 
			},
			{
				"x": 1.6377756159,
				"y": -2.803389299,
				"z": -2.9230026762,
				"element": "H" 
			},
			{
				"x": 0.7369649719,
				"y": -0.3599930831,
				"z": -2.1293415877,
				"element": "H" 
			},
			{
				"x": 2.1473403653,
				"y": -1.0665381777,
				"z": -1.322759598,
				"element": "H" 
			},
			{
				"x": 1.9767355081,
				"y": 1.0029250196,
				"z": -0.7454308124,
				"element": "H" 
			},
			{
				"x": 2.1843349947,
				"y": 1.1136797292,
				"z": 0.998508583,
				"element": "H" 
			},
			{
				"x": 2.8261062922,
				"y": 3.22961513,
				"z": -0.1668922801,
				"element": "H" 
			},
			{
				"x": 1.0712899515,
				"y": 4.5924372217,
				"z": -1.3194492469,
				"element": "H" 
			},
			{
				"x": 1.2677057539,
				"y": 3.0306291256,
				"z": -2.113307731,
				"element": "H" 
			},
			{
				"x": -1.1582923092,
				"y": 3.5595846564,
				"z": -1.7932101667,
				"element": "H" 
			},
			{
				"x": -0.9172803593,
				"y": 4.994924681,
				"z": 0.2455765921,
				"element": "H" 
			},
			{
				"x": -2.093613618,
				"y": 3.7093488133,
				"z": 0.5235140898,
				"element": "H" 
			},
			{
				"x": -0.5298080492,
				"y": 3.8774209999,
				"z": 2.4619162847,
				"element": "H" 
			},
			{
				"x": 1.899058523,
				"y": 3.3852208729,
				"z": 2.1513647667,
				"element": "H" 
			},
			{
				"x": 1.4413971487,
				"y": 4.8032685966,
				"z": 1.2064038692,
				"element": "H" 
			},
			{
				"x": -1.4179989582,
				"y": 1.6212902435,
				"z": 1.8729131024,
				"element": "H" 
			},
			{
				"x": 0.1982564743,
				"y": 1.493904778,
				"z": 2.5312322852,
				"element": "H" 
			},
			{
				"x": -1.8143187008,
				"y": 1.4430797723,
				"z": -0.6207878853,
				"element": "H" 
			},
			{
				"x": -0.4827051981,
				"y": 1.1883183366,
				"z": -1.7400473056,
				"element": "H" 
			}
		],
		 "valence_orbital": [ 
			{
				"type": "occ",
				"energy": -0.28,
				"method": "rhf"
			},
			{
				"type": "occ",
				"energy": -0.27806,
				"method": "rhf"
			},
			{
				"type": "occ",
				"energy": -0.276,
				"method": "rhf"
			},
			{
				"type": "occ",
				"energy": -0.2382,
				"method": "rhf"
			},
			{
				"type": "occ",
				"energy": -0.23549,
				"method": "rhf"
			},
			{
				"type": "unocc",
				"energy": 0.01479,
				"method": "rhf"
			},
			{
				"type": "unocc",
				"energy": 0.02375,
				"method": "rhf"
			},
			{
				"type": "unocc",
				"energy": 0.0591,
				"method": "rhf"
			},
			{
				"type": "unocc",
				"energy": 0.0767,
				"method": "rhf"
			},
			{
				"type": "unocc",
				"energy": 0.09453,
				"method": "rhf"
			}
		],
		"cosmo_sigma_profile": { 
			"-0.025": 0.0,
			"-0.024": 0.0,
			"-0.023": 0.0,
			"-0.022": 0.0,
			"-0.021": 0.0,
			"-0.02": 0.0,
			"-0.019": 0.0,
			"-0.018": 0.685243691194,
			"-0.017": 0.990416165873,
			"-0.016": 1.05445042678,
			"-0.015": 0.390535777104,
			"-0.014": 0.289693778573,
			"-0.013": 0.77428335678,
			"-0.012": 1.36638437893,
			"-0.011": 0.564453580288,
			"-0.01": 0.505075629001,
			"-0.009": 0.887643083287,
			"-0.008": 0.585566442451,
			"-0.007": 0.994015697474,
			"-0.006": 3.26395791696,
			"-0.005": 12.579466647,
			"-0.004": 20.4295642931,
			"-0.003": 24.2447558396,
			"-0.002": 47.5296429396,
			"-0.001": 50.2987703373,
			"0.0": 42.2514962016,
			"0.001": 28.2671558041,
			"0.002": 9.60638887992,
			"0.003": 4.35186632816,
			"0.004": 4.87775557963,
			"0.005": 4.68009599747,
			"0.006": 4.85653973884,
			"0.007": 4.41826312999,
			"0.008": 3.58291329961,
			"0.009": 3.58084247295,
			"0.01": 4.14896217889,
			"0.011": 5.34201932398,
			"0.012": 6.92585573815,
			"0.013": 3.31423340249,
			"0.014": 2.96339712417,
			"0.015": 0.519618079705,
			"0.016": 0.0,
			"0.017": 0.0,
			"0.018": 0.0,
			"0.019": 0.0,
			"0.02": 0.0,
			"0.021": 0.0,
			"0.022": 0.0,
			"0.023": 0.0,
			"0.024": 0.0,
			"0.025": 0.0
		}
	}
}
