{
	 "smiles": "CN1N(C(=O)C(NC=C2/C(=O)NN=C2C2=C(O)C3=CC=CC=C3N(C)C2=O)=C1C)C1=CC=CC=C1", 
	 "Tm": 448.15, 
	 "num_atms": 57, 
	 "gaussian": { 
		 "optdone": 1, 
		 "sigma_profile": "yes", 
		 "theory": "DFT", 
		 "functional": "B3LYP", 
		 "basiset": "6-31G**", 
		 "properties": { 
			 "R2extent": 22506.8162, 
			 "electric_dipole_moment_norm": 4.41861884982, 
			 "electric_quadrupole_moment_norm": 33.3225048919, 
			 "total_energy": -1595.33618083, 
			 "HOMO_LUMO_gap": 0.13619, 
			 "cosmo_polarized_energy": -26.42, 
			 "cosmo_cavitation_energy": 59.74, 
			 "cosmo_dispersion_energy": -42.52, 
			 "cosmo_repulsion_energy": 3.07, 
			 "cosmo_total_nonelectrostatic_energy": 20.29, 
			 "SMD_solvation_energy": 10.78 
		},
		"coords": [
			{
				"x": -4.234885728,
				"y": 0.860492198,
				"z": 4.1507862756,
				"element": "C" 
			},
			{
				"x": -3.1535838415,
				"y": 1.4191622623,
				"z": 3.3213410797,
				"element": "N" 
			},
			{
				"x": -1.9303582384,
				"y": 0.7251656145,
				"z": 3.4606480135,
				"element": "N" 
			},
			{
				"x": -1.3407654307,
				"y": 0.5047155763,
				"z": 2.1992991059,
				"element": "C" 
			},
			{
				"x": -0.2364423745,
				"y": 0.0102949455,
				"z": 2.0069612486,
				"element": "O" 
			},
			{
				"x": -2.3238559703,
				"y": 1.0269476029,
				"z": 1.2503736335,
				"element": "C" 
			},
			{
				"x": -2.1844106173,
				"y": 1.01746107,
				"z": -0.1329335771,
				"element": "N" 
			},
			{
				"x": -1.0606641799,
				"y": 0.794389111,
				"z": -0.8304435715,
				"element": "C" 
			},
			{
				"x": -1.1224941389,
				"y": 0.8084827168,
				"z": -2.2203407706,
				"element": "C" 
			},
			{
				"x": -2.3986499878,
				"y": 1.0483685196,
				"z": -2.890923448,
				"element": "C" 
			},
			{
				"x": -3.522176946,
				"y": 1.3061282638,
				"z": -2.4043382383,
				"element": "O" 
			},
			{
				"x": -2.1079633956,
				"y": 0.9167431528,
				"z": -4.2223755659,
				"element": "N" 
			},
			{
				"x": -0.7843026345,
				"y": 0.6411801972,
				"z": -4.4587712042,
				"element": "N" 
			},
			{
				"x": -0.1649044317,
				"y": 0.566763018,
				"z": -3.2833262882,
				"element": "C" 
			},
			{
				"x": 1.2571449704,
				"y": 0.187128016,
				"z": -3.3049301803,
				"element": "C" 
			},
			{
				"x": 1.8133306066,
				"y": -0.350972807,
				"z": -4.4624700059,
				"element": "C" 
			},
			{
				"x": 1.1423245249,
				"y": -0.4951516761,
				"z": -5.6022277361,
				"element": "O" 
			},
			{
				"x": 3.184448268,
				"y": -0.8094261762,
				"z": -4.4851753719,
				"element": "C" 
			},
			{
				"x": 3.7356906339,
				"y": -1.4016390217,
				"z": -5.6364041938,
				"element": "C" 
			},
			{
				"x": 5.0467869973,
				"y": -1.849165749,
				"z": -5.645988384,
				"element": "C" 
			},
			{
				"x": 5.829521264,
				"y": -1.7020759811,
				"z": -4.492323777,
				"element": "C" 
			},
			{
				"x": 5.3102038042,
				"y": -1.115830788,
				"z": -3.345654796,
				"element": "C" 
			},
			{
				"x": 3.9764891835,
				"y": -0.6585770916,
				"z": -3.3222711476,
				"element": "C" 
			},
			{
				"x": 3.4304553325,
				"y": -0.0581612016,
				"z": -2.1976575254,
				"element": "N" 
			},
			{
				"x": 4.2553048502,
				"y": 0.1390247925,
				"z": -1.0059537835,
				"element": "C" 
			},
			{
				"x": 2.1016983273,
				"y": 0.4097417196,
				"z": -2.1370772025,
				"element": "C" 
			},
			{
				"x": 1.7143853082,
				"y": 0.9887706665,
				"z": -1.1174124926,
				"element": "O" 
			},
			{
				"x": -3.3838089306,
				"y": 1.5279817384,
				"z": 1.9457307104,
				"element": "C" 
			},
			{
				"x": -4.6528645065,
				"y": 2.1227400652,
				"z": 1.4274700485,
				"element": "C" 
			},
			{
				"x": -1.208299807,
				"y": 0.8268942398,
				"z": 4.6793239097,
				"element": "C" 
			},
			{
				"x": -1.4412670268,
				"y": 1.8886875519,
				"z": 5.5638985183,
				"element": "C" 
			},
			{
				"x": -0.7320486219,
				"y": 1.9563512435,
				"z": 6.7629395495,
				"element": "C" 
			},
			{
				"x": 0.221023744,
				"y": 0.986852473,
				"z": 7.0774951745,
				"element": "C" 
			},
			{
				"x": 0.4592254091,
				"y": -0.0582014261,
				"z": 6.1821358348,
				"element": "C" 
			},
			{
				"x": -0.2552572941,
				"y": -0.1530595377,
				"z": 4.9893114661,
				"element": "C" 
			},
			{
				"x": -3.9322040572,
				"y": 0.8937391369,
				"z": 5.1977403409,
				"element": "H" 
			},
			{
				"x": -4.4674439504,
				"y": -0.1751913237,
				"z": 3.8713463257,
				"element": "H" 
			},
			{
				"x": -5.121401579,
				"y": 1.4840637425,
				"z": 4.0268023233,
				"element": "H" 
			},
			{
				"x": -3.01281923,
				"y": 1.1854932547,
				"z": -0.732945826,
				"element": "H" 
			},
			{
				"x": -0.1429932005,
				"y": 0.6140771492,
				"z": -0.2860034726,
				"element": "H" 
			},
			{
				"x": -2.7422677038,
				"y": 1.0541589518,
				"z": -4.9926774244,
				"element": "H" 
			},
			{
				"x": 0.2316344206,
				"y": -0.0857103004,
				"z": -5.4636661976,
				"element": "H" 
			},
			{
				"x": 3.1042159884,
				"y": -1.498005767,
				"z": -6.5117971367,
				"element": "H" 
			},
			{
				"x": 5.4635753962,
				"y": -2.3067975628,
				"z": -6.537434788,
				"element": "H" 
			},
			{
				"x": 6.8594733017,
				"y": -2.047433905,
				"z": -4.4876064268,
				"element": "H" 
			},
			{
				"x": 5.9384898605,
				"y": -1.0123086964,
				"z": -2.4706461775,
				"element": "H" 
			},
			{
				"x": 5.1184924821,
				"y": 0.7725936846,
				"z": -1.233843956,
				"element": "H" 
			},
			{
				"x": 3.6319095164,
				"y": 0.6257533571,
				"z": -0.260074574,
				"element": "H" 
			},
			{
				"x": 4.6080481965,
				"y": -0.8225691823,
				"z": -0.6201005295,
				"element": "H" 
			},
			{
				"x": -4.5353179953,
				"y": 2.41503774,
				"z": 0.3810673064,
				"element": "H" 
			},
			{
				"x": -4.9275431742,
				"y": 3.0145818019,
				"z": 1.9992711678,
				"element": "H" 
			},
			{
				"x": -5.4908759454,
				"y": 1.4170216305,
				"z": 1.479446842,
				"element": "H" 
			},
			{
				"x": -2.1562721568,
				"y": 2.6595891235,
				"z": 5.2987650342,
				"element": "H" 
			},
			{
				"x": -0.9185474245,
				"y": 2.7807769721,
				"z": 7.4451502571,
				"element": "H" 
			},
			{
				"x": 0.7752920009,
				"y": 1.0466440497,
				"z": 8.0091920138,
				"element": "H" 
			},
			{
				"x": 1.202250957,
				"y": -0.8153119448,
				"z": 6.4150463776,
				"element": "H" 
			},
			{
				"x": -0.0716248248,
				"y": -0.9584072112,
				"z": 4.2903532122,
				"element": "H" 
			}
		],
		 "valence_orbital": [ 
			{
				"type": "occ",
				"energy": -0.24182,
				"method": "rhf"
			},
			{
				"type": "occ",
				"energy": -0.22362,
				"method": "rhf"
			},
			{
				"type": "occ",
				"energy": -0.21644,
				"method": "rhf"
			},
			{
				"type": "occ",
				"energy": -0.20205,
				"method": "rhf"
			},
			{
				"type": "occ",
				"energy": -0.19282,
				"method": "rhf"
			},
			{
				"type": "unocc",
				"energy": -0.05663,
				"method": "rhf"
			},
			{
				"type": "unocc",
				"energy": -0.03672,
				"method": "rhf"
			},
			{
				"type": "unocc",
				"energy": -0.02325,
				"method": "rhf"
			},
			{
				"type": "unocc",
				"energy": -0.00678,
				"method": "rhf"
			},
			{
				"type": "unocc",
				"energy": 0.00027,
				"method": "rhf"
			}
		],
		"cosmo_sigma_profile": { 
			"-0.025": 0.0,
			"-0.024": 0.0,
			"-0.023": 0.0,
			"-0.022": 0.0,
			"-0.021": 0.0,
			"-0.02": 0.0,
			"-0.019": 0.0,
			"-0.018": 0.0,
			"-0.017": 0.103512138826,
			"-0.016": 1.22518667917,
			"-0.015": 1.17888773975,
			"-0.014": 1.18690049953,
			"-0.013": 0.932487243527,
			"-0.012": 0.279869214946,
			"-0.011": 0.967692745505,
			"-0.01": 1.35779149128,
			"-0.009": 0.475774648205,
			"-0.008": 0.749884632005,
			"-0.007": 7.49925999387,
			"-0.006": 31.0702626548,
			"-0.005": 38.0365816598,
			"-0.004": 40.4904514698,
			"-0.003": 38.2606724394,
			"-0.002": 37.7192220814,
			"-0.001": 35.4108617119,
			"0.0": 41.7501447197,
			"0.001": 37.1271949414,
			"0.002": 32.7888607768,
			"0.003": 29.777653947,
			"0.004": 27.2114591888,
			"0.005": 19.2985927621,
			"0.006": 7.45581978076,
			"0.007": 7.98130123046,
			"0.008": 7.72444858016,
			"0.009": 5.20142374503,
			"0.01": 4.44748626729,
			"0.011": 5.61833500165,
			"0.012": 5.99522546538,
			"0.013": 6.5624600416,
			"0.014": 2.62857307773,
			"0.015": 0.984227900361,
			"0.016": 0.0,
			"0.017": 0.0,
			"0.018": 0.0,
			"0.019": 0.0,
			"0.02": 0.0,
			"0.021": 0.0,
			"0.022": 0.0,
			"0.023": 0.0,
			"0.024": 0.0,
			"0.025": 0.0
		}
	}
}
