{
	 "smiles": "CC(C)(C)CC=C", 
	 "Tm": 136.15, 
	 "num_atms": 21, 
	 "gaussian": { 
		 "optdone": 1, 
		 "sigma_profile": "yes", 
		 "theory": "DFT", 
		 "functional": "B3LYP", 
		 "basiset": "6-31G**", 
		 "properties": { 
			 "R2extent": 996.7588, 
			 "electric_dipole_moment_norm": 0.279062609462, 
			 "electric_quadrupole_moment_norm": 1.37667997007, 
			 "total_energy": -275.176600832, 
			 "HOMO_LUMO_gap": 0.27073, 
			 "cosmo_polarized_energy": -1.61, 
			 "cosmo_cavitation_energy": 22.34, 
			 "cosmo_dispersion_energy": -15.53, 
			 "cosmo_repulsion_energy": 1.29, 
			 "cosmo_total_nonelectrostatic_energy": 8.1, 
			 "SMD_solvation_energy": 4.6 
		},
		"coords": [
			{
				"x": -1.9441295085,
				"y": 0.6971384007,
				"z": 0.1042517591,
				"element": "C" 
			},
			{
				"x": -0.5248423816,
				"y": 0.1900421543,
				"z": 0.4257825813,
				"element": "C" 
			},
			{
				"x": -0.3996923187,
				"y": -1.2902279221,
				"z": 0.0214489885,
				"element": "C" 
			},
			{
				"x": -0.273401047,
				"y": 0.3284784775,
				"z": 1.9394257416,
				"element": "C" 
			},
			{
				"x": 0.5470923431,
				"y": 1.0418101497,
				"z": -0.3198073115,
				"element": "C" 
			},
			{
				"x": 0.4457469618,
				"y": 1.0622478616,
				"z": -1.8211020661,
				"element": "C" 
			},
			{
				"x": 1.3681581213,
				"y": 0.5831012815,
				"z": -2.6575480013,
				"element": "C" 
			},
			{
				"x": -2.0515745443,
				"y": 1.7607002432,
				"z": 0.3482749331,
				"element": "H" 
			},
			{
				"x": -2.1929020836,
				"y": 0.5669409818,
				"z": -0.9538412031,
				"element": "H" 
			},
			{
				"x": -2.691279046,
				"y": 0.1460929817,
				"z": 0.6863973401,
				"element": "H" 
			},
			{
				"x": 0.5926907942,
				"y": -1.684134499,
				"z": 0.270151901,
				"element": "H" 
			},
			{
				"x": -0.5491796121,
				"y": -1.4237779755,
				"z": -1.0543162465,
				"element": "H" 
			},
			{
				"x": -1.1423037942,
				"y": -1.9013990258,
				"z": 0.5467881611,
				"element": "H" 
			},
			{
				"x": -0.3664388691,
				"y": 1.3712708017,
				"z": 2.2644232164,
				"element": "H" 
			},
			{
				"x": -0.9944746596,
				"y": -0.2652441238,
				"z": 2.5125174701,
				"element": "H" 
			},
			{
				"x": 0.7314510923,
				"y": -0.017288865,
				"z": 2.2079209111,
				"element": "H" 
			},
			{
				"x": 0.4714577015,
				"y": 2.0741084859,
				"z": 0.0538524317,
				"element": "H" 
			},
			{
				"x": 1.5423083953,
				"y": 0.6784941231,
				"z": -0.0326787901,
				"element": "H" 
			},
			{
				"x": -0.4511662638,
				"y": 1.5182262461,
				"z": -2.2408260641,
				"element": "H" 
			},
			{
				"x": 2.2852072781,
				"y": 0.1252697397,
				"z": -2.2929640673,
				"element": "H" 
			},
			{
				"x": 1.2461714408,
				"y": 0.6346504827,
				"z": -3.7357516852,
				"element": "H" 
			}
		],
		 "valence_orbital": [ 
			{
				"type": "occ",
				"energy": -0.34423,
				"method": "rhf"
			},
			{
				"type": "occ",
				"energy": -0.32369,
				"method": "rhf"
			},
			{
				"type": "occ",
				"energy": -0.31598,
				"method": "rhf"
			},
			{
				"type": "occ",
				"energy": -0.31062,
				"method": "rhf"
			},
			{
				"type": "occ",
				"energy": -0.24908,
				"method": "rhf"
			},
			{
				"type": "unocc",
				"energy": 0.02165,
				"method": "rhf"
			},
			{
				"type": "unocc",
				"energy": 0.08392,
				"method": "rhf"
			},
			{
				"type": "unocc",
				"energy": 0.11879,
				"method": "rhf"
			},
			{
				"type": "unocc",
				"energy": 0.13189,
				"method": "rhf"
			},
			{
				"type": "unocc",
				"energy": 0.13721,
				"method": "rhf"
			}
		],
		"cosmo_sigma_profile": { 
			"-0.025": 0.0,
			"-0.024": 0.0,
			"-0.023": 0.0,
			"-0.022": 0.0,
			"-0.021": 0.0,
			"-0.02": 0.0,
			"-0.019": 0.0,
			"-0.018": 0.0,
			"-0.017": 0.0,
			"-0.016": 0.0,
			"-0.015": 0.0,
			"-0.014": 0.0,
			"-0.013": 0.0,
			"-0.012": 0.0,
			"-0.011": 0.0,
			"-0.01": 0.0,
			"-0.009": 0.0,
			"-0.008": 0.0,
			"-0.007": 0.0,
			"-0.006": 0.0,
			"-0.005": 0.784187783282,
			"-0.004": 4.91055380126,
			"-0.003": 10.747577489,
			"-0.002": 33.4841153306,
			"-0.001": 31.5116018168,
			"0.0": 23.9999633513,
			"0.001": 25.4096628415,
			"0.002": 22.1198008881,
			"0.003": 5.82422963415,
			"0.004": 5.06543516149,
			"0.005": 4.21030778853,
			"0.006": 2.29895938855,
			"0.007": 1.52835312072,
			"0.008": 0.332096377639,
			"0.009": 0.0,
			"0.01": 0.0,
			"0.011": 0.0,
			"0.012": 0.0,
			"0.013": 0.0,
			"0.014": 0.0,
			"0.015": 0.0,
			"0.016": 0.0,
			"0.017": 0.0,
			"0.018": 0.0,
			"0.019": 0.0,
			"0.02": 0.0,
			"0.021": 0.0,
			"0.022": 0.0,
			"0.023": 0.0,
			"0.024": 0.0,
			"0.025": 0.0
		}
	}
}
