{
	 "smiles": "BrC1=CC(=CC=C1)C1=NOC(=O)N1", 
	 "Tm": 472.15, 
	 "num_atms": 18, 
	 "gaussian": { 
		 "optdone": 1, 
		 "sigma_profile": "yes", 
		 "theory": "DFT", 
		 "functional": "B3LYP", 
		 "basiset": "6-31G**", 
		 "properties": { 
			 "R2extent": 5474.0583, 
			 "electric_dipole_moment_norm": 5.95124762886, 
			 "electric_quadrupole_moment_norm": 20.6907326144, 
			 "total_energy": -3139.19070887, 
			 "HOMO_LUMO_gap": 0.18306, 
			 "cosmo_polarized_energy": -17.3, 
			 "cosmo_cavitation_energy": 25.99, 
			 "cosmo_dispersion_energy": -19.88, 
			 "cosmo_repulsion_energy": 1.56, 
			 "cosmo_total_nonelectrostatic_energy": 7.67, 
			 "SMD_solvation_energy": 4.29 
		},
		"coords": [
			{
				"x": -2.0066585349,
				"y": 1.3391080947,
				"z": 3.7548342777,
				"element": "Br" 
			},
			{
				"x": -1.1137265378,
				"y": -0.0678732935,
				"z": 2.8264931774,
				"element": "C" 
			},
			{
				"x": -0.1239658733,
				"y": 0.2468350937,
				"z": 1.9046862713,
				"element": "C" 
			},
			{
				"x": 0.5327651253,
				"y": -0.7904888262,
				"z": 1.2218352027,
				"element": "C" 
			},
			{
				"x": 0.1829037752,
				"y": -2.1228746132,
				"z": 1.4779378981,
				"element": "C" 
			},
			{
				"x": -0.8139816639,
				"y": -2.4161288381,
				"z": 2.4077292137,
				"element": "C" 
			},
			{
				"x": -1.4703239232,
				"y": -1.3926846424,
				"z": 3.0893790535,
				"element": "C" 
			},
			{
				"x": 1.5769471083,
				"y": -0.4434157572,
				"z": 0.250180222,
				"element": "C" 
			},
			{
				"x": 1.9311484059,
				"y": 0.7799789952,
				"z": -0.0156295856,
				"element": "N" 
			},
			{
				"x": 2.9509858986,
				"y": 0.6802971809,
				"z": -0.9899201148,
				"element": "O" 
			},
			{
				"x": 3.1935893409,
				"y": -0.6387050735,
				"z": -1.2964359554,
				"element": "C" 
			},
			{
				"x": 4.0033009433,
				"y": -1.0427773731,
				"z": -2.0887146873,
				"element": "O" 
			},
			{
				"x": 2.3049392766,
				"y": -1.3428811474,
				"z": -0.4930973547,
				"element": "N" 
			},
			{
				"x": 0.1468729309,
				"y": 1.2766461484,
				"z": 1.7063831246,
				"element": "H" 
			},
			{
				"x": 0.6780123955,
				"y": -2.9391815595,
				"z": 0.9612637419,
				"element": "H" 
			},
			{
				"x": -1.0826727964,
				"y": -3.4493018425,
				"z": 2.6038459121,
				"element": "H" 
			},
			{
				"x": -2.2458576359,
				"y": -1.6150543341,
				"z": 3.8130385956,
				"element": "H" 
			},
			{
				"x": 2.2468217649,
				"y": -2.3476982123,
				"z": -0.4959089929,
				"element": "H" 
			}
		],
		 "valence_orbital": [ 
			{
				"type": "occ",
				"energy": -0.30213,
				"method": "rhf"
			},
			{
				"type": "occ",
				"energy": -0.29659,
				"method": "rhf"
			},
			{
				"type": "occ",
				"energy": -0.29078,
				"method": "rhf"
			},
			{
				"type": "occ",
				"energy": -0.26609,
				"method": "rhf"
			},
			{
				"type": "occ",
				"energy": -0.25396,
				"method": "rhf"
			},
			{
				"type": "unocc",
				"energy": -0.0709,
				"method": "rhf"
			},
			{
				"type": "unocc",
				"energy": -0.03903,
				"method": "rhf"
			},
			{
				"type": "unocc",
				"energy": -0.00875,
				"method": "rhf"
			},
			{
				"type": "unocc",
				"energy": 0.02226,
				"method": "rhf"
			},
			{
				"type": "unocc",
				"energy": 0.0394,
				"method": "rhf"
			}
		],
		"cosmo_sigma_profile": { 
			"-0.025": 0.0,
			"-0.024": 0.0,
			"-0.023": 0.0,
			"-0.022": 0.0,
			"-0.021": 0.0,
			"-0.02": 0.0,
			"-0.019": 0.530947408626,
			"-0.018": 1.75015853776,
			"-0.017": 1.13860682268,
			"-0.016": 1.45619745229,
			"-0.015": 1.1498409566,
			"-0.014": 1.3121606165,
			"-0.013": 1.71135505375,
			"-0.012": 0.833916849706,
			"-0.011": 0.669437690619,
			"-0.01": 1.38358565414,
			"-0.009": 1.7632745633,
			"-0.008": 3.97765912957,
			"-0.007": 7.70275723531,
			"-0.006": 8.76144418998,
			"-0.005": 10.2303227015,
			"-0.004": 13.1837889003,
			"-0.003": 9.91704877595,
			"-0.002": 11.4764086785,
			"-0.001": 12.6544538935,
			"0.0": 15.8804166769,
			"0.001": 22.314256094,
			"0.002": 17.7269976888,
			"0.003": 11.2864964284,
			"0.004": 13.3157913385,
			"0.005": 5.68004870713,
			"0.006": 5.06093356594,
			"0.007": 6.93137281152,
			"0.008": 5.0441062645,
			"0.009": 3.24776615189,
			"0.01": 3.44026806006,
			"0.011": 8.15132399757,
			"0.012": 3.68713941168,
			"0.013": 0.102893412607,
			"0.014": 0.0,
			"0.015": 0.0,
			"0.016": 0.0,
			"0.017": 0.0,
			"0.018": 0.0,
			"0.019": 0.0,
			"0.02": 0.0,
			"0.021": 0.0,
			"0.022": 0.0,
			"0.023": 0.0,
			"0.024": 0.0,
			"0.025": 0.0
		}
	}
}
