{
	 "smiles": "OC(=O)CCC1=NC2=C(S1)C=CC(Br)=C2", 
	 "Tm": 428.15, 
	 "num_atms": 23, 
	 "gaussian": { 
		 "optdone": 1, 
		 "sigma_profile": "yes", 
		 "theory": "DFT", 
		 "functional": "B3LYP", 
		 "basiset": "6-31G**", 
		 "properties": { 
			 "R2extent": 7541.9417, 
			 "electric_dipole_moment_norm": 6.6730150352, 
			 "electric_quadrupole_moment_norm": 28.8483973567, 
			 "total_energy": -3560.70445041, 
			 "HOMO_LUMO_gap": 0.18589, 
			 "cosmo_polarized_energy": -15.58, 
			 "cosmo_cavitation_energy": 31.39, 
			 "cosmo_dispersion_energy": -23.88, 
			 "cosmo_repulsion_energy": 1.82, 
			 "cosmo_total_nonelectrostatic_energy": 9.32, 
			 "SMD_solvation_energy": 3.9 
		},
		"coords": [
			{
				"x": -3.825800241,
				"y": -1.5967852414,
				"z": -0.074721927,
				"element": "O" 
			},
			{
				"x": -4.4759051892,
				"y": -0.4839095921,
				"z": 0.295774933,
				"element": "C" 
			},
			{
				"x": -5.6840725681,
				"y": -0.4457005458,
				"z": 0.3529703083,
				"element": "O" 
			},
			{
				"x": -3.6149624889,
				"y": 0.7328549444,
				"z": 0.6638404208,
				"element": "C" 
			},
			{
				"x": -2.6850666999,
				"y": 1.2716710714,
				"z": -0.4495114215,
				"element": "C" 
			},
			{
				"x": -1.3823674904,
				"y": 0.5340351093,
				"z": -0.5979478678,
				"element": "C" 
			},
			{
				"x": -1.2250967835,
				"y": -0.7289842216,
				"z": -0.3406592962,
				"element": "N" 
			},
			{
				"x": 0.071819126,
				"y": -1.1574986435,
				"z": -0.5862434426,
				"element": "C" 
			},
			{
				"x": 0.9452961746,
				"y": -0.1512522382,
				"z": -1.0575770842,
				"element": "C" 
			},
			{
				"x": 0.0701740068,
				"y": 1.3626760561,
				"z": -1.1755588122,
				"element": "S" 
			},
			{
				"x": 2.2820419411,
				"y": -0.4336980238,
				"z": -1.3468921343,
				"element": "C" 
			},
			{
				"x": 2.7392782284,
				"y": -1.7347013776,
				"z": -1.1619011306,
				"element": "C" 
			},
			{
				"x": 1.8664953433,
				"y": -2.7309130001,
				"z": -0.6942201849,
				"element": "C" 
			},
			{
				"x": 2.5389896912,
				"y": -4.501340057,
				"z": -0.4567535653,
				"element": "Br" 
			},
			{
				"x": 0.5361598759,
				"y": -2.4668497311,
				"z": -0.4013325422,
				"element": "C" 
			},
			{
				"x": -2.8481837736,
				"y": -1.4504461934,
				"z": -0.082538284,
				"element": "H" 
			},
			{
				"x": -4.320537128,
				"y": 1.5179859177,
				"z": 0.9393933968,
				"element": "H" 
			},
			{
				"x": -3.0179088415,
				"y": 0.4934384492,
				"z": 1.5520046189,
				"element": "H" 
			},
			{
				"x": -3.208000254,
				"y": 1.2586689324,
				"z": -1.4155678036,
				"element": "H" 
			},
			{
				"x": -2.4639793125,
				"y": 2.3242576615,
				"z": -0.2446299233,
				"element": "H" 
			},
			{
				"x": 2.9565326308,
				"y": 0.3352929295,
				"z": -1.7082790949,
				"element": "H" 
			},
			{
				"x": 3.7712043183,
				"y": -1.9846588755,
				"z": -1.3782754308,
				"element": "H" 
			},
			{
				"x": -0.1321105658,
				"y": -3.2400433307,
				"z": -0.042073732,
				"element": "H" 
			}
		],
		 "valence_orbital": [ 
			{
				"type": "occ",
				"energy": -0.30015,
				"method": "rhf"
			},
			{
				"type": "occ",
				"energy": -0.29336,
				"method": "rhf"
			},
			{
				"type": "occ",
				"energy": -0.26755,
				"method": "rhf"
			},
			{
				"type": "occ",
				"energy": -0.25281,
				"method": "rhf"
			},
			{
				"type": "occ",
				"energy": -0.25169,
				"method": "rhf"
			},
			{
				"type": "unocc",
				"energy": -0.0658,
				"method": "rhf"
			},
			{
				"type": "unocc",
				"energy": -0.03639,
				"method": "rhf"
			},
			{
				"type": "unocc",
				"energy": -0.02279,
				"method": "rhf"
			},
			{
				"type": "unocc",
				"energy": -0.00267,
				"method": "rhf"
			},
			{
				"type": "unocc",
				"energy": -0.00074,
				"method": "rhf"
			}
		],
		"cosmo_sigma_profile": { 
			"-0.025": 0.0,
			"-0.024": 0.0,
			"-0.023": 0.0,
			"-0.022": 0.0,
			"-0.021": 0.0,
			"-0.02": 0.0,
			"-0.019": 0.0,
			"-0.018": 0.0,
			"-0.017": 0.0,
			"-0.016": 0.0,
			"-0.015": 0.0,
			"-0.014": 0.0,
			"-0.013": 0.0,
			"-0.012": 0.0,
			"-0.011": 0.0,
			"-0.01": 0.0,
			"-0.009": 0.58804230182,
			"-0.008": 7.79059558933,
			"-0.007": 14.8612668459,
			"-0.006": 18.6226579593,
			"-0.005": 17.0331206491,
			"-0.004": 16.6770665462,
			"-0.003": 15.6751319629,
			"-0.002": 15.5136516196,
			"-0.001": 16.0499281732,
			"0.0": 19.8788279058,
			"0.001": 26.4576877556,
			"0.002": 24.5645633345,
			"0.003": 14.4304986323,
			"0.004": 12.792759368,
			"0.005": 5.52392433782,
			"0.006": 2.47046130396,
			"0.007": 1.70562225313,
			"0.008": 2.27708175283,
			"0.009": 2.6542382152,
			"0.01": 3.51319565799,
			"0.011": 4.08763790628,
			"0.012": 7.15635289061,
			"0.013": 5.27067812168,
			"0.014": 1.66463721382,
			"0.015": 0.00670568811685,
			"0.016": 0.0,
			"0.017": 0.0,
			"0.018": 0.0,
			"0.019": 0.0,
			"0.02": 0.0,
			"0.021": 0.0,
			"0.022": 0.0,
			"0.023": 0.0,
			"0.024": 0.0,
			"0.025": 0.0
		}
	}
}
