{
	 "smiles": "CCCCC1=CC=C(NC2=NN=C(S)S2)C=C1", 
	 "Tm": 398.15, 
	 "num_atms": 32, 
	 "gaussian": { 
		 "optdone": 1, 
		 "sigma_profile": "yes", 
		 "theory": "DFT", 
		 "functional": "B3LYP", 
		 "basiset": "6-31G**", 
		 "properties": { 
			 "R2extent": 9374.6762, 
			 "electric_dipole_moment_norm": 4.82754749847, 
			 "electric_quadrupole_moment_norm": 29.8709142443, 
			 "total_energy": -1426.9234649, 
			 "HOMO_LUMO_gap": 0.1688, 
			 "cosmo_polarized_energy": -14.21, 
			 "cosmo_cavitation_energy": 38.98, 
			 "cosmo_dispersion_energy": -28.83, 
			 "cosmo_repulsion_energy": 2.19, 
			 "cosmo_total_nonelectrostatic_energy": 12.34, 
			 "SMD_solvation_energy": 3.56 
		},
		"coords": [
			{
				"x": -0.1175471013,
				"y": -0.0886103695,
				"z": -4.9146216409,
				"element": "C" 
			},
			{
				"x": 0.4151721804,
				"y": -0.5540998453,
				"z": -3.5556828847,
				"element": "C" 
			},
			{
				"x": 0.1207228049,
				"y": -2.0322350297,
				"z": -3.2736569549,
				"element": "C" 
			},
			{
				"x": 0.6496129437,
				"y": -2.5386604731,
				"z": -1.913280808,
				"element": "C" 
			},
			{
				"x": -0.0235017076,
				"y": -1.9099564099,
				"z": -0.7113113958,
				"element": "C" 
			},
			{
				"x": -1.3155401227,
				"y": -2.2994662089,
				"z": -0.3249051587,
				"element": "C" 
			},
			{
				"x": -1.9580030657,
				"y": -1.7121796664,
				"z": 0.7581686434,
				"element": "C" 
			},
			{
				"x": -1.3175670041,
				"y": -0.7125536981,
				"z": 1.5091483315,
				"element": "C" 
			},
			{
				"x": -2.0116813221,
				"y": -0.1717474697,
				"z": 2.6062528369,
				"element": "N" 
			},
			{
				"x": -1.8646610513,
				"y": 1.0140104865,
				"z": 3.2642064883,
				"element": "C" 
			},
			{
				"x": -2.5449989992,
				"y": 1.2446965153,
				"z": 4.3690331078,
				"element": "N" 
			},
			{
				"x": -2.3826169509,
				"y": 2.5112897053,
				"z": 4.837940633,
				"element": "N" 
			},
			{
				"x": -1.5793487828,
				"y": 3.2402558934,
				"z": 4.1261442239,
				"element": "C" 
			},
			{
				"x": -1.0768728867,
				"y": 4.8699976502,
				"z": 4.5967078385,
				"element": "S" 
			},
			{
				"x": -0.899310166,
				"y": 2.3832512202,
				"z": 2.726046371,
				"element": "S" 
			},
			{
				"x": -0.0179544768,
				"y": -0.330117805,
				"z": 1.153893246,
				"element": "C" 
			},
			{
				"x": 0.6039735831,
				"y": -0.9199378606,
				"z": 0.0523526189,
				"element": "C" 
			},
			{
				"x": 0.1103860963,
				"y": 0.9673300711,
				"z": -5.0927721167,
				"element": "H" 
			},
			{
				"x": 0.3236122359,
				"y": -0.6668582088,
				"z": -5.734674617,
				"element": "H" 
			},
			{
				"x": -1.2053609803,
				"y": -0.2080285689,
				"z": -4.9753822684,
				"element": "H" 
			},
			{
				"x": 1.500843549,
				"y": -0.3891672806,
				"z": -3.5115991282,
				"element": "H" 
			},
			{
				"x": -0.019304661,
				"y": 0.0634790405,
				"z": -2.7600146857,
				"element": "H" 
			},
			{
				"x": -0.9633541881,
				"y": -2.2035999784,
				"z": -3.3243162119,
				"element": "H" 
			},
			{
				"x": 0.5647709007,
				"y": -2.6468299029,
				"z": -4.0683426245,
				"element": "H" 
			},
			{
				"x": 1.7305694101,
				"y": -2.3589587688,
				"z": -1.8600891396,
				"element": "H" 
			},
			{
				"x": 0.515661048,
				"y": -3.6269344252,
				"z": -1.8712943431,
				"element": "H" 
			},
			{
				"x": -1.8313665339,
				"y": -3.0755636592,
				"z": -0.8851036681,
				"element": "H" 
			},
			{
				"x": -2.9644072838,
				"y": -2.0226158919,
				"z": 1.0279209467,
				"element": "H" 
			},
			{
				"x": -2.7681257296,
				"y": -0.7252935489,
				"z": 2.9885076746,
				"element": "H" 
			},
			{
				"x": -1.4963437329,
				"y": 5.4998249107,
				"z": 3.4779461531,
				"element": "H" 
			},
			{
				"x": 0.5278473123,
				"y": 0.3958081163,
				"z": 1.7451180372,
				"element": "H" 
			},
			{
				"x": 1.6137946824,
				"y": -0.6097285394,
				"z": -0.2034395046,
				"element": "H" 
			}
		],
		 "valence_orbital": [ 
			{
				"type": "occ",
				"energy": -0.28204,
				"method": "rhf"
			},
			{
				"type": "occ",
				"energy": -0.26598,
				"method": "rhf"
			},
			{
				"type": "occ",
				"energy": -0.2617,
				"method": "rhf"
			},
			{
				"type": "occ",
				"energy": -0.25624,
				"method": "rhf"
			},
			{
				"type": "occ",
				"energy": -0.21131,
				"method": "rhf"
			},
			{
				"type": "unocc",
				"energy": -0.04251,
				"method": "rhf"
			},
			{
				"type": "unocc",
				"energy": -0.02024,
				"method": "rhf"
			},
			{
				"type": "unocc",
				"energy": -0.00629,
				"method": "rhf"
			},
			{
				"type": "unocc",
				"energy": 0.00423,
				"method": "rhf"
			},
			{
				"type": "unocc",
				"energy": 0.02011,
				"method": "rhf"
			}
		],
		"cosmo_sigma_profile": { 
			"-0.025": 0.0,
			"-0.024": 0.0,
			"-0.023": 0.0,
			"-0.022": 0.0,
			"-0.021": 0.0,
			"-0.02": 0.0,
			"-0.019": 0.0,
			"-0.018": 0.0,
			"-0.017": 0.0,
			"-0.016": 0.163856022958,
			"-0.015": 0.908101717431,
			"-0.014": 1.37289841325,
			"-0.013": 0.856175954993,
			"-0.012": 1.90812428319,
			"-0.011": 4.01460098111,
			"-0.01": 3.30961228674,
			"-0.009": 2.89935351429,
			"-0.008": 2.94983868375,
			"-0.007": 3.02520574262,
			"-0.006": 6.24238792877,
			"-0.005": 11.6987383408,
			"-0.004": 13.5307764271,
			"-0.003": 18.7401048693,
			"-0.002": 31.7564600254,
			"-0.001": 39.8562106305,
			"0.0": 40.8512056534,
			"0.001": 36.5056712746,
			"0.002": 23.9131886723,
			"0.003": 13.8980621213,
			"0.004": 13.0475427434,
			"0.005": 12.2957786777,
			"0.006": 4.17631315191,
			"0.007": 4.42880959941,
			"0.008": 3.37269437519,
			"0.009": 2.94636269469,
			"0.01": 3.01242343225,
			"0.011": 2.95563307846,
			"0.012": 2.8035046319,
			"0.013": 3.3095853541,
			"0.014": 1.83947177231,
			"0.015": 0.571868334908,
			"0.016": 0.0,
			"0.017": 0.0,
			"0.018": 0.0,
			"0.019": 0.0,
			"0.02": 0.0,
			"0.021": 0.0,
			"0.022": 0.0,
			"0.023": 0.0,
			"0.024": 0.0,
			"0.025": 0.0
		}
	}
}
