{
	 "smiles": "COC1=NC=C(C=C1)C(O)=O", 
	 "Tm": 446.15, 
	 "num_atms": 18, 
	 "gaussian": { 
		 "optdone": 1, 
		 "sigma_profile": "yes", 
		 "theory": "DFT", 
		 "functional": "B3LYP", 
		 "basiset": "6-31G**", 
		 "properties": { 
			 "R2extent": 2223.4672, 
			 "electric_dipole_moment_norm": 4.73654948248, 
			 "electric_quadrupole_moment_norm": 16.4247271865, 
			 "total_energy": -551.385668637, 
			 "HOMO_LUMO_gap": 0.19938, 
			 "cosmo_polarized_energy": -15.47, 
			 "cosmo_cavitation_energy": 22.91, 
			 "cosmo_dispersion_energy": -17.15, 
			 "cosmo_repulsion_energy": 1.38, 
			 "cosmo_total_nonelectrostatic_energy": 7.14, 
			 "SMD_solvation_energy": 5.2 
		},
		"coords": [
			{
				"x": -1.6702021714,
				"y": -1.6887337456,
				"z": -3.0474958523,
				"element": "C" 
			},
			{
				"x": -0.7141096708,
				"y": -0.6798583424,
				"z": -2.6930936387,
				"element": "O" 
			},
			{
				"x": -0.3034571168,
				"y": -0.6388605335,
				"z": -1.4145786042,
				"element": "C" 
			},
			{
				"x": -0.7935406394,
				"y": -1.5143907524,
				"z": -0.5379551286,
				"element": "N" 
			},
			{
				"x": -0.356186344,
				"y": -1.4394549094,
				"z": 0.7234193047,
				"element": "C" 
			},
			{
				"x": 0.5656835713,
				"y": -0.4913154302,
				"z": 1.1767787947,
				"element": "C" 
			},
			{
				"x": 1.0773802534,
				"y": 0.4137705164,
				"z": 0.2263086621,
				"element": "C" 
			},
			{
				"x": 0.6466942077,
				"y": 0.3489228001,
				"z": -1.0848221311,
				"element": "C" 
			},
			{
				"x": 0.963867434,
				"y": -0.5300150146,
				"z": 2.6140026905,
				"element": "C" 
			},
			{
				"x": 1.5626807959,
				"y": 0.5857395255,
				"z": 3.1172177447,
				"element": "O" 
			},
			{
				"x": 0.7805398579,
				"y": -1.4870843085,
				"z": 3.3296037401,
				"element": "O" 
			},
			{
				"x": -1.2703262978,
				"y": -2.6889529322,
				"z": -2.861928313,
				"element": "H" 
			},
			{
				"x": -1.8573478161,
				"y": -1.5432982549,
				"z": -4.1117223386,
				"element": "H" 
			},
			{
				"x": -2.5944577756,
				"y": -1.5697553825,
				"z": -2.4761686675,
				"element": "H" 
			},
			{
				"x": -0.7546301897,
				"y": -2.165088074,
				"z": 1.4273753096,
				"element": "H" 
			},
			{
				"x": 1.835142015,
				"y": 1.1459829576,
				"z": 0.4960581818,
				"element": "H" 
			},
			{
				"x": 1.0194592033,
				"y": 1.0151466092,
				"z": -1.8538066146,
				"element": "H" 
			},
			{
				"x": 1.4864106832,
				"y": 1.3216452715,
				"z": 2.4950068605,
				"element": "H" 
			}
		],
		 "valence_orbital": [ 
			{
				"type": "occ",
				"energy": -0.3162,
				"method": "rhf"
			},
			{
				"type": "occ",
				"energy": -0.30761,
				"method": "rhf"
			},
			{
				"type": "occ",
				"energy": -0.28638,
				"method": "rhf"
			},
			{
				"type": "occ",
				"energy": -0.27146,
				"method": "rhf"
			},
			{
				"type": "occ",
				"energy": -0.24877,
				"method": "rhf"
			},
			{
				"type": "unocc",
				"energy": -0.04939,
				"method": "rhf"
			},
			{
				"type": "unocc",
				"energy": -0.04044,
				"method": "rhf"
			},
			{
				"type": "unocc",
				"energy": 0.046,
				"method": "rhf"
			},
			{
				"type": "unocc",
				"energy": 0.05618,
				"method": "rhf"
			},
			{
				"type": "unocc",
				"energy": 0.10909,
				"method": "rhf"
			}
		],
		"cosmo_sigma_profile": { 
			"-0.025": 0.0,
			"-0.024": 0.0,
			"-0.023": 0.0,
			"-0.022": 0.0,
			"-0.021": 0.0,
			"-0.02": 0.0895636715407,
			"-0.019": 0.606941793352,
			"-0.018": 0.882646904672,
			"-0.017": 1.38314606953,
			"-0.016": 0.777975153465,
			"-0.015": 0.602969507692,
			"-0.014": 1.06706063809,
			"-0.013": 1.45003492864,
			"-0.012": 1.04078114969,
			"-0.011": 1.4892269611,
			"-0.01": 1.32228323774,
			"-0.009": 1.63807388972,
			"-0.008": 2.95239232362,
			"-0.007": 5.24316712437,
			"-0.006": 7.85018095493,
			"-0.005": 10.3329739997,
			"-0.004": 12.6880936096,
			"-0.003": 15.2966392784,
			"-0.002": 10.4589585466,
			"-0.001": 13.9539669171,
			"0.0": 17.4328460485,
			"0.001": 12.1708793809,
			"0.002": 8.03866993978,
			"0.003": 5.30718549872,
			"0.004": 4.98218323877,
			"0.005": 5.11640798777,
			"0.006": 5.43998611021,
			"0.007": 4.18218657259,
			"0.008": 5.72556404404,
			"0.009": 4.84553497166,
			"0.01": 5.28170382343,
			"0.011": 6.56963296129,
			"0.012": 5.39304089729,
			"0.013": 1.66112219036,
			"0.014": 0.062283922214,
			"0.015": 0.0,
			"0.016": 0.0,
			"0.017": 0.0,
			"0.018": 0.0,
			"0.019": 0.0,
			"0.02": 0.0,
			"0.021": 0.0,
			"0.022": 0.0,
			"0.023": 0.0,
			"0.024": 0.0,
			"0.025": 0.0
		}
	}
}
