{
	 "smiles": "NC(=O)C1=C(F)C=C(Br)C=C1F", 
	 "Tm": 446.15, 
	 "num_atms": 16, 
	 "gaussian": { 
		 "optdone": 1, 
		 "sigma_profile": "yes", 
		 "theory": "DFT", 
		 "functional": "B3LYP", 
		 "basiset": "6-31G**", 
		 "properties": { 
			 "R2extent": 5406.5594, 
			 "electric_dipole_moment_norm": 3.30406518852, 
			 "electric_quadrupole_moment_norm": 15.7130406806, 
			 "total_energy": -3170.21139213, 
			 "HOMO_LUMO_gap": 0.19808, 
			 "cosmo_polarized_energy": -11.68, 
			 "cosmo_cavitation_energy": 23.99, 
			 "cosmo_dispersion_energy": -18.27, 
			 "cosmo_repulsion_energy": 1.42, 
			 "cosmo_total_nonelectrostatic_energy": 7.13, 
			 "SMD_solvation_energy": 4.52 
		},
		"coords": [
			{
				"x": 0.2057482472,
				"y": -0.4758378968,
				"z": -4.0208653242,
				"element": "N" 
			},
			{
				"x": 0.7258981746,
				"y": -1.1936225444,
				"z": -2.983551941,
				"element": "C" 
			},
			{
				"x": 0.6548477664,
				"y": -2.4138207845,
				"z": -2.9532985018,
				"element": "O" 
			},
			{
				"x": 1.3936236635,
				"y": -0.4089159243,
				"z": -1.870744041,
				"element": "C" 
			},
			{
				"x": 1.5250672936,
				"y": 0.9889318568,
				"z": -1.8142417098,
				"element": "C" 
			},
			{
				"x": 1.0285446661,
				"y": 1.7569172017,
				"z": -2.8184610346,
				"element": "F" 
			},
			{
				"x": 2.1406027263,
				"y": 1.6860171822,
				"z": -0.7849858453,
				"element": "C" 
			},
			{
				"x": 2.6689680568,
				"y": 0.952413149,
				"z": 0.2728534942,
				"element": "C" 
			},
			{
				"x": 3.5219760465,
				"y": 1.8633370697,
				"z": 1.7067881112,
				"element": "Br" 
			},
			{
				"x": 2.5812411498,
				"y": -0.4339726343,
				"z": 0.2945139465,
				"element": "C" 
			},
			{
				"x": 1.9527031572,
				"y": -1.0837944097,
				"z": -0.7647311851,
				"element": "C" 
			},
			{
				"x": 1.9015862592,
				"y": -2.4127792907,
				"z": -0.6837365358,
				"element": "F" 
			},
			{
				"x": -0.2346726366,
				"y": -1.013781187,
				"z": -4.7509226155,
				"element": "H" 
			},
			{
				"x": 0.2446856186,
				"y": 0.5264388994,
				"z": -4.0790058377,
				"element": "H" 
			},
			{
				"x": 2.1957195866,
				"y": 2.766012322,
				"z": -0.8259893858,
				"element": "H" 
			},
			{
				"x": 2.9851602243,
				"y": -1.0238430093,
				"z": 1.1070784057,
				"element": "H" 
			}
		],
		 "valence_orbital": [ 
			{
				"type": "occ",
				"energy": -0.30643,
				"method": "rhf"
			},
			{
				"type": "occ",
				"energy": -0.27113,
				"method": "rhf"
			},
			{
				"type": "occ",
				"energy": -0.26955,
				"method": "rhf"
			},
			{
				"type": "occ",
				"energy": -0.26468,
				"method": "rhf"
			},
			{
				"type": "occ",
				"energy": -0.25615,
				"method": "rhf"
			},
			{
				"type": "unocc",
				"energy": -0.05807,
				"method": "rhf"
			},
			{
				"type": "unocc",
				"energy": -0.02556,
				"method": "rhf"
			},
			{
				"type": "unocc",
				"energy": -0.01577,
				"method": "rhf"
			},
			{
				"type": "unocc",
				"energy": 0.047,
				"method": "rhf"
			},
			{
				"type": "unocc",
				"energy": 0.08572,
				"method": "rhf"
			}
		],
		"cosmo_sigma_profile": { 
			"-0.025": 0.0,
			"-0.024": 0.0,
			"-0.023": 0.0,
			"-0.022": 0.0,
			"-0.021": 0.0,
			"-0.02": 0.0,
			"-0.019": 0.0,
			"-0.018": 0.0,
			"-0.017": 0.0,
			"-0.016": 0.0,
			"-0.015": 0.00569800377086,
			"-0.014": 0.908754000509,
			"-0.013": 1.31865355723,
			"-0.012": 1.44481195427,
			"-0.011": 2.20487320836,
			"-0.01": 1.79141020689,
			"-0.009": 4.48795193696,
			"-0.008": 3.92061654082,
			"-0.007": 4.2760293691,
			"-0.006": 5.78016540838,
			"-0.005": 5.64297540547,
			"-0.004": 9.51916946471,
			"-0.003": 8.96277720244,
			"-0.002": 21.7386863182,
			"-0.001": 22.2528540497,
			"0.0": 20.6982387509,
			"0.001": 14.7086391335,
			"0.002": 14.2316845797,
			"0.003": 20.2064139901,
			"0.004": 9.55555481165,
			"0.005": 1.89040718178,
			"0.006": 1.50648052201,
			"0.007": 1.99258645348,
			"0.008": 2.08634766703,
			"0.009": 1.04562721946,
			"0.01": 1.26953328465,
			"0.011": 2.16134673606,
			"0.012": 2.66491325117,
			"0.013": 5.39382988121,
			"0.014": 3.06864584842,
			"0.015": 0.0481756840087,
			"0.016": 0.0,
			"0.017": 0.0,
			"0.018": 0.0,
			"0.019": 0.0,
			"0.02": 0.0,
			"0.021": 0.0,
			"0.022": 0.0,
			"0.023": 0.0,
			"0.024": 0.0,
			"0.025": 0.0
		}
	}
}
