{
	 "smiles": "OC1=CC(=NC2=C1C=CC=C2F)C(F)(F)F", 
	 "Tm": 386.15, 
	 "num_atms": 21, 
	 "gaussian": { 
		 "optdone": 1, 
		 "sigma_profile": "yes", 
		 "theory": "DFT", 
		 "functional": "B3LYP", 
		 "basiset": "6-31G**", 
		 "properties": { 
			 "R2extent": 4290.4625, 
			 "electric_dipole_moment_norm": 5.89509770996, 
			 "electric_quadrupole_moment_norm": 6.40551347122, 
			 "total_energy": -913.41093167, 
			 "HOMO_LUMO_gap": 0.171, 
			 "cosmo_polarized_energy": -13.27, 
			 "cosmo_cavitation_energy": 27.73, 
			 "cosmo_dispersion_energy": -20.03, 
			 "cosmo_repulsion_energy": 1.46, 
			 "cosmo_total_nonelectrostatic_energy": 9.15, 
			 "SMD_solvation_energy": 5.38 
		},
		"coords": [
			{
				"x": 0.0167542338,
				"y": 3.0028321925,
				"z": -0.8241375822,
				"element": "O" 
			},
			{
				"x": 0.5523008062,
				"y": 1.823948055,
				"z": -0.4329398369,
				"element": "C" 
			},
			{
				"x": 1.648045725,
				"y": 1.8644732202,
				"z": 0.4087768561,
				"element": "C" 
			},
			{
				"x": 2.2151698408,
				"y": 0.6458772449,
				"z": 0.8236223744,
				"element": "C" 
			},
			{
				"x": 1.7856176433,
				"y": -0.549987392,
				"z": 0.473867424,
				"element": "N" 
			},
			{
				"x": 0.7118555174,
				"y": -0.5977991625,
				"z": -0.3509563499,
				"element": "C" 
			},
			{
				"x": 0.0332042395,
				"y": 0.5607818786,
				"z": -0.8524338586,
				"element": "C" 
			},
			{
				"x": -1.0851459146,
				"y": 0.4052903963,
				"z": -1.7131550278,
				"element": "C" 
			},
			{
				"x": -1.5215010455,
				"y": -0.8515740971,
				"z": -2.0688540356,
				"element": "C" 
			},
			{
				"x": -0.8672540555,
				"y": -2.0078886192,
				"z": -1.5860587895,
				"element": "C" 
			},
			{
				"x": 0.2149974012,
				"y": -1.8716818333,
				"z": -0.7533887567,
				"element": "C" 
			},
			{
				"x": 0.8381363399,
				"y": -2.9617365106,
				"z": -0.293326765,
				"element": "F" 
			},
			{
				"x": 3.4214479927,
				"y": 0.6439158215,
				"z": 1.7487068098,
				"element": "C" 
			},
			{
				"x": 3.8012259218,
				"y": 1.9033910318,
				"z": 2.0674537616,
				"element": "F" 
			},
			{
				"x": 3.1537332116,
				"y": -0.0013337397,
				"z": 2.8982275874,
				"element": "F" 
			},
			{
				"x": 4.4755009819,
				"y": 0.0363965716,
				"z": 1.1745506319,
				"element": "F" 
			},
			{
				"x": -0.7389752291,
				"y": 2.8548099502,
				"z": -1.4064818135,
				"element": "H" 
			},
			{
				"x": 2.0496764228,
				"y": 2.8152040916,
				"z": 0.7330946039,
				"element": "H" 
			},
			{
				"x": -1.6149388917,
				"y": 1.2701664482,
				"z": -2.1053217238,
				"element": "H" 
			},
			{
				"x": -2.3769811417,
				"y": -0.9638531205,
				"z": -2.7271381197,
				"element": "H" 
			},
			{
				"x": -1.2027699997,
				"y": -3.0019324274,
				"z": -1.8600073901,
				"element": "H" 
			}
		],
		 "valence_orbital": [ 
			{
				"type": "occ",
				"energy": -0.35702,
				"method": "rhf"
			},
			{
				"type": "occ",
				"energy": -0.2896,
				"method": "rhf"
			},
			{
				"type": "occ",
				"energy": -0.27793,
				"method": "rhf"
			},
			{
				"type": "occ",
				"energy": -0.27638,
				"method": "rhf"
			},
			{
				"type": "occ",
				"energy": -0.23733,
				"method": "rhf"
			},
			{
				"type": "unocc",
				"energy": -0.06633,
				"method": "rhf"
			},
			{
				"type": "unocc",
				"energy": -0.0412,
				"method": "rhf"
			},
			{
				"type": "unocc",
				"energy": 0.01007,
				"method": "rhf"
			},
			{
				"type": "unocc",
				"energy": 0.03475,
				"method": "rhf"
			},
			{
				"type": "unocc",
				"energy": 0.06879,
				"method": "rhf"
			}
		],
		"cosmo_sigma_profile": { 
			"-0.025": 0.0,
			"-0.024": 0.0,
			"-0.023": 0.0,
			"-0.022": 0.0,
			"-0.021": 0.0,
			"-0.02": 0.075772077704,
			"-0.019": 0.798892913281,
			"-0.018": 0.955070917956,
			"-0.017": 1.1635875627,
			"-0.016": 1.20031323974,
			"-0.015": 0.887661078322,
			"-0.014": 0.258131966547,
			"-0.013": 0.971943111683,
			"-0.012": 1.93085083985,
			"-0.011": 1.09650422774,
			"-0.01": 0.778867111684,
			"-0.009": 0.943593050837,
			"-0.008": 3.74677576573,
			"-0.007": 7.14773401617,
			"-0.006": 7.90041224733,
			"-0.005": 7.07110056601,
			"-0.004": 7.03945531275,
			"-0.003": 8.35688820034,
			"-0.002": 10.9799516651,
			"-0.001": 18.5423400071,
			"0.0": 23.2358664882,
			"0.001": 20.9514762824,
			"0.002": 30.1267109686,
			"0.003": 32.4695095622,
			"0.004": 12.0093036394,
			"0.005": 4.29831612694,
			"0.006": 4.7838343484,
			"0.007": 3.15960315259,
			"0.008": 3.23380339004,
			"0.009": 3.88920331463,
			"0.01": 1.15754462836,
			"0.011": 0.986766908589,
			"0.012": 1.00558444645,
			"0.013": 0.984233473204,
			"0.014": 0.0425103663691,
			"0.015": 0.0,
			"0.016": 0.0,
			"0.017": 0.0,
			"0.018": 0.0,
			"0.019": 0.0,
			"0.02": 0.0,
			"0.021": 0.0,
			"0.022": 0.0,
			"0.023": 0.0,
			"0.024": 0.0,
			"0.025": 0.0
		}
	}
}
