{
	 "smiles": "CC(C)NC(=O)CN1CCCNCC1", 
	 "Tm": 317.15, 
	 "num_atms": 35, 
	 "gaussian": { 
		 "optdone": 1, 
		 "sigma_profile": "yes", 
		 "theory": "DFT", 
		 "functional": "B3LYP", 
		 "basiset": "6-31G**", 
		 "properties": { 
			 "R2extent": 4667.2584, 
			 "electric_dipole_moment_norm": 4.28353596226, 
			 "electric_quadrupole_moment_norm": 13.9551099867, 
			 "total_energy": -633.199751056, 
			 "HOMO_LUMO_gap": 0.2237, 
			 "cosmo_polarized_energy": -16.26, 
			 "cosmo_cavitation_energy": 34.72, 
			 "cosmo_dispersion_energy": -24.59, 
			 "cosmo_repulsion_energy": 1.98, 
			 "cosmo_total_nonelectrostatic_energy": 12.1, 
			 "SMD_solvation_energy": 2.04 
		},
		"coords": [
			{
				"x": -1.3034485234,
				"y": 3.0295082532,
				"z": -3.3282810786,
				"element": "C" 
			},
			{
				"x": -0.1378217315,
				"y": 3.3116366316,
				"z": -2.3695923403,
				"element": "C" 
			},
			{
				"x": -0.3188730528,
				"y": 4.6233845019,
				"z": -1.6011957872,
				"element": "C" 
			},
			{
				"x": 0.0555599677,
				"y": 2.2093194629,
				"z": -1.4255013948,
				"element": "N" 
			},
			{
				"x": 0.851776646,
				"y": 1.1318029333,
				"z": -1.703762638,
				"element": "C" 
			},
			{
				"x": 1.4772654354,
				"y": 1.0230603264,
				"z": -2.7496933841,
				"element": "O" 
			},
			{
				"x": 0.920669512,
				"y": 0.1072552454,
				"z": -0.5524128601,
				"element": "C" 
			},
			{
				"x": 1.448294249,
				"y": -1.1709524532,
				"z": -0.9548710482,
				"element": "N" 
			},
			{
				"x": 2.0676140724,
				"y": -1.9649004157,
				"z": 0.0974973998,
				"element": "C" 
			},
			{
				"x": 1.1937452268,
				"y": -2.3986130221,
				"z": 1.3008405469,
				"element": "C" 
			},
			{
				"x": -0.2414370195,
				"y": -2.8415569837,
				"z": 0.9494193069,
				"element": "C" 
			},
			{
				"x": -0.3503598314,
				"y": -3.5294121045,
				"z": -0.3410140862,
				"element": "N" 
			},
			{
				"x": -0.5894839803,
				"y": -2.6216227268,
				"z": -1.4678266578,
				"element": "C" 
			},
			{
				"x": 0.6981896348,
				"y": -1.9328960213,
				"z": -1.9483176712,
				"element": "C" 
			},
			{
				"x": -1.4082004414,
				"y": 3.8369142411,
				"z": -4.0611166589,
				"element": "H" 
			},
			{
				"x": -2.2503720023,
				"y": 2.9429687171,
				"z": -2.782146183,
				"element": "H" 
			},
			{
				"x": -1.1279686592,
				"y": 2.0961379464,
				"z": -3.8694819228,
				"element": "H" 
			},
			{
				"x": 0.7854179203,
				"y": 3.3545728441,
				"z": -2.9551272965,
				"element": "H" 
			},
			{
				"x": -0.4265144149,
				"y": 5.4625969517,
				"z": -2.2949737277,
				"element": "H" 
			},
			{
				"x": 0.5389181623,
				"y": 4.8218684569,
				"z": -0.9517508305,
				"element": "H" 
			},
			{
				"x": -1.2220814617,
				"y": 4.5959701588,
				"z": -0.9779704432,
				"element": "H" 
			},
			{
				"x": -0.5188362695,
				"y": 2.1883466129,
				"z": -0.5944394632,
				"element": "H" 
			},
			{
				"x": 1.6010808785,
				"y": 0.5304981385,
				"z": 0.1996841799,
				"element": "H" 
			},
			{
				"x": -0.075102339,
				"y": 0.0684050485,
				"z": -0.0643597204,
				"element": "H" 
			},
			{
				"x": 2.9345142717,
				"y": -1.4118895511,
				"z": 0.4870490941,
				"element": "H" 
			},
			{
				"x": 2.4595072431,
				"y": -2.8653021486,
				"z": -0.3852791726,
				"element": "H" 
			},
			{
				"x": 1.7232886873,
				"y": -3.2189659673,
				"z": 1.8021439162,
				"element": "H" 
			},
			{
				"x": 1.1269662712,
				"y": -1.5850483454,
				"z": 2.0354596882,
				"element": "H" 
			},
			{
				"x": -0.5975046953,
				"y": -3.5196564465,
				"z": 1.7333139247,
				"element": "H" 
			},
			{
				"x": -0.9101513817,
				"y": -1.9607017464,
				"z": 0.9803791262,
				"element": "H" 
			},
			{
				"x": -1.1130337459,
				"y": -4.196932939,
				"z": -0.292595126,
				"element": "H" 
			},
			{
				"x": -0.9893476865,
				"y": -3.2069435658,
				"z": -2.3053518278,
				"element": "H" 
			},
			{
				"x": -1.3536806709,
				"y": -1.8577739468,
				"z": -1.2211165922,
				"element": "H" 
			},
			{
				"x": 1.3716286072,
				"y": -2.7074696625,
				"z": -2.3345178904,
				"element": "H" 
			},
			{
				"x": 0.4663811217,
				"y": -1.2659084243,
				"z": -2.784491381,
				"element": "H" 
			}
		],
		 "valence_orbital": [ 
			{
				"type": "occ",
				"energy": -0.31693,
				"method": "rhf"
			},
			{
				"type": "occ",
				"energy": -0.2471,
				"method": "rhf"
			},
			{
				"type": "occ",
				"energy": -0.23755,
				"method": "rhf"
			},
			{
				"type": "occ",
				"energy": -0.22204,
				"method": "rhf"
			},
			{
				"type": "occ",
				"energy": -0.19058,
				"method": "rhf"
			},
			{
				"type": "unocc",
				"energy": 0.03312,
				"method": "rhf"
			},
			{
				"type": "unocc",
				"energy": 0.0639,
				"method": "rhf"
			},
			{
				"type": "unocc",
				"energy": 0.08129,
				"method": "rhf"
			},
			{
				"type": "unocc",
				"energy": 0.09919,
				"method": "rhf"
			},
			{
				"type": "unocc",
				"energy": 0.11202,
				"method": "rhf"
			}
		],
		"cosmo_sigma_profile": { 
			"-0.025": 0.0,
			"-0.024": 0.0,
			"-0.023": 0.0,
			"-0.022": 0.0,
			"-0.021": 0.0,
			"-0.02": 0.0,
			"-0.019": 0.0,
			"-0.018": 0.0,
			"-0.017": 0.0,
			"-0.016": 0.0,
			"-0.015": 0.0,
			"-0.014": 0.019908320997,
			"-0.013": 0.881570979051,
			"-0.012": 0.985205689159,
			"-0.011": 1.31006654893,
			"-0.01": 2.19259069559,
			"-0.009": 2.74600358722,
			"-0.008": 2.91529264445,
			"-0.007": 3.2216296426,
			"-0.006": 3.71621006322,
			"-0.005": 6.61429041214,
			"-0.004": 13.2359627278,
			"-0.003": 32.4113676291,
			"-0.002": 42.6918420067,
			"-0.001": 40.2582647208,
			"0.0": 36.032187919,
			"0.001": 24.9151277538,
			"0.002": 9.39338656485,
			"0.003": 4.39832243903,
			"0.004": 3.11660051002,
			"0.005": 3.12737020601,
			"0.006": 3.6222435049,
			"0.007": 2.73682596495,
			"0.008": 2.26148529369,
			"0.009": 2.41825209441,
			"0.01": 2.69534532942,
			"0.011": 2.24470166968,
			"0.012": 2.07599062877,
			"0.013": 2.49638143083,
			"0.014": 5.68599749335,
			"0.015": 2.50438743333,
			"0.016": 1.46276923966,
			"0.017": 1.55139517128,
			"0.018": 1.03090804355,
			"0.019": 0.133079770752,
			"0.02": 0.0,
			"0.021": 0.0,
			"0.022": 0.0,
			"0.023": 0.0,
			"0.024": 0.0,
			"0.025": 0.0
		}
	}
}
