{
	 "smiles": "OC1=CC2=C(C=NCC2)C=C1O", 
	 "Tm": 519.15, 
	 "num_atms": 21, 
	 "gaussian": { 
		 "optdone": 1, 
		 "sigma_profile": "yes", 
		 "theory": "DFT", 
		 "functional": "B3LYP", 
		 "basiset": "6-31G**", 
		 "properties": { 
			 "R2extent": 2302.5462, 
			 "electric_dipole_moment_norm": 4.38878629578, 
			 "electric_quadrupole_moment_norm": 7.6514804391, 
			 "total_energy": -553.565022453, 
			 "HOMO_LUMO_gap": 0.17395, 
			 "cosmo_polarized_energy": -13.81, 
			 "cosmo_cavitation_energy": 24.22, 
			 "cosmo_dispersion_energy": -18.53, 
			 "cosmo_repulsion_energy": 1.46, 
			 "cosmo_total_nonelectrostatic_energy": 7.16, 
			 "SMD_solvation_energy": 1.06 
		},
		"coords": [
			{
				"x": 0.9473065272,
				"y": -3.8341034924,
				"z": 0.358152045,
				"element": "O" 
			},
			{
				"x": 0.4702788198,
				"y": -2.5458811129,
				"z": 0.3303224975,
				"element": "C" 
			},
			{
				"x": 0.2658917039,
				"y": -1.8083061168,
				"z": -0.8344028169,
				"element": "C" 
			},
			{
				"x": -0.2155735358,
				"y": -0.5003983824,
				"z": -0.7627073554,
				"element": "C" 
			},
			{
				"x": -0.4948082002,
				"y": 0.0574661167,
				"z": 0.4972718318,
				"element": "C" 
			},
			{
				"x": -0.9883840542,
				"y": 1.4433392886,
				"z": 0.5481661873,
				"element": "C" 
			},
			{
				"x": -0.9481935356,
				"y": 2.290785905,
				"z": -0.4100770615,
				"element": "N" 
			},
			{
				"x": -0.3302262464,
				"y": 1.8349893459,
				"z": -1.6617811866,
				"element": "C" 
			},
			{
				"x": -0.530619862,
				"y": 0.3455265917,
				"z": -1.9750097377,
				"element": "C" 
			},
			{
				"x": -0.2992491969,
				"y": -0.6920597984,
				"z": 1.666085897,
				"element": "C" 
			},
			{
				"x": 0.1857216533,
				"y": -1.9922645173,
				"z": 1.5925128108,
				"element": "C" 
			},
			{
				"x": 0.3836761223,
				"y": -2.7198329725,
				"z": 2.7275762374,
				"element": "O" 
			},
			{
				"x": 1.1140933143,
				"y": -4.143560641,
				"z": -0.5406161169,
				"element": "H" 
			},
			{
				"x": 0.4839503743,
				"y": -2.2588163603,
				"z": -1.8016066241,
				"element": "H" 
			},
			{
				"x": -1.4060679532,
				"y": 1.7849680901,
				"z": 1.5006719234,
				"element": "H" 
			},
			{
				"x": 0.7449592464,
				"y": 2.0620926103,
				"z": -1.5926035533,
				"element": "H" 
			},
			{
				"x": -0.7244319976,
				"y": 2.4484912366,
				"z": -2.4782487247,
				"element": "H" 
			},
			{
				"x": -1.5785053008,
				"y": 0.179185672,
				"z": -2.2674981616,
				"element": "H" 
			},
			{
				"x": 0.0833341417,
				"y": 0.0529982104,
				"z": -2.8343649318,
				"element": "H" 
			},
			{
				"x": -0.5146151128,
				"y": -0.2692272182,
				"z": 2.6430698606,
				"element": "H" 
			},
			{
				"x": 0.7198630924,
				"y": -3.5891924553,
				"z": 2.4637869797,
				"element": "H" 
			}
		],
		 "valence_orbital": [ 
			{
				"type": "occ",
				"energy": -0.33521,
				"method": "rhf"
			},
			{
				"type": "occ",
				"energy": -0.28662,
				"method": "rhf"
			},
			{
				"type": "occ",
				"energy": -0.24211,
				"method": "rhf"
			},
			{
				"type": "occ",
				"energy": -0.23575,
				"method": "rhf"
			},
			{
				"type": "occ",
				"energy": -0.20777,
				"method": "rhf"
			},
			{
				"type": "unocc",
				"energy": -0.03382,
				"method": "rhf"
			},
			{
				"type": "unocc",
				"energy": -0.00054,
				"method": "rhf"
			},
			{
				"type": "unocc",
				"energy": 0.04617,
				"method": "rhf"
			},
			{
				"type": "unocc",
				"energy": 0.06134,
				"method": "rhf"
			},
			{
				"type": "unocc",
				"energy": 0.09484,
				"method": "rhf"
			}
		],
		"cosmo_sigma_profile": { 
			"-0.025": 0.0,
			"-0.024": 0.0,
			"-0.023": 0.0,
			"-0.022": 0.0,
			"-0.021": 0.0,
			"-0.02": 0.0,
			"-0.019": 0.182024032832,
			"-0.018": 1.15330093484,
			"-0.017": 1.08728206983,
			"-0.016": 0.925956803167,
			"-0.015": 1.36190713423,
			"-0.014": 1.66610773655,
			"-0.013": 1.59182770385,
			"-0.012": 0.737621503198,
			"-0.011": 1.54335795779,
			"-0.01": 2.02580929835,
			"-0.009": 2.38899156119,
			"-0.008": 1.38452885456,
			"-0.007": 2.86244325981,
			"-0.006": 6.8075390787,
			"-0.005": 7.57900810696,
			"-0.004": 14.4515106802,
			"-0.003": 14.8476435288,
			"-0.002": 16.7938359454,
			"-0.001": 13.3576670063,
			"0.0": 10.7080081986,
			"0.001": 11.8974180938,
			"0.002": 14.0392902896,
			"0.003": 13.1178077726,
			"0.004": 14.6645807643,
			"0.005": 7.06875392022,
			"0.006": 5.31365267069,
			"0.007": 3.88179743776,
			"0.008": 2.57309432709,
			"0.009": 2.94131485738,
			"0.01": 2.94429480788,
			"0.011": 3.10660912231,
			"0.012": 1.5955228155,
			"0.013": 1.06424898234,
			"0.014": 1.09064365146,
			"0.015": 0.53329021747,
			"0.016": 1.35065803102,
			"0.017": 0.848845565732,
			"0.018": 0.470459845838,
			"0.019": 0.0,
			"0.02": 0.0,
			"0.021": 0.0,
			"0.022": 0.0,
			"0.023": 0.0,
			"0.024": 0.0,
			"0.025": 0.0
		}
	}
}
