{
	 "smiles": "CC1=NN=NN1C1=C(F)C=CC(N)=C1", 
	 "Tm": 383.15, 
	 "num_atms": 22, 
	 "gaussian": { 
		 "optdone": 1, 
		 "sigma_profile": "yes", 
		 "theory": "DFT", 
		 "functional": "B3LYP", 
		 "basiset": "6-31G**", 
		 "properties": { 
			 "R2extent": 3122.9921, 
			 "electric_dipole_moment_norm": 7.71114602507, 
			 "electric_quadrupole_moment_norm": 17.0696156779, 
			 "total_energy": -683.21411, 
			 "HOMO_LUMO_gap": 0.18079, 
			 "cosmo_polarized_energy": -17.93, 
			 "cosmo_cavitation_energy": 27.08, 
			 "cosmo_dispersion_energy": -19.63, 
			 "cosmo_repulsion_energy": 1.52, 
			 "cosmo_total_nonelectrostatic_energy": 8.97, 
			 "SMD_solvation_energy": 3.32 
		},
		"coords": [
			{
				"x": -1.4849168278,
				"y": -2.2576806902,
				"z": -2.6920616194,
				"element": "C" 
			},
			{
				"x": -0.0335959491,
				"y": -2.3017335844,
				"z": -2.3610641679,
				"element": "C" 
			},
			{
				"x": 0.8613716292,
				"y": -3.0917132587,
				"z": -2.9256137636,
				"element": "N" 
			},
			{
				"x": 2.0612294795,
				"y": -2.7770846207,
				"z": -2.3674268364,
				"element": "N" 
			},
			{
				"x": 1.9433633536,
				"y": -1.8369808778,
				"z": -1.4959444428,
				"element": "N" 
			},
			{
				"x": 0.6145141584,
				"y": -1.5123923837,
				"z": -1.461011532,
				"element": "N" 
			},
			{
				"x": 0.1519916336,
				"y": -0.4565567215,
				"z": -0.6308369982,
				"element": "C" 
			},
			{
				"x": -0.9313854852,
				"y": -0.6420422567,
				"z": 0.22911335,
				"element": "C" 
			},
			{
				"x": -1.5499150328,
				"y": -1.8440388016,
				"z": 0.2832861907,
				"element": "F" 
			},
			{
				"x": -1.3744482736,
				"y": 0.396549046,
				"z": 1.0364761159,
				"element": "C" 
			},
			{
				"x": -0.7181982033,
				"y": 1.6229383394,
				"z": 1.0088305523,
				"element": "C" 
			},
			{
				"x": 0.3931597512,
				"y": 1.8277963865,
				"z": 0.1688489975,
				"element": "C" 
			},
			{
				"x": 1.0912172509,
				"y": 3.0314397691,
				"z": 0.1922945317,
				"element": "N" 
			},
			{
				"x": 0.8126656775,
				"y": 0.7730290151,
				"z": -0.6561104109,
				"element": "C" 
			},
			{
				"x": -1.6527246839,
				"y": -2.8627110527,
				"z": -3.5836108741,
				"element": "H" 
			},
			{
				"x": -2.0892030545,
				"y": -2.6502838595,
				"z": -1.8709717627,
				"element": "H" 
			},
			{
				"x": -1.8137380931,
				"y": -1.2320226906,
				"z": -2.88790558,
				"element": "H" 
			},
			{
				"x": -2.2221404384,
				"y": 0.2271002077,
				"z": 1.6913795054,
				"element": "H" 
			},
			{
				"x": -1.0611356017,
				"y": 2.4284131872,
				"z": 1.651908005,
				"element": "H" 
			},
			{
				"x": 0.5695983198,
				"y": 3.8377034455,
				"z": 0.5049900312,
				"element": "H" 
			},
			{
				"x": 1.6593354859,
				"y": 3.2291112812,
				"z": -0.6189606938,
				"element": "H" 
			},
			{
				"x": 1.6665549038,
				"y": 0.8871601205,
				"z": -1.3153085977,
				"element": "H" 
			}
		],
		 "valence_orbital": [ 
			{
				"type": "occ",
				"energy": -0.2868,
				"method": "rhf"
			},
			{
				"type": "occ",
				"energy": -0.28547,
				"method": "rhf"
			},
			{
				"type": "occ",
				"energy": -0.28094,
				"method": "rhf"
			},
			{
				"type": "occ",
				"energy": -0.26341,
				"method": "rhf"
			},
			{
				"type": "occ",
				"energy": -0.22211,
				"method": "rhf"
			},
			{
				"type": "unocc",
				"energy": -0.04132,
				"method": "rhf"
			},
			{
				"type": "unocc",
				"energy": -0.01018,
				"method": "rhf"
			},
			{
				"type": "unocc",
				"energy": 0.0067,
				"method": "rhf"
			},
			{
				"type": "unocc",
				"energy": 0.03414,
				"method": "rhf"
			},
			{
				"type": "unocc",
				"energy": 0.05912,
				"method": "rhf"
			}
		],
		"cosmo_sigma_profile": { 
			"-0.025": 0.0,
			"-0.024": 0.0,
			"-0.023": 0.0,
			"-0.022": 0.0,
			"-0.021": 0.0,
			"-0.02": 0.0,
			"-0.019": 0.0,
			"-0.018": 0.0,
			"-0.017": 0.0,
			"-0.016": 0.0,
			"-0.015": 0.0,
			"-0.014": 0.0810581914327,
			"-0.013": 2.0937214421,
			"-0.012": 3.24062243621,
			"-0.011": 3.07629172151,
			"-0.01": 2.84102892635,
			"-0.009": 3.43078715804,
			"-0.008": 5.8466804348,
			"-0.007": 8.2078606608,
			"-0.006": 11.1157763163,
			"-0.005": 13.2219133373,
			"-0.004": 13.7171498145,
			"-0.003": 15.5530304566,
			"-0.002": 15.1003609711,
			"-0.001": 11.100727148,
			"0.0": 12.414810725,
			"0.001": 11.6237027877,
			"0.002": 13.0349171411,
			"0.003": 16.5932267262,
			"0.004": 10.5465644395,
			"0.005": 3.8644493408,
			"0.006": 4.25376733114,
			"0.007": 5.38320195738,
			"0.008": 5.26056657014,
			"0.009": 5.22425895849,
			"0.01": 5.07139118593,
			"0.011": 5.48195271881,
			"0.012": 4.01485141975,
			"0.013": 2.56586512955,
			"0.014": 2.11788415091,
			"0.015": 0.787083417647,
			"0.016": 0.0571249617997,
			"0.017": 0.0,
			"0.018": 0.0,
			"0.019": 0.0,
			"0.02": 0.0,
			"0.021": 0.0,
			"0.022": 0.0,
			"0.023": 0.0,
			"0.024": 0.0,
			"0.025": 0.0
		}
	}
}
