{
	 "smiles": "FC1=CC2=C(CCNC2=O)C=C1", 
	 "Tm": 393.15, 
	 "num_atms": 20, 
	 "gaussian": { 
		 "optdone": 1, 
		 "sigma_profile": "yes", 
		 "theory": "DFT", 
		 "functional": "B3LYP", 
		 "basiset": "6-31G**", 
		 "properties": { 
			 "R2extent": 3327.5223, 
			 "electric_dipole_moment_norm": 4.81330691521, 
			 "electric_quadrupole_moment_norm": 18.2498443407, 
			 "total_energy": -577.61458181, 
			 "HOMO_LUMO_gap": 0.19999, 
			 "cosmo_polarized_energy": -11.78, 
			 "cosmo_cavitation_energy": 23.81, 
			 "cosmo_dispersion_energy": -17.87, 
			 "cosmo_repulsion_energy": 1.39, 
			 "cosmo_total_nonelectrostatic_energy": 7.33, 
			 "SMD_solvation_energy": 4.11 
		},
		"coords": [
			{
				"x": -0.3470652943,
				"y": 3.0292329601,
				"z": 1.3988665569,
				"element": "F" 
			},
			{
				"x": 0.1930255084,
				"y": 2.0523882706,
				"z": 0.6409954416,
				"element": "C" 
			},
			{
				"x": 1.1443243956,
				"y": 2.3805071634,
				"z": -0.3116326734,
				"element": "C" 
			},
			{
				"x": 1.6921818078,
				"y": 1.3583908994,
				"z": -1.0926035546,
				"element": "C" 
			},
			{
				"x": 1.2943248574,
				"y": 0.0205934382,
				"z": -0.9147740241,
				"element": "C" 
			},
			{
				"x": 1.9509693673,
				"y": -1.0550036936,
				"z": -1.7511455434,
				"element": "C" 
			},
			{
				"x": 2.3355401934,
				"y": -0.510457032,
				"z": -3.1276420538,
				"element": "C" 
			},
			{
				"x": 3.0965643242,
				"y": 0.7255791695,
				"z": -2.9682346215,
				"element": "N" 
			},
			{
				"x": 2.72015165,
				"y": 1.7356988861,
				"z": -2.1177901749,
				"element": "C" 
			},
			{
				"x": 3.206038459,
				"y": 2.8600650641,
				"z": -2.1849354597,
				"element": "O" 
			},
			{
				"x": 0.3324223334,
				"y": -0.2707218736,
				"z": 0.0577954137,
				"element": "C" 
			},
			{
				"x": -0.2263748735,
				"y": 0.7397250349,
				"z": 0.8400417676,
				"element": "C" 
			},
			{
				"x": 1.470269742,
				"y": 3.4035833605,
				"z": -0.4592669732,
				"element": "H" 
			},
			{
				"x": 1.2859512179,
				"y": -1.9172392738,
				"z": -1.8659160151,
				"element": "H" 
			},
			{
				"x": 2.8582527893,
				"y": -1.4124361978,
				"z": -1.2445796286,
				"element": "H" 
			},
			{
				"x": 1.4286469206,
				"y": -0.3440025925,
				"z": -3.7296684842,
				"element": "H" 
			},
			{
				"x": 2.9578903149,
				"y": -1.2326273497,
				"z": -3.6639167671,
				"element": "H" 
			},
			{
				"x": 3.6940746,
				"y": 1.033666103,
				"z": -3.7240934589,
				"element": "H" 
			},
			{
				"x": 0.0130763033,
				"y": -1.2988696209,
				"z": 0.2066297381,
				"element": "H" 
			},
			{
				"x": -0.9773646168,
				"y": 0.5267272842,
				"z": 1.5932705145,
				"element": "H" 
			}
		],
		 "valence_orbital": [ 
			{
				"type": "occ",
				"energy": -0.34529,
				"method": "rhf"
			},
			{
				"type": "occ",
				"energy": -0.26434,
				"method": "rhf"
			},
			{
				"type": "occ",
				"energy": -0.25861,
				"method": "rhf"
			},
			{
				"type": "occ",
				"energy": -0.24831,
				"method": "rhf"
			},
			{
				"type": "occ",
				"energy": -0.24307,
				"method": "rhf"
			},
			{
				"type": "unocc",
				"energy": -0.04308,
				"method": "rhf"
			},
			{
				"type": "unocc",
				"energy": -0.00809,
				"method": "rhf"
			},
			{
				"type": "unocc",
				"energy": 0.06135,
				"method": "rhf"
			},
			{
				"type": "unocc",
				"energy": 0.07685,
				"method": "rhf"
			},
			{
				"type": "unocc",
				"energy": 0.09677,
				"method": "rhf"
			}
		],
		"cosmo_sigma_profile": { 
			"-0.025": 0.0,
			"-0.024": 0.0,
			"-0.023": 0.0,
			"-0.022": 0.0,
			"-0.021": 0.0,
			"-0.02": 0.0,
			"-0.019": 0.0,
			"-0.018": 0.0,
			"-0.017": 0.0,
			"-0.016": 0.0,
			"-0.015": 0.0,
			"-0.014": 0.397758466463,
			"-0.013": 1.20503105842,
			"-0.012": 1.34168728793,
			"-0.011": 0.960018817145,
			"-0.01": 0.716004109489,
			"-0.009": 1.04741662186,
			"-0.008": 1.89269958688,
			"-0.007": 4.42721698574,
			"-0.006": 8.81360914354,
			"-0.005": 14.6984929095,
			"-0.004": 17.4539380117,
			"-0.003": 16.4595165644,
			"-0.002": 14.6798700923,
			"-0.001": 9.59509190202,
			"0.0": 11.4470811687,
			"0.001": 14.9466177459,
			"0.002": 15.571200044,
			"0.003": 14.5465287912,
			"0.004": 13.9656936487,
			"0.005": 5.65240690443,
			"0.006": 1.36955401628,
			"0.007": 1.53050305869,
			"0.008": 2.2723265774,
			"0.009": 0.896614757955,
			"0.01": 0.973416145244,
			"0.011": 2.06251899173,
			"0.012": 1.59978966061,
			"0.013": 3.68306171837,
			"0.014": 4.87710073923,
			"0.015": 0.45853830924,
			"0.016": 0.0,
			"0.017": 0.0,
			"0.018": 0.0,
			"0.019": 0.0,
			"0.02": 0.0,
			"0.021": 0.0,
			"0.022": 0.0,
			"0.023": 0.0,
			"0.024": 0.0,
			"0.025": 0.0
		}
	}
}
