{
	 "smiles": "[O-][N+](=O)CC(=O)C1=CC(=CC=C1)C(=O)C[N+]([O-])=O", 
	 "Tm": 433.15, 
	 "num_atms": 26, 
	 "gaussian": { 
		 "optdone": 1, 
		 "sigma_profile": "yes", 
		 "theory": "DFT", 
		 "functional": "B3LYP", 
		 "basiset": "6-31G**", 
		 "properties": { 
			 "R2extent": 6162.7224, 
			 "electric_dipole_moment_norm": 5.32371469277, 
			 "electric_quadrupole_moment_norm": 11.018497393, 
			 "total_energy": -946.508471132, 
			 "HOMO_LUMO_gap": 0.1847, 
			 "cosmo_polarized_energy": -20.5, 
			 "cosmo_cavitation_energy": 33.4, 
			 "cosmo_dispersion_energy": -22.82, 
			 "cosmo_repulsion_energy": 1.77, 
			 "cosmo_total_nonelectrostatic_energy": 12.35, 
			 "SMD_solvation_energy": 11.15 
		},
		"coords": [
			{
				"x": -4.3485823462,
				"y": -0.790867345,
				"z": -0.5148194474,
				"element": "O" 
			},
			{
				"x": -4.3044648675,
				"y": 0.3122892133,
				"z": 0.014192065,
				"element": "N" 
			},
			{
				"x": -4.4019572929,
				"y": 1.3942022068,
				"z": -0.5594828097,
				"element": "O" 
			},
			{
				"x": -4.1200877376,
				"y": 0.3279916656,
				"z": 1.511874648,
				"element": "C" 
			},
			{
				"x": -2.8702539047,
				"y": -0.4617215444,
				"z": 1.9469534197,
				"element": "C" 
			},
			{
				"x": -3.0179019857,
				"y": -1.404142423,
				"z": 2.7006413733,
				"element": "O" 
			},
			{
				"x": -1.5216838922,
				"y": -0.0206171737,
				"z": 1.4798117003,
				"element": "C" 
			},
			{
				"x": -0.4227866928,
				"y": -0.8061521062,
				"z": 1.8445852829,
				"element": "C" 
			},
			{
				"x": 0.8728091866,
				"y": -0.4455338466,
				"z": 1.4584909081,
				"element": "C" 
			},
			{
				"x": 1.0667881231,
				"y": 0.7241007025,
				"z": 0.7023914654,
				"element": "C" 
			},
			{
				"x": -0.0248595412,
				"y": 1.511833716,
				"z": 0.340547073,
				"element": "C" 
			},
			{
				"x": -1.3144498095,
				"y": 1.1466557783,
				"z": 0.7236053975,
				"element": "C" 
			},
			{
				"x": 1.9951499892,
				"y": -1.3250421075,
				"z": 1.9037693531,
				"element": "C" 
			},
			{
				"x": 1.8226395793,
				"y": -2.2624109202,
				"z": 2.6584754794,
				"element": "O" 
			},
			{
				"x": 3.432506527,
				"y": -1.0132619036,
				"z": 1.4435362494,
				"element": "C" 
			},
			{
				"x": 3.5732504313,
				"y": -1.0880887779,
				"z": -0.0570775329,
				"element": "N" 
			},
			{
				"x": 3.2251382847,
				"y": -2.1377184607,
				"z": -0.5823015793,
				"element": "O" 
			},
			{
				"x": 4.0268953531,
				"y": -0.1045997852,
				"z": -0.6368161047,
				"element": "O" 
			},
			{
				"x": -4.0878033358,
				"y": 1.3733456726,
				"z": 1.8193939219,
				"element": "H" 
			},
			{
				"x": -4.9878189578,
				"y": -0.1779194398,
				"z": 1.9342623432,
				"element": "H" 
			},
			{
				"x": -0.5767478393,
				"y": -1.7033144113,
				"z": 2.4334431702,
				"element": "H" 
			},
			{
				"x": 2.0593280235,
				"y": 1.0231813502,
				"z": 0.3823817362,
				"element": "H" 
			},
			{
				"x": 0.1296640956,
				"y": 2.412020806,
				"z": -0.2452032414,
				"element": "H" 
			},
			{
				"x": -2.1489194967,
				"y": 1.7698757498,
				"z": 0.4198738936,
				"element": "H" 
			},
			{
				"x": 4.0802252224,
				"y": -1.788173592,
				"z": 1.852545392,
				"element": "H" 
			},
			{
				"x": 3.7679228842,
				"y": -0.0215330239,
				"z": 1.7474258431,
				"element": "H" 
			}
		],
		 "valence_orbital": [ 
			{
				"type": "occ",
				"energy": -0.31398,
				"method": "rhf"
			},
			{
				"type": "occ",
				"energy": -0.29655,
				"method": "rhf"
			},
			{
				"type": "occ",
				"energy": -0.29136,
				"method": "rhf"
			},
			{
				"type": "occ",
				"energy": -0.28749,
				"method": "rhf"
			},
			{
				"type": "occ",
				"energy": -0.28464,
				"method": "rhf"
			},
			{
				"type": "unocc",
				"energy": -0.09994,
				"method": "rhf"
			},
			{
				"type": "unocc",
				"energy": -0.09435,
				"method": "rhf"
			},
			{
				"type": "unocc",
				"energy": -0.08719,
				"method": "rhf"
			},
			{
				"type": "unocc",
				"energy": -0.08146,
				"method": "rhf"
			},
			{
				"type": "unocc",
				"energy": -0.01794,
				"method": "rhf"
			}
		],
		"cosmo_sigma_profile": { 
			"-0.025": 0.0,
			"-0.024": 0.0,
			"-0.023": 0.0,
			"-0.022": 0.0,
			"-0.021": 0.0,
			"-0.02": 0.0,
			"-0.019": 0.0,
			"-0.018": 0.0,
			"-0.017": 0.0,
			"-0.016": 0.0,
			"-0.015": 0.0,
			"-0.014": 0.0,
			"-0.013": 0.0,
			"-0.012": 0.246270995636,
			"-0.011": 7.41656146486,
			"-0.01": 10.0340952664,
			"-0.009": 8.68744770684,
			"-0.008": 9.52284836319,
			"-0.007": 15.9862087063,
			"-0.006": 10.0757085094,
			"-0.005": 10.2985628771,
			"-0.004": 10.27591063,
			"-0.003": 12.5314430998,
			"-0.002": 16.3365968762,
			"-0.001": 15.0642460861,
			"0.0": 20.3072500692,
			"0.001": 14.2155549375,
			"0.002": 9.38536901048,
			"0.003": 7.56955339865,
			"0.004": 8.51110221455,
			"0.005": 10.0183151603,
			"0.006": 16.3713645181,
			"0.007": 22.8703697817,
			"0.008": 12.79185101,
			"0.009": 10.5978859808,
			"0.01": 7.64897706163,
			"0.011": 1.20481436131,
			"0.012": 0.0,
			"0.013": 0.0,
			"0.014": 0.0,
			"0.015": 0.0,
			"0.016": 0.0,
			"0.017": 0.0,
			"0.018": 0.0,
			"0.019": 0.0,
			"0.02": 0.0,
			"0.021": 0.0,
			"0.022": 0.0,
			"0.023": 0.0,
			"0.024": 0.0,
			"0.025": 0.0
		}
	}
}
