{
	 "smiles": "CCOC(=O)C1=CSC(N)=N1", 
	 "Tm": 451.15, 
	 "num_atms": 19, 
	 "gaussian": { 
		 "optdone": 1, 
		 "sigma_profile": "yes", 
		 "theory": "DFT", 
		 "functional": "B3LYP", 
		 "basiset": "6-31G**", 
		 "properties": { 
			 "R2extent": 4507.4905, 
			 "electric_dipole_moment_norm": 2.91307081617, 
			 "electric_quadrupole_moment_norm": 20.6574573048, 
			 "total_energy": -891.604682879, 
			 "HOMO_LUMO_gap": 0.18372, 
			 "cosmo_polarized_energy": -14.58, 
			 "cosmo_cavitation_energy": 25.48, 
			 "cosmo_dispersion_energy": -19.36, 
			 "cosmo_repulsion_energy": 1.55, 
			 "cosmo_total_nonelectrostatic_energy": 7.68, 
			 "SMD_solvation_energy": 4.11 
		},
		"coords": [
			{
				"x": 1.6258443327,
				"y": 0.9826747383,
				"z": -1.1632440251,
				"element": "C" 
			},
			{
				"x": 0.976375781,
				"y": -0.3363710929,
				"z": -1.5554461651,
				"element": "C" 
			},
			{
				"x": -0.3605749975,
				"y": -0.4456772162,
				"z": -1.0142756352,
				"element": "O" 
			},
			{
				"x": -1.3436421241,
				"y": 0.1161685695,
				"z": -1.7421518718,
				"element": "C" 
			},
			{
				"x": -1.1750748457,
				"y": 0.6883351898,
				"z": -2.8041935534,
				"element": "O" 
			},
			{
				"x": -2.6773437742,
				"y": -0.0415308826,
				"z": -1.1074917056,
				"element": "C" 
			},
			{
				"x": -3.8005093111,
				"y": 0.4607086192,
				"z": -1.701523432,
				"element": "C" 
			},
			{
				"x": -5.1915707291,
				"y": 0.1215997632,
				"z": -0.7200114476,
				"element": "S" 
			},
			{
				"x": -4.1114399876,
				"y": -0.7066526797,
				"z": 0.4268819202,
				"element": "C" 
			},
			{
				"x": -4.5995427428,
				"y": -1.2246260956,
				"z": 1.6042922897,
				"element": "N" 
			},
			{
				"x": -2.8568650558,
				"y": -0.7049991369,
				"z": 0.0921607522,
				"element": "N" 
			},
			{
				"x": 2.6627319877,
				"y": 1.0055986293,
				"z": -1.5152532554,
				"element": "H" 
			},
			{
				"x": 1.6281755594,
				"y": 1.1066518407,
				"z": -0.0763805329,
				"element": "H" 
			},
			{
				"x": 1.0915822108,
				"y": 1.8219628685,
				"z": -1.6149203259,
				"element": "H" 
			},
			{
				"x": 1.5103642451,
				"y": -1.1881988056,
				"z": -1.1275259624,
				"element": "H" 
			},
			{
				"x": 0.929092629,
				"y": -0.4438954263,
				"z": -2.641856592,
				"element": "H" 
			},
			{
				"x": -3.8674145363,
				"y": 0.9900893899,
				"z": -2.6397583333,
				"element": "H" 
			},
			{
				"x": -3.9279116572,
				"y": -1.8121511684,
				"z": 2.0815127427,
				"element": "H" 
			},
			{
				"x": -5.535576984,
				"y": -1.6035871042,
				"z": 1.5858851328,
				"element": "H" 
			}
		],
		 "valence_orbital": [ 
			{
				"type": "occ",
				"energy": -0.29045,
				"method": "rhf"
			},
			{
				"type": "occ",
				"energy": -0.28385,
				"method": "rhf"
			},
			{
				"type": "occ",
				"energy": -0.282,
				"method": "rhf"
			},
			{
				"type": "occ",
				"energy": -0.26597,
				"method": "rhf"
			},
			{
				"type": "occ",
				"energy": -0.22022,
				"method": "rhf"
			},
			{
				"type": "unocc",
				"energy": -0.0365,
				"method": "rhf"
			},
			{
				"type": "unocc",
				"energy": 0.00353,
				"method": "rhf"
			},
			{
				"type": "unocc",
				"energy": 0.01628,
				"method": "rhf"
			},
			{
				"type": "unocc",
				"energy": 0.06548,
				"method": "rhf"
			},
			{
				"type": "unocc",
				"energy": 0.10398,
				"method": "rhf"
			}
		],
		"cosmo_sigma_profile": { 
			"-0.025": 0.0,
			"-0.024": 0.0,
			"-0.023": 0.0,
			"-0.022": 0.0,
			"-0.021": 0.0,
			"-0.02": 0.0,
			"-0.019": 0.0,
			"-0.018": 0.0,
			"-0.017": 0.0,
			"-0.016": 0.0,
			"-0.015": 0.947124613632,
			"-0.014": 2.26619685075,
			"-0.013": 2.82525710053,
			"-0.012": 2.90965203561,
			"-0.011": 2.52830176268,
			"-0.01": 2.3120323009,
			"-0.009": 3.7175543859,
			"-0.008": 3.23120393407,
			"-0.007": 3.15337981105,
			"-0.006": 4.27519497126,
			"-0.005": 7.93152435095,
			"-0.004": 13.6536801225,
			"-0.003": 14.8221994599,
			"-0.002": 17.277345861,
			"-0.001": 15.4951945101,
			"0.0": 20.0070280083,
			"0.001": 17.1526081696,
			"0.002": 15.2255215614,
			"0.003": 10.4233942657,
			"0.004": 5.49936667596,
			"0.005": 5.61670659035,
			"0.006": 3.94002637895,
			"0.007": 3.52086307178,
			"0.008": 3.59510830282,
			"0.009": 3.66544404681,
			"0.01": 3.79256963348,
			"0.011": 4.13476322715,
			"0.012": 5.78243187814,
			"0.013": 1.55192368318,
			"0.014": 1.40871523914,
			"0.015": 0.833011544591,
			"0.016": 1.1058420301,
			"0.017": 0.0224565306702,
			"0.018": 0.0,
			"0.019": 0.0,
			"0.02": 0.0,
			"0.021": 0.0,
			"0.022": 0.0,
			"0.023": 0.0,
			"0.024": 0.0,
			"0.025": 0.0
		}
	}
}
