{
	 "smiles": "CC1=NN(C(N)=C1SC#N)C1=CC=CC=C1", 
	 "Tm": 382.15, 
	 "num_atms": 26, 
	 "gaussian": { 
		 "optdone": 1, 
		 "sigma_profile": "yes", 
		 "theory": "DFT", 
		 "functional": "B3LYP", 
		 "basiset": "6-31G**", 
		 "properties": { 
			 "R2extent": 6069.9306, 
			 "electric_dipole_moment_norm": 5.7126137713, 
			 "electric_quadrupole_moment_norm": 32.1556852617, 
			 "total_energy": -1042.34938586, 
			 "HOMO_LUMO_gap": 0.19776, 
			 "cosmo_polarized_energy": -15.12, 
			 "cosmo_cavitation_energy": 33.25, 
			 "cosmo_dispersion_energy": -23.57, 
			 "cosmo_repulsion_energy": 1.82, 
			 "cosmo_total_nonelectrostatic_energy": 11.5, 
			 "SMD_solvation_energy": 6.96 
		},
		"coords": [
			{
				"x": 1.5932400659,
				"y": -4.0742127883,
				"z": -1.006737545,
				"element": "C" 
			},
			{
				"x": 1.5219615031,
				"y": -2.5808850827,
				"z": -1.0185892953,
				"element": "C" 
			},
			{
				"x": 0.715577136,
				"y": -1.9320121336,
				"z": -0.1992711769,
				"element": "N" 
			},
			{
				"x": 0.9219112216,
				"y": -0.5865848825,
				"z": -0.4565758006,
				"element": "N" 
			},
			{
				"x": 1.832100824,
				"y": -0.3969858423,
				"z": -1.4531674669,
				"element": "C" 
			},
			{
				"x": 2.2376573195,
				"y": 0.8359459262,
				"z": -1.9109576132,
				"element": "N" 
			},
			{
				"x": 2.2552058142,
				"y": -1.6710809521,
				"z": -1.8382390648,
				"element": "C" 
			},
			{
				"x": 3.3398755322,
				"y": -2.0213286601,
				"z": -3.1776670159,
				"element": "S" 
			},
			{
				"x": 4.8875461789,
				"y": -2.0531274127,
				"z": -2.4296360323,
				"element": "C" 
			},
			{
				"x": 5.9625998906,
				"y": -2.0875488354,
				"z": -1.9799171682,
				"element": "N" 
			},
			{
				"x": 0.157932063,
				"y": 0.3802629088,
				"z": 0.2519340028,
				"element": "C" 
			},
			{
				"x": -1.1654693185,
				"y": 0.0760783759,
				"z": 0.5930775499,
				"element": "C" 
			},
			{
				"x": -1.9243816157,
				"y": 1.0091305421,
				"z": 1.2951534884,
				"element": "C" 
			},
			{
				"x": -1.3789056524,
				"y": 2.2457146252,
				"z": 1.6509563571,
				"element": "C" 
			},
			{
				"x": -0.0567934787,
				"y": 2.5377310961,
				"z": 1.3156911351,
				"element": "C" 
			},
			{
				"x": 0.7219153866,
				"y": 1.6065230376,
				"z": 0.6259700068,
				"element": "C" 
			},
			{
				"x": 1.3715762984,
				"y": -4.4904706789,
				"z": -1.9951668811,
				"element": "H" 
			},
			{
				"x": 0.8732520458,
				"y": -4.4696814309,
				"z": -0.2878886923,
				"element": "H" 
			},
			{
				"x": 2.5944191501,
				"y": -4.4182855383,
				"z": -0.7259422087,
				"element": "H" 
			},
			{
				"x": 1.5329571265,
				"y": 1.5624117736,
				"z": -1.899878908,
				"element": "H" 
			},
			{
				"x": 2.7468729252,
				"y": 0.7870069429,
				"z": -2.7848296491,
				"element": "H" 
			},
			{
				"x": -1.5707146534,
				"y": -0.8891161018,
				"z": 0.3140979602,
				"element": "H" 
			},
			{
				"x": -2.950018807,
				"y": 0.7702180725,
				"z": 1.5603955068,
				"element": "H" 
			},
			{
				"x": -1.9778332816,
				"y": 2.9713289694,
				"z": 2.1927030296,
				"element": "H" 
			},
			{
				"x": 0.3833606812,
				"y": 3.4870803889,
				"z": 1.6061040817,
				"element": "H" 
			},
			{
				"x": 1.7627556447,
				"y": 1.8168876802,
				"z": 0.4063813998,
				"element": "H" 
			}
		],
		 "valence_orbital": [ 
			{
				"type": "occ",
				"energy": -0.29227,
				"method": "rhf"
			},
			{
				"type": "occ",
				"energy": -0.26779,
				"method": "rhf"
			},
			{
				"type": "occ",
				"energy": -0.26417,
				"method": "rhf"
			},
			{
				"type": "occ",
				"energy": -0.24009,
				"method": "rhf"
			},
			{
				"type": "occ",
				"energy": -0.22643,
				"method": "rhf"
			},
			{
				"type": "unocc",
				"energy": -0.02867,
				"method": "rhf"
			},
			{
				"type": "unocc",
				"energy": -0.01922,
				"method": "rhf"
			},
			{
				"type": "unocc",
				"energy": -0.00954,
				"method": "rhf"
			},
			{
				"type": "unocc",
				"energy": 0.01469,
				"method": "rhf"
			},
			{
				"type": "unocc",
				"energy": 0.02997,
				"method": "rhf"
			}
		],
		"cosmo_sigma_profile": { 
			"-0.025": 0.0,
			"-0.024": 0.0,
			"-0.023": 0.0,
			"-0.022": 0.0,
			"-0.021": 0.0,
			"-0.02": 0.0,
			"-0.019": 0.0,
			"-0.018": 0.0,
			"-0.017": 0.0,
			"-0.016": 0.0,
			"-0.015": 0.0,
			"-0.014": 0.580715659773,
			"-0.013": 2.35839343963,
			"-0.012": 2.3156997387,
			"-0.011": 2.49320031952,
			"-0.01": 2.33594450919,
			"-0.009": 2.13333295571,
			"-0.008": 2.58760234031,
			"-0.007": 3.48385561844,
			"-0.006": 10.2833611631,
			"-0.005": 17.4523658148,
			"-0.004": 21.4914823993,
			"-0.003": 20.8112820914,
			"-0.002": 19.9719756913,
			"-0.001": 23.5568323754,
			"0.0": 22.5989790565,
			"0.001": 18.1710115943,
			"0.002": 18.9157709023,
			"0.003": 15.3170606564,
			"0.004": 16.2374312255,
			"0.005": 10.2540342931,
			"0.006": 5.86898077169,
			"0.007": 5.72649515604,
			"0.008": 5.23777217364,
			"0.009": 5.69222523761,
			"0.01": 4.53612302275,
			"0.011": 3.51397312941,
			"0.012": 3.10120420521,
			"0.013": 1.80674111101,
			"0.014": 0.60243440231,
			"0.015": 0.0515631286861,
			"0.016": 0.0,
			"0.017": 0.0,
			"0.018": 0.0,
			"0.019": 0.0,
			"0.02": 0.0,
			"0.021": 0.0,
			"0.022": 0.0,
			"0.023": 0.0,
			"0.024": 0.0,
			"0.025": 0.0
		}
	}
}
