{
	 "smiles": "CN(C)C1=CC(=CC=C1)C1=NN=C(N)O1", 
	 "Tm": 449.15, 
	 "num_atms": 27, 
	 "gaussian": { 
		 "optdone": 1, 
		 "sigma_profile": "yes", 
		 "theory": "DFT", 
		 "functional": "B3LYP", 
		 "basiset": "6-31G**", 
		 "properties": { 
			 "R2extent": 4450.0246, 
			 "electric_dipole_moment_norm": 5.62564848529, 
			 "electric_quadrupole_moment_norm": 19.3638053776, 
			 "total_energy": -682.496121305, 
			 "HOMO_LUMO_gap": 0.16052, 
			 "cosmo_polarized_energy": -18.16, 
			 "cosmo_cavitation_energy": 30.89, 
			 "cosmo_dispersion_energy": -22.84, 
			 "cosmo_repulsion_energy": 1.78, 
			 "cosmo_total_nonelectrostatic_energy": 9.83, 
			 "SMD_solvation_energy": 3.37 
		},
		"coords": [
			{
				"x": -0.8796994071,
				"y": 0.1031286898,
				"z": 3.4267867518,
				"element": "C" 
			},
			{
				"x": -1.7183590948,
				"y": 0.1538221504,
				"z": 2.2414710176,
				"element": "N" 
			},
			{
				"x": -3.026918443,
				"y": 0.7750699315,
				"z": 2.3561109788,
				"element": "C" 
			},
			{
				"x": -1.1299802451,
				"y": 0.037656367,
				"z": 0.9861313865,
				"element": "C" 
			},
			{
				"x": 0.2193960637,
				"y": -0.3520715864,
				"z": 0.847534011,
				"element": "C" 
			},
			{
				"x": 0.8004646288,
				"y": -0.4992245264,
				"z": -0.4176080057,
				"element": "C" 
			},
			{
				"x": 0.0569201351,
				"y": -0.2527346549,
				"z": -1.5819503074,
				"element": "C" 
			},
			{
				"x": -1.2685298483,
				"y": 0.1451098219,
				"z": -1.4481935779,
				"element": "C" 
			},
			{
				"x": -1.8614273618,
				"y": 0.2956030979,
				"z": -0.1957301847,
				"element": "C" 
			},
			{
				"x": 2.1954488047,
				"y": -0.9046572348,
				"z": -0.5448689792,
				"element": "C" 
			},
			{
				"x": 2.9071741874,
				"y": -1.0673950702,
				"z": -1.6155798037,
				"element": "N" 
			},
			{
				"x": 4.1811514886,
				"y": -1.4812288493,
				"z": -1.2133100129,
				"element": "N" 
			},
			{
				"x": 4.1361598159,
				"y": -1.520694018,
				"z": 0.0853946517,
				"element": "C" 
			},
			{
				"x": 5.149190104,
				"y": -1.7932595747,
				"z": 0.9659644505,
				"element": "N" 
			},
			{
				"x": 2.9286326341,
				"y": -1.177456288,
				"z": 0.5989330526,
				"element": "O" 
			},
			{
				"x": -1.508945414,
				"y": 0.1948605542,
				"z": 4.3135332969,
				"element": "H" 
			},
			{
				"x": -0.3543245782,
				"y": -0.8562475822,
				"z": 3.4965915377,
				"element": "H" 
			},
			{
				"x": -0.1251384037,
				"y": 0.9052020859,
				"z": 3.4560436599,
				"element": "H" 
			},
			{
				"x": -3.0418367474,
				"y": 1.8177883162,
				"z": 2.001198221,
				"element": "H" 
			},
			{
				"x": -3.3352374074,
				"y": 0.7672131866,
				"z": 3.4027902093,
				"element": "H" 
			},
			{
				"x": -3.7796840574,
				"y": 0.2153253196,
				"z": 1.789478068,
				"element": "H" 
			},
			{
				"x": 0.8293574187,
				"y": -0.5415373737,
				"z": 1.7200258005,
				"element": "H" 
			},
			{
				"x": 0.5236067945,
				"y": -0.3688271103,
				"z": -2.5529013578,
				"element": "H" 
			},
			{
				"x": -1.8599092592,
				"y": 0.3490214189,
				"z": -2.3364603657,
				"element": "H" 
			},
			{
				"x": -2.8945498327,
				"y": 0.615141244,
				"z": -0.1425394909,
				"element": "H" 
			},
			{
				"x": 5.9488289377,
				"y": -2.2222633067,
				"z": 0.5205064147,
				"element": "H" 
			},
			{
				"x": 4.8659090871,
				"y": -2.2470450083,
				"z": 1.8237485773,
				"element": "H" 
			}
		],
		 "valence_orbital": [ 
			{
				"type": "occ",
				"energy": -0.28946,
				"method": "rhf"
			},
			{
				"type": "occ",
				"energy": -0.26337,
				"method": "rhf"
			},
			{
				"type": "occ",
				"energy": -0.26171,
				"method": "rhf"
			},
			{
				"type": "occ",
				"energy": -0.21554,
				"method": "rhf"
			},
			{
				"type": "occ",
				"energy": -0.19183,
				"method": "rhf"
			},
			{
				"type": "unocc",
				"energy": -0.03131,
				"method": "rhf"
			},
			{
				"type": "unocc",
				"energy": 0.0134,
				"method": "rhf"
			},
			{
				"type": "unocc",
				"energy": 0.04397,
				"method": "rhf"
			},
			{
				"type": "unocc",
				"energy": 0.06958,
				"method": "rhf"
			},
			{
				"type": "unocc",
				"energy": 0.07958,
				"method": "rhf"
			}
		],
		"cosmo_sigma_profile": { 
			"-0.025": 0.0,
			"-0.024": 0.0,
			"-0.023": 0.0,
			"-0.022": 0.0,
			"-0.021": 0.0,
			"-0.02": 0.0,
			"-0.019": 0.0,
			"-0.018": 0.0,
			"-0.017": 0.0,
			"-0.016": 0.0177700545555,
			"-0.015": 1.96565542714,
			"-0.014": 3.01287134547,
			"-0.013": 2.00327706975,
			"-0.012": 3.01630348474,
			"-0.011": 2.53959766078,
			"-0.01": 1.93853679506,
			"-0.009": 1.50059008931,
			"-0.008": 1.86509016496,
			"-0.007": 2.75880834658,
			"-0.006": 7.49076141676,
			"-0.005": 14.4196247897,
			"-0.004": 18.6508569984,
			"-0.003": 23.3483022147,
			"-0.002": 23.2484524167,
			"-0.001": 21.6864990555,
			"0.0": 13.8337669835,
			"0.001": 13.4704420592,
			"0.002": 11.4876752697,
			"0.003": 14.971071532,
			"0.004": 12.0006341941,
			"0.005": 14.5196474474,
			"0.006": 9.73109122978,
			"0.007": 3.0345975679,
			"0.008": 2.50910912841,
			"0.009": 1.8108472812,
			"0.01": 3.98450881113,
			"0.011": 2.83259751368,
			"0.012": 2.90922141157,
			"0.013": 3.09050054531,
			"0.014": 2.96484452843,
			"0.015": 2.06458857649,
			"0.016": 0.982387964391,
			"0.017": 0.0915971147914,
			"0.018": 0.0,
			"0.019": 0.0,
			"0.02": 0.0,
			"0.021": 0.0,
			"0.022": 0.0,
			"0.023": 0.0,
			"0.024": 0.0,
			"0.025": 0.0
		}
	}
}
