{
	 "smiles": "ON(C=C(Br)C1=CC=CC=C1)C1=CC=CC=C1", 
	 "Tm": 453.15, 
	 "num_atms": 29, 
	 "gaussian": { 
		 "optdone": 1, 
		 "sigma_profile": "yes", 
		 "theory": "DFT", 
		 "functional": "B3LYP", 
		 "basiset": "6-31G**", 
		 "properties": { 
			 "R2extent": 6704.8491, 
			 "electric_dipole_moment_norm": 1.13372569434, 
			 "electric_quadrupole_moment_norm": 8.58283508347, 
			 "total_energy": -3242.02294957, 
			 "HOMO_LUMO_gap": 0.15138, 
			 "cosmo_polarized_energy": -8.65, 
			 "cosmo_cavitation_energy": 35.2, 
			 "cosmo_dispersion_energy": -25.9, 
			 "cosmo_repulsion_energy": 2.0, 
			 "cosmo_total_nonelectrostatic_energy": 11.3, 
			 "SMD_solvation_energy": 5.66 
		},
		"coords": [
			{
				"x": -0.5284682661,
				"y": 0.0267225427,
				"z": 2.1331439767,
				"element": "O" 
			},
			{
				"x": 0.0590978654,
				"y": 0.9898428447,
				"z": 1.2854977805,
				"element": "N" 
			},
			{
				"x": 0.3522939733,
				"y": 0.5544439107,
				"z": -0.0014981859,
				"element": "C" 
			},
			{
				"x": 1.0396317234,
				"y": -0.5528638886,
				"z": -0.3527577836,
				"element": "C" 
			},
			{
				"x": 1.9013467512,
				"y": -1.6058235321,
				"z": 1.0166517062,
				"element": "Br" 
			},
			{
				"x": 1.1928794591,
				"y": -1.0118494372,
				"z": -1.7413700289,
				"element": "C" 
			},
			{
				"x": 2.3637862069,
				"y": -1.6491063628,
				"z": -2.1913349468,
				"element": "C" 
			},
			{
				"x": 2.5083099323,
				"y": -2.0097431446,
				"z": -3.5281481937,
				"element": "C" 
			},
			{
				"x": 1.4892255081,
				"y": -1.7476186182,
				"z": -4.4472601436,
				"element": "C" 
			},
			{
				"x": 0.3157019148,
				"y": -1.1308606823,
				"z": -4.0118489175,
				"element": "C" 
			},
			{
				"x": 0.1614925829,
				"y": -0.7780485093,
				"z": -2.6722492834,
				"element": "C" 
			},
			{
				"x": -0.3515236846,
				"y": 2.31426595,
				"z": 1.5367829445,
				"element": "C" 
			},
			{
				"x": -1.2754582624,
				"y": 2.6088015506,
				"z": 2.550742735,
				"element": "C" 
			},
			{
				"x": -1.6501552091,
				"y": 3.9311900717,
				"z": 2.7797793344,
				"element": "C" 
			},
			{
				"x": -1.1242067487,
				"y": 4.9719934736,
				"z": 2.0116115024,
				"element": "C" 
			},
			{
				"x": -0.1981646828,
				"y": 4.6748021196,
				"z": 1.0106021164,
				"element": "C" 
			},
			{
				"x": 0.1997031772,
				"y": 3.3598417515,
				"z": 0.7756435192,
				"element": "C" 
			},
			{
				"x": 0.2267831837,
				"y": -0.3579685582,
				"z": 2.608312495,
				"element": "H" 
			},
			{
				"x": 0.0069358021,
				"y": 1.2069952725,
				"z": -0.8012034004,
				"element": "H" 
			},
			{
				"x": 3.1628284439,
				"y": -1.8530455959,
				"z": -1.4868866815,
				"element": "H" 
			},
			{
				"x": 3.4233555777,
				"y": -2.4957638765,
				"z": -3.8543454129,
				"element": "H" 
			},
			{
				"x": 1.6036206545,
				"y": -2.0345297123,
				"z": -5.4883890784,
				"element": "H" 
			},
			{
				"x": -0.4940200911,
				"y": -0.9423848933,
				"z": -4.7109984524,
				"element": "H" 
			},
			{
				"x": -0.7742008124,
				"y": -0.3446122531,
				"z": -2.3342709096,
				"element": "H" 
			},
			{
				"x": -1.6931110923,
				"y": 1.8015778197,
				"z": 3.137640617,
				"element": "H" 
			},
			{
				"x": -2.3692333085,
				"y": 4.1457727649,
				"z": 3.565492123,
				"element": "H" 
			},
			{
				"x": -1.4239605884,
				"y": 5.9988231514,
				"z": 2.1962878692,
				"element": "H" 
			},
			{
				"x": 0.2359167312,
				"y": 5.4722561066,
				"z": 0.4141208924,
				"element": "H" 
			},
			{
				"x": 0.9562932586,
				"y": 3.1480897341,
				"z": 0.0274518068,
				"element": "H" 
			}
		],
		 "valence_orbital": [ 
			{
				"type": "occ",
				"energy": -0.27046,
				"method": "rhf"
			},
			{
				"type": "occ",
				"energy": -0.25531,
				"method": "rhf"
			},
			{
				"type": "occ",
				"energy": -0.25063,
				"method": "rhf"
			},
			{
				"type": "occ",
				"energy": -0.24438,
				"method": "rhf"
			},
			{
				"type": "occ",
				"energy": -0.19543,
				"method": "rhf"
			},
			{
				"type": "unocc",
				"energy": -0.04405,
				"method": "rhf"
			},
			{
				"type": "unocc",
				"energy": -0.00807,
				"method": "rhf"
			},
			{
				"type": "unocc",
				"energy": -0.00348,
				"method": "rhf"
			},
			{
				"type": "unocc",
				"energy": 0.00323,
				"method": "rhf"
			},
			{
				"type": "unocc",
				"energy": 0.0182,
				"method": "rhf"
			}
		],
		"cosmo_sigma_profile": { 
			"-0.025": 0.0,
			"-0.024": 0.0,
			"-0.023": 0.0,
			"-0.022": 0.0,
			"-0.021": 0.0,
			"-0.02": 0.0,
			"-0.019": 0.0,
			"-0.018": 0.0,
			"-0.017": 0.0,
			"-0.016": 0.0,
			"-0.015": 0.305642953225,
			"-0.014": 0.54649859621,
			"-0.013": 0.871709751727,
			"-0.012": 0.611440503976,
			"-0.011": 0.834660486488,
			"-0.01": 0.697843013822,
			"-0.009": 0.744617630686,
			"-0.008": 1.2710342511,
			"-0.007": 4.13638160585,
			"-0.006": 14.1541034996,
			"-0.005": 20.9906245545,
			"-0.004": 24.2968831889,
			"-0.003": 23.6068499645,
			"-0.002": 17.6099261787,
			"-0.001": 16.7651907709,
			"0.0": 16.9198535851,
			"0.001": 19.6314018298,
			"0.002": 24.6624578202,
			"0.003": 27.8546841698,
			"0.004": 28.0458104982,
			"0.005": 24.3334722823,
			"0.006": 10.3137055249,
			"0.007": 1.58887954556,
			"0.008": 1.5129376451,
			"0.009": 1.25665125219,
			"0.01": 1.10084686012,
			"0.011": 0.633082619575,
			"0.012": 0.0,
			"0.013": 0.0,
			"0.014": 0.0,
			"0.015": 0.0,
			"0.016": 0.0,
			"0.017": 0.0,
			"0.018": 0.0,
			"0.019": 0.0,
			"0.02": 0.0,
			"0.021": 0.0,
			"0.022": 0.0,
			"0.023": 0.0,
			"0.024": 0.0,
			"0.025": 0.0
		}
	}
}
