{
	 "smiles": "OC(=O)C=CC1=CC(=CC=C1)C1=CC=CC=C1", 
	 "Tm": 469.15, 
	 "num_atms": 29, 
	 "gaussian": { 
		 "optdone": 1, 
		 "sigma_profile": "yes", 
		 "theory": "DFT", 
		 "functional": "B3LYP", 
		 "basiset": "6-31G**", 
		 "properties": { 
			 "R2extent": 6114.4885, 
			 "electric_dipole_moment_norm": 5.51592818119, 
			 "electric_quadrupole_moment_norm": 34.3292847353, 
			 "total_energy": -729.279370436, 
			 "HOMO_LUMO_gap": 0.16325, 
			 "cosmo_polarized_energy": -17.51, 
			 "cosmo_cavitation_energy": 34.29, 
			 "cosmo_dispersion_energy": -24.6, 
			 "cosmo_repulsion_energy": 1.89, 
			 "cosmo_total_nonelectrostatic_energy": 11.59, 
			 "SMD_solvation_energy": 6.89 
		},
		"coords": [
			{
				"x": -1.8793021425,
				"y": 0.4183726132,
				"z": -5.4325796822,
				"element": "O" 
			},
			{
				"x": -0.6746751481,
				"y": 0.8084592956,
				"z": -4.9264012223,
				"element": "C" 
			},
			{
				"x": 0.1809111485,
				"y": 1.2273607359,
				"z": -5.673426579,
				"element": "O" 
			},
			{
				"x": -0.5220542649,
				"y": 0.6777290297,
				"z": -3.454964951,
				"element": "C" 
			},
			{
				"x": 0.638231723,
				"y": 1.0312062899,
				"z": -2.8722609624,
				"element": "C" 
			},
			{
				"x": 0.9929743309,
				"y": 0.9817019973,
				"z": -1.4539382175,
				"element": "C" 
			},
			{
				"x": 0.0998330203,
				"y": 0.5610968062,
				"z": -0.4521871495,
				"element": "C" 
			},
			{
				"x": 0.4732836137,
				"y": 0.516639966,
				"z": 0.8955510061,
				"element": "C" 
			},
			{
				"x": 1.7824888413,
				"y": 0.9038314881,
				"z": 1.2394824323,
				"element": "C" 
			},
			{
				"x": 2.6810937996,
				"y": 1.3225780584,
				"z": 0.2610075121,
				"element": "C" 
			},
			{
				"x": 2.292203528,
				"y": 1.3645390547,
				"z": -1.0759332981,
				"element": "C" 
			},
			{
				"x": -0.4880961765,
				"y": 0.0717751955,
				"z": 1.9381359993,
				"element": "C" 
			},
			{
				"x": -0.0675759238,
				"y": -0.7379519784,
				"z": 3.0065987234,
				"element": "C" 
			},
			{
				"x": -0.968990445,
				"y": -1.1572065892,
				"z": 3.9841468468,
				"element": "C" 
			},
			{
				"x": -2.3101284486,
				"y": -0.7754964918,
				"z": 3.9140646055,
				"element": "C" 
			},
			{
				"x": -2.7419575435,
				"y": 0.0298922077,
				"z": 2.858567956,
				"element": "C" 
			},
			{
				"x": -1.840226306,
				"y": 0.4495224818,
				"z": 1.8814383832,
				"element": "C" 
			},
			{
				"x": -2.456442697,
				"y": 0.1044361168,
				"z": -4.722969015,
				"element": "H" 
			},
			{
				"x": -1.3582355531,
				"y": 0.2928775237,
				"z": -2.8746953763,
				"element": "H" 
			},
			{
				"x": 1.4102466052,
				"y": 1.3986536823,
				"z": -3.5469595575,
				"element": "H" 
			},
			{
				"x": -0.9005426935,
				"y": 0.2405790129,
				"z": -0.7251001985,
				"element": "H" 
			},
			{
				"x": 2.0832078727,
				"y": 0.8989079575,
				"z": 2.2827067252,
				"element": "H" 
			},
			{
				"x": 3.6847285114,
				"y": 1.6265357811,
				"z": 0.5431872218,
				"element": "H" 
			},
			{
				"x": 2.992971611,
				"y": 1.6929833248,
				"z": -1.8384084148,
				"element": "H" 
			},
			{
				"x": 0.9680104575,
				"y": -1.0616600114,
				"z": 3.0560826182,
				"element": "H" 
			},
			{
				"x": -0.6245501104,
				"y": -1.7900134535,
				"z": 4.7971394384,
				"element": "H" 
			},
			{
				"x": -3.0121839512,
				"y": -1.1018361547,
				"z": 4.6757197753,
				"element": "H" 
			},
			{
				"x": -3.7811784176,
				"y": 0.3409895654,
				"z": 2.8006254569,
				"element": "H" 
			},
			{
				"x": -2.1795452413,
				"y": 1.0998964946,
				"z": 1.0803699233,
				"element": "H" 
			}
		],
		 "valence_orbital": [ 
			{
				"type": "occ",
				"energy": -0.28192,
				"method": "rhf"
			},
			{
				"type": "occ",
				"energy": -0.26778,
				"method": "rhf"
			},
			{
				"type": "occ",
				"energy": -0.25937,
				"method": "rhf"
			},
			{
				"type": "occ",
				"energy": -0.24603,
				"method": "rhf"
			},
			{
				"type": "occ",
				"energy": -0.2348,
				"method": "rhf"
			},
			{
				"type": "unocc",
				"energy": -0.07155,
				"method": "rhf"
			},
			{
				"type": "unocc",
				"energy": -0.03724,
				"method": "rhf"
			},
			{
				"type": "unocc",
				"energy": -0.01102,
				"method": "rhf"
			},
			{
				"type": "unocc",
				"energy": 0.00595,
				"method": "rhf"
			},
			{
				"type": "unocc",
				"energy": 0.02644,
				"method": "rhf"
			}
		],
		"cosmo_sigma_profile": { 
			"-0.025": 0.0,
			"-0.024": 0.0,
			"-0.023": 0.0,
			"-0.022": 0.0,
			"-0.021": 0.0,
			"-0.02": 0.0,
			"-0.019": 0.617222430969,
			"-0.018": 1.31435753965,
			"-0.017": 1.30844968752,
			"-0.016": 0.886496539384,
			"-0.015": 1.19388236898,
			"-0.014": 0.847140648662,
			"-0.013": 1.19495698425,
			"-0.012": 1.053901708,
			"-0.011": 0.985485702147,
			"-0.01": 1.19766009505,
			"-0.009": 1.7525311153,
			"-0.008": 3.15676031917,
			"-0.007": 5.32321028337,
			"-0.006": 14.8854249672,
			"-0.005": 21.8864991514,
			"-0.004": 20.2083675303,
			"-0.003": 17.9503016044,
			"-0.002": 15.866013142,
			"-0.001": 14.6272265191,
			"0.0": 16.4226110771,
			"0.001": 17.9013000236,
			"0.002": 24.6255424624,
			"0.003": 22.1596894935,
			"0.004": 20.8405943163,
			"0.005": 13.3420270027,
			"0.006": 7.11520604805,
			"0.007": 2.04835465431,
			"0.008": 3.01985048282,
			"0.009": 2.45504401226,
			"0.01": 3.85869948515,
			"0.011": 5.25122118902,
			"0.012": 5.88107510203,
			"0.013": 3.32991416912,
			"0.014": 0.598797787848,
			"0.015": 0.0,
			"0.016": 0.0,
			"0.017": 0.0,
			"0.018": 0.0,
			"0.019": 0.0,
			"0.02": 0.0,
			"0.021": 0.0,
			"0.022": 0.0,
			"0.023": 0.0,
			"0.024": 0.0,
			"0.025": 0.0
		}
	}
}
