{
	 "smiles": "COC1=C(OC)C=C2C(NCCC2=C1)C1=CC=CS1", 
	 "Tm": 387.15, 
	 "num_atms": 36, 
	 "gaussian": { 
		 "optdone": 1, 
		 "sigma_profile": "yes", 
		 "theory": "DFT", 
		 "functional": "B3LYP", 
		 "basiset": "6-31G**", 
		 "properties": { 
			 "R2extent": 6430.31, 
			 "electric_dipole_moment_norm": 0.602209348981, 
			 "electric_quadrupole_moment_norm": 10.4521061256, 
			 "total_energy": -1185.17774945, 
			 "HOMO_LUMO_gap": 0.20702, 
			 "cosmo_polarized_energy": -10.01, 
			 "cosmo_cavitation_energy": 39.37, 
			 "cosmo_dispersion_energy": -28.05, 
			 "cosmo_repulsion_energy": 2.15, 
			 "cosmo_total_nonelectrostatic_energy": 13.47, 
			 "SMD_solvation_energy": 6.01 
		},
		"coords": [
			{
				"x": -3.4863535752,
				"y": -0.905443542,
				"z": 2.1765028679,
				"element": "C" 
			},
			{
				"x": -2.6906274607,
				"y": -1.7396708761,
				"z": 1.3271784402,
				"element": "O" 
			},
			{
				"x": -1.519359806,
				"y": -1.1634430949,
				"z": 0.8841626838,
				"element": "C" 
			},
			{
				"x": -1.5189277652,
				"y": -0.093512938,
				"z": -0.0302723327,
				"element": "C" 
			},
			{
				"x": -2.6944268385,
				"y": 0.4673178247,
				"z": -0.4847886729,
				"element": "O" 
			},
			{
				"x": -3.4426908967,
				"y": -0.3642608896,
				"z": -1.3785341399,
				"element": "C" 
			},
			{
				"x": -0.3061670801,
				"y": 0.4380110317,
				"z": -0.4580858558,
				"element": "C" 
			},
			{
				"x": 0.9179584565,
				"y": -0.0779148052,
				"z": -0.0150425676,
				"element": "C" 
			},
			{
				"x": 2.2332384071,
				"y": 0.574696148,
				"z": -0.4662212575,
				"element": "C" 
			},
			{
				"x": 3.3570835716,
				"y": -0.3292118081,
				"z": -0.2008362409,
				"element": "N" 
			},
			{
				"x": 3.3872906891,
				"y": -0.7901755356,
				"z": 1.185414116,
				"element": "C" 
			},
			{
				"x": 2.2195575188,
				"y": -1.7542506736,
				"z": 1.3887386875,
				"element": "C" 
			},
			{
				"x": 0.9207793332,
				"y": -1.1557757763,
				"z": 0.886308048,
				"element": "C" 
			},
			{
				"x": -0.3035464995,
				"y": -1.6791248517,
				"z": 1.3225109606,
				"element": "C" 
			},
			{
				"x": 2.2544979264,
				"y": 0.9457082595,
				"z": -1.9330181344,
				"element": "C" 
			},
			{
				"x": 2.4349067741,
				"y": 0.1200368693,
				"z": -3.0119732041,
				"element": "C" 
			},
			{
				"x": 2.4146581527,
				"y": 0.8104486938,
				"z": -4.2616460219,
				"element": "C" 
			},
			{
				"x": 2.2227859239,
				"y": 2.1576321136,
				"z": -4.1228559698,
				"element": "C" 
			},
			{
				"x": 2.0676207576,
				"y": 2.6023421286,
				"z": -2.4532004407,
				"element": "S" 
			},
			{
				"x": -3.7859604001,
				"y": 0.0148246265,
				"z": 1.6657578464,
				"element": "H" 
			},
			{
				"x": -4.3719969013,
				"y": -1.4892483859,
				"z": 2.4365074229,
				"element": "H" 
			},
			{
				"x": -2.9394048533,
				"y": -0.6515157717,
				"z": 3.0935920148,
				"element": "H" 
			},
			{
				"x": -3.7313702323,
				"y": -1.3057547985,
				"z": -0.9002126965,
				"element": "H" 
			},
			{
				"x": -2.8635716201,
				"y": -0.5789904325,
				"z": -2.2855718989,
				"element": "H" 
			},
			{
				"x": -4.3370559274,
				"y": 0.201666533,
				"z": -1.6481995141,
				"element": "H" 
			},
			{
				"x": -0.3385940625,
				"y": 1.263879248,
				"z": -1.1614425997,
				"element": "H" 
			},
			{
				"x": 2.3264321185,
				"y": 1.5133681212,
				"z": 0.1182380046,
				"element": "H" 
			},
			{
				"x": 4.2207893544,
				"y": 0.1451800025,
				"z": -0.4473607693,
				"element": "H" 
			},
			{
				"x": 3.3167445991,
				"y": 0.0399913193,
				"z": 1.9143433389,
				"element": "H" 
			},
			{
				"x": 4.3392787776,
				"y": -1.300330693,
				"z": 1.3639791661,
				"element": "H" 
			},
			{
				"x": 2.1255324974,
				"y": -2.0239682354,
				"z": 2.4473763641,
				"element": "H" 
			},
			{
				"x": 2.4310596836,
				"y": -2.6810486631,
				"z": 0.8394933281,
				"element": "H" 
			},
			{
				"x": -0.3273245327,
				"y": -2.5073038049,
				"z": 2.0258766436,
				"element": "H" 
			},
			{
				"x": 2.5858500622,
				"y": -0.9470780198,
				"z": -2.9018805613,
				"element": "H" 
			},
			{
				"x": 2.5398906351,
				"y": 0.3234394548,
				"z": -5.2224569656,
				"element": "H" 
			},
			{
				"x": 2.1633232126,
				"y": 2.9134812213,
				"z": -4.8934800898,
				"element": "H" 
			}
		],
		 "valence_orbital": [ 
			{
				"type": "occ",
				"energy": -0.24802,
				"method": "rhf"
			},
			{
				"type": "occ",
				"energy": -0.2395,
				"method": "rhf"
			},
			{
				"type": "occ",
				"energy": -0.22616,
				"method": "rhf"
			},
			{
				"type": "occ",
				"energy": -0.22105,
				"method": "rhf"
			},
			{
				"type": "occ",
				"energy": -0.21624,
				"method": "rhf"
			},
			{
				"type": "unocc",
				"energy": -0.00922,
				"method": "rhf"
			},
			{
				"type": "unocc",
				"energy": 0.00172,
				"method": "rhf"
			},
			{
				"type": "unocc",
				"energy": 0.0095,
				"method": "rhf"
			},
			{
				"type": "unocc",
				"energy": 0.03285,
				"method": "rhf"
			},
			{
				"type": "unocc",
				"energy": 0.06774,
				"method": "rhf"
			}
		],
		"cosmo_sigma_profile": { 
			"-0.025": 0.0,
			"-0.024": 0.0,
			"-0.023": 0.0,
			"-0.022": 0.0,
			"-0.021": 0.0,
			"-0.02": 0.0,
			"-0.019": 0.0,
			"-0.018": 0.0,
			"-0.017": 0.0,
			"-0.016": 0.0,
			"-0.015": 0.0,
			"-0.014": 0.0,
			"-0.013": 0.0,
			"-0.012": 0.0,
			"-0.011": 0.132789996894,
			"-0.01": 0.94012199786,
			"-0.009": 1.44138288708,
			"-0.008": 2.74240432591,
			"-0.007": 3.47509955677,
			"-0.006": 7.8400971531,
			"-0.005": 15.1083006801,
			"-0.004": 27.8150852803,
			"-0.003": 37.5433801454,
			"-0.002": 40.801621141,
			"-0.001": 28.1952859184,
			"0.0": 23.3569414549,
			"0.001": 16.6484906138,
			"0.002": 17.5008545604,
			"0.003": 20.5358619234,
			"0.004": 22.5212018327,
			"0.005": 19.9546280833,
			"0.006": 8.95848127909,
			"0.007": 3.52259928805,
			"0.008": 2.76316393849,
			"0.009": 3.26385278681,
			"0.01": 2.32772242794,
			"0.011": 2.75872488016,
			"0.012": 2.36511144137,
			"0.013": 0.356753162888,
			"0.014": 0.345158260599,
			"0.015": 0.109604130343,
			"0.016": 0.0,
			"0.017": 0.0,
			"0.018": 0.0,
			"0.019": 0.0,
			"0.02": 0.0,
			"0.021": 0.0,
			"0.022": 0.0,
			"0.023": 0.0,
			"0.024": 0.0,
			"0.025": 0.0
		}
	}
}
