{
	 "smiles": "COC1=CC(CNCCO)=C(OC)C=C1", 
	 "Tm": 365.15, 
	 "num_atms": 32, 
	 "gaussian": { 
		 "optdone": 1, 
		 "sigma_profile": "yes", 
		 "theory": "DFT", 
		 "functional": "B3LYP", 
		 "basiset": "6-31G**", 
		 "properties": { 
			 "R2extent": 4632.213, 
			 "electric_dipole_moment_norm": 3.28827961554, 
			 "electric_quadrupole_moment_norm": 18.5891805817, 
			 "total_energy": -709.799294803, 
			 "HOMO_LUMO_gap": 0.19519, 
			 "cosmo_polarized_energy": -12.07, 
			 "cosmo_cavitation_energy": 34.35, 
			 "cosmo_dispersion_energy": -24.49, 
			 "cosmo_repulsion_energy": 1.96, 
			 "cosmo_total_nonelectrostatic_energy": 11.82, 
			 "SMD_solvation_energy": 6.07 
		},
		"coords": [
			{
				"x": -2.4904873678,
				"y": -0.9728006919,
				"z": 3.715482161,
				"element": "C" 
			},
			{
				"x": -1.391150286,
				"y": -1.7877607409,
				"z": 3.3470247086,
				"element": "O" 
			},
			{
				"x": -0.9408873403,
				"y": -1.7190428038,
				"z": 2.0563176357,
				"element": "C" 
			},
			{
				"x": -1.4987462943,
				"y": -0.9092692091,
				"z": 1.0589369469,
				"element": "C" 
			},
			{
				"x": -0.9781756417,
				"y": -0.899910139,
				"z": -0.2383851128,
				"element": "C" 
			},
			{
				"x": -1.5942684208,
				"y": -0.0345890628,
				"z": -1.3154537012,
				"element": "C" 
			},
			{
				"x": -0.7057952862,
				"y": 1.0722817144,
				"z": -1.7049447958,
				"element": "N" 
			},
			{
				"x": -1.2584053457,
				"y": 1.9431361685,
				"z": -2.7498066986,
				"element": "C" 
			},
			{
				"x": -2.1316624823,
				"y": 3.0229524984,
				"z": -2.0974088216,
				"element": "C" 
			},
			{
				"x": -1.4215587755,
				"y": 3.6584042038,
				"z": -1.0552643733,
				"element": "O" 
			},
			{
				"x": 0.1278903031,
				"y": -1.715371418,
				"z": -0.5341684853,
				"element": "C" 
			},
			{
				"x": 0.594677458,
				"y": -1.6412033031,
				"z": -1.8284248208,
				"element": "O" 
			},
			{
				"x": 1.6690575632,
				"y": -2.4875492537,
				"z": -2.2027474266,
				"element": "C" 
			},
			{
				"x": 0.6881080261,
				"y": -2.527259062,
				"z": 0.4572200294,
				"element": "C" 
			},
			{
				"x": 0.1543258079,
				"y": -2.5285744939,
				"z": 1.7441600216,
				"element": "C" 
			},
			{
				"x": -2.267663706,
				"y": 0.0946630281,
				"z": 3.5867959266,
				"element": "H" 
			},
			{
				"x": -3.3925458326,
				"y": -1.2202857232,
				"z": 3.1399879588,
				"element": "H" 
			},
			{
				"x": -2.675537182,
				"y": -1.1742092838,
				"z": 4.771945241,
				"element": "H" 
			},
			{
				"x": -2.348485891,
				"y": -0.2716908775,
				"z": 1.2751669009,
				"element": "H" 
			},
			{
				"x": -2.5299870853,
				"y": 0.3895954124,
				"z": -0.9374321321,
				"element": "H" 
			},
			{
				"x": -1.8561455261,
				"y": -0.6635796009,
				"z": -2.1844872898,
				"element": "H" 
			},
			{
				"x": 0.1707317025,
				"y": 0.6672319071,
				"z": -2.0186181038,
				"element": "H" 
			},
			{
				"x": -0.4166142365,
				"y": 2.4355082078,
				"z": -3.2486952536,
				"element": "H" 
			},
			{
				"x": -1.8301898077,
				"y": 1.3936191666,
				"z": -3.5185530321,
				"element": "H" 
			},
			{
				"x": -3.0718307591,
				"y": 2.5743715332,
				"z": -1.7290237183,
				"element": "H" 
			},
			{
				"x": -2.4094163115,
				"y": 3.7807340657,
				"z": -2.8393633011,
				"element": "H" 
			},
			{
				"x": -0.8990270847,
				"y": 2.9351348182,
				"z": -0.6632517699,
				"element": "H" 
			},
			{
				"x": 1.4135616817,
				"y": -3.5467899977,
				"z": -2.0707456248,
				"element": "H" 
			},
			{
				"x": 1.8546115702,
				"y": -2.2928808583,
				"z": -3.2604411231,
				"element": "H" 
			},
			{
				"x": 2.5797197714,
				"y": -2.2656916956,
				"z": -1.6310945404,
				"element": "H" 
			},
			{
				"x": 1.540115799,
				"y": -3.1609894366,
				"z": 0.2415237818,
				"element": "H" 
			},
			{
				"x": 0.5805809797,
				"y": -3.1536850725,
				"z": 2.5217488127,
				"element": "H" 
			}
		],
		 "valence_orbital": [ 
			{
				"type": "occ",
				"energy": -0.29038,
				"method": "rhf"
			},
			{
				"type": "occ",
				"energy": -0.25144,
				"method": "rhf"
			},
			{
				"type": "occ",
				"energy": -0.24659,
				"method": "rhf"
			},
			{
				"type": "occ",
				"energy": -0.22788,
				"method": "rhf"
			},
			{
				"type": "occ",
				"energy": -0.20093,
				"method": "rhf"
			},
			{
				"type": "unocc",
				"energy": -0.00574,
				"method": "rhf"
			},
			{
				"type": "unocc",
				"energy": 0.02133,
				"method": "rhf"
			},
			{
				"type": "unocc",
				"energy": 0.08513,
				"method": "rhf"
			},
			{
				"type": "unocc",
				"energy": 0.08991,
				"method": "rhf"
			},
			{
				"type": "unocc",
				"energy": 0.09542,
				"method": "rhf"
			}
		],
		"cosmo_sigma_profile": { 
			"-0.025": 0.0,
			"-0.024": 0.0,
			"-0.023": 0.0,
			"-0.022": 0.0,
			"-0.021": 0.0,
			"-0.02": 0.0,
			"-0.019": 0.0,
			"-0.018": 0.0,
			"-0.017": 0.0,
			"-0.016": 0.0,
			"-0.015": 0.0,
			"-0.014": 0.0,
			"-0.013": 0.0,
			"-0.012": 0.0,
			"-0.011": 0.0,
			"-0.01": 0.0,
			"-0.009": 0.0,
			"-0.008": 0.649400972728,
			"-0.007": 1.55263102185,
			"-0.006": 11.4794879964,
			"-0.005": 25.4566449016,
			"-0.004": 28.5876911228,
			"-0.003": 35.7329009243,
			"-0.002": 30.734474715,
			"-0.001": 22.1589989031,
			"0.0": 14.844586376,
			"0.001": 11.9302308374,
			"0.002": 11.8180616085,
			"0.003": 11.7075401752,
			"0.004": 12.7279894384,
			"0.005": 15.2959318128,
			"0.006": 8.88256307519,
			"0.007": 5.18645740364,
			"0.008": 3.91200442634,
			"0.009": 3.17444785736,
			"0.01": 2.67220501114,
			"0.011": 2.41377542141,
			"0.012": 1.16372586328,
			"0.013": 2.04321894745,
			"0.014": 1.51766705389,
			"0.015": 2.87491019365,
			"0.016": 0.638521853583,
			"0.017": 0.0,
			"0.018": 0.0,
			"0.019": 0.0,
			"0.02": 0.0,
			"0.021": 0.0,
			"0.022": 0.0,
			"0.023": 0.0,
			"0.024": 0.0,
			"0.025": 0.0
		}
	}
}
