{
	 "smiles": "O=C1C2C3C4C2C(=O)C2C4CC3C12", 
	 "Tm": 514.15, 
	 "num_atms": 23, 
	 "gaussian": { 
		 "optdone": 1, 
		 "sigma_profile": "yes", 
		 "theory": "DFT", 
		 "functional": "B3LYP", 
		 "basiset": "6-31G**", 
		 "properties": { 
			 "R2extent": 3147.2118, 
			 "electric_dipole_moment_norm": 5.04711038219, 
			 "electric_quadrupole_moment_norm": 25.6362188634, 
			 "total_energy": -575.592778406, 
			 "HOMO_LUMO_gap": 0.20356, 
			 "cosmo_polarized_energy": -11.72, 
			 "cosmo_cavitation_energy": 23.56, 
			 "cosmo_dispersion_energy": -18.51, 
			 "cosmo_repulsion_energy": 1.48, 
			 "cosmo_total_nonelectrostatic_energy": 6.53, 
			 "SMD_solvation_energy": 3.82 
		},
		"coords": [
			{
				"x": 2.074569859,
				"y": 0.8277815996,
				"z": 3.854661853,
				"element": "O" 
			},
			{
				"x": 1.2912272256,
				"y": 0.4962310608,
				"z": 2.9939824145,
				"element": "C" 
			},
			{
				"x": 1.0471086063,
				"y": -0.9011913551,
				"z": 2.4355328131,
				"element": "C" 
			},
			{
				"x": 0.729320256,
				"y": -0.6390940999,
				"z": 0.9279483545,
				"element": "C" 
			},
			{
				"x": -0.7590335405,
				"y": -1.0530270227,
				"z": 1.1558025035,
				"element": "C" 
			},
			{
				"x": -0.4669661653,
				"y": -1.3222413695,
				"z": 2.6673495982,
				"element": "C" 
			},
			{
				"x": -1.2170888889,
				"y": -0.2012462148,
				"z": 3.3779791312,
				"element": "C" 
			},
			{
				"x": -1.7849806447,
				"y": -0.245392489,
				"z": 4.4456285821,
				"element": "O" 
			},
			{
				"x": -1.1523031243,
				"y": 0.9751304665,
				"z": 2.4012259448,
				"element": "C" 
			},
			{
				"x": -1.5240438237,
				"y": 0.3079376943,
				"z": 1.0457996607,
				"element": "C" 
			},
			{
				"x": -0.7105926487,
				"y": 1.0813937558,
				"z": -0.0014836802,
				"element": "C" 
			},
			{
				"x": 0.6359840522,
				"y": 0.9087638026,
				"z": 0.7152157941,
				"element": "C" 
			},
			{
				"x": 0.3721677873,
				"y": 1.399086655,
				"z": 2.1679388076,
				"element": "C" 
			},
			{
				"x": 1.8005291211,
				"y": -1.6355520192,
				"z": 2.7177865091,
				"element": "H" 
			},
			{
				"x": 1.312622978,
				"y": -1.1746717813,
				"z": 0.1773074447,
				"element": "H" 
			},
			{
				"x": -1.1736966673,
				"y": -1.8661631115,
				"z": 0.5579591117,
				"element": "H" 
			},
			{
				"x": -0.6329235189,
				"y": -2.312237489,
				"z": 3.0903847334,
				"element": "H" 
			},
			{
				"x": -1.7772687922,
				"y": 1.8141374077,
				"z": 2.7075787538,
				"element": "H" 
			},
			{
				"x": -2.5995989897,
				"y": 0.2198580771,
				"z": 0.8745330013,
				"element": "H" 
			},
			{
				"x": -1.0176681807,
				"y": 2.1270982943,
				"z": -0.1073601297,
				"element": "H" 
			},
			{
				"x": -0.7301893498,
				"y": 0.6079101166,
				"z": -0.9900804128,
				"element": "H" 
			},
			{
				"x": 1.511499443,
				"y": 1.3632374063,
				"z": 0.2452873966,
				"element": "H" 
			},
			{
				"x": 0.5440250061,
				"y": 2.4596506156,
				"z": 2.352421815,
				"element": "H" 
			}
		],
		 "valence_orbital": [ 
			{
				"type": "occ",
				"energy": -0.32802,
				"method": "rhf"
			},
			{
				"type": "occ",
				"energy": -0.32112,
				"method": "rhf"
			},
			{
				"type": "occ",
				"energy": -0.31714,
				"method": "rhf"
			},
			{
				"type": "occ",
				"energy": -0.25341,
				"method": "rhf"
			},
			{
				"type": "occ",
				"energy": -0.23023,
				"method": "rhf"
			},
			{
				"type": "unocc",
				"energy": -0.02667,
				"method": "rhf"
			},
			{
				"type": "unocc",
				"energy": -0.02573,
				"method": "rhf"
			},
			{
				"type": "unocc",
				"energy": 0.0601,
				"method": "rhf"
			},
			{
				"type": "unocc",
				"energy": 0.09235,
				"method": "rhf"
			},
			{
				"type": "unocc",
				"energy": 0.10615,
				"method": "rhf"
			}
		],
		"cosmo_sigma_profile": { 
			"-0.025": 0.0,
			"-0.024": 0.0,
			"-0.023": 0.0,
			"-0.022": 0.0,
			"-0.021": 0.0,
			"-0.02": 0.0,
			"-0.019": 0.0,
			"-0.018": 0.0,
			"-0.017": 0.0,
			"-0.016": 0.0,
			"-0.015": 0.0,
			"-0.014": 0.0,
			"-0.013": 0.0,
			"-0.012": 0.0,
			"-0.011": 0.0,
			"-0.01": 0.0,
			"-0.009": 0.0,
			"-0.008": 0.0,
			"-0.007": 0.0866250229044,
			"-0.006": 4.71078176284,
			"-0.005": 16.6549140892,
			"-0.004": 29.2830552593,
			"-0.003": 32.6953088571,
			"-0.002": 29.6184219173,
			"-0.001": 14.0109668637,
			"0.0": 8.20894557078,
			"0.001": 3.30096815063,
			"0.002": 2.55932579897,
			"0.003": 2.63563269571,
			"0.004": 2.15724666807,
			"0.005": 3.36962639348,
			"0.006": 3.15053191647,
			"0.007": 2.26931898126,
			"0.008": 2.69555314541,
			"0.009": 4.56254022821,
			"0.01": 5.2115360431,
			"0.011": 9.12686545579,
			"0.012": 7.24195966264,
			"0.013": 1.68928924219,
			"0.014": 0.0,
			"0.015": 0.0,
			"0.016": 0.0,
			"0.017": 0.0,
			"0.018": 0.0,
			"0.019": 0.0,
			"0.02": 0.0,
			"0.021": 0.0,
			"0.022": 0.0,
			"0.023": 0.0,
			"0.024": 0.0,
			"0.025": 0.0
		}
	}
}
