{
	 "smiles": "OC(=O)C1=CC(O)=C2C=CC=CC2=N1", 
	 "Tm": 555.15, 
	 "num_atms": 21, 
	 "gaussian": { 
		 "optdone": 1, 
		 "sigma_profile": "yes", 
		 "theory": "DFT", 
		 "functional": "B3LYP", 
		 "basiset": "6-31G**", 
		 "properties": { 
			 "R2extent": 2842.1245, 
			 "electric_dipole_moment_norm": 7.5133930198, 
			 "electric_quadrupole_moment_norm": 10.7352754115, 
			 "total_energy": -665.728894178, 
			 "HOMO_LUMO_gap": 0.16816, 
			 "cosmo_polarized_energy": -16.41, 
			 "cosmo_cavitation_energy": 25.75, 
			 "cosmo_dispersion_energy": -19.53, 
			 "cosmo_repulsion_energy": 1.5, 
			 "cosmo_total_nonelectrostatic_energy": 7.73, 
			 "SMD_solvation_energy": 4.99 
		},
		"coords": [
			{
				"x": 2.4885870903,
				"y": 1.968422826,
				"z": -1.4003041571,
				"element": "O" 
			},
			{
				"x": 1.7200132605,
				"y": 1.1272586316,
				"z": -2.1066424649,
				"element": "C" 
			},
			{
				"x": 1.7915562915,
				"y": 1.0062787119,
				"z": -3.3086197426,
				"element": "O" 
			},
			{
				"x": 0.7504833431,
				"y": 0.3406344825,
				"z": -1.2515641898,
				"element": "C" 
			},
			{
				"x": -0.1196986011,
				"y": -0.5811283993,
				"z": -1.8566548537,
				"element": "C" 
			},
			{
				"x": -0.9923964889,
				"y": -1.2829922349,
				"z": -1.0481264707,
				"element": "C" 
			},
			{
				"x": -1.8267896404,
				"y": -2.1681828243,
				"z": -1.6377587154,
				"element": "O" 
			},
			{
				"x": -0.982245565,
				"y": -1.0513463411,
				"z": 0.3647323909,
				"element": "C" 
			},
			{
				"x": -1.8342472869,
				"y": -1.7164496552,
				"z": 1.2838441041,
				"element": "C" 
			},
			{
				"x": -1.7688077368,
				"y": -1.4423683869,
				"z": 2.632368334,
				"element": "C" 
			},
			{
				"x": -0.8459201944,
				"y": -0.4882905007,
				"z": 3.1232860118,
				"element": "C" 
			},
			{
				"x": -0.0052910685,
				"y": 0.1745752048,
				"z": 2.2589147695,
				"element": "C" 
			},
			{
				"x": -0.0479744605,
				"y": -0.0853028836,
				"z": 0.8636553925,
				"element": "C" 
			},
			{
				"x": 0.8029596642,
				"y": 0.5947668743,
				"z": 0.0474205404,
				"element": "N" 
			},
			{
				"x": 2.2142828737,
				"y": 1.8549884363,
				"z": -0.4644002791,
				"element": "H" 
			},
			{
				"x": -0.0968415329,
				"y": -0.7279881758,
				"z": -2.9289744542,
				"element": "H" 
			},
			{
				"x": -2.3883668004,
				"y": -2.5975330583,
				"z": -0.9801573174,
				"element": "H" 
			},
			{
				"x": -2.5551925498,
				"y": -2.4555336659,
				"z": 0.9403770754,
				"element": "H" 
			},
			{
				"x": -2.4276234486,
				"y": -1.9599170922,
				"z": 3.3225999451,
				"element": "H" 
			},
			{
				"x": -0.8045229543,
				"y": -0.2815746304,
				"z": 4.1883495653,
				"element": "H" 
			},
			{
				"x": 0.7107358052,
				"y": 0.9100826812,
				"z": 2.6102545158,
				"element": "H" 
			}
		],
		 "valence_orbital": [ 
			{
				"type": "occ",
				"energy": -0.30083,
				"method": "rhf"
			},
			{
				"type": "occ",
				"energy": -0.29769,
				"method": "rhf"
			},
			{
				"type": "occ",
				"energy": -0.27254,
				"method": "rhf"
			},
			{
				"type": "occ",
				"energy": -0.26302,
				"method": "rhf"
			},
			{
				"type": "occ",
				"energy": -0.24447,
				"method": "rhf"
			},
			{
				"type": "unocc",
				"energy": -0.07631,
				"method": "rhf"
			},
			{
				"type": "unocc",
				"energy": -0.04717,
				"method": "rhf"
			},
			{
				"type": "unocc",
				"energy": -0.00246,
				"method": "rhf"
			},
			{
				"type": "unocc",
				"energy": 0.03453,
				"method": "rhf"
			},
			{
				"type": "unocc",
				"energy": 0.0386,
				"method": "rhf"
			}
		],
		"cosmo_sigma_profile": { 
			"-0.025": 0.0,
			"-0.024": 0.0,
			"-0.023": 0.0,
			"-0.022": 0.0,
			"-0.021": 0.0,
			"-0.02": 0.00851163715984,
			"-0.019": 0.506894978523,
			"-0.018": 1.34813129069,
			"-0.017": 0.896633517406,
			"-0.016": 1.06690970017,
			"-0.015": 0.83650996051,
			"-0.014": 0.568398840992,
			"-0.013": 1.24157549304,
			"-0.012": 1.93545924315,
			"-0.011": 1.72240797561,
			"-0.01": 1.28100019892,
			"-0.009": 1.86408015859,
			"-0.008": 2.74746411123,
			"-0.007": 6.4287280152,
			"-0.006": 10.1541760678,
			"-0.005": 10.0458104403,
			"-0.004": 12.5959243373,
			"-0.003": 10.4249225416,
			"-0.002": 11.3513327214,
			"-0.001": 15.5810170287,
			"0.0": 16.4026341214,
			"0.001": 19.597382981,
			"0.002": 16.3222304291,
			"0.003": 16.0682633478,
			"0.004": 7.04653136405,
			"0.005": 5.62837920963,
			"0.006": 3.66374148361,
			"0.007": 4.14154048076,
			"0.008": 4.07519500703,
			"0.009": 6.06363534902,
			"0.01": 5.84306144788,
			"0.011": 5.07641881685,
			"0.012": 3.73346378595,
			"0.013": 1.25750759737,
			"0.014": 0.0124512623381,
			"0.015": 0.0,
			"0.016": 0.0,
			"0.017": 0.0,
			"0.018": 0.0,
			"0.019": 0.0,
			"0.02": 0.0,
			"0.021": 0.0,
			"0.022": 0.0,
			"0.023": 0.0,
			"0.024": 0.0,
			"0.025": 0.0
		}
	}
}
