{
	 "smiles": "OC1=C(C=C2C=CC=CC2=C1)C(=O)NC1=NC=CC=C1", 
	 "Tm": 510.15, 
	 "num_atms": 32, 
	 "gaussian": { 
		 "optdone": 1, 
		 "sigma_profile": "yes", 
		 "theory": "DFT", 
		 "functional": "B3LYP", 
		 "basiset": "6-31G**", 
		 "properties": { 
			 "R2extent": 8679.1175, 
			 "electric_dipole_moment_norm": 3.06996696725, 
			 "electric_quadrupole_moment_norm": 16.0729761472, 
			 "total_energy": -876.920214473, 
			 "HOMO_LUMO_gap": 0.15945, 
			 "cosmo_polarized_energy": -15.34, 
			 "cosmo_cavitation_energy": 36.47, 
			 "cosmo_dispersion_energy": -27.25, 
			 "cosmo_repulsion_energy": 2.02, 
			 "cosmo_total_nonelectrostatic_energy": 11.24, 
			 "SMD_solvation_energy": 5.2 
		},
		"coords": [
			{
				"x": -1.2328613087,
				"y": 0.7138600855,
				"z": -0.3730001329,
				"element": "O" 
			},
			{
				"x": -0.1467663294,
				"y": 1.4482992858,
				"z": 0.0315175087,
				"element": "C" 
			},
			{
				"x": 0.6046298641,
				"y": 0.9831077413,
				"z": 1.1586248283,
				"element": "C" 
			},
			{
				"x": 1.6972293619,
				"y": 1.7348605336,
				"z": 1.5540932442,
				"element": "C" 
			},
			{
				"x": 2.0922109857,
				"y": 2.9236324703,
				"z": 0.8988573645,
				"element": "C" 
			},
			{
				"x": 3.2180669193,
				"y": 3.6825503295,
				"z": 1.3200805419,
				"element": "C" 
			},
			{
				"x": 3.5744162472,
				"y": 4.8355964386,
				"z": 0.6588316792,
				"element": "C" 
			},
			{
				"x": 2.8170810246,
				"y": 5.2787549562,
				"z": -0.4545666627,
				"element": "C" 
			},
			{
				"x": 1.720832864,
				"y": 4.5664551492,
				"z": -0.8879131675,
				"element": "C" 
			},
			{
				"x": 1.3284669348,
				"y": 3.3725096724,
				"z": -0.2257251052,
				"element": "C" 
			},
			{
				"x": 0.2099552351,
				"y": 2.6033902957,
				"z": -0.6311249717,
				"element": "C" 
			},
			{
				"x": 0.3416118757,
				"y": -0.256112372,
				"z": 1.9849769772,
				"element": "C" 
			},
			{
				"x": 1.0779747895,
				"y": -0.5313001721,
				"z": 2.9307213187,
				"element": "O" 
			},
			{
				"x": -0.7337065422,
				"y": -1.0286966367,
				"z": 1.6233007211,
				"element": "N" 
			},
			{
				"x": -1.1936846025,
				"y": -2.2144672906,
				"z": 2.2127832918,
				"element": "C" 
			},
			{
				"x": -2.2802526989,
				"y": -2.7050615253,
				"z": 1.5949471397,
				"element": "N" 
			},
			{
				"x": -2.8117397407,
				"y": -3.8357792859,
				"z": 2.0681812261,
				"element": "C" 
			},
			{
				"x": -2.3023225746,
				"y": -4.531012946,
				"z": 3.1633431419,
				"element": "C" 
			},
			{
				"x": -1.1722186102,
				"y": -4.0072437173,
				"z": 3.7941177165,
				"element": "C" 
			},
			{
				"x": -0.595491934,
				"y": -2.8313701968,
				"z": 3.325015532,
				"element": "C" 
			},
			{
				"x": -1.6474779179,
				"y": 1.1342919715,
				"z": -1.1369423677,
				"element": "H" 
			},
			{
				"x": 2.2591361037,
				"y": 1.3730717701,
				"z": 2.409080321,
				"element": "H" 
			},
			{
				"x": 3.7915472127,
				"y": 3.3337651744,
				"z": 2.1746891352,
				"element": "H" 
			},
			{
				"x": 4.4355556147,
				"y": 5.4103288606,
				"z": 0.9859845427,
				"element": "H" 
			},
			{
				"x": 3.1070976058,
				"y": 6.1903376797,
				"z": -0.9693348668,
				"element": "H" 
			},
			{
				"x": 1.1434136833,
				"y": 4.9104009684,
				"z": -1.7420922044,
				"element": "H" 
			},
			{
				"x": -0.3780575178,
				"y": 2.9354064368,
				"z": -1.4851995725,
				"element": "H" 
			},
			{
				"x": -1.291582558,
				"y": -0.7332688146,
				"z": 0.8296736983,
				"element": "H" 
			},
			{
				"x": -3.6913122184,
				"y": -4.2016473363,
				"z": 1.540811429,
				"element": "H" 
			},
			{
				"x": -2.7739797443,
				"y": -5.445861595,
				"z": 3.50626259,
				"element": "H" 
			},
			{
				"x": -0.7365658267,
				"y": -4.5115951077,
				"z": 4.6521602561,
				"element": "H" 
			},
			{
				"x": 0.2782938024,
				"y": -2.3888028235,
				"z": 3.7799448476,
				"element": "H" 
			}
		],
		 "valence_orbital": [ 
			{
				"type": "occ",
				"energy": -0.25945,
				"method": "rhf"
			},
			{
				"type": "occ",
				"energy": -0.2546,
				"method": "rhf"
			},
			{
				"type": "occ",
				"energy": -0.24352,
				"method": "rhf"
			},
			{
				"type": "occ",
				"energy": -0.22285,
				"method": "rhf"
			},
			{
				"type": "occ",
				"energy": -0.21779,
				"method": "rhf"
			},
			{
				"type": "unocc",
				"energy": -0.05834,
				"method": "rhf"
			},
			{
				"type": "unocc",
				"energy": -0.02511,
				"method": "rhf"
			},
			{
				"type": "unocc",
				"energy": -0.01336,
				"method": "rhf"
			},
			{
				"type": "unocc",
				"energy": 0.00253,
				"method": "rhf"
			},
			{
				"type": "unocc",
				"energy": 0.02542,
				"method": "rhf"
			}
		],
		"cosmo_sigma_profile": { 
			"-0.025": 0.0,
			"-0.024": 0.0,
			"-0.023": 0.0,
			"-0.022": 0.0,
			"-0.021": 0.0,
			"-0.02": 0.0,
			"-0.019": 0.548873582152,
			"-0.018": 1.22971588226,
			"-0.017": 0.83214662717,
			"-0.016": 1.15022173003,
			"-0.015": 1.2491651444,
			"-0.014": 0.864812405624,
			"-0.013": 0.739587654279,
			"-0.012": 1.10505521652,
			"-0.011": 1.10380869008,
			"-0.01": 1.0314083319,
			"-0.009": 0.806414862664,
			"-0.008": 1.41612049657,
			"-0.007": 6.22972763899,
			"-0.006": 18.3192594869,
			"-0.005": 17.1721830794,
			"-0.004": 19.06081455,
			"-0.003": 14.9393762886,
			"-0.002": 15.746415177,
			"-0.001": 18.7322743128,
			"0.0": 21.076660861,
			"0.001": 24.1803429673,
			"0.002": 33.3276090547,
			"0.003": 37.7333114885,
			"0.004": 20.8407005505,
			"0.005": 10.6036033955,
			"0.006": 3.7140684124,
			"0.007": 2.81069324669,
			"0.008": 2.96992049453,
			"0.009": 2.01422562634,
			"0.01": 3.20758375686,
			"0.011": 2.55250699427,
			"0.012": 3.79129595573,
			"0.013": 1.96191524767,
			"0.014": 0.776355684847,
			"0.015": 0.0664102816537,
			"0.016": 0.0,
			"0.017": 0.0,
			"0.018": 0.0,
			"0.019": 0.0,
			"0.02": 0.0,
			"0.021": 0.0,
			"0.022": 0.0,
			"0.023": 0.0,
			"0.024": 0.0,
			"0.025": 0.0
		}
	}
}
