{
	 "smiles": "CC1=NN=C(CCl)O1", 
	 "Tm": 309.15, 
	 "num_atms": 13, 
	 "gaussian": { 
		 "optdone": 1, 
		 "sigma_profile": "yes", 
		 "theory": "DFT", 
		 "functional": "B3LYP", 
		 "basiset": "6-31G**", 
		 "properties": { 
			 "R2extent": 1560.5708, 
			 "electric_dipole_moment_norm": 3.18619986975, 
			 "electric_quadrupole_moment_norm": 15.7700301981, 
			 "total_energy": -800.331267169, 
			 "HOMO_LUMO_gap": 0.23884, 
			 "cosmo_polarized_energy": -11.17, 
			 "cosmo_cavitation_energy": 19.57, 
			 "cosmo_dispersion_energy": -14.69, 
			 "cosmo_repulsion_energy": 1.26, 
			 "cosmo_total_nonelectrostatic_energy": 6.14, 
			 "SMD_solvation_energy": 1.79 
		},
		"coords": [
			{
				"x": -0.7369051604,
				"y": -0.3478766358,
				"z": -3.2253267408,
				"element": "C" 
			},
			{
				"x": -1.2622038685,
				"y": 0.1614706282,
				"z": -1.9343277718,
				"element": "C" 
			},
			{
				"x": -2.4893476719,
				"y": 0.4150031323,
				"z": -1.599083259,
				"element": "N" 
			},
			{
				"x": -2.4546346937,
				"y": 0.862800047,
				"z": -0.2770678639,
				"element": "N" 
			},
			{
				"x": -1.2095265738,
				"y": 0.848073707,
				"z": 0.0778773069,
				"element": "C" 
			},
			{
				"x": -0.6379963037,
				"y": 1.2463094682,
				"z": 1.3828792354,
				"element": "C" 
			},
			{
				"x": 0.0134963725,
				"y": -0.1770164434,
				"z": 2.3145091698,
				"element": "Cl" 
			},
			{
				"x": -0.3853127637,
				"y": 0.4179443539,
				"z": -0.9188435408,
				"element": "O" 
			},
			{
				"x": -1.5721411398,
				"y": -0.4920789079,
				"z": -3.9112205916,
				"element": "H" 
			},
			{
				"x": -0.2172161474,
				"y": -1.3008911842,
				"z": -3.0850105227,
				"element": "H" 
			},
			{
				"x": -0.0274563146,
				"y": 0.3600832159,
				"z": -3.6653562969,
				"element": "H" 
			},
			{
				"x": -1.4237134283,
				"y": 1.6993060435,
				"z": 1.9846492033,
				"element": "H" 
			},
			{
				"x": 0.1962576933,
				"y": 1.9380725754,
				"z": 1.2621216722,
				"element": "H" 
			}
		],
		 "valence_orbital": [ 
			{
				"type": "occ",
				"energy": -0.33124,
				"method": "rhf"
			},
			{
				"type": "occ",
				"energy": -0.31485,
				"method": "rhf"
			},
			{
				"type": "occ",
				"energy": -0.31042,
				"method": "rhf"
			},
			{
				"type": "occ",
				"energy": -0.28607,
				"method": "rhf"
			},
			{
				"type": "occ",
				"energy": -0.28086,
				"method": "rhf"
			},
			{
				"type": "unocc",
				"energy": -0.04202,
				"method": "rhf"
			},
			{
				"type": "unocc",
				"energy": 0.01037,
				"method": "rhf"
			},
			{
				"type": "unocc",
				"energy": 0.04566,
				"method": "rhf"
			},
			{
				"type": "unocc",
				"energy": 0.09512,
				"method": "rhf"
			},
			{
				"type": "unocc",
				"energy": 0.10513,
				"method": "rhf"
			}
		],
		"cosmo_sigma_profile": { 
			"-0.025": 0.0,
			"-0.024": 0.0,
			"-0.023": 0.0,
			"-0.022": 0.0,
			"-0.021": 0.0,
			"-0.02": 0.0,
			"-0.019": 0.0,
			"-0.018": 0.0,
			"-0.017": 0.0,
			"-0.016": 0.0,
			"-0.015": 0.0,
			"-0.014": 0.0,
			"-0.013": 0.0,
			"-0.012": 0.0,
			"-0.011": 0.0,
			"-0.01": 2.68160938402,
			"-0.009": 4.68937264329,
			"-0.008": 4.01837397255,
			"-0.007": 9.87083721642,
			"-0.006": 10.9958336325,
			"-0.005": 11.5351885736,
			"-0.004": 10.8078072521,
			"-0.003": 12.5065077241,
			"-0.002": 9.33077746641,
			"-0.001": 7.10821547561,
			"0.0": 6.78183762708,
			"0.001": 7.19492643716,
			"0.002": 6.45608509677,
			"0.003": 7.94356599555,
			"0.004": 9.33342098009,
			"0.005": 11.8739396326,
			"0.006": 5.16463649909,
			"0.007": 1.3850839256,
			"0.008": 2.29546732125,
			"0.009": 2.04995930954,
			"0.01": 2.90608410944,
			"0.011": 3.40275182348,
			"0.012": 2.91308289065,
			"0.013": 2.0897821355,
			"0.014": 2.41560718165,
			"0.015": 1.01387537755,
			"0.016": 0.0345462964188,
			"0.017": 0.0,
			"0.018": 0.0,
			"0.019": 0.0,
			"0.02": 0.0,
			"0.021": 0.0,
			"0.022": 0.0,
			"0.023": 0.0,
			"0.024": 0.0,
			"0.025": 0.0
		}
	}
}
