{
	 "smiles": "CC(C)(C(O)=O)C1=CC=C(C=C1)[N+]([O-])=O", 
	 "Tm": 403.15, 
	 "num_atms": 26, 
	 "gaussian": { 
		 "optdone": 1, 
		 "sigma_profile": "yes", 
		 "theory": "DFT", 
		 "functional": "B3LYP", 
		 "basiset": "6-31G**", 
		 "properties": { 
			 "R2extent": 4811.236, 
			 "electric_dipole_moment_norm": 4.75125526677, 
			 "electric_quadrupole_moment_norm": 21.0881447342, 
			 "total_energy": -743.262809653, 
			 "HOMO_LUMO_gap": 0.18334, 
			 "cosmo_polarized_energy": -13.58, 
			 "cosmo_cavitation_energy": 30.22, 
			 "cosmo_dispersion_energy": -21.32, 
			 "cosmo_repulsion_energy": 1.66, 
			 "cosmo_total_nonelectrostatic_energy": 10.56, 
			 "SMD_solvation_energy": 8.67 
		},
		"coords": [
			{
				"x": 0.9104399974,
				"y": -0.1919119148,
				"z": -1.5336512444,
				"element": "C" 
			},
			{
				"x": 0.0973753372,
				"y": 1.0639971272,
				"z": -1.1605177771,
				"element": "C" 
			},
			{
				"x": -0.9088631746,
				"y": 1.3780640508,
				"z": -2.2892152727,
				"element": "C" 
			},
			{
				"x": 1.0510270842,
				"y": 2.2601915152,
				"z": -1.0058050155,
				"element": "C" 
			},
			{
				"x": 2.1418100217,
				"y": 1.9547294499,
				"z": -0.266066979,
				"element": "O" 
			},
			{
				"x": 0.8663841751,
				"y": 3.3690250349,
				"z": -1.4588263614,
				"element": "O" 
			},
			{
				"x": -0.6608506534,
				"y": 0.9209389236,
				"z": 0.1736369745,
				"element": "C" 
			},
			{
				"x": -1.3114746286,
				"y": 2.044454437,
				"z": 0.7155881801,
				"element": "C" 
			},
			{
				"x": -2.0367211823,
				"y": 1.958602685,
				"z": 1.8981585166,
				"element": "C" 
			},
			{
				"x": -2.1153265746,
				"y": 0.7271567216,
				"z": 2.5462680386,
				"element": "C" 
			},
			{
				"x": -1.4842590438,
				"y": -0.4051001297,
				"z": 2.0414822779,
				"element": "C" 
			},
			{
				"x": -0.7572041958,
				"y": -0.2990273209,
				"z": 0.8571540041,
				"element": "C" 
			},
			{
				"x": -2.8817866187,
				"y": 0.6226970386,
				"z": 3.7968394179,
				"element": "N" 
			},
			{
				"x": -2.9324632975,
				"y": -0.4778957023,
				"z": 4.3456186577,
				"element": "O" 
			},
			{
				"x": -3.4266148116,
				"y": 1.6423774749,
				"z": 4.2189312782,
				"element": "O" 
			},
			{
				"x": 1.4747273717,
				"y": -0.0088054615,
				"z": -2.4527672111,
				"element": "H" 
			},
			{
				"x": 1.6207524427,
				"y": -0.4683153766,
				"z": -0.7523468119,
				"element": "H" 
			},
			{
				"x": 0.2419950039,
				"y": -1.036909342,
				"z": -1.723050627,
				"element": "H" 
			},
			{
				"x": -0.3866497474,
				"y": 1.4942747511,
				"z": -3.243378399,
				"element": "H" 
			},
			{
				"x": -1.6268747291,
				"y": 0.5582375209,
				"z": -2.381934538,
				"element": "H" 
			},
			{
				"x": -1.4552611018,
				"y": 2.3020413284,
				"z": -2.0953478133,
				"element": "H" 
			},
			{
				"x": 2.662537676,
				"y": 2.7731434273,
				"z": -0.2004837379,
				"element": "H" 
			},
			{
				"x": -1.2407209061,
				"y": 3.0016504623,
				"z": 0.2082377671,
				"element": "H" 
			},
			{
				"x": -2.5375237893,
				"y": 2.819163167,
				"z": 2.323679208,
				"element": "H" 
			},
			{
				"x": -1.5659089504,
				"y": -1.3436191491,
				"z": 2.5753738377,
				"element": "H" 
			},
			{
				"x": -0.263845705,
				"y": -1.1835607188,
				"z": 0.4730236298,
				"element": "H" 
			}
		],
		 "valence_orbital": [ 
			{
				"type": "occ",
				"energy": -0.30631,
				"method": "rhf"
			},
			{
				"type": "occ",
				"energy": -0.29168,
				"method": "rhf"
			},
			{
				"type": "occ",
				"energy": -0.28985,
				"method": "rhf"
			},
			{
				"type": "occ",
				"energy": -0.27924,
				"method": "rhf"
			},
			{
				"type": "occ",
				"energy": -0.27255,
				"method": "rhf"
			},
			{
				"type": "unocc",
				"energy": -0.08921,
				"method": "rhf"
			},
			{
				"type": "unocc",
				"energy": -0.03114,
				"method": "rhf"
			},
			{
				"type": "unocc",
				"energy": -0.01111,
				"method": "rhf"
			},
			{
				"type": "unocc",
				"energy": 0.00763,
				"method": "rhf"
			},
			{
				"type": "unocc",
				"energy": 0.06296,
				"method": "rhf"
			}
		],
		"cosmo_sigma_profile": { 
			"-0.025": 0.0,
			"-0.024": 0.0,
			"-0.023": 0.0,
			"-0.022": 0.0,
			"-0.021": 0.0,
			"-0.02": 0.0,
			"-0.019": 0.14156293698,
			"-0.018": 0.988225356416,
			"-0.017": 0.837290312594,
			"-0.016": 1.08346601081,
			"-0.015": 0.503643692333,
			"-0.014": 0.407100970966,
			"-0.013": 0.507318949924,
			"-0.012": 0.862965333494,
			"-0.011": 1.03757292008,
			"-0.01": 0.599920125353,
			"-0.009": 0.438295471093,
			"-0.008": 1.6023089784,
			"-0.007": 6.01485648929,
			"-0.006": 11.2759322602,
			"-0.005": 15.0727563482,
			"-0.004": 18.8182475238,
			"-0.003": 18.6849285499,
			"-0.002": 19.3895225334,
			"-0.001": 22.9059993492,
			"0.0": 23.41556373,
			"0.001": 17.6189049432,
			"0.002": 14.0046671927,
			"0.003": 6.0812118233,
			"0.004": 5.77887879371,
			"0.005": 5.81616368778,
			"0.006": 6.6000667599,
			"0.007": 10.3257554373,
			"0.008": 10.4895818183,
			"0.009": 6.26479439773,
			"0.01": 4.63558492759,
			"0.011": 4.30604267002,
			"0.012": 2.68361020021,
			"0.013": 0.0106109177176,
			"0.014": 0.0,
			"0.015": 0.0,
			"0.016": 0.0,
			"0.017": 0.0,
			"0.018": 0.0,
			"0.019": 0.0,
			"0.02": 0.0,
			"0.021": 0.0,
			"0.022": 0.0,
			"0.023": 0.0,
			"0.024": 0.0,
			"0.025": 0.0
		}
	}
}
