{
	 "smiles": "CS(=O)(=O)N(C1=C(Br)C=C(N)C=C1)S(C)(=O)=O", 
	 "Tm": 453.15, 
	 "num_atms": 28, 
	 "gaussian": { 
		 "optdone": 1, 
		 "sigma_profile": "yes", 
		 "theory": "DFT", 
		 "functional": "B3LYP", 
		 "basiset": "6-31G**", 
		 "properties": { 
			 "R2extent": 5653.7309, 
			 "electric_dipole_moment_norm": 4.56078648152, 
			 "electric_quadrupole_moment_norm": 21.6058056584, 
			 "total_energy": -4089.52229706, 
			 "HOMO_LUMO_gap": 0.19801, 
			 "cosmo_polarized_energy": -24.03, 
			 "cosmo_cavitation_energy": 35.88, 
			 "cosmo_dispersion_energy": -25.91, 
			 "cosmo_repulsion_energy": 1.91, 
			 "cosmo_total_nonelectrostatic_energy": 11.87, 
			 "SMD_solvation_energy": 4.72 
		},
		"coords": [
			{
				"x": -1.8159582917,
				"y": -2.7509253366,
				"z": 2.023466397,
				"element": "C" 
			},
			{
				"x": -2.4302611239,
				"y": -1.3018920836,
				"z": 1.1576753672,
				"element": "S" 
			},
			{
				"x": -3.486892851,
				"y": -0.6849915406,
				"z": 1.9639091957,
				"element": "O" 
			},
			{
				"x": -2.6572442833,
				"y": -1.6369516041,
				"z": -0.2453714065,
				"element": "O" 
			},
			{
				"x": -1.0724955425,
				"y": -0.2094749321,
				"z": 1.1565022877,
				"element": "N" 
			},
			{
				"x": -0.4282784631,
				"y": 0.1171270284,
				"z": -0.0738553647,
				"element": "C" 
			},
			{
				"x": 0.783120198,
				"y": -0.4745147974,
				"z": -0.4701574885,
				"element": "C" 
			},
			{
				"x": 1.6354936537,
				"y": -1.7787569378,
				"z": 0.6259117432,
				"element": "Br" 
			},
			{
				"x": 1.3942612392,
				"y": -0.1385541699,
				"z": -1.6699863016,
				"element": "C" 
			},
			{
				"x": 0.8050582538,
				"y": 0.8066295326,
				"z": -2.5301133127,
				"element": "C" 
			},
			{
				"x": 1.4382738057,
				"y": 1.1772802498,
				"z": -3.7028823253,
				"element": "N" 
			},
			{
				"x": -0.4146370503,
				"y": 1.3964423234,
				"z": -2.1484544143,
				"element": "C" 
			},
			{
				"x": -1.007263513,
				"y": 1.0511250068,
				"z": -0.9445754571,
				"element": "C" 
			},
			{
				"x": -0.6551913,
				"y": 0.6488164019,
				"z": 2.6054404065,
				"element": "S" 
			},
			{
				"x": -1.8927550268,
				"y": 1.9514822619,
				"z": 2.7151667277,
				"element": "C" 
			},
			{
				"x": 0.6446048246,
				"y": 1.2586616672,
				"z": 2.3485411456,
				"element": "O" 
			},
			{
				"x": -0.8622163815,
				"y": -0.2793318114,
				"z": 3.7173667218,
				"element": "O" 
			},
			{
				"x": -0.9645217136,
				"y": -3.1402964267,
				"z": 1.4660036026,
				"element": "H" 
			},
			{
				"x": -1.5264273616,
				"y": -2.4424578826,
				"z": 3.0273208776,
				"element": "H" 
			},
			{
				"x": -2.6399812876,
				"y": -3.4668470607,
				"z": 2.0432789332,
				"element": "H" 
			},
			{
				"x": 2.3328688092,
				"y": -0.6086936092,
				"z": -1.9420195942,
				"element": "H" 
			},
			{
				"x": 0.8619510832,
				"y": 1.5997815763,
				"z": -4.4156231059,
				"element": "H" 
			},
			{
				"x": 2.1293505748,
				"y": 0.5396946207,
				"z": -4.0697507688,
				"element": "H" 
			},
			{
				"x": -0.890942721,
				"y": 2.1227690593,
				"z": -2.8005420769,
				"element": "H" 
			},
			{
				"x": -1.9563481822,
				"y": 1.4971718588,
				"z": -0.6647219721,
				"element": "H" 
			},
			{
				"x": -2.8751979973,
				"y": 1.4810120856,
				"z": 2.7435852876,
				"element": "H" 
			},
			{
				"x": -1.6846093463,
				"y": 2.4996939319,
				"z": 3.636023839,
				"element": "H" 
			},
			{
				"x": -1.7790600056,
				"y": 2.6043005881,
				"z": 1.8491610561,
				"element": "H" 
			}
		],
		 "valence_orbital": [ 
			{
				"type": "occ",
				"energy": -0.30148,
				"method": "rhf"
			},
			{
				"type": "occ",
				"energy": -0.29612,
				"method": "rhf"
			},
			{
				"type": "occ",
				"energy": -0.28578,
				"method": "rhf"
			},
			{
				"type": "occ",
				"energy": -0.25384,
				"method": "rhf"
			},
			{
				"type": "occ",
				"energy": -0.22396,
				"method": "rhf"
			},
			{
				"type": "unocc",
				"energy": -0.02595,
				"method": "rhf"
			},
			{
				"type": "unocc",
				"energy": -0.02193,
				"method": "rhf"
			},
			{
				"type": "unocc",
				"energy": -0.00164,
				"method": "rhf"
			},
			{
				"type": "unocc",
				"energy": 0.01646,
				"method": "rhf"
			},
			{
				"type": "unocc",
				"energy": 0.0593,
				"method": "rhf"
			}
		],
		"cosmo_sigma_profile": { 
			"-0.025": 0.0,
			"-0.024": 0.0,
			"-0.023": 0.0,
			"-0.022": 0.0,
			"-0.021": 0.0,
			"-0.02": 0.0,
			"-0.019": 0.0,
			"-0.018": 0.0,
			"-0.017": 0.0,
			"-0.016": 0.0,
			"-0.015": 0.0,
			"-0.014": 0.656063088321,
			"-0.013": 3.25140682439,
			"-0.012": 3.18402835955,
			"-0.011": 2.96721124832,
			"-0.01": 6.44408638699,
			"-0.009": 6.99954338565,
			"-0.008": 10.6988598804,
			"-0.007": 15.7267416519,
			"-0.006": 16.6934678947,
			"-0.005": 19.7932818088,
			"-0.004": 17.2661109624,
			"-0.003": 13.0205007383,
			"-0.002": 11.1719829595,
			"-0.001": 9.71233505445,
			"0.0": 11.7926727632,
			"0.001": 14.180940653,
			"0.002": 15.4103359278,
			"0.003": 18.0679301264,
			"0.004": 17.4463398634,
			"0.005": 7.85473269027,
			"0.006": 7.74353927573,
			"0.007": 10.4360418967,
			"0.008": 9.50818884738,
			"0.009": 13.1133909035,
			"0.01": 20.2298325769,
			"0.011": 4.88218333435,
			"0.012": 0.398511326835,
			"0.013": 0.0414845969495,
			"0.014": 0.0,
			"0.015": 0.0,
			"0.016": 0.0,
			"0.017": 0.0,
			"0.018": 0.0,
			"0.019": 0.0,
			"0.02": 0.0,
			"0.021": 0.0,
			"0.022": 0.0,
			"0.023": 0.0,
			"0.024": 0.0,
			"0.025": 0.0
		}
	}
}
