{
	 "smiles": "NC1=CC(=NO1)C1=CC=C(Br)O1", 
	 "Tm": 418.15, 
	 "num_atms": 17, 
	 "gaussian": { 
		 "optdone": 1, 
		 "sigma_profile": "yes", 
		 "theory": "DFT", 
		 "functional": "B3LYP", 
		 "basiset": "6-31G**", 
		 "properties": { 
			 "R2extent": 5648.9075, 
			 "electric_dipole_moment_norm": 5.13135605761, 
			 "electric_quadrupole_moment_norm": 23.7715207116, 
			 "total_energy": -3101.0263785, 
			 "HOMO_LUMO_gap": 0.18345, 
			 "cosmo_polarized_energy": -16.09, 
			 "cosmo_cavitation_energy": 25.31, 
			 "cosmo_dispersion_energy": -19.34, 
			 "cosmo_repulsion_energy": 1.56, 
			 "cosmo_total_nonelectrostatic_energy": 7.53, 
			 "SMD_solvation_energy": 3.85 
		},
		"coords": [
			{
				"x": 0.034807248,
				"y": 1.0806634814,
				"z": -4.4115641847,
				"element": "N" 
			},
			{
				"x": -0.1157125282,
				"y": 1.3221586102,
				"z": -3.0686654118,
				"element": "C" 
			},
			{
				"x": 0.4500754628,
				"y": 0.782823896,
				"z": -1.9444975033,
				"element": "C" 
			},
			{
				"x": -0.2283779998,
				"y": 1.4575081017,
				"z": -0.8861665267,
				"element": "C" 
			},
			{
				"x": -1.1219961612,
				"y": 2.3280613619,
				"z": -1.3231945664,
				"element": "N" 
			},
			{
				"x": -1.0426128928,
				"y": 2.2364339105,
				"z": -2.7334188842,
				"element": "O" 
			},
			{
				"x": -0.0094453824,
				"y": 1.2577310312,
				"z": 0.5335647533,
				"element": "C" 
			},
			{
				"x": 0.825665504,
				"y": 0.4246096984,
				"z": 1.229781214,
				"element": "C" 
			},
			{
				"x": 0.5990380931,
				"y": 0.6743393095,
				"z": 2.6178935785,
				"element": "C" 
			},
			{
				"x": -0.3602361574,
				"y": 1.6425136637,
				"z": 2.6558468091,
				"element": "C" 
			},
			{
				"x": -1.1935821318,
				"y": 2.5047249009,
				"z": 4.0867964233,
				"element": "Br" 
			},
			{
				"x": -0.7456639655,
				"y": 2.013388236,
				"z": 1.413134257,
				"element": "O" 
			},
			{
				"x": 0.9311850333,
				"y": 0.706470741,
				"z": -4.6864931489,
				"element": "H" 
			},
			{
				"x": -0.2934651939,
				"y": 1.8254850541,
				"z": -5.0116579906,
				"element": "H" 
			},
			{
				"x": 1.215176038,
				"y": 0.0261664472,
				"z": -1.8791273424,
				"element": "H" 
			},
			{
				"x": 1.5206616109,
				"y": -0.2853111298,
				"z": 0.8051802025,
				"element": "H" 
			},
			{
				"x": 1.074883423,
				"y": 0.2061326862,
				"z": 3.4654883214,
				"element": "H" 
			}
		],
		 "valence_orbital": [ 
			{
				"type": "occ",
				"energy": -0.30202,
				"method": "rhf"
			},
			{
				"type": "occ",
				"energy": -0.29877,
				"method": "rhf"
			},
			{
				"type": "occ",
				"energy": -0.28704,
				"method": "rhf"
			},
			{
				"type": "occ",
				"energy": -0.226,
				"method": "rhf"
			},
			{
				"type": "occ",
				"energy": -0.21524,
				"method": "rhf"
			},
			{
				"type": "unocc",
				"energy": -0.03179,
				"method": "rhf"
			},
			{
				"type": "unocc",
				"energy": 0.0098,
				"method": "rhf"
			},
			{
				"type": "unocc",
				"energy": 0.02993,
				"method": "rhf"
			},
			{
				"type": "unocc",
				"energy": 0.04591,
				"method": "rhf"
			},
			{
				"type": "unocc",
				"energy": 0.06071,
				"method": "rhf"
			}
		],
		"cosmo_sigma_profile": { 
			"-0.025": 0.0,
			"-0.024": 0.0,
			"-0.023": 0.0,
			"-0.022": 0.0,
			"-0.021": 0.0,
			"-0.02": 0.0,
			"-0.019": 0.0,
			"-0.018": 0.0,
			"-0.017": 0.0,
			"-0.016": 0.0,
			"-0.015": 1.00442614702,
			"-0.014": 2.70513191242,
			"-0.013": 2.77627586448,
			"-0.012": 2.61815013509,
			"-0.011": 2.68391968112,
			"-0.01": 2.45158187537,
			"-0.009": 2.99376615147,
			"-0.008": 8.81445816899,
			"-0.007": 7.51800256601,
			"-0.006": 7.60084758985,
			"-0.005": 7.71577223742,
			"-0.004": 6.63393020347,
			"-0.003": 6.5221451375,
			"-0.002": 7.76242742111,
			"-0.001": 8.78419757837,
			"0.0": 16.4280940781,
			"0.001": 20.9341218203,
			"0.002": 24.0692441071,
			"0.003": 26.058893043,
			"0.004": 7.11051129477,
			"0.005": 3.88417173986,
			"0.006": 4.30956187224,
			"0.007": 4.16443292224,
			"0.008": 5.43641682743,
			"0.009": 4.8474386969,
			"0.01": 2.75058702575,
			"0.011": 2.54435103435,
			"0.012": 2.45157884187,
			"0.013": 1.18899902511,
			"0.014": 1.65035759169,
			"0.015": 0.90401587859,
			"0.016": 0.0,
			"0.017": 0.0,
			"0.018": 0.0,
			"0.019": 0.0,
			"0.02": 0.0,
			"0.021": 0.0,
			"0.022": 0.0,
			"0.023": 0.0,
			"0.024": 0.0,
			"0.025": 0.0
		}
	}
}
