{
	 "smiles": "FC(F)(F)C1=CC(=CC=C1)N1N=C(SC1=N)C(=O)C1=CC=CS1", 
	 "Tm": 458.15, 
	 "num_atms": 31, 
	 "gaussian": { 
		 "optdone": 1, 
		 "sigma_profile": "yes", 
		 "theory": "DFT", 
		 "functional": "B3LYP", 
		 "basiset": "6-31G**", 
		 "properties": { 
			 "R2extent": 10688.8958, 
			 "electric_dipole_moment_norm": 1.67420228766, 
			 "electric_quadrupole_moment_norm": 20.2123208477, 
			 "total_energy": -1873.64123925, 
			 "HOMO_LUMO_gap": 0.13079, 
			 "cosmo_polarized_energy": -11.87, 
			 "cosmo_cavitation_energy": 41.62, 
			 "cosmo_dispersion_energy": -29.78, 
			 "cosmo_repulsion_energy": 2.08, 
			 "cosmo_total_nonelectrostatic_energy": 13.92, 
			 "SMD_solvation_energy": 7.66 
		},
		"coords": [
			{
				"x": -3.4440792478,
				"y": -1.7535895646,
				"z": 0.2742287022,
				"element": "F" 
			},
			{
				"x": -3.2552612349,
				"y": -1.3899432892,
				"z": 1.5628816856,
				"element": "C" 
			},
			{
				"x": -2.8834265018,
				"y": -2.5036052172,
				"z": 2.2348101518,
				"element": "F" 
			},
			{
				"x": -4.4548415049,
				"y": -1.015241581,
				"z": 2.0594300987,
				"element": "F" 
			},
			{
				"x": -2.2312195502,
				"y": -0.2938771212,
				"z": 1.6949468287,
				"element": "C" 
			},
			{
				"x": -1.2199938954,
				"y": -0.1850055444,
				"z": 0.7434123168,
				"element": "C" 
			},
			{
				"x": -0.2364691406,
				"y": 0.8013558598,
				"z": 0.8877026469,
				"element": "C" 
			},
			{
				"x": -0.2629435212,
				"y": 1.6641824655,
				"z": 1.9907416456,
				"element": "C" 
			},
			{
				"x": -1.2795768787,
				"y": 1.5315155229,
				"z": 2.9369150326,
				"element": "C" 
			},
			{
				"x": -2.2689241954,
				"y": 0.5613960306,
				"z": 2.7994861779,
				"element": "C" 
			},
			{
				"x": 0.7640845074,
				"y": 0.9143534739,
				"z": -0.1260570042,
				"element": "N" 
			},
			{
				"x": 0.4625787599,
				"y": 0.4222637156,
				"z": -1.352375692,
				"element": "N" 
			},
			{
				"x": 1.454644193,
				"y": 0.4925601369,
				"z": -2.1749897437,
				"element": "C" 
			},
			{
				"x": 2.9368724216,
				"y": 1.1845092063,
				"z": -1.5151805088,
				"element": "S" 
			},
			{
				"x": 2.0825213849,
				"y": 1.4060978957,
				"z": 0.0512291014,
				"element": "C" 
			},
			{
				"x": 2.5099116644,
				"y": 1.8970664581,
				"z": 1.1431491998,
				"element": "N" 
			},
			{
				"x": 1.4710242392,
				"y": 0.0462612546,
				"z": -3.5953027429,
				"element": "C" 
			},
			{
				"x": 2.5440091961,
				"y": 0.1283673102,
				"z": -4.1931289735,
				"element": "O" 
			},
			{
				"x": 0.2628120927,
				"y": -0.4661914224,
				"z": -4.2395218286,
				"element": "C" 
			},
			{
				"x": -1.0456233578,
				"y": -0.5727494906,
				"z": -3.8042236566,
				"element": "C" 
			},
			{
				"x": -1.9085696972,
				"y": -1.1248584008,
				"z": -4.783820105,
				"element": "C" 
			},
			{
				"x": -1.2496980248,
				"y": -1.4294362526,
				"z": -5.9511349329,
				"element": "C" 
			},
			{
				"x": 0.4285876637,
				"y": -1.0472796939,
				"z": -5.8832839482,
				"element": "S" 
			},
			{
				"x": -1.1967445121,
				"y": -0.8524351825,
				"z": -0.1073641419,
				"element": "H" 
			},
			{
				"x": 0.5091579305,
				"y": 2.4105990837,
				"z": 2.1071955558,
				"element": "H" 
			},
			{
				"x": -1.2981431749,
				"y": 2.2050988889,
				"z": 3.7879310262,
				"element": "H" 
			},
			{
				"x": -3.0636559033,
				"y": 0.469572952,
				"z": 3.531316099,
				"element": "H" 
			},
			{
				"x": 3.4856442771,
				"y": 2.1785061607,
				"z": 1.0839482851,
				"element": "H" 
			},
			{
				"x": -1.3613018403,
				"y": -0.2575837604,
				"z": -2.8191503374,
				"element": "H" 
			},
			{
				"x": -2.968993982,
				"y": -1.2888809413,
				"z": -4.6325767262,
				"element": "H" 
			},
			{
				"x": -1.6676821672,
				"y": -1.8600289534,
				"z": -6.8514142123,
				"element": "H" 
			}
		],
		 "valence_orbital": [ 
			{
				"type": "occ",
				"energy": -0.27386,
				"method": "rhf"
			},
			{
				"type": "occ",
				"energy": -0.27335,
				"method": "rhf"
			},
			{
				"type": "occ",
				"energy": -0.26979,
				"method": "rhf"
			},
			{
				"type": "occ",
				"energy": -0.25667,
				"method": "rhf"
			},
			{
				"type": "occ",
				"energy": -0.22843,
				"method": "rhf"
			},
			{
				"type": "unocc",
				"energy": -0.09764,
				"method": "rhf"
			},
			{
				"type": "unocc",
				"energy": -0.0367,
				"method": "rhf"
			},
			{
				"type": "unocc",
				"energy": -0.03325,
				"method": "rhf"
			},
			{
				"type": "unocc",
				"energy": -0.02657,
				"method": "rhf"
			},
			{
				"type": "unocc",
				"energy": -0.01245,
				"method": "rhf"
			}
		],
		"cosmo_sigma_profile": { 
			"-0.025": 0.0,
			"-0.024": 0.0,
			"-0.023": 0.0,
			"-0.022": 0.0,
			"-0.021": 0.0,
			"-0.02": 0.0,
			"-0.019": 0.0,
			"-0.018": 0.0,
			"-0.017": 0.0,
			"-0.016": 0.0,
			"-0.015": 0.0,
			"-0.014": 0.0439632078774,
			"-0.013": 1.28602335847,
			"-0.012": 1.47079244073,
			"-0.011": 1.14374722714,
			"-0.01": 2.5908686082,
			"-0.009": 2.86332738557,
			"-0.008": 4.3215457461,
			"-0.007": 8.29363848375,
			"-0.006": 13.1266316528,
			"-0.005": 16.6421780272,
			"-0.004": 17.7817333093,
			"-0.003": 19.6691727624,
			"-0.002": 25.0221416946,
			"-0.001": 22.5640060178,
			"0.0": 29.3478231668,
			"0.001": 36.8937833328,
			"0.002": 52.0269506383,
			"0.003": 50.1804608492,
			"0.004": 8.18968659356,
			"0.005": 3.4256012133,
			"0.006": 4.11006572118,
			"0.007": 3.87738353562,
			"0.008": 3.52229567973,
			"0.009": 3.24516131598,
			"0.01": 4.3142312554,
			"0.011": 4.46477543399,
			"0.012": 0.778283972487,
			"0.013": 0.022743194987,
			"0.014": 0.0,
			"0.015": 0.0,
			"0.016": 0.0,
			"0.017": 0.0,
			"0.018": 0.0,
			"0.019": 0.0,
			"0.02": 0.0,
			"0.021": 0.0,
			"0.022": 0.0,
			"0.023": 0.0,
			"0.024": 0.0,
			"0.025": 0.0
		}
	}
}
