{
	 "smiles": "OCCN1C=CN=C1", 
	 "Tm": 312.15, 
	 "num_atms": 16, 
	 "gaussian": { 
		 "optdone": 1, 
		 "sigma_profile": "yes", 
		 "theory": "DFT", 
		 "functional": "B3LYP", 
		 "basiset": "6-31G**", 
		 "properties": { 
			 "R2extent": 1009.7202, 
			 "electric_dipole_moment_norm": 3.50170257589, 
			 "electric_quadrupole_moment_norm": 7.89449238203, 
			 "total_energy": -380.057526228, 
			 "HOMO_LUMO_gap": 0.25001, 
			 "cosmo_polarized_energy": -13.39, 
			 "cosmo_cavitation_energy": 19.41, 
			 "cosmo_dispersion_energy": -14.28, 
			 "cosmo_repulsion_energy": 1.19, 
			 "cosmo_total_nonelectrostatic_energy": 6.32, 
			 "SMD_solvation_energy": 2.18 
		},
		"coords": [
			{
				"x": -1.0528718357,
				"y": -0.575339515,
				"z": -1.9166035908,
				"element": "O" 
			},
			{
				"x": 0.2118822998,
				"y": -1.1408621185,
				"z": -1.63473481,
				"element": "C" 
			},
			{
				"x": 0.5040627644,
				"y": -1.191861324,
				"z": -0.1293244441,
				"element": "C" 
			},
			{
				"x": 0.5635284261,
				"y": 0.1383950245,
				"z": 0.4635799049,
				"element": "N" 
			},
			{
				"x": 1.6669215628,
				"y": 0.9680094316,
				"z": 0.5395440329,
				"element": "C" 
			},
			{
				"x": 1.2058958841,
				"y": 2.1514183958,
				"z": 1.0628249126,
				"element": "C" 
			},
			{
				"x": -0.1466067819,
				"y": 2.0817821442,
				"z": 1.3061226816,
				"element": "N" 
			},
			{
				"x": -0.4985406235,
				"y": 0.8688225281,
				"z": 0.9330132139,
				"element": "C" 
			},
			{
				"x": -1.0181194355,
				"y": 0.3620072696,
				"z": -1.6812855405,
				"element": "H" 
			},
			{
				"x": 0.1898928582,
				"y": -2.1642240608,
				"z": -2.0240330225,
				"element": "H" 
			},
			{
				"x": 1.0247143713,
				"y": -0.6046155327,
				"z": -2.1484660418,
				"element": "H" 
			},
			{
				"x": -0.2885604515,
				"y": -1.7532089306,
				"z": 0.3739452254,
				"element": "H" 
			},
			{
				"x": 1.4534514449,
				"y": -1.7034958706,
				"z": 0.0595752583,
				"element": "H" 
			},
			{
				"x": 2.6478377401,
				"y": 0.6384243336,
				"z": 0.2314870503,
				"element": "H" 
			},
			{
				"x": 1.7737907243,
				"y": 3.0443655922,
				"z": 1.2855431368,
				"element": "H" 
			},
			{
				"x": -1.4935789479,
				"y": 0.4477826325,
				"z": 0.9920120331,
				"element": "H" 
			}
		],
		 "valence_orbital": [ 
			{
				"type": "occ",
				"energy": -0.34444,
				"method": "rhf"
			},
			{
				"type": "occ",
				"energy": -0.29257,
				"method": "rhf"
			},
			{
				"type": "occ",
				"energy": -0.2658,
				"method": "rhf"
			},
			{
				"type": "occ",
				"energy": -0.26321,
				"method": "rhf"
			},
			{
				"type": "occ",
				"energy": -0.22869,
				"method": "rhf"
			},
			{
				"type": "unocc",
				"energy": 0.02132,
				"method": "rhf"
			},
			{
				"type": "unocc",
				"energy": 0.06118,
				"method": "rhf"
			},
			{
				"type": "unocc",
				"energy": 0.07893,
				"method": "rhf"
			},
			{
				"type": "unocc",
				"energy": 0.1053,
				"method": "rhf"
			},
			{
				"type": "unocc",
				"energy": 0.11783,
				"method": "rhf"
			}
		],
		"cosmo_sigma_profile": { 
			"-0.025": 0.0,
			"-0.024": 0.0,
			"-0.023": 0.0,
			"-0.022": 0.0,
			"-0.021": 0.0,
			"-0.02": 0.0,
			"-0.019": 0.0,
			"-0.018": 0.0,
			"-0.017": 0.0,
			"-0.016": 0.0,
			"-0.015": 0.0,
			"-0.014": 0.416085652628,
			"-0.013": 0.726626466294,
			"-0.012": 0.712908182245,
			"-0.011": 0.585672429179,
			"-0.01": 1.14939320802,
			"-0.009": 1.68611873357,
			"-0.008": 5.50770441667,
			"-0.007": 9.06594665187,
			"-0.006": 13.3102569319,
			"-0.005": 15.8460663201,
			"-0.004": 13.2453874451,
			"-0.003": 11.4871528298,
			"-0.002": 8.72070141978,
			"-0.001": 5.52190449391,
			"0.0": 6.04946492,
			"0.001": 5.73310829817,
			"0.002": 4.22959368248,
			"0.003": 5.33319416748,
			"0.004": 5.22073514122,
			"0.005": 5.41803624486,
			"0.006": 6.33454427275,
			"0.007": 2.80028049484,
			"0.008": 2.59713832623,
			"0.009": 2.67212690923,
			"0.01": 3.15658988285,
			"0.011": 2.6339644644,
			"0.012": 2.36624302943,
			"0.013": 3.14639334967,
			"0.014": 3.07767260765,
			"0.015": 1.34633886731,
			"0.016": 1.1281740086,
			"0.017": 1.06581912422,
			"0.018": 0.963678481159,
			"0.019": 0.213007133288,
			"0.02": 0.0,
			"0.021": 0.0,
			"0.022": 0.0,
			"0.023": 0.0,
			"0.024": 0.0,
			"0.025": 0.0
		}
	}
}
