{
	 "smiles": "NC1=CC(OC2=CC=NC=C2)=CC=C1", 
	 "Tm": 381.15, 
	 "num_atms": 24, 
	 "gaussian": { 
		 "optdone": 1, 
		 "sigma_profile": "yes", 
		 "theory": "DFT", 
		 "functional": "B3LYP", 
		 "basiset": "6-31G**", 
		 "properties": { 
			 "R2extent": 3707.6036, 
			 "electric_dipole_moment_norm": 4.65370464576, 
			 "electric_quadrupole_moment_norm": 7.01651772391, 
			 "total_energy": -609.912144947, 
			 "HOMO_LUMO_gap": 0.20022, 
			 "cosmo_polarized_energy": -12.34, 
			 "cosmo_cavitation_energy": 28.59, 
			 "cosmo_dispersion_energy": -20.86, 
			 "cosmo_repulsion_energy": 1.65, 
			 "cosmo_total_nonelectrostatic_energy": 9.37, 
			 "SMD_solvation_energy": 3.71 
		},
		"coords": [
			{
				"x": 0.4837480074,
				"y": -3.434426555,
				"z": -0.5868159497,
				"element": "N" 
			},
			{
				"x": 0.8812504127,
				"y": -2.3191817432,
				"z": 0.1467964896,
				"element": "C" 
			},
			{
				"x": 1.0077281302,
				"y": -1.0654308786,
				"z": -0.4765028344,
				"element": "C" 
			},
			{
				"x": 1.355527804,
				"y": 0.0492016135,
				"z": 0.278363639,
				"element": "C" 
			},
			{
				"x": 1.5543112316,
				"y": 1.2477443245,
				"z": -0.4021380045,
				"element": "O" 
			},
			{
				"x": 0.7012339239,
				"y": 2.2980896787,
				"z": -0.2061803855,
				"element": "C" 
			},
			{
				"x": 1.0865689924,
				"y": 3.5271279325,
				"z": -0.7519916173,
				"element": "C" 
			},
			{
				"x": 0.2304972733,
				"y": 4.6125669792,
				"z": -0.5974176834,
				"element": "C" 
			},
			{
				"x": -0.9468530358,
				"y": 4.5624278683,
				"z": 0.0437729897,
				"element": "N" 
			},
			{
				"x": -1.2931898318,
				"y": 3.3748427001,
				"z": 0.5539595854,
				"element": "C" 
			},
			{
				"x": -0.5223036653,
				"y": 2.2149660809,
				"z": 0.4642099305,
				"element": "C" 
			},
			{
				"x": 1.5855510977,
				"y": -0.0310560088,
				"z": 1.6523344704,
				"element": "C" 
			},
			{
				"x": 1.4504992621,
				"y": -1.2777568264,
				"z": 2.265630836,
				"element": "C" 
			},
			{
				"x": 1.1046521569,
				"y": -2.4103494586,
				"z": 1.5327452556,
				"element": "C" 
			},
			{
				"x": 0.7311522693,
				"y": -4.3286883829,
				"z": -0.187208132,
				"element": "H" 
			},
			{
				"x": 0.6687925006,
				"y": -3.3937967592,
				"z": -1.5791741468,
				"element": "H" 
			},
			{
				"x": 0.8423924467,
				"y": -0.9510911343,
				"z": -1.5433994766,
				"element": "H" 
			},
			{
				"x": 2.0306412829,
				"y": 3.614574525,
				"z": -1.2784484043,
				"element": "H" 
			},
			{
				"x": 0.5092908219,
				"y": 5.5799051713,
				"z": -1.0121309689,
				"element": "H" 
			},
			{
				"x": -2.2513760691,
				"y": 3.3366947673,
				"z": 1.0701198639,
				"element": "H" 
			},
			{
				"x": -0.8659862651,
				"y": 1.2845736004,
				"z": 0.8995248347,
				"element": "H" 
			},
			{
				"x": 1.8701119052,
				"y": 0.8526950413,
				"z": 2.21190424,
				"element": "H" 
			},
			{
				"x": 1.6272496237,
				"y": -1.3698404861,
				"z": 3.3334051862,
				"element": "H" 
			},
			{
				"x": 1.0053097246,
				"y": -3.3720920499,
				"z": 2.0289402824,
				"element": "H" 
			}
		],
		 "valence_orbital": [ 
			{
				"type": "occ",
				"energy": -0.25737,
				"method": "rhf"
			},
			{
				"type": "occ",
				"energy": -0.25526,
				"method": "rhf"
			},
			{
				"type": "occ",
				"energy": -0.24771,
				"method": "rhf"
			},
			{
				"type": "occ",
				"energy": -0.24128,
				"method": "rhf"
			},
			{
				"type": "occ",
				"energy": -0.21111,
				"method": "rhf"
			},
			{
				"type": "unocc",
				"energy": -0.01089,
				"method": "rhf"
			},
			{
				"type": "unocc",
				"energy": -0.00651,
				"method": "rhf"
			},
			{
				"type": "unocc",
				"energy": 0.00214,
				"method": "rhf"
			},
			{
				"type": "unocc",
				"energy": 0.01005,
				"method": "rhf"
			},
			{
				"type": "unocc",
				"energy": 0.07347,
				"method": "rhf"
			}
		],
		"cosmo_sigma_profile": { 
			"-0.025": 0.0,
			"-0.024": 0.0,
			"-0.023": 0.0,
			"-0.022": 0.0,
			"-0.021": 0.0,
			"-0.02": 0.0,
			"-0.019": 0.0,
			"-0.018": 0.0,
			"-0.017": 0.0,
			"-0.016": 0.0,
			"-0.015": 0.0,
			"-0.014": 0.0,
			"-0.013": 0.671600655319,
			"-0.012": 2.73232890346,
			"-0.011": 2.83424384165,
			"-0.01": 3.24500263514,
			"-0.009": 3.40792107237,
			"-0.008": 2.82771856388,
			"-0.007": 6.33933829759,
			"-0.006": 14.8118081816,
			"-0.005": 15.82284946,
			"-0.004": 13.4034764971,
			"-0.003": 13.8192414574,
			"-0.002": 11.4943615323,
			"-0.001": 11.7485357556,
			"0.0": 14.9966752614,
			"0.001": 15.4987638832,
			"0.002": 20.6476824578,
			"0.003": 19.8371380374,
			"0.004": 12.4110532528,
			"0.005": 13.2203584022,
			"0.006": 8.48604212677,
			"0.007": 3.81951205267,
			"0.008": 3.41751697503,
			"0.009": 2.60562988387,
			"0.01": 1.58216275792,
			"0.011": 1.94931894336,
			"0.012": 1.57389035001,
			"0.013": 1.67446127544,
			"0.014": 1.47709489299,
			"0.015": 0.844438289937,
			"0.016": 0.855909629718,
			"0.017": 0.700298373939,
			"0.018": 0.012745073036,
			"0.019": 0.0,
			"0.02": 0.0,
			"0.021": 0.0,
			"0.022": 0.0,
			"0.023": 0.0,
			"0.024": 0.0,
			"0.025": 0.0
		}
	}
}
