{
	 "smiles": "C1COCCOC2=CC=CC=C2OCCOCCO1", 
	 "Tm": 352.65, 
	 "num_atms": 39, 
	 "gaussian": { 
		 "optdone": 1, 
		 "sigma_profile": "yes", 
		 "theory": "DFT", 
		 "functional": "B3LYP", 
		 "basiset": "6-31G**", 
		 "properties": { 
			 "R2extent": 5844.9241, 
			 "electric_dipole_moment_norm": 2.77072777984, 
			 "electric_quadrupole_moment_norm": 9.12651490274, 
			 "total_energy": -921.58985144, 
			 "HOMO_LUMO_gap": 0.21764, 
			 "cosmo_polarized_energy": -15.14, 
			 "cosmo_cavitation_energy": 39.2, 
			 "cosmo_dispersion_energy": -27.73, 
			 "cosmo_repulsion_energy": 2.13, 
			 "cosmo_total_nonelectrostatic_energy": 13.59, 
			 "SMD_solvation_energy": 6.57 
		},
		"coords": [
			{
				"x": 2.5572836599,
				"y": -1.1099461356,
				"z": -1.6021503886,
				"element": "C" 
			},
			{
				"x": 1.8828323304,
				"y": -0.0011502748,
				"z": -0.8065795927,
				"element": "C" 
			},
			{
				"x": 2.4508525813,
				"y": 0.0308212747,
				"z": 0.5008694679,
				"element": "O" 
			},
			{
				"x": 2.3689500821,
				"y": 1.2675043953,
				"z": 1.1755773542,
				"element": "C" 
			},
			{
				"x": 0.968501208,
				"y": 1.6902059991,
				"z": 1.6022040407,
				"element": "C" 
			},
			{
				"x": 0.305176327,
				"y": 2.2713560239,
				"z": 0.467415948,
				"element": "O" 
			},
			{
				"x": -1.0334428137,
				"y": 2.5517478728,
				"z": 0.5991288991,
				"element": "C" 
			},
			{
				"x": -1.4523123038,
				"y": 3.8789513672,
				"z": 0.5872983894,
				"element": "C" 
			},
			{
				"x": -2.8128110583,
				"y": 4.2006056366,
				"z": 0.6190533444,
				"element": "C" 
			},
			{
				"x": -3.7572539564,
				"y": 3.1796018059,
				"z": 0.6682196584,
				"element": "C" 
			},
			{
				"x": -3.3529814637,
				"y": 1.8398124672,
				"z": 0.6834732211,
				"element": "C" 
			},
			{
				"x": -1.9940731942,
				"y": 1.516068923,
				"z": 0.6514930647,
				"element": "C" 
			},
			{
				"x": -1.4944990897,
				"y": 0.2445499842,
				"z": 0.6659033445,
				"element": "O" 
			},
			{
				"x": -2.3837961051,
				"y": -0.8474102302,
				"z": 0.478118665,
				"element": "C" 
			},
			{
				"x": -1.5708823325,
				"y": -2.1254104791,
				"z": 0.5161524584,
				"element": "C" 
			},
			{
				"x": -0.6812160692,
				"y": -2.1512467735,
				"z": -0.5777550838,
				"element": "O" 
			},
			{
				"x": 0.1128542911,
				"y": -3.3252195391,
				"z": -0.6215361595,
				"element": "C" 
			},
			{
				"x": 1.2450445986,
				"y": -3.1547569749,
				"z": -1.624739264,
				"element": "C" 
			},
			{
				"x": 2.3381516706,
				"y": -2.4224909649,
				"z": -1.1047735295,
				"element": "O" 
			},
			{
				"x": 3.641718991,
				"y": -0.9539383235,
				"z": -1.5696887766,
				"element": "H" 
			},
			{
				"x": 2.2332592313,
				"y": -1.0352384277,
				"z": -2.6523717732,
				"element": "H" 
			},
			{
				"x": 2.0671697839,
				"y": 0.9516533847,
				"z": -1.3285837138,
				"element": "H" 
			},
			{
				"x": 0.8004082152,
				"y": -0.1575211371,
				"z": -0.7571676997,
				"element": "H" 
			},
			{
				"x": 2.8066022164,
				"y": 2.0805533912,
				"z": 0.5717464155,
				"element": "H" 
			},
			{
				"x": 2.9802685704,
				"y": 1.1498885554,
				"z": 2.0777480684,
				"element": "H" 
			},
			{
				"x": 1.0368579696,
				"y": 2.442608394,
				"z": 2.4026522738,
				"element": "H" 
			},
			{
				"x": 0.4148273995,
				"y": 0.8227877674,
				"z": 1.9740625364,
				"element": "H" 
			},
			{
				"x": -0.6900173852,
				"y": 4.6499483567,
				"z": 0.5333234076,
				"element": "H" 
			},
			{
				"x": -3.1251465932,
				"y": 5.2401340386,
				"z": 0.6034605416,
				"element": "H" 
			},
			{
				"x": -4.8175128617,
				"y": 3.4135137277,
				"z": 0.6905070506,
				"element": "H" 
			},
			{
				"x": -4.101438206,
				"y": 1.0563483423,
				"z": 0.7128743899,
				"element": "H" 
			},
			{
				"x": -3.1358181292,
				"y": -0.8839765396,
				"z": 1.279449071,
				"element": "H" 
			},
			{
				"x": -2.9032586169,
				"y": -0.751434047,
				"z": -0.484715715,
				"element": "H" 
			},
			{
				"x": -2.2692174688,
				"y": -2.9799661875,
				"z": 0.4816968092,
				"element": "H" 
			},
			{
				"x": -1.0203031655,
				"y": -2.1830976889,
				"z": 1.4686013258,
				"element": "H" 
			},
			{
				"x": 0.5494554795,
				"y": -3.5392285756,
				"z": 0.3657490568,
				"element": "H" 
			},
			{
				"x": -0.508531233,
				"y": -4.1904750706,
				"z": -0.9126891001,
				"element": "H" 
			},
			{
				"x": 0.8490261473,
				"y": -2.6974891291,
				"z": -2.5430935855,
				"element": "H" 
			},
			{
				"x": 1.6154712928,
				"y": -4.1570652091,
				"z": -1.8830344205,
				"element": "H" 
			}
		],
		 "valence_orbital": [ 
			{
				"type": "occ",
				"energy": -0.26338,
				"method": "rhf"
			},
			{
				"type": "occ",
				"energy": -0.24592,
				"method": "rhf"
			},
			{
				"type": "occ",
				"energy": -0.23997,
				"method": "rhf"
			},
			{
				"type": "occ",
				"energy": -0.23134,
				"method": "rhf"
			},
			{
				"type": "occ",
				"energy": -0.21339,
				"method": "rhf"
			},
			{
				"type": "unocc",
				"energy": 0.00425,
				"method": "rhf"
			},
			{
				"type": "unocc",
				"energy": 0.01235,
				"method": "rhf"
			},
			{
				"type": "unocc",
				"energy": 0.08222,
				"method": "rhf"
			},
			{
				"type": "unocc",
				"energy": 0.08676,
				"method": "rhf"
			},
			{
				"type": "unocc",
				"energy": 0.09927,
				"method": "rhf"
			}
		],
		"cosmo_sigma_profile": { 
			"-0.025": 0.0,
			"-0.024": 0.0,
			"-0.023": 0.0,
			"-0.022": 0.0,
			"-0.021": 0.0,
			"-0.02": 0.0,
			"-0.019": 0.0,
			"-0.018": 0.0,
			"-0.017": 0.0,
			"-0.016": 0.0,
			"-0.015": 0.0,
			"-0.014": 0.0,
			"-0.013": 0.0,
			"-0.012": 0.0,
			"-0.011": 0.0,
			"-0.01": 0.0,
			"-0.009": 0.0,
			"-0.008": 0.0,
			"-0.007": 1.49921017906,
			"-0.006": 9.76550107456,
			"-0.005": 31.659783616,
			"-0.004": 49.7880098912,
			"-0.003": 41.0569293835,
			"-0.002": 26.4148639625,
			"-0.001": 18.1103982282,
			"0.0": 15.0920201586,
			"0.001": 11.2896619248,
			"0.002": 13.3881009509,
			"0.003": 13.6881545362,
			"0.004": 14.4741665071,
			"0.005": 13.7480137261,
			"0.006": 11.7198552421,
			"0.007": 6.59201068034,
			"0.008": 6.60694449438,
			"0.009": 6.1011042934,
			"0.01": 3.82336403106,
			"0.011": 3.53725722882,
			"0.012": 1.9974387725,
			"0.013": 3.45999870798,
			"0.014": 2.61132236782,
			"0.015": 0.323414158856,
			"0.016": 0.0,
			"0.017": 0.0,
			"0.018": 0.0,
			"0.019": 0.0,
			"0.02": 0.0,
			"0.021": 0.0,
			"0.022": 0.0,
			"0.023": 0.0,
			"0.024": 0.0,
			"0.025": 0.0
		}
	}
}
