{
	 "smiles": "COC1=CC=CC(O)=C1", 
	 "Tm": 256.15, 
	 "num_atms": 17, 
	 "gaussian": { 
		 "optdone": 1, 
		 "sigma_profile": "yes", 
		 "theory": "DFT", 
		 "functional": "B3LYP", 
		 "basiset": "6-31G**", 
		 "properties": { 
			 "R2extent": 1383.4083, 
			 "electric_dipole_moment_norm": 2.53937585442, 
			 "electric_quadrupole_moment_norm": 8.69317018354, 
			 "total_energy": -421.995522578, 
			 "HOMO_LUMO_gap": 0.21666, 
			 "cosmo_polarized_energy": -10.15, 
			 "cosmo_cavitation_energy": 20.68, 
			 "cosmo_dispersion_energy": -15.62, 
			 "cosmo_repulsion_energy": 1.28, 
			 "cosmo_total_nonelectrostatic_energy": 6.34, 
			 "SMD_solvation_energy": 4.74 
		},
		"coords": [
			{
				"x": -0.1050861721,
				"y": -2.8112442639,
				"z": 0.9524849434,
				"element": "C" 
			},
			{
				"x": 0.755275425,
				"y": -1.888634192,
				"z": 0.3070171752,
				"element": "O" 
			},
			{
				"x": 0.4849927735,
				"y": -0.5548588544,
				"z": 0.4221103246,
				"element": "C" 
			},
			{
				"x": 1.3724075111,
				"y": 0.3057754845,
				"z": -0.2388406354,
				"element": "C" 
			},
			{
				"x": 1.1657184736,
				"y": 1.6799262014,
				"z": -0.1700084436,
				"element": "C" 
			},
			{
				"x": 0.0941644342,
				"y": 2.2202384271,
				"z": 0.5427274504,
				"element": "C" 
			},
			{
				"x": -0.7828697421,
				"y": 1.3536758578,
				"z": 1.1967964059,
				"element": "C" 
			},
			{
				"x": -1.8233222909,
				"y": 1.912115731,
				"z": 1.886938447,
				"element": "O" 
			},
			{
				"x": -0.5966294485,
				"y": -0.0349405071,
				"z": 1.1429073294,
				"element": "C" 
			},
			{
				"x": 0.2930468835,
				"y": -3.8024980422,
				"z": 0.7298681828,
				"element": "H" 
			},
			{
				"x": -0.115732989,
				"y": -2.6648777911,
				"z": 2.0407359893,
				"element": "H" 
			},
			{
				"x": -1.132999889,
				"y": -2.7436257438,
				"z": 0.5721679198,
				"element": "H" 
			},
			{
				"x": 2.202023379,
				"y": -0.1223263515,
				"z": -0.7901298771,
				"element": "H" 
			},
			{
				"x": 1.8534012673,
				"y": 2.3468931321,
				"z": -0.6822181234,
				"element": "H" 
			},
			{
				"x": -0.0743291009,
				"y": 3.2895305358,
				"z": 0.6015787624,
				"element": "H" 
			},
			{
				"x": -2.3504250704,
				"y": 1.2103265135,
				"z": 2.2895819983,
				"element": "H" 
			},
			{
				"x": -1.2926354444,
				"y": -0.6875761374,
				"z": 1.659982151,
				"element": "H" 
			}
		],
		 "valence_orbital": [ 
			{
				"type": "occ",
				"energy": -0.34794,
				"method": "rhf"
			},
			{
				"type": "occ",
				"energy": -0.32984,
				"method": "rhf"
			},
			{
				"type": "occ",
				"energy": -0.29957,
				"method": "rhf"
			},
			{
				"type": "occ",
				"energy": -0.23438,
				"method": "rhf"
			},
			{
				"type": "occ",
				"energy": -0.20646,
				"method": "rhf"
			},
			{
				"type": "unocc",
				"energy": 0.0102,
				"method": "rhf"
			},
			{
				"type": "unocc",
				"energy": 0.02246,
				"method": "rhf"
			},
			{
				"type": "unocc",
				"energy": 0.06827,
				"method": "rhf"
			},
			{
				"type": "unocc",
				"energy": 0.09466,
				"method": "rhf"
			},
			{
				"type": "unocc",
				"energy": 0.10835,
				"method": "rhf"
			}
		],
		"cosmo_sigma_profile": { 
			"-0.025": 0.0,
			"-0.024": 0.0,
			"-0.023": 0.0,
			"-0.022": 0.0,
			"-0.021": 0.0,
			"-0.02": 0.0,
			"-0.019": 0.0,
			"-0.018": 0.265488564802,
			"-0.017": 1.01175313651,
			"-0.016": 1.30303685916,
			"-0.015": 1.20149062273,
			"-0.014": 1.00824798892,
			"-0.013": 0.935797936631,
			"-0.012": 0.614935815092,
			"-0.011": 0.817125435445,
			"-0.01": 0.925279299468,
			"-0.009": 2.05120615774,
			"-0.008": 0.610439580794,
			"-0.007": 1.55429781316,
			"-0.006": 6.52174631495,
			"-0.005": 15.6770602144,
			"-0.004": 13.2456121713,
			"-0.003": 15.916893984,
			"-0.002": 8.77871786642,
			"-0.001": 6.91415682685,
			"0.0": 7.45074921003,
			"0.001": 6.0478692947,
			"0.002": 7.1279371048,
			"0.003": 10.0242244683,
			"0.004": 12.3520306248,
			"0.005": 14.0427411685,
			"0.006": 10.3071110298,
			"0.007": 4.8844748044,
			"0.008": 2.79812357197,
			"0.009": 3.50543080478,
			"0.01": 2.220108454,
			"0.011": 3.05577028012,
			"0.012": 0.954611119495,
			"0.013": 0.0,
			"0.014": 0.0,
			"0.015": 0.0,
			"0.016": 0.0,
			"0.017": 0.0,
			"0.018": 0.0,
			"0.019": 0.0,
			"0.02": 0.0,
			"0.021": 0.0,
			"0.022": 0.0,
			"0.023": 0.0,
			"0.024": 0.0,
			"0.025": 0.0
		}
	}
}
