{
	 "smiles": "CN1C=C(C(O)=O)C(=N1)C1=CC=CC=C1", 
	 "Tm": 478.15, 
	 "num_atms": 25, 
	 "gaussian": { 
		 "optdone": 1, 
		 "sigma_profile": "yes", 
		 "theory": "DFT", 
		 "functional": "B3LYP", 
		 "basiset": "6-31G**", 
		 "properties": { 
			 "R2extent": 4457.2064, 
			 "electric_dipole_moment_norm": 1.81513662296, 
			 "electric_quadrupole_moment_norm": 19.1030261236, 
			 "total_energy": -685.15010212, 
			 "HOMO_LUMO_gap": 0.1982, 
			 "cosmo_polarized_energy": -14.43, 
			 "cosmo_cavitation_energy": 29.8, 
			 "cosmo_dispersion_energy": -21.64, 
			 "cosmo_repulsion_energy": 1.7, 
			 "cosmo_total_nonelectrostatic_energy": 9.85, 
			 "SMD_solvation_energy": 5.8 
		},
		"coords": [
			{
				"x": 4.0329208597,
				"y": 0.3223411244,
				"z": 0.5372842822,
				"element": "C" 
			},
			{
				"x": 2.8624036562,
				"y": 0.6768668289,
				"z": -0.2443960436,
				"element": "N" 
			},
			{
				"x": 2.7515650886,
				"y": 0.7840795784,
				"z": -1.5795997612,
				"element": "C" 
			},
			{
				"x": 1.4441813584,
				"y": 1.1701969413,
				"z": -1.8529112279,
				"element": "C" 
			},
			{
				"x": 0.9849214209,
				"y": 1.2808654572,
				"z": -3.2408256206,
				"element": "C" 
			},
			{
				"x": -0.3421585096,
				"y": 1.5193518858,
				"z": -3.3802744671,
				"element": "O" 
			},
			{
				"x": 1.7152540556,
				"y": 1.1524604679,
				"z": -4.2086446406,
				"element": "O" 
			},
			{
				"x": 0.8253704837,
				"y": 1.2828303287,
				"z": -0.5624673795,
				"element": "C" 
			},
			{
				"x": 1.7074492369,
				"y": 0.9785080082,
				"z": 0.3959138203,
				"element": "N" 
			},
			{
				"x": -0.5436900108,
				"y": 1.6593155144,
				"z": -0.1497452839,
				"element": "C" 
			},
			{
				"x": -1.2661167907,
				"y": 2.6762436604,
				"z": -0.7916596257,
				"element": "C" 
			},
			{
				"x": -2.5349852361,
				"y": 3.0356411438,
				"z": -0.338893175,
				"element": "C" 
			},
			{
				"x": -3.1012155404,
				"y": 2.3898771371,
				"z": 0.7615157768,
				"element": "C" 
			},
			{
				"x": -2.3861384309,
				"y": 1.3823380993,
				"z": 1.4126528562,
				"element": "C" 
			},
			{
				"x": -1.1177433033,
				"y": 1.0218439562,
				"z": 0.9632514709,
				"element": "C" 
			},
			{
				"x": 4.848168717,
				"y": 0.0679477949,
				"z": -0.1414320177,
				"element": "H" 
			},
			{
				"x": 3.8048712825,
				"y": -0.5359833848,
				"z": 1.1734734778,
				"element": "H" 
			},
			{
				"x": 4.3314912781,
				"y": 1.1631697181,
				"z": 1.1686613801,
				"element": "H" 
			},
			{
				"x": 3.5632730703,
				"y": 0.575921044,
				"z": -2.2603744856,
				"element": "H" 
			},
			{
				"x": -0.4981476385,
				"y": 1.5454127444,
				"z": -4.3390951831,
				"element": "H" 
			},
			{
				"x": -0.8331885653,
				"y": 3.1867459503,
				"z": -1.6430866666,
				"element": "H" 
			},
			{
				"x": -3.0799601789,
				"y": 3.827545519,
				"z": -0.8450065915,
				"element": "H" 
			},
			{
				"x": -4.0910569925,
				"y": 2.6706822706,
				"z": 1.1101720588,
				"element": "H" 
			},
			{
				"x": -2.8175283546,
				"y": 0.8746342852,
				"z": 2.2708038277,
				"element": "H" 
			},
			{
				"x": -0.5558409562,
				"y": 0.2433639263,
				"z": 1.4681832185,
				"element": "H" 
			}
		],
		 "valence_orbital": [ 
			{
				"type": "occ",
				"energy": -0.28122,
				"method": "rhf"
			},
			{
				"type": "occ",
				"energy": -0.26704,
				"method": "rhf"
			},
			{
				"type": "occ",
				"energy": -0.25488,
				"method": "rhf"
			},
			{
				"type": "occ",
				"energy": -0.24314,
				"method": "rhf"
			},
			{
				"type": "occ",
				"energy": -0.22603,
				"method": "rhf"
			},
			{
				"type": "unocc",
				"energy": -0.02783,
				"method": "rhf"
			},
			{
				"type": "unocc",
				"energy": -0.01093,
				"method": "rhf"
			},
			{
				"type": "unocc",
				"energy": 0.00678,
				"method": "rhf"
			},
			{
				"type": "unocc",
				"energy": 0.03668,
				"method": "rhf"
			},
			{
				"type": "unocc",
				"energy": 0.08488,
				"method": "rhf"
			}
		],
		"cosmo_sigma_profile": { 
			"-0.025": 0.0,
			"-0.024": 0.0,
			"-0.023": 0.0,
			"-0.022": 0.0,
			"-0.021": 0.0,
			"-0.02": 0.0,
			"-0.019": 0.0267553180566,
			"-0.018": 0.502500281289,
			"-0.017": 0.905532094794,
			"-0.016": 0.954134113471,
			"-0.015": 0.841487760902,
			"-0.014": 0.540066670487,
			"-0.013": 0.440974865451,
			"-0.012": 0.288733432821,
			"-0.011": 1.17186426675,
			"-0.01": 3.35376300386,
			"-0.009": 2.9086696548,
			"-0.008": 2.95667709037,
			"-0.007": 5.89580918433,
			"-0.006": 11.0208558633,
			"-0.005": 16.7145752542,
			"-0.004": 21.3419973184,
			"-0.003": 19.930834519,
			"-0.002": 13.0971624749,
			"-0.001": 12.8103525617,
			"0.0": 13.6980660951,
			"0.001": 15.6029235521,
			"0.002": 15.9027364423,
			"0.003": 13.1535811124,
			"0.004": 12.9511486693,
			"0.005": 14.5757145115,
			"0.006": 9.67515589661,
			"0.007": 4.27278037482,
			"0.008": 3.97923804823,
			"0.009": 4.1237657228,
			"0.01": 2.62737918562,
			"0.011": 2.81684527195,
			"0.012": 6.4196930424,
			"0.013": 2.11901598686,
			"0.014": 0.763165668306,
			"0.015": 0.0538902237385,
			"0.016": 0.0,
			"0.017": 0.0,
			"0.018": 0.0,
			"0.019": 0.0,
			"0.02": 0.0,
			"0.021": 0.0,
			"0.022": 0.0,
			"0.023": 0.0,
			"0.024": 0.0,
			"0.025": 0.0
		}
	}
}
