{
	 "smiles": "BrC1=CC2=C(CCNC2=O)C=C1", 
	 "Tm": 418.15, 
	 "num_atms": 20, 
	 "gaussian": { 
		 "optdone": 1, 
		 "sigma_profile": "yes", 
		 "theory": "DFT", 
		 "functional": "B3LYP", 
		 "basiset": "6-31G**", 
		 "properties": { 
			 "R2extent": 6552.234, 
			 "electric_dipole_moment_norm": 5.14980817604, 
			 "electric_quadrupole_moment_norm": 14.9954258772, 
			 "total_energy": -3049.18534451, 
			 "HOMO_LUMO_gap": 0.19533, 
			 "cosmo_polarized_energy": -12.32, 
			 "cosmo_cavitation_energy": 25.68, 
			 "cosmo_dispersion_energy": -19.77, 
			 "cosmo_repulsion_energy": 1.57, 
			 "cosmo_total_nonelectrostatic_energy": 7.48, 
			 "SMD_solvation_energy": 2.72 
		},
		"coords": [
			{
				"x": 0.292298333,
				"y": 4.9288957428,
				"z": 3.1745044164,
				"element": "Br" 
			},
			{
				"x": 0.1697537776,
				"y": 3.2750546121,
				"z": 2.2236898364,
				"element": "C" 
			},
			{
				"x": 0.063355059,
				"y": 3.2833594909,
				"z": 0.8387913214,
				"element": "C" 
			},
			{
				"x": -0.0211937535,
				"y": 2.0670420364,
				"z": 0.1535823448,
				"element": "C" 
			},
			{
				"x": -0.0077250934,
				"y": 0.8450872422,
				"z": 0.8488110519,
				"element": "C" 
			},
			{
				"x": -0.1485884393,
				"y": -0.4420993478,
				"z": 0.0683686713,
				"element": "C" 
			},
			{
				"x": 0.4747281777,
				"y": -0.3035652211,
				"z": -1.321654652,
				"element": "C" 
			},
			{
				"x": -0.0435035405,
				"y": 0.8967500173,
				"z": -1.9719139362,
				"element": "N" 
			},
			{
				"x": -0.1354336218,
				"y": 2.1131125156,
				"z": -1.3418151872,
				"element": "C" 
			},
			{
				"x": -0.3161761809,
				"y": 3.1569579091,
				"z": -1.9596726081,
				"element": "O" 
			},
			{
				"x": 0.0987302658,
				"y": 0.8681232009,
				"z": 2.2425104457,
				"element": "C" 
			},
			{
				"x": 0.1898855869,
				"y": 2.0746855878,
				"z": 2.9359944041,
				"element": "C" 
			},
			{
				"x": 0.0412715144,
				"y": 4.2047518641,
				"z": 0.2691230935,
				"element": "H" 
			},
			{
				"x": -1.2140900283,
				"y": -0.6868475464,
				"z": -0.0421133438,
				"element": "H" 
			},
			{
				"x": 0.3187784565,
				"y": -1.2742122054,
				"z": 0.6048665702,
				"element": "H" 
			},
			{
				"x": 1.5719218478,
				"y": -0.2675582966,
				"z": -1.2364861942,
				"element": "H" 
			},
			{
				"x": 0.2216965965,
				"y": -1.1688821942,
				"z": -1.9408766812,
				"element": "H" 
			},
			{
				"x": -0.0008669666,
				"y": 0.9644412666,
				"z": -2.9803531223,
				"element": "H" 
			},
			{
				"x": 0.112699336,
				"y": -0.0664437749,
				"z": 2.7973765176,
				"element": "H" 
			},
			{
				"x": 0.277858673,
				"y": 2.0843471005,
				"z": 4.0165670516,
				"element": "H" 
			}
		],
		 "valence_orbital": [ 
			{
				"type": "occ",
				"energy": -0.28705,
				"method": "rhf"
			},
			{
				"type": "occ",
				"energy": -0.26713,
				"method": "rhf"
			},
			{
				"type": "occ",
				"energy": -0.26045,
				"method": "rhf"
			},
			{
				"type": "occ",
				"energy": -0.25042,
				"method": "rhf"
			},
			{
				"type": "occ",
				"energy": -0.24199,
				"method": "rhf"
			},
			{
				"type": "unocc",
				"energy": -0.04666,
				"method": "rhf"
			},
			{
				"type": "unocc",
				"energy": -0.01954,
				"method": "rhf"
			},
			{
				"type": "unocc",
				"energy": 0.0072,
				"method": "rhf"
			},
			{
				"type": "unocc",
				"energy": 0.05422,
				"method": "rhf"
			},
			{
				"type": "unocc",
				"energy": 0.07807,
				"method": "rhf"
			}
		],
		"cosmo_sigma_profile": { 
			"-0.025": 0.0,
			"-0.024": 0.0,
			"-0.023": 0.0,
			"-0.022": 0.0,
			"-0.021": 0.0,
			"-0.02": 0.0,
			"-0.019": 0.0,
			"-0.018": 0.0,
			"-0.017": 0.0,
			"-0.016": 0.0,
			"-0.015": 0.0,
			"-0.014": 0.574456433935,
			"-0.013": 1.1135307567,
			"-0.012": 1.34432902367,
			"-0.011": 0.847064532576,
			"-0.01": 0.917950548551,
			"-0.009": 1.00060401669,
			"-0.008": 1.47907886507,
			"-0.007": 5.0215273243,
			"-0.006": 10.4017140966,
			"-0.005": 14.3933943578,
			"-0.004": 18.5946628831,
			"-0.003": 18.9961275436,
			"-0.002": 14.9357841186,
			"-0.001": 12.0221870629,
			"0.0": 12.396561745,
			"0.001": 14.4682709122,
			"0.002": 20.5096705739,
			"0.003": 17.3909443371,
			"0.004": 14.0325488714,
			"0.005": 8.02976203393,
			"0.006": 1.45391901774,
			"0.007": 1.50603954768,
			"0.008": 2.03491661069,
			"0.009": 1.06638977563,
			"0.01": 0.680237484043,
			"0.011": 1.94862214247,
			"0.012": 1.87781980647,
			"0.013": 4.03327934203,
			"0.014": 4.35480177899,
			"0.015": 0.392673480584,
			"0.016": 0.0,
			"0.017": 0.0,
			"0.018": 0.0,
			"0.019": 0.0,
			"0.02": 0.0,
			"0.021": 0.0,
			"0.022": 0.0,
			"0.023": 0.0,
			"0.024": 0.0,
			"0.025": 0.0
		}
	}
}
