{
	 "smiles": "CC(=O)C=CC1=CC=CC=C1", 
	 "Tm": 314.15, 
	 "num_atms": 21, 
	 "gaussian": { 
		 "optdone": 1, 
		 "sigma_profile": "yes", 
		 "theory": "DFT", 
		 "functional": "B3LYP", 
		 "basiset": "6-31G**", 
		 "properties": { 
			 "R2extent": 3013.4662, 
			 "electric_dipole_moment_norm": 3.3048405317, 
			 "electric_quadrupole_moment_norm": 10.8218688746, 
			 "total_energy": -462.304966798, 
			 "HOMO_LUMO_gap": 0.16441, 
			 "cosmo_polarized_energy": -9.29, 
			 "cosmo_cavitation_energy": 25.53, 
			 "cosmo_dispersion_energy": -18.48, 
			 "cosmo_repulsion_energy": 1.48, 
			 "cosmo_total_nonelectrostatic_energy": 8.53, 
			 "SMD_solvation_energy": 5.24 
		},
		"coords": [
			{
				"x": 0.175624847,
				"y": -0.1657825076,
				"z": 3.1449249095,
				"element": "C" 
			},
			{
				"x": -0.6058100824,
				"y": 0.5593515334,
				"z": 2.0626730087,
				"element": "C" 
			},
			{
				"x": -1.2717413641,
				"y": 1.554559573,
				"z": 2.3153882635,
				"element": "O" 
			},
			{
				"x": -0.5137035141,
				"y": -0.00734251,
				"z": 0.6919803714,
				"element": "C" 
			},
			{
				"x": -1.172835031,
				"y": 0.5675586858,
				"z": -0.3332224705,
				"element": "C" 
			},
			{
				"x": -1.2021000601,
				"y": 0.1568441397,
				"z": -1.736205894,
				"element": "C" 
			},
			{
				"x": -0.5020811214,
				"y": -0.9625333618,
				"z": -2.2288772767,
				"element": "C" 
			},
			{
				"x": -0.5671134671,
				"y": -1.3059072328,
				"z": -3.5748802099,
				"element": "C" 
			},
			{
				"x": -1.331905857,
				"y": -0.5413057472,
				"z": -4.4626793961,
				"element": "C" 
			},
			{
				"x": -2.0316877827,
				"y": 0.570641118,
				"z": -3.9921836151,
				"element": "C" 
			},
			{
				"x": -1.9662903031,
				"y": 0.914378766,
				"z": -2.6433945871,
				"element": "C" 
			},
			{
				"x": 1.2432940596,
				"y": -0.1891481702,
				"z": 2.8954982931,
				"element": "H" 
			},
			{
				"x": 0.0340449548,
				"y": 0.3364592866,
				"z": 4.1024739782,
				"element": "H" 
			},
			{
				"x": -0.1562339177,
				"y": -1.2081130738,
				"z": 3.2231171484,
				"element": "H" 
			},
			{
				"x": 0.1010445929,
				"y": -0.8940904539,
				"z": 0.5571715474,
				"element": "H" 
			},
			{
				"x": -1.7577453376,
				"y": 1.4514660042,
				"z": -0.080131558,
				"element": "H" 
			},
			{
				"x": 0.095840211,
				"y": -1.5662865991,
				"z": -1.5532260335,
				"element": "H" 
			},
			{
				"x": -0.0208492965,
				"y": -2.1722406713,
				"z": -3.9367089106,
				"element": "H" 
			},
			{
				"x": -1.3801025187,
				"y": -0.8128321438,
				"z": -5.5131826142,
				"element": "H" 
			},
			{
				"x": -2.6276632102,
				"y": 1.1695133473,
				"z": -4.6745983705,
				"element": "H" 
			},
			{
				"x": -2.5115858016,
				"y": 1.7805100172,
				"z": -2.2778365838,
				"element": "H" 
			}
		],
		 "valence_orbital": [ 
			{
				"type": "occ",
				"energy": -0.34602,
				"method": "rhf"
			},
			{
				"type": "occ",
				"energy": -0.30332,
				"method": "rhf"
			},
			{
				"type": "occ",
				"energy": -0.26096,
				"method": "rhf"
			},
			{
				"type": "occ",
				"energy": -0.24102,
				"method": "rhf"
			},
			{
				"type": "occ",
				"energy": -0.23351,
				"method": "rhf"
			},
			{
				"type": "unocc",
				"energy": -0.0691,
				"method": "rhf"
			},
			{
				"type": "unocc",
				"energy": -0.00988,
				"method": "rhf"
			},
			{
				"type": "unocc",
				"energy": 0.01215,
				"method": "rhf"
			},
			{
				"type": "unocc",
				"energy": 0.07664,
				"method": "rhf"
			},
			{
				"type": "unocc",
				"energy": 0.08679,
				"method": "rhf"
			}
		],
		"cosmo_sigma_profile": { 
			"-0.025": 0.0,
			"-0.024": 0.0,
			"-0.023": 0.0,
			"-0.022": 0.0,
			"-0.021": 0.0,
			"-0.02": 0.0,
			"-0.019": 0.0,
			"-0.018": 0.0,
			"-0.017": 0.0,
			"-0.016": 0.0,
			"-0.015": 0.0,
			"-0.014": 0.0,
			"-0.013": 0.0,
			"-0.012": 0.0,
			"-0.011": 0.0,
			"-0.01": 0.0,
			"-0.009": 0.0,
			"-0.008": 0.603476806107,
			"-0.007": 4.27300674393,
			"-0.006": 14.316880769,
			"-0.005": 21.0877063635,
			"-0.004": 19.0685450127,
			"-0.003": 16.3466702429,
			"-0.002": 13.9055758793,
			"-0.001": 15.3524323822,
			"0.0": 13.7093769454,
			"0.001": 10.6128163764,
			"0.002": 15.7093690003,
			"0.003": 15.6592806694,
			"0.004": 15.0894973279,
			"0.005": 8.96538821156,
			"0.006": 1.75374827096,
			"0.007": 1.97657341784,
			"0.008": 0.885917056238,
			"0.009": 2.05589632621,
			"0.01": 1.65728247702,
			"0.011": 2.56870173115,
			"0.012": 3.80978127168,
			"0.013": 3.45365356034,
			"0.014": 0.954657213219,
			"0.015": 0.0118236547333,
			"0.016": 0.0,
			"0.017": 0.0,
			"0.018": 0.0,
			"0.019": 0.0,
			"0.02": 0.0,
			"0.021": 0.0,
			"0.022": 0.0,
			"0.023": 0.0,
			"0.024": 0.0,
			"0.025": 0.0
		}
	}
}
