{
	 "smiles": "FC(F)(F)C1=NN=C(S)N1N=CC1=CC=C2OCOC2=C1", 
	 "Tm": 494.15, 
	 "num_atms": 28, 
	 "gaussian": { 
		 "optdone": 1, 
		 "sigma_profile": "yes", 
		 "theory": "DFT", 
		 "functional": "B3LYP", 
		 "basiset": "6-31G**", 
		 "properties": { 
			 "R2extent": 7359.4127, 
			 "electric_dipole_moment_norm": 7.44038174357, 
			 "electric_quadrupole_moment_norm": 17.7951178771, 
			 "total_energy": -1490.43567096, 
			 "HOMO_LUMO_gap": 0.15489, 
			 "cosmo_polarized_energy": -17.38, 
			 "cosmo_cavitation_energy": 36.52, 
			 "cosmo_dispersion_energy": -25.92, 
			 "cosmo_repulsion_energy": 1.89, 
			 "cosmo_total_nonelectrostatic_energy": 12.5, 
			 "SMD_solvation_energy": 5.17 
		},
		"coords": [
			{
				"x": -0.2135650798,
				"y": -2.9235205067,
				"z": 0.4323456676,
				"element": "F" 
			},
			{
				"x": -0.0098840236,
				"y": -2.7711764184,
				"z": 1.7649426628,
				"element": "C" 
			},
			{
				"x": -1.2274176519,
				"y": -2.7570273652,
				"z": 2.3451983393,
				"element": "F" 
			},
			{
				"x": 0.6598764818,
				"y": -3.8377343502,
				"z": 2.2093766805,
				"element": "F" 
			},
			{
				"x": 0.7457122016,
				"y": -1.5121040491,
				"z": 2.0520670525,
				"element": "C" 
			},
			{
				"x": 1.8977693328,
				"y": -1.4289812808,
				"z": 2.6746534142,
				"element": "N" 
			},
			{
				"x": 2.2347327726,
				"y": -0.0997182352,
				"z": 2.7524678361,
				"element": "N" 
			},
			{
				"x": 1.2631255847,
				"y": 0.5845715346,
				"z": 2.1746416619,
				"element": "C" 
			},
			{
				"x": 1.1412016276,
				"y": 2.3333343367,
				"z": 2.0131615314,
				"element": "S" 
			},
			{
				"x": 0.313667775,
				"y": -0.2614534633,
				"z": 1.6747808923,
				"element": "N" 
			},
			{
				"x": -0.9519145022,
				"y": 0.1152743712,
				"z": 1.1732224629,
				"element": "N" 
			},
			{
				"x": -1.0850411577,
				"y": 0.1289094284,
				"z": -0.1125976623,
				"element": "C" 
			},
			{
				"x": -0.2235161839,
				"y": -0.1407249065,
				"z": -1.2641143284,
				"element": "C" 
			},
			{
				"x": 1.1471554447,
				"y": -0.4691294013,
				"z": -1.213108236,
				"element": "C" 
			},
			{
				"x": 1.8922098826,
				"y": -0.6958533508,
				"z": -2.3758704246,
				"element": "C" 
			},
			{
				"x": 1.2284132612,
				"y": -0.5916253104,
				"z": -3.5859685196,
				"element": "C" 
			},
			{
				"x": 1.7290944284,
				"y": -0.7635794301,
				"z": -4.8399277713,
				"element": "O" 
			},
			{
				"x": 0.6280725386,
				"y": -0.5695878482,
				"z": -5.7454243737,
				"element": "C" 
			},
			{
				"x": -0.5241289378,
				"y": -0.2245739133,
				"z": -4.9674328119,
				"element": "O" 
			},
			{
				"x": -0.1272338071,
				"y": -0.2679039179,
				"z": -3.6559800208,
				"element": "C" 
			},
			{
				"x": -0.8735731935,
				"y": -0.0354666673,
				"z": -2.526460618,
				"element": "C" 
			},
			{
				"x": 2.3234655734,
				"y": 2.5288923318,
				"z": 2.6282946496,
				"element": "H" 
			},
			{
				"x": -2.0998511452,
				"y": 0.4241038092,
				"z": -0.385978582,
				"element": "H" 
			},
			{
				"x": 1.6584855014,
				"y": -0.5477404803,
				"z": -0.2655789945,
				"element": "H" 
			},
			{
				"x": 2.9456752472,
				"y": -0.945319572,
				"z": -2.3311958479,
				"element": "H" 
			},
			{
				"x": 0.8668224666,
				"y": 0.2481894932,
				"z": -6.4338456331,
				"element": "H" 
			},
			{
				"x": 0.440814563,
				"y": -1.5018765009,
				"z": -6.2909356088,
				"element": "H" 
			},
			{
				"x": -1.9256690006,
				"y": 0.2182216629,
				"z": -2.5959334184,
				"element": "H" 
			}
		],
		 "valence_orbital": [ 
			{
				"type": "occ",
				"energy": -0.27913,
				"method": "rhf"
			},
			{
				"type": "occ",
				"energy": -0.27201,
				"method": "rhf"
			},
			{
				"type": "occ",
				"energy": -0.26538,
				"method": "rhf"
			},
			{
				"type": "occ",
				"energy": -0.2419,
				"method": "rhf"
			},
			{
				"type": "occ",
				"energy": -0.23585,
				"method": "rhf"
			},
			{
				"type": "unocc",
				"energy": -0.08096,
				"method": "rhf"
			},
			{
				"type": "unocc",
				"energy": -0.0271,
				"method": "rhf"
			},
			{
				"type": "unocc",
				"energy": -0.00751,
				"method": "rhf"
			},
			{
				"type": "unocc",
				"energy": 0.00489,
				"method": "rhf"
			},
			{
				"type": "unocc",
				"energy": 0.02477,
				"method": "rhf"
			}
		],
		"cosmo_sigma_profile": { 
			"-0.025": 0.0,
			"-0.024": 0.0,
			"-0.023": 0.0,
			"-0.022": 0.0,
			"-0.021": 0.0,
			"-0.02": 0.0,
			"-0.019": 0.0,
			"-0.018": 0.0,
			"-0.017": 0.0,
			"-0.016": 0.0,
			"-0.015": 0.0,
			"-0.014": 0.0,
			"-0.013": 0.753733951728,
			"-0.012": 1.73350670832,
			"-0.011": 1.42744739865,
			"-0.01": 4.10279731123,
			"-0.009": 6.0412098082,
			"-0.008": 13.1894812167,
			"-0.007": 13.2997321284,
			"-0.006": 13.2427093714,
			"-0.005": 10.7924726601,
			"-0.004": 12.6575043652,
			"-0.003": 15.1881155582,
			"-0.002": 14.362328667,
			"-0.001": 20.3758404729,
			"0.0": 23.454174494,
			"0.001": 31.1933556001,
			"0.002": 42.1522945001,
			"0.003": 17.098490493,
			"0.004": 8.3544391004,
			"0.005": 7.49399553356,
			"0.006": 6.74048993236,
			"0.007": 6.51761361405,
			"0.008": 5.99739437661,
			"0.009": 3.94919544042,
			"0.01": 3.08759246606,
			"0.011": 4.39282789968,
			"0.012": 4.31938256016,
			"0.013": 2.64130837158,
			"0.014": 2.14248104592,
			"0.015": 0.793304840681,
			"0.016": 0.0506044471259,
			"0.017": 0.0,
			"0.018": 0.0,
			"0.019": 0.0,
			"0.02": 0.0,
			"0.021": 0.0,
			"0.022": 0.0,
			"0.023": 0.0,
			"0.024": 0.0,
			"0.025": 0.0
		}
	}
}
