{
	 "smiles": "CC(=O)C1=C(C)N=C(S1)C1=C(Br)C=CC=C1", 
	 "Tm": 398.15, 
	 "num_atms": 26, 
	 "gaussian": { 
		 "optdone": 1, 
		 "sigma_profile": "yes", 
		 "theory": "DFT", 
		 "functional": "B3LYP", 
		 "basiset": "6-31G**", 
		 "properties": { 
			 "R2extent": 6053.5772, 
			 "electric_dipole_moment_norm": 3.19260157395, 
			 "electric_quadrupole_moment_norm": 10.8245567854, 
			 "total_energy": -3562.87590855, 
			 "HOMO_LUMO_gap": 0.1506, 
			 "cosmo_polarized_energy": -8.63, 
			 "cosmo_cavitation_energy": 33.64, 
			 "cosmo_dispersion_energy": -25.31, 
			 "cosmo_repulsion_energy": 1.91, 
			 "cosmo_total_nonelectrostatic_energy": 10.24, 
			 "SMD_solvation_energy": 4.17 
		},
		"coords": [
			{
				"x": -2.5287788239,
				"y": 0.4766951922,
				"z": 3.6475057683,
				"element": "C" 
			},
			{
				"x": -1.6542006963,
				"y": 1.578249109,
				"z": 3.0729908638,
				"element": "C" 
			},
			{
				"x": -1.7649677255,
				"y": 2.7385369353,
				"z": 3.4523771687,
				"element": "O" 
			},
			{
				"x": -0.6629839395,
				"y": 1.2197799389,
				"z": 2.0420169225,
				"element": "C" 
			},
			{
				"x": 0.2206422421,
				"y": 2.0762057964,
				"z": 1.3984132309,
				"element": "C" 
			},
			{
				"x": 0.3476038042,
				"y": 3.5535092913,
				"z": 1.6236998013,
				"element": "C" 
			},
			{
				"x": 1.0306635615,
				"y": 1.4751591621,
				"z": 0.4834036116,
				"element": "N" 
			},
			{
				"x": 0.8244475808,
				"y": 0.1766153654,
				"z": 0.3759650175,
				"element": "C" 
			},
			{
				"x": -0.4381762677,
				"y": -0.4058960379,
				"z": 1.4458790759,
				"element": "S" 
			},
			{
				"x": 1.6213158061,
				"y": -0.6258314991,
				"z": -0.5736338297,
				"element": "C" 
			},
			{
				"x": 1.5400013418,
				"y": -2.0107173074,
				"z": -0.8202219013,
				"element": "C" 
			},
			{
				"x": 0.3117719354,
				"y": -3.1690921955,
				"z": 0.082631124,
				"element": "Br" 
			},
			{
				"x": 2.3654285514,
				"y": -2.6378440497,
				"z": -1.7560993961,
				"element": "C" 
			},
			{
				"x": 3.2993842775,
				"y": -1.9005084775,
				"z": -2.4761294992,
				"element": "C" 
			},
			{
				"x": 3.4054892221,
				"y": -0.5255480168,
				"z": -2.2555429278,
				"element": "C" 
			},
			{
				"x": 2.5830259929,
				"y": 0.0908224617,
				"z": -1.3250815136,
				"element": "C" 
			},
			{
				"x": -3.1222860693,
				"y": -0.0016598131,
				"z": 2.8600267048,
				"element": "H" 
			},
			{
				"x": -3.1968905411,
				"y": 0.9096232179,
				"z": 4.39280471,
				"element": "H" 
			},
			{
				"x": -1.9182962815,
				"y": -0.3044419088,
				"z": 4.1146571594,
				"element": "H" 
			},
			{
				"x": -0.5998983523,
				"y": 4.0630696828,
				"z": 1.4276139051,
				"element": "H" 
			},
			{
				"x": 0.5959497084,
				"y": 3.7712559591,
				"z": 2.6662882282,
				"element": "H" 
			},
			{
				"x": 1.1242343554,
				"y": 3.9516491635,
				"z": 0.9683191519,
				"element": "H" 
			},
			{
				"x": 2.2671435908,
				"y": -3.7056795746,
				"z": -1.9122799558,
				"element": "H" 
			},
			{
				"x": 3.9354764889,
				"y": -2.3991958963,
				"z": -3.200951859,
				"element": "H" 
			},
			{
				"x": 4.1286580137,
				"y": 0.0660432478,
				"z": -2.8081940094,
				"element": "H" 
			},
			{
				"x": 2.6533422242,
				"y": 1.1561002532,
				"z": -1.1428575518,
				"element": "H" 
			}
		],
		 "valence_orbital": [ 
			{
				"type": "occ",
				"energy": -0.28065,
				"method": "rhf"
			},
			{
				"type": "occ",
				"energy": -0.28048,
				"method": "rhf"
			},
			{
				"type": "occ",
				"energy": -0.25666,
				"method": "rhf"
			},
			{
				"type": "occ",
				"energy": -0.24963,
				"method": "rhf"
			},
			{
				"type": "occ",
				"energy": -0.23122,
				"method": "rhf"
			},
			{
				"type": "unocc",
				"energy": -0.08062,
				"method": "rhf"
			},
			{
				"type": "unocc",
				"energy": -0.02587,
				"method": "rhf"
			},
			{
				"type": "unocc",
				"energy": -0.02048,
				"method": "rhf"
			},
			{
				"type": "unocc",
				"energy": -0.00661,
				"method": "rhf"
			},
			{
				"type": "unocc",
				"energy": 0.02022,
				"method": "rhf"
			}
		],
		"cosmo_sigma_profile": { 
			"-0.025": 0.0,
			"-0.024": 0.0,
			"-0.023": 0.0,
			"-0.022": 0.0,
			"-0.021": 0.0,
			"-0.02": 0.0,
			"-0.019": 0.0,
			"-0.018": 0.0,
			"-0.017": 0.0,
			"-0.016": 0.0,
			"-0.015": 0.0,
			"-0.014": 0.0,
			"-0.013": 0.0,
			"-0.012": 0.0,
			"-0.011": 0.0,
			"-0.01": 0.0,
			"-0.009": 0.0,
			"-0.008": 0.581349319207,
			"-0.007": 5.51712825615,
			"-0.006": 13.1871054222,
			"-0.005": 16.6766308238,
			"-0.004": 19.5400799745,
			"-0.003": 18.7472943397,
			"-0.002": 22.6349949362,
			"-0.001": 29.3440301607,
			"0.0": 30.4273205285,
			"0.001": 28.9803398579,
			"0.002": 27.5815145635,
			"0.003": 25.9226686242,
			"0.004": 9.30567109621,
			"0.005": 3.850551026,
			"0.006": 3.24381265088,
			"0.007": 3.1983139755,
			"0.008": 3.79685688301,
			"0.009": 2.20992463546,
			"0.01": 2.20243635353,
			"0.011": 2.49884331601,
			"0.012": 2.80194597373,
			"0.013": 1.63846353431,
			"0.014": 0.16113722292,
			"0.015": 0.0,
			"0.016": 0.0,
			"0.017": 0.0,
			"0.018": 0.0,
			"0.019": 0.0,
			"0.02": 0.0,
			"0.021": 0.0,
			"0.022": 0.0,
			"0.023": 0.0,
			"0.024": 0.0,
			"0.025": 0.0
		}
	}
}
