{
	 "smiles": "OC1(CCCCC1)C(=O)C1=CC=CC=C1", 
	 "Tm": 321.15, 
	 "num_atms": 31, 
	 "gaussian": { 
		 "optdone": 1, 
		 "sigma_profile": "yes", 
		 "theory": "DFT", 
		 "functional": "B3LYP", 
		 "basiset": "6-31G**", 
		 "properties": { 
			 "R2extent": 3850.4596, 
			 "electric_dipole_moment_norm": 1.74051510766, 
			 "electric_quadrupole_moment_norm": 9.12286255295, 
			 "total_energy": -655.474285282, 
			 "HOMO_LUMO_gap": 0.17939, 
			 "cosmo_polarized_energy": -9.04, 
			 "cosmo_cavitation_energy": 31.69, 
			 "cosmo_dispersion_energy": -23.2, 
			 "cosmo_repulsion_energy": 1.8, 
			 "cosmo_total_nonelectrostatic_energy": 10.29, 
			 "SMD_solvation_energy": 5.22 
		},
		"coords": [
			{
				"x": 1.7211351291,
				"y": -1.2415036462,
				"z": 0.2068664164,
				"element": "O" 
			},
			{
				"x": 1.7217308727,
				"y": 0.1343321622,
				"z": -0.2018176687,
				"element": "C" 
			},
			{
				"x": 3.1427397229,
				"y": 0.7426288852,
				"z": -0.0571383002,
				"element": "C" 
			},
			{
				"x": 4.0086820434,
				"y": 0.5836757641,
				"z": -1.3237697314,
				"element": "C" 
			},
			{
				"x": 3.701609854,
				"y": -0.7253939809,
				"z": -2.061520478,
				"element": "C" 
			},
			{
				"x": 2.2341039123,
				"y": -0.7521503851,
				"z": -2.5484533297,
				"element": "C" 
			},
			{
				"x": 1.3018407296,
				"y": 0.1306058642,
				"z": -1.6861916651,
				"element": "C" 
			},
			{
				"x": 0.6826044965,
				"y": 0.9818270091,
				"z": 0.5890451956,
				"element": "C" 
			},
			{
				"x": 0.9052610993,
				"y": 2.1736623154,
				"z": 0.7590817825,
				"element": "O" 
			},
			{
				"x": -0.6100892019,
				"y": 0.3975456958,
				"z": 1.0954024982,
				"element": "C" 
			},
			{
				"x": -1.4143345506,
				"y": 1.2528232441,
				"z": 1.8720153836,
				"element": "C" 
			},
			{
				"x": -2.643812999,
				"y": 0.826952269,
				"z": 2.3623140558,
				"element": "C" 
			},
			{
				"x": -3.1007398028,
				"y": -0.4628791803,
				"z": 2.0753112394,
				"element": "C" 
			},
			{
				"x": -2.3173189523,
				"y": -1.3189639469,
				"z": 1.3005915171,
				"element": "C" 
			},
			{
				"x": -1.0775485188,
				"y": -0.899648095,
				"z": 0.8160124229,
				"element": "C" 
			},
			{
				"x": 2.0446740996,
				"y": -1.283905855,
				"z": 1.1167441595,
				"element": "H" 
			},
			{
				"x": 3.6300839542,
				"y": 0.2433637195,
				"z": 0.7916728571,
				"element": "H" 
			},
			{
				"x": 3.0473772693,
				"y": 1.7974716113,
				"z": 0.2076348074,
				"element": "H" 
			},
			{
				"x": 3.8275021533,
				"y": 1.4293556471,
				"z": -2.0005669722,
				"element": "H" 
			},
			{
				"x": 5.0685131444,
				"y": 0.6367708279,
				"z": -1.0506520569,
				"element": "H" 
			},
			{
				"x": 3.8714706532,
				"y": -1.5643683288,
				"z": -1.3778996693,
				"element": "H" 
			},
			{
				"x": 4.3843699609,
				"y": -0.859696242,
				"z": -2.9078968737,
				"element": "H" 
			},
			{
				"x": 2.1728310182,
				"y": -0.3972366452,
				"z": -3.5841567053,
				"element": "H" 
			},
			{
				"x": 1.8660804983,
				"y": -1.7820350158,
				"z": -2.5479719677,
				"element": "H" 
			},
			{
				"x": 0.2644041027,
				"y": -0.2047814462,
				"z": -1.7840430187,
				"element": "H" 
			},
			{
				"x": 1.3289193748,
				"y": 1.1706758288,
				"z": -2.0290104598,
				"element": "H" 
			},
			{
				"x": -1.0492070091,
				"y": 2.2543180009,
				"z": 2.071444324,
				"element": "H" 
			},
			{
				"x": -3.2492953122,
				"y": 1.4987130316,
				"z": 2.9640482632,
				"element": "H" 
			},
			{
				"x": -4.062576957,
				"y": -0.7974572051,
				"z": 2.4541119488,
				"element": "H" 
			},
			{
				"x": -2.6688228174,
				"y": -2.3214818514,
				"z": 1.0738672492,
				"element": "H" 
			},
			{
				"x": -0.4664879678,
				"y": -1.5781200523,
				"z": 0.236524776,
				"element": "H" 
			}
		],
		 "valence_orbital": [ 
			{
				"type": "occ",
				"energy": -0.3023,
				"method": "rhf"
			},
			{
				"type": "occ",
				"energy": -0.28608,
				"method": "rhf"
			},
			{
				"type": "occ",
				"energy": -0.2562,
				"method": "rhf"
			},
			{
				"type": "occ",
				"energy": -0.25407,
				"method": "rhf"
			},
			{
				"type": "occ",
				"energy": -0.23617,
				"method": "rhf"
			},
			{
				"type": "unocc",
				"energy": -0.05678,
				"method": "rhf"
			},
			{
				"type": "unocc",
				"energy": -0.00473,
				"method": "rhf"
			},
			{
				"type": "unocc",
				"energy": 0.03585,
				"method": "rhf"
			},
			{
				"type": "unocc",
				"energy": 0.07205,
				"method": "rhf"
			},
			{
				"type": "unocc",
				"energy": 0.09841,
				"method": "rhf"
			}
		],
		"cosmo_sigma_profile": { 
			"-0.025": 0.0,
			"-0.024": 0.0,
			"-0.023": 0.0,
			"-0.022": 0.0,
			"-0.021": 0.0,
			"-0.02": 0.0,
			"-0.019": 0.0,
			"-0.018": 0.0,
			"-0.017": 0.0,
			"-0.016": 0.432828501468,
			"-0.015": 0.913494100561,
			"-0.014": 0.921502323393,
			"-0.013": 0.800952236654,
			"-0.012": 1.38865717111,
			"-0.011": 1.09234037234,
			"-0.01": 0.92076327949,
			"-0.009": 0.915683907605,
			"-0.008": 0.971579322663,
			"-0.007": 1.2628046236,
			"-0.006": 7.21351780365,
			"-0.005": 9.13881495435,
			"-0.004": 12.5498105778,
			"-0.003": 18.6801917537,
			"-0.002": 29.8308051201,
			"-0.001": 30.0707029029,
			"0.0": 30.4247626052,
			"0.001": 27.6156646703,
			"0.002": 14.9597016901,
			"0.003": 13.7747163632,
			"0.004": 15.2035478847,
			"0.005": 7.75799391885,
			"0.006": 3.32793658065,
			"0.007": 2.71022622819,
			"0.008": 2.86276771997,
			"0.009": 2.78861516442,
			"0.01": 2.65142043927,
			"0.011": 3.78671499878,
			"0.012": 3.36818422963,
			"0.013": 0.00982304751876,
			"0.014": 0.0,
			"0.015": 0.0,
			"0.016": 0.0,
			"0.017": 0.0,
			"0.018": 0.0,
			"0.019": 0.0,
			"0.02": 0.0,
			"0.021": 0.0,
			"0.022": 0.0,
			"0.023": 0.0,
			"0.024": 0.0,
			"0.025": 0.0
		}
	}
}
