{
	 "smiles": "CS(=O)(=O)NC1=CC(CN)=CC=C1", 
	 "Tm": 400.15, 
	 "num_atms": 25, 
	 "gaussian": { 
		 "optdone": 1, 
		 "sigma_profile": "yes", 
		 "theory": "DFT", 
		 "functional": "B3LYP", 
		 "basiset": "6-31G**", 
		 "properties": { 
			 "R2extent": 3524.8804, 
			 "electric_dipole_moment_norm": 3.90248217036, 
			 "electric_quadrupole_moment_norm": 21.4325242333, 
			 "total_energy": -970.15362832, 
			 "HOMO_LUMO_gap": 0.21876, 
			 "cosmo_polarized_energy": -18.68, 
			 "cosmo_cavitation_energy": 29.82, 
			 "cosmo_dispersion_energy": -21.92, 
			 "cosmo_repulsion_energy": 1.72, 
			 "cosmo_total_nonelectrostatic_energy": 9.62, 
			 "SMD_solvation_energy": 3.82 
		},
		"coords": [
			{
				"x": 0.0561029937,
				"y": 0.3707026977,
				"z": 3.232006008,
				"element": "C" 
			},
			{
				"x": -0.4535605937,
				"y": -1.2704031021,
				"z": 2.6753720615,
				"element": "S" 
			},
			{
				"x": -1.553193895,
				"y": -1.7317825972,
				"z": 3.5223913412,
				"element": "O" 
			},
			{
				"x": 0.7639065052,
				"y": -2.059171785,
				"z": 2.4939699202,
				"element": "O" 
			},
			{
				"x": -1.1660858404,
				"y": -1.0270282294,
				"z": 1.160731009,
				"element": "N" 
			},
			{
				"x": -0.5273968232,
				"y": -0.3639338077,
				"z": 0.0757680787,
				"element": "C" 
			},
			{
				"x": 0.7724076681,
				"y": -0.7098444646,
				"z": -0.3174538587,
				"element": "C" 
			},
			{
				"x": 1.3768487228,
				"y": -0.0656719926,
				"z": -1.4018522469,
				"element": "C" 
			},
			{
				"x": 2.8046058406,
				"y": -0.4174416086,
				"z": -1.7819071465,
				"element": "C" 
			},
			{
				"x": 3.0342458737,
				"y": -0.2884250187,
				"z": -3.2234112558,
				"element": "N" 
			},
			{
				"x": 0.6606912499,
				"y": 0.9015476652,
				"z": -2.118360852,
				"element": "C" 
			},
			{
				"x": -0.6412717178,
				"y": 1.2266794104,
				"z": -1.7391858023,
				"element": "C" 
			},
			{
				"x": -1.2351106418,
				"y": 0.6126189333,
				"z": -0.6375301345,
				"element": "C" 
			},
			{
				"x": -0.8312691194,
				"y": 0.9877680432,
				"z": 3.3779413241,
				"element": "H" 
			},
			{
				"x": 0.5864063248,
				"y": 0.2341432701,
				"z": 4.1758503023,
				"element": "H" 
			},
			{
				"x": 0.719934031,
				"y": 0.8057554296,
				"z": 2.4836257494,
				"element": "H" 
			},
			{
				"x": -2.1552685256,
				"y": -0.8335198605,
				"z": 1.2749680861,
				"element": "H" 
			},
			{
				"x": 1.298157717,
				"y": -1.4908410721,
				"z": 0.221018527,
				"element": "H" 
			},
			{
				"x": 3.4854171785,
				"y": 0.2857513036,
				"z": -1.2819945974,
				"element": "H" 
			},
			{
				"x": 3.0411636383,
				"y": -1.4129603416,
				"z": -1.3697817322,
				"element": "H" 
			},
			{
				"x": 4.0188472091,
				"y": -0.430470002,
				"z": -3.4312689801,
				"element": "H" 
			},
			{
				"x": 2.5213404113,
				"y": -1.0126308937,
				"z": -3.7209288689,
				"element": "H" 
			},
			{
				"x": 1.1304491282,
				"y": 1.3747933862,
				"z": -2.9735443369,
				"element": "H" 
			},
			{
				"x": -1.1985932058,
				"y": 1.9734764395,
				"z": -2.2977233754,
				"element": "H" 
			},
			{
				"x": -2.2454741293,
				"y": 0.8791881969,
				"z": -0.3366992198,
				"element": "H" 
			}
		],
		 "valence_orbital": [ 
			{
				"type": "occ",
				"energy": -0.30667,
				"method": "rhf"
			},
			{
				"type": "occ",
				"energy": -0.30121,
				"method": "rhf"
			},
			{
				"type": "occ",
				"energy": -0.25514,
				"method": "rhf"
			},
			{
				"type": "occ",
				"energy": -0.24118,
				"method": "rhf"
			},
			{
				"type": "occ",
				"energy": -0.22896,
				"method": "rhf"
			},
			{
				"type": "unocc",
				"energy": -0.0102,
				"method": "rhf"
			},
			{
				"type": "unocc",
				"energy": -0.00832,
				"method": "rhf"
			},
			{
				"type": "unocc",
				"energy": 0.06102,
				"method": "rhf"
			},
			{
				"type": "unocc",
				"energy": 0.07294,
				"method": "rhf"
			},
			{
				"type": "unocc",
				"energy": 0.08006,
				"method": "rhf"
			}
		],
		"cosmo_sigma_profile": { 
			"-0.025": 0.0,
			"-0.024": 0.0,
			"-0.023": 0.0,
			"-0.022": 0.0,
			"-0.021": 0.0,
			"-0.02": 0.0,
			"-0.019": 0.0,
			"-0.018": 0.0,
			"-0.017": 0.0,
			"-0.016": 0.195906277834,
			"-0.015": 0.873008385788,
			"-0.014": 0.900560602004,
			"-0.013": 1.65920533455,
			"-0.012": 1.24238796315,
			"-0.011": 1.4211114401,
			"-0.01": 3.09087604423,
			"-0.009": 7.08665386495,
			"-0.008": 7.71174819936,
			"-0.007": 9.68267527664,
			"-0.006": 11.4076449021,
			"-0.005": 13.4965073978,
			"-0.004": 19.5012868466,
			"-0.003": 19.2019271652,
			"-0.002": 16.0021838005,
			"-0.001": 11.9104580546,
			"0.0": 7.63456935168,
			"0.001": 9.22342170585,
			"0.002": 9.86596452694,
			"0.003": 10.3431705485,
			"0.004": 13.3651265372,
			"0.005": 12.9827088551,
			"0.006": 7.66554765183,
			"0.007": 4.38765099333,
			"0.008": 4.48343716439,
			"0.009": 4.88471346145,
			"0.01": 6.88872151772,
			"0.011": 11.7127072736,
			"0.012": 4.18033168805,
			"0.013": 0.351945401884,
			"0.014": 0.421655684602,
			"0.015": 0.835417501247,
			"0.016": 0.580911435605,
			"0.017": 0.159937493563,
			"0.018": 0.0,
			"0.019": 0.0,
			"0.02": 0.0,
			"0.021": 0.0,
			"0.022": 0.0,
			"0.023": 0.0,
			"0.024": 0.0,
			"0.025": 0.0
		}
	}
}
