{
	 "smiles": "CNS(=O)(=O)C1=CC(C(O)=O)=C(C)C=C1", 
	 "Tm": 444.15, 
	 "num_atms": 26, 
	 "gaussian": { 
		 "optdone": 1, 
		 "sigma_profile": "yes", 
		 "theory": "DFT", 
		 "functional": "B3LYP", 
		 "basiset": "6-31G**", 
		 "properties": { 
			 "R2extent": 4126.8836, 
			 "electric_dipole_moment_norm": 5.38630506099, 
			 "electric_quadrupole_moment_norm": 21.7855321028, 
			 "total_energy": -1103.36214123, 
			 "HOMO_LUMO_gap": 0.20496, 
			 "cosmo_polarized_energy": -21.79, 
			 "cosmo_cavitation_energy": 31.58, 
			 "cosmo_dispersion_energy": -22.92, 
			 "cosmo_repulsion_energy": 1.76, 
			 "cosmo_total_nonelectrostatic_energy": 10.41, 
			 "SMD_solvation_energy": 5.43 
		},
		"coords": [
			{
				"x": 3.6249835985,
				"y": 0.2263367058,
				"z": -1.1102893776,
				"element": "C" 
			},
			{
				"x": 2.4796841624,
				"y": 0.5476452968,
				"z": -1.9728385416,
				"element": "N" 
			},
			{
				"x": 1.3681499843,
				"y": 1.6842994854,
				"z": -1.3862555696,
				"element": "S" 
			},
			{
				"x": 0.6659349368,
				"y": 2.1622427812,
				"z": -2.580847031,
				"element": "O" 
			},
			{
				"x": 2.0121694367,
				"y": 2.6117265416,
				"z": -0.4486883551,
				"element": "O" 
			},
			{
				"x": 0.2540996762,
				"y": 0.6566649956,
				"z": -0.4293206269,
				"element": "C" 
			},
			{
				"x": -0.6605846763,
				"y": -0.1581503697,
				"z": -1.0933698045,
				"element": "C" 
			},
			{
				"x": -1.5487014774,
				"y": -0.9587336065,
				"z": -0.3663834132,
				"element": "C" 
			},
			{
				"x": -2.5463777815,
				"y": -1.8047888438,
				"z": -1.1074169757,
				"element": "C" 
			},
			{
				"x": -2.1474284485,
				"y": -2.2760623319,
				"z": -2.3191093754,
				"element": "O" 
			},
			{
				"x": -3.6516583756,
				"y": -2.0679023511,
				"z": -0.696585426,
				"element": "O" 
			},
			{
				"x": -1.5364868666,
				"y": -0.9282976547,
				"z": 1.0514962673,
				"element": "C" 
			},
			{
				"x": -2.4856623408,
				"y": -1.744687311,
				"z": 1.8925403323,
				"element": "C" 
			},
			{
				"x": -0.5987189038,
				"y": -0.1009801377,
				"z": 1.6818139019,
				"element": "C" 
			},
			{
				"x": 0.2929727218,
				"y": 0.6939517658,
				"z": 0.961695386,
				"element": "C" 
			},
			{
				"x": 4.2513990629,
				"y": -0.4926663826,
				"z": -1.6433464735,
				"element": "H" 
			},
			{
				"x": 3.2634994225,
				"y": -0.2560765623,
				"z": -0.1982618486,
				"element": "H" 
			},
			{
				"x": 4.2222821664,
				"y": 1.1016332857,
				"z": -0.8335274773,
				"element": "H" 
			},
			{
				"x": 2.7420696616,
				"y": 0.8607640207,
				"z": -2.9054670431,
				"element": "H" 
			},
			{
				"x": -0.7024797297,
				"y": -0.120832167,
				"z": -2.1778616137,
				"element": "H" 
			},
			{
				"x": -1.2015305225,
				"y": -2.1187622254,
				"z": -2.447332027,
				"element": "H" 
			},
			{
				"x": -3.5124460197,
				"y": -1.3898552674,
				"z": 1.7721365868,
				"element": "H" 
			},
			{
				"x": -2.4936988472,
				"y": -2.7960521354,
				"z": 1.5918481983,
				"element": "H" 
			},
			{
				"x": -2.2081302144,
				"y": -1.683010437,
				"z": 2.9476993235,
				"element": "H" 
			},
			{
				"x": -0.5731133554,
				"y": -0.0730207042,
				"z": 2.767267301,
				"element": "H" 
			},
			{
				"x": 0.9978727296,
				"y": 1.3478136094,
				"z": 1.4634036827,
				"element": "H" 
			}
		],
		 "valence_orbital": [ 
			{
				"type": "occ",
				"energy": -0.31097,
				"method": "rhf"
			},
			{
				"type": "occ",
				"energy": -0.29292,
				"method": "rhf"
			},
			{
				"type": "occ",
				"energy": -0.29081,
				"method": "rhf"
			},
			{
				"type": "occ",
				"energy": -0.27807,
				"method": "rhf"
			},
			{
				"type": "occ",
				"energy": -0.26932,
				"method": "rhf"
			},
			{
				"type": "unocc",
				"energy": -0.06436,
				"method": "rhf"
			},
			{
				"type": "unocc",
				"energy": -0.05069,
				"method": "rhf"
			},
			{
				"type": "unocc",
				"energy": 0.02471,
				"method": "rhf"
			},
			{
				"type": "unocc",
				"energy": 0.04678,
				"method": "rhf"
			},
			{
				"type": "unocc",
				"energy": 0.06918,
				"method": "rhf"
			}
		],
		"cosmo_sigma_profile": { 
			"-0.025": 0.0,
			"-0.024": 0.0,
			"-0.023": 0.0,
			"-0.022": 0.0,
			"-0.021": 0.0,
			"-0.02": 0.0,
			"-0.019": 0.351559130939,
			"-0.018": 0.99407718765,
			"-0.017": 0.582800798683,
			"-0.016": 1.61875497567,
			"-0.015": 1.31680929896,
			"-0.014": 2.26439581603,
			"-0.013": 1.93407257242,
			"-0.012": 2.2810652851,
			"-0.011": 1.90993107623,
			"-0.01": 1.89675064959,
			"-0.009": 2.40051586137,
			"-0.008": 3.49764630072,
			"-0.007": 8.19024217067,
			"-0.006": 11.1582381801,
			"-0.005": 16.4327759779,
			"-0.004": 18.4931180536,
			"-0.003": 18.6632345367,
			"-0.002": 18.4673137559,
			"-0.001": 19.4158878242,
			"0.0": 19.6004553524,
			"0.001": 15.0404168121,
			"0.002": 8.76188030274,
			"0.003": 7.03806189973,
			"0.004": 4.9419096927,
			"0.005": 5.78241675492,
			"0.006": 5.63389751159,
			"0.007": 5.61757273337,
			"0.008": 7.28137298062,
			"0.009": 7.24770755515,
			"0.01": 13.2707600023,
			"0.011": 12.7486309993,
			"0.012": 5.14108127158,
			"0.013": 0.804748343876,
			"0.014": 0.0,
			"0.015": 0.0,
			"0.016": 0.0,
			"0.017": 0.0,
			"0.018": 0.0,
			"0.019": 0.0,
			"0.02": 0.0,
			"0.021": 0.0,
			"0.022": 0.0,
			"0.023": 0.0,
			"0.024": 0.0,
			"0.025": 0.0
		}
	}
}
