{
	 "smiles": "CCCCCCCCCCCCN1CCCCCC1=O", 
	 "Tm": 266.15, 
	 "num_atms": 55, 
	 "gaussian": { 
		 "optdone": 1, 
		 "sigma_profile": "yes", 
		 "theory": "DFT", 
		 "functional": "B3LYP", 
		 "basiset": "6-31G**", 
		 "properties": { 
			 "R2extent": 9283.0304, 
			 "electric_dipole_moment_norm": 3.53212914118, 
			 "electric_quadrupole_moment_norm": 18.5868509778, 
			 "total_energy": -837.042865527, 
			 "HOMO_LUMO_gap": 0.26024, 
			 "cosmo_polarized_energy": -9.67, 
			 "cosmo_cavitation_energy": 51.85, 
			 "cosmo_dispersion_energy": -33.32, 
			 "cosmo_repulsion_energy": 2.65, 
			 "cosmo_total_nonelectrostatic_energy": 21.18, 
			 "SMD_solvation_energy": 6.91 
		},
		"coords": [
			{
				"x": -4.5362846353,
				"y": 4.0993626694,
				"z": -1.1450873556,
				"element": "C" 
			},
			{
				"x": -3.8555741588,
				"y": 2.7765235797,
				"z": -0.7779389627,
				"element": "C" 
			},
			{
				"x": -4.6787538702,
				"y": 1.5466469089,
				"z": -1.1868293034,
				"element": "C" 
			},
			{
				"x": -4.0704680337,
				"y": 0.1950040964,
				"z": -0.7776699959,
				"element": "C" 
			},
			{
				"x": -2.7540553525,
				"y": -0.1614853787,
				"z": -1.4835205763,
				"element": "C" 
			},
			{
				"x": -2.2259386381,
				"y": -1.5504207843,
				"z": -1.0972334363,
				"element": "C" 
			},
			{
				"x": -0.9567443945,
				"y": -1.989749105,
				"z": -1.8482945597,
				"element": "C" 
			},
			{
				"x": 0.2956908667,
				"y": -1.1211992469,
				"z": -1.6218767908,
				"element": "C" 
			},
			{
				"x": 0.7929245639,
				"y": -1.0041165994,
				"z": -0.1687269486,
				"element": "C" 
			},
			{
				"x": 1.2555312668,
				"y": -2.3347762056,
				"z": 0.4411354187,
				"element": "C" 
			},
			{
				"x": 1.6787853373,
				"y": -2.2920468189,
				"z": 1.9204068274,
				"element": "C" 
			},
			{
				"x": 2.9449058573,
				"y": -1.4779016604,
				"z": 2.2552282974,
				"element": "C" 
			},
			{
				"x": 2.7410330833,
				"y": -0.0370514807,
				"z": 2.4623027755,
				"element": "N" 
			},
			{
				"x": 2.0873453108,
				"y": 0.3785477286,
				"z": 3.7085401177,
				"element": "C" 
			},
			{
				"x": 0.7824058957,
				"y": 1.1729715408,
				"z": 3.5329784791,
				"element": "C" 
			},
			{
				"x": 0.9792551464,
				"y": 2.6501430924,
				"z": 3.1702711194,
				"element": "C" 
			},
			{
				"x": 1.7721999665,
				"y": 2.9008757628,
				"z": 1.8818094796,
				"element": "C" 
			},
			{
				"x": 3.2089584908,
				"y": 2.3386216622,
				"z": 1.8992662931,
				"element": "C" 
			},
			{
				"x": 3.3252852479,
				"y": 0.8477260087,
				"z": 1.5876690596,
				"element": "C" 
			},
			{
				"x": 3.9096642824,
				"y": 0.4725645649,
				"z": 0.5713443243,
				"element": "O" 
			},
			{
				"x": -5.5141373027,
				"y": 4.1906624616,
				"z": -0.6581837527,
				"element": "H" 
			},
			{
				"x": -4.699649791,
				"y": 4.1734733654,
				"z": -2.2264094458,
				"element": "H" 
			},
			{
				"x": -3.9318052482,
				"y": 4.960539247,
				"z": -0.8414689848,
				"element": "H" 
			},
			{
				"x": -3.6772319615,
				"y": 2.7447745544,
				"z": 0.306167051,
				"element": "H" 
			},
			{
				"x": -2.8659471221,
				"y": 2.7378828504,
				"z": -1.2499520298,
				"element": "H" 
			},
			{
				"x": -5.6795707796,
				"y": 1.632338408,
				"z": -0.7413933614,
				"element": "H" 
			},
			{
				"x": -4.8319036873,
				"y": 1.5605699875,
				"z": -2.2757669022,
				"element": "H" 
			},
			{
				"x": -4.8038338288,
				"y": -0.5970942758,
				"z": -0.9820235088,
				"element": "H" 
			},
			{
				"x": -3.9125789629,
				"y": 0.1844579292,
				"z": 0.310808071,
				"element": "H" 
			},
			{
				"x": -2.9066493955,
				"y": -0.1227446734,
				"z": -2.5722968976,
				"element": "H" 
			},
			{
				"x": -1.9954837442,
				"y": 0.5972893581,
				"z": -1.2565210932,
				"element": "H" 
			},
			{
				"x": -3.014122708,
				"y": -2.2920119463,
				"z": -1.287385298,
				"element": "H" 
			},
			{
				"x": -2.047862658,
				"y": -1.5798431891,
				"z": -0.0133918336,
				"element": "H" 
			},
			{
				"x": -1.1733572817,
				"y": -2.0045272187,
				"z": -2.9254273895,
				"element": "H" 
			},
			{
				"x": -0.7344285694,
				"y": -3.0300993254,
				"z": -1.5787914823,
				"element": "H" 
			},
			{
				"x": 1.1103016065,
				"y": -1.524595626,
				"z": -2.2386476684,
				"element": "H" 
			},
			{
				"x": 0.1094601809,
				"y": -0.1107553851,
				"z": -2.0071232278,
				"element": "H" 
			},
			{
				"x": 1.628884376,
				"y": -0.2983367664,
				"z": -0.1564573903,
				"element": "H" 
			},
			{
				"x": 0.0029290984,
				"y": -0.5701709654,
				"z": 0.4608151916,
				"element": "H" 
			},
			{
				"x": 0.4516398346,
				"y": -3.077036682,
				"z": 0.3532671535,
				"element": "H" 
			},
			{
				"x": 2.0927644882,
				"y": -2.7252472075,
				"z": -0.154604282,
				"element": "H" 
			},
			{
				"x": 0.8396256347,
				"y": -1.9426455244,
				"z": 2.5380593031,
				"element": "H" 
			},
			{
				"x": 1.8712393627,
				"y": -3.3240933325,
				"z": 2.2424137752,
				"element": "H" 
			},
			{
				"x": 3.3921829239,
				"y": -1.8812433673,
				"z": 3.1738903957,
				"element": "H" 
			},
			{
				"x": 3.6813903373,
				"y": -1.5757392048,
				"z": 1.4558450935,
				"element": "H" 
			},
			{
				"x": 1.8667609708,
				"y": -0.5397209028,
				"z": 4.2582632279,
				"element": "H" 
			},
			{
				"x": 2.7870488718,
				"y": 0.9493539546,
				"z": 4.3368010575,
				"element": "H" 
			},
			{
				"x": 0.2245562998,
				"y": 1.116810971,
				"z": 4.4766659548,
				"element": "H" 
			},
			{
				"x": 0.168959658,
				"y": 0.6728300036,
				"z": 2.7736266707,
				"element": "H" 
			},
			{
				"x": 1.4961517763,
				"y": 3.1501904441,
				"z": 4.0024095025,
				"element": "H" 
			},
			{
				"x": -0.0029798588,
				"y": 3.131703414,
				"z": 3.0890811068,
				"element": "H" 
			},
			{
				"x": 1.8318549264,
				"y": 3.9831249808,
				"z": 1.7171038761,
				"element": "H" 
			},
			{
				"x": 1.2334525993,
				"y": 2.4896270642,
				"z": 1.018512072,
				"element": "H" 
			},
			{
				"x": 3.6786738426,
				"y": 2.5605444153,
				"z": 2.8677367219,
				"element": "H" 
			},
			{
				"x": 3.8101998789,
				"y": 2.8253918487,
				"z": 1.1292040609,
				"element": "H" 
			}
		],
		 "valence_orbital": [ 
			{
				"type": "occ",
				"energy": -0.30019,
				"method": "rhf"
			},
			{
				"type": "occ",
				"energy": -0.297,
				"method": "rhf"
			},
			{
				"type": "occ",
				"energy": -0.29165,
				"method": "rhf"
			},
			{
				"type": "occ",
				"energy": -0.23511,
				"method": "rhf"
			},
			{
				"type": "occ",
				"energy": -0.22964,
				"method": "rhf"
			},
			{
				"type": "unocc",
				"energy": 0.0306,
				"method": "rhf"
			},
			{
				"type": "unocc",
				"energy": 0.0695,
				"method": "rhf"
			},
			{
				"type": "unocc",
				"energy": 0.08152,
				"method": "rhf"
			},
			{
				"type": "unocc",
				"energy": 0.09312,
				"method": "rhf"
			},
			{
				"type": "unocc",
				"energy": 0.09736,
				"method": "rhf"
			}
		],
		"cosmo_sigma_profile": { 
			"-0.025": 0.0,
			"-0.024": 0.0,
			"-0.023": 0.0,
			"-0.022": 0.0,
			"-0.021": 0.0,
			"-0.02": 0.0,
			"-0.019": 0.0,
			"-0.018": 0.0,
			"-0.017": 0.0,
			"-0.016": 0.0,
			"-0.015": 0.0,
			"-0.014": 0.0,
			"-0.013": 0.0,
			"-0.012": 0.0,
			"-0.011": 0.0,
			"-0.01": 0.0,
			"-0.009": 0.0,
			"-0.008": 0.0,
			"-0.007": 0.0,
			"-0.006": 0.343765022263,
			"-0.005": 6.62789266779,
			"-0.004": 13.2455180478,
			"-0.003": 25.6839967256,
			"-0.002": 61.8157057847,
			"-0.001": 87.0025661935,
			"0.0": 84.576248053,
			"0.001": 63.965930521,
			"0.002": 26.4397629738,
			"0.003": 3.0911180807,
			"0.004": 1.44029353688,
			"0.005": 2.04208221232,
			"0.006": 1.70138259226,
			"0.007": 1.65636825948,
			"0.008": 1.8756294751,
			"0.009": 2.06521276264,
			"0.01": 1.27620955484,
			"0.011": 1.15013298562,
			"0.012": 1.42055564288,
			"0.013": 1.95023329969,
			"0.014": 3.39984663817,
			"0.015": 3.43930826415,
			"0.016": 0.668460589803,
			"0.017": 0.0,
			"0.018": 0.0,
			"0.019": 0.0,
			"0.02": 0.0,
			"0.021": 0.0,
			"0.022": 0.0,
			"0.023": 0.0,
			"0.024": 0.0,
			"0.025": 0.0
		}
	}
}
