{
	 "smiles": "CCCCOC(=O)C1=C(C)NC(=O)NC1C1=CC=C2OCOC2=C1", 
	 "Tm": 416.15, 
	 "num_atms": 44, 
	 "gaussian": { 
		 "optdone": 1, 
		 "sigma_profile": "yes", 
		 "theory": "DFT", 
		 "functional": "B3LYP", 
		 "basiset": "6-31G**", 
		 "properties": { 
			 "R2extent": 9046.0517, 
			 "electric_dipole_moment_norm": 3.41686148827, 
			 "electric_quadrupole_moment_norm": 20.2930436271, 
			 "total_energy": -1145.50488397, 
			 "HOMO_LUMO_gap": 0.16317, 
			 "cosmo_polarized_energy": -18.72, 
			 "cosmo_cavitation_energy": 46.57, 
			 "cosmo_dispersion_energy": -31.81, 
			 "cosmo_repulsion_energy": 2.46, 
			 "cosmo_total_nonelectrostatic_energy": 17.22, 
			 "SMD_solvation_energy": 8.93 
		},
		"coords": [
			{
				"x": 1.3733215405,
				"y": -3.5974824156,
				"z": 3.6637977031,
				"element": "C" 
			},
			{
				"x": 1.2620915517,
				"y": -2.0842790223,
				"z": 3.8742101503,
				"element": "C" 
			},
			{
				"x": 2.5130130999,
				"y": -1.326451107,
				"z": 3.412810023,
				"element": "C" 
			},
			{
				"x": 2.4443487214,
				"y": 0.1836233713,
				"z": 3.6203601352,
				"element": "C" 
			},
			{
				"x": 1.341650196,
				"y": 0.7881489293,
				"z": 2.9012428759,
				"element": "O" 
			},
			{
				"x": 1.5697375893,
				"y": 1.0998961108,
				"z": 1.5983497238,
				"element": "C" 
			},
			{
				"x": 2.6459352687,
				"y": 0.8836254674,
				"z": 1.0554895717,
				"element": "O" 
			},
			{
				"x": 0.4369369611,
				"y": 1.7331701797,
				"z": 0.9160454638,
				"element": "C" 
			},
			{
				"x": -0.7411080937,
				"y": 2.1023579315,
				"z": 1.4959665574,
				"element": "C" 
			},
			{
				"x": -1.1975619347,
				"y": 1.8314419723,
				"z": 2.9076707016,
				"element": "C" 
			},
			{
				"x": -1.6450531638,
				"y": 2.8288140689,
				"z": 0.7402852693,
				"element": "N" 
			},
			{
				"x": -1.3358672261,
				"y": 3.5122981528,
				"z": -0.444898515,
				"element": "C" 
			},
			{
				"x": -2.1247561164,
				"y": 4.3030622542,
				"z": -0.9417151779,
				"element": "O" 
			},
			{
				"x": -0.0893383508,
				"y": 3.2315872629,
				"z": -0.9255298508,
				"element": "N" 
			},
			{
				"x": 0.6566521371,
				"y": 2.0234109506,
				"z": -0.5692180981,
				"element": "C" 
			},
			{
				"x": 0.3207138466,
				"y": 0.8198011921,
				"z": -1.4664831007,
				"element": "C" 
			},
			{
				"x": -0.8881280981,
				"y": 0.7361112193,
				"z": -2.1639118866,
				"element": "C" 
			},
			{
				"x": -1.2057000411,
				"y": -0.3719460075,
				"z": -2.9734224227,
				"element": "C" 
			},
			{
				"x": -0.2663621727,
				"y": -1.3782370311,
				"z": -3.0534021348,
				"element": "C" 
			},
			{
				"x": -0.3290882811,
				"y": -2.5611302595,
				"z": -3.7517034009,
				"element": "O" 
			},
			{
				"x": 0.9639471413,
				"y": -3.1610594004,
				"z": -3.6100195508,
				"element": "C" 
			},
			{
				"x": 1.6847422464,
				"y": -2.4338710965,
				"z": -2.6103865256,
				"element": "O" 
			},
			{
				"x": 0.9436617612,
				"y": -1.299896402,
				"z": -2.3665496076,
				"element": "C" 
			},
			{
				"x": 1.2714949502,
				"y": -0.2231501632,
				"z": -1.5710822614,
				"element": "C" 
			},
			{
				"x": 1.5236270841,
				"y": -3.8391112328,
				"z": 2.6056654415,
				"element": "H" 
			},
			{
				"x": 0.468038487,
				"y": -4.1146242299,
				"z": 3.9978849358,
				"element": "H" 
			},
			{
				"x": 2.2198690246,
				"y": -4.0150907216,
				"z": 4.220925745,
				"element": "H" 
			},
			{
				"x": 0.3890139456,
				"y": -1.7017748076,
				"z": 3.3318413015,
				"element": "H" 
			},
			{
				"x": 1.0803409955,
				"y": -1.8725377769,
				"z": 4.9372020822,
				"element": "H" 
			},
			{
				"x": 2.7101740725,
				"y": -1.5257322727,
				"z": 2.3534796823,
				"element": "H" 
			},
			{
				"x": 3.3903437504,
				"y": -1.6904981969,
				"z": 3.9658395052,
				"element": "H" 
			},
			{
				"x": 3.3739661792,
				"y": 0.6610725589,
				"z": 3.3033271998,
				"element": "H" 
			},
			{
				"x": 2.2460743115,
				"y": 0.4293529838,
				"z": 4.667896185,
				"element": "H" 
			},
			{
				"x": -2.2451126632,
				"y": 2.1210906242,
				"z": 3.0319576866,
				"element": "H" 
			},
			{
				"x": -0.5957752576,
				"y": 2.3961522565,
				"z": 3.6248999996,
				"element": "H" 
			},
			{
				"x": -1.0886297042,
				"y": 0.7776658987,
				"z": 3.1631657524,
				"element": "H" 
			},
			{
				"x": -2.5240980352,
				"y": 3.1141013499,
				"z": 1.1466230825,
				"element": "H" 
			},
			{
				"x": 0.0918235342,
				"y": 3.6465956111,
				"z": -1.8293277296,
				"element": "H" 
			},
			{
				"x": 1.7194058811,
				"y": 2.2454259898,
				"z": -0.696976513,
				"element": "H" 
			},
			{
				"x": -1.6057082004,
				"y": 1.5467810032,
				"z": -2.1065362565,
				"element": "H" 
			},
			{
				"x": -2.1439551628,
				"y": -0.4294143192,
				"z": -3.513626523,
				"element": "H" 
			},
			{
				"x": 1.5019946283,
				"y": -3.1029087951,
				"z": -4.5675589509,
				"element": "H" 
			},
			{
				"x": 0.8494586742,
				"y": -4.2024751958,
				"z": -3.2928223399,
				"element": "H" 
			},
			{
				"x": 2.2122649222,
				"y": -0.1744168858,
				"z": -1.0356659287,
				"element": "H" 
			}
		],
		 "valence_orbital": [ 
			{
				"type": "occ",
				"energy": -0.27032,
				"method": "rhf"
			},
			{
				"type": "occ",
				"energy": -0.2568,
				"method": "rhf"
			},
			{
				"type": "occ",
				"energy": -0.24129,
				"method": "rhf"
			},
			{
				"type": "occ",
				"energy": -0.22653,
				"method": "rhf"
			},
			{
				"type": "occ",
				"energy": -0.20291,
				"method": "rhf"
			},
			{
				"type": "unocc",
				"energy": -0.03974,
				"method": "rhf"
			},
			{
				"type": "unocc",
				"energy": 0.00093,
				"method": "rhf"
			},
			{
				"type": "unocc",
				"energy": 0.01314,
				"method": "rhf"
			},
			{
				"type": "unocc",
				"energy": 0.05497,
				"method": "rhf"
			},
			{
				"type": "unocc",
				"energy": 0.069,
				"method": "rhf"
			}
		],
		"cosmo_sigma_profile": { 
			"-0.025": 0.0,
			"-0.024": 0.0,
			"-0.023": 0.0,
			"-0.022": 0.0,
			"-0.021": 0.0,
			"-0.02": 0.0,
			"-0.019": 0.0,
			"-0.018": 0.0,
			"-0.017": 0.0,
			"-0.016": 0.173985891019,
			"-0.015": 0.962063849072,
			"-0.014": 2.04465862619,
			"-0.013": 2.40424623721,
			"-0.012": 1.71814372842,
			"-0.011": 2.27847386102,
			"-0.01": 2.32244065683,
			"-0.009": 1.94127600163,
			"-0.008": 3.69818754588,
			"-0.007": 10.6731238414,
			"-0.006": 12.9554098582,
			"-0.005": 14.3836513959,
			"-0.004": 20.5119695989,
			"-0.003": 31.5836817451,
			"-0.002": 37.3274212538,
			"-0.001": 35.7230639252,
			"0.0": 36.4904933817,
			"0.001": 32.0906385048,
			"0.002": 25.4531502644,
			"0.003": 20.8710308846,
			"0.004": 15.9716509889,
			"0.005": 11.2826821744,
			"0.006": 6.21655560614,
			"0.007": 5.46053607266,
			"0.008": 4.90024489894,
			"0.009": 5.25399187453,
			"0.01": 4.67261047342,
			"0.011": 3.60185436048,
			"0.012": 3.89843436499,
			"0.013": 6.69465125544,
			"0.014": 3.83956967997,
			"0.015": 0.0333438918696,
			"0.016": 0.0,
			"0.017": 0.0,
			"0.018": 0.0,
			"0.019": 0.0,
			"0.02": 0.0,
			"0.021": 0.0,
			"0.022": 0.0,
			"0.023": 0.0,
			"0.024": 0.0,
			"0.025": 0.0
		}
	}
}
