{
	 "smiles": "ClCC(=O)NC(=O)NCC1=CC=CO1", 
	 "Tm": 402.15, 
	 "num_atms": 23, 
	 "gaussian": { 
		 "optdone": 1, 
		 "sigma_profile": "yes", 
		 "theory": "DFT", 
		 "functional": "B3LYP", 
		 "basiset": "6-31G**", 
		 "properties": { 
			 "R2extent": 4386.0312, 
			 "electric_dipole_moment_norm": 5.67423220357, 
			 "electric_quadrupole_moment_norm": 23.232928637, 
			 "total_energy": -1105.63851639, 
			 "HOMO_LUMO_gap": 0.22384, 
			 "cosmo_polarized_energy": -20.72, 
			 "cosmo_cavitation_energy": 30.01, 
			 "cosmo_dispersion_energy": -21.01, 
			 "cosmo_repulsion_energy": 1.67, 
			 "cosmo_total_nonelectrostatic_energy": 10.67, 
			 "SMD_solvation_energy": 6.81 
		},
		"coords": [
			{
				"x": -3.5377585037,
				"y": 0.7955628226,
				"z": -0.7554249402,
				"element": "Cl" 
			},
			{
				"x": -3.2684497648,
				"y": 2.5416661897,
				"z": -0.3376837048,
				"element": "C" 
			},
			{
				"x": -2.1220126351,
				"y": 2.8726265716,
				"z": 0.6289343413,
				"element": "C" 
			},
			{
				"x": -2.0640479575,
				"y": 4.0135385471,
				"z": 1.0362176206,
				"element": "O" 
			},
			{
				"x": -1.2597173732,
				"y": 1.8470929294,
				"z": 0.9536436497,
				"element": "N" 
			},
			{
				"x": -0.0251171527,
				"y": 2.0373206771,
				"z": 1.6359027765,
				"element": "C" 
			},
			{
				"x": 0.590262394,
				"y": 3.0831274621,
				"z": 1.6415016423,
				"element": "O" 
			},
			{
				"x": 0.4320135358,
				"y": 0.9035859277,
				"z": 2.2671886334,
				"element": "N" 
			},
			{
				"x": -0.3020673123,
				"y": -0.3202783066,
				"z": 2.5806114194,
				"element": "C" 
			},
			{
				"x": -0.1447250015,
				"y": -1.4112097363,
				"z": 1.5696473019,
				"element": "C" 
			},
			{
				"x": 0.4219419468,
				"y": -2.6500058824,
				"z": 1.5794418085,
				"element": "C" 
			},
			{
				"x": 0.2360040538,
				"y": -3.1963890575,
				"z": 0.2645577546,
				"element": "C" 
			},
			{
				"x": -0.427482859,
				"y": -2.249770547,
				"z": -0.4505417102,
				"element": "C" 
			},
			{
				"x": -0.6712021428,
				"y": -1.154399945,
				"z": 0.330277236,
				"element": "O" 
			},
			{
				"x": -3.0824432908,
				"y": 3.0681230512,
				"z": -1.2751662621,
				"element": "H" 
			},
			{
				"x": -4.1925999331,
				"y": 2.9167351438,
				"z": 0.0999424896,
				"element": "H" 
			},
			{
				"x": -1.4438123147,
				"y": 0.9340374251,
				"z": 0.5504292321,
				"element": "H" 
			},
			{
				"x": 1.3563589837,
				"y": 1.0233874036,
				"z": 2.6555650629,
				"element": "H" 
			},
			{
				"x": 0.0448297099,
				"y": -0.6934330799,
				"z": 3.5482397479,
				"element": "H" 
			},
			{
				"x": -1.3615387162,
				"y": -0.067710135,
				"z": 2.7018317921,
				"element": "H" 
			},
			{
				"x": 0.9133868253,
				"y": -3.1211485506,
				"z": 2.4188928303,
				"element": "H" 
			},
			{
				"x": 0.5572254591,
				"y": -4.1636238251,
				"z": -0.0937470469,
				"element": "H" 
			},
			{
				"x": -0.7859479512,
				"y": -2.1920350856,
				"z": -1.4661616747,
				"element": "H" 
			}
		],
		 "valence_orbital": [ 
			{
				"type": "occ",
				"energy": -0.28683,
				"method": "rhf"
			},
			{
				"type": "occ",
				"energy": -0.27851,
				"method": "rhf"
			},
			{
				"type": "occ",
				"energy": -0.26368,
				"method": "rhf"
			},
			{
				"type": "occ",
				"energy": -0.25366,
				"method": "rhf"
			},
			{
				"type": "occ",
				"energy": -0.23931,
				"method": "rhf"
			},
			{
				"type": "unocc",
				"energy": -0.01547,
				"method": "rhf"
			},
			{
				"type": "unocc",
				"energy": -0.00455,
				"method": "rhf"
			},
			{
				"type": "unocc",
				"energy": 0.01286,
				"method": "rhf"
			},
			{
				"type": "unocc",
				"energy": 0.05544,
				"method": "rhf"
			},
			{
				"type": "unocc",
				"energy": 0.0618,
				"method": "rhf"
			}
		],
		"cosmo_sigma_profile": { 
			"-0.025": 0.0,
			"-0.024": 0.0,
			"-0.023": 0.0,
			"-0.022": 0.0,
			"-0.021": 0.0,
			"-0.02": 0.0,
			"-0.019": 0.0,
			"-0.018": 0.0,
			"-0.017": 0.0,
			"-0.016": 0.0,
			"-0.015": 0.365081576022,
			"-0.014": 1.28634616319,
			"-0.013": 1.32938512217,
			"-0.012": 0.866851940733,
			"-0.011": 1.39760702187,
			"-0.01": 2.18379940681,
			"-0.009": 7.00305335986,
			"-0.008": 9.06719897519,
			"-0.007": 14.619401782,
			"-0.006": 14.2239871154,
			"-0.005": 15.8954330556,
			"-0.004": 14.7023554224,
			"-0.003": 13.2464538035,
			"-0.002": 12.4858654452,
			"-0.001": 11.2901136007,
			"0.0": 13.5873031839,
			"0.001": 12.6709180782,
			"0.002": 14.3410569605,
			"0.003": 16.0764405088,
			"0.004": 13.1683473858,
			"0.005": 13.8298748491,
			"0.006": 4.44665304783,
			"0.007": 2.28743122627,
			"0.008": 1.63386202079,
			"0.009": 2.45057551279,
			"0.01": 3.65641855518,
			"0.011": 3.7996309547,
			"0.012": 7.96903841926,
			"0.013": 6.43920509061,
			"0.014": 2.60647593286,
			"0.015": 1.78349356325,
			"0.016": 1.12691244938,
			"0.017": 0.122043636151,
			"0.018": 0.0,
			"0.019": 0.0,
			"0.02": 0.0,
			"0.021": 0.0,
			"0.022": 0.0,
			"0.023": 0.0,
			"0.024": 0.0,
			"0.025": 0.0
		}
	}
}
