{
	 "smiles": "COC1=CC2=C(C=C1)N=CC(=O)N2", 
	 "Tm": 453.15, 
	 "num_atms": 21, 
	 "gaussian": { 
		 "optdone": 1, 
		 "sigma_profile": "yes", 
		 "theory": "DFT", 
		 "functional": "B3LYP", 
		 "basiset": "6-31G**", 
		 "properties": { 
			 "R2extent": 3144.3414, 
			 "electric_dipole_moment_norm": 4.96719049464, 
			 "electric_quadrupole_moment_norm": 19.0663222177, 
			 "total_energy": -607.729855312, 
			 "HOMO_LUMO_gap": 0.15649, 
			 "cosmo_polarized_energy": -15.15, 
			 "cosmo_cavitation_energy": 25.52, 
			 "cosmo_dispersion_energy": -19.21, 
			 "cosmo_repulsion_energy": 1.5, 
			 "cosmo_total_nonelectrostatic_energy": 7.8, 
			 "SMD_solvation_energy": 4.41 
		},
		"coords": [
			{
				"x": -1.9161360736,
				"y": -2.2392122054,
				"z": 1.3860714921,
				"element": "C" 
			},
			{
				"x": -0.8138303796,
				"y": -2.3174156224,
				"z": 0.4928410475,
				"element": "O" 
			},
			{
				"x": -0.4547248102,
				"y": -1.2052919832,
				"z": -0.1981967759,
				"element": "C" 
			},
			{
				"x": -1.0999998877,
				"y": 0.0268694697,
				"z": -0.0916557914,
				"element": "C" 
			},
			{
				"x": -0.6350023634,
				"y": 1.1058083526,
				"z": -0.8596671314,
				"element": "C" 
			},
			{
				"x": 0.4694442356,
				"y": 0.9600498606,
				"z": -1.7321179221,
				"element": "C" 
			},
			{
				"x": 1.0971796935,
				"y": -0.2993741556,
				"z": -1.8143494774,
				"element": "C" 
			},
			{
				"x": 0.650034009,
				"y": -1.3672645079,
				"z": -1.0650427304,
				"element": "C" 
			},
			{
				"x": 0.9383222993,
				"y": 2.0144381788,
				"z": -2.4950737451,
				"element": "N" 
			},
			{
				"x": 0.3475205803,
				"y": 3.1627856484,
				"z": -2.4047088239,
				"element": "C" 
			},
			{
				"x": -0.8114261138,
				"y": 3.4567893246,
				"z": -1.5383127242,
				"element": "C" 
			},
			{
				"x": -1.3703364653,
				"y": 4.5427638378,
				"z": -1.4530903837,
				"element": "O" 
			},
			{
				"x": -1.229070616,
				"y": 2.3512578725,
				"z": -0.800532325,
				"element": "N" 
			},
			{
				"x": -2.8421631859,
				"y": -1.9763305846,
				"z": 0.8595817311,
				"element": "H" 
			},
			{
				"x": -1.7344374388,
				"y": -1.5104629868,
				"z": 2.1859089523,
				"element": "H" 
			},
			{
				"x": -2.0202819234,
				"y": -3.2333374866,
				"z": 1.8222519341,
				"element": "H" 
			},
			{
				"x": -1.9483296125,
				"y": 0.1689781365,
				"z": 0.5677552558,
				"element": "H" 
			},
			{
				"x": 1.942715426,
				"y": -0.3970775539,
				"z": -2.4871226815,
				"element": "H" 
			},
			{
				"x": 1.1229686137,
				"y": -2.3413324819,
				"z": -1.1181725951,
				"element": "H" 
			},
			{
				"x": 0.7123030856,
				"y": 3.9957978232,
				"z": -3.0027739865,
				"element": "H" 
			},
			{
				"x": -2.0235490726,
				"y": 2.5106610636,
				"z": -0.1921933193,
				"element": "H" 
			}
		],
		 "valence_orbital": [ 
			{
				"type": "occ",
				"energy": -0.29736,
				"method": "rhf"
			},
			{
				"type": "occ",
				"energy": -0.29488,
				"method": "rhf"
			},
			{
				"type": "occ",
				"energy": -0.24878,
				"method": "rhf"
			},
			{
				"type": "occ",
				"energy": -0.24549,
				"method": "rhf"
			},
			{
				"type": "occ",
				"energy": -0.22021,
				"method": "rhf"
			},
			{
				"type": "unocc",
				"energy": -0.06372,
				"method": "rhf"
			},
			{
				"type": "unocc",
				"energy": -0.01381,
				"method": "rhf"
			},
			{
				"type": "unocc",
				"energy": 0.00722,
				"method": "rhf"
			},
			{
				"type": "unocc",
				"energy": 0.06917,
				"method": "rhf"
			},
			{
				"type": "unocc",
				"energy": 0.08751,
				"method": "rhf"
			}
		],
		"cosmo_sigma_profile": { 
			"-0.025": 0.0,
			"-0.024": 0.0,
			"-0.023": 0.0,
			"-0.022": 0.0,
			"-0.021": 0.0,
			"-0.02": 0.0,
			"-0.019": 0.0,
			"-0.018": 0.0,
			"-0.017": 0.0,
			"-0.016": 1.12017239642,
			"-0.015": 1.07608016613,
			"-0.014": 1.54957482247,
			"-0.013": 1.37818925405,
			"-0.012": 1.09614995002,
			"-0.011": 1.14185373098,
			"-0.01": 1.04284555663,
			"-0.009": 1.66487116286,
			"-0.008": 1.58327976677,
			"-0.007": 6.48376443564,
			"-0.006": 14.1497458162,
			"-0.005": 14.7124608623,
			"-0.004": 16.3408061683,
			"-0.003": 13.8430462542,
			"-0.002": 13.1489881711,
			"-0.001": 14.2568043237,
			"0.0": 10.5994672443,
			"0.001": 12.4571879629,
			"0.002": 17.6204028726,
			"0.003": 13.4541462398,
			"0.004": 7.84787829772,
			"0.005": 4.20852605207,
			"0.006": 3.76778108626,
			"0.007": 3.76390519999,
			"0.008": 3.24010540369,
			"0.009": 3.93188214349,
			"0.01": 2.76644476558,
			"0.011": 2.14353970871,
			"0.012": 3.15432632796,
			"0.013": 6.9392411236,
			"0.014": 3.69494578743,
			"0.015": 0.284154161119,
			"0.016": 0.0,
			"0.017": 0.0,
			"0.018": 0.0,
			"0.019": 0.0,
			"0.02": 0.0,
			"0.021": 0.0,
			"0.022": 0.0,
			"0.023": 0.0,
			"0.024": 0.0,
			"0.025": 0.0
		}
	}
}
