{
	 "smiles": "O=C1CCCCCC1C1=CC=CC=C1", 
	 "Tm": 295.15, 
	 "num_atms": 30, 
	 "gaussian": { 
		 "optdone": 1, 
		 "sigma_profile": "yes", 
		 "theory": "DFT", 
		 "functional": "B3LYP", 
		 "basiset": "6-31G**", 
		 "properties": { 
			 "R2extent": 3304.3717, 
			 "electric_dipole_moment_norm": 2.63152989343, 
			 "electric_quadrupole_moment_norm": 6.0533983563, 
			 "total_energy": -580.254546415, 
			 "HOMO_LUMO_gap": 0.20602, 
			 "cosmo_polarized_energy": -8.07, 
			 "cosmo_cavitation_energy": 30.53, 
			 "cosmo_dispersion_energy": -22.19, 
			 "cosmo_repulsion_energy": 1.74, 
			 "cosmo_total_nonelectrostatic_energy": 10.07, 
			 "SMD_solvation_energy": 4.79 
		},
		"coords": [
			{
				"x": -0.630141308,
				"y": -0.985490743,
				"z": -1.3264501277,
				"element": "O" 
			},
			{
				"x": -0.3271836408,
				"y": -0.6715882181,
				"z": -0.1905015353,
				"element": "C" 
			},
			{
				"x": -0.565945156,
				"y": -1.5992202192,
				"z": 0.9917845385,
				"element": "C" 
			},
			{
				"x": -1.8001032383,
				"y": -1.158128049,
				"z": 1.8474346558,
				"element": "C" 
			},
			{
				"x": -2.3481134532,
				"y": 0.2424999699,
				"z": 1.5179744356,
				"element": "C" 
			},
			{
				"x": -1.417148233,
				"y": 1.4161651336,
				"z": 1.880515725,
				"element": "C" 
			},
			{
				"x": 0.066984768,
				"y": 1.2097432925,
				"z": 1.5251789302,
				"element": "C" 
			},
			{
				"x": 0.3191470968,
				"y": 0.7062683145,
				"z": 0.0954047672,
				"element": "C" 
			},
			{
				"x": 1.7988253653,
				"y": 0.6191749242,
				"z": -0.294600703,
				"element": "C" 
			},
			{
				"x": 2.8353951467,
				"y": 0.6337347213,
				"z": 0.6475425598,
				"element": "C" 
			},
			{
				"x": 4.1704665731,
				"y": 0.5426049905,
				"z": 0.2433297344,
				"element": "C" 
			},
			{
				"x": 4.4907820497,
				"y": 0.4304794711,
				"z": -1.1084311485,
				"element": "C" 
			},
			{
				"x": 3.464620538,
				"y": 0.4078457886,
				"z": -2.0566965561,
				"element": "C" 
			},
			{
				"x": 2.1344548668,
				"y": 0.5000029453,
				"z": -1.6532982248,
				"element": "C" 
			},
			{
				"x": 0.3390069901,
				"y": -1.621019465,
				"z": 1.6091137592,
				"element": "H" 
			},
			{
				"x": -0.7188070384,
				"y": -2.6027670699,
				"z": 0.5888759762,
				"element": "H" 
			},
			{
				"x": -1.5475365536,
				"y": -1.2162591567,
				"z": 2.9128182888,
				"element": "H" 
			},
			{
				"x": -2.6044673635,
				"y": -1.8819266551,
				"z": 1.6825413376,
				"element": "H" 
			},
			{
				"x": -2.5891082838,
				"y": 0.2792415685,
				"z": 0.4477670845,
				"element": "H" 
			},
			{
				"x": -3.3035402088,
				"y": 0.3797538377,
				"z": 2.0380746654,
				"element": "H" 
			},
			{
				"x": -1.7906412849,
				"y": 2.3224396452,
				"z": 1.3869551984,
				"element": "H" 
			},
			{
				"x": -1.4800093782,
				"y": 1.6103613266,
				"z": 2.9588384497,
				"element": "H" 
			},
			{
				"x": 0.5081629023,
				"y": 0.5108601332,
				"z": 2.2451641577,
				"element": "H" 
			},
			{
				"x": 0.6026052096,
				"y": 2.1558926663,
				"z": 1.6647132442,
				"element": "H" 
			},
			{
				"x": -0.1625507727,
				"y": 1.3903678944,
				"z": -0.6144107588,
				"element": "H" 
			},
			{
				"x": 2.6142825344,
				"y": 0.7260725878,
				"z": 1.7056064999,
				"element": "H" 
			},
			{
				"x": 4.9586394932,
				"y": 0.5607974687,
				"z": 0.9910481938,
				"element": "H" 
			},
			{
				"x": 5.5285679846,
				"y": 0.3618426552,
				"z": -1.421823706,
				"element": "H" 
			},
			{
				"x": 3.7008054594,
				"y": 0.3193997241,
				"z": -3.1134792021,
				"element": "H" 
			},
			{
				"x": 1.3379489353,
				"y": 0.4633505167,
				"z": -2.3900902398,
				"element": "H" 
			}
		],
		 "valence_orbital": [ 
			{
				"type": "occ",
				"energy": -0.32223,
				"method": "rhf"
			},
			{
				"type": "occ",
				"energy": -0.31505,
				"method": "rhf"
			},
			{
				"type": "occ",
				"energy": -0.25258,
				"method": "rhf"
			},
			{
				"type": "occ",
				"energy": -0.24598,
				"method": "rhf"
			},
			{
				"type": "occ",
				"energy": -0.22778,
				"method": "rhf"
			},
			{
				"type": "unocc",
				"energy": -0.02176,
				"method": "rhf"
			},
			{
				"type": "unocc",
				"energy": 0.00151,
				"method": "rhf"
			},
			{
				"type": "unocc",
				"energy": 0.01212,
				"method": "rhf"
			},
			{
				"type": "unocc",
				"energy": 0.07654,
				"method": "rhf"
			},
			{
				"type": "unocc",
				"energy": 0.09216,
				"method": "rhf"
			}
		],
		"cosmo_sigma_profile": { 
			"-0.025": 0.0,
			"-0.024": 0.0,
			"-0.023": 0.0,
			"-0.022": 0.0,
			"-0.021": 0.0,
			"-0.02": 0.0,
			"-0.019": 0.0,
			"-0.018": 0.0,
			"-0.017": 0.0,
			"-0.016": 0.0,
			"-0.015": 0.0,
			"-0.014": 0.0,
			"-0.013": 0.0,
			"-0.012": 0.0,
			"-0.011": 0.0,
			"-0.01": 0.0,
			"-0.009": 0.0,
			"-0.008": 0.0,
			"-0.007": 0.0,
			"-0.006": 2.21607317602,
			"-0.005": 13.3023038236,
			"-0.004": 20.2274967625,
			"-0.003": 34.9740366767,
			"-0.002": 34.933152662,
			"-0.001": 34.4020591102,
			"0.0": 23.2933457445,
			"0.001": 13.2099196708,
			"0.002": 8.73535284005,
			"0.003": 7.65517904409,
			"0.004": 9.41412999852,
			"0.005": 10.4138457902,
			"0.006": 9.95396975388,
			"0.007": 2.5574380985,
			"0.008": 1.44765735874,
			"0.009": 1.53792847919,
			"0.01": 1.70400125238,
			"0.011": 2.57879185034,
			"0.012": 4.28385957387,
			"0.013": 1.81872616287,
			"0.014": 0.253584265056,
			"0.015": 0.0,
			"0.016": 0.0,
			"0.017": 0.0,
			"0.018": 0.0,
			"0.019": 0.0,
			"0.02": 0.0,
			"0.021": 0.0,
			"0.022": 0.0,
			"0.023": 0.0,
			"0.024": 0.0,
			"0.025": 0.0
		}
	}
}
