{
	 "smiles": "OCC1=CC2=C(OCO2)C=C1Cl", 
	 "Tm": 343.15, 
	 "num_atms": 19, 
	 "gaussian": { 
		 "optdone": 1, 
		 "sigma_profile": "yes", 
		 "theory": "DFT", 
		 "functional": "B3LYP", 
		 "basiset": "6-31G**", 
		 "properties": { 
			 "R2extent": 2772.5339, 
			 "electric_dipole_moment_norm": 2.15223464566, 
			 "electric_quadrupole_moment_norm": 8.38225271153, 
			 "total_energy": -994.893696322, 
			 "HOMO_LUMO_gap": 0.20022, 
			 "cosmo_polarized_energy": -9.31, 
			 "cosmo_cavitation_energy": 24.57, 
			 "cosmo_dispersion_energy": -18.96, 
			 "cosmo_repulsion_energy": 1.51, 
			 "cosmo_total_nonelectrostatic_energy": 7.13, 
			 "SMD_solvation_energy": 4.62 
		},
		"coords": [
			{
				"x": 1.5320964563,
				"y": -2.9019273836,
				"z": -0.3625042594,
				"element": "O" 
			},
			{
				"x": 1.8716625184,
				"y": -1.5294947659,
				"z": -0.2442460761,
				"element": "C" 
			},
			{
				"x": 0.717553327,
				"y": -0.591271076,
				"z": -0.5659360561,
				"element": "C" 
			},
			{
				"x": -0.5956624747,
				"y": -1.1077643755,
				"z": -0.6052752925,
				"element": "C" 
			},
			{
				"x": -1.628655319,
				"y": -0.2395621903,
				"z": -0.8856935904,
				"element": "C" 
			},
			{
				"x": -1.4085744782,
				"y": 1.1144099221,
				"z": -1.1247218582,
				"element": "C" 
			},
			{
				"x": -2.5986238749,
				"y": 1.7389138872,
				"z": -1.4016414877,
				"element": "O" 
			},
			{
				"x": -3.6135830987,
				"y": 0.7537326936,
				"z": -1.163622304,
				"element": "C" 
			},
			{
				"x": -2.9698529745,
				"y": -0.515475471,
				"z": -1.0027672262,
				"element": "O" 
			},
			{
				"x": -0.1426776531,
				"y": 1.6611371126,
				"z": -1.0897044754,
				"element": "C" 
			},
			{
				"x": 0.9100835527,
				"y": 0.7735275957,
				"z": -0.803142434,
				"element": "C" 
			},
			{
				"x": 2.5371398529,
				"y": 1.4568071509,
				"z": -0.7301864976,
				"element": "Cl" 
			},
			{
				"x": 1.3820290116,
				"y": -3.0869923113,
				"z": -1.2991859732,
				"element": "H" 
			},
			{
				"x": 2.7402981255,
				"y": -1.2751068853,
				"z": -0.8662536748,
				"element": "H" 
			},
			{
				"x": 2.1833914271,
				"y": -1.3910221066,
				"z": 0.7976221025,
				"element": "H" 
			},
			{
				"x": -0.762425069,
				"y": -2.1603541161,
				"z": -0.4119718764,
				"element": "H" 
			},
			{
				"x": -4.16125612,
				"y": 1.0076203813,
				"z": -0.2449466995,
				"element": "H" 
			},
			{
				"x": -4.2896938802,
				"y": 0.7141099349,
				"z": -2.0228881888,
				"element": "H" 
			},
			{
				"x": 0.0379506709,
				"y": 2.712612003,
				"z": -1.2736341321,
				"element": "H" 
			}
		],
		 "valence_orbital": [ 
			{
				"type": "occ",
				"energy": -0.31745,
				"method": "rhf"
			},
			{
				"type": "occ",
				"energy": -0.30007,
				"method": "rhf"
			},
			{
				"type": "occ",
				"energy": -0.28165,
				"method": "rhf"
			},
			{
				"type": "occ",
				"energy": -0.25224,
				"method": "rhf"
			},
			{
				"type": "occ",
				"energy": -0.21151,
				"method": "rhf"
			},
			{
				"type": "unocc",
				"energy": -0.01129,
				"method": "rhf"
			},
			{
				"type": "unocc",
				"energy": -0.00202,
				"method": "rhf"
			},
			{
				"type": "unocc",
				"energy": 0.02672,
				"method": "rhf"
			},
			{
				"type": "unocc",
				"energy": 0.07528,
				"method": "rhf"
			},
			{
				"type": "unocc",
				"energy": 0.09726,
				"method": "rhf"
			}
		],
		"cosmo_sigma_profile": { 
			"-0.025": 0.0,
			"-0.024": 0.0,
			"-0.023": 0.0,
			"-0.022": 0.0,
			"-0.021": 0.0,
			"-0.02": 0.0,
			"-0.019": 0.0,
			"-0.018": 0.0,
			"-0.017": 0.000995897038147,
			"-0.016": 0.603546771753,
			"-0.015": 1.035244011,
			"-0.014": 1.06519967039,
			"-0.013": 0.464395574933,
			"-0.012": 1.01800890057,
			"-0.011": 1.09562005635,
			"-0.01": 0.680011993441,
			"-0.009": 1.46180771872,
			"-0.008": 5.69834361084,
			"-0.007": 9.56944909158,
			"-0.006": 10.8421465363,
			"-0.005": 10.1884900959,
			"-0.004": 8.64473054458,
			"-0.003": 9.83385091125,
			"-0.002": 11.3487029372,
			"-0.001": 11.9306520097,
			"0.0": 12.1520552151,
			"0.001": 15.1200666431,
			"0.002": 21.6514738397,
			"0.003": 20.5975207311,
			"0.004": 10.8999476862,
			"0.005": 9.70330466571,
			"0.006": 3.41107386046,
			"0.007": 3.54215609625,
			"0.008": 4.07681749591,
			"0.009": 4.14692900704,
			"0.01": 1.95154316939,
			"0.011": 1.37618553122,
			"0.012": 1.20559516652,
			"0.013": 1.9739845403,
			"0.014": 0.899071321506,
			"0.015": 0.0,
			"0.016": 0.0,
			"0.017": 0.0,
			"0.018": 0.0,
			"0.019": 0.0,
			"0.02": 0.0,
			"0.021": 0.0,
			"0.022": 0.0,
			"0.023": 0.0,
			"0.024": 0.0,
			"0.025": 0.0
		}
	}
}
