{
	 "smiles": "COC(C)C(N)=O", 
	 "Tm": 355.15, 
	 "num_atms": 16, 
	 "gaussian": { 
		 "optdone": 1, 
		 "sigma_profile": "yes", 
		 "theory": "DFT", 
		 "functional": "B3LYP", 
		 "basiset": "6-31G**", 
		 "properties": { 
			 "R2extent": 936.0154, 
			 "electric_dipole_moment_norm": 2.75619262208, 
			 "electric_quadrupole_moment_norm": 9.95206696119, 
			 "total_energy": -363.052329292, 
			 "HOMO_LUMO_gap": 0.2613, 
			 "cosmo_polarized_energy": -11.22, 
			 "cosmo_cavitation_energy": 18.8, 
			 "cosmo_dispersion_energy": -13.93, 
			 "cosmo_repulsion_energy": 1.2, 
			 "cosmo_total_nonelectrostatic_energy": 6.07, 
			 "SMD_solvation_energy": 4.67 
		},
		"coords": [
			{
				"x": 1.7039856335,
				"y": 0.6205223991,
				"z": 0.4094941502,
				"element": "C" 
			},
			{
				"x": 1.7346603363,
				"y": -0.6555296141,
				"z": -0.2170434135,
				"element": "O" 
			},
			{
				"x": 0.5636916325,
				"y": -1.0104425525,
				"z": -0.958228746,
				"element": "C" 
			},
			{
				"x": 0.087518479,
				"y": 0.033484741,
				"z": -1.9652599214,
				"element": "C" 
			},
			{
				"x": -0.5870464954,
				"y": -1.4735879014,
				"z": -0.0354137265,
				"element": "C" 
			},
			{
				"x": -0.1749684491,
				"y": -1.891337939,
				"z": 1.1926978034,
				"element": "N" 
			},
			{
				"x": -1.7513718931,
				"y": -1.4987916412,
				"z": -0.4096558054,
				"element": "O" 
			},
			{
				"x": 0.8234892445,
				"y": 0.7450454258,
				"z": 1.0552224273,
				"element": "H" 
			},
			{
				"x": 2.6042031572,
				"y": 0.6811337038,
				"z": 1.0260513081,
				"element": "H" 
			},
			{
				"x": 1.7257743019,
				"y": 1.4392109514,
				"z": -0.320110119,
				"element": "H" 
			},
			{
				"x": 0.8732984728,
				"y": -1.9071140277,
				"z": -1.5115323709,
				"element": "H" 
			},
			{
				"x": -0.7414584042,
				"y": -0.3847587168,
				"z": -2.5385269976,
				"element": "H" 
			},
			{
				"x": 0.8999437818,
				"y": 0.3012616375,
				"z": -2.6466329936,
				"element": "H" 
			},
			{
				"x": -0.2816175069,
				"y": 0.9393961238,
				"z": -1.4769130041,
				"element": "H" 
			},
			{
				"x": -0.8516489403,
				"y": -2.2966129864,
				"z": 1.8202120329,
				"element": "H" 
			},
			{
				"x": 0.8081466495,
				"y": -1.9022796034,
				"z": 1.4142393761,
				"element": "H" 
			}
		],
		 "valence_orbital": [ 
			{
				"type": "occ",
				"energy": -0.35919,
				"method": "rhf"
			},
			{
				"type": "occ",
				"energy": -0.31963,
				"method": "rhf"
			},
			{
				"type": "occ",
				"energy": -0.2866,
				"method": "rhf"
			},
			{
				"type": "occ",
				"energy": -0.26494,
				"method": "rhf"
			},
			{
				"type": "occ",
				"energy": -0.23411,
				"method": "rhf"
			},
			{
				"type": "unocc",
				"energy": 0.02719,
				"method": "rhf"
			},
			{
				"type": "unocc",
				"energy": 0.08419,
				"method": "rhf"
			},
			{
				"type": "unocc",
				"energy": 0.10414,
				"method": "rhf"
			},
			{
				"type": "unocc",
				"energy": 0.12678,
				"method": "rhf"
			},
			{
				"type": "unocc",
				"energy": 0.13686,
				"method": "rhf"
			}
		],
		"cosmo_sigma_profile": { 
			"-0.025": 0.0,
			"-0.024": 0.0,
			"-0.023": 0.0,
			"-0.022": 0.0,
			"-0.021": 0.0,
			"-0.02": 0.0,
			"-0.019": 0.0,
			"-0.018": 0.0,
			"-0.017": 0.0,
			"-0.016": 0.0,
			"-0.015": 0.0,
			"-0.014": 0.696149995844,
			"-0.013": 1.44166691532,
			"-0.012": 1.49721519739,
			"-0.011": 2.23167717292,
			"-0.01": 1.96738889113,
			"-0.009": 1.45481658754,
			"-0.008": 1.86613762093,
			"-0.007": 2.25552674379,
			"-0.006": 4.35034728598,
			"-0.005": 6.23304201409,
			"-0.004": 15.4648149499,
			"-0.003": 18.3326123544,
			"-0.002": 18.6406389204,
			"-0.001": 10.8184493353,
			"0.0": 9.88940176993,
			"0.001": 6.96120481109,
			"0.002": 4.36595521192,
			"0.003": 3.90163288876,
			"0.004": 3.89080535401,
			"0.005": 2.14382910915,
			"0.006": 2.64871877004,
			"0.007": 2.42167172033,
			"0.008": 2.73641572198,
			"0.009": 1.86828346426,
			"0.01": 2.01339376937,
			"0.011": 2.42497015385,
			"0.012": 3.37840305214,
			"0.013": 3.51090266333,
			"0.014": 5.94194714917,
			"0.015": 1.00441927781,
			"0.016": 0.0,
			"0.017": 0.0,
			"0.018": 0.0,
			"0.019": 0.0,
			"0.02": 0.0,
			"0.021": 0.0,
			"0.022": 0.0,
			"0.023": 0.0,
			"0.024": 0.0,
			"0.025": 0.0
		}
	}
}
