{
	 "smiles": "OC(=O)C1=NN(C(=N1)C1=CC=CS1)C1=CC(F)=CC=C1", 
	 "Tm": 436.15, 
	 "num_atms": 28, 
	 "gaussian": { 
		 "optdone": 1, 
		 "sigma_profile": "yes", 
		 "theory": "DFT", 
		 "functional": "B3LYP", 
		 "basiset": "6-31G**", 
		 "properties": { 
			 "R2extent": 6542.2392, 
			 "electric_dipole_moment_norm": 8.88046312644, 
			 "electric_quadrupole_moment_norm": 17.292811968, 
			 "total_energy": -1312.91080586, 
			 "HOMO_LUMO_gap": 0.16993, 
			 "cosmo_polarized_energy": -17.64, 
			 "cosmo_cavitation_energy": 36.31, 
			 "cosmo_dispersion_energy": -26.03, 
			 "cosmo_repulsion_energy": 1.93, 
			 "cosmo_total_nonelectrostatic_energy": 12.21, 
			 "SMD_solvation_energy": 6.0 
		},
		"coords": [
			{
				"x": -3.3540270748,
				"y": -1.3352061669,
				"z": 2.9722142814,
				"element": "O" 
			},
			{
				"x": -2.9509901754,
				"y": -0.0952564278,
				"z": 2.6231366782,
				"element": "C" 
			},
			{
				"x": -3.3921156645,
				"y": 0.9052769559,
				"z": 3.1295387767,
				"element": "O" 
			},
			{
				"x": -1.9081774338,
				"y": -0.1130175082,
				"z": 1.5506346597,
				"element": "C" 
			},
			{
				"x": -1.3541764814,
				"y": 0.9728199898,
				"z": 1.0377604292,
				"element": "N" 
			},
			{
				"x": -0.4919352045,
				"y": 0.460167471,
				"z": 0.119159711,
				"element": "N" 
			},
			{
				"x": -0.5473559658,
				"y": -0.9144723834,
				"z": 0.1361263109,
				"element": "C" 
			},
			{
				"x": -1.4532053551,
				"y": -1.2875902978,
				"z": 1.0344927171,
				"element": "N" 
			},
			{
				"x": 0.2561286267,
				"y": -1.8442094873,
				"z": -0.6375826639,
				"element": "C" 
			},
			{
				"x": 1.4706753342,
				"y": -1.6802372942,
				"z": -1.2699926495,
				"element": "C" 
			},
			{
				"x": 1.950291945,
				"y": -2.8774622884,
				"z": -1.8687817193,
				"element": "C" 
			},
			{
				"x": 1.1012676338,
				"y": -3.9371154447,
				"z": -1.6848044335,
				"element": "C" 
			},
			{
				"x": -0.2972436648,
				"y": -3.4987878108,
				"z": -0.7701699936,
				"element": "S" 
			},
			{
				"x": 0.2549724874,
				"y": 1.3631948581,
				"z": -0.7011786519,
				"element": "C" 
			},
			{
				"x": 0.9810791059,
				"y": 2.3782901409,
				"z": -0.0759740294,
				"element": "C" 
			},
			{
				"x": 1.673144831,
				"y": 3.2734772932,
				"z": -0.8823232253,
				"element": "C" 
			},
			{
				"x": 2.3782005326,
				"y": 4.2567452921,
				"z": -0.2951660839,
				"element": "F" 
			},
			{
				"x": 1.6672060073,
				"y": 3.1830859765,
				"z": -2.2707240234,
				"element": "C" 
			},
			{
				"x": 0.9273476744,
				"y": 2.1624057773,
				"z": -2.8688783562,
				"element": "C" 
			},
			{
				"x": 0.2097786927,
				"y": 1.2512551315,
				"z": -2.0931129935,
				"element": "C" 
			},
			{
				"x": -2.8549961273,
				"y": -1.9789046425,
				"z": 2.4362881751,
				"element": "H" 
			},
			{
				"x": 2.0092993647,
				"y": -0.7420181377,
				"z": -1.293638467,
				"element": "H" 
			},
			{
				"x": 2.8878990909,
				"y": -2.9465778437,
				"z": -2.4076133535,
				"element": "H" 
			},
			{
				"x": 1.2184767383,
				"y": -4.9542841161,
				"z": -2.0328614263,
				"element": "H" 
			},
			{
				"x": 0.9924171732,
				"y": 2.4782318884,
				"z": 1.0023154476,
				"element": "H" 
			},
			{
				"x": 2.2245153408,
				"y": 3.9055930778,
				"z": -2.8563059559,
				"element": "H" 
			},
			{
				"x": 0.8975377161,
				"y": 2.0848640081,
				"z": -3.9509106376,
				"element": "H" 
			},
			{
				"x": -0.3816151477,
				"y": 0.4705319888,
				"z": -2.5568485231,
				"element": "H" 
			}
		],
		 "valence_orbital": [ 
			{
				"type": "occ",
				"energy": -0.28077,
				"method": "rhf"
			},
			{
				"type": "occ",
				"energy": -0.27768,
				"method": "rhf"
			},
			{
				"type": "occ",
				"energy": -0.27005,
				"method": "rhf"
			},
			{
				"type": "occ",
				"energy": -0.26823,
				"method": "rhf"
			},
			{
				"type": "occ",
				"energy": -0.24225,
				"method": "rhf"
			},
			{
				"type": "unocc",
				"energy": -0.07232,
				"method": "rhf"
			},
			{
				"type": "unocc",
				"energy": -0.04383,
				"method": "rhf"
			},
			{
				"type": "unocc",
				"energy": -0.03406,
				"method": "rhf"
			},
			{
				"type": "unocc",
				"energy": -0.02414,
				"method": "rhf"
			},
			{
				"type": "unocc",
				"energy": 0.00909,
				"method": "rhf"
			}
		],
		"cosmo_sigma_profile": { 
			"-0.025": 0.0,
			"-0.024": 0.0,
			"-0.023": 0.0,
			"-0.022": 0.0,
			"-0.021": 0.0,
			"-0.02": 0.0,
			"-0.019": 0.0,
			"-0.018": 0.0,
			"-0.017": 0.0,
			"-0.016": 0.0,
			"-0.015": 0.0586362923533,
			"-0.014": 0.424867172267,
			"-0.013": 0.359072384951,
			"-0.012": 0.833589202372,
			"-0.011": 1.43022206162,
			"-0.01": 0.832169332482,
			"-0.009": 2.84385857476,
			"-0.008": 7.12744405762,
			"-0.007": 14.3358457804,
			"-0.006": 17.3088275393,
			"-0.005": 20.2187880254,
			"-0.004": 17.9034768349,
			"-0.003": 16.0917945208,
			"-0.002": 15.8257807582,
			"-0.001": 19.7224622759,
			"0.0": 23.9089949952,
			"0.001": 23.1690243976,
			"0.002": 27.7756755451,
			"0.003": 24.1937744585,
			"0.004": 19.0270101395,
			"0.005": 4.19860498135,
			"0.006": 4.78883119445,
			"0.007": 4.3642560292,
			"0.008": 4.47849710478,
			"0.009": 5.07171754382,
			"0.01": 6.72079535693,
			"0.011": 7.10520441774,
			"0.012": 5.20313645226,
			"0.013": 0.656483033359,
			"0.014": 0.0,
			"0.015": 0.0,
			"0.016": 0.0,
			"0.017": 0.0,
			"0.018": 0.0,
			"0.019": 0.0,
			"0.02": 0.0,
			"0.021": 0.0,
			"0.022": 0.0,
			"0.023": 0.0,
			"0.024": 0.0,
			"0.025": 0.0
		}
	}
}
