{
	 "smiles": "NC1=CC(OCC(F)(F)F)=CC(OCC(F)(F)F)=C1", 
	 "Tm": 324.15, 
	 "num_atms": 28, 
	 "gaussian": { 
		 "optdone": 1, 
		 "sigma_profile": "yes", 
		 "theory": "DFT", 
		 "functional": "B3LYP", 
		 "basiset": "6-31G**", 
		 "properties": { 
			 "R2extent": 8690.5808, 
			 "electric_dipole_moment_norm": 3.53735154317, 
			 "electric_quadrupole_moment_norm": 14.6945342563, 
			 "total_energy": -1190.71786218, 
			 "HOMO_LUMO_gap": 0.21781, 
			 "cosmo_polarized_energy": -13.75, 
			 "cosmo_cavitation_energy": 35.79, 
			 "cosmo_dispersion_energy": -24.42, 
			 "cosmo_repulsion_energy": 1.79, 
			 "cosmo_total_nonelectrostatic_energy": 13.17, 
			 "SMD_solvation_energy": 8.75 
		},
		"coords": [
			{
				"x": -1.0183195127,
				"y": 0.66172429,
				"z": -2.9561568118,
				"element": "N" 
			},
			{
				"x": -0.0814301591,
				"y": 0.4643879628,
				"z": -1.9470112669,
				"element": "C" 
			},
			{
				"x": 0.9293079582,
				"y": -0.4999309845,
				"z": -2.0993959555,
				"element": "C" 
			},
			{
				"x": 1.8246314292,
				"y": -0.7300450538,
				"z": -1.0600665562,
				"element": "C" 
			},
			{
				"x": 2.7625544131,
				"y": -1.7121673621,
				"z": -1.3080866635,
				"element": "O" 
			},
			{
				"x": 4.0130918379,
				"y": -1.6731572747,
				"z": -0.6597298674,
				"element": "C" 
			},
			{
				"x": 4.1040807904,
				"y": -2.6746611386,
				"z": 0.4846063288,
				"element": "C" 
			},
			{
				"x": 3.8196171032,
				"y": -3.9214441077,
				"z": 0.0786340244,
				"element": "F" 
			},
			{
				"x": 5.3639948889,
				"y": -2.6675676795,
				"z": 0.975114288,
				"element": "F" 
			},
			{
				"x": 3.2688256062,
				"y": -2.3764981149,
				"z": 1.5047861401,
				"element": "F" 
			},
			{
				"x": 1.7538117694,
				"y": -0.0219638784,
				"z": 0.1468432182,
				"element": "C" 
			},
			{
				"x": 0.7484317929,
				"y": 0.9446453032,
				"z": 0.2724740081,
				"element": "C" 
			},
			{
				"x": 0.5714237238,
				"y": 1.703673067,
				"z": 1.4018537611,
				"element": "O" 
			},
			{
				"x": 1.4398976666,
				"y": 1.4993649781,
				"z": 2.4900351832,
				"element": "C" 
			},
			{
				"x": 1.0430882575,
				"y": 2.4795880066,
				"z": 3.5794329934,
				"element": "C" 
			},
			{
				"x": 1.8626409285,
				"y": 2.3074584022,
				"z": 4.6406226543,
				"element": "F" 
			},
			{
				"x": -0.2202187685,
				"y": 2.2859156839,
				"z": 3.9938622306,
				"element": "F" 
			},
			{
				"x": 1.1558332734,
				"y": 3.7553590357,
				"z": 3.1706005885,
				"element": "F" 
			},
			{
				"x": -0.1601674326,
				"y": 1.1969158542,
				"z": -0.7542810639,
				"element": "C" 
			},
			{
				"x": -1.4831423399,
				"y": 1.5583671605,
				"z": -2.9535299332,
				"element": "H" 
			},
			{
				"x": -0.7329754505,
				"y": 0.3752824543,
				"z": -3.8815814222,
				"element": "H" 
			},
			{
				"x": 1.0272813089,
				"y": -1.0736724689,
				"z": -3.014779915,
				"element": "H" 
			},
			{
				"x": 4.2574245196,
				"y": -0.6777058573,
				"z": -0.2754340492,
				"element": "H" 
			},
			{
				"x": 4.7722995269,
				"y": -1.9629109562,
				"z": -1.3929359271,
				"element": "H" 
			},
			{
				"x": 2.4105868196,
				"y": -0.2646316082,
				"z": 0.9679208198,
				"element": "H" 
			},
			{
				"x": 2.4871877242,
				"y": 1.6932524612,
				"z": 2.2251596265,
				"element": "H" 
			},
			{
				"x": 1.359700625,
				"y": 0.4841270746,
				"z": 2.8989505999,
				"element": "H" 
			},
			{
				"x": -0.9262583,
				"y": 1.9499947505,
				"z": -0.6035070332,
				"element": "H" 
			}
		],
		 "valence_orbital": [ 
			{
				"type": "occ",
				"energy": -0.34783,
				"method": "rhf"
			},
			{
				"type": "occ",
				"energy": -0.33304,
				"method": "rhf"
			},
			{
				"type": "occ",
				"energy": -0.279,
				"method": "rhf"
			},
			{
				"type": "occ",
				"energy": -0.2211,
				"method": "rhf"
			},
			{
				"type": "occ",
				"energy": -0.21075,
				"method": "rhf"
			},
			{
				"type": "unocc",
				"energy": 0.00706,
				"method": "rhf"
			},
			{
				"type": "unocc",
				"energy": 0.01368,
				"method": "rhf"
			},
			{
				"type": "unocc",
				"energy": 0.0767,
				"method": "rhf"
			},
			{
				"type": "unocc",
				"energy": 0.08199,
				"method": "rhf"
			},
			{
				"type": "unocc",
				"energy": 0.08551,
				"method": "rhf"
			}
		],
		"cosmo_sigma_profile": { 
			"-0.025": 0.0,
			"-0.024": 0.0,
			"-0.023": 0.0,
			"-0.022": 0.0,
			"-0.021": 0.0,
			"-0.02": 0.0,
			"-0.019": 0.0,
			"-0.018": 0.0,
			"-0.017": 0.0,
			"-0.016": 0.0,
			"-0.015": 0.0,
			"-0.014": 0.0,
			"-0.013": 0.818950171314,
			"-0.012": 2.87349335923,
			"-0.011": 2.62406600471,
			"-0.01": 3.03996781752,
			"-0.009": 7.92241919107,
			"-0.008": 13.8764566252,
			"-0.007": 13.7176791228,
			"-0.006": 11.8747064699,
			"-0.005": 8.97997925718,
			"-0.004": 9.58283711739,
			"-0.003": 8.63467799423,
			"-0.002": 7.65106902487,
			"-0.001": 9.96121370427,
			"0.0": 12.2477745816,
			"0.001": 16.2537364312,
			"0.002": 47.2678345765,
			"0.003": 52.4348731016,
			"0.004": 16.3743675744,
			"0.005": 17.5813092461,
			"0.006": 8.70589518965,
			"0.007": 4.53801401757,
			"0.008": 2.74067246931,
			"0.009": 1.984315866,
			"0.01": 0.860161714341,
			"0.011": 0.93855860603,
			"0.012": 0.514829248531,
			"0.013": 0.610577970949,
			"0.014": 0.400487172589,
			"0.015": 0.0,
			"0.016": 0.0,
			"0.017": 0.0,
			"0.018": 0.0,
			"0.019": 0.0,
			"0.02": 0.0,
			"0.021": 0.0,
			"0.022": 0.0,
			"0.023": 0.0,
			"0.024": 0.0,
			"0.025": 0.0
		}
	}
}
