{
	 "smiles": "CCC1=C(O)C2=C(C=CC=C2)N=C1C", 
	 "Tm": 553.15, 
	 "num_atms": 27, 
	 "gaussian": { 
		 "optdone": 1, 
		 "sigma_profile": "yes", 
		 "theory": "DFT", 
		 "functional": "B3LYP", 
		 "basiset": "6-31G**", 
		 "properties": { 
			 "R2extent": 3208.7024, 
			 "electric_dipole_moment_norm": 2.13097815334, 
			 "electric_quadrupole_moment_norm": 11.5279100612, 
			 "total_energy": -595.110099893, 
			 "HOMO_LUMO_gap": 0.17583, 
			 "cosmo_polarized_energy": -10.76, 
			 "cosmo_cavitation_energy": 30.0, 
			 "cosmo_dispersion_energy": -21.66, 
			 "cosmo_repulsion_energy": 1.68, 
			 "cosmo_total_nonelectrostatic_energy": 10.02, 
			 "SMD_solvation_energy": 3.68 
		},
		"coords": [
			{
				"x": -2.6735406495,
				"y": 2.2451515576,
				"z": 0.8553283049,
				"element": "C" 
			},
			{
				"x": -1.4958113824,
				"y": 1.7061546651,
				"z": 1.6895404862,
				"element": "C" 
			},
			{
				"x": -0.7810099699,
				"y": 0.545997094,
				"z": 1.0307602165,
				"element": "C" 
			},
			{
				"x": -1.2664606212,
				"y": -0.742648882,
				"z": 1.184165957,
				"element": "C" 
			},
			{
				"x": -2.3831153458,
				"y": -0.9089456093,
				"z": 1.9481423768,
				"element": "O" 
			},
			{
				"x": -0.6152856714,
				"y": -1.8470340633,
				"z": 0.5575117098,
				"element": "C" 
			},
			{
				"x": 0.5465473326,
				"y": -1.5435997366,
				"z": -0.2167449184,
				"element": "C" 
			},
			{
				"x": 1.2369872913,
				"y": -2.6070007441,
				"z": -0.857018837,
				"element": "C" 
			},
			{
				"x": 0.7984253608,
				"y": -3.9068864329,
				"z": -0.7401332757,
				"element": "C" 
			},
			{
				"x": -0.3563172512,
				"y": -4.2047836939,
				"z": 0.0216946938,
				"element": "C" 
			},
			{
				"x": -1.0483834993,
				"y": -3.1952875192,
				"z": 0.6550838867,
				"element": "C" 
			},
			{
				"x": 1.0233801605,
				"y": -0.2779947334,
				"z": -0.3729267309,
				"element": "N" 
			},
			{
				"x": 0.3848981495,
				"y": 0.7174993674,
				"z": 0.2219322783,
				"element": "C" 
			},
			{
				"x": 0.9741164573,
				"y": 2.092892372,
				"z": 0.0080459446,
				"element": "C" 
			},
			{
				"x": -3.1596064159,
				"y": 3.0834177693,
				"z": 1.3657006892,
				"element": "H" 
			},
			{
				"x": -2.3403619578,
				"y": 2.5957406498,
				"z": -0.1271482871,
				"element": "H" 
			},
			{
				"x": -3.4226722263,
				"y": 1.4641680562,
				"z": 0.6965289352,
				"element": "H" 
			},
			{
				"x": -1.8745652635,
				"y": 1.3807806875,
				"z": 2.6636826931,
				"element": "H" 
			},
			{
				"x": -0.786417907,
				"y": 2.5161353308,
				"z": 1.883357715,
				"element": "H" 
			},
			{
				"x": -2.5810819546,
				"y": -1.8490034388,
				"z": 2.0392182996,
				"element": "H" 
			},
			{
				"x": 2.116815638,
				"y": -2.3488211695,
				"z": -1.4373331338,
				"element": "H" 
			},
			{
				"x": 1.3359197523,
				"y": -4.7104546842,
				"z": -1.2351330619,
				"element": "H" 
			},
			{
				"x": -0.6994191684,
				"y": -5.2316860262,
				"z": 0.1043258225,
				"element": "H" 
			},
			{
				"x": -1.9388033929,
				"y": -3.4574540284,
				"z": 1.224479273,
				"element": "H" 
			},
			{
				"x": 0.2364281731,
				"y": 2.7960147912,
				"z": -0.3939244367,
				"element": "H" 
			},
			{
				"x": 1.8065975205,
				"y": 2.0130626777,
				"z": -0.6918479458,
				"element": "H" 
			},
			{
				"x": 1.347836841,
				"y": 2.5201857431,
				"z": 0.9464113451,
				"element": "H" 
			}
		],
		 "valence_orbital": [ 
			{
				"type": "occ",
				"energy": -0.32532,
				"method": "rhf"
			},
			{
				"type": "occ",
				"energy": -0.27275,
				"method": "rhf"
			},
			{
				"type": "occ",
				"energy": -0.2442,
				"method": "rhf"
			},
			{
				"type": "occ",
				"energy": -0.23875,
				"method": "rhf"
			},
			{
				"type": "occ",
				"energy": -0.2158,
				"method": "rhf"
			},
			{
				"type": "unocc",
				"energy": -0.03997,
				"method": "rhf"
			},
			{
				"type": "unocc",
				"energy": -0.0114,
				"method": "rhf"
			},
			{
				"type": "unocc",
				"energy": 0.03333,
				"method": "rhf"
			},
			{
				"type": "unocc",
				"energy": 0.05187,
				"method": "rhf"
			},
			{
				"type": "unocc",
				"energy": 0.08506,
				"method": "rhf"
			}
		],
		"cosmo_sigma_profile": { 
			"-0.025": 0.0,
			"-0.024": 0.0,
			"-0.023": 0.0,
			"-0.022": 0.0,
			"-0.021": 0.0,
			"-0.02": 0.0,
			"-0.019": 0.0,
			"-0.018": 0.513889054118,
			"-0.017": 1.20468799733,
			"-0.016": 0.971224900831,
			"-0.015": 0.659103639946,
			"-0.014": 0.998741137053,
			"-0.013": 1.01031541174,
			"-0.012": 0.582027200677,
			"-0.011": 1.50795033105,
			"-0.01": 1.1490912075,
			"-0.009": 0.774131062555,
			"-0.008": 1.14469029735,
			"-0.007": 1.70285160594,
			"-0.006": 5.51044948704,
			"-0.005": 9.69077079,
			"-0.004": 12.2993935486,
			"-0.003": 20.1657843904,
			"-0.002": 25.0371569056,
			"-0.001": 22.3323402101,
			"0.0": 23.434631115,
			"0.001": 23.2047873905,
			"0.002": 21.6185975936,
			"0.003": 16.3394519005,
			"0.004": 15.4386364454,
			"0.005": 11.1415991032,
			"0.006": 4.08170837329,
			"0.007": 2.75643097862,
			"0.008": 3.60185941334,
			"0.009": 1.63023420988,
			"0.01": 1.39179075603,
			"0.011": 1.42815778237,
			"0.012": 1.22895840991,
			"0.013": 0.635197568283,
			"0.014": 0.674685223607,
			"0.015": 0.668825757098,
			"0.016": 0.706617745441,
			"0.017": 0.0464743332177,
			"0.018": 0.0,
			"0.019": 0.0,
			"0.02": 0.0,
			"0.021": 0.0,
			"0.022": 0.0,
			"0.023": 0.0,
			"0.024": 0.0,
			"0.025": 0.0
		}
	}
}
