{
	 "smiles": "OC(=O)C1=C(Cl)C=CC(O)=C1", 
	 "Tm": 452.15, 
	 "num_atms": 16, 
	 "gaussian": { 
		 "optdone": 1, 
		 "sigma_profile": "yes", 
		 "theory": "DFT", 
		 "functional": "B3LYP", 
		 "basiset": "6-31G**", 
		 "properties": { 
			 "R2extent": 2335.9186, 
			 "electric_dipole_moment_norm": 6.13649894402, 
			 "electric_quadrupole_moment_norm": 6.27843768624, 
			 "total_energy": -955.621593074, 
			 "HOMO_LUMO_gap": 0.18491, 
			 "cosmo_polarized_energy": -15.72, 
			 "cosmo_cavitation_energy": 22.36, 
			 "cosmo_dispersion_energy": -17.11, 
			 "cosmo_repulsion_energy": 1.36, 
			 "cosmo_total_nonelectrostatic_energy": 6.61, 
			 "SMD_solvation_energy": 5.19 
		},
		"coords": [
			{
				"x": 1.4551053766,
				"y": -0.1612449771,
				"z": -2.4596168097,
				"element": "O" 
			},
			{
				"x": 0.6577337144,
				"y": 0.3323193703,
				"z": -1.4980328743,
				"element": "C" 
			},
			{
				"x": 0.1890078378,
				"y": 1.4417861315,
				"z": -1.6165481333,
				"element": "O" 
			},
			{
				"x": 0.3514150604,
				"y": -0.5124523024,
				"z": -0.2696862768,
				"element": "C" 
			},
			{
				"x": 0.8064853896,
				"y": -1.8059023941,
				"z": 0.0532065335,
				"element": "C" 
			},
			{
				"x": 1.8955627389,
				"y": -2.7469154187,
				"z": -0.9864948618,
				"element": "Cl" 
			},
			{
				"x": 0.4184645907,
				"y": -2.4323384272,
				"z": 1.2355269152,
				"element": "C" 
			},
			{
				"x": -0.4330190161,
				"y": -1.7880391632,
				"z": 2.1274832676,
				"element": "C" 
			},
			{
				"x": -0.8993885672,
				"y": -0.5032339416,
				"z": 1.8311421302,
				"element": "C" 
			},
			{
				"x": -1.7335232313,
				"y": 0.1923574512,
				"z": 2.6509209301,
				"element": "O" 
			},
			{
				"x": -0.5044620317,
				"y": 0.1148205326,
				"z": 0.6451657814,
				"element": "C" 
			},
			{
				"x": 1.7670053835,
				"y": -1.0567412051,
				"z": -2.24773621,
				"element": "H" 
			},
			{
				"x": 0.7854209693,
				"y": -3.4281702363,
				"z": 1.4569363303,
				"element": "H" 
			},
			{
				"x": -0.7287210449,
				"y": -2.2877103067,
				"z": 3.0468002558,
				"element": "H" 
			},
			{
				"x": -1.9352846161,
				"y": -0.3349774505,
				"z": 3.4347683135,
				"element": "H" 
			},
			{
				"x": -0.8602025537,
				"y": 1.1100423374,
				"z": 0.4078647085,
				"element": "H" 
			}
		],
		 "valence_orbital": [ 
			{
				"type": "occ",
				"energy": -0.33839,
				"method": "rhf"
			},
			{
				"type": "occ",
				"energy": -0.31306,
				"method": "rhf"
			},
			{
				"type": "occ",
				"energy": -0.28085,
				"method": "rhf"
			},
			{
				"type": "occ",
				"energy": -0.27629,
				"method": "rhf"
			},
			{
				"type": "occ",
				"energy": -0.24543,
				"method": "rhf"
			},
			{
				"type": "unocc",
				"energy": -0.06052,
				"method": "rhf"
			},
			{
				"type": "unocc",
				"energy": -0.02293,
				"method": "rhf"
			},
			{
				"type": "unocc",
				"energy": -0.00156,
				"method": "rhf"
			},
			{
				"type": "unocc",
				"energy": 0.05095,
				"method": "rhf"
			},
			{
				"type": "unocc",
				"energy": 0.05321,
				"method": "rhf"
			}
		],
		"cosmo_sigma_profile": { 
			"-0.025": 0.0,
			"-0.024": 0.0,
			"-0.023": 0.0,
			"-0.022": 0.0,
			"-0.021": 0.0,
			"-0.02": 0.0,
			"-0.019": 0.2765820803,
			"-0.018": 1.29990234304,
			"-0.017": 0.911188858813,
			"-0.016": 1.16265396789,
			"-0.015": 1.49629775892,
			"-0.014": 1.01165705586,
			"-0.013": 0.96340810972,
			"-0.012": 0.937582633334,
			"-0.011": 1.62411061267,
			"-0.01": 2.30139248082,
			"-0.009": 3.30270853159,
			"-0.008": 5.74298832022,
			"-0.007": 6.53896315262,
			"-0.006": 6.90363734685,
			"-0.005": 6.05100776838,
			"-0.004": 6.86261516099,
			"-0.003": 9.83610082354,
			"-0.002": 8.98362088247,
			"-0.001": 10.9063747322,
			"0.0": 13.0590418715,
			"0.001": 22.7036380071,
			"0.002": 17.6624069702,
			"0.003": 9.75152700871,
			"0.004": 4.56702739104,
			"0.005": 3.67070268485,
			"0.006": 3.0967223067,
			"0.007": 3.86947521147,
			"0.008": 3.87643585955,
			"0.009": 5.06632691741,
			"0.01": 6.14290648826,
			"0.011": 6.42148861194,
			"0.012": 3.56820662939,
			"0.013": 1.30108723109,
			"0.014": 0.0303611995752,
			"0.015": 0.0,
			"0.016": 0.0,
			"0.017": 0.0,
			"0.018": 0.0,
			"0.019": 0.0,
			"0.02": 0.0,
			"0.021": 0.0,
			"0.022": 0.0,
			"0.023": 0.0,
			"0.024": 0.0,
			"0.025": 0.0
		}
	}
}
