{
	 "smiles": "O=C(C1CCOCC1)C1=CN=CC=C1", 
	 "Tm": 317.15, 
	 "num_atms": 27, 
	 "gaussian": { 
		 "optdone": 1, 
		 "sigma_profile": "yes", 
		 "theory": "DFT", 
		 "functional": "B3LYP", 
		 "basiset": "6-31G**", 
		 "properties": { 
			 "R2extent": 3465.6062, 
			 "electric_dipole_moment_norm": 1.65739738747, 
			 "electric_quadrupole_moment_norm": 11.1539567491, 
			 "total_energy": -632.176379693, 
			 "HOMO_LUMO_gap": 0.17608, 
			 "cosmo_polarized_energy": -11.48, 
			 "cosmo_cavitation_energy": 28.91, 
			 "cosmo_dispersion_energy": -21.35, 
			 "cosmo_repulsion_energy": 1.67, 
			 "cosmo_total_nonelectrostatic_energy": 9.23, 
			 "SMD_solvation_energy": 3.58 
		},
		"coords": [
			{
				"x": -0.2903260573,
				"y": 3.236654169,
				"z": 0.3104557345,
				"element": "O" 
			},
			{
				"x": 0.0658473852,
				"y": 2.0738311237,
				"z": 0.1769166763,
				"element": "C" 
			},
			{
				"x": -0.4341562037,
				"y": 1.282082209,
				"z": -1.0324270485,
				"element": "C" 
			},
			{
				"x": -1.3505842214,
				"y": 0.0918486887,
				"z": -0.6681722718,
				"element": "C" 
			},
			{
				"x": -1.9911283124,
				"y": -0.4678061285,
				"z": -1.9571027702,
				"element": "C" 
			},
			{
				"x": -1.1763814143,
				"y": -0.2821624924,
				"z": -3.1131464509,
				"element": "O" 
			},
			{
				"x": 0.2101257238,
				"y": -0.3886305298,
				"z": -2.8261912913,
				"element": "C" 
			},
			{
				"x": 0.6888251906,
				"y": 0.8267310726,
				"z": -2.0105227712,
				"element": "C" 
			},
			{
				"x": 0.9725929061,
				"y": 1.4740335565,
				"z": 1.222170722,
				"element": "C" 
			},
			{
				"x": 1.4769181987,
				"y": 0.1640346369,
				"z": 1.2116396065,
				"element": "C" 
			},
			{
				"x": 2.2767561966,
				"y": -0.3419080486,
				"z": 2.1580534147,
				"element": "N" 
			},
			{
				"x": 2.611568768,
				"y": 0.460999342,
				"z": 3.1744352054,
				"element": "C" 
			},
			{
				"x": 2.1726912791,
				"y": 1.7829825507,
				"z": 3.2913116695,
				"element": "C" 
			},
			{
				"x": 1.3435363954,
				"y": 2.2925623846,
				"z": 2.3012568017,
				"element": "C" 
			},
			{
				"x": -1.0574532063,
				"y": 2.0076679588,
				"z": -1.5628488232,
				"element": "H" 
			},
			{
				"x": -2.1394272981,
				"y": 0.410062312,
				"z": 0.0218778026,
				"element": "H" 
			},
			{
				"x": -0.7876140856,
				"y": -0.6920977152,
				"z": -0.1538543252,
				"element": "H" 
			},
			{
				"x": -2.2223711443,
				"y": -1.5371963252,
				"z": -1.8256253357,
				"element": "H" 
			},
			{
				"x": -2.9290655853,
				"y": 0.0532400673,
				"z": -2.1752484464,
				"element": "H" 
			},
			{
				"x": 0.4229713343,
				"y": -1.3287793886,
				"z": -2.2907602821,
				"element": "H" 
			},
			{
				"x": 0.7241005074,
				"y": -0.4414545848,
				"z": -3.7898956601,
				"element": "H" 
			},
			{
				"x": 1.6168199375,
				"y": 0.5759571158,
				"z": -1.4865622498,
				"element": "H" 
			},
			{
				"x": 0.9227206295,
				"y": 1.6598701863,
				"z": -2.6804511511,
				"element": "H" 
			},
			{
				"x": 1.2339533678,
				"y": -0.5211046763,
				"z": 0.4055000077,
				"element": "H" 
			},
			{
				"x": 3.2621556932,
				"y": 0.0272063961,
				"z": 3.931980027,
				"element": "H" 
			},
			{
				"x": 2.4768761551,
				"y": 2.3894351527,
				"z": 4.1386547062,
				"element": "H" 
			},
			{
				"x": 0.9666478604,
				"y": 3.3094409665,
				"z": 2.3303565034,
				"element": "H" 
			}
		],
		 "valence_orbital": [ 
			{
				"type": "occ",
				"energy": -0.29534,
				"method": "rhf"
			},
			{
				"type": "occ",
				"energy": -0.27489,
				"method": "rhf"
			},
			{
				"type": "occ",
				"energy": -0.27165,
				"method": "rhf"
			},
			{
				"type": "occ",
				"energy": -0.25771,
				"method": "rhf"
			},
			{
				"type": "occ",
				"energy": -0.24486,
				"method": "rhf"
			},
			{
				"type": "unocc",
				"energy": -0.06878,
				"method": "rhf"
			},
			{
				"type": "unocc",
				"energy": -0.03322,
				"method": "rhf"
			},
			{
				"type": "unocc",
				"energy": 0.02352,
				"method": "rhf"
			},
			{
				"type": "unocc",
				"energy": 0.06729,
				"method": "rhf"
			},
			{
				"type": "unocc",
				"energy": 0.0982,
				"method": "rhf"
			}
		],
		"cosmo_sigma_profile": { 
			"-0.025": 0.0,
			"-0.024": 0.0,
			"-0.023": 0.0,
			"-0.022": 0.0,
			"-0.021": 0.0,
			"-0.02": 0.0,
			"-0.019": 0.0,
			"-0.018": 0.0,
			"-0.017": 0.0,
			"-0.016": 0.0,
			"-0.015": 0.0,
			"-0.014": 0.0,
			"-0.013": 0.0,
			"-0.012": 0.0,
			"-0.011": 0.0,
			"-0.01": 0.0,
			"-0.009": 0.139176690747,
			"-0.008": 1.67550812647,
			"-0.007": 7.42621012717,
			"-0.006": 9.25536159157,
			"-0.005": 15.0404174216,
			"-0.004": 27.8648119353,
			"-0.003": 31.2463258334,
			"-0.002": 24.3202094137,
			"-0.001": 16.5525287207,
			"0.0": 16.2115905952,
			"0.001": 17.3288485299,
			"0.002": 9.99595821688,
			"0.003": 4.70689598413,
			"0.004": 5.80205767684,
			"0.005": 3.98068913476,
			"0.006": 3.43351678425,
			"0.007": 5.1122647678,
			"0.008": 3.0192031357,
			"0.009": 3.31129233096,
			"0.01": 5.17104721751,
			"0.011": 5.03184914558,
			"0.012": 4.75491927567,
			"0.013": 3.92641253351,
			"0.014": 1.57395909063,
			"0.015": 0.873985162626,
			"0.016": 0.660386638085,
			"0.017": 0.0349268933718,
			"0.018": 0.0,
			"0.019": 0.0,
			"0.02": 0.0,
			"0.021": 0.0,
			"0.022": 0.0,
			"0.023": 0.0,
			"0.024": 0.0,
			"0.025": 0.0
		}
	}
}
