{
	 "smiles": "CC1CCN(CCCC(N)=NO)CC1", 
	 "Tm": 372.15, 
	 "num_atms": 35, 
	 "gaussian": { 
		 "optdone": 1, 
		 "sigma_profile": "yes", 
		 "theory": "DFT", 
		 "functional": "B3LYP", 
		 "basiset": "6-31G**", 
		 "properties": { 
			 "R2extent": 4178.5318, 
			 "electric_dipole_moment_norm": 2.76497585885, 
			 "electric_quadrupole_moment_norm": 5.11250240978, 
			 "total_energy": -633.166405828, 
			 "HOMO_LUMO_gap": 0.24555, 
			 "cosmo_polarized_energy": -10.14, 
			 "cosmo_cavitation_energy": 34.18, 
			 "cosmo_dispersion_energy": -24.34, 
			 "cosmo_repulsion_energy": 1.94, 
			 "cosmo_total_nonelectrostatic_energy": 11.78, 
			 "SMD_solvation_energy": 4.69 
		},
		"coords": [
			{
				"x": 3.3236211402,
				"y": -0.7659146701,
				"z": -2.3801216232,
				"element": "C" 
			},
			{
				"x": 2.094499029,
				"y": -1.1508747798,
				"z": -1.5512085739,
				"element": "C" 
			},
			{
				"x": 0.8193413817,
				"y": -0.4473931539,
				"z": -2.0416449217,
				"element": "C" 
			},
			{
				"x": -0.3905798968,
				"y": -0.7868483272,
				"z": -1.1663504643,
				"element": "C" 
			},
			{
				"x": -0.1461162196,
				"y": -0.4436498197,
				"z": 0.2403376068,
				"element": "N" 
			},
			{
				"x": -1.3167834612,
				"y": -0.6865318585,
				"z": 1.0965822598,
				"element": "C" 
			},
			{
				"x": -2.5484805599,
				"y": 0.1750902109,
				"z": 0.7726709399,
				"element": "C" 
			},
			{
				"x": -2.3004167946,
				"y": 1.6851348694,
				"z": 0.5663877638,
				"element": "C" 
			},
			{
				"x": -1.6139269147,
				"y": 2.4038540824,
				"z": 1.7007787987,
				"element": "C" 
			},
			{
				"x": -0.3083027424,
				"y": 2.0839807501,
				"z": 1.9648518951,
				"element": "N" 
			},
			{
				"x": -2.310009796,
				"y": 3.2742454782,
				"z": 2.3555862049,
				"element": "N" 
			},
			{
				"x": -1.4836669004,
				"y": 3.8587704335,
				"z": 3.3747928296,
				"element": "O" 
			},
			{
				"x": 1.0244913335,
				"y": -1.1703467146,
				"z": 0.7519520903,
				"element": "C" 
			},
			{
				"x": 2.2843921168,
				"y": -0.8488434265,
				"z": -0.0562283158,
				"element": "C" 
			},
			{
				"x": 3.1822015344,
				"y": -1.0097728285,
				"z": -3.4388369098,
				"element": "H" 
			},
			{
				"x": 4.2193564998,
				"y": -1.2921807127,
				"z": -2.032138859,
				"element": "H" 
			},
			{
				"x": 3.5221936069,
				"y": 0.310384139,
				"z": -2.3106340394,
				"element": "H" 
			},
			{
				"x": 1.9362123619,
				"y": -2.2360751202,
				"z": -1.6536156132,
				"element": "H" 
			},
			{
				"x": 0.9756208573,
				"y": 0.639849504,
				"z": -2.0253298163,
				"element": "H" 
			},
			{
				"x": 0.6039273875,
				"y": -0.7253037328,
				"z": -3.080769025,
				"element": "H" 
			},
			{
				"x": -1.2656628104,
				"y": -0.2333795466,
				"z": -1.5191004307,
				"element": "H" 
			},
			{
				"x": -0.6306953594,
				"y": -1.8647415654,
				"z": -1.2689424428,
				"element": "H" 
			},
			{
				"x": -1.6166662154,
				"y": -1.752098093,
				"z": 1.0636626379,
				"element": "H" 
			},
			{
				"x": -1.0035225584,
				"y": -0.4763007896,
				"z": 2.1234669447,
				"element": "H" 
			},
			{
				"x": -3.0517491641,
				"y": -0.2049672111,
				"z": -0.1247337298,
				"element": "H" 
			},
			{
				"x": -3.2599982928,
				"y": 0.0394113535,
				"z": 1.5956983101,
				"element": "H" 
			},
			{
				"x": -1.7025055794,
				"y": 1.8339963696,
				"z": -0.3416977189,
				"element": "H" 
			},
			{
				"x": -3.2613040004,
				"y": 2.1811813525,
				"z": 0.4077307245,
				"element": "H" 
			},
			{
				"x": 0.19910028,
				"y": 2.7239553642,
				"z": 2.5565104368,
				"element": "H" 
			},
			{
				"x": 0.1833564772,
				"y": 1.5531711784,
				"z": 1.2563743209,
				"element": "H" 
			},
			{
				"x": -2.0740148582,
				"y": 4.5284351319,
				"z": 3.7388344632,
				"element": "H" 
			},
			{
				"x": 0.8470379963,
				"y": -2.2647250243,
				"z": 0.7355750751,
				"element": "H" 
			},
			{
				"x": 1.1670580248,
				"y": -0.8882130611,
				"z": 1.8013180073,
				"element": "H" 
			},
			{
				"x": 2.5303857751,
				"y": 0.2147937793,
				"z": 0.0688674781,
				"element": "H" 
			},
			{
				"x": 3.1290063213,
				"y": -1.4214935614,
				"z": 0.3464736962,
				"element": "H" 
			}
		],
		 "valence_orbital": [ 
			{
				"type": "occ",
				"energy": -0.30718,
				"method": "rhf"
			},
			{
				"type": "occ",
				"energy": -0.2892,
				"method": "rhf"
			},
			{
				"type": "occ",
				"energy": -0.25438,
				"method": "rhf"
			},
			{
				"type": "occ",
				"energy": -0.22568,
				"method": "rhf"
			},
			{
				"type": "occ",
				"energy": -0.19259,
				"method": "rhf"
			},
			{
				"type": "unocc",
				"energy": 0.05296,
				"method": "rhf"
			},
			{
				"type": "unocc",
				"energy": 0.07776,
				"method": "rhf"
			},
			{
				"type": "unocc",
				"energy": 0.08734,
				"method": "rhf"
			},
			{
				"type": "unocc",
				"energy": 0.09243,
				"method": "rhf"
			},
			{
				"type": "unocc",
				"energy": 0.10186,
				"method": "rhf"
			}
		],
		"cosmo_sigma_profile": { 
			"-0.025": 0.0,
			"-0.024": 0.0,
			"-0.023": 0.0,
			"-0.022": 0.0,
			"-0.021": 0.0,
			"-0.02": 0.0,
			"-0.019": 0.0,
			"-0.018": 0.0,
			"-0.017": 0.0,
			"-0.016": 0.580716749828,
			"-0.015": 0.806702290233,
			"-0.014": 0.945551403869,
			"-0.013": 0.838762598266,
			"-0.012": 0.759266513779,
			"-0.011": 0.964307292295,
			"-0.01": 1.06736616901,
			"-0.009": 1.40610347103,
			"-0.008": 1.73310413431,
			"-0.007": 1.51145156227,
			"-0.006": 2.39741918153,
			"-0.005": 1.84152911909,
			"-0.004": 8.60954810511,
			"-0.003": 21.0416652787,
			"-0.002": 40.9761632293,
			"-0.001": 62.1232192927,
			"0.0": 39.6136198802,
			"0.001": 22.1932777119,
			"0.002": 11.4153010901,
			"0.003": 4.74609332303,
			"0.004": 4.38162736726,
			"0.005": 3.28883683429,
			"0.006": 2.97621249632,
			"0.007": 3.33711704248,
			"0.008": 4.17045600517,
			"0.009": 5.42103533447,
			"0.01": 3.57451349851,
			"0.011": 2.82411826661,
			"0.012": 2.1394625583,
			"0.013": 1.49587989753,
			"0.014": 1.12017228703,
			"0.015": 1.21411327796,
			"0.016": 0.866231311312,
			"0.017": 0.0470610313373,
			"0.018": 0.0,
			"0.019": 0.0,
			"0.02": 0.0,
			"0.021": 0.0,
			"0.022": 0.0,
			"0.023": 0.0,
			"0.024": 0.0,
			"0.025": 0.0
		}
	}
}
