{
	 "smiles": "NC(=O)C1=CNC2=C1C=CC=C2", 
	 "Tm": 475.15, 
	 "num_atms": 20, 
	 "gaussian": { 
		 "optdone": 1, 
		 "sigma_profile": "yes", 
		 "theory": "DFT", 
		 "functional": "B3LYP", 
		 "basiset": "6-31G**", 
		 "properties": { 
			 "R2extent": 2346.3295, 
			 "electric_dipole_moment_norm": 5.2869456343, 
			 "electric_quadrupole_moment_norm": 12.6929165305, 
			 "total_energy": -532.529713756, 
			 "HOMO_LUMO_gap": 0.1867, 
			 "cosmo_polarized_energy": -19.66, 
			 "cosmo_cavitation_energy": 24.15, 
			 "cosmo_dispersion_energy": -18.19, 
			 "cosmo_repulsion_energy": 1.44, 
			 "cosmo_total_nonelectrostatic_energy": 7.4, 
			 "SMD_solvation_energy": 4.68 
		},
		"coords": [
			{
				"x": 0.1113343872,
				"y": -2.4888969257,
				"z": 0.2860511184,
				"element": "N" 
			},
			{
				"x": -0.3246558581,
				"y": -1.2136457949,
				"z": -0.0345352494,
				"element": "C" 
			},
			{
				"x": -1.4842877098,
				"y": -1.0052293624,
				"z": -0.3784556946,
				"element": "O" 
			},
			{
				"x": 0.6915371968,
				"y": -0.145938918,
				"z": 0.0247372932,
				"element": "C" 
			},
			{
				"x": 2.0618461576,
				"y": -0.2821993647,
				"z": 0.1160521453,
				"element": "C" 
			},
			{
				"x": 2.6496824672,
				"y": 0.9581164636,
				"z": 0.1386684369,
				"element": "N" 
			},
			{
				"x": 1.6708440179,
				"y": 1.9364041383,
				"z": 0.0522628997,
				"element": "C" 
			},
			{
				"x": 0.4198391214,
				"y": 1.2730546564,
				"z": -0.0281263322,
				"element": "C" 
			},
			{
				"x": -0.7547196035,
				"y": 2.0377575361,
				"z": -0.1300024757,
				"element": "C" 
			},
			{
				"x": -0.645980677,
				"y": 3.4225808962,
				"z": -0.1455138488,
				"element": "C" 
			},
			{
				"x": 0.6083792659,
				"y": 4.0623440627,
				"z": -0.0620029883,
				"element": "C" 
			},
			{
				"x": 1.7857589056,
				"y": 3.33018298,
				"z": 0.0377706257,
				"element": "C" 
			},
			{
				"x": -0.6330178325,
				"y": -3.1670723823,
				"z": 0.3738412234,
				"element": "H" 
			},
			{
				"x": 0.8737449368,
				"y": -2.5915975583,
				"z": 0.939216601,
				"element": "H" 
			},
			{
				"x": 2.6701553197,
				"y": -1.1756350989,
				"z": 0.1333650564,
				"element": "H" 
			},
			{
				"x": 3.6421599247,
				"y": 1.1278981733,
				"z": 0.1678549839,
				"element": "H" 
			},
			{
				"x": -1.712245898,
				"y": 1.5361740006,
				"z": -0.2049730125,
				"element": "H" 
			},
			{
				"x": -1.5434695358,
				"y": 4.02883961,
				"z": -0.2268998064,
				"element": "H" 
			},
			{
				"x": 0.6563917197,
				"y": 5.1472791395,
				"z": -0.0779367882,
				"element": "H" 
			},
			{
				"x": 2.7528036943,
				"y": 3.8211837487,
				"z": 0.1007258124,
				"element": "H" 
			}
		],
		 "valence_orbital": [ 
			{
				"type": "occ",
				"energy": -0.27627,
				"method": "rhf"
			},
			{
				"type": "occ",
				"energy": -0.26474,
				"method": "rhf"
			},
			{
				"type": "occ",
				"energy": -0.24112,
				"method": "rhf"
			},
			{
				"type": "occ",
				"energy": -0.22514,
				"method": "rhf"
			},
			{
				"type": "occ",
				"energy": -0.20986,
				"method": "rhf"
			},
			{
				"type": "unocc",
				"energy": -0.02316,
				"method": "rhf"
			},
			{
				"type": "unocc",
				"energy": 0.01264,
				"method": "rhf"
			},
			{
				"type": "unocc",
				"energy": 0.02746,
				"method": "rhf"
			},
			{
				"type": "unocc",
				"energy": 0.06992,
				"method": "rhf"
			},
			{
				"type": "unocc",
				"energy": 0.08032,
				"method": "rhf"
			}
		],
		"cosmo_sigma_profile": { 
			"-0.025": 0.0,
			"-0.024": 0.0,
			"-0.023": 0.0,
			"-0.022": 0.0,
			"-0.021": 0.0,
			"-0.02": 0.0,
			"-0.019": 0.0,
			"-0.018": 0.0,
			"-0.017": 0.175441110401,
			"-0.016": 1.59730170462,
			"-0.015": 1.02028365949,
			"-0.014": 2.39392971702,
			"-0.013": 2.96118598062,
			"-0.012": 4.02241659496,
			"-0.011": 3.93924767974,
			"-0.01": 4.59867679823,
			"-0.009": 5.55039470422,
			"-0.008": 5.68703403338,
			"-0.007": 3.9867615632,
			"-0.006": 5.57255085475,
			"-0.005": 7.55265587015,
			"-0.004": 8.91472639182,
			"-0.003": 10.6007197864,
			"-0.002": 8.05365925761,
			"-0.001": 7.93714416431,
			"0.0": 9.7818949116,
			"0.001": 7.44119545459,
			"0.002": 10.7552414845,
			"0.003": 15.6148128005,
			"0.004": 13.3155957166,
			"0.005": 13.6822838784,
			"0.006": 12.2227368163,
			"0.007": 6.20794988197,
			"0.008": 2.38922281343,
			"0.009": 2.5359058393,
			"0.01": 2.2739892767,
			"0.011": 1.81068033999,
			"0.012": 2.35192526968,
			"0.013": 2.58702452086,
			"0.014": 4.12752688435,
			"0.015": 1.28853314231,
			"0.016": 0.0,
			"0.017": 0.0,
			"0.018": 0.0,
			"0.019": 0.0,
			"0.02": 0.0,
			"0.021": 0.0,
			"0.022": 0.0,
			"0.023": 0.0,
			"0.024": 0.0,
			"0.025": 0.0
		}
	}
}
