{
	 "smiles": "CC1=CC(F)=CC=C1CC#N", 
	 "Tm": 299.15, 
	 "num_atms": 19, 
	 "gaussian": { 
		 "optdone": 1, 
		 "sigma_profile": "yes", 
		 "theory": "DFT", 
		 "functional": "B3LYP", 
		 "basiset": "6-31G**", 
		 "properties": { 
			 "R2extent": 1956.1042, 
			 "electric_dipole_moment_norm": 3.27231413376, 
			 "electric_quadrupole_moment_norm": 15.9059343561, 
			 "total_energy": -502.354355628, 
			 "HOMO_LUMO_gap": 0.23055, 
			 "cosmo_polarized_energy": -10.35, 
			 "cosmo_cavitation_energy": 24.1, 
			 "cosmo_dispersion_energy": -16.75, 
			 "cosmo_repulsion_energy": 1.32, 
			 "cosmo_total_nonelectrostatic_energy": 8.66, 
			 "SMD_solvation_energy": 5.97 
		},
		"coords": [
			{
				"x": 1.4119161867,
				"y": 1.0866679983,
				"z": 1.5876766351,
				"element": "C" 
			},
			{
				"x": 0.7189392345,
				"y": 0.5813183274,
				"z": 0.3442594911,
				"element": "C" 
			},
			{
				"x": 0.9255971905,
				"y": 1.2282475857,
				"z": -0.8783109751,
				"element": "C" 
			},
			{
				"x": 0.2945913656,
				"y": 0.7676471868,
				"z": -2.0280979704,
				"element": "C" 
			},
			{
				"x": 0.5127862271,
				"y": 1.4135870599,
				"z": -3.1911909146,
				"element": "F" 
			},
			{
				"x": -0.551569757,
				"y": -0.3317761803,
				"z": -2.0121519885,
				"element": "C" 
			},
			{
				"x": -0.7585573393,
				"y": -0.9776096601,
				"z": -0.7937287449,
				"element": "C" 
			},
			{
				"x": -0.1396080855,
				"y": -0.5384529318,
				"z": 0.3803951692,
				"element": "C" 
			},
			{
				"x": -0.4124814476,
				"y": -1.2788320993,
				"z": 1.6833118581,
				"element": "C" 
			},
			{
				"x": 0.7314736043,
				"y": -2.0723972116,
				"z": 2.1559014585,
				"element": "C" 
			},
			{
				"x": 1.6430425498,
				"y": -2.689539343,
				"z": 2.5242933522,
				"element": "N" 
			},
			{
				"x": 0.691214086,
				"y": 1.370090676,
				"z": 2.3646201542,
				"element": "H" 
			},
			{
				"x": 2.068032737,
				"y": 0.323983682,
				"z": 2.020954725,
				"element": "H" 
			},
			{
				"x": 2.0197991087,
				"y": 1.9667719247,
				"z": 1.3660238505,
				"element": "H" 
			},
			{
				"x": 1.5777544249,
				"y": 2.092865697,
				"z": -0.9464251443,
				"element": "H" 
			},
			{
				"x": -1.0288366696,
				"y": -0.6655020128,
				"z": -2.9265732427,
				"element": "H" 
			},
			{
				"x": -1.4163981172,
				"y": -1.8418941693,
				"z": -0.7588987579,
				"element": "H" 
			},
			{
				"x": -0.6874162051,
				"y": -0.5818454631,
				"z": 2.4848378732,
				"element": "H" 
			},
			{
				"x": -1.2627790939,
				"y": -1.9570310665,
				"z": 1.5560031714,
				"element": "H" 
			}
		],
		 "valence_orbital": [ 
			{
				"type": "occ",
				"energy": -0.35221,
				"method": "rhf"
			},
			{
				"type": "occ",
				"energy": -0.32593,
				"method": "rhf"
			},
			{
				"type": "occ",
				"energy": -0.32546,
				"method": "rhf"
			},
			{
				"type": "occ",
				"energy": -0.26468,
				"method": "rhf"
			},
			{
				"type": "occ",
				"energy": -0.25013,
				"method": "rhf"
			},
			{
				"type": "unocc",
				"energy": -0.01958,
				"method": "rhf"
			},
			{
				"type": "unocc",
				"energy": -0.01509,
				"method": "rhf"
			},
			{
				"type": "unocc",
				"energy": 0.03394,
				"method": "rhf"
			},
			{
				"type": "unocc",
				"energy": 0.03742,
				"method": "rhf"
			},
			{
				"type": "unocc",
				"energy": 0.08045,
				"method": "rhf"
			}
		],
		"cosmo_sigma_profile": { 
			"-0.025": 0.0,
			"-0.024": 0.0,
			"-0.023": 0.0,
			"-0.022": 0.0,
			"-0.021": 0.0,
			"-0.02": 0.0,
			"-0.019": 0.0,
			"-0.018": 0.0,
			"-0.017": 0.0,
			"-0.016": 0.0,
			"-0.015": 0.0,
			"-0.014": 0.0,
			"-0.013": 0.0,
			"-0.012": 0.0,
			"-0.011": 0.0,
			"-0.01": 0.0,
			"-0.009": 2.9585939614,
			"-0.008": 7.32611973725,
			"-0.007": 10.013868859,
			"-0.006": 11.2400748695,
			"-0.005": 13.0007693893,
			"-0.004": 10.3583063215,
			"-0.003": 10.2294985991,
			"-0.002": 12.5017372351,
			"-0.001": 12.7794980642,
			"0.0": 14.511630708,
			"0.001": 15.1685983555,
			"0.002": 12.7743629583,
			"0.003": 14.6272329903,
			"0.004": 17.7589839965,
			"0.005": 5.83054021607,
			"0.006": 2.62907368777,
			"0.007": 2.33772588161,
			"0.008": 2.79960168464,
			"0.009": 3.6446651599,
			"0.01": 2.98161801839,
			"0.011": 2.96380989254,
			"0.012": 2.43872910136,
			"0.013": 2.02567021106,
			"0.014": 0.283053277691,
			"0.015": 0.0,
			"0.016": 0.0,
			"0.017": 0.0,
			"0.018": 0.0,
			"0.019": 0.0,
			"0.02": 0.0,
			"0.021": 0.0,
			"0.022": 0.0,
			"0.023": 0.0,
			"0.024": 0.0,
			"0.025": 0.0
		}
	}
}
