{
	 "smiles": "CCCCCSCCCCC", 
	 "Tm": 222.05, 
	 "num_atms": 33, 
	 "gaussian": { 
		 "optdone": 1, 
		 "sigma_profile": "yes", 
		 "theory": "DFT", 
		 "functional": "B3LYP", 
		 "basiset": "6-31G**", 
		 "properties": { 
			 "R2extent": 4071.9802, 
			 "electric_dipole_moment_norm": 1.73822560964, 
			 "electric_quadrupole_moment_norm": 8.62401333197, 
			 "total_energy": -792.540750927, 
			 "HOMO_LUMO_gap": 0.26038, 
			 "cosmo_polarized_energy": -4.39, 
			 "cosmo_cavitation_energy": 34.83, 
			 "cosmo_dispersion_energy": -24.03, 
			 "cosmo_repulsion_energy": 1.96, 
			 "cosmo_total_nonelectrostatic_energy": 12.77, 
			 "SMD_solvation_energy": 4.77 
		},
		"coords": [
			{
				"x": 2.9216704075,
				"y": 3.1720569498,
				"z": 1.7078536042,
				"element": "C" 
			},
			{
				"x": 1.8948122019,
				"y": 2.0387026015,
				"z": 1.6133609207,
				"element": "C" 
			},
			{
				"x": 2.5443923781,
				"y": 0.6492749137,
				"z": 1.5365684178,
				"element": "C" 
			},
			{
				"x": 1.5581923142,
				"y": -0.5199006221,
				"z": 1.3646550263,
				"element": "C" 
			},
			{
				"x": 0.6606034196,
				"y": -0.7522761453,
				"z": 2.5869823498,
				"element": "C" 
			},
			{
				"x": -0.4159353247,
				"y": -2.2448049846,
				"z": 2.4986119605,
				"element": "S" 
			},
			{
				"x": -2.0006356514,
				"y": -1.5556780631,
				"z": 1.8623286339,
				"element": "C" 
			},
			{
				"x": -2.0750075986,
				"y": -1.2353184934,
				"z": 0.3636819427,
				"element": "C" 
			},
			{
				"x": -1.9342101758,
				"y": -2.4597406125,
				"z": -0.5489367381,
				"element": "C" 
			},
			{
				"x": -2.0811382676,
				"y": -2.1543268916,
				"z": -2.0488876298,
				"element": "C" 
			},
			{
				"x": -0.9616118732,
				"y": -1.284419571,
				"z": -2.6339157152,
				"element": "C" 
			},
			{
				"x": 3.5474184967,
				"y": 3.0657938111,
				"z": 2.6014136766,
				"element": "H" 
			},
			{
				"x": 3.5883806682,
				"y": 3.175708239,
				"z": 0.8379210163,
				"element": "H" 
			},
			{
				"x": 2.4348094229,
				"y": 4.1514778429,
				"z": 1.7581290424,
				"element": "H" 
			},
			{
				"x": 1.2215038099,
				"y": 2.0915533427,
				"z": 2.4784546651,
				"element": "H" 
			},
			{
				"x": 1.2633893644,
				"y": 2.1891688535,
				"z": 0.7266592171,
				"element": "H" 
			},
			{
				"x": 3.2472835765,
				"y": 0.6366268111,
				"z": 0.6925912621,
				"element": "H" 
			},
			{
				"x": 3.153047378,
				"y": 0.4826712434,
				"z": 2.4372957281,
				"element": "H" 
			},
			{
				"x": 0.9382348342,
				"y": -0.3494604771,
				"z": 0.47592965,
				"element": "H" 
			},
			{
				"x": 2.12066125,
				"y": -1.4404929684,
				"z": 1.1706832034,
				"element": "H" 
			},
			{
				"x": 1.2815230772,
				"y": -0.9008987322,
				"z": 3.4774995643,
				"element": "H" 
			},
			{
				"x": 0.0166329686,
				"y": 0.1091251247,
				"z": 2.7913825862,
				"element": "H" 
			},
			{
				"x": -2.240650991,
				"y": -0.6693373965,
				"z": 2.4595919453,
				"element": "H" 
			},
			{
				"x": -2.7415208808,
				"y": -2.3213280539,
				"z": 2.1190753285,
				"element": "H" 
			},
			{
				"x": -1.3187355398,
				"y": -0.4819889203,
				"z": 0.1155315276,
				"element": "H" 
			},
			{
				"x": -3.0495107046,
				"y": -0.7587236827,
				"z": 0.1784523545,
				"element": "H" 
			},
			{
				"x": -2.6965078658,
				"y": -3.1973822918,
				"z": -0.2615780819,
				"element": "H" 
			},
			{
				"x": -0.9638662023,
				"y": -2.937184782,
				"z": -0.3640998639,
				"element": "H" 
			},
			{
				"x": -2.1118723582,
				"y": -3.1054364665,
				"z": -2.5954736906,
				"element": "H" 
			},
			{
				"x": -3.051569974,
				"y": -1.6711812752,
				"z": -2.2294000757,
				"element": "H" 
			},
			{
				"x": 0.0198231142,
				"y": -1.7451243136,
				"z": -2.4719226349,
				"element": "H" 
			},
			{
				"x": -1.0909002601,
				"y": -1.1493686691,
				"z": -3.7129116484,
				"element": "H" 
			},
			{
				"x": -0.9376050144,
				"y": -0.2872863206,
				"z": -2.1818275449,
				"element": "H" 
			}
		],
		 "valence_orbital": [ 
			{
				"type": "occ",
				"energy": -0.32068,
				"method": "rhf"
			},
			{
				"type": "occ",
				"energy": -0.31717,
				"method": "rhf"
			},
			{
				"type": "occ",
				"energy": -0.31105,
				"method": "rhf"
			},
			{
				"type": "occ",
				"energy": -0.28808,
				"method": "rhf"
			},
			{
				"type": "occ",
				"energy": -0.2133,
				"method": "rhf"
			},
			{
				"type": "unocc",
				"energy": 0.04708,
				"method": "rhf"
			},
			{
				"type": "unocc",
				"energy": 0.0696,
				"method": "rhf"
			},
			{
				"type": "unocc",
				"energy": 0.08213,
				"method": "rhf"
			},
			{
				"type": "unocc",
				"energy": 0.09585,
				"method": "rhf"
			},
			{
				"type": "unocc",
				"energy": 0.10414,
				"method": "rhf"
			}
		],
		"cosmo_sigma_profile": { 
			"-0.025": 0.0,
			"-0.024": 0.0,
			"-0.023": 0.0,
			"-0.022": 0.0,
			"-0.021": 0.0,
			"-0.02": 0.0,
			"-0.019": 0.0,
			"-0.018": 0.0,
			"-0.017": 0.0,
			"-0.016": 0.0,
			"-0.015": 0.0,
			"-0.014": 0.0,
			"-0.013": 0.0,
			"-0.012": 0.0,
			"-0.011": 0.0,
			"-0.01": 0.0,
			"-0.009": 0.0,
			"-0.008": 0.0,
			"-0.007": 0.0,
			"-0.006": 0.0184426060812,
			"-0.005": 3.95976965516,
			"-0.004": 9.33112990226,
			"-0.003": 19.5327237628,
			"-0.002": 47.5247564658,
			"-0.001": 50.8549863659,
			"0.0": 49.9511948086,
			"0.001": 41.4193643383,
			"0.002": 19.2117089681,
			"0.003": 4.28719579375,
			"0.004": 2.89359649957,
			"0.005": 3.71979400075,
			"0.006": 3.42666136807,
			"0.007": 3.98630247062,
			"0.008": 2.74697080401,
			"0.009": 2.82149035562,
			"0.01": 1.89265701264,
			"0.011": 1.56445143334,
			"0.012": 0.472756614519,
			"0.013": 0.0,
			"0.014": 0.0,
			"0.015": 0.0,
			"0.016": 0.0,
			"0.017": 0.0,
			"0.018": 0.0,
			"0.019": 0.0,
			"0.02": 0.0,
			"0.021": 0.0,
			"0.022": 0.0,
			"0.023": 0.0,
			"0.024": 0.0,
			"0.025": 0.0
		}
	}
}
