{
	 "smiles": "OC1=CC=C(C=C1)N1N=NN=C1S", 
	 "Tm": 443.15, 
	 "num_atms": 19, 
	 "gaussian": { 
		 "optdone": 1, 
		 "sigma_profile": "yes", 
		 "theory": "DFT", 
		 "functional": "B3LYP", 
		 "basiset": "6-31G**", 
		 "properties": { 
			 "R2extent": 3301.674, 
			 "electric_dipole_moment_norm": 7.19263097413, 
			 "electric_quadrupole_moment_norm": 24.441437434, 
			 "total_energy": -962.703939049, 
			 "HOMO_LUMO_gap": 0.20865, 
			 "cosmo_polarized_energy": -19.37, 
			 "cosmo_cavitation_energy": 26.13, 
			 "cosmo_dispersion_energy": -19.46, 
			 "cosmo_repulsion_energy": 1.48, 
			 "cosmo_total_nonelectrostatic_energy": 8.15, 
			 "SMD_solvation_energy": 2.49 
		},
		"coords": [
			{
				"x": -2.6348654521,
				"y": 2.0124226364,
				"z": 2.4956194399,
				"element": "O" 
			},
			{
				"x": -1.6672073814,
				"y": 1.2118272733,
				"z": 1.9742423849,
				"element": "C" 
			},
			{
				"x": -1.7272347403,
				"y": 0.9463071815,
				"z": 0.5998460493,
				"element": "C" 
			},
			{
				"x": -0.7628132778,
				"y": 0.1394105498,
				"z": 0.0067603218,
				"element": "C" 
			},
			{
				"x": 0.252593108,
				"y": -0.4248753742,
				"z": 0.7882878571,
				"element": "C" 
			},
			{
				"x": 0.3181636341,
				"y": -0.1596262354,
				"z": 2.1577896243,
				"element": "C" 
			},
			{
				"x": -0.6370676056,
				"y": 0.6617821542,
				"z": 2.7487313739,
				"element": "C" 
			},
			{
				"x": 1.2502036914,
				"y": -1.2483823228,
				"z": 0.1900600551,
				"element": "N" 
			},
			{
				"x": 2.5850823656,
				"y": -0.9643480978,
				"z": 0.3281862708,
				"element": "N" 
			},
			{
				"x": 3.2225728961,
				"y": -1.8905268723,
				"z": -0.2974638232,
				"element": "N" 
			},
			{
				"x": 2.3757978025,
				"y": -2.7999733583,
				"z": -0.8505314106,
				"element": "N" 
			},
			{
				"x": 1.1591645858,
				"y": -2.3941288926,
				"z": -0.5366970873,
				"element": "C" 
			},
			{
				"x": -0.2883127189,
				"y": -3.2723430656,
				"z": -1.0099825035,
				"element": "S" 
			},
			{
				"x": -2.4803508651,
				"y": 2.1370776865,
				"z": 3.4412888407,
				"element": "H" 
			},
			{
				"x": -2.5218190155,
				"y": 1.3936880576,
				"z": 0.0130191956,
				"element": "H" 
			},
			{
				"x": -0.7855091715,
				"y": -0.0391150718,
				"z": -1.0634342067,
				"element": "H" 
			},
			{
				"x": 1.1199273712,
				"y": -0.5897853704,
				"z": 2.7475653008,
				"element": "H" 
			},
			{
				"x": -0.5841531427,
				"y": 0.871733958,
				"z": 3.8142582525,
				"element": "H" 
			},
			{
				"x": -1.1380720839,
				"y": -2.5313448363,
				"z": -0.2702459354,
				"element": "H" 
			}
		],
		 "valence_orbital": [ 
			{
				"type": "occ",
				"energy": -0.29658,
				"method": "rhf"
			},
			{
				"type": "occ",
				"energy": -0.2871,
				"method": "rhf"
			},
			{
				"type": "occ",
				"energy": -0.28592,
				"method": "rhf"
			},
			{
				"type": "occ",
				"energy": -0.25969,
				"method": "rhf"
			},
			{
				"type": "occ",
				"energy": -0.24652,
				"method": "rhf"
			},
			{
				"type": "unocc",
				"energy": -0.03787,
				"method": "rhf"
			},
			{
				"type": "unocc",
				"energy": -0.03742,
				"method": "rhf"
			},
			{
				"type": "unocc",
				"energy": -0.00337,
				"method": "rhf"
			},
			{
				"type": "unocc",
				"energy": 0.00242,
				"method": "rhf"
			},
			{
				"type": "unocc",
				"energy": 0.02405,
				"method": "rhf"
			}
		],
		"cosmo_sigma_profile": { 
			"-0.025": 0.0,
			"-0.024": 0.0,
			"-0.023": 0.0,
			"-0.022": 0.0,
			"-0.021": 0.0,
			"-0.02": 0.0,
			"-0.019": 0.158158704899,
			"-0.018": 0.969945746228,
			"-0.017": 1.63740534538,
			"-0.016": 0.806797827204,
			"-0.015": 1.09160574738,
			"-0.014": 1.00314202613,
			"-0.013": 1.27538907871,
			"-0.012": 1.96311741036,
			"-0.011": 2.05468157155,
			"-0.01": 2.8269201917,
			"-0.009": 2.21016591303,
			"-0.008": 6.55555628539,
			"-0.007": 11.2734219143,
			"-0.006": 12.1558392456,
			"-0.005": 11.5591338353,
			"-0.004": 9.29805508183,
			"-0.003": 8.62852368344,
			"-0.002": 8.47663214017,
			"-0.001": 11.0534541595,
			"0.0": 11.9361879699,
			"0.001": 14.1113377688,
			"0.002": 19.8167503253,
			"0.003": 15.3525085069,
			"0.004": 8.4833946182,
			"0.005": 6.02701126225,
			"0.006": 6.09482181639,
			"0.007": 5.20107495355,
			"0.008": 6.79823357839,
			"0.009": 6.60600534945,
			"0.01": 6.07821601374,
			"0.011": 5.27279154542,
			"0.012": 2.58382338953,
			"0.013": 2.35683641635,
			"0.014": 1.21768920955,
			"0.015": 0.141795670212,
			"0.016": 0.0,
			"0.017": 0.0,
			"0.018": 0.0,
			"0.019": 0.0,
			"0.02": 0.0,
			"0.021": 0.0,
			"0.022": 0.0,
			"0.023": 0.0,
			"0.024": 0.0,
			"0.025": 0.0
		}
	}
}
