{
	 "smiles": "CC1=CC=CC=C1CCl", 
	 "Tm": 273.15, 
	 "num_atms": 18, 
	 "gaussian": { 
		 "optdone": 1, 
		 "sigma_profile": "yes", 
		 "theory": "DFT", 
		 "functional": "B3LYP", 
		 "basiset": "6-31G**", 
		 "properties": { 
			 "R2extent": 1634.3221, 
			 "electric_dipole_moment_norm": 2.28944620815, 
			 "electric_quadrupole_moment_norm": 6.40674420513, 
			 "total_energy": -770.480787333, 
			 "HOMO_LUMO_gap": 0.21726, 
			 "cosmo_polarized_energy": -5.86, 
			 "cosmo_cavitation_energy": 22.62, 
			 "cosmo_dispersion_energy": -16.69, 
			 "cosmo_repulsion_energy": 1.36, 
			 "cosmo_total_nonelectrostatic_energy": 7.28, 
			 "SMD_solvation_energy": 3.55 
		},
		"coords": [
			{
				"x": 2.4483837761,
				"y": -0.5728395954,
				"z": -0.5271416639,
				"element": "C" 
			},
			{
				"x": 1.1930299118,
				"y": -0.5763796583,
				"z": 0.3135078959,
				"element": "C" 
			},
			{
				"x": 0.668853629,
				"y": -1.7839951419,
				"z": 0.7879827742,
				"element": "C" 
			},
			{
				"x": -0.4906804703,
				"y": -1.8226565055,
				"z": 1.5638988496,
				"element": "C" 
			},
			{
				"x": -1.1531631134,
				"y": -0.6379483295,
				"z": 1.8817088273,
				"element": "C" 
			},
			{
				"x": -0.6446777273,
				"y": 0.5738681997,
				"z": 1.4172792154,
				"element": "C" 
			},
			{
				"x": 0.5195329638,
				"y": 0.6213359491,
				"z": 0.6402529755,
				"element": "C" 
			},
			{
				"x": 1.0293241537,
				"y": 1.9540188257,
				"z": 0.1816462195,
				"element": "C" 
			},
			{
				"x": 0.5435506069,
				"y": 2.3476780907,
				"z": -1.5545102386,
				"element": "Cl" 
			},
			{
				"x": 2.7902401305,
				"y": -1.5928753921,
				"z": -0.7196853069,
				"element": "H" 
			},
			{
				"x": 3.2690158504,
				"y": -0.0405704334,
				"z": -0.0298290356,
				"element": "H" 
			},
			{
				"x": 2.2843484238,
				"y": -0.0814321049,
				"z": -1.4916918656,
				"element": "H" 
			},
			{
				"x": 1.1807522253,
				"y": -2.7110288072,
				"z": 0.5426808697,
				"element": "H" 
			},
			{
				"x": -0.8728369222,
				"y": -2.7760145143,
				"z": 1.9176081179,
				"element": "H" 
			},
			{
				"x": -2.0562952818,
				"y": -0.6552573366,
				"z": 2.4843435994,
				"element": "H" 
			},
			{
				"x": -1.1569728207,
				"y": 1.5021963941,
				"z": 1.6578628586,
				"element": "H" 
			},
			{
				"x": 2.1171203453,
				"y": 2.0176773641,
				"z": 0.1856222412,
				"element": "H" 
			},
			{
				"x": 0.6198743193,
				"y": 2.7677229956,
				"z": 0.7793636664,
				"element": "H" 
			}
		],
		 "valence_orbital": [ 
			{
				"type": "occ",
				"energy": -0.34385,
				"method": "rhf"
			},
			{
				"type": "occ",
				"energy": -0.29238,
				"method": "rhf"
			},
			{
				"type": "occ",
				"energy": -0.29037,
				"method": "rhf"
			},
			{
				"type": "occ",
				"energy": -0.25239,
				"method": "rhf"
			},
			{
				"type": "occ",
				"energy": -0.24497,
				"method": "rhf"
			},
			{
				"type": "unocc",
				"energy": -0.02771,
				"method": "rhf"
			},
			{
				"type": "unocc",
				"energy": -0.00312,
				"method": "rhf"
			},
			{
				"type": "unocc",
				"energy": 0.04364,
				"method": "rhf"
			},
			{
				"type": "unocc",
				"energy": 0.08806,
				"method": "rhf"
			},
			{
				"type": "unocc",
				"energy": 0.10131,
				"method": "rhf"
			}
		],
		"cosmo_sigma_profile": { 
			"-0.025": 0.0,
			"-0.024": 0.0,
			"-0.023": 0.0,
			"-0.022": 0.0,
			"-0.021": 0.0,
			"-0.02": 0.0,
			"-0.019": 0.0,
			"-0.018": 0.0,
			"-0.017": 0.0,
			"-0.016": 0.0,
			"-0.015": 0.0,
			"-0.014": 0.0,
			"-0.013": 0.0,
			"-0.012": 0.0,
			"-0.011": 0.0,
			"-0.01": 0.0,
			"-0.009": 0.0,
			"-0.008": 0.719721043381,
			"-0.007": 5.30148591864,
			"-0.006": 9.5818870233,
			"-0.005": 14.8023347307,
			"-0.004": 16.6048163908,
			"-0.003": 13.7139408275,
			"-0.002": 13.2017003403,
			"-0.001": 12.0637906006,
			"0.0": 14.8375458053,
			"0.001": 12.0714038868,
			"0.002": 10.452040978,
			"0.003": 10.8968118202,
			"0.004": 11.8447645855,
			"0.005": 16.0644926206,
			"0.006": 11.6517758675,
			"0.007": 7.54367826019,
			"0.008": 0.302739821797,
			"0.009": 0.0,
			"0.01": 0.0,
			"0.011": 0.0,
			"0.012": 0.0,
			"0.013": 0.0,
			"0.014": 0.0,
			"0.015": 0.0,
			"0.016": 0.0,
			"0.017": 0.0,
			"0.018": 0.0,
			"0.019": 0.0,
			"0.02": 0.0,
			"0.021": 0.0,
			"0.022": 0.0,
			"0.023": 0.0,
			"0.024": 0.0,
			"0.025": 0.0
		}
	}
}
