{
	 "smiles": "NN1C=NN=C1", 
	 "Tm": 357.35, 
	 "num_atms": 10, 
	 "gaussian": { 
		 "optdone": 1, 
		 "sigma_profile": "yes", 
		 "theory": "DFT", 
		 "functional": "B3LYP", 
		 "basiset": "6-31G**", 
		 "properties": { 
			 "R2extent": 1096.0509, 
			 "electric_dipole_moment_norm": 5.84814449206, 
			 "electric_quadrupole_moment_norm": 19.5642894678, 
			 "total_energy": -297.555572438, 
			 "HOMO_LUMO_gap": 0.25864, 
			 "cosmo_polarized_energy": -19.86, 
			 "cosmo_cavitation_energy": 14.41, 
			 "cosmo_dispersion_energy": -10.85, 
			 "cosmo_repulsion_energy": 0.94, 
			 "cosmo_total_nonelectrostatic_energy": 4.5, 
			 "SMD_solvation_energy": 2.44 
		},
		"coords": [
			{
				"x": 0.4014761547,
				"y": 1.0347993023,
				"z": -0.5136855935,
				"element": "N" 
			},
			{
				"x": 0.0228944478,
				"y": 1.3199338365,
				"z": 0.8059287928,
				"element": "N" 
			},
			{
				"x": -1.2190088155,
				"y": 1.7497141148,
				"z": 1.1872912956,
				"element": "C" 
			},
			{
				"x": -1.264150126,
				"y": 1.9296987404,
				"z": 2.4832356056,
				"element": "N" 
			},
			{
				"x": -0.0105942963,
				"y": 1.6096298521,
				"z": 2.9874928989,
				"element": "N" 
			},
			{
				"x": 0.738062765,
				"y": 1.250512392,
				"z": 1.9761982176,
				"element": "C" 
			},
			{
				"x": 0.6995825006,
				"y": 0.0643019669,
				"z": -0.5725938482,
				"element": "H" 
			},
			{
				"x": 1.1809345999,
				"y": 1.6340111953,
				"z": -0.7736695896,
				"element": "H" 
			},
			{
				"x": -2.0194083425,
				"y": 1.9044929389,
				"z": 0.4789871462,
				"element": "H" 
			},
			{
				"x": 1.7725111124,
				"y": 0.9390056609,
				"z": 2.0215150747,
				"element": "H" 
			}
		],
		 "valence_orbital": [ 
			{
				"type": "occ",
				"energy": -0.3219,
				"method": "rhf"
			},
			{
				"type": "occ",
				"energy": -0.30676,
				"method": "rhf"
			},
			{
				"type": "occ",
				"energy": -0.2959,
				"method": "rhf"
			},
			{
				"type": "occ",
				"energy": -0.26578,
				"method": "rhf"
			},
			{
				"type": "occ",
				"energy": -0.24759,
				"method": "rhf"
			},
			{
				"type": "unocc",
				"energy": 0.01105,
				"method": "rhf"
			},
			{
				"type": "unocc",
				"energy": 0.04243,
				"method": "rhf"
			},
			{
				"type": "unocc",
				"energy": 0.04749,
				"method": "rhf"
			},
			{
				"type": "unocc",
				"energy": 0.11431,
				"method": "rhf"
			},
			{
				"type": "unocc",
				"energy": 0.12953,
				"method": "rhf"
			}
		],
		"cosmo_sigma_profile": { 
			"-0.025": 0.0,
			"-0.024": 0.0,
			"-0.023": 0.0,
			"-0.022": 0.0,
			"-0.021": 0.0,
			"-0.02": 0.0,
			"-0.019": 0.0,
			"-0.018": 0.0,
			"-0.017": 0.0,
			"-0.016": 0.0,
			"-0.015": 0.0163204400608,
			"-0.014": 2.45872960334,
			"-0.013": 3.88636677701,
			"-0.012": 4.28174893346,
			"-0.011": 4.09573357949,
			"-0.01": 8.44576991701,
			"-0.009": 4.74438197465,
			"-0.008": 3.81720962501,
			"-0.007": 4.03500508099,
			"-0.006": 3.08883628211,
			"-0.005": 3.1940439395,
			"-0.004": 4.3074587044,
			"-0.003": 3.57089016511,
			"-0.002": 5.16852020231,
			"-0.001": 5.21682649681,
			"0.0": 5.36113552996,
			"0.001": 2.97887262657,
			"0.002": 3.35339287747,
			"0.003": 2.85802829564,
			"0.004": 3.09095942876,
			"0.005": 2.51911672356,
			"0.006": 2.33826669964,
			"0.007": 3.34392032433,
			"0.008": 2.81419015295,
			"0.009": 2.00534846878,
			"0.01": 2.90747614186,
			"0.011": 2.67202131784,
			"0.012": 3.26358075111,
			"0.013": 3.99784836829,
			"0.014": 3.74612168935,
			"0.015": 3.26204121833,
			"0.016": 2.41217515514,
			"0.017": 1.87660864422,
			"0.018": 0.0730862039327,
			"0.019": 0.0,
			"0.02": 0.0,
			"0.021": 0.0,
			"0.022": 0.0,
			"0.023": 0.0,
			"0.024": 0.0,
			"0.025": 0.0
		}
	}
}
