{
	 "smiles": "CC(=O)CCC1=C(C2=CC=C(C)O2)C2=CC(=CC=C2O1)[N+]([O-])=O", 
	 "Tm": 397.15, 
	 "num_atms": 38, 
	 "gaussian": { 
		 "optdone": 1, 
		 "sigma_profile": "yes", 
		 "theory": "DFT", 
		 "functional": "B3LYP", 
		 "basiset": "6-31G**", 
		 "properties": { 
			 "R2extent": 9550.1707, 
			 "electric_dipole_moment_norm": 5.06347242216, 
			 "electric_quadrupole_moment_norm": 35.3330216262, 
			 "total_energy": -1087.61541961, 
			 "HOMO_LUMO_gap": 0.12432, 
			 "cosmo_polarized_energy": -15.22, 
			 "cosmo_cavitation_energy": 44.1, 
			 "cosmo_dispersion_energy": -29.99, 
			 "cosmo_repulsion_energy": 2.29, 
			 "cosmo_total_nonelectrostatic_energy": 16.4, 
			 "SMD_solvation_energy": 10.8 
		},
		"coords": [
			{
				"x": 3.7322463459,
				"y": -1.0091583549,
				"z": -4.2264633332,
				"element": "C" 
			},
			{
				"x": 2.7223051068,
				"y": -0.0492937276,
				"z": -3.6221886427,
				"element": "C" 
			},
			{
				"x": 2.6085909509,
				"y": 1.0958439242,
				"z": -4.0166377557,
				"element": "O" 
			},
			{
				"x": 1.8560679446,
				"y": -0.5962966655,
				"z": -2.4928500933,
				"element": "C" 
			},
			{
				"x": 0.8156206056,
				"y": 0.4210500686,
				"z": -1.9932018086,
				"element": "C" 
			},
			{
				"x": -0.042960156,
				"y": -0.1211687209,
				"z": -0.9045068489,
				"element": "C" 
			},
			{
				"x": 0.0112602387,
				"y": -0.0548508978,
				"z": 0.4650142738,
				"element": "C" 
			},
			{
				"x": 0.9956805169,
				"y": 0.6252531464,
				"z": 1.2794042038,
				"element": "C" 
			},
			{
				"x": 0.9978159978,
				"y": 1.0744125432,
				"z": 2.5731959322,
				"element": "C" 
			},
			{
				"x": 2.2769625904,
				"y": 1.6744588524,
				"z": 2.7970679714,
				"element": "C" 
			},
			{
				"x": 2.9785210398,
				"y": 1.5598914539,
				"z": 1.6329273932,
				"element": "C" 
			},
			{
				"x": 4.3421317567,
				"y": 1.9731909547,
				"z": 1.2057631942,
				"element": "C" 
			},
			{
				"x": 2.2088302947,
				"y": 0.9176749246,
				"z": 0.6973537721,
				"element": "O" 
			},
			{
				"x": -1.1272411713,
				"y": -0.8198570352,
				"z": 0.944753884,
				"element": "C" 
			},
			{
				"x": -1.6366541468,
				"y": -1.1670296642,
				"z": 2.1979980009,
				"element": "C" 
			},
			{
				"x": -2.7868894151,
				"y": -1.9521187316,
				"z": 2.2224125288,
				"element": "C" 
			},
			{
				"x": -3.4404297957,
				"y": -2.4051932317,
				"z": 1.0646635579,
				"element": "C" 
			},
			{
				"x": -2.9316929195,
				"y": -2.0746877742,
				"z": -0.1862877225,
				"element": "C" 
			},
			{
				"x": -1.7821464209,
				"y": -1.2915536882,
				"z": -0.2101604658,
				"element": "C" 
			},
			{
				"x": -1.1251637462,
				"y": -0.8768306103,
				"z": -1.3254926269,
				"element": "O" 
			},
			{
				"x": -3.3429900442,
				"y": -2.3300354302,
				"z": 3.5291418921,
				"element": "N" 
			},
			{
				"x": -2.7632118085,
				"y": -1.9261757986,
				"z": 4.5381822597,
				"element": "O" 
			},
			{
				"x": -4.357159297,
				"y": -3.0284512103,
				"z": 3.5413087657,
				"element": "O" 
			},
			{
				"x": 4.3774339122,
				"y": -1.4358317987,
				"z": -3.4502586329,
				"element": "H" 
			},
			{
				"x": 3.2146039548,
				"y": -1.8481134675,
				"z": -4.7064465992,
				"element": "H" 
			},
			{
				"x": 4.3394734158,
				"y": -0.4870927345,
				"z": -4.9670822068,
				"element": "H" 
			},
			{
				"x": 1.3704434879,
				"y": -1.5199786664,
				"z": -2.8347725029,
				"element": "H" 
			},
			{
				"x": 2.5155703188,
				"y": -0.8958296029,
				"z": -1.667428828,
				"element": "H" 
			},
			{
				"x": 1.3327794481,
				"y": 1.3121460224,
				"z": -1.6342851642,
				"element": "H" 
			},
			{
				"x": 0.179844085,
				"y": 0.7302071934,
				"z": -2.8288922435,
				"element": "H" 
			},
			{
				"x": 0.1785493678,
				"y": 1.0160837135,
				"z": 3.2742061506,
				"element": "H" 
			},
			{
				"x": 2.6283616783,
				"y": 2.136536784,
				"z": 3.7085141095,
				"element": "H" 
			},
			{
				"x": 4.9490500934,
				"y": 1.1111169366,
				"z": 0.9049102848,
				"element": "H" 
			},
			{
				"x": 4.3043909603,
				"y": 2.6620209715,
				"z": 0.353832539,
				"element": "H" 
			},
			{
				"x": 4.8511173902,
				"y": 2.4769456729,
				"z": 2.0304785764,
				"element": "H" 
			},
			{
				"x": -1.1745294054,
				"y": -0.8671193164,
				"z": 3.1286589727,
				"element": "H" 
			},
			{
				"x": -4.3314593758,
				"y": -3.0098497195,
				"z": 1.171030202,
				"element": "H" 
			},
			{
				"x": -3.403123799,
				"y": -2.4111163154,
				"z": -1.1025629897,
				"element": "H" 
			}
		],
		 "valence_orbital": [ 
			{
				"type": "occ",
				"energy": -0.28441,
				"method": "rhf"
			},
			{
				"type": "occ",
				"energy": -0.2676,
				"method": "rhf"
			},
			{
				"type": "occ",
				"energy": -0.2607,
				"method": "rhf"
			},
			{
				"type": "occ",
				"energy": -0.25153,
				"method": "rhf"
			},
			{
				"type": "occ",
				"energy": -0.20616,
				"method": "rhf"
			},
			{
				"type": "unocc",
				"energy": -0.08184,
				"method": "rhf"
			},
			{
				"type": "unocc",
				"energy": -0.04262,
				"method": "rhf"
			},
			{
				"type": "unocc",
				"energy": -0.02165,
				"method": "rhf"
			},
			{
				"type": "unocc",
				"energy": -0.01302,
				"method": "rhf"
			},
			{
				"type": "unocc",
				"energy": 0.01414,
				"method": "rhf"
			}
		],
		"cosmo_sigma_profile": { 
			"-0.025": 0.0,
			"-0.024": 0.0,
			"-0.023": 0.0,
			"-0.022": 0.0,
			"-0.021": 0.0,
			"-0.02": 0.0,
			"-0.019": 0.0,
			"-0.018": 0.0,
			"-0.017": 0.0,
			"-0.016": 0.0,
			"-0.015": 0.0,
			"-0.014": 0.0,
			"-0.013": 0.0,
			"-0.012": 0.0,
			"-0.011": 0.0,
			"-0.01": 0.0,
			"-0.009": 0.788319977274,
			"-0.008": 4.32610179628,
			"-0.007": 8.404639313,
			"-0.006": 18.8337520221,
			"-0.005": 25.5005986038,
			"-0.004": 27.1506264481,
			"-0.003": 27.9926883793,
			"-0.002": 29.8063062807,
			"-0.001": 38.234811658,
			"0.0": 33.7214979412,
			"0.001": 29.2424233759,
			"0.002": 22.9503125581,
			"0.003": 14.4142900576,
			"0.004": 11.3613908256,
			"0.005": 11.2798119648,
			"0.006": 8.0586326,
			"0.007": 8.45390715306,
			"0.008": 11.1494520481,
			"0.009": 5.7547025043,
			"0.01": 5.66831633261,
			"0.011": 3.68735974343,
			"0.012": 3.88869900462,
			"0.013": 1.43664563815,
			"0.014": 0.0266064819971,
			"0.015": 0.0,
			"0.016": 0.0,
			"0.017": 0.0,
			"0.018": 0.0,
			"0.019": 0.0,
			"0.02": 0.0,
			"0.021": 0.0,
			"0.022": 0.0,
			"0.023": 0.0,
			"0.024": 0.0,
			"0.025": 0.0
		}
	}
}
