{
	 "smiles": "CC1=CC(=O)NC=N1", 
	 "Tm": 412.15, 
	 "num_atms": 14, 
	 "gaussian": { 
		 "optdone": 1, 
		 "sigma_profile": "yes", 
		 "theory": "DFT", 
		 "functional": "B3LYP", 
		 "basiset": "6-31G**", 
		 "properties": { 
			 "R2extent": 1804.1188, 
			 "electric_dipole_moment_norm": 2.4749648846, 
			 "electric_quadrupole_moment_norm": 24.0762230782, 
			 "total_energy": -378.887350046, 
			 "HOMO_LUMO_gap": 0.19731, 
			 "cosmo_polarized_energy": -13.54, 
			 "cosmo_cavitation_energy": 18.21, 
			 "cosmo_dispersion_energy": -13.78, 
			 "cosmo_repulsion_energy": 1.15, 
			 "cosmo_total_nonelectrostatic_energy": 5.58, 
			 "SMD_solvation_energy": 3.13 
		},
		"coords": [
			{
				"x": 0.1834137119,
				"y": -0.8362482582,
				"z": -0.0520693407,
				"element": "C" 
			},
			{
				"x": 0.306775786,
				"y": 0.4804802378,
				"z": -0.7642961933,
				"element": "C" 
			},
			{
				"x": 0.5314218211,
				"y": 0.5719427963,
				"z": -2.1103100207,
				"element": "C" 
			},
			{
				"x": 0.6460336308,
				"y": 1.8553069177,
				"z": -2.7717885918,
				"element": "C" 
			},
			{
				"x": 0.844580209,
				"y": 2.0826645849,
				"z": -3.9566154761,
				"element": "O" 
			},
			{
				"x": 0.4967757864,
				"y": 2.9272943719,
				"z": -1.8528077149,
				"element": "N" 
			},
			{
				"x": 0.2748335006,
				"y": 2.7498902139,
				"z": -0.524551282,
				"element": "C" 
			},
			{
				"x": 0.1743391666,
				"y": 1.5932212691,
				"z": 0.053951842,
				"element": "N" 
			},
			{
				"x": 0.2943242294,
				"y": -1.6811958157,
				"z": -0.7347310579,
				"element": "H" 
			},
			{
				"x": 0.9430290884,
				"y": -0.9081790273,
				"z": 0.7337708757,
				"element": "H" 
			},
			{
				"x": -0.7905983831,
				"y": -0.9021483397,
				"z": 0.4446154692,
				"element": "H" 
			},
			{
				"x": 0.6319617379,
				"y": -0.3102483882,
				"z": -2.7317836377,
				"element": "H" 
			},
			{
				"x": 0.5661045418,
				"y": 3.8575415306,
				"z": -2.2488278949,
				"element": "H" 
			},
			{
				"x": 0.1792051733,
				"y": 3.6577779069,
				"z": 0.068843023,
				"element": "H" 
			}
		],
		 "valence_orbital": [ 
			{
				"type": "occ",
				"energy": -0.36504,
				"method": "rhf"
			},
			{
				"type": "occ",
				"energy": -0.30946,
				"method": "rhf"
			},
			{
				"type": "occ",
				"energy": -0.2832,
				"method": "rhf"
			},
			{
				"type": "occ",
				"energy": -0.25783,
				"method": "rhf"
			},
			{
				"type": "occ",
				"energy": -0.2405,
				"method": "rhf"
			},
			{
				"type": "unocc",
				"energy": -0.04319,
				"method": "rhf"
			},
			{
				"type": "unocc",
				"energy": -0.00259,
				"method": "rhf"
			},
			{
				"type": "unocc",
				"energy": 0.06961,
				"method": "rhf"
			},
			{
				"type": "unocc",
				"energy": 0.11191,
				"method": "rhf"
			},
			{
				"type": "unocc",
				"energy": 0.12354,
				"method": "rhf"
			}
		],
		"cosmo_sigma_profile": { 
			"-0.025": 0.0,
			"-0.024": 0.0,
			"-0.023": 0.0,
			"-0.022": 0.0,
			"-0.021": 0.0,
			"-0.02": 0.0,
			"-0.019": 0.0,
			"-0.018": 0.0,
			"-0.017": 0.764689575061,
			"-0.016": 1.5460333305,
			"-0.015": 1.2691924727,
			"-0.014": 1.51764179809,
			"-0.013": 0.931188856047,
			"-0.012": 1.35538942644,
			"-0.011": 1.33034719257,
			"-0.01": 2.8749150073,
			"-0.009": 3.09973202748,
			"-0.008": 1.75558690678,
			"-0.007": 2.45702302644,
			"-0.006": 5.61095856155,
			"-0.005": 7.9958221461,
			"-0.004": 8.33808987464,
			"-0.003": 10.4208570885,
			"-0.002": 13.69190513,
			"-0.001": 15.2993476112,
			"0.0": 11.4943935094,
			"0.001": 8.81025280533,
			"0.002": 5.42401335282,
			"0.003": 3.84512418788,
			"0.004": 3.39445707873,
			"0.005": 1.93229481248,
			"0.006": 2.72505001148,
			"0.007": 2.98115039574,
			"0.008": 1.05880041563,
			"0.009": 1.85562069951,
			"0.01": 3.19646688518,
			"0.011": 2.14376119784,
			"0.012": 2.44244143849,
			"0.013": 6.05345767236,
			"0.014": 5.47264560701,
			"0.015": 1.85638651883,
			"0.016": 0.197894020877,
			"0.017": 0.0,
			"0.018": 0.0,
			"0.019": 0.0,
			"0.02": 0.0,
			"0.021": 0.0,
			"0.022": 0.0,
			"0.023": 0.0,
			"0.024": 0.0,
			"0.025": 0.0
		}
	}
}
