{
	 "smiles": "FC1=CC2=C(C=C1)S(=O)(=O)CCC2=O", 
	 "Tm": 438.15, 
	 "num_atms": 21, 
	 "gaussian": { 
		 "optdone": 1, 
		 "sigma_profile": "yes", 
		 "theory": "DFT", 
		 "functional": "B3LYP", 
		 "basiset": "6-31G**", 
		 "properties": { 
			 "R2extent": 2913.4951, 
			 "electric_dipole_moment_norm": 2.09546392954, 
			 "electric_quadrupole_moment_norm": 19.0951704054, 
			 "total_energy": -1070.80164574, 
			 "HOMO_LUMO_gap": 0.18447, 
			 "cosmo_polarized_energy": -15.89, 
			 "cosmo_cavitation_energy": 26.62, 
			 "cosmo_dispersion_energy": -20.11, 
			 "cosmo_repulsion_energy": 1.48, 
			 "cosmo_total_nonelectrostatic_energy": 7.99, 
			 "SMD_solvation_energy": 4.6 
		},
		"coords": [
			{
				"x": 2.9141071394,
				"y": 1.3569601415,
				"z": -2.9859866525,
				"element": "F" 
			},
			{
				"x": 1.8651553614,
				"y": 1.0848602318,
				"z": -2.1928601964,
				"element": "C" 
			},
			{
				"x": 1.8782093727,
				"y": -0.074966986,
				"z": -1.4336943167,
				"element": "C" 
			},
			{
				"x": 0.7843161342,
				"y": -0.3686982869,
				"z": -0.6091724092,
				"element": "C" 
			},
			{
				"x": -0.2938312345,
				"y": 0.535830137,
				"z": -0.5698955589,
				"element": "C" 
			},
			{
				"x": -0.2821871933,
				"y": 1.7074640116,
				"z": -1.3282488858,
				"element": "C" 
			},
			{
				"x": 0.8035323714,
				"y": 1.987383856,
				"z": -2.1535009174,
				"element": "C" 
			},
			{
				"x": -1.761853306,
				"y": 0.2042204244,
				"z": 0.4150263466,
				"element": "S" 
			},
			{
				"x": -2.2554414977,
				"y": 1.4829112002,
				"z": 0.9456086092,
				"element": "O" 
			},
			{
				"x": -2.6621257742,
				"y": -0.6780473052,
				"z": -0.3458019408,
				"element": "O" 
			},
			{
				"x": -1.0309729324,
				"y": -0.7786064845,
				"z": 1.7446943931,
				"element": "C" 
			},
			{
				"x": -0.2926344398,
				"y": -1.9787910522,
				"z": 1.1477380176,
				"element": "C" 
			},
			{
				"x": 0.859881188,
				"y": -1.6267887138,
				"z": 0.2133955375,
				"element": "C" 
			},
			{
				"x": 1.8248777737,
				"y": -2.3652928506,
				"z": 0.1231346231,
				"element": "O" 
			},
			{
				"x": 2.719169653,
				"y": -0.7580207763,
				"z": -1.4657672824,
				"element": "H" 
			},
			{
				"x": -1.1142926806,
				"y": 2.399527492,
				"z": -1.2543204792,
				"element": "H" 
			},
			{
				"x": 0.8432548189,
				"y": 2.8895154098,
				"z": -2.7539187462,
				"element": "H" 
			},
			{
				"x": -1.8680189329,
				"y": -1.0859163978,
				"z": 2.3775338847,
				"element": "H" 
			},
			{
				"x": -0.3798739823,
				"y": -0.1122978225,
				"z": 2.3171419924,
				"element": "H" 
			},
			{
				"x": -1.0059534279,
				"y": -2.5825142491,
				"z": 0.5717887687,
				"element": "H" 
			},
			{
				"x": 0.1108815888,
				"y": -2.6192319791,
				"z": 1.9363052127,
				"element": "H" 
			}
		],
		 "valence_orbital": [ 
			{
				"type": "occ",
				"energy": -0.31153,
				"method": "rhf"
			},
			{
				"type": "occ",
				"energy": -0.30074,
				"method": "rhf"
			},
			{
				"type": "occ",
				"energy": -0.29376,
				"method": "rhf"
			},
			{
				"type": "occ",
				"energy": -0.27795,
				"method": "rhf"
			},
			{
				"type": "occ",
				"energy": -0.27615,
				"method": "rhf"
			},
			{
				"type": "unocc",
				"energy": -0.09168,
				"method": "rhf"
			},
			{
				"type": "unocc",
				"energy": -0.04549,
				"method": "rhf"
			},
			{
				"type": "unocc",
				"energy": 0.00932,
				"method": "rhf"
			},
			{
				"type": "unocc",
				"energy": 0.05015,
				"method": "rhf"
			},
			{
				"type": "unocc",
				"energy": 0.05842,
				"method": "rhf"
			}
		],
		"cosmo_sigma_profile": { 
			"-0.025": 0.0,
			"-0.024": 0.0,
			"-0.023": 0.0,
			"-0.022": 0.0,
			"-0.021": 0.0,
			"-0.02": 0.0,
			"-0.019": 0.0,
			"-0.018": 0.0,
			"-0.017": 0.0,
			"-0.016": 0.0,
			"-0.015": 0.0,
			"-0.014": 0.0,
			"-0.013": 0.0,
			"-0.012": 0.0,
			"-0.011": 0.112757155956,
			"-0.01": 3.16396070641,
			"-0.009": 7.59979895568,
			"-0.008": 10.6671358962,
			"-0.007": 15.2838379165,
			"-0.006": 13.8727871582,
			"-0.005": 10.7164906829,
			"-0.004": 9.83205048023,
			"-0.003": 8.33767243036,
			"-0.002": 15.2852852079,
			"-0.001": 20.0795625803,
			"0.0": 15.1647791306,
			"0.001": 8.17897564437,
			"0.002": 6.22501636702,
			"0.003": 13.237066418,
			"0.004": 6.70613648305,
			"0.005": 3.68912266067,
			"0.006": 2.64243268161,
			"0.007": 3.47536860308,
			"0.008": 5.02355850223,
			"0.009": 5.90149933071,
			"0.01": 10.5907441445,
			"0.011": 13.2860608825,
			"0.012": 4.41932546711,
			"0.013": 0.0,
			"0.014": 0.0,
			"0.015": 0.0,
			"0.016": 0.0,
			"0.017": 0.0,
			"0.018": 0.0,
			"0.019": 0.0,
			"0.02": 0.0,
			"0.021": 0.0,
			"0.022": 0.0,
			"0.023": 0.0,
			"0.024": 0.0,
			"0.025": 0.0
		}
	}
}
