{
	 "smiles": "CC(C)CCCC(C)C1CCC2C(CCCC12C)=CC=C1CC(O)CCC1=C", 
	 "Tm": 357.65, 
	 "num_atms": 72, 
	 "gaussian": { 
		 "optdone": 1, 
		 "sigma_profile": "yes", 
		 "theory": "DFT", 
		 "functional": "B3LYP", 
		 "basiset": "6-31G**", 
		 "properties": { 
			 "R2extent": 17642.1219, 
			 "electric_dipole_moment_norm": 1.38201950782, 
			 "electric_quadrupole_moment_norm": 13.3533442141, 
			 "total_energy": -1130.60118234, 
			 "HOMO_LUMO_gap": 0.16276, 
			 "cosmo_polarized_energy": -8.63, 
			 "cosmo_cavitation_energy": 64.21, 
			 "cosmo_dispersion_energy": -42.55, 
			 "cosmo_repulsion_energy": 3.23, 
			 "cosmo_total_nonelectrostatic_energy": 24.89, 
			 "SMD_solvation_energy": 9.33 
		},
		"coords": [
			{
				"x": 3.1381619856,
				"y": 2.3767052273,
				"z": 5.1264320104,
				"element": "C" 
			},
			{
				"x": 1.6571601657,
				"y": 2.780998244,
				"z": 5.0685353544,
				"element": "C" 
			},
			{
				"x": 0.9204930073,
				"y": 2.2961587745,
				"z": 6.3269033359,
				"element": "C" 
			},
			{
				"x": 1.0085375945,
				"y": 2.2689387935,
				"z": 3.7656129662,
				"element": "C" 
			},
			{
				"x": -0.413249329,
				"y": 2.7852973079,
				"z": 3.5000515818,
				"element": "C" 
			},
			{
				"x": -1.0533593778,
				"y": 2.2637684643,
				"z": 2.1975000753,
				"element": "C" 
			},
			{
				"x": -0.3994392077,
				"y": 2.7376627621,
				"z": 0.8781802316,
				"element": "C" 
			},
			{
				"x": -0.5766661952,
				"y": 4.2564096504,
				"z": 0.693060864,
				"element": "C" 
			},
			{
				"x": -0.7670502727,
				"y": 1.8365940216,
				"z": -0.3394019645,
				"element": "C" 
			},
			{
				"x": 0.1806402337,
				"y": 2.0610939947,
				"z": -1.5566552582,
				"element": "C" 
			},
			{
				"x": -0.609809019,
				"y": 1.6274684041,
				"z": -2.8179222554,
				"element": "C" 
			},
			{
				"x": -1.8736100067,
				"y": 0.9302899658,
				"z": -2.2799940678,
				"element": "C" 
			},
			{
				"x": -1.7375179352,
				"y": -0.5620254645,
				"z": -1.990501133,
				"element": "C" 
			},
			{
				"x": -2.9377595304,
				"y": -1.1341964478,
				"z": -1.2738889273,
				"element": "C" 
			},
			{
				"x": -3.1267207145,
				"y": -0.4210319187,
				"z": 0.078555219,
				"element": "C" 
			},
			{
				"x": -3.2990275017,
				"y": 1.0855682376,
				"z": -0.1322102206,
				"element": "C" 
			},
			{
				"x": -2.1989232328,
				"y": 1.7681799839,
				"z": -0.9800564299,
				"element": "C" 
			},
			{
				"x": -2.7452649647,
				"y": 3.1522156087,
				"z": -1.3959396316,
				"element": "C" 
			},
			{
				"x": -0.6386618291,
				"y": -1.2890184746,
				"z": -2.3029866241,
				"element": "C" 
			},
			{
				"x": -0.47539006,
				"y": -2.7243944169,
				"z": -2.1516758022,
				"element": "C" 
			},
			{
				"x": 0.6633468036,
				"y": -3.4489843506,
				"z": -2.3066931557,
				"element": "C" 
			},
			{
				"x": 0.6157084514,
				"y": -4.9633278497,
				"z": -2.3009861363,
				"element": "C" 
			},
			{
				"x": 1.063673096,
				"y": -5.5722170517,
				"z": -3.6521663617,
				"element": "C" 
			},
			{
				"x": 1.6985774201,
				"y": -6.8108839133,
				"z": -3.325429437,
				"element": "O" 
			},
			{
				"x": 2.0134443893,
				"y": -4.6210599332,
				"z": -4.4104472444,
				"element": "C" 
			},
			{
				"x": 2.885273045,
				"y": -3.8188850674,
				"z": -3.4368243664,
				"element": "C" 
			},
			{
				"x": 2.0205284765,
				"y": -2.9147503886,
				"z": -2.5635503682,
				"element": "C" 
			},
			{
				"x": 2.5103946658,
				"y": -1.7788072477,
				"z": -2.0395849561,
				"element": "C" 
			},
			{
				"x": 3.2453363297,
				"y": 1.2849243336,
				"z": 5.137042876,
				"element": "H" 
			},
			{
				"x": 3.6910124235,
				"y": 2.7555009974,
				"z": 4.2596693271,
				"element": "H" 
			},
			{
				"x": 3.6225780892,
				"y": 2.7649234984,
				"z": 6.0291246294,
				"element": "H" 
			},
			{
				"x": 1.6102844887,
				"y": 3.880792236,
				"z": 5.0528430863,
				"element": "H" 
			},
			{
				"x": 1.4097298887,
				"y": 2.6675733452,
				"z": 7.2340674796,
				"element": "H" 
			},
			{
				"x": 0.9179190615,
				"y": 1.2000264685,
				"z": 6.3776528045,
				"element": "H" 
			},
			{
				"x": -0.1200492533,
				"y": 2.6333787742,
				"z": 6.3539804449,
				"element": "H" 
			},
			{
				"x": 1.6610238155,
				"y": 2.550381033,
				"z": 2.9288872109,
				"element": "H" 
			},
			{
				"x": 0.9973285709,
				"y": 1.1684022611,
				"z": 3.7821285198,
				"element": "H" 
			},
			{
				"x": -1.0665030809,
				"y": 2.4897805633,
				"z": 4.3299637028,
				"element": "H" 
			},
			{
				"x": -0.4071203705,
				"y": 3.8835417523,
				"z": 3.5039398909,
				"element": "H" 
			},
			{
				"x": -2.1097881808,
				"y": 2.560209911,
				"z": 2.19920688,
				"element": "H" 
			},
			{
				"x": -1.0443095213,
				"y": 1.1655143715,
				"z": 2.2272567404,
				"element": "H" 
			},
			{
				"x": 0.6826571579,
				"y": 2.5687921809,
				"z": 0.9853977922,
				"element": "H" 
			},
			{
				"x": -0.0185956443,
				"y": 4.8030135626,
				"z": 1.4598681696,
				"element": "H" 
			},
			{
				"x": -1.6240711423,
				"y": 4.5605959018,
				"z": 0.7775908875,
				"element": "H" 
			},
			{
				"x": -0.2061956118,
				"y": 4.6028743402,
				"z": -0.2759989657,
				"element": "H" 
			},
			{
				"x": -0.5677454838,
				"y": 0.8156674986,
				"z": 0.0104388588,
				"element": "H" 
			},
			{
				"x": 0.4894092838,
				"y": 3.1083993071,
				"z": -1.635983684,
				"element": "H" 
			},
			{
				"x": 1.1005512286,
				"y": 1.4802890621,
				"z": -1.4309417359,
				"element": "H" 
			},
			{
				"x": -0.0267079352,
				"y": 1.0016200582,
				"z": -3.4971211726,
				"element": "H" 
			},
			{
				"x": -0.9081337833,
				"y": 2.5034478242,
				"z": -3.4014136833,
				"element": "H" 
			},
			{
				"x": -2.7148004197,
				"y": 1.0384927023,
				"z": -2.9827161074,
				"element": "H" 
			},
			{
				"x": -3.8413112577,
				"y": -0.9692645192,
				"z": -1.8814023756,
				"element": "H" 
			},
			{
				"x": -2.8496372335,
				"y": -2.211915099,
				"z": -1.1205689969,
				"element": "H" 
			},
			{
				"x": -2.2621394304,
				"y": -0.6321734353,
				"z": 0.7194604774,
				"element": "H" 
			},
			{
				"x": -4.0062081156,
				"y": -0.8230511587,
				"z": 0.5964143401,
				"element": "H" 
			},
			{
				"x": -3.4003082045,
				"y": 1.5971924039,
				"z": 0.8302496262,
				"element": "H" 
			},
			{
				"x": -4.2555104605,
				"y": 1.2415372606,
				"z": -0.6528695161,
				"element": "H" 
			},
			{
				"x": -3.1456769786,
				"y": 3.6918812208,
				"z": -0.5328719093,
				"element": "H" 
			},
			{
				"x": -3.5676847309,
				"y": 3.0321320639,
				"z": -2.1111839834,
				"element": "H" 
			},
			{
				"x": -1.9920494855,
				"y": 3.792302708,
				"z": -1.861212943,
				"element": "H" 
			},
			{
				"x": 0.2090645669,
				"y": -0.7800615833,
				"z": -2.7495176651,
				"element": "H" 
			},
			{
				"x": -1.3770603574,
				"y": -3.3014532683,
				"z": -1.955142684,
				"element": "H" 
			},
			{
				"x": -0.3792573106,
				"y": -5.3275317036,
				"z": -2.0305790522,
				"element": "H" 
			},
			{
				"x": 1.3147106268,
				"y": -5.3549733203,
				"z": -1.550231121,
				"element": "H" 
			},
			{
				"x": 0.1775982556,
				"y": -5.7604127206,
				"z": -4.2780482224,
				"element": "H" 
			},
			{
				"x": 1.9070431274,
				"y": -7.2634421521,
				"z": -4.1531253126,
				"element": "H" 
			},
			{
				"x": 1.4193632269,
				"y": -3.9287027237,
				"z": -5.0197331808,
				"element": "H" 
			},
			{
				"x": 2.6301719647,
				"y": -5.2053813322,
				"z": -5.1046934895,
				"element": "H" 
			},
			{
				"x": 3.4374058056,
				"y": -4.5269756186,
				"z": -2.8031082658,
				"element": "H" 
			},
			{
				"x": 3.6352955578,
				"y": -3.2221998289,
				"z": -3.9661192884,
				"element": "H" 
			},
			{
				"x": 1.9428127277,
				"y": -1.1738865867,
				"z": -1.3416720306,
				"element": "H" 
			},
			{
				"x": 3.5198776371,
				"y": -1.4473295059,
				"z": -2.2692456571,
				"element": "H" 
			}
		],
		 "valence_orbital": [ 
			{
				"type": "occ",
				"energy": -0.28459,
				"method": "rhf"
			},
			{
				"type": "occ",
				"energy": -0.27623,
				"method": "rhf"
			},
			{
				"type": "occ",
				"energy": -0.26121,
				"method": "rhf"
			},
			{
				"type": "occ",
				"energy": -0.25206,
				"method": "rhf"
			},
			{
				"type": "occ",
				"energy": -0.19148,
				"method": "rhf"
			},
			{
				"type": "unocc",
				"energy": -0.02872,
				"method": "rhf"
			},
			{
				"type": "unocc",
				"energy": 0.03312,
				"method": "rhf"
			},
			{
				"type": "unocc",
				"energy": 0.06917,
				"method": "rhf"
			},
			{
				"type": "unocc",
				"energy": 0.07799,
				"method": "rhf"
			},
			{
				"type": "unocc",
				"energy": 0.08591,
				"method": "rhf"
			}
		],
		"cosmo_sigma_profile": { 
			"-0.025": 0.0,
			"-0.024": 0.0,
			"-0.023": 0.0,
			"-0.022": 0.0,
			"-0.021": 0.0,
			"-0.02": 0.0,
			"-0.019": 0.0,
			"-0.018": 0.0,
			"-0.017": 0.0,
			"-0.016": 0.0096296145046,
			"-0.015": 0.603856966507,
			"-0.014": 1.05816239632,
			"-0.013": 1.02084831344,
			"-0.012": 0.896130372039,
			"-0.011": 1.00729495248,
			"-0.01": 0.860296941638,
			"-0.009": 1.01787557673,
			"-0.008": 1.15174286196,
			"-0.007": 1.06481359913,
			"-0.006": 0.84208962498,
			"-0.005": 3.71208229956,
			"-0.004": 9.58460835109,
			"-0.003": 31.3435726421,
			"-0.002": 77.4024110362,
			"-0.001": 90.1189394352,
			"0.0": 92.1541996242,
			"0.001": 76.1114690843,
			"0.002": 48.9318773764,
			"0.003": 12.8037850119,
			"0.004": 9.92164099516,
			"0.005": 9.55882619382,
			"0.006": 8.62873800036,
			"0.007": 3.59656494094,
			"0.008": 1.17251951012,
			"0.009": 1.1475102099,
			"0.01": 1.38144927748,
			"0.011": 0.829677246623,
			"0.012": 1.595390701,
			"0.013": 1.46831800053,
			"0.014": 1.76163569308,
			"0.015": 0.401562561272,
			"0.016": 0.0,
			"0.017": 0.0,
			"0.018": 0.0,
			"0.019": 0.0,
			"0.02": 0.0,
			"0.021": 0.0,
			"0.022": 0.0,
			"0.023": 0.0,
			"0.024": 0.0,
			"0.025": 0.0
		}
	}
}
