{
	 "smiles": "CC(C)CC(=O)NC(C(C)C)C(O)=O", 
	 "Tm": 460.15, 
	 "num_atms": 33, 
	 "gaussian": { 
		 "optdone": 1, 
		 "sigma_profile": "yes", 
		 "theory": "DFT", 
		 "functional": "B3LYP", 
		 "basiset": "6-31G**", 
		 "properties": { 
			 "R2extent": 3542.8435, 
			 "electric_dipole_moment_norm": 2.14514178785, 
			 "electric_quadrupole_moment_norm": 21.0510756207, 
			 "total_energy": -672.983522679, 
			 "HOMO_LUMO_gap": 0.25247, 
			 "cosmo_polarized_energy": -17.72, 
			 "cosmo_cavitation_energy": 34.2, 
			 "cosmo_dispersion_energy": -22.83, 
			 "cosmo_repulsion_energy": 1.82, 
			 "cosmo_total_nonelectrostatic_energy": 13.19, 
			 "SMD_solvation_energy": 7.75 
		},
		"coords": [
			{
				"x": 0.3123186206,
				"y": -1.9604315751,
				"z": 2.6817331695,
				"element": "C" 
			},
			{
				"x": 0.0307761755,
				"y": -0.4907555194,
				"z": 2.3364398381,
				"element": "C" 
			},
			{
				"x": -0.3531067351,
				"y": 0.3082441089,
				"z": 3.5894344908,
				"element": "C" 
			},
			{
				"x": -1.0831575659,
				"y": -0.3646633219,
				"z": 1.2643931935,
				"element": "C" 
			},
			{
				"x": -0.7358669176,
				"y": -1.037747088,
				"z": -0.0539321166,
				"element": "C" 
			},
			{
				"x": -1.2054238491,
				"y": -2.1151341224,
				"z": -0.3834069624,
				"element": "O" 
			},
			{
				"x": 0.2324211983,
				"y": -0.4389832231,
				"z": -0.868970222,
				"element": "N" 
			},
			{
				"x": 0.59827754,
				"y": 0.9823885745,
				"z": -0.9298069043,
				"element": "C" 
			},
			{
				"x": 0.1018591303,
				"y": 1.6547997227,
				"z": -2.2429814328,
				"element": "C" 
			},
			{
				"x": 0.9045003503,
				"y": 1.2051316212,
				"z": -3.4740828107,
				"element": "C" 
			},
			{
				"x": 0.0627665722,
				"y": 3.1863628355,
				"z": -2.1309650782,
				"element": "C" 
			},
			{
				"x": 2.1154336499,
				"y": 1.1701419112,
				"z": -0.6798707783,
				"element": "C" 
			},
			{
				"x": 2.7581917059,
				"y": 0.0733519738,
				"z": -0.2380834062,
				"element": "O" 
			},
			{
				"x": 2.6857105677,
				"y": 2.2245000522,
				"z": -0.8314369549,
				"element": "O" 
			},
			{
				"x": -0.5741996094,
				"y": -2.4316437188,
				"z": 3.1215765407,
				"element": "H" 
			},
			{
				"x": 0.5870398641,
				"y": -2.5467137351,
				"z": 1.7995260897,
				"element": "H" 
			},
			{
				"x": 1.1286537272,
				"y": -2.0367319593,
				"z": 3.4070846801,
				"element": "H" 
			},
			{
				"x": 0.9530408535,
				"y": -0.0544852323,
				"z": 1.9282394374,
				"element": "H" 
			},
			{
				"x": -1.2781766112,
				"y": -0.0799397265,
				"z": 4.0317690707,
				"element": "H" 
			},
			{
				"x": 0.4322596704,
				"y": 0.242378437,
				"z": 4.3492238178,
				"element": "H" 
			},
			{
				"x": -0.5095314177,
				"y": 1.3680927255,
				"z": 3.3606861767,
				"element": "H" 
			},
			{
				"x": -1.9913043577,
				"y": -0.8599201902,
				"z": 1.6190367413,
				"element": "H" 
			},
			{
				"x": -1.32793379,
				"y": 0.6932674076,
				"z": 1.1128689117,
				"element": "H" 
			},
			{
				"x": 0.2907666549,
				"y": -0.9371010472,
				"z": -1.7527783807,
				"element": "H" 
			},
			{
				"x": 0.1115616779,
				"y": 1.4896780379,
				"z": -0.0920040578,
				"element": "H" 
			},
			{
				"x": -0.9315446083,
				"y": 1.3009258238,
				"z": -2.3607789985,
				"element": "H" 
			},
			{
				"x": 0.4607454301,
				"y": 1.617863867,
				"z": -4.3850260996,
				"element": "H" 
			},
			{
				"x": 1.9391705365,
				"y": 1.5562103129,
				"z": -3.4154767545,
				"element": "H" 
			},
			{
				"x": 0.9204346687,
				"y": 0.1149115356,
				"z": -3.593840819,
				"element": "H" 
			},
			{
				"x": 1.0653661504,
				"y": 3.5936479932,
				"z": -1.990100509,
				"element": "H" 
			},
			{
				"x": -0.5564804731,
				"y": 3.5058849638,
				"z": -1.2849462114,
				"element": "H" 
			},
			{
				"x": -0.3696589018,
				"y": 3.6174282638,
				"z": -3.0398270549,
				"element": "H" 
			},
			{
				"x": 2.0995900927,
				"y": -0.6490597085,
				"z": -0.2220966063,
				"element": "H" 
			}
		],
		 "valence_orbital": [ 
			{
				"type": "occ",
				"energy": -0.3396,
				"method": "rhf"
			},
			{
				"type": "occ",
				"energy": -0.31734,
				"method": "rhf"
			},
			{
				"type": "occ",
				"energy": -0.2956,
				"method": "rhf"
			},
			{
				"type": "occ",
				"energy": -0.27084,
				"method": "rhf"
			},
			{
				"type": "occ",
				"energy": -0.25505,
				"method": "rhf"
			},
			{
				"type": "unocc",
				"energy": -0.00258,
				"method": "rhf"
			},
			{
				"type": "unocc",
				"energy": 0.00067,
				"method": "rhf"
			},
			{
				"type": "unocc",
				"energy": 0.05166,
				"method": "rhf"
			},
			{
				"type": "unocc",
				"energy": 0.06989,
				"method": "rhf"
			},
			{
				"type": "unocc",
				"energy": 0.08659,
				"method": "rhf"
			}
		],
		"cosmo_sigma_profile": { 
			"-0.025": 0.0,
			"-0.024": 0.0,
			"-0.023": 0.0,
			"-0.022": 0.0,
			"-0.021": 0.0,
			"-0.02": 0.0,
			"-0.019": 0.0,
			"-0.018": 0.0,
			"-0.017": 0.000636616873633,
			"-0.016": 0.0280927131983,
			"-0.015": 0.0371504342724,
			"-0.014": 0.0500125822131,
			"-0.013": 0.775814720866,
			"-0.012": 2.73645776922,
			"-0.011": 3.47905326973,
			"-0.01": 2.41707042522,
			"-0.009": 4.04406869284,
			"-0.008": 6.70156522696,
			"-0.007": 5.59573830199,
			"-0.006": 5.47324691928,
			"-0.005": 7.8596739815,
			"-0.004": 14.1866907618,
			"-0.003": 29.2024113858,
			"-0.002": 32.2777923542,
			"-0.001": 28.8234566836,
			"0.0": 28.2572999082,
			"0.001": 27.0744344166,
			"0.002": 9.94744949843,
			"0.003": 3.45183403783,
			"0.004": 4.07150330295,
			"0.005": 4.15914859439,
			"0.006": 4.63093233427,
			"0.007": 4.03556721652,
			"0.008": 3.61222177203,
			"0.009": 5.0332077773,
			"0.01": 6.22911588365,
			"0.011": 5.97580359261,
			"0.012": 5.87175646154,
			"0.013": 6.89873080627,
			"0.014": 2.1395120021,
			"0.015": 0.179084571777,
			"0.016": 0.0,
			"0.017": 0.0,
			"0.018": 0.0,
			"0.019": 0.0,
			"0.02": 0.0,
			"0.021": 0.0,
			"0.022": 0.0,
			"0.023": 0.0,
			"0.024": 0.0,
			"0.025": 0.0
		}
	}
}
