{
	 "smiles": "OCCN1CCN(CCCS(O)(=O)=O)CC1", 
	 "Tm": 504.15, 
	 "num_atms": 36, 
	 "gaussian": { 
		 "optdone": 1, 
		 "sigma_profile": "yes", 
		 "theory": "DFT", 
		 "functional": "B3LYP", 
		 "basiset": "6-31G**", 
		 "properties": { 
			 "R2extent": 6709.4652, 
			 "electric_dipole_moment_norm": 4.67518081896, 
			 "electric_quadrupole_moment_norm": 22.4675438649, 
			 "total_energy": -1163.49800483, 
			 "HOMO_LUMO_gap": 0.22201, 
			 "cosmo_polarized_energy": -20.36, 
			 "cosmo_cavitation_energy": 36.94, 
			 "cosmo_dispersion_energy": -27.05, 
			 "cosmo_repulsion_energy": 2.1, 
			 "cosmo_total_nonelectrostatic_energy": 11.99, 
			 "SMD_solvation_energy": 0.61 
		},
		"coords": [
			{
				"x": -0.0951834105,
				"y": 1.4307789833,
				"z": 4.1880210758,
				"element": "O" 
			},
			{
				"x": 1.2708703819,
				"y": 1.0955682782,
				"z": 3.9459149417,
				"element": "C" 
			},
			{
				"x": 1.3858958596,
				"y": 0.3371886892,
				"z": 2.6263761367,
				"element": "C" 
			},
			{
				"x": 1.3197690258,
				"y": 1.2034190464,
				"z": 1.447612223,
				"element": "N" 
			},
			{
				"x": 1.9708420417,
				"y": 0.6581716858,
				"z": 0.2539615841,
				"element": "C" 
			},
			{
				"x": 1.1321625298,
				"y": -0.3932150817,
				"z": -0.4934972695,
				"element": "C" 
			},
			{
				"x": -0.1695275465,
				"y": 0.1743940191,
				"z": -0.8244760315,
				"element": "N" 
			},
			{
				"x": -0.9434139956,
				"y": -0.5562972592,
				"z": -1.8205326381,
				"element": "C" 
			},
			{
				"x": -1.3804868169,
				"y": -2.0126162511,
				"z": -1.5145472888,
				"element": "C" 
			},
			{
				"x": -2.5528024352,
				"y": -2.2304224686,
				"z": -0.5496929902,
				"element": "C" 
			},
			{
				"x": -4.1835705247,
				"y": -1.8047218924,
				"z": -1.2120125333,
				"element": "S" 
			},
			{
				"x": -4.1207258235,
				"y": -0.1527080331,
				"z": -1.1683508722,
				"element": "O" 
			},
			{
				"x": -5.2112191105,
				"y": -2.1967288603,
				"z": -0.2453485339,
				"element": "O" 
			},
			{
				"x": -4.2648908332,
				"y": -2.2195763747,
				"z": -2.6071093595,
				"element": "O" 
			},
			{
				"x": -0.8768722598,
				"y": 0.6459913995,
				"z": 0.3644368795,
				"element": "C" 
			},
			{
				"x": -0.022738634,
				"y": 1.6932738066,
				"z": 1.097287376,
				"element": "C" 
			},
			{
				"x": -0.1296084633,
				"y": 2.0135053829,
				"z": 4.9563788888,
				"element": "H" 
			},
			{
				"x": 1.9027304055,
				"y": 1.9936150202,
				"z": 3.8896770174,
				"element": "H" 
			},
			{
				"x": 1.6558710356,
				"y": 0.4518839836,
				"z": 4.7538651407,
				"element": "H" 
			},
			{
				"x": 0.6391044918,
				"y": -0.4763800433,
				"z": 2.6395400411,
				"element": "H" 
			},
			{
				"x": 2.3706614692,
				"y": -0.1447094084,
				"z": 2.619392792,
				"element": "H" 
			},
			{
				"x": 2.9427823898,
				"y": 0.236279326,
				"z": 0.5339360003,
				"element": "H" 
			},
			{
				"x": 2.1546101616,
				"y": 1.4920347254,
				"z": -0.4361471487,
				"element": "H" 
			},
			{
				"x": 1.0574831158,
				"y": -1.3122619961,
				"z": 0.1230145595,
				"element": "H" 
			},
			{
				"x": 1.6430631473,
				"y": -0.6735471294,
				"z": -1.423430575,
				"element": "H" 
			},
			{
				"x": -0.3266893442,
				"y": -0.6044466956,
				"z": -2.7273928365,
				"element": "H" 
			},
			{
				"x": -1.819988161,
				"y": 0.0476162781,
				"z": -2.0756216997,
				"element": "H" 
			},
			{
				"x": -1.6341829625,
				"y": -2.5019923585,
				"z": -2.4613195157,
				"element": "H" 
			},
			{
				"x": -0.5292675248,
				"y": -2.5679442384,
				"z": -1.1028225588,
				"element": "H" 
			},
			{
				"x": -2.4649226543,
				"y": -1.6873948477,
				"z": 0.392139684,
				"element": "H" 
			},
			{
				"x": -2.6702403831,
				"y": -3.2944496281,
				"z": -0.3183888455,
				"element": "H" 
			},
			{
				"x": -4.9300503029,
				"y": 0.1316203119,
				"z": -0.7100096068,
				"element": "H" 
			},
			{
				"x": -1.116685989,
				"y": -0.1721575992,
				"z": 1.0722721975,
				"element": "H" 
			},
			{
				"x": -1.8287796624,
				"y": 1.0914534069,
				"z": 0.0554253266,
				"element": "H" 
			},
			{
				"x": 0.1021126742,
				"y": 2.558651479,
				"z": 0.4335355972,
				"element": "H" 
			},
			{
				"x": -0.5258118916,
				"y": 2.0221243438,
				"z": 2.0077128419,
				"element": "H" 
			}
		],
		 "valence_orbital": [ 
			{
				"type": "occ",
				"energy": -0.31454,
				"method": "rhf"
			},
			{
				"type": "occ",
				"energy": -0.30394,
				"method": "rhf"
			},
			{
				"type": "occ",
				"energy": -0.2711,
				"method": "rhf"
			},
			{
				"type": "occ",
				"energy": -0.2203,
				"method": "rhf"
			},
			{
				"type": "occ",
				"energy": -0.19072,
				"method": "rhf"
			},
			{
				"type": "unocc",
				"energy": 0.03129,
				"method": "rhf"
			},
			{
				"type": "unocc",
				"energy": 0.05955,
				"method": "rhf"
			},
			{
				"type": "unocc",
				"energy": 0.06806,
				"method": "rhf"
			},
			{
				"type": "unocc",
				"energy": 0.07129,
				"method": "rhf"
			},
			{
				"type": "unocc",
				"energy": 0.08931,
				"method": "rhf"
			}
		],
		"cosmo_sigma_profile": { 
			"-0.025": 0.0,
			"-0.024": 0.0,
			"-0.023": 0.0,
			"-0.022": 0.0,
			"-0.021": 0.0,
			"-0.02": 0.209377734458,
			"-0.019": 0.98603868066,
			"-0.018": 0.787533839255,
			"-0.017": 1.04781027305,
			"-0.016": 0.816699914931,
			"-0.015": 1.43936618329,
			"-0.014": 1.52553200278,
			"-0.013": 2.21413495263,
			"-0.012": 2.32827271421,
			"-0.011": 1.07860136541,
			"-0.01": 1.7238823128,
			"-0.009": 3.21501542911,
			"-0.008": 4.38885263081,
			"-0.007": 6.17381337701,
			"-0.006": 5.63220958002,
			"-0.005": 9.19663021708,
			"-0.004": 20.4352793523,
			"-0.003": 31.1075073411,
			"-0.002": 34.3521247163,
			"-0.001": 35.6567124868,
			"0.0": 19.7585966611,
			"0.001": 12.0226073041,
			"0.002": 10.3921246385,
			"0.003": 6.25583310867,
			"0.004": 6.62116731384,
			"0.005": 6.30473980073,
			"0.006": 8.37185119798,
			"0.007": 7.82355113524,
			"0.008": 7.13543972855,
			"0.009": 6.30072451186,
			"0.01": 14.0152642332,
			"0.011": 10.2142289247,
			"0.012": 2.06523737189,
			"0.013": 1.71664868869,
			"0.014": 1.52391480965,
			"0.015": 0.768391488303,
			"0.016": 0.258117867958,
			"0.017": 0.0,
			"0.018": 0.0,
			"0.019": 0.0,
			"0.02": 0.0,
			"0.021": 0.0,
			"0.022": 0.0,
			"0.023": 0.0,
			"0.024": 0.0,
			"0.025": 0.0
		}
	}
}
