{
	 "smiles": "SC1=C2SC=CC2=NC=N1", 
	 "Tm": 545.15, 
	 "num_atms": 14, 
	 "gaussian": { 
		 "optdone": 1, 
		 "sigma_profile": "yes", 
		 "theory": "DFT", 
		 "functional": "B3LYP", 
		 "basiset": "6-31G**", 
		 "properties": { 
			 "R2extent": 2319.1484, 
			 "electric_dipole_moment_norm": 3.3230428962, 
			 "electric_quadrupole_moment_norm": 5.96254533148, 
			 "total_energy": -1136.91357886, 
			 "HOMO_LUMO_gap": 0.18334, 
			 "cosmo_polarized_energy": -9.33, 
			 "cosmo_cavitation_energy": 21.57, 
			 "cosmo_dispersion_energy": -17.5, 
			 "cosmo_repulsion_energy": 1.29, 
			 "cosmo_total_nonelectrostatic_energy": 5.36, 
			 "SMD_solvation_energy": 0.08 
		},
		"coords": [
			{
				"x": -0.9019818752,
				"y": 2.8277711025,
				"z": -2.5249458931,
				"element": "S" 
			},
			{
				"x": 0.0509910701,
				"y": 1.6146050448,
				"z": -1.6449836714,
				"element": "C" 
			},
			{
				"x": -0.3909063743,
				"y": 0.3287734446,
				"z": -1.2978917112,
				"element": "C" 
			},
			{
				"x": -1.913341077,
				"y": -0.4835538692,
				"z": -1.5800662281,
				"element": "S" 
			},
			{
				"x": -1.3205362065,
				"y": -1.911879399,
				"z": -0.7576201613,
				"element": "C" 
			},
			{
				"x": -0.049895611,
				"y": -1.7890131441,
				"z": -0.2952836073,
				"element": "C" 
			},
			{
				"x": 0.5161071685,
				"y": -0.4997289046,
				"z": -0.593673393,
				"element": "C" 
			},
			{
				"x": 1.7566374312,
				"y": -0.0898510883,
				"z": -0.2608761366,
				"element": "N" 
			},
			{
				"x": 2.0577893983,
				"y": 1.1450684143,
				"z": -0.6439561359,
				"element": "C" 
			},
			{
				"x": 1.2768481564,
				"y": 2.0130642369,
				"z": -1.3134270236,
				"element": "N" 
			},
			{
				"x": -2.0187966406,
				"y": 2.0867584589,
				"z": -2.6718194457,
				"element": "H" 
			},
			{
				"x": -1.9759977205,
				"y": -2.7682343652,
				"z": -0.6721946925,
				"element": "H" 
			},
			{
				"x": 0.4904834917,
				"y": -2.5609185642,
				"z": 0.2379628266,
				"element": "H" 
			},
			{
				"x": 3.0515987889,
				"y": 1.5077386326,
				"z": -0.391324727,
				"element": "H" 
			}
		],
		 "valence_orbital": [ 
			{
				"type": "occ",
				"energy": -0.30545,
				"method": "rhf"
			},
			{
				"type": "occ",
				"energy": -0.28177,
				"method": "rhf"
			},
			{
				"type": "occ",
				"energy": -0.26694,
				"method": "rhf"
			},
			{
				"type": "occ",
				"energy": -0.262,
				"method": "rhf"
			},
			{
				"type": "occ",
				"energy": -0.24478,
				"method": "rhf"
			},
			{
				"type": "unocc",
				"energy": -0.06144,
				"method": "rhf"
			},
			{
				"type": "unocc",
				"energy": -0.03011,
				"method": "rhf"
			},
			{
				"type": "unocc",
				"energy": -0.01874,
				"method": "rhf"
			},
			{
				"type": "unocc",
				"energy": 0.0254,
				"method": "rhf"
			},
			{
				"type": "unocc",
				"energy": 0.03807,
				"method": "rhf"
			}
		],
		"cosmo_sigma_profile": { 
			"-0.025": 0.0,
			"-0.024": 0.0,
			"-0.023": 0.0,
			"-0.022": 0.0,
			"-0.021": 0.0,
			"-0.02": 0.0,
			"-0.019": 0.0,
			"-0.018": 0.0,
			"-0.017": 0.0,
			"-0.016": 0.0,
			"-0.015": 0.0,
			"-0.014": 0.0,
			"-0.013": 0.0,
			"-0.012": 0.561467576906,
			"-0.011": 1.50604788408,
			"-0.01": 3.81734511064,
			"-0.009": 4.25300462766,
			"-0.008": 6.2531536772,
			"-0.007": 6.61147029335,
			"-0.006": 6.65126871928,
			"-0.005": 7.1784691416,
			"-0.004": 6.61242419777,
			"-0.003": 8.07664087542,
			"-0.002": 9.9499018448,
			"-0.001": 16.2954664325,
			"0.0": 18.0519901464,
			"0.001": 16.8160567599,
			"0.002": 16.7174595674,
			"0.003": 13.7958154037,
			"0.004": 8.01436616108,
			"0.005": 6.87676620106,
			"0.006": 4.98622662503,
			"0.007": 3.36276785263,
			"0.008": 2.26846104577,
			"0.009": 2.26270129496,
			"0.01": 1.75805914879,
			"0.011": 1.856733388,
			"0.012": 1.72007129979,
			"0.013": 1.65310905458,
			"0.014": 1.01831296858,
			"0.015": 0.697710364416,
			"0.016": 0.037132329569,
			"0.017": 0.0,
			"0.018": 0.0,
			"0.019": 0.0,
			"0.02": 0.0,
			"0.021": 0.0,
			"0.022": 0.0,
			"0.023": 0.0,
			"0.024": 0.0,
			"0.025": 0.0
		}
	}
}
