{
	 "smiles": "CC1=NN(C(=O)C1C(Cl)C1(Cl)C(C)=NN(C1=O)C1=CC=C(Cl)C=C1Cl)C1=CC=C(Cl)C=C1Cl", 
	 "Tm": 388.15, 
	 "num_atms": 47, 
	 "gaussian": { 
		 "optdone": 1, 
		 "sigma_profile": "yes", 
		 "theory": "DFT", 
		 "functional": "B3LYP", 
		 "basiset": "6-31G**", 
		 "properties": { 
			 "R2extent": 22249.171, 
			 "electric_dipole_moment_norm": 4.40150629785, 
			 "electric_quadrupole_moment_norm": 19.1636919045, 
			 "total_energy": -3939.21863633, 
			 "HOMO_LUMO_gap": 0.15639, 
			 "cosmo_polarized_energy": -20.67, 
			 "cosmo_cavitation_energy": 61.69, 
			 "cosmo_dispersion_energy": -40.29, 
			 "cosmo_repulsion_energy": 3.02, 
			 "cosmo_total_nonelectrostatic_energy": 24.42, 
			 "SMD_solvation_energy": 8.0 
		},
		"coords": [
			{
				"x": -0.9776862591,
				"y": 1.2875068274,
				"z": -4.6122828163,
				"element": "C" 
			},
			{
				"x": -0.4102731829,
				"y": 0.8032491757,
				"z": -3.3170987516,
				"element": "C" 
			},
			{
				"x": 0.7636597347,
				"y": 0.2739646846,
				"z": -3.2888430582,
				"element": "N" 
			},
			{
				"x": 1.0391014714,
				"y": -0.1184213194,
				"z": -1.9689757359,
				"element": "N" 
			},
			{
				"x": -0.0105270224,
				"y": 0.1058905628,
				"z": -1.1022978518,
				"element": "C" 
			},
			{
				"x": -0.0744261899,
				"y": -0.2386446132,
				"z": 0.0644255319,
				"element": "O" 
			},
			{
				"x": -1.0827943012,
				"y": 0.8115892774,
				"z": -1.9519456859,
				"element": "C" 
			},
			{
				"x": -1.5453471439,
				"y": 2.2180328687,
				"z": -1.4779692395,
				"element": "C" 
			},
			{
				"x": -3.0584563696,
				"y": 2.6014577404,
				"z": -2.4225894398,
				"element": "Cl" 
			},
			{
				"x": -1.7731492882,
				"y": 2.3933354701,
				"z": 0.0407902663,
				"element": "C" 
			},
			{
				"x": -2.6637645713,
				"y": 3.9738920691,
				"z": 0.3567856701,
				"element": "Cl" 
			},
			{
				"x": -0.5553224093,
				"y": 2.4826371849,
				"z": 0.9453949779,
				"element": "C" 
			},
			{
				"x": 0.6520628353,
				"y": 3.3225411996,
				"z": 0.6966119209,
				"element": "C" 
			},
			{
				"x": -0.7172632603,
				"y": 1.816753763,
				"z": 2.0332650431,
				"element": "N" 
			},
			{
				"x": -1.9459107621,
				"y": 1.1521261993,
				"z": 1.9842105841,
				"element": "N" 
			},
			{
				"x": -2.5736699257,
				"y": 1.2753712684,
				"z": 0.7518387997,
				"element": "C" 
			},
			{
				"x": -3.5130007172,
				"y": 0.6423941265,
				"z": 0.3275179692,
				"element": "O" 
			},
			{
				"x": -2.1939734626,
				"y": 0.1238830881,
				"z": 2.9272517699,
				"element": "C" 
			},
			{
				"x": -1.1999536357,
				"y": -0.8280644762,
				"z": 3.1799947073,
				"element": "C" 
			},
			{
				"x": -1.4019768538,
				"y": -1.8430474966,
				"z": 4.1087218487,
				"element": "C" 
			},
			{
				"x": -2.6247369761,
				"y": -1.9128891224,
				"z": 4.7769997954,
				"element": "C" 
			},
			{
				"x": -2.9038149234,
				"y": -3.1959544361,
				"z": 5.9408834275,
				"element": "Cl" 
			},
			{
				"x": -3.6324771953,
				"y": -0.9807222862,
				"z": 4.5439741854,
				"element": "C" 
			},
			{
				"x": -3.4074961991,
				"y": 0.0465223477,
				"z": 3.6262835733,
				"element": "C" 
			},
			{
				"x": -4.655723174,
				"y": 1.2456892692,
				"z": 3.3997226185,
				"element": "Cl" 
			},
			{
				"x": 2.2447378667,
				"y": -0.7960415684,
				"z": -1.6650275082,
				"element": "C" 
			},
			{
				"x": 2.1979623788,
				"y": -2.0772375204,
				"z": -1.105120789,
				"element": "C" 
			},
			{
				"x": 3.3645670922,
				"y": -2.7659272088,
				"z": -0.7879860165,
				"element": "C" 
			},
			{
				"x": 4.5955927136,
				"y": -2.1663037956,
				"z": -1.0519869293,
				"element": "C" 
			},
			{
				"x": 6.076079408,
				"y": -3.0247001485,
				"z": -0.678482316,
				"element": "Cl" 
			},
			{
				"x": 4.6747933175,
				"y": -0.8886822913,
				"z": -1.6030846323,
				"element": "C" 
			},
			{
				"x": 3.4964584929,
				"y": -0.2021337205,
				"z": -1.8925282217,
				"element": "C" 
			},
			{
				"x": 3.6170741782,
				"y": 1.4292307415,
				"z": -2.5092444323,
				"element": "Cl" 
			},
			{
				"x": -1.9418805405,
				"y": 0.8123029197,
				"z": -4.819680311,
				"element": "H" 
			},
			{
				"x": -1.1567674569,
				"y": 2.3670293637,
				"z": -4.5963134633,
				"element": "H" 
			},
			{
				"x": -0.2762836689,
				"y": 1.0536099847,
				"z": -5.4155619711,
				"element": "H" 
			},
			{
				"x": -1.9686971407,
				"y": 0.164637136,
				"z": -1.9399738359,
				"element": "H" 
			},
			{
				"x": -0.8219572511,
				"y": 2.9745544261,
				"z": -1.789402434,
				"element": "H" 
			},
			{
				"x": 0.372084721,
				"y": 4.3637877972,
				"z": 0.5023814623,
				"element": "H" 
			},
			{
				"x": 1.2213894534,
				"y": 2.9626627453,
				"z": -0.1692745471,
				"element": "H" 
			},
			{
				"x": 1.301810064,
				"y": 3.2870530291,
				"z": 1.572779341,
				"element": "H" 
			},
			{
				"x": -0.2729125511,
				"y": -0.759152033,
				"z": 2.6230190586,
				"element": "H" 
			},
			{
				"x": -0.6299528646,
				"y": -2.578421965,
				"z": 4.3029293071,
				"element": "H" 
			},
			{
				"x": -4.5738155702,
				"y": -1.035948371,
				"z": 5.076145772,
				"element": "H" 
			},
			{
				"x": 1.2311917799,
				"y": -2.5293320652,
				"z": -0.9162680164,
				"element": "H" 
			},
			{
				"x": 3.320745535,
				"y": -3.758058675,
				"z": -0.3544422604,
				"element": "H" 
			},
			{
				"x": 5.6347998244,
				"y": -0.4243221533,
				"z": -1.7909473668,
				"element": "H" 
			}
		],
		 "valence_orbital": [ 
			{
				"type": "occ",
				"energy": -0.27341,
				"method": "rhf"
			},
			{
				"type": "occ",
				"energy": -0.27081,
				"method": "rhf"
			},
			{
				"type": "occ",
				"energy": -0.26044,
				"method": "rhf"
			},
			{
				"type": "occ",
				"energy": -0.25055,
				"method": "rhf"
			},
			{
				"type": "occ",
				"energy": -0.23539,
				"method": "rhf"
			},
			{
				"type": "unocc",
				"energy": -0.079,
				"method": "rhf"
			},
			{
				"type": "unocc",
				"energy": -0.05876,
				"method": "rhf"
			},
			{
				"type": "unocc",
				"energy": -0.04586,
				"method": "rhf"
			},
			{
				"type": "unocc",
				"energy": -0.04092,
				"method": "rhf"
			},
			{
				"type": "unocc",
				"energy": -0.03224,
				"method": "rhf"
			}
		],
		"cosmo_sigma_profile": { 
			"-0.025": 0.0,
			"-0.024": 0.0,
			"-0.023": 0.0,
			"-0.022": 0.0,
			"-0.021": 0.0,
			"-0.02": 0.0,
			"-0.019": 0.0,
			"-0.018": 0.0,
			"-0.017": 0.0,
			"-0.016": 0.0,
			"-0.015": 0.0,
			"-0.014": 0.00194908399588,
			"-0.013": 0.217376501652,
			"-0.012": 0.660393196693,
			"-0.011": 1.38923936498,
			"-0.01": 5.27622340726,
			"-0.009": 7.03247111567,
			"-0.008": 12.1349665085,
			"-0.007": 13.9265657436,
			"-0.006": 18.8158959887,
			"-0.005": 20.9467505739,
			"-0.004": 21.862139959,
			"-0.003": 30.0686100803,
			"-0.002": 36.2182098062,
			"-0.001": 41.9974157894,
			"0.0": 53.3887311133,
			"0.001": 56.7109820458,
			"0.002": 43.9829001563,
			"0.003": 46.8803850544,
			"0.004": 38.2517992826,
			"0.005": 16.3116810806,
			"0.006": 11.1427278512,
			"0.007": 7.49233348613,
			"0.008": 6.14527739799,
			"0.009": 5.4966301883,
			"0.01": 5.75762852136,
			"0.011": 4.05611268602,
			"0.012": 0.889747064657,
			"0.013": 0.126620017635,
			"0.014": 0.0,
			"0.015": 0.0,
			"0.016": 0.0,
			"0.017": 0.0,
			"0.018": 0.0,
			"0.019": 0.0,
			"0.02": 0.0,
			"0.021": 0.0,
			"0.022": 0.0,
			"0.023": 0.0,
			"0.024": 0.0,
			"0.025": 0.0
		}
	}
}
