{
	 "smiles": "CCOC(=O)C1=NN(C(=N)C(C#N)=C1C)C1=CC=C(C)C=C1", 
	 "Tm": 423.15, 
	 "num_atms": 38, 
	 "gaussian": { 
		 "optdone": 1, 
		 "sigma_profile": "yes", 
		 "theory": "DFT", 
		 "functional": "B3LYP", 
		 "basiset": "6-31G**", 
		 "properties": { 
			 "R2extent": 9706.073, 
			 "electric_dipole_moment_norm": 4.94934237349, 
			 "electric_quadrupole_moment_norm": 22.7801908636, 
			 "total_energy": -988.760254779, 
			 "HOMO_LUMO_gap": 0.12834, 
			 "cosmo_polarized_energy": -14.74, 
			 "cosmo_cavitation_energy": 43.14, 
			 "cosmo_dispersion_energy": -29.82, 
			 "cosmo_repulsion_energy": 2.3, 
			 "cosmo_total_nonelectrostatic_energy": 15.62, 
			 "SMD_solvation_energy": 8.48 
		},
		"coords": [
			{
				"x": 1.9671236923,
				"y": 2.8008965596,
				"z": 4.8525965229,
				"element": "C" 
			},
			{
				"x": 1.4774629771,
				"y": 3.4411058931,
				"z": 3.562471197,
				"element": "C" 
			},
			{
				"x": 0.5975375294,
				"y": 2.5508792027,
				"z": 2.8329261797,
				"element": "O" 
			},
			{
				"x": -0.6990388939,
				"y": 2.5773380049,
				"z": 3.1819979134,
				"element": "C" 
			},
			{
				"x": -1.1519927642,
				"y": 3.2841022277,
				"z": 4.0653599024,
				"element": "O" 
			},
			{
				"x": -1.532442033,
				"y": 1.6394198971,
				"z": 2.3642788676,
				"element": "C" 
			},
			{
				"x": -0.9007199831,
				"y": 1.0345254744,
				"z": 1.3836084217,
				"element": "N" 
			},
			{
				"x": -1.515276243,
				"y": 0.1839585397,
				"z": 0.5820263859,
				"element": "N" 
			},
			{
				"x": -2.8900529611,
				"y": -0.1865889159,
				"z": 0.7116815289,
				"element": "C" 
			},
			{
				"x": -3.3784658701,
				"y": -1.0602574017,
				"z": -0.0833176656,
				"element": "N" 
			},
			{
				"x": -3.5698044685,
				"y": 0.5297342428,
				"z": 1.803927062,
				"element": "C" 
			},
			{
				"x": -4.9551612773,
				"y": 0.2147583219,
				"z": 1.9634318759,
				"element": "C" 
			},
			{
				"x": -6.0799273386,
				"y": -0.0720202406,
				"z": 2.0558622399,
				"element": "N" 
			},
			{
				"x": -2.9390873446,
				"y": 1.4284777714,
				"z": 2.6301492005,
				"element": "C" 
			},
			{
				"x": -3.6764214086,
				"y": 2.133047089,
				"z": 3.7335184333,
				"element": "C" 
			},
			{
				"x": -0.651149556,
				"y": -0.4266293123,
				"z": -0.4029618914,
				"element": "C" 
			},
			{
				"x": 0.6417802977,
				"y": -0.785131646,
				"z": -0.0142993288,
				"element": "C" 
			},
			{
				"x": 1.5187038181,
				"y": -1.3272931233,
				"z": -0.9498705311,
				"element": "C" 
			},
			{
				"x": 1.1300528351,
				"y": -1.5238935444,
				"z": -2.2812516913,
				"element": "C" 
			},
			{
				"x": 2.0704474353,
				"y": -2.1469682864,
				"z": -3.2845266783,
				"element": "C" 
			},
			{
				"x": -0.1692218518,
				"y": -1.1475613516,
				"z": -2.6478556891,
				"element": "C" 
			},
			{
				"x": -1.0618340971,
				"y": -0.6055018982,
				"z": -1.7265696887,
				"element": "C" 
			},
			{
				"x": 1.1356851989,
				"y": 2.6391604072,
				"z": 5.5428633879,
				"element": "H" 
			},
			{
				"x": 2.6935357927,
				"y": 3.4598553717,
				"z": 5.3396735504,
				"element": "H" 
			},
			{
				"x": 2.4542091465,
				"y": 1.8423286308,
				"z": 4.6513466953,
				"element": "H" 
			},
			{
				"x": 2.3009571453,
				"y": 3.6267978184,
				"z": 2.869283731,
				"element": "H" 
			},
			{
				"x": 0.9501694113,
				"y": 4.3770082355,
				"z": 3.7610703242,
				"element": "H" 
			},
			{
				"x": -4.3603245806,
				"y": -1.2336756702,
				"z": 0.1318273705,
				"element": "H" 
			},
			{
				"x": -3.6307971877,
				"y": 3.2158839927,
				"z": 3.5946902659,
				"element": "H" 
			},
			{
				"x": -4.7188134842,
				"y": 1.8132563667,
				"z": 3.7697803664,
				"element": "H" 
			},
			{
				"x": -3.2019435951,
				"y": 1.9392038354,
				"z": 4.6986527648,
				"element": "H" 
			},
			{
				"x": 0.9556538832,
				"y": -0.6220740615,
				"z": 1.0101715866,
				"element": "H" 
			},
			{
				"x": 2.5220372605,
				"y": -1.6039191882,
				"z": -0.6368582961,
				"element": "H" 
			},
			{
				"x": 3.1163900791,
				"y": -1.9793140508,
				"z": -3.0115103009,
				"element": "H" 
			},
			{
				"x": 1.9187673979,
				"y": -3.2319359469,
				"z": -3.3463074667,
				"element": "H" 
			},
			{
				"x": 1.9113666505,
				"y": -1.7407720429,
				"z": -4.2880902647,
				"element": "H" 
			},
			{
				"x": -0.4932546968,
				"y": -1.2790215424,
				"z": -3.6769254246,
				"element": "H" 
			},
			{
				"x": -2.0641509155,
				"y": -0.3355796592,
				"z": -2.0273508568,
				"element": "H" 
			}
		],
		 "valence_orbital": [ 
			{
				"type": "occ",
				"energy": -0.28402,
				"method": "rhf"
			},
			{
				"type": "occ",
				"energy": -0.2761,
				"method": "rhf"
			},
			{
				"type": "occ",
				"energy": -0.25626,
				"method": "rhf"
			},
			{
				"type": "occ",
				"energy": -0.25428,
				"method": "rhf"
			},
			{
				"type": "occ",
				"energy": -0.22348,
				"method": "rhf"
			},
			{
				"type": "unocc",
				"energy": -0.09514,
				"method": "rhf"
			},
			{
				"type": "unocc",
				"energy": -0.04462,
				"method": "rhf"
			},
			{
				"type": "unocc",
				"energy": -0.01225,
				"method": "rhf"
			},
			{
				"type": "unocc",
				"energy": -0.00709,
				"method": "rhf"
			},
			{
				"type": "unocc",
				"energy": 0.01817,
				"method": "rhf"
			}
		],
		"cosmo_sigma_profile": { 
			"-0.025": 0.0,
			"-0.024": 0.0,
			"-0.023": 0.0,
			"-0.022": 0.0,
			"-0.021": 0.0,
			"-0.02": 0.0,
			"-0.019": 0.0,
			"-0.018": 0.0,
			"-0.017": 0.0,
			"-0.016": 0.0,
			"-0.015": 0.0,
			"-0.014": 0.0,
			"-0.013": 0.0,
			"-0.012": 0.0,
			"-0.011": 0.0,
			"-0.01": 0.0853881578327,
			"-0.009": 0.819453718629,
			"-0.008": 0.765251935722,
			"-0.007": 2.46053733669,
			"-0.006": 12.2232696982,
			"-0.005": 25.5554283252,
			"-0.004": 47.6095071745,
			"-0.003": 42.7830514857,
			"-0.002": 34.912329352,
			"-0.001": 29.9039614741,
			"0.0": 26.9066640564,
			"0.001": 16.2021818129,
			"0.002": 12.6324931067,
			"0.003": 14.3667463607,
			"0.004": 16.5860591742,
			"0.005": 12.3629983263,
			"0.006": 6.81795275423,
			"0.007": 6.92312967603,
			"0.008": 7.81684007217,
			"0.009": 6.01328356164,
			"0.01": 6.43891489923,
			"0.011": 7.11042013688,
			"0.012": 4.62268575039,
			"0.013": 1.2267573867,
			"0.014": 1.1680596459,
			"0.015": 0.344373846011,
			"0.016": 0.0,
			"0.017": 0.0,
			"0.018": 0.0,
			"0.019": 0.0,
			"0.02": 0.0,
			"0.021": 0.0,
			"0.022": 0.0,
			"0.023": 0.0,
			"0.024": 0.0,
			"0.025": 0.0
		}
	}
}
