{
	 "smiles": "COC1=C(OC)C=C(C=C1)C(=CC(=O)N1CCOCC1)C1=CC=C(Cl)C=C1", 
	 "Tm": 421.15, 
	 "num_atms": 49, 
	 "gaussian": { 
		 "optdone": 1, 
		 "sigma_profile": "yes", 
		 "theory": "DFT", 
		 "functional": "B3LYP", 
		 "basiset": "6-31G**", 
		 "properties": { 
			 "R2extent": 14785.1523, 
			 "electric_dipole_moment_norm": 4.39866016078, 
			 "electric_quadrupole_moment_norm": 17.9796716177, 
			 "total_energy": -1629.27919199, 
			 "HOMO_LUMO_gap": 0.1556, 
			 "cosmo_polarized_energy": -19.69, 
			 "cosmo_cavitation_energy": 53.5, 
			 "cosmo_dispersion_energy": -36.25, 
			 "cosmo_repulsion_energy": 2.82, 
			 "cosmo_total_nonelectrostatic_energy": 20.07, 
			 "SMD_solvation_energy": 9.76 
		},
		"coords": [
			{
				"x": -1.2336264641,
				"y": -4.4241877283,
				"z": -4.6657866362,
				"element": "C" 
			},
			{
				"x": -0.090671197,
				"y": -3.5713533991,
				"z": -4.782552835,
				"element": "O" 
			},
			{
				"x": 0.0830239674,
				"y": -2.6387008551,
				"z": -3.794432289,
				"element": "C" 
			},
			{
				"x": -0.8209409819,
				"y": -1.5668353784,
				"z": -3.6011097022,
				"element": "C" 
			},
			{
				"x": -1.9102637427,
				"y": -1.5430014254,
				"z": -4.4239357429,
				"element": "O" 
			},
			{
				"x": -2.8118514705,
				"y": -0.4506480679,
				"z": -4.314361133,
				"element": "C" 
			},
			{
				"x": -0.5543686372,
				"y": -0.6118573248,
				"z": -2.6205026687,
				"element": "C" 
			},
			{
				"x": 0.6019500015,
				"y": -0.6888363776,
				"z": -1.8184605355,
				"element": "C" 
			},
			{
				"x": 1.502320915,
				"y": -1.7400107009,
				"z": -2.0407239388,
				"element": "C" 
			},
			{
				"x": 1.2350717285,
				"y": -2.7017227774,
				"z": -3.0142964887,
				"element": "C" 
			},
			{
				"x": 0.8451959036,
				"y": 0.3264814225,
				"z": -0.7578434662,
				"element": "C" 
			},
			{
				"x": 1.4068890168,
				"y": -0.0568646886,
				"z": 0.4151948454,
				"element": "C" 
			},
			{
				"x": 1.898837504,
				"y": 0.8500649224,
				"z": 1.4901369185,
				"element": "C" 
			},
			{
				"x": 2.247343682,
				"y": 2.0122152059,
				"z": 1.2822215574,
				"element": "O" 
			},
			{
				"x": 2.0013032649,
				"y": 0.2787904678,
				"z": 2.7456422413,
				"element": "N" 
			},
			{
				"x": 2.5239356578,
				"y": 1.0795139274,
				"z": 3.8466690598,
				"element": "C" 
			},
			{
				"x": 1.4606364516,
				"y": 1.245428743,
				"z": 4.9416280011,
				"element": "C" 
			},
			{
				"x": 0.6814887279,
				"y": 0.0596535861,
				"z": 5.1438985987,
				"element": "O" 
			},
			{
				"x": 1.2967636202,
				"y": -1.107443688,
				"z": 4.6373285894,
				"element": "C" 
			},
			{
				"x": 1.439499993,
				"y": -1.0265000635,
				"z": 3.1105505638,
				"element": "C" 
			},
			{
				"x": 0.4059472002,
				"y": 1.7218701125,
				"z": -1.0445665097,
				"element": "C" 
			},
			{
				"x": -0.4319920977,
				"y": 2.4179560135,
				"z": -0.1609318248,
				"element": "C" 
			},
			{
				"x": -0.8713154567,
				"y": 3.7075988956,
				"z": -0.4484578868,
				"element": "C" 
			},
			{
				"x": -0.4619439288,
				"y": 4.3152025633,
				"z": -1.6350392483,
				"element": "C" 
			},
			{
				"x": -1.0123203324,
				"y": 5.9436310648,
				"z": -2.00767546,
				"element": "Cl" 
			},
			{
				"x": 0.367200943,
				"y": 3.6485414396,
				"z": -2.5357851421,
				"element": "C" 
			},
			{
				"x": 0.7842228853,
				"y": 2.3521160699,
				"z": -2.2402660476,
				"element": "C" 
			},
			{
				"x": -1.1692134243,
				"y": -5.1279292157,
				"z": -5.4980183315,
				"element": "H" 
			},
			{
				"x": -2.1670460014,
				"y": -3.8594960219,
				"z": -4.7332376517,
				"element": "H" 
			},
			{
				"x": -1.2085260488,
				"y": -4.9814882531,
				"z": -3.7203301597,
				"element": "H" 
			},
			{
				"x": -2.3088432853,
				"y": 0.5060175195,
				"z": -4.5011970138,
				"element": "H" 
			},
			{
				"x": -3.2911215822,
				"y": -0.4174263415,
				"z": -3.3276400465,
				"element": "H" 
			},
			{
				"x": -3.573232307,
				"y": -0.6133366732,
				"z": -5.0784557705,
				"element": "H" 
			},
			{
				"x": -1.243395789,
				"y": 0.2077498878,
				"z": -2.4620314286,
				"element": "H" 
			},
			{
				"x": 2.4240284275,
				"y": -1.7914488745,
				"z": -1.4710159673,
				"element": "H" 
			},
			{
				"x": 1.9294040411,
				"y": -3.5135712587,
				"z": -3.2061410368,
				"element": "H" 
			},
			{
				"x": 1.5775762281,
				"y": -1.1189506466,
				"z": 0.5601612181,
				"element": "H" 
			},
			{
				"x": 3.4272164368,
				"y": 0.6054558433,
				"z": 4.2524408427,
				"element": "H" 
			},
			{
				"x": 2.8088847966,
				"y": 2.0494245935,
				"z": 3.4379801296,
				"element": "H" 
			},
			{
				"x": 1.9466128723,
				"y": 1.5393268809,
				"z": 5.8845801236,
				"element": "H" 
			},
			{
				"x": 0.7520380704,
				"y": 2.0330685815,
				"z": 4.6640511491,
				"element": "H" 
			},
			{
				"x": 0.6466247514,
				"y": -1.9467717616,
				"z": 4.8995028117,
				"element": "H" 
			},
			{
				"x": 2.2740957547,
				"y": -1.2893587619,
				"z": 5.1112689064,
				"element": "H" 
			},
			{
				"x": 2.0709502522,
				"y": -1.8578867059,
				"z": 2.7595979038,
				"element": "H" 
			},
			{
				"x": 0.4504448009,
				"y": -1.1409333318,
				"z": 2.6557347494,
				"element": "H" 
			},
			{
				"x": -0.7490195314,
				"y": 1.9410745821,
				"z": 0.7607655704,
				"element": "H" 
			},
			{
				"x": -1.5227939113,
				"y": 4.2371059611,
				"z": 0.2378011587,
				"element": "H" 
			},
			{
				"x": 0.6778795375,
				"y": 4.1352458683,
				"z": -3.4536318445,
				"element": "H" 
			},
			{
				"x": 1.4241987573,
				"y": 1.8268261694,
				"z": -2.9422281323,
				"element": "H" 
			}
		],
		 "valence_orbital": [ 
			{
				"type": "occ",
				"energy": -0.25085,
				"method": "rhf"
			},
			{
				"type": "occ",
				"energy": -0.24015,
				"method": "rhf"
			},
			{
				"type": "occ",
				"energy": -0.23281,
				"method": "rhf"
			},
			{
				"type": "occ",
				"energy": -0.22895,
				"method": "rhf"
			},
			{
				"type": "occ",
				"energy": -0.21338,
				"method": "rhf"
			},
			{
				"type": "unocc",
				"energy": -0.05778,
				"method": "rhf"
			},
			{
				"type": "unocc",
				"energy": -0.01221,
				"method": "rhf"
			},
			{
				"type": "unocc",
				"energy": -0.01056,
				"method": "rhf"
			},
			{
				"type": "unocc",
				"energy": 0.00437,
				"method": "rhf"
			},
			{
				"type": "unocc",
				"energy": 0.02706,
				"method": "rhf"
			}
		],
		"cosmo_sigma_profile": { 
			"-0.025": 0.0,
			"-0.024": 0.0,
			"-0.023": 0.0,
			"-0.022": 0.0,
			"-0.021": 0.0,
			"-0.02": 0.0,
			"-0.019": 0.0,
			"-0.018": 0.0,
			"-0.017": 0.0,
			"-0.016": 0.0,
			"-0.015": 0.0,
			"-0.014": 0.0,
			"-0.013": 0.0,
			"-0.012": 0.0,
			"-0.011": 0.0,
			"-0.01": 0.0,
			"-0.009": 0.0,
			"-0.008": 0.266687713204,
			"-0.007": 5.09180347354,
			"-0.006": 21.7657044407,
			"-0.005": 45.8395134907,
			"-0.004": 48.7062051159,
			"-0.003": 44.6751773149,
			"-0.002": 33.2540902544,
			"-0.001": 26.5909345197,
			"0.0": 24.9454819263,
			"0.001": 27.663950512,
			"0.002": 30.3146254243,
			"0.003": 29.5294739633,
			"0.004": 25.7970624348,
			"0.005": 15.8483762385,
			"0.006": 5.43343799521,
			"0.007": 4.93546667375,
			"0.008": 5.73505114343,
			"0.009": 5.07623231204,
			"0.01": 5.42671857395,
			"0.011": 4.89415661768,
			"0.012": 4.32092071764,
			"0.013": 4.54923246483,
			"0.014": 4.55026752112,
			"0.015": 1.21572509513,
			"0.016": 0.0,
			"0.017": 0.0,
			"0.018": 0.0,
			"0.019": 0.0,
			"0.02": 0.0,
			"0.021": 0.0,
			"0.022": 0.0,
			"0.023": 0.0,
			"0.024": 0.0,
			"0.025": 0.0
		}
	}
}
