{
	 "smiles": "ClC1=C(Cl)C(=O)OC1OC1OC(=O)C(Cl)=C1Cl", 
	 "Tm": 415.15, 
	 "num_atms": 19, 
	 "gaussian": { 
		 "optdone": 1, 
		 "sigma_profile": "yes", 
		 "theory": "DFT", 
		 "functional": "B3LYP", 
		 "basiset": "6-31G**", 
		 "properties": { 
			 "R2extent": 7208.6605, 
			 "electric_dipole_moment_norm": 2.8390833644, 
			 "electric_quadrupole_moment_norm": 18.1840776043, 
			 "total_energy": -2522.88794137, 
			 "HOMO_LUMO_gap": 0.19708, 
			 "cosmo_polarized_energy": -13.74, 
			 "cosmo_cavitation_energy": 33.38, 
			 "cosmo_dispersion_energy": -23.45, 
			 "cosmo_repulsion_energy": 1.87, 
			 "cosmo_total_nonelectrostatic_energy": 11.79, 
			 "SMD_solvation_energy": 6.71 
		},
		"coords": [
			{
				"x": -1.4464228632,
				"y": -1.3706276146,
				"z": -2.2563329848,
				"element": "Cl" 
			},
			{
				"x": -0.4195463177,
				"y": -0.2194523126,
				"z": -1.5303462228,
				"element": "C" 
			},
			{
				"x": 0.6849349164,
				"y": 0.358444215,
				"z": -2.0196375569,
				"element": "C" 
			},
			{
				"x": 1.4638512373,
				"y": 0.1218872461,
				"z": -3.5201971425,
				"element": "Cl" 
			},
			{
				"x": 1.209299808,
				"y": 1.3161992336,
				"z": -1.0056133604,
				"element": "C" 
			},
			{
				"x": 2.169003536,
				"y": 2.0292674155,
				"z": -1.0464785127,
				"element": "O" 
			},
			{
				"x": 0.3529501914,
				"y": 1.2677969596,
				"z": 0.0845196655,
				"element": "O" 
			},
			{
				"x": -0.7164129898,
				"y": 0.3555408996,
				"z": -0.1555113765,
				"element": "C" 
			},
			{
				"x": -0.8445640098,
				"y": -0.5823032868,
				"z": 0.8835210269,
				"element": "O" 
			},
			{
				"x": 0.3071482154,
				"y": -1.2814305142,
				"z": 1.2732828507,
				"element": "C" 
			},
			{
				"x": 0.6297834281,
				"y": -2.3273875826,
				"z": 0.3519588268,
				"element": "O" 
			},
			{
				"x": 0.5207701938,
				"y": -3.5615530773,
				"z": 0.961489817,
				"element": "C" 
			},
			{
				"x": 0.7234210945,
				"y": -4.5959203543,
				"z": 0.3952196182,
				"element": "O" 
			},
			{
				"x": 0.1435989378,
				"y": -3.3154613395,
				"z": 2.3853519592,
				"element": "C" 
			},
			{
				"x": -0.0688357217,
				"y": -4.5947867621,
				"z": 3.4952323667,
				"element": "Cl" 
			},
			{
				"x": 0.0182176548,
				"y": -1.9965002918,
				"z": 2.573601837,
				"element": "C" 
			},
			{
				"x": -0.3992608588,
				"y": -1.1416415473,
				"z": 3.9910478233,
				"element": "Cl" 
			},
			{
				"x": -1.663233695,
				"y": 0.9037282096,
				"z": -0.1433088304,
				"element": "H" 
			},
			{
				"x": 1.1672972423,
				"y": -0.6080994959,
				"z": 1.3386001956,
				"element": "H" 
			}
		],
		 "valence_orbital": [ 
			{
				"type": "occ",
				"energy": -0.32921,
				"method": "rhf"
			},
			{
				"type": "occ",
				"energy": -0.3117,
				"method": "rhf"
			},
			{
				"type": "occ",
				"energy": -0.30714,
				"method": "rhf"
			},
			{
				"type": "occ",
				"energy": -0.29136,
				"method": "rhf"
			},
			{
				"type": "occ",
				"energy": -0.28935,
				"method": "rhf"
			},
			{
				"type": "unocc",
				"energy": -0.09227,
				"method": "rhf"
			},
			{
				"type": "unocc",
				"energy": -0.08005,
				"method": "rhf"
			},
			{
				"type": "unocc",
				"energy": -0.01276,
				"method": "rhf"
			},
			{
				"type": "unocc",
				"energy": -0.00889,
				"method": "rhf"
			},
			{
				"type": "unocc",
				"energy": 0.02926,
				"method": "rhf"
			}
		],
		"cosmo_sigma_profile": { 
			"-0.025": 0.0,
			"-0.024": 0.0,
			"-0.023": 0.0,
			"-0.022": 0.0,
			"-0.021": 0.0,
			"-0.02": 0.0,
			"-0.019": 0.0,
			"-0.018": 0.0,
			"-0.017": 0.0,
			"-0.016": 0.0,
			"-0.015": 0.0,
			"-0.014": 0.0,
			"-0.013": 0.0,
			"-0.012": 1.57901895187,
			"-0.011": 5.76551204996,
			"-0.01": 5.60460696314,
			"-0.009": 3.9477003051,
			"-0.008": 4.60805929791,
			"-0.007": 5.62797552636,
			"-0.006": 7.41976442483,
			"-0.005": 12.0387821495,
			"-0.004": 15.8617581038,
			"-0.003": 17.2078496457,
			"-0.002": 18.5008632912,
			"-0.001": 20.1509786523,
			"0.0": 25.4181020096,
			"0.001": 37.5680472932,
			"0.002": 33.5960243053,
			"0.003": 9.39938934456,
			"0.004": 8.14593400645,
			"0.005": 7.12022754304,
			"0.006": 8.2360598307,
			"0.007": 5.65455379386,
			"0.008": 5.90539184483,
			"0.009": 8.87610992478,
			"0.01": 9.6618470833,
			"0.011": 1.20375162163,
			"0.012": 0.0,
			"0.013": 0.0,
			"0.014": 0.0,
			"0.015": 0.0,
			"0.016": 0.0,
			"0.017": 0.0,
			"0.018": 0.0,
			"0.019": 0.0,
			"0.02": 0.0,
			"0.021": 0.0,
			"0.022": 0.0,
			"0.023": 0.0,
			"0.024": 0.0,
			"0.025": 0.0
		}
	}
}
