{
	 "smiles": "OC(=O)C1=CC2=C(NC(=O)N2)C=C1", 
	 "Tm": 647.15, 
	 "num_atms": 19, 
	 "gaussian": { 
		 "optdone": 1, 
		 "sigma_profile": "yes", 
		 "theory": "DFT", 
		 "functional": "B3LYP", 
		 "basiset": "6-31G**", 
		 "properties": { 
			 "R2extent": 2800.772, 
			 "electric_dipole_moment_norm": 2.70295442248, 
			 "electric_quadrupole_moment_norm": 31.1320555891, 
			 "total_energy": -643.683851978, 
			 "HOMO_LUMO_gap": 0.17909, 
			 "cosmo_polarized_energy": -24.78, 
			 "cosmo_cavitation_energy": 24.27, 
			 "cosmo_dispersion_energy": -18.41, 
			 "cosmo_repulsion_energy": 1.45, 
			 "cosmo_total_nonelectrostatic_energy": 7.31, 
			 "SMD_solvation_energy": 5.86 
		},
		"coords": [
			{
				"x": -0.1714492391,
				"y": 0.0141699913,
				"z": -3.4738640642,
				"element": "O" 
			},
			{
				"x": -0.3641678517,
				"y": 1.1037833192,
				"z": -2.6771602642,
				"element": "C" 
			},
			{
				"x": -0.7864651126,
				"y": 2.1298920125,
				"z": -3.1567546158,
				"element": "O" 
			},
			{
				"x": -0.029749954,
				"y": 0.9428453178,
				"z": -1.2280841035,
				"element": "C" 
			},
			{
				"x": 0.0242756706,
				"y": -0.3201046048,
				"z": -0.6036402997,
				"element": "C" 
			},
			{
				"x": 0.3300732017,
				"y": -0.3642941392,
				"z": 0.7468007057,
				"element": "C" 
			},
			{
				"x": 0.5827886593,
				"y": 0.8191020807,
				"z": 1.4788797413,
				"element": "C" 
			},
			{
				"x": 0.8514003038,
				"y": 0.4288298592,
				"z": 2.7800023463,
				"element": "N" 
			},
			{
				"x": 0.7733881791,
				"y": -0.9614901522,
				"z": 2.9251134195,
				"element": "C" 
			},
			{
				"x": 0.9474538405,
				"y": -1.6174721437,
				"z": 3.9321081647,
				"element": "O" 
			},
			{
				"x": 0.4500809922,
				"y": -1.4175105264,
				"z": 1.6446031139,
				"element": "N" 
			},
			{
				"x": 0.5192432432,
				"y": 2.0675084616,
				"z": 0.8701531733,
				"element": "C" 
			},
			{
				"x": 0.2016650844,
				"y": 2.1126694447,
				"z": -0.4883359626,
				"element": "C" 
			},
			{
				"x": 0.3516157087,
				"y": -0.6501019772,
				"z": -3.0049050631,
				"element": "H" 
			},
			{
				"x": -0.2144521187,
				"y": -1.2339117557,
				"z": -1.1403748142,
				"element": "H" 
			},
			{
				"x": 1.0613866923,
				"y": 1.0274122917,
				"z": 3.5628443177,
				"element": "H" 
			},
			{
				"x": 0.3212684659,
				"y": -2.3983698943,
				"z": 1.4548208547,
				"element": "H" 
			},
			{
				"x": 0.7046071737,
				"y": 2.9776893513,
				"z": 1.4311013901,
				"element": "H" 
			},
			{
				"x": 0.1273370608,
				"y": 3.0623530633,
				"z": -1.00550804,
				"element": "H" 
			}
		],
		 "valence_orbital": [ 
			{
				"type": "occ",
				"energy": -0.31199,
				"method": "rhf"
			},
			{
				"type": "occ",
				"energy": -0.2864,
				"method": "rhf"
			},
			{
				"type": "occ",
				"energy": -0.27371,
				"method": "rhf"
			},
			{
				"type": "occ",
				"energy": -0.2633,
				"method": "rhf"
			},
			{
				"type": "occ",
				"energy": -0.22869,
				"method": "rhf"
			},
			{
				"type": "unocc",
				"energy": -0.0496,
				"method": "rhf"
			},
			{
				"type": "unocc",
				"energy": -0.02285,
				"method": "rhf"
			},
			{
				"type": "unocc",
				"energy": 0.04695,
				"method": "rhf"
			},
			{
				"type": "unocc",
				"energy": 0.05356,
				"method": "rhf"
			},
			{
				"type": "unocc",
				"energy": 0.05932,
				"method": "rhf"
			}
		],
		"cosmo_sigma_profile": { 
			"-0.025": 0.0,
			"-0.024": 0.0,
			"-0.023": 0.0,
			"-0.022": 0.0,
			"-0.021": 0.0,
			"-0.02": 0.0,
			"-0.019": 0.112922199104,
			"-0.018": 0.640973056519,
			"-0.017": 2.17401682938,
			"-0.016": 3.56189514875,
			"-0.015": 3.27801459013,
			"-0.014": 2.76565070542,
			"-0.013": 3.88553538654,
			"-0.012": 3.57335791449,
			"-0.011": 4.14618220814,
			"-0.01": 2.99162021475,
			"-0.009": 4.90071856453,
			"-0.008": 3.66826870848,
			"-0.007": 5.11752833148,
			"-0.006": 6.22458950411,
			"-0.005": 6.96250129508,
			"-0.004": 5.35222975128,
			"-0.003": 5.73864214576,
			"-0.002": 10.2524062558,
			"-0.001": 12.0355058528,
			"0.0": 15.0828801632,
			"0.001": 12.644827039,
			"0.002": 11.0981135686,
			"0.003": 11.2887032982,
			"0.004": 6.69429351393,
			"0.005": 2.61494289927,
			"0.006": 3.00682379257,
			"0.007": 4.33235532721,
			"0.008": 3.97388265683,
			"0.009": 3.61003373583,
			"0.01": 6.56534438149,
			"0.011": 5.94898592053,
			"0.012": 8.65477186949,
			"0.013": 9.42925464254,
			"0.014": 2.43358038581,
			"0.015": 0.0,
			"0.016": 0.0,
			"0.017": 0.0,
			"0.018": 0.0,
			"0.019": 0.0,
			"0.02": 0.0,
			"0.021": 0.0,
			"0.022": 0.0,
			"0.023": 0.0,
			"0.024": 0.0,
			"0.025": 0.0
		}
	}
}
