{
	 "smiles": "C[Si](C)(C)C1=CC=C(C=C1)[Si](C)(C)C", 
	 "Tm": 367.15, 
	 "num_atms": 36, 
	 "gaussian": { 
		 "optdone": 1, 
		 "sigma_profile": "yes", 
		 "theory": "DFT", 
		 "functional": "B3LYP", 
		 "basiset": "6-31G**", 
		 "properties": { 
			 "R2extent": 5781.5989, 
			 "electric_dipole_moment_norm": 0.0, 
			 "electric_quadrupole_moment_norm": 4.29042530875, 
			 "total_energy": -1049.6228717, 
			 "HOMO_LUMO_gap": 0.2228, 
			 "cosmo_polarized_energy": -3.95, 
			 "cosmo_cavitation_energy": 40.65, 
			 "cosmo_dispersion_energy": -23.52, 
			 "cosmo_repulsion_energy": 2.09, 
			 "cosmo_total_nonelectrostatic_energy": 19.22, 
			 "SMD_solvation_energy": 9.85 
		},
		"coords": [
			{
				"x": -3.5469647453,
				"y": 1.2352861788,
				"z": -0.8831686202,
				"element": "C" 
			},
			{
				"x": -2.297251766,
				"y": 1.245133365,
				"z": 0.5406410679,
				"element": "Si" 
			},
			{
				"x": -1.7586267898,
				"y": 3.028263243,
				"z": 0.8861706609,
				"element": "C" 
			},
			{
				"x": -3.1014092296,
				"y": 0.5168222091,
				"z": 2.091260925,
				"element": "C" 
			},
			{
				"x": -0.7829861851,
				"y": 0.2164911201,
				"z": 0.0529843076,
				"element": "C" 
			},
			{
				"x": -0.3724414792,
				"y": -0.9139637324,
				"z": 0.7822537279,
				"element": "C" 
			},
			{
				"x": 0.7465935309,
				"y": -1.6574165854,
				"z": 0.4050844092,
				"element": "C" 
			},
			{
				"x": 1.5165831417,
				"y": -1.3124943491,
				"z": -0.7208060461,
				"element": "C" 
			},
			{
				"x": 1.106037078,
				"y": -0.1820414589,
				"z": -1.4500769204,
				"element": "C" 
			},
			{
				"x": -0.0129978947,
				"y": 0.5614117813,
				"z": -1.0729078334,
				"element": "C" 
			},
			{
				"x": 3.0308695541,
				"y": -2.3411159484,
				"z": -1.2084404703,
				"element": "Si" 
			},
			{
				"x": 2.4923475139,
				"y": -4.1243725026,
				"z": -1.5534735284,
				"element": "C" 
			},
			{
				"x": 3.8347383592,
				"y": -1.61309633,
				"z": -2.7593468364,
				"element": "C" 
			},
			{
				"x": 4.2807902528,
				"y": -2.3308274538,
				"z": 0.2151844111,
				"element": "C" 
			},
			{
				"x": -3.898083458,
				"y": 0.2197969965,
				"z": -1.0955005314,
				"element": "H" 
			},
			{
				"x": -4.4228483857,
				"y": 1.8488323795,
				"z": -0.6429347425,
				"element": "H" 
			},
			{
				"x": -3.1087542901,
				"y": 1.6318488136,
				"z": -1.8055349527,
				"element": "H" 
			},
			{
				"x": -1.0523816276,
				"y": 3.074169197,
				"z": 1.7220549171,
				"element": "H" 
			},
			{
				"x": -2.6191421775,
				"y": 3.6577910418,
				"z": 1.1402060684,
				"element": "H" 
			},
			{
				"x": -1.2675747995,
				"y": 3.4757627524,
				"z": 0.0151479234,
				"element": "H" 
			},
			{
				"x": -3.4388867033,
				"y": -0.5128536795,
				"z": 1.9307720027,
				"element": "H" 
			},
			{
				"x": -2.4146364399,
				"y": 0.5148833348,
				"z": 2.944617287,
				"element": "H" 
			},
			{
				"x": -3.9784164211,
				"y": 1.1079557363,
				"z": 2.3780016842,
				"element": "H" 
			},
			{
				"x": -0.9327987276,
				"y": -1.2238348094,
				"z": 1.661148496,
				"element": "H" 
			},
			{
				"x": 1.0206044922,
				"y": -2.5238172501,
				"z": 1.0049745358,
				"element": "H" 
			},
			{
				"x": 1.6663893008,
				"y": 0.1278251189,
				"z": -2.3289763537,
				"element": "H" 
			},
			{
				"x": -0.2870130809,
				"y": 1.4278083884,
				"z": -1.6728019851,
				"element": "H" 
			},
			{
				"x": 1.7859863759,
				"y": -4.1705364415,
				"z": -2.3892454761,
				"element": "H" 
			},
			{
				"x": 2.001461168,
				"y": -4.5717141367,
				"z": -0.682276458,
				"element": "H" 
			},
			{
				"x": 3.3528814745,
				"y": -4.7538844082,
				"z": -1.8074848597,
				"element": "H" 
			},
			{
				"x": 3.1478241612,
				"y": -1.6113773136,
				"z": -3.612589603,
				"element": "H" 
			},
			{
				"x": 4.1721910324,
				"y": -0.5833687983,
				"z": -2.5991369399,
				"element": "H" 
			},
			{
				"x": 4.7117297469,
				"y": -2.2042459512,
				"z": -3.046102595,
				"element": "H" 
			},
			{
				"x": 3.8427412278,
				"y": -2.7272021479,
				"z": 1.1377080713,
				"element": "H" 
			},
			{
				"x": 4.6318561199,
				"y": -1.31525848,
				"z": 0.4272216799,
				"element": "H" 
			},
			{
				"x": 5.1566896708,
				"y": -2.9443598792,
				"z": -0.0250274232,
				"element": "H" 
			}
		],
		 "valence_orbital": [ 
			{
				"type": "occ",
				"energy": -0.29424,
				"method": "rhf"
			},
			{
				"type": "occ",
				"energy": -0.29254,
				"method": "rhf"
			},
			{
				"type": "occ",
				"energy": -0.27388,
				"method": "rhf"
			},
			{
				"type": "occ",
				"energy": -0.24289,
				"method": "rhf"
			},
			{
				"type": "occ",
				"energy": -0.23748,
				"method": "rhf"
			},
			{
				"type": "unocc",
				"energy": -0.01468,
				"method": "rhf"
			},
			{
				"type": "unocc",
				"energy": 0.00501,
				"method": "rhf"
			},
			{
				"type": "unocc",
				"energy": 0.07354,
				"method": "rhf"
			},
			{
				"type": "unocc",
				"energy": 0.07965,
				"method": "rhf"
			},
			{
				"type": "unocc",
				"energy": 0.0892,
				"method": "rhf"
			}
		],
		"cosmo_sigma_profile": { 
			"-0.025": 0.0,
			"-0.024": 0.0,
			"-0.023": 0.0,
			"-0.022": 0.0,
			"-0.021": 0.0,
			"-0.02": 0.0,
			"-0.019": 0.0,
			"-0.018": 0.0,
			"-0.017": 0.0,
			"-0.016": 0.0,
			"-0.015": 0.0,
			"-0.014": 0.0,
			"-0.013": 0.0,
			"-0.012": 0.0,
			"-0.011": 0.0,
			"-0.01": 0.0,
			"-0.009": 0.0,
			"-0.008": 0.0,
			"-0.007": 0.0,
			"-0.006": 0.0,
			"-0.005": 2.52358553865,
			"-0.004": 14.3845850049,
			"-0.003": 43.1980140584,
			"-0.002": 45.435829432,
			"-0.001": 41.5215616631,
			"0.0": 35.6222178138,
			"0.001": 41.0865684343,
			"0.002": 37.9042053154,
			"0.003": 18.0165603185,
			"0.004": 9.53435445655,
			"0.005": 7.56600538255,
			"0.006": 8.25116932424,
			"0.007": 5.10923373965,
			"0.008": 0.0,
			"0.009": 0.0,
			"0.01": 0.0,
			"0.011": 0.0,
			"0.012": 0.0,
			"0.013": 0.0,
			"0.014": 0.0,
			"0.015": 0.0,
			"0.016": 0.0,
			"0.017": 0.0,
			"0.018": 0.0,
			"0.019": 0.0,
			"0.02": 0.0,
			"0.021": 0.0,
			"0.022": 0.0,
			"0.023": 0.0,
			"0.024": 0.0,
			"0.025": 0.0
		}
	}
}
