{
	 "smiles": "C1CN2C(CN1)=NN=C2C1=CC=CC=C1", 
	 "Tm": 433.15, 
	 "num_atms": 27, 
	 "gaussian": { 
		 "optdone": 1, 
		 "sigma_profile": "yes", 
		 "theory": "DFT", 
		 "functional": "B3LYP", 
		 "basiset": "6-31G**", 
		 "properties": { 
			 "R2extent": 4019.4992, 
			 "electric_dipole_moment_norm": 5.43829463711, 
			 "electric_quadrupole_moment_norm": 16.405530003, 
			 "total_energy": -645.385263377, 
			 "HOMO_LUMO_gap": 0.19416, 
			 "cosmo_polarized_energy": -20.0, 
			 "cosmo_cavitation_energy": 29.51, 
			 "cosmo_dispersion_energy": -22.18, 
			 "cosmo_repulsion_energy": 1.71, 
			 "cosmo_total_nonelectrostatic_energy": 9.04, 
			 "SMD_solvation_energy": -0.45 
		},
		"coords": [
			{
				"x": 0.6158344092,
				"y": -2.9290966518,
				"z": 1.453427257,
				"element": "C" 
			},
			{
				"x": 0.9316238712,
				"y": -1.4568049774,
				"z": 1.1321359733,
				"element": "C" 
			},
			{
				"x": 1.2423601275,
				"y": -1.3304809906,
				"z": -0.2926372657,
				"element": "N" 
			},
			{
				"x": 1.5657580361,
				"y": -2.3901868765,
				"z": -1.1043118876,
				"element": "C" 
			},
			{
				"x": 1.6001952183,
				"y": -3.799805932,
				"z": -0.5765692855,
				"element": "C" 
			},
			{
				"x": 1.5802115144,
				"y": -3.8694553178,
				"z": 0.8888922268,
				"element": "N" 
			},
			{
				"x": 1.7520022586,
				"y": -1.9872390973,
				"z": -2.3396184325,
				"element": "N" 
			},
			{
				"x": 1.5521852593,
				"y": -0.6267055842,
				"z": -2.3598040245,
				"element": "N" 
			},
			{
				"x": 1.2504243279,
				"y": -0.2334534229,
				"z": -1.1354719298,
				"element": "C" 
			},
			{
				"x": 0.9422018456,
				"y": 1.1576262917,
				"z": -0.7769025811,
				"element": "C" 
			},
			{
				"x": 1.1908624524,
				"y": 1.7013297745,
				"z": 0.4940597916,
				"element": "C" 
			},
			{
				"x": 0.8883478481,
				"y": 3.0364992379,
				"z": 0.7650486702,
				"element": "C" 
			},
			{
				"x": 0.3441067237,
				"y": 3.85052383,
				"z": -0.2281677258,
				"element": "C" 
			},
			{
				"x": 0.1099384187,
				"y": 3.3226379813,
				"z": -1.5012362838,
				"element": "C" 
			},
			{
				"x": 0.4033863606,
				"y": 1.9903047606,
				"z": -1.7748407674,
				"element": "C" 
			},
			{
				"x": -0.3749481612,
				"y": -3.1864533029,
				"z": 1.0592465403,
				"element": "H" 
			},
			{
				"x": 0.5756047585,
				"y": -3.0541924127,
				"z": 2.5401756426,
				"element": "H" 
			},
			{
				"x": 0.0882040783,
				"y": -0.8044095646,
				"z": 1.3779147932,
				"element": "H" 
			},
			{
				"x": 1.7944509314,
				"y": -1.1266535268,
				"z": 1.7250896349,
				"element": "H" 
			},
			{
				"x": 2.4837292712,
				"y": -4.3186951228,
				"z": -0.9582871492,
				"element": "H" 
			},
			{
				"x": 0.7285412554,
				"y": -4.3460581329,
				"z": -0.9622590664,
				"element": "H" 
			},
			{
				"x": 2.5085000328,
				"y": -3.6687861237,
				"z": 1.2548690748,
				"element": "H" 
			},
			{
				"x": 1.6502342054,
				"y": 1.0982149202,
				"z": 1.2693477687,
				"element": "H" 
			},
			{
				"x": 1.0902401073,
				"y": 3.4417389539,
				"z": 1.7524563621,
				"element": "H" 
			},
			{
				"x": 0.1094147647,
				"y": 4.8892865338,
				"z": -0.0149561605,
				"element": "H" 
			},
			{
				"x": -0.3075491228,
				"y": 3.9512474869,
				"z": -2.2824922678,
				"element": "H" 
			},
			{
				"x": 0.2280392074,
				"y": 1.5703672662,
				"z": -2.7591089079,
				"element": "H" 
			}
		],
		 "valence_orbital": [ 
			{
				"type": "occ",
				"energy": -0.28006,
				"method": "rhf"
			},
			{
				"type": "occ",
				"energy": -0.25702,
				"method": "rhf"
			},
			{
				"type": "occ",
				"energy": -0.24556,
				"method": "rhf"
			},
			{
				"type": "occ",
				"energy": -0.2419,
				"method": "rhf"
			},
			{
				"type": "occ",
				"energy": -0.22312,
				"method": "rhf"
			},
			{
				"type": "unocc",
				"energy": -0.02896,
				"method": "rhf"
			},
			{
				"type": "unocc",
				"energy": -0.00706,
				"method": "rhf"
			},
			{
				"type": "unocc",
				"energy": 0.03225,
				"method": "rhf"
			},
			{
				"type": "unocc",
				"energy": 0.05612,
				"method": "rhf"
			},
			{
				"type": "unocc",
				"energy": 0.06952,
				"method": "rhf"
			}
		],
		"cosmo_sigma_profile": { 
			"-0.025": 0.0,
			"-0.024": 0.0,
			"-0.023": 0.0,
			"-0.022": 0.0,
			"-0.021": 0.0,
			"-0.02": 0.0,
			"-0.019": 0.0,
			"-0.018": 0.0,
			"-0.017": 0.0,
			"-0.016": 0.0,
			"-0.015": 0.0,
			"-0.014": 0.0,
			"-0.013": 0.0,
			"-0.012": 0.187423833899,
			"-0.011": 1.77209253961,
			"-0.01": 1.98612998944,
			"-0.009": 2.3951132114,
			"-0.008": 3.45941773876,
			"-0.007": 8.94418586569,
			"-0.006": 21.3475669941,
			"-0.005": 27.1647381809,
			"-0.004": 22.4404363287,
			"-0.003": 16.1215302611,
			"-0.002": 13.2974839172,
			"-0.001": 12.3258946867,
			"0.0": 9.18866670864,
			"0.001": 11.6511635006,
			"0.002": 10.5461670091,
			"0.003": 11.3602627483,
			"0.004": 13.0757430625,
			"0.005": 11.6940979252,
			"0.006": 3.13054489013,
			"0.007": 3.37556497782,
			"0.008": 2.74839678474,
			"0.009": 1.95560950306,
			"0.01": 2.20909127579,
			"0.011": 3.37972238992,
			"0.012": 3.05293689093,
			"0.013": 2.58527068623,
			"0.014": 4.37459640405,
			"0.015": 3.47166995593,
			"0.016": 3.18352462571,
			"0.017": 1.95152362075,
			"0.018": 0.32596467614,
			"0.019": 0.0,
			"0.02": 0.0,
			"0.021": 0.0,
			"0.022": 0.0,
			"0.023": 0.0,
			"0.024": 0.0,
			"0.025": 0.0
		}
	}
}
