{
	 "smiles": "ClC1=CC(Cl)=C(C=C1)C(=O)NC1=C(Cl)N=CC=C1", 
	 "Tm": 422.15, 
	 "num_atms": 25, 
	 "gaussian": { 
		 "optdone": 1, 
		 "sigma_profile": "yes", 
		 "theory": "DFT", 
		 "functional": "B3LYP", 
		 "basiset": "6-31G**", 
		 "properties": { 
			 "R2extent": 6777.3801, 
			 "electric_dipole_moment_norm": 3.3734598308, 
			 "electric_quadrupole_moment_norm": 11.0139921237, 
			 "total_energy": -2026.80078184, 
			 "HOMO_LUMO_gap": 0.19023, 
			 "cosmo_polarized_energy": -14.47, 
			 "cosmo_cavitation_energy": 35.91, 
			 "cosmo_dispersion_energy": -25.17, 
			 "cosmo_repulsion_energy": 1.97, 
			 "cosmo_total_nonelectrostatic_energy": 12.71, 
			 "SMD_solvation_energy": 4.5 
		},
		"coords": [
			{
				"x": -3.4700115894,
				"y": 2.9575354343,
				"z": 0.3445073458,
				"element": "Cl" 
			},
			{
				"x": -2.4342248492,
				"y": 1.701735036,
				"z": -0.302252798,
				"element": "C" 
			},
			{
				"x": -1.7599944534,
				"y": 1.9311717209,
				"z": -1.5004298494,
				"element": "C" 
			},
			{
				"x": -0.9419595288,
				"y": 0.9265711199,
				"z": -2.0174082138,
				"element": "C" 
			},
			{
				"x": -0.0814266367,
				"y": 1.2611036843,
				"z": -3.5058292079,
				"element": "Cl" 
			},
			{
				"x": -0.7735619656,
				"y": -0.2933042166,
				"z": -1.3463783187,
				"element": "C" 
			},
			{
				"x": -1.4607655002,
				"y": -0.4828474404,
				"z": -0.1389997887,
				"element": "C" 
			},
			{
				"x": -2.2944609891,
				"y": 0.4988016521,
				"z": 0.3890173245,
				"element": "C" 
			},
			{
				"x": -0.0101171584,
				"y": -1.4464776608,
				"z": -1.9442935311,
				"element": "C" 
			},
			{
				"x": -0.3162469187,
				"y": -1.9239918002,
				"z": -3.0228431991,
				"element": "O" 
			},
			{
				"x": 0.9886916256,
				"y": -2.0306968831,
				"z": -1.179471362,
				"element": "N" 
			},
			{
				"x": 1.678408089,
				"y": -1.5621928661,
				"z": -0.0529302052,
				"element": "C" 
			},
			{
				"x": 2.1924894022,
				"y": -2.4674933385,
				"z": 0.9012767147,
				"element": "C" 
			},
			{
				"x": 1.9450072289,
				"y": -4.1990295789,
				"z": 0.6450849986,
				"element": "Cl" 
			},
			{
				"x": 2.869455693,
				"y": -2.124472156,
				"z": 1.9741634391,
				"element": "N" 
			},
			{
				"x": 3.088118141,
				"y": -0.8217600489,
				"z": 2.1979946019,
				"element": "C" 
			},
			{
				"x": 2.6482987003,
				"y": 0.1688241488,
				"z": 1.3237876005,
				"element": "C" 
			},
			{
				"x": 1.9514487992,
				"y": -0.2077219505,
				"z": 0.17836587,
				"element": "C" 
			},
			{
				"x": -1.8679807636,
				"y": 2.8721015791,
				"z": -2.0255534376,
				"element": "H" 
			},
			{
				"x": -1.3469146923,
				"y": -1.4248993774,
				"z": 0.3882409689,
				"element": "H" 
			},
			{
				"x": -2.8276346525,
				"y": 0.3354910681,
				"z": 1.3182580254,
				"element": "H" 
			},
			{
				"x": 1.277879922,
				"y": -2.9310209318,
				"z": -1.5460639223,
				"element": "H" 
			},
			{
				"x": 3.6389350965,
				"y": -0.5758396196,
				"z": 3.1019893163,
				"element": "H" 
			},
			{
				"x": 2.8626150146,
				"y": 1.2139482035,
				"z": 1.5202207089,
				"element": "H" 
			},
			{
				"x": 1.6288519854,
				"y": 0.5359642219,
				"z": -0.5403530806,
				"element": "H" 
			}
		],
		 "valence_orbital": [ 
			{
				"type": "occ",
				"energy": -0.29195,
				"method": "rhf"
			},
			{
				"type": "occ",
				"energy": -0.28068,
				"method": "rhf"
			},
			{
				"type": "occ",
				"energy": -0.27514,
				"method": "rhf"
			},
			{
				"type": "occ",
				"energy": -0.26236,
				"method": "rhf"
			},
			{
				"type": "occ",
				"energy": -0.24985,
				"method": "rhf"
			},
			{
				"type": "unocc",
				"energy": -0.05962,
				"method": "rhf"
			},
			{
				"type": "unocc",
				"energy": -0.04926,
				"method": "rhf"
			},
			{
				"type": "unocc",
				"energy": -0.04223,
				"method": "rhf"
			},
			{
				"type": "unocc",
				"energy": -0.03122,
				"method": "rhf"
			},
			{
				"type": "unocc",
				"energy": -0.0048,
				"method": "rhf"
			}
		],
		"cosmo_sigma_profile": { 
			"-0.025": 0.0,
			"-0.024": 0.0,
			"-0.023": 0.0,
			"-0.022": 0.0,
			"-0.021": 0.0,
			"-0.02": 0.0,
			"-0.019": 0.0,
			"-0.018": 0.0,
			"-0.017": 0.0,
			"-0.016": 0.0,
			"-0.015": 0.0,
			"-0.014": 0.216673733421,
			"-0.013": 0.671723984614,
			"-0.012": 0.686399797075,
			"-0.011": 0.885446524336,
			"-0.01": 1.04575535302,
			"-0.009": 2.49899280272,
			"-0.008": 9.38902400165,
			"-0.007": 14.7925363875,
			"-0.006": 15.8906063599,
			"-0.005": 12.5453026864,
			"-0.004": 10.9982711553,
			"-0.003": 14.9002058265,
			"-0.002": 20.6198710578,
			"-0.001": 23.7386801925,
			"0.0": 34.0325148005,
			"0.001": 32.1137856356,
			"0.002": 21.4235212065,
			"0.003": 22.0903721517,
			"0.004": 21.0762419572,
			"0.005": 5.88066685511,
			"0.006": 4.29217498549,
			"0.007": 4.03100796269,
			"0.008": 2.86784896984,
			"0.009": 3.40754643473,
			"0.01": 3.41532044485,
			"0.011": 3.97419255706,
			"0.012": 6.32544817307,
			"0.013": 1.92356397858,
			"0.014": 0.582080823312,
			"0.015": 0.0,
			"0.016": 0.0,
			"0.017": 0.0,
			"0.018": 0.0,
			"0.019": 0.0,
			"0.02": 0.0,
			"0.021": 0.0,
			"0.022": 0.0,
			"0.023": 0.0,
			"0.024": 0.0,
			"0.025": 0.0
		}
	}
}
