{
	 "smiles": "COC1=C(C=CC=C1)C(NC(=O)OC(C)(C)C)C#N", 
	 "Tm": 353.15, 
	 "num_atms": 37, 
	 "gaussian": { 
		 "optdone": 1, 
		 "sigma_profile": "yes", 
		 "theory": "DFT", 
		 "functional": "B3LYP", 
		 "basiset": "6-31G**", 
		 "properties": { 
			 "R2extent": 6007.0806, 
			 "electric_dipole_moment_norm": 5.20634214588, 
			 "electric_quadrupole_moment_norm": 16.616076629, 
			 "total_energy": -879.513310971, 
			 "HOMO_LUMO_gap": 0.21419, 
			 "cosmo_polarized_energy": -15.8, 
			 "cosmo_cavitation_energy": 41.11, 
			 "cosmo_dispersion_energy": -26.45, 
			 "cosmo_repulsion_energy": 2.1, 
			 "cosmo_total_nonelectrostatic_energy": 16.76, 
			 "SMD_solvation_energy": 10.26 
		},
		"coords": [
			{
				"x": -4.6555522227,
				"y": 0.3834976873,
				"z": -1.2214606175,
				"element": "C" 
			},
			{
				"x": -3.3849723337,
				"y": 0.6629443272,
				"z": -0.6501535483,
				"element": "O" 
			},
			{
				"x": -2.5735858967,
				"y": 1.5713199063,
				"z": -1.2669417741,
				"element": "C" 
			},
			{
				"x": -1.3581706365,
				"y": 1.8357836352,
				"z": -0.6035411777,
				"element": "C" 
			},
			{
				"x": -0.4617284454,
				"y": 2.7391015969,
				"z": -1.165243308,
				"element": "C" 
			},
			{
				"x": -0.7546708386,
				"y": 3.3878989164,
				"z": -2.3688148534,
				"element": "C" 
			},
			{
				"x": -1.9598254109,
				"y": 3.1239219818,
				"z": -3.0129939918,
				"element": "C" 
			},
			{
				"x": -2.8734134562,
				"y": 2.2152378742,
				"z": -2.4703957669,
				"element": "C" 
			},
			{
				"x": -1.0702891828,
				"y": 1.1027170482,
				"z": 0.7126619784,
				"element": "C" 
			},
			{
				"x": 0.3090152018,
				"y": 1.1771308825,
				"z": 1.1640426117,
				"element": "N" 
			},
			{
				"x": 1.2891683733,
				"y": 0.2381983981,
				"z": 0.935745428,
				"element": "C" 
			},
			{
				"x": 2.4367881524,
				"y": 0.390206512,
				"z": 1.3157255536,
				"element": "O" 
			},
			{
				"x": 0.791048292,
				"y": -0.818828741,
				"z": 0.2610730733,
				"element": "O" 
			},
			{
				"x": 1.6507126261,
				"y": -1.9655973434,
				"z": -0.0927023616,
				"element": "C" 
			},
			{
				"x": 2.1860643124,
				"y": -2.6276272698,
				"z": 1.1804729848,
				"element": "C" 
			},
			{
				"x": 0.6783282451,
				"y": -2.8934247151,
				"z": -0.8245228535,
				"element": "C" 
			},
			{
				"x": 2.772831916,
				"y": -1.5031676639,
				"z": -1.0272153861,
				"element": "C" 
			},
			{
				"x": -1.9484094325,
				"y": 1.6080800953,
				"z": 1.7917801538,
				"element": "C" 
			},
			{
				"x": -2.6165213854,
				"y": 2.0274804466,
				"z": 2.6427760427,
				"element": "N" 
			},
			{
				"x": -5.1333650108,
				"y": -0.3333691736,
				"z": -0.5528008928,
				"element": "H" 
			},
			{
				"x": -5.2726370743,
				"y": 1.2877860685,
				"z": -1.2841532008,
				"element": "H" 
			},
			{
				"x": -4.5586260678,
				"y": -0.0598676767,
				"z": -2.2203982675,
				"element": "H" 
			},
			{
				"x": 0.4814020116,
				"y": 2.927643751,
				"z": -0.6625526974,
				"element": "H" 
			},
			{
				"x": -0.0446320527,
				"y": 4.0898726832,
				"z": -2.7939547246,
				"element": "H" 
			},
			{
				"x": -2.2002524766,
				"y": 3.6213194213,
				"z": -3.948125805,
				"element": "H" 
			},
			{
				"x": -3.8051810795,
				"y": 2.0166093731,
				"z": -2.986248611,
				"element": "H" 
			},
			{
				"x": -1.3133062553,
				"y": 0.045851648,
				"z": 0.5731695066,
				"element": "H" 
			},
			{
				"x": 0.6249361548,
				"y": 1.9922125946,
				"z": 1.6680216368,
				"element": "H" 
			},
			{
				"x": 1.3593996243,
				"y": -2.9033470355,
				"z": 1.8428180091,
				"element": "H" 
			},
			{
				"x": 2.8608399435,
				"y": -1.9589046326,
				"z": 1.7151890871,
				"element": "H" 
			},
			{
				"x": 2.7285698409,
				"y": -3.5411883677,
				"z": 0.9165510766,
				"element": "H" 
			},
			{
				"x": 1.1992515369,
				"y": -3.7982864648,
				"z": -1.1509527673,
				"element": "H" 
			},
			{
				"x": 0.259588118,
				"y": -2.3977154012,
				"z": -1.7051000351,
				"element": "H" 
			},
			{
				"x": -0.145613716,
				"y": -3.1871012118,
				"z": -0.1675240013,
				"element": "H" 
			},
			{
				"x": 3.3380678749,
				"y": -2.3728424192,
				"z": -1.3775104519,
				"element": "H" 
			},
			{
				"x": 3.4537607807,
				"y": -0.823706824,
				"z": -0.5142621823,
				"element": "H" 
			},
			{
				"x": 2.3540799696,
				"y": -0.9953399072,
				"z": -1.9017578667,
				"element": "H" 
			}
		],
		 "valence_orbital": [ 
			{
				"type": "occ",
				"energy": -0.29675,
				"method": "rhf"
			},
			{
				"type": "occ",
				"energy": -0.27047,
				"method": "rhf"
			},
			{
				"type": "occ",
				"energy": -0.26839,
				"method": "rhf"
			},
			{
				"type": "occ",
				"energy": -0.25892,
				"method": "rhf"
			},
			{
				"type": "occ",
				"energy": -0.23117,
				"method": "rhf"
			},
			{
				"type": "unocc",
				"energy": -0.01698,
				"method": "rhf"
			},
			{
				"type": "unocc",
				"energy": -0.00048,
				"method": "rhf"
			},
			{
				"type": "unocc",
				"energy": 0.02857,
				"method": "rhf"
			},
			{
				"type": "unocc",
				"energy": 0.03907,
				"method": "rhf"
			},
			{
				"type": "unocc",
				"energy": 0.0567,
				"method": "rhf"
			}
		],
		"cosmo_sigma_profile": { 
			"-0.025": 0.0,
			"-0.024": 0.0,
			"-0.023": 0.0,
			"-0.022": 0.0,
			"-0.021": 0.0,
			"-0.02": 0.0,
			"-0.019": 0.0,
			"-0.018": 0.0,
			"-0.017": 0.0,
			"-0.016": 0.116428340263,
			"-0.015": 0.706248840628,
			"-0.014": 1.27812118242,
			"-0.013": 1.18015397837,
			"-0.012": 0.648906548863,
			"-0.011": 1.5405444867,
			"-0.01": 1.07811972793,
			"-0.009": 1.08704436208,
			"-0.008": 1.72176409593,
			"-0.007": 3.60368846729,
			"-0.006": 13.6774229909,
			"-0.005": 19.8216792416,
			"-0.004": 30.6963105181,
			"-0.003": 30.1926052653,
			"-0.002": 27.3670527315,
			"-0.001": 28.4670523658,
			"0.0": 34.2521826749,
			"0.001": 26.6695480911,
			"0.002": 15.31688757,
			"0.003": 16.5211497419,
			"0.004": 14.7933645724,
			"0.005": 14.116383032,
			"0.006": 7.17257861142,
			"0.007": 5.27338033314,
			"0.008": 4.64150083487,
			"0.009": 4.80074985732,
			"0.01": 4.78139813306,
			"0.011": 3.92065024058,
			"0.012": 4.7777334489,
			"0.013": 4.33088053523,
			"0.014": 0.455433532377,
			"0.015": 0.0,
			"0.016": 0.0,
			"0.017": 0.0,
			"0.018": 0.0,
			"0.019": 0.0,
			"0.02": 0.0,
			"0.021": 0.0,
			"0.022": 0.0,
			"0.023": 0.0,
			"0.024": 0.0,
			"0.025": 0.0
		}
	}
}
