{
	 "smiles": "CCOC(=O)C(=O)CC(=O)C1=C(Cl)C=CC(Cl)=C1", 
	 "Tm": 350.15, 
	 "num_atms": 28, 
	 "gaussian": { 
		 "optdone": 1, 
		 "sigma_profile": "yes", 
		 "theory": "DFT", 
		 "functional": "B3LYP", 
		 "basiset": "6-31G**", 
		 "properties": { 
			 "R2extent": 7317.4704, 
			 "electric_dipole_moment_norm": 5.81183049133, 
			 "electric_quadrupole_moment_norm": 17.9538513528, 
			 "total_energy": -1684.570066, 
			 "HOMO_LUMO_gap": 0.17189, 
			 "cosmo_polarized_energy": -14.96, 
			 "cosmo_cavitation_energy": 37.6, 
			 "cosmo_dispersion_energy": -25.99, 
			 "cosmo_repulsion_energy": 2.06, 
			 "cosmo_total_nonelectrostatic_energy": 13.67, 
			 "SMD_solvation_energy": 8.09 
		},
		"coords": [
			{
				"x": 2.0833948606,
				"y": 4.9090920818,
				"z": 0.3880538855,
				"element": "C" 
			},
			{
				"x": 1.3436297949,
				"y": 4.6016201516,
				"z": -0.89878689,
				"element": "C" 
			},
			{
				"x": 1.3176400762,
				"y": 3.1598545833,
				"z": -1.0570856064,
				"element": "O" 
			},
			{
				"x": 0.6981621963,
				"y": 2.7055899854,
				"z": -2.162615763,
				"element": "C" 
			},
			{
				"x": 0.2146389116,
				"y": 3.3940965765,
				"z": -3.0266821555,
				"element": "O" 
			},
			{
				"x": 0.7181709239,
				"y": 1.1625854991,
				"z": -2.2135017974,
				"element": "C" 
			},
			{
				"x": 0.5545009167,
				"y": 0.6063811264,
				"z": -3.2735868854,
				"element": "O" 
			},
			{
				"x": 0.9632648679,
				"y": 0.3986726009,
				"z": -0.9175503097,
				"element": "C" 
			},
			{
				"x": -0.2182587148,
				"y": 0.5633715795,
				"z": 0.0291688073,
				"element": "C" 
			},
			{
				"x": -1.0641135709,
				"y": 1.411455699,
				"z": -0.2109231245,
				"element": "O" 
			},
			{
				"x": -0.4170259698,
				"y": -0.3470981582,
				"z": 1.2208671667,
				"element": "C" 
			},
			{
				"x": 0.5327641023,
				"y": -1.1533390471,
				"z": 1.8758319533,
				"element": "C" 
			},
			{
				"x": 2.2341630343,
				"y": -1.2012858163,
				"z": 1.4325023005,
				"element": "Cl" 
			},
			{
				"x": 0.1700573276,
				"y": -1.9480301722,
				"z": 2.9666152363,
				"element": "C" 
			},
			{
				"x": -1.1418486937,
				"y": -1.9636190566,
				"z": 3.4270343359,
				"element": "C" 
			},
			{
				"x": -2.0910440703,
				"y": -1.1609900473,
				"z": 2.7923959367,
				"element": "C" 
			},
			{
				"x": -3.746917374,
				"y": -1.162245563,
				"z": 3.3645315953,
				"element": "Cl" 
			},
			{
				"x": -1.7355871619,
				"y": -0.3639649524,
				"z": 1.7149445887,
				"element": "C" 
			},
			{
				"x": 3.1095862025,
				"y": 4.532065592,
				"z": 0.3511755558,
				"element": "H" 
			},
			{
				"x": 1.578392207,
				"y": 4.4582862991,
				"z": 1.2470704131,
				"element": "H" 
			},
			{
				"x": 2.1213731875,
				"y": 5.9919091966,
				"z": 0.5416893816,
				"element": "H" 
			},
			{
				"x": 1.8332080206,
				"y": 5.0381469481,
				"z": -1.7747285604,
				"element": "H" 
			},
			{
				"x": 0.3109328001,
				"y": 4.9624430365,
				"z": -0.8804559391,
				"element": "H" 
			},
			{
				"x": 1.1277191158,
				"y": -0.6542189578,
				"z": -1.1603003927,
				"element": "H" 
			},
			{
				"x": 1.8665098765,
				"y": 0.7784418627,
				"z": -0.429607244,
				"element": "H" 
			},
			{
				"x": 0.9252900039,
				"y": -2.5525847236,
				"z": 3.4557279369,
				"element": "H" 
			},
			{
				"x": -1.4218720593,
				"y": -2.5866610515,
				"z": 4.2690292589,
				"element": "H" 
			},
			{
				"x": -2.4649308113,
				"y": 0.2684247275,
				"z": 1.2232863157,
				"element": "H" 
			}
		],
		 "valence_orbital": [ 
			{
				"type": "occ",
				"energy": -0.29921,
				"method": "rhf"
			},
			{
				"type": "occ",
				"energy": -0.29376,
				"method": "rhf"
			},
			{
				"type": "occ",
				"energy": -0.28282,
				"method": "rhf"
			},
			{
				"type": "occ",
				"energy": -0.26487,
				"method": "rhf"
			},
			{
				"type": "occ",
				"energy": -0.25792,
				"method": "rhf"
			},
			{
				"type": "unocc",
				"energy": -0.08603,
				"method": "rhf"
			},
			{
				"type": "unocc",
				"energy": -0.06908,
				"method": "rhf"
			},
			{
				"type": "unocc",
				"energy": -0.04173,
				"method": "rhf"
			},
			{
				"type": "unocc",
				"energy": -0.00366,
				"method": "rhf"
			},
			{
				"type": "unocc",
				"energy": 0.0058,
				"method": "rhf"
			}
		],
		"cosmo_sigma_profile": { 
			"-0.025": 0.0,
			"-0.024": 0.0,
			"-0.023": 0.0,
			"-0.022": 0.0,
			"-0.021": 0.0,
			"-0.02": 0.0,
			"-0.019": 0.0,
			"-0.018": 0.0,
			"-0.017": 0.0,
			"-0.016": 0.0,
			"-0.015": 0.0,
			"-0.014": 0.0,
			"-0.013": 0.0,
			"-0.012": 0.0,
			"-0.011": 0.0,
			"-0.01": 0.0,
			"-0.009": 2.0556017182,
			"-0.008": 7.92330749545,
			"-0.007": 9.85293355576,
			"-0.006": 12.8674968777,
			"-0.005": 18.7089701057,
			"-0.004": 23.5256910142,
			"-0.003": 23.4281238937,
			"-0.002": 22.7822475798,
			"-0.001": 27.3478127093,
			"0.0": 35.4278007735,
			"0.001": 25.1537631208,
			"0.002": 15.582411084,
			"0.003": 18.7101283861,
			"0.004": 16.6694844229,
			"0.005": 5.63030344337,
			"0.006": 4.01195904547,
			"0.007": 4.69275800689,
			"0.008": 5.58340821615,
			"0.009": 8.07525821894,
			"0.01": 8.85048274924,
			"0.011": 5.75303957959,
			"0.012": 2.04246618823,
			"0.013": 0.103350938058,
			"0.014": 0.0,
			"0.015": 0.0,
			"0.016": 0.0,
			"0.017": 0.0,
			"0.018": 0.0,
			"0.019": 0.0,
			"0.02": 0.0,
			"0.021": 0.0,
			"0.022": 0.0,
			"0.023": 0.0,
			"0.024": 0.0,
			"0.025": 0.0
		}
	}
}
