{
	 "smiles": "N[C@@H](CC1=CC=C(O)C(F)=C1)C(O)=O", 
	 "Tm": 534.15, 
	 "num_atms": 24, 
	 "gaussian": { 
		 "optdone": 1, 
		 "sigma_profile": "yes", 
		 "theory": "DFT", 
		 "functional": "B3LYP", 
		 "basiset": "6-31G**", 
		 "properties": { 
			 "R2extent": 3910.3231, 
			 "electric_dipole_moment_norm": 4.51853796155, 
			 "electric_quadrupole_moment_norm": 23.5636473007, 
			 "total_energy": -729.253487798, 
			 "HOMO_LUMO_gap": 0.21207, 
			 "cosmo_polarized_energy": -17.98, 
			 "cosmo_cavitation_energy": 28.81, 
			 "cosmo_dispersion_energy": -20.53, 
			 "cosmo_repulsion_energy": 1.61, 
			 "cosmo_total_nonelectrostatic_energy": 9.89, 
			 "SMD_solvation_energy": 6.31 
		},
		"coords": [
			{
				"x": 1.3839054636,
				"y": -1.3544508642,
				"z": -0.8103616158,
				"element": "N" 
			},
			{
				"x": 0.3037651512,
				"y": -0.6159685059,
				"z": -1.4850406549,
				"element": "C" 
			},
			{
				"x": 0.183744513,
				"y": 0.8828908621,
				"z": -1.1371423395,
				"element": "C" 
			},
			{
				"x": -0.1780656836,
				"y": 1.1284782934,
				"z": 0.3100896453,
				"element": "C" 
			},
			{
				"x": 0.8010581595,
				"y": 1.3913669693,
				"z": 1.2778469185,
				"element": "C" 
			},
			{
				"x": 0.4752139751,
				"y": 1.5801222404,
				"z": 2.6229447912,
				"element": "C" 
			},
			{
				"x": -0.8552831644,
				"y": 1.5067476499,
				"z": 3.033215957,
				"element": "C" 
			},
			{
				"x": -1.1920721522,
				"y": 1.6902109157,
				"z": 4.3380078561,
				"element": "O" 
			},
			{
				"x": -1.8266680103,
				"y": 1.2459157915,
				"z": 2.0612803242,
				"element": "C" 
			},
			{
				"x": -3.1174404086,
				"y": 1.1895151955,
				"z": 2.4912498728,
				"element": "F" 
			},
			{
				"x": -1.5176383343,
				"y": 1.0582749382,
				"z": 0.727162747,
				"element": "C" 
			},
			{
				"x": 0.4354546869,
				"y": -0.8233729705,
				"z": -3.0115244014,
				"element": "C" 
			},
			{
				"x": 1.1903139806,
				"y": -1.8807136646,
				"z": -3.3425035634,
				"element": "O" 
			},
			{
				"x": -0.1174751438,
				"y": -0.12049955,
				"z": -3.825283031,
				"element": "O" 
			},
			{
				"x": 2.2194502082,
				"y": -0.776435775,
				"z": -0.7410011928,
				"element": "H" 
			},
			{
				"x": 1.120369017,
				"y": -1.6011633849,
				"z": 0.1387598544,
				"element": "H" 
			},
			{
				"x": -0.6367379716,
				"y": -1.1108515616,
				"z": -1.2084679665,
				"element": "H" 
			},
			{
				"x": -0.5629227917,
				"y": 1.3147724096,
				"z": -1.809349411,
				"element": "H" 
			},
			{
				"x": 1.1357160585,
				"y": 1.3741002885,
				"z": -1.3759386205,
				"element": "H" 
			},
			{
				"x": 1.8420601252,
				"y": 1.4694170292,
				"z": 0.9753475249,
				"element": "H" 
			},
			{
				"x": 1.2377968392,
				"y": 1.7919004978,
				"z": 3.3650637242,
				"element": "H" 
			},
			{
				"x": -2.1549238809,
				"y": 1.613653982,
				"z": 4.4085728268,
				"element": "H" 
			},
			{
				"x": -2.3221470259,
				"y": 0.8689992053,
				"z": 0.022706099,
				"element": "H" 
			},
			{
				"x": 1.5262263894,
				"y": -2.228309992,
				"z": -2.4825353446,
				"element": "H" 
			}
		],
		 "valence_orbital": [ 
			{
				"type": "occ",
				"energy": -0.30368,
				"method": "rhf"
			},
			{
				"type": "occ",
				"energy": -0.29646,
				"method": "rhf"
			},
			{
				"type": "occ",
				"energy": -0.26539,
				"method": "rhf"
			},
			{
				"type": "occ",
				"energy": -0.25621,
				"method": "rhf"
			},
			{
				"type": "occ",
				"energy": -0.23094,
				"method": "rhf"
			},
			{
				"type": "unocc",
				"energy": -0.01887,
				"method": "rhf"
			},
			{
				"type": "unocc",
				"energy": -0.0049,
				"method": "rhf"
			},
			{
				"type": "unocc",
				"energy": 0.01309,
				"method": "rhf"
			},
			{
				"type": "unocc",
				"energy": 0.05541,
				"method": "rhf"
			},
			{
				"type": "unocc",
				"energy": 0.06743,
				"method": "rhf"
			}
		],
		"cosmo_sigma_profile": { 
			"-0.025": 0.0,
			"-0.024": 0.0,
			"-0.023": 0.0,
			"-0.022": 0.0,
			"-0.021": 0.0,
			"-0.02": 0.0,
			"-0.019": 0.0,
			"-0.018": 0.0,
			"-0.017": 0.0062346580326,
			"-0.016": 0.727539175188,
			"-0.015": 0.540571106112,
			"-0.014": 0.857446616921,
			"-0.013": 0.701691754981,
			"-0.012": 0.699126199396,
			"-0.011": 3.69238025483,
			"-0.01": 4.3717880443,
			"-0.009": 5.47430430362,
			"-0.008": 5.79755689014,
			"-0.007": 10.9467402842,
			"-0.006": 14.9765531841,
			"-0.005": 13.4213654764,
			"-0.004": 13.8245093804,
			"-0.003": 10.8113754321,
			"-0.002": 11.0038724052,
			"-0.001": 11.7315952294,
			"0.0": 10.975993229,
			"0.001": 11.7740282869,
			"0.002": 13.8393320981,
			"0.003": 17.5813795513,
			"0.004": 15.5777600997,
			"0.005": 8.00257080314,
			"0.006": 5.07465916796,
			"0.007": 3.99432491619,
			"0.008": 4.55061551464,
			"0.009": 4.12142711046,
			"0.01": 6.42505523845,
			"0.011": 7.13863498321,
			"0.012": 5.46900899645,
			"0.013": 3.12124291743,
			"0.014": 0.576189727877,
			"0.015": 0.0,
			"0.016": 0.0,
			"0.017": 0.0,
			"0.018": 0.0,
			"0.019": 0.0,
			"0.02": 0.0,
			"0.021": 0.0,
			"0.022": 0.0,
			"0.023": 0.0,
			"0.024": 0.0,
			"0.025": 0.0
		}
	}
}
