{
	 "smiles": "NC(=O)C1=CC=C(OC(F)(F)F)C=C1", 
	 "Tm": 428.65, 
	 "num_atms": 20, 
	 "gaussian": { 
		 "optdone": 1, 
		 "sigma_profile": "yes", 
		 "theory": "DFT", 
		 "functional": "B3LYP", 
		 "basiset": "6-31G**", 
		 "properties": { 
			 "R2extent": 3982.3354, 
			 "electric_dipole_moment_norm": 3.38670203148, 
			 "electric_quadrupole_moment_norm": 16.9412456233, 
			 "total_energy": -813.207458592, 
			 "HOMO_LUMO_gap": 0.20806, 
			 "cosmo_polarized_energy": -12.59, 
			 "cosmo_cavitation_energy": 26.44, 
			 "cosmo_dispersion_energy": -19.21, 
			 "cosmo_repulsion_energy": 1.45, 
			 "cosmo_total_nonelectrostatic_energy": 8.68, 
			 "SMD_solvation_energy": 6.89 
		},
		"coords": [
			{
				"x": -2.4839984443,
				"y": -3.8637201189,
				"z": 1.1015571216,
				"element": "N" 
			},
			{
				"x": -2.2607815428,
				"y": -3.3447326236,
				"z": -0.1526886032,
				"element": "C" 
			},
			{
				"x": -2.6666897276,
				"y": -3.9044221207,
				"z": -1.1637513228,
				"element": "O" 
			},
			{
				"x": -1.4691536287,
				"y": -2.0706039389,
				"z": -0.2158947328,
				"element": "C" 
			},
			{
				"x": -1.5106978122,
				"y": -1.3448355159,
				"z": -1.4116346096,
				"element": "C" 
			},
			{
				"x": -0.8101581725,
				"y": -0.1507848805,
				"z": -1.5614514974,
				"element": "C" 
			},
			{
				"x": -0.0431396538,
				"y": 0.3132235222,
				"z": -0.4904988754,
				"element": "C" 
			},
			{
				"x": 0.7085105336,
				"y": 1.4865933901,
				"z": -0.4974513865,
				"element": "O" 
			},
			{
				"x": 0.74533047,
				"y": 2.2978327719,
				"z": -1.5851895412,
				"element": "C" 
			},
			{
				"x": -0.4712002882,
				"y": 2.7734238322,
				"z": -1.9139701915,
				"element": "F" 
			},
			{
				"x": 1.5357442003,
				"y": 3.3257668239,
				"z": -1.2848508763,
				"element": "F" 
			},
			{
				"x": 1.2408852222,
				"y": 1.6786244854,
				"z": -2.6734527393,
				"element": "F" 
			},
			{
				"x": 0.0311095983,
				"y": -0.4015373243,
				"z": 0.7055122441,
				"element": "C" 
			},
			{
				"x": -0.680519846,
				"y": -1.5891629996,
				"z": 0.8388651979,
				"element": "C" 
			},
			{
				"x": -2.469375297,
				"y": -3.2644634026,
				"z": 1.9120472838,
				"element": "H" 
			},
			{
				"x": -3.1165682612,
				"y": -4.6506443602,
				"z": 1.1316701425,
				"element": "H" 
			},
			{
				"x": -2.10557031,
				"y": -1.738630901,
				"z": -2.2284852881,
				"element": "H" 
			},
			{
				"x": -0.8646095334,
				"y": 0.3948076243,
				"z": -2.4938401708,
				"element": "H" 
			},
			{
				"x": 0.6523330572,
				"y": -0.0203275987,
				"z": 1.5085224075,
				"element": "H" 
			},
			{
				"x": -0.5863505641,
				"y": -2.1534066649,
				"z": 1.7615854376,
				"element": "H" 
			}
		],
		 "valence_orbital": [ 
			{
				"type": "occ",
				"energy": -0.3555,
				"method": "rhf"
			},
			{
				"type": "occ",
				"energy": -0.27905,
				"method": "rhf"
			},
			{
				"type": "occ",
				"energy": -0.27321,
				"method": "rhf"
			},
			{
				"type": "occ",
				"energy": -0.25941,
				"method": "rhf"
			},
			{
				"type": "occ",
				"energy": -0.25135,
				"method": "rhf"
			},
			{
				"type": "unocc",
				"energy": -0.04329,
				"method": "rhf"
			},
			{
				"type": "unocc",
				"energy": -0.02357,
				"method": "rhf"
			},
			{
				"type": "unocc",
				"energy": 0.05096,
				"method": "rhf"
			},
			{
				"type": "unocc",
				"energy": 0.06843,
				"method": "rhf"
			},
			{
				"type": "unocc",
				"energy": 0.09579,
				"method": "rhf"
			}
		],
		"cosmo_sigma_profile": { 
			"-0.025": 0.0,
			"-0.024": 0.0,
			"-0.023": 0.0,
			"-0.022": 0.0,
			"-0.021": 0.0,
			"-0.02": 0.0,
			"-0.019": 0.0,
			"-0.018": 0.0,
			"-0.017": 0.0,
			"-0.016": 0.0,
			"-0.015": 0.221025941317,
			"-0.014": 1.51529566657,
			"-0.013": 2.84619163417,
			"-0.012": 2.46572983461,
			"-0.011": 2.35237039381,
			"-0.01": 2.53610199244,
			"-0.009": 2.59527052768,
			"-0.008": 4.10087857151,
			"-0.007": 6.32940247947,
			"-0.006": 8.34691946573,
			"-0.005": 7.07430246412,
			"-0.004": 5.4600834616,
			"-0.003": 7.65766438383,
			"-0.002": 10.0919569128,
			"-0.001": 15.2637166198,
			"0.0": 22.6842292652,
			"0.001": 31.7030783823,
			"0.002": 37.2729205332,
			"0.003": 11.7942013579,
			"0.004": 4.55613836816,
			"0.005": 3.91569555575,
			"0.006": 2.44841605008,
			"0.007": 2.18052667232,
			"0.008": 1.79708510137,
			"0.009": 2.23679312921,
			"0.01": 0.66074880605,
			"0.011": 1.56827637715,
			"0.012": 2.02844170935,
			"0.013": 5.06101289905,
			"0.014": 3.23835414482,
			"0.015": 0.118722797611,
			"0.016": 0.0,
			"0.017": 0.0,
			"0.018": 0.0,
			"0.019": 0.0,
			"0.02": 0.0,
			"0.021": 0.0,
			"0.022": 0.0,
			"0.023": 0.0,
			"0.024": 0.0,
			"0.025": 0.0
		}
	}
}
