{
	 "smiles": "ClCC(Cl)=C", 
	 "Tm": 283.15, 
	 "num_atms": 9, 
	 "gaussian": { 
		 "optdone": 1, 
		 "sigma_profile": "yes", 
		 "theory": "DFT", 
		 "functional": "B3LYP", 
		 "basiset": "6-31G**", 
		 "properties": { 
			 "R2extent": 2842.7721, 
			 "electric_dipole_moment_norm": 2.67734021932, 
			 "electric_quadrupole_moment_norm": 10.1801155195, 
			 "total_energy": -1037.09258724, 
			 "HOMO_LUMO_gap": 0.23634, 
			 "cosmo_polarized_energy": -5.99, 
			 "cosmo_cavitation_energy": 16.5, 
			 "cosmo_dispersion_energy": -12.21, 
			 "cosmo_repulsion_energy": 1.08, 
			 "cosmo_total_nonelectrostatic_energy": 5.37, 
			 "SMD_solvation_energy": 3.09 
		},
		"coords": [
			{
				"x": -3.4186101273,
				"y": 2.7798113642,
				"z": 2.5127693412,
				"element": "Cl" 
			},
			{
				"x": -2.8179034558,
				"y": 2.4422423695,
				"z": 0.8250401731,
				"element": "C" 
			},
			{
				"x": -1.5065705825,
				"y": 1.7248509538,
				"z": 0.8102330098,
				"element": "C" 
			},
			{
				"x": -0.1236474121,
				"y": 2.6914016686,
				"z": 1.3089939377,
				"element": "Cl" 
			},
			{
				"x": -1.348478591,
				"y": 0.4579656832,
				"z": 0.4298407819,
				"element": "C" 
			},
			{
				"x": -3.5815820443,
				"y": 1.8343241933,
				"z": 0.339575823,
				"element": "H" 
			},
			{
				"x": -2.7491303615,
				"y": 3.4129971593,
				"z": 0.3329264339,
				"element": "H" 
			},
			{
				"x": -0.3766353225,
				"y": -0.0202014976,
				"z": 0.4071480939,
				"element": "H" 
			},
			{
				"x": -2.2119421029,
				"y": -0.1284918942,
				"z": 0.1321724055,
				"element": "H" 
			}
		],
		 "valence_orbital": [ 
			{
				"type": "occ",
				"energy": -0.36132,
				"method": "rhf"
			},
			{
				"type": "occ",
				"energy": -0.32093,
				"method": "rhf"
			},
			{
				"type": "occ",
				"energy": -0.30448,
				"method": "rhf"
			},
			{
				"type": "occ",
				"energy": -0.30195,
				"method": "rhf"
			},
			{
				"type": "occ",
				"energy": -0.27108,
				"method": "rhf"
			},
			{
				"type": "unocc",
				"energy": -0.03474,
				"method": "rhf"
			},
			{
				"type": "unocc",
				"energy": 0.02159,
				"method": "rhf"
			},
			{
				"type": "unocc",
				"energy": 0.04085,
				"method": "rhf"
			},
			{
				"type": "unocc",
				"energy": 0.09426,
				"method": "rhf"
			},
			{
				"type": "unocc",
				"energy": 0.13432,
				"method": "rhf"
			}
		],
		"cosmo_sigma_profile": { 
			"-0.025": 0.0,
			"-0.024": 0.0,
			"-0.023": 0.0,
			"-0.022": 0.0,
			"-0.021": 0.0,
			"-0.02": 0.0,
			"-0.019": 0.0,
			"-0.018": 0.0,
			"-0.017": 0.0,
			"-0.016": 0.0,
			"-0.015": 0.0,
			"-0.014": 0.0,
			"-0.013": 0.0,
			"-0.012": 0.0,
			"-0.011": 0.0,
			"-0.01": 0.313443722659,
			"-0.009": 3.37920164449,
			"-0.008": 7.16331897079,
			"-0.007": 6.97897700268,
			"-0.006": 6.2262366829,
			"-0.005": 6.71892539726,
			"-0.004": 5.96398593768,
			"-0.003": 5.83920110528,
			"-0.002": 5.31591079877,
			"-0.001": 7.51772527151,
			"0.0": 8.51955203974,
			"0.001": 9.16824209293,
			"0.002": 10.6389958705,
			"0.003": 12.3967029334,
			"0.004": 13.4018380193,
			"0.005": 13.1901869082,
			"0.006": 11.5731565692,
			"0.007": 1.65621173675,
			"0.008": 0.0,
			"0.009": 0.0,
			"0.01": 0.0,
			"0.011": 0.0,
			"0.012": 0.0,
			"0.013": 0.0,
			"0.014": 0.0,
			"0.015": 0.0,
			"0.016": 0.0,
			"0.017": 0.0,
			"0.018": 0.0,
			"0.019": 0.0,
			"0.02": 0.0,
			"0.021": 0.0,
			"0.022": 0.0,
			"0.023": 0.0,
			"0.024": 0.0,
			"0.025": 0.0
		}
	}
}
