{
	 "smiles": "CC(C)(C)OC(=O)C1=NNC2=C1C=CC(F)=N2", 
	 "Tm": 440.15, 
	 "num_atms": 29, 
	 "gaussian": { 
		 "optdone": 1, 
		 "sigma_profile": "yes", 
		 "theory": "DFT", 
		 "functional": "B3LYP", 
		 "basiset": "6-31G**", 
		 "properties": { 
			 "R2extent": 5467.8499, 
			 "electric_dipole_moment_norm": 2.96976286932, 
			 "electric_quadrupole_moment_norm": 13.3679965358, 
			 "total_energy": -840.956276998, 
			 "HOMO_LUMO_gap": 0.19131, 
			 "cosmo_polarized_energy": -14.29, 
			 "cosmo_cavitation_energy": 33.55, 
			 "cosmo_dispersion_energy": -23.6, 
			 "cosmo_repulsion_energy": 1.79, 
			 "cosmo_total_nonelectrostatic_energy": 11.73, 
			 "SMD_solvation_energy": 4.4 
		},
		"coords": [
			{
				"x": -2.4522162557,
				"y": -1.514505814,
				"z": -0.9171820319,
				"element": "C" 
			},
			{
				"x": -1.120961925,
				"y": -1.5887480863,
				"z": -1.6722448942,
				"element": "C" 
			},
			{
				"x": -0.4563055007,
				"y": -2.9523943332,
				"z": -1.4685329526,
				"element": "C" 
			},
			{
				"x": -1.2779475996,
				"y": -1.2780613932,
				"z": -3.1644956343,
				"element": "C" 
			},
			{
				"x": -0.1469048774,
				"y": -0.6584180359,
				"z": -1.0654386234,
				"element": "O" 
			},
			{
				"x": -0.3715055726,
				"y": 0.6754373452,
				"z": -1.0425293125,
				"element": "C" 
			},
			{
				"x": -1.344878571,
				"y": 1.2416769873,
				"z": -1.491380588,
				"element": "O" 
			},
			{
				"x": 0.7654492397,
				"y": 1.3622709663,
				"z": -0.376614097,
				"element": "C" 
			},
			{
				"x": 0.7387305103,
				"y": 2.6860034831,
				"z": -0.251996491,
				"element": "N" 
			},
			{
				"x": 1.8785856627,
				"y": 3.028481445,
				"z": 0.3794200832,
				"element": "N" 
			},
			{
				"x": 2.6619548749,
				"y": 1.9497144272,
				"z": 0.67581438,
				"element": "C" 
			},
			{
				"x": 1.9646039814,
				"y": 0.8184629444,
				"z": 0.1930171296,
				"element": "C" 
			},
			{
				"x": 2.5786626797,
				"y": -0.4325803594,
				"z": 0.383056629,
				"element": "C" 
			},
			{
				"x": 3.806492651,
				"y": -0.4495433793,
				"z": 1.0228980301,
				"element": "C" 
			},
			{
				"x": 4.3696930791,
				"y": 0.7759248475,
				"z": 1.445397994,
				"element": "C" 
			},
			{
				"x": 5.5584352678,
				"y": 0.7224394771,
				"z": 2.060953399,
				"element": "F" 
			},
			{
				"x": 3.8482450102,
				"y": 1.9701368387,
				"z": 1.2978681289,
				"element": "N" 
			},
			{
				"x": -2.9274335742,
				"y": -0.5425551347,
				"z": -1.05024794,
				"element": "H" 
			},
			{
				"x": -3.1270137638,
				"y": -2.2909943032,
				"z": -1.291805306,
				"element": "H" 
			},
			{
				"x": -2.2941534611,
				"y": -1.6894459952,
				"z": 0.1516598947,
				"element": "H" 
			},
			{
				"x": -1.0886468192,
				"y": -3.7433202898,
				"z": -1.8825033948,
				"element": "H" 
			},
			{
				"x": 0.5143238221,
				"y": -2.9898564275,
				"z": -1.9722652424,
				"element": "H" 
			},
			{
				"x": -0.3055152803,
				"y": -3.1552781267,
				"z": -0.4039286683,
				"element": "H" 
			},
			{
				"x": -1.9043690252,
				"y": -2.04463717,
				"z": -3.6320336387,
				"element": "H" 
			},
			{
				"x": -0.302276237,
				"y": -1.2885880893,
				"z": -3.6604444812,
				"element": "H" 
			},
			{
				"x": -1.7423900915,
				"y": -0.3038951481,
				"z": -3.3178517179,
				"element": "H" 
			},
			{
				"x": 2.0691955641,
				"y": 3.9988815612,
				"z": 0.5805906326,
				"element": "H" 
			},
			{
				"x": 2.1047780932,
				"y": -1.3443732651,
				"z": 0.0401015243,
				"element": "H" 
			},
			{
				"x": 4.348368118,
				"y": -1.368634972,
				"z": 1.2099171889,
				"element": "H" 
			}
		],
		 "valence_orbital": [ 
			{
				"type": "occ",
				"energy": -0.2996,
				"method": "rhf"
			},
			{
				"type": "occ",
				"energy": -0.29901,
				"method": "rhf"
			},
			{
				"type": "occ",
				"energy": -0.26826,
				"method": "rhf"
			},
			{
				"type": "occ",
				"energy": -0.26,
				"method": "rhf"
			},
			{
				"type": "occ",
				"energy": -0.25544,
				"method": "rhf"
			},
			{
				"type": "unocc",
				"energy": -0.06413,
				"method": "rhf"
			},
			{
				"type": "unocc",
				"energy": -0.01677,
				"method": "rhf"
			},
			{
				"type": "unocc",
				"energy": -0.00248,
				"method": "rhf"
			},
			{
				"type": "unocc",
				"energy": 0.07401,
				"method": "rhf"
			},
			{
				"type": "unocc",
				"energy": 0.07885,
				"method": "rhf"
			}
		],
		"cosmo_sigma_profile": { 
			"-0.025": 0.0,
			"-0.024": 0.0,
			"-0.023": 0.0,
			"-0.022": 0.0,
			"-0.021": 0.0,
			"-0.02": 0.0,
			"-0.019": 0.0,
			"-0.018": 0.583533875675,
			"-0.017": 1.62395390365,
			"-0.016": 1.16138080604,
			"-0.015": 0.997291303208,
			"-0.014": 0.831020703485,
			"-0.013": 0.863368161645,
			"-0.012": 1.09407914904,
			"-0.011": 0.794029079499,
			"-0.01": 0.492030366526,
			"-0.009": 1.38251716364,
			"-0.008": 2.3840866793,
			"-0.007": 2.54674372658,
			"-0.006": 5.3487276229,
			"-0.005": 5.54647984192,
			"-0.004": 17.4386609651,
			"-0.003": 21.7490679442,
			"-0.002": 33.0597074467,
			"-0.001": 35.5575314603,
			"0.0": 39.2678728843,
			"0.001": 24.7117973755,
			"0.002": 9.83447245206,
			"0.003": 13.3546136353,
			"0.004": 8.73023459206,
			"0.005": 4.7982112647,
			"0.006": 4.34158754745,
			"0.007": 3.65738058115,
			"0.008": 3.30637047043,
			"0.009": 2.74136419259,
			"0.01": 3.54739178201,
			"0.011": 4.64173428299,
			"0.012": 4.11240915688,
			"0.013": 3.27018523197,
			"0.014": 2.16860588537,
			"0.015": 0.77281835485,
			"0.016": 0.0,
			"0.017": 0.0,
			"0.018": 0.0,
			"0.019": 0.0,
			"0.02": 0.0,
			"0.021": 0.0,
			"0.022": 0.0,
			"0.023": 0.0,
			"0.024": 0.0,
			"0.025": 0.0
		}
	}
}
