{
	 "smiles": "COC1=C2C=CC=CC2=C(C=C1)S(Cl)(=O)=O", 
	 "Tm": 369.15, 
	 "num_atms": 25, 
	 "gaussian": { 
		 "optdone": 1, 
		 "sigma_profile": "yes", 
		 "theory": "DFT", 
		 "functional": "B3LYP", 
		 "basiset": "6-31G**", 
		 "properties": { 
			 "R2extent": 7575.998, 
			 "electric_dipole_moment_norm": 7.15444270646, 
			 "electric_quadrupole_moment_norm": 34.562980388, 
			 "total_energy": -1508.57734929, 
			 "HOMO_LUMO_gap": 0.14879, 
			 "cosmo_polarized_energy": -11.45, 
			 "cosmo_cavitation_energy": 31.87, 
			 "cosmo_dispersion_energy": -23.95, 
			 "cosmo_repulsion_energy": 1.8, 
			 "cosmo_total_nonelectrostatic_energy": 9.72, 
			 "SMD_solvation_energy": 4.76 
		},
		"coords": [
			{
				"x": -3.2284230112,
				"y": 0.3387426661,
				"z": -0.525553235,
				"element": "C" 
			},
			{
				"x": -1.8573604883,
				"y": 0.3866209866,
				"z": -0.9087839606,
				"element": "O" 
			},
			{
				"x": -1.1469975404,
				"y": -0.763114389,
				"z": -0.9400967173,
				"element": "C" 
			},
			{
				"x": 0.2274937743,
				"y": -0.6162665477,
				"z": -1.3332043571,
				"element": "C" 
			},
			{
				"x": 0.7564295131,
				"y": 0.660001564,
				"z": -1.6491435185,
				"element": "C" 
			},
			{
				"x": 2.0752982789,
				"y": 0.8002414621,
				"z": -2.0204211613,
				"element": "C" 
			},
			{
				"x": 2.9097830508,
				"y": -0.3345980225,
				"z": -2.0922836438,
				"element": "C" 
			},
			{
				"x": 2.4243545433,
				"y": -1.5909800211,
				"z": -1.7968360957,
				"element": "C" 
			},
			{
				"x": 1.0715653783,
				"y": -1.7726618606,
				"z": -1.4060426346,
				"element": "C" 
			},
			{
				"x": 0.4794221585,
				"y": -3.0361423234,
				"z": -1.0703748952,
				"element": "C" 
			},
			{
				"x": -0.8397119126,
				"y": -3.1416939772,
				"z": -0.6804274666,
				"element": "C" 
			},
			{
				"x": -1.6669882006,
				"y": -2.0061708022,
				"z": -0.6230689332,
				"element": "C" 
			},
			{
				"x": 1.3885790002,
				"y": -4.566191856,
				"z": -1.1066382993,
				"element": "S" 
			},
			{
				"x": 2.6674034821,
				"y": -4.3679886658,
				"z": 0.6084243341,
				"element": "Cl" 
			},
			{
				"x": 0.4875396958,
				"y": -5.6722627172,
				"z": -0.8018228512,
				"element": "O" 
			},
			{
				"x": 2.2865399416,
				"y": -4.6196386062,
				"z": -2.2562118207,
				"element": "O" 
			},
			{
				"x": -3.5859813789,
				"y": 1.3674840206,
				"z": -0.5731879699,
				"element": "H" 
			},
			{
				"x": -3.3421982248,
				"y": -0.0407562437,
				"z": 0.4964458826,
				"element": "H" 
			},
			{
				"x": -3.8119590276,
				"y": -0.2830946743,
				"z": -1.2142574748,
				"element": "H" 
			},
			{
				"x": 0.1008820833,
				"y": 1.5203955376,
				"z": -1.5909637308,
				"element": "H" 
			},
			{
				"x": 2.4724331091,
				"y": 1.782090322,
				"z": -2.2591452451,
				"element": "H" 
			},
			{
				"x": 3.9486556692,
				"y": -0.2220191088,
				"z": -2.3875772729,
				"element": "H" 
			},
			{
				"x": 3.0786168672,
				"y": -2.4487118079,
				"z": -1.8741358367,
				"element": "H" 
			},
			{
				"x": -1.2430607249,
				"y": -4.1136021336,
				"z": -0.4220573264,
				"element": "H" 
			},
			{
				"x": -2.7008160364,
				"y": -2.1263828019,
				"z": -0.32683577,
				"element": "H" 
			}
		],
		 "valence_orbital": [ 
			{
				"type": "occ",
				"energy": -0.31764,
				"method": "rhf"
			},
			{
				"type": "occ",
				"energy": -0.30383,
				"method": "rhf"
			},
			{
				"type": "occ",
				"energy": -0.28219,
				"method": "rhf"
			},
			{
				"type": "occ",
				"energy": -0.26777,
				"method": "rhf"
			},
			{
				"type": "occ",
				"energy": -0.23329,
				"method": "rhf"
			},
			{
				"type": "unocc",
				"energy": -0.0845,
				"method": "rhf"
			},
			{
				"type": "unocc",
				"energy": -0.05317,
				"method": "rhf"
			},
			{
				"type": "unocc",
				"energy": -0.0327,
				"method": "rhf"
			},
			{
				"type": "unocc",
				"energy": 0.00419,
				"method": "rhf"
			},
			{
				"type": "unocc",
				"energy": 0.06261,
				"method": "rhf"
			}
		],
		"cosmo_sigma_profile": { 
			"-0.025": 0.0,
			"-0.024": 0.0,
			"-0.023": 0.0,
			"-0.022": 0.0,
			"-0.021": 0.0,
			"-0.02": 0.0,
			"-0.019": 0.0,
			"-0.018": 0.0,
			"-0.017": 0.0,
			"-0.016": 0.0,
			"-0.015": 0.0,
			"-0.014": 0.0,
			"-0.013": 0.0,
			"-0.012": 0.0,
			"-0.011": 0.0,
			"-0.01": 0.0,
			"-0.009": 0.178023372447,
			"-0.008": 3.7915589325,
			"-0.007": 8.92710699209,
			"-0.006": 18.012474225,
			"-0.005": 18.3987485154,
			"-0.004": 18.8337057247,
			"-0.003": 13.1669535252,
			"-0.002": 13.5930185817,
			"-0.001": 15.6266642819,
			"0.0": 22.3284645074,
			"0.001": 25.2339429215,
			"0.002": 24.4137466106,
			"0.003": 25.9565834081,
			"0.004": 18.9837060019,
			"0.005": 7.22629961196,
			"0.006": 3.94381692847,
			"0.007": 5.19247034161,
			"0.008": 8.32977761953,
			"0.009": 6.29338322685,
			"0.01": 0.360224783102,
			"0.011": 0.0,
			"0.012": 0.0,
			"0.013": 0.0,
			"0.014": 0.0,
			"0.015": 0.0,
			"0.016": 0.0,
			"0.017": 0.0,
			"0.018": 0.0,
			"0.019": 0.0,
			"0.02": 0.0,
			"0.021": 0.0,
			"0.022": 0.0,
			"0.023": 0.0,
			"0.024": 0.0,
			"0.025": 0.0
		}
	}
}
