{
	 "smiles": "NNC(=O)C1=CC(=CC=C1)[N+]([O-])=O", 
	 "Tm": 426.65, 
	 "num_atms": 20, 
	 "gaussian": { 
		 "optdone": 1, 
		 "sigma_profile": "yes", 
		 "theory": "DFT", 
		 "functional": "B3LYP", 
		 "basiset": "6-31G**", 
		 "properties": { 
			 "R2extent": 3027.6658, 
			 "electric_dipole_moment_norm": 2.31505486976, 
			 "electric_quadrupole_moment_norm": 17.7647563845, 
			 "total_energy": -660.771206782, 
			 "HOMO_LUMO_gap": 0.16641, 
			 "cosmo_polarized_energy": -15.22, 
			 "cosmo_cavitation_energy": 25.74, 
			 "cosmo_dispersion_energy": -18.87, 
			 "cosmo_repulsion_energy": 1.5, 
			 "cosmo_total_nonelectrostatic_energy": 8.37, 
			 "SMD_solvation_energy": 7.8 
		},
		"coords": [
			{
				"x": -0.9802367013,
				"y": 1.8474524571,
				"z": -3.1000850487,
				"element": "N" 
			},
			{
				"x": -0.4059646723,
				"y": 1.267547176,
				"z": -1.9474258697,
				"element": "N" 
			},
			{
				"x": 0.1011790424,
				"y": -0.0059161144,
				"z": -2.000567407,
				"element": "C" 
			},
			{
				"x": 0.1841032518,
				"y": -0.6263808128,
				"z": -3.0562678873,
				"element": "O" 
			},
			{
				"x": 0.5423401302,
				"y": -0.5999425513,
				"z": -0.6920121691,
				"element": "C" 
			},
			{
				"x": 0.8504237609,
				"y": 0.1729557601,
				"z": 0.4313278136,
				"element": "C" 
			},
			{
				"x": 1.2618219003,
				"y": -0.4708729964,
				"z": 1.5952920716,
				"element": "C" 
			},
			{
				"x": 1.3840271129,
				"y": -1.8561039288,
				"z": 1.6790298917,
				"element": "C" 
			},
			{
				"x": 1.0882678992,
				"y": -2.6170978695,
				"z": 0.5485232947,
				"element": "C" 
			},
			{
				"x": 0.6769934377,
				"y": -1.9946536526,
				"z": -0.6291001734,
				"element": "C" 
			},
			{
				"x": 1.5875445989,
				"y": 0.3471777925,
				"z": 2.7771480563,
				"element": "N" 
			},
			{
				"x": 1.4695134144,
				"y": 1.567716313,
				"z": 2.6744408047,
				"element": "O" 
			},
			{
				"x": 1.9537525839,
				"y": -0.240778055,
				"z": 3.7929862456,
				"element": "O" 
			},
			{
				"x": -1.3127910523,
				"y": 1.0733417172,
				"z": -3.6776023377,
				"element": "H" 
			},
			{
				"x": -0.224092487,
				"y": 2.2768726443,
				"z": -3.6324622651,
				"element": "H" 
			},
			{
				"x": -0.7941713088,
				"y": 1.61319242,
				"z": -1.0812597033,
				"element": "H" 
			},
			{
				"x": 0.8097531177,
				"y": 1.2550757587,
				"z": 0.4232486497,
				"element": "H" 
			},
			{
				"x": 1.7092528022,
				"y": -2.3063505275,
				"z": 2.6084928339,
				"element": "H" 
			},
			{
				"x": 1.1828597738,
				"y": -3.6974619732,
				"z": 0.5878867276,
				"element": "H" 
			},
			{
				"x": 0.4568233953,
				"y": -2.5686735572,
				"z": -1.5226935282,
				"element": "H" 
			}
		],
		 "valence_orbital": [ 
			{
				"type": "occ",
				"energy": -0.30008,
				"method": "rhf"
			},
			{
				"type": "occ",
				"energy": -0.29314,
				"method": "rhf"
			},
			{
				"type": "occ",
				"energy": -0.28997,
				"method": "rhf"
			},
			{
				"type": "occ",
				"energy": -0.27501,
				"method": "rhf"
			},
			{
				"type": "occ",
				"energy": -0.26509,
				"method": "rhf"
			},
			{
				"type": "unocc",
				"energy": -0.09868,
				"method": "rhf"
			},
			{
				"type": "unocc",
				"energy": -0.06194,
				"method": "rhf"
			},
			{
				"type": "unocc",
				"energy": -0.01482,
				"method": "rhf"
			},
			{
				"type": "unocc",
				"energy": 0.03947,
				"method": "rhf"
			},
			{
				"type": "unocc",
				"energy": 0.06928,
				"method": "rhf"
			}
		],
		"cosmo_sigma_profile": { 
			"-0.025": 0.0,
			"-0.024": 0.0,
			"-0.023": 0.0,
			"-0.022": 0.0,
			"-0.021": 0.0,
			"-0.02": 0.0,
			"-0.019": 0.0,
			"-0.018": 0.0,
			"-0.017": 0.0,
			"-0.016": 0.0144742691862,
			"-0.015": 0.979224216469,
			"-0.014": 1.1873162851,
			"-0.013": 1.53509192782,
			"-0.012": 1.74381235398,
			"-0.011": 2.99528332308,
			"-0.01": 3.09860846129,
			"-0.009": 4.19334509595,
			"-0.008": 5.1010660781,
			"-0.007": 9.10224225363,
			"-0.006": 12.0815127101,
			"-0.005": 10.0235129425,
			"-0.004": 9.12667045507,
			"-0.003": 12.3967746778,
			"-0.002": 14.8824981394,
			"-0.001": 15.0701306783,
			"0.0": 17.6314503446,
			"0.001": 15.0937896639,
			"0.002": 7.05269198546,
			"0.003": 4.73610719662,
			"0.004": 5.31874545213,
			"0.005": 4.5835430916,
			"0.006": 6.84070578069,
			"0.007": 10.6339036973,
			"0.008": 7.88219745219,
			"0.009": 6.04300048907,
			"0.01": 4.12003453433,
			"0.011": 2.09127459443,
			"0.012": 3.75915630909,
			"0.013": 4.65475353514,
			"0.014": 0.599678256993,
			"0.015": 0.463488482815,
			"0.016": 0.554738627636,
			"0.017": 0.176216442282,
			"0.018": 0.0,
			"0.019": 0.0,
			"0.02": 0.0,
			"0.021": 0.0,
			"0.022": 0.0,
			"0.023": 0.0,
			"0.024": 0.0,
			"0.025": 0.0
		}
	}
}
