{
	 "smiles": "CC(=O)C1=CSC(=N1)C1=CC=CC=C1", 
	 "Tm": 357.15, 
	 "num_atms": 23, 
	 "gaussian": { 
		 "optdone": 1, 
		 "sigma_profile": "yes", 
		 "theory": "DFT", 
		 "functional": "B3LYP", 
		 "basiset": "6-31G**", 
		 "properties": { 
			 "R2extent": 5099.933, 
			 "electric_dipole_moment_norm": 3.51835785701, 
			 "electric_quadrupole_moment_norm": 12.2306964013, 
			 "total_energy": -952.759654504, 
			 "HOMO_LUMO_gap": 0.16649, 
			 "cosmo_polarized_energy": -8.9, 
			 "cosmo_cavitation_energy": 29.4, 
			 "cosmo_dispersion_energy": -21.82, 
			 "cosmo_repulsion_energy": 1.66, 
			 "cosmo_total_nonelectrostatic_energy": 9.24, 
			 "SMD_solvation_energy": 4.74 
		},
		"coords": [
			{
				"x": 1.8062122456,
				"y": 1.6359129877,
				"z": -0.6243629961,
				"element": "C" 
			},
			{
				"x": 2.6680715739,
				"y": 0.3937400761,
				"z": -0.6878264626,
				"element": "C" 
			},
			{
				"x": 3.8156367726,
				"y": 0.4097244823,
				"z": -1.1057423973,
				"element": "O" 
			},
			{
				"x": 2.059421072,
				"y": -0.8829993732,
				"z": -0.2130149361,
				"element": "C" 
			},
			{
				"x": 2.7335957108,
				"y": -2.0789222067,
				"z": -0.2179449778,
				"element": "C" 
			},
			{
				"x": 1.7268632442,
				"y": -3.3305579176,
				"z": 0.3956419343,
				"element": "S" 
			},
			{
				"x": 0.4276438078,
				"y": -2.1387161881,
				"z": 0.6273999264,
				"element": "C" 
			},
			{
				"x": 0.7695539916,
				"y": -0.9330977079,
				"z": 0.263156572,
				"element": "N" 
			},
			{
				"x": -0.8865372662,
				"y": -2.5012723512,
				"z": 1.1747731136,
				"element": "C" 
			},
			{
				"x": -1.2005646716,
				"y": -3.8167737874,
				"z": 1.55201763,
				"element": "C" 
			},
			{
				"x": -2.4579417333,
				"y": -4.1232558961,
				"z": 2.0676957415,
				"element": "C" 
			},
			{
				"x": -3.4198956925,
				"y": -3.1218777233,
				"z": 2.2143745115,
				"element": "C" 
			},
			{
				"x": -3.1155856999,
				"y": -1.8098287395,
				"z": 1.8413335648,
				"element": "C" 
			},
			{
				"x": -1.8610505695,
				"y": -1.4985230722,
				"z": 1.3257240903,
				"element": "C" 
			},
			{
				"x": 2.3754054362,
				"y": 2.4867404087,
				"z": -1.0002978625,
				"element": "H" 
			},
			{
				"x": 0.8951159702,
				"y": 1.4981313399,
				"z": -1.2158682916,
				"element": "H" 
			},
			{
				"x": 1.4813141292,
				"y": 1.8220239054,
				"z": 0.4046044052,
				"element": "H" 
			},
			{
				"x": 3.7468516022,
				"y": -2.2521559235,
				"z": -0.5495356675,
				"element": "H" 
			},
			{
				"x": -0.463293594,
				"y": -4.6077568484,
				"z": 1.4443717017,
				"element": "H" 
			},
			{
				"x": -2.6859310852,
				"y": -5.1453160857,
				"z": 2.3550410644,
				"element": "H" 
			},
			{
				"x": -4.3996693748,
				"y": -3.362152746,
				"z": 2.6164905966,
				"element": "H" 
			},
			{
				"x": -3.8593410668,
				"y": -1.0262409244,
				"z": 1.9528681323,
				"element": "H" 
			},
			{
				"x": -1.6133748026,
				"y": -0.4844257089,
				"z": 1.032900607,
				"element": "H" 
			}
		],
		 "valence_orbital": [ 
			{
				"type": "occ",
				"energy": -0.28785,
				"method": "rhf"
			},
			{
				"type": "occ",
				"energy": -0.28584,
				"method": "rhf"
			},
			{
				"type": "occ",
				"energy": -0.26313,
				"method": "rhf"
			},
			{
				"type": "occ",
				"energy": -0.24864,
				"method": "rhf"
			},
			{
				"type": "occ",
				"energy": -0.23165,
				"method": "rhf"
			},
			{
				"type": "unocc",
				"energy": -0.06516,
				"method": "rhf"
			},
			{
				"type": "unocc",
				"energy": -0.04437,
				"method": "rhf"
			},
			{
				"type": "unocc",
				"energy": -0.0122,
				"method": "rhf"
			},
			{
				"type": "unocc",
				"energy": 0.01033,
				"method": "rhf"
			},
			{
				"type": "unocc",
				"energy": 0.03195,
				"method": "rhf"
			}
		],
		"cosmo_sigma_profile": { 
			"-0.025": 0.0,
			"-0.024": 0.0,
			"-0.023": 0.0,
			"-0.022": 0.0,
			"-0.021": 0.0,
			"-0.02": 0.0,
			"-0.019": 0.0,
			"-0.018": 0.0,
			"-0.017": 0.0,
			"-0.016": 0.0,
			"-0.015": 0.0,
			"-0.014": 0.0,
			"-0.013": 0.0,
			"-0.012": 0.0,
			"-0.011": 0.0291381133459,
			"-0.01": 0.947443878768,
			"-0.009": 1.60787017457,
			"-0.008": 1.67497895928,
			"-0.007": 3.45261881542,
			"-0.006": 12.1357860046,
			"-0.005": 17.9414831859,
			"-0.004": 18.7812587262,
			"-0.003": 16.0583718344,
			"-0.002": 18.1352061998,
			"-0.001": 24.1523955179,
			"0.0": 22.7125509177,
			"0.001": 21.7611855466,
			"0.002": 19.0673327814,
			"0.003": 14.1146918971,
			"0.004": 15.3570713169,
			"0.005": 8.3374112928,
			"0.006": 3.24445585867,
			"0.007": 4.20192613392,
			"0.008": 2.13734415301,
			"0.009": 1.54187483216,
			"0.01": 2.54316849002,
			"0.011": 3.29431836571,
			"0.012": 3.61932986755,
			"0.013": 1.42458550101,
			"0.014": 0.101776668401,
			"0.015": 0.0,
			"0.016": 0.0,
			"0.017": 0.0,
			"0.018": 0.0,
			"0.019": 0.0,
			"0.02": 0.0,
			"0.021": 0.0,
			"0.022": 0.0,
			"0.023": 0.0,
			"0.024": 0.0,
			"0.025": 0.0
		}
	}
}
