{
	 "smiles": "CCC(CO)[N+]([O-])=O", 
	 "Tm": 226.15, 
	 "num_atms": 17, 
	 "gaussian": { 
		 "optdone": 1, 
		 "sigma_profile": "yes", 
		 "theory": "DFT", 
		 "functional": "B3LYP", 
		 "basiset": "6-31G**", 
		 "properties": { 
			 "R2extent": 1772.4764, 
			 "electric_dipole_moment_norm": 4.71626822286, 
			 "electric_quadrupole_moment_norm": 12.1590170071, 
			 "total_energy": -438.168969363, 
			 "HOMO_LUMO_gap": 0.2223, 
			 "cosmo_polarized_energy": -12.94, 
			 "cosmo_cavitation_energy": 20.45, 
			 "cosmo_dispersion_energy": -14.63, 
			 "cosmo_repulsion_energy": 1.24, 
			 "cosmo_total_nonelectrostatic_energy": 7.06, 
			 "SMD_solvation_energy": 5.58 
		},
		"coords": [
			{
				"x": -1.1600252338,
				"y": -1.5839730052,
				"z": -1.4142191916,
				"element": "C" 
			},
			{
				"x": -0.7806057541,
				"y": -0.5513980796,
				"z": -0.3474385083,
				"element": "C" 
			},
			{
				"x": -1.6089092042,
				"y": -0.6345483503,
				"z": 0.931611199,
				"element": "C" 
			},
			{
				"x": -1.3989620544,
				"y": 0.5456827724,
				"z": 1.8998090303,
				"element": "C" 
			},
			{
				"x": -0.0603142032,
				"y": 0.6993946643,
				"z": 2.3202156462,
				"element": "O" 
			},
			{
				"x": -1.3202377323,
				"y": -1.9136911542,
				"z": 1.7117234499,
				"element": "N" 
			},
			{
				"x": -2.1421694233,
				"y": -2.211698319,
				"z": 2.5737341573,
				"element": "O" 
			},
			{
				"x": -0.2979532188,
				"y": -2.5408967299,
				"z": 1.4582674074,
				"element": "O" 
			},
			{
				"x": -0.9904501273,
				"y": -2.6005041803,
				"z": -1.0512721397,
				"element": "H" 
			},
			{
				"x": -2.2132567372,
				"y": -1.490084339,
				"z": -1.7015578063,
				"element": "H" 
			},
			{
				"x": -0.5555764128,
				"y": -1.445163114,
				"z": -2.3153793662,
				"element": "H" 
			},
			{
				"x": 0.2769330101,
				"y": -0.6554045764,
				"z": -0.0874097688,
				"element": "H" 
			},
			{
				"x": -0.9228885102,
				"y": 0.46015022,
				"z": -0.7511703052,
				"element": "H" 
			},
			{
				"x": -2.6788856099,
				"y": -0.7037094846,
				"z": 0.7121799177,
				"element": "H" 
			},
			{
				"x": -1.9899931645,
				"y": 0.3672046242,
				"z": 2.8012072789,
				"element": "H" 
			},
			{
				"x": -1.7913317857,
				"y": 1.4492676231,
				"z": 1.4084913813,
				"element": "H" 
			},
			{
				"x": 0.4647261616,
				"y": 1.0243714284,
				"z": 1.578207618,
				"element": "H" 
			}
		],
		 "valence_orbital": [ 
			{
				"type": "occ",
				"energy": -0.34605,
				"method": "rhf"
			},
			{
				"type": "occ",
				"energy": -0.30907,
				"method": "rhf"
			},
			{
				"type": "occ",
				"energy": -0.30298,
				"method": "rhf"
			},
			{
				"type": "occ",
				"energy": -0.29039,
				"method": "rhf"
			},
			{
				"type": "occ",
				"energy": -0.28591,
				"method": "rhf"
			},
			{
				"type": "unocc",
				"energy": -0.06361,
				"method": "rhf"
			},
			{
				"type": "unocc",
				"energy": 0.05286,
				"method": "rhf"
			},
			{
				"type": "unocc",
				"energy": 0.08903,
				"method": "rhf"
			},
			{
				"type": "unocc",
				"energy": 0.10589,
				"method": "rhf"
			},
			{
				"type": "unocc",
				"energy": 0.11035,
				"method": "rhf"
			}
		],
		"cosmo_sigma_profile": { 
			"-0.025": 0.0,
			"-0.024": 0.0,
			"-0.023": 0.0,
			"-0.022": 0.0,
			"-0.021": 0.0,
			"-0.02": 0.0,
			"-0.019": 0.0,
			"-0.018": 0.0,
			"-0.017": 0.0,
			"-0.016": 0.256763629244,
			"-0.015": 0.895357962459,
			"-0.014": 1.11174049573,
			"-0.013": 1.09673974685,
			"-0.012": 1.24273143137,
			"-0.011": 0.833395742768,
			"-0.01": 1.3683630107,
			"-0.009": 1.32860619993,
			"-0.008": 3.44032581321,
			"-0.007": 7.96925039061,
			"-0.006": 9.7897182589,
			"-0.005": 9.00929285947,
			"-0.004": 10.1901437895,
			"-0.003": 11.3240360898,
			"-0.002": 12.7878601508,
			"-0.001": 11.4429655469,
			"0.0": 10.3275909923,
			"0.001": 8.60760287196,
			"0.002": 5.29543391907,
			"0.003": 3.19257550752,
			"0.004": 3.9525779244,
			"0.005": 4.93131044416,
			"0.006": 6.32082748612,
			"0.007": 6.44015468678,
			"0.008": 10.6038682818,
			"0.009": 6.39142813041,
			"0.01": 3.53947849086,
			"0.011": 1.90490398907,
			"0.012": 1.31070776762,
			"0.013": 1.70191207843,
			"0.014": 0.415081362166,
			"0.015": 0.0,
			"0.016": 0.0,
			"0.017": 0.0,
			"0.018": 0.0,
			"0.019": 0.0,
			"0.02": 0.0,
			"0.021": 0.0,
			"0.022": 0.0,
			"0.023": 0.0,
			"0.024": 0.0,
			"0.025": 0.0
		}
	}
}
