{
	 "smiles": "CC(CN1CCOCC1)C(=O)NN", 
	 "Tm": 360.15, 
	 "num_atms": 30, 
	 "gaussian": { 
		 "optdone": 1, 
		 "sigma_profile": "yes", 
		 "theory": "DFT", 
		 "functional": "B3LYP", 
		 "basiset": "6-31G**", 
		 "properties": { 
			 "R2extent": 3856.2164, 
			 "electric_dipole_moment_norm": 1.92850768471, 
			 "electric_quadrupole_moment_norm": 11.5619989842, 
			 "total_energy": -629.765457497, 
			 "HOMO_LUMO_gap": 0.24704, 
			 "cosmo_polarized_energy": -14.97, 
			 "cosmo_cavitation_energy": 31.4, 
			 "cosmo_dispersion_energy": -21.7, 
			 "cosmo_repulsion_energy": 1.75, 
			 "cosmo_total_nonelectrostatic_energy": 11.46, 
			 "SMD_solvation_energy": 4.62 
		},
		"coords": [
			{
				"x": 4.1103535408,
				"y": -0.9263150034,
				"z": -2.2998766095,
				"element": "C" 
			},
			{
				"x": 2.7761737064,
				"y": -0.8694682926,
				"z": -1.5392719443,
				"element": "C" 
			},
			{
				"x": 2.6270327269,
				"y": 0.463334685,
				"z": -0.7813239437,
				"element": "C" 
			},
			{
				"x": 1.3197280476,
				"y": 0.5985265066,
				"z": -0.1382872761,
				"element": "N" 
			},
			{
				"x": 1.3563465964,
				"y": 1.4417756156,
				"z": 1.0598586084,
				"element": "C" 
			},
			{
				"x": -0.0192487684,
				"y": 1.4547406986,
				"z": 1.7226313526,
				"element": "C" 
			},
			{
				"x": -1.0210616715,
				"y": 1.9183039809,
				"z": 0.8260244461,
				"element": "O" 
			},
			{
				"x": -1.0698242424,
				"y": 1.1059580392,
				"z": -0.3369109945,
				"element": "C" 
			},
			{
				"x": 0.2803863552,
				"y": 1.0791401156,
				"z": -1.0513462353,
				"element": "C" 
			},
			{
				"x": 2.7178423725,
				"y": -2.010004713,
				"z": -0.5223628811,
				"element": "C" 
			},
			{
				"x": 3.5588665273,
				"y": -2.1476219031,
				"z": 0.360202977,
				"element": "O" 
			},
			{
				"x": 1.6787134701,
				"y": -2.8902863417,
				"z": -0.6724402808,
				"element": "N" 
			},
			{
				"x": 1.4216363792,
				"y": -3.8670812564,
				"z": 0.3162010907,
				"element": "N" 
			},
			{
				"x": 4.1983080706,
				"y": -0.0844951188,
				"z": -2.9940323135,
				"element": "H" 
			},
			{
				"x": 4.1974548047,
				"y": -1.85219894,
				"z": -2.8764918059,
				"element": "H" 
			},
			{
				"x": 4.9451366741,
				"y": -0.8890583572,
				"z": -1.5945815475,
				"element": "H" 
			},
			{
				"x": 1.953316078,
				"y": -0.9754127157,
				"z": -2.2583532982,
				"element": "H" 
			},
			{
				"x": 2.8387428059,
				"y": 1.3045927559,
				"z": -1.4672589307,
				"element": "H" 
			},
			{
				"x": 3.39664922,
				"y": 0.4789461973,
				"z": -0.0029930019,
				"element": "H" 
			},
			{
				"x": 1.6502546345,
				"y": 2.4827907258,
				"z": 0.8234808886,
				"element": "H" 
			},
			{
				"x": 2.0958373394,
				"y": 1.0334904572,
				"z": 1.7577506651,
				"element": "H" 
			},
			{
				"x": -0.0287717175,
				"y": 2.1340989015,
				"z": 2.5799150989,
				"element": "H" 
			},
			{
				"x": -0.2641274856,
				"y": 0.4389178551,
				"z": 2.073263931,
				"element": "H" 
			},
			{
				"x": -1.840530611,
				"y": 1.5326888749,
				"z": -0.985712922,
				"element": "H" 
			},
			{
				"x": -1.3625656593,
				"y": 0.0765089134,
				"z": -0.0711141127,
				"element": "H" 
			},
			{
				"x": 0.5108846119,
				"y": 2.0953975691,
				"z": -1.4271083265,
				"element": "H" 
			},
			{
				"x": 0.2162027524,
				"y": 0.4155581318,
				"z": -1.9216376172,
				"element": "H" 
			},
			{
				"x": 0.8547500726,
				"y": -2.5860016532,
				"z": -1.1717034767,
				"element": "H" 
			},
			{
				"x": 2.0222041196,
				"y": -4.6656085258,
				"z": 0.1134946251,
				"element": "H" 
			},
			{
				"x": 1.7743092493,
				"y": -3.4853172025,
				"z": 1.1956838346,
				"element": "H" 
			}
		],
		 "valence_orbital": [ 
			{
				"type": "occ",
				"energy": -0.28673,
				"method": "rhf"
			},
			{
				"type": "occ",
				"energy": -0.25471,
				"method": "rhf"
			},
			{
				"type": "occ",
				"energy": -0.25124,
				"method": "rhf"
			},
			{
				"type": "occ",
				"energy": -0.25036,
				"method": "rhf"
			},
			{
				"type": "occ",
				"energy": -0.22169,
				"method": "rhf"
			},
			{
				"type": "unocc",
				"energy": 0.02535,
				"method": "rhf"
			},
			{
				"type": "unocc",
				"energy": 0.06374,
				"method": "rhf"
			},
			{
				"type": "unocc",
				"energy": 0.08894,
				"method": "rhf"
			},
			{
				"type": "unocc",
				"energy": 0.10029,
				"method": "rhf"
			},
			{
				"type": "unocc",
				"energy": 0.10286,
				"method": "rhf"
			}
		],
		"cosmo_sigma_profile": { 
			"-0.025": 0.0,
			"-0.024": 0.0,
			"-0.023": 0.0,
			"-0.022": 0.0,
			"-0.021": 0.0,
			"-0.02": 0.0,
			"-0.019": 0.0,
			"-0.018": 0.0,
			"-0.017": 0.0,
			"-0.016": 0.0,
			"-0.015": 0.0,
			"-0.014": 0.291357239391,
			"-0.013": 0.773475874402,
			"-0.012": 1.16252021236,
			"-0.011": 2.5831481793,
			"-0.01": 2.90621204976,
			"-0.009": 3.57322362282,
			"-0.008": 3.44890397972,
			"-0.007": 3.85079833679,
			"-0.006": 3.67172357953,
			"-0.005": 10.9089943002,
			"-0.004": 18.1282786797,
			"-0.003": 31.0981377033,
			"-0.002": 36.918470259,
			"-0.001": 27.7597040231,
			"0.0": 18.7418585981,
			"0.001": 12.1838120103,
			"0.002": 7.34183666208,
			"0.003": 5.91528355922,
			"0.004": 5.06265847986,
			"0.005": 5.0666218529,
			"0.006": 4.52623553821,
			"0.007": 5.4444979386,
			"0.008": 4.44405100762,
			"0.009": 3.88624413256,
			"0.01": 2.71255004292,
			"0.011": 3.17760873095,
			"0.012": 3.30959542421,
			"0.013": 5.95218627424,
			"0.014": 5.43011259628,
			"0.015": 1.29868146515,
			"0.016": 0.457211580288,
			"0.017": 0.382412659178,
			"0.018": 0.0,
			"0.019": 0.0,
			"0.02": 0.0,
			"0.021": 0.0,
			"0.022": 0.0,
			"0.023": 0.0,
			"0.024": 0.0,
			"0.025": 0.0
		}
	}
}
