{
	 "smiles": "COC(=O)C1=C(N)C(C#N)=C(S1)N1CCCCC1", 
	 "Tm": 457.15, 
	 "num_atms": 33, 
	 "gaussian": { 
		 "optdone": 1, 
		 "sigma_profile": "yes", 
		 "theory": "DFT", 
		 "functional": "B3LYP", 
		 "basiset": "6-31G**", 
		 "properties": { 
			 "R2extent": 6041.7604, 
			 "electric_dipole_moment_norm": 5.14588502884, 
			 "electric_quadrupole_moment_norm": 12.8040484988, 
			 "total_energy": -1179.2035282, 
			 "HOMO_LUMO_gap": 0.16222, 
			 "cosmo_polarized_energy": -15.19, 
			 "cosmo_cavitation_energy": 36.97, 
			 "cosmo_dispersion_energy": -27.09, 
			 "cosmo_repulsion_energy": 2.06, 
			 "cosmo_total_nonelectrostatic_energy": 11.94, 
			 "SMD_solvation_energy": 7.1 
		},
		"coords": [
			{
				"x": 2.7187411343,
				"y": -3.8169649379,
				"z": 2.4211439549,
				"element": "C" 
			},
			{
				"x": 2.1773058721,
				"y": -2.6915809027,
				"z": 1.7187481057,
				"element": "O" 
			},
			{
				"x": 1.2203203762,
				"y": -1.9924738232,
				"z": 2.3874863542,
				"element": "C" 
			},
			{
				"x": 0.8385951239,
				"y": -2.3047962424,
				"z": 3.5162790228,
				"element": "O" 
			},
			{
				"x": 0.7220447837,
				"y": -0.8746152513,
				"z": 1.63995648,
				"element": "C" 
			},
			{
				"x": -0.2330120537,
				"y": 0.0232672199,
				"z": 2.1023969915,
				"element": "C" 
			},
			{
				"x": -0.8680841195,
				"y": -0.0885967781,
				"z": 3.2920362795,
				"element": "N" 
			},
			{
				"x": -0.4853600343,
				"y": 1.1023129042,
				"z": 1.173343692,
				"element": "C" 
			},
			{
				"x": -1.3574677689,
				"y": 2.1523458663,
				"z": 1.5526152282,
				"element": "C" 
			},
			{
				"x": -2.079683617,
				"y": 2.9716879277,
				"z": 1.9658717169,
				"element": "N" 
			},
			{
				"x": 0.2760221253,
				"y": 0.999944173,
				"z": -0.0039393012,
				"element": "C" 
			},
			{
				"x": 1.3077724651,
				"y": -0.4259032978,
				"z": 0.0336928604,
				"element": "S" 
			},
			{
				"x": 0.2605709107,
				"y": 1.806154713,
				"z": -1.0912406962,
				"element": "N" 
			},
			{
				"x": -0.7823162877,
				"y": 2.8340090159,
				"z": -1.2757278019,
				"element": "C" 
			},
			{
				"x": -0.8928877758,
				"y": 3.2381539451,
				"z": -2.7552947259,
				"element": "C" 
			},
			{
				"x": -0.8023062186,
				"y": 2.0033007389,
				"z": -3.6608070973,
				"element": "C" 
			},
			{
				"x": 0.571861232,
				"y": 1.3033605387,
				"z": -3.5029843288,
				"element": "C" 
			},
			{
				"x": 1.2423736135,
				"y": 1.6984394938,
				"z": -2.1746839309,
				"element": "C" 
			},
			{
				"x": 3.195532864,
				"y": -3.5015785873,
				"z": 3.3530870721,
				"element": "H" 
			},
			{
				"x": 3.4547165086,
				"y": -4.2573173351,
				"z": 1.747842592,
				"element": "H" 
			},
			{
				"x": 1.9352028781,
				"y": -4.5419742386,
				"z": 2.6568327606,
				"element": "H" 
			},
			{
				"x": -0.536694504,
				"y": -0.8171300613,
				"z": 3.9131836938,
				"element": "H" 
			},
			{
				"x": -1.4170493985,
				"y": 0.6806291104,
				"z": 3.6421894516,
				"element": "H" 
			},
			{
				"x": -1.7346201305,
				"y": 2.4076493242,
				"z": -0.9467554472,
				"element": "H" 
			},
			{
				"x": -0.5818292329,
				"y": 3.7084970699,
				"z": -0.6444226073,
				"element": "H" 
			},
			{
				"x": -1.8459260805,
				"y": 3.7588543002,
				"z": -2.8921453573,
				"element": "H" 
			},
			{
				"x": -0.1084758578,
				"y": 3.9581751923,
				"z": -3.017796191,
				"element": "H" 
			},
			{
				"x": -1.6046141919,
				"y": 1.3085583902,
				"z": -3.3852142418,
				"element": "H" 
			},
			{
				"x": -0.9756839471,
				"y": 2.2788903439,
				"z": -4.7055911139,
				"element": "H" 
			},
			{
				"x": 0.448615019,
				"y": 0.2167645359,
				"z": -3.5473779748,
				"element": "H" 
			},
			{
				"x": 1.2477983333,
				"y": 1.5805160631,
				"z": -4.3200827933,
				"element": "H" 
			},
			{
				"x": 2.0186845007,
				"y": 0.9862334952,
				"z": -1.892493715,
				"element": "H" 
			},
			{
				"x": 1.7415534781,
				"y": 2.6706870939,
				"z": -2.2761489326,
				"element": "H" 
			}
		],
		 "valence_orbital": [ 
			{
				"type": "occ",
				"energy": -0.29031,
				"method": "rhf"
			},
			{
				"type": "occ",
				"energy": -0.27973,
				"method": "rhf"
			},
			{
				"type": "occ",
				"energy": -0.26625,
				"method": "rhf"
			},
			{
				"type": "occ",
				"energy": -0.22387,
				"method": "rhf"
			},
			{
				"type": "occ",
				"energy": -0.19223,
				"method": "rhf"
			},
			{
				"type": "unocc",
				"energy": -0.03001,
				"method": "rhf"
			},
			{
				"type": "unocc",
				"energy": 0.00189,
				"method": "rhf"
			},
			{
				"type": "unocc",
				"energy": 0.00563,
				"method": "rhf"
			},
			{
				"type": "unocc",
				"energy": 0.04028,
				"method": "rhf"
			},
			{
				"type": "unocc",
				"energy": 0.06396,
				"method": "rhf"
			}
		],
		"cosmo_sigma_profile": { 
			"-0.025": 0.0,
			"-0.024": 0.0,
			"-0.023": 0.0,
			"-0.022": 0.0,
			"-0.021": 0.0,
			"-0.02": 0.0,
			"-0.019": 0.0,
			"-0.018": 0.0,
			"-0.017": 0.0,
			"-0.016": 0.0,
			"-0.015": 0.0,
			"-0.014": 0.0190383260107,
			"-0.013": 0.749844158572,
			"-0.012": 0.699255962752,
			"-0.011": 0.838871607557,
			"-0.01": 2.1779182076,
			"-0.009": 1.426372175,
			"-0.008": 1.66965447857,
			"-0.007": 2.12930225518,
			"-0.006": 9.49943461792,
			"-0.005": 21.0543724744,
			"-0.004": 30.9433731613,
			"-0.003": 37.0744205836,
			"-0.002": 29.1440592707,
			"-0.001": 24.6634407005,
			"0.0": 21.8747317823,
			"0.001": 18.2112194591,
			"0.002": 15.5339058954,
			"0.003": 14.4551044074,
			"0.004": 13.028164575,
			"0.005": 9.13826524259,
			"0.006": 6.5265001835,
			"0.007": 6.15120083625,
			"0.008": 3.63532696038,
			"0.009": 3.93390542039,
			"0.01": 4.13774262706,
			"0.011": 5.22199773479,
			"0.012": 4.71733658997,
			"0.013": 4.4899010959,
			"0.014": 1.1926606964,
			"0.015": 0.0,
			"0.016": 0.0,
			"0.017": 0.0,
			"0.018": 0.0,
			"0.019": 0.0,
			"0.02": 0.0,
			"0.021": 0.0,
			"0.022": 0.0,
			"0.023": 0.0,
			"0.024": 0.0,
			"0.025": 0.0
		}
	}
}
