{
	 "smiles": "CC1=CC(C#N)=C(C=C1)N=C=O", 
	 "Tm": 326.15, 
	 "num_atms": 18, 
	 "gaussian": { 
		 "optdone": 1, 
		 "sigma_profile": "yes", 
		 "theory": "DFT", 
		 "functional": "B3LYP", 
		 "basiset": "6-31G**", 
		 "properties": { 
			 "R2extent": 2998.2907, 
			 "electric_dipole_moment_norm": 5.93380651521, 
			 "electric_quadrupole_moment_norm": 14.8967655077, 
			 "total_energy": -531.288365687, 
			 "HOMO_LUMO_gap": 0.18846, 
			 "cosmo_polarized_energy": -10.76, 
			 "cosmo_cavitation_energy": 25.11, 
			 "cosmo_dispersion_energy": -17.26, 
			 "cosmo_repulsion_energy": 1.39, 
			 "cosmo_total_nonelectrostatic_energy": 9.24, 
			 "SMD_solvation_energy": 8.2 
		},
		"coords": [
			{
				"x": -1.00138565,
				"y": 0.566516198,
				"z": 2.1498310462,
				"element": "C" 
			},
			{
				"x": -0.5573378397,
				"y": 0.3134713507,
				"z": 0.7292837933,
				"element": "C" 
			},
			{
				"x": -0.5626802331,
				"y": 1.3304445715,
				"z": -0.2245771863,
				"element": "C" 
			},
			{
				"x": -0.1503604255,
				"y": 1.0982116222,
				"z": -1.5478354094,
				"element": "C" 
			},
			{
				"x": -0.1715536191,
				"y": 2.1712683076,
				"z": -2.4958328332,
				"element": "C" 
			},
			{
				"x": -0.2001441059,
				"y": 3.0628426913,
				"z": -3.2422717696,
				"element": "N" 
			},
			{
				"x": 0.280775047,
				"y": -0.1880370283,
				"z": -1.9321949917,
				"element": "C" 
			},
			{
				"x": 0.2876708049,
				"y": -1.2132511708,
				"z": -0.975944578,
				"element": "C" 
			},
			{
				"x": -0.1242691949,
				"y": -0.9611585584,
				"z": 0.3269091773,
				"element": "C" 
			},
			{
				"x": 0.6829616989,
				"y": -0.3906765003,
				"z": -3.2458902834,
				"element": "N" 
			},
			{
				"x": 1.0996188708,
				"y": -1.2730049865,
				"z": -3.9629523603,
				"element": "C" 
			},
			{
				"x": 1.5071027362,
				"y": -2.0367264417,
				"z": -4.7592413353,
				"element": "O" 
			},
			{
				"x": -1.3018897656,
				"y": 1.6071265514,
				"z": 2.2949155231,
				"element": "H" 
			},
			{
				"x": -0.1976931995,
				"y": 0.3472506543,
				"z": 2.8616602203,
				"element": "H" 
			},
			{
				"x": -1.8529095024,
				"y": -0.0687934465,
				"z": 2.4182683989,
				"element": "H" 
			},
			{
				"x": -0.8900892826,
				"y": 2.3290917403,
				"z": 0.0464956357,
				"element": "H" 
			},
			{
				"x": 0.6186004158,
				"y": -2.2058011118,
				"z": -1.2655613233,
				"element": "H" 
			},
			{
				"x": -0.1095167554,
				"y": -1.772974443,
				"z": 1.0495382757,
				"element": "H" 
			}
		],
		 "valence_orbital": [ 
			{
				"type": "occ",
				"energy": -0.33492,
				"method": "rhf"
			},
			{
				"type": "occ",
				"energy": -0.33298,
				"method": "rhf"
			},
			{
				"type": "occ",
				"energy": -0.32144,
				"method": "rhf"
			},
			{
				"type": "occ",
				"energy": -0.27649,
				"method": "rhf"
			},
			{
				"type": "occ",
				"energy": -0.24928,
				"method": "rhf"
			},
			{
				"type": "unocc",
				"energy": -0.06082,
				"method": "rhf"
			},
			{
				"type": "unocc",
				"energy": -0.03887,
				"method": "rhf"
			},
			{
				"type": "unocc",
				"energy": -0.0033,
				"method": "rhf"
			},
			{
				"type": "unocc",
				"energy": 0.03661,
				"method": "rhf"
			},
			{
				"type": "unocc",
				"energy": 0.05579,
				"method": "rhf"
			}
		],
		"cosmo_sigma_profile": { 
			"-0.025": 0.0,
			"-0.024": 0.0,
			"-0.023": 0.0,
			"-0.022": 0.0,
			"-0.021": 0.0,
			"-0.02": 0.0,
			"-0.019": 0.0,
			"-0.018": 0.0,
			"-0.017": 0.0,
			"-0.016": 0.0,
			"-0.015": 0.0,
			"-0.014": 0.0,
			"-0.013": 0.0,
			"-0.012": 0.0,
			"-0.011": 0.0,
			"-0.01": 0.0713001444181,
			"-0.009": 2.29775857113,
			"-0.008": 3.59842024737,
			"-0.007": 7.85456881049,
			"-0.006": 9.44139511006,
			"-0.005": 12.031289175,
			"-0.004": 14.6854087339,
			"-0.003": 17.9701411485,
			"-0.002": 16.7070586671,
			"-0.001": 22.4587857709,
			"0.0": 17.4502190542,
			"0.001": 15.3222617805,
			"0.002": 13.9753598639,
			"0.003": 5.77642221558,
			"0.004": 4.7395988757,
			"0.005": 5.58612067769,
			"0.006": 8.08900841295,
			"0.007": 9.06247290999,
			"0.008": 3.53738028865,
			"0.009": 3.49228373245,
			"0.01": 3.21274736182,
			"0.011": 2.78089967695,
			"0.012": 2.35721873622,
			"0.013": 1.32806838837,
			"0.014": 0.0112385651829,
			"0.015": 0.0,
			"0.016": 0.0,
			"0.017": 0.0,
			"0.018": 0.0,
			"0.019": 0.0,
			"0.02": 0.0,
			"0.021": 0.0,
			"0.022": 0.0,
			"0.023": 0.0,
			"0.024": 0.0,
			"0.025": 0.0
		}
	}
}
