{
	 "smiles": "CC(C)N1N=C(C)C(C(C)=O)=C1C", 
	 "Tm": 348.15, 
	 "num_atms": 29, 
	 "gaussian": { 
		 "optdone": 1, 
		 "sigma_profile": "yes", 
		 "theory": "DFT", 
		 "functional": "B3LYP", 
		 "basiset": "6-31G**", 
		 "properties": { 
			 "R2extent": 3838.1888, 
			 "electric_dipole_moment_norm": 5.30145110889, 
			 "electric_quadrupole_moment_norm": 10.1543276464, 
			 "total_energy": -575.442157484, 
			 "HOMO_LUMO_gap": 0.20919, 
			 "cosmo_polarized_energy": -12.61, 
			 "cosmo_cavitation_energy": 30.55, 
			 "cosmo_dispersion_energy": -21.63, 
			 "cosmo_repulsion_energy": 1.71, 
			 "cosmo_total_nonelectrostatic_energy": 10.64, 
			 "SMD_solvation_energy": 5.13 
		},
		"coords": [
			{
				"x": -1.2780040915,
				"y": -3.0517841027,
				"z": -1.2059571798,
				"element": "C" 
			},
			{
				"x": -0.6446260786,
				"y": -3.3743514559,
				"z": 0.1536573527,
				"element": "C" 
			},
			{
				"x": -1.5456604023,
				"y": -4.2110939541,
				"z": 1.0721776535,
				"element": "C" 
			},
			{
				"x": -0.110377795,
				"y": -2.1749989493,
				"z": 0.82886262,
				"element": "N" 
			},
			{
				"x": 1.2364598679,
				"y": -2.1769447122,
				"z": 1.0664600628,
				"element": "N" 
			},
			{
				"x": 1.5000260903,
				"y": -1.0287507956,
				"z": 1.6714309738,
				"element": "C" 
			},
			{
				"x": 2.9018539004,
				"y": -0.7003528219,
				"z": 2.0775674883,
				"element": "C" 
			},
			{
				"x": 0.3082626526,
				"y": -0.2545147031,
				"z": 1.8362620608,
				"element": "C" 
			},
			{
				"x": 0.2673974399,
				"y": 1.0772358649,
				"z": 2.4584176382,
				"element": "C" 
			},
			{
				"x": -1.0502179854,
				"y": 1.8338918781,
				"z": 2.5651354732,
				"element": "C" 
			},
			{
				"x": 1.2911439033,
				"y": 1.5940165063,
				"z": 2.8972875634,
				"element": "O" 
			},
			{
				"x": -0.7126725207,
				"y": -1.041806013,
				"z": 1.2764759114,
				"element": "C" 
			},
			{
				"x": -2.1835535135,
				"y": -0.7785039042,
				"z": 1.1370633171,
				"element": "C" 
			},
			{
				"x": -0.5915380408,
				"y": -2.4609862644,
				"z": -1.8187189101,
				"element": "H" 
			},
			{
				"x": -1.491852653,
				"y": -3.9846835334,
				"z": -1.7370482943,
				"element": "H" 
			},
			{
				"x": -2.2185770523,
				"y": -2.5017890036,
				"z": -1.1148169516,
				"element": "H" 
			},
			{
				"x": 0.2659284238,
				"y": -3.9490503987,
				"z": -0.0303688814,
				"element": "H" 
			},
			{
				"x": -1.0404660346,
				"y": -4.4143529058,
				"z": 2.0202589632,
				"element": "H" 
			},
			{
				"x": -1.7677434957,
				"y": -5.1688263656,
				"z": 0.5908651011,
				"element": "H" 
			},
			{
				"x": -2.5000188738,
				"y": -3.7226659568,
				"z": 1.2890968406,
				"element": "H" 
			},
			{
				"x": 3.2419829797,
				"y": 0.2250798127,
				"z": 1.6044671576,
				"element": "H" 
			},
			{
				"x": 2.9701188601,
				"y": -0.5326223183,
				"z": 3.1560372156,
				"element": "H" 
			},
			{
				"x": 3.5634548753,
				"y": -1.5218984725,
				"z": 1.7923959401,
				"element": "H" 
			},
			{
				"x": -1.5392054163,
				"y": 1.9407059125,
				"z": 1.5915233214,
				"element": "H" 
			},
			{
				"x": -0.8420395373,
				"y": 2.8219044311,
				"z": 2.9777771653,
				"element": "H" 
			},
			{
				"x": -1.749297082,
				"y": 1.3128573586,
				"z": 3.2292604306,
				"element": "H" 
			},
			{
				"x": -2.3824495883,
				"y": -0.0076002329,
				"z": 0.3837463488,
				"element": "H" 
			},
			{
				"x": -2.7318263621,
				"y": -1.6721274017,
				"z": 0.8441255397,
				"element": "H" 
			},
			{
				"x": -2.6096024701,
				"y": -0.4278874986,
				"z": 2.0798580781,
				"element": "H" 
			}
		],
		 "valence_orbital": [ 
			{
				"type": "occ",
				"energy": -0.34408,
				"method": "rhf"
			},
			{
				"type": "occ",
				"energy": -0.28187,
				"method": "rhf"
			},
			{
				"type": "occ",
				"energy": -0.23976,
				"method": "rhf"
			},
			{
				"type": "occ",
				"energy": -0.23739,
				"method": "rhf"
			},
			{
				"type": "occ",
				"energy": -0.23226,
				"method": "rhf"
			},
			{
				"type": "unocc",
				"energy": -0.02307,
				"method": "rhf"
			},
			{
				"type": "unocc",
				"energy": 0.02933,
				"method": "rhf"
			},
			{
				"type": "unocc",
				"energy": 0.06509,
				"method": "rhf"
			},
			{
				"type": "unocc",
				"energy": 0.08283,
				"method": "rhf"
			},
			{
				"type": "unocc",
				"energy": 0.09573,
				"method": "rhf"
			}
		],
		"cosmo_sigma_profile": { 
			"-0.025": 0.0,
			"-0.024": 0.0,
			"-0.023": 0.0,
			"-0.022": 0.0,
			"-0.021": 0.0,
			"-0.02": 0.0,
			"-0.019": 0.0,
			"-0.018": 0.0,
			"-0.017": 0.0,
			"-0.016": 0.0,
			"-0.015": 0.0,
			"-0.014": 0.0,
			"-0.013": 0.0,
			"-0.012": 0.0,
			"-0.011": 0.0,
			"-0.01": 0.0,
			"-0.009": 0.0,
			"-0.008": 0.00484969739102,
			"-0.007": 2.84848100724,
			"-0.006": 9.48075748135,
			"-0.005": 13.1405095996,
			"-0.004": 24.8406951642,
			"-0.003": 26.775721989,
			"-0.002": 30.2720220866,
			"-0.001": 31.1440876267,
			"0.0": 28.4870855185,
			"0.001": 13.9829138232,
			"0.002": 7.80334222511,
			"0.003": 8.78499975119,
			"0.004": 6.48201650029,
			"0.005": 5.08536259043,
			"0.006": 3.79836403566,
			"0.007": 3.5250621129,
			"0.008": 3.01777346582,
			"0.009": 3.08913806424,
			"0.01": 2.95487242375,
			"0.011": 2.56086432811,
			"0.012": 3.125076673,
			"0.013": 4.4440545845,
			"0.014": 2.76655693426,
			"0.015": 0.963564587055,
			"0.016": 0.0246196139949,
			"0.017": 0.0,
			"0.018": 0.0,
			"0.019": 0.0,
			"0.02": 0.0,
			"0.021": 0.0,
			"0.022": 0.0,
			"0.023": 0.0,
			"0.024": 0.0,
			"0.025": 0.0
		}
	}
}
