{
	 "smiles": "OC1=CC2=C(C=CN=C2)C=C1", 
	 "Tm": 500.15, 
	 "num_atms": 18, 
	 "gaussian": { 
		 "optdone": 1, 
		 "sigma_profile": "yes", 
		 "theory": "DFT", 
		 "functional": "B3LYP", 
		 "basiset": "6-31G**", 
		 "properties": { 
			 "R2extent": 1719.983, 
			 "electric_dipole_moment_norm": 2.12000659669, 
			 "electric_quadrupole_moment_norm": 11.9730824861, 
			 "total_energy": -477.150778973, 
			 "HOMO_LUMO_gap": 0.16748, 
			 "cosmo_polarized_energy": -11.31, 
			 "cosmo_cavitation_energy": 22.07, 
			 "cosmo_dispersion_energy": -16.73, 
			 "cosmo_repulsion_energy": 1.31, 
			 "cosmo_total_nonelectrostatic_energy": 6.65, 
			 "SMD_solvation_energy": 2.55 
		},
		"coords": [
			{
				"x": 0.8132008906,
				"y": -3.3700281064,
				"z": 0.7344714353,
				"element": "O" 
			},
			{
				"x": 0.409177181,
				"y": -2.067152731,
				"z": 0.748367314,
				"element": "C" 
			},
			{
				"x": 0.302279306,
				"y": -1.2854517848,
				"z": -0.3830725459,
				"element": "C" 
			},
			{
				"x": -0.1266417827,
				"y": 0.0617948687,
				"z": -0.2749886906,
				"element": "C" 
			},
			{
				"x": -0.4475047815,
				"y": 0.6081394704,
				"z": 1.0044675236,
				"element": "C" 
			},
			{
				"x": -0.8704382693,
				"y": 1.9595992573,
				"z": 1.0510854996,
				"element": "C" 
			},
			{
				"x": -0.9550389576,
				"y": 2.6832789489,
				"z": -0.1171125762,
				"element": "C" 
			},
			{
				"x": -0.6524093707,
				"y": 2.1754403881,
				"z": -1.3431403051,
				"element": "N" 
			},
			{
				"x": -0.2576682244,
				"y": 0.9201755498,
				"z": -1.4025577896,
				"element": "C" 
			},
			{
				"x": -0.3253703776,
				"y": -0.2278386282,
				"z": 2.1487826935,
				"element": "C" 
			},
			{
				"x": 0.0914048937,
				"y": -1.5300963796,
				"z": 2.0260715758,
				"element": "C" 
			},
			{
				"x": 1.0032029815,
				"y": -3.6352291693,
				"z": -0.1751294236,
				"element": "H" 
			},
			{
				"x": 0.5441421748,
				"y": -1.690859454,
				"z": -1.363886187,
				"element": "H" 
			},
			{
				"x": -1.1248528453,
				"y": 2.4165755971,
				"z": 2.003545278,
				"element": "H" 
			},
			{
				"x": -1.2773064006,
				"y": 3.7217955315,
				"z": -0.1043616872,
				"element": "H" 
			},
			{
				"x": -0.0187618428,
				"y": 0.5276812672,
				"z": -2.3922847472,
				"element": "H" 
			},
			{
				"x": -0.5667859085,
				"y": 0.1768679441,
				"z": 3.1278580533,
				"element": "H" 
			},
			{
				"x": 0.1889713334,
				"y": -2.1787925697,
				"z": 2.8904845791,
				"element": "H" 
			}
		],
		 "valence_orbital": [ 
			{
				"type": "occ",
				"energy": -0.33137,
				"method": "rhf"
			},
			{
				"type": "occ",
				"energy": -0.28994,
				"method": "rhf"
			},
			{
				"type": "occ",
				"energy": -0.25385,
				"method": "rhf"
			},
			{
				"type": "occ",
				"energy": -0.24989,
				"method": "rhf"
			},
			{
				"type": "occ",
				"energy": -0.21732,
				"method": "rhf"
			},
			{
				"type": "unocc",
				"energy": -0.04984,
				"method": "rhf"
			},
			{
				"type": "unocc",
				"energy": -0.01355,
				"method": "rhf"
			},
			{
				"type": "unocc",
				"energy": 0.0248,
				"method": "rhf"
			},
			{
				"type": "unocc",
				"energy": 0.06238,
				"method": "rhf"
			},
			{
				"type": "unocc",
				"energy": 0.09425,
				"method": "rhf"
			}
		],
		"cosmo_sigma_profile": { 
			"-0.025": 0.0,
			"-0.024": 0.0,
			"-0.023": 0.0,
			"-0.022": 0.0,
			"-0.021": 0.0,
			"-0.02": 0.0,
			"-0.019": 0.0,
			"-0.018": 0.746318524921,
			"-0.017": 1.19374651431,
			"-0.016": 0.98195025481,
			"-0.015": 1.16110249288,
			"-0.014": 1.17142704675,
			"-0.013": 0.823549679042,
			"-0.012": 0.907503581685,
			"-0.011": 0.566973423457,
			"-0.01": 1.45234441433,
			"-0.009": 1.15707058036,
			"-0.008": 0.986455347731,
			"-0.007": 6.53598113337,
			"-0.006": 12.720294918,
			"-0.005": 10.4261615215,
			"-0.004": 11.3191104411,
			"-0.003": 7.68100466597,
			"-0.002": 8.34672835979,
			"-0.001": 6.26103129916,
			"0.0": 8.86155193096,
			"0.001": 10.7634834473,
			"0.002": 21.8861429221,
			"0.003": 24.8741915651,
			"0.004": 11.1030279303,
			"0.005": 3.44403238742,
			"0.006": 3.03985508788,
			"0.007": 2.10863353752,
			"0.008": 3.19058297478,
			"0.009": 3.26163229508,
			"0.01": 2.42863786383,
			"0.011": 2.19366052901,
			"0.012": 1.15930191542,
			"0.013": 1.05687186645,
			"0.014": 1.17251252563,
			"0.015": 0.745220013055,
			"0.016": 0.779993367831,
			"0.017": 0.675618681328,
			"0.018": 0.0,
			"0.019": 0.0,
			"0.02": 0.0,
			"0.021": 0.0,
			"0.022": 0.0,
			"0.023": 0.0,
			"0.024": 0.0,
			"0.025": 0.0
		}
	}
}
