{
	 "smiles": "CC1=C(C2=C(C=C1)N=C(S2)C1=CC=C(N)C=C1)S(O)(=O)=O", 
	 "Tm": 573.15, 
	 "num_atms": 33, 
	 "gaussian": { 
		 "optdone": 1, 
		 "sigma_profile": "yes", 
		 "theory": "DFT", 
		 "functional": "B3LYP", 
		 "basiset": "6-31G**", 
		 "properties": { 
			 "R2extent": 9350.2963, 
			 "electric_dipole_moment_norm": 5.4779659674, 
			 "electric_quadrupole_moment_norm": 33.3879312643, 
			 "total_energy": -1672.22677765, 
			 "HOMO_LUMO_gap": 0.1447, 
			 "cosmo_polarized_energy": -20.91, 
			 "cosmo_cavitation_energy": 39.52, 
			 "cosmo_dispersion_energy": -30.33, 
			 "cosmo_repulsion_energy": 2.19, 
			 "cosmo_total_nonelectrostatic_energy": 11.38, 
			 "SMD_solvation_energy": 4.01 
		},
		"coords": [
			{
				"x": -2.9834932646,
				"y": 3.2623158498,
				"z": 2.6595533707,
				"element": "C" 
			},
			{
				"x": -1.7897168227,
				"y": 2.4191105818,
				"z": 2.2747398507,
				"element": "C" 
			},
			{
				"x": -1.8457170825,
				"y": 1.399938577,
				"z": 1.3008171052,
				"element": "C" 
			},
			{
				"x": -0.7022525798,
				"y": 0.6470144291,
				"z": 0.9848892987,
				"element": "C" 
			},
			{
				"x": 0.5260905762,
				"y": 0.908442836,
				"z": 1.6508444519,
				"element": "C" 
			},
			{
				"x": 0.5849363434,
				"y": 1.9197852266,
				"z": 2.6152114913,
				"element": "C" 
			},
			{
				"x": -0.5561061447,
				"y": 2.6527071677,
				"z": 2.9091790651,
				"element": "C" 
			},
			{
				"x": 1.5942724301,
				"y": 0.1216833,
				"z": 1.2800979701,
				"element": "N" 
			},
			{
				"x": 1.2567463386,
				"y": -0.7377919565,
				"z": 0.361633803,
				"element": "C" 
			},
			{
				"x": -0.4550447728,
				"y": -0.661958721,
				"z": -0.1544412623,
				"element": "S" 
			},
			{
				"x": 2.1787790224,
				"y": -1.7061457236,
				"z": -0.2269161078,
				"element": "C" 
			},
			{
				"x": 1.7827004195,
				"y": -2.6309325056,
				"z": -1.2089776078,
				"element": "C" 
			},
			{
				"x": 2.6823291696,
				"y": -3.540523768,
				"z": -1.7450778922,
				"element": "C" 
			},
			{
				"x": 4.0235203475,
				"y": -3.5598444053,
				"z": -1.3163875179,
				"element": "C" 
			},
			{
				"x": 4.9375544917,
				"y": -4.4322440222,
				"z": -1.8836577086,
				"element": "N" 
			},
			{
				"x": 4.4255054937,
				"y": -2.6336302546,
				"z": -0.3322746866,
				"element": "C" 
			},
			{
				"x": 3.5216357757,
				"y": -1.7288316589,
				"z": 0.1984601245,
				"element": "C" 
			},
			{
				"x": -3.3909374759,
				"y": 1.0361300977,
				"z": 0.472228486,
				"element": "S" 
			},
			{
				"x": -3.697204988,
				"y": 2.4287540961,
				"z": -0.3545235733,
				"element": "O" 
			},
			{
				"x": -3.1503411386,
				"y": 0.0037797294,
				"z": -0.5376192482,
				"element": "O" 
			},
			{
				"x": -4.4644881488,
				"y": 0.9108487434,
				"z": 1.4447454722,
				"element": "O" 
			},
			{
				"x": -3.4291781368,
				"y": 3.7528159399,
				"z": 1.7891635145,
				"element": "H" 
			},
			{
				"x": -2.6800076581,
				"y": 4.0357091616,
				"z": 3.3686854963,
				"element": "H" 
			},
			{
				"x": -3.7680022034,
				"y": 2.6549784175,
				"z": 3.1186849969,
				"element": "H" 
			},
			{
				"x": 1.5268983399,
				"y": 2.1138263648,
				"z": 3.1172405143,
				"element": "H" 
			},
			{
				"x": -0.5061928532,
				"y": 3.4380987759,
				"z": 3.6572983561,
				"element": "H" 
			},
			{
				"x": 0.7549787569,
				"y": -2.6481594619,
				"z": -1.5611482357,
				"element": "H" 
			},
			{
				"x": 2.3522924915,
				"y": -4.2440157717,
				"z": -2.50490194,
				"element": "H" 
			},
			{
				"x": 5.7752270145,
				"y": -4.6189065754,
				"z": -1.3520696913,
				"element": "H" 
			},
			{
				"x": 4.5610700439,
				"y": -5.2510836098,
				"z": -2.3385040798,
				"element": "H" 
			},
			{
				"x": 5.4578074897,
				"y": -2.6311289555,
				"z": 0.0086786617,
				"element": "H" 
			},
			{
				"x": 3.8355256951,
				"y": -1.020523524,
				"z": 0.9572665722,
				"element": "H" 
			},
			{
				"x": -3.4004869699,
				"y": 2.2798816195,
				"z": -1.2681190496,
				"element": "H" 
			}
		],
		 "valence_orbital": [ 
			{
				"type": "occ",
				"energy": -0.27174,
				"method": "rhf"
			},
			{
				"type": "occ",
				"energy": -0.26075,
				"method": "rhf"
			},
			{
				"type": "occ",
				"energy": -0.25238,
				"method": "rhf"
			},
			{
				"type": "occ",
				"energy": -0.24438,
				"method": "rhf"
			},
			{
				"type": "occ",
				"energy": -0.20349,
				"method": "rhf"
			},
			{
				"type": "unocc",
				"energy": -0.05879,
				"method": "rhf"
			},
			{
				"type": "unocc",
				"energy": -0.03237,
				"method": "rhf"
			},
			{
				"type": "unocc",
				"energy": -0.00858,
				"method": "rhf"
			},
			{
				"type": "unocc",
				"energy": 0.00434,
				"method": "rhf"
			},
			{
				"type": "unocc",
				"energy": 0.01663,
				"method": "rhf"
			}
		],
		"cosmo_sigma_profile": { 
			"-0.025": 0.0,
			"-0.024": 0.0,
			"-0.023": 0.0,
			"-0.022": 0.0,
			"-0.021": 0.0932395534059,
			"-0.02": 0.776344858332,
			"-0.019": 0.753241828165,
			"-0.018": 1.3666035531,
			"-0.017": 0.494199205319,
			"-0.016": 0.279360522604,
			"-0.015": 0.4640209213,
			"-0.014": 1.15189783737,
			"-0.013": 3.61681376142,
			"-0.012": 3.87107462536,
			"-0.011": 3.77751805298,
			"-0.01": 3.7676172136,
			"-0.009": 3.5882645859,
			"-0.008": 4.64606577791,
			"-0.007": 9.30845022863,
			"-0.006": 12.753404567,
			"-0.005": 14.3791942187,
			"-0.004": 15.241344791,
			"-0.003": 16.4177141181,
			"-0.002": 15.8469143962,
			"-0.001": 22.1828852908,
			"0.0": 24.3667191174,
			"0.001": 26.1475963157,
			"0.002": 24.6081057444,
			"0.003": 22.5482002465,
			"0.004": 21.2585885238,
			"0.005": 18.2916209218,
			"0.006": 8.08613854504,
			"0.007": 7.13277213748,
			"0.008": 8.49759890903,
			"0.009": 8.63062501724,
			"0.01": 9.72022300881,
			"0.011": 3.12685439867,
			"0.012": 0.880218175831,
			"0.013": 0.149945081195,
			"0.014": 0.0,
			"0.015": 0.0,
			"0.016": 0.0,
			"0.017": 0.0,
			"0.018": 0.0,
			"0.019": 0.0,
			"0.02": 0.0,
			"0.021": 0.0,
			"0.022": 0.0,
			"0.023": 0.0,
			"0.024": 0.0,
			"0.025": 0.0
		}
	}
}
