{
	 "smiles": "CC1=C(C=C(C(O)=C1)[N+]([O-])=O)S(Cl)(=O)=O", 
	 "Tm": 337.15, 
	 "num_atms": 21, 
	 "gaussian": { 
		 "optdone": 1, 
		 "sigma_profile": "yes", 
		 "theory": "DFT", 
		 "functional": "B3LYP", 
		 "basiset": "6-31G**", 
		 "properties": { 
			 "R2extent": 4257.8342, 
			 "electric_dipole_moment_norm": 7.07607607082, 
			 "electric_quadrupole_moment_norm": 16.5901839004, 
			 "total_energy": -1559.43095149, 
			 "HOMO_LUMO_gap": 0.18096, 
			 "cosmo_polarized_energy": -20.26, 
			 "cosmo_cavitation_energy": 29.35, 
			 "cosmo_dispersion_energy": -21.98, 
			 "cosmo_repulsion_energy": 1.67, 
			 "cosmo_total_nonelectrostatic_energy": 9.03, 
			 "SMD_solvation_energy": 6.57 
		},
		"coords": [
			{
				"x": 2.1165530505,
				"y": -0.6595405312,
				"z": -0.9138687459,
				"element": "C" 
			},
			{
				"x": 0.9522175553,
				"y": -0.5143815033,
				"z": 0.0315352316,
				"element": "C" 
			},
			{
				"x": 0.1815197925,
				"y": 0.6644696594,
				"z": 0.1645073276,
				"element": "C" 
			},
			{
				"x": -0.8900868915,
				"y": 0.7446291222,
				"z": 1.0446789192,
				"element": "C" 
			},
			{
				"x": -1.2352745139,
				"y": -0.3487254864,
				"z": 1.8325756831,
				"element": "C" 
			},
			{
				"x": -0.4926731541,
				"y": -1.5458611984,
				"z": 1.7433728125,
				"element": "C" 
			},
			{
				"x": -0.7926658813,
				"y": -2.6068721605,
				"z": 2.5077085716,
				"element": "O" 
			},
			{
				"x": 0.5835626653,
				"y": -1.5866508063,
				"z": 0.8389018722,
				"element": "C" 
			},
			{
				"x": -2.3857006815,
				"y": -0.1868088435,
				"z": 2.7341441334,
				"element": "N" 
			},
			{
				"x": -2.8418727758,
				"y": -1.1887931847,
				"z": 3.2744573879,
				"element": "O" 
			},
			{
				"x": -2.823365162,
				"y": 0.9554592462,
				"z": 2.8773822826,
				"element": "O" 
			},
			{
				"x": 0.534015121,
				"y": 2.1505954895,
				"z": -0.7661716692,
				"element": "S" 
			},
			{
				"x": -0.1808705074,
				"y": 1.6165402055,
				"z": -2.7099781781,
				"element": "Cl" 
			},
			{
				"x": -0.3324604545,
				"y": 3.2227439638,
				"z": -0.2976337668,
				"element": "O" 
			},
			{
				"x": 1.9742606939,
				"y": 2.3295124141,
				"z": -0.9037568183,
				"element": "O" 
			},
			{
				"x": 2.9220237107,
				"y": 0.0300771871,
				"z": -0.6495811477,
				"element": "H" 
			},
			{
				"x": 1.8246838791,
				"y": -0.4230503687,
				"z": -1.941452684,
				"element": "H" 
			},
			{
				"x": 2.5001859374,
				"y": -1.6814135564,
				"z": -0.8906814121,
				"element": "H" 
			},
			{
				"x": -1.4695715657,
				"y": 1.6542729588,
				"z": 1.1397833847,
				"element": "H" 
			},
			{
				"x": -0.1612640106,
				"y": -3.3185366532,
				"z": 2.3284900781,
				"element": "H" 
			},
			{
				"x": 1.1565831926,
				"y": -2.5086659539,
				"z": 0.7695867376,
				"element": "H" 
			}
		],
		 "valence_orbital": [ 
			{
				"type": "occ",
				"energy": -0.31764,
				"method": "rhf"
			},
			{
				"type": "occ",
				"energy": -0.31579,
				"method": "rhf"
			},
			{
				"type": "occ",
				"energy": -0.30684,
				"method": "rhf"
			},
			{
				"type": "occ",
				"energy": -0.2967,
				"method": "rhf"
			},
			{
				"type": "occ",
				"energy": -0.28361,
				"method": "rhf"
			},
			{
				"type": "unocc",
				"energy": -0.10265,
				"method": "rhf"
			},
			{
				"type": "unocc",
				"energy": -0.09695,
				"method": "rhf"
			},
			{
				"type": "unocc",
				"energy": -0.05435,
				"method": "rhf"
			},
			{
				"type": "unocc",
				"energy": -0.02937,
				"method": "rhf"
			},
			{
				"type": "unocc",
				"energy": 0.02532,
				"method": "rhf"
			}
		],
		"cosmo_sigma_profile": { 
			"-0.025": 0.0,
			"-0.024": 0.0,
			"-0.023": 0.0,
			"-0.022": 0.0,
			"-0.021": 0.0708438694936,
			"-0.02": 1.24658234269,
			"-0.019": 1.55983624895,
			"-0.018": 0.7818074198,
			"-0.017": 1.52389294219,
			"-0.016": 1.12900055139,
			"-0.015": 0.973743256953,
			"-0.014": 0.689270650134,
			"-0.013": 1.1375146157,
			"-0.012": 1.11754401574,
			"-0.011": 1.18836582326,
			"-0.01": 1.28350889839,
			"-0.009": 2.78476761982,
			"-0.008": 2.60719822774,
			"-0.007": 4.76181978287,
			"-0.006": 6.7144553799,
			"-0.005": 10.5125075281,
			"-0.004": 16.0273576588,
			"-0.003": 23.260215417,
			"-0.002": 25.9763527558,
			"-0.001": 15.3515760957,
			"0.0": 11.4053960474,
			"0.001": 10.2566023621,
			"0.002": 11.3018824444,
			"0.003": 15.4844657369,
			"0.004": 9.78385257676,
			"0.005": 6.81812368959,
			"0.006": 7.62013102697,
			"0.007": 14.0965258711,
			"0.008": 15.8187058623,
			"0.009": 9.01101596977,
			"0.01": 3.26191266602,
			"0.011": 1.53322234386,
			"0.012": 0.756446954398,
			"0.013": 0.0,
			"0.014": 0.0,
			"0.015": 0.0,
			"0.016": 0.0,
			"0.017": 0.0,
			"0.018": 0.0,
			"0.019": 0.0,
			"0.02": 0.0,
			"0.021": 0.0,
			"0.022": 0.0,
			"0.023": 0.0,
			"0.024": 0.0,
			"0.025": 0.0
		}
	}
}
