{
	 "smiles": "COC1=CC(C(C)NC(=O)C(C)Cl)=C(OC)C=C1", 
	 "Tm": 370.15, 
	 "num_atms": 36, 
	 "gaussian": { 
		 "optdone": 1, 
		 "sigma_profile": "yes", 
		 "theory": "DFT", 
		 "functional": "B3LYP", 
		 "basiset": "6-31G**", 
		 "properties": { 
			 "R2extent": 5658.4603, 
			 "electric_dipole_moment_norm": 6.50707835284, 
			 "electric_quadrupole_moment_norm": 15.4606439141, 
			 "total_energy": -1246.84076739, 
			 "HOMO_LUMO_gap": 0.19392, 
			 "cosmo_polarized_energy": -15.61, 
			 "cosmo_cavitation_energy": 39.64, 
			 "cosmo_dispersion_energy": -26.72, 
			 "cosmo_repulsion_energy": 2.11, 
			 "cosmo_total_nonelectrostatic_energy": 15.03, 
			 "SMD_solvation_energy": 8.25 
		},
		"coords": [
			{
				"x": 2.5246728489,
				"y": 0.1668674009,
				"z": 3.9935512058,
				"element": "C" 
			},
			{
				"x": 1.2554409591,
				"y": 0.2438182482,
				"z": 3.3674154672,
				"element": "O" 
			},
			{
				"x": 1.1099930392,
				"y": -0.3428210298,
				"z": 2.1404323797,
				"element": "C" 
			},
			{
				"x": -0.1690114333,
				"y": -0.2364825523,
				"z": 1.5682520974,
				"element": "C" 
			},
			{
				"x": -0.4588852716,
				"y": -0.780611049,
				"z": 0.3225150775,
				"element": "C" 
			},
			{
				"x": -1.8392551739,
				"y": -0.684732722,
				"z": -0.326952694,
				"element": "C" 
			},
			{
				"x": -2.9718454541,
				"y": -0.2274820079,
				"z": 0.6000428596,
				"element": "C" 
			},
			{
				"x": -1.8165324183,
				"y": 0.0567925837,
				"z": -1.6076744356,
				"element": "N" 
			},
			{
				"x": -1.4302803726,
				"y": 1.3314072017,
				"z": -1.9235520183,
				"element": "C" 
			},
			{
				"x": -1.2687571032,
				"y": 1.6681836131,
				"z": -3.0901683389,
				"element": "O" 
			},
			{
				"x": -1.214877785,
				"y": 2.3461781137,
				"z": -0.7891825485,
				"element": "C" 
			},
			{
				"x": -0.1069692122,
				"y": 3.326914244,
				"z": -1.1318474687,
				"element": "C" 
			},
			{
				"x": -2.795461867,
				"y": 3.2537932104,
				"z": -0.5415389434,
				"element": "Cl" 
			},
			{
				"x": 0.5646172779,
				"y": -1.4784095446,
				"z": -0.3642750733,
				"element": "C" 
			},
			{
				"x": 0.204346057,
				"y": -2.0272929351,
				"z": -1.5689978415,
				"element": "O" 
			},
			{
				"x": 1.1880595237,
				"y": -2.7362943605,
				"z": -2.3054941,
				"element": "C" 
			},
			{
				"x": 1.8340753585,
				"y": -1.5855487104,
				"z": 0.1975921236,
				"element": "C" 
			},
			{
				"x": 2.1137152426,
				"y": -1.0161533847,
				"z": 1.4482728149,
				"element": "C" 
			},
			{
				"x": 3.3035121055,
				"y": 0.6570505284,
				"z": 3.3943183,
				"element": "H" 
			},
			{
				"x": 2.8218874934,
				"y": -0.8733108641,
				"z": 4.1824321489,
				"element": "H" 
			},
			{
				"x": 2.4247996037,
				"y": 0.6891463641,
				"z": 4.9463165273,
				"element": "H" 
			},
			{
				"x": -0.9302689575,
				"y": 0.2831248779,
				"z": 2.1396748631,
				"element": "H" 
			},
			{
				"x": -2.0879603729,
				"y": -1.7028204161,
				"z": -0.643688049,
				"element": "H" 
			},
			{
				"x": -3.0428615364,
				"y": -0.8945309424,
				"z": 1.4644757001,
				"element": "H" 
			},
			{
				"x": -3.9180231075,
				"y": -0.2635426741,
				"z": 0.0546954382,
				"element": "H" 
			},
			{
				"x": -2.847389573,
				"y": 0.7944486307,
				"z": 0.9641929215,
				"element": "H" 
			},
			{
				"x": -1.8188056105,
				"y": -0.5247368646,
				"z": -2.4352949075,
				"element": "H" 
			},
			{
				"x": -1.0239032981,
				"y": 1.8563957411,
				"z": 0.1633357133,
				"element": "H" 
			},
			{
				"x": -0.3043521224,
				"y": 3.7909463502,
				"z": -2.0988754381,
				"element": "H" 
			},
			{
				"x": -0.0182235141,
				"y": 4.093745628,
				"z": -0.359296034,
				"element": "H" 
			},
			{
				"x": 0.8428551862,
				"y": 2.7844823573,
				"z": -1.1987721851,
				"element": "H" 
			},
			{
				"x": 1.5630840994,
				"y": -3.6043949972,
				"z": -1.7480225717,
				"element": "H" 
			},
			{
				"x": 2.0326650466,
				"y": -2.0899196642,
				"z": -2.5756382468,
				"element": "H" 
			},
			{
				"x": 0.6952112563,
				"y": -3.0800131542,
				"z": -3.2161780584,
				"element": "H" 
			},
			{
				"x": 2.6251314812,
				"y": -2.1146444731,
				"z": -0.3200887244,
				"element": "H" 
			},
			{
				"x": 3.1112976046,
				"y": -1.1168527469,
				"z": 1.8585220389,
				"element": "H" 
			}
		],
		 "valence_orbital": [ 
			{
				"type": "occ",
				"energy": -0.28931,
				"method": "rhf"
			},
			{
				"type": "occ",
				"energy": -0.26171,
				"method": "rhf"
			},
			{
				"type": "occ",
				"energy": -0.24627,
				"method": "rhf"
			},
			{
				"type": "occ",
				"energy": -0.24204,
				"method": "rhf"
			},
			{
				"type": "occ",
				"energy": -0.20871,
				"method": "rhf"
			},
			{
				"type": "unocc",
				"energy": -0.01479,
				"method": "rhf"
			},
			{
				"type": "unocc",
				"energy": -0.00959,
				"method": "rhf"
			},
			{
				"type": "unocc",
				"energy": 0.01091,
				"method": "rhf"
			},
			{
				"type": "unocc",
				"energy": 0.07284,
				"method": "rhf"
			},
			{
				"type": "unocc",
				"energy": 0.0808,
				"method": "rhf"
			}
		],
		"cosmo_sigma_profile": { 
			"-0.025": 0.0,
			"-0.024": 0.0,
			"-0.023": 0.0,
			"-0.022": 0.0,
			"-0.021": 0.0,
			"-0.02": 0.0,
			"-0.019": 0.0,
			"-0.018": 0.0,
			"-0.017": 0.0,
			"-0.016": 0.0,
			"-0.015": 0.0,
			"-0.014": 0.0,
			"-0.013": 0.132469980946,
			"-0.012": 0.602513412369,
			"-0.011": 1.02390975771,
			"-0.01": 0.540143076958,
			"-0.009": 0.939168619925,
			"-0.008": 1.92339995767,
			"-0.007": 2.47790957476,
			"-0.006": 13.8103174365,
			"-0.005": 30.8714331693,
			"-0.004": 32.9258322466,
			"-0.003": 35.0960937986,
			"-0.002": 25.5866683081,
			"-0.001": 20.9335669826,
			"0.0": 21.4078951962,
			"0.001": 16.004123974,
			"0.002": 15.0489232896,
			"0.003": 19.0602725343,
			"0.004": 20.3112151933,
			"0.005": 17.4866975824,
			"0.006": 12.2809552168,
			"0.007": 4.53636348405,
			"0.008": 2.99130667673,
			"0.009": 2.5362804597,
			"0.01": 2.95558044914,
			"0.011": 2.69840685174,
			"0.012": 2.41821946339,
			"0.013": 5.08955307548,
			"0.014": 2.40086495151,
			"0.015": 0.0111306875022,
			"0.016": 0.0,
			"0.017": 0.0,
			"0.018": 0.0,
			"0.019": 0.0,
			"0.02": 0.0,
			"0.021": 0.0,
			"0.022": 0.0,
			"0.023": 0.0,
			"0.024": 0.0,
			"0.025": 0.0
		}
	}
}
