{
	 "smiles": "NC1=CN(N=C1)C1=C(F)C=CC=C1", 
	 "Tm": 333.15, 
	 "num_atms": 21, 
	 "gaussian": { 
		 "optdone": 1, 
		 "sigma_profile": "yes", 
		 "theory": "DFT", 
		 "functional": "B3LYP", 
		 "basiset": "6-31G**", 
		 "properties": { 
			 "R2extent": 3379.2861, 
			 "electric_dipole_moment_norm": 3.03396066224, 
			 "electric_quadrupole_moment_norm": 16.5981964951, 
			 "total_energy": -611.829893983, 
			 "HOMO_LUMO_gap": 0.17416, 
			 "cosmo_polarized_energy": -13.72, 
			 "cosmo_cavitation_energy": 26.04, 
			 "cosmo_dispersion_energy": -19.09, 
			 "cosmo_repulsion_energy": 1.49, 
			 "cosmo_total_nonelectrostatic_energy": 8.44, 
			 "SMD_solvation_energy": 4.68 
		},
		"coords": [
			{
				"x": -3.6780666707,
				"y": -2.2385583261,
				"z": 1.2157094312,
				"element": "N" 
			},
			{
				"x": -2.4065686919,
				"y": -2.2523416493,
				"z": 0.6228119325,
				"element": "C" 
			},
			{
				"x": -1.6917507829,
				"y": -1.1984328796,
				"z": 0.0875295901,
				"element": "C" 
			},
			{
				"x": -0.5295392829,
				"y": -1.7324552425,
				"z": -0.427349179,
				"element": "N" 
			},
			{
				"x": -0.4648975299,
				"y": -3.0719684508,
				"z": -0.2570615057,
				"element": "N" 
			},
			{
				"x": -1.5912558265,
				"y": -3.3893073441,
				"z": 0.3733223577,
				"element": "C" 
			},
			{
				"x": 0.4774913798,
				"y": -1.034348491,
				"z": -1.1298639937,
				"element": "C" 
			},
			{
				"x": 1.8370101872,
				"y": -1.2933795649,
				"z": -0.9026651228,
				"element": "C" 
			},
			{
				"x": 2.2029865974,
				"y": -2.208422108,
				"z": 0.0075624131,
				"element": "F" 
			},
			{
				"x": 2.8275773982,
				"y": -0.6018016814,
				"z": -1.5885954577,
				"element": "C" 
			},
			{
				"x": 2.471568551,
				"y": 0.3866085926,
				"z": -2.5070527389,
				"element": "C" 
			},
			{
				"x": 1.1243726257,
				"y": 0.6696829947,
				"z": -2.7362627025,
				"element": "C" 
			},
			{
				"x": 0.1364872211,
				"y": -0.0441816185,
				"z": -2.0593050702,
				"element": "C" 
			},
			{
				"x": -3.9190328013,
				"y": -1.3443875615,
				"z": 1.6251785174,
				"element": "H" 
			},
			{
				"x": -3.7933952703,
				"y": -2.968134418,
				"z": 1.9085703744,
				"element": "H" 
			},
			{
				"x": -1.8884462663,
				"y": -0.1377258761,
				"z": 0.0609505786,
				"element": "H" 
			},
			{
				"x": -1.7924407848,
				"y": -4.421455788,
				"z": 0.6301764703,
				"element": "H" 
			},
			{
				"x": 3.8642967636,
				"y": -0.8408453404,
				"z": -1.3772086988,
				"element": "H" 
			},
			{
				"x": 3.2459273289,
				"y": 0.930033254,
				"z": -3.0392544874,
				"element": "H" 
			},
			{
				"x": 0.8386137004,
				"y": 1.4318657629,
				"z": -3.4541423923,
				"element": "H" 
			},
			{
				"x": -0.9137378457,
				"y": 0.1436557361,
				"z": -2.2571503164,
				"element": "H" 
			}
		],
		 "valence_orbital": [ 
			{
				"type": "occ",
				"energy": -0.28103,
				"method": "rhf"
			},
			{
				"type": "occ",
				"energy": -0.27366,
				"method": "rhf"
			},
			{
				"type": "occ",
				"energy": -0.25226,
				"method": "rhf"
			},
			{
				"type": "occ",
				"energy": -0.23448,
				"method": "rhf"
			},
			{
				"type": "occ",
				"energy": -0.19535,
				"method": "rhf"
			},
			{
				"type": "unocc",
				"energy": -0.02119,
				"method": "rhf"
			},
			{
				"type": "unocc",
				"energy": -0.00483,
				"method": "rhf"
			},
			{
				"type": "unocc",
				"energy": 0.03331,
				"method": "rhf"
			},
			{
				"type": "unocc",
				"energy": 0.07203,
				"method": "rhf"
			},
			{
				"type": "unocc",
				"energy": 0.08128,
				"method": "rhf"
			}
		],
		"cosmo_sigma_profile": { 
			"-0.025": 0.0,
			"-0.024": 0.0,
			"-0.023": 0.0,
			"-0.022": 0.0,
			"-0.021": 0.0,
			"-0.02": 0.0,
			"-0.019": 0.0,
			"-0.018": 0.0,
			"-0.017": 0.0,
			"-0.016": 0.0,
			"-0.015": 0.0,
			"-0.014": 0.0,
			"-0.013": 0.0752151008344,
			"-0.012": 2.24985296193,
			"-0.011": 3.14186785551,
			"-0.01": 2.59703628913,
			"-0.009": 3.62993418273,
			"-0.008": 5.76531839603,
			"-0.007": 11.5458754034,
			"-0.006": 13.0504093265,
			"-0.005": 13.6229224035,
			"-0.004": 11.2480958438,
			"-0.003": 9.31640426614,
			"-0.002": 8.12478482287,
			"-0.001": 8.51278550339,
			"0.0": 13.1263678395,
			"0.001": 13.5629001567,
			"0.002": 14.5395789894,
			"0.003": 16.9204625204,
			"0.004": 20.2618750531,
			"0.005": 9.58379660632,
			"0.006": 5.17424578177,
			"0.007": 4.27695158476,
			"0.008": 2.67132182109,
			"0.009": 2.94905422554,
			"0.01": 2.6261871194,
			"0.011": 2.56590736235,
			"0.012": 1.56166883765,
			"0.013": 2.00123610089,
			"0.014": 1.98706659385,
			"0.015": 1.59324559679,
			"0.016": 0.494343363858,
			"0.017": 0.0682295930153,
			"0.018": 0.0,
			"0.019": 0.0,
			"0.02": 0.0,
			"0.021": 0.0,
			"0.022": 0.0,
			"0.023": 0.0,
			"0.024": 0.0,
			"0.025": 0.0
		}
	}
}
