{
	 "smiles": "NS(=O)(=O)C1=CC=CC=C1C(F)(F)F", 
	 "Tm": 455.15, 
	 "num_atms": 20, 
	 "gaussian": { 
		 "optdone": 1, 
		 "sigma_profile": "yes", 
		 "theory": "DFT", 
		 "functional": "B3LYP", 
		 "basiset": "6-31G**", 
		 "properties": { 
			 "R2extent": 4512.0276, 
			 "electric_dipole_moment_norm": 7.24666087933, 
			 "electric_quadrupole_moment_norm": 29.1540116919, 
			 "total_energy": -1173.1888613, 
			 "HOMO_LUMO_gap": 0.22457, 
			 "cosmo_polarized_energy": -21.63, 
			 "cosmo_cavitation_energy": 26.48, 
			 "cosmo_dispersion_energy": -19.65, 
			 "cosmo_repulsion_energy": 1.43, 
			 "cosmo_total_nonelectrostatic_energy": 8.26, 
			 "SMD_solvation_energy": 5.32 
		},
		"coords": [
			{
				"x": -1.7872774167,
				"y": 2.4333250188,
				"z": 3.3559337623,
				"element": "N" 
			},
			{
				"x": -1.0562063246,
				"y": 0.937061981,
				"z": 3.4071089445,
				"element": "S" 
			},
			{
				"x": -2.1434701168,
				"y": -0.0343957276,
				"z": 3.4337556711,
				"element": "O" 
			},
			{
				"x": -0.0421058286,
				"y": 1.0397709701,
				"z": 4.4525617421,
				"element": "O" 
			},
			{
				"x": -0.1922194418,
				"y": 0.7288841592,
				"z": 1.8129086139,
				"element": "C" 
			},
			{
				"x": 0.0945454161,
				"y": 1.8738573152,
				"z": 1.0671321155,
				"element": "C" 
			},
			{
				"x": 0.7838484884,
				"y": 1.7906957106,
				"z": -0.142668782,
				"element": "C" 
			},
			{
				"x": 1.1987939625,
				"y": 0.5496923007,
				"z": -0.6144399799,
				"element": "C" 
			},
			{
				"x": 0.9260468005,
				"y": -0.5974632694,
				"z": 0.1292351563,
				"element": "C" 
			},
			{
				"x": 0.2388883338,
				"y": -0.5298223387,
				"z": 1.3446637429,
				"element": "C" 
			},
			{
				"x": -0.0319693177,
				"y": -1.8436906884,
				"z": 2.0596220928,
				"element": "C" 
			},
			{
				"x": 0.7912764198,
				"y": -2.815491161,
				"z": 1.5954964702,
				"element": "F" 
			},
			{
				"x": -1.2900255207,
				"y": -2.2701386976,
				"z": 1.8549427256,
				"element": "F" 
			},
			{
				"x": 0.1767522031,
				"y": -1.757312569,
				"z": 3.3841183336,
				"element": "F" 
			},
			{
				"x": -2.5404771413,
				"y": 2.5469594185,
				"z": 2.6893050691,
				"element": "H" 
			},
			{
				"x": -1.1877426194,
				"y": 3.2332300922,
				"z": 3.5108376821,
				"element": "H" 
			},
			{
				"x": -0.2301030502,
				"y": 2.8427141815,
				"z": 1.4269593528,
				"element": "H" 
			},
			{
				"x": 0.9917933534,
				"y": 2.6946386634,
				"z": -0.7066692323,
				"element": "H" 
			},
			{
				"x": 1.7351806755,
				"y": 0.4680887595,
				"z": -1.5544233494,
				"element": "H" 
			},
			{
				"x": 1.2546711245,
				"y": -1.565404119,
				"z": -0.2284801313,
				"element": "H" 
			}
		],
		 "valence_orbital": [ 
			{
				"type": "occ",
				"energy": -0.31675,
				"method": "rhf"
			},
			{
				"type": "occ",
				"energy": -0.3115,
				"method": "rhf"
			},
			{
				"type": "occ",
				"energy": -0.30564,
				"method": "rhf"
			},
			{
				"type": "occ",
				"energy": -0.28936,
				"method": "rhf"
			},
			{
				"type": "occ",
				"energy": -0.28029,
				"method": "rhf"
			},
			{
				"type": "unocc",
				"energy": -0.05572,
				"method": "rhf"
			},
			{
				"type": "unocc",
				"energy": -0.04111,
				"method": "rhf"
			},
			{
				"type": "unocc",
				"energy": 0.03231,
				"method": "rhf"
			},
			{
				"type": "unocc",
				"energy": 0.06711,
				"method": "rhf"
			},
			{
				"type": "unocc",
				"energy": 0.07035,
				"method": "rhf"
			}
		],
		"cosmo_sigma_profile": { 
			"-0.025": 0.0,
			"-0.024": 0.0,
			"-0.023": 0.0,
			"-0.022": 0.0,
			"-0.021": 0.0,
			"-0.02": 0.0,
			"-0.019": 0.0,
			"-0.018": 0.0,
			"-0.017": 0.0,
			"-0.016": 1.46777473697,
			"-0.015": 2.86567766358,
			"-0.014": 2.82924672869,
			"-0.013": 3.21151851264,
			"-0.012": 2.72529050464,
			"-0.011": 3.36626564475,
			"-0.01": 2.21539994187,
			"-0.009": 2.07196740646,
			"-0.008": 5.51970709587,
			"-0.007": 10.9888595193,
			"-0.006": 8.51259194469,
			"-0.005": 7.2693358106,
			"-0.004": 6.95117962507,
			"-0.003": 7.71331896128,
			"-0.002": 8.91851343497,
			"-0.001": 9.62891811897,
			"0.0": 13.6969230811,
			"0.001": 19.0348662327,
			"0.002": 25.5265119292,
			"0.003": 15.1034512412,
			"0.004": 4.89940762625,
			"0.005": 5.0526239348,
			"0.006": 4.26780526763,
			"0.007": 6.33436463389,
			"0.008": 5.11714016032,
			"0.009": 6.07266425062,
			"0.01": 10.4617992166,
			"0.011": 9.06364069489,
			"0.012": 1.22370397447,
			"0.013": 0.0,
			"0.014": 0.0,
			"0.015": 0.0,
			"0.016": 0.0,
			"0.017": 0.0,
			"0.018": 0.0,
			"0.019": 0.0,
			"0.02": 0.0,
			"0.021": 0.0,
			"0.022": 0.0,
			"0.023": 0.0,
			"0.024": 0.0,
			"0.025": 0.0
		}
	}
}
