{
	 "smiles": "NC1=C(C(=NN1)C1=CSC=C1)C1=CC2=C(OCO2)C=C1", 
	 "Tm": 353.15, 
	 "num_atms": 31, 
	 "gaussian": { 
		 "optdone": 1, 
		 "sigma_profile": "yes", 
		 "theory": "DFT", 
		 "functional": "B3LYP", 
		 "basiset": "6-31G**", 
		 "properties": { 
			 "R2extent": 8385.6813, 
			 "electric_dipole_moment_norm": 3.68357044863, 
			 "electric_quadrupole_moment_norm": 24.6797718851, 
			 "total_energy": -1252.95233125, 
			 "HOMO_LUMO_gap": 0.18284, 
			 "cosmo_polarized_energy": -18.4, 
			 "cosmo_cavitation_energy": 36.91, 
			 "cosmo_dispersion_energy": -27.31, 
			 "cosmo_repulsion_energy": 2.06, 
			 "cosmo_total_nonelectrostatic_energy": 11.67, 
			 "SMD_solvation_energy": 5.74 
		},
		"coords": [
			{
				"x": 2.3409148722,
				"y": 0.909012149,
				"z": -0.3254563189,
				"element": "N" 
			},
			{
				"x": 1.5734492738,
				"y": 1.288413661,
				"z": 0.7754130827,
				"element": "C" 
			},
			{
				"x": 0.2196024894,
				"y": 1.1170284307,
				"z": 1.0593621081,
				"element": "C" 
			},
			{
				"x": 0.0476819811,
				"y": 1.7661032663,
				"z": 2.3278221005,
				"element": "C" 
			},
			{
				"x": 1.1911308815,
				"y": 2.2844597463,
				"z": 2.777443761,
				"element": "N" 
			},
			{
				"x": 2.106164705,
				"y": 1.9710563483,
				"z": 1.8203964231,
				"element": "N" 
			},
			{
				"x": -1.1749021204,
				"y": 1.9200913376,
				"z": 3.1300703481,
				"element": "C" 
			},
			{
				"x": -1.1615524404,
				"y": 2.0478879992,
				"z": 4.4989683341,
				"element": "C" 
			},
			{
				"x": -2.7486867114,
				"y": 2.2702430509,
				"z": 5.1493353254,
				"element": "S" 
			},
			{
				"x": -3.4572916339,
				"y": 2.1914769835,
				"z": 3.5662784322,
				"element": "C" 
			},
			{
				"x": -2.509836757,
				"y": 2.004579183,
				"z": 2.6016757365,
				"element": "C" 
			},
			{
				"x": -0.7262445158,
				"y": 0.3401924414,
				"z": 0.2374619826,
				"element": "C" 
			},
			{
				"x": -1.5314388004,
				"y": -0.665819651,
				"z": 0.8316040706,
				"element": "C" 
			},
			{
				"x": -2.3700286804,
				"y": -1.3821138686,
				"z": 0.0055462644,
				"element": "C" 
			},
			{
				"x": -2.4303523083,
				"y": -1.1619875127,
				"z": -1.3704488543,
				"element": "C" 
			},
			{
				"x": -3.3203560708,
				"y": -2.0402741516,
				"z": -1.9424597586,
				"element": "O" 
			},
			{
				"x": -3.9430562642,
				"y": -2.7256547136,
				"z": -0.8496422126,
				"element": "C" 
			},
			{
				"x": -3.2174417936,
				"y": -2.4108278508,
				"z": 0.3434053818,
				"element": "O" 
			},
			{
				"x": -1.6557992931,
				"y": -0.1980561662,
				"z": -1.9809812912,
				"element": "C" 
			},
			{
				"x": -0.807044812,
				"y": 0.557441413,
				"z": -1.1490760074,
				"element": "C" 
			},
			{
				"x": 3.2168865172,
				"y": 0.463206835,
				"z": -0.0725622878,
				"element": "H" 
			},
			{
				"x": 1.813125684,
				"y": 0.3054286798,
				"z": -0.9464795946,
				"element": "H" 
			},
			{
				"x": 3.0368557236,
				"y": 2.3513503567,
				"z": 1.8892725784,
				"element": "H" 
			},
			{
				"x": -0.2957996843,
				"y": 2.0268432634,
				"z": 5.1445709158,
				"element": "H" 
			},
			{
				"x": -4.5261640259,
				"y": 2.2956474086,
				"z": 3.4431591543,
				"element": "H" 
			},
			{
				"x": -2.739266281,
				"y": 1.9420975059,
				"z": 1.5454205759,
				"element": "H" 
			},
			{
				"x": -1.4832410978,
				"y": -0.8655315377,
				"z": 1.8953322607,
				"element": "H" 
			},
			{
				"x": -3.903704718,
				"y": -3.8051334186,
				"z": -1.0262719524,
				"element": "H" 
			},
			{
				"x": -4.9836737593,
				"y": -2.3850168603,
				"z": -0.7480326244,
				"element": "H" 
			},
			{
				"x": -1.7101876735,
				"y": -0.0218275163,
				"z": -3.0494349428,
				"element": "H" 
			},
			{
				"x": -0.2217426862,
				"y": 1.3590831877,
				"z": -1.5895929911,
				"element": "H" 
			}
		],
		 "valence_orbital": [ 
			{
				"type": "occ",
				"energy": -0.25274,
				"method": "rhf"
			},
			{
				"type": "occ",
				"energy": -0.2309,
				"method": "rhf"
			},
			{
				"type": "occ",
				"energy": -0.22335,
				"method": "rhf"
			},
			{
				"type": "occ",
				"energy": -0.20396,
				"method": "rhf"
			},
			{
				"type": "occ",
				"energy": -0.1945,
				"method": "rhf"
			},
			{
				"type": "unocc",
				"energy": -0.01166,
				"method": "rhf"
			},
			{
				"type": "unocc",
				"energy": -0.00545,
				"method": "rhf"
			},
			{
				"type": "unocc",
				"energy": 0.00545,
				"method": "rhf"
			},
			{
				"type": "unocc",
				"energy": 0.02949,
				"method": "rhf"
			},
			{
				"type": "unocc",
				"energy": 0.04376,
				"method": "rhf"
			}
		],
		"cosmo_sigma_profile": { 
			"-0.025": 0.0,
			"-0.024": 0.0,
			"-0.023": 0.0,
			"-0.022": 0.0,
			"-0.021": 0.0,
			"-0.02": 0.0,
			"-0.019": 0.0,
			"-0.018": 0.0,
			"-0.017": 0.136642126705,
			"-0.016": 1.27600308108,
			"-0.015": 1.52770335998,
			"-0.014": 2.10496501179,
			"-0.013": 2.87874952505,
			"-0.012": 2.39571798714,
			"-0.011": 3.34484093913,
			"-0.01": 3.55591628264,
			"-0.009": 2.50020097966,
			"-0.008": 6.73346007577,
			"-0.007": 13.11387032,
			"-0.006": 16.0846736542,
			"-0.005": 15.2472155416,
			"-0.004": 15.7638054044,
			"-0.003": 11.9573622357,
			"-0.002": 15.5690302437,
			"-0.001": 15.3633768819,
			"0.0": 14.7939540334,
			"0.001": 17.5688404957,
			"0.002": 22.791980657,
			"0.003": 26.4235971308,
			"0.004": 30.8799359685,
			"0.005": 18.2266164199,
			"0.006": 8.64078231794,
			"0.007": 5.85956271826,
			"0.008": 4.91515635949,
			"0.009": 5.73824435056,
			"0.01": 4.48130536718,
			"0.011": 1.97668120689,
			"0.012": 1.23159694712,
			"0.013": 1.72625959014,
			"0.014": 1.76862193756,
			"0.015": 0.705568020503,
			"0.016": 0.782157106095,
			"0.017": 0.0827888623558,
			"0.018": 0.0,
			"0.019": 0.0,
			"0.02": 0.0,
			"0.021": 0.0,
			"0.022": 0.0,
			"0.023": 0.0,
			"0.024": 0.0,
			"0.025": 0.0
		}
	}
}
