{
	 "smiles": "FC(F)(F)C1=CC=CC(NN=C(C#N)C2=NC3=C(C=CC=C3)C(=O)N2)=C1", 
	 "Tm": 511.15, 
	 "num_atms": 36, 
	 "gaussian": { 
		 "optdone": 1, 
		 "sigma_profile": "yes", 
		 "theory": "DFT", 
		 "functional": "B3LYP", 
		 "basiset": "6-31G**", 
		 "properties": { 
			 "R2extent": 9600.8773, 
			 "electric_dipole_moment_norm": 3.28946522249, 
			 "electric_quadrupole_moment_norm": 35.1150729354, 
			 "total_energy": -1302.29944677, 
			 "HOMO_LUMO_gap": 0.14209, 
			 "cosmo_polarized_energy": -22.63, 
			 "cosmo_cavitation_energy": 44.58, 
			 "cosmo_dispersion_energy": -28.72, 
			 "cosmo_repulsion_energy": 2.12, 
			 "cosmo_total_nonelectrostatic_energy": 17.98, 
			 "SMD_solvation_energy": 8.67 
		},
		"coords": [
			{
				"x": -2.2853065082,
				"y": 4.3348515112,
				"z": -0.7483541006,
				"element": "F" 
			},
			{
				"x": -1.6856293531,
				"y": 3.4338428344,
				"z": 0.0637614326,
				"element": "C" 
			},
			{
				"x": -2.486362806,
				"y": 3.2781023927,
				"z": 1.1383471973,
				"element": "F" 
			},
			{
				"x": -0.5308043003,
				"y": 3.989918962,
				"z": 0.4867003456,
				"element": "F" 
			},
			{
				"x": -1.4534753541,
				"y": 2.1270660502,
				"z": -0.6509503764,
				"element": "C" 
			},
			{
				"x": -2.48120094,
				"y": 1.1831221029,
				"z": -0.7200760499,
				"element": "C" 
			},
			{
				"x": -2.2754796532,
				"y": 0.0039861869,
				"z": -1.4340405501,
				"element": "C" 
			},
			{
				"x": -1.0630880967,
				"y": -0.2407390912,
				"z": -2.0790011741,
				"element": "C" 
			},
			{
				"x": -0.0329644621,
				"y": 0.7029161778,
				"z": -1.989287591,
				"element": "C" 
			},
			{
				"x": 1.2234830989,
				"y": 0.5564978107,
				"z": -2.6631750521,
				"element": "N" 
			},
			{
				"x": 1.7249279104,
				"y": -0.573254538,
				"z": -3.2185177436,
				"element": "N" 
			},
			{
				"x": 1.6999994069,
				"y": -1.7195853211,
				"z": -2.6065624784,
				"element": "C" 
			},
			{
				"x": 2.2262716549,
				"y": -2.82256878,
				"z": -3.3677461424,
				"element": "C" 
			},
			{
				"x": 2.6482632466,
				"y": -3.716000289,
				"z": -3.9802692724,
				"element": "N" 
			},
			{
				"x": 1.2908868996,
				"y": -2.0436142347,
				"z": -1.2075357954,
				"element": "C" 
			},
			{
				"x": 0.7020457086,
				"y": -3.1718646725,
				"z": -0.972463136,
				"element": "N" 
			},
			{
				"x": 0.3821757643,
				"y": -3.4627376869,
				"z": 0.3471820374,
				"element": "C" 
			},
			{
				"x": 0.6765942422,
				"y": -2.5791371009,
				"z": 1.4153523313,
				"element": "C" 
			},
			{
				"x": 0.3285741008,
				"y": -2.9154447951,
				"z": 2.731194516,
				"element": "C" 
			},
			{
				"x": -0.3068985658,
				"y": -4.1214507014,
				"z": 2.9908101115,
				"element": "C" 
			},
			{
				"x": -0.6001424113,
				"y": -5.0036026593,
				"z": 1.935558638,
				"element": "C" 
			},
			{
				"x": -0.2621086758,
				"y": -4.6826790019,
				"z": 0.6292229027,
				"element": "C" 
			},
			{
				"x": 1.3563424791,
				"y": -1.3082768363,
				"z": 1.1340637448,
				"element": "C" 
			},
			{
				"x": 1.6769040555,
				"y": -0.454622824,
				"z": 1.9461539409,
				"element": "O" 
			},
			{
				"x": 1.6374204367,
				"y": -1.1377675445,
				"z": -0.2321442399,
				"element": "N" 
			},
			{
				"x": -0.2291619652,
				"y": 1.8882730136,
				"z": -1.2725514637,
				"element": "C" 
			},
			{
				"x": -3.4226968251,
				"y": 1.3679880453,
				"z": -0.2154431715,
				"element": "H" 
			},
			{
				"x": -3.0691824209,
				"y": -0.7333279914,
				"z": -1.5003126543,
				"element": "H" 
			},
			{
				"x": -0.9288811182,
				"y": -1.1537747012,
				"z": -2.6467231672,
				"element": "H" 
			},
			{
				"x": 1.4260746358,
				"y": 1.3355987371,
				"z": -3.2780681403,
				"element": "H" 
			},
			{
				"x": 0.5714194169,
				"y": -2.2147293971,
				"z": 3.5231267014,
				"element": "H" 
			},
			{
				"x": -0.5763948799,
				"y": -4.3865590959,
				"z": 4.0084609298,
				"element": "H" 
			},
			{
				"x": -1.0954688808,
				"y": -5.9470943473,
				"z": 2.1456219413,
				"element": "H" 
			},
			{
				"x": -0.4781270267,
				"y": -5.3506655037,
				"z": -0.1977645247,
				"element": "H" 
			},
			{
				"x": 2.1049689569,
				"y": -0.2727120423,
				"z": -0.4780949509,
				"element": "H" 
			},
			{
				"x": 0.5737222292,
				"y": 2.6131453305,
				"z": -1.1895749957,
				"element": "H" 
			}
		],
		 "valence_orbital": [ 
			{
				"type": "occ",
				"energy": -0.28989,
				"method": "rhf"
			},
			{
				"type": "occ",
				"energy": -0.27612,
				"method": "rhf"
			},
			{
				"type": "occ",
				"energy": -0.27317,
				"method": "rhf"
			},
			{
				"type": "occ",
				"energy": -0.25356,
				"method": "rhf"
			},
			{
				"type": "occ",
				"energy": -0.23996,
				"method": "rhf"
			},
			{
				"type": "unocc",
				"energy": -0.09787,
				"method": "rhf"
			},
			{
				"type": "unocc",
				"energy": -0.05401,
				"method": "rhf"
			},
			{
				"type": "unocc",
				"energy": -0.04791,
				"method": "rhf"
			},
			{
				"type": "unocc",
				"energy": -0.04085,
				"method": "rhf"
			},
			{
				"type": "unocc",
				"energy": -0.02657,
				"method": "rhf"
			}
		],
		"cosmo_sigma_profile": { 
			"-0.025": 0.0,
			"-0.024": 0.0,
			"-0.023": 0.0,
			"-0.022": 0.0,
			"-0.021": 0.0,
			"-0.02": 0.0,
			"-0.019": 0.0,
			"-0.018": 0.0,
			"-0.017": 0.253446179394,
			"-0.016": 1.45244093542,
			"-0.015": 1.77076787477,
			"-0.014": 1.99805101659,
			"-0.013": 2.05080809466,
			"-0.012": 1.55324464265,
			"-0.011": 2.22622859801,
			"-0.01": 2.55766341469,
			"-0.009": 2.36239582782,
			"-0.008": 5.19987084691,
			"-0.007": 14.8075855167,
			"-0.006": 20.0878550563,
			"-0.005": 20.5723095921,
			"-0.004": 18.4740279723,
			"-0.003": 18.5581429305,
			"-0.002": 19.5058786118,
			"-0.001": 20.6267358276,
			"0.0": 24.9345952528,
			"0.001": 33.9166474279,
			"0.002": 44.9591779688,
			"0.003": 40.5807235486,
			"0.004": 7.12401276104,
			"0.005": 6.98432931125,
			"0.006": 5.54043434841,
			"0.007": 7.32478206454,
			"0.008": 6.8433633252,
			"0.009": 6.73514690892,
			"0.01": 5.79955078279,
			"0.011": 5.37770161533,
			"0.012": 7.96997699337,
			"0.013": 2.43995948292,
			"0.014": 0.0,
			"0.015": 0.0,
			"0.016": 0.0,
			"0.017": 0.0,
			"0.018": 0.0,
			"0.019": 0.0,
			"0.02": 0.0,
			"0.021": 0.0,
			"0.022": 0.0,
			"0.023": 0.0,
			"0.024": 0.0,
			"0.025": 0.0
		}
	}
}
