{
	 "smiles": "BrC1=COC(C=O)=C1", 
	 "Tm": 329.15, 
	 "num_atms": 11, 
	 "gaussian": { 
		 "optdone": 1, 
		 "sigma_profile": "yes", 
		 "theory": "DFT", 
		 "functional": "B3LYP", 
		 "basiset": "6-31G**", 
		 "properties": { 
			 "R2extent": 2155.8006, 
			 "electric_dipole_moment_norm": 2.62847609652, 
			 "electric_quadrupole_moment_norm": 7.7907352721, 
			 "total_energy": -2914.14402606, 
			 "HOMO_LUMO_gap": 0.17902, 
			 "cosmo_polarized_energy": -7.19, 
			 "cosmo_cavitation_energy": 18.87, 
			 "cosmo_dispersion_energy": -14.3, 
			 "cosmo_repulsion_energy": 1.2, 
			 "cosmo_total_nonelectrostatic_energy": 5.77, 
			 "SMD_solvation_energy": 4.35 
		},
		"coords": [
			{
				"x": 1.0375476666,
				"y": -2.9761628772,
				"z": -0.4269173239,
				"element": "Br" 
			},
			{
				"x": 0.6351726408,
				"y": -1.3310536682,
				"z": 0.3918351881,
				"element": "C" 
			},
			{
				"x": 0.1978756496,
				"y": -1.1617162995,
				"z": 1.678574558,
				"element": "C" 
			},
			{
				"x": 0.0081860867,
				"y": 0.1521960483,
				"z": 1.9320738296,
				"element": "O" 
			},
			{
				"x": 0.3299902672,
				"y": 0.8375855849,
				"z": 0.7860601257,
				"element": "C" 
			},
			{
				"x": 0.202465189,
				"y": 2.290169779,
				"z": 0.8160503046,
				"element": "C" 
			},
			{
				"x": 0.4582980532,
				"y": 3.0044657682,
				"z": -0.136525105,
				"element": "O" 
			},
			{
				"x": 0.7232445283,
				"y": -0.039709562,
				"z": -0.1930822638,
				"element": "C" 
			},
			{
				"x": -0.0098731297,
				"y": -1.853269278,
				"z": 2.4796101193,
				"element": "H" 
			},
			{
				"x": -0.1499842841,
				"y": 2.6955134719,
				"z": 1.7871794057,
				"element": "H" 
			},
			{
				"x": 1.0322773324,
				"y": 0.2164810324,
				"z": -1.1948588383,
				"element": "H" 
			}
		],
		 "valence_orbital": [ 
			{
				"type": "occ",
				"energy": -0.35559,
				"method": "rhf"
			},
			{
				"type": "occ",
				"energy": -0.30603,
				"method": "rhf"
			},
			{
				"type": "occ",
				"energy": -0.28679,
				"method": "rhf"
			},
			{
				"type": "occ",
				"energy": -0.26781,
				"method": "rhf"
			},
			{
				"type": "occ",
				"energy": -0.25302,
				"method": "rhf"
			},
			{
				"type": "unocc",
				"energy": -0.074,
				"method": "rhf"
			},
			{
				"type": "unocc",
				"energy": -0.00312,
				"method": "rhf"
			},
			{
				"type": "unocc",
				"energy": 0.01237,
				"method": "rhf"
			},
			{
				"type": "unocc",
				"energy": 0.07956,
				"method": "rhf"
			},
			{
				"type": "unocc",
				"energy": 0.11389,
				"method": "rhf"
			}
		],
		"cosmo_sigma_profile": { 
			"-0.025": 0.0,
			"-0.024": 0.0,
			"-0.023": 0.0,
			"-0.022": 0.0,
			"-0.021": 0.0,
			"-0.02": 0.0,
			"-0.019": 0.0,
			"-0.018": 0.0,
			"-0.017": 0.0,
			"-0.016": 0.0,
			"-0.015": 0.0,
			"-0.014": 0.0,
			"-0.013": 0.0,
			"-0.012": 0.0844261311189,
			"-0.011": 1.86999900572,
			"-0.01": 2.04932799767,
			"-0.009": 3.21907749143,
			"-0.008": 3.17450391946,
			"-0.007": 5.78409470961,
			"-0.006": 5.6271236079,
			"-0.005": 7.68646560163,
			"-0.004": 7.93937847893,
			"-0.003": 8.6952980913,
			"-0.002": 10.5107137407,
			"-0.001": 14.8641905341,
			"0.0": 16.3086943325,
			"0.001": 14.4767741938,
			"0.002": 9.84383624882,
			"0.003": 13.1094161119,
			"0.004": 10.0143698346,
			"0.005": 2.84853395658,
			"0.006": 1.82024737634,
			"0.007": 1.81505145275,
			"0.008": 1.68005228563,
			"0.009": 2.09512447218,
			"0.01": 2.6530897953,
			"0.011": 5.01164872031,
			"0.012": 2.49107173259,
			"0.013": 0.435494429018,
			"0.014": 0.0,
			"0.015": 0.0,
			"0.016": 0.0,
			"0.017": 0.0,
			"0.018": 0.0,
			"0.019": 0.0,
			"0.02": 0.0,
			"0.021": 0.0,
			"0.022": 0.0,
			"0.023": 0.0,
			"0.024": 0.0,
			"0.025": 0.0
		}
	}
}
