{
	 "smiles": "OC(=O)C=CC1=CN=C(Cl)C=C1", 
	 "Tm": 483.15, 
	 "num_atms": 18, 
	 "gaussian": { 
		 "optdone": 1, 
		 "sigma_profile": "yes", 
		 "theory": "DFT", 
		 "functional": "B3LYP", 
		 "basiset": "6-31G**", 
		 "properties": { 
			 "R2extent": 3791.6121, 
			 "electric_dipole_moment_norm": 4.26788550104, 
			 "electric_quadrupole_moment_norm": 17.2390737927, 
			 "total_energy": -973.842211086, 
			 "HOMO_LUMO_gap": 0.16565, 
			 "cosmo_polarized_energy": -16.05, 
			 "cosmo_cavitation_energy": 25.1, 
			 "cosmo_dispersion_energy": -18.85, 
			 "cosmo_repulsion_energy": 1.49, 
			 "cosmo_total_nonelectrostatic_energy": 7.75, 
			 "SMD_solvation_energy": 3.93 
		},
		"coords": [
			{
				"x": 4.4040854007,
				"y": -1.9654453105,
				"z": -0.8597713436,
				"element": "O" 
			},
			{
				"x": 3.3549537323,
				"y": -1.1122806292,
				"z": -0.7009596021,
				"element": "C" 
			},
			{
				"x": 3.0146333377,
				"y": -0.4344314442,
				"z": -1.6483026326,
				"element": "O" 
			},
			{
				"x": 2.7500459313,
				"y": -1.1268058572,
				"z": 0.6516410426,
				"element": "C" 
			},
			{
				"x": 1.7113168034,
				"y": -0.4186526588,
				"z": 1.1564168757,
				"element": "C" 
			},
			{
				"x": 0.789797037,
				"y": 0.5953924543,
				"z": 0.6488249287,
				"element": "C" 
			},
			{
				"x": -0.1713849217,
				"y": 1.0725540093,
				"z": 1.5625981735,
				"element": "C" 
			},
			{
				"x": -1.0935509504,
				"y": 1.9951269032,
				"z": 1.2843921817,
				"element": "N" 
			},
			{
				"x": -1.0946959089,
				"y": 2.4897141486,
				"z": 0.057671751,
				"element": "C" 
			},
			{
				"x": -2.3122434527,
				"y": 3.7044911322,
				"z": -0.301347066,
				"element": "Cl" 
			},
			{
				"x": -0.2024072978,
				"y": 2.1107195456,
				"z": -0.950125455,
				"element": "C" 
			},
			{
				"x": 0.7526108368,
				"y": 1.1498600054,
				"z": -0.6485020017,
				"element": "C" 
			},
			{
				"x": 4.5832941964,
				"y": -2.4497785984,
				"z": -0.0427039342,
				"element": "H" 
			},
			{
				"x": 3.2134918946,
				"y": -1.8171346198,
				"z": 1.3548294517,
				"element": "H" 
			},
			{
				"x": 1.5029880569,
				"y": -0.656474294,
				"z": 2.19981963,
				"element": "H" 
			},
			{
				"x": -0.1917612152,
				"y": 0.6814081373,
				"z": 2.5792652518,
				"element": "H" 
			},
			{
				"x": -0.2602295016,
				"y": 2.5578044365,
				"z": -1.9353230001,
				"element": "H" 
			},
			{
				"x": 1.4674560212,
				"y": 0.8202326396,
				"z": -1.3915242515,
				"element": "H" 
			}
		],
		 "valence_orbital": [ 
			{
				"type": "occ",
				"energy": -0.31675,
				"method": "rhf"
			},
			{
				"type": "occ",
				"energy": -0.29835,
				"method": "rhf"
			},
			{
				"type": "occ",
				"energy": -0.28743,
				"method": "rhf"
			},
			{
				"type": "occ",
				"energy": -0.27897,
				"method": "rhf"
			},
			{
				"type": "occ",
				"energy": -0.25446,
				"method": "rhf"
			},
			{
				"type": "unocc",
				"energy": -0.08881,
				"method": "rhf"
			},
			{
				"type": "unocc",
				"energy": -0.0396,
				"method": "rhf"
			},
			{
				"type": "unocc",
				"energy": -0.00638,
				"method": "rhf"
			},
			{
				"type": "unocc",
				"energy": 0.03075,
				"method": "rhf"
			},
			{
				"type": "unocc",
				"energy": 0.04279,
				"method": "rhf"
			}
		],
		"cosmo_sigma_profile": { 
			"-0.025": 0.0,
			"-0.024": 0.0,
			"-0.023": 0.0,
			"-0.022": 0.0,
			"-0.021": 0.0,
			"-0.02": 0.167007028504,
			"-0.019": 1.27391085926,
			"-0.018": 1.2092259672,
			"-0.017": 0.775976592283,
			"-0.016": 1.2194437674,
			"-0.015": 0.966971490472,
			"-0.014": 1.00451214682,
			"-0.013": 0.956246951234,
			"-0.012": 0.896470983983,
			"-0.011": 1.03956580718,
			"-0.01": 1.30698277604,
			"-0.009": 3.68492326789,
			"-0.008": 8.07786597735,
			"-0.007": 7.89119796261,
			"-0.006": 6.81752413895,
			"-0.005": 4.85852795539,
			"-0.004": 7.19999960028,
			"-0.003": 8.30030802786,
			"-0.002": 10.2046207599,
			"-0.001": 19.2806840115,
			"0.0": 26.0012444664,
			"0.001": 16.4416262063,
			"0.002": 13.2338595353,
			"0.003": 9.86354856755,
			"0.004": 12.729460712,
			"0.005": 6.62409166424,
			"0.006": 4.38533231591,
			"0.007": 2.62885699346,
			"0.008": 4.7962197575,
			"0.009": 4.59980823273,
			"0.01": 4.71878594511,
			"0.011": 5.17087181685,
			"0.012": 3.46880669233,
			"0.013": 2.22497801824,
			"0.014": 0.71725814897,
			"0.015": 0.0,
			"0.016": 0.0,
			"0.017": 0.0,
			"0.018": 0.0,
			"0.019": 0.0,
			"0.02": 0.0,
			"0.021": 0.0,
			"0.022": 0.0,
			"0.023": 0.0,
			"0.024": 0.0,
			"0.025": 0.0
		}
	}
}
