{
	 "smiles": "CC1=CN2C(=CN=C2C=C1)C#N", 
	 "Tm": 400.15, 
	 "num_atms": 19, 
	 "gaussian": { 
		 "optdone": 1, 
		 "sigma_profile": "yes", 
		 "theory": "DFT", 
		 "functional": "B3LYP", 
		 "basiset": "6-31G**", 
		 "properties": { 
			 "R2extent": 2300.9577, 
			 "electric_dipole_moment_norm": 4.72724952377, 
			 "electric_quadrupole_moment_norm": 8.42252745855, 
			 "total_energy": -511.413574206, 
			 "HOMO_LUMO_gap": 0.17607, 
			 "cosmo_polarized_energy": -11.78, 
			 "cosmo_cavitation_energy": 24.41, 
			 "cosmo_dispersion_energy": -17.46, 
			 "cosmo_repulsion_energy": 1.37, 
			 "cosmo_total_nonelectrostatic_energy": 8.32, 
			 "SMD_solvation_energy": 4.14 
		},
		"coords": [
			{
				"x": 1.2055566168,
				"y": -1.8463167455,
				"z": 1.0261162013,
				"element": "C" 
			},
			{
				"x": 0.822814519,
				"y": -0.67041651,
				"z": 0.1629722272,
				"element": "C" 
			},
			{
				"x": -0.3853527105,
				"y": -0.0435180047,
				"z": 0.3274299703,
				"element": "C" 
			},
			{
				"x": -0.7121594984,
				"y": 1.0253428515,
				"z": -0.4704031851,
				"element": "N" 
			},
			{
				"x": -1.853556888,
				"y": 1.8217814907,
				"z": -0.506461029,
				"element": "C" 
			},
			{
				"x": -1.6137533967,
				"y": 2.7482509812,
				"z": -1.5235176391,
				"element": "C" 
			},
			{
				"x": -0.4100180261,
				"y": 2.5655003455,
				"z": -2.1008514625,
				"element": "N" 
			},
			{
				"x": 0.1375605759,
				"y": 1.5209249638,
				"z": -1.4630914653,
				"element": "C" 
			},
			{
				"x": 1.3839902955,
				"y": 0.8831995422,
				"z": -1.641140351,
				"element": "C" 
			},
			{
				"x": 1.7136436796,
				"y": -0.186348191,
				"z": -0.8445434432,
				"element": "C" 
			},
			{
				"x": -2.9470619095,
				"y": 1.6244295883,
				"z": 0.3584596751,
				"element": "C" 
			},
			{
				"x": -3.843651046,
				"y": 1.4462733462,
				"z": 1.0829246681,
				"element": "N" 
			},
			{
				"x": 0.4188660742,
				"y": -2.0904632198,
				"z": 1.7443491761,
				"element": "H" 
			},
			{
				"x": 1.3932185135,
				"y": -2.7374057339,
				"z": 0.4166830776,
				"element": "H" 
			},
			{
				"x": 2.1227201878,
				"y": -1.6395528382,
				"z": 1.5888923557,
				"element": "H" 
			},
			{
				"x": -1.1262462795,
				"y": -0.3358860563,
				"z": 1.0621817166,
				"element": "H" 
			},
			{
				"x": -2.2892308861,
				"y": 3.5328096322,
				"z": -1.8383179574,
				"element": "H" 
			},
			{
				"x": 2.046799133,
				"y": 1.2633200403,
				"z": -2.409431095,
				"element": "H" 
			},
			{
				"x": 2.6711610457,
				"y": -0.6817254825,
				"z": -0.9762514402,
				"element": "H" 
			}
		],
		 "valence_orbital": [ 
			{
				"type": "occ",
				"energy": -0.34454,
				"method": "rhf"
			},
			{
				"type": "occ",
				"energy": -0.32661,
				"method": "rhf"
			},
			{
				"type": "occ",
				"energy": -0.28799,
				"method": "rhf"
			},
			{
				"type": "occ",
				"energy": -0.25992,
				"method": "rhf"
			},
			{
				"type": "occ",
				"energy": -0.22863,
				"method": "rhf"
			},
			{
				"type": "unocc",
				"energy": -0.05256,
				"method": "rhf"
			},
			{
				"type": "unocc",
				"energy": -0.03562,
				"method": "rhf"
			},
			{
				"type": "unocc",
				"energy": 0.01143,
				"method": "rhf"
			},
			{
				"type": "unocc",
				"energy": 0.01769,
				"method": "rhf"
			},
			{
				"type": "unocc",
				"energy": 0.08532,
				"method": "rhf"
			}
		],
		"cosmo_sigma_profile": { 
			"-0.025": 0.0,
			"-0.024": 0.0,
			"-0.023": 0.0,
			"-0.022": 0.0,
			"-0.021": 0.0,
			"-0.02": 0.0,
			"-0.019": 0.0,
			"-0.018": 0.0,
			"-0.017": 0.0,
			"-0.016": 0.0,
			"-0.015": 0.0,
			"-0.014": 0.0,
			"-0.013": 0.0,
			"-0.012": 0.0,
			"-0.011": 0.0,
			"-0.01": 0.0452219590502,
			"-0.009": 2.85541000017,
			"-0.008": 5.92936229218,
			"-0.007": 7.68005385802,
			"-0.006": 10.6495880138,
			"-0.005": 13.341019138,
			"-0.004": 13.9657204584,
			"-0.003": 16.2411247421,
			"-0.002": 17.2409562042,
			"-0.001": 20.7648993074,
			"0.0": 17.4987511655,
			"0.001": 15.6291271642,
			"0.002": 9.62447737629,
			"0.003": 5.14154621018,
			"0.004": 3.66328302696,
			"0.005": 3.49746710724,
			"0.006": 4.24836807337,
			"0.007": 4.08742446602,
			"0.008": 3.97343844707,
			"0.009": 4.34739179824,
			"0.01": 3.78260370974,
			"0.011": 4.31091859087,
			"0.012": 3.40786676541,
			"0.013": 2.55915742678,
			"0.014": 0.819263877146,
			"0.015": 1.00882334379,
			"0.016": 1.03598058684,
			"0.017": 0.261070483073,
			"0.018": 0.0,
			"0.019": 0.0,
			"0.02": 0.0,
			"0.021": 0.0,
			"0.022": 0.0,
			"0.023": 0.0,
			"0.024": 0.0,
			"0.025": 0.0
		}
	}
}
