{
	 "smiles": "CC(C(O)C1=CC=CC=C1)N(C)S(=O)(=O)C1=CC=C(C=C1)[N+]([O-])=O", 
	 "Tm": 406.15, 
	 "num_atms": 42, 
	 "gaussian": { 
		 "optdone": 1, 
		 "sigma_profile": "yes", 
		 "theory": "DFT", 
		 "functional": "B3LYP", 
		 "basiset": "6-31G**", 
		 "properties": { 
			 "R2extent": 11998.7545, 
			 "electric_dipole_moment_norm": 4.13952875941, 
			 "electric_quadrupole_moment_norm": 20.0589391684, 
			 "total_energy": -1504.16353007, 
			 "HOMO_LUMO_gap": 0.14303, 
			 "cosmo_polarized_energy": -21.52, 
			 "cosmo_cavitation_energy": 45.21, 
			 "cosmo_dispersion_energy": -31.63, 
			 "cosmo_repulsion_energy": 2.33, 
			 "cosmo_total_nonelectrostatic_energy": 15.91, 
			 "SMD_solvation_energy": 8.96 
		},
		"coords": [
			{
				"x": 1.4605270812,
				"y": 1.4037805484,
				"z": 0.6110997845,
				"element": "C" 
			},
			{
				"x": 0.2684549898,
				"y": 1.0377839053,
				"z": -0.2921746007,
				"element": "C" 
			},
			{
				"x": 0.6871359736,
				"y": 1.1373098035,
				"z": -1.7848920933,
				"element": "C" 
			},
			{
				"x": -0.4365117031,
				"y": 1.0899453657,
				"z": -2.6704095437,
				"element": "O" 
			},
			{
				"x": 1.7421063826,
				"y": 0.1840720652,
				"z": -2.340252305,
				"element": "C" 
			},
			{
				"x": 2.3015355013,
				"y": -0.891218254,
				"z": -1.6383697625,
				"element": "C" 
			},
			{
				"x": 3.2863276739,
				"y": -1.6901399961,
				"z": -2.2270175313,
				"element": "C" 
			},
			{
				"x": 3.7227477278,
				"y": -1.4305326928,
				"z": -3.524745783,
				"element": "C" 
			},
			{
				"x": 3.1650191553,
				"y": -0.3658409471,
				"z": -4.2373973202,
				"element": "C" 
			},
			{
				"x": 2.1866493939,
				"y": 0.4312953679,
				"z": -3.6486259141,
				"element": "C" 
			},
			{
				"x": -0.3712996689,
				"y": -0.262612291,
				"z": 0.0966550742,
				"element": "N" 
			},
			{
				"x": -0.9488100484,
				"y": -1.1471622859,
				"z": -0.9435224883,
				"element": "C" 
			},
			{
				"x": -1.3237125088,
				"y": -0.2369861281,
				"z": 1.5025807271,
				"element": "S" 
			},
			{
				"x": -0.6474468371,
				"y": 0.5828508694,
				"z": 2.5087707658,
				"element": "O" 
			},
			{
				"x": -1.7081709949,
				"y": -1.6209435719,
				"z": 1.7789054004,
				"element": "O" 
			},
			{
				"x": -2.83841615,
				"y": 0.6501219605,
				"z": 1.0655147373,
				"element": "C" 
			},
			{
				"x": -2.9109001133,
				"y": 2.029576177,
				"z": 1.2877355159,
				"element": "C" 
			},
			{
				"x": -4.0639239864,
				"y": 2.7223439314,
				"z": 0.9252935369,
				"element": "C" 
			},
			{
				"x": -5.1172771343,
				"y": 2.0120253374,
				"z": 0.3532729,
				"element": "C" 
			},
			{
				"x": -5.0662149063,
				"y": 0.6352210546,
				"z": 0.1440498796,
				"element": "C" 
			},
			{
				"x": -3.9109897704,
				"y": -0.0530617969,
				"z": 0.5070765579,
				"element": "C" 
			},
			{
				"x": -6.3383849495,
				"y": 2.7447291806,
				"z": -0.0354442774,
				"element": "N" 
			},
			{
				"x": -6.3541499859,
				"y": 3.9597024663,
				"z": 0.1520340804,
				"element": "O" 
			},
			{
				"x": -7.2587688787,
				"y": 2.0936748276,
				"z": -0.5250250802,
				"element": "O" 
			},
			{
				"x": 1.1484763731,
				"y": 1.5144838963,
				"z": 1.6466406544,
				"element": "H" 
			},
			{
				"x": 2.2445402439,
				"y": 0.6470067871,
				"z": 0.5665380353,
				"element": "H" 
			},
			{
				"x": 1.8887364484,
				"y": 2.3538102554,
				"z": 0.2733899602,
				"element": "H" 
			},
			{
				"x": -0.4840271476,
				"y": 1.8380247721,
				"z": -0.1883199395,
				"element": "H" 
			},
			{
				"x": 1.1325046903,
				"y": 2.1435569836,
				"z": -1.8432396809,
				"element": "H" 
			},
			{
				"x": -0.9792157013,
				"y": 1.8716549665,
				"z": -2.4996519793,
				"element": "H" 
			},
			{
				"x": 1.9642991755,
				"y": -1.1243448996,
				"z": -0.6345841735,
				"element": "H" 
			},
			{
				"x": 3.7062887219,
				"y": -2.5194883847,
				"z": -1.6652565704,
				"element": "H" 
			},
			{
				"x": 4.488154545,
				"y": -2.052473355,
				"z": -3.9797553411,
				"element": "H" 
			},
			{
				"x": 3.4932969696,
				"y": -0.1564222205,
				"z": -5.2514881703,
				"element": "H" 
			},
			{
				"x": 1.7483780012,
				"y": 1.2523919619,
				"z": -4.2082265082,
				"element": "H" 
			},
			{
				"x": -1.8276137654,
				"y": -0.7157321506,
				"z": -1.4345532208,
				"element": "H" 
			},
			{
				"x": -0.1985988486,
				"y": -1.3336210628,
				"z": -1.7062554713,
				"element": "H" 
			},
			{
				"x": -1.2045809844,
				"y": -2.0938997872,
				"z": -0.4699124394,
				"element": "H" 
			},
			{
				"x": -2.0854063456,
				"y": 2.5407608962,
				"z": 1.7696289158,
				"element": "H" 
			},
			{
				"x": -4.1636977457,
				"y": 3.7885387737,
				"z": 1.0853439428,
				"element": "H" 
			},
			{
				"x": -5.9206954522,
				"y": 0.1284010096,
				"z": -0.286370294,
				"element": "H" 
			},
			{
				"x": -3.8479654216,
				"y": -1.1282833393,
				"z": 0.38676002,
				"element": "H" 
			}
		],
		 "valence_orbital": [ 
			{
				"type": "occ",
				"energy": -0.29817,
				"method": "rhf"
			},
			{
				"type": "occ",
				"energy": -0.29108,
				"method": "rhf"
			},
			{
				"type": "occ",
				"energy": -0.26524,
				"method": "rhf"
			},
			{
				"type": "occ",
				"energy": -0.25747,
				"method": "rhf"
			},
			{
				"type": "occ",
				"energy": -0.2518,
				"method": "rhf"
			},
			{
				"type": "unocc",
				"energy": -0.10877,
				"method": "rhf"
			},
			{
				"type": "unocc",
				"energy": -0.04945,
				"method": "rhf"
			},
			{
				"type": "unocc",
				"energy": -0.03076,
				"method": "rhf"
			},
			{
				"type": "unocc",
				"energy": -0.01812,
				"method": "rhf"
			},
			{
				"type": "unocc",
				"energy": -0.0097,
				"method": "rhf"
			}
		],
		"cosmo_sigma_profile": { 
			"-0.025": 0.0,
			"-0.024": 0.0,
			"-0.023": 0.0,
			"-0.022": 0.0,
			"-0.021": 0.0,
			"-0.02": 0.0,
			"-0.019": 0.0,
			"-0.018": 0.0,
			"-0.017": 0.0,
			"-0.016": 0.429609934245,
			"-0.015": 1.33675653983,
			"-0.014": 0.82068645438,
			"-0.013": 1.11361916086,
			"-0.012": 1.18912076531,
			"-0.011": 1.47078290355,
			"-0.01": 1.3481755681,
			"-0.009": 2.69758504586,
			"-0.008": 7.91245550249,
			"-0.007": 10.68531367,
			"-0.006": 16.3414317952,
			"-0.005": 22.0509191291,
			"-0.004": 29.2931519721,
			"-0.003": 30.4581465059,
			"-0.002": 30.7593267421,
			"-0.001": 30.3598484812,
			"0.0": 27.6536684251,
			"0.001": 17.7525297507,
			"0.002": 13.4182154065,
			"0.003": 14.3935934276,
			"0.004": 15.8053636177,
			"0.005": 17.9041120348,
			"0.006": 13.6935998062,
			"0.007": 14.0129061245,
			"0.008": 9.67157455208,
			"0.009": 9.36901503712,
			"0.01": 8.04669718795,
			"0.011": 7.26295758649,
			"0.012": 1.45770469636,
			"0.013": 0.757953113149,
			"0.014": 0.134112436499,
			"0.015": 0.0,
			"0.016": 0.0,
			"0.017": 0.0,
			"0.018": 0.0,
			"0.019": 0.0,
			"0.02": 0.0,
			"0.021": 0.0,
			"0.022": 0.0,
			"0.023": 0.0,
			"0.024": 0.0,
			"0.025": 0.0
		}
	}
}
