{
	 "smiles": "NC1=C(C=NO1)C1=CC=CC=C1", 
	 "Tm": 371.15, 
	 "num_atms": 20, 
	 "gaussian": { 
		 "optdone": 1, 
		 "sigma_profile": "yes", 
		 "theory": "DFT", 
		 "functional": "B3LYP", 
		 "basiset": "6-31G**", 
		 "properties": { 
			 "R2extent": 2393.455, 
			 "electric_dipole_moment_norm": 3.61877420545, 
			 "electric_quadrupole_moment_norm": 17.870847767, 
			 "total_energy": -532.458017921, 
			 "HOMO_LUMO_gap": 0.19091, 
			 "cosmo_polarized_energy": -12.91, 
			 "cosmo_cavitation_energy": 24.33, 
			 "cosmo_dispersion_energy": -18.12, 
			 "cosmo_repulsion_energy": 1.43, 
			 "cosmo_total_nonelectrostatic_energy": 7.64, 
			 "SMD_solvation_energy": 4.16 
		},
		"coords": [
			{
				"x": 0.8383467199,
				"y": 0.5014404838,
				"z": 2.6599111536,
				"element": "N" 
			},
			{
				"x": 1.5035250341,
				"y": 1.0995403643,
				"z": 1.618201729,
				"element": "C" 
			},
			{
				"x": 1.2903504156,
				"y": 1.1137870313,
				"z": 0.2525732503,
				"element": "C" 
			},
			{
				"x": 2.3818957783,
				"y": 1.9107079026,
				"z": -0.2043638738,
				"element": "C" 
			},
			{
				"x": 3.1761512765,
				"y": 2.3286192272,
				"z": 0.7491590316,
				"element": "N" 
			},
			{
				"x": 2.5990165002,
				"y": 1.8037948583,
				"z": 1.9381017253,
				"element": "O" 
			},
			{
				"x": 0.2141039864,
				"y": 0.4885724355,
				"z": -0.5224626236,
				"element": "C" 
			},
			{
				"x": -0.3972653677,
				"y": -0.7059519693,
				"z": -0.0959029074,
				"element": "C" 
			},
			{
				"x": -1.4285682965,
				"y": -1.2857746581,
				"z": -0.8347523195,
				"element": "C" 
			},
			{
				"x": -1.8642776245,
				"y": -0.6963289084,
				"z": -2.0222318875,
				"element": "C" 
			},
			{
				"x": -1.2570458412,
				"y": 0.4816123297,
				"z": -2.4646808609,
				"element": "C" 
			},
			{
				"x": -0.2354881784,
				"y": 1.0699247289,
				"z": -1.7227375225,
				"element": "C" 
			},
			{
				"x": -0.1445430732,
				"y": 0.3348968243,
				"z": 2.4889044961,
				"element": "H" 
			},
			{
				"x": 1.0289899602,
				"y": 0.9114468584,
				"z": 3.5651658275,
				"element": "H" 
			},
			{
				"x": 2.62204167,
				"y": 2.1759759641,
				"z": -1.227096586,
				"element": "H" 
			},
			{
				"x": -0.0348924817,
				"y": -1.204608478,
				"z": 0.7986624156,
				"element": "H" 
			},
			{
				"x": -1.8820858605,
				"y": -2.2099705246,
				"z": -0.487239573,
				"element": "H" 
			},
			{
				"x": -2.6647711249,
				"y": -1.1503380557,
				"z": -2.5986735034,
				"element": "H" 
			},
			{
				"x": -1.5872040836,
				"y": 0.9501550084,
				"z": -3.3876357911,
				"element": "H" 
			},
			{
				"x": 0.2105205913,
				"y": 1.9994985773,
				"z": -2.0649021804,
				"element": "H" 
			}
		],
		 "valence_orbital": [ 
			{
				"type": "occ",
				"energy": -0.30511,
				"method": "rhf"
			},
			{
				"type": "occ",
				"energy": -0.29887,
				"method": "rhf"
			},
			{
				"type": "occ",
				"energy": -0.26098,
				"method": "rhf"
			},
			{
				"type": "occ",
				"energy": -0.25519,
				"method": "rhf"
			},
			{
				"type": "occ",
				"energy": -0.20671,
				"method": "rhf"
			},
			{
				"type": "unocc",
				"energy": -0.0158,
				"method": "rhf"
			},
			{
				"type": "unocc",
				"energy": -0.00814,
				"method": "rhf"
			},
			{
				"type": "unocc",
				"energy": 0.00766,
				"method": "rhf"
			},
			{
				"type": "unocc",
				"energy": 0.06434,
				"method": "rhf"
			},
			{
				"type": "unocc",
				"energy": 0.08734,
				"method": "rhf"
			}
		],
		"cosmo_sigma_profile": { 
			"-0.025": 0.0,
			"-0.024": 0.0,
			"-0.023": 0.0,
			"-0.022": 0.0,
			"-0.021": 0.0,
			"-0.02": 0.0,
			"-0.019": 0.0,
			"-0.018": 0.0,
			"-0.017": 0.0,
			"-0.016": 0.0,
			"-0.015": 0.453005788491,
			"-0.014": 1.71493984106,
			"-0.013": 2.64049323458,
			"-0.012": 2.32341053846,
			"-0.011": 2.46161920263,
			"-0.01": 2.16032654166,
			"-0.009": 3.65698934739,
			"-0.008": 3.98377629032,
			"-0.007": 4.31315692136,
			"-0.006": 8.04110152966,
			"-0.005": 12.5877096177,
			"-0.004": 13.1582988952,
			"-0.003": 13.1901646085,
			"-0.002": 8.74855877447,
			"-0.001": 10.9686662336,
			"0.0": 9.15121757574,
			"0.001": 11.8663078508,
			"0.002": 13.9461954097,
			"0.003": 14.0415919059,
			"0.004": 11.9028472,
			"0.005": 11.9281979395,
			"0.006": 9.23686511007,
			"0.007": 3.56568677244,
			"0.008": 5.57463602584,
			"0.009": 3.65095308744,
			"0.01": 2.47147607911,
			"0.011": 1.97857717924,
			"0.012": 1.50107557165,
			"0.013": 1.90141237227,
			"0.014": 1.34687105682,
			"0.015": 0.645608152347,
			"0.016": 0.0,
			"0.017": 0.0,
			"0.018": 0.0,
			"0.019": 0.0,
			"0.02": 0.0,
			"0.021": 0.0,
			"0.022": 0.0,
			"0.023": 0.0,
			"0.024": 0.0,
			"0.025": 0.0
		}
	}
}
