{
	 "smiles": "CC1=CC=C(S1)C1=CC=C(C)S1", 
	 "Tm": 339.65, 
	 "num_atms": 22, 
	 "gaussian": { 
		 "optdone": 1, 
		 "sigma_profile": "yes", 
		 "theory": "DFT", 
		 "functional": "B3LYP", 
		 "basiset": "6-31G**", 
		 "properties": { 
			 "R2extent": 3822.3107, 
			 "electric_dipole_moment_norm": 0.0, 
			 "electric_quadrupole_moment_norm": 12.133213578, 
			 "total_energy": -1183.45680061, 
			 "HOMO_LUMO_gap": 0.14953, 
			 "cosmo_polarized_energy": -5.51, 
			 "cosmo_cavitation_energy": 28.64, 
			 "cosmo_dispersion_energy": -22.04, 
			 "cosmo_repulsion_energy": 1.66, 
			 "cosmo_total_nonelectrostatic_energy": 8.26, 
			 "SMD_solvation_energy": 4.39 
		},
		"coords": [
			{
				"x": -3.7895134818,
				"y": 2.8270409026,
				"z": 0.6144284715,
				"element": "C" 
			},
			{
				"x": -2.5529008353,
				"y": 2.0049477617,
				"z": 0.4124715601,
				"element": "C" 
			},
			{
				"x": -1.9446712862,
				"y": 1.6509312055,
				"z": -0.7623502117,
				"element": "C" 
			},
			{
				"x": -0.7751266792,
				"y": 0.8563546514,
				"z": -0.5907486547,
				"element": "C" 
			},
			{
				"x": -0.4749282887,
				"y": 0.5927720842,
				"z": 0.726691003,
				"element": "C" 
			},
			{
				"x": -1.6701476118,
				"y": 1.3476332795,
				"z": 1.7737151636,
				"element": "S" 
			},
			{
				"x": 0.6232765465,
				"y": -0.1717398837,
				"z": 1.2815017043,
				"element": "C" 
			},
			{
				"x": 0.9234764155,
				"y": -0.4353212919,
				"z": 2.5989416534,
				"element": "C" 
			},
			{
				"x": 2.0930068364,
				"y": -1.2299194887,
				"z": 2.7705411932,
				"element": "C" 
			},
			{
				"x": 2.7012278124,
				"y": -1.5839476724,
				"z": 1.5957184619,
				"element": "C" 
			},
			{
				"x": 3.9378154849,
				"y": -2.4060785811,
				"z": 1.3937608364,
				"element": "C" 
			},
			{
				"x": 1.8185242238,
				"y": -0.9265580641,
				"z": 0.2344788601,
				"element": "S" 
			},
			{
				"x": -4.1859511542,
				"y": 3.1388284168,
				"z": -0.3558964635,
				"element": "H" 
			},
			{
				"x": -4.5756572224,
				"y": 2.2663795945,
				"z": 1.1334602092,
				"element": "H" 
			},
			{
				"x": -3.5907639672,
				"y": 3.7311044369,
				"z": 1.2017332816,
				"element": "H" 
			},
			{
				"x": -2.3270520551,
				"y": 1.9534322681,
				"z": -1.7316169634,
				"element": "H" 
			},
			{
				"x": -0.1737084764,
				"y": 0.4905299246,
				"z": -1.4157844933,
				"element": "H" 
			},
			{
				"x": 0.3220579664,
				"y": -0.0694972777,
				"z": 3.423977234,
				"element": "H" 
			},
			{
				"x": 2.475376352,
				"y": -1.5324386891,
				"z": 3.7398066264,
				"element": "H" 
			},
			{
				"x": 4.3342324268,
				"y": -2.7178950145,
				"z": 2.3640850545,
				"element": "H" 
			},
			{
				"x": 3.7390444306,
				"y": -3.3101256516,
				"z": 0.8064379176,
				"element": "H" 
			},
			{
				"x": 4.7239825628,
				"y": -1.845432911,
				"z": 0.8747475558,
				"element": "H" 
			}
		],
		 "valence_orbital": [ 
			{
				"type": "occ",
				"energy": -0.32627,
				"method": "rhf"
			},
			{
				"type": "occ",
				"energy": -0.25954,
				"method": "rhf"
			},
			{
				"type": "occ",
				"energy": -0.25027,
				"method": "rhf"
			},
			{
				"type": "occ",
				"energy": -0.24304,
				"method": "rhf"
			},
			{
				"type": "occ",
				"energy": -0.1901,
				"method": "rhf"
			},
			{
				"type": "unocc",
				"energy": -0.04057,
				"method": "rhf"
			},
			{
				"type": "unocc",
				"energy": 0.02328,
				"method": "rhf"
			},
			{
				"type": "unocc",
				"energy": 0.0274,
				"method": "rhf"
			},
			{
				"type": "unocc",
				"energy": 0.03011,
				"method": "rhf"
			},
			{
				"type": "unocc",
				"energy": 0.07024,
				"method": "rhf"
			}
		],
		"cosmo_sigma_profile": { 
			"-0.025": 0.0,
			"-0.024": 0.0,
			"-0.023": 0.0,
			"-0.022": 0.0,
			"-0.021": 0.0,
			"-0.02": 0.0,
			"-0.019": 0.0,
			"-0.018": 0.0,
			"-0.017": 0.0,
			"-0.016": 0.0,
			"-0.015": 0.0,
			"-0.014": 0.0,
			"-0.013": 0.0,
			"-0.012": 0.0,
			"-0.011": 0.0,
			"-0.01": 0.0,
			"-0.009": 0.0,
			"-0.008": 0.0,
			"-0.007": 1.3681302445,
			"-0.006": 6.99296397594,
			"-0.005": 17.1359898365,
			"-0.004": 21.9513018347,
			"-0.003": 23.8803455557,
			"-0.002": 19.957834455,
			"-0.001": 23.9202930465,
			"0.0": 15.9080016763,
			"0.001": 13.2575427728,
			"0.002": 14.9700247101,
			"0.003": 17.3065741784,
			"0.004": 25.2807226243,
			"0.005": 24.7463751974,
			"0.006": 5.89138898693,
			"0.007": 0.0,
			"0.008": 0.0,
			"0.009": 0.0,
			"0.01": 0.0,
			"0.011": 0.0,
			"0.012": 0.0,
			"0.013": 0.0,
			"0.014": 0.0,
			"0.015": 0.0,
			"0.016": 0.0,
			"0.017": 0.0,
			"0.018": 0.0,
			"0.019": 0.0,
			"0.02": 0.0,
			"0.021": 0.0,
			"0.022": 0.0,
			"0.023": 0.0,
			"0.024": 0.0,
			"0.025": 0.0
		}
	}
}
