{
	 "smiles": "ClC1=NC(=CC=N1)C1=CC=CS1", 
	 "Tm": 401.15, 
	 "num_atms": 17, 
	 "gaussian": { 
		 "optdone": 1, 
		 "sigma_profile": "yes", 
		 "theory": "DFT", 
		 "functional": "B3LYP", 
		 "basiset": "6-31G**", 
		 "properties": { 
			 "R2extent": 3379.9193, 
			 "electric_dipole_moment_norm": 4.41116791904, 
			 "electric_quadrupole_moment_norm": 9.43020460807, 
			 "total_energy": -1275.73112028, 
			 "HOMO_LUMO_gap": 0.16472, 
			 "cosmo_polarized_energy": -8.99, 
			 "cosmo_cavitation_energy": 25.34, 
			 "cosmo_dispersion_energy": -19.65, 
			 "cosmo_repulsion_energy": 1.51, 
			 "cosmo_total_nonelectrostatic_energy": 7.19, 
			 "SMD_solvation_energy": 1.53 
		},
		"coords": [
			{
				"x": -3.4616277687,
				"y": 0.540681908,
				"z": 2.3318952612,
				"element": "Cl" 
			},
			{
				"x": -1.7587945919,
				"y": 0.7214987583,
				"z": 1.9394638259,
				"element": "C" 
			},
			{
				"x": -1.4655675295,
				"y": 0.7062558556,
				"z": 0.6510424613,
				"element": "N" 
			},
			{
				"x": -0.1603727534,
				"y": 0.8437264449,
				"z": 0.3293870626,
				"element": "C" 
			},
			{
				"x": 0.8052729164,
				"y": 0.9926791712,
				"z": 1.3390963632,
				"element": "C" 
			},
			{
				"x": 0.3521678599,
				"y": 0.9903820523,
				"z": 2.6513371714,
				"element": "C" 
			},
			{
				"x": -0.9414963008,
				"y": 0.8544609389,
				"z": 2.9787017432,
				"element": "N" 
			},
			{
				"x": 0.1537223196,
				"y": 0.8258780011,
				"z": -1.0959220046,
				"element": "C" 
			},
			{
				"x": -0.7420639532,
				"y": 0.6837844086,
				"z": -2.1338260598,
				"element": "C" 
			},
			{
				"x": -0.1255722547,
				"y": 0.7062644045,
				"z": -3.4130522952,
				"element": "C" 
			},
			{
				"x": 1.2343019977,
				"y": 0.8651288695,
				"z": -3.3423369313,
				"element": "C" 
			},
			{
				"x": 1.7861874467,
				"y": 0.9902549405,
				"z": -1.7081627143,
				"element": "S" 
			},
			{
				"x": 1.8597507543,
				"y": 1.105106603,
				"z": 1.1144516781,
				"element": "H" 
			},
			{
				"x": 1.0459078082,
				"y": 1.1013686916,
				"z": 3.4820422324,
				"element": "H" 
			},
			{
				"x": -1.8037491605,
				"y": 0.5685789086,
				"z": -1.9557750332,
				"element": "H" 
			},
			{
				"x": -0.6657793743,
				"y": 0.608921424,
				"z": -4.347446371,
				"element": "H" 
			},
			{
				"x": 1.9470125844,
				"y": 0.9163286193,
				"z": -4.1539963897,
				"element": "H" 
			}
		],
		 "valence_orbital": [ 
			{
				"type": "occ",
				"energy": -0.31413,
				"method": "rhf"
			},
			{
				"type": "occ",
				"energy": -0.28275,
				"method": "rhf"
			},
			{
				"type": "occ",
				"energy": -0.26905,
				"method": "rhf"
			},
			{
				"type": "occ",
				"energy": -0.26721,
				"method": "rhf"
			},
			{
				"type": "occ",
				"energy": -0.24165,
				"method": "rhf"
			},
			{
				"type": "unocc",
				"energy": -0.07693,
				"method": "rhf"
			},
			{
				"type": "unocc",
				"energy": -0.03986,
				"method": "rhf"
			},
			{
				"type": "unocc",
				"energy": 0.00169,
				"method": "rhf"
			},
			{
				"type": "unocc",
				"energy": 0.01206,
				"method": "rhf"
			},
			{
				"type": "unocc",
				"energy": 0.03976,
				"method": "rhf"
			}
		],
		"cosmo_sigma_profile": { 
			"-0.025": 0.0,
			"-0.024": 0.0,
			"-0.023": 0.0,
			"-0.022": 0.0,
			"-0.021": 0.0,
			"-0.02": 0.0,
			"-0.019": 0.0,
			"-0.018": 0.0,
			"-0.017": 0.0,
			"-0.016": 0.0,
			"-0.015": 0.0,
			"-0.014": 0.0,
			"-0.013": 0.0,
			"-0.012": 0.0,
			"-0.011": 0.0,
			"-0.01": 0.209600994551,
			"-0.009": 4.00500557509,
			"-0.008": 7.47841430143,
			"-0.007": 9.01278423365,
			"-0.006": 8.59683822437,
			"-0.005": 8.07901016593,
			"-0.004": 10.2466057238,
			"-0.003": 11.9861522537,
			"-0.002": 16.2138157143,
			"-0.001": 18.0873303792,
			"0.0": 15.8530921089,
			"0.001": 15.0348014971,
			"0.002": 21.1056644603,
			"0.003": 22.7323659117,
			"0.004": 15.8608441991,
			"0.005": 7.48268900832,
			"0.006": 3.92414614272,
			"0.007": 3.10301157312,
			"0.008": 3.2694868504,
			"0.009": 2.52307929569,
			"0.01": 1.6769596609,
			"0.011": 0.778303483508,
			"0.012": 1.19341077042,
			"0.013": 0.675999913731,
			"0.014": 0.754000708018,
			"0.015": 0.0,
			"0.016": 0.0,
			"0.017": 0.0,
			"0.018": 0.0,
			"0.019": 0.0,
			"0.02": 0.0,
			"0.021": 0.0,
			"0.022": 0.0,
			"0.023": 0.0,
			"0.024": 0.0,
			"0.025": 0.0
		}
	}
}
