{
	 "smiles": "C1N2CN3CN1CN(C2)C3", 
	 "Tm": 553.15, 
	 "num_atms": 22, 
	 "gaussian": { 
		 "optdone": 1, 
		 "sigma_profile": "yes", 
		 "theory": "DFT", 
		 "functional": "B3LYP", 
		 "basiset": "6-31G**", 
		 "properties": { 
			 "R2extent": 1228.7431, 
			 "electric_dipole_moment_norm": 0.000616441400297, 
			 "electric_quadrupole_moment_norm": 0.00112249721603, 
			 "total_energy": -454.82900614, 
			 "HOMO_LUMO_gap": 0.28882, 
			 "cosmo_polarized_energy": -8.63, 
			 "cosmo_cavitation_energy": 20.95, 
			 "cosmo_dispersion_energy": -17.07, 
			 "cosmo_repulsion_energy": 1.3, 
			 "cosmo_total_nonelectrostatic_energy": 5.18, 
			 "SMD_solvation_energy": -12.58 
		},
		"coords": [
			{
				"x": -1.3018947843,
				"y": -1.035876331,
				"z": 0.2632494074,
				"element": "C" 
			},
			{
				"x": 0.0494703527,
				"y": -1.629064326,
				"z": 0.3096474265,
				"element": "N" 
			},
			{
				"x": 0.4868876785,
				"y": -1.6451641389,
				"z": 1.7197193681,
				"element": "C" 
			},
			{
				"x": 0.497072793,
				"y": -0.3004176425,
				"z": 2.3293486861,
				"element": "N" 
			},
			{
				"x": -0.8674972814,
				"y": 0.2534428202,
				"z": 2.2231411285,
				"element": "C" 
			},
			{
				"x": -1.3462250095,
				"y": 0.3273842508,
				"z": 0.8284031084,
				"element": "N" 
			},
			{
				"x": -0.3947184872,
				"y": 1.1618202589,
				"z": 0.0679197055,
				"element": "C" 
			},
			{
				"x": 0.984359723,
				"y": 0.6359865515,
				"z": 0.1087757133,
				"element": "N" 
			},
			{
				"x": 0.9601662029,
				"y": -0.7365945098,
				"z": -0.4347732424,
				"element": "C" 
			},
			{
				"x": 1.3938741781,
				"y": 0.5532673075,
				"z": 1.524923618,
				"element": "C" 
			},
			{
				"x": -1.9907281021,
				"y": -1.6764778641,
				"z": 0.8252477175,
				"element": "H" 
			},
			{
				"x": -1.6387773433,
				"y": -1.0001515734,
				"z": -0.7788285581,
				"element": "H" 
			},
			{
				"x": 1.4964267159,
				"y": -2.0677230808,
				"z": 1.7742378865,
				"element": "H" 
			},
			{
				"x": -0.1872034849,
				"y": -2.2906051373,
				"z": 2.2939120062,
				"element": "H" 
			},
			{
				"x": -0.877581937,
				"y": 1.2599463667,
				"z": 2.6562116616,
				"element": "H" 
			},
			{
				"x": -1.5529671045,
				"y": -0.3762459959,
				"z": 2.8013406335,
				"element": "H" 
			},
			{
				"x": -0.7240857917,
				"y": 1.2151308086,
				"z": -0.975827176,
				"element": "H" 
			},
			{
				"x": -0.4010365546,
				"y": 2.1761300109,
				"z": 0.4824108567,
				"element": "H" 
			},
			{
				"x": 0.6427897993,
				"y": -0.6985656038,
				"z": -1.4828618206,
				"element": "H" 
			},
			{
				"x": 1.9736287228,
				"y": -1.1516040117,
				"z": -0.3975164863,
				"element": "H" 
			},
			{
				"x": 1.4018272593,
				"y": 1.5623011553,
				"z": 1.9521348849,
				"element": "H" 
			},
			{
				"x": 2.411212455,
				"y": 0.1496806849,
				"z": 1.5779834748,
				"element": "H" 
			}
		],
		 "valence_orbital": [ 
			{
				"type": "occ",
				"energy": -0.35935,
				"method": "rhf"
			},
			{
				"type": "occ",
				"energy": -0.35546,
				"method": "rhf"
			},
			{
				"type": "occ",
				"energy": -0.2163,
				"method": "rhf"
			},
			{
				"type": "occ",
				"energy": -0.21629,
				"method": "rhf"
			},
			{
				"type": "occ",
				"energy": -0.21629,
				"method": "rhf"
			},
			{
				"type": "unocc",
				"energy": 0.07253,
				"method": "rhf"
			},
			{
				"type": "unocc",
				"energy": 0.10753,
				"method": "rhf"
			},
			{
				"type": "unocc",
				"energy": 0.10753,
				"method": "rhf"
			},
			{
				"type": "unocc",
				"energy": 0.10754,
				"method": "rhf"
			},
			{
				"type": "unocc",
				"energy": 0.13937,
				"method": "rhf"
			}
		],
		"cosmo_sigma_profile": { 
			"-0.025": 0.0,
			"-0.024": 0.0,
			"-0.023": 0.0,
			"-0.022": 0.0,
			"-0.021": 0.0,
			"-0.02": 0.0,
			"-0.019": 0.0,
			"-0.018": 0.0,
			"-0.017": 0.0,
			"-0.016": 0.0,
			"-0.015": 0.0,
			"-0.014": 0.0,
			"-0.013": 0.0,
			"-0.012": 0.0,
			"-0.011": 0.0,
			"-0.01": 0.0,
			"-0.009": 0.0,
			"-0.008": 0.0,
			"-0.007": 1.11490653968,
			"-0.006": 8.40818786146,
			"-0.005": 26.4281570471,
			"-0.004": 22.243994803,
			"-0.003": 14.4509046187,
			"-0.002": 18.3038653218,
			"-0.001": 11.239817869,
			"0.0": 8.72591462065,
			"0.001": 6.29473273084,
			"0.002": 5.69846363494,
			"0.003": 3.91942107502,
			"0.004": 2.67013830969,
			"0.005": 2.6261985164,
			"0.006": 3.87245434883,
			"0.007": 4.17652956462,
			"0.008": 2.22824898481,
			"0.009": 2.10035799464,
			"0.01": 2.63387277399,
			"0.011": 3.2074042501,
			"0.012": 2.73468979726,
			"0.013": 1.43369355263,
			"0.014": 1.68389898827,
			"0.015": 2.87405077346,
			"0.016": 1.99345964135,
			"0.017": 0.800258255887,
			"0.018": 0.0,
			"0.019": 0.0,
			"0.02": 0.0,
			"0.021": 0.0,
			"0.022": 0.0,
			"0.023": 0.0,
			"0.024": 0.0,
			"0.025": 0.0
		}
	}
}
