{
	 "smiles": "CN1C(S)=NN=C1C1=CC=NC=C1", 
	 "Tm": 395.15, 
	 "num_atms": 21, 
	 "gaussian": { 
		 "optdone": 1, 
		 "sigma_profile": "yes", 
		 "theory": "DFT", 
		 "functional": "B3LYP", 
		 "basiset": "6-31G**", 
		 "properties": { 
			 "R2extent": 3527.3357, 
			 "electric_dipole_moment_norm": 4.46696446035, 
			 "electric_quadrupole_moment_norm": 4.7690712167, 
			 "total_energy": -926.832019236, 
			 "HOMO_LUMO_gap": 0.17975, 
			 "cosmo_polarized_energy": -17.53, 
			 "cosmo_cavitation_energy": 26.99, 
			 "cosmo_dispersion_energy": -20.46, 
			 "cosmo_repulsion_energy": 1.55, 
			 "cosmo_total_nonelectrostatic_energy": 8.08, 
			 "SMD_solvation_energy": 0.86 
		},
		"coords": [
			{
				"x": 0.2730067711,
				"y": -0.4940756596,
				"z": -1.2748155563,
				"element": "C" 
			},
			{
				"x": -0.0439528319,
				"y": -0.5511096411,
				"z": 0.1470299944,
				"element": "N" 
			},
			{
				"x": -0.8230257868,
				"y": -1.4927079895,
				"z": 0.7676623879,
				"element": "C" 
			},
			{
				"x": -1.7117701671,
				"y": -2.7333854462,
				"z": -0.1214960356,
				"element": "S" 
			},
			{
				"x": -0.8084832394,
				"y": -1.3430075098,
				"z": 2.0740401398,
				"element": "N" 
			},
			{
				"x": 0.0089633767,
				"y": -0.2732155151,
				"z": 2.3413869167,
				"element": "N" 
			},
			{
				"x": 0.4575473982,
				"y": 0.2032091344,
				"z": 1.1970182882,
				"element": "C" 
			},
			{
				"x": 1.3540006946,
				"y": 1.3599300579,
				"z": 1.0948384779,
				"element": "C" 
			},
			{
				"x": 1.3498066236,
				"y": 2.2606500176,
				"z": 0.0194460978,
				"element": "C" 
			},
			{
				"x": 2.2337757458,
				"y": 3.3402645321,
				"z": 0.0408920253,
				"element": "C" 
			},
			{
				"x": 3.0926150439,
				"y": 3.5856279601,
				"z": 1.0359197714,
				"element": "N" 
			},
			{
				"x": 3.0759677427,
				"y": 2.7319069135,
				"z": 2.0704601225,
				"element": "C" 
			},
			{
				"x": 2.2430986543,
				"y": 1.619860698,
				"z": 2.1498088242,
				"element": "C" 
			},
			{
				"x": -0.4594303456,
				"y": 0.1058934339,
				"z": -1.8239040531,
				"element": "H" 
			},
			{
				"x": 0.2771028722,
				"y": -1.5080107746,
				"z": -1.6813981151,
				"element": "H" 
			},
			{
				"x": 1.2648286211,
				"y": -0.0620399024,
				"z": -1.4078328869,
				"element": "H" 
			},
			{
				"x": -2.0651465214,
				"y": -3.3786507985,
				"z": 1.0059487381,
				"element": "H" 
			},
			{
				"x": 0.6562144941,
				"y": 2.1564773373,
				"z": -0.8074587999,
				"element": "H" 
			},
			{
				"x": 2.242722457,
				"y": 4.0474850644,
				"z": -0.7868576644,
				"element": "H" 
			},
			{
				"x": 3.7723662234,
				"y": 2.9468137396,
				"z": 2.8787815409,
				"element": "H" 
			},
			{
				"x": 2.2680921732,
				"y": 0.9587843478,
				"z": 3.008429786,
				"element": "H" 
			}
		],
		 "valence_orbital": [ 
			{
				"type": "occ",
				"energy": -0.29305,
				"method": "rhf"
			},
			{
				"type": "occ",
				"energy": -0.27141,
				"method": "rhf"
			},
			{
				"type": "occ",
				"energy": -0.26466,
				"method": "rhf"
			},
			{
				"type": "occ",
				"energy": -0.25981,
				"method": "rhf"
			},
			{
				"type": "occ",
				"energy": -0.23311,
				"method": "rhf"
			},
			{
				"type": "unocc",
				"energy": -0.05336,
				"method": "rhf"
			},
			{
				"type": "unocc",
				"energy": -0.02094,
				"method": "rhf"
			},
			{
				"type": "unocc",
				"energy": -0.00282,
				"method": "rhf"
			},
			{
				"type": "unocc",
				"energy": 0.01995,
				"method": "rhf"
			},
			{
				"type": "unocc",
				"energy": 0.04637,
				"method": "rhf"
			}
		],
		"cosmo_sigma_profile": { 
			"-0.025": 0.0,
			"-0.024": 0.0,
			"-0.023": 0.0,
			"-0.022": 0.0,
			"-0.021": 0.0,
			"-0.02": 0.0,
			"-0.019": 0.0,
			"-0.018": 0.0,
			"-0.017": 0.0,
			"-0.016": 0.0,
			"-0.015": 0.0,
			"-0.014": 0.0,
			"-0.013": 0.356364905452,
			"-0.012": 1.44511823382,
			"-0.011": 1.30138556957,
			"-0.01": 1.25946608875,
			"-0.009": 2.22530366122,
			"-0.008": 5.05097383698,
			"-0.007": 14.8308252964,
			"-0.006": 19.2921447316,
			"-0.005": 18.2866244411,
			"-0.004": 13.0928386184,
			"-0.003": 11.9509173217,
			"-0.002": 11.5972816108,
			"-0.001": 10.9284874126,
			"0.0": 12.6292537409,
			"0.001": 19.1931327141,
			"0.002": 16.0293596289,
			"0.003": 8.65999264063,
			"0.004": 7.8276982309,
			"0.005": 5.78954252825,
			"0.006": 4.56622014809,
			"0.007": 4.36062460476,
			"0.008": 3.44831758136,
			"0.009": 3.25757155093,
			"0.01": 2.00193080569,
			"0.011": 3.48778349004,
			"0.012": 3.90548117299,
			"0.013": 4.69106507787,
			"0.014": 3.36071871733,
			"0.015": 2.59421306518,
			"0.016": 2.07819845918,
			"0.017": 0.126223317592,
			"0.018": 0.0,
			"0.019": 0.0,
			"0.02": 0.0,
			"0.021": 0.0,
			"0.022": 0.0,
			"0.023": 0.0,
			"0.024": 0.0,
			"0.025": 0.0
		}
	}
}
