{
	 "smiles": "NS(=O)(=O)C1=CC2=C(NC(=O)CC2)C=C1", 
	 "Tm": 537.15, 
	 "num_atms": 25, 
	 "gaussian": { 
		 "optdone": 1, 
		 "sigma_profile": "yes", 
		 "theory": "DFT", 
		 "functional": "B3LYP", 
		 "basiset": "6-31G**", 
		 "properties": { 
			 "R2extent": 4604.7508, 
			 "electric_dipole_moment_norm": 2.86306716827, 
			 "electric_quadrupole_moment_norm": 24.1270145196, 
			 "total_energy": -1082.3094537, 
			 "HOMO_LUMO_gap": 0.19425, 
			 "cosmo_polarized_energy": -22.45, 
			 "cosmo_cavitation_energy": 30.19, 
			 "cosmo_dispersion_energy": -22.95, 
			 "cosmo_repulsion_energy": 1.75, 
			 "cosmo_total_nonelectrostatic_energy": 9.0, 
			 "SMD_solvation_energy": 4.95 
		},
		"coords": [
			{
				"x": -1.3091681894,
				"y": -2.3606381963,
				"z": 1.8696000203,
				"element": "N" 
			},
			{
				"x": -1.5034036989,
				"y": -2.073506687,
				"z": 0.2066924782,
				"element": "S" 
			},
			{
				"x": -2.9210422271,
				"y": -2.2383120802,
				"z": -0.1331975687,
				"element": "O" 
			},
			{
				"x": -0.4482523032,
				"y": -2.8522204901,
				"z": -0.4489172272,
				"element": "O" 
			},
			{
				"x": -1.1101976117,
				"y": -0.3400557661,
				"z": 0.0374443961,
				"element": "C" 
			},
			{
				"x": 0.2290912099,
				"y": 0.0581959648,
				"z": -0.0096870846,
				"element": "C" 
			},
			{
				"x": 0.5567469827,
				"y": 1.4028607849,
				"z": -0.1421865791,
				"element": "C" 
			},
			{
				"x": -0.486241437,
				"y": 2.3474760184,
				"z": -0.25065447,
				"element": "C" 
			},
			{
				"x": -0.1590830334,
				"y": 3.700116523,
				"z": -0.3939467985,
				"element": "N" 
			},
			{
				"x": 1.0754093558,
				"y": 4.1999261478,
				"z": -0.7844181484,
				"element": "C" 
			},
			{
				"x": 1.2518843256,
				"y": 5.3968385853,
				"z": -0.9272163415,
				"element": "O" 
			},
			{
				"x": 2.129225672,
				"y": 3.1371326396,
				"z": -1.0529326462,
				"element": "C" 
			},
			{
				"x": 1.9789435163,
				"y": 1.9136911192,
				"z": -0.1372079275,
				"element": "C" 
			},
			{
				"x": -1.8258491833,
				"y": 1.9409265553,
				"z": -0.2089523257,
				"element": "C" 
			},
			{
				"x": -2.1413996194,
				"y": 0.5934632728,
				"z": -0.0615756627,
				"element": "C" 
			},
			{
				"x": -0.7707838842,
				"y": -3.2164788715,
				"z": 1.9815392662,
				"element": "H" 
			},
			{
				"x": -2.2203368793,
				"y": -2.444028598,
				"z": 2.3138153473,
				"element": "H" 
			},
			{
				"x": 1.0148569603,
				"y": -0.6881094497,
				"z": 0.0525272595,
				"element": "H" 
			},
			{
				"x": -0.8917095417,
				"y": 4.3951728231,
				"z": -0.3221497818,
				"element": "H" 
			},
			{
				"x": 3.1076560706,
				"y": 3.6106841596,
				"z": -0.9527622078,
				"element": "H" 
			},
			{
				"x": 2.0186666866,
				"y": 2.8355919673,
				"z": -2.1035559392,
				"element": "H" 
			},
			{
				"x": 2.2543773687,
				"y": 2.1975680369,
				"z": 0.888801602,
				"element": "H" 
			},
			{
				"x": 2.6723548828,
				"y": 1.1227293152,
				"z": -0.43807794,
				"element": "H" 
			},
			{
				"x": -2.6172911103,
				"y": 2.6787817004,
				"z": -0.3067275564,
				"element": "H" 
			},
			{
				"x": -3.1732543124,
				"y": 0.2612945253,
				"z": -0.0486541644,
				"element": "H" 
			}
		],
		 "valence_orbital": [ 
			{
				"type": "occ",
				"energy": -0.30544,
				"method": "rhf"
			},
			{
				"type": "occ",
				"energy": -0.2914,
				"method": "rhf"
			},
			{
				"type": "occ",
				"energy": -0.27207,
				"method": "rhf"
			},
			{
				"type": "occ",
				"energy": -0.2659,
				"method": "rhf"
			},
			{
				"type": "occ",
				"energy": -0.23719,
				"method": "rhf"
			},
			{
				"type": "unocc",
				"energy": -0.04294,
				"method": "rhf"
			},
			{
				"type": "unocc",
				"energy": -0.02794,
				"method": "rhf"
			},
			{
				"type": "unocc",
				"energy": 0.01507,
				"method": "rhf"
			},
			{
				"type": "unocc",
				"energy": 0.05248,
				"method": "rhf"
			},
			{
				"type": "unocc",
				"energy": 0.07528,
				"method": "rhf"
			}
		],
		"cosmo_sigma_profile": { 
			"-0.025": 0.0,
			"-0.024": 0.0,
			"-0.023": 0.0,
			"-0.022": 0.0,
			"-0.021": 0.0,
			"-0.02": 0.0,
			"-0.019": 0.0,
			"-0.018": 0.0,
			"-0.017": 0.0,
			"-0.016": 0.0,
			"-0.015": 1.66495447887,
			"-0.014": 3.89781435307,
			"-0.013": 3.86873688876,
			"-0.012": 3.75196681126,
			"-0.011": 3.41156172708,
			"-0.01": 3.07334000917,
			"-0.009": 3.19175201208,
			"-0.008": 3.67564081314,
			"-0.007": 7.83425476826,
			"-0.006": 13.7396134389,
			"-0.005": 17.6516550328,
			"-0.004": 16.2949064242,
			"-0.003": 17.2567079068,
			"-0.002": 14.547584097,
			"-0.001": 11.2011607223,
			"0.0": 11.1512056925,
			"0.001": 11.8344818531,
			"0.002": 14.2473940664,
			"0.003": 11.8663611463,
			"0.004": 5.14252150347,
			"0.005": 4.20991326407,
			"0.006": 5.00755056547,
			"0.007": 4.78956327239,
			"0.008": 4.69213114561,
			"0.009": 5.67566724262,
			"0.01": 8.74858186678,
			"0.011": 11.5327471174,
			"0.012": 8.75942380718,
			"0.013": 5.4793648709,
			"0.014": 1.45271503288,
			"0.015": 0.0345456533486,
			"0.016": 0.0,
			"0.017": 0.0,
			"0.018": 0.0,
			"0.019": 0.0,
			"0.02": 0.0,
			"0.021": 0.0,
			"0.022": 0.0,
			"0.023": 0.0,
			"0.024": 0.0,
			"0.025": 0.0
		}
	}
}
