{
	 "smiles": "NC1=C(Br)C=C(Cl)C=N1", 
	 "Tm": 357.15, 
	 "num_atms": 13, 
	 "gaussian": { 
		 "optdone": 1, 
		 "sigma_profile": "yes", 
		 "theory": "DFT", 
		 "functional": "B3LYP", 
		 "basiset": "6-31G**", 
		 "properties": { 
			 "R2extent": 4782.9701, 
			 "electric_dipole_moment_norm": 1.8638706071, 
			 "electric_quadrupole_moment_norm": 1.27870078986, 
			 "total_energy": -3334.02605475, 
			 "HOMO_LUMO_gap": 0.2122, 
			 "cosmo_polarized_energy": -9.8, 
			 "cosmo_cavitation_energy": 21.62, 
			 "cosmo_dispersion_energy": -16.69, 
			 "cosmo_repulsion_energy": 1.37, 
			 "cosmo_total_nonelectrostatic_energy": 6.3, 
			 "SMD_solvation_energy": 0.84 
		},
		"coords": [
			{
				"x": 0.0065886215,
				"y": 0.5004265493,
				"z": 0.1081645093,
				"element": "N" 
			},
			{
				"x": -0.6877803072,
				"y": 0.3620126314,
				"z": -1.1291107185,
				"element": "C" 
			},
			{
				"x": -2.059891888,
				"y": 0.0519367899,
				"z": -1.2261111406,
				"element": "C" 
			},
			{
				"x": -3.1050419253,
				"y": -0.2099477994,
				"z": 0.3521220268,
				"element": "Br" 
			},
			{
				"x": -2.6784950005,
				"y": -0.0692839782,
				"z": -2.4656624557,
				"element": "C" 
			},
			{
				"x": -1.8905801885,
				"y": 0.1272283215,
				"z": -3.5970109001,
				"element": "C" 
			},
			{
				"x": -2.5888412213,
				"y": -0.0065402519,
				"z": -5.1950778041,
				"element": "Cl" 
			},
			{
				"x": -0.5382088282,
				"y": 0.431906491,
				"z": -3.4394555673,
				"element": "C" 
			},
			{
				"x": 0.033211254,
				"y": 0.5430258594,
				"z": -2.2397954298,
				"element": "N" 
			},
			{
				"x": -0.4314661788,
				"y": 1.2244965525,
				"z": 0.6741387588,
				"element": "H" 
			},
			{
				"x": -0.0721582974,
				"y": -0.3581832559,
				"z": 0.6495428307,
				"element": "H" 
			},
			{
				"x": -3.7319363078,
				"y": -0.3072212354,
				"z": -2.5488644105,
				"element": "H" 
			},
			{
				"x": 0.0956002674,
				"y": 0.5893433258,
				"z": -4.308579699,
				"element": "H" 
			}
		],
		 "valence_orbital": [ 
			{
				"type": "occ",
				"energy": -0.31287,
				"method": "rhf"
			},
			{
				"type": "occ",
				"energy": -0.28735,
				"method": "rhf"
			},
			{
				"type": "occ",
				"energy": -0.27436,
				"method": "rhf"
			},
			{
				"type": "occ",
				"energy": -0.26691,
				"method": "rhf"
			},
			{
				"type": "occ",
				"energy": -0.26032,
				"method": "rhf"
			},
			{
				"type": "unocc",
				"energy": -0.04812,
				"method": "rhf"
			},
			{
				"type": "unocc",
				"energy": -0.03719,
				"method": "rhf"
			},
			{
				"type": "unocc",
				"energy": -0.01823,
				"method": "rhf"
			},
			{
				"type": "unocc",
				"energy": 0.02953,
				"method": "rhf"
			},
			{
				"type": "unocc",
				"energy": 0.08476,
				"method": "rhf"
			}
		],
		"cosmo_sigma_profile": { 
			"-0.025": 0.0,
			"-0.024": 0.0,
			"-0.023": 0.0,
			"-0.022": 0.0,
			"-0.021": 0.0,
			"-0.02": 0.0,
			"-0.019": 0.0,
			"-0.018": 0.0,
			"-0.017": 0.0,
			"-0.016": 0.0,
			"-0.015": 0.0,
			"-0.014": 0.0,
			"-0.013": 0.0,
			"-0.012": 0.70485063,
			"-0.011": 2.43247348049,
			"-0.01": 3.10069767093,
			"-0.009": 3.88357816092,
			"-0.008": 5.9192128317,
			"-0.007": 5.33890984842,
			"-0.006": 5.40143176277,
			"-0.005": 7.66004704991,
			"-0.004": 8.06263139168,
			"-0.003": 8.26593825102,
			"-0.002": 14.7635229384,
			"-0.001": 20.6351257202,
			"0.0": 17.3997217805,
			"0.001": 12.2823185855,
			"0.002": 12.7286435479,
			"0.003": 18.8262335031,
			"0.004": 12.5261684632,
			"0.005": 1.74151646377,
			"0.006": 2.04824417,
			"0.007": 1.22579380436,
			"0.008": 0.778005582451,
			"0.009": 1.2424659053,
			"0.01": 1.0347237991,
			"0.011": 1.52399838856,
			"0.012": 1.80223110471,
			"0.013": 1.02292509247,
			"0.014": 1.1954156905,
			"0.015": 1.26890698406,
			"0.016": 1.52669181822,
			"0.017": 1.44918314081,
			"0.018": 0.908018024215,
			"0.019": 0.334732359826,
			"0.02": 0.0,
			"0.021": 0.0,
			"0.022": 0.0,
			"0.023": 0.0,
			"0.024": 0.0,
			"0.025": 0.0
		}
	}
}
