{
	 "smiles": "CC(C)CNC(=O)N1CCCC(C1)C(O)=O", 
	 "Tm": 380.15, 
	 "num_atms": 36, 
	 "gaussian": { 
		 "optdone": 1, 
		 "sigma_profile": "yes", 
		 "theory": "DFT", 
		 "functional": "B3LYP", 
		 "basiset": "6-31G**", 
		 "properties": { 
			 "R2extent": 4652.679, 
			 "electric_dipole_moment_norm": 3.90201619935, 
			 "electric_quadrupole_moment_norm": 11.5034124707, 
			 "total_energy": -766.442555296, 
			 "HOMO_LUMO_gap": 0.22952, 
			 "cosmo_polarized_energy": -16.83, 
			 "cosmo_cavitation_energy": 37.0, 
			 "cosmo_dispersion_energy": -25.38, 
			 "cosmo_repulsion_energy": 2.03, 
			 "cosmo_total_nonelectrostatic_energy": 13.65, 
			 "SMD_solvation_energy": 6.59 
		},
		"coords": [
			{
				"x": 2.8636071325,
				"y": -0.1948358082,
				"z": -3.097810846,
				"element": "C" 
			},
			{
				"x": 2.2095010002,
				"y": 0.9347882371,
				"z": -2.2899272089,
				"element": "C" 
			},
			{
				"x": 2.6656555881,
				"y": 2.3124548146,
				"z": -2.7896972192,
				"element": "C" 
			},
			{
				"x": 0.6787410562,
				"y": 0.7907251095,
				"z": -2.3323502105,
				"element": "C" 
			},
			{
				"x": -0.0233562088,
				"y": 1.8021245054,
				"z": -1.528065215,
				"element": "N" 
			},
			{
				"x": -1.2403206243,
				"y": 1.5451176374,
				"z": -0.8829965442,
				"element": "C" 
			},
			{
				"x": -2.2013613855,
				"y": 2.3006322291,
				"z": -1.0029757861,
				"element": "O" 
			},
			{
				"x": -1.2953551293,
				"y": 0.4133983599,
				"z": -0.0886968855,
				"element": "N" 
			},
			{
				"x": -2.6100877172,
				"y": 0.1247166622,
				"z": 0.5074857618,
				"element": "C" 
			},
			{
				"x": -2.5671809725,
				"y": -1.2259132918,
				"z": 1.2203144752,
				"element": "C" 
			},
			{
				"x": -1.548941097,
				"y": -1.2330844635,
				"z": 2.3820473363,
				"element": "C" 
			},
			{
				"x": -0.3687123616,
				"y": -0.2602755092,
				"z": 2.0998072883,
				"element": "C" 
			},
			{
				"x": -0.1143537489,
				"y": -0.1441854398,
				"z": 0.5803232109,
				"element": "C" 
			},
			{
				"x": 0.8837956178,
				"y": -0.6747290363,
				"z": 2.8443397229,
				"element": "C" 
			},
			{
				"x": 1.4111026058,
				"y": -1.8287158298,
				"z": 2.3547021475,
				"element": "O" 
			},
			{
				"x": 1.3839940632,
				"y": -0.0808792532,
				"z": 3.7732488722,
				"element": "O" 
			},
			{
				"x": 3.9554044521,
				"y": -0.1304927653,
				"z": -3.0505429603,
				"element": "H" 
			},
			{
				"x": 2.5755534183,
				"y": -0.1415680357,
				"z": -4.1548259778,
				"element": "H" 
			},
			{
				"x": 2.5703056713,
				"y": -1.1815477545,
				"z": -2.7220588953,
				"element": "H" 
			},
			{
				"x": 2.5198653173,
				"y": 0.8364051892,
				"z": -1.2400641534,
				"element": "H" 
			},
			{
				"x": 2.3594168207,
				"y": 2.4742392853,
				"z": -3.8312167996,
				"element": "H" 
			},
			{
				"x": 2.2454874274,
				"y": 3.1187069412,
				"z": -2.1803734585,
				"element": "H" 
			},
			{
				"x": 3.7560525593,
				"y": 2.4029026382,
				"z": -2.748614346,
				"element": "H" 
			},
			{
				"x": 0.3430965547,
				"y": 0.8450026213,
				"z": -3.3805294133,
				"element": "H" 
			},
			{
				"x": 0.3912136456,
				"y": -0.1993244197,
				"z": -1.9713219867,
				"element": "H" 
			},
			{
				"x": -0.1278992204,
				"y": 2.6858416576,
				"z": -2.0119886012,
				"element": "H" 
			},
			{
				"x": -3.3545804831,
				"y": 0.1283720491,
				"z": -0.2921065481,
				"element": "H" 
			},
			{
				"x": -2.9023301358,
				"y": 0.9235865329,
				"z": 1.2040743003,
				"element": "H" 
			},
			{
				"x": -3.566893313,
				"y": -1.4705693619,
				"z": 1.5929142174,
				"element": "H" 
			},
			{
				"x": -2.3078315542,
				"y": -2.0007607276,
				"z": 0.4892529214,
				"element": "H" 
			},
			{
				"x": -2.0311003354,
				"y": -0.9343660573,
				"z": 3.3185946372,
				"element": "H" 
			},
			{
				"x": -1.1663442427,
				"y": -2.2476926605,
				"z": 2.5292048943,
				"element": "H" 
			},
			{
				"x": -0.6156481512,
				"y": 0.7348821206,
				"z": 2.4791392103,
				"element": "H" 
			},
			{
				"x": 0.729698045,
				"y": 0.5223831064,
				"z": 0.3925927889,
				"element": "H" 
			},
			{
				"x": 0.1475849085,
				"y": -1.1336561933,
				"z": 0.1838030249,
				"element": "H" 
			},
			{
				"x": 2.1969207972,
				"y": -2.0146830895,
				"z": 2.8959182459,
				"element": "H" 
			}
		],
		 "valence_orbital": [ 
			{
				"type": "occ",
				"energy": -0.32207,
				"method": "rhf"
			},
			{
				"type": "occ",
				"energy": -0.27951,
				"method": "rhf"
			},
			{
				"type": "occ",
				"energy": -0.26422,
				"method": "rhf"
			},
			{
				"type": "occ",
				"energy": -0.23518,
				"method": "rhf"
			},
			{
				"type": "occ",
				"energy": -0.22978,
				"method": "rhf"
			},
			{
				"type": "unocc",
				"energy": -0.00026,
				"method": "rhf"
			},
			{
				"type": "unocc",
				"energy": 0.04784,
				"method": "rhf"
			},
			{
				"type": "unocc",
				"energy": 0.06048,
				"method": "rhf"
			},
			{
				"type": "unocc",
				"energy": 0.07797,
				"method": "rhf"
			},
			{
				"type": "unocc",
				"energy": 0.09198,
				"method": "rhf"
			}
		],
		"cosmo_sigma_profile": { 
			"-0.025": 0.0,
			"-0.024": 0.0,
			"-0.023": 0.0,
			"-0.022": 0.0,
			"-0.021": 0.0,
			"-0.02": 0.0,
			"-0.019": 0.0,
			"-0.018": 0.615057423743,
			"-0.017": 1.2234545554,
			"-0.016": 0.619684961092,
			"-0.015": 0.567982718849,
			"-0.014": 1.05457385061,
			"-0.013": 0.725921147074,
			"-0.012": 0.347523198312,
			"-0.011": 1.48326880784,
			"-0.01": 1.72936097367,
			"-0.009": 1.02552935281,
			"-0.008": 1.50670660415,
			"-0.007": 3.11498944958,
			"-0.006": 3.39829759579,
			"-0.005": 9.31723351425,
			"-0.004": 25.8270926932,
			"-0.003": 40.2326284658,
			"-0.002": 40.4619342065,
			"-0.001": 34.0923592265,
			"0.0": 23.8199145134,
			"0.001": 23.8498256051,
			"0.002": 11.8785640496,
			"0.003": 6.23376343693,
			"0.004": 5.7033238386,
			"0.005": 5.39187670961,
			"0.006": 3.97024111992,
			"0.007": 3.77992921492,
			"0.008": 4.58843291488,
			"0.009": 3.25986786246,
			"0.01": 3.33832178297,
			"0.011": 5.41841956632,
			"0.012": 6.03297413488,
			"0.013": 2.58287300293,
			"0.014": 4.67293333887,
			"0.015": 4.18408343769,
			"0.016": 0.0840272968405,
			"0.017": 0.0,
			"0.018": 0.0,
			"0.019": 0.0,
			"0.02": 0.0,
			"0.021": 0.0,
			"0.022": 0.0,
			"0.023": 0.0,
			"0.024": 0.0,
			"0.025": 0.0
		}
	}
}
