{
	 "smiles": "COC(=O)C1CCCC2=C1NC1=CC=C(OC)C=C21", 
	 "Tm": 365.15, 
	 "num_atms": 36, 
	 "gaussian": { 
		 "optdone": 1, 
		 "sigma_profile": "yes", 
		 "theory": "DFT", 
		 "functional": "B3LYP", 
		 "basiset": "6-31G**", 
		 "properties": { 
			 "R2extent": 6839.5888, 
			 "electric_dipole_moment_norm": 3.79373186717, 
			 "electric_quadrupole_moment_norm": 12.1894092896, 
			 "total_energy": -862.283358121, 
			 "HOMO_LUMO_gap": 0.18101, 
			 "cosmo_polarized_energy": -11.54, 
			 "cosmo_cavitation_energy": 37.95, 
			 "cosmo_dispersion_energy": -27.82, 
			 "cosmo_repulsion_energy": 2.15, 
			 "cosmo_total_nonelectrostatic_energy": 12.27, 
			 "SMD_solvation_energy": 7.33 
		},
		"coords": [
			{
				"x": -0.2502926091,
				"y": 4.3007320099,
				"z": 2.3906902578,
				"element": "C" 
			},
			{
				"x": -0.0081365515,
				"y": 3.5091186819,
				"z": 1.2127177593,
				"element": "O" 
			},
			{
				"x": 0.3992688412,
				"y": 2.2474079608,
				"z": 1.4349570465,
				"element": "C" 
			},
			{
				"x": 0.5562640358,
				"y": 1.7930806601,
				"z": 2.5537669883,
				"element": "O" 
			},
			{
				"x": 0.7070918931,
				"y": 1.4939818988,
				"z": 0.1422911158,
				"element": "C" 
			},
			{
				"x": 0.0178769652,
				"y": 2.0611767959,
				"z": -1.1189688693,
				"element": "C" 
			},
			{
				"x": 0.2554413281,
				"y": 1.1558991751,
				"z": -2.3389450623,
				"element": "C" 
			},
			{
				"x": -0.3608744532,
				"y": -0.2440033234,
				"z": -2.1518094064,
				"element": "C" 
			},
			{
				"x": -0.0487475782,
				"y": -0.771649765,
				"z": -0.7808667247,
				"element": "C" 
			},
			{
				"x": 0.413679022,
				"y": 0.021353663,
				"z": 0.2456214453,
				"element": "C" 
			},
			{
				"x": 0.6370439244,
				"y": -0.7443793139,
				"z": 1.3718291481,
				"element": "N" 
			},
			{
				"x": 0.2728756541,
				"y": -2.0498221746,
				"z": 1.0985310285,
				"element": "C" 
			},
			{
				"x": 0.2820811448,
				"y": -3.1891907782,
				"z": 1.9112169104,
				"element": "C" 
			},
			{
				"x": -0.1297798385,
				"y": -4.3895865283,
				"z": 1.3539779647,
				"element": "C" 
			},
			{
				"x": -0.5456457407,
				"y": -4.4666192939,
				"z": 0.0030400332,
				"element": "C" 
			},
			{
				"x": -0.9196624447,
				"y": -5.7241335088,
				"z": -0.4050458538,
				"element": "O" 
			},
			{
				"x": -1.349916425,
				"y": -5.8832828942,
				"z": -1.7424432906,
				"element": "C" 
			},
			{
				"x": -0.5603075424,
				"y": -3.3370791797,
				"z": -0.8094736714,
				"element": "C" 
			},
			{
				"x": -0.1504230896,
				"y": -2.1065977035,
				"z": -0.2561876852,
				"element": "C" 
			},
			{
				"x": -0.5598802677,
				"y": 5.2797040886,
				"z": 2.0260724333,
				"element": "H" 
			},
			{
				"x": 0.6588049818,
				"y": 4.381695857,
				"z": 2.991227132,
				"element": "H" 
			},
			{
				"x": -1.0372144985,
				"y": 3.8492146908,
				"z": 2.9991371598,
				"element": "H" 
			},
			{
				"x": 1.7974581921,
				"y": 1.6284736837,
				"z": 0.0236317829,
				"element": "H" 
			},
			{
				"x": 0.3872856884,
				"y": 3.0719720293,
				"z": -1.3116814894,
				"element": "H" 
			},
			{
				"x": -1.0588151948,
				"y": 2.1486676442,
				"z": -0.9298204063,
				"element": "H" 
			},
			{
				"x": -0.1571229283,
				"y": 1.6331487755,
				"z": -3.2348496532,
				"element": "H" 
			},
			{
				"x": 1.3365539237,
				"y": 1.0565193784,
				"z": -2.5051920014,
				"element": "H" 
			},
			{
				"x": -1.449680454,
				"y": -0.1902078167,
				"z": -2.3045947728,
				"element": "H" 
			},
			{
				"x": 0.0165074647,
				"y": -0.9226757464,
				"z": -2.9279499221,
				"element": "H" 
			},
			{
				"x": 0.8136440753,
				"y": -0.3310672941,
				"z": 2.276012436,
				"element": "H" 
			},
			{
				"x": 0.6027104099,
				"y": -3.1419829723,
				"z": 2.9480740513,
				"element": "H" 
			},
			{
				"x": -0.1410467346,
				"y": -5.3027397528,
				"z": 1.9395675179,
				"element": "H" 
			},
			{
				"x": -1.5965843371,
				"y": -6.9402440283,
				"z": -1.8605351999,
				"element": "H" 
			},
			{
				"x": -0.5615924607,
				"y": -5.6158705214,
				"z": -2.4597235115,
				"element": "H" 
			},
			{
				"x": -2.242148598,
				"y": -5.2796149715,
				"z": -1.9591488667,
				"element": "H" 
			},
			{
				"x": -0.8811157977,
				"y": -3.387299426,
				"z": -1.8434258243,
				"element": "H" 
			}
		],
		 "valence_orbital": [ 
			{
				"type": "occ",
				"energy": -0.28315,
				"method": "rhf"
			},
			{
				"type": "occ",
				"energy": -0.27865,
				"method": "rhf"
			},
			{
				"type": "occ",
				"energy": -0.25692,
				"method": "rhf"
			},
			{
				"type": "occ",
				"energy": -0.18826,
				"method": "rhf"
			},
			{
				"type": "occ",
				"energy": -0.18432,
				"method": "rhf"
			},
			{
				"type": "unocc",
				"energy": -0.00331,
				"method": "rhf"
			},
			{
				"type": "unocc",
				"energy": 0.00508,
				"method": "rhf"
			},
			{
				"type": "unocc",
				"energy": 0.04901,
				"method": "rhf"
			},
			{
				"type": "unocc",
				"energy": 0.07232,
				"method": "rhf"
			},
			{
				"type": "unocc",
				"energy": 0.09243,
				"method": "rhf"
			}
		],
		"cosmo_sigma_profile": { 
			"-0.025": 0.0,
			"-0.024": 0.0,
			"-0.023": 0.0,
			"-0.022": 0.0,
			"-0.021": 0.0,
			"-0.02": 0.0,
			"-0.019": 0.0,
			"-0.018": 0.0,
			"-0.017": 0.0,
			"-0.016": 0.0,
			"-0.015": 0.0,
			"-0.014": 0.0,
			"-0.013": 0.0,
			"-0.012": 0.149577917787,
			"-0.011": 0.558976109712,
			"-0.01": 0.887777944472,
			"-0.009": 0.560785698161,
			"-0.008": 1.40451127909,
			"-0.007": 4.72817499419,
			"-0.006": 12.1821033366,
			"-0.005": 19.4283529688,
			"-0.004": 27.4782590202,
			"-0.003": 37.0938889647,
			"-0.002": 31.4783126847,
			"-0.001": 27.6823991386,
			"0.0": 21.9108890718,
			"0.001": 16.6480255731,
			"0.002": 10.3786296928,
			"0.003": 10.9441685817,
			"0.004": 12.4961744657,
			"0.005": 16.1954197752,
			"0.006": 19.9951567025,
			"0.007": 13.3999603791,
			"0.008": 2.27650141811,
			"0.009": 3.7447650804,
			"0.01": 3.31020660536,
			"0.011": 3.53996218403,
			"0.012": 0.753503534082,
			"0.013": 0.0,
			"0.014": 0.0,
			"0.015": 0.0,
			"0.016": 0.0,
			"0.017": 0.0,
			"0.018": 0.0,
			"0.019": 0.0,
			"0.02": 0.0,
			"0.021": 0.0,
			"0.022": 0.0,
			"0.023": 0.0,
			"0.024": 0.0,
			"0.025": 0.0
		}
	}
}
