{
	 "smiles": "CC1CCC(N)(CC1)C(O)=O", 
	 "Tm": 474.15, 
	 "num_atms": 26, 
	 "gaussian": { 
		 "optdone": 1, 
		 "sigma_profile": "yes", 
		 "theory": "DFT", 
		 "functional": "B3LYP", 
		 "basiset": "6-31G**", 
		 "properties": { 
			 "R2extent": 1919.3185, 
			 "electric_dipole_moment_norm": 1.2626042056, 
			 "electric_quadrupole_moment_norm": 9.1921376268, 
			 "total_energy": -519.11534609, 
			 "HOMO_LUMO_gap": 0.24319, 
			 "cosmo_polarized_energy": -10.28, 
			 "cosmo_cavitation_energy": 26.61, 
			 "cosmo_dispersion_energy": -19.24, 
			 "cosmo_repulsion_energy": 1.55, 
			 "cosmo_total_nonelectrostatic_energy": 8.92, 
			 "SMD_solvation_energy": 4.41 
		},
		"coords": [
			{
				"x": -0.1428589307,
				"y": -3.2118193669,
				"z": 0.1309810955,
				"element": "C" 
			},
			{
				"x": -1.0187318797,
				"y": -1.9765088206,
				"z": -0.1156664248,
				"element": "C" 
			},
			{
				"x": -0.8166855022,
				"y": -0.9215664827,
				"z": 0.9995845816,
				"element": "C" 
			},
			{
				"x": -1.2239082974,
				"y": 0.4819504698,
				"z": 0.5369682234,
				"element": "C" 
			},
			{
				"x": -0.3346070509,
				"y": 0.9950263119,
				"z": -0.6230839177,
				"element": "C" 
			},
			{
				"x": -1.1617718929,
				"y": 1.8155493358,
				"z": -1.5249965953,
				"element": "N" 
			},
			{
				"x": 0.2463381532,
				"y": -0.196619285,
				"z": -1.4414429212,
				"element": "C" 
			},
			{
				"x": -0.7641778888,
				"y": -1.3454546954,
				"z": -1.5128011486,
				"element": "C" 
			},
			{
				"x": 0.8465420384,
				"y": 1.8009480356,
				"z": -0.0589029257,
				"element": "C" 
			},
			{
				"x": 1.5710769706,
				"y": 2.3820740251,
				"z": -1.054503806,
				"element": "O" 
			},
			{
				"x": 1.1474489309,
				"y": 1.9383955393,
				"z": 1.107541793,
				"element": "O" 
			},
			{
				"x": 0.9225182092,
				"y": -2.9631366204,
				"z": 0.0489168196,
				"element": "H" 
			},
			{
				"x": -0.356581083,
				"y": -4.0044152957,
				"z": -0.5945586212,
				"element": "H" 
			},
			{
				"x": -0.3068253749,
				"y": -3.6221969515,
				"z": 1.1339094994,
				"element": "H" 
			},
			{
				"x": -2.0682934005,
				"y": -2.2994016107,
				"z": -0.0850718233,
				"element": "H" 
			},
			{
				"x": 0.2356874446,
				"y": -0.8994398418,
				"z": 1.3112442646,
				"element": "H" 
			},
			{
				"x": -1.3879596568,
				"y": -1.206031367,
				"z": 1.8904314019,
				"element": "H" 
			},
			{
				"x": -2.2565656774,
				"y": 0.4601634689,
				"z": 0.1703498244,
				"element": "H" 
			},
			{
				"x": -1.1797528138,
				"y": 1.1879988278,
				"z": 1.3707574534,
				"element": "H" 
			},
			{
				"x": -0.5663432556,
				"y": 2.2987493617,
				"z": -2.1938695514,
				"element": "H" 
			},
			{
				"x": -1.6482154965,
				"y": 2.534083889,
				"z": -0.9920742209,
				"element": "H" 
			},
			{
				"x": 0.5133755392,
				"y": 0.1612726522,
				"z": -2.4409825513,
				"element": "H" 
			},
			{
				"x": 1.1775622821,
				"y": -0.5477202017,
				"z": -0.9791160791,
				"element": "H" 
			},
			{
				"x": -0.4141197952,
				"y": -2.111675576,
				"z": -2.2145032928,
				"element": "H" 
			},
			{
				"x": -1.6971684299,
				"y": -0.9467269256,
				"z": -1.9256942258,
				"element": "H" 
			},
			{
				"x": 2.2948168579,
				"y": 2.8595011239,
				"z": -0.6157168516,
				"element": "H" 
			}
		],
		 "valence_orbital": [ 
			{
				"type": "occ",
				"energy": -0.30426,
				"method": "rhf"
			},
			{
				"type": "occ",
				"energy": -0.30195,
				"method": "rhf"
			},
			{
				"type": "occ",
				"energy": -0.29656,
				"method": "rhf"
			},
			{
				"type": "occ",
				"energy": -0.29068,
				"method": "rhf"
			},
			{
				"type": "occ",
				"energy": -0.23526,
				"method": "rhf"
			},
			{
				"type": "unocc",
				"energy": 0.00793,
				"method": "rhf"
			},
			{
				"type": "unocc",
				"energy": 0.06758,
				"method": "rhf"
			},
			{
				"type": "unocc",
				"energy": 0.08702,
				"method": "rhf"
			},
			{
				"type": "unocc",
				"energy": 0.10603,
				"method": "rhf"
			},
			{
				"type": "unocc",
				"energy": 0.10871,
				"method": "rhf"
			}
		],
		"cosmo_sigma_profile": { 
			"-0.025": 0.0,
			"-0.024": 0.0,
			"-0.023": 0.0,
			"-0.022": 0.0,
			"-0.021": 0.0,
			"-0.02": 0.0,
			"-0.019": 0.0,
			"-0.018": 0.517282000753,
			"-0.017": 1.00679813444,
			"-0.016": 0.627592267374,
			"-0.015": 1.22483385089,
			"-0.014": 0.486841247668,
			"-0.013": 0.520477235106,
			"-0.012": 0.484810601624,
			"-0.011": 0.984600409329,
			"-0.01": 2.07040136969,
			"-0.009": 2.34436918687,
			"-0.008": 3.67522275892,
			"-0.007": 3.7021000867,
			"-0.006": 3.380296673,
			"-0.005": 3.5900207498,
			"-0.004": 5.80421491255,
			"-0.003": 12.8565453198,
			"-0.002": 25.431546272,
			"-0.001": 31.711633078,
			"0.0": 29.1204027923,
			"0.001": 21.7119438393,
			"0.002": 12.4020950737,
			"0.003": 5.12290263722,
			"0.004": 4.19220009602,
			"0.005": 4.10587318644,
			"0.006": 3.61633484667,
			"0.007": 3.09600347367,
			"0.008": 3.49941079309,
			"0.009": 2.40937320641,
			"0.01": 3.07386765666,
			"0.011": 3.84999015523,
			"0.012": 4.91074028353,
			"0.013": 0.744660840851,
			"0.014": 0.41880094566,
			"0.015": 0.766332736654,
			"0.016": 0.591591257606,
			"0.017": 0.331325587538,
			"0.018": 0.00632697893872,
			"0.019": 0.0,
			"0.02": 0.0,
			"0.021": 0.0,
			"0.022": 0.0,
			"0.023": 0.0,
			"0.024": 0.0,
			"0.025": 0.0
		}
	}
}
