{
	 "smiles": "COC1=CC=C(OC)C(C=NN2C(S)=NN=C2C(F)(F)F)=C1", 
	 "Tm": 418.15, 
	 "num_atms": 33, 
	 "gaussian": { 
		 "optdone": 1, 
		 "sigma_profile": "yes", 
		 "theory": "DFT", 
		 "functional": "B3LYP", 
		 "basiset": "6-31G**", 
		 "properties": { 
			 "R2extent": 9306.227, 
			 "electric_dipole_moment_norm": 7.43334190926, 
			 "electric_quadrupole_moment_norm": 26.1422452498, 
			 "total_energy": -1530.9643067, 
			 "HOMO_LUMO_gap": 0.13995, 
			 "cosmo_polarized_energy": -16.31, 
			 "cosmo_cavitation_energy": 41.87, 
			 "cosmo_dispersion_energy": -28.7, 
			 "cosmo_repulsion_energy": 2.1, 
			 "cosmo_total_nonelectrostatic_energy": 15.27, 
			 "SMD_solvation_energy": 7.44 
		},
		"coords": [
			{
				"x": -0.144335676,
				"y": 3.6023107005,
				"z": -2.8978617426,
				"element": "C" 
			},
			{
				"x": 1.0691503216,
				"y": 2.8677103852,
				"z": -2.9795645887,
				"element": "O" 
			},
			{
				"x": 1.2465191782,
				"y": 1.8298130587,
				"z": -2.1130446596,
				"element": "C" 
			},
			{
				"x": 2.4637767559,
				"y": 1.1377800439,
				"z": -2.2302715669,
				"element": "C" 
			},
			{
				"x": 2.7581551776,
				"y": 0.0630365142,
				"z": -1.4010447092,
				"element": "C" 
			},
			{
				"x": 1.8373891602,
				"y": -0.349626667,
				"z": -0.4272857899,
				"element": "C" 
			},
			{
				"x": 2.0437841638,
				"y": -1.3913267631,
				"z": 0.4289271229,
				"element": "O" 
			},
			{
				"x": 3.2637756973,
				"y": -2.1149958453,
				"z": 0.3438255625,
				"element": "C" 
			},
			{
				"x": 0.6106709773,
				"y": 0.3386837121,
				"z": -0.3025264465,
				"element": "C" 
			},
			{
				"x": -0.3456321403,
				"y": -0.0837409943,
				"z": 0.7131251505,
				"element": "C" 
			},
			{
				"x": -1.4662392995,
				"y": 0.5384393084,
				"z": 0.8496186317,
				"element": "N" 
			},
			{
				"x": -2.3418793314,
				"y": 0.0743047482,
				"z": 1.8153337391,
				"element": "N" 
			},
			{
				"x": -2.66639736,
				"y": -1.1811947021,
				"z": 2.2926014493,
				"element": "C" 
			},
			{
				"x": -1.9213740785,
				"y": -2.693132104,
				"z": 1.77244035,
				"element": "S" 
			},
			{
				"x": -3.6743497141,
				"y": -1.0990544597,
				"z": 3.1361287844,
				"element": "N" 
			},
			{
				"x": -4.0407518743,
				"y": 0.225229238,
				"z": 3.2265908754,
				"element": "N" 
			},
			{
				"x": -3.2550648523,
				"y": 0.9023380415,
				"z": 2.4314362095,
				"element": "C" 
			},
			{
				"x": -3.2950358945,
				"y": 2.3864861956,
				"z": 2.2192581236,
				"element": "C" 
			},
			{
				"x": -4.2358478057,
				"y": 2.9407061437,
				"z": 2.991875723,
				"element": "F" 
			},
			{
				"x": -2.1082560171,
				"y": 2.9561170929,
				"z": 2.5207841876,
				"element": "F" 
			},
			{
				"x": -3.5702521793,
				"y": 2.6950210522,
				"z": 0.9341305225,
				"element": "F" 
			},
			{
				"x": 0.325809261,
				"y": 1.4251252397,
				"z": -1.1520886274,
				"element": "C" 
			},
			{
				"x": -0.2649113099,
				"y": 4.0745937436,
				"z": -1.9147515053,
				"element": "H" 
			},
			{
				"x": -0.0793490788,
				"y": 4.376063839,
				"z": -3.6639387776,
				"element": "H" 
			},
			{
				"x": -1.0156428908,
				"y": 2.9660656834,
				"z": -3.0986302637,
				"element": "H" 
			},
			{
				"x": 3.1717420602,
				"y": 1.4622486578,
				"z": -2.9858953128,
				"element": "H" 
			},
			{
				"x": 3.7056145107,
				"y": -0.4483055543,
				"z": -1.5178462011,
				"element": "H" 
			},
			{
				"x": 4.128508108,
				"y": -1.4698125928,
				"z": 0.5418711677,
				"element": "H" 
			},
			{
				"x": 3.3820058189,
				"y": -2.5895561781,
				"z": -0.6380496908,
				"element": "H" 
			},
			{
				"x": 3.2070613071,
				"y": -2.8868244967,
				"z": 1.112207775,
				"element": "H" 
			},
			{
				"x": -0.0508015944,
				"y": -0.9214023371,
				"z": 1.3448673898,
				"element": "H" 
			},
			{
				"x": -2.9165683648,
				"y": -3.4250071286,
				"z": 2.3111224709,
				"element": "H" 
			},
			{
				"x": -0.6254730361,
				"y": 1.9251064246,
				"z": -1.0222453533,
				"element": "H" 
			}
		],
		 "valence_orbital": [ 
			{
				"type": "occ",
				"energy": -0.29312,
				"method": "rhf"
			},
			{
				"type": "occ",
				"energy": -0.26577,
				"method": "rhf"
			},
			{
				"type": "occ",
				"energy": -0.25691,
				"method": "rhf"
			},
			{
				"type": "occ",
				"energy": -0.24619,
				"method": "rhf"
			},
			{
				"type": "occ",
				"energy": -0.21831,
				"method": "rhf"
			},
			{
				"type": "unocc",
				"energy": -0.07836,
				"method": "rhf"
			},
			{
				"type": "unocc",
				"energy": -0.00749,
				"method": "rhf"
			},
			{
				"type": "unocc",
				"energy": -0.00135,
				"method": "rhf"
			},
			{
				"type": "unocc",
				"energy": 0.00581,
				"method": "rhf"
			},
			{
				"type": "unocc",
				"energy": 0.0222,
				"method": "rhf"
			}
		],
		"cosmo_sigma_profile": { 
			"-0.025": 0.0,
			"-0.024": 0.0,
			"-0.023": 0.0,
			"-0.022": 0.0,
			"-0.021": 0.0,
			"-0.02": 0.0,
			"-0.019": 0.0,
			"-0.018": 0.0,
			"-0.017": 0.0,
			"-0.016": 0.0,
			"-0.015": 0.0,
			"-0.014": 0.0,
			"-0.013": 0.941514959997,
			"-0.012": 1.88158095194,
			"-0.011": 0.894555505452,
			"-0.01": 1.66242189939,
			"-0.009": 1.85595630488,
			"-0.008": 2.591722577,
			"-0.007": 6.94001324014,
			"-0.006": 19.054420562,
			"-0.005": 25.8080345618,
			"-0.004": 26.1980792585,
			"-0.003": 26.6368728579,
			"-0.002": 20.8308016952,
			"-0.001": 19.8480657777,
			"0.0": 19.9203384572,
			"0.001": 28.0494234831,
			"0.002": 46.5263908999,
			"0.003": 31.3324895587,
			"0.004": 14.6763303192,
			"0.005": 10.1107661194,
			"0.006": 6.55379582179,
			"0.007": 3.12593223416,
			"0.008": 3.52999982925,
			"0.009": 3.57607213625,
			"0.01": 4.17323417548,
			"0.011": 3.26118418902,
			"0.012": 3.10039008103,
			"0.013": 2.87382199634,
			"0.014": 1.77758008375,
			"0.015": 0.699318511688,
			"0.016": 0.0,
			"0.017": 0.0,
			"0.018": 0.0,
			"0.019": 0.0,
			"0.02": 0.0,
			"0.021": 0.0,
			"0.022": 0.0,
			"0.023": 0.0,
			"0.024": 0.0,
			"0.025": 0.0
		}
	}
}
