{
	 "smiles": "CC1=CN=C(O[Si](C)(C)C)N=C1O[Si](C)(C)C", 
	 "Tm": 312.15, 
	 "num_atms": 39, 
	 "gaussian": { 
		 "optdone": 1, 
		 "sigma_profile": "yes", 
		 "theory": "DFT", 
		 "functional": "B3LYP", 
		 "basiset": "6-31G**", 
		 "properties": { 
			 "R2extent": 6131.6272, 
			 "electric_dipole_moment_norm": 3.1594488839, 
			 "electric_quadrupole_moment_norm": 11.8594652645, 
			 "total_energy": -1271.56316591, 
			 "HOMO_LUMO_gap": 0.21055, 
			 "cosmo_polarized_energy": -9.76, 
			 "cosmo_cavitation_energy": 44.47, 
			 "cosmo_dispersion_energy": -25.02, 
			 "cosmo_repulsion_energy": 2.16, 
			 "cosmo_total_nonelectrostatic_energy": 21.61, 
			 "SMD_solvation_energy": 9.15 
		},
		"coords": [
			{
				"x": 3.0473788629,
				"y": -1.3210962923,
				"z": -1.3870549154,
				"element": "C" 
			},
			{
				"x": 1.5551867678,
				"y": -1.2368069031,
				"z": -1.5408811886,
				"element": "C" 
			},
			{
				"x": 0.8339783293,
				"y": -1.9728121441,
				"z": -2.4725255717,
				"element": "C" 
			},
			{
				"x": -0.4956688446,
				"y": -1.9131812554,
				"z": -2.6262046488,
				"element": "N" 
			},
			{
				"x": -1.128273892,
				"y": -1.0773395216,
				"z": -1.8046883567,
				"element": "C" 
			},
			{
				"x": -2.4578710465,
				"y": -1.0240581749,
				"z": -1.9586910122,
				"element": "O" 
			},
			{
				"x": -3.6792412969,
				"y": -0.4304647064,
				"z": -0.9284712252,
				"element": "Si" 
			},
			{
				"x": -3.5981987318,
				"y": 1.4428520943,
				"z": -0.7752959452,
				"element": "C" 
			},
			{
				"x": -3.5578297631,
				"y": -1.2912290692,
				"z": 0.7406739634,
				"element": "C" 
			},
			{
				"x": -5.247512716,
				"y": -0.9363499427,
				"z": -1.8301083266,
				"element": "C" 
			},
			{
				"x": -0.5616917003,
				"y": -0.2970848752,
				"z": -0.8664104807,
				"element": "N" 
			},
			{
				"x": 0.7650046378,
				"y": -0.3810713233,
				"z": -0.7457199117,
				"element": "C" 
			},
			{
				"x": 1.3942035275,
				"y": 0.3738004886,
				"z": 0.1678653907,
				"element": "O" 
			},
			{
				"x": 0.816420071,
				"y": 1.7045711001,
				"z": 1.0824895668,
				"element": "Si" 
			},
			{
				"x": -0.5103094743,
				"y": 1.1686097859,
				"z": 2.3008281778,
				"element": "C" 
			},
			{
				"x": 0.2303346341,
				"y": 3.052896062,
				"z": -0.0894436875,
				"element": "C" 
			},
			{
				"x": 2.3628710417,
				"y": 2.2438177063,
				"z": 2.0041991408,
				"element": "C" 
			},
			{
				"x": 3.328803368,
				"y": -1.631853842,
				"z": -0.3750070449,
				"element": "H" 
			},
			{
				"x": 3.4681163789,
				"y": -2.040842475,
				"z": -2.0952073027,
				"element": "H" 
			},
			{
				"x": 3.5239203275,
				"y": -0.3502680605,
				"z": -1.5623756616,
				"element": "H" 
			},
			{
				"x": 1.3589645945,
				"y": -2.6557390917,
				"z": -3.1406983678,
				"element": "H" 
			},
			{
				"x": -2.7097782654,
				"y": 1.7676610076,
				"z": -0.2289503607,
				"element": "H" 
			},
			{
				"x": -3.5780481317,
				"y": 1.9125090181,
				"z": -1.7646946822,
				"element": "H" 
			},
			{
				"x": -4.4816900023,
				"y": 1.8211997459,
				"z": -0.2476118282,
				"element": "H" 
			},
			{
				"x": -2.5882186902,
				"y": -1.1164995582,
				"z": 1.2149357162,
				"element": "H" 
			},
			{
				"x": -4.3378121485,
				"y": -0.9318261302,
				"z": 1.4218557993,
				"element": "H" 
			},
			{
				"x": -3.6878060382,
				"y": -2.3728409805,
				"z": 0.627790912,
				"element": "H" 
			},
			{
				"x": -6.1399100857,
				"y": -0.6302717296,
				"z": -1.272403278,
				"element": "H" 
			},
			{
				"x": -5.2976575356,
				"y": -0.4749872615,
				"z": -2.8217684488,
				"element": "H" 
			},
			{
				"x": -5.2903647161,
				"y": -2.0216620163,
				"z": -1.9658324126,
				"element": "H" 
			},
			{
				"x": -1.4320592521,
				"y": 0.8764374835,
				"z": 1.7931260036,
				"element": "H" 
			},
			{
				"x": -0.1682431953,
				"y": 0.3176197146,
				"z": 2.8996890067,
				"element": "H" 
			},
			{
				"x": -0.7439084283,
				"y": 1.9866595219,
				"z": 2.9924623776,
				"element": "H" 
			},
			{
				"x": 1.0487230086,
				"y": 3.3893554379,
				"z": -0.7349293136,
				"element": "H" 
			},
			{
				"x": -0.1295574577,
				"y": 3.923654767,
				"z": 0.4707479034,
				"element": "H" 
			},
			{
				"x": -0.5829219002,
				"y": 2.7020177315,
				"z": -0.7300471881,
				"element": "H" 
			},
			{
				"x": 2.1570062702,
				"y": 3.1148538698,
				"z": 2.6366016223,
				"element": "H" 
			},
			{
				"x": 2.7381516606,
				"y": 1.4440207466,
				"z": 2.6510367692,
				"element": "H" 
			},
			{
				"x": 3.1645098327,
				"y": 2.516549072,
				"z": 1.3103188099,
				"element": "H" 
			}
		],
		 "valence_orbital": [ 
			{
				"type": "occ",
				"energy": -0.29648,
				"method": "rhf"
			},
			{
				"type": "occ",
				"energy": -0.28965,
				"method": "rhf"
			},
			{
				"type": "occ",
				"energy": -0.27855,
				"method": "rhf"
			},
			{
				"type": "occ",
				"energy": -0.24637,
				"method": "rhf"
			},
			{
				"type": "occ",
				"energy": -0.22817,
				"method": "rhf"
			},
			{
				"type": "unocc",
				"energy": -0.01762,
				"method": "rhf"
			},
			{
				"type": "unocc",
				"energy": 0.00597,
				"method": "rhf"
			},
			{
				"type": "unocc",
				"energy": 0.05951,
				"method": "rhf"
			},
			{
				"type": "unocc",
				"energy": 0.07295,
				"method": "rhf"
			},
			{
				"type": "unocc",
				"energy": 0.08218,
				"method": "rhf"
			}
		],
		"cosmo_sigma_profile": { 
			"-0.025": 0.0,
			"-0.024": 0.0,
			"-0.023": 0.0,
			"-0.022": 0.0,
			"-0.021": 0.0,
			"-0.02": 0.0,
			"-0.019": 0.0,
			"-0.018": 0.0,
			"-0.017": 0.0,
			"-0.016": 0.0,
			"-0.015": 0.0,
			"-0.014": 0.0,
			"-0.013": 0.0,
			"-0.012": 0.0,
			"-0.011": 0.0,
			"-0.01": 0.0,
			"-0.009": 0.0,
			"-0.008": 0.0,
			"-0.007": 1.1010655596,
			"-0.006": 3.42781635653,
			"-0.005": 5.7890215255,
			"-0.004": 30.0080917894,
			"-0.003": 36.6161134219,
			"-0.002": 39.2434813476,
			"-0.001": 53.2807101178,
			"0.0": 55.7242039028,
			"0.001": 44.9367521469,
			"0.002": 23.9359992245,
			"0.003": 14.08804959,
			"0.004": 7.39758659281,
			"0.005": 3.35269564221,
			"0.006": 3.49997432502,
			"0.007": 3.52788592157,
			"0.008": 2.84442867986,
			"0.009": 1.86458598889,
			"0.01": 1.69058792996,
			"0.011": 1.10887750893,
			"0.012": 1.60844647059,
			"0.013": 1.63970684813,
			"0.014": 1.65028476759,
			"0.015": 1.53688574784,
			"0.016": 1.23074965971,
			"0.017": 0.737288352385,
			"0.018": 0.0,
			"0.019": 0.0,
			"0.02": 0.0,
			"0.021": 0.0,
			"0.022": 0.0,
			"0.023": 0.0,
			"0.024": 0.0,
			"0.025": 0.0
		}
	}
}
