{
	 "smiles": "O=C(CC1CCCC1)C1=CC=C(OC2=CC=CC=C2)C=C1", 
	 "Tm": 304.15, 
	 "num_atms": 41, 
	 "gaussian": { 
		 "optdone": 1, 
		 "sigma_profile": "yes", 
		 "theory": "DFT", 
		 "functional": "B3LYP", 
		 "basiset": "6-31G**", 
		 "properties": { 
			 "R2extent": 10374.0688, 
			 "electric_dipole_moment_norm": 4.16819814068, 
			 "electric_quadrupole_moment_norm": 14.6175007108, 
			 "total_energy": -886.528133364, 
			 "HOMO_LUMO_gap": 0.18045, 
			 "cosmo_polarized_energy": -10.45, 
			 "cosmo_cavitation_energy": 43.5, 
			 "cosmo_dispersion_energy": -30.63, 
			 "cosmo_repulsion_energy": 2.36, 
			 "cosmo_total_nonelectrostatic_energy": 15.23, 
			 "SMD_solvation_energy": 7.12 
		},
		"coords": [
			{
				"x": -4.7133139266,
				"y": 0.9763604567,
				"z": 1.2026738435,
				"element": "O" 
			},
			{
				"x": -3.5944631394,
				"y": 0.4840511778,
				"z": 1.2858113036,
				"element": "C" 
			},
			{
				"x": -2.96801741,
				"y": 0.2536434399,
				"z": 2.6566363599,
				"element": "C" 
			},
			{
				"x": -2.0156726579,
				"y": 1.3923071355,
				"z": 3.0751966955,
				"element": "C" 
			},
			{
				"x": -1.4008130884,
				"y": 1.2020124847,
				"z": 4.4750742422,
				"element": "C" 
			},
			{
				"x": -0.8358342133,
				"y": 2.5926162475,
				"z": 4.8418033555,
				"element": "C" 
			},
			{
				"x": -1.6810187985,
				"y": 3.6190919579,
				"z": 4.0253945075,
				"element": "C" 
			},
			{
				"x": -2.6763658738,
				"y": 2.7800917152,
				"z": 3.189514293,
				"element": "C" 
			},
			{
				"x": -2.8249695484,
				"y": 0.1437952245,
				"z": 0.0493697333,
				"element": "C" 
			},
			{
				"x": -1.555401268,
				"y": -0.4533499249,
				"z": 0.0627000764,
				"element": "C" 
			},
			{
				"x": -0.8810633275,
				"y": -0.7488555292,
				"z": -1.1206031352,
				"element": "C" 
			},
			{
				"x": -1.4829234414,
				"y": -0.4415865046,
				"z": -2.3456469786,
				"element": "C" 
			},
			{
				"x": -0.9236867896,
				"y": -0.7305892054,
				"z": -3.5647564939,
				"element": "O" 
			},
			{
				"x": 0.4364386593,
				"y": -0.9780737264,
				"z": -3.6833581439,
				"element": "C" 
			},
			{
				"x": 0.8265191615,
				"y": -2.1873806365,
				"z": -4.257453979,
				"element": "C" 
			},
			{
				"x": 2.182958681,
				"y": -2.4335158457,
				"z": -4.4769812497,
				"element": "C" 
			},
			{
				"x": 3.1394313714,
				"y": -1.4814622385,
				"z": -4.1192601776,
				"element": "C" 
			},
			{
				"x": 2.7343279834,
				"y": -0.2732757469,
				"z": -3.5460318441,
				"element": "C" 
			},
			{
				"x": 1.3813097896,
				"y": -0.0117473503,
				"z": -3.3290258694,
				"element": "C" 
			},
			{
				"x": -2.753711107,
				"y": 0.150624862,
				"z": -2.3819342366,
				"element": "C" 
			},
			{
				"x": -3.4108067395,
				"y": 0.4366373875,
				"z": -1.1962606065,
				"element": "C" 
			},
			{
				"x": -3.7965083846,
				"y": 0.1974296244,
				"z": 3.3697987406,
				"element": "H" 
			},
			{
				"x": -2.4349156025,
				"y": -0.7038198514,
				"z": 2.6873456982,
				"element": "H" 
			},
			{
				"x": -1.1962176537,
				"y": 1.4575164634,
				"z": 2.3442194295,
				"element": "H" 
			},
			{
				"x": -0.6447263696,
				"y": 0.4098770662,
				"z": 4.5075301682,
				"element": "H" 
			},
			{
				"x": -2.19671535,
				"y": 0.9173774048,
				"z": 5.1762351831,
				"element": "H" 
			},
			{
				"x": 0.2200303672,
				"y": 2.6593086163,
				"z": 4.5577566906,
				"element": "H" 
			},
			{
				"x": -0.8814499929,
				"y": 2.7780022271,
				"z": 5.919270025,
				"element": "H" 
			},
			{
				"x": -2.2011181813,
				"y": 4.3326434936,
				"z": 4.6716030026,
				"element": "H" 
			},
			{
				"x": -1.031380178,
				"y": 4.2089831611,
				"z": 3.3700393078,
				"element": "H" 
			},
			{
				"x": -3.631680637,
				"y": 2.6748879645,
				"z": 3.7190738193,
				"element": "H" 
			},
			{
				"x": -2.9037186001,
				"y": 3.2293495754,
				"z": 2.2185044328,
				"element": "H" 
			},
			{
				"x": -1.0762585443,
				"y": -0.7026665354,
				"z": 1.0036299268,
				"element": "H" 
			},
			{
				"x": 0.095552737,
				"y": -1.217776551,
				"z": -1.0939549933,
				"element": "H" 
			},
			{
				"x": 0.0658119865,
				"y": -2.9116469037,
				"z": -4.5292518553,
				"element": "H" 
			},
			{
				"x": 2.4901982577,
				"y": -3.373272485,
				"z": -4.926354439,
				"element": "H" 
			},
			{
				"x": 4.1937106206,
				"y": -1.6768586768,
				"z": -4.2895923503,
				"element": "H" 
			},
			{
				"x": 3.4729087561,
				"y": 0.4751034885,
				"z": -3.2738216981,
				"element": "H" 
			},
			{
				"x": 1.0546090957,
				"y": 0.9284857192,
				"z": -2.8969908241,
				"element": "H" 
			},
			{
				"x": -3.1973122485,
				"y": 0.3734947144,
				"z": -3.3467178731,
				"element": "H" 
			},
			{
				"x": -4.3933443953,
				"y": 0.8963861037,
				"z": -1.2003840874,
				"element": "H" 
			}
		],
		 "valence_orbital": [ 
			{
				"type": "occ",
				"energy": -0.26486,
				"method": "rhf"
			},
			{
				"type": "occ",
				"energy": -0.26019,
				"method": "rhf"
			},
			{
				"type": "occ",
				"energy": -0.25596,
				"method": "rhf"
			},
			{
				"type": "occ",
				"energy": -0.23704,
				"method": "rhf"
			},
			{
				"type": "occ",
				"energy": -0.22814,
				"method": "rhf"
			},
			{
				"type": "unocc",
				"energy": -0.04769,
				"method": "rhf"
			},
			{
				"type": "unocc",
				"energy": -0.01824,
				"method": "rhf"
			},
			{
				"type": "unocc",
				"energy": -0.00733,
				"method": "rhf"
			},
			{
				"type": "unocc",
				"energy": -0.00569,
				"method": "rhf"
			},
			{
				"type": "unocc",
				"energy": 0.0475,
				"method": "rhf"
			}
		],
		"cosmo_sigma_profile": { 
			"-0.025": 0.0,
			"-0.024": 0.0,
			"-0.023": 0.0,
			"-0.022": 0.0,
			"-0.021": 0.0,
			"-0.02": 0.0,
			"-0.019": 0.0,
			"-0.018": 0.0,
			"-0.017": 0.0,
			"-0.016": 0.0,
			"-0.015": 0.0,
			"-0.014": 0.0,
			"-0.013": 0.0,
			"-0.012": 0.0,
			"-0.011": 0.0,
			"-0.01": 0.0,
			"-0.009": 0.0,
			"-0.008": 0.122540364508,
			"-0.007": 4.76072611176,
			"-0.006": 15.3938868957,
			"-0.005": 18.0671079148,
			"-0.004": 21.2196289284,
			"-0.003": 24.9289553659,
			"-0.002": 40.8532517672,
			"-0.001": 46.0254912894,
			"0.0": 35.7279987733,
			"0.001": 30.7388031575,
			"0.002": 29.0922389609,
			"0.003": 25.037468393,
			"0.004": 19.3496927226,
			"0.005": 9.74469160238,
			"0.006": 4.18692709205,
			"0.007": 3.09840560071,
			"0.008": 2.4641692209,
			"0.009": 2.01006588257,
			"0.01": 1.88635564087,
			"0.011": 2.25114091994,
			"0.012": 3.36516815659,
			"0.013": 2.85235791572,
			"0.014": 0.617778280236,
			"0.015": 0.0,
			"0.016": 0.0,
			"0.017": 0.0,
			"0.018": 0.0,
			"0.019": 0.0,
			"0.02": 0.0,
			"0.021": 0.0,
			"0.022": 0.0,
			"0.023": 0.0,
			"0.024": 0.0,
			"0.025": 0.0
		}
	}
}
