{
	 "smiles": "CC(C)(C)OC(=O)NC(C)(C)C(O)=O", 
	 "Tm": 392.15, 
	 "num_atms": 31, 
	 "gaussian": { 
		 "optdone": 1, 
		 "sigma_profile": "yes", 
		 "theory": "DFT", 
		 "functional": "B3LYP", 
		 "basiset": "6-31G**", 
		 "properties": { 
			 "R2extent": 3416.28, 
			 "electric_dipole_moment_norm": 3.30728727056, 
			 "electric_quadrupole_moment_norm": 12.6129047245, 
			 "total_energy": -708.908481467, 
			 "HOMO_LUMO_gap": 0.25573, 
			 "cosmo_polarized_energy": -14.37, 
			 "cosmo_cavitation_energy": 32.96, 
			 "cosmo_dispersion_energy": -21.79, 
			 "cosmo_repulsion_energy": 1.72, 
			 "cosmo_total_nonelectrostatic_energy": 12.89, 
			 "SMD_solvation_energy": 7.44 
		},
		"coords": [
			{
				"x": 0.4665569347,
				"y": -2.3959223622,
				"z": 2.1152041134,
				"element": "C" 
			},
			{
				"x": 0.4472315746,
				"y": -0.9670914044,
				"z": 2.6644642653,
				"element": "C" 
			},
			{
				"x": -0.6333117202,
				"y": -0.8126549328,
				"z": 3.7398371402,
				"element": "C" 
			},
			{
				"x": 1.8358367123,
				"y": -0.5567416843,
				"z": 3.1644866738,
				"element": "C" 
			},
			{
				"x": 0.0852158781,
				"y": -0.1724351825,
				"z": 1.4769768154,
				"element": "O" 
			},
			{
				"x": -0.098248853,
				"y": 1.164317919,
				"z": 1.5695877305,
				"element": "C" 
			},
			{
				"x": 0.1273676192,
				"y": 1.8592125649,
				"z": 2.5450901866,
				"element": "O" 
			},
			{
				"x": -0.5515202456,
				"y": 1.6862523598,
				"z": 0.3779446761,
				"element": "N" 
			},
			{
				"x": -1.1310390646,
				"y": 0.9379987461,
				"z": -0.7369920011,
				"element": "C" 
			},
			{
				"x": -0.044112516,
				"y": 0.1954810758,
				"z": -1.5349898797,
				"element": "C" 
			},
			{
				"x": -1.8423118775,
				"y": 1.9617403405,
				"z": -1.6494642134,
				"element": "C" 
			},
			{
				"x": -2.2344678278,
				"y": -0.0062082716,
				"z": -0.2125152414,
				"element": "C" 
			},
			{
				"x": -2.4551513741,
				"y": -1.0511038393,
				"z": -1.0450203857,
				"element": "O" 
			},
			{
				"x": -2.8937860395,
				"y": 0.1800834025,
				"z": 0.7844351824,
				"element": "O" 
			},
			{
				"x": -0.5132485235,
				"y": -2.6683481921,
				"z": 1.7122542179,
				"element": "H" 
			},
			{
				"x": 1.2088126598,
				"y": -2.4955165911,
				"z": 1.3174776635,
				"element": "H" 
			},
			{
				"x": 0.7212551596,
				"y": -3.1003135837,
				"z": 2.9126028882,
				"element": "H" 
			},
			{
				"x": -1.6184405586,
				"y": -1.032619647,
				"z": 3.3178926967,
				"element": "H" 
			},
			{
				"x": -0.4400177843,
				"y": -1.5151946607,
				"z": 4.5571359556,
				"element": "H" 
			},
			{
				"x": -0.6434798471,
				"y": 0.2010050255,
				"z": 4.1409270144,
				"element": "H" 
			},
			{
				"x": 2.1439553521,
				"y": -1.222090367,
				"z": 3.9778393289,
				"element": "H" 
			},
			{
				"x": 2.5716334821,
				"y": -0.6424825278,
				"z": 2.3584327436,
				"element": "H" 
			},
			{
				"x": 1.8288626422,
				"y": 0.4702316274,
				"z": 3.5295060381,
				"element": "H" 
			},
			{
				"x": -0.8519821385,
				"y": 2.6435007603,
				"z": 0.4926774496,
				"element": "H" 
			},
			{
				"x": 0.6867187558,
				"y": 0.9247633064,
				"z": -1.8958310592,
				"element": "H" 
			},
			{
				"x": -0.4786781791,
				"y": -0.3251417249,
				"z": -2.3906329166,
				"element": "H" 
			},
			{
				"x": 0.4710747408,
				"y": -0.5310202218,
				"z": -0.9065935675,
				"element": "H" 
			},
			{
				"x": -2.2959703164,
				"y": 1.4575328093,
				"z": -2.5057496548,
				"element": "H" 
			},
			{
				"x": -2.627852661,
				"y": 2.4918883254,
				"z": -1.1016226297,
				"element": "H" 
			},
			{
				"x": -1.1146766422,
				"y": 2.6893503706,
				"z": -2.0220556615,
				"element": "H" 
			},
			{
				"x": -3.1996253426,
				"y": -1.5441734402,
				"z": -0.6604055698,
				"element": "H" 
			}
		],
		 "valence_orbital": [ 
			{
				"type": "occ",
				"energy": -0.32069,
				"method": "rhf"
			},
			{
				"type": "occ",
				"energy": -0.28584,
				"method": "rhf"
			},
			{
				"type": "occ",
				"energy": -0.27847,
				"method": "rhf"
			},
			{
				"type": "occ",
				"energy": -0.26097,
				"method": "rhf"
			},
			{
				"type": "occ",
				"energy": -0.25195,
				"method": "rhf"
			},
			{
				"type": "unocc",
				"energy": 0.00378,
				"method": "rhf"
			},
			{
				"type": "unocc",
				"energy": 0.05253,
				"method": "rhf"
			},
			{
				"type": "unocc",
				"energy": 0.06762,
				"method": "rhf"
			},
			{
				"type": "unocc",
				"energy": 0.08351,
				"method": "rhf"
			},
			{
				"type": "unocc",
				"energy": 0.09189,
				"method": "rhf"
			}
		],
		"cosmo_sigma_profile": { 
			"-0.025": 0.0,
			"-0.024": 0.0,
			"-0.023": 0.0,
			"-0.022": 0.0,
			"-0.021": 0.0,
			"-0.02": 0.0,
			"-0.019": 0.0702759512577,
			"-0.018": 0.707672305908,
			"-0.017": 1.04068971551,
			"-0.016": 0.907076613609,
			"-0.015": 0.632005774141,
			"-0.014": 0.845201465428,
			"-0.013": 1.19176542631,
			"-0.012": 1.90729336824,
			"-0.011": 2.07779909612,
			"-0.01": 1.38018368197,
			"-0.009": 0.981623096329,
			"-0.008": 2.21206278604,
			"-0.007": 2.11150938565,
			"-0.006": 2.13676297868,
			"-0.005": 7.05111613396,
			"-0.004": 21.2725584588,
			"-0.003": 25.1710461252,
			"-0.002": 27.4242874533,
			"-0.001": 26.8892577244,
			"0.0": 34.0817140276,
			"0.001": 24.7350800815,
			"0.002": 11.1254062976,
			"0.003": 10.6781983675,
			"0.004": 8.30919209123,
			"0.005": 6.33912065823,
			"0.006": 6.05265234195,
			"0.007": 4.53933425304,
			"0.008": 4.32160429735,
			"0.009": 2.22823902479,
			"0.01": 3.34500386499,
			"0.011": 4.1956467398,
			"0.012": 4.55832317907,
			"0.013": 3.25669934775,
			"0.014": 1.92256892353,
			"0.015": 0.0,
			"0.016": 0.0,
			"0.017": 0.0,
			"0.018": 0.0,
			"0.019": 0.0,
			"0.02": 0.0,
			"0.021": 0.0,
			"0.022": 0.0,
			"0.023": 0.0,
			"0.024": 0.0,
			"0.025": 0.0
		}
	}
}
