{
	 "smiles": "NC1=C(F)C=CC=N1", 
	 "Tm": 314.15, 
	 "num_atms": 13, 
	 "gaussian": { 
		 "optdone": 1, 
		 "sigma_profile": "yes", 
		 "theory": "DFT", 
		 "functional": "B3LYP", 
		 "basiset": "6-31G**", 
		 "properties": { 
			 "R2extent": 1327.6497, 
			 "electric_dipole_moment_norm": 2.62306929188, 
			 "electric_quadrupole_moment_norm": 12.7537518743, 
			 "total_energy": -402.866146031, 
			 "HOMO_LUMO_gap": 0.22516, 
			 "cosmo_polarized_energy": -10.93, 
			 "cosmo_cavitation_energy": 17.66, 
			 "cosmo_dispersion_energy": -13.17, 
			 "cosmo_repulsion_energy": 1.08, 
			 "cosmo_total_nonelectrostatic_energy": 5.57, 
			 "SMD_solvation_energy": 2.07 
		},
		"coords": [
			{
				"x": 2.0776398119,
				"y": 0.291555187,
				"z": 2.006660582,
				"element": "N" 
			},
			{
				"x": 1.3040572728,
				"y": -0.7240824452,
				"z": 1.3612662378,
				"element": "C" 
			},
			{
				"x": 0.8362108623,
				"y": -0.5682178485,
				"z": 0.0478563662,
				"element": "C" 
			},
			{
				"x": 1.128563157,
				"y": 0.5722604762,
				"z": -0.6152434774,
				"element": "F" 
			},
			{
				"x": 0.0872945221,
				"y": -1.5529668708,
				"z": -0.57511498,
				"element": "C" 
			},
			{
				"x": -0.1831515522,
				"y": -2.7084359454,
				"z": 0.1587683499,
				"element": "C" 
			},
			{
				"x": 0.3124288844,
				"y": -2.7979911093,
				"z": 1.4594480113,
				"element": "C" 
			},
			{
				"x": 1.0354874423,
				"y": -1.8357491814,
				"z": 2.047124541,
				"element": "N" 
			},
			{
				"x": 2.9135857585,
				"y": 0.4863739562,
				"z": 1.4590839603,
				"element": "H" 
			},
			{
				"x": 1.5527410371,
				"y": 1.1637778669,
				"z": 2.0241496917,
				"element": "H" 
			},
			{
				"x": -0.2636907291,
				"y": -1.4098733984,
				"z": -1.5918046894,
				"element": "H" 
			},
			{
				"x": -0.7644857817,
				"y": -3.5184043584,
				"z": -0.2701134328,
				"element": "H" 
			},
			{
				"x": 0.1205193145,
				"y": -3.6846463288,
				"z": 2.0602188394,
				"element": "H" 
			}
		],
		 "valence_orbital": [ 
			{
				"type": "occ",
				"energy": -0.38223,
				"method": "rhf"
			},
			{
				"type": "occ",
				"energy": -0.29113,
				"method": "rhf"
			},
			{
				"type": "occ",
				"energy": -0.2678,
				"method": "rhf"
			},
			{
				"type": "occ",
				"energy": -0.25518,
				"method": "rhf"
			},
			{
				"type": "occ",
				"energy": -0.25416,
				"method": "rhf"
			},
			{
				"type": "unocc",
				"energy": -0.029,
				"method": "rhf"
			},
			{
				"type": "unocc",
				"energy": -0.01213,
				"method": "rhf"
			},
			{
				"type": "unocc",
				"energy": 0.07922,
				"method": "rhf"
			},
			{
				"type": "unocc",
				"energy": 0.0965,
				"method": "rhf"
			},
			{
				"type": "unocc",
				"energy": 0.12993,
				"method": "rhf"
			}
		],
		"cosmo_sigma_profile": { 
			"-0.025": 0.0,
			"-0.024": 0.0,
			"-0.023": 0.0,
			"-0.022": 0.0,
			"-0.021": 0.0,
			"-0.02": 0.0,
			"-0.019": 0.0,
			"-0.018": 0.0,
			"-0.017": 0.0,
			"-0.016": 0.0,
			"-0.015": 0.0,
			"-0.014": 0.0,
			"-0.013": 0.0,
			"-0.012": 1.10206388906,
			"-0.011": 2.54474072181,
			"-0.01": 2.60018741121,
			"-0.009": 3.40980734268,
			"-0.008": 4.6835998431,
			"-0.007": 6.93496477143,
			"-0.006": 8.12040058607,
			"-0.005": 8.85796837371,
			"-0.004": 6.9537621638,
			"-0.003": 7.61281665208,
			"-0.002": 6.43921616594,
			"-0.001": 9.18148429457,
			"0.0": 11.5789156879,
			"0.001": 10.5090020377,
			"0.002": 10.9284809004,
			"0.003": 9.07120360123,
			"0.004": 8.89571578692,
			"0.005": 2.43312610507,
			"0.006": 1.26379065778,
			"0.007": 1.59479314622,
			"0.008": 1.76068018944,
			"0.009": 1.1232075995,
			"0.01": 1.19813868154,
			"0.011": 1.41824611623,
			"0.012": 1.37565272136,
			"0.013": 1.40271922237,
			"0.014": 1.58518079398,
			"0.015": 1.20287486434,
			"0.016": 1.29853209644,
			"0.017": 1.76191059711,
			"0.018": 1.37293548417,
			"0.019": 1.01814426433,
			"0.02": 0.06984008146,
			"0.021": 0.0,
			"0.022": 0.0,
			"0.023": 0.0,
			"0.024": 0.0,
			"0.025": 0.0
		}
	}
}
