{
	 "smiles": "COC1=CC(=CC=C1C(O)=O)[N+]([O-])=O", 
	 "Tm": 420.15, 
	 "num_atms": 21, 
	 "gaussian": { 
		 "optdone": 1, 
		 "sigma_profile": "yes", 
		 "theory": "DFT", 
		 "functional": "B3LYP", 
		 "basiset": "6-31G**", 
		 "properties": { 
			 "R2extent": 4117.6631, 
			 "electric_dipole_moment_norm": 4.44657057068, 
			 "electric_quadrupole_moment_norm": 21.3986139128, 
			 "total_energy": -739.839814208, 
			 "HOMO_LUMO_gap": 0.161, 
			 "cosmo_polarized_energy": -16.22, 
			 "cosmo_cavitation_energy": 26.42, 
			 "cosmo_dispersion_energy": -19.48, 
			 "cosmo_repulsion_energy": 1.52, 
			 "cosmo_total_nonelectrostatic_energy": 8.45, 
			 "SMD_solvation_energy": 8.85 
		},
		"coords": [
			{
				"x": -0.5843644758,
				"y": -0.1607085024,
				"z": -1.6640402518,
				"element": "C" 
			},
			{
				"x": 0.0062767622,
				"y": -0.6230112062,
				"z": -0.4465391293,
				"element": "O" 
			},
			{
				"x": -0.4387138794,
				"y": -0.1326724605,
				"z": 0.7516848112,
				"element": "C" 
			},
			{
				"x": -1.4602497493,
				"y": 0.813865713,
				"z": 0.8355146103,
				"element": "C" 
			},
			{
				"x": -1.8525400398,
				"y": 1.2597415289,
				"z": 2.0943165996,
				"element": "C" 
			},
			{
				"x": -1.2708251008,
				"y": 0.8028747259,
				"z": 3.270808149,
				"element": "C" 
			},
			{
				"x": -0.2542673888,
				"y": -0.140628544,
				"z": 3.164165552,
				"element": "C" 
			},
			{
				"x": 0.1813504383,
				"y": -0.6249875095,
				"z": 1.9254611485,
				"element": "C" 
			},
			{
				"x": 1.2970681895,
				"y": -1.6494092125,
				"z": 1.971224963,
				"element": "C" 
			},
			{
				"x": 1.7485373501,
				"y": -2.1428317348,
				"z": 0.8069381878,
				"element": "O" 
			},
			{
				"x": 1.7683370943,
				"y": -2.012950136,
				"z": 3.0257105085,
				"element": "O" 
			},
			{
				"x": -2.9346511209,
				"y": 2.2614139626,
				"z": 2.166604384,
				"element": "N" 
			},
			{
				"x": -3.2737737858,
				"y": 2.6492471053,
				"z": 3.2816521579,
				"element": "O" 
			},
			{
				"x": -3.4279864825,
				"y": 2.644252895,
				"z": 1.1060278547,
				"element": "O" 
			},
			{
				"x": -0.4389313882,
				"y": 0.917816714,
				"z": -1.7838332952,
				"element": "H" 
			},
			{
				"x": -1.6524804321,
				"y": -0.3991896226,
				"z": -1.6951870088,
				"element": "H" 
			},
			{
				"x": -0.0668481453,
				"y": -0.6913380139,
				"z": -2.4627677847,
				"element": "H" 
			},
			{
				"x": -1.9592439527,
				"y": 1.215041223,
				"z": -0.0347038425,
				"element": "H" 
			},
			{
				"x": -1.6104627069,
				"y": 1.1798826145,
				"z": 4.2263686015,
				"element": "H" 
			},
			{
				"x": 0.2379411209,
				"y": -0.5347817439,
				"z": 4.0459931097,
				"element": "H" 
			},
			{
				"x": 1.2601276928,
				"y": -1.7427277959,
				"z": 0.0636006745,
				"element": "H" 
			}
		],
		 "valence_orbital": [ 
			{
				"type": "occ",
				"energy": -0.31901,
				"method": "rhf"
			},
			{
				"type": "occ",
				"energy": -0.30544,
				"method": "rhf"
			},
			{
				"type": "occ",
				"energy": -0.29318,
				"method": "rhf"
			},
			{
				"type": "occ",
				"energy": -0.28055,
				"method": "rhf"
			},
			{
				"type": "occ",
				"energy": -0.2708,
				"method": "rhf"
			},
			{
				"type": "unocc",
				"energy": -0.1098,
				"method": "rhf"
			},
			{
				"type": "unocc",
				"energy": -0.03992,
				"method": "rhf"
			},
			{
				"type": "unocc",
				"energy": -0.03215,
				"method": "rhf"
			},
			{
				"type": "unocc",
				"energy": 0.04738,
				"method": "rhf"
			},
			{
				"type": "unocc",
				"energy": 0.058,
				"method": "rhf"
			}
		],
		"cosmo_sigma_profile": { 
			"-0.025": 0.0,
			"-0.024": 0.0,
			"-0.023": 0.0,
			"-0.022": 0.0,
			"-0.021": 0.0,
			"-0.02": 0.0,
			"-0.019": 0.0,
			"-0.018": 0.0,
			"-0.017": 0.0,
			"-0.016": 0.0,
			"-0.015": 0.0,
			"-0.014": 0.0,
			"-0.013": 0.0,
			"-0.012": 0.0,
			"-0.011": 0.552654252842,
			"-0.01": 0.528944322894,
			"-0.009": 1.94694715763,
			"-0.008": 6.12050865857,
			"-0.007": 15.8012616687,
			"-0.006": 15.7623649087,
			"-0.005": 15.0644660753,
			"-0.004": 16.3536320069,
			"-0.003": 12.2282453464,
			"-0.002": 17.0285206855,
			"-0.001": 18.5038040539,
			"0.0": 14.7074647186,
			"0.001": 8.77542665275,
			"0.002": 4.27877396491,
			"0.003": 3.74232193303,
			"0.004": 4.9295185313,
			"0.005": 5.52893370816,
			"0.006": 7.53249097557,
			"0.007": 11.5842731259,
			"0.008": 7.21180240936,
			"0.009": 7.37814774659,
			"0.01": 5.72804204669,
			"0.011": 5.20261330626,
			"0.012": 4.20587914306,
			"0.013": 1.46819646304,
			"0.014": 0.0341472564131,
			"0.015": 0.0,
			"0.016": 0.0,
			"0.017": 0.0,
			"0.018": 0.0,
			"0.019": 0.0,
			"0.02": 0.0,
			"0.021": 0.0,
			"0.022": 0.0,
			"0.023": 0.0,
			"0.024": 0.0,
			"0.025": 0.0
		}
	}
}
