{
	 "smiles": "CC1=C2C=CC=CC2=NC(NN)=C1", 
	 "Tm": 420.15, 
	 "num_atms": 24, 
	 "gaussian": { 
		 "optdone": 1, 
		 "sigma_profile": "yes", 
		 "theory": "DFT", 
		 "functional": "B3LYP", 
		 "basiset": "6-31G**", 
		 "properties": { 
			 "R2extent": 3475.0384, 
			 "electric_dipole_moment_norm": 2.51536141737, 
			 "electric_quadrupole_moment_norm": 17.308740791, 
			 "total_energy": -551.937156416, 
			 "HOMO_LUMO_gap": 0.16617, 
			 "cosmo_polarized_energy": -12.01, 
			 "cosmo_cavitation_energy": 27.26, 
			 "cosmo_dispersion_energy": -20.49, 
			 "cosmo_repulsion_energy": 1.63, 
			 "cosmo_total_nonelectrostatic_energy": 8.4, 
			 "SMD_solvation_energy": 3.61 
		},
		"coords": [
			{
				"x": -2.8355142531,
				"y": 0.940477797,
				"z": -1.7771840928,
				"element": "C" 
			},
			{
				"x": -2.3466780953,
				"y": 0.2936643225,
				"z": -0.5059369483,
				"element": "C" 
			},
			{
				"x": -0.9722527956,
				"y": 0.3983662657,
				"z": -0.1034113705,
				"element": "C" 
			},
			{
				"x": 0.0116592318,
				"y": 1.0983732925,
				"z": -0.8458528219,
				"element": "C" 
			},
			{
				"x": 1.3197139835,
				"y": 1.1619789751,
				"z": -0.4093491421,
				"element": "C" 
			},
			{
				"x": 1.6955670082,
				"y": 0.5223785268,
				"z": 0.7932426479,
				"element": "C" 
			},
			{
				"x": 0.7627354388,
				"y": -0.167198941,
				"z": 1.5382101083,
				"element": "C" 
			},
			{
				"x": -0.5897188147,
				"y": -0.2483686899,
				"z": 1.1154162916,
				"element": "C" 
			},
			{
				"x": -1.4652791957,
				"y": -0.9510333648,
				"z": 1.8901666954,
				"element": "N" 
			},
			{
				"x": -2.7231931097,
				"y": -1.0114270101,
				"z": 1.494548985,
				"element": "C" 
			},
			{
				"x": -3.5850688211,
				"y": -1.6770873237,
				"z": 2.3567889661,
				"element": "N" 
			},
			{
				"x": -4.7933691424,
				"y": -2.1886685901,
				"z": 1.855514243,
				"element": "N" 
			},
			{
				"x": -3.2108068353,
				"y": -0.4084472383,
				"z": 0.2970951335,
				"element": "C" 
			},
			{
				"x": -3.9031525196,
				"y": 0.7591043813,
				"z": -1.9218930803,
				"element": "H" 
			},
			{
				"x": -2.6749879926,
				"y": 2.0246180512,
				"z": -1.7603258731,
				"element": "H" 
			},
			{
				"x": -2.3034253691,
				"y": 0.551521851,
				"z": -2.6530237568,
				"element": "H" 
			},
			{
				"x": -0.2694796435,
				"y": 1.5921942939,
				"z": -1.7709227002,
				"element": "H" 
			},
			{
				"x": 2.0612301532,
				"y": 1.7033692233,
				"z": -0.9895599319,
				"element": "H" 
			},
			{
				"x": 2.7267783579,
				"y": 0.5761071755,
				"z": 1.1315286345,
				"element": "H" 
			},
			{
				"x": 1.0285174069,
				"y": -0.6656523789,
				"z": 2.4649705813,
				"element": "H" 
			},
			{
				"x": -3.0830304732,
				"y": -2.2110233176,
				"z": 3.0605816581,
				"element": "H" 
			},
			{
				"x": -4.7167822928,
				"y": -3.1823687315,
				"z": 1.6409943764,
				"element": "H" 
			},
			{
				"x": -5.5214101877,
				"y": -2.0611778216,
				"z": 2.5513646793,
				"element": "H" 
			},
			{
				"x": -4.2584520389,
				"y": -0.5211007483,
				"z": 0.0456367176,
				"element": "H" 
			}
		],
		 "valence_orbital": [ 
			{
				"type": "occ",
				"energy": -0.27504,
				"method": "rhf"
			},
			{
				"type": "occ",
				"energy": -0.27095,
				"method": "rhf"
			},
			{
				"type": "occ",
				"energy": -0.24625,
				"method": "rhf"
			},
			{
				"type": "occ",
				"energy": -0.2221,
				"method": "rhf"
			},
			{
				"type": "occ",
				"energy": -0.19834,
				"method": "rhf"
			},
			{
				"type": "unocc",
				"energy": -0.03217,
				"method": "rhf"
			},
			{
				"type": "unocc",
				"energy": 0.00675,
				"method": "rhf"
			},
			{
				"type": "unocc",
				"energy": 0.03914,
				"method": "rhf"
			},
			{
				"type": "unocc",
				"energy": 0.07188,
				"method": "rhf"
			},
			{
				"type": "unocc",
				"energy": 0.10091,
				"method": "rhf"
			}
		],
		"cosmo_sigma_profile": { 
			"-0.025": 0.0,
			"-0.024": 0.0,
			"-0.023": 0.0,
			"-0.022": 0.0,
			"-0.021": 0.0,
			"-0.02": 0.0,
			"-0.019": 0.0,
			"-0.018": 0.0,
			"-0.017": 0.0,
			"-0.016": 0.0,
			"-0.015": 0.0,
			"-0.014": 0.0,
			"-0.013": 0.0,
			"-0.012": 1.76028871407,
			"-0.011": 4.2470845049,
			"-0.01": 4.75142109159,
			"-0.009": 5.73541793709,
			"-0.008": 3.09922422173,
			"-0.007": 3.23326964932,
			"-0.006": 3.05437643066,
			"-0.005": 13.8147292873,
			"-0.004": 18.738860594,
			"-0.003": 16.2628580375,
			"-0.002": 13.7369632321,
			"-0.001": 14.7085392441,
			"0.0": 13.0383281246,
			"0.001": 9.51327585534,
			"0.002": 11.7531589647,
			"0.003": 18.391818069,
			"0.004": 17.1040082836,
			"0.005": 15.1946734056,
			"0.006": 10.2248847696,
			"0.007": 3.805096211,
			"0.008": 2.57651080721,
			"0.009": 3.26490281585,
			"0.01": 2.29372978803,
			"0.011": 1.61489127227,
			"0.012": 1.23997221928,
			"0.013": 1.3108722906,
			"0.014": 1.11050216918,
			"0.015": 0.600206114669,
			"0.016": 0.0,
			"0.017": 0.0,
			"0.018": 0.0,
			"0.019": 0.0,
			"0.02": 0.0,
			"0.021": 0.0,
			"0.022": 0.0,
			"0.023": 0.0,
			"0.024": 0.0,
			"0.025": 0.0
		}
	}
}
