{
	 "smiles": "ONC(=O)C1=C(CSC2=CC=CC=C2)C=CO1", 
	 "Tm": 373.15, 
	 "num_atms": 28, 
	 "gaussian": { 
		 "optdone": 1, 
		 "sigma_profile": "yes", 
		 "theory": "DFT", 
		 "functional": "B3LYP", 
		 "basiset": "6-31G**", 
		 "properties": { 
			 "R2extent": 5117.6571, 
			 "electric_dipole_moment_norm": 3.6546329761, 
			 "electric_quadrupole_moment_norm": 5.37025219426, 
			 "total_energy": -1142.43816721, 
			 "HOMO_LUMO_gap": 0.15457, 
			 "cosmo_polarized_energy": -14.11, 
			 "cosmo_cavitation_energy": 33.94, 
			 "cosmo_dispersion_energy": -24.23, 
			 "cosmo_repulsion_energy": 1.85, 
			 "cosmo_total_nonelectrostatic_energy": 11.56, 
			 "SMD_solvation_energy": 7.69 
		},
		"coords": [
			{
				"x": -0.701992507,
				"y": -4.7333938857,
				"z": -2.3342356013,
				"element": "O" 
			},
			{
				"x": -0.0255480559,
				"y": -4.1494662592,
				"z": -1.2413388242,
				"element": "N" 
			},
			{
				"x": -0.5373265529,
				"y": -2.9839777223,
				"z": -0.6854707796,
				"element": "C" 
			},
			{
				"x": -0.4110490688,
				"y": -2.7854273585,
				"z": 0.5230501679,
				"element": "O" 
			},
			{
				"x": -1.1111766202,
				"y": -1.981938028,
				"z": -1.5908498705,
				"element": "C" 
			},
			{
				"x": -1.8285374474,
				"y": -0.8362806597,
				"z": -1.3210325648,
				"element": "C" 
			},
			{
				"x": -2.2793383604,
				"y": -0.3373038927,
				"z": 0.0178666738,
				"element": "C" 
			},
			{
				"x": -1.9026560343,
				"y": 1.4349714597,
				"z": 0.3526517355,
				"element": "S" 
			},
			{
				"x": -0.1150635336,
				"y": 1.5242490113,
				"z": 0.382306018,
				"element": "C" 
			},
			{
				"x": 0.4479304649,
				"y": 2.7869165931,
				"z": 0.140738758,
				"element": "C" 
			},
			{
				"x": 1.828724519,
				"y": 2.9644786157,
				"z": 0.2090405495,
				"element": "C" 
			},
			{
				"x": 2.6647015038,
				"y": 1.8839212981,
				"z": 0.4982758753,
				"element": "C" 
			},
			{
				"x": 2.1036915401,
				"y": 0.6270248127,
				"z": 0.7264157208,
				"element": "C" 
			},
			{
				"x": 0.720243647,
				"y": 0.4393667579,
				"z": 0.6794003975,
				"element": "C" 
			},
			{
				"x": -2.0932391956,
				"y": -0.2334919097,
				"z": -2.5919670807,
				"element": "C" 
			},
			{
				"x": -1.5175483046,
				"y": -1.0361802238,
				"z": -3.5284377128,
				"element": "C" 
			},
			{
				"x": -0.9192803882,
				"y": -2.1056530803,
				"z": -2.9471230645,
				"element": "O" 
			},
			{
				"x": -0.1838915464,
				"y": -4.4551665278,
				"z": -3.1036825522,
				"element": "H" 
			},
			{
				"x": 0.1673685081,
				"y": -4.8546312531,
				"z": -0.5363150246,
				"element": "H" 
			},
			{
				"x": -3.3734523912,
				"y": -0.3540050751,
				"z": 0.0766821738,
				"element": "H" 
			},
			{
				"x": -1.8932240414,
				"y": -0.9710294175,
				"z": 0.8149056839,
				"element": "H" 
			},
			{
				"x": -0.1962799875,
				"y": 3.6268340337,
				"z": -0.1039309932,
				"element": "H" 
			},
			{
				"x": 2.2508338556,
				"y": 3.9482896367,
				"z": 0.0233651465,
				"element": "H" 
			},
			{
				"x": 3.7411850476,
				"y": 2.0204745522,
				"z": 0.5424651031,
				"element": "H" 
			},
			{
				"x": 2.743029246,
				"y": -0.2221970433,
				"z": 0.951668514,
				"element": "H" 
			},
			{
				"x": 0.3136051683,
				"y": -0.5483173912,
				"z": 0.8685955716,
				"element": "H" 
			},
			{
				"x": -2.6238151196,
				"y": 0.6909670882,
				"z": -2.7660945238,
				"element": "H" 
			},
			{
				"x": -1.4441943454,
				"y": -0.9830341315,
				"z": -4.6040494969,
				"element": "H" 
			}
		],
		 "valence_orbital": [ 
			{
				"type": "occ",
				"energy": -0.27385,
				"method": "rhf"
			},
			{
				"type": "occ",
				"energy": -0.25984,
				"method": "rhf"
			},
			{
				"type": "occ",
				"energy": -0.24768,
				"method": "rhf"
			},
			{
				"type": "occ",
				"energy": -0.24263,
				"method": "rhf"
			},
			{
				"type": "occ",
				"energy": -0.20668,
				"method": "rhf"
			},
			{
				"type": "unocc",
				"energy": -0.05211,
				"method": "rhf"
			},
			{
				"type": "unocc",
				"energy": 0.0008,
				"method": "rhf"
			},
			{
				"type": "unocc",
				"energy": 0.0035,
				"method": "rhf"
			},
			{
				"type": "unocc",
				"energy": 0.02603,
				"method": "rhf"
			},
			{
				"type": "unocc",
				"energy": 0.045,
				"method": "rhf"
			}
		],
		"cosmo_sigma_profile": { 
			"-0.025": 0.0,
			"-0.024": 0.0,
			"-0.023": 0.0,
			"-0.022": 0.0,
			"-0.021": 0.0,
			"-0.02": 0.0,
			"-0.019": 0.0,
			"-0.018": 0.0,
			"-0.017": 0.131164840947,
			"-0.016": 0.925386952189,
			"-0.015": 1.01428550095,
			"-0.014": 1.5809741697,
			"-0.013": 1.8615489245,
			"-0.012": 1.57227628979,
			"-0.011": 1.80670561434,
			"-0.01": 2.63418355899,
			"-0.009": 2.91862807306,
			"-0.008": 5.73756990118,
			"-0.007": 6.32138671415,
			"-0.006": 11.8584423056,
			"-0.005": 14.5071338713,
			"-0.004": 18.3775138126,
			"-0.003": 18.3870390837,
			"-0.002": 16.3377701942,
			"-0.001": 17.019322796,
			"0.0": 16.4169834367,
			"0.001": 22.0386930009,
			"0.002": 19.2417814776,
			"0.003": 18.6772759975,
			"0.004": 19.3317039112,
			"0.005": 18.8014815159,
			"0.006": 13.3333567902,
			"0.007": 4.5208466396,
			"0.008": 4.94025618831,
			"0.009": 3.79736581011,
			"0.01": 3.29529713579,
			"0.011": 2.72061543634,
			"0.012": 2.33596874487,
			"0.013": 1.18225418872,
			"0.014": 0.000707145063551,
			"0.015": 0.0,
			"0.016": 0.0,
			"0.017": 0.0,
			"0.018": 0.0,
			"0.019": 0.0,
			"0.02": 0.0,
			"0.021": 0.0,
			"0.022": 0.0,
			"0.023": 0.0,
			"0.024": 0.0,
			"0.025": 0.0
		}
	}
}
