{
	 "smiles": "NC1=NN=C(CC2CCCC2)O1", 
	 "Tm": 448.15, 
	 "num_atms": 25, 
	 "gaussian": { 
		 "optdone": 1, 
		 "sigma_profile": "yes", 
		 "theory": "DFT", 
		 "functional": "B3LYP", 
		 "basiset": "6-31G**", 
		 "properties": { 
			 "R2extent": 2863.9913, 
			 "electric_dipole_moment_norm": 3.96668478959, 
			 "electric_quadrupole_moment_norm": 18.5364095606, 
			 "total_energy": -552.147348248, 
			 "HOMO_LUMO_gap": 0.24052, 
			 "cosmo_polarized_energy": -15.03, 
			 "cosmo_cavitation_energy": 27.4, 
			 "cosmo_dispersion_energy": -20.11, 
			 "cosmo_repulsion_energy": 1.63, 
			 "cosmo_total_nonelectrostatic_energy": 8.92, 
			 "SMD_solvation_energy": 2.26 
		},
		"coords": [
			{
				"x": 2.0290627202,
				"y": -1.4161956013,
				"z": -3.5635681387,
				"element": "N" 
			},
			{
				"x": 1.8144888658,
				"y": -1.3263179693,
				"z": -2.2130445263,
				"element": "C" 
			},
			{
				"x": 1.6695974122,
				"y": -2.2856563726,
				"z": -1.3503174837,
				"element": "N" 
			},
			{
				"x": 1.5774269539,
				"y": -1.6479729318,
				"z": -0.1005403597,
				"element": "N" 
			},
			{
				"x": 1.6616100227,
				"y": -0.3777008386,
				"z": -0.3111319243,
				"element": "C" 
			},
			{
				"x": 1.5848185488,
				"y": 0.7522382629,
				"z": 0.6523621713,
				"element": "C" 
			},
			{
				"x": 0.2920695941,
				"y": 1.5974756014,
				"z": 0.5195612985,
				"element": "C" 
			},
			{
				"x": -0.9741195898,
				"y": 0.810253344,
				"z": 0.9192171771,
				"element": "C" 
			},
			{
				"x": -1.0438116125,
				"y": 0.9075018207,
				"z": 2.4650714499,
				"element": "C" 
			},
			{
				"x": -0.203721302,
				"y": 2.1604745978,
				"z": 2.8552607206,
				"element": "C" 
			},
			{
				"x": 0.2798294251,
				"y": 2.7729950053,
				"z": 1.5186044079,
				"element": "C" 
			},
			{
				"x": 1.817773326,
				"y": -0.0869891916,
				"z": -1.656011662,
				"element": "O" 
			},
			{
				"x": 1.8204840167,
				"y": -2.333922776,
				"z": -3.93244089,
				"element": "H" 
			},
			{
				"x": 1.6476499064,
				"y": -0.6579053304,
				"z": -4.112561597,
				"element": "H" 
			},
			{
				"x": 1.6626445984,
				"y": 0.315824234,
				"z": 1.6523084795,
				"element": "H" 
			},
			{
				"x": 2.4568243813,
				"y": 1.4029114205,
				"z": 0.5104613785,
				"element": "H" 
			},
			{
				"x": 0.2301862936,
				"y": 1.956232418,
				"z": -0.5145241968,
				"element": "H" 
			},
			{
				"x": -1.8489886713,
				"y": 1.2962841408,
				"z": 0.4715984518,
				"element": "H" 
			},
			{
				"x": -0.9615243003,
				"y": -0.2246781279,
				"z": 0.5637293566,
				"element": "H" 
			},
			{
				"x": -0.6283583241,
				"y": 0.0065897186,
				"z": 2.9274201471,
				"element": "H" 
			},
			{
				"x": -2.0790598172,
				"y": 0.9827530875,
				"z": 2.8109067338,
				"element": "H" 
			},
			{
				"x": -0.7806442661,
				"y": 2.8820357252,
				"z": 3.441468007,
				"element": "H" 
			},
			{
				"x": 0.6503210562,
				"y": 1.8707101165,
				"z": 3.4766561823,
				"element": "H" 
			},
			{
				"x": 1.2505314927,
				"y": 3.2740642289,
				"z": 1.6041208309,
				"element": "H" 
			},
			{
				"x": -0.4382907308,
				"y": 3.5244954171,
				"z": 1.1694939858,
				"element": "H" 
			}
		],
		 "valence_orbital": [ 
			{
				"type": "occ",
				"energy": -0.32153,
				"method": "rhf"
			},
			{
				"type": "occ",
				"energy": -0.31283,
				"method": "rhf"
			},
			{
				"type": "occ",
				"energy": -0.30274,
				"method": "rhf"
			},
			{
				"type": "occ",
				"energy": -0.26489,
				"method": "rhf"
			},
			{
				"type": "occ",
				"energy": -0.22801,
				"method": "rhf"
			},
			{
				"type": "unocc",
				"energy": 0.01251,
				"method": "rhf"
			},
			{
				"type": "unocc",
				"energy": 0.05454,
				"method": "rhf"
			},
			{
				"type": "unocc",
				"energy": 0.07119,
				"method": "rhf"
			},
			{
				"type": "unocc",
				"energy": 0.07588,
				"method": "rhf"
			},
			{
				"type": "unocc",
				"energy": 0.09363,
				"method": "rhf"
			}
		],
		"cosmo_sigma_profile": { 
			"-0.025": 0.0,
			"-0.024": 0.0,
			"-0.023": 0.0,
			"-0.022": 0.0,
			"-0.021": 0.0,
			"-0.02": 0.0,
			"-0.019": 0.0,
			"-0.018": 0.0,
			"-0.017": 0.0,
			"-0.016": 0.0,
			"-0.015": 1.39996278767,
			"-0.014": 2.98010626124,
			"-0.013": 2.54939247246,
			"-0.012": 2.17252829223,
			"-0.011": 2.5297896984,
			"-0.01": 2.27934878196,
			"-0.009": 1.66262276803,
			"-0.008": 1.87867215495,
			"-0.007": 1.3575043261,
			"-0.006": 2.48757795445,
			"-0.005": 5.62536853619,
			"-0.004": 7.73726301527,
			"-0.003": 17.9148690013,
			"-0.002": 31.4314619222,
			"-0.001": 30.8405055333,
			"0.0": 23.6013243171,
			"0.001": 21.2867040862,
			"0.002": 11.0700455989,
			"0.003": 4.10607617624,
			"0.004": 4.76613153195,
			"0.005": 3.85021996763,
			"0.006": 3.41721855765,
			"0.007": 2.53692547978,
			"0.008": 2.16568620899,
			"0.009": 1.89490014206,
			"0.01": 2.94051422655,
			"0.011": 2.68142693677,
			"0.012": 2.91841847663,
			"0.013": 3.88316128542,
			"0.014": 3.00539670954,
			"0.015": 2.13844467087,
			"0.016": 2.4062778431,
			"0.017": 0.336733393791,
			"0.018": 0.0,
			"0.019": 0.0,
			"0.02": 0.0,
			"0.021": 0.0,
			"0.022": 0.0,
			"0.023": 0.0,
			"0.024": 0.0,
			"0.025": 0.0
		}
	}
}
