{
	 "smiles": "NC1=CC(NS(=O)(=O)CC2=CC=CC=C2)=C(F)C=C1", 
	 "Tm": 446.15, 
	 "num_atms": 32, 
	 "gaussian": { 
		 "optdone": 1, 
		 "sigma_profile": "yes", 
		 "theory": "DFT", 
		 "functional": "B3LYP", 
		 "basiset": "6-31G**", 
		 "properties": { 
			 "R2extent": 5606.221, 
			 "electric_dipole_moment_norm": 5.38657894586, 
			 "electric_quadrupole_moment_norm": 17.6048569778, 
			 "total_energy": -1261.13147087, 
			 "HOMO_LUMO_gap": 0.18203, 
			 "cosmo_polarized_energy": -19.05, 
			 "cosmo_cavitation_energy": 37.16, 
			 "cosmo_dispersion_energy": -26.21, 
			 "cosmo_repulsion_energy": 1.95, 
			 "cosmo_total_nonelectrostatic_energy": 12.9, 
			 "SMD_solvation_energy": 5.43 
		},
		"coords": [
			{
				"x": -3.4573347945,
				"y": 0.941323032,
				"z": -3.6989868161,
				"element": "N" 
			},
			{
				"x": -2.7728546629,
				"y": 1.2000374925,
				"z": -2.5114074686,
				"element": "C" 
			},
			{
				"x": -1.3907321445,
				"y": 0.9576160257,
				"z": -2.4311900637,
				"element": "C" 
			},
			{
				"x": -0.683981937,
				"y": 1.2586101571,
				"z": -1.2637826512,
				"element": "C" 
			},
			{
				"x": 0.713841769,
				"y": 1.0656868411,
				"z": -1.13506911,
				"element": "N" 
			},
			{
				"x": 1.5038609257,
				"y": -0.3705453915,
				"z": -1.5644136523,
				"element": "S" 
			},
			{
				"x": 2.9004520631,
				"y": -0.1515827319,
				"z": -1.1921446096,
				"element": "O" 
			},
			{
				"x": 1.1160013835,
				"y": -0.7088193276,
				"z": -2.9351425058,
				"element": "O" 
			},
			{
				"x": 0.798212634,
				"y": -1.6833311526,
				"z": -0.4858479673,
				"element": "C" 
			},
			{
				"x": 1.0577160351,
				"y": -1.4783328497,
				"z": 0.9795326244,
				"element": "C" 
			},
			{
				"x": 2.307375104,
				"y": -1.795967056,
				"z": 1.5319733433,
				"element": "C" 
			},
			{
				"x": 2.5487398666,
				"y": -1.5981218388,
				"z": 2.8902281937,
				"element": "C" 
			},
			{
				"x": 1.5466409294,
				"y": -1.0779269729,
				"z": 3.7131582255,
				"element": "C" 
			},
			{
				"x": 0.3022915149,
				"y": -0.7543917207,
				"z": 3.170975427,
				"element": "C" 
			},
			{
				"x": 0.0602614643,
				"y": -0.9509630398,
				"z": 1.8107949456,
				"element": "C" 
			},
			{
				"x": -1.3753748448,
				"y": 1.8258079618,
				"z": -0.1862537403,
				"element": "C" 
			},
			{
				"x": -0.6717272421,
				"y": 2.1179436542,
				"z": 0.9428988547,
				"element": "F" 
			},
			{
				"x": -2.7322361782,
				"y": 2.0908698092,
				"z": -0.2529661088,
				"element": "C" 
			},
			{
				"x": -3.4373248805,
				"y": 1.7724715127,
				"z": -1.4122482055,
				"element": "C" 
			},
			{
				"x": -3.0282328685,
				"y": 0.2575940004,
				"z": -4.3065801555,
				"element": "H" 
			},
			{
				"x": -4.452671966,
				"y": 0.7972405953,
				"z": -3.6043626417,
				"element": "H" 
			},
			{
				"x": -0.8540332691,
				"y": 0.5412860239,
				"z": -3.2753980006,
				"element": "H" 
			},
			{
				"x": 1.0996179792,
				"y": 1.4343467435,
				"z": -0.2706966478,
				"element": "H" 
			},
			{
				"x": 1.262523529,
				"y": -2.5937961896,
				"z": -0.8758923353,
				"element": "H" 
			},
			{
				"x": -0.2671672769,
				"y": -1.7080869131,
				"z": -0.7283795633,
				"element": "H" 
			},
			{
				"x": 3.091662294,
				"y": -2.1871489778,
				"z": 0.8912274193,
				"element": "H" 
			},
			{
				"x": 3.5197642057,
				"y": -1.8495058327,
				"z": 3.3065616445,
				"element": "H" 
			},
			{
				"x": 1.735671119,
				"y": -0.9260826111,
				"z": 4.771879668,
				"element": "H" 
			},
			{
				"x": -0.4808874929,
				"y": -0.3480451485,
				"z": 3.8040500728,
				"element": "H" 
			},
			{
				"x": -0.9115543103,
				"y": -0.7022036727,
				"z": 1.3938251518,
				"element": "H" 
			},
			{
				"x": -3.2268053583,
				"y": 2.5361242794,
				"z": 0.603737377,
				"element": "H" 
			},
			{
				"x": -4.5016135901,
				"y": 1.9807932981,
				"z": -1.4710807042,
				"element": "H" 
			}
		],
		 "valence_orbital": [ 
			{
				"type": "occ",
				"energy": -0.29868,
				"method": "rhf"
			},
			{
				"type": "occ",
				"energy": -0.25862,
				"method": "rhf"
			},
			{
				"type": "occ",
				"energy": -0.25536,
				"method": "rhf"
			},
			{
				"type": "occ",
				"energy": -0.23906,
				"method": "rhf"
			},
			{
				"type": "occ",
				"energy": -0.20661,
				"method": "rhf"
			},
			{
				"type": "unocc",
				"energy": -0.02458,
				"method": "rhf"
			},
			{
				"type": "unocc",
				"energy": -0.01321,
				"method": "rhf"
			},
			{
				"type": "unocc",
				"energy": -0.01061,
				"method": "rhf"
			},
			{
				"type": "unocc",
				"energy": 0.0101,
				"method": "rhf"
			},
			{
				"type": "unocc",
				"energy": 0.06026,
				"method": "rhf"
			}
		],
		"cosmo_sigma_profile": { 
			"-0.025": 0.0,
			"-0.024": 0.0,
			"-0.023": 0.0,
			"-0.022": 0.0,
			"-0.021": 0.0,
			"-0.02": 0.0,
			"-0.019": 0.0,
			"-0.018": 0.0,
			"-0.017": 0.0,
			"-0.016": 0.0,
			"-0.015": 0.0,
			"-0.014": 0.207207122135,
			"-0.013": 1.31086518839,
			"-0.012": 2.83668690355,
			"-0.011": 3.60484558379,
			"-0.01": 3.97062887944,
			"-0.009": 5.88401667822,
			"-0.008": 7.08499964059,
			"-0.007": 11.9659913346,
			"-0.006": 17.9978201512,
			"-0.005": 20.3714312567,
			"-0.004": 20.1589397208,
			"-0.003": 16.0744551679,
			"-0.002": 14.6528470773,
			"-0.001": 13.5053508924,
			"0.0": 12.7704484227,
			"0.001": 16.5859220811,
			"0.002": 16.655699605,
			"0.003": 20.5585655301,
			"0.004": 26.0811737554,
			"0.005": 21.6909158398,
			"0.006": 6.12767193251,
			"0.007": 5.79109911291,
			"0.008": 5.16073690815,
			"0.009": 4.7345290201,
			"0.01": 8.04965310406,
			"0.011": 9.12940315762,
			"0.012": 1.98714146964,
			"0.013": 0.466266680601,
			"0.014": 0.785095122946,
			"0.015": 0.00977660445248,
			"0.016": 0.0,
			"0.017": 0.0,
			"0.018": 0.0,
			"0.019": 0.0,
			"0.02": 0.0,
			"0.021": 0.0,
			"0.022": 0.0,
			"0.023": 0.0,
			"0.024": 0.0,
			"0.025": 0.0
		}
	}
}
