{
	 "smiles": "C1CC1C1=CC=CC=C1", 
	 "Tm": 242.15, 
	 "num_atms": 19, 
	 "gaussian": { 
		 "optdone": 1, 
		 "sigma_profile": "yes", 
		 "theory": "DFT", 
		 "functional": "B3LYP", 
		 "basiset": "6-31G**", 
		 "properties": { 
			 "R2extent": 1397.3775, 
			 "electric_dipole_moment_norm": 0.261376758722, 
			 "electric_quadrupole_moment_norm": 3.78427340318, 
			 "total_energy": -348.956225937, 
			 "HOMO_LUMO_gap": 0.23786, 
			 "cosmo_polarized_energy": -3.25, 
			 "cosmo_cavitation_energy": 21.93, 
			 "cosmo_dispersion_energy": -16.12, 
			 "cosmo_repulsion_energy": 1.33, 
			 "cosmo_total_nonelectrostatic_energy": 7.14, 
			 "SMD_solvation_energy": 3.3 
		},
		"coords": [
			{
				"x": 3.1131976851,
				"y": -0.5582899905,
				"z": 0.341660031,
				"element": "C" 
			},
			{
				"x": 2.4904009511,
				"y": -0.8740229439,
				"z": 1.6805915367,
				"element": "C" 
			},
			{
				"x": 1.6511254334,
				"y": -0.9301487097,
				"z": 0.425449508,
				"element": "C" 
			},
			{
				"x": 0.5753941555,
				"y": 0.0840003332,
				"z": 0.1641577353,
				"element": "C" 
			},
			{
				"x": -0.4468093086,
				"y": 0.3023853861,
				"z": 1.0983778272,
				"element": "C" 
			},
			{
				"x": -1.4695662794,
				"y": 1.2163085537,
				"z": 0.8407332252,
				"element": "C" 
			},
			{
				"x": -1.4866386752,
				"y": 1.9285549027,
				"z": -0.3601141574,
				"element": "C" 
			},
			{
				"x": -0.4746649158,
				"y": 1.7202385793,
				"z": -1.2993324527,
				"element": "C" 
			},
			{
				"x": 0.5461826425,
				"y": 0.8053488781,
				"z": -1.037578845,
				"element": "C" 
			},
			{
				"x": 3.3566016719,
				"y": 0.4796213138,
				"z": 0.1344119197,
				"element": "H" 
			},
			{
				"x": 3.8048714348,
				"y": -1.2752044754,
				"z": -0.090409325,
				"element": "H" 
			},
			{
				"x": 2.754402264,
				"y": -1.8077664365,
				"z": 2.1679201606,
				"element": "H" 
			},
			{
				"x": 2.3204733396,
				"y": -0.045695116,
				"z": 2.3620987285,
				"element": "H" 
			},
			{
				"x": 1.4081955634,
				"y": -1.9336740932,
				"z": 0.075830519,
				"element": "H" 
			},
			{
				"x": -0.4335663532,
				"y": -0.2484834808,
				"z": 2.0351876755,
				"element": "H" 
			},
			{
				"x": -2.251658281,
				"y": 1.3743854016,
				"z": 1.5784334746,
				"element": "H" 
			},
			{
				"x": -2.2805562975,
				"y": 2.6422982658,
				"z": -0.561137561,
				"element": "H" 
			},
			{
				"x": -0.4786954295,
				"y": 2.2724296922,
				"z": -2.2352427973,
				"element": "H" 
			},
			{
				"x": 1.3348103988,
				"y": 0.6472139395,
				"z": -1.7685372027,
				"element": "H" 
			}
		],
		 "valence_orbital": [ 
			{
				"type": "occ",
				"energy": -0.33296,
				"method": "rhf"
			},
			{
				"type": "occ",
				"energy": -0.29765,
				"method": "rhf"
			},
			{
				"type": "occ",
				"energy": -0.28443,
				"method": "rhf"
			},
			{
				"type": "occ",
				"energy": -0.24432,
				"method": "rhf"
			},
			{
				"type": "occ",
				"energy": -0.23561,
				"method": "rhf"
			},
			{
				"type": "unocc",
				"energy": 0.00225,
				"method": "rhf"
			},
			{
				"type": "unocc",
				"energy": 0.00395,
				"method": "rhf"
			},
			{
				"type": "unocc",
				"energy": 0.10053,
				"method": "rhf"
			},
			{
				"type": "unocc",
				"energy": 0.10503,
				"method": "rhf"
			},
			{
				"type": "unocc",
				"energy": 0.12401,
				"method": "rhf"
			}
		],
		"cosmo_sigma_profile": { 
			"-0.025": 0.0,
			"-0.024": 0.0,
			"-0.023": 0.0,
			"-0.022": 0.0,
			"-0.021": 0.0,
			"-0.02": 0.0,
			"-0.019": 0.0,
			"-0.018": 0.0,
			"-0.017": 0.0,
			"-0.016": 0.0,
			"-0.015": 0.0,
			"-0.014": 0.0,
			"-0.013": 0.0,
			"-0.012": 0.0,
			"-0.011": 0.0,
			"-0.01": 0.0,
			"-0.009": 0.0,
			"-0.008": 0.0,
			"-0.007": 0.0,
			"-0.006": 1.31990090943,
			"-0.005": 10.0255569132,
			"-0.004": 17.6811537954,
			"-0.003": 19.7683941954,
			"-0.002": 18.1478512223,
			"-0.001": 17.1063614551,
			"0.0": 16.9927856329,
			"0.001": 15.6923751225,
			"0.002": 13.6154949012,
			"0.003": 11.3730686471,
			"0.004": 10.1273483549,
			"0.005": 10.0426185819,
			"0.006": 8.81743341114,
			"0.007": 3.19485857246,
			"0.008": 0.0,
			"0.009": 0.0,
			"0.01": 0.0,
			"0.011": 0.0,
			"0.012": 0.0,
			"0.013": 0.0,
			"0.014": 0.0,
			"0.015": 0.0,
			"0.016": 0.0,
			"0.017": 0.0,
			"0.018": 0.0,
			"0.019": 0.0,
			"0.02": 0.0,
			"0.021": 0.0,
			"0.022": 0.0,
			"0.023": 0.0,
			"0.024": 0.0,
			"0.025": 0.0
		}
	}
}
