{
	 "smiles": "CN1C(N)=NC2=C1C(C)=CC1=C2C=CC=N1", 
	 "Tm": 570.15, 
	 "num_atms": 28, 
	 "gaussian": { 
		 "optdone": 1, 
		 "sigma_profile": "yes", 
		 "theory": "DFT", 
		 "functional": "B3LYP", 
		 "basiset": "6-31G**", 
		 "properties": { 
			 "R2extent": 4027.5872, 
			 "electric_dipole_moment_norm": 5.34590669298, 
			 "electric_quadrupole_moment_norm": 9.67182428914, 
			 "total_energy": -683.545846857, 
			 "HOMO_LUMO_gap": 0.16119, 
			 "cosmo_polarized_energy": -17.19, 
			 "cosmo_cavitation_energy": 30.9, 
			 "cosmo_dispersion_energy": -23.05, 
			 "cosmo_repulsion_energy": 1.75, 
			 "cosmo_total_nonelectrostatic_energy": 9.6, 
			 "SMD_solvation_energy": 1.77 
		},
		"coords": [
			{
				"x": 0.898025339,
				"y": -1.9635485947,
				"z": 2.1288845087,
				"element": "C" 
			},
			{
				"x": 0.1230071125,
				"y": -1.244819552,
				"z": 1.1315064462,
				"element": "N" 
			},
			{
				"x": -1.2108878703,
				"y": -0.9174489602,
				"z": 1.2611943431,
				"element": "C" 
			},
			{
				"x": -1.9179013879,
				"y": -1.2296672844,
				"z": 2.4182972424,
				"element": "N" 
			},
			{
				"x": -1.7326760557,
				"y": -0.3738196281,
				"z": 0.1850626123,
				"element": "N" 
			},
			{
				"x": -0.6886611221,
				"y": -0.3330999189,
				"z": -0.7190477727,
				"element": "C" 
			},
			{
				"x": 0.4891803479,
				"y": -0.8513432051,
				"z": -0.1621623569,
				"element": "C" 
			},
			{
				"x": 1.725845997,
				"y": -0.8858988457,
				"z": -0.8642808511,
				"element": "C" 
			},
			{
				"x": 3.0101517348,
				"y": -1.4190761119,
				"z": -0.2734684002,
				"element": "C" 
			},
			{
				"x": 1.7027269336,
				"y": -0.3937724679,
				"z": -2.1553848547,
				"element": "C" 
			},
			{
				"x": 0.5276956276,
				"y": 0.1305371667,
				"z": -2.7728936165,
				"element": "C" 
			},
			{
				"x": -0.703819639,
				"y": 0.1705328173,
				"z": -2.0475718138,
				"element": "C" 
			},
			{
				"x": -1.8433892778,
				"y": 0.7042335713,
				"z": -2.6883184981,
				"element": "C" 
			},
			{
				"x": -1.7231676667,
				"y": 1.160131604,
				"z": -3.982998293,
				"element": "C" 
			},
			{
				"x": -0.4613356863,
				"y": 1.0779643632,
				"z": -4.6193838204,
				"element": "C" 
			},
			{
				"x": 0.6274207973,
				"y": 0.5885949259,
				"z": -4.0544204511,
				"element": "N" 
			},
			{
				"x": 0.203287771,
				"y": -2.4626991234,
				"z": 2.8074876688,
				"element": "H" 
			},
			{
				"x": 1.5472582545,
				"y": -1.296285248,
				"z": 2.7074404117,
				"element": "H" 
			},
			{
				"x": 1.5147952578,
				"y": -2.7259175085,
				"z": 1.6519834502,
				"element": "H" 
			},
			{
				"x": -2.8812493229,
				"y": -0.9327350153,
				"z": 2.3142307055,
				"element": "H" 
			},
			{
				"x": -1.5206912764,
				"y": -0.8442199031,
				"z": 3.268541055,
				"element": "H" 
			},
			{
				"x": 2.9793118069,
				"y": -2.5058357656,
				"z": -0.1292872005,
				"element": "H" 
			},
			{
				"x": 3.2371279509,
				"y": -0.9665140165,
				"z": 0.6980746186,
				"element": "H" 
			},
			{
				"x": 3.8476550459,
				"y": -1.2046966236,
				"z": -0.9416017433,
				"element": "H" 
			},
			{
				"x": 2.6086384173,
				"y": -0.3880018095,
				"z": -2.7533468674,
				"element": "H" 
			},
			{
				"x": -2.7845751566,
				"y": 0.742101369,
				"z": -2.1485985502,
				"element": "H" 
			},
			{
				"x": -2.571825379,
				"y": 1.5771262133,
				"z": -4.5165068792,
				"element": "H" 
			},
			{
				"x": -0.3528485532,
				"y": 1.4355775518,
				"z": -5.6433310934,
				"element": "H" 
			}
		],
		 "valence_orbital": [ 
			{
				"type": "occ",
				"energy": -0.272,
				"method": "rhf"
			},
			{
				"type": "occ",
				"energy": -0.26155,
				"method": "rhf"
			},
			{
				"type": "occ",
				"energy": -0.23739,
				"method": "rhf"
			},
			{
				"type": "occ",
				"energy": -0.21785,
				"method": "rhf"
			},
			{
				"type": "occ",
				"energy": -0.19294,
				"method": "rhf"
			},
			{
				"type": "unocc",
				"energy": -0.03175,
				"method": "rhf"
			},
			{
				"type": "unocc",
				"energy": -0.00017,
				"method": "rhf"
			},
			{
				"type": "unocc",
				"energy": 0.02857,
				"method": "rhf"
			},
			{
				"type": "unocc",
				"energy": 0.06067,
				"method": "rhf"
			},
			{
				"type": "unocc",
				"energy": 0.07268,
				"method": "rhf"
			}
		],
		"cosmo_sigma_profile": { 
			"-0.025": 0.0,
			"-0.024": 0.0,
			"-0.023": 0.0,
			"-0.022": 0.0,
			"-0.021": 0.0,
			"-0.02": 0.0,
			"-0.019": 0.0,
			"-0.018": 0.0,
			"-0.017": 0.0,
			"-0.016": 0.0,
			"-0.015": 0.0,
			"-0.014": 0.659662813536,
			"-0.013": 2.23672147787,
			"-0.012": 2.44207767462,
			"-0.011": 2.9951585012,
			"-0.01": 2.85404315279,
			"-0.009": 2.46476275103,
			"-0.008": 1.69290353674,
			"-0.007": 3.66085908701,
			"-0.006": 13.0901010167,
			"-0.005": 20.6689485409,
			"-0.004": 21.2301763759,
			"-0.003": 18.8353113812,
			"-0.002": 14.801144855,
			"-0.001": 13.7076239281,
			"0.0": 13.1736065282,
			"0.001": 12.9201292587,
			"0.002": 13.7335016012,
			"0.003": 25.2394627449,
			"0.004": 17.7989628126,
			"0.005": 10.4003722181,
			"0.006": 5.4305211243,
			"0.007": 3.58186778322,
			"0.008": 3.69113720951,
			"0.009": 3.20210419857,
			"0.01": 2.90735138406,
			"0.011": 2.96487362757,
			"0.012": 2.72785316106,
			"0.013": 1.89249688766,
			"0.014": 1.68496449901,
			"0.015": 2.1179062401,
			"0.016": 0.942159105189,
			"0.017": 0.564677008369,
			"0.018": 0.0,
			"0.019": 0.0,
			"0.02": 0.0,
			"0.021": 0.0,
			"0.022": 0.0,
			"0.023": 0.0,
			"0.024": 0.0,
			"0.025": 0.0
		}
	}
}
