{
	 "smiles": "COC1=CC=C(C=C1OC)N=C=S", 
	 "Tm": 321.15, 
	 "num_atms": 22, 
	 "gaussian": { 
		 "optdone": 1, 
		 "sigma_profile": "yes", 
		 "theory": "DFT", 
		 "functional": "B3LYP", 
		 "basiset": "6-31G**", 
		 "properties": { 
			 "R2extent": 4217.068, 
			 "electric_dipole_moment_norm": 4.61315764092, 
			 "electric_quadrupole_moment_norm": 10.3085056114, 
			 "total_energy": -951.728272355, 
			 "HOMO_LUMO_gap": 0.179, 
			 "cosmo_polarized_energy": -7.39, 
			 "cosmo_cavitation_energy": 29.29, 
			 "cosmo_dispersion_energy": -21.37, 
			 "cosmo_repulsion_energy": 1.68, 
			 "cosmo_total_nonelectrostatic_energy": 9.61, 
			 "SMD_solvation_energy": 7.16 
		},
		"coords": [
			{
				"x": 3.0250215765,
				"y": -1.1814688019,
				"z": 2.1666887091,
				"element": "C" 
			},
			{
				"x": 3.1332694418,
				"y": -0.2068946489,
				"z": 1.118715467,
				"element": "O" 
			},
			{
				"x": 1.9694284105,
				"y": 0.0457275787,
				"z": 0.4345907668,
				"element": "C" 
			},
			{
				"x": 1.3782497849,
				"y": 1.3058850465,
				"z": 0.5497142527,
				"element": "C" 
			},
			{
				"x": 0.2117541516,
				"y": 1.6185207231,
				"z": -0.1417457129,
				"element": "C" 
			},
			{
				"x": -0.3838809688,
				"y": 0.6462040377,
				"z": -0.9600934966,
				"element": "C" 
			},
			{
				"x": 0.209823744,
				"y": -0.6188632762,
				"z": -1.0986979325,
				"element": "C" 
			},
			{
				"x": 1.3846515399,
				"y": -0.9178152685,
				"z": -0.4137142321,
				"element": "C" 
			},
			{
				"x": 1.9233681436,
				"y": -2.174074652,
				"z": -0.5550325673,
				"element": "O" 
			},
			{
				"x": 3.179333469,
				"y": -2.2192913703,
				"z": -1.2480539085,
				"element": "C" 
			},
			{
				"x": -1.5424534655,
				"y": 0.9330995301,
				"z": -1.6388003321,
				"element": "N" 
			},
			{
				"x": -2.5436608801,
				"y": 1.180597407,
				"z": -2.2249140143,
				"element": "C" 
			},
			{
				"x": -3.889794819,
				"y": 1.5138658063,
				"z": -3.0133728703,
				"element": "S" 
			},
			{
				"x": 2.3244472708,
				"y": -0.8403922372,
				"z": 2.9386289029,
				"element": "H" 
			},
			{
				"x": 4.0228300744,
				"y": -1.2731328762,
				"z": 2.5995595509,
				"element": "H" 
			},
			{
				"x": 2.6974965813,
				"y": -2.1502165348,
				"z": 1.7782331694,
				"element": "H" 
			},
			{
				"x": 1.8523298925,
				"y": 2.0355400673,
				"z": 1.1979319371,
				"element": "H" 
			},
			{
				"x": -0.2486816258,
				"y": 2.5955104552,
				"z": -0.0473570254,
				"element": "H" 
			},
			{
				"x": -0.2347798863,
				"y": -1.3717587699,
				"z": -1.7393403453,
				"element": "H" 
			},
			{
				"x": 3.0658229692,
				"y": -1.8515977927,
				"z": -2.2751011612,
				"element": "H" 
			},
			{
				"x": 3.4748471126,
				"y": -3.2697277131,
				"z": -1.2711015709,
				"element": "H" 
			},
			{
				"x": 3.941577483,
				"y": -1.6295167102,
				"z": -0.7303375865,
				"element": "H" 
			}
		],
		 "valence_orbital": [ 
			{
				"type": "occ",
				"energy": -0.28294,
				"method": "rhf"
			},
			{
				"type": "occ",
				"energy": -0.27384,
				"method": "rhf"
			},
			{
				"type": "occ",
				"energy": -0.25798,
				"method": "rhf"
			},
			{
				"type": "occ",
				"energy": -0.24881,
				"method": "rhf"
			},
			{
				"type": "occ",
				"energy": -0.22289,
				"method": "rhf"
			},
			{
				"type": "unocc",
				"energy": -0.04389,
				"method": "rhf"
			},
			{
				"type": "unocc",
				"energy": -0.01805,
				"method": "rhf"
			},
			{
				"type": "unocc",
				"energy": 0.00738,
				"method": "rhf"
			},
			{
				"type": "unocc",
				"energy": 0.04784,
				"method": "rhf"
			},
			{
				"type": "unocc",
				"energy": 0.07146,
				"method": "rhf"
			}
		],
		"cosmo_sigma_profile": { 
			"-0.025": 0.0,
			"-0.024": 0.0,
			"-0.023": 0.0,
			"-0.022": 0.0,
			"-0.021": 0.0,
			"-0.02": 0.0,
			"-0.019": 0.0,
			"-0.018": 0.0,
			"-0.017": 0.0,
			"-0.016": 0.0,
			"-0.015": 0.0,
			"-0.014": 0.0,
			"-0.013": 0.0,
			"-0.012": 0.0,
			"-0.011": 0.0,
			"-0.01": 0.0,
			"-0.009": 0.0,
			"-0.008": 1.4559947762,
			"-0.007": 5.07106268399,
			"-0.006": 8.63436890097,
			"-0.005": 13.6320742814,
			"-0.004": 18.2958470767,
			"-0.003": 24.4185090741,
			"-0.002": 22.2199283026,
			"-0.001": 26.6606009065,
			"0.0": 19.6696658091,
			"0.001": 19.245335626,
			"0.002": 18.7193586601,
			"0.003": 12.9745038825,
			"0.004": 8.92471766967,
			"0.005": 10.2425181407,
			"0.006": 15.4186906,
			"0.007": 4.60166161033,
			"0.008": 1.84170208322,
			"0.009": 1.58778561979,
			"0.01": 2.54128177454,
			"0.011": 1.49872186301,
			"0.012": 0.464785693568,
			"0.013": 0.0,
			"0.014": 0.0,
			"0.015": 0.0,
			"0.016": 0.0,
			"0.017": 0.0,
			"0.018": 0.0,
			"0.019": 0.0,
			"0.02": 0.0,
			"0.021": 0.0,
			"0.022": 0.0,
			"0.023": 0.0,
			"0.024": 0.0,
			"0.025": 0.0
		}
	}
}
