{
	 "smiles": "OCC1CCC(O1)N1C=NC2=C(O)N=CN=C12", 
	 "Tm": 448.15, 
	 "num_atms": 29, 
	 "gaussian": { 
		 "optdone": 1, 
		 "sigma_profile": "yes", 
		 "theory": "DFT", 
		 "functional": "B3LYP", 
		 "basiset": "6-31G**", 
		 "properties": { 
			 "R2extent": 5729.6926, 
			 "electric_dipole_moment_norm": 3.86595303774, 
			 "electric_quadrupole_moment_norm": 12.1736407134, 
			 "total_energy": -832.96892565, 
			 "HOMO_LUMO_gap": 0.20836, 
			 "cosmo_polarized_energy": -19.23, 
			 "cosmo_cavitation_energy": 32.7, 
			 "cosmo_dispersion_energy": -23.79, 
			 "cosmo_repulsion_energy": 1.83, 
			 "cosmo_total_nonelectrostatic_energy": 10.75, 
			 "SMD_solvation_energy": 1.02 
		},
		"coords": [
			{
				"x": -1.527828655,
				"y": 1.6548832942,
				"z": 2.1146288565,
				"element": "O" 
			},
			{
				"x": -2.4101422616,
				"y": 1.1182619455,
				"z": 1.1525166297,
				"element": "C" 
			},
			{
				"x": -2.0484234716,
				"y": 1.5775420586,
				"z": -0.258538538,
				"element": "C" 
			},
			{
				"x": -2.8328932883,
				"y": 0.8677210346,
				"z": -1.3800936778,
				"element": "C" 
			},
			{
				"x": -1.8722410996,
				"y": -0.2413687491,
				"z": -1.8297976827,
				"element": "C" 
			},
			{
				"x": -0.5028395284,
				"y": 0.418398401,
				"z": -1.6188503024,
				"element": "C" 
			},
			{
				"x": -0.6521416123,
				"y": 1.2514791412,
				"z": -0.4726228883,
				"element": "O" 
			},
			{
				"x": 0.5934149655,
				"y": -0.5033334048,
				"z": -1.3896812688,
				"element": "N" 
			},
			{
				"x": 0.7948479274,
				"y": -1.3453368111,
				"z": -0.3067230764,
				"element": "C" 
			},
			{
				"x": 1.8968152882,
				"y": -2.0484504702,
				"z": -0.3723256103,
				"element": "N" 
			},
			{
				"x": 2.4732666368,
				"y": -1.6559442808,
				"z": -1.5676940549,
				"element": "C" 
			},
			{
				"x": 3.6480298343,
				"y": -2.0034446327,
				"z": -2.2537566009,
				"element": "C" 
			},
			{
				"x": 4.4988717963,
				"y": -2.9118557219,
				"z": -1.7622240696,
				"element": "O" 
			},
			{
				"x": 3.9370701641,
				"y": -1.4264875933,
				"z": -3.421199879,
				"element": "N" 
			},
			{
				"x": 3.0823558166,
				"y": -0.51391492,
				"z": -3.9192689521,
				"element": "C" 
			},
			{
				"x": 1.9358036566,
				"y": -0.0925175073,
				"z": -3.3844394912,
				"element": "N" 
			},
			{
				"x": 1.6831013573,
				"y": -0.6894926839,
				"z": -2.2149152944,
				"element": "C" 
			},
			{
				"x": -0.6335208709,
				"y": 1.4886822007,
				"z": 1.7824317109,
				"element": "H" 
			},
			{
				"x": -3.4173605778,
				"y": 1.4671843937,
				"z": 1.4068370663,
				"element": "H" 
			},
			{
				"x": -2.4255542338,
				"y": 0.0137573002,
				"z": 1.1807308861,
				"element": "H" 
			},
			{
				"x": -2.1409541799,
				"y": 2.6684168533,
				"z": -0.3125503727,
				"element": "H" 
			},
			{
				"x": -3.0345169046,
				"y": 1.5603497525,
				"z": -2.2028861083,
				"element": "H" 
			},
			{
				"x": -3.7946779677,
				"y": 0.4798251634,
				"z": -1.031491286,
				"element": "H" 
			},
			{
				"x": -1.9571043104,
				"y": -1.1239662821,
				"z": -1.1876077651,
				"element": "H" 
			},
			{
				"x": -2.0187559501,
				"y": -0.5606572233,
				"z": -2.8642451143,
				"element": "H" 
			},
			{
				"x": -0.2053454194,
				"y": 1.0115793732,
				"z": -2.4922601415,
				"element": "H" 
			},
			{
				"x": 0.0896870799,
				"y": -1.3769731586,
				"z": 0.512528302,
				"element": "H" 
			},
			{
				"x": 5.2237211624,
				"y": -2.9769114595,
				"z": -2.4061900906,
				"element": "H" 
			},
			{
				"x": 3.3651146459,
				"y": -0.0727260134,
				"z": -4.8720111862,
				"element": "H" 
			}
		],
		 "valence_orbital": [ 
			{
				"type": "occ",
				"energy": -0.288,
				"method": "rhf"
			},
			{
				"type": "occ",
				"energy": -0.27356,
				"method": "rhf"
			},
			{
				"type": "occ",
				"energy": -0.26397,
				"method": "rhf"
			},
			{
				"type": "occ",
				"energy": -0.26097,
				"method": "rhf"
			},
			{
				"type": "occ",
				"energy": -0.24074,
				"method": "rhf"
			},
			{
				"type": "unocc",
				"energy": -0.03238,
				"method": "rhf"
			},
			{
				"type": "unocc",
				"energy": -0.00641,
				"method": "rhf"
			},
			{
				"type": "unocc",
				"energy": 0.02738,
				"method": "rhf"
			},
			{
				"type": "unocc",
				"energy": 0.06092,
				"method": "rhf"
			},
			{
				"type": "unocc",
				"energy": 0.07885,
				"method": "rhf"
			}
		],
		"cosmo_sigma_profile": { 
			"-0.025": 0.0,
			"-0.024": 0.0,
			"-0.023": 0.0,
			"-0.022": 0.0,
			"-0.021": 0.0,
			"-0.02": 0.0,
			"-0.019": 0.0,
			"-0.018": 0.793967925437,
			"-0.017": 0.902258547764,
			"-0.016": 0.57347044822,
			"-0.015": 0.491805829732,
			"-0.014": 0.192125497447,
			"-0.013": 0.950854076252,
			"-0.012": 1.64324090869,
			"-0.011": 1.40775064362,
			"-0.01": 1.9218170535,
			"-0.009": 2.17612709629,
			"-0.008": 4.90744667027,
			"-0.007": 7.54630855424,
			"-0.006": 9.79526942794,
			"-0.005": 25.4382131531,
			"-0.004": 25.6850443799,
			"-0.003": 18.8312561689,
			"-0.002": 23.4041967276,
			"-0.001": 22.2635125946,
			"0.0": 14.1169957575,
			"0.001": 11.2163052081,
			"0.002": 8.1832950687,
			"0.003": 8.80945085726,
			"0.004": 7.6477027429,
			"0.005": 6.79915544849,
			"0.006": 7.07812115947,
			"0.007": 6.07726307386,
			"0.008": 6.36551748165,
			"0.009": 8.9412558793,
			"0.01": 6.23736922007,
			"0.011": 3.6764832589,
			"0.012": 4.47772728881,
			"0.013": 4.88802899744,
			"0.014": 3.22390278166,
			"0.015": 1.71189135147,
			"0.016": 0.727246533006,
			"0.017": 0.0,
			"0.018": 0.0,
			"0.019": 0.0,
			"0.02": 0.0,
			"0.021": 0.0,
			"0.022": 0.0,
			"0.023": 0.0,
			"0.024": 0.0,
			"0.025": 0.0
		}
	}
}
