{
	 "smiles": "OCC1=CC=CC2=C1C=CN2", 
	 "Tm": 340.65, 
	 "num_atms": 20, 
	 "gaussian": { 
		 "optdone": 1, 
		 "sigma_profile": "yes", 
		 "theory": "DFT", 
		 "functional": "B3LYP", 
		 "basiset": "6-31G**", 
		 "properties": { 
			 "R2extent": 2357.3165, 
			 "electric_dipole_moment_norm": 2.45286143106, 
			 "electric_quadrupole_moment_norm": 17.8557150644, 
			 "total_energy": -478.346146302, 
			 "HOMO_LUMO_gap": 0.19243, 
			 "cosmo_polarized_energy": -13.13, 
			 "cosmo_cavitation_energy": 23.31, 
			 "cosmo_dispersion_energy": -17.68, 
			 "cosmo_repulsion_energy": 1.42, 
			 "cosmo_total_nonelectrostatic_energy": 7.05, 
			 "SMD_solvation_energy": 3.99 
		},
		"coords": [
			{
				"x": 2.6677660346,
				"y": -0.2331121575,
				"z": -1.9085717789,
				"element": "O" 
			},
			{
				"x": 1.5998271473,
				"y": -0.8451267104,
				"z": -1.2017743235,
				"element": "C" 
			},
			{
				"x": 1.5494641508,
				"y": -0.3300346371,
				"z": 0.216021615,
				"element": "C" 
			},
			{
				"x": 2.4550187438,
				"y": 0.6081523711,
				"z": 0.6950483559,
				"element": "C" 
			},
			{
				"x": 2.3938942671,
				"y": 1.0789343068,
				"z": 2.0238528183,
				"element": "C" 
			},
			{
				"x": 1.4270458474,
				"y": 0.6259492645,
				"z": 2.9110403432,
				"element": "C" 
			},
			{
				"x": 0.5137544011,
				"y": -0.3197456571,
				"z": 2.4294503,
				"element": "C" 
			},
			{
				"x": 0.5537420464,
				"y": -0.8096127465,
				"z": 1.0963617741,
				"element": "C" 
			},
			{
				"x": -0.5240719697,
				"y": -1.7536019958,
				"z": 0.9663147785,
				"element": "C" 
			},
			{
				"x": -1.162219733,
				"y": -1.8068236386,
				"z": 2.178442355,
				"element": "C" 
			},
			{
				"x": -0.5419858019,
				"y": -0.9458568143,
				"z": 3.0632762229,
				"element": "N" 
			},
			{
				"x": 2.6694165563,
				"y": -0.5864085621,
				"z": -2.8055773039,
				"element": "H" 
			},
			{
				"x": 1.7152429063,
				"y": -1.9427950537,
				"z": -1.1807723892,
				"element": "H" 
			},
			{
				"x": 0.6316483798,
				"y": -0.6422730961,
				"z": -1.6917705204,
				"element": "H" 
			},
			{
				"x": 3.2213152305,
				"y": 0.9802332459,
				"z": 0.0253360395,
				"element": "H" 
			},
			{
				"x": 3.121816406,
				"y": 1.8129870886,
				"z": 2.3574352773,
				"element": "H" 
			},
			{
				"x": 1.381710685,
				"y": 0.9896940136,
				"z": 3.933785022,
				"element": "H" 
			},
			{
				"x": -0.7958581161,
				"y": -2.3230494191,
				"z": 0.0890402196,
				"element": "H" 
			},
			{
				"x": -2.0158483963,
				"y": -2.3920125626,
				"z": 2.4895605427,
				"element": "H" 
			},
			{
				"x": -0.8166787855,
				"y": -0.7976972396,
				"z": 4.020200652,
				"element": "H" 
			}
		],
		 "valence_orbital": [ 
			{
				"type": "occ",
				"energy": -0.31618,
				"method": "rhf"
			},
			{
				"type": "occ",
				"energy": -0.27616,
				"method": "rhf"
			},
			{
				"type": "occ",
				"energy": -0.25501,
				"method": "rhf"
			},
			{
				"type": "occ",
				"energy": -0.21208,
				"method": "rhf"
			},
			{
				"type": "occ",
				"energy": -0.19445,
				"method": "rhf"
			},
			{
				"type": "unocc",
				"energy": -0.00202,
				"method": "rhf"
			},
			{
				"type": "unocc",
				"energy": 0.0398,
				"method": "rhf"
			},
			{
				"type": "unocc",
				"energy": 0.07702,
				"method": "rhf"
			},
			{
				"type": "unocc",
				"energy": 0.0786,
				"method": "rhf"
			},
			{
				"type": "unocc",
				"energy": 0.08268,
				"method": "rhf"
			}
		],
		"cosmo_sigma_profile": { 
			"-0.025": 0.0,
			"-0.024": 0.0,
			"-0.023": 0.0,
			"-0.022": 0.0,
			"-0.021": 0.0,
			"-0.02": 0.0,
			"-0.019": 0.0,
			"-0.018": 0.0,
			"-0.017": 0.0,
			"-0.016": 0.829003351093,
			"-0.015": 2.52473205618,
			"-0.014": 2.73403658121,
			"-0.013": 2.44545225133,
			"-0.012": 1.44210147338,
			"-0.011": 1.94868743214,
			"-0.01": 1.79767156456,
			"-0.009": 2.53165194927,
			"-0.008": 3.54989686105,
			"-0.007": 4.87437864064,
			"-0.006": 4.5099260711,
			"-0.005": 8.89844625019,
			"-0.004": 14.0975461347,
			"-0.003": 13.5505332227,
			"-0.002": 14.3247648466,
			"-0.001": 9.05555531202,
			"0.0": 8.06100244614,
			"0.001": 7.65960254398,
			"0.002": 6.78571530807,
			"0.003": 7.7777480174,
			"0.004": 10.0239139683,
			"0.005": 13.520257954,
			"0.006": 15.9164945281,
			"0.007": 13.89121163,
			"0.008": 4.43535037129,
			"0.009": 1.45013269846,
			"0.01": 1.74473076584,
			"0.011": 2.05733447349,
			"0.012": 1.5667358051,
			"0.013": 1.09764051872,
			"0.014": 0.111128918841,
			"0.015": 0.0,
			"0.016": 0.0,
			"0.017": 0.0,
			"0.018": 0.0,
			"0.019": 0.0,
			"0.02": 0.0,
			"0.021": 0.0,
			"0.022": 0.0,
			"0.023": 0.0,
			"0.024": 0.0,
			"0.025": 0.0
		}
	}
}
