{
	 "smiles": "O=C1CCCC(NC2=CC=CC=C2)=C1", 
	 "Tm": 453.15, 
	 "num_atms": 27, 
	 "gaussian": { 
		 "optdone": 1, 
		 "sigma_profile": "yes", 
		 "theory": "DFT", 
		 "functional": "B3LYP", 
		 "basiset": "6-31G**", 
		 "properties": { 
			 "R2extent": 3760.4549, 
			 "electric_dipole_moment_norm": 5.40856077437, 
			 "electric_quadrupole_moment_norm": 23.3810562619, 
			 "total_energy": -595.087866417, 
			 "HOMO_LUMO_gap": 0.16922, 
			 "cosmo_polarized_energy": -15.59, 
			 "cosmo_cavitation_energy": 29.7, 
			 "cosmo_dispersion_energy": -21.95, 
			 "cosmo_repulsion_energy": 1.73, 
			 "cosmo_total_nonelectrostatic_energy": 9.48, 
			 "SMD_solvation_energy": 5.05 
		},
		"coords": [
			{
				"x": -4.6976791126,
				"y": -0.9931487028,
				"z": 0.7348880186,
				"element": "O" 
			},
			{
				"x": -3.6527641602,
				"y": -0.7724469829,
				"z": 0.1281878364,
				"element": "C" 
			},
			{
				"x": -3.599902335,
				"y": -0.8391774907,
				"z": -1.3986123118,
				"element": "C" 
			},
			{
				"x": -2.1982474622,
				"y": -1.1761860522,
				"z": -1.9131569613,
				"element": "C" 
			},
			{
				"x": -1.1510556272,
				"y": -0.2096488929,
				"z": -1.3416820822,
				"element": "C" 
			},
			{
				"x": -1.24843847,
				"y": -0.1268894771,
				"z": 0.1656257579,
				"element": "C" 
			},
			{
				"x": -0.1258570161,
				"y": 0.1941006725,
				"z": 0.9002046481,
				"element": "N" 
			},
			{
				"x": 1.1632785069,
				"y": 0.5964395058,
				"z": 0.4968827839,
				"element": "C" 
			},
			{
				"x": 1.3928051699,
				"y": 1.4559646307,
				"z": -0.5892686105,
				"element": "C" 
			},
			{
				"x": 2.6943559407,
				"y": 1.8366916779,
				"z": -0.9160279069,
				"element": "C" 
			},
			{
				"x": 3.7798654236,
				"y": 1.3998873991,
				"z": -0.1559802466,
				"element": "C" 
			},
			{
				"x": 3.5513704234,
				"y": 0.5693857287,
				"z": 0.9436272163,
				"element": "C" 
			},
			{
				"x": 2.2586990882,
				"y": 0.1638957028,
				"z": 1.2639767586,
				"element": "C" 
			},
			{
				"x": -2.4191146967,
				"y": -0.4083602764,
				"z": 0.8112086021,
				"element": "C" 
			},
			{
				"x": -4.3484518257,
				"y": -1.5640311646,
				"z": -1.7303607479,
				"element": "H" 
			},
			{
				"x": -3.9161893444,
				"y": 0.1414301863,
				"z": -1.7842354689,
				"element": "H" 
			},
			{
				"x": -1.9368695919,
				"y": -2.1997556546,
				"z": -1.6181098307,
				"element": "H" 
			},
			{
				"x": -2.166101394,
				"y": -1.1423069139,
				"z": -3.007675039,
				"element": "H" 
			},
			{
				"x": -0.1421436689,
				"y": -0.5174524324,
				"z": -1.6328618742,
				"element": "H" 
			},
			{
				"x": -1.3073223577,
				"y": 0.7886759977,
				"z": -1.7738979935,
				"element": "H" 
			},
			{
				"x": -0.2285343078,
				"y": 0.0541787944,
				"z": 1.8964731745,
				"element": "H" 
			},
			{
				"x": 0.5590957913,
				"y": 1.8487628959,
				"z": -1.1580445181,
				"element": "H" 
			},
			{
				"x": 2.854056465,
				"y": 2.4995654259,
				"z": -1.7616208732,
				"element": "H" 
			},
			{
				"x": 4.7887060809,
				"y": 1.7087097954,
				"z": -0.4109568351,
				"element": "H" 
			},
			{
				"x": 4.3838684833,
				"y": 0.2244873235,
				"z": 1.5500140143,
				"element": "H" 
			},
			{
				"x": 2.0882213693,
				"y": -0.5017423519,
				"z": 2.1063439641,
				"element": "H" 
			},
			{
				"x": -2.4782513724,
				"y": -0.3544293443,
				"z": 1.8962585252,
				"element": "H" 
			}
		],
		 "valence_orbital": [ 
			{
				"type": "occ",
				"energy": -0.32513,
				"method": "rhf"
			},
			{
				"type": "occ",
				"energy": -0.2655,
				"method": "rhf"
			},
			{
				"type": "occ",
				"energy": -0.26373,
				"method": "rhf"
			},
			{
				"type": "occ",
				"energy": -0.21832,
				"method": "rhf"
			},
			{
				"type": "occ",
				"energy": -0.20452,
				"method": "rhf"
			},
			{
				"type": "unocc",
				"energy": -0.0353,
				"method": "rhf"
			},
			{
				"type": "unocc",
				"energy": -0.01491,
				"method": "rhf"
			},
			{
				"type": "unocc",
				"energy": 0.00596,
				"method": "rhf"
			},
			{
				"type": "unocc",
				"energy": 0.0675,
				"method": "rhf"
			},
			{
				"type": "unocc",
				"energy": 0.07369,
				"method": "rhf"
			}
		],
		"cosmo_sigma_profile": { 
			"-0.025": 0.0,
			"-0.024": 0.0,
			"-0.023": 0.0,
			"-0.022": 0.0,
			"-0.021": 0.0,
			"-0.02": 0.0,
			"-0.019": 0.0,
			"-0.018": 0.0,
			"-0.017": 0.0,
			"-0.016": 0.0,
			"-0.015": 0.386266271425,
			"-0.014": 1.25758037681,
			"-0.013": 0.861041360376,
			"-0.012": 0.970433012138,
			"-0.011": 2.14985776981,
			"-0.01": 1.3340980809,
			"-0.009": 1.14829166617,
			"-0.008": 2.48410713824,
			"-0.007": 3.91617902016,
			"-0.006": 9.51352029011,
			"-0.005": 14.7879741361,
			"-0.004": 23.0627936942,
			"-0.003": 24.4852976566,
			"-0.002": 24.3135392506,
			"-0.001": 18.5496867151,
			"0.0": 15.4102192014,
			"0.001": 11.9042138457,
			"0.002": 11.8024260303,
			"0.003": 12.3571734138,
			"0.004": 12.6976676838,
			"0.005": 13.5630687431,
			"0.006": 5.78889099424,
			"0.007": 1.51305943302,
			"0.008": 1.28034611936,
			"0.009": 1.51911639905,
			"0.01": 1.57882718069,
			"0.011": 1.77905188092,
			"0.012": 1.56881383967,
			"0.013": 2.68814322631,
			"0.014": 5.03487199321,
			"0.015": 4.0540242465,
			"0.016": 1.33543628427,
			"0.017": 0.0,
			"0.018": 0.0,
			"0.019": 0.0,
			"0.02": 0.0,
			"0.021": 0.0,
			"0.022": 0.0,
			"0.023": 0.0,
			"0.024": 0.0,
			"0.025": 0.0
		}
	}
}
