{
	 "smiles": "OC(=O)C1=CC(Br)=C(Cl)C=C1", 
	 "Tm": 493.15, 
	 "num_atms": 15, 
	 "gaussian": { 
		 "optdone": 1, 
		 "sigma_profile": "yes", 
		 "theory": "DFT", 
		 "functional": "B3LYP", 
		 "basiset": "6-31G**", 
		 "properties": { 
			 "R2extent": 4250.9936, 
			 "electric_dipole_moment_norm": 3.8708634799, 
			 "electric_quadrupole_moment_norm": 15.4841669734, 
			 "total_energy": -3451.20099401, 
			 "HOMO_LUMO_gap": 0.19575, 
			 "cosmo_polarized_energy": -14.01, 
			 "cosmo_cavitation_energy": 24.12, 
			 "cosmo_dispersion_energy": -18.4, 
			 "cosmo_repulsion_energy": 1.47, 
			 "cosmo_total_nonelectrostatic_energy": 7.19, 
			 "SMD_solvation_energy": 4.0 
		},
		"coords": [
			{
				"x": 0.7606138758,
				"y": -2.6294676381,
				"z": 2.6627130294,
				"element": "O" 
			},
			{
				"x": 1.5573000118,
				"y": -2.3183013614,
				"z": 1.6067200825,
				"element": "C" 
			},
			{
				"x": 2.5493064014,
				"y": -2.9685621773,
				"z": 1.3813796183,
				"element": "O" 
			},
			{
				"x": 1.1346450448,
				"y": -1.1502599272,
				"z": 0.763367365,
				"element": "C" 
			},
			{
				"x": 2.1116472716,
				"y": -0.5598973228,
				"z": -0.0446825154,
				"element": "C" 
			},
			{
				"x": 1.8002064552,
				"y": 0.5253901935,
				"z": -0.8592007756,
				"element": "C" 
			},
			{
				"x": 3.1766864294,
				"y": 1.2954245788,
				"z": -1.9145846986,
				"element": "Br" 
			},
			{
				"x": 0.4868404856,
				"y": 1.0200673149,
				"z": -0.8839336598,
				"element": "C" 
			},
			{
				"x": 0.0347080776,
				"y": 2.3724067858,
				"z": -1.8840076303,
				"element": "Cl" 
			},
			{
				"x": -0.4977982178,
				"y": 0.4171274974,
				"z": -0.0966727811,
				"element": "C" 
			},
			{
				"x": -0.1770973141,
				"y": -0.6600275814,
				"z": 0.7231152274,
				"element": "C" 
			},
			{
				"x": 0.1162343906,
				"y": -1.9261161975,
				"z": 2.821600928,
				"element": "H" 
			},
			{
				"x": 3.117621181,
				"y": -0.9616229422,
				"z": -0.0266838357,
				"element": "H" 
			},
			{
				"x": -1.512489719,
				"y": 0.7961463365,
				"z": -0.1406841028,
				"element": "H" 
			},
			{
				"x": -0.9718243739,
				"y": -1.131807559,
				"z": 1.2945537486,
				"element": "H" 
			}
		],
		 "valence_orbital": [ 
			{
				"type": "occ",
				"energy": -0.32755,
				"method": "rhf"
			},
			{
				"type": "occ",
				"energy": -0.30017,
				"method": "rhf"
			},
			{
				"type": "occ",
				"energy": -0.28892,
				"method": "rhf"
			},
			{
				"type": "occ",
				"energy": -0.27687,
				"method": "rhf"
			},
			{
				"type": "occ",
				"energy": -0.26617,
				"method": "rhf"
			},
			{
				"type": "unocc",
				"energy": -0.07042,
				"method": "rhf"
			},
			{
				"type": "unocc",
				"energy": -0.04576,
				"method": "rhf"
			},
			{
				"type": "unocc",
				"energy": -0.02462,
				"method": "rhf"
			},
			{
				"type": "unocc",
				"energy": 0.02808,
				"method": "rhf"
			},
			{
				"type": "unocc",
				"energy": 0.0344,
				"method": "rhf"
			}
		],
		"cosmo_sigma_profile": { 
			"-0.025": 0.0,
			"-0.024": 0.0,
			"-0.023": 0.0,
			"-0.022": 0.0,
			"-0.021": 0.0,
			"-0.02": 0.0227740514388,
			"-0.019": 0.870342812745,
			"-0.018": 1.02483470171,
			"-0.017": 1.21599413238,
			"-0.016": 0.598119787722,
			"-0.015": 0.977257258626,
			"-0.014": 0.906357463996,
			"-0.013": 1.56258842273,
			"-0.012": 1.185391482,
			"-0.011": 1.18642228893,
			"-0.01": 1.69454652775,
			"-0.009": 2.53802906723,
			"-0.008": 5.02971452465,
			"-0.007": 4.57417490359,
			"-0.006": 5.69945539956,
			"-0.005": 6.0405813735,
			"-0.004": 8.47004203434,
			"-0.003": 9.23359437929,
			"-0.002": 11.4082705778,
			"-0.001": 18.6236740159,
			"0.0": 25.1206592407,
			"0.001": 16.5472978433,
			"0.002": 13.5405559414,
			"0.003": 18.8409082505,
			"0.004": 12.779709605,
			"0.005": 4.80195738478,
			"0.006": 1.80397218934,
			"0.007": 2.80907012076,
			"0.008": 2.79457350056,
			"0.009": 3.52928031997,
			"0.01": 5.41948504108,
			"0.011": 5.30340004389,
			"0.012": 3.01461258246,
			"0.013": 0.627202891465,
			"0.014": 0.0,
			"0.015": 0.0,
			"0.016": 0.0,
			"0.017": 0.0,
			"0.018": 0.0,
			"0.019": 0.0,
			"0.02": 0.0,
			"0.021": 0.0,
			"0.022": 0.0,
			"0.023": 0.0,
			"0.024": 0.0,
			"0.025": 0.0
		}
	}
}
