{
	 "smiles": "C1CCCCC1", 
	 "Tm": 279.88, 
	 "num_atms": 18, 
	 "gaussian": { 
		 "optdone": 1, 
		 "sigma_profile": "yes", 
		 "theory": "DFT", 
		 "functional": "B3LYP", 
		 "basiset": "6-31G**", 
		 "properties": { 
			 "R2extent": 977.1517, 
			 "electric_dipole_moment_norm": 0.000141421356237, 
			 "electric_quadrupole_moment_norm": 0.414680780842, 
			 "total_energy": -235.882588159, 
			 "HOMO_LUMO_gap": 0.37221, 
			 "cosmo_polarized_energy": -0.39, 
			 "cosmo_cavitation_energy": 18.14, 
			 "cosmo_dispersion_energy": -14.18, 
			 "cosmo_repulsion_energy": 1.22, 
			 "cosmo_total_nonelectrostatic_energy": 5.19, 
			 "SMD_solvation_energy": 2.25 
		},
		"coords": [
			{
				"x": -0.443144647,
				"y": -1.7169056454,
				"z": -0.7301132845,
				"element": "C" 
			},
			{
				"x": 0.770425639,
				"y": -1.487889898,
				"z": 0.2040159598,
				"element": "C" 
			},
			{
				"x": 0.3500378757,
				"y": -0.932978563,
				"z": 1.5871810853,
				"element": "C" 
			},
			{
				"x": -0.913741236,
				"y": -0.069003629,
				"z": 1.4760900748,
				"element": "C" 
			},
			{
				"x": -2.1239384436,
				"y": -0.9090497725,
				"z": 0.9990407594,
				"element": "C" 
			},
			{
				"x": -1.7001907703,
				"y": -2.0763237306,
				"z": 0.073986705,
				"element": "C" 
			},
			{
				"x": -0.2140454133,
				"y": -2.4991598328,
				"z": -1.4627073293,
				"element": "H" 
			},
			{
				"x": -0.6438027988,
				"y": -0.8066322216,
				"z": -1.3103925103,
				"element": "H" 
			},
			{
				"x": 1.471991955,
				"y": -0.7956054219,
				"z": -0.2769267113,
				"element": "H" 
			},
			{
				"x": 1.3162419736,
				"y": -2.4290211749,
				"z": 0.342284347,
				"element": "H" 
			},
			{
				"x": 0.1499360893,
				"y": -1.7636586345,
				"z": 2.2767809083,
				"element": "H" 
			},
			{
				"x": 1.1730630078,
				"y": -0.361653007,
				"z": 2.0313987455,
				"element": "H" 
			},
			{
				"x": -0.7226097263,
				"y": 0.7461281856,
				"z": 0.765696062,
				"element": "H" 
			},
			{
				"x": -1.1411862545,
				"y": 0.4112727326,
				"z": 2.4345820879,
				"element": "H" 
			},
			{
				"x": -2.6623518399,
				"y": -1.3111958535,
				"z": 1.8657314505,
				"element": "H" 
			},
			{
				"x": -2.8329128058,
				"y": -0.2572056969,
				"z": 0.4744276266,
				"element": "H" 
			},
			{
				"x": -1.4906061624,
				"y": -2.9709519822,
				"z": 0.6750956105,
				"element": "H" 
			},
			{
				"x": -2.5248664423,
				"y": -2.3469658544,
				"z": -0.5951715873,
				"element": "H" 
			}
		],
		 "valence_orbital": [ 
			{
				"type": "occ",
				"energy": -0.35044,
				"method": "rhf"
			},
			{
				"type": "occ",
				"energy": -0.34281,
				"method": "rhf"
			},
			{
				"type": "occ",
				"energy": -0.29309,
				"method": "rhf"
			},
			{
				"type": "occ",
				"energy": -0.29204,
				"method": "rhf"
			},
			{
				"type": "occ",
				"energy": -0.29204,
				"method": "rhf"
			},
			{
				"type": "unocc",
				"energy": 0.08017,
				"method": "rhf"
			},
			{
				"type": "unocc",
				"energy": 0.10968,
				"method": "rhf"
			},
			{
				"type": "unocc",
				"energy": 0.1334,
				"method": "rhf"
			},
			{
				"type": "unocc",
				"energy": 0.14801,
				"method": "rhf"
			},
			{
				"type": "unocc",
				"energy": 0.15219,
				"method": "rhf"
			}
		],
		"cosmo_sigma_profile": { 
			"-0.025": 0.0,
			"-0.024": 0.0,
			"-0.023": 0.0,
			"-0.022": 0.0,
			"-0.021": 0.0,
			"-0.02": 0.0,
			"-0.019": 0.0,
			"-0.018": 0.0,
			"-0.017": 0.0,
			"-0.016": 0.0,
			"-0.015": 0.0,
			"-0.014": 0.0,
			"-0.013": 0.0,
			"-0.012": 0.0,
			"-0.011": 0.0,
			"-0.01": 0.0,
			"-0.009": 0.0,
			"-0.008": 0.0,
			"-0.007": 0.0,
			"-0.006": 0.0,
			"-0.005": 0.0,
			"-0.004": 0.0,
			"-0.003": 0.49864731409,
			"-0.002": 17.050628419,
			"-0.001": 31.1286787959,
			"0.0": 40.7048802176,
			"0.001": 30.7009489903,
			"0.002": 18.6240072004,
			"0.003": 0.0561753857896,
			"0.004": 0.0,
			"0.005": 0.0,
			"0.006": 0.0,
			"0.007": 0.0,
			"0.008": 0.0,
			"0.009": 0.0,
			"0.01": 0.0,
			"0.011": 0.0,
			"0.012": 0.0,
			"0.013": 0.0,
			"0.014": 0.0,
			"0.015": 0.0,
			"0.016": 0.0,
			"0.017": 0.0,
			"0.018": 0.0,
			"0.019": 0.0,
			"0.02": 0.0,
			"0.021": 0.0,
			"0.022": 0.0,
			"0.023": 0.0,
			"0.024": 0.0,
			"0.025": 0.0
		}
	}
}
