{
	 "smiles": "O=C1OC(=O)C2CC(CCC12)C1=CC=CC=C1", 
	 "Tm": 379.15, 
	 "num_atms": 31, 
	 "gaussian": { 
		 "optdone": 1, 
		 "sigma_profile": "yes", 
		 "theory": "DFT", 
		 "functional": "B3LYP", 
		 "basiset": "6-31G**", 
		 "properties": { 
			 "R2extent": 4996.6698, 
			 "electric_dipole_moment_norm": 5.06614731132, 
			 "electric_quadrupole_moment_norm": 21.7231604786, 
			 "total_energy": -767.624280726, 
			 "HOMO_LUMO_gap": 0.22371, 
			 "cosmo_polarized_energy": -14.87, 
			 "cosmo_cavitation_energy": 33.16, 
			 "cosmo_dispersion_energy": -23.77, 
			 "cosmo_repulsion_energy": 1.83, 
			 "cosmo_total_nonelectrostatic_energy": 11.22, 
			 "SMD_solvation_energy": 6.79 
		},
		"coords": [
			{
				"x": 4.807979074,
				"y": -1.2771923253,
				"z": 1.0802818606,
				"element": "O" 
			},
			{
				"x": 3.7279558604,
				"y": -1.5827315198,
				"z": 0.6622703984,
				"element": "C" 
			},
			{
				"x": 3.1868708917,
				"y": -2.8419692959,
				"z": 0.8977527491,
				"element": "O" 
			},
			{
				"x": 1.8870707375,
				"y": -2.9350431846,
				"z": 0.4076314396,
				"element": "C" 
			},
			{
				"x": 1.2577894888,
				"y": -3.9498132883,
				"z": 0.4970909381,
				"element": "O" 
			},
			{
				"x": 1.4606642773,
				"y": -1.5949947452,
				"z": -0.1716934721,
				"element": "C" 
			},
			{
				"x": 0.3460199177,
				"y": -0.9603203287,
				"z": 0.683677208,
				"element": "C" 
			},
			{
				"x": 0.003309792,
				"y": 0.4971930092,
				"z": 0.2438744179,
				"element": "C" 
			},
			{
				"x": 1.2765034392,
				"y": 1.2708019488,
				"z": -0.210090999,
				"element": "C" 
			},
			{
				"x": 2.5624746515,
				"y": 0.6784314222,
				"z": 0.3819047175,
				"element": "C" 
			},
			{
				"x": 2.7533216826,
				"y": -0.752529116,
				"z": -0.1588612392,
				"element": "C" 
			},
			{
				"x": -1.127889507,
				"y": 0.5410546967,
				"z": -0.775711954,
				"element": "C" 
			},
			{
				"x": -2.4209167453,
				"y": 0.8908884115,
				"z": -0.361217025,
				"element": "C" 
			},
			{
				"x": -3.4911059016,
				"y": 0.9029354052,
				"z": -1.2567693751,
				"element": "C" 
			},
			{
				"x": -3.288458518,
				"y": 0.5598881406,
				"z": -2.5939193024,
				"element": "C" 
			},
			{
				"x": -2.0079186714,
				"y": 0.2094452845,
				"z": -3.0244241289,
				"element": "C" 
			},
			{
				"x": -0.9405420976,
				"y": 0.2032911606,
				"z": -2.1253551633,
				"element": "C" 
			},
			{
				"x": 1.0830176694,
				"y": -1.7741876445,
				"z": -1.1826111532,
				"element": "H" 
			},
			{
				"x": -0.5453237447,
				"y": -1.5917307381,
				"z": 0.6524896868,
				"element": "H" 
			},
			{
				"x": 0.6800566195,
				"y": -0.9418009916,
				"z": 1.7280860188,
				"element": "H" 
			},
			{
				"x": -0.3734559359,
				"y": 0.9912600667,
				"z": 1.1469328129,
				"element": "H" 
			},
			{
				"x": 1.3582583657,
				"y": 1.2532263917,
				"z": -1.3031958738,
				"element": "H" 
			},
			{
				"x": 1.1779571932,
				"y": 2.3255879943,
				"z": 0.065482128,
				"element": "H" 
			},
			{
				"x": 3.433821161,
				"y": 1.2862648856,
				"z": 0.1240838529,
				"element": "H" 
			},
			{
				"x": 2.5087798457,
				"y": 0.6665809599,
				"z": 1.4768738909,
				"element": "H" 
			},
			{
				"x": 3.1743100273,
				"y": -0.6907227899,
				"z": -1.1706853361,
				"element": "H" 
			},
			{
				"x": -2.5904750139,
				"y": 1.1595395496,
				"z": 0.6788897667,
				"element": "H" 
			},
			{
				"x": -4.4816008011,
				"y": 1.1826694343,
				"z": -0.9091199026,
				"element": "H" 
			},
			{
				"x": -4.1182834573,
				"y": 0.5687496685,
				"z": -3.2944558078,
				"element": "H" 
			},
			{
				"x": -1.8367649753,
				"y": -0.0571320959,
				"z": -4.0636096429,
				"element": "H" 
			},
			{
				"x": 0.0481746744,
				"y": -0.0614403661,
				"z": -2.4901015109,
				"element": "H" 
			}
		],
		 "valence_orbital": [ 
			{
				"type": "occ",
				"energy": -0.32534,
				"method": "rhf"
			},
			{
				"type": "occ",
				"energy": -0.30257,
				"method": "rhf"
			},
			{
				"type": "occ",
				"energy": -0.27734,
				"method": "rhf"
			},
			{
				"type": "occ",
				"energy": -0.25856,
				"method": "rhf"
			},
			{
				"type": "occ",
				"energy": -0.25108,
				"method": "rhf"
			},
			{
				"type": "unocc",
				"energy": -0.02737,
				"method": "rhf"
			},
			{
				"type": "unocc",
				"energy": -0.01344,
				"method": "rhf"
			},
			{
				"type": "unocc",
				"energy": -0.01215,
				"method": "rhf"
			},
			{
				"type": "unocc",
				"energy": -0.00137,
				"method": "rhf"
			},
			{
				"type": "unocc",
				"energy": 0.06406,
				"method": "rhf"
			}
		],
		"cosmo_sigma_profile": { 
			"-0.025": 0.0,
			"-0.024": 0.0,
			"-0.023": 0.0,
			"-0.022": 0.0,
			"-0.021": 0.0,
			"-0.02": 0.0,
			"-0.019": 0.0,
			"-0.018": 0.0,
			"-0.017": 0.0,
			"-0.016": 0.0,
			"-0.015": 0.0,
			"-0.014": 0.0,
			"-0.013": 0.0,
			"-0.012": 0.0669354989486,
			"-0.011": 1.05148130583,
			"-0.01": 1.61489479081,
			"-0.009": 2.82345878332,
			"-0.008": 6.67720678715,
			"-0.007": 9.39743110803,
			"-0.006": 9.57351763278,
			"-0.005": 18.3834079288,
			"-0.004": 27.5425031626,
			"-0.003": 26.731240782,
			"-0.002": 22.1084339265,
			"-0.001": 18.7344483166,
			"0.0": 14.0899860262,
			"0.001": 10.2956904584,
			"0.002": 10.2120612999,
			"0.003": 10.4529416154,
			"0.004": 10.461922145,
			"0.005": 11.883928267,
			"0.006": 12.2377523886,
			"0.007": 8.70858008204,
			"0.008": 6.00959495757,
			"0.009": 5.99207199342,
			"0.01": 10.7547205935,
			"0.011": 5.95389503393,
			"0.012": 0.230790734491,
			"0.013": 0.0,
			"0.014": 0.0,
			"0.015": 0.0,
			"0.016": 0.0,
			"0.017": 0.0,
			"0.018": 0.0,
			"0.019": 0.0,
			"0.02": 0.0,
			"0.021": 0.0,
			"0.022": 0.0,
			"0.023": 0.0,
			"0.024": 0.0,
			"0.025": 0.0
		}
	}
}
