{
	 "smiles": "COC1=C(OC)C(OC)=C(CC(O)=O)C=C1", 
	 "Tm": 373.15, 
	 "num_atms": 30, 
	 "gaussian": { 
		 "optdone": 1, 
		 "sigma_profile": "yes", 
		 "theory": "DFT", 
		 "functional": "B3LYP", 
		 "basiset": "6-31G**", 
		 "properties": { 
			 "R2extent": 4154.5038, 
			 "electric_dipole_moment_norm": 2.61034686009, 
			 "electric_quadrupole_moment_norm": 14.2388780211, 
			 "total_energy": -803.690119812, 
			 "HOMO_LUMO_gap": 0.21706, 
			 "cosmo_polarized_energy": -13.98, 
			 "cosmo_cavitation_energy": 33.45, 
			 "cosmo_dispersion_energy": -23.11, 
			 "cosmo_repulsion_energy": 1.84, 
			 "cosmo_total_nonelectrostatic_energy": 12.17, 
			 "SMD_solvation_energy": 8.97 
		},
		"coords": [
			{
				"x": -0.3463160597,
				"y": -1.5498382354,
				"z": -3.9529787032,
				"element": "C" 
			},
			{
				"x": -0.0131406698,
				"y": -2.0954012752,
				"z": -2.6711040261,
				"element": "O" 
			},
			{
				"x": 0.2133904798,
				"y": -1.1494515799,
				"z": -1.6920016175,
				"element": "C" 
			},
			{
				"x": -0.870370753,
				"y": -0.4572830895,
				"z": -1.1132738358,
				"element": "C" 
			},
			{
				"x": -2.1567082848,
				"y": -0.6695606447,
				"z": -1.5663922807,
				"element": "O" 
			},
			{
				"x": -2.6985243559,
				"y": -1.9703316258,
				"z": -1.2983068415,
				"element": "C" 
			},
			{
				"x": -0.6153576765,
				"y": 0.5111018953,
				"z": -0.1244944751,
				"element": "C" 
			},
			{
				"x": -1.5533621747,
				"y": 1.3044378124,
				"z": 0.4710612792,
				"element": "O" 
			},
			{
				"x": -2.9003928337,
				"y": 0.8738824501,
				"z": 0.6613558379,
				"element": "C" 
			},
			{
				"x": 0.7102365424,
				"y": 0.7732787174,
				"z": 0.2843806137,
				"element": "C" 
			},
			{
				"x": 0.954707069,
				"y": 1.7990520613,
				"z": 1.3659368114,
				"element": "C" 
			},
			{
				"x": 0.5829036182,
				"y": 3.2350365044,
				"z": 1.0261504269,
				"element": "C" 
			},
			{
				"x": 0.8252844869,
				"y": 3.5434649843,
				"z": -0.2695079847,
				"element": "O" 
			},
			{
				"x": 0.1673772332,
				"y": 4.0469904215,
				"z": 1.8222643246,
				"element": "O" 
			},
			{
				"x": 1.7555624206,
				"y": 0.0551699542,
				"z": -0.2914653659,
				"element": "C" 
			},
			{
				"x": 1.5175310838,
				"y": -0.9039192029,
				"z": -1.2760190564,
				"element": "C" 
			},
			{
				"x": -0.4839078611,
				"y": -2.4014011977,
				"z": -4.6227846906,
				"element": "H" 
			},
			{
				"x": 0.4687725832,
				"y": -0.9197883253,
				"z": -4.3303095343,
				"element": "H" 
			},
			{
				"x": -1.2690985058,
				"y": -0.9622993584,
				"z": -3.9080521866,
				"element": "H" 
			},
			{
				"x": -2.7840835844,
				"y": -2.142083683,
				"z": -0.2176118353,
				"element": "H" 
			},
			{
				"x": -3.6953872626,
				"y": -1.9814829222,
				"z": -1.744192905,
				"element": "H" 
			},
			{
				"x": -2.0822856687,
				"y": -2.7548021391,
				"z": -1.7442040591,
				"element": "H" 
			},
			{
				"x": -3.3278108051,
				"y": 1.578218215,
				"z": 1.378339428,
				"element": "H" 
			},
			{
				"x": -3.4692302027,
				"y": 0.8958884821,
				"z": -0.2695734657,
				"element": "H" 
			},
			{
				"x": -2.9385412727,
				"y": -0.1358315353,
				"z": 1.0870962883,
				"element": "H" 
			},
			{
				"x": 2.0212104431,
				"y": 1.80566722,
				"z": 1.6219730465,
				"element": "H" 
			},
			{
				"x": 0.403231346,
				"y": 1.5605791447,
				"z": 2.2789301956,
				"element": "H" 
			},
			{
				"x": 0.5740826726,
				"y": 4.4771572725,
				"z": -0.3679944552,
				"element": "H" 
			},
			{
				"x": 2.7737989616,
				"y": 0.252159767,
				"z": 0.0320273196,
				"element": "H" 
			},
			{
				"x": 2.3255290307,
				"y": -1.4620100879,
				"z": -1.736648253,
				"element": "H" 
			}
		],
		 "valence_orbital": [ 
			{
				"type": "occ",
				"energy": -0.29529,
				"method": "rhf"
			},
			{
				"type": "occ",
				"energy": -0.26675,
				"method": "rhf"
			},
			{
				"type": "occ",
				"energy": -0.26195,
				"method": "rhf"
			},
			{
				"type": "occ",
				"energy": -0.22763,
				"method": "rhf"
			},
			{
				"type": "occ",
				"energy": -0.21673,
				"method": "rhf"
			},
			{
				"type": "unocc",
				"energy": 0.00033,
				"method": "rhf"
			},
			{
				"type": "unocc",
				"energy": 0.00745,
				"method": "rhf"
			},
			{
				"type": "unocc",
				"energy": 0.02322,
				"method": "rhf"
			},
			{
				"type": "unocc",
				"energy": 0.06879,
				"method": "rhf"
			},
			{
				"type": "unocc",
				"energy": 0.08621,
				"method": "rhf"
			}
		],
		"cosmo_sigma_profile": { 
			"-0.025": 0.0,
			"-0.024": 0.0,
			"-0.023": 0.0,
			"-0.022": 0.0,
			"-0.021": 0.0,
			"-0.02": 0.0,
			"-0.019": 0.0,
			"-0.018": 0.507562685584,
			"-0.017": 1.11583809227,
			"-0.016": 0.835272616323,
			"-0.015": 0.440032968648,
			"-0.014": 0.920604442956,
			"-0.013": 0.477785076296,
			"-0.012": 1.0281076246,
			"-0.011": 0.763069867331,
			"-0.01": 0.594508035101,
			"-0.009": 0.483541413499,
			"-0.008": 0.957815475529,
			"-0.007": 4.90671889304,
			"-0.006": 10.5069808501,
			"-0.005": 19.2346750449,
			"-0.004": 24.007127122,
			"-0.003": 30.8634072352,
			"-0.002": 29.3854540889,
			"-0.001": 16.9612503567,
			"0.0": 14.2433009408,
			"0.001": 12.717368806,
			"0.002": 12.6190562105,
			"0.003": 13.6240736954,
			"0.004": 12.1128723921,
			"0.005": 11.8965053761,
			"0.006": 7.71864756164,
			"0.007": 7.10212630868,
			"0.008": 6.63466500869,
			"0.009": 4.71290777401,
			"0.01": 4.32426810462,
			"0.011": 4.82541029543,
			"0.012": 5.92081630542,
			"0.013": 1.47133280542,
			"0.014": 0.0459482352077,
			"0.015": 0.0,
			"0.016": 0.0,
			"0.017": 0.0,
			"0.018": 0.0,
			"0.019": 0.0,
			"0.02": 0.0,
			"0.021": 0.0,
			"0.022": 0.0,
			"0.023": 0.0,
			"0.024": 0.0,
			"0.025": 0.0
		}
	}
}
