{
	 "smiles": "OC(=O)CCC1=CC=C(O1)C1=CC=CC=C1", 
	 "Tm": 392.15, 
	 "num_atms": 28, 
	 "gaussian": { 
		 "optdone": 1, 
		 "sigma_profile": "yes", 
		 "theory": "DFT", 
		 "functional": "B3LYP", 
		 "basiset": "6-31G**", 
		 "properties": { 
			 "R2extent": 4852.4261, 
			 "electric_dipole_moment_norm": 1.91322902706, 
			 "electric_quadrupole_moment_norm": 16.8132707657, 
			 "total_energy": -728.294316971, 
			 "HOMO_LUMO_gap": 0.16992, 
			 "cosmo_polarized_energy": -12.57, 
			 "cosmo_cavitation_energy": 33.12, 
			 "cosmo_dispersion_energy": -23.23, 
			 "cosmo_repulsion_energy": 1.83, 
			 "cosmo_total_nonelectrostatic_energy": 11.72, 
			 "SMD_solvation_energy": 6.86 
		},
		"coords": [
			{
				"x": 3.7078124265,
				"y": -2.1556460383,
				"z": -0.3303850561,
				"element": "O" 
			},
			{
				"x": 3.3047230751,
				"y": -0.9276414745,
				"z": -0.7484282815,
				"element": "C" 
			},
			{
				"x": 3.1866290617,
				"y": -0.6499086163,
				"z": -1.9200539816,
				"element": "O" 
			},
			{
				"x": 3.07418109,
				"y": 0.0224796964,
				"z": 0.4088485043,
				"element": "C" 
			},
			{
				"x": 2.3163619236,
				"y": -0.5957634907,
				"z": 1.6046764624,
				"element": "C" 
			},
			{
				"x": 0.9217206147,
				"y": -1.0124886531,
				"z": 1.2799127142,
				"element": "C" 
			},
			{
				"x": 0.3095844062,
				"y": -2.2230135371,
				"z": 1.1243080873,
				"element": "C" 
			},
			{
				"x": -1.0530558165,
				"y": -1.9545138749,
				"z": 0.7894061109,
				"element": "C" 
			},
			{
				"x": -1.1931112069,
				"y": -0.5905258854,
				"z": 0.7569216539,
				"element": "C" 
			},
			{
				"x": 0.015877934,
				"y": -0.0108042682,
				"z": 1.056732116,
				"element": "O" 
			},
			{
				"x": -2.3136286816,
				"y": 0.30209738,
				"z": 0.4866729052,
				"element": "C" 
			},
			{
				"x": -2.1525574574,
				"y": 1.69864643,
				"z": 0.5287947663,
				"element": "C" 
			},
			{
				"x": -3.2293748892,
				"y": 2.5435426227,
				"z": 0.2687238459,
				"element": "C" 
			},
			{
				"x": -4.4852482696,
				"y": 2.0162764056,
				"z": -0.0378322579,
				"element": "C" 
			},
			{
				"x": -4.6551073913,
				"y": 0.629798639,
				"z": -0.0823414581,
				"element": "C" 
			},
			{
				"x": -3.5833413252,
				"y": -0.2193725093,
				"z": 0.176444654,
				"element": "C" 
			},
			{
				"x": 3.8415316316,
				"y": -2.6796299903,
				"z": -1.1380011401,
				"element": "H" 
			},
			{
				"x": 2.543338987,
				"y": 0.8895601129,
				"z": 0.0112155778,
				"element": "H" 
			},
			{
				"x": 4.0603696864,
				"y": 0.3646334728,
				"z": 0.7486748266,
				"element": "H" 
			},
			{
				"x": 2.2987119245,
				"y": 0.1412998762,
				"z": 2.4166982711,
				"element": "H" 
			},
			{
				"x": 2.8614277361,
				"y": -1.4694664846,
				"z": 1.9698192564,
				"element": "H" 
			},
			{
				"x": 0.7794110966,
				"y": -3.1898263397,
				"z": 1.2349690955,
				"element": "H" 
			},
			{
				"x": -1.8270497033,
				"y": -2.6834293563,
				"z": 0.5986257769,
				"element": "H" 
			},
			{
				"x": -1.1789054896,
				"y": 2.1130205459,
				"z": 0.7657338919,
				"element": "H" 
			},
			{
				"x": -3.0855293954,
				"y": 3.6197619756,
				"z": 0.3053968268,
				"element": "H" 
			},
			{
				"x": -5.3228862659,
				"y": 2.6770742208,
				"z": -0.2404402628,
				"element": "H" 
			},
			{
				"x": -5.6274639373,
				"y": 0.2078015096,
				"z": -0.3202594377,
				"element": "H" 
			},
			{
				"x": -3.7299217652,
				"y": -1.2945623689,
				"z": 0.1377665326,
				"element": "H" 
			}
		],
		 "valence_orbital": [ 
			{
				"type": "occ",
				"energy": -0.28147,
				"method": "rhf"
			},
			{
				"type": "occ",
				"energy": -0.27422,
				"method": "rhf"
			},
			{
				"type": "occ",
				"energy": -0.26852,
				"method": "rhf"
			},
			{
				"type": "occ",
				"energy": -0.24887,
				"method": "rhf"
			},
			{
				"type": "occ",
				"energy": -0.19915,
				"method": "rhf"
			},
			{
				"type": "unocc",
				"energy": -0.02923,
				"method": "rhf"
			},
			{
				"type": "unocc",
				"energy": 0.00146,
				"method": "rhf"
			},
			{
				"type": "unocc",
				"energy": 0.00749,
				"method": "rhf"
			},
			{
				"type": "unocc",
				"energy": 0.04074,
				"method": "rhf"
			},
			{
				"type": "unocc",
				"energy": 0.07272,
				"method": "rhf"
			}
		],
		"cosmo_sigma_profile": { 
			"-0.025": 0.0,
			"-0.024": 0.0,
			"-0.023": 0.0,
			"-0.022": 0.0,
			"-0.021": 0.0,
			"-0.02": 0.0,
			"-0.019": 0.0244633333435,
			"-0.018": 0.579192350236,
			"-0.017": 1.02969472508,
			"-0.016": 0.875216461774,
			"-0.015": 0.643321779076,
			"-0.014": 0.75051532036,
			"-0.013": 0.42974397925,
			"-0.012": 0.725679560911,
			"-0.011": 0.876511287314,
			"-0.01": 1.01809103021,
			"-0.009": 0.242372949819,
			"-0.008": 0.934817400386,
			"-0.007": 7.40911867181,
			"-0.006": 11.6205577002,
			"-0.005": 20.0535826276,
			"-0.004": 24.4614062607,
			"-0.003": 21.3132791404,
			"-0.002": 16.9453218621,
			"-0.001": 16.1122161901,
			"0.0": 13.365514272,
			"0.001": 15.3465253464,
			"0.002": 18.2886593638,
			"0.003": 25.3310063573,
			"0.004": 18.7323824224,
			"0.005": 19.0801132376,
			"0.006": 8.94505124553,
			"0.007": 2.29753691454,
			"0.008": 3.11154159073,
			"0.009": 1.85321566579,
			"0.01": 2.27410002248,
			"0.011": 3.41792896692,
			"0.012": 4.88491080199,
			"0.013": 0.983121040827,
			"0.014": 0.0,
			"0.015": 0.0,
			"0.016": 0.0,
			"0.017": 0.0,
			"0.018": 0.0,
			"0.019": 0.0,
			"0.02": 0.0,
			"0.021": 0.0,
			"0.022": 0.0,
			"0.023": 0.0,
			"0.024": 0.0,
			"0.025": 0.0
		}
	}
}
