{
	 "smiles": "COC1=CC=C(CNC(=O)C2=CC(=CC(=C2)[N+]([O-])=O)[N+]([O-])=O)C=C1", 
	 "Tm": 424.15, 
	 "num_atms": 37, 
	 "gaussian": { 
		 "optdone": 1, 
		 "sigma_profile": "yes", 
		 "theory": "DFT", 
		 "functional": "B3LYP", 
		 "basiset": "6-31G**", 
		 "properties": { 
			 "R2extent": 14455.9963, 
			 "electric_dipole_moment_norm": 6.90499568863, 
			 "electric_quadrupole_moment_norm": 24.16684733, 
			 "total_energy": -1194.82998743, 
			 "HOMO_LUMO_gap": 0.11398, 
			 "cosmo_polarized_energy": -21.58, 
			 "cosmo_cavitation_energy": 44.64, 
			 "cosmo_dispersion_energy": -31.22, 
			 "cosmo_repulsion_energy": 2.37, 
			 "cosmo_total_nonelectrostatic_energy": 15.79, 
			 "SMD_solvation_energy": 12.97 
		},
		"coords": [
			{
				"x": 0.5401625688,
				"y": -4.7026790931,
				"z": -4.0257252512,
				"element": "C" 
			},
			{
				"x": 0.4045477642,
				"y": -3.2940588953,
				"z": -3.9126731879,
				"element": "O" 
			},
			{
				"x": -0.2258949713,
				"y": -2.7915232701,
				"z": -2.8146494943,
				"element": "C" 
			},
			{
				"x": -0.3336378327,
				"y": -1.3911144952,
				"z": -2.7633163638,
				"element": "C" 
			},
			{
				"x": -0.9602868836,
				"y": -0.7798370696,
				"z": -1.6880749748,
				"element": "C" 
			},
			{
				"x": -1.4954549108,
				"y": -1.5386800359,
				"z": -0.6321140749,
				"element": "C" 
			},
			{
				"x": -2.1779417369,
				"y": -0.8655756551,
				"z": 0.536330762,
				"element": "C" 
			},
			{
				"x": -1.245687868,
				"y": -0.0224106449,
				"z": 1.2891467879,
				"element": "N" 
			},
			{
				"x": -1.6552997508,
				"y": 1.1004718365,
				"z": 1.9410445542,
				"element": "C" 
			},
			{
				"x": -2.8175212281,
				"y": 1.4937888857,
				"z": 1.9425234039,
				"element": "O" 
			},
			{
				"x": -0.5875015789,
				"y": 1.8744485445,
				"z": 2.6815237651,
				"element": "C" 
			},
			{
				"x": -1.0275535923,
				"y": 2.7706157978,
				"z": 3.6635407358,
				"element": "C" 
			},
			{
				"x": -0.0936444101,
				"y": 3.5204169496,
				"z": 4.3691479677,
				"element": "C" 
			},
			{
				"x": 1.2738139474,
				"y": 3.4319566168,
				"z": 4.1283615282,
				"element": "C" 
			},
			{
				"x": 1.6800618063,
				"y": 2.5487604185,
				"z": 3.136340943,
				"element": "C" 
			},
			{
				"x": 0.7797783319,
				"y": 1.7717110742,
				"z": 2.4092107724,
				"element": "C" 
			},
			{
				"x": 3.121212432,
				"y": 2.4331834794,
				"z": 2.8364515658,
				"element": "N" 
			},
			{
				"x": 3.4510224462,
				"y": 1.6436694929,
				"z": 1.9532562609,
				"element": "O" 
			},
			{
				"x": 3.8923622568,
				"y": 3.1295094491,
				"z": 3.4899826158,
				"element": "O" 
			},
			{
				"x": -0.5643322006,
				"y": 4.4540402901,
				"z": 5.4146629381,
				"element": "N" 
			},
			{
				"x": -1.7737037353,
				"y": 4.5107073212,
				"z": 5.6163668724,
				"element": "O" 
			},
			{
				"x": 0.2889644871,
				"y": 5.1074729759,
				"z": 6.0098416164,
				"element": "O" 
			},
			{
				"x": -1.3781132793,
				"y": -2.9274476127,
				"z": -0.6952064556,
				"element": "C" 
			},
			{
				"x": -0.7531047382,
				"y": -3.5626413212,
				"z": -1.7735453528,
				"element": "C" 
			},
			{
				"x": 1.0633355952,
				"y": -4.8801178726,
				"z": -4.9663353867,
				"element": "H" 
			},
			{
				"x": -0.4368164618,
				"y": -5.2017666594,
				"z": -4.0562285,
				"element": "H" 
			},
			{
				"x": 1.1309516478,
				"y": -5.1197336915,
				"z": -3.2001058625,
				"element": "H" 
			},
			{
				"x": 0.0784103745,
				"y": -0.8110024858,
				"z": -3.5824770295,
				"element": "H" 
			},
			{
				"x": -1.0392260122,
				"y": 0.3039813972,
				"z": -1.6622638173,
				"element": "H" 
			},
			{
				"x": -2.9897086907,
				"y": -0.207442067,
				"z": 0.214259402,
				"element": "H" 
			},
			{
				"x": -2.6248838594,
				"y": -1.6198408963,
				"z": 1.197007623,
				"element": "H" 
			},
			{
				"x": -0.3189484612,
				"y": -0.38877763,
				"z": 1.4477527808,
				"element": "H" 
			},
			{
				"x": -2.0876766693,
				"y": 2.875461567,
				"z": 3.8576942285,
				"element": "H" 
			},
			{
				"x": 1.9859664527,
				"y": 4.0268908739,
				"z": 4.6834847058,
				"element": "H" 
			},
			{
				"x": 1.1730311917,
				"y": 1.1288481304,
				"z": 1.6311333807,
				"element": "H" 
			},
			{
				"x": -1.7847894209,
				"y": -3.5366497806,
				"z": 0.1085744756,
				"element": "H" 
			},
			{
				"x": -0.6841930103,
				"y": -4.6437359245,
				"z": -1.7872239346,
				"element": "H" 
			}
		],
		 "valence_orbital": [ 
			{
				"type": "occ",
				"energy": -0.30612,
				"method": "rhf"
			},
			{
				"type": "occ",
				"energy": -0.28154,
				"method": "rhf"
			},
			{
				"type": "occ",
				"energy": -0.27432,
				"method": "rhf"
			},
			{
				"type": "occ",
				"energy": -0.26352,
				"method": "rhf"
			},
			{
				"type": "occ",
				"energy": -0.2297,
				"method": "rhf"
			},
			{
				"type": "unocc",
				"energy": -0.11572,
				"method": "rhf"
			},
			{
				"type": "unocc",
				"energy": -0.10667,
				"method": "rhf"
			},
			{
				"type": "unocc",
				"energy": -0.06289,
				"method": "rhf"
			},
			{
				"type": "unocc",
				"energy": -0.01577,
				"method": "rhf"
			},
			{
				"type": "unocc",
				"energy": -0.0126,
				"method": "rhf"
			}
		],
		"cosmo_sigma_profile": { 
			"-0.025": 0.0,
			"-0.024": 0.0,
			"-0.023": 0.0,
			"-0.022": 0.0,
			"-0.021": 0.0,
			"-0.02": 0.0,
			"-0.019": 0.0,
			"-0.018": 0.0,
			"-0.017": 0.0,
			"-0.016": 0.483930898215,
			"-0.015": 1.17062788609,
			"-0.014": 1.21375246982,
			"-0.013": 1.02630334382,
			"-0.012": 1.13683851152,
			"-0.011": 1.13903463254,
			"-0.01": 1.62009445736,
			"-0.009": 1.9192210483,
			"-0.008": 4.8116916956,
			"-0.007": 6.01552514268,
			"-0.006": 19.8333421413,
			"-0.005": 32.1755212777,
			"-0.004": 39.2584402069,
			"-0.003": 39.7782156122,
			"-0.002": 24.493813826,
			"-0.001": 17.3029846129,
			"0.0": 14.7851820397,
			"0.001": 11.6057412943,
			"0.002": 14.2472483542,
			"0.003": 17.353776349,
			"0.004": 16.3418414066,
			"0.005": 19.0283187156,
			"0.006": 19.225966795,
			"0.007": 19.1529692773,
			"0.008": 11.1302288461,
			"0.009": 8.51685891106,
			"0.01": 3.42647285165,
			"0.011": 2.28664774733,
			"0.012": 2.88885979762,
			"0.013": 4.1014026256,
			"0.014": 0.0809381560828,
			"0.015": 0.0,
			"0.016": 0.0,
			"0.017": 0.0,
			"0.018": 0.0,
			"0.019": 0.0,
			"0.02": 0.0,
			"0.021": 0.0,
			"0.022": 0.0,
			"0.023": 0.0,
			"0.024": 0.0,
			"0.025": 0.0
		}
	}
}
