{
	 "smiles": "CC(=O)C1=CC=C(C=C1)C(F)(F)F", 
	 "Tm": 304.65, 
	 "num_atms": 20, 
	 "gaussian": { 
		 "optdone": 1, 
		 "sigma_profile": "yes", 
		 "theory": "DFT", 
		 "functional": "B3LYP", 
		 "basiset": "6-31G**", 
		 "properties": { 
			 "R2extent": 3543.8741, 
			 "electric_dipole_moment_norm": 2.37986727361, 
			 "electric_quadrupole_moment_norm": 13.3890262525, 
			 "total_energy": -721.932071838, 
			 "HOMO_LUMO_gap": 0.18623, 
			 "cosmo_polarized_energy": -7.91, 
			 "cosmo_cavitation_energy": 25.94, 
			 "cosmo_dispersion_energy": -18.39, 
			 "cosmo_repulsion_energy": 1.38, 
			 "cosmo_total_nonelectrostatic_energy": 8.94, 
			 "SMD_solvation_energy": 6.35 
		},
		"coords": [
			{
				"x": 0.8619573025,
				"y": 0.4776902573,
				"z": -3.4685702743,
				"element": "C" 
			},
			{
				"x": 0.11637184,
				"y": 0.8442469692,
				"z": -2.1979851979,
				"element": "C" 
			},
			{
				"x": -0.4679024549,
				"y": 1.9116734183,
				"z": -2.1013464462,
				"element": "O" 
			},
			{
				"x": 0.106930925,
				"y": -0.1312743728,
				"z": -1.0533966715,
				"element": "C" 
			},
			{
				"x": -0.588598655,
				"y": 0.2263177127,
				"z": 0.1119551949,
				"element": "C" 
			},
			{
				"x": -0.6311765013,
				"y": -0.634127484,
				"z": 1.20212361,
				"element": "C" 
			},
			{
				"x": 0.0257010406,
				"y": -1.8683274467,
				"z": 1.1385817479,
				"element": "C" 
			},
			{
				"x": 0.722755929,
				"y": -2.2361461586,
				"z": -0.0141774873,
				"element": "C" 
			},
			{
				"x": 0.7625724737,
				"y": -1.3694667552,
				"z": -1.1047754466,
				"element": "C" 
			},
			{
				"x": -0.0683614934,
				"y": -2.8249605228,
				"z": 2.2987424826,
				"element": "C" 
			},
			{
				"x": 0.9920493416,
				"y": -3.6601626344,
				"z": 2.3503399213,
				"element": "F" 
			},
			{
				"x": -1.1758902438,
				"y": -3.5968390121,
				"z": 2.2125248031,
				"element": "F" 
			},
			{
				"x": -0.1335254745,
				"y": -2.1738304331,
				"z": 3.4801671474,
				"element": "F" 
			},
			{
				"x": 0.7575010649,
				"y": 1.2950984439,
				"z": -4.1822534957,
				"element": "H" 
			},
			{
				"x": 0.4614121512,
				"y": -0.4424719197,
				"z": -3.9082378776,
				"element": "H" 
			},
			{
				"x": 1.9248982674,
				"y": 0.3067292362,
				"z": -3.2649550855,
				"element": "H" 
			},
			{
				"x": -1.0863415616,
				"y": 1.1896218733,
				"z": 0.1363157707,
				"element": "H" 
			},
			{
				"x": -1.1626619017,
				"y": -0.3521957712,
				"z": 2.1047195587,
				"element": "H" 
			},
			{
				"x": 1.2365030532,
				"y": -3.1903285488,
				"z": -0.0526640512,
				"element": "H" 
			},
			{
				"x": 1.3104048971,
				"y": -1.6653468516,
				"z": -1.9931082027,
				"element": "H" 
			}
		],
		 "valence_orbital": [ 
			{
				"type": "occ",
				"energy": -0.36498,
				"method": "rhf"
			},
			{
				"type": "occ",
				"energy": -0.36358,
				"method": "rhf"
			},
			{
				"type": "occ",
				"energy": -0.27892,
				"method": "rhf"
			},
			{
				"type": "occ",
				"energy": -0.27559,
				"method": "rhf"
			},
			{
				"type": "occ",
				"energy": -0.25946,
				"method": "rhf"
			},
			{
				"type": "unocc",
				"energy": -0.07323,
				"method": "rhf"
			},
			{
				"type": "unocc",
				"energy": -0.02614,
				"method": "rhf"
			},
			{
				"type": "unocc",
				"energy": 0.01717,
				"method": "rhf"
			},
			{
				"type": "unocc",
				"energy": 0.08177,
				"method": "rhf"
			},
			{
				"type": "unocc",
				"energy": 0.11084,
				"method": "rhf"
			}
		],
		"cosmo_sigma_profile": { 
			"-0.025": 0.0,
			"-0.024": 0.0,
			"-0.023": 0.0,
			"-0.022": 0.0,
			"-0.021": 0.0,
			"-0.02": 0.0,
			"-0.019": 0.0,
			"-0.018": 0.0,
			"-0.017": 0.0,
			"-0.016": 0.0,
			"-0.015": 0.0,
			"-0.014": 0.0,
			"-0.013": 0.0,
			"-0.012": 0.0,
			"-0.011": 0.0,
			"-0.01": 0.0,
			"-0.009": 0.0,
			"-0.008": 1.07489265697,
			"-0.007": 8.8342338066,
			"-0.006": 14.5968435509,
			"-0.005": 12.8740292235,
			"-0.004": 11.4712439359,
			"-0.003": 11.3946402874,
			"-0.002": 14.3770020679,
			"-0.001": 15.9177608363,
			"0.0": 16.0821404326,
			"0.001": 19.6238561004,
			"0.002": 33.7380081334,
			"0.003": 27.7118602313,
			"0.004": 2.20171108279,
			"0.005": 1.78472554363,
			"0.006": 1.88993100999,
			"0.007": 0.833264946387,
			"0.008": 1.76746260746,
			"0.009": 2.28701993257,
			"0.01": 1.91375473584,
			"0.011": 3.6957812619,
			"0.012": 2.91706307729,
			"0.013": 0.868912760008,
			"0.014": 0.0,
			"0.015": 0.0,
			"0.016": 0.0,
			"0.017": 0.0,
			"0.018": 0.0,
			"0.019": 0.0,
			"0.02": 0.0,
			"0.021": 0.0,
			"0.022": 0.0,
			"0.023": 0.0,
			"0.024": 0.0,
			"0.025": 0.0
		}
	}
}
