{
	 "smiles": "BrCN1C(=O)C2=C(C=CC=C2)C1=O", 
	 "Tm": 425.15, 
	 "num_atms": 19, 
	 "gaussian": { 
		 "optdone": 1, 
		 "sigma_profile": "yes", 
		 "theory": "DFT", 
		 "functional": "B3LYP", 
		 "basiset": "6-31G**", 
		 "properties": { 
			 "R2extent": 4167.1778, 
			 "electric_dipole_moment_norm": 4.58517819283, 
			 "electric_quadrupole_moment_norm": 20.9560780069, 
			 "total_energy": -3123.20746039, 
			 "HOMO_LUMO_gap": 0.17898, 
			 "cosmo_polarized_energy": -11.74, 
			 "cosmo_cavitation_energy": 26.73, 
			 "cosmo_dispersion_energy": -19.48, 
			 "cosmo_repulsion_energy": 1.53, 
			 "cosmo_total_nonelectrostatic_energy": 8.78, 
			 "SMD_solvation_energy": 4.63 
		},
		"coords": [
			{
				"x": 3.0322295452,
				"y": 1.3699977714,
				"z": 0.8462413435,
				"element": "Br" 
			},
			{
				"x": 1.2874968142,
				"y": 1.1875472104,
				"z": -0.1286462116,
				"element": "C" 
			},
			{
				"x": 0.6810571608,
				"y": -0.0780745054,
				"z": 0.0537822417,
				"element": "N" 
			},
			{
				"x": 0.9570793402,
				"y": -1.2077719384,
				"z": -0.7542949065,
				"element": "C" 
			},
			{
				"x": 1.6664503292,
				"y": -1.1995291754,
				"z": -1.7363321171,
				"element": "O" 
			},
			{
				"x": 0.1857200298,
				"y": -2.3254588017,
				"z": -0.1419970089,
				"element": "C" 
			},
			{
				"x": -0.4923903419,
				"y": -1.8388454608,
				"z": 0.9795697074,
				"element": "C" 
			},
			{
				"x": -1.3019564049,
				"y": -2.6609587237,
				"z": 1.7510398242,
				"element": "C" 
			},
			{
				"x": -1.4115458137,
				"y": -4.0028485644,
				"z": 1.3649263254,
				"element": "C" 
			},
			{
				"x": -0.7318143824,
				"y": -4.4906537628,
				"z": 0.2405996278,
				"element": "C" 
			},
			{
				"x": 0.0797925412,
				"y": -3.6525669751,
				"z": -0.5344379183,
				"element": "C" 
			},
			{
				"x": -0.1832195504,
				"y": -0.389559231,
				"z": 1.1314620786,
				"element": "C" 
			},
			{
				"x": -0.5692338797,
				"y": 0.4046268519,
				"z": 1.9608847702,
				"element": "O" 
			},
			{
				"x": 1.5346568071,
				"y": 1.3364739883,
				"z": -1.1758062618,
				"element": "H" 
			},
			{
				"x": 0.6540225601,
				"y": 1.9685538086,
				"z": 0.2818999087,
				"element": "H" 
			},
			{
				"x": -1.8243574318,
				"y": -2.2721688916,
				"z": 2.6189788603,
				"element": "H" 
			},
			{
				"x": -2.0328375737,
				"y": -4.6783721461,
				"z": 1.9450927971,
				"element": "H" 
			},
			{
				"x": -0.8374082521,
				"y": -5.5362732778,
				"z": -0.0322706353,
				"element": "H" 
			},
			{
				"x": 0.6098585027,
				"y": -4.0191181763,
				"z": -1.4073924253,
				"element": "H" 
			}
		],
		 "valence_orbital": [ 
			{
				"type": "occ",
				"energy": -0.28753,
				"method": "rhf"
			},
			{
				"type": "occ",
				"energy": -0.28306,
				"method": "rhf"
			},
			{
				"type": "occ",
				"energy": -0.28177,
				"method": "rhf"
			},
			{
				"type": "occ",
				"energy": -0.27334,
				"method": "rhf"
			},
			{
				"type": "occ",
				"energy": -0.2718,
				"method": "rhf"
			},
			{
				"type": "unocc",
				"energy": -0.09282,
				"method": "rhf"
			},
			{
				"type": "unocc",
				"energy": -0.05737,
				"method": "rhf"
			},
			{
				"type": "unocc",
				"energy": -0.00889,
				"method": "rhf"
			},
			{
				"type": "unocc",
				"energy": 0.01895,
				"method": "rhf"
			},
			{
				"type": "unocc",
				"energy": 0.07311,
				"method": "rhf"
			}
		],
		"cosmo_sigma_profile": { 
			"-0.025": 0.0,
			"-0.024": 0.0,
			"-0.023": 0.0,
			"-0.022": 0.0,
			"-0.021": 0.0,
			"-0.02": 0.0,
			"-0.019": 0.0,
			"-0.018": 0.0,
			"-0.017": 0.0,
			"-0.016": 0.0,
			"-0.015": 0.0,
			"-0.014": 0.0,
			"-0.013": 0.0,
			"-0.012": 0.0,
			"-0.011": 0.0,
			"-0.01": 0.445382575397,
			"-0.009": 2.57395495359,
			"-0.008": 6.86864551633,
			"-0.007": 13.8624220109,
			"-0.006": 16.2800420838,
			"-0.005": 12.5630262749,
			"-0.004": 12.057732064,
			"-0.003": 11.9548404234,
			"-0.002": 13.0351022626,
			"-0.001": 15.4612572066,
			"0.0": 15.9397507489,
			"0.001": 18.3768313058,
			"0.002": 15.0189531345,
			"0.003": 8.01501171674,
			"0.004": 10.0285974091,
			"0.005": 11.2322014385,
			"0.006": 9.92479829198,
			"0.007": 3.10831519912,
			"0.008": 3.32605854884,
			"0.009": 5.04423607774,
			"0.01": 8.2010169623,
			"0.011": 5.28787424523,
			"0.012": 0.227989953592,
			"0.013": 0.0,
			"0.014": 0.0,
			"0.015": 0.0,
			"0.016": 0.0,
			"0.017": 0.0,
			"0.018": 0.0,
			"0.019": 0.0,
			"0.02": 0.0,
			"0.021": 0.0,
			"0.022": 0.0,
			"0.023": 0.0,
			"0.024": 0.0,
			"0.025": 0.0
		}
	}
}
