{
	 "smiles": "COC1=CC2=C(C=C1)N(C1CCCC1)C(C)=C2C(O)=O", 
	 "Tm": 448.15, 
	 "num_atms": 39, 
	 "gaussian": { 
		 "optdone": 1, 
		 "sigma_profile": "yes", 
		 "theory": "DFT", 
		 "functional": "B3LYP", 
		 "basiset": "6-31G**", 
		 "properties": { 
			 "R2extent": 6646.0244, 
			 "electric_dipole_moment_norm": 6.45993935962, 
			 "electric_quadrupole_moment_norm": 14.493664154, 
			 "total_energy": -901.590722455, 
			 "HOMO_LUMO_gap": 0.17361, 
			 "cosmo_polarized_energy": -19.66, 
			 "cosmo_cavitation_energy": 39.41, 
			 "cosmo_dispersion_energy": -28.38, 
			 "cosmo_repulsion_energy": 2.15, 
			 "cosmo_total_nonelectrostatic_energy": 13.17, 
			 "SMD_solvation_energy": 7.27 
		},
		"coords": [
			{
				"x": -4.4003783676,
				"y": -1.0035203872,
				"z": 3.6974811968,
				"element": "C" 
			},
			{
				"x": -3.171223517,
				"y": -1.7054359181,
				"z": 3.6066742712,
				"element": "O" 
			},
			{
				"x": -2.2686958631,
				"y": -1.2894228527,
				"z": 2.6659629174,
				"element": "C" 
			},
			{
				"x": -2.476392152,
				"y": -0.2284252604,
				"z": 1.7910669865,
				"element": "C" 
			},
			{
				"x": -1.452756406,
				"y": 0.087043114,
				"z": 0.8796154879,
				"element": "C" 
			},
			{
				"x": -0.2517220745,
				"y": -0.6516849716,
				"z": 0.8628190113,
				"element": "C" 
			},
			{
				"x": -0.048554273,
				"y": -1.721184466,
				"z": 1.7464960527,
				"element": "C" 
			},
			{
				"x": -1.0623614667,
				"y": -2.0293305036,
				"z": 2.638704809,
				"element": "C" 
			},
			{
				"x": 0.5803513353,
				"y": -0.1143321841,
				"z": -0.1271954755,
				"element": "N" 
			},
			{
				"x": 1.9413678469,
				"y": -0.5992506045,
				"z": -0.3699291798,
				"element": "C" 
			},
			{
				"x": 2.243771779,
				"y": -1.0817917225,
				"z": -1.8088751695,
				"element": "C" 
			},
			{
				"x": 3.7770170092,
				"y": -1.022661405,
				"z": -1.8789358132,
				"element": "C" 
			},
			{
				"x": 4.1185366536,
				"y": 0.2964191978,
				"z": -1.1563446867,
				"element": "C" 
			},
			{
				"x": 3.0960223344,
				"y": 0.3910152548,
				"z": 0.0029903654,
				"element": "C" 
			},
			{
				"x": -0.0772977717,
				"y": 0.9401863189,
				"z": -0.7329000545,
				"element": "C" 
			},
			{
				"x": 0.5508851825,
				"y": 1.7845029502,
				"z": -1.8054936779,
				"element": "C" 
			},
			{
				"x": -1.3388627944,
				"y": 1.0837960276,
				"z": -0.154183502,
				"element": "C" 
			},
			{
				"x": -2.3999572703,
				"y": 2.058227753,
				"z": -0.4481413003,
				"element": "C" 
			},
			{
				"x": -2.3830100583,
				"y": 2.662822307,
				"z": -1.6808380038,
				"element": "O" 
			},
			{
				"x": -3.2856824988,
				"y": 2.3493149739,
				"z": 0.3278727446,
				"element": "O" 
			},
			{
				"x": -4.2456541143,
				"y": 0.0537544319,
				"z": 3.948276605,
				"element": "H" 
			},
			{
				"x": -4.9718552686,
				"y": -1.0644396066,
				"z": 2.7621799038,
				"element": "H" 
			},
			{
				"x": -4.9655387335,
				"y": -1.4853852509,
				"z": 4.4972093615,
				"element": "H" 
			},
			{
				"x": -3.3769717926,
				"y": 0.3697444443,
				"z": 1.7953150499,
				"element": "H" 
			},
			{
				"x": 0.8664434764,
				"y": -2.3046899319,
				"z": 1.7525911329,
				"element": "H" 
			},
			{
				"x": -0.9519676896,
				"y": -2.8462119669,
				"z": 3.3438807809,
				"element": "H" 
			},
			{
				"x": 2.0394301949,
				"y": -1.4712158302,
				"z": 0.2775456571,
				"element": "H" 
			},
			{
				"x": 1.8117643885,
				"y": -0.4031604075,
				"z": -2.549842641,
				"element": "H" 
			},
			{
				"x": 1.8295370429,
				"y": -2.0763894095,
				"z": -1.9981830508,
				"element": "H" 
			},
			{
				"x": 4.1600480352,
				"y": -1.0626499161,
				"z": -2.9029168007,
				"element": "H" 
			},
			{
				"x": 4.2101745198,
				"y": -1.8730271515,
				"z": -1.336750023,
				"element": "H" 
			},
			{
				"x": 3.9850887707,
				"y": 1.1356278447,
				"z": -1.8499546372,
				"element": "H" 
			},
			{
				"x": 5.154644679,
				"y": 0.3354624788,
				"z": -0.8082988234,
				"element": "H" 
			},
			{
				"x": 2.7225264,
				"y": 1.4067277703,
				"z": 0.1532712098,
				"element": "H" 
			},
			{
				"x": 3.5449286286,
				"y": 0.0865500175,
				"z": 0.9531816846,
				"element": "H" 
			},
			{
				"x": 0.1276796271,
				"y": 2.7911560734,
				"z": -1.7830742523,
				"element": "H" 
			},
			{
				"x": 0.3915581882,
				"y": 1.3727734853,
				"z": -2.8119525932,
				"element": "H" 
			},
			{
				"x": 1.6292508518,
				"y": 1.8842946423,
				"z": -1.6758750253,
				"element": "H" 
			},
			{
				"x": -1.7941448321,
				"y": 2.1764906612,
				"z": -2.2719505182,
				"element": "H" 
			}
		],
		 "valence_orbital": [ 
			{
				"type": "occ",
				"energy": -0.28887,
				"method": "rhf"
			},
			{
				"type": "occ",
				"energy": -0.27127,
				"method": "rhf"
			},
			{
				"type": "occ",
				"energy": -0.25476,
				"method": "rhf"
			},
			{
				"type": "occ",
				"energy": -0.20881,
				"method": "rhf"
			},
			{
				"type": "occ",
				"energy": -0.19775,
				"method": "rhf"
			},
			{
				"type": "unocc",
				"energy": -0.02414,
				"method": "rhf"
			},
			{
				"type": "unocc",
				"energy": 0.00782,
				"method": "rhf"
			},
			{
				"type": "unocc",
				"energy": 0.03636,
				"method": "rhf"
			},
			{
				"type": "unocc",
				"energy": 0.0477,
				"method": "rhf"
			},
			{
				"type": "unocc",
				"energy": 0.0618,
				"method": "rhf"
			}
		],
		"cosmo_sigma_profile": { 
			"-0.025": 0.0,
			"-0.024": 0.0,
			"-0.023": 0.0,
			"-0.022": 0.0,
			"-0.021": 0.0,
			"-0.02": 0.0,
			"-0.019": 0.0,
			"-0.018": 0.0,
			"-0.017": 0.169400782103,
			"-0.016": 0.74124664603,
			"-0.015": 1.14960060848,
			"-0.014": 0.500173157481,
			"-0.013": 0.658573014301,
			"-0.012": 1.24777781815,
			"-0.011": 1.30350561719,
			"-0.01": 1.24291316036,
			"-0.009": 0.792922934208,
			"-0.008": 2.76945995707,
			"-0.007": 4.41664882451,
			"-0.006": 10.9719084265,
			"-0.005": 20.6218798525,
			"-0.004": 29.3050151569,
			"-0.003": 33.94624493,
			"-0.002": 32.6891581939,
			"-0.001": 28.1980141476,
			"0.0": 24.1817116947,
			"0.001": 19.4111839527,
			"0.002": 10.5044947598,
			"0.003": 11.7811060533,
			"0.004": 13.1910826974,
			"0.005": 15.5082667759,
			"0.006": 11.1711110379,
			"0.007": 4.56385326215,
			"0.008": 3.73779495826,
			"0.009": 4.93756534696,
			"0.01": 4.49187977223,
			"0.011": 5.80187229374,
			"0.012": 5.13163362135,
			"0.013": 4.10443672092,
			"0.014": 1.58641195449,
			"0.015": 0.0513500940689,
			"0.016": 0.0,
			"0.017": 0.0,
			"0.018": 0.0,
			"0.019": 0.0,
			"0.02": 0.0,
			"0.021": 0.0,
			"0.022": 0.0,
			"0.023": 0.0,
			"0.024": 0.0,
			"0.025": 0.0
		}
	}
}
