{
	 "smiles": "CN(CC(=O)NC1=C(Cl)C=CC=C1)C(=O)CCl", 
	 "Tm": 389.15, 
	 "num_atms": 29, 
	 "gaussian": { 
		 "optdone": 1, 
		 "sigma_profile": "yes", 
		 "theory": "DFT", 
		 "functional": "B3LYP", 
		 "basiset": "6-31G**", 
		 "properties": { 
			 "R2extent": 7061.7914, 
			 "electric_dipole_moment_norm": 2.35404144399, 
			 "electric_quadrupole_moment_norm": 14.7661607018, 
			 "total_energy": -1606.74869237, 
			 "HOMO_LUMO_gap": 0.20475, 
			 "cosmo_polarized_energy": -15.74, 
			 "cosmo_cavitation_energy": 35.69, 
			 "cosmo_dispersion_energy": -24.8, 
			 "cosmo_repulsion_energy": 1.91, 
			 "cosmo_total_nonelectrostatic_energy": 12.8, 
			 "SMD_solvation_energy": 7.06 
		},
		"coords": [
			{
				"x": -1.5067825781,
				"y": 0.8306167736,
				"z": 1.6665409379,
				"element": "C" 
			},
			{
				"x": -0.4386621292,
				"y": -0.0920843259,
				"z": 1.2642626882,
				"element": "N" 
			},
			{
				"x": -0.7517824629,
				"y": -1.525587667,
				"z": 1.1411238731,
				"element": "C" 
			},
			{
				"x": -2.2501475126,
				"y": -1.7902342343,
				"z": 0.9490339607,
				"element": "C" 
			},
			{
				"x": -2.9827569355,
				"y": -1.9106941439,
				"z": 1.9204508713,
				"element": "O" 
			},
			{
				"x": -2.7659568,
				"y": -1.946483621,
				"z": -0.3205825142,
				"element": "N" 
			},
			{
				"x": -2.1856734873,
				"y": -1.866306514,
				"z": -1.600675757,
				"element": "C" 
			},
			{
				"x": -2.6396268589,
				"y": -2.7249653735,
				"z": -2.6215180783,
				"element": "C" 
			},
			{
				"x": -3.8945862062,
				"y": -3.9092506857,
				"z": -2.2733715089,
				"element": "Cl" 
			},
			{
				"x": -2.1234842594,
				"y": -2.6553389783,
				"z": -3.9121985065,
				"element": "C" 
			},
			{
				"x": -1.126259926,
				"y": -1.7266860124,
				"z": -4.2093686165,
				"element": "C" 
			},
			{
				"x": -0.6699523142,
				"y": -0.8626958029,
				"z": -3.2146612048,
				"element": "C" 
			},
			{
				"x": -1.2063796926,
				"y": -0.917940415,
				"z": -1.9300335072,
				"element": "C" 
			},
			{
				"x": 0.8589819187,
				"y": 0.360292055,
				"z": 1.3482582827,
				"element": "C" 
			},
			{
				"x": 1.1477545738,
				"y": 1.5240337056,
				"z": 1.5966077721,
				"element": "O" 
			},
			{
				"x": 1.9922963703,
				"y": -0.6509993338,
				"z": 1.1472487923,
				"element": "C" 
			},
			{
				"x": 2.2463035605,
				"y": -1.091679054,
				"z": -0.5973263883,
				"element": "Cl" 
			},
			{
				"x": -1.0543536839,
				"y": 1.8079886267,
				"z": 1.8192617809,
				"element": "H" 
			},
			{
				"x": -2.2689582179,
				"y": 0.9002672925,
				"z": 0.8843485826,
				"element": "H" 
			},
			{
				"x": -1.9862715544,
				"y": 0.4879968333,
				"z": 2.5880940652,
				"element": "H" 
			},
			{
				"x": -0.514133653,
				"y": -2.0568056394,
				"z": 2.0707062381,
				"element": "H" 
			},
			{
				"x": -0.1725633743,
				"y": -1.9594868904,
				"z": 0.3230912529,
				"element": "H" 
			},
			{
				"x": -3.7226150883,
				"y": -2.2822503038,
				"z": -0.286410178,
				"element": "H" 
			},
			{
				"x": -2.5004208107,
				"y": -3.3327112812,
				"z": -4.6703721164,
				"element": "H" 
			},
			{
				"x": -0.7181937125,
				"y": -1.6781565629,
				"z": -5.2137302797,
				"element": "H" 
			},
			{
				"x": 0.0959479888,
				"y": -0.1264180721,
				"z": -3.4357025027,
				"element": "H" 
			},
			{
				"x": -0.8723340655,
				"y": -0.2151106638,
				"z": -1.1760230413,
				"element": "H" 
			},
			{
				"x": 1.8415330142,
				"y": -1.5861174051,
				"z": 1.6885400908,
				"element": "H" 
			},
			{
				"x": 2.9053778971,
				"y": -0.1652923061,
				"z": 1.482505011,
				"element": "H" 
			}
		],
		 "valence_orbital": [ 
			{
				"type": "occ",
				"energy": -0.27792,
				"method": "rhf"
			},
			{
				"type": "occ",
				"energy": -0.26491,
				"method": "rhf"
			},
			{
				"type": "occ",
				"energy": -0.26373,
				"method": "rhf"
			},
			{
				"type": "occ",
				"energy": -0.25679,
				"method": "rhf"
			},
			{
				"type": "occ",
				"energy": -0.24242,
				"method": "rhf"
			},
			{
				"type": "unocc",
				"energy": -0.03767,
				"method": "rhf"
			},
			{
				"type": "unocc",
				"energy": -0.03116,
				"method": "rhf"
			},
			{
				"type": "unocc",
				"energy": -0.02662,
				"method": "rhf"
			},
			{
				"type": "unocc",
				"energy": 0.00623,
				"method": "rhf"
			},
			{
				"type": "unocc",
				"energy": 0.01365,
				"method": "rhf"
			}
		],
		"cosmo_sigma_profile": { 
			"-0.025": 0.0,
			"-0.024": 0.0,
			"-0.023": 0.0,
			"-0.022": 0.0,
			"-0.021": 0.0,
			"-0.02": 0.0,
			"-0.019": 0.0,
			"-0.018": 0.0,
			"-0.017": 0.0,
			"-0.016": 0.0,
			"-0.015": 0.0,
			"-0.014": 0.0,
			"-0.013": 0.175160957024,
			"-0.012": 0.630454704313,
			"-0.011": 0.719809907969,
			"-0.01": 2.61336520402,
			"-0.009": 4.77669840656,
			"-0.008": 6.14425729097,
			"-0.007": 12.4394801954,
			"-0.006": 17.0399416774,
			"-0.005": 18.5468962149,
			"-0.004": 19.7164676618,
			"-0.003": 18.3510029466,
			"-0.002": 21.1988887678,
			"-0.001": 17.3042289306,
			"0.0": 19.5083168984,
			"0.001": 21.3672057481,
			"0.002": 21.2225050142,
			"0.003": 21.8038283211,
			"0.004": 20.5943672137,
			"0.005": 10.4047044876,
			"0.006": 5.17860588659,
			"0.007": 1.48290422844,
			"0.008": 2.42270278903,
			"0.009": 2.79703694641,
			"0.01": 2.84789233776,
			"0.011": 3.9830305923,
			"0.012": 8.13730140769,
			"0.013": 6.47960668178,
			"0.014": 0.554929150471,
			"0.015": 0.0,
			"0.016": 0.0,
			"0.017": 0.0,
			"0.018": 0.0,
			"0.019": 0.0,
			"0.02": 0.0,
			"0.021": 0.0,
			"0.022": 0.0,
			"0.023": 0.0,
			"0.024": 0.0,
			"0.025": 0.0
		}
	}
}
