{
	 "smiles": "COC1=C(C=C(NC(=O)CCl)C=C1)S(=O)(=O)N1CCCCC1", 
	 "Tm": 416.15, 
	 "num_atms": 41, 
	 "gaussian": { 
		 "optdone": 1, 
		 "sigma_profile": "yes", 
		 "theory": "DFT", 
		 "functional": "B3LYP", 
		 "basiset": "6-31G**", 
		 "properties": { 
			 "R2extent": 11100.763, 
			 "electric_dipole_moment_norm": 4.49522467625, 
			 "electric_quadrupole_moment_norm": 18.9503431449, 
			 "total_energy": -1813.66257028, 
			 "HOMO_LUMO_gap": 0.18476, 
			 "cosmo_polarized_energy": -20.75, 
			 "cosmo_cavitation_energy": 45.8, 
			 "cosmo_dispersion_energy": -32.18, 
			 "cosmo_repulsion_energy": 2.44, 
			 "cosmo_total_nonelectrostatic_energy": 16.05, 
			 "SMD_solvation_energy": 7.02 
		},
		"coords": [
			{
				"x": -3.6326551794,
				"y": 1.402586001,
				"z": -0.1474292049,
				"element": "C" 
			},
			{
				"x": -2.2607765843,
				"y": 1.4410313676,
				"z": 0.2228742088,
				"element": "O" 
			},
			{
				"x": -1.7647036573,
				"y": 0.4278961777,
				"z": 0.9752493254,
				"element": "C" 
			},
			{
				"x": -0.425505034,
				"y": 0.5335527128,
				"z": 1.4062955849,
				"element": "C" 
			},
			{
				"x": 0.1531871618,
				"y": -0.4671971886,
				"z": 2.1780209662,
				"element": "C" 
			},
			{
				"x": -0.5781630806,
				"y": -1.6056264955,
				"z": 2.5401251889,
				"element": "C" 
			},
			{
				"x": 0.0809950982,
				"y": -2.5781368853,
				"z": 3.3265350835,
				"element": "N" 
			},
			{
				"x": -0.4111810561,
				"y": -3.7616717687,
				"z": 3.7791875988,
				"element": "C" 
			},
			{
				"x": -1.5363427774,
				"y": -4.2022337748,
				"z": 3.5791414368,
				"element": "O" 
			},
			{
				"x": 0.5247911862,
				"y": -4.6318853647,
				"z": 4.6259465469,
				"element": "C" 
			},
			{
				"x": 2.2103977799,
				"y": -4.0156297843,
				"z": 4.8997510353,
				"element": "Cl" 
			},
			{
				"x": -1.9067534523,
				"y": -1.7217843643,
				"z": 2.1155332959,
				"element": "C" 
			},
			{
				"x": -2.4852065063,
				"y": -0.7138962618,
				"z": 1.3428216449,
				"element": "C" 
			},
			{
				"x": 0.5735088531,
				"y": 1.9858384,
				"z": 1.0445448261,
				"element": "S" 
			},
			{
				"x": -0.1489807262,
				"y": 3.1866754137,
				"z": 1.4687390438,
				"element": "O" 
			},
			{
				"x": 1.9125865507,
				"y": 1.6983196223,
				"z": 1.5810934503,
				"element": "O" 
			},
			{
				"x": 0.6259601499,
				"y": 1.9823594463,
				"z": -0.6411980811,
				"element": "N" 
			},
			{
				"x": 1.7311527914,
				"y": 1.2251644723,
				"z": -1.2554876654,
				"element": "C" 
			},
			{
				"x": 1.368392499,
				"y": 0.8794827302,
				"z": -2.7040524874,
				"element": "C" 
			},
			{
				"x": 0.9892462491,
				"y": 2.1361622165,
				"z": -3.4994318015,
				"element": "C" 
			},
			{
				"x": -0.1208022224,
				"y": 2.913745321,
				"z": -2.7787108516,
				"element": "C" 
			},
			{
				"x": 0.2748966462,
				"y": 3.2351306367,
				"z": -1.3342631252,
				"element": "C" 
			},
			{
				"x": -3.8177892137,
				"y": 2.3265695362,
				"z": -0.6959178743,
				"element": "H" 
			},
			{
				"x": -3.8518298273,
				"y": 0.5453761378,
				"z": -0.7961670585,
				"element": "H" 
			},
			{
				"x": -4.2842385344,
				"y": 1.3674193807,
				"z": 0.7338251893,
				"element": "H" 
			},
			{
				"x": 1.1837922106,
				"y": -0.335861507,
				"z": 2.4935296361,
				"element": "H" 
			},
			{
				"x": 1.0363876036,
				"y": -2.3660229175,
				"z": 3.585285701,
				"element": "H" 
			},
			{
				"x": 0.0688384018,
				"y": -4.7664453081,
				"z": 5.6072366387,
				"element": "H" 
			},
			{
				"x": 0.6119770119,
				"y": -5.6047654341,
				"z": 4.1419797189,
				"element": "H" 
			},
			{
				"x": -2.478799497,
				"y": -2.5969006224,
				"z": 2.3902694636,
				"element": "H" 
			},
			{
				"x": -3.5152947669,
				"y": -0.8322874611,
				"z": 1.0295581618,
				"element": "H" 
			},
			{
				"x": 1.8992282741,
				"y": 0.3149467946,
				"z": -0.6756245209,
				"element": "H" 
			},
			{
				"x": 2.6642062472,
				"y": 1.808662923,
				"z": -1.2228789091,
				"element": "H" 
			},
			{
				"x": 2.2179476495,
				"y": 0.3661623279,
				"z": -3.1693872479,
				"element": "H" 
			},
			{
				"x": 0.5252571198,
				"y": 0.177616955,
				"z": -2.6987079735,
				"element": "H" 
			},
			{
				"x": 1.8735909507,
				"y": 2.7803524456,
				"z": -3.6051238801,
				"element": "H" 
			},
			{
				"x": 0.6742321273,
				"y": 1.8659153982,
				"z": -4.5136245779,
				"element": "H" 
			},
			{
				"x": -1.0419058437,
				"y": 2.3181559496,
				"z": -2.7640390743,
				"element": "H" 
			},
			{
				"x": -0.3423409261,
				"y": 3.8505148047,
				"z": -3.3034741933,
				"element": "H" 
			},
			{
				"x": 1.1274271091,
				"y": 3.9339357139,
				"z": -1.3263642677,
				"element": "H" 
			},
			{
				"x": -0.5456307858,
				"y": 3.7048722533,
				"z": -0.792960951,
				"element": "H" 
			}
		],
		 "valence_orbital": [ 
			{
				"type": "occ",
				"energy": -0.29196,
				"method": "rhf"
			},
			{
				"type": "occ",
				"energy": -0.27476,
				"method": "rhf"
			},
			{
				"type": "occ",
				"energy": -0.26972,
				"method": "rhf"
			},
			{
				"type": "occ",
				"energy": -0.24187,
				"method": "rhf"
			},
			{
				"type": "occ",
				"energy": -0.22031,
				"method": "rhf"
			},
			{
				"type": "unocc",
				"energy": -0.03555,
				"method": "rhf"
			},
			{
				"type": "unocc",
				"energy": -0.02145,
				"method": "rhf"
			},
			{
				"type": "unocc",
				"energy": 0.00628,
				"method": "rhf"
			},
			{
				"type": "unocc",
				"energy": 0.02785,
				"method": "rhf"
			},
			{
				"type": "unocc",
				"energy": 0.05879,
				"method": "rhf"
			}
		],
		"cosmo_sigma_profile": { 
			"-0.025": 0.0,
			"-0.024": 0.0,
			"-0.023": 0.0,
			"-0.022": 0.0,
			"-0.021": 0.0,
			"-0.02": 0.0,
			"-0.019": 0.0,
			"-0.018": 0.0,
			"-0.017": 0.0,
			"-0.016": 0.0,
			"-0.015": 0.0145008252486,
			"-0.014": 0.68299128974,
			"-0.013": 0.891281146855,
			"-0.012": 1.30419296298,
			"-0.011": 1.1916939779,
			"-0.01": 1.11977753026,
			"-0.009": 5.35815614929,
			"-0.008": 5.71197055022,
			"-0.007": 9.2964880376,
			"-0.006": 14.7803918666,
			"-0.005": 19.1537587448,
			"-0.004": 27.8860613877,
			"-0.003": 38.41000725,
			"-0.002": 36.5855938872,
			"-0.001": 31.9391305898,
			"0.0": 29.8824913791,
			"0.001": 23.9790817916,
			"0.002": 21.3674697646,
			"0.003": 16.4171062699,
			"0.004": 11.6405962984,
			"0.005": 12.2703930013,
			"0.006": 6.88462279409,
			"0.007": 5.17139443356,
			"0.008": 5.34755879938,
			"0.009": 6.37734132467,
			"0.01": 7.78489698054,
			"0.011": 11.8017374853,
			"0.012": 8.63648091153,
			"0.013": 1.70102372992,
			"0.014": 0.0397892359543,
			"0.015": 0.0,
			"0.016": 0.0,
			"0.017": 0.0,
			"0.018": 0.0,
			"0.019": 0.0,
			"0.02": 0.0,
			"0.021": 0.0,
			"0.022": 0.0,
			"0.023": 0.0,
			"0.024": 0.0,
			"0.025": 0.0
		}
	}
}
