{
	 "smiles": "FC(F)OC1=C(C=CC=C1)C1=NOC(CCl)=N1", 
	 "Tm": 290.15, 
	 "num_atms": 24, 
	 "gaussian": { 
		 "optdone": 1, 
		 "sigma_profile": "yes", 
		 "theory": "DFT", 
		 "functional": "B3LYP", 
		 "basiset": "6-31G**", 
		 "properties": { 
			 "R2extent": 5853.1125, 
			 "electric_dipole_moment_norm": 3.22654689878, 
			 "electric_quadrupole_moment_norm": 17.4572005605, 
			 "total_energy": -1305.05629723, 
			 "HOMO_LUMO_gap": 0.19171, 
			 "cosmo_polarized_energy": -10.91, 
			 "cosmo_cavitation_energy": 32.32, 
			 "cosmo_dispersion_energy": -23.29, 
			 "cosmo_repulsion_energy": 1.79, 
			 "cosmo_total_nonelectrostatic_energy": 10.82, 
			 "SMD_solvation_energy": 5.08 
		},
		"coords": [
			{
				"x": -3.2232962699,
				"y": 2.8360337263,
				"z": -1.6716182907,
				"element": "F" 
			},
			{
				"x": -2.1183482105,
				"y": 2.2319738091,
				"z": -2.1332675409,
				"element": "C" 
			},
			{
				"x": -2.1267081399,
				"y": 2.3258989562,
				"z": -3.4964269203,
				"element": "F" 
			},
			{
				"x": -2.2093345036,
				"y": 0.9090911045,
				"z": -1.7480862217,
				"element": "O" 
			},
			{
				"x": -1.1237126955,
				"y": 0.094066232,
				"z": -2.0337309849,
				"element": "C" 
			},
			{
				"x": -0.1469196854,
				"y": -0.167156416,
				"z": -1.0539746605,
				"element": "C" 
			},
			{
				"x": 0.8637565902,
				"y": -1.0971164384,
				"z": -1.3516774424,
				"element": "C" 
			},
			{
				"x": 0.913250127,
				"y": -1.7291260355,
				"z": -2.5901815278,
				"element": "C" 
			},
			{
				"x": -0.0558731279,
				"y": -1.4469610441,
				"z": -3.5554548779,
				"element": "C" 
			},
			{
				"x": -1.0757701413,
				"y": -0.5395479932,
				"z": -3.2743074427,
				"element": "C" 
			},
			{
				"x": -0.1327222435,
				"y": 0.4799042543,
				"z": 0.2657641714,
				"element": "C" 
			},
			{
				"x": -0.762450771,
				"y": 1.6015111607,
				"z": 0.5513498644,
				"element": "N" 
			},
			{
				"x": -0.4359602062,
				"y": 1.8315179198,
				"z": 1.8923817538,
				"element": "O" 
			},
			{
				"x": 0.3657946583,
				"y": 0.8228617167,
				"z": 2.2680196745,
				"element": "C" 
			},
			{
				"x": 0.8741726969,
				"y": 0.8016126843,
				"z": 3.6646612899,
				"element": "C" 
			},
			{
				"x": 2.2781311221,
				"y": 1.9327331113,
				"z": 3.8814678023,
				"element": "Cl" 
			},
			{
				"x": 0.5945701745,
				"y": -0.0378408316,
				"z": 1.3238293272,
				"element": "N" 
			},
			{
				"x": -1.2225195213,
				"y": 2.7306223747,
				"z": -1.7535214432,
				"element": "H" 
			},
			{
				"x": 1.6064866513,
				"y": -1.3101060038,
				"z": -0.5910494306,
				"element": "H" 
			},
			{
				"x": 1.7047207021,
				"y": -2.441441311,
				"z": -2.800590011,
				"element": "H" 
			},
			{
				"x": -0.0236452904,
				"y": -1.9363129741,
				"z": -4.5241612938,
				"element": "H" 
			},
			{
				"x": -1.8512498419,
				"y": -0.3138627654,
				"z": -3.99685199,
				"element": "H" 
			},
			{
				"x": 0.1025822513,
				"y": 1.1190905083,
				"z": 4.3658164875,
				"element": "H" 
			},
			{
				"x": 1.2229456746,
				"y": -0.2008457447,
				"z": 3.9047097075,
				"element": "H" 
			}
		],
		 "valence_orbital": [ 
			{
				"type": "occ",
				"energy": -0.31865,
				"method": "rhf"
			},
			{
				"type": "occ",
				"energy": -0.31348,
				"method": "rhf"
			},
			{
				"type": "occ",
				"energy": -0.30739,
				"method": "rhf"
			},
			{
				"type": "occ",
				"energy": -0.26645,
				"method": "rhf"
			},
			{
				"type": "occ",
				"energy": -0.25907,
				"method": "rhf"
			},
			{
				"type": "unocc",
				"energy": -0.06736,
				"method": "rhf"
			},
			{
				"type": "unocc",
				"energy": -0.04411,
				"method": "rhf"
			},
			{
				"type": "unocc",
				"energy": -0.01929,
				"method": "rhf"
			},
			{
				"type": "unocc",
				"energy": 0.02782,
				"method": "rhf"
			},
			{
				"type": "unocc",
				"energy": 0.04952,
				"method": "rhf"
			}
		],
		"cosmo_sigma_profile": { 
			"-0.025": 0.0,
			"-0.024": 0.0,
			"-0.023": 0.0,
			"-0.022": 0.0,
			"-0.021": 0.0,
			"-0.02": 0.0,
			"-0.019": 0.0,
			"-0.018": 0.0,
			"-0.017": 0.0,
			"-0.016": 0.0,
			"-0.015": 0.0,
			"-0.014": 0.0,
			"-0.013": 0.0,
			"-0.012": 0.0,
			"-0.011": 0.501481253916,
			"-0.01": 4.82457148434,
			"-0.009": 5.87334310809,
			"-0.008": 6.90083026686,
			"-0.007": 11.1955895665,
			"-0.006": 11.9702107148,
			"-0.005": 13.4144225775,
			"-0.004": 11.0588156852,
			"-0.003": 11.132109656,
			"-0.002": 13.8188405877,
			"-0.001": 16.16164093,
			"0.0": 16.5842519122,
			"0.001": 19.6531527081,
			"0.002": 24.6801567566,
			"0.003": 30.7560191326,
			"0.004": 26.7481809797,
			"0.005": 17.667381444,
			"0.006": 7.02783930229,
			"0.007": 4.89212768206,
			"0.008": 4.5210434123,
			"0.009": 1.85874962903,
			"0.01": 0.395971523915,
			"0.011": 0.760836114948,
			"0.012": 0.0999883404779,
			"0.013": 0.0,
			"0.014": 0.0,
			"0.015": 0.0,
			"0.016": 0.0,
			"0.017": 0.0,
			"0.018": 0.0,
			"0.019": 0.0,
			"0.02": 0.0,
			"0.021": 0.0,
			"0.022": 0.0,
			"0.023": 0.0,
			"0.024": 0.0,
			"0.025": 0.0
		}
	}
}
