{
	 "smiles": "OC(=O)C1=C(O)C=CC(F)=C1", 
	 "Tm": 453.15, 
	 "num_atms": 16, 
	 "gaussian": { 
		 "optdone": 1, 
		 "sigma_profile": "yes", 
		 "theory": "DFT", 
		 "functional": "B3LYP", 
		 "basiset": "6-31G**", 
		 "properties": { 
			 "R2extent": 1834.2275, 
			 "electric_dipole_moment_norm": 6.66174145175, 
			 "electric_quadrupole_moment_norm": 14.7856284598, 
			 "total_energy": -595.270268308, 
			 "HOMO_LUMO_gap": 0.19054, 
			 "cosmo_polarized_energy": -17.04, 
			 "cosmo_cavitation_energy": 21.18, 
			 "cosmo_dispersion_energy": -15.98, 
			 "cosmo_repulsion_energy": 1.25, 
			 "cosmo_total_nonelectrostatic_energy": 6.45, 
			 "SMD_solvation_energy": 5.7 
		},
		"coords": [
			{
				"x": -0.98185913,
				"y": 3.1795659151,
				"z": -0.3892460745,
				"element": "O" 
			},
			{
				"x": -0.3210390333,
				"y": 2.4683545621,
				"z": 0.5423669511,
				"element": "C" 
			},
			{
				"x": 0.1779109959,
				"y": 3.0183831745,
				"z": 1.4992139015,
				"element": "O" 
			},
			{
				"x": -0.2231946791,
				"y": 0.9724487087,
				"z": 0.3561578675,
				"element": "C" 
			},
			{
				"x": -0.7669615332,
				"y": 0.2426259525,
				"z": -0.7180733933,
				"element": "C" 
			},
			{
				"x": -1.452165203,
				"y": 0.9305811928,
				"z": -1.6950300477,
				"element": "O" 
			},
			{
				"x": -0.6141315996,
				"y": -1.1438750037,
				"z": -0.7888182041,
				"element": "C" 
			},
			{
				"x": 0.080710691,
				"y": -1.8266546656,
				"z": 0.2063081213,
				"element": "C" 
			},
			{
				"x": 0.6162924201,
				"y": -1.1019599769,
				"z": 1.2663568667,
				"element": "C" 
			},
			{
				"x": 1.2895650755,
				"y": -1.7590297346,
				"z": 2.2319947972,
				"element": "F" 
			},
			{
				"x": 0.4734889483,
				"y": 0.2725734327,
				"z": 1.3504226477,
				"element": "C" 
			},
			{
				"x": -1.3220120136,
				"y": 2.5953530654,
				"z": -1.0901751829,
				"element": "H" 
			},
			{
				"x": -1.7757271842,
				"y": 0.3277220171,
				"z": -2.3758866018,
				"element": "H" 
			},
			{
				"x": -1.0402742525,
				"y": -1.6923713056,
				"z": -1.6255853048,
				"element": "H" 
			},
			{
				"x": 0.2088298099,
				"y": -2.902708836,
				"z": 0.1672415621,
				"element": "H" 
			},
			{
				"x": 0.8932666878,
				"y": 0.8313915015,
				"z": 2.178552094,
				"element": "H" 
			}
		],
		 "valence_orbital": [ 
			{
				"type": "occ",
				"energy": -0.35289,
				"method": "rhf"
			},
			{
				"type": "occ",
				"energy": -0.30751,
				"method": "rhf"
			},
			{
				"type": "occ",
				"energy": -0.27908,
				"method": "rhf"
			},
			{
				"type": "occ",
				"energy": -0.26993,
				"method": "rhf"
			},
			{
				"type": "occ",
				"energy": -0.24729,
				"method": "rhf"
			},
			{
				"type": "unocc",
				"energy": -0.05675,
				"method": "rhf"
			},
			{
				"type": "unocc",
				"energy": -0.01263,
				"method": "rhf"
			},
			{
				"type": "unocc",
				"energy": 0.03199,
				"method": "rhf"
			},
			{
				"type": "unocc",
				"energy": 0.05457,
				"method": "rhf"
			},
			{
				"type": "unocc",
				"energy": 0.07366,
				"method": "rhf"
			}
		],
		"cosmo_sigma_profile": { 
			"-0.025": 0.0,
			"-0.024": 0.0,
			"-0.023": 0.0,
			"-0.022": 0.0,
			"-0.021": 0.0,
			"-0.02": 0.251995998676,
			"-0.019": 1.41062365128,
			"-0.018": 1.33814024214,
			"-0.017": 0.991974878683,
			"-0.016": 1.22737986657,
			"-0.015": 1.13367353114,
			"-0.014": 0.759753705929,
			"-0.013": 1.15427366184,
			"-0.012": 1.25947349617,
			"-0.011": 0.72005313317,
			"-0.01": 1.13420184974,
			"-0.009": 2.22625997308,
			"-0.008": 4.63711697322,
			"-0.007": 5.56463934185,
			"-0.006": 6.47916367214,
			"-0.005": 6.52167604048,
			"-0.004": 7.26944614081,
			"-0.003": 7.45371131684,
			"-0.002": 8.38450780763,
			"-0.001": 9.01524017451,
			"0.0": 16.8138039077,
			"0.001": 20.5077090288,
			"0.002": 12.8596852769,
			"0.003": 7.7248161973,
			"0.004": 11.9938883045,
			"0.005": 4.2348245214,
			"0.006": 1.95532038544,
			"0.007": 2.43912957948,
			"0.008": 2.77886096893,
			"0.009": 2.81682864041,
			"0.01": 3.83603217897,
			"0.011": 5.74583715336,
			"0.012": 5.07322551413,
			"0.013": 2.13340917879,
			"0.014": 0.440655488994,
			"0.015": 0.0,
			"0.016": 0.0,
			"0.017": 0.0,
			"0.018": 0.0,
			"0.019": 0.0,
			"0.02": 0.0,
			"0.021": 0.0,
			"0.022": 0.0,
			"0.023": 0.0,
			"0.024": 0.0,
			"0.025": 0.0
		}
	}
}
