{
	 "smiles": "COC1=CC(OC2=CC=C(N)C=C2)=CC=C1", 
	 "Tm": 336.15, 
	 "num_atms": 29, 
	 "gaussian": { 
		 "optdone": 1, 
		 "sigma_profile": "yes", 
		 "theory": "DFT", 
		 "functional": "B3LYP", 
		 "basiset": "6-31G**", 
		 "properties": { 
			 "R2extent": 5256.6672, 
			 "electric_dipole_moment_norm": 2.23945473274, 
			 "electric_quadrupole_moment_norm": 24.6561629902, 
			 "total_energy": -708.397404351, 
			 "HOMO_LUMO_gap": 0.19658, 
			 "cosmo_polarized_energy": -12.52, 
			 "cosmo_cavitation_energy": 33.3, 
			 "cosmo_dispersion_energy": -24.15, 
			 "cosmo_repulsion_energy": 1.89, 
			 "cosmo_total_nonelectrostatic_energy": 11.04, 
			 "SMD_solvation_energy": 6.54 
		},
		"coords": [
			{
				"x": -1.8158854574,
				"y": -1.6912028675,
				"z": -4.114171598,
				"element": "C" 
			},
			{
				"x": -2.6391136379,
				"y": -1.4949929461,
				"z": -2.9764940468,
				"element": "O" 
			},
			{
				"x": -2.0515633044,
				"y": -1.0704183304,
				"z": -1.8191912549,
				"element": "C" 
			},
			{
				"x": -0.6861924038,
				"y": -0.8156378996,
				"z": -1.6832858031,
				"element": "C" 
			},
			{
				"x": -0.1879582087,
				"y": -0.3824120006,
				"z": -0.4463504689,
				"element": "C" 
			},
			{
				"x": 1.1720810856,
				"y": -0.1605595016,
				"z": -0.4196316256,
				"element": "O" 
			},
			{
				"x": 1.7729478904,
				"y": 0.2769701702,
				"z": 0.7555836681,
				"element": "C" 
			},
			{
				"x": 1.9220206871,
				"y": 1.6426656095,
				"z": 0.9951957004,
				"element": "C" 
			},
			{
				"x": 2.595695145,
				"y": 2.0809704195,
				"z": 2.1326289118,
				"element": "C" 
			},
			{
				"x": 3.1323993719,
				"y": 1.1607203718,
				"z": 3.0500754132,
				"element": "C" 
			},
			{
				"x": 3.8607913749,
				"y": 1.5998532614,
				"z": 4.1597924856,
				"element": "N" 
			},
			{
				"x": 2.9745266368,
				"y": -0.2121095866,
				"z": 2.7914033324,
				"element": "C" 
			},
			{
				"x": 2.3005447139,
				"y": -0.6499509448,
				"z": 1.653926381,
				"element": "C" 
			},
			{
				"x": -1.0315229916,
				"y": -0.2017835559,
				"z": 0.6491376791,
				"element": "C" 
			},
			{
				"x": -2.3973540883,
				"y": -0.4640799111,
				"z": 0.4869049257,
				"element": "C" 
			},
			{
				"x": -2.9169031804,
				"y": -0.8939189165,
				"z": -0.726394573,
				"element": "C" 
			},
			{
				"x": -2.4796265245,
				"y": -2.0252859792,
				"z": -4.9133937162,
				"element": "H" 
			},
			{
				"x": -1.3203665327,
				"y": -0.7612165418,
				"z": -4.4218769528,
				"element": "H" 
			},
			{
				"x": -1.0521215312,
				"y": -2.4590714274,
				"z": -3.9349147336,
				"element": "H" 
			},
			{
				"x": 0.0140541403,
				"y": -0.9388552434,
				"z": -2.4994402058,
				"element": "H" 
			},
			{
				"x": 1.5132490469,
				"y": 2.35471408,
				"z": 0.2853368614,
				"element": "H" 
			},
			{
				"x": 2.716098505,
				"y": 3.146784528,
				"z": 2.3100328712,
				"element": "H" 
			},
			{
				"x": 3.8983067656,
				"y": 0.947151793,
				"z": 4.9307464468,
				"element": "H" 
			},
			{
				"x": 3.6369647481,
				"y": 2.5340878674,
				"z": 4.4742817352,
				"element": "H" 
			},
			{
				"x": 3.3911062114,
				"y": -0.9393181745,
				"z": 3.4838997303,
				"element": "H" 
			},
			{
				"x": 2.1842996555,
				"y": -1.710236288,
				"z": 1.4532268261,
				"element": "H" 
			},
			{
				"x": -0.6371786623,
				"y": 0.1329475254,
				"z": 1.6003379013,
				"element": "H" 
			},
			{
				"x": -3.06491728,
				"y": -0.327130853,
				"z": 1.3331261737,
				"element": "H" 
			},
			{
				"x": -3.9736821752,
				"y": -1.098484658,
				"z": -0.8574920646,
				"element": "H" 
			}
		],
		 "valence_orbital": [ 
			{
				"type": "occ",
				"energy": -0.29298,
				"method": "rhf"
			},
			{
				"type": "occ",
				"energy": -0.2519,
				"method": "rhf"
			},
			{
				"type": "occ",
				"energy": -0.22593,
				"method": "rhf"
			},
			{
				"type": "occ",
				"energy": -0.20435,
				"method": "rhf"
			},
			{
				"type": "occ",
				"energy": -0.2011,
				"method": "rhf"
			},
			{
				"type": "unocc",
				"energy": -0.00452,
				"method": "rhf"
			},
			{
				"type": "unocc",
				"energy": 0.01605,
				"method": "rhf"
			},
			{
				"type": "unocc",
				"energy": 0.01699,
				"method": "rhf"
			},
			{
				"type": "unocc",
				"energy": 0.0263,
				"method": "rhf"
			},
			{
				"type": "unocc",
				"energy": 0.07742,
				"method": "rhf"
			}
		],
		"cosmo_sigma_profile": { 
			"-0.025": 0.0,
			"-0.024": 0.0,
			"-0.023": 0.0,
			"-0.022": 0.0,
			"-0.021": 0.0,
			"-0.02": 0.0,
			"-0.019": 0.0,
			"-0.018": 0.0,
			"-0.017": 0.0,
			"-0.016": 0.0,
			"-0.015": 0.0,
			"-0.014": 0.0,
			"-0.013": 0.14678459611,
			"-0.012": 2.47949094392,
			"-0.011": 2.71868423515,
			"-0.01": 3.10071805021,
			"-0.009": 3.84546540904,
			"-0.008": 2.88078412343,
			"-0.007": 3.54662232769,
			"-0.006": 14.5336202988,
			"-0.005": 21.2064583567,
			"-0.004": 21.1068987377,
			"-0.003": 23.2089017207,
			"-0.002": 14.3232755649,
			"-0.001": 12.6234740837,
			"0.0": 14.0193799114,
			"0.001": 13.9781595867,
			"0.002": 15.9296100784,
			"0.003": 15.2676547225,
			"0.004": 23.5017589867,
			"0.005": 24.1251360909,
			"0.006": 15.0977029036,
			"0.007": 3.14080216375,
			"0.008": 3.46482936386,
			"0.009": 3.86600447644,
			"0.01": 3.25964311288,
			"0.011": 1.53907518576,
			"0.012": 0.576535330685,
			"0.013": 0.534051910892,
			"0.014": 0.762121038843,
			"0.015": 0.257166743686,
			"0.016": 0.0,
			"0.017": 0.0,
			"0.018": 0.0,
			"0.019": 0.0,
			"0.02": 0.0,
			"0.021": 0.0,
			"0.022": 0.0,
			"0.023": 0.0,
			"0.024": 0.0,
			"0.025": 0.0
		}
	}
}
