{
	 "smiles": "CN1C=CN=C1C(O)(C1CC1)C1=NC=CN1C", 
	 "Tm": 440.15, 
	 "num_atms": 33, 
	 "gaussian": { 
		 "optdone": 1, 
		 "sigma_profile": "yes", 
		 "theory": "DFT", 
		 "functional": "B3LYP", 
		 "basiset": "6-31G**", 
		 "properties": { 
			 "R2extent": 3716.7602, 
			 "electric_dipole_moment_norm": 2.90097574275, 
			 "electric_quadrupole_moment_norm": 10.9880529426, 
			 "total_energy": -761.106221328, 
			 "HOMO_LUMO_gap": 0.22881, 
			 "cosmo_polarized_energy": -12.19, 
			 "cosmo_cavitation_energy": 34.28, 
			 "cosmo_dispersion_energy": -23.7, 
			 "cosmo_repulsion_energy": 1.82, 
			 "cosmo_total_nonelectrostatic_energy": 12.4, 
			 "SMD_solvation_energy": 4.86 
		},
		"coords": [
			{
				"x": -0.8718573184,
				"y": -3.2194745353,
				"z": 0.3937547707,
				"element": "C" 
			},
			{
				"x": -1.5862267727,
				"y": -1.9715057231,
				"z": 0.1340783215,
				"element": "N" 
			},
			{
				"x": -2.9446261506,
				"y": -1.7878205373,
				"z": 0.3298481958,
				"element": "C" 
			},
			{
				"x": -3.2225303056,
				"y": -0.5104263669,
				"z": -0.0774607576,
				"element": "C" 
			},
			{
				"x": -2.0705841648,
				"y": 0.0959467276,
				"z": -0.5210729362,
				"element": "N" 
			},
			{
				"x": -1.1086502475,
				"y": -0.8029287749,
				"z": -0.3888478415,
				"element": "C" 
			},
			{
				"x": 0.3231162077,
				"y": -0.4640703513,
				"z": -0.8128128239,
				"element": "C" 
			},
			{
				"x": 0.2781252771,
				"y": 0.8543873292,
				"z": -1.3421299627,
				"element": "O" 
			},
			{
				"x": 0.8341404892,
				"y": -1.4361049269,
				"z": -1.8848754882,
				"element": "C" 
			},
			{
				"x": 1.7389416944,
				"y": -0.9299033917,
				"z": -2.9757616946,
				"element": "C" 
			},
			{
				"x": 0.3147028686,
				"y": -1.3195935014,
				"z": -3.2934436904,
				"element": "C" 
			},
			{
				"x": 1.2513286115,
				"y": -0.4883682529,
				"z": 0.3952526388,
				"element": "C" 
			},
			{
				"x": 1.9875600333,
				"y": -1.5320622514,
				"z": 0.7454550766,
				"element": "N" 
			},
			{
				"x": 2.6247613222,
				"y": -1.1692189084,
				"z": 1.907118577,
				"element": "C" 
			},
			{
				"x": 2.2654738069,
				"y": 0.1046524813,
				"z": 2.2628994701,
				"element": "C" 
			},
			{
				"x": 1.37736631,
				"y": 0.537780597,
				"z": 1.2977611818,
				"element": "N" 
			},
			{
				"x": 0.7316972043,
				"y": 1.8485163076,
				"z": 1.295284692,
				"element": "C" 
			},
			{
				"x": 0.175368932,
				"y": -3.0083693185,
				"z": 0.6156264342,
				"element": "H" 
			},
			{
				"x": -1.3271130608,
				"y": -3.7103213623,
				"z": 1.2568257552,
				"element": "H" 
			},
			{
				"x": -0.9362419253,
				"y": -3.8891027907,
				"z": -0.4698467955,
				"element": "H" 
			},
			{
				"x": -3.5642623762,
				"y": -2.5722677469,
				"z": 0.7375626737,
				"element": "H" 
			},
			{
				"x": -4.1722985046,
				"y": 0.0052133686,
				"z": -0.0724884106,
				"element": "H" 
			},
			{
				"x": -0.6670784703,
				"y": 1.1083426137,
				"z": -1.3225314514,
				"element": "H" 
			},
			{
				"x": 1.0532926949,
				"y": -2.4288512716,
				"z": -1.5091792876,
				"element": "H" 
			},
			{
				"x": 2.5455375259,
				"y": -1.5792297156,
				"z": -3.3021554037,
				"element": "H" 
			},
			{
				"x": 1.9681520513,
				"y": 0.1296778054,
				"z": -2.9768963453,
				"element": "H" 
			},
			{
				"x": 0.1285644993,
				"y": -2.233062703,
				"z": -3.8505485809,
				"element": "H" 
			},
			{
				"x": -0.378873431,
				"y": -0.510870564,
				"z": -3.5015403103,
				"element": "H" 
			},
			{
				"x": 3.3050874913,
				"y": -1.8389989669,
				"z": 2.4145647603,
				"element": "H" 
			},
			{
				"x": 2.5542327502,
				"y": 0.7399559664,
				"z": 3.0866388843,
				"element": "H" 
			},
			{
				"x": -0.3471377582,
				"y": 1.7414986447,
				"z": 1.1697045865,
				"element": "H" 
			},
			{
				"x": 1.1172706625,
				"y": 2.4688528173,
				"z": 0.4853742611,
				"element": "H" 
			},
			{
				"x": 0.9322600536,
				"y": 2.3263273025,
				"z": 2.2561415007,
				"element": "H" 
			}
		],
		 "valence_orbital": [ 
			{
				"type": "occ",
				"energy": -0.27096,
				"method": "rhf"
			},
			{
				"type": "occ",
				"energy": -0.2626,
				"method": "rhf"
			},
			{
				"type": "occ",
				"energy": -0.26058,
				"method": "rhf"
			},
			{
				"type": "occ",
				"energy": -0.22914,
				"method": "rhf"
			},
			{
				"type": "occ",
				"energy": -0.21391,
				"method": "rhf"
			},
			{
				"type": "unocc",
				"energy": 0.0149,
				"method": "rhf"
			},
			{
				"type": "unocc",
				"energy": 0.03616,
				"method": "rhf"
			},
			{
				"type": "unocc",
				"energy": 0.06049,
				"method": "rhf"
			},
			{
				"type": "unocc",
				"energy": 0.07227,
				"method": "rhf"
			},
			{
				"type": "unocc",
				"energy": 0.09365,
				"method": "rhf"
			}
		],
		"cosmo_sigma_profile": { 
			"-0.025": 0.0,
			"-0.024": 0.0,
			"-0.023": 0.0,
			"-0.022": 0.0,
			"-0.021": 0.0,
			"-0.02": 0.0,
			"-0.019": 0.0,
			"-0.018": 0.0,
			"-0.017": 0.0,
			"-0.016": 0.0,
			"-0.015": 0.0,
			"-0.014": 0.0,
			"-0.013": 0.0,
			"-0.012": 0.0,
			"-0.011": 0.0,
			"-0.01": 0.0,
			"-0.009": 0.946074773235,
			"-0.008": 5.73306885509,
			"-0.007": 8.25980626391,
			"-0.006": 12.5302456994,
			"-0.005": 15.5328252649,
			"-0.004": 21.751611251,
			"-0.003": 30.3913232136,
			"-0.002": 25.7007233199,
			"-0.001": 18.2173861936,
			"0.0": 19.804294026,
			"0.001": 16.5387086461,
			"0.002": 16.2589234519,
			"0.003": 16.5675587163,
			"0.004": 15.6320070475,
			"0.005": 13.8668158726,
			"0.006": 10.7526694426,
			"0.007": 5.83692034016,
			"0.008": 4.0074910591,
			"0.009": 3.29471253886,
			"0.01": 3.54204117102,
			"0.011": 3.16326455259,
			"0.012": 0.853127652443,
			"0.013": 0.934111492805,
			"0.014": 0.945442667627,
			"0.015": 0.612404383118,
			"0.016": 0.140811540524,
			"0.017": 0.0,
			"0.018": 0.0,
			"0.019": 0.0,
			"0.02": 0.0,
			"0.021": 0.0,
			"0.022": 0.0,
			"0.023": 0.0,
			"0.024": 0.0,
			"0.025": 0.0
		}
	}
}
