{
	 "smiles": "O=C1OC(=O)C2CC=CCC12", 
	 "Tm": 375.05, 
	 "num_atms": 19, 
	 "gaussian": { 
		 "optdone": 1, 
		 "sigma_profile": "yes", 
		 "theory": "DFT", 
		 "functional": "B3LYP", 
		 "basiset": "6-31G**", 
		 "properties": { 
			 "R2extent": 2166.383, 
			 "electric_dipole_moment_norm": 4.65065853509, 
			 "electric_quadrupole_moment_norm": 10.6956042022, 
			 "total_energy": -535.34159202, 
			 "HOMO_LUMO_gap": 0.23272, 
			 "cosmo_polarized_energy": -12.02, 
			 "cosmo_cavitation_energy": 22.43, 
			 "cosmo_dispersion_energy": -16.67, 
			 "cosmo_repulsion_energy": 1.34, 
			 "cosmo_total_nonelectrostatic_energy": 7.1, 
			 "SMD_solvation_energy": 5.42 
		},
		"coords": [
			{
				"x": 2.1830835611,
				"y": -1.0087168289,
				"z": 1.973108232,
				"element": "O" 
			},
			{
				"x": 1.0358876822,
				"y": -1.2064842639,
				"z": 1.6974324156,
				"element": "C" 
			},
			{
				"x": 0.301464657,
				"y": -2.2426815343,
				"z": 2.2897847219,
				"element": "O" 
			},
			{
				"x": -1.0585993287,
				"y": -2.1347420655,
				"z": 1.9695853157,
				"element": "C" 
			},
			{
				"x": -1.8387878281,
				"y": -3.0036615513,
				"z": 2.2292982144,
				"element": "O" 
			},
			{
				"x": -1.259349663,
				"y": -0.7800955761,
				"z": 1.3249619513,
				"element": "C" 
			},
			{
				"x": -2.3752552991,
				"y": -0.5494464301,
				"z": 0.3151678202,
				"element": "C" 
			},
			{
				"x": -2.1058728213,
				"y": 0.7637268368,
				"z": -0.396608243,
				"element": "C" 
			},
			{
				"x": -0.9450052616,
				"y": 1.4333506848,
				"z": -0.3528167129,
				"element": "C" 
			},
			{
				"x": 0.3040642954,
				"y": 0.954670278,
				"z": 0.3643094087,
				"element": "C" 
			},
			{
				"x": 0.1183944401,
				"y": -0.5161098191,
				"z": 0.711294893,
				"element": "C" 
			},
			{
				"x": -1.3929687375,
				"y": -0.0738120949,
				"z": 2.1597808472,
				"element": "H" 
			},
			{
				"x": -2.4270531634,
				"y": -1.3776501747,
				"z": -0.4057121015,
				"element": "H" 
			},
			{
				"x": -3.3519682143,
				"y": -0.5200389295,
				"z": 0.8109030422,
				"element": "H" 
			},
			{
				"x": -2.9329779307,
				"y": 1.182988029,
				"z": -0.9655602809,
				"element": "H" 
			},
			{
				"x": -0.8668711215,
				"y": 2.3839088496,
				"z": -0.876195527,
				"element": "H" 
			},
			{
				"x": 0.4830378576,
				"y": 1.5502941415,
				"z": 1.2706603379,
				"element": "H" 
			},
			{
				"x": 1.185778462,
				"y": 1.0990130942,
				"z": -0.2699865523,
				"element": "H" 
			},
			{
				"x": 0.1877984137,
				"y": -1.1049126456,
				"z": -0.2172077825,
				"element": "H" 
			}
		],
		 "valence_orbital": [ 
			{
				"type": "occ",
				"energy": -0.35596,
				"method": "rhf"
			},
			{
				"type": "occ",
				"energy": -0.33308,
				"method": "rhf"
			},
			{
				"type": "occ",
				"energy": -0.30056,
				"method": "rhf"
			},
			{
				"type": "occ",
				"energy": -0.28402,
				"method": "rhf"
			},
			{
				"type": "occ",
				"energy": -0.26693,
				"method": "rhf"
			},
			{
				"type": "unocc",
				"energy": -0.03421,
				"method": "rhf"
			},
			{
				"type": "unocc",
				"energy": -0.00297,
				"method": "rhf"
			},
			{
				"type": "unocc",
				"energy": 0.00207,
				"method": "rhf"
			},
			{
				"type": "unocc",
				"energy": 0.07594,
				"method": "rhf"
			},
			{
				"type": "unocc",
				"energy": 0.09323,
				"method": "rhf"
			}
		],
		"cosmo_sigma_profile": { 
			"-0.025": 0.0,
			"-0.024": 0.0,
			"-0.023": 0.0,
			"-0.022": 0.0,
			"-0.021": 0.0,
			"-0.02": 0.0,
			"-0.019": 0.0,
			"-0.018": 0.0,
			"-0.017": 0.0,
			"-0.016": 0.0,
			"-0.015": 0.0,
			"-0.014": 0.0,
			"-0.013": 0.0,
			"-0.012": 0.126047835377,
			"-0.011": 1.71861132117,
			"-0.01": 2.93035248846,
			"-0.009": 4.17039037321,
			"-0.008": 5.31303767153,
			"-0.007": 5.35591915168,
			"-0.006": 6.18695303214,
			"-0.005": 17.4983670459,
			"-0.004": 16.593840941,
			"-0.003": 15.3232053974,
			"-0.002": 14.2237002281,
			"-0.001": 9.14444382364,
			"0.0": 7.39929472355,
			"0.001": 5.71511021034,
			"0.002": 6.31123109708,
			"0.003": 6.07928257383,
			"0.004": 5.73036582948,
			"0.005": 6.88478461201,
			"0.006": 5.99121333219,
			"0.007": 6.77188237382,
			"0.008": 6.33783203238,
			"0.009": 7.73342918455,
			"0.01": 10.6903799842,
			"0.011": 3.29504989002,
			"0.012": 0.0,
			"0.013": 0.0,
			"0.014": 0.0,
			"0.015": 0.0,
			"0.016": 0.0,
			"0.017": 0.0,
			"0.018": 0.0,
			"0.019": 0.0,
			"0.02": 0.0,
			"0.021": 0.0,
			"0.022": 0.0,
			"0.023": 0.0,
			"0.024": 0.0,
			"0.025": 0.0
		}
	}
}
