{
	 "smiles": "NC1=NN=C(S1)C1=CC(Br)=CC(F)=C1", 
	 "Tm": 466.15, 
	 "num_atms": 19, 
	 "gaussian": { 
		 "optdone": 1, 
		 "sigma_profile": "yes", 
		 "theory": "DFT", 
		 "functional": "B3LYP", 
		 "basiset": "6-31G**", 
		 "properties": { 
			 "R2extent": 5677.1896, 
			 "electric_dipole_moment_norm": 3.97231767738, 
			 "electric_quadrupole_moment_norm": 18.6130612659, 
			 "total_energy": -3541.51899025, 
			 "HOMO_LUMO_gap": 0.16523, 
			 "cosmo_polarized_energy": -14.0, 
			 "cosmo_cavitation_energy": 28.87, 
			 "cosmo_dispersion_energy": -22.19, 
			 "cosmo_repulsion_energy": 1.68, 
			 "cosmo_total_nonelectrostatic_energy": 8.35, 
			 "SMD_solvation_energy": 2.22 
		},
		"coords": [
			{
				"x": -0.5256027201,
				"y": 4.155922243,
				"z": 2.1895026032,
				"element": "N" 
			},
			{
				"x": 0.1218140206,
				"y": 3.019331111,
				"z": 1.7852591892,
				"element": "C" 
			},
			{
				"x": 1.4219066677,
				"y": 2.8723067986,
				"z": 1.8540856097,
				"element": "N" 
			},
			{
				"x": 1.8420252593,
				"y": 1.6943984321,
				"z": 1.319841558,
				"element": "N" 
			},
			{
				"x": 0.8915231495,
				"y": 0.9346058585,
				"z": 0.8578846678,
				"element": "C" 
			},
			{
				"x": -0.718274315,
				"y": 1.6684116996,
				"z": 1.0348639029,
				"element": "S" 
			},
			{
				"x": 1.1202784401,
				"y": -0.3857236844,
				"z": 0.2605776045,
				"element": "C" 
			},
			{
				"x": 0.0603147792,
				"y": -1.1647153368,
				"z": -0.2299540969,
				"element": "C" 
			},
			{
				"x": 0.3285314259,
				"y": -2.4121926706,
				"z": -0.787714297,
				"element": "C" 
			},
			{
				"x": -1.1198864666,
				"y": -3.463785538,
				"z": -1.4511690264,
				"element": "Br" 
			},
			{
				"x": 1.6238550387,
				"y": -2.9141940884,
				"z": -0.875703396,
				"element": "C" 
			},
			{
				"x": 2.6540761886,
				"y": -2.1172994598,
				"z": -0.3809919259,
				"element": "C" 
			},
			{
				"x": 3.9133016393,
				"y": -2.586471082,
				"z": -0.4573543561,
				"element": "F" 
			},
			{
				"x": 2.436750807,
				"y": -0.8711873846,
				"z": 0.1830455261,
				"element": "C" 
			},
			{
				"x": 0.0615139614,
				"y": 4.7791735819,
				"z": 2.728851649,
				"element": "H" 
			},
			{
				"x": -1.4698205449,
				"y": 4.0631899013,
				"z": 2.5334619149,
				"element": "H" 
			},
			{
				"x": -0.9625821405,
				"y": -0.8102241091,
				"z": -0.1820378808,
				"element": "H" 
			},
			{
				"x": 1.8387711127,
				"y": -3.8828503608,
				"z": -1.3085726054,
				"element": "H" 
			},
			{
				"x": 3.2631036971,
				"y": -0.2801959113,
				"z": 0.557523359,
				"element": "H" 
			}
		],
		 "valence_orbital": [ 
			{
				"type": "occ",
				"energy": -0.29613,
				"method": "rhf"
			},
			{
				"type": "occ",
				"energy": -0.27575,
				"method": "rhf"
			},
			{
				"type": "occ",
				"energy": -0.26719,
				"method": "rhf"
			},
			{
				"type": "occ",
				"energy": -0.25289,
				"method": "rhf"
			},
			{
				"type": "occ",
				"energy": -0.22928,
				"method": "rhf"
			},
			{
				"type": "unocc",
				"energy": -0.06405,
				"method": "rhf"
			},
			{
				"type": "unocc",
				"energy": -0.02058,
				"method": "rhf"
			},
			{
				"type": "unocc",
				"energy": -0.01387,
				"method": "rhf"
			},
			{
				"type": "unocc",
				"energy": -0.00153,
				"method": "rhf"
			},
			{
				"type": "unocc",
				"energy": 0.00862,
				"method": "rhf"
			}
		],
		"cosmo_sigma_profile": { 
			"-0.025": 0.0,
			"-0.024": 0.0,
			"-0.023": 0.0,
			"-0.022": 0.0,
			"-0.021": 0.0,
			"-0.02": 0.0,
			"-0.019": 0.0,
			"-0.018": 0.0,
			"-0.017": 0.0,
			"-0.016": 0.364161975541,
			"-0.015": 1.79839006124,
			"-0.014": 2.88268526072,
			"-0.013": 3.16043430547,
			"-0.012": 2.21460381201,
			"-0.011": 2.72363482914,
			"-0.01": 1.94489045593,
			"-0.009": 2.62091441397,
			"-0.008": 4.56820955256,
			"-0.007": 5.2998144603,
			"-0.006": 5.70248968466,
			"-0.005": 7.39016827174,
			"-0.004": 8.93659416106,
			"-0.003": 9.62977214025,
			"-0.002": 12.7562299556,
			"-0.001": 19.9411823991,
			"0.0": 28.1731958677,
			"0.001": 32.1695893646,
			"0.002": 19.0839774875,
			"0.003": 18.0906081231,
			"0.004": 21.2043549302,
			"0.005": 4.31907696069,
			"0.006": 2.91863334429,
			"0.007": 2.27703544812,
			"0.008": 2.99494654773,
			"0.009": 2.62332821117,
			"0.01": 2.22791258218,
			"0.011": 3.57927797615,
			"0.012": 2.80309685409,
			"0.013": 2.1137722466,
			"0.014": 1.16630585991,
			"0.015": 0.691415502422,
			"0.016": 0.0126550512169,
			"0.017": 0.0,
			"0.018": 0.0,
			"0.019": 0.0,
			"0.02": 0.0,
			"0.021": 0.0,
			"0.022": 0.0,
			"0.023": 0.0,
			"0.024": 0.0,
			"0.025": 0.0
		}
	}
}
