{
	 "smiles": "OC(=O)C1=CC(=C(O)C=C1)C(F)(F)F", 
	 "Tm": 418.65, 
	 "num_atms": 19, 
	 "gaussian": { 
		 "optdone": 1, 
		 "sigma_profile": "yes", 
		 "theory": "DFT", 
		 "functional": "B3LYP", 
		 "basiset": "6-31G**", 
		 "properties": { 
			 "R2extent": 3091.4034, 
			 "electric_dipole_moment_norm": 6.60231016085, 
			 "electric_quadrupole_moment_norm": 14.1748326392, 
			 "total_energy": -833.064932149, 
			 "HOMO_LUMO_gap": 0.20055, 
			 "cosmo_polarized_energy": -20.85, 
			 "cosmo_cavitation_energy": 25.58, 
			 "cosmo_dispersion_energy": -18.4, 
			 "cosmo_repulsion_energy": 1.39, 
			 "cosmo_total_nonelectrostatic_energy": 8.56, 
			 "SMD_solvation_energy": 7.12 
		},
		"coords": [
			{
				"x": -2.9888698587,
				"y": 2.4735297135,
				"z": -1.5027836735,
				"element": "O" 
			},
			{
				"x": -1.6465326538,
				"y": 2.420179855,
				"z": -1.2801815308,
				"element": "C" 
			},
			{
				"x": -0.9608365077,
				"y": 3.3909928666,
				"z": -1.4979598739,
				"element": "O" 
			},
			{
				"x": -1.0978945472,
				"y": 1.1279052143,
				"z": -0.7635290318,
				"element": "C" 
			},
			{
				"x": 0.2818059219,
				"y": 0.9125091334,
				"z": -0.8873906487,
				"element": "C" 
			},
			{
				"x": 0.8744461119,
				"y": -0.2558111537,
				"z": -0.4271885452,
				"element": "C" 
			},
			{
				"x": 0.0776436462,
				"y": -1.2381116869,
				"z": 0.1968423535,
				"element": "C" 
			},
			{
				"x": 0.6885797842,
				"y": -2.3633749292,
				"z": 0.6352725931,
				"element": "O" 
			},
			{
				"x": -1.2964439696,
				"y": -1.0202085277,
				"z": 0.3469810953,
				"element": "C" 
			},
			{
				"x": -1.8760159292,
				"y": 0.1512705608,
				"z": -0.1296271111,
				"element": "C" 
			},
			{
				"x": 2.358391469,
				"y": -0.478544391,
				"z": -0.5841203205,
				"element": "C" 
			},
			{
				"x": 2.967685146,
				"y": -0.6403501319,
				"z": 0.6086025715,
				"element": "F" 
			},
			{
				"x": 2.6216378764,
				"y": -1.5779815341,
				"z": -1.32144266,
				"element": "F" 
			},
			{
				"x": 2.9503412607,
				"y": 0.5678818796,
				"z": -1.1990720348,
				"element": "F" 
			},
			{
				"x": -3.3716883834,
				"y": 1.5863488344,
				"z": -1.471653668,
				"element": "H" 
			},
			{
				"x": 0.8854324297,
				"y": 1.6809954197,
				"z": -1.3545884979,
				"element": "H" 
			},
			{
				"x": 0.0407026617,
				"y": -2.9500658196,
				"z": 1.0475585074,
				"element": "H" 
			},
			{
				"x": -1.9070238751,
				"y": -1.7679098007,
				"z": 0.8471546284,
				"element": "H" 
			},
			{
				"x": -2.9393605829,
				"y": 0.3044444977,
				"z": 0.0368258469,
				"element": "H" 
			}
		],
		 "valence_orbital": [ 
			{
				"type": "occ",
				"energy": -0.36474,
				"method": "rhf"
			},
			{
				"type": "occ",
				"energy": -0.32069,
				"method": "rhf"
			},
			{
				"type": "occ",
				"energy": -0.29167,
				"method": "rhf"
			},
			{
				"type": "occ",
				"energy": -0.28001,
				"method": "rhf"
			},
			{
				"type": "occ",
				"energy": -0.25775,
				"method": "rhf"
			},
			{
				"type": "unocc",
				"energy": -0.0572,
				"method": "rhf"
			},
			{
				"type": "unocc",
				"energy": -0.04294,
				"method": "rhf"
			},
			{
				"type": "unocc",
				"energy": 0.03657,
				"method": "rhf"
			},
			{
				"type": "unocc",
				"energy": 0.04187,
				"method": "rhf"
			},
			{
				"type": "unocc",
				"energy": 0.05097,
				"method": "rhf"
			}
		],
		"cosmo_sigma_profile": { 
			"-0.025": 0.0,
			"-0.024": 0.0,
			"-0.023": 0.0,
			"-0.022": 0.0,
			"-0.021": 0.0,
			"-0.02": 0.279345533675,
			"-0.019": 1.34062812362,
			"-0.018": 2.61359976482,
			"-0.017": 2.07144966849,
			"-0.016": 1.69008798254,
			"-0.015": 2.31504019954,
			"-0.014": 1.83477808355,
			"-0.013": 2.2810264792,
			"-0.012": 2.04161118578,
			"-0.011": 2.52898923859,
			"-0.01": 2.29335959202,
			"-0.009": 2.87841716394,
			"-0.008": 4.20030578103,
			"-0.007": 4.95362696908,
			"-0.006": 3.8000884247,
			"-0.005": 4.38574109218,
			"-0.004": 5.89406087051,
			"-0.003": 8.4711453356,
			"-0.002": 9.07212959392,
			"-0.001": 10.3629044102,
			"0.0": 14.8348204962,
			"0.001": 19.3330610256,
			"0.002": 23.3946881057,
			"0.003": 25.2533244687,
			"0.004": 6.82514767961,
			"0.005": 5.26869258142,
			"0.006": 4.42165539734,
			"0.007": 4.49073174952,
			"0.008": 6.20872182929,
			"0.009": 4.05642809539,
			"0.01": 3.95322409949,
			"0.011": 5.82860438827,
			"0.012": 4.38084594796,
			"0.013": 1.63838381147,
			"0.014": 0.0510225739005,
			"0.015": 0.0,
			"0.016": 0.0,
			"0.017": 0.0,
			"0.018": 0.0,
			"0.019": 0.0,
			"0.02": 0.0,
			"0.021": 0.0,
			"0.022": 0.0,
			"0.023": 0.0,
			"0.024": 0.0,
			"0.025": 0.0
		}
	}
}
