{
	 "smiles": "CC(=O)C1=CC=C(OCC(=O)NC2=CC=CC=C2)C=C1", 
	 "Tm": 368.15, 
	 "num_atms": 35, 
	 "gaussian": { 
		 "optdone": 1, 
		 "sigma_profile": "yes", 
		 "theory": "DFT", 
		 "functional": "B3LYP", 
		 "basiset": "6-31G**", 
		 "properties": { 
			 "R2extent": 11464.0936, 
			 "electric_dipole_moment_norm": 0.620466880663, 
			 "electric_quadrupole_moment_norm": 30.654874012, 
			 "total_energy": -899.18121994, 
			 "HOMO_LUMO_gap": 0.17015, 
			 "cosmo_polarized_energy": -17.58, 
			 "cosmo_cavitation_energy": 40.09, 
			 "cosmo_dispersion_energy": -28.93, 
			 "cosmo_repulsion_energy": 2.19, 
			 "cosmo_total_nonelectrostatic_energy": 13.35, 
			 "SMD_solvation_energy": 8.13 
		},
		"coords": [
			{
				"x": -1.5678378517,
				"y": -5.7754907196,
				"z": -4.6860556924,
				"element": "C" 
			},
			{
				"x": -2.1354393524,
				"y": -5.0516888575,
				"z": -3.4754966191,
				"element": "C" 
			},
			{
				"x": -3.0654202853,
				"y": -5.5337481352,
				"z": -2.8445688381,
				"element": "O" 
			},
			{
				"x": -1.5379405932,
				"y": -3.7426213895,
				"z": -3.0702683639,
				"element": "C" 
			},
			{
				"x": -2.0730415038,
				"y": -3.08332144,
				"z": -1.9476863734,
				"element": "C" 
			},
			{
				"x": -1.5624736354,
				"y": -1.8689552085,
				"z": -1.5239015811,
				"element": "C" 
			},
			{
				"x": -0.4941962433,
				"y": -1.2790166052,
				"z": -2.2192785922,
				"element": "C" 
			},
			{
				"x": -0.0564054299,
				"y": -0.0809686127,
				"z": -1.7289026174,
				"element": "O" 
			},
			{
				"x": 1.0230175402,
				"y": 0.5845014546,
				"z": -2.3758612311,
				"element": "C" 
			},
			{
				"x": 1.3582598061,
				"y": 1.9048361716,
				"z": -1.6754838538,
				"element": "C" 
			},
			{
				"x": 2.2696138795,
				"y": 2.5865359848,
				"z": -2.1245890832,
				"element": "O" 
			},
			{
				"x": 0.5824949136,
				"y": 2.1911430254,
				"z": -0.5919284262,
				"element": "N" 
			},
			{
				"x": 0.6339348811,
				"y": 3.3150986056,
				"z": 0.2611199177,
				"element": "C" 
			},
			{
				"x": -0.2908642719,
				"y": 3.3624728936,
				"z": 1.315824511,
				"element": "C" 
			},
			{
				"x": -0.2982330181,
				"y": 4.4405552224,
				"z": 2.1964763976,
				"element": "C" 
			},
			{
				"x": 0.6151876183,
				"y": 5.4846543585,
				"z": 2.0376602428,
				"element": "C" 
			},
			{
				"x": 1.5330291542,
				"y": 5.4337682356,
				"z": 0.9876912424,
				"element": "C" 
			},
			{
				"x": 1.5544868072,
				"y": 4.3610203956,
				"z": 0.0958693962,
				"element": "C" 
			},
			{
				"x": 0.0536426846,
				"y": -1.9165017711,
				"z": -3.3380661802,
				"element": "C" 
			},
			{
				"x": -0.4734641315,
				"y": -3.1408968257,
				"z": -3.7518264829,
				"element": "C" 
			},
			{
				"x": -1.6508336486,
				"y": -5.1599648408,
				"z": -5.5886598448,
				"element": "H" 
			},
			{
				"x": -2.1238625042,
				"y": -6.7023262595,
				"z": -4.8290079164,
				"element": "H" 
			},
			{
				"x": -0.5064099344,
				"y": -6.0076872144,
				"z": -4.5447851003,
				"element": "H" 
			},
			{
				"x": -2.8977520497,
				"y": -3.5549895853,
				"z": -1.4240988357,
				"element": "H" 
			},
			{
				"x": -1.9700551876,
				"y": -1.3550239483,
				"z": -0.6593361422,
				"element": "H" 
			},
			{
				"x": 1.9291596586,
				"y": -0.0336352988,
				"z": -2.3683853716,
				"element": "H" 
			},
			{
				"x": 0.7753329878,
				"y": 0.8166383181,
				"z": -3.4189308509,
				"element": "H" 
			},
			{
				"x": -0.1220457494,
				"y": 1.4961846869,
				"z": -0.3806521039,
				"element": "H" 
			},
			{
				"x": -1.0042247546,
				"y": 2.5512547602,
				"z": 1.4433484943,
				"element": "H" 
			},
			{
				"x": -1.0202701709,
				"y": 4.4622516053,
				"z": 3.0075778871,
				"element": "H" 
			},
			{
				"x": 0.6106740934,
				"y": 6.326102305,
				"z": 2.7236756168,
				"element": "H" 
			},
			{
				"x": 2.248448254,
				"y": 6.2403020977,
				"z": 0.8541438491,
				"element": "H" 
			},
			{
				"x": 2.2648244676,
				"y": 4.3202645822,
				"z": -0.7178272418,
				"element": "H" 
			},
			{
				"x": 0.8776139238,
				"y": -1.4765821041,
				"z": -3.8865920823,
				"element": "H" 
			},
			{
				"x": -0.0375503539,
				"y": -3.622365887,
				"z": -4.6211981303,
				"element": "H" 
			}
		],
		 "valence_orbital": [ 
			{
				"type": "occ",
				"energy": -0.26455,
				"method": "rhf"
			},
			{
				"type": "occ",
				"energy": -0.25327,
				"method": "rhf"
			},
			{
				"type": "occ",
				"energy": -0.24918,
				"method": "rhf"
			},
			{
				"type": "occ",
				"energy": -0.24404,
				"method": "rhf"
			},
			{
				"type": "occ",
				"energy": -0.22456,
				"method": "rhf"
			},
			{
				"type": "unocc",
				"energy": -0.05441,
				"method": "rhf"
			},
			{
				"type": "unocc",
				"energy": -0.02188,
				"method": "rhf"
			},
			{
				"type": "unocc",
				"energy": -0.01604,
				"method": "rhf"
			},
			{
				"type": "unocc",
				"energy": -0.00354,
				"method": "rhf"
			},
			{
				"type": "unocc",
				"energy": 0.03931,
				"method": "rhf"
			}
		],
		"cosmo_sigma_profile": { 
			"-0.025": 0.0,
			"-0.024": 0.0,
			"-0.023": 0.0,
			"-0.022": 0.0,
			"-0.021": 0.0,
			"-0.02": 0.0,
			"-0.019": 0.0,
			"-0.018": 0.0,
			"-0.017": 0.0,
			"-0.016": 0.0,
			"-0.015": 0.0,
			"-0.014": 0.0,
			"-0.013": 0.274432026095,
			"-0.012": 1.00201711007,
			"-0.011": 1.28945136743,
			"-0.01": 1.02228479036,
			"-0.009": 0.919478482443,
			"-0.008": 7.83428805857,
			"-0.007": 11.4919696193,
			"-0.006": 21.5121921335,
			"-0.005": 24.9429901857,
			"-0.004": 23.8333381019,
			"-0.003": 22.8420933416,
			"-0.002": 22.0223087131,
			"-0.001": 20.4046654631,
			"0.0": 17.563073748,
			"0.001": 21.2747052241,
			"0.002": 23.6470939396,
			"0.003": 26.4548224082,
			"0.004": 19.7080393306,
			"0.005": 13.0154200871,
			"0.006": 9.01934878864,
			"0.007": 3.30013547061,
			"0.008": 1.93337237353,
			"0.009": 3.58891439545,
			"0.01": 3.68068071642,
			"0.011": 4.3627092684,
			"0.012": 7.4012173759,
			"0.013": 5.21823081719,
			"0.014": 0.928187625133,
			"0.015": 0.0,
			"0.016": 0.0,
			"0.017": 0.0,
			"0.018": 0.0,
			"0.019": 0.0,
			"0.02": 0.0,
			"0.021": 0.0,
			"0.022": 0.0,
			"0.023": 0.0,
			"0.024": 0.0,
			"0.025": 0.0
		}
	}
}
