{
	 "smiles": "OCCNC(=O)CC1=CC=C(O)C=C1", 
	 "Tm": 408.15, 
	 "num_atms": 27, 
	 "gaussian": { 
		 "optdone": 1, 
		 "sigma_profile": "yes", 
		 "theory": "DFT", 
		 "functional": "B3LYP", 
		 "basiset": "6-31G**", 
		 "properties": { 
			 "R2extent": 4220.7256, 
			 "electric_dipole_moment_norm": 3.71681855624, 
			 "electric_quadrupole_moment_norm": 18.8820672767, 
			 "total_energy": -669.326234979, 
			 "HOMO_LUMO_gap": 0.20658, 
			 "cosmo_polarized_energy": -20.07, 
			 "cosmo_cavitation_energy": 31.29, 
			 "cosmo_dispersion_energy": -22.08, 
			 "cosmo_repulsion_energy": 1.8, 
			 "cosmo_total_nonelectrostatic_energy": 11.01, 
			 "SMD_solvation_energy": 5.62 
		},
		"coords": [
			{
				"x": -0.3537759179,
				"y": 1.4953854998,
				"z": -4.2851945833,
				"element": "O" 
			},
			{
				"x": -0.4773591262,
				"y": 0.5515598172,
				"z": -3.2302241537,
				"element": "C" 
			},
			{
				"x": 0.2779248774,
				"y": 1.1265309652,
				"z": -2.0311373793,
				"element": "C" 
			},
			{
				"x": 0.1559188741,
				"y": 0.2971059203,
				"z": -0.843242585,
				"element": "N" 
			},
			{
				"x": 0.9619387085,
				"y": -0.7815661736,
				"z": -0.6346226761,
				"element": "C" 
			},
			{
				"x": 1.8341448187,
				"y": -1.1258720908,
				"z": -1.4238509019,
				"element": "O" 
			},
			{
				"x": 0.7376517634,
				"y": -1.5651504396,
				"z": 0.6737201545,
				"element": "C" 
			},
			{
				"x": -0.3673055215,
				"y": -1.1008645594,
				"z": 1.5939647352,
				"element": "C" 
			},
			{
				"x": -0.1264818971,
				"y": -0.1501336164,
				"z": 2.5954561508,
				"element": "C" 
			},
			{
				"x": -1.1465761692,
				"y": 0.2962198075,
				"z": 3.4355648275,
				"element": "C" 
			},
			{
				"x": -2.4432131437,
				"y": -0.2071802512,
				"z": 3.2863485171,
				"element": "C" 
			},
			{
				"x": -3.4862121708,
				"y": 0.1846407269,
				"z": 4.0755467397,
				"element": "O" 
			},
			{
				"x": -2.7066009211,
				"y": -1.1565365576,
				"z": 2.2921522179,
				"element": "C" 
			},
			{
				"x": -1.6772496388,
				"y": -1.5913979167,
				"z": 1.4625592287,
				"element": "C" 
			},
			{
				"x": -0.6759276929,
				"y": 1.0857647072,
				"z": -5.0966240518,
				"element": "H" 
			},
			{
				"x": -0.0347873224,
				"y": -0.4201198801,
				"z": -3.4892840263,
				"element": "H" 
			},
			{
				"x": -1.5321266489,
				"y": 0.3831804986,
				"z": -2.9558131192,
				"element": "H" 
			},
			{
				"x": 1.336337564,
				"y": 1.2122344575,
				"z": -2.2890123594,
				"element": "H" 
			},
			{
				"x": -0.1051050345,
				"y": 2.1269037132,
				"z": -1.8076365895,
				"element": "H" 
			},
			{
				"x": -0.5628333467,
				"y": 0.498971856,
				"z": -0.1645430408,
				"element": "H" 
			},
			{
				"x": 1.7038276124,
				"y": -1.5517927482,
				"z": 1.1898946744,
				"element": "H" 
			},
			{
				"x": 0.5779390543,
				"y": -2.6051316813,
				"z": 0.3694693295,
				"element": "H" 
			},
			{
				"x": 0.8773934198,
				"y": 0.2462342994,
				"z": 2.7264289787,
				"element": "H" 
			},
			{
				"x": -0.932820473,
				"y": 1.0306094527,
				"z": 4.2095817032,
				"element": "H" 
			},
			{
				"x": -3.1712516458,
				"y": 0.8284888387,
				"z": 4.7231732388,
				"element": "H" 
			},
			{
				"x": -3.7151490409,
				"y": -1.5435022999,
				"z": 2.1904935849,
				"element": "H" 
			},
			{
				"x": -1.8931009811,
				"y": -2.3342823454,
				"z": 0.6984313856,
				"element": "H" 
			}
		],
		 "valence_orbital": [ 
			{
				"type": "occ",
				"energy": -0.26574,
				"method": "rhf"
			},
			{
				"type": "occ",
				"energy": -0.26358,
				"method": "rhf"
			},
			{
				"type": "occ",
				"energy": -0.25017,
				"method": "rhf"
			},
			{
				"type": "occ",
				"energy": -0.2456,
				"method": "rhf"
			},
			{
				"type": "occ",
				"energy": -0.22092,
				"method": "rhf"
			},
			{
				"type": "unocc",
				"energy": -0.01434,
				"method": "rhf"
			},
			{
				"type": "unocc",
				"energy": -0.0004,
				"method": "rhf"
			},
			{
				"type": "unocc",
				"energy": 0.03734,
				"method": "rhf"
			},
			{
				"type": "unocc",
				"energy": 0.06284,
				"method": "rhf"
			},
			{
				"type": "unocc",
				"energy": 0.07656,
				"method": "rhf"
			}
		],
		"cosmo_sigma_profile": { 
			"-0.025": 0.0,
			"-0.024": 0.0,
			"-0.023": 0.0,
			"-0.022": 0.0,
			"-0.021": 0.0,
			"-0.02": 0.0,
			"-0.019": 0.0,
			"-0.018": 0.177054021397,
			"-0.017": 1.05686681578,
			"-0.016": 2.15035442049,
			"-0.015": 1.70281342847,
			"-0.014": 1.94967126324,
			"-0.013": 2.00718600535,
			"-0.012": 2.60204600272,
			"-0.011": 2.66079310686,
			"-0.01": 2.24494135849,
			"-0.009": 2.81127095614,
			"-0.008": 3.00194363818,
			"-0.007": 3.85085098609,
			"-0.006": 12.0004822838,
			"-0.005": 17.7772862488,
			"-0.004": 18.6118583566,
			"-0.003": 18.7196533326,
			"-0.002": 17.3239202742,
			"-0.001": 17.9871310869,
			"0.0": 13.5879157698,
			"0.001": 11.5297675957,
			"0.002": 11.0371576204,
			"0.003": 13.1316010386,
			"0.004": 14.6962876016,
			"0.005": 9.23518110843,
			"0.006": 5.87963646468,
			"0.007": 4.17140634346,
			"0.008": 4.4143275068,
			"0.009": 3.89810824582,
			"0.01": 4.196573559,
			"0.011": 4.50244396765,
			"0.012": 3.51941081117,
			"0.013": 4.08941205193,
			"0.014": 6.8172554313,
			"0.015": 2.47343081687,
			"0.016": 0.186792257662,
			"0.017": 0.0,
			"0.018": 0.0,
			"0.019": 0.0,
			"0.02": 0.0,
			"0.021": 0.0,
			"0.022": 0.0,
			"0.023": 0.0,
			"0.024": 0.0,
			"0.025": 0.0
		}
	}
}
