{
	 "smiles": "CC(=O)N1CCCC(C1)C(N)=O", 
	 "Tm": 420.15, 
	 "num_atms": 26, 
	 "gaussian": { 
		 "optdone": 1, 
		 "sigma_profile": "yes", 
		 "theory": "DFT", 
		 "functional": "B3LYP", 
		 "basiset": "6-31G**", 
		 "properties": { 
			 "R2extent": 2611.1867, 
			 "electric_dipole_moment_norm": 1.4434802839, 
			 "electric_quadrupole_moment_norm": 18.4625898316, 
			 "total_energy": -573.275188693, 
			 "HOMO_LUMO_gap": 0.25537, 
			 "cosmo_polarized_energy": -18.06, 
			 "cosmo_cavitation_energy": 27.71, 
			 "cosmo_dispersion_energy": -20.01, 
			 "cosmo_repulsion_energy": 1.61, 
			 "cosmo_total_nonelectrostatic_energy": 9.31, 
			 "SMD_solvation_energy": 5.3 
		},
		"coords": [
			{
				"x": 2.1096057815,
				"y": -0.0068743698,
				"z": -2.7668095281,
				"element": "C" 
			},
			{
				"x": 1.296275523,
				"y": 0.9288691909,
				"z": -1.8846026443,
				"element": "C" 
			},
			{
				"x": 1.2426020194,
				"y": 2.1345554982,
				"z": -2.1159600822,
				"element": "O" 
			},
			{
				"x": 0.631265592,
				"y": 0.3531410724,
				"z": -0.8264289334,
				"element": "N" 
			},
			{
				"x": 0.6394368017,
				"y": -1.0885343047,
				"z": -0.539714383,
				"element": "C" 
			},
			{
				"x": -0.4678972924,
				"y": -1.4417712008,
				"z": 0.4640810903,
				"element": "C" 
			},
			{
				"x": -1.7939161067,
				"y": -0.7640147481,
				"z": 0.0971114811,
				"element": "C" 
			},
			{
				"x": -1.6545766774,
				"y": 0.7791851794,
				"z": 0.0275248357,
				"element": "C" 
			},
			{
				"x": -0.1629947857,
				"y": 1.2024895783,
				"z": 0.0547872832,
				"element": "C" 
			},
			{
				"x": -2.3877552117,
				"y": 1.4726035384,
				"z": 1.18518623,
				"element": "C" 
			},
			{
				"x": -2.5874026539,
				"y": 2.8127364328,
				"z": 1.0091519838,
				"element": "N" 
			},
			{
				"x": -2.7379877052,
				"y": 0.8912785617,
				"z": 2.2034774054,
				"element": "O" 
			},
			{
				"x": 2.8081633396,
				"y": -0.6183527047,
				"z": -2.1867689223,
				"element": "H" 
			},
			{
				"x": 1.4602106088,
				"y": -0.6903429251,
				"z": -3.3253248925,
				"element": "H" 
			},
			{
				"x": 2.6654251907,
				"y": 0.6068341578,
				"z": -3.4749089971,
				"element": "H" 
			},
			{
				"x": 0.4656458276,
				"y": -1.6430862627,
				"z": -1.4695718029,
				"element": "H" 
			},
			{
				"x": 1.6183894557,
				"y": -1.4064912725,
				"z": -0.1521722579,
				"element": "H" 
			},
			{
				"x": -0.5851850465,
				"y": -2.5304088098,
				"z": 0.4833749932,
				"element": "H" 
			},
			{
				"x": -0.1727523276,
				"y": -1.1455019614,
				"z": 1.4765822264,
				"element": "H" 
			},
			{
				"x": -2.5543065512,
				"y": -1.0189394342,
				"z": 0.8390414392,
				"element": "H" 
			},
			{
				"x": -2.1338047674,
				"y": -1.1427360856,
				"z": -0.8739282717,
				"element": "H" 
			},
			{
				"x": -2.0802989086,
				"y": 1.1434901623,
				"z": -0.9154527458,
				"element": "H" 
			},
			{
				"x": 0.2223656647,
				"y": 1.1384303901,
				"z": 1.0804432626,
				"element": "H" 
			},
			{
				"x": -0.0250483271,
				"y": 2.2260711338,
				"z": -0.291265289,
				"element": "H" 
			},
			{
				"x": -3.0216875249,
				"y": 3.3340432397,
				"z": 1.755436804,
				"element": "H" 
			},
			{
				"x": -2.3072719184,
				"y": 3.2980259439,
				"z": 0.1723097153,
				"element": "H" 
			}
		],
		 "valence_orbital": [ 
			{
				"type": "occ",
				"energy": -0.32814,
				"method": "rhf"
			},
			{
				"type": "occ",
				"energy": -0.26934,
				"method": "rhf"
			},
			{
				"type": "occ",
				"energy": -0.25288,
				"method": "rhf"
			},
			{
				"type": "occ",
				"energy": -0.24236,
				"method": "rhf"
			},
			{
				"type": "occ",
				"energy": -0.23149,
				"method": "rhf"
			},
			{
				"type": "unocc",
				"energy": 0.02388,
				"method": "rhf"
			},
			{
				"type": "unocc",
				"energy": 0.03259,
				"method": "rhf"
			},
			{
				"type": "unocc",
				"energy": 0.06417,
				"method": "rhf"
			},
			{
				"type": "unocc",
				"energy": 0.08118,
				"method": "rhf"
			},
			{
				"type": "unocc",
				"energy": 0.10067,
				"method": "rhf"
			}
		],
		"cosmo_sigma_profile": { 
			"-0.025": 0.0,
			"-0.024": 0.0,
			"-0.023": 0.0,
			"-0.022": 0.0,
			"-0.021": 0.0,
			"-0.02": 0.0,
			"-0.019": 0.0,
			"-0.018": 0.0,
			"-0.017": 0.0,
			"-0.016": 0.0,
			"-0.015": 0.0648352325869,
			"-0.014": 1.43159215573,
			"-0.013": 2.65013354938,
			"-0.012": 2.12569495297,
			"-0.011": 2.26861047115,
			"-0.01": 3.2992880429,
			"-0.009": 2.22657615109,
			"-0.008": 2.40234712098,
			"-0.007": 2.73871981225,
			"-0.006": 5.20211692235,
			"-0.005": 13.5430722464,
			"-0.004": 22.0231272746,
			"-0.003": 25.878660684,
			"-0.002": 23.7468190668,
			"-0.001": 20.8891444686,
			"0.0": 16.6625742741,
			"0.001": 8.74521634348,
			"0.002": 6.51348614907,
			"0.003": 5.08562342627,
			"0.004": 3.71976665563,
			"0.005": 4.10464583033,
			"0.006": 3.67128633287,
			"0.007": 2.12194018891,
			"0.008": 2.53667734888,
			"0.009": 3.58475567552,
			"0.01": 2.44985355234,
			"0.011": 2.46495577041,
			"0.012": 3.509320744,
			"0.013": 5.67037850355,
			"0.014": 10.0859330592,
			"0.015": 3.49094656557,
			"0.016": 0.359840197011,
			"0.017": 0.0,
			"0.018": 0.0,
			"0.019": 0.0,
			"0.02": 0.0,
			"0.021": 0.0,
			"0.022": 0.0,
			"0.023": 0.0,
			"0.024": 0.0,
			"0.025": 0.0
		}
	}
}
