{
	 "smiles": "CC1=C(Cl)C=C2C(=O)C=C(OC2=C1)C1=CC=CC=C1", 
	 "Tm": 449.15, 
	 "num_atms": 30, 
	 "gaussian": { 
		 "optdone": 1, 
		 "sigma_profile": "yes", 
		 "theory": "DFT", 
		 "functional": "B3LYP", 
		 "basiset": "6-31G**", 
		 "properties": { 
			 "R2extent": 8852.8535, 
			 "electric_dipole_moment_norm": 5.47505192761, 
			 "electric_quadrupole_moment_norm": 21.6828459779, 
			 "total_energy": -1226.98294752, 
			 "HOMO_LUMO_gap": 0.1651, 
			 "cosmo_polarized_energy": -11.66, 
			 "cosmo_cavitation_energy": 36.32, 
			 "cosmo_dispersion_energy": -26.6, 
			 "cosmo_repulsion_energy": 1.99, 
			 "cosmo_total_nonelectrostatic_energy": 11.71, 
			 "SMD_solvation_energy": 6.58 
		},
		"coords": [
			{
				"x": -2.1760045347,
				"y": -3.833489027,
				"z": -3.8214648596,
				"element": "C" 
			},
			{
				"x": -2.4369650662,
				"y": -2.6640809787,
				"z": -2.9094596189,
				"element": "C" 
			},
			{
				"x": -3.691832159,
				"y": -2.0119165902,
				"z": -2.8708909848,
				"element": "C" 
			},
			{
				"x": -4.9899113794,
				"y": -2.5779072687,
				"z": -3.9170867189,
				"element": "Cl" 
			},
			{
				"x": -3.9366650867,
				"y": -0.9376232859,
				"z": -2.0338772501,
				"element": "C" 
			},
			{
				"x": -2.9237952973,
				"y": -0.4638822257,
				"z": -1.1884639837,
				"element": "C" 
			},
			{
				"x": -3.1476302196,
				"y": 0.6871493125,
				"z": -0.2831463813,
				"element": "C" 
			},
			{
				"x": -4.2216739996,
				"y": 1.2840772811,
				"z": -0.2191314666,
				"element": "O" 
			},
			{
				"x": -1.9758884749,
				"y": 1.0434032033,
				"z": 0.5076973383,
				"element": "C" 
			},
			{
				"x": -0.8038313572,
				"y": 0.360374083,
				"z": 0.429129224,
				"element": "C" 
			},
			{
				"x": -0.6411596132,
				"y": -0.697557468,
				"z": -0.419270445,
				"element": "O" 
			},
			{
				"x": -1.6792730539,
				"y": -1.0993019884,
				"z": -1.2190370762,
				"element": "C" 
			},
			{
				"x": -1.4369465608,
				"y": -2.1843043224,
				"z": -2.0652876579,
				"element": "C" 
			},
			{
				"x": 0.4230013659,
				"y": 0.6501044155,
				"z": 1.195356888,
				"element": "C" 
			},
			{
				"x": 0.3681214716,
				"y": 1.4000868046,
				"z": 2.3829671274,
				"element": "C" 
			},
			{
				"x": 1.5313088005,
				"y": 1.6868360444,
				"z": 3.0919000972,
				"element": "C" 
			},
			{
				"x": 2.7675235836,
				"y": 1.2257754113,
				"z": 2.632561753,
				"element": "C" 
			},
			{
				"x": 2.8310068903,
				"y": 0.47105206,
				"z": 1.4600608432,
				"element": "C" 
			},
			{
				"x": 1.669676603,
				"y": 0.1814999584,
				"z": 0.7467738009,
				"element": "C" 
			},
			{
				"x": -2.3289624402,
				"y": -3.5575629625,
				"z": -4.8701227394,
				"element": "H" 
			},
			{
				"x": -1.1524573054,
				"y": -4.1967888758,
				"z": -3.7051687022,
				"element": "H" 
			},
			{
				"x": -2.8631117795,
				"y": -4.6595106552,
				"z": -3.6098605544,
				"element": "H" 
			},
			{
				"x": -4.8996442711,
				"y": -0.4402357199,
				"z": -2.0077186338,
				"element": "H" 
			},
			{
				"x": -2.0629345972,
				"y": 1.9003694327,
				"z": 1.1630477272,
				"element": "H" 
			},
			{
				"x": -0.4568808073,
				"y": -2.6500802941,
				"z": -2.0548625912,
				"element": "H" 
			},
			{
				"x": -0.5882043365,
				"y": 1.7409676074,
				"z": 2.7652053439,
				"element": "H" 
			},
			{
				"x": 1.4711861954,
				"y": 2.2632678485,
				"z": 4.0101640896,
				"element": "H" 
			},
			{
				"x": 3.6734401948,
				"y": 1.4489247955,
				"z": 3.1883083552,
				"element": "H" 
			},
			{
				"x": 3.7878266232,
				"y": 0.1073432902,
				"z": 1.0973076831,
				"element": "H" 
			},
			{
				"x": 1.7225806112,
				"y": -0.4020898858,
				"z": -0.1648306072,
				"element": "H" 
			}
		],
		 "valence_orbital": [ 
			{
				"type": "occ",
				"energy": -0.26757,
				"method": "rhf"
			},
			{
				"type": "occ",
				"energy": -0.26577,
				"method": "rhf"
			},
			{
				"type": "occ",
				"energy": -0.24715,
				"method": "rhf"
			},
			{
				"type": "occ",
				"energy": -0.24209,
				"method": "rhf"
			},
			{
				"type": "occ",
				"energy": -0.23571,
				"method": "rhf"
			},
			{
				"type": "unocc",
				"energy": -0.07061,
				"method": "rhf"
			},
			{
				"type": "unocc",
				"energy": -0.0369,
				"method": "rhf"
			},
			{
				"type": "unocc",
				"energy": -0.01745,
				"method": "rhf"
			},
			{
				"type": "unocc",
				"energy": -0.01408,
				"method": "rhf"
			},
			{
				"type": "unocc",
				"energy": 0.0209,
				"method": "rhf"
			}
		],
		"cosmo_sigma_profile": { 
			"-0.025": 0.0,
			"-0.024": 0.0,
			"-0.023": 0.0,
			"-0.022": 0.0,
			"-0.021": 0.0,
			"-0.02": 0.0,
			"-0.019": 0.0,
			"-0.018": 0.0,
			"-0.017": 0.0,
			"-0.016": 0.0,
			"-0.015": 0.0,
			"-0.014": 0.0,
			"-0.013": 0.0,
			"-0.012": 0.0,
			"-0.011": 0.0,
			"-0.01": 0.0,
			"-0.009": 0.442604968767,
			"-0.008": 3.16666248579,
			"-0.007": 6.74937338675,
			"-0.006": 14.6252073104,
			"-0.005": 18.7590362157,
			"-0.004": 19.8953609467,
			"-0.003": 19.3551047946,
			"-0.002": 24.266506881,
			"-0.001": 29.9538213943,
			"0.0": 31.0059131536,
			"0.001": 35.2383462104,
			"0.002": 23.7229979878,
			"0.003": 19.1162931216,
			"0.004": 22.3597453368,
			"0.005": 6.44946266019,
			"0.006": 1.11586661109,
			"0.007": 1.97103350952,
			"0.008": 1.49811027074,
			"0.009": 1.17947113506,
			"0.01": 1.24780416626,
			"0.011": 2.08029502897,
			"0.012": 2.3363340351,
			"0.013": 5.01931212601,
			"0.014": 2.45579706543,
			"0.015": 0.421174277554,
			"0.016": 0.0,
			"0.017": 0.0,
			"0.018": 0.0,
			"0.019": 0.0,
			"0.02": 0.0,
			"0.021": 0.0,
			"0.022": 0.0,
			"0.023": 0.0,
			"0.024": 0.0,
			"0.025": 0.0
		}
	}
}
