{
	 "smiles": "OCC1OC(=O)C=C1", 
	 "Tm": 315.15, 
	 "num_atms": 14, 
	 "gaussian": { 
		 "optdone": 1, 
		 "sigma_profile": "yes", 
		 "theory": "DFT", 
		 "functional": "B3LYP", 
		 "basiset": "6-31G**", 
		 "properties": { 
			 "R2extent": 1040.0284, 
			 "electric_dipole_moment_norm": 5.28804285535, 
			 "electric_quadrupole_moment_norm": 12.0873874791, 
			 "total_energy": -419.789665103, 
			 "HOMO_LUMO_gap": 0.22056, 
			 "cosmo_polarized_energy": -16.43, 
			 "cosmo_cavitation_energy": 18.38, 
			 "cosmo_dispersion_energy": -13.72, 
			 "cosmo_repulsion_energy": 1.18, 
			 "cosmo_total_nonelectrostatic_energy": 5.84, 
			 "SMD_solvation_energy": 4.49 
		},
		"coords": [
			{
				"x": -1.5237857362,
				"y": -2.2282689319,
				"z": 0.7529296727,
				"element": "O" 
			},
			{
				"x": -1.3638517195,
				"y": -0.8340416037,
				"z": 0.9269462486,
				"element": "C" 
			},
			{
				"x": -0.3403628669,
				"y": -0.347287641,
				"z": -0.0956789398,
				"element": "C" 
			},
			{
				"x": 0.9755160381,
				"y": -0.797556807,
				"z": 0.2560828166,
				"element": "O" 
			},
			{
				"x": 1.8245312518,
				"y": 0.2796170649,
				"z": 0.3893376012,
				"element": "C" 
			},
			{
				"x": 2.9860847328,
				"y": 0.1620136607,
				"z": 0.6857380494,
				"element": "O" 
			},
			{
				"x": 1.0345988777,
				"y": 1.5065429075,
				"z": 0.1079403918,
				"element": "C" 
			},
			{
				"x": -0.2201382113,
				"y": 1.1510678972,
				"z": -0.1734293939,
				"element": "C" 
			},
			{
				"x": -1.9221287967,
				"y": -2.5943410971,
				"z": 1.5511770034,
				"element": "H" 
			},
			{
				"x": -2.3101369003,
				"y": -0.2926931298,
				"z": 0.7570309765,
				"element": "H" 
			},
			{
				"x": -0.9987710053,
				"y": -0.5722762789,
				"z": 1.930221399,
				"element": "H" 
			},
			{
				"x": -0.5994048211,
				"y": -0.7857918587,
				"z": -1.0695087637,
				"element": "H" 
			},
			{
				"x": 1.4709130804,
				"y": 2.4954612026,
				"z": 0.1422684716,
				"element": "H" 
			},
			{
				"x": -1.0527639236,
				"y": 1.7983546152,
				"z": -0.4246555335,
				"element": "H" 
			}
		],
		 "valence_orbital": [ 
			{
				"type": "occ",
				"energy": -0.35411,
				"method": "rhf"
			},
			{
				"type": "occ",
				"energy": -0.30975,
				"method": "rhf"
			},
			{
				"type": "occ",
				"energy": -0.2905,
				"method": "rhf"
			},
			{
				"type": "occ",
				"energy": -0.27789,
				"method": "rhf"
			},
			{
				"type": "occ",
				"energy": -0.2693,
				"method": "rhf"
			},
			{
				"type": "unocc",
				"energy": -0.04874,
				"method": "rhf"
			},
			{
				"type": "unocc",
				"energy": 0.06343,
				"method": "rhf"
			},
			{
				"type": "unocc",
				"energy": 0.07613,
				"method": "rhf"
			},
			{
				"type": "unocc",
				"energy": 0.09382,
				"method": "rhf"
			},
			{
				"type": "unocc",
				"energy": 0.11578,
				"method": "rhf"
			}
		],
		"cosmo_sigma_profile": { 
			"-0.025": 0.0,
			"-0.024": 0.0,
			"-0.023": 0.0,
			"-0.022": 0.0,
			"-0.021": 0.0,
			"-0.02": 0.0,
			"-0.019": 0.0,
			"-0.018": 0.0,
			"-0.017": 0.0998466629802,
			"-0.016": 1.3589558049,
			"-0.015": 0.577930929731,
			"-0.014": 1.10832160332,
			"-0.013": 1.10861583244,
			"-0.012": 1.25249500641,
			"-0.011": 0.613997725584,
			"-0.01": 0.935993098693,
			"-0.009": 3.56340345397,
			"-0.008": 7.12686899991,
			"-0.007": 9.46385972676,
			"-0.006": 9.57135004808,
			"-0.005": 11.5676255473,
			"-0.004": 10.8988249073,
			"-0.003": 8.95491543477,
			"-0.002": 7.50394930923,
			"-0.001": 6.5277522765,
			"0.0": 5.64998511393,
			"0.001": 6.0910512673,
			"0.002": 3.21634493788,
			"0.003": 2.89382115907,
			"0.004": 2.56037435877,
			"0.005": 1.92797382387,
			"0.006": 3.70135849808,
			"0.007": 2.92148981525,
			"0.008": 3.60518410384,
			"0.009": 4.90322715092,
			"0.01": 5.54430439009,
			"0.011": 7.26442039639,
			"0.012": 7.988700771,
			"0.013": 4.694688007,
			"0.014": 0.360168283634,
			"0.015": 0.0,
			"0.016": 0.0,
			"0.017": 0.0,
			"0.018": 0.0,
			"0.019": 0.0,
			"0.02": 0.0,
			"0.021": 0.0,
			"0.022": 0.0,
			"0.023": 0.0,
			"0.024": 0.0,
			"0.025": 0.0
		}
	}
}
