{
	 "smiles": "OC(=O)C1=C(Cl)C=CC(=C1)C1=CC=CC=C1", 
	 "Tm": 473.15, 
	 "num_atms": 25, 
	 "gaussian": { 
		 "optdone": 1, 
		 "sigma_profile": "yes", 
		 "theory": "DFT", 
		 "functional": "B3LYP", 
		 "basiset": "6-31G**", 
		 "properties": { 
			 "R2extent": 5915.6913, 
			 "electric_dipole_moment_norm": 1.89983866947, 
			 "electric_quadrupole_moment_norm": 8.7527934718, 
			 "total_energy": -1111.46647362, 
			 "HOMO_LUMO_gap": 0.17347, 
			 "cosmo_polarized_energy": -10.67, 
			 "cosmo_cavitation_energy": 31.51, 
			 "cosmo_dispersion_energy": -23.19, 
			 "cosmo_repulsion_energy": 1.79, 
			 "cosmo_total_nonelectrostatic_energy": 10.11, 
			 "SMD_solvation_energy": 6.16 
		},
		"coords": [
			{
				"x": -3.957485852,
				"y": 2.8189050633,
				"z": 0.1061675885,
				"element": "O" 
			},
			{
				"x": -2.6955751529,
				"y": 2.3682391087,
				"z": -0.0272272282,
				"element": "C" 
			},
			{
				"x": -1.7354675473,
				"y": 3.0948342059,
				"z": 0.1489884238,
				"element": "O" 
			},
			{
				"x": -2.5661161763,
				"y": 0.9192852207,
				"z": -0.385019094,
				"element": "C" 
			},
			{
				"x": -3.5908377364,
				"y": 0.0239276792,
				"z": -0.7502471531,
				"element": "C" 
			},
			{
				"x": -5.2802293624,
				"y": 0.4676116147,
				"z": -0.8973864467,
				"element": "Cl" 
			},
			{
				"x": -3.28062985,
				"y": -1.3071652386,
				"z": -1.0427690077,
				"element": "C" 
			},
			{
				"x": -1.9693766082,
				"y": -1.7621806672,
				"z": -0.9777528041,
				"element": "C" 
			},
			{
				"x": -0.9205728211,
				"y": -0.8986496649,
				"z": -0.6202228216,
				"element": "C" 
			},
			{
				"x": -1.2506648544,
				"y": 0.4284406923,
				"z": -0.3334146783,
				"element": "C" 
			},
			{
				"x": 0.4841377094,
				"y": -1.3744645228,
				"z": -0.5497855184,
				"element": "C" 
			},
			{
				"x": 0.7845406668,
				"y": -2.6647470979,
				"z": -0.0814153537,
				"element": "C" 
			},
			{
				"x": 2.1030737853,
				"y": -3.1129046841,
				"z": -0.0169384202,
				"element": "C" 
			},
			{
				"x": 3.1488445885,
				"y": -2.2797189368,
				"z": -0.41840959,
				"element": "C" 
			},
			{
				"x": 2.864810699,
				"y": -0.9946755785,
				"z": -0.8847029285,
				"element": "C" 
			},
			{
				"x": 1.5464848005,
				"y": -0.5466171988,
				"z": -0.9505707944,
				"element": "C" 
			},
			{
				"x": -3.8717438807,
				"y": 3.758756112,
				"z": 0.340016631,
				"element": "H" 
			},
			{
				"x": -4.0793432649,
				"y": -1.9794715699,
				"z": -1.3351544129,
				"element": "H" 
			},
			{
				"x": -1.7563870886,
				"y": -2.7954642894,
				"z": -1.2339156566,
				"element": "H" 
			},
			{
				"x": -0.4833367156,
				"y": 1.1331462009,
				"z": -0.0345238666,
				"element": "H" 
			},
			{
				"x": -0.0183707984,
				"y": -3.3114275222,
				"z": 0.2605259515,
				"element": "H" 
			},
			{
				"x": 2.3139471091,
				"y": -4.1109905934,
				"z": 0.3563571829,
				"element": "H" 
			},
			{
				"x": 4.1761244129,
				"y": -2.6284401948,
				"z": -0.3676449453,
				"element": "H" 
			},
			{
				"x": 3.670671826,
				"y": -0.3410839986,
				"z": -1.2060460434,
				"element": "H" 
			},
			{
				"x": 1.3354021116,
				"y": 0.4455558602,
				"z": -1.3382090139,
				"element": "H" 
			}
		],
		 "valence_orbital": [ 
			{
				"type": "occ",
				"energy": -0.28316,
				"method": "rhf"
			},
			{
				"type": "occ",
				"energy": -0.27673,
				"method": "rhf"
			},
			{
				"type": "occ",
				"energy": -0.27138,
				"method": "rhf"
			},
			{
				"type": "occ",
				"energy": -0.25715,
				"method": "rhf"
			},
			{
				"type": "occ",
				"energy": -0.2324,
				"method": "rhf"
			},
			{
				"type": "unocc",
				"energy": -0.05893,
				"method": "rhf"
			},
			{
				"type": "unocc",
				"energy": -0.03718,
				"method": "rhf"
			},
			{
				"type": "unocc",
				"energy": -0.00885,
				"method": "rhf"
			},
			{
				"type": "unocc",
				"energy": 0.00825,
				"method": "rhf"
			},
			{
				"type": "unocc",
				"energy": 0.02756,
				"method": "rhf"
			}
		],
		"cosmo_sigma_profile": { 
			"-0.025": 0.0,
			"-0.024": 0.0,
			"-0.023": 0.0,
			"-0.022": 0.0,
			"-0.021": 0.0,
			"-0.02": 0.0,
			"-0.019": 0.299763806154,
			"-0.018": 1.06247062951,
			"-0.017": 0.627436671679,
			"-0.016": 0.8391085908,
			"-0.015": 0.688387962747,
			"-0.014": 0.325901078713,
			"-0.013": 0.629937660146,
			"-0.012": 0.841740951709,
			"-0.011": 0.705860335896,
			"-0.01": 0.560874248569,
			"-0.009": 0.617636352549,
			"-0.008": 1.62116495958,
			"-0.007": 5.97478056542,
			"-0.006": 13.2256388111,
			"-0.005": 15.970383556,
			"-0.004": 15.9945309377,
			"-0.003": 18.208298747,
			"-0.002": 16.2794919262,
			"-0.001": 16.2582225007,
			"0.0": 19.1926774453,
			"0.001": 26.2406335389,
			"0.002": 25.9980814286,
			"0.003": 16.2661938083,
			"0.004": 17.8820687032,
			"0.005": 15.3613203883,
			"0.006": 5.46835699281,
			"0.007": 2.75651044899,
			"0.008": 4.11874879256,
			"0.009": 2.8978810335,
			"0.01": 1.77583925181,
			"0.011": 4.50643464727,
			"0.012": 2.29369741033,
			"0.013": 0.0,
			"0.014": 0.0,
			"0.015": 0.0,
			"0.016": 0.0,
			"0.017": 0.0,
			"0.018": 0.0,
			"0.019": 0.0,
			"0.02": 0.0,
			"0.021": 0.0,
			"0.022": 0.0,
			"0.023": 0.0,
			"0.024": 0.0,
			"0.025": 0.0
		}
	}
}
