{
	 "smiles": "CC(=O)C1=CSC(=C1)C(=O)CCl", 
	 "Tm": 398.15, 
	 "num_atms": 19, 
	 "gaussian": { 
		 "optdone": 1, 
		 "sigma_profile": "yes", 
		 "theory": "DFT", 
		 "functional": "B3LYP", 
		 "basiset": "6-31G**", 
		 "properties": { 
			 "R2extent": 4429.1762, 
			 "electric_dipole_moment_norm": 3.25147047042, 
			 "electric_quadrupole_moment_norm": 20.9940157831, 
			 "total_energy": -1317.88358008, 
			 "HOMO_LUMO_gap": 0.17288, 
			 "cosmo_polarized_energy": -13.5, 
			 "cosmo_cavitation_energy": 27.57, 
			 "cosmo_dispersion_energy": -20.14, 
			 "cosmo_repulsion_energy": 1.58, 
			 "cosmo_total_nonelectrostatic_energy": 9.01, 
			 "SMD_solvation_energy": 5.65 
		},
		"coords": [
			{
				"x": 0.2606176703,
				"y": 1.675800863,
				"z": -2.0475740269,
				"element": "C" 
			},
			{
				"x": -0.3794403323,
				"y": 1.076206701,
				"z": -0.8095297578,
				"element": "C" 
			},
			{
				"x": -1.0455922985,
				"y": 1.7526198738,
				"z": -0.0414020751,
				"element": "O" 
			},
			{
				"x": -0.1779381118,
				"y": -0.3751042709,
				"z": -0.5399492485,
				"element": "C" 
			},
			{
				"x": 0.567702101,
				"y": -1.2550910001,
				"z": -1.3009814579,
				"element": "C" 
			},
			{
				"x": 0.572656485,
				"y": -2.850624599,
				"z": -0.666193362,
				"element": "S" 
			},
			{
				"x": -0.4562276369,
				"y": -2.3576937182,
				"z": 0.6663514812,
				"element": "C" 
			},
			{
				"x": -0.764146999,
				"y": -1.0205465117,
				"z": 0.5888866465,
				"element": "C" 
			},
			{
				"x": -0.824803448,
				"y": -3.3689814687,
				"z": 1.6647049312,
				"element": "C" 
			},
			{
				"x": -0.4145530232,
				"y": -4.5178470103,
				"z": 1.5958316445,
				"element": "O" 
			},
			{
				"x": -1.7125593509,
				"y": -2.9517432325,
				"z": 2.8387877309,
				"element": "C" 
			},
			{
				"x": -3.4083968394,
				"y": -2.5950506249,
				"z": 2.3070493494,
				"element": "Cl" 
			},
			{
				"x": 1.3496033087,
				"y": 1.5563813794,
				"z": -2.019380216,
				"element": "H" 
			},
			{
				"x": 0.014366103,
				"y": 2.7368047441,
				"z": -2.0953412582,
				"element": "H" 
			},
			{
				"x": -0.1014199242,
				"y": 1.1766196791,
				"z": -2.9533565793,
				"element": "H" 
			},
			{
				"x": 1.1179487806,
				"y": -1.0390127845,
				"z": -2.2070080443,
				"element": "H" 
			},
			{
				"x": -1.3965519702,
				"y": -0.4891734974,
				"z": 1.2890426192,
				"element": "H" 
			},
			{
				"x": -1.7566222848,
				"y": -3.7843575321,
				"z": 3.5385884443,
				"element": "H" 
			},
			{
				"x": -1.3368422296,
				"y": -2.0541069902,
				"z": 3.3335731787,
				"element": "H" 
			}
		],
		 "valence_orbital": [ 
			{
				"type": "occ",
				"energy": -0.31105,
				"method": "rhf"
			},
			{
				"type": "occ",
				"energy": -0.27847,
				"method": "rhf"
			},
			{
				"type": "occ",
				"energy": -0.27436,
				"method": "rhf"
			},
			{
				"type": "occ",
				"energy": -0.26684,
				"method": "rhf"
			},
			{
				"type": "occ",
				"energy": -0.26041,
				"method": "rhf"
			},
			{
				"type": "unocc",
				"energy": -0.08753,
				"method": "rhf"
			},
			{
				"type": "unocc",
				"energy": -0.05899,
				"method": "rhf"
			},
			{
				"type": "unocc",
				"energy": -0.00091,
				"method": "rhf"
			},
			{
				"type": "unocc",
				"energy": 0.01113,
				"method": "rhf"
			},
			{
				"type": "unocc",
				"energy": 0.05154,
				"method": "rhf"
			}
		],
		"cosmo_sigma_profile": { 
			"-0.025": 0.0,
			"-0.024": 0.0,
			"-0.023": 0.0,
			"-0.022": 0.0,
			"-0.021": 0.0,
			"-0.02": 0.0,
			"-0.019": 0.0,
			"-0.018": 0.0,
			"-0.017": 0.0,
			"-0.016": 0.0,
			"-0.015": 0.0,
			"-0.014": 0.0,
			"-0.013": 0.0,
			"-0.012": 0.0,
			"-0.011": 0.4497542436,
			"-0.01": 3.1128252017,
			"-0.009": 6.02416927024,
			"-0.008": 8.13649079087,
			"-0.007": 9.19956146343,
			"-0.006": 12.8198948957,
			"-0.005": 11.0824099433,
			"-0.004": 10.7030634581,
			"-0.003": 11.0124139285,
			"-0.002": 13.9129817041,
			"-0.001": 18.2713975901,
			"0.0": 24.3461445407,
			"0.001": 19.5378468344,
			"0.002": 12.8695838641,
			"0.003": 9.72248286187,
			"0.004": 10.6275413789,
			"0.005": 10.246107599,
			"0.006": 5.22543812059,
			"0.007": 2.88790172255,
			"0.008": 3.27335782488,
			"0.009": 4.04719071359,
			"0.01": 5.75099049495,
			"0.011": 6.74468712881,
			"0.012": 3.68621032202,
			"0.013": 1.04349665454,
			"0.014": 0.00849192551614,
			"0.015": 0.0,
			"0.016": 0.0,
			"0.017": 0.0,
			"0.018": 0.0,
			"0.019": 0.0,
			"0.02": 0.0,
			"0.021": 0.0,
			"0.022": 0.0,
			"0.023": 0.0,
			"0.024": 0.0,
			"0.025": 0.0
		}
	}
}
