{
	 "smiles": "OC(=O)C1=CC=C(NC(=O)C=C)C=C1", 
	 "Tm": 520.15, 
	 "num_atms": 23, 
	 "gaussian": { 
		 "optdone": 1, 
		 "sigma_profile": "yes", 
		 "theory": "DFT", 
		 "functional": "B3LYP", 
		 "basiset": "6-31G**", 
		 "properties": { 
			 "R2extent": 3928.3565, 
			 "electric_dipole_moment_norm": 2.92367837663, 
			 "electric_quadrupole_moment_norm": 28.3614093566, 
			 "total_energy": -666.90828267, 
			 "HOMO_LUMO_gap": 0.17831, 
			 "cosmo_polarized_energy": -21.13, 
			 "cosmo_cavitation_energy": 28.55, 
			 "cosmo_dispersion_energy": -20.53, 
			 "cosmo_repulsion_energy": 1.61, 
			 "cosmo_total_nonelectrostatic_energy": 9.63, 
			 "SMD_solvation_energy": 7.47 
		},
		"coords": [
			{
				"x": -4.1081898439,
				"y": -1.6399934118,
				"z": 0.2952259709,
				"element": "O" 
			},
			{
				"x": -2.9765495436,
				"y": -2.3947502999,
				"z": 0.2448720675,
				"element": "C" 
			},
			{
				"x": -3.037279769,
				"y": -3.5842292156,
				"z": 0.452390703,
				"element": "O" 
			},
			{
				"x": -1.6992844224,
				"y": -1.6823633476,
				"z": -0.0718225135,
				"element": "C" 
			},
			{
				"x": -1.5244208021,
				"y": -0.2995795659,
				"z": 0.0715325387,
				"element": "C" 
			},
			{
				"x": -0.3085056085,
				"y": 0.3072305013,
				"z": -0.2314599229,
				"element": "C" 
			},
			{
				"x": 0.7789516505,
				"y": -0.4719020265,
				"z": -0.6591464321,
				"element": "C" 
			},
			{
				"x": 2.0219871222,
				"y": 0.0858395179,
				"z": -0.9999371967,
				"element": "N" 
			},
			{
				"x": 2.6957930998,
				"y": 1.2086591371,
				"z": -0.52638181,
				"element": "C" 
			},
			{
				"x": 3.6651777116,
				"y": 1.6262501828,
				"z": -1.1461479695,
				"element": "O" 
			},
			{
				"x": 2.2441551434,
				"y": 1.8007572124,
				"z": 0.765085501,
				"element": "C" 
			},
			{
				"x": 2.7277452372,
				"y": 2.9803186926,
				"z": 1.1623134284,
				"element": "C" 
			},
			{
				"x": 0.6064385256,
				"y": -1.8611814677,
				"z": -0.8014263202,
				"element": "C" 
			},
			{
				"x": -0.6118985359,
				"y": -2.4544725229,
				"z": -0.5079126093,
				"element": "C" 
			},
			{
				"x": -3.9391842893,
				"y": -0.7565294551,
				"z": -0.0593763063,
				"element": "H" 
			},
			{
				"x": -2.3320098594,
				"y": 0.3301080937,
				"z": 0.4374034101,
				"element": "H" 
			},
			{
				"x": -0.2086612419,
				"y": 1.3835227176,
				"z": -0.1543210868,
				"element": "H" 
			},
			{
				"x": 2.5237707949,
				"y": -0.3534269008,
				"z": -1.7625680689,
				"element": "H" 
			},
			{
				"x": 1.5506085313,
				"y": 1.2395590229,
				"z": 1.382865216,
				"element": "H" 
			},
			{
				"x": 3.4273803244,
				"y": 3.522419003,
				"z": 0.5334962093,
				"element": "H" 
			},
			{
				"x": 2.4455250179,
				"y": 3.4209197062,
				"z": 2.1129949113,
				"element": "H" 
			},
			{
				"x": 1.4449286926,
				"y": -2.4696603685,
				"z": -1.1283695527,
				"element": "H" 
			},
			{
				"x": -0.7447779354,
				"y": -3.5269952051,
				"z": -0.5992101672,
				"element": "H" 
			}
		],
		 "valence_orbital": [ 
			{
				"type": "occ",
				"energy": -0.28977,
				"method": "rhf"
			},
			{
				"type": "occ",
				"energy": -0.28275,
				"method": "rhf"
			},
			{
				"type": "occ",
				"energy": -0.27584,
				"method": "rhf"
			},
			{
				"type": "occ",
				"energy": -0.26872,
				"method": "rhf"
			},
			{
				"type": "occ",
				"energy": -0.24458,
				"method": "rhf"
			},
			{
				"type": "unocc",
				"energy": -0.06627,
				"method": "rhf"
			},
			{
				"type": "unocc",
				"energy": -0.04173,
				"method": "rhf"
			},
			{
				"type": "unocc",
				"energy": -0.033,
				"method": "rhf"
			},
			{
				"type": "unocc",
				"energy": 0.03766,
				"method": "rhf"
			},
			{
				"type": "unocc",
				"energy": 0.05383,
				"method": "rhf"
			}
		],
		"cosmo_sigma_profile": { 
			"-0.025": 0.0,
			"-0.024": 0.0,
			"-0.023": 0.0,
			"-0.022": 0.0,
			"-0.021": 0.0,
			"-0.02": 0.0,
			"-0.019": 0.369231508878,
			"-0.018": 0.866594413376,
			"-0.017": 1.07760669725,
			"-0.016": 1.22680561841,
			"-0.015": 0.808694145782,
			"-0.014": 1.77782947787,
			"-0.013": 2.46436355267,
			"-0.012": 2.31478418605,
			"-0.011": 2.25339966009,
			"-0.01": 3.01309203545,
			"-0.009": 2.50946604391,
			"-0.008": 3.25307367645,
			"-0.007": 9.02065871185,
			"-0.006": 12.0575345964,
			"-0.005": 14.508610726,
			"-0.004": 13.2243623232,
			"-0.003": 12.8211006543,
			"-0.002": 14.3265767165,
			"-0.001": 15.0080577681,
			"0.0": 13.8086495961,
			"0.001": 16.3506781782,
			"0.002": 17.5059920017,
			"0.003": 12.9800322736,
			"0.004": 5.12768547722,
			"0.005": 3.86994015847,
			"0.006": 4.00710879215,
			"0.007": 4.31549807011,
			"0.008": 3.90120069427,
			"0.009": 4.50619358503,
			"0.01": 5.94286143399,
			"0.011": 7.04367305166,
			"0.012": 8.33522828411,
			"0.013": 7.29964370185,
			"0.014": 0.894006506099,
			"0.015": 0.0,
			"0.016": 0.0,
			"0.017": 0.0,
			"0.018": 0.0,
			"0.019": 0.0,
			"0.02": 0.0,
			"0.021": 0.0,
			"0.022": 0.0,
			"0.023": 0.0,
			"0.024": 0.0,
			"0.025": 0.0
		}
	}
}
