{
	 "smiles": "NC1=NC2=C(N=CN2C2OC(CO)C(O)C2O)C(=O)N1", 
	 "Tm": 523.15, 
	 "num_atms": 33, 
	 "gaussian": { 
		 "optdone": 1, 
		 "sigma_profile": "yes", 
		 "theory": "DFT", 
		 "functional": "B3LYP", 
		 "basiset": "6-31G**", 
		 "properties": { 
			 "R2extent": 6332.3255, 
			 "electric_dipole_moment_norm": 6.35030744295, 
			 "electric_quadrupole_moment_norm": 34.866468438, 
			 "total_energy": -1038.7700373, 
			 "HOMO_LUMO_gap": 0.19896, 
			 "cosmo_polarized_energy": -34.06, 
			 "cosmo_cavitation_energy": 35.97, 
			 "cosmo_dispersion_energy": -26.45, 
			 "cosmo_repulsion_energy": 2.02, 
			 "cosmo_total_nonelectrostatic_energy": 11.54, 
			 "SMD_solvation_energy": 3.61 
		},
		"coords": [
			{
				"x": 0.7193787376,
				"y": -2.1555044073,
				"z": 3.5688835612,
				"element": "N" 
			},
			{
				"x": -0.0986795468,
				"y": -1.7921036105,
				"z": 2.5252160166,
				"element": "C" 
			},
			{
				"x": 0.2842880808,
				"y": -0.8407133966,
				"z": 1.7047689364,
				"element": "N" 
			},
			{
				"x": -0.6567936398,
				"y": -0.5400504826,
				"z": 0.7739712561,
				"element": "C" 
			},
			{
				"x": -1.9096798513,
				"y": -1.1118157009,
				"z": 0.5759186977,
				"element": "C" 
			},
			{
				"x": -2.559012637,
				"y": -0.5192079824,
				"z": -0.4899047331,
				"element": "N" 
			},
			{
				"x": -1.7269179197,
				"y": 0.386501001,
				"z": -0.929729678,
				"element": "C" 
			},
			{
				"x": -0.5240353582,
				"y": 0.4202233393,
				"z": -0.2114099871,
				"element": "N" 
			},
			{
				"x": 0.5821383371,
				"y": 1.3776044951,
				"z": -0.277124412,
				"element": "C" 
			},
			{
				"x": 0.1885548346,
				"y": 2.6963886826,
				"z": 0.0154620969,
				"element": "O" 
			},
			{
				"x": -0.0011218356,
				"y": 3.484549079,
				"z": -1.1932248577,
				"element": "C" 
			},
			{
				"x": 0.7246841198,
				"y": 4.804866257,
				"z": -0.9606390949,
				"element": "C" 
			},
			{
				"x": 2.1086048598,
				"y": 4.5966119533,
				"z": -0.7299041612,
				"element": "O" 
			},
			{
				"x": 0.5541933488,
				"y": 2.6548644652,
				"z": -2.3607697102,
				"element": "C" 
			},
			{
				"x": -0.51555054,
				"y": 2.212435011,
				"z": -3.1803000463,
				"element": "O" 
			},
			{
				"x": 1.2581376794,
				"y": 1.4578032662,
				"z": -1.6699091409,
				"element": "C" 
			},
			{
				"x": 1.2093418704,
				"y": 0.2803206145,
				"z": -2.4471983866,
				"element": "O" 
			},
			{
				"x": -2.3409182686,
				"y": -2.1661081209,
				"z": 1.4594096623,
				"element": "C" 
			},
			{
				"x": -3.3735670327,
				"y": -2.8097465163,
				"z": 1.501649799,
				"element": "O" 
			},
			{
				"x": -1.3095017106,
				"y": -2.4269640296,
				"z": 2.4308999006,
				"element": "N" 
			},
			{
				"x": 0.6799939991,
				"y": -3.1127737393,
				"z": 3.8884443312,
				"element": "H" 
			},
			{
				"x": 1.6527786157,
				"y": -1.7761509438,
				"z": 3.4940570516,
				"element": "H" 
			},
			{
				"x": -1.8858647279,
				"y": 1.0532274497,
				"z": -1.7660648009,
				"element": "H" 
			},
			{
				"x": 1.2719840404,
				"y": 1.0445845454,
				"z": 0.5011217346,
				"element": "H" 
			},
			{
				"x": -1.0729591977,
				"y": 3.6580594216,
				"z": -1.3498195011,
				"element": "H" 
			},
			{
				"x": 0.6373152119,
				"y": 5.4343258559,
				"z": -1.8518706758,
				"element": "H" 
			},
			{
				"x": 0.2506184133,
				"y": 5.336732241,
				"z": -0.1227052625,
				"element": "H" 
			},
			{
				"x": 2.1625289453,
				"y": 4.0745413796,
				"z": 0.0828161753,
				"element": "H" 
			},
			{
				"x": 1.2762117741,
				"y": 3.2342244373,
				"z": -2.9498200585,
				"element": "H" 
			},
			{
				"x": -0.1730087729,
				"y": 1.4358231652,
				"z": -3.6530515579,
				"element": "H" 
			},
			{
				"x": 2.309021588,
				"y": 1.7191234109,
				"z": -1.5099995252,
				"element": "H" 
			},
			{
				"x": 0.514778569,
				"y": -0.2898883882,
				"z": -2.085229183,
				"element": "H" 
			},
			{
				"x": -1.5795419865,
				"y": -3.1123827525,
				"z": 3.1261555535,
				"element": "H" 
			}
		],
		 "valence_orbital": [ 
			{
				"type": "occ",
				"energy": -0.28095,
				"method": "rhf"
			},
			{
				"type": "occ",
				"energy": -0.27367,
				"method": "rhf"
			},
			{
				"type": "occ",
				"energy": -0.27081,
				"method": "rhf"
			},
			{
				"type": "occ",
				"energy": -0.25865,
				"method": "rhf"
			},
			{
				"type": "occ",
				"energy": -0.21406,
				"method": "rhf"
			},
			{
				"type": "unocc",
				"energy": -0.0151,
				"method": "rhf"
			},
			{
				"type": "unocc",
				"energy": -0.00522,
				"method": "rhf"
			},
			{
				"type": "unocc",
				"energy": 0.03105,
				"method": "rhf"
			},
			{
				"type": "unocc",
				"energy": 0.04869,
				"method": "rhf"
			},
			{
				"type": "unocc",
				"energy": 0.05443,
				"method": "rhf"
			}
		],
		"cosmo_sigma_profile": { 
			"-0.025": 0.0,
			"-0.024": 0.0,
			"-0.023": 0.0,
			"-0.022": 0.0,
			"-0.021": 0.0,
			"-0.02": 0.0,
			"-0.019": 0.0,
			"-0.018": 0.171437893899,
			"-0.017": 2.02718806134,
			"-0.016": 2.05447767389,
			"-0.015": 2.35739791416,
			"-0.014": 3.68321391477,
			"-0.013": 4.95830254452,
			"-0.012": 4.9612733362,
			"-0.011": 5.67142901533,
			"-0.01": 5.65033630253,
			"-0.009": 5.33393824636,
			"-0.008": 7.64315677541,
			"-0.007": 6.96175500151,
			"-0.006": 12.4730703686,
			"-0.005": 20.5773556825,
			"-0.004": 16.1513155474,
			"-0.003": 16.2430862619,
			"-0.002": 15.5807930744,
			"-0.001": 14.5989595572,
			"0.0": 14.4491835575,
			"0.001": 12.2720651958,
			"0.002": 10.4901361557,
			"0.003": 9.10341247935,
			"0.004": 9.01637555457,
			"0.005": 7.81201785795,
			"0.006": 8.5656763244,
			"0.007": 7.17760750268,
			"0.008": 6.99389332446,
			"0.009": 8.21332947332,
			"0.01": 7.15418553679,
			"0.011": 7.4952498503,
			"0.012": 8.34212690671,
			"0.013": 10.9315145312,
			"0.014": 5.71263303704,
			"0.015": 1.52301525077,
			"0.016": 1.09239089092,
			"0.017": 0.31364090478,
			"0.018": 0.0,
			"0.019": 0.0,
			"0.02": 0.0,
			"0.021": 0.0,
			"0.022": 0.0,
			"0.023": 0.0,
			"0.024": 0.0,
			"0.025": 0.0
		}
	}
}
