{
	 "smiles": "NC(=O)CN(CC(O)=O)CC(O)=O", 
	 "Tm": 492.15, 
	 "num_atms": 23, 
	 "gaussian": { 
		 "optdone": 1, 
		 "sigma_profile": "yes", 
		 "theory": "DFT", 
		 "functional": "B3LYP", 
		 "basiset": "6-31G**", 
		 "properties": { 
			 "R2extent": 3401.0816, 
			 "electric_dipole_moment_norm": 9.33544037794, 
			 "electric_quadrupole_moment_norm": 29.2368129901, 
			 "total_energy": -720.313788916, 
			 "HOMO_LUMO_gap": 0.22697, 
			 "cosmo_polarized_energy": -30.53, 
			 "cosmo_cavitation_energy": 27.15, 
			 "cosmo_dispersion_energy": -19.13, 
			 "cosmo_repulsion_energy": 1.54, 
			 "cosmo_total_nonelectrostatic_energy": 9.56, 
			 "SMD_solvation_energy": 7.73 
		},
		"coords": [
			{
				"x": 1.3550389235,
				"y": -3.8754700325,
				"z": -1.7692540655,
				"element": "N" 
			},
			{
				"x": 0.6496303869,
				"y": -2.7223930625,
				"z": -1.7152075527,
				"element": "C" 
			},
			{
				"x": 0.3500312623,
				"y": -2.0926821176,
				"z": -2.7295739475,
				"element": "O" 
			},
			{
				"x": 0.2511506341,
				"y": -2.2633792194,
				"z": -0.3042334063,
				"element": "C" 
			},
			{
				"x": -0.4050987685,
				"y": -0.9710074857,
				"z": -0.343532167,
				"element": "N" 
			},
			{
				"x": 0.4750207569,
				"y": 0.1772410673,
				"z": -0.6011324379,
				"element": "C" 
			},
			{
				"x": -0.1407835906,
				"y": 1.1257107251,
				"z": -1.6430082705,
				"element": "C" 
			},
			{
				"x": -0.5390215103,
				"y": 0.5311842097,
				"z": -2.7761556529,
				"element": "O" 
			},
			{
				"x": -0.2566103117,
				"y": 2.3136114816,
				"z": -1.4524289767,
				"element": "O" 
			},
			{
				"x": -1.3921237148,
				"y": -0.7594216608,
				"z": 0.7135712209,
				"element": "C" 
			},
			{
				"x": -2.6970002091,
				"y": -1.5220068544,
				"z": 0.4357226851,
				"element": "C" 
			},
			{
				"x": -2.9121917904,
				"y": -1.7859381564,
				"z": -0.8658838969,
				"element": "O" 
			},
			{
				"x": -3.4706742229,
				"y": -1.8356545414,
				"z": 1.3060832818,
				"element": "O" 
			},
			{
				"x": 1.5627320192,
				"y": -4.4212725318,
				"z": -0.9477816264,
				"element": "H" 
			},
			{
				"x": 1.5953622426,
				"y": -4.2488675553,
				"z": -2.6758520335,
				"element": "H" 
			},
			{
				"x": 1.1394205408,
				"y": -2.2874702152,
				"z": 0.3518010415,
				"element": "H" 
			},
			{
				"x": -0.4502680584,
				"y": -3.0065478541,
				"z": 0.0933630552,
				"element": "H" 
			},
			{
				"x": 1.4287939565,
				"y": -0.1842921104,
				"z": -1.0001623023,
				"element": "H" 
			},
			{
				"x": 0.68972212,
				"y": 0.7575456675,
				"z": 0.3031015954,
				"element": "H" 
			},
			{
				"x": -0.292796817,
				"y": -0.4242070401,
				"z": -2.7688583198,
				"element": "H" 
			},
			{
				"x": -1.0442593612,
				"y": -1.0326718998,
				"z": 1.7194993364,
				"element": "H" 
			},
			{
				"x": -1.6464733652,
				"y": 0.3061094696,
				"z": 0.73818016,
				"element": "H" 
			},
			{
				"x": -2.1421011229,
				"y": -1.4364202834,
				"z": -1.3587577204,
				"element": "H" 
			}
		],
		 "valence_orbital": [ 
			{
				"type": "occ",
				"energy": -0.30607,
				"method": "rhf"
			},
			{
				"type": "occ",
				"energy": -0.30532,
				"method": "rhf"
			},
			{
				"type": "occ",
				"energy": -0.28761,
				"method": "rhf"
			},
			{
				"type": "occ",
				"energy": -0.26897,
				"method": "rhf"
			},
			{
				"type": "occ",
				"energy": -0.25196,
				"method": "rhf"
			},
			{
				"type": "unocc",
				"energy": -0.02499,
				"method": "rhf"
			},
			{
				"type": "unocc",
				"energy": 8e-05,
				"method": "rhf"
			},
			{
				"type": "unocc",
				"energy": 0.01291,
				"method": "rhf"
			},
			{
				"type": "unocc",
				"energy": 0.03604,
				"method": "rhf"
			},
			{
				"type": "unocc",
				"energy": 0.06376,
				"method": "rhf"
			}
		],
		"cosmo_sigma_profile": { 
			"-0.025": 0.0,
			"-0.024": 0.0,
			"-0.023": 0.0,
			"-0.022": 0.0,
			"-0.021": 0.0,
			"-0.02": 0.0,
			"-0.019": 0.0,
			"-0.018": 0.0,
			"-0.017": 0.0,
			"-0.016": 0.331079125749,
			"-0.015": 2.18317249043,
			"-0.014": 2.89890724052,
			"-0.013": 2.86346799882,
			"-0.012": 2.23530137507,
			"-0.011": 2.67883152061,
			"-0.01": 3.71628483616,
			"-0.009": 8.91685671279,
			"-0.008": 12.0333923235,
			"-0.007": 14.0087836512,
			"-0.006": 18.3944586718,
			"-0.005": 16.2853835929,
			"-0.004": 10.1483360103,
			"-0.003": 5.65299554987,
			"-0.002": 6.00514119966,
			"-0.001": 5.90961364603,
			"0.0": 6.51441848723,
			"0.001": 4.9455793656,
			"0.002": 6.97621261042,
			"0.003": 5.68851601719,
			"0.004": 4.73196177006,
			"0.005": 5.74832548996,
			"0.006": 4.08589985373,
			"0.007": 4.90805887036,
			"0.008": 6.64529692483,
			"0.009": 7.39069682461,
			"0.01": 9.38592429797,
			"0.011": 12.2194485084,
			"0.012": 13.4972442581,
			"0.013": 6.15308534046,
			"0.014": 0.632920304673,
			"0.015": 0.0,
			"0.016": 0.0,
			"0.017": 0.0,
			"0.018": 0.0,
			"0.019": 0.0,
			"0.02": 0.0,
			"0.021": 0.0,
			"0.022": 0.0,
			"0.023": 0.0,
			"0.024": 0.0,
			"0.025": 0.0
		}
	}
}
