{
	 "smiles": "OC(=O)C1CN(C(=O)C1)C1=CC(F)=C(Cl)C=C1", 
	 "Tm": 423.15, 
	 "num_atms": 26, 
	 "gaussian": { 
		 "optdone": 1, 
		 "sigma_profile": "yes", 
		 "theory": "DFT", 
		 "functional": "B3LYP", 
		 "basiset": "6-31G**", 
		 "properties": { 
			 "R2extent": 5706.4942, 
			 "electric_dipole_moment_norm": 4.04124793226, 
			 "electric_quadrupole_moment_norm": 25.5229606229, 
			 "total_energy": -1265.06174329, 
			 "HOMO_LUMO_gap": 0.19833, 
			 "cosmo_polarized_energy": -20.23, 
			 "cosmo_cavitation_energy": 32.28, 
			 "cosmo_dispersion_energy": -23.4, 
			 "cosmo_repulsion_energy": 1.78, 
			 "cosmo_total_nonelectrostatic_energy": 10.66, 
			 "SMD_solvation_energy": 7.23 
		},
		"coords": [
			{
				"x": 0.190370901,
				"y": 3.1243909262,
				"z": -1.1945699863,
				"element": "O" 
			},
			{
				"x": -0.8805587005,
				"y": 3.6593424416,
				"z": -0.5539470278,
				"element": "C" 
			},
			{
				"x": -1.3027259967,
				"y": 4.7431436979,
				"z": -0.8672512615,
				"element": "O" 
			},
			{
				"x": -1.4869401322,
				"y": 2.8249432304,
				"z": 0.5785193374,
				"element": "C" 
			},
			{
				"x": -1.6724011062,
				"y": 1.3381394261,
				"z": 0.2014693192,
				"element": "C" 
			},
			{
				"x": -0.4178660346,
				"y": 0.6998546368,
				"z": 0.6312998061,
				"element": "N" 
			},
			{
				"x": 0.2206479666,
				"y": 1.4434781469,
				"z": 1.6356573375,
				"element": "C" 
			},
			{
				"x": 1.210178211,
				"y": 1.1122006854,
				"z": 2.2575828742,
				"element": "O" 
			},
			{
				"x": -0.5499363701,
				"y": 2.7486301043,
				"z": 1.8025007251,
				"element": "C" 
			},
			{
				"x": -0.1283690945,
				"y": -0.6496540369,
				"z": 0.3000043824,
				"element": "C" 
			},
			{
				"x": 1.113123633,
				"y": -1.2229414968,
				"z": 0.6202340115,
				"element": "C" 
			},
			{
				"x": 1.365855202,
				"y": -2.5382719854,
				"z": 0.26085756,
				"element": "C" 
			},
			{
				"x": 2.5546349103,
				"y": -3.0704059814,
				"z": 0.5754828311,
				"element": "F" 
			},
			{
				"x": 0.4238331929,
				"y": -3.3134457216,
				"z": -0.4188490241,
				"element": "C" 
			},
			{
				"x": 0.7921704596,
				"y": -4.9612241588,
				"z": -0.8528959932,
				"element": "Cl" 
			},
			{
				"x": -0.8047728357,
				"y": -2.7406078034,
				"z": -0.7353116099,
				"element": "C" 
			},
			{
				"x": -1.0842112349,
				"y": -1.4221484367,
				"z": -0.3807373682,
				"element": "C" 
			},
			{
				"x": 0.412821244,
				"y": 2.2499066734,
				"z": -0.8363603645,
				"element": "H" 
			},
			{
				"x": -2.4407848933,
				"y": 3.2957408248,
				"z": 0.816004283,
				"element": "H" 
			},
			{
				"x": -2.5315972564,
				"y": 0.9053862984,
				"z": 0.730182534,
				"element": "H" 
			},
			{
				"x": -1.8281571568,
				"y": 1.1935878528,
				"z": -0.8712219882,
				"element": "H" 
			},
			{
				"x": 0.1406306993,
				"y": 3.5886451351,
				"z": 1.9037844389,
				"element": "H" 
			},
			{
				"x": -1.124099494,
				"y": 2.6856438127,
				"z": 2.7341520365,
				"element": "H" 
			},
			{
				"x": 1.8670093684,
				"y": -0.667362254,
				"z": 1.1582989887,
				"element": "H" 
			},
			{
				"x": -1.547121808,
				"y": -3.3318563614,
				"z": -1.2596530051,
				"element": "H" 
			},
			{
				"x": -2.0547336744,
				"y": -1.0150156564,
				"z": -0.6342328367,
				"element": "H" 
			}
		],
		 "valence_orbital": [ 
			{
				"type": "occ",
				"energy": -0.31051,
				"method": "rhf"
			},
			{
				"type": "occ",
				"energy": -0.28649,
				"method": "rhf"
			},
			{
				"type": "occ",
				"energy": -0.27976,
				"method": "rhf"
			},
			{
				"type": "occ",
				"energy": -0.27187,
				"method": "rhf"
			},
			{
				"type": "occ",
				"energy": -0.24324,
				"method": "rhf"
			},
			{
				"type": "unocc",
				"energy": -0.04491,
				"method": "rhf"
			},
			{
				"type": "unocc",
				"energy": -0.02623,
				"method": "rhf"
			},
			{
				"type": "unocc",
				"energy": -0.00884,
				"method": "rhf"
			},
			{
				"type": "unocc",
				"energy": 0.00955,
				"method": "rhf"
			},
			{
				"type": "unocc",
				"energy": 0.01592,
				"method": "rhf"
			}
		],
		"cosmo_sigma_profile": { 
			"-0.025": 0.0,
			"-0.024": 0.0,
			"-0.023": 0.0,
			"-0.022": 0.0,
			"-0.021": 0.0,
			"-0.02": 0.0,
			"-0.019": 0.0,
			"-0.018": 0.0,
			"-0.017": 0.0,
			"-0.016": 0.0,
			"-0.015": 0.372125298392,
			"-0.014": 0.399422186556,
			"-0.013": 0.867582102118,
			"-0.012": 1.92069250096,
			"-0.011": 1.67172253058,
			"-0.01": 1.01719159491,
			"-0.009": 3.49045668213,
			"-0.008": 16.8838997517,
			"-0.007": 23.6184778448,
			"-0.006": 14.0053713314,
			"-0.005": 10.3190548547,
			"-0.004": 10.7205149512,
			"-0.003": 8.66919024219,
			"-0.002": 9.63266694585,
			"-0.001": 12.6785340582,
			"0.0": 17.9680088468,
			"0.001": 19.7732275172,
			"0.002": 17.8062797317,
			"0.003": 19.2063477982,
			"0.004": 19.2687708032,
			"0.005": 8.48814747865,
			"0.006": 3.61570043063,
			"0.007": 3.65609511506,
			"0.008": 4.37869356467,
			"0.009": 5.4980773956,
			"0.01": 6.72806129893,
			"0.011": 8.67021443144,
			"0.012": 7.26953374311,
			"0.013": 1.74515174711,
			"0.014": 0.0,
			"0.015": 0.0,
			"0.016": 0.0,
			"0.017": 0.0,
			"0.018": 0.0,
			"0.019": 0.0,
			"0.02": 0.0,
			"0.021": 0.0,
			"0.022": 0.0,
			"0.023": 0.0,
			"0.024": 0.0,
			"0.025": 0.0
		}
	}
}
