{
	 "smiles": "COC(=O)C(=O)CC(=O)C1=C(Cl)C=C(Cl)C=C1", 
	 "Tm": 392.15, 
	 "num_atms": 25, 
	 "gaussian": { 
		 "optdone": 1, 
		 "sigma_profile": "yes", 
		 "theory": "DFT", 
		 "functional": "B3LYP", 
		 "basiset": "6-31G**", 
		 "properties": { 
			 "R2extent": 8058.925, 
			 "electric_dipole_moment_norm": 2.10598351608, 
			 "electric_quadrupole_moment_norm": 12.4102184957, 
			 "total_energy": -1645.24958843, 
			 "HOMO_LUMO_gap": 0.17202, 
			 "cosmo_polarized_energy": -13.72, 
			 "cosmo_cavitation_energy": 34.92, 
			 "cosmo_dispersion_energy": -24.79, 
			 "cosmo_repulsion_energy": 1.95, 
			 "cosmo_total_nonelectrostatic_energy": 12.07, 
			 "SMD_solvation_energy": 8.2 
		},
		"coords": [
			{
				"x": 4.2106582126,
				"y": -0.8542375414,
				"z": 0.8788304675,
				"element": "C" 
			},
			{
				"x": 3.1533409781,
				"y": 0.1163422399,
				"z": 0.7440451235,
				"element": "O" 
			},
			{
				"x": 2.3729920108,
				"y": -0.0382372319,
				"z": -0.3253426744,
				"element": "C" 
			},
			{
				"x": 2.4882704236,
				"y": -0.8999204523,
				"z": -1.1698956994,
				"element": "O" 
			},
			{
				"x": 1.2859106861,
				"y": 1.0564496937,
				"z": -0.39633586,
				"element": "C" 
			},
			{
				"x": 1.4094434915,
				"y": 2.1032344687,
				"z": 0.2021398337,
				"element": "O" 
			},
			{
				"x": 0.0885558377,
				"y": 0.7161160925,
				"z": -1.2693385151,
				"element": "C" 
			},
			{
				"x": -1.0321900463,
				"y": 0.0849660642,
				"z": -0.4100511269,
				"element": "C" 
			},
			{
				"x": -0.9513431397,
				"y": -1.0837365185,
				"z": -0.0900661595,
				"element": "O" 
			},
			{
				"x": -2.168738589,
				"y": 0.968991794,
				"z": 0.0102256692,
				"element": "C" 
			},
			{
				"x": -3.4774551641,
				"y": 0.4916211992,
				"z": 0.2285714577,
				"element": "C" 
			},
			{
				"x": -3.9379059316,
				"y": -1.1650781013,
				"z": -0.089941954,
				"element": "Cl" 
			},
			{
				"x": -4.4910571944,
				"y": 1.3444634064,
				"z": 0.6656954485,
				"element": "C" 
			},
			{
				"x": -4.1962754349,
				"y": 2.6830670391,
				"z": 0.9167135344,
				"element": "C" 
			},
			{
				"x": -5.4708607891,
				"y": 3.7430077983,
				"z": 1.4784068392,
				"element": "Cl" 
			},
			{
				"x": -2.9118812152,
				"y": 3.1888989159,
				"z": 0.7232170734,
				"element": "C" 
			},
			{
				"x": -1.9204157506,
				"y": 2.3309547475,
				"z": 0.2599310323,
				"element": "C" 
			},
			{
				"x": 3.7949371891,
				"y": -1.8635202118,
				"z": 0.9234883926,
				"element": "H" 
			},
			{
				"x": 4.8962595896,
				"y": -0.7870127798,
				"z": 0.030801955,
				"element": "H" 
			},
			{
				"x": 4.7197383149,
				"y": -0.6026602868,
				"z": 1.8079634978,
				"element": "H" 
			},
			{
				"x": -0.2481317202,
				"y": 1.6233618432,
				"z": -1.7724682769,
				"element": "H" 
			},
			{
				"x": 0.3816854253,
				"y": -0.0423903762,
				"z": -1.9967845297,
				"element": "H" 
			},
			{
				"x": -5.4952013113,
				"y": 0.964698017,
				"z": 0.8075332275,
				"element": "H" 
			},
			{
				"x": -2.6945652388,
				"y": 4.2305545344,
				"z": 0.9282973988,
				"element": "H" 
			},
			{
				"x": -0.9149706341,
				"y": 2.7180656456,
				"z": 0.1268638451,
				"element": "H" 
			}
		],
		 "valence_orbital": [ 
			{
				"type": "occ",
				"energy": -0.32125,
				"method": "rhf"
			},
			{
				"type": "occ",
				"energy": -0.2753,
				"method": "rhf"
			},
			{
				"type": "occ",
				"energy": -0.27107,
				"method": "rhf"
			},
			{
				"type": "occ",
				"energy": -0.26414,
				"method": "rhf"
			},
			{
				"type": "occ",
				"energy": -0.26303,
				"method": "rhf"
			},
			{
				"type": "unocc",
				"energy": -0.09101,
				"method": "rhf"
			},
			{
				"type": "unocc",
				"energy": -0.07276,
				"method": "rhf"
			},
			{
				"type": "unocc",
				"energy": -0.03653,
				"method": "rhf"
			},
			{
				"type": "unocc",
				"energy": 0.00127,
				"method": "rhf"
			},
			{
				"type": "unocc",
				"energy": 0.003,
				"method": "rhf"
			}
		],
		"cosmo_sigma_profile": { 
			"-0.025": 0.0,
			"-0.024": 0.0,
			"-0.023": 0.0,
			"-0.022": 0.0,
			"-0.021": 0.0,
			"-0.02": 0.0,
			"-0.019": 0.0,
			"-0.018": 0.0,
			"-0.017": 0.0,
			"-0.016": 0.0,
			"-0.015": 0.0,
			"-0.014": 0.0,
			"-0.013": 0.0,
			"-0.012": 0.0,
			"-0.011": 0.0,
			"-0.01": 0.0,
			"-0.009": 1.45758943949,
			"-0.008": 7.4763311359,
			"-0.007": 14.807328716,
			"-0.006": 20.0939740107,
			"-0.005": 19.8540677822,
			"-0.004": 19.9069604301,
			"-0.003": 15.8985882735,
			"-0.002": 14.1685831146,
			"-0.001": 20.615780576,
			"0.0": 30.2752976696,
			"0.001": 20.1151056469,
			"0.002": 14.8929614536,
			"0.003": 20.2916656659,
			"0.004": 16.0217412486,
			"0.005": 6.47475272983,
			"0.006": 5.72171630264,
			"0.007": 6.54551415614,
			"0.008": 6.96576499366,
			"0.009": 8.12383906146,
			"0.01": 9.86155010307,
			"0.011": 5.04852202835,
			"0.012": 0.228141198655,
			"0.013": 0.0,
			"0.014": 0.0,
			"0.015": 0.0,
			"0.016": 0.0,
			"0.017": 0.0,
			"0.018": 0.0,
			"0.019": 0.0,
			"0.02": 0.0,
			"0.021": 0.0,
			"0.022": 0.0,
			"0.023": 0.0,
			"0.024": 0.0,
			"0.025": 0.0
		}
	}
}
