{
	 "smiles": "FC(F)(F)C(=O)NC(=O)C(F)(F)F", 
	 "Tm": 357.15, 
	 "num_atms": 14, 
	 "gaussian": { 
		 "optdone": 1, 
		 "sigma_profile": "yes", 
		 "theory": "DFT", 
		 "functional": "B3LYP", 
		 "basiset": "6-31G**", 
		 "properties": { 
			 "R2extent": 2966.5497, 
			 "electric_dipole_moment_norm": 2.06999943478, 
			 "electric_quadrupole_moment_norm": 7.11377093671, 
			 "total_energy": -957.262819946, 
			 "HOMO_LUMO_gap": 0.21921, 
			 "cosmo_polarized_energy": -9.72, 
			 "cosmo_cavitation_energy": 22.83, 
			 "cosmo_dispersion_energy": -15.71, 
			 "cosmo_repulsion_energy": 1.15, 
			 "cosmo_total_nonelectrostatic_energy": 8.27, 
			 "SMD_solvation_energy": 7.87 
		},
		"coords": [
			{
				"x": 1.2174192237,
				"y": 0.5374289851,
				"z": -3.669829147,
				"element": "F" 
			},
			{
				"x": 0.9261787575,
				"y": 0.9762800943,
				"z": -2.4445941407,
				"element": "C" 
			},
			{
				"x": 2.0227804836,
				"y": 0.8667721451,
				"z": -1.680120499,
				"element": "F" 
			},
			{
				"x": 0.5630728507,
				"y": 2.2645478321,
				"z": -2.527753642,
				"element": "F" 
			},
			{
				"x": -0.2301501764,
				"y": 0.1169713876,
				"z": -1.8708420019,
				"element": "C" 
			},
			{
				"x": -0.7199907751,
				"y": -0.7742744644,
				"z": -2.5223313407,
				"element": "O" 
			},
			{
				"x": -0.7020487364,
				"y": 0.3849612972,
				"z": -0.5816322532,
				"element": "N" 
			},
			{
				"x": -0.327822477,
				"y": 1.3384493191,
				"z": 0.3544269911,
				"element": "C" 
			},
			{
				"x": 0.5244254452,
				"y": 2.1824176585,
				"z": 0.2384341398,
				"element": "O" 
			},
			{
				"x": -1.1366647177,
				"y": 1.2353879701,
				"z": 1.6772926747,
				"element": "C" 
			},
			{
				"x": -1.7109161303,
				"y": 2.4099525703,
				"z": 1.9466633913,
				"element": "F" 
			},
			{
				"x": -2.1100900238,
				"y": 0.2929760069,
				"z": 1.6104431467,
				"element": "F" 
			},
			{
				"x": -0.3143196575,
				"y": 0.9119268671,
				"z": 2.6807874326,
				"element": "F" 
			},
			{
				"x": -1.4553740664,
				"y": -0.242097669,
				"z": -0.3187447518,
				"element": "H" 
			}
		],
		 "valence_orbital": [ 
			{
				"type": "occ",
				"energy": -0.4262,
				"method": "rhf"
			},
			{
				"type": "occ",
				"energy": -0.41914,
				"method": "rhf"
			},
			{
				"type": "occ",
				"energy": -0.33393,
				"method": "rhf"
			},
			{
				"type": "occ",
				"energy": -0.32941,
				"method": "rhf"
			},
			{
				"type": "occ",
				"energy": -0.30815,
				"method": "rhf"
			},
			{
				"type": "unocc",
				"energy": -0.08894,
				"method": "rhf"
			},
			{
				"type": "unocc",
				"energy": -0.01519,
				"method": "rhf"
			},
			{
				"type": "unocc",
				"energy": 0.06747,
				"method": "rhf"
			},
			{
				"type": "unocc",
				"energy": 0.1016,
				"method": "rhf"
			},
			{
				"type": "unocc",
				"energy": 0.12792,
				"method": "rhf"
			}
		],
		"cosmo_sigma_profile": { 
			"-0.025": 0.0,
			"-0.024": 0.0,
			"-0.023": 0.0,
			"-0.022": 0.0,
			"-0.021": 0.0,
			"-0.02": 0.0,
			"-0.019": 0.0,
			"-0.018": 0.0,
			"-0.017": 0.0,
			"-0.016": 0.461746221822,
			"-0.015": 1.24033906752,
			"-0.014": 1.01677465187,
			"-0.013": 0.990944906673,
			"-0.012": 1.86978502087,
			"-0.011": 2.11036400996,
			"-0.01": 1.70261511512,
			"-0.009": 2.84380886175,
			"-0.008": 3.73407588563,
			"-0.007": 8.00112781108,
			"-0.006": 4.76995946149,
			"-0.005": 3.44634280497,
			"-0.004": 5.71398866325,
			"-0.003": 5.78718322967,
			"-0.002": 7.67119789814,
			"-0.001": 9.37007868446,
			"0.0": 17.074390948,
			"0.001": 43.4905936247,
			"0.002": 25.3338870091,
			"0.003": 5.2251103568,
			"0.004": 4.29103833786,
			"0.005": 3.91521464583,
			"0.006": 4.32131404353,
			"0.007": 5.15679841398,
			"0.008": 6.56162641737,
			"0.009": 7.39185884321,
			"0.01": 0.789403242314,
			"0.011": 0.0,
			"0.012": 0.0,
			"0.013": 0.0,
			"0.014": 0.0,
			"0.015": 0.0,
			"0.016": 0.0,
			"0.017": 0.0,
			"0.018": 0.0,
			"0.019": 0.0,
			"0.02": 0.0,
			"0.021": 0.0,
			"0.022": 0.0,
			"0.023": 0.0,
			"0.024": 0.0,
			"0.025": 0.0
		}
	}
}
