{
	 "smiles": "CC(SC1=NC=CC=N1)C(O)=O", 
	 "Tm": 409.15, 
	 "num_atms": 20, 
	 "gaussian": { 
		 "optdone": 1, 
		 "sigma_profile": "yes", 
		 "theory": "DFT", 
		 "functional": "B3LYP", 
		 "basiset": "6-31G**", 
		 "properties": { 
			 "R2extent": 3483.232, 
			 "electric_dipole_moment_norm": 2.27533447871, 
			 "electric_quadrupole_moment_norm": 12.8642862387, 
			 "total_energy": -929.709273374, 
			 "HOMO_LUMO_gap": 0.18383, 
			 "cosmo_polarized_energy": -14.44, 
			 "cosmo_cavitation_energy": 25.9, 
			 "cosmo_dispersion_energy": -19.04, 
			 "cosmo_repulsion_energy": 1.49, 
			 "cosmo_total_nonelectrostatic_energy": 8.35, 
			 "SMD_solvation_energy": 3.72 
		},
		"coords": [
			{
				"x": 1.076149511,
				"y": 0.9051868447,
				"z": -3.0393977902,
				"element": "C" 
			},
			{
				"x": 1.1989417786,
				"y": 2.2155556429,
				"z": -2.2606717881,
				"element": "C" 
			},
			{
				"x": -0.4250297204,
				"y": 2.9660344271,
				"z": -1.8089893294,
				"element": "S" 
			},
			{
				"x": -0.9908161113,
				"y": 1.9326692628,
				"z": -0.485044094,
				"element": "C" 
			},
			{
				"x": -0.1963927693,
				"y": 0.9636990937,
				"z": -0.019653883,
				"element": "N" 
			},
			{
				"x": -0.6867717356,
				"y": 0.2342115052,
				"z": 0.990042296,
				"element": "C" 
			},
			{
				"x": -1.9469312118,
				"y": 0.4646108518,
				"z": 1.5335689904,
				"element": "C" 
			},
			{
				"x": -2.6815584918,
				"y": 1.5066692486,
				"z": 0.9634975543,
				"element": "C" 
			},
			{
				"x": -2.2191072736,
				"y": 2.246496517,
				"z": -0.0455395113,
				"element": "N" 
			},
			{
				"x": 2.2043044774,
				"y": 2.0987132542,
				"z": -1.1148846697,
				"element": "C" 
			},
			{
				"x": 2.1600230835,
				"y": 3.1433844073,
				"z": -0.2610362294,
				"element": "O" 
			},
			{
				"x": 3.0256481876,
				"y": 1.2141907412,
				"z": -1.0276374854,
				"element": "O" 
			},
			{
				"x": 0.4551728196,
				"y": 1.0500234989,
				"z": -3.9261599429,
				"element": "H" 
			},
			{
				"x": 2.0685158219,
				"y": 0.5652194951,
				"z": -3.3459161641,
				"element": "H" 
			},
			{
				"x": 0.6323678618,
				"y": 0.1299224001,
				"z": -2.4126687266,
				"element": "H" 
			},
			{
				"x": 1.6060071831,
				"y": 2.9954784206,
				"z": -2.9191873191,
				"element": "H" 
			},
			{
				"x": -0.0407021769,
				"y": -0.5560870165,
				"z": 1.3677807204,
				"element": "H" 
			},
			{
				"x": -2.3362401757,
				"y": -0.1304059677,
				"z": 2.3514709522,
				"element": "H" 
			},
			{
				"x": -3.6769250342,
				"y": 1.7574687164,
				"z": 1.3265379595,
				"element": "H" 
			},
			{
				"x": 2.8660439759,
				"y": 2.9830586565,
				"z": 0.3869884604,
				"element": "H" 
			}
		],
		 "valence_orbital": [ 
			{
				"type": "occ",
				"energy": -0.31304,
				"method": "rhf"
			},
			{
				"type": "occ",
				"energy": -0.30884,
				"method": "rhf"
			},
			{
				"type": "occ",
				"energy": -0.27559,
				"method": "rhf"
			},
			{
				"type": "occ",
				"energy": -0.26145,
				"method": "rhf"
			},
			{
				"type": "occ",
				"energy": -0.23245,
				"method": "rhf"
			},
			{
				"type": "unocc",
				"energy": -0.04862,
				"method": "rhf"
			},
			{
				"type": "unocc",
				"energy": -0.03104,
				"method": "rhf"
			},
			{
				"type": "unocc",
				"energy": 0.00324,
				"method": "rhf"
			},
			{
				"type": "unocc",
				"energy": 0.03917,
				"method": "rhf"
			},
			{
				"type": "unocc",
				"energy": 0.07837,
				"method": "rhf"
			}
		],
		"cosmo_sigma_profile": { 
			"-0.025": 0.0,
			"-0.024": 0.0,
			"-0.023": 0.0,
			"-0.022": 0.0,
			"-0.021": 0.0,
			"-0.02": 0.0,
			"-0.019": 0.0232666118583,
			"-0.018": 0.960206659078,
			"-0.017": 0.823773690871,
			"-0.016": 0.855595469025,
			"-0.015": 1.22968339253,
			"-0.014": 0.354701003963,
			"-0.013": 0.400846264343,
			"-0.012": 0.385537031198,
			"-0.011": 0.879305925714,
			"-0.01": 1.1608096115,
			"-0.009": 3.92410705845,
			"-0.008": 9.77838621332,
			"-0.007": 10.0928910853,
			"-0.006": 9.14705088991,
			"-0.005": 8.19406383001,
			"-0.004": 10.0052258798,
			"-0.003": 10.2129749952,
			"-0.002": 14.7629411118,
			"-0.001": 18.2545604361,
			"0.0": 20.0410664447,
			"0.001": 11.5029949052,
			"0.002": 7.04220691643,
			"0.003": 8.49187542543,
			"0.004": 10.2500525557,
			"0.005": 7.95539769699,
			"0.006": 8.0208877571,
			"0.007": 6.13672894525,
			"0.008": 4.60947533415,
			"0.009": 5.41065674357,
			"0.01": 5.85245401798,
			"0.011": 6.07781464887,
			"0.012": 4.02870853758,
			"0.013": 0.89372520623,
			"0.014": 0.494715729976,
			"0.015": 0.00515412880655,
			"0.016": 0.0,
			"0.017": 0.0,
			"0.018": 0.0,
			"0.019": 0.0,
			"0.02": 0.0,
			"0.021": 0.0,
			"0.022": 0.0,
			"0.023": 0.0,
			"0.024": 0.0,
			"0.025": 0.0
		}
	}
}
