{
	 "smiles": "OC1=CC=CC(Cl)=C1Cl", 
	 "Tm": 330.65, 
	 "num_atms": 13, 
	 "gaussian": { 
		 "optdone": 1, 
		 "sigma_profile": "yes", 
		 "theory": "DFT", 
		 "functional": "B3LYP", 
		 "basiset": "6-31G**", 
		 "properties": { 
			 "R2extent": 1729.4758, 
			 "electric_dipole_moment_norm": 1.3257323297, 
			 "electric_quadrupole_moment_norm": 5.65224772104, 
			 "total_energy": -1226.65127585, 
			 "HOMO_LUMO_gap": 0.21349, 
			 "cosmo_polarized_energy": -5.6, 
			 "cosmo_cavitation_energy": 20.51, 
			 "cosmo_dispersion_energy": -15.92, 
			 "cosmo_repulsion_energy": 1.3, 
			 "cosmo_total_nonelectrostatic_energy": 5.89, 
			 "SMD_solvation_energy": 3.42 
		},
		"coords": [
			{
				"x": -0.2237698576,
				"y": -3.3310908286,
				"z": 0.5378595209,
				"element": "O" 
			},
			{
				"x": 0.2961290625,
				"y": -2.0813998473,
				"z": 0.5365948874,
				"element": "C" 
			},
			{
				"x": 1.3215576817,
				"y": -1.7945454761,
				"z": 1.4439750638,
				"element": "C" 
			},
			{
				"x": 1.885346574,
				"y": -0.5242906278,
				"z": 1.4780968693,
				"element": "C" 
			},
			{
				"x": 1.4448382145,
				"y": 0.4811649481,
				"z": 0.6167932697,
				"element": "C" 
			},
			{
				"x": 0.4231180894,
				"y": 0.2024968974,
				"z": -0.2902890483,
				"element": "C" 
			},
			{
				"x": -0.1237823207,
				"y": 1.4667999155,
				"z": -1.3662216367,
				"element": "Cl" 
			},
			{
				"x": -0.1538763105,
				"y": -1.0725539089,
				"z": -0.3356372527,
				"element": "C" 
			},
			{
				"x": -1.4406740935,
				"y": -1.4710598068,
				"z": -1.4581428397,
				"element": "Cl" 
			},
			{
				"x": -0.9191314,
				"y": -3.3862029806,
				"z": -0.1357035979,
				"element": "H" 
			},
			{
				"x": 1.653184043,
				"y": -2.5859828279,
				"z": 2.1067857988,
				"element": "H" 
			},
			{
				"x": 2.6805829827,
				"y": -0.3095780945,
				"z": 2.1850314377,
				"element": "H" 
			},
			{
				"x": 1.8800773347,
				"y": 1.4730426374,
				"z": 0.6384575276,
				"element": "H" 
			}
		],
		 "valence_orbital": [ 
			{
				"type": "occ",
				"energy": -0.34258,
				"method": "rhf"
			},
			{
				"type": "occ",
				"energy": -0.32742,
				"method": "rhf"
			},
			{
				"type": "occ",
				"energy": -0.31682,
				"method": "rhf"
			},
			{
				"type": "occ",
				"energy": -0.25509,
				"method": "rhf"
			},
			{
				"type": "occ",
				"energy": -0.23829,
				"method": "rhf"
			},
			{
				"type": "unocc",
				"energy": -0.0248,
				"method": "rhf"
			},
			{
				"type": "unocc",
				"energy": -0.00935,
				"method": "rhf"
			},
			{
				"type": "unocc",
				"energy": -0.00671,
				"method": "rhf"
			},
			{
				"type": "unocc",
				"energy": 0.05659,
				"method": "rhf"
			},
			{
				"type": "unocc",
				"energy": 0.08403,
				"method": "rhf"
			}
		],
		"cosmo_sigma_profile": { 
			"-0.025": 0.0,
			"-0.024": 0.0,
			"-0.023": 0.0,
			"-0.022": 0.0,
			"-0.021": 0.0,
			"-0.02": 0.0,
			"-0.019": 0.0,
			"-0.018": 0.0,
			"-0.017": 0.0,
			"-0.016": 0.20163137503,
			"-0.015": 0.652440142048,
			"-0.014": 0.586711779733,
			"-0.013": 0.401972201055,
			"-0.012": 0.761668232106,
			"-0.011": 0.970690218406,
			"-0.01": 1.14533754106,
			"-0.009": 0.965971913319,
			"-0.008": 1.29825938298,
			"-0.007": 6.7306861149,
			"-0.006": 7.04457662552,
			"-0.005": 7.3829414847,
			"-0.004": 6.25103650766,
			"-0.003": 7.76757987384,
			"-0.002": 10.0014512654,
			"-0.001": 10.7696835145,
			"0.0": 14.7286251385,
			"0.001": 20.3513821773,
			"0.002": 20.6659421651,
			"0.003": 20.8419555991,
			"0.004": 17.6871837601,
			"0.005": 4.44539967014,
			"0.006": 1.31610015648,
			"0.007": 1.28542146662,
			"0.008": 1.59798164119,
			"0.009": 1.42151810708,
			"0.01": 1.85419990029,
			"0.011": 0.196949348836,
			"0.012": 0.0,
			"0.013": 0.0,
			"0.014": 0.0,
			"0.015": 0.0,
			"0.016": 0.0,
			"0.017": 0.0,
			"0.018": 0.0,
			"0.019": 0.0,
			"0.02": 0.0,
			"0.021": 0.0,
			"0.022": 0.0,
			"0.023": 0.0,
			"0.024": 0.0,
			"0.025": 0.0
		}
	}
}
