{
	 "smiles": "CN1C=C(C=N1)C1=NC(C)=C(S1)C(O)=O", 
	 "Tm": 504.15, 
	 "num_atms": 24, 
	 "gaussian": { 
		 "optdone": 1, 
		 "sigma_profile": "yes", 
		 "theory": "DFT", 
		 "functional": "B3LYP", 
		 "basiset": "6-31G**", 
		 "properties": { 
			 "R2extent": 5253.0069, 
			 "electric_dipole_moment_norm": 6.58550833725, 
			 "electric_quadrupole_moment_norm": 26.1134661815, 
			 "total_energy": -1061.25957235, 
			 "HOMO_LUMO_gap": 0.15712, 
			 "cosmo_polarized_energy": -19.13, 
			 "cosmo_cavitation_energy": 30.8, 
			 "cosmo_dispersion_energy": -22.99, 
			 "cosmo_repulsion_energy": 1.75, 
			 "cosmo_total_nonelectrostatic_energy": 9.55, 
			 "SMD_solvation_energy": 4.36 
		},
		"coords": [
			{
				"x": 3.5544851364,
				"y": 1.3821310935,
				"z": -2.2043692193,
				"element": "C" 
			},
			{
				"x": 2.3171470615,
				"y": 1.2519986011,
				"z": -1.4558603504,
				"element": "N" 
			},
			{
				"x": 2.0074833938,
				"y": 0.3399542118,
				"z": -0.5069661331,
				"element": "C" 
			},
			{
				"x": 0.7108468343,
				"y": 0.6226718446,
				"z": -0.0853322591,
				"element": "C" 
			},
			{
				"x": 0.3346490433,
				"y": 1.7491385628,
				"z": -0.8673691165,
				"element": "C" 
			},
			{
				"x": 1.3047737237,
				"y": 2.1235879218,
				"z": -1.6902386642,
				"element": "N" 
			},
			{
				"x": -0.1034666256,
				"y": -0.0404437865,
				"z": 0.9075639556,
				"element": "C" 
			},
			{
				"x": -1.3238056648,
				"y": 0.3282348782,
				"z": 1.2153982736,
				"element": "N" 
			},
			{
				"x": -1.886029442,
				"y": -0.4579010808,
				"z": 2.1854399563,
				"element": "C" 
			},
			{
				"x": -3.2828445777,
				"y": -0.1559499018,
				"z": 2.6418174745,
				"element": "C" 
			},
			{
				"x": -1.0786977767,
				"y": -1.4807495787,
				"z": 2.6566031326,
				"element": "C" 
			},
			{
				"x": 0.4650805226,
				"y": -1.4344193167,
				"z": 1.8228407341,
				"element": "S" 
			},
			{
				"x": -1.4428330015,
				"y": -2.4614307454,
				"z": 3.6931658327,
				"element": "C" 
			},
			{
				"x": -0.5171470681,
				"y": -3.4018250305,
				"z": 4.0322449922,
				"element": "O" 
			},
			{
				"x": -2.5206251762,
				"y": -2.4626590068,
				"z": 4.2480548832,
				"element": "O" 
			},
			{
				"x": 3.3553777867,
				"y": 1.2773544061,
				"z": -3.2736579848,
				"element": "H" 
			},
			{
				"x": 4.2467594127,
				"y": 0.6020001768,
				"z": -1.8846872188,
				"element": "H" 
			},
			{
				"x": 3.9996572194,
				"y": 2.3628373727,
				"z": -2.0198763886,
				"element": "H" 
			},
			{
				"x": 2.7076717664,
				"y": -0.4253348669,
				"z": -0.2041988922,
				"element": "H" 
			},
			{
				"x": -0.6071101713,
				"y": 2.278055189,
				"z": -0.8412934185,
				"element": "H" 
			},
			{
				"x": -3.9406456576,
				"y": -1.0150467285,
				"z": 2.4843010091,
				"element": "H" 
			},
			{
				"x": -3.6605744515,
				"y": 0.7058101953,
				"z": 2.089703427,
				"element": "H" 
			},
			{
				"x": -3.3080711529,
				"y": 0.0508325589,
				"z": 3.7152063289,
				"element": "H" 
			},
			{
				"x": 0.3014188651,
				"y": -3.3029469701,
				"z": 3.5261096458,
				"element": "H" 
			}
		],
		 "valence_orbital": [ 
			{
				"type": "occ",
				"energy": -0.28645,
				"method": "rhf"
			},
			{
				"type": "occ",
				"energy": -0.28396,
				"method": "rhf"
			},
			{
				"type": "occ",
				"energy": -0.27344,
				"method": "rhf"
			},
			{
				"type": "occ",
				"energy": -0.27288,
				"method": "rhf"
			},
			{
				"type": "occ",
				"energy": -0.22818,
				"method": "rhf"
			},
			{
				"type": "unocc",
				"energy": -0.07106,
				"method": "rhf"
			},
			{
				"type": "unocc",
				"energy": -0.01591,
				"method": "rhf"
			},
			{
				"type": "unocc",
				"energy": -0.00279,
				"method": "rhf"
			},
			{
				"type": "unocc",
				"energy": 0.0058,
				"method": "rhf"
			},
			{
				"type": "unocc",
				"energy": 0.05704,
				"method": "rhf"
			}
		],
		"cosmo_sigma_profile": { 
			"-0.025": 0.0,
			"-0.024": 0.0,
			"-0.023": 0.0,
			"-0.022": 0.0,
			"-0.021": 0.0,
			"-0.02": 0.0,
			"-0.019": 0.0,
			"-0.018": 0.461700838748,
			"-0.017": 0.815164274572,
			"-0.016": 0.767203971853,
			"-0.015": 0.969545167332,
			"-0.014": 0.429244702267,
			"-0.013": 1.09714351139,
			"-0.012": 1.45869842404,
			"-0.011": 1.78742492606,
			"-0.01": 3.89507007008,
			"-0.009": 3.64421781065,
			"-0.008": 5.28416744852,
			"-0.007": 8.65611147743,
			"-0.006": 9.5883822324,
			"-0.005": 11.789534564,
			"-0.004": 16.8163042137,
			"-0.003": 19.5821460262,
			"-0.002": 14.0023816725,
			"-0.001": 21.9060362979,
			"0.0": 23.6646470652,
			"0.001": 17.1625672341,
			"0.002": 16.7620701631,
			"0.003": 10.7548254751,
			"0.004": 6.16210049986,
			"0.005": 5.95975053513,
			"0.006": 6.01866018717,
			"0.007": 4.81918024351,
			"0.008": 5.18775344343,
			"0.009": 5.35157891051,
			"0.01": 6.92112732804,
			"0.011": 6.63262412264,
			"0.012": 5.76616806323,
			"0.013": 2.60693258742,
			"0.014": 1.29197388411,
			"0.015": 0.556793264683,
			"0.016": 0.0,
			"0.017": 0.0,
			"0.018": 0.0,
			"0.019": 0.0,
			"0.02": 0.0,
			"0.021": 0.0,
			"0.022": 0.0,
			"0.023": 0.0,
			"0.024": 0.0,
			"0.025": 0.0
		}
	}
}
