{
	 "smiles": "CC1=CC2=C(C=C1)C(CCC(O)=O)=CN2", 
	 "Tm": 401.15, 
	 "num_atms": 28, 
	 "gaussian": { 
		 "optdone": 1, 
		 "sigma_profile": "yes", 
		 "theory": "DFT", 
		 "functional": "B3LYP", 
		 "basiset": "6-31G**", 
		 "properties": { 
			 "R2extent": 4061.6823, 
			 "electric_dipole_moment_norm": 3.65547862393, 
			 "electric_quadrupole_moment_norm": 23.0092399409, 
			 "total_energy": -670.33321286, 
			 "HOMO_LUMO_gap": 0.19155, 
			 "cosmo_polarized_energy": -19.66, 
			 "cosmo_cavitation_energy": 31.66, 
			 "cosmo_dispersion_energy": -22.51, 
			 "cosmo_repulsion_energy": 1.77, 
			 "cosmo_total_nonelectrostatic_energy": 10.92, 
			 "SMD_solvation_energy": 5.97 
		},
		"coords": [
			{
				"x": 1.2297908154,
				"y": 4.1646636703,
				"z": -0.0640126252,
				"element": "C" 
			},
			{
				"x": 0.6745551944,
				"y": 2.7649542559,
				"z": -0.1936827032,
				"element": "C" 
			},
			{
				"x": 1.2417230139,
				"y": 1.8518615277,
				"z": -1.0788292454,
				"element": "C" 
			},
			{
				"x": 0.6915757344,
				"y": 0.5670207669,
				"z": -1.1563531975,
				"element": "C" 
			},
			{
				"x": -0.4200055743,
				"y": 0.1647308645,
				"z": -0.3698051314,
				"element": "C" 
			},
			{
				"x": -0.9817251212,
				"y": 1.1004796517,
				"z": 0.5177195385,
				"element": "C" 
			},
			{
				"x": -0.4362033817,
				"y": 2.3729579347,
				"z": 0.5948275501,
				"element": "C" 
			},
			{
				"x": -0.7153171161,
				"y": -1.2051241773,
				"z": -0.7138110858,
				"element": "C" 
			},
			{
				"x": -1.7843867463,
				"y": -2.0716923285,
				"z": -0.1090251259,
				"element": "C" 
			},
			{
				"x": -1.2939392078,
				"y": -2.9386754473,
				"z": 1.0763441424,
				"element": "C" 
			},
			{
				"x": -0.1901046135,
				"y": -3.9260559155,
				"z": 0.717668765,
				"element": "C" 
			},
			{
				"x": -0.4350157481,
				"y": -4.7191687925,
				"z": -0.3693080142,
				"element": "O" 
			},
			{
				"x": 0.8402470945,
				"y": -4.0529778236,
				"z": 1.3268992279,
				"element": "O" 
			},
			{
				"x": 0.2053567584,
				"y": -1.572542465,
				"z": -1.6659444796,
				"element": "C" 
			},
			{
				"x": 1.0484789037,
				"y": -0.5122546608,
				"z": -1.9376792659,
				"element": "N" 
			},
			{
				"x": 2.0720164108,
				"y": 4.3265640169,
				"z": -0.7427269976,
				"element": "H" 
			},
			{
				"x": 1.5813784996,
				"y": 4.3625727387,
				"z": 0.9556195296,
				"element": "H" 
			},
			{
				"x": 0.4683493601,
				"y": 4.920208481,
				"z": -0.2912892361,
				"element": "H" 
			},
			{
				"x": 2.093844616,
				"y": 2.13379841,
				"z": -1.6924270761,
				"element": "H" 
			},
			{
				"x": -1.8329589962,
				"y": 0.8340629626,
				"z": 1.1390653897,
				"element": "H" 
			},
			{
				"x": -0.8684606378,
				"y": 3.0970745308,
				"z": 1.281053639,
				"element": "H" 
			},
			{
				"x": -2.60740114,
				"y": -1.444410805,
				"z": 0.2507519372,
				"element": "H" 
			},
			{
				"x": -2.2347159378,
				"y": -2.7102248188,
				"z": -0.8830401213,
				"element": "H" 
			},
			{
				"x": -0.8984013074,
				"y": -2.3061262759,
				"z": 1.873001819,
				"element": "H" 
			},
			{
				"x": -2.1378048092,
				"y": -3.5080222772,
				"z": 1.4916640332,
				"element": "H" 
			},
			{
				"x": -1.3124521082,
				"y": -4.5264678116,
				"z": -0.7288048912,
				"element": "H" 
			},
			{
				"x": 0.3362750405,
				"y": -2.5212228861,
				"z": -2.1674454326,
				"element": "H" 
			},
			{
				"x": 1.820201004,
				"y": -0.5369833268,
				"z": -2.5836309424,
				"element": "H" 
			}
		],
		 "valence_orbital": [ 
			{
				"type": "occ",
				"energy": -0.31056,
				"method": "rhf"
			},
			{
				"type": "occ",
				"energy": -0.27031,
				"method": "rhf"
			},
			{
				"type": "occ",
				"energy": -0.26181,
				"method": "rhf"
			},
			{
				"type": "occ",
				"energy": -0.21719,
				"method": "rhf"
			},
			{
				"type": "occ",
				"energy": -0.19938,
				"method": "rhf"
			},
			{
				"type": "unocc",
				"energy": -0.00783,
				"method": "rhf"
			},
			{
				"type": "unocc",
				"energy": 0.01397,
				"method": "rhf"
			},
			{
				"type": "unocc",
				"energy": 0.0262,
				"method": "rhf"
			},
			{
				"type": "unocc",
				"energy": 0.03989,
				"method": "rhf"
			},
			{
				"type": "unocc",
				"energy": 0.0711,
				"method": "rhf"
			}
		],
		"cosmo_sigma_profile": { 
			"-0.025": 0.0,
			"-0.024": 0.0,
			"-0.023": 0.0,
			"-0.022": 0.0,
			"-0.021": 0.0,
			"-0.02": 0.0,
			"-0.019": 0.0,
			"-0.018": 0.422231794176,
			"-0.017": 1.18592798279,
			"-0.016": 1.26381483179,
			"-0.015": 2.34276261282,
			"-0.014": 2.47560820496,
			"-0.013": 3.06120107836,
			"-0.012": 1.49952284044,
			"-0.011": 1.97638649858,
			"-0.01": 2.39414681496,
			"-0.009": 2.83274113225,
			"-0.008": 3.81905765698,
			"-0.007": 5.8721324146,
			"-0.006": 6.88844897695,
			"-0.005": 12.3331102217,
			"-0.004": 19.0047273253,
			"-0.003": 21.6995062786,
			"-0.002": 19.6568273926,
			"-0.001": 16.696232208,
			"0.0": 14.9475052836,
			"0.001": 13.6134121761,
			"0.002": 10.5555939389,
			"0.003": 9.29113210358,
			"0.004": 11.513101265,
			"0.005": 14.7234595804,
			"0.006": 13.7127065541,
			"0.007": 10.4078145398,
			"0.008": 3.97492819677,
			"0.009": 2.89426890729,
			"0.01": 4.29736900984,
			"0.011": 5.7074988401,
			"0.012": 6.02167174366,
			"0.013": 2.98683677639,
			"0.014": 0.156261590641,
			"0.015": 0.0,
			"0.016": 0.0,
			"0.017": 0.0,
			"0.018": 0.0,
			"0.019": 0.0,
			"0.02": 0.0,
			"0.021": 0.0,
			"0.022": 0.0,
			"0.023": 0.0,
			"0.024": 0.0,
			"0.025": 0.0
		}
	}
}
