{
	 "smiles": "CC1(C)NC2=C(NC1=O)C=CC=C2", 
	 "Tm": 453.15, 
	 "num_atms": 25, 
	 "gaussian": { 
		 "optdone": 1, 
		 "sigma_profile": "yes", 
		 "theory": "DFT", 
		 "functional": "B3LYP", 
		 "basiset": "6-31G**", 
		 "properties": { 
			 "R2extent": 2962.0461, 
			 "electric_dipole_moment_norm": 2.56371533716, 
			 "electric_quadrupole_moment_norm": 17.8333169991, 
			 "total_energy": -573.054576286, 
			 "HOMO_LUMO_gap": 0.18723, 
			 "cosmo_polarized_energy": -12.78, 
			 "cosmo_cavitation_energy": 27.37, 
			 "cosmo_dispersion_energy": -19.92, 
			 "cosmo_repulsion_energy": 1.55, 
			 "cosmo_total_nonelectrostatic_energy": 9.01, 
			 "SMD_solvation_energy": 4.45 
		},
		"coords": [
			{
				"x": -0.7883750424,
				"y": -2.1840682113,
				"z": -1.6721572915,
				"element": "C" 
			},
			{
				"x": 0.665492656,
				"y": -2.4434535215,
				"z": -1.2086058582,
				"element": "C" 
			},
			{
				"x": 1.3030762876,
				"y": -3.5668834404,
				"z": -2.0308443165,
				"element": "C" 
			},
			{
				"x": 1.5115746394,
				"y": -1.2432426186,
				"z": -1.3218884534,
				"element": "N" 
			},
			{
				"x": 1.2971613741,
				"y": -0.1766890475,
				"z": -0.4506341197,
				"element": "C" 
			},
			{
				"x": 0.8931783495,
				"y": -0.4830272272,
				"z": 0.8651387556,
				"element": "C" 
			},
			{
				"x": 0.7005066018,
				"y": -1.8390617142,
				"z": 1.1813775447,
				"element": "N" 
			},
			{
				"x": 0.6156475946,
				"y": -2.8663883794,
				"z": 0.2748344062,
				"element": "C" 
			},
			{
				"x": 0.4495378155,
				"y": -4.0254582573,
				"z": 0.6254407037,
				"element": "O" 
			},
			{
				"x": 0.7261003638,
				"y": 0.5284539999,
				"z": 1.8092334061,
				"element": "C" 
			},
			{
				"x": 0.9714254309,
				"y": 1.8591346224,
				"z": 1.4624025303,
				"element": "C" 
			},
			{
				"x": 1.3755593789,
				"y": 2.1709935903,
				"z": 0.1639264274,
				"element": "C" 
			},
			{
				"x": 1.5295937991,
				"y": 1.1612559116,
				"z": -0.7879386757,
				"element": "C" 
			},
			{
				"x": -1.4034748213,
				"y": -3.0773175318,
				"z": -1.5302944201,
				"element": "H" 
			},
			{
				"x": -0.7987764266,
				"y": -1.9225817926,
				"z": -2.7361927488,
				"element": "H" 
			},
			{
				"x": -1.2394119473,
				"y": -1.3585945008,
				"z": -1.1132160518,
				"element": "H" 
			},
			{
				"x": 1.2861968376,
				"y": -3.311603755,
				"z": -3.0965146876,
				"element": "H" 
			},
			{
				"x": 0.752977986,
				"y": -4.4970266985,
				"z": -1.8826558801,
				"element": "H" 
			},
			{
				"x": 2.3407320746,
				"y": -3.723645435,
				"z": -1.7258154338,
				"element": "H" 
			},
			{
				"x": 1.6776612259,
				"y": -0.9669243945,
				"z": -2.2822573587,
				"element": "H" 
			},
			{
				"x": 0.5878400509,
				"y": -2.1129622281,
				"z": 2.1491953761,
				"element": "H" 
			},
			{
				"x": 0.4100950887,
				"y": 0.2696191101,
				"z": 2.816758209,
				"element": "H" 
			},
			{
				"x": 0.8447852762,
				"y": 2.6416591205,
				"z": 2.203466552,
				"element": "H" 
			},
			{
				"x": 1.5654102992,
				"y": 3.2025959769,
				"z": -0.1164827276,
				"element": "H" 
			},
			{
				"x": 1.8424851075,
				"y": 1.4048164218,
				"z": -1.8003758874,
				"element": "H" 
			}
		],
		 "valence_orbital": [ 
			{
				"type": "occ",
				"energy": -0.30416,
				"method": "rhf"
			},
			{
				"type": "occ",
				"energy": -0.29885,
				"method": "rhf"
			},
			{
				"type": "occ",
				"energy": -0.25445,
				"method": "rhf"
			},
			{
				"type": "occ",
				"energy": -0.23077,
				"method": "rhf"
			},
			{
				"type": "occ",
				"energy": -0.19522,
				"method": "rhf"
			},
			{
				"type": "unocc",
				"energy": -0.00799,
				"method": "rhf"
			},
			{
				"type": "unocc",
				"energy": 0.00655,
				"method": "rhf"
			},
			{
				"type": "unocc",
				"energy": 0.04031,
				"method": "rhf"
			},
			{
				"type": "unocc",
				"energy": 0.07617,
				"method": "rhf"
			},
			{
				"type": "unocc",
				"energy": 0.08866,
				"method": "rhf"
			}
		],
		"cosmo_sigma_profile": { 
			"-0.025": 0.0,
			"-0.024": 0.0,
			"-0.023": 0.0,
			"-0.022": 0.0,
			"-0.021": 0.0,
			"-0.02": 0.0,
			"-0.019": 0.0,
			"-0.018": 0.0,
			"-0.017": 0.0,
			"-0.016": 0.0,
			"-0.015": 0.551926496348,
			"-0.014": 1.19056875449,
			"-0.013": 1.05708428896,
			"-0.012": 2.63247772294,
			"-0.011": 2.68913902675,
			"-0.01": 2.56094947567,
			"-0.009": 2.89130030364,
			"-0.008": 2.21637474289,
			"-0.007": 4.8678755683,
			"-0.006": 5.32114431101,
			"-0.005": 9.78720276589,
			"-0.004": 15.0774852605,
			"-0.003": 18.4986671558,
			"-0.002": 19.4289046056,
			"-0.001": 18.1737167972,
			"0.0": 21.8004985276,
			"0.001": 15.0684366266,
			"0.002": 9.67071468864,
			"0.003": 8.93752144732,
			"0.004": 9.56059218173,
			"0.005": 10.0786494531,
			"0.006": 8.93354158706,
			"0.007": 6.37503074237,
			"0.008": 2.17918695967,
			"0.009": 2.53761998766,
			"0.01": 1.51933144569,
			"0.011": 2.44577666848,
			"0.012": 1.83995283707,
			"0.013": 5.68844475691,
			"0.014": 2.0422265724,
			"0.015": 0.00258025080166,
			"0.016": 0.0,
			"0.017": 0.0,
			"0.018": 0.0,
			"0.019": 0.0,
			"0.02": 0.0,
			"0.021": 0.0,
			"0.022": 0.0,
			"0.023": 0.0,
			"0.024": 0.0,
			"0.025": 0.0
		}
	}
}
