{
	 "smiles": "O=C(NC(C1CC1)C1=NNN=N1)C1=CC=CC=C1", 
	 "Tm": 463.15, 
	 "num_atms": 31, 
	 "gaussian": { 
		 "optdone": 1, 
		 "sigma_profile": "yes", 
		 "theory": "DFT", 
		 "functional": "B3LYP", 
		 "basiset": "6-31G**", 
		 "properties": { 
			 "R2extent": 4891.0692, 
			 "electric_dipole_moment_norm": 4.8680571792, 
			 "electric_quadrupole_moment_norm": 29.2098306661, 
			 "total_energy": -814.009020575, 
			 "HOMO_LUMO_gap": 0.19116, 
			 "cosmo_polarized_energy": -19.6, 
			 "cosmo_cavitation_energy": 34.28, 
			 "cosmo_dispersion_energy": -23.93, 
			 "cosmo_repulsion_energy": 1.85, 
			 "cosmo_total_nonelectrostatic_energy": 12.2, 
			 "SMD_solvation_energy": 3.57 
		},
		"coords": [
			{
				"x": -0.6307444924,
				"y": 3.4986438551,
				"z": 0.7562874162,
				"element": "O" 
			},
			{
				"x": -0.7243229128,
				"y": 2.2872728922,
				"z": 0.5770420258,
				"element": "C" 
			},
			{
				"x": -1.7607481305,
				"y": 1.8104499412,
				"z": -0.2142521799,
				"element": "N" 
			},
			{
				"x": -1.8603926393,
				"y": 0.6809896652,
				"z": -1.1589699627,
				"element": "C" 
			},
			{
				"x": -0.5381242983,
				"y": -0.0110728689,
				"z": -1.492461571,
				"element": "C" 
			},
			{
				"x": -0.1248075464,
				"y": -1.3677535316,
				"z": -0.9862410981,
				"element": "C" 
			},
			{
				"x": -0.5311759024,
				"y": -1.1995108369,
				"z": -2.4274361325,
				"element": "C" 
			},
			{
				"x": -2.9764816151,
				"y": -0.2586287262,
				"z": -0.7640137192,
				"element": "C" 
			},
			{
				"x": -4.00459653,
				"y": -0.5212420615,
				"z": -1.5703890715,
				"element": "N" 
			},
			{
				"x": -4.7196543952,
				"y": -1.3482926086,
				"z": -0.8150193441,
				"element": "N" 
			},
			{
				"x": -4.2013945243,
				"y": -1.5973359877,
				"z": 0.3821928785,
				"element": "N" 
			},
			{
				"x": -3.0896679367,
				"y": -0.9099741368,
				"z": 0.4271045227,
				"element": "N" 
			},
			{
				"x": 0.2123217444,
				"y": 1.3480885674,
				"z": 1.2725002549,
				"element": "C" 
			},
			{
				"x": 1.5374624478,
				"y": 1.774305541,
				"z": 1.4471813722,
				"element": "C" 
			},
			{
				"x": 2.4395085111,
				"y": 0.9908359012,
				"z": 2.1623138427,
				"element": "C" 
			},
			{
				"x": 2.0152441545,
				"y": -0.2085052987,
				"z": 2.742271806,
				"element": "C" 
			},
			{
				"x": 0.689057613,
				"y": -0.6196147092,
				"z": 2.5990441303,
				"element": "C" 
			},
			{
				"x": -0.2125572005,
				"y": 0.1499900851,
				"z": 1.8608587935,
				"element": "C" 
			},
			{
				"x": -2.3292429666,
				"y": 2.6018127018,
				"z": -0.4931073792,
				"element": "H" 
			},
			{
				"x": -2.2062365946,
				"y": 1.1257762186,
				"z": -2.1001555684,
				"element": "H" 
			},
			{
				"x": 0.2625369629,
				"y": 0.7088060746,
				"z": -1.6416461557,
				"element": "H" 
			},
			{
				"x": -0.8035263377,
				"y": -1.8952631688,
				"z": -0.3250274848,
				"element": "H" 
			},
			{
				"x": 0.9244160922,
				"y": -1.5103564701,
				"z": -0.7492363711,
				"element": "H" 
			},
			{
				"x": 0.2323095843,
				"y": -1.2323805489,
				"z": -3.1985964943,
				"element": "H" 
			},
			{
				"x": -1.4895792466,
				"y": -1.6089833364,
				"z": -2.7354330768,
				"element": "H" 
			},
			{
				"x": -5.5970943261,
				"y": -1.749938034,
				"z": -1.1177311142,
				"element": "H" 
			},
			{
				"x": 1.8394336929,
				"y": 2.7263427414,
				"z": 1.0230970102,
				"element": "H" 
			},
			{
				"x": 3.4679298531,
				"y": 1.320027861,
				"z": 2.2806056852,
				"element": "H" 
			},
			{
				"x": 2.7146470293,
				"y": -0.8143979393,
				"z": 3.311788219,
				"element": "H" 
			},
			{
				"x": 0.3512275077,
				"y": -1.5409086262,
				"z": 3.0651703892,
				"element": "H" 
			},
			{
				"x": -1.2422475975,
				"y": -0.174183156,
				"z": 1.7545583775,
				"element": "H" 
			}
		],
		 "valence_orbital": [ 
			{
				"type": "occ",
				"energy": -0.29796,
				"method": "rhf"
			},
			{
				"type": "occ",
				"energy": -0.25701,
				"method": "rhf"
			},
			{
				"type": "occ",
				"energy": -0.25219,
				"method": "rhf"
			},
			{
				"type": "occ",
				"energy": -0.24621,
				"method": "rhf"
			},
			{
				"type": "occ",
				"energy": -0.23479,
				"method": "rhf"
			},
			{
				"type": "unocc",
				"energy": -0.04363,
				"method": "rhf"
			},
			{
				"type": "unocc",
				"energy": -0.02607,
				"method": "rhf"
			},
			{
				"type": "unocc",
				"energy": 0.0014,
				"method": "rhf"
			},
			{
				"type": "unocc",
				"energy": 0.00904,
				"method": "rhf"
			},
			{
				"type": "unocc",
				"energy": 0.05309,
				"method": "rhf"
			}
		],
		"cosmo_sigma_profile": { 
			"-0.025": 0.0,
			"-0.024": 0.0,
			"-0.023": 0.0,
			"-0.022": 0.0,
			"-0.021": 0.0,
			"-0.02": 0.803099646004,
			"-0.019": 2.00784061144,
			"-0.018": 1.37047039645,
			"-0.017": 0.709200050103,
			"-0.016": 1.02102014011,
			"-0.015": 1.62601276739,
			"-0.014": 0.82349904423,
			"-0.013": 1.47308062562,
			"-0.012": 2.65856735413,
			"-0.011": 1.94623643169,
			"-0.01": 1.92824975244,
			"-0.009": 1.60326438758,
			"-0.008": 2.13027489051,
			"-0.007": 3.02615391504,
			"-0.006": 8.25524744911,
			"-0.005": 16.5180974855,
			"-0.004": 22.8151926531,
			"-0.003": 22.2810541616,
			"-0.002": 19.2279168375,
			"-0.001": 18.4443579382,
			"0.0": 19.609159713,
			"0.001": 17.7237019038,
			"0.002": 15.099556466,
			"0.003": 17.8138024869,
			"0.004": 16.5298492667,
			"0.005": 13.9185835979,
			"0.006": 5.7787945251,
			"0.007": 5.06520496052,
			"0.008": 7.16785952384,
			"0.009": 4.63555969341,
			"0.01": 3.57603080386,
			"0.011": 3.68356068415,
			"0.012": 2.95351098441,
			"0.013": 4.70810894316,
			"0.014": 3.57316244632,
			"0.015": 0.253455867328,
			"0.016": 0.0,
			"0.017": 0.0,
			"0.018": 0.0,
			"0.019": 0.0,
			"0.02": 0.0,
			"0.021": 0.0,
			"0.022": 0.0,
			"0.023": 0.0,
			"0.024": 0.0,
			"0.025": 0.0
		}
	}
}
