{
	 "smiles": "CC1=C(C=CC=C1COC(=O)C1C(C=C(/Cl)C(F)(F)F)C1(C)C)C1=CC=CC=C1", 
	 "Tm": 352.75, 
	 "num_atms": 51, 
	 "gaussian": { 
		 "optdone": 1, 
		 "sigma_profile": "yes", 
		 "theory": "DFT", 
		 "functional": "B3LYP", 
		 "basiset": "6-31G**", 
		 "properties": { 
			 "R2extent": 15431.752, 
			 "electric_dipole_moment_norm": 2.59494959296, 
			 "electric_quadrupole_moment_norm": 16.9367513804, 
			 "total_energy": -1799.85857298, 
			 "HOMO_LUMO_gap": 0.19883, 
			 "cosmo_polarized_energy": -12.34, 
			 "cosmo_cavitation_energy": 57.8, 
			 "cosmo_dispersion_energy": -36.12, 
			 "cosmo_repulsion_energy": 2.68, 
			 "cosmo_total_nonelectrostatic_energy": 24.36, 
			 "SMD_solvation_energy": 11.22 
		},
		"coords": [
			{
				"x": -1.1386969249,
				"y": -1.7947607528,
				"z": -0.6321802657,
				"element": "C" 
			},
			{
				"x": -2.3391161848,
				"y": -1.0045301485,
				"z": -0.1568478387,
				"element": "C" 
			},
			{
				"x": -3.3320413365,
				"y": -0.5569427073,
				"z": -1.0585929975,
				"element": "C" 
			},
			{
				"x": -4.4612520763,
				"y": 0.1206833896,
				"z": -0.5669983949,
				"element": "C" 
			},
			{
				"x": -4.6148121856,
				"y": 0.3816717503,
				"z": 0.7896817527,
				"element": "C" 
			},
			{
				"x": -3.6255857652,
				"y": -0.0339808347,
				"z": 1.6775250351,
				"element": "C" 
			},
			{
				"x": -2.4984263012,
				"y": -0.7230341932,
				"z": 1.2198154081,
				"element": "C" 
			},
			{
				"x": -1.4776158117,
				"y": -1.1691317968,
				"z": 2.2319008239,
				"element": "C" 
			},
			{
				"x": -0.2608652992,
				"y": -0.3939391938,
				"z": 2.0376277009,
				"element": "O" 
			},
			{
				"x": 0.7965974089,
				"y": -0.7665135096,
				"z": 2.7945341773,
				"element": "C" 
			},
			{
				"x": 0.7676905334,
				"y": -1.6961784842,
				"z": 3.5751180308,
				"element": "O" 
			},
			{
				"x": 2.0106410651,
				"y": 0.0749652546,
				"z": 2.5755577161,
				"element": "C" 
			},
			{
				"x": 2.1941347357,
				"y": 0.9363216094,
				"z": 1.31847707,
				"element": "C" 
			},
			{
				"x": 3.4639231538,
				"y": 0.8803650722,
				"z": 0.5823170852,
				"element": "C" 
			},
			{
				"x": 3.6207472548,
				"y": 0.9582146126,
				"z": -0.7437959663,
				"element": "C" 
			},
			{
				"x": 2.2948083169,
				"y": 1.1516860886,
				"z": -1.870994948,
				"element": "Cl" 
			},
			{
				"x": 4.9672552536,
				"y": 0.8876944103,
				"z": -1.4174712045,
				"element": "C" 
			},
			{
				"x": 5.0426563204,
				"y": -0.150333623,
				"z": -2.2731480498,
				"element": "F" 
			},
			{
				"x": 5.9550987988,
				"y": 0.739265962,
				"z": -0.508153088,
				"element": "F" 
			},
			{
				"x": 5.2296228971,
				"y": 2.005174553,
				"z": -2.1237410483,
				"element": "F" 
			},
			{
				"x": 2.0552568802,
				"y": 1.594327523,
				"z": 2.6853533566,
				"element": "C" 
			},
			{
				"x": 3.2784018067,
				"y": 2.1821265825,
				"z": 3.3729760403,
				"element": "C" 
			},
			{
				"x": 0.7862799901,
				"y": 2.3907204357,
				"z": 2.9442703832,
				"element": "C" 
			},
			{
				"x": -3.244080254,
				"y": -0.7743458529,
				"z": -2.533454107,
				"element": "C" 
			},
			{
				"x": -2.1483911764,
				"y": -0.3114235324,
				"z": -3.2805991576,
				"element": "C" 
			},
			{
				"x": -2.103616998,
				"y": -0.4797364119,
				"z": -4.6644699037,
				"element": "C" 
			},
			{
				"x": -3.1542995967,
				"y": -1.1145499219,
				"z": -5.3298535261,
				"element": "C" 
			},
			{
				"x": -4.2511864462,
				"y": -1.5770229014,
				"z": -4.6010120451,
				"element": "C" 
			},
			{
				"x": -4.2959772248,
				"y": -1.405873574,
				"z": -3.2171137744,
				"element": "C" 
			},
			{
				"x": -0.90447392,
				"y": -2.611866274,
				"z": 0.0573298543,
				"element": "H" 
			},
			{
				"x": -0.2407823097,
				"y": -1.1700196427,
				"z": -0.694762463,
				"element": "H" 
			},
			{
				"x": -1.3101328077,
				"y": -2.2288574175,
				"z": -1.6174015698,
				"element": "H" 
			},
			{
				"x": -5.2133880881,
				"y": 0.4599243705,
				"z": -1.2732382082,
				"element": "H" 
			},
			{
				"x": -5.4903411741,
				"y": 0.9130724207,
				"z": 1.1506190156,
				"element": "H" 
			},
			{
				"x": -3.7269270213,
				"y": 0.1724941783,
				"z": 2.7399213422,
				"element": "H" 
			},
			{
				"x": -1.2219142726,
				"y": -2.2287356342,
				"z": 2.1452882539,
				"element": "H" 
			},
			{
				"x": -1.8333508696,
				"y": -1.0026162032,
				"z": 3.2522500398,
				"element": "H" 
			},
			{
				"x": 2.8933611932,
				"y": -0.4337617387,
				"z": 2.9509747673,
				"element": "H" 
			},
			{
				"x": 1.306389722,
				"y": 1.0061408821,
				"z": 0.6995606614,
				"element": "H" 
			},
			{
				"x": 4.3793972824,
				"y": 0.7583613761,
				"z": 1.1528319481,
				"element": "H" 
			},
			{
				"x": 3.4861745521,
				"y": 3.1898238369,
				"z": 2.9959914876,
				"element": "H" 
			},
			{
				"x": 3.0998252498,
				"y": 2.2587746153,
				"z": 4.4509695726,
				"element": "H" 
			},
			{
				"x": 4.1780540499,
				"y": 1.5772910022,
				"z": 3.233411967,
				"element": "H" 
			},
			{
				"x": 0.5716673839,
				"y": 2.4284313939,
				"z": 4.0187576198,
				"element": "H" 
			},
			{
				"x": 0.9171235301,
				"y": 3.4211276557,
				"z": 2.5955065082,
				"element": "H" 
			},
			{
				"x": -0.0795748094,
				"y": 1.9632046788,
				"z": 2.4377780406,
				"element": "H" 
			},
			{
				"x": -1.3344634409,
				"y": 0.1982983105,
				"z": -2.7734460322,
				"element": "H" 
			},
			{
				"x": -1.249250259,
				"y": -0.1090448867,
				"z": -5.2237768388,
				"element": "H" 
			},
			{
				"x": -3.1183616291,
				"y": -1.2467341286,
				"z": -6.4073523638,
				"element": "H" 
			},
			{
				"x": -5.0724147293,
				"y": -2.0750499105,
				"z": -5.108851795,
				"element": "H" 
			},
			{
				"x": -5.1474684668,
				"y": -1.7759786903,
				"z": -2.652890072,
				"element": "H" 
			}
		],
		 "valence_orbital": [ 
			{
				"type": "occ",
				"energy": -0.26654,
				"method": "rhf"
			},
			{
				"type": "occ",
				"energy": -0.25415,
				"method": "rhf"
			},
			{
				"type": "occ",
				"energy": -0.25167,
				"method": "rhf"
			},
			{
				"type": "occ",
				"energy": -0.24457,
				"method": "rhf"
			},
			{
				"type": "occ",
				"energy": -0.23179,
				"method": "rhf"
			},
			{
				"type": "unocc",
				"energy": -0.03296,
				"method": "rhf"
			},
			{
				"type": "unocc",
				"energy": -0.02348,
				"method": "rhf"
			},
			{
				"type": "unocc",
				"energy": -0.01496,
				"method": "rhf"
			},
			{
				"type": "unocc",
				"energy": -0.00179,
				"method": "rhf"
			},
			{
				"type": "unocc",
				"energy": 0.00615,
				"method": "rhf"
			}
		],
		"cosmo_sigma_profile": { 
			"-0.025": 0.0,
			"-0.024": 0.0,
			"-0.023": 0.0,
			"-0.022": 0.0,
			"-0.021": 0.0,
			"-0.02": 0.0,
			"-0.019": 0.0,
			"-0.018": 0.0,
			"-0.017": 0.0,
			"-0.016": 0.0,
			"-0.015": 0.0,
			"-0.014": 0.0,
			"-0.013": 0.0,
			"-0.012": 0.0,
			"-0.011": 0.0118193779032,
			"-0.01": 0.582779887785,
			"-0.009": 1.55294674245,
			"-0.008": 2.23651623992,
			"-0.007": 5.29349430435,
			"-0.006": 13.6884067939,
			"-0.005": 22.3375354151,
			"-0.004": 32.5933696515,
			"-0.003": 43.4302117569,
			"-0.002": 43.3731939912,
			"-0.001": 48.7361266319,
			"0.0": 53.6128520133,
			"0.001": 39.7081426927,
			"0.002": 45.5794208788,
			"0.003": 44.7342725552,
			"0.004": 19.8308151236,
			"0.005": 19.2525961181,
			"0.006": 9.76348970157,
			"0.007": 1.54931217418,
			"0.008": 1.11488672574,
			"0.009": 1.53067453787,
			"0.01": 1.94232558177,
			"0.011": 2.51177579355,
			"0.012": 5.17762799059,
			"0.013": 1.23668424151,
			"0.014": 0.0011277155424,
			"0.015": 0.0,
			"0.016": 0.0,
			"0.017": 0.0,
			"0.018": 0.0,
			"0.019": 0.0,
			"0.02": 0.0,
			"0.021": 0.0,
			"0.022": 0.0,
			"0.023": 0.0,
			"0.024": 0.0,
			"0.025": 0.0
		}
	}
}
