{
	 "smiles": "NC(=O)NC(CC(O)=O)C1=CC=CS1", 
	 "Tm": 464.15, 
	 "num_atms": 24, 
	 "gaussian": { 
		 "optdone": 1, 
		 "sigma_profile": "yes", 
		 "theory": "DFT", 
		 "functional": "B3LYP", 
		 "basiset": "6-31G**", 
		 "properties": { 
			 "R2extent": 3155.7923, 
			 "electric_dipole_moment_norm": 5.19473829947, 
			 "electric_quadrupole_moment_norm": 14.6392291911, 
			 "total_energy": -1044.26180687, 
			 "HOMO_LUMO_gap": 0.21589, 
			 "cosmo_polarized_energy": -22.97, 
			 "cosmo_cavitation_energy": 29.91, 
			 "cosmo_dispersion_energy": -21.45, 
			 "cosmo_repulsion_energy": 1.7, 
			 "cosmo_total_nonelectrostatic_energy": 10.16, 
			 "SMD_solvation_energy": 6.28 
		},
		"coords": [
			{
				"x": -2.9698959085,
				"y": 0.7023576874,
				"z": -2.4194274019,
				"element": "N" 
			},
			{
				"x": -1.7757480362,
				"y": 0.7633361762,
				"z": -1.7142010995,
				"element": "C" 
			},
			{
				"x": -1.5507394157,
				"y": 1.6314520606,
				"z": -0.8787483128,
				"element": "O" 
			},
			{
				"x": -0.8856145476,
				"y": -0.2457837705,
				"z": -2.0405047902,
				"element": "N" 
			},
			{
				"x": 0.342540676,
				"y": -0.4874182038,
				"z": -1.2637886072,
				"element": "C" 
			},
			{
				"x": 1.2544326223,
				"y": 0.7601462961,
				"z": -1.2686788625,
				"element": "C" 
			},
			{
				"x": 2.6595855465,
				"y": 0.4775032131,
				"z": -0.782409155,
				"element": "C" 
			},
			{
				"x": 3.1774415537,
				"y": -0.6560028439,
				"z": -1.330118491,
				"element": "O" 
			},
			{
				"x": 3.2971111308,
				"y": 1.1745378706,
				"z": -0.0274369784,
				"element": "O" 
			},
			{
				"x": 0.1170805192,
				"y": -1.0729054009,
				"z": 0.1138357627,
				"element": "C" 
			},
			{
				"x": 0.5556894667,
				"y": -2.3048828871,
				"z": 0.5332850476,
				"element": "C" 
			},
			{
				"x": 0.2331538686,
				"y": -2.5971263583,
				"z": 1.8919511914,
				"element": "C" 
			},
			{
				"x": -0.448578372,
				"y": -1.5754387687,
				"z": 2.4925262152,
				"element": "C" 
			},
			{
				"x": -0.7101210494,
				"y": -0.2435007596,
				"z": 1.4143442902,
				"element": "S" 
			},
			{
				"x": -3.526269019,
				"y": 1.5388253918,
				"z": -2.3140842343,
				"element": "H" 
			},
			{
				"x": -2.9490675063,
				"y": 0.3270932818,
				"z": -3.3574573229,
				"element": "H" 
			},
			{
				"x": -1.3112649118,
				"y": -1.0901438473,
				"z": -2.4004160633,
				"element": "H" 
			},
			{
				"x": 0.8747866678,
				"y": -1.2621038181,
				"z": -1.8231928822,
				"element": "H" 
			},
			{
				"x": 0.8368405596,
				"y": 1.5614275787,
				"z": -0.6629448146,
				"element": "H" 
			},
			{
				"x": 1.3296893986,
				"y": 1.1213366977,
				"z": -2.3021448889,
				"element": "H" 
			},
			{
				"x": 4.0743431303,
				"y": -0.7386484234,
				"z": -0.9649520532,
				"element": "H" 
			},
			{
				"x": 1.1057742265,
				"y": -2.9784643999,
				"z": -0.1159583132,
				"element": "H" 
			},
			{
				"x": 0.4959439034,
				"y": -3.5223950141,
				"z": 2.3920849003,
				"element": "H" 
			},
			{
				"x": -0.8235145035,
				"y": -1.5271017582,
				"z": 3.5060368635,
				"element": "H" 
			}
		],
		 "valence_orbital": [ 
			{
				"type": "occ",
				"energy": -0.27545,
				"method": "rhf"
			},
			{
				"type": "occ",
				"energy": -0.26637,
				"method": "rhf"
			},
			{
				"type": "occ",
				"energy": -0.25591,
				"method": "rhf"
			},
			{
				"type": "occ",
				"energy": -0.24299,
				"method": "rhf"
			},
			{
				"type": "occ",
				"energy": -0.22537,
				"method": "rhf"
			},
			{
				"type": "unocc",
				"energy": -0.00948,
				"method": "rhf"
			},
			{
				"type": "unocc",
				"energy": 0.01098,
				"method": "rhf"
			},
			{
				"type": "unocc",
				"energy": 0.04199,
				"method": "rhf"
			},
			{
				"type": "unocc",
				"energy": 0.04965,
				"method": "rhf"
			},
			{
				"type": "unocc",
				"energy": 0.05862,
				"method": "rhf"
			}
		],
		"cosmo_sigma_profile": { 
			"-0.025": 0.0,
			"-0.024": 0.0,
			"-0.023": 0.0,
			"-0.022": 0.0,
			"-0.021": 0.0,
			"-0.02": 0.0,
			"-0.019": 0.00325597688516,
			"-0.018": 0.686255017242,
			"-0.017": 1.11694378867,
			"-0.016": 0.62367569322,
			"-0.015": 0.995809267334,
			"-0.014": 3.37218923143,
			"-0.013": 4.49445814027,
			"-0.012": 5.09260146381,
			"-0.011": 3.96833113573,
			"-0.01": 3.68282397937,
			"-0.009": 3.08086217813,
			"-0.008": 5.31136333646,
			"-0.007": 8.72024345696,
			"-0.006": 12.6244593754,
			"-0.005": 9.44186924398,
			"-0.004": 11.6411878329,
			"-0.003": 10.6502516377,
			"-0.002": 12.2853687673,
			"-0.001": 10.1142250754,
			"0.0": 10.7169618276,
			"0.001": 14.1157810508,
			"0.002": 12.3559198472,
			"0.003": 14.0450509669,
			"0.004": 16.3039388282,
			"0.005": 16.0618418681,
			"0.006": 10.3832544429,
			"0.007": 4.21193517525,
			"0.008": 4.75027700614,
			"0.009": 3.51092823855,
			"0.01": 4.59229099238,
			"0.011": 6.92454769974,
			"0.012": 5.65910986491,
			"0.013": 3.2734277491,
			"0.014": 2.48064049027,
			"0.015": 0.891380231686,
			"0.016": 0.0,
			"0.017": 0.0,
			"0.018": 0.0,
			"0.019": 0.0,
			"0.02": 0.0,
			"0.021": 0.0,
			"0.022": 0.0,
			"0.023": 0.0,
			"0.024": 0.0,
			"0.025": 0.0
		}
	}
}
