{
	 "smiles": "CC(C)(SC1=CC=C(Br)C=C1)C(O)=O", 
	 "Tm": 383.15, 
	 "num_atms": 25, 
	 "gaussian": { 
		 "optdone": 1, 
		 "sigma_profile": "yes", 
		 "theory": "DFT", 
		 "functional": "B3LYP", 
		 "basiset": "6-31G**", 
		 "properties": { 
			 "R2extent": 6112.6639, 
			 "electric_dipole_moment_norm": 3.17606306455, 
			 "electric_quadrupole_moment_norm": 9.35808666502, 
			 "total_energy": -3507.74811678, 
			 "HOMO_LUMO_gap": 0.20211, 
			 "cosmo_polarized_energy": -11.31, 
			 "cosmo_cavitation_energy": 32.03, 
			 "cosmo_dispersion_energy": -23.18, 
			 "cosmo_repulsion_energy": 1.78, 
			 "cosmo_total_nonelectrostatic_energy": 10.63, 
			 "SMD_solvation_energy": 5.0 
		},
		"coords": [
			{
				"x": 0.6846709835,
				"y": -0.6644035266,
				"z": 2.0459785041,
				"element": "C" 
			},
			{
				"x": 0.0656876649,
				"y": 0.7322954776,
				"z": 2.0929887956,
				"element": "C" 
			},
			{
				"x": 0.5640554163,
				"y": 1.5204140755,
				"z": 3.3242393025,
				"element": "C" 
			},
			{
				"x": 0.5811716458,
				"y": 1.7803547314,
				"z": 0.6206360496,
				"element": "S" 
			},
			{
				"x": 0.2079052054,
				"y": 0.7537197923,
				"z": -0.8055987765,
				"element": "C" 
			},
			{
				"x": -1.1080785751,
				"y": 0.5264958842,
				"z": -1.2343230241,
				"element": "C" 
			},
			{
				"x": -1.3561410238,
				"y": -0.2373326118,
				"z": -2.3740748119,
				"element": "C" 
			},
			{
				"x": -0.2821412262,
				"y": -0.7566207004,
				"z": -3.096721759,
				"element": "C" 
			},
			{
				"x": -0.6192182194,
				"y": -1.7902511799,
				"z": -4.6647325128,
				"element": "Br" 
			},
			{
				"x": 1.0331102577,
				"y": -0.5308008334,
				"z": -2.6944821935,
				"element": "C" 
			},
			{
				"x": 1.2730226801,
				"y": 0.2208175617,
				"z": -1.5441498567,
				"element": "C" 
			},
			{
				"x": -1.4761723971,
				"y": 0.6343081586,
				"z": 2.2045440415,
				"element": "C" 
			},
			{
				"x": -2.1808273765,
				"y": 1.7022927913,
				"z": 1.7705079357,
				"element": "O" 
			},
			{
				"x": -2.0255894097,
				"y": -0.3109404057,
				"z": 2.7154496116,
				"element": "O" 
			},
			{
				"x": 1.775548686,
				"y": -0.5955190032,
				"z": 2.0591377217,
				"element": "H" 
			},
			{
				"x": 0.3480359374,
				"y": -1.23576039,
				"z": 2.9142102878,
				"element": "H" 
			},
			{
				"x": 0.3774112747,
				"y": -1.2092308433,
				"z": 1.1505576744,
				"element": "H" 
			},
			{
				"x": 0.1435450855,
				"y": 2.5298249087,
				"z": 3.3624065141,
				"element": "H" 
			},
			{
				"x": 0.2611895722,
				"y": 0.9915611196,
				"z": 4.2329094691,
				"element": "H" 
			},
			{
				"x": 1.6545682368,
				"y": 1.5970591946,
				"z": 3.3117490612,
				"element": "H" 
			},
			{
				"x": -1.9441783259,
				"y": 0.939332769,
				"z": -0.6802134567,
				"element": "H" 
			},
			{
				"x": -2.3735459991,
				"y": -0.4187457532,
				"z": -2.7010225655,
				"element": "H" 
			},
			{
				"x": 1.8579341825,
				"y": -0.939961383,
				"z": -3.2665272816,
				"element": "H" 
			},
			{
				"x": 2.2931989234,
				"y": 0.3963867949,
				"z": -1.2187276355,
				"element": "H" 
			},
			{
				"x": -1.5615631995,
				"y": 2.3117033711,
				"z": 1.3219589049,
				"element": "H" 
			}
		],
		 "valence_orbital": [ 
			{
				"type": "occ",
				"energy": -0.29717,
				"method": "rhf"
			},
			{
				"type": "occ",
				"energy": -0.28747,
				"method": "rhf"
			},
			{
				"type": "occ",
				"energy": -0.27923,
				"method": "rhf"
			},
			{
				"type": "occ",
				"energy": -0.25852,
				"method": "rhf"
			},
			{
				"type": "occ",
				"energy": -0.24784,
				"method": "rhf"
			},
			{
				"type": "unocc",
				"energy": -0.04573,
				"method": "rhf"
			},
			{
				"type": "unocc",
				"energy": -0.03109,
				"method": "rhf"
			},
			{
				"type": "unocc",
				"energy": -0.00399,
				"method": "rhf"
			},
			{
				"type": "unocc",
				"energy": -0.00033,
				"method": "rhf"
			},
			{
				"type": "unocc",
				"energy": 0.03121,
				"method": "rhf"
			}
		],
		"cosmo_sigma_profile": { 
			"-0.025": 0.0,
			"-0.024": 0.0,
			"-0.023": 0.0,
			"-0.022": 0.0,
			"-0.021": 0.0,
			"-0.02": 0.0,
			"-0.019": 0.0,
			"-0.018": 0.0,
			"-0.017": 0.0,
			"-0.016": 0.0,
			"-0.015": 0.0,
			"-0.014": 0.00260032422671,
			"-0.013": 0.365265163156,
			"-0.012": 0.526303642497,
			"-0.011": 0.835574548206,
			"-0.01": 2.32261247574,
			"-0.009": 1.09708454057,
			"-0.008": 3.15443716381,
			"-0.007": 7.65452297225,
			"-0.006": 9.44502454125,
			"-0.005": 14.5591738658,
			"-0.004": 18.62317216,
			"-0.003": 21.7057900107,
			"-0.002": 22.1586502187,
			"-0.001": 25.7957618208,
			"0.0": 21.6496440559,
			"0.001": 19.8591679679,
			"0.002": 23.9031905582,
			"0.003": 15.0123043791,
			"0.004": 16.5990038066,
			"0.005": 6.14854928135,
			"0.006": 3.41084349446,
			"0.007": 3.20991053417,
			"0.008": 3.21051207349,
			"0.009": 3.43273611322,
			"0.01": 4.93063820026,
			"0.011": 5.13928479383,
			"0.012": 3.81500248551,
			"0.013": 0.621486234356,
			"0.014": 0.0,
			"0.015": 0.0,
			"0.016": 0.0,
			"0.017": 0.0,
			"0.018": 0.0,
			"0.019": 0.0,
			"0.02": 0.0,
			"0.021": 0.0,
			"0.022": 0.0,
			"0.023": 0.0,
			"0.024": 0.0,
			"0.025": 0.0
		}
	}
}
