{
	 "smiles": "CC1(C)C(C=C2/CCSC2=O)C1C(=O)OCC1=COC(CC2=CC=CC=C2)=C1", 
	 "Tm": 304.15, 
	 "num_atms": 52, 
	 "gaussian": { 
		 "optdone": 1, 
		 "sigma_profile": "yes", 
		 "theory": "DFT", 
		 "functional": "B3LYP", 
		 "basiset": "6-31G**", 
		 "properties": { 
			 "R2extent": 17280.2103, 
			 "electric_dipole_moment_norm": 5.97501730709, 
			 "electric_quadrupole_moment_norm": 28.6963734007, 
			 "total_energy": -1589.96496992, 
			 "HOMO_LUMO_gap": 0.17577, 
			 "cosmo_polarized_energy": -19.39, 
			 "cosmo_cavitation_energy": 58.37, 
			 "cosmo_dispersion_energy": -38.0, 
			 "cosmo_repulsion_energy": 2.94, 
			 "cosmo_total_nonelectrostatic_energy": 23.31, 
			 "SMD_solvation_energy": 11.2 
		},
		"coords": [
			{
				"x": -2.2103123715,
				"y": -4.843802921,
				"z": 1.5596456598,
				"element": "C" 
			},
			{
				"x": -1.8075692547,
				"y": -3.3768172541,
				"z": 1.5319730727,
				"element": "C" 
			},
			{
				"x": -2.4890499595,
				"y": -2.5957051809,
				"z": 0.4199043011,
				"element": "C" 
			},
			{
				"x": -0.3821199729,
				"y": -2.976603945,
				"z": 1.8958191426,
				"element": "C" 
			},
			{
				"x": 0.6684397418,
				"y": -3.9489257366,
				"z": 2.2256805812,
				"element": "C" 
			},
			{
				"x": 1.9759620737,
				"y": -3.8370029327,
				"z": 1.9258138187,
				"element": "C" 
			},
			{
				"x": 2.6835750315,
				"y": -2.7343221723,
				"z": 1.1823480458,
				"element": "C" 
			},
			{
				"x": 4.1612829842,
				"y": -2.7314819471,
				"z": 1.6242426386,
				"element": "C" 
			},
			{
				"x": 4.6120524704,
				"y": -4.4719908387,
				"z": 2.0117139361,
				"element": "S" 
			},
			{
				"x": 2.8882976235,
				"y": -4.9451557522,
				"z": 2.3349099082,
				"element": "C" 
			},
			{
				"x": 2.5701096843,
				"y": -6.0137389206,
				"z": 2.8067264175,
				"element": "O" 
			},
			{
				"x": -1.5354679237,
				"y": -2.7313009628,
				"z": 2.8843880332,
				"element": "C" 
			},
			{
				"x": -1.9495906147,
				"y": -1.357126238,
				"z": 3.2904521918,
				"element": "C" 
			},
			{
				"x": -2.5401213473,
				"y": -1.1187107284,
				"z": 4.3245824656,
				"element": "O" 
			},
			{
				"x": -1.5904842497,
				"y": -0.3973240798,
				"z": 2.4037001031,
				"element": "O" 
			},
			{
				"x": -1.9792449667,
				"y": 0.957448819,
				"z": 2.7648373132,
				"element": "C" 
			},
			{
				"x": -1.5867078297,
				"y": 1.8725908174,
				"z": 1.6570763177,
				"element": "C" 
			},
			{
				"x": -0.5919100363,
				"y": 2.8036266448,
				"z": 1.6855713311,
				"element": "C" 
			},
			{
				"x": -0.5227923475,
				"y": 3.4729567903,
				"z": 0.5028470669,
				"element": "O" 
			},
			{
				"x": -1.4952016204,
				"y": 2.9572494125,
				"z": -0.314480207,
				"element": "C" 
			},
			{
				"x": -1.6042252874,
				"y": 3.5399567861,
				"z": -1.6862772016,
				"element": "C" 
			},
			{
				"x": -0.4035053951,
				"y": 3.2645366326,
				"z": -2.5832529189,
				"element": "C" 
			},
			{
				"x": 0.3234574397,
				"y": 4.3178278853,
				"z": -3.1465130752,
				"element": "C" 
			},
			{
				"x": 1.4113184709,
				"y": 4.0665832863,
				"z": -3.98618402,
				"element": "C" 
			},
			{
				"x": 1.7857829244,
				"y": 2.7538233562,
				"z": -4.2717573986,
				"element": "C" 
			},
			{
				"x": 1.0670157311,
				"y": 1.6943070063,
				"z": -3.7116653164,
				"element": "C" 
			},
			{
				"x": -0.0176131046,
				"y": 1.9489792809,
				"z": -2.8738013718,
				"element": "C" 
			},
			{
				"x": -2.1743049195,
				"y": 1.9775158171,
				"z": 0.3464154023,
				"element": "C" 
			},
			{
				"x": -1.7626908704,
				"y": -5.3921645814,
				"z": 2.3916212201,
				"element": "H" 
			},
			{
				"x": -3.2983456547,
				"y": -4.9303561959,
				"z": 1.6542080232,
				"element": "H" 
			},
			{
				"x": -1.9142671214,
				"y": -5.3423348203,
				"z": 0.6298699675,
				"element": "H" 
			},
			{
				"x": -2.1770377023,
				"y": -1.5511135815,
				"z": 0.3980034789,
				"element": "H" 
			},
			{
				"x": -2.2527987515,
				"y": -3.0492601906,
				"z": -0.5493833644,
				"element": "H" 
			},
			{
				"x": -3.5782903782,
				"y": -2.6264055191,
				"z": 0.542496516,
				"element": "H" 
			},
			{
				"x": -0.0455195492,
				"y": -2.0718808588,
				"z": 1.398857007,
				"element": "H" 
			},
			{
				"x": 0.3820930585,
				"y": -4.8502403443,
				"z": 2.7642871061,
				"element": "H" 
			},
			{
				"x": 2.6327235526,
				"y": -2.9263471113,
				"z": 0.1023128792,
				"element": "H" 
			},
			{
				"x": 2.2336523694,
				"y": -1.7520926104,
				"z": 1.3571475442,
				"element": "H" 
			},
			{
				"x": 4.8243353172,
				"y": -2.3575119787,
				"z": 0.8423369545,
				"element": "H" 
			},
			{
				"x": 4.3063642284,
				"y": -2.1263691183,
				"z": 2.5228595517,
				"element": "H" 
			},
			{
				"x": -1.5950814627,
				"y": -3.4070858997,
				"z": 3.7319585959,
				"element": "H" 
			},
			{
				"x": -3.0579724132,
				"y": 0.9669669999,
				"z": 2.947031412,
				"element": "H" 
			},
			{
				"x": -1.4864221604,
				"y": 1.2251921213,
				"z": 3.7037444886,
				"element": "H" 
			},
			{
				"x": 0.114971375,
				"y": 3.1038066736,
				"z": 2.4444117333,
				"element": "H" 
			},
			{
				"x": -1.7552737105,
				"y": 4.6235682094,
				"z": -1.6111232894,
				"element": "H" 
			},
			{
				"x": -2.5123676206,
				"y": 3.1293236801,
				"z": -2.1430218731,
				"element": "H" 
			},
			{
				"x": 0.0369185344,
				"y": 5.3433662477,
				"z": -2.9267576477,
				"element": "H" 
			},
			{
				"x": 1.9649367813,
				"y": 4.8974242803,
				"z": -4.4144868142,
				"element": "H" 
			},
			{
				"x": 2.6309533299,
				"y": 2.5558173057,
				"z": -4.9246552518,
				"element": "H" 
			},
			{
				"x": 1.3518747584,
				"y": 0.6685888169,
				"z": -3.9292257601,
				"element": "H" 
			},
			{
				"x": -0.5686158808,
				"y": 1.1215117549,
				"z": -2.4335991837,
				"element": "H" 
			},
			{
				"x": -2.9999130033,
				"y": 1.3983037961,
				"z": -0.0433095313,
				"element": "H" 
			}
		],
		 "valence_orbital": [ 
			{
				"type": "occ",
				"energy": -0.25447,
				"method": "rhf"
			},
			{
				"type": "occ",
				"energy": -0.25073,
				"method": "rhf"
			},
			{
				"type": "occ",
				"energy": -0.24789,
				"method": "rhf"
			},
			{
				"type": "occ",
				"energy": -0.23884,
				"method": "rhf"
			},
			{
				"type": "occ",
				"energy": -0.23019,
				"method": "rhf"
			},
			{
				"type": "unocc",
				"energy": -0.05442,
				"method": "rhf"
			},
			{
				"type": "unocc",
				"energy": -0.00837,
				"method": "rhf"
			},
			{
				"type": "unocc",
				"energy": -0.00745,
				"method": "rhf"
			},
			{
				"type": "unocc",
				"energy": 0.00282,
				"method": "rhf"
			},
			{
				"type": "unocc",
				"energy": 0.0055,
				"method": "rhf"
			}
		],
		"cosmo_sigma_profile": { 
			"-0.025": 0.0,
			"-0.024": 0.0,
			"-0.023": 0.0,
			"-0.022": 0.0,
			"-0.021": 0.0,
			"-0.02": 0.0,
			"-0.019": 0.0,
			"-0.018": 0.0,
			"-0.017": 0.0,
			"-0.016": 0.0,
			"-0.015": 0.0,
			"-0.014": 0.0,
			"-0.013": 0.0,
			"-0.012": 0.0,
			"-0.011": 0.0,
			"-0.01": 0.0,
			"-0.009": 1.20559748751,
			"-0.008": 3.19210289751,
			"-0.007": 6.92349245908,
			"-0.006": 23.7520963273,
			"-0.005": 38.1757482748,
			"-0.004": 41.8414717728,
			"-0.003": 49.5504620686,
			"-0.002": 40.9054181456,
			"-0.001": 37.5080999249,
			"0.0": 39.0089870798,
			"0.001": 27.8777496838,
			"0.002": 26.2132448547,
			"0.003": 25.573159161,
			"0.004": 23.3006756075,
			"0.005": 21.60765888,
			"0.006": 19.1455557703,
			"0.007": 8.58641059612,
			"0.008": 5.44153226179,
			"0.009": 3.63429947455,
			"0.01": 4.28457397758,
			"0.011": 7.49377995567,
			"0.012": 7.88860437152,
			"0.013": 1.74730042949,
			"0.014": 0.00565902016762,
			"0.015": 0.0,
			"0.016": 0.0,
			"0.017": 0.0,
			"0.018": 0.0,
			"0.019": 0.0,
			"0.02": 0.0,
			"0.021": 0.0,
			"0.022": 0.0,
			"0.023": 0.0,
			"0.024": 0.0,
			"0.025": 0.0
		}
	}
}
