{
	 "smiles": "OCCNC(=O)C1=CC=NC=C1", 
	 "Tm": 410.15, 
	 "num_atms": 22, 
	 "gaussian": { 
		 "optdone": 1, 
		 "sigma_profile": "yes", 
		 "theory": "DFT", 
		 "functional": "B3LYP", 
		 "basiset": "6-31G**", 
		 "properties": { 
			 "R2extent": 2195.1238, 
			 "electric_dipole_moment_norm": 5.06557934396, 
			 "electric_quadrupole_moment_norm": 14.6669764396, 
			 "total_energy": -570.818246504, 
			 "HOMO_LUMO_gap": 0.20075, 
			 "cosmo_polarized_energy": -17.66, 
			 "cosmo_cavitation_energy": 26.07, 
			 "cosmo_dispersion_energy": -18.6, 
			 "cosmo_repulsion_energy": 1.52, 
			 "cosmo_total_nonelectrostatic_energy": 9.0, 
			 "SMD_solvation_energy": 3.17 
		},
		"coords": [
			{
				"x": -0.7334679125,
				"y": -1.1577259836,
				"z": 2.648446504,
				"element": "O" 
			},
			{
				"x": 0.0114268979,
				"y": -2.3108267673,
				"z": 2.2961607089,
				"element": "C" 
			},
			{
				"x": 0.5707381815,
				"y": -2.0847785252,
				"z": 0.8921861227,
				"element": "C" 
			},
			{
				"x": 1.5300260226,
				"y": -0.9855297462,
				"z": 0.826356181,
				"element": "N" 
			},
			{
				"x": 1.2077071723,
				"y": 0.3582496367,
				"z": 0.8063618692,
				"element": "C" 
			},
			{
				"x": 1.9243885433,
				"y": 1.192177641,
				"z": 1.3454501987,
				"element": "O" 
			},
			{
				"x": 0.0060053214,
				"y": 0.7881406659,
				"z": 0.0088923771,
				"element": "C" 
			},
			{
				"x": -0.7819081405,
				"y": 1.8364738837,
				"z": 0.4916882693,
				"element": "C" 
			},
			{
				"x": -1.8516325282,
				"y": 2.2819942128,
				"z": -0.2815424944,
				"element": "C" 
			},
			{
				"x": -2.1637748505,
				"y": 1.7795955844,
				"z": -1.4849636727,
				"element": "N" 
			},
			{
				"x": -1.3871281458,
				"y": 0.7948346125,
				"z": -1.9505053242,
				"element": "C" 
			},
			{
				"x": -0.3029518692,
				"y": 0.2626700879,
				"z": -1.2498703084,
				"element": "C" 
			},
			{
				"x": -0.9063411382,
				"y": -1.1738888003,
				"z": 3.5970932308,
				"element": "H" 
			},
			{
				"x": -0.6167658844,
				"y": -3.2168656829,
				"z": 2.2863975248,
				"element": "H" 
			},
			{
				"x": 0.8416000374,
				"y": -2.4905348701,
				"z": 2.9982022152,
				"element": "H" 
			},
			{
				"x": 1.0596550727,
				"y": -3.001376031,
				"z": 0.5434376566,
				"element": "H" 
			},
			{
				"x": -0.259369378,
				"y": -1.875810409,
				"z": 0.2154392917,
				"element": "H" 
			},
			{
				"x": 2.3708754457,
				"y": -1.1248301639,
				"z": 1.3780292066,
				"element": "H" 
			},
			{
				"x": -0.5529904579,
				"y": 2.2882436789,
				"z": 1.4503494237,
				"element": "H" 
			},
			{
				"x": -2.4890109152,
				"y": 3.0870831537,
				"z": 0.0798137012,
				"element": "H" 
			},
			{
				"x": -1.640354142,
				"y": 0.409256758,
				"z": -2.9368505519,
				"element": "H" 
			},
			{
				"x": 0.3002726677,
				"y": -0.5250529359,
				"z": -1.6900721302,
				"element": "H" 
			}
		],
		 "valence_orbital": [ 
			{
				"type": "occ",
				"energy": -0.28359,
				"method": "rhf"
			},
			{
				"type": "occ",
				"energy": -0.26522,
				"method": "rhf"
			},
			{
				"type": "occ",
				"energy": -0.26097,
				"method": "rhf"
			},
			{
				"type": "occ",
				"energy": -0.25562,
				"method": "rhf"
			},
			{
				"type": "occ",
				"energy": -0.2427,
				"method": "rhf"
			},
			{
				"type": "unocc",
				"energy": -0.04195,
				"method": "rhf"
			},
			{
				"type": "unocc",
				"energy": -0.01062,
				"method": "rhf"
			},
			{
				"type": "unocc",
				"energy": 0.04268,
				"method": "rhf"
			},
			{
				"type": "unocc",
				"energy": 0.05994,
				"method": "rhf"
			},
			{
				"type": "unocc",
				"energy": 0.09066,
				"method": "rhf"
			}
		],
		"cosmo_sigma_profile": { 
			"-0.025": 0.0,
			"-0.024": 0.0,
			"-0.023": 0.0,
			"-0.022": 0.0,
			"-0.021": 0.0,
			"-0.02": 0.0,
			"-0.019": 0.0,
			"-0.018": 0.0,
			"-0.017": 0.051548813791,
			"-0.016": 0.813505980486,
			"-0.015": 1.02557703888,
			"-0.014": 1.05623430923,
			"-0.013": 1.83391610162,
			"-0.012": 1.89602791903,
			"-0.011": 2.18214834284,
			"-0.01": 1.58505667793,
			"-0.009": 2.09044170896,
			"-0.008": 2.37997597654,
			"-0.007": 7.09758759404,
			"-0.006": 14.6538005936,
			"-0.005": 15.6288312618,
			"-0.004": 19.7838133178,
			"-0.003": 15.880459069,
			"-0.002": 11.6334337575,
			"-0.001": 8.66991205312,
			"0.0": 8.94756156709,
			"0.001": 13.7504660889,
			"0.002": 13.0717071098,
			"0.003": 7.40570280586,
			"0.004": 6.34802167578,
			"0.005": 5.41508203654,
			"0.006": 5.14954880237,
			"0.007": 6.57091426534,
			"0.008": 5.37086817446,
			"0.009": 3.90442643326,
			"0.01": 2.58499800591,
			"0.011": 3.46098566277,
			"0.012": 4.47275322738,
			"0.013": 6.9757905668,
			"0.014": 2.84372052226,
			"0.015": 0.892183092982,
			"0.016": 0.674617441216,
			"0.017": 0.138549778073,
			"0.018": 0.0,
			"0.019": 0.0,
			"0.02": 0.0,
			"0.021": 0.0,
			"0.022": 0.0,
			"0.023": 0.0,
			"0.024": 0.0,
			"0.025": 0.0
		}
	}
}
