{
	 "smiles": "CCCCSC", 
	 "Tm": 175.25, 
	 "num_atms": 18, 
	 "gaussian": { 
		 "optdone": 1, 
		 "sigma_profile": "yes", 
		 "theory": "DFT", 
		 "functional": "B3LYP", 
		 "basiset": "6-31G**", 
		 "properties": { 
			 "R2extent": 1772.5407, 
			 "electric_dipole_moment_norm": 1.81767298764, 
			 "electric_quadrupole_moment_norm": 8.3205440345, 
			 "total_energy": -595.964461754, 
			 "HOMO_LUMO_gap": 0.25975, 
			 "cosmo_polarized_energy": -4.17, 
			 "cosmo_cavitation_energy": 21.39, 
			 "cosmo_dispersion_energy": -15.99, 
			 "cosmo_repulsion_energy": 1.34, 
			 "cosmo_total_nonelectrostatic_energy": 6.74, 
			 "SMD_solvation_energy": 3.51 
		},
		"coords": [
			{
				"x": 0.9707273654,
				"y": -2.771473147,
				"z": -0.1398590793,
				"element": "C" 
			},
			{
				"x": 1.6144558924,
				"y": -2.1430805516,
				"z": -1.3819864416,
				"element": "C" 
			},
			{
				"x": 1.0699258623,
				"y": -0.7513386524,
				"z": -1.7530746388,
				"element": "C" 
			},
			{
				"x": -0.3900981539,
				"y": -0.7659281669,
				"z": -2.2192884397,
				"element": "C" 
			},
			{
				"x": -1.0442431808,
				"y": 0.8564498233,
				"z": -2.7796580448,
				"element": "S" 
			},
			{
				"x": -1.1930238608,
				"y": 1.7386217407,
				"z": -1.1869935887,
				"element": "C" 
			},
			{
				"x": -0.0985411729,
				"y": -2.9603069802,
				"z": -0.2809171332,
				"element": "H" 
			},
			{
				"x": 1.44089359,
				"y": -3.7297862818,
				"z": 0.1037310963,
				"element": "H" 
			},
			{
				"x": 1.079241872,
				"y": -2.1177660999,
				"z": 0.7335550842,
				"element": "H" 
			},
			{
				"x": 1.4944320534,
				"y": -2.8187621053,
				"z": -2.2400004659,
				"element": "H" 
			},
			{
				"x": 2.6956336048,
				"y": -2.0552772688,
				"z": -1.2164892337,
				"element": "H" 
			},
			{
				"x": 1.6838646859,
				"y": -0.3216761438,
				"z": -2.5528749021,
				"element": "H" 
			},
			{
				"x": 1.1759475595,
				"y": -0.0830126259,
				"z": -0.8884842367,
				"element": "H" 
			},
			{
				"x": -0.500247099,
				"y": -1.4188694625,
				"z": -3.092399723,
				"element": "H" 
			},
			{
				"x": -1.0597179854,
				"y": -1.153767316,
				"z": -1.4444483776,
				"element": "H" 
			},
			{
				"x": -0.2202713754,
				"y": 1.9022033511,
				"z": -0.7172433765,
				"element": "H" 
			},
			{
				"x": -1.6402412321,
				"y": 2.7102539495,
				"z": -1.4084959885,
				"element": "H" 
			},
			{
				"x": -1.8501384254,
				"y": 1.1991159374,
				"z": -0.4988725103,
				"element": "H" 
			}
		],
		 "valence_orbital": [ 
			{
				"type": "occ",
				"energy": -0.33954,
				"method": "rhf"
			},
			{
				"type": "occ",
				"energy": -0.33027,
				"method": "rhf"
			},
			{
				"type": "occ",
				"energy": -0.3276,
				"method": "rhf"
			},
			{
				"type": "occ",
				"energy": -0.2978,
				"method": "rhf"
			},
			{
				"type": "occ",
				"energy": -0.21464,
				"method": "rhf"
			},
			{
				"type": "unocc",
				"energy": 0.04511,
				"method": "rhf"
			},
			{
				"type": "unocc",
				"energy": 0.076,
				"method": "rhf"
			},
			{
				"type": "unocc",
				"energy": 0.0948,
				"method": "rhf"
			},
			{
				"type": "unocc",
				"energy": 0.11446,
				"method": "rhf"
			},
			{
				"type": "unocc",
				"energy": 0.11826,
				"method": "rhf"
			}
		],
		"cosmo_sigma_profile": { 
			"-0.025": 0.0,
			"-0.024": 0.0,
			"-0.023": 0.0,
			"-0.022": 0.0,
			"-0.021": 0.0,
			"-0.02": 0.0,
			"-0.019": 0.0,
			"-0.018": 0.0,
			"-0.017": 0.0,
			"-0.016": 0.0,
			"-0.015": 0.0,
			"-0.014": 0.0,
			"-0.013": 0.0,
			"-0.012": 0.0,
			"-0.011": 0.0,
			"-0.01": 0.0,
			"-0.009": 0.0,
			"-0.008": 0.0,
			"-0.007": 0.0,
			"-0.006": 1.15073821689,
			"-0.005": 5.46954972436,
			"-0.004": 13.2094065211,
			"-0.003": 16.6617035204,
			"-0.002": 26.5895823306,
			"-0.001": 29.128465204,
			"0.0": 23.8136613892,
			"0.001": 16.8299987488,
			"0.002": 7.82748633683,
			"0.003": 3.36894168942,
			"0.004": 2.68606655161,
			"0.005": 2.91542748359,
			"0.006": 3.90814425,
			"0.007": 3.48451881097,
			"0.008": 2.59034187576,
			"0.009": 2.28977040436,
			"0.01": 2.5730679949,
			"0.011": 1.99188280175,
			"0.012": 1.04768566359,
			"0.013": 4.78779753537e-05,
			"0.014": 0.0,
			"0.015": 0.0,
			"0.016": 0.0,
			"0.017": 0.0,
			"0.018": 0.0,
			"0.019": 0.0,
			"0.02": 0.0,
			"0.021": 0.0,
			"0.022": 0.0,
			"0.023": 0.0,
			"0.024": 0.0,
			"0.025": 0.0
		}
	}
}
