{
	 "smiles": "O=C(NC1=CC=CC=C1SSC1=CC=CC=C1NC(=O)C1=CC=CC=C1)C1=CC=CC=C1", 
	 "Tm": 414.65, 
	 "num_atms": 52, 
	 "gaussian": { 
		 "optdone": 1, 
		 "sigma_profile": "yes", 
		 "theory": "DFT", 
		 "functional": "B3LYP", 
		 "basiset": "6-31G**", 
		 "properties": { 
			 "R2extent": 14842.8222, 
			 "electric_dipole_moment_norm": 4.25196794085, 
			 "electric_quadrupole_moment_norm": 26.5697469685, 
			 "total_energy": -2059.18613453, 
			 "HOMO_LUMO_gap": 0.14693, 
			 "cosmo_polarized_energy": -18.01, 
			 "cosmo_cavitation_energy": 59.77, 
			 "cosmo_dispersion_energy": -37.36, 
			 "cosmo_repulsion_energy": 2.71, 
			 "cosmo_total_nonelectrostatic_energy": 25.11, 
			 "SMD_solvation_energy": 9.3 
		},
		"coords": [
			{
				"x": -4.6246254704,
				"y": -0.9748721505,
				"z": 1.1448097727,
				"element": "O" 
			},
			{
				"x": -3.6495802802,
				"y": -0.2457054534,
				"z": 0.9934684314,
				"element": "C" 
			},
			{
				"x": -2.5054639851,
				"y": -0.3315079332,
				"z": 1.7632449216,
				"element": "N" 
			},
			{
				"x": -2.2283993813,
				"y": -1.1737275958,
				"z": 2.8458047377,
				"element": "C" 
			},
			{
				"x": -3.1472840752,
				"y": -2.1252101643,
				"z": 3.3253895683,
				"element": "C" 
			},
			{
				"x": -2.817944245,
				"y": -2.9300581295,
				"z": 4.411868333,
				"element": "C" 
			},
			{
				"x": -1.5826569848,
				"y": -2.8137166266,
				"z": 5.0545929157,
				"element": "C" 
			},
			{
				"x": -0.6696852866,
				"y": -1.8706352349,
				"z": 4.5957324094,
				"element": "C" 
			},
			{
				"x": -0.9718398605,
				"y": -1.0538686157,
				"z": 3.4982237267,
				"element": "C" 
			},
			{
				"x": 0.2172754789,
				"y": 0.1826314352,
				"z": 2.9881932222,
				"element": "S" 
			},
			{
				"x": 1.7217340433,
				"y": -0.8699641283,
				"z": 1.8836849207,
				"element": "S" 
			},
			{
				"x": 0.9699561761,
				"y": -1.2823861068,
				"z": 0.3172485543,
				"element": "C" 
			},
			{
				"x": 0.6844855745,
				"y": -2.6334814044,
				"z": 0.0695821368,
				"element": "C" 
			},
			{
				"x": 0.1835274996,
				"y": -3.0454135835,
				"z": -1.1621049623,
				"element": "C" 
			},
			{
				"x": -0.0742328471,
				"y": -2.0889690196,
				"z": -2.1458852991,
				"element": "C" 
			},
			{
				"x": 0.1699247383,
				"y": -0.7390075737,
				"z": -1.9079502824,
				"element": "C" 
			},
			{
				"x": 0.7181176437,
				"y": -0.3146444438,
				"z": -0.6873161252,
				"element": "C" 
			},
			{
				"x": 0.9496759774,
				"y": 1.0439962734,
				"z": -0.4074084116,
				"element": "N" 
			},
			{
				"x": 1.0412614381,
				"y": 2.143184916,
				"z": -1.256899452,
				"element": "C" 
			},
			{
				"x": 0.6583476626,
				"y": 3.2383932946,
				"z": -0.8586133878,
				"element": "O" 
			},
			{
				"x": 1.6940292521,
				"y": 1.9853750714,
				"z": -2.5938745883,
				"element": "C" 
			},
			{
				"x": 2.7284473343,
				"y": 1.0665602177,
				"z": -2.8248467172,
				"element": "C" 
			},
			{
				"x": 3.3638635507,
				"y": 1.0280494832,
				"z": -4.0651011839,
				"element": "C" 
			},
			{
				"x": 2.9658611431,
				"y": 1.8964593718,
				"z": -5.0843330907,
				"element": "C" 
			},
			{
				"x": 1.9416164564,
				"y": 2.8191647374,
				"z": -4.8560999926,
				"element": "C" 
			},
			{
				"x": 1.3174873012,
				"y": 2.8727750444,
				"z": -3.611916808,
				"element": "C" 
			},
			{
				"x": -3.6205195921,
				"y": 0.8081525237,
				"z": -0.080050549,
				"element": "C" 
			},
			{
				"x": -4.6033254672,
				"y": 0.7157206613,
				"z": -1.0765440316,
				"element": "C" 
			},
			{
				"x": -4.6484926919,
				"y": 1.6445596946,
				"z": -2.1128133662,
				"element": "C" 
			},
			{
				"x": -3.7142758726,
				"y": 2.6827437298,
				"z": -2.1648923357,
				"element": "C" 
			},
			{
				"x": -2.7396005147,
				"y": 2.7928419667,
				"z": -1.1714174552,
				"element": "C" 
			},
			{
				"x": -2.6962315077,
				"y": 1.8629482324,
				"z": -0.1321448822,
				"element": "C" 
			},
			{
				"x": -1.7332733771,
				"y": 0.2687427918,
				"z": 1.5081118499,
				"element": "H" 
			},
			{
				"x": -4.1025961539,
				"y": -2.2149744677,
				"z": 2.8290267813,
				"element": "H" 
			},
			{
				"x": -3.5442290753,
				"y": -3.658287578,
				"z": 4.7615762906,
				"element": "H" 
			},
			{
				"x": -1.3381719351,
				"y": -3.4425738054,
				"z": 5.9047489854,
				"element": "H" 
			},
			{
				"x": 0.2938770979,
				"y": -1.7533106832,
				"z": 5.0810701096,
				"element": "H" 
			},
			{
				"x": 0.8714456403,
				"y": -3.3548168298,
				"z": 0.8581717221,
				"element": "H" 
			},
			{
				"x": -0.0226464573,
				"y": -4.095191857,
				"z": -1.343985388,
				"element": "H" 
			},
			{
				"x": -0.4945047307,
				"y": -2.3886383818,
				"z": -3.1013272649,
				"element": "H" 
			},
			{
				"x": -0.0757869461,
				"y": -0.0052742059,
				"z": -2.6657529229,
				"element": "H" 
			},
			{
				"x": 0.7570421436,
				"y": 1.3341801123,
				"z": 0.5444643197,
				"element": "H" 
			},
			{
				"x": 3.0462238766,
				"y": 0.3979471007,
				"z": -2.0320032329,
				"element": "H" 
			},
			{
				"x": 4.1721031874,
				"y": 0.3229183393,
				"z": -4.2348743193,
				"element": "H" 
			},
			{
				"x": 3.4584996551,
				"y": 1.859640994,
				"z": -6.0517590716,
				"element": "H" 
			},
			{
				"x": 1.6373085362,
				"y": 3.5014902207,
				"z": -5.6442669379,
				"element": "H" 
			},
			{
				"x": 0.5399493349,
				"y": 3.6007341322,
				"z": -3.4065076094,
				"element": "H" 
			},
			{
				"x": -5.3209985137,
				"y": -0.0948362724,
				"z": -1.0133912293,
				"element": "H" 
			},
			{
				"x": -5.4120810441,
				"y": 1.5597560381,
				"z": -2.880686308,
				"element": "H" 
			},
			{
				"x": -3.749556985,
				"y": 3.407069119,
				"z": -2.9738294926,
				"element": "H" 
			},
			{
				"x": -2.005764959,
				"y": 3.5918612791,
				"z": -1.1958461429,
				"element": "H" 
			},
			{
				"x": -1.9460925025,
				"y": 2.0017754644,
				"z": 0.6408291318,
				"element": "H" 
			}
		],
		 "valence_orbital": [ 
			{
				"type": "occ",
				"energy": -0.25702,
				"method": "rhf"
			},
			{
				"type": "occ",
				"energy": -0.25255,
				"method": "rhf"
			},
			{
				"type": "occ",
				"energy": -0.24417,
				"method": "rhf"
			},
			{
				"type": "occ",
				"energy": -0.23401,
				"method": "rhf"
			},
			{
				"type": "occ",
				"energy": -0.22341,
				"method": "rhf"
			},
			{
				"type": "unocc",
				"energy": -0.07648,
				"method": "rhf"
			},
			{
				"type": "unocc",
				"energy": -0.05213,
				"method": "rhf"
			},
			{
				"type": "unocc",
				"energy": -0.04505,
				"method": "rhf"
			},
			{
				"type": "unocc",
				"energy": -0.02255,
				"method": "rhf"
			},
			{
				"type": "unocc",
				"energy": -0.01331,
				"method": "rhf"
			}
		],
		"cosmo_sigma_profile": { 
			"-0.025": 0.0,
			"-0.024": 0.0,
			"-0.023": 0.0,
			"-0.022": 0.0,
			"-0.021": 0.0,
			"-0.02": 0.0,
			"-0.019": 0.0,
			"-0.018": 0.0,
			"-0.017": 0.0,
			"-0.016": 0.0,
			"-0.015": 0.0,
			"-0.014": 0.0,
			"-0.013": 0.0,
			"-0.012": 0.0891025869027,
			"-0.011": 0.72423733667,
			"-0.01": 1.11793019606,
			"-0.009": 2.21498982997,
			"-0.008": 2.76620827116,
			"-0.007": 9.46537541779,
			"-0.006": 30.0894626427,
			"-0.005": 36.4337006988,
			"-0.004": 37.9200246923,
			"-0.003": 28.8117664875,
			"-0.002": 32.2708112574,
			"-0.001": 34.9090736359,
			"0.0": 39.829566299,
			"0.001": 43.7703469461,
			"0.002": 42.9340422792,
			"0.003": 51.8952334897,
			"0.004": 44.9313521099,
			"0.005": 11.3713949496,
			"0.006": 7.16824996945,
			"0.007": 4.73249509309,
			"0.008": 2.40548986314,
			"0.009": 3.07595357016,
			"0.01": 3.04009774773,
			"0.011": 4.10832301889,
			"0.012": 5.57315595783,
			"0.013": 3.28903103957,
			"0.014": 0.0892299925042,
			"0.015": 0.0,
			"0.016": 0.0,
			"0.017": 0.0,
			"0.018": 0.0,
			"0.019": 0.0,
			"0.02": 0.0,
			"0.021": 0.0,
			"0.022": 0.0,
			"0.023": 0.0,
			"0.024": 0.0,
			"0.025": 0.0
		}
	}
}
