{
	 "smiles": "CN(CC=CC#CC(C)(C)C)CC1=CC=CC2=C1C=CC=C2", 
	 "Tm": 469.65, 
	 "num_atms": 47, 
	 "gaussian": { 
		 "optdone": 1, 
		 "sigma_profile": "yes", 
		 "theory": "DFT", 
		 "functional": "B3LYP", 
		 "basiset": "6-31G**", 
		 "properties": { 
			 "R2extent": 11557.2116, 
			 "electric_dipole_moment_norm": 1.22792480633, 
			 "electric_quadrupole_moment_norm": 9.93210089105, 
			 "total_energy": -869.985576295, 
			 "HOMO_LUMO_gap": 0.17291, 
			 "cosmo_polarized_energy": -8.67, 
			 "cosmo_cavitation_energy": 49.31, 
			 "cosmo_dispersion_energy": -32.8, 
			 "cosmo_repulsion_energy": 2.56, 
			 "cosmo_total_nonelectrostatic_energy": 19.08, 
			 "SMD_solvation_energy": 7.69 
		},
		"coords": [
			{
				"x": -0.6262903733,
				"y": -2.6762784103,
				"z": -1.2074707712,
				"element": "C" 
			},
			{
				"x": -0.2369051174,
				"y": -1.2738949703,
				"z": -1.10584414,
				"element": "N" 
			},
			{
				"x": -1.360170758,
				"y": -0.4608988093,
				"z": -0.6148598881,
				"element": "C" 
			},
			{
				"x": -0.9947062836,
				"y": 0.9520119771,
				"z": -0.2574360461,
				"element": "C" 
			},
			{
				"x": -1.2667108339,
				"y": 1.5424788753,
				"z": 0.921296141,
				"element": "C" 
			},
			{
				"x": -1.9089117795,
				"y": 0.9244878489,
				"z": 2.0325296483,
				"element": "C" 
			},
			{
				"x": -2.4543177581,
				"y": 0.4421781627,
				"z": 3.0052091526,
				"element": "C" 
			},
			{
				"x": -3.1128743458,
				"y": -0.1507403438,
				"z": 4.1821641841,
				"element": "C" 
			},
			{
				"x": -4.3216808772,
				"y": -0.9999993912,
				"z": 3.7222387703,
				"element": "C" 
			},
			{
				"x": -2.1032315074,
				"y": -1.05089457,
				"z": 4.9344792423,
				"element": "C" 
			},
			{
				"x": -3.5992504964,
				"y": 0.9791831523,
				"z": 5.1202565245,
				"element": "C" 
			},
			{
				"x": 0.3526860379,
				"y": -0.7637541813,
				"z": -2.3480889161,
				"element": "C" 
			},
			{
				"x": 1.6201709184,
				"y": 0.0625026678,
				"z": -2.160128975,
				"element": "C" 
			},
			{
				"x": 2.2402841491,
				"y": 0.1310097213,
				"z": -0.9301698911,
				"element": "C" 
			},
			{
				"x": 3.4303353725,
				"y": 0.8745734346,
				"z": -0.7437638172,
				"element": "C" 
			},
			{
				"x": 4.0019398653,
				"y": 1.5473709688,
				"z": -1.7964321211,
				"element": "C" 
			},
			{
				"x": 3.4074993184,
				"y": 1.5003419196,
				"z": -3.0865803162,
				"element": "C" 
			},
			{
				"x": 2.2007670531,
				"y": 0.746281041,
				"z": -3.2801463377,
				"element": "C" 
			},
			{
				"x": 1.6402789701,
				"y": 0.7085644852,
				"z": -4.5882378775,
				"element": "C" 
			},
			{
				"x": 2.2283218107,
				"y": 1.3785566953,
				"z": -5.6396527142,
				"element": "C" 
			},
			{
				"x": 3.4126938638,
				"y": 2.1252476164,
				"z": -5.4416618571,
				"element": "C" 
			},
			{
				"x": 3.9855874889,
				"y": 2.1812171521,
				"z": -4.191269183,
				"element": "C" 
			},
			{
				"x": 0.2378822087,
				"y": -3.2798354265,
				"z": -1.5002130865,
				"element": "H" 
			},
			{
				"x": -0.9681261682,
				"y": -3.0336720769,
				"z": -0.2308509728,
				"element": "H" 
			},
			{
				"x": -1.4383748286,
				"y": -2.8614475451,
				"z": -1.9369670007,
				"element": "H" 
			},
			{
				"x": -2.1753094337,
				"y": -0.4315978168,
				"z": -1.3707873308,
				"element": "H" 
			},
			{
				"x": -1.7713633114,
				"y": -0.9520728332,
				"z": 0.2719803748,
				"element": "H" 
			},
			{
				"x": -0.5022568956,
				"y": 1.5493380166,
				"z": -1.0199812456,
				"element": "H" 
			},
			{
				"x": -0.9833465349,
				"y": 2.5858486991,
				"z": 1.0553446634,
				"element": "H" 
			},
			{
				"x": -4.0019220497,
				"y": -1.807660333,
				"z": 3.0569497178,
				"element": "H" 
			},
			{
				"x": -5.0500693546,
				"y": -0.3853514353,
				"z": 3.1851220399,
				"element": "H" 
			},
			{
				"x": -4.820206606,
				"y": -1.4462181613,
				"z": 4.5899965672,
				"element": "H" 
			},
			{
				"x": -1.7423375138,
				"y": -1.8577288138,
				"z": 4.2897832949,
				"element": "H" 
			},
			{
				"x": -1.237931772,
				"y": -0.4720231492,
				"z": 5.2703744134,
				"element": "H" 
			},
			{
				"x": -2.5810633545,
				"y": -1.4987630524,
				"z": 5.8130464955,
				"element": "H" 
			},
			{
				"x": -4.3148998227,
				"y": 1.6305301169,
				"z": 4.609868067,
				"element": "H" 
			},
			{
				"x": -4.0902045912,
				"y": 0.5514314124,
				"z": 6.0014731757,
				"element": "H" 
			},
			{
				"x": -2.7605505381,
				"y": 1.5947997178,
				"z": 5.4585815717,
				"element": "H" 
			},
			{
				"x": 0.5982754071,
				"y": -1.6174822987,
				"z": -2.9931962814,
				"element": "H" 
			},
			{
				"x": -0.3908358927,
				"y": -0.1788889716,
				"z": -2.9174134813,
				"element": "H" 
			},
			{
				"x": 1.7858965392,
				"y": -0.3979840591,
				"z": -0.0997744939,
				"element": "H" 
			},
			{
				"x": 3.8874306084,
				"y": 0.9090838924,
				"z": 0.2412775756,
				"element": "H" 
			},
			{
				"x": 4.9150243313,
				"y": 2.1215273302,
				"z": -1.6609733575,
				"element": "H" 
			},
			{
				"x": 0.7344482505,
				"y": 0.1394280977,
				"z": -4.7680472106,
				"element": "H" 
			},
			{
				"x": 1.7798994144,
				"y": 1.3327566153,
				"z": -6.6281283967,
				"element": "H" 
			},
			{
				"x": 3.8671939749,
				"y": 2.6505071983,
				"z": -6.2767629498,
				"element": "H" 
			},
			{
				"x": 4.8980332154,
				"y": 2.7499298339,
				"z": -4.0294329607,
				"element": "H" 
			}
		],
		 "valence_orbital": [ 
			{
				"type": "occ",
				"energy": -0.24982,
				"method": "rhf"
			},
			{
				"type": "occ",
				"energy": -0.23601,
				"method": "rhf"
			},
			{
				"type": "occ",
				"energy": -0.22124,
				"method": "rhf"
			},
			{
				"type": "occ",
				"energy": -0.21208,
				"method": "rhf"
			},
			{
				"type": "occ",
				"energy": -0.20559,
				"method": "rhf"
			},
			{
				"type": "unocc",
				"energy": -0.03268,
				"method": "rhf"
			},
			{
				"type": "unocc",
				"energy": -0.01462,
				"method": "rhf"
			},
			{
				"type": "unocc",
				"energy": -0.00038,
				"method": "rhf"
			},
			{
				"type": "unocc",
				"energy": 0.0406,
				"method": "rhf"
			},
			{
				"type": "unocc",
				"energy": 0.05597,
				"method": "rhf"
			}
		],
		"cosmo_sigma_profile": { 
			"-0.025": 0.0,
			"-0.024": 0.0,
			"-0.023": 0.0,
			"-0.022": 0.0,
			"-0.021": 0.0,
			"-0.02": 0.0,
			"-0.019": 0.0,
			"-0.018": 0.0,
			"-0.017": 0.0,
			"-0.016": 0.0,
			"-0.015": 0.0,
			"-0.014": 0.0,
			"-0.013": 0.0,
			"-0.012": 0.0,
			"-0.011": 0.0,
			"-0.01": 0.0,
			"-0.009": 0.0,
			"-0.008": 0.0,
			"-0.007": 0.23603742895,
			"-0.006": 5.91983513321,
			"-0.005": 20.4110257623,
			"-0.004": 31.235017925,
			"-0.003": 48.6002689218,
			"-0.002": 45.3103094917,
			"-0.001": 44.5389981473,
			"0.0": 38.9794816402,
			"0.001": 33.81219423,
			"0.002": 18.2175415718,
			"0.003": 19.8782884595,
			"0.004": 26.085717979,
			"0.005": 31.4165436381,
			"0.006": 16.9610416042,
			"0.007": 4.66211244318,
			"0.008": 1.1765533951,
			"0.009": 0.631625483599,
			"0.01": 0.455240946082,
			"0.011": 0.0,
			"0.012": 0.0,
			"0.013": 0.0,
			"0.014": 0.0,
			"0.015": 0.0,
			"0.016": 0.0,
			"0.017": 0.0,
			"0.018": 0.0,
			"0.019": 0.0,
			"0.02": 0.0,
			"0.021": 0.0,
			"0.022": 0.0,
			"0.023": 0.0,
			"0.024": 0.0,
			"0.025": 0.0
		}
	}
}
