{
	 "smiles": "CC(C)NS(=O)(=O)C1=C(F)C=CC(=C1)C(O)=O", 
	 "Tm": 442.15, 
	 "num_atms": 29, 
	 "gaussian": { 
		 "optdone": 1, 
		 "sigma_profile": "yes", 
		 "theory": "DFT", 
		 "functional": "B3LYP", 
		 "basiset": "6-31G**", 
		 "properties": { 
			 "R2extent": 5867.2333, 
			 "electric_dipole_moment_norm": 4.4120061582, 
			 "electric_quadrupole_moment_norm": 17.7816889949, 
			 "total_energy": -1241.90970138, 
			 "HOMO_LUMO_gap": 0.20389, 
			 "cosmo_polarized_energy": -20.67, 
			 "cosmo_cavitation_energy": 34.74, 
			 "cosmo_dispersion_energy": -24.77, 
			 "cosmo_repulsion_energy": 1.86, 
			 "cosmo_total_nonelectrostatic_energy": 11.83, 
			 "SMD_solvation_energy": 6.65 
		},
		"coords": [
			{
				"x": 2.7765666551,
				"y": 1.6958970509,
				"z": -3.0700608382,
				"element": "C" 
			},
			{
				"x": 1.824434404,
				"y": 0.7128403567,
				"z": -2.3809644421,
				"element": "C" 
			},
			{
				"x": 0.9559918853,
				"y": -0.0655922402,
				"z": -3.3732091454,
				"element": "C" 
			},
			{
				"x": 0.9241752849,
				"y": 1.3915930467,
				"z": -1.4149230388,
				"element": "N" 
			},
			{
				"x": 1.4300811585,
				"y": 1.7369673687,
				"z": 0.1398084343,
				"element": "S" 
			},
			{
				"x": 2.8202059507,
				"y": 1.3118091491,
				"z": 0.3085084374,
				"element": "O" 
			},
			{
				"x": 0.997054747,
				"y": 3.1054663396,
				"z": 0.4463448817,
				"element": "O" 
			},
			{
				"x": 0.4114414835,
				"y": 0.6645084351,
				"z": 1.16561986,
				"element": "C" 
			},
			{
				"x": 0.4071676337,
				"y": -0.7211695319,
				"z": 1.0041686888,
				"element": "C" 
			},
			{
				"x": 1.1429626878,
				"y": -1.2777656954,
				"z": 0.0283983034,
				"element": "F" 
			},
			{
				"x": -0.3629260804,
				"y": -1.5442456007,
				"z": 1.8180672338,
				"element": "C" 
			},
			{
				"x": -1.1349189848,
				"y": -0.9672651359,
				"z": 2.8208268423,
				"element": "C" 
			},
			{
				"x": -1.1324329392,
				"y": 0.4213235611,
				"z": 3.0184447971,
				"element": "C" 
			},
			{
				"x": -0.3631881455,
				"y": 1.2321853356,
				"z": 2.1756478145,
				"element": "C" 
			},
			{
				"x": -2.0030916773,
				"y": 0.9658025684,
				"z": 4.113477142,
				"element": "C" 
			},
			{
				"x": -1.7525307896,
				"y": 2.2306288894,
				"z": 4.5340877164,
				"element": "O" 
			},
			{
				"x": -2.8965600786,
				"y": 0.3248169014,
				"z": 4.6147148772,
				"element": "O" 
			},
			{
				"x": 3.4285302631,
				"y": 1.1678735565,
				"z": -3.7736443814,
				"element": "H" 
			},
			{
				"x": 3.4062492945,
				"y": 2.2037038539,
				"z": -2.3352598203,
				"element": "H" 
			},
			{
				"x": 2.2185070724,
				"y": 2.4518136334,
				"z": -3.6360195621,
				"element": "H" 
			},
			{
				"x": 2.4108440569,
				"y": 0.004606885,
				"z": -1.7917708505,
				"element": "H" 
			},
			{
				"x": 0.3220206279,
				"y": -0.7838194743,
				"z": -2.8473824528,
				"element": "H" 
			},
			{
				"x": 0.31052696,
				"y": 0.6080546352,
				"z": -3.9490166297,
				"element": "H" 
			},
			{
				"x": 1.5869935516,
				"y": -0.6087597969,
				"z": -4.083561814,
				"element": "H" 
			},
			{
				"x": 0.4273327896,
				"y": 2.1984504101,
				"z": -1.7840703581,
				"element": "H" 
			},
			{
				"x": -0.3468111974,
				"y": -2.6157342204,
				"z": 1.6519044839,
				"element": "H" 
			},
			{
				"x": -1.7559569042,
				"y": -1.5781103596,
				"z": 3.4665306664,
				"element": "H" 
			},
			{
				"x": -0.3646966741,
				"y": 2.315929951,
				"z": 2.2453808092,
				"element": "H" 
			},
			{
				"x": -0.9232730354,
				"y": 2.5628901278,
				"z": 4.1635523451,
				"element": "H" 
			}
		],
		 "valence_orbital": [ 
			{
				"type": "occ",
				"energy": -0.31808,
				"method": "rhf"
			},
			{
				"type": "occ",
				"energy": -0.30045,
				"method": "rhf"
			},
			{
				"type": "occ",
				"energy": -0.2884,
				"method": "rhf"
			},
			{
				"type": "occ",
				"energy": -0.2832,
				"method": "rhf"
			},
			{
				"type": "occ",
				"energy": -0.27084,
				"method": "rhf"
			},
			{
				"type": "unocc",
				"energy": -0.06695,
				"method": "rhf"
			},
			{
				"type": "unocc",
				"energy": -0.0548,
				"method": "rhf"
			},
			{
				"type": "unocc",
				"energy": 0.02753,
				"method": "rhf"
			},
			{
				"type": "unocc",
				"energy": 0.03317,
				"method": "rhf"
			},
			{
				"type": "unocc",
				"energy": 0.05177,
				"method": "rhf"
			}
		],
		"cosmo_sigma_profile": { 
			"-0.025": 0.0,
			"-0.024": 0.0,
			"-0.023": 0.0,
			"-0.022": 0.0,
			"-0.021": 0.0,
			"-0.02": 0.525331691584,
			"-0.019": 0.72598441674,
			"-0.018": 1.20802383487,
			"-0.017": 0.93094015102,
			"-0.016": 0.321644564143,
			"-0.015": 1.09592663968,
			"-0.014": 2.08318392552,
			"-0.013": 2.24169735367,
			"-0.012": 2.11102693368,
			"-0.011": 1.91979110267,
			"-0.01": 1.79964384903,
			"-0.009": 3.81911440241,
			"-0.008": 5.54719095622,
			"-0.007": 7.64563003338,
			"-0.006": 6.41132346448,
			"-0.005": 7.59380650238,
			"-0.004": 17.8616945716,
			"-0.003": 21.8443895562,
			"-0.002": 26.5620255975,
			"-0.001": 27.983131767,
			"0.0": 32.3762242873,
			"0.001": 17.1131467421,
			"0.002": 9.95744574016,
			"0.003": 9.53048850264,
			"0.004": 6.13797408675,
			"0.005": 6.1011979894,
			"0.006": 4.97224230821,
			"0.007": 5.69826968573,
			"0.008": 5.86856066251,
			"0.009": 8.32413371697,
			"0.01": 14.0539824681,
			"0.011": 10.9661921853,
			"0.012": 3.8473044601,
			"0.013": 0.691467394943,
			"0.014": 0.0,
			"0.015": 0.0,
			"0.016": 0.0,
			"0.017": 0.0,
			"0.018": 0.0,
			"0.019": 0.0,
			"0.02": 0.0,
			"0.021": 0.0,
			"0.022": 0.0,
			"0.023": 0.0,
			"0.024": 0.0,
			"0.025": 0.0
		}
	}
}
