{
	 "smiles": "ON=C1CCCC2=C1N=C(N2O)C1=CC=CC=C1", 
	 "Tm": 544.15, 
	 "num_atms": 31, 
	 "gaussian": { 
		 "optdone": 1, 
		 "sigma_profile": "yes", 
		 "theory": "DFT", 
		 "functional": "B3LYP", 
		 "basiset": "6-31G**", 
		 "properties": { 
			 "R2extent": 5552.7436, 
			 "electric_dipole_moment_norm": 7.21814376554, 
			 "electric_quadrupole_moment_norm": 27.1150220114, 
			 "total_energy": -817.817702635, 
			 "HOMO_LUMO_gap": 0.16055, 
			 "cosmo_polarized_energy": -20.24, 
			 "cosmo_cavitation_energy": 34.12, 
			 "cosmo_dispersion_energy": -25.2, 
			 "cosmo_repulsion_energy": 1.93, 
			 "cosmo_total_nonelectrostatic_energy": 10.85, 
			 "SMD_solvation_energy": 5.09 
		},
		"coords": [
			{
				"x": -0.1636785873,
				"y": 4.3112811145,
				"z": -0.3208122561,
				"element": "O" 
			},
			{
				"x": -0.6737837636,
				"y": 3.9234234044,
				"z": -1.5436494857,
				"element": "N" 
			},
			{
				"x": -0.8742078759,
				"y": 2.6630512448,
				"z": -1.7354324962,
				"element": "C" 
			},
			{
				"x": -1.390898788,
				"y": 2.2211787985,
				"z": -3.0944823935,
				"element": "C" 
			},
			{
				"x": -2.3718931912,
				"y": 1.0330200692,
				"z": -2.9968516061,
				"element": "C" 
			},
			{
				"x": -1.7456611888,
				"y": -0.1995088691,
				"z": -2.3016100613,
				"element": "C" 
			},
			{
				"x": -1.0455063585,
				"y": 0.2785612384,
				"z": -1.0752622631,
				"element": "C" 
			},
			{
				"x": -0.6552900645,
				"y": 1.5712954238,
				"z": -0.7972777987,
				"element": "C" 
			},
			{
				"x": -0.0849570159,
				"y": 1.6521154468,
				"z": 0.4557997229,
				"element": "N" 
			},
			{
				"x": -0.109697313,
				"y": 0.4303354811,
				"z": 0.9730868947,
				"element": "C" 
			},
			{
				"x": -0.6837975433,
				"y": -0.4249825722,
				"z": 0.0469811187,
				"element": "N" 
			},
			{
				"x": -0.9327395123,
				"y": -1.7769330388,
				"z": 0.2014904197,
				"element": "O" 
			},
			{
				"x": 0.4226032465,
				"y": 0.0575857471,
				"z": 2.2874591739,
				"element": "C" 
			},
			{
				"x": 0.0595773866,
				"y": -1.1221745467,
				"z": 2.9619928411,
				"element": "C" 
			},
			{
				"x": 0.5966982365,
				"y": -1.4054244173,
				"z": 4.217549582,
				"element": "C" 
			},
			{
				"x": 1.4944389191,
				"y": -0.5236522689,
				"z": 4.8202470714,
				"element": "C" 
			},
			{
				"x": 1.8523785781,
				"y": 0.6546700223,
				"z": 4.1590878234,
				"element": "C" 
			},
			{
				"x": 1.3245429018,
				"y": 0.944294859,
				"z": 2.9051604564,
				"element": "C" 
			},
			{
				"x": -0.0138187499,
				"y": 3.5176531524,
				"z": 0.2407962343,
				"element": "H" 
			},
			{
				"x": -1.8632276435,
				"y": 3.0760715587,
				"z": -3.5849872153,
				"element": "H" 
			},
			{
				"x": -0.5370387721,
				"y": 1.9251875335,
				"z": -3.7220490307,
				"element": "H" 
			},
			{
				"x": -2.713509127,
				"y": 0.7518247196,
				"z": -3.9982212995,
				"element": "H" 
			},
			{
				"x": -3.2572810653,
				"y": 1.3437604084,
				"z": -2.4299468646,
				"element": "H" 
			},
			{
				"x": -2.5122555679,
				"y": -0.9415957444,
				"z": -2.0521096811,
				"element": "H" 
			},
			{
				"x": -1.0389501666,
				"y": -0.697748378,
				"z": -2.9818107609,
				"element": "H" 
			},
			{
				"x": -0.0954041417,
				"y": -2.2213328943,
				"z": -0.0151008399,
				"element": "H" 
			},
			{
				"x": -0.6546024717,
				"y": -1.8033693661,
				"z": 2.5162909713,
				"element": "H" 
			},
			{
				"x": 0.3029825268,
				"y": -2.3174454284,
				"z": 4.729270039,
				"element": "H" 
			},
			{
				"x": 1.9092841197,
				"y": -0.7494774983,
				"z": 5.7981760063,
				"element": "H" 
			},
			{
				"x": 2.5481961099,
				"y": 1.3490327137,
				"z": 4.6208833946,
				"element": "H" 
			},
			{
				"x": 1.599496883,
				"y": 1.8555020863,
				"z": 2.3857323031,
				"element": "H" 
			}
		],
		 "valence_orbital": [ 
			{
				"type": "occ",
				"energy": -0.28878,
				"method": "rhf"
			},
			{
				"type": "occ",
				"energy": -0.26057,
				"method": "rhf"
			},
			{
				"type": "occ",
				"energy": -0.24734,
				"method": "rhf"
			},
			{
				"type": "occ",
				"energy": -0.2429,
				"method": "rhf"
			},
			{
				"type": "occ",
				"energy": -0.20278,
				"method": "rhf"
			},
			{
				"type": "unocc",
				"energy": -0.04223,
				"method": "rhf"
			},
			{
				"type": "unocc",
				"energy": -0.01289,
				"method": "rhf"
			},
			{
				"type": "unocc",
				"energy": -0.00965,
				"method": "rhf"
			},
			{
				"type": "unocc",
				"energy": 0.02518,
				"method": "rhf"
			},
			{
				"type": "unocc",
				"energy": 0.04772,
				"method": "rhf"
			}
		],
		"cosmo_sigma_profile": { 
			"-0.025": 0.0,
			"-0.024": 0.0,
			"-0.023": 0.0,
			"-0.022": 0.0,
			"-0.021": 0.0,
			"-0.02": 0.389176984029,
			"-0.019": 1.28364319585,
			"-0.018": 0.883876346291,
			"-0.017": 1.08641440298,
			"-0.016": 1.11383425761,
			"-0.015": 0.824381507685,
			"-0.014": 0.894333559166,
			"-0.013": 1.15089603815,
			"-0.012": 1.11317563275,
			"-0.011": 0.673835777623,
			"-0.01": 0.944557070384,
			"-0.009": 0.631706163621,
			"-0.008": 1.13199672326,
			"-0.007": 1.80419391277,
			"-0.006": 7.32896207929,
			"-0.005": 16.2337732707,
			"-0.004": 27.528267452,
			"-0.003": 27.6394697763,
			"-0.002": 26.1873615381,
			"-0.001": 22.1863201086,
			"0.0": 17.9006338363,
			"0.001": 16.8447992959,
			"0.002": 15.886928962,
			"0.003": 15.794889117,
			"0.004": 16.2466706246,
			"0.005": 13.9250615725,
			"0.006": 5.53161931183,
			"0.007": 3.72100218354,
			"0.008": 2.75765357305,
			"0.009": 2.42048780856,
			"0.01": 2.14243573206,
			"0.011": 3.16732529416,
			"0.012": 4.02212046003,
			"0.013": 6.3739038862,
			"0.014": 1.90571494362,
			"0.015": 1.06139469066,
			"0.016": 0.712724568796,
			"0.017": 0.0136607040755,
			"0.018": 0.0,
			"0.019": 0.0,
			"0.02": 0.0,
			"0.021": 0.0,
			"0.022": 0.0,
			"0.023": 0.0,
			"0.024": 0.0,
			"0.025": 0.0
		}
	}
}
