{
	 "smiles": "FC(F)OC1=C2N=CC=CC2=CC=C1", 
	 "Tm": 338.15, 
	 "num_atms": 21, 
	 "gaussian": { 
		 "optdone": 1, 
		 "sigma_profile": "yes", 
		 "theory": "DFT", 
		 "functional": "B3LYP", 
		 "basiset": "6-31G**", 
		 "properties": { 
			 "R2extent": 3094.7586, 
			 "electric_dipole_moment_norm": 4.39600003071, 
			 "electric_quadrupole_moment_norm": 10.9291271609, 
			 "total_energy": -714.933065588, 
			 "HOMO_LUMO_gap": 0.17112, 
			 "cosmo_polarized_energy": -7.75, 
			 "cosmo_cavitation_energy": 26.25, 
			 "cosmo_dispersion_energy": -19.11, 
			 "cosmo_repulsion_energy": 1.45, 
			 "cosmo_total_nonelectrostatic_energy": 8.6, 
			 "SMD_solvation_energy": 4.95 
		},
		"coords": [
			{
				"x": -0.9167861208,
				"y": 2.5231696043,
				"z": -3.7098313383,
				"element": "F" 
			},
			{
				"x": -0.6007042604,
				"y": 1.5627693481,
				"z": -2.8211028746,
				"element": "C" 
			},
			{
				"x": 0.6294412296,
				"y": 1.0743619906,
				"z": -3.1490339306,
				"element": "F" 
			},
			{
				"x": -0.5398657692,
				"y": 2.1952351762,
				"z": -1.5912390122,
				"element": "O" 
			},
			{
				"x": -0.2467277659,
				"y": 1.4362877476,
				"z": -0.4738354995,
				"element": "C" 
			},
			{
				"x": -1.0970784648,
				"y": 0.3701621068,
				"z": -0.0451896745,
				"element": "C" 
			},
			{
				"x": -2.179677022,
				"y": 0.0325020589,
				"z": -0.8017524775,
				"element": "N" 
			},
			{
				"x": -2.9508018075,
				"y": -0.9494987395,
				"z": -0.3782856161,
				"element": "C" 
			},
			{
				"x": -2.7231488363,
				"y": -1.6773560307,
				"z": 0.815040543,
				"element": "C" 
			},
			{
				"x": -1.6334527033,
				"y": -1.3511419886,
				"z": 1.5867434229,
				"element": "C" 
			},
			{
				"x": -0.7715525735,
				"y": -0.3005306216,
				"z": 1.1787983439,
				"element": "C" 
			},
			{
				"x": 0.3627547369,
				"y": 0.1023713638,
				"z": 1.9300949696,
				"element": "C" 
			},
			{
				"x": 1.1514106763,
				"y": 1.1385477363,
				"z": 1.4851539316,
				"element": "C" 
			},
			{
				"x": 0.8464628506,
				"y": 1.8066844879,
				"z": 0.2770252219,
				"element": "C" 
			},
			{
				"x": -1.330463105,
				"y": 0.7530069218,
				"z": -2.8520692205,
				"element": "H" 
			},
			{
				"x": -3.8075136464,
				"y": -1.194829912,
				"z": -1.0044910254,
				"element": "H" 
			},
			{
				"x": -3.401905758,
				"y": -2.4743831729,
				"z": 1.1007457363,
				"element": "H" 
			},
			{
				"x": -1.4193017707,
				"y": -1.8842516996,
				"z": 2.5095123687,
				"element": "H" 
			},
			{
				"x": 0.5928962223,
				"y": -0.4151280282,
				"z": 2.8571819053,
				"element": "H" 
			},
			{
				"x": 2.0191805405,
				"y": 1.4511549125,
				"z": 2.0577500406,
				"element": "H" 
			},
			{
				"x": 1.4628333476,
				"y": 2.6248667385,
				"z": -0.0791158146,
				"element": "H" 
			}
		],
		 "valence_orbital": [ 
			{
				"type": "occ",
				"energy": -0.32426,
				"method": "rhf"
			},
			{
				"type": "occ",
				"energy": -0.30276,
				"method": "rhf"
			},
			{
				"type": "occ",
				"energy": -0.26764,
				"method": "rhf"
			},
			{
				"type": "occ",
				"energy": -0.2635,
				"method": "rhf"
			},
			{
				"type": "occ",
				"energy": -0.23492,
				"method": "rhf"
			},
			{
				"type": "unocc",
				"energy": -0.0638,
				"method": "rhf"
			},
			{
				"type": "unocc",
				"energy": -0.02804,
				"method": "rhf"
			},
			{
				"type": "unocc",
				"energy": 0.01231,
				"method": "rhf"
			},
			{
				"type": "unocc",
				"energy": 0.07898,
				"method": "rhf"
			},
			{
				"type": "unocc",
				"energy": 0.08599,
				"method": "rhf"
			}
		],
		"cosmo_sigma_profile": { 
			"-0.025": 0.0,
			"-0.024": 0.0,
			"-0.023": 0.0,
			"-0.022": 0.0,
			"-0.021": 0.0,
			"-0.02": 0.0,
			"-0.019": 0.0,
			"-0.018": 0.0,
			"-0.017": 0.0,
			"-0.016": 0.0,
			"-0.015": 0.0,
			"-0.014": 0.0,
			"-0.013": 0.0,
			"-0.012": 0.0,
			"-0.011": 0.0,
			"-0.01": 0.0,
			"-0.009": 0.0634413239742,
			"-0.008": 2.28566926402,
			"-0.007": 12.4631832687,
			"-0.006": 14.3629843611,
			"-0.005": 13.8184887628,
			"-0.004": 10.7583904783,
			"-0.003": 9.56087448618,
			"-0.002": 9.77002114064,
			"-0.001": 10.3623375734,
			"0.0": 13.8894422004,
			"0.001": 22.5321281435,
			"0.002": 24.6237586341,
			"0.003": 23.9364426611,
			"0.004": 25.917269889,
			"0.005": 5.54115604328,
			"0.006": 3.13840927752,
			"0.007": 3.51385493552,
			"0.008": 2.44485484263,
			"0.009": 1.49124703331,
			"0.01": 0.727813216576,
			"0.011": 0.466146040995,
			"0.012": 0.0,
			"0.013": 0.0,
			"0.014": 0.0,
			"0.015": 0.0,
			"0.016": 0.0,
			"0.017": 0.0,
			"0.018": 0.0,
			"0.019": 0.0,
			"0.02": 0.0,
			"0.021": 0.0,
			"0.022": 0.0,
			"0.023": 0.0,
			"0.024": 0.0,
			"0.025": 0.0
		}
	}
}
