{
	 "smiles": "OC(=O)C1=NOC(=N1)C1=CC(F)=CC=C1", 
	 "Tm": 394.15, 
	 "num_atms": 20, 
	 "gaussian": { 
		 "optdone": 1, 
		 "sigma_profile": "yes", 
		 "theory": "DFT", 
		 "functional": "B3LYP", 
		 "basiset": "6-31G**", 
		 "properties": { 
			 "R2extent": 4402.12, 
			 "electric_dipole_moment_norm": 6.83818047875, 
			 "electric_quadrupole_moment_norm": 16.5109376278, 
			 "total_energy": -780.943985767, 
			 "HOMO_LUMO_gap": 0.18187, 
			 "cosmo_polarized_energy": -13.73, 
			 "cosmo_cavitation_energy": 27.15, 
			 "cosmo_dispersion_energy": -19.93, 
			 "cosmo_repulsion_energy": 1.52, 
			 "cosmo_total_nonelectrostatic_energy": 8.73, 
			 "SMD_solvation_energy": 5.31 
		},
		"coords": [
			{
				"x": 4.0094363392,
				"y": 1.1843070238,
				"z": 1.7499883933,
				"element": "O" 
			},
			{
				"x": 2.8695972679,
				"y": 1.1723332638,
				"z": 2.4671686095,
				"element": "C" 
			},
			{
				"x": 2.8356838003,
				"y": 1.3114356634,
				"z": 3.6614460666,
				"element": "O" 
			},
			{
				"x": 1.6521017364,
				"y": 0.9665030915,
				"z": 1.6095075133,
				"element": "C" 
			},
			{
				"x": 0.4311748897,
				"y": 0.9186702746,
				"z": 2.0822478098,
				"element": "N" 
			},
			{
				"x": -0.3344806091,
				"y": 0.7164932388,
				"z": 0.9306590307,
				"element": "O" 
			},
			{
				"x": 0.5119014282,
				"y": 0.6638039626,
				"z": -0.1186409145,
				"element": "C" 
			},
			{
				"x": 1.7589608678,
				"y": 0.8137305876,
				"z": 0.24886066,
				"element": "N" 
			},
			{
				"x": -0.0276750496,
				"y": 0.4586516743,
				"z": -1.458249992,
				"element": "C" 
			},
			{
				"x": -1.4107487259,
				"y": 0.3187228832,
				"z": -1.6509694406,
				"element": "C" 
			},
			{
				"x": -1.8783294256,
				"y": 0.1255767076,
				"z": -2.9426069461,
				"element": "C" 
			},
			{
				"x": -3.2021765049,
				"y": -0.0097097822,
				"z": -3.1384450972,
				"element": "F" 
			},
			{
				"x": -1.0254662609,
				"y": 0.0670858285,
				"z": -4.0413171353,
				"element": "C" 
			},
			{
				"x": 0.3479773014,
				"y": 0.2079891967,
				"z": -3.8331654098,
				"element": "C" 
			},
			{
				"x": 0.8531180575,
				"y": 0.4032865398,
				"z": -2.5501517397,
				"element": "C" 
			},
			{
				"x": 3.7899683534,
				"y": 1.0538179302,
				"z": 0.8097422846,
				"element": "H" 
			},
			{
				"x": -2.1073808104,
				"y": 0.3584221638,
				"z": -0.8220401262,
				"element": "H" 
			},
			{
				"x": -1.4414300181,
				"y": -0.0857667396,
				"z": -5.0311238191,
				"element": "H" 
			},
			{
				"x": 1.025516996,
				"y": 0.1646136592,
				"z": -4.6797492943,
				"element": "H" 
			},
			{
				"x": 1.9179503669,
				"y": 0.5135328324,
				"z": -2.3805604529,
				"element": "H" 
			}
		],
		 "valence_orbital": [ 
			{
				"type": "occ",
				"energy": -0.33454,
				"method": "rhf"
			},
			{
				"type": "occ",
				"energy": -0.32359,
				"method": "rhf"
			},
			{
				"type": "occ",
				"energy": -0.2894,
				"method": "rhf"
			},
			{
				"type": "occ",
				"energy": -0.28479,
				"method": "rhf"
			},
			{
				"type": "occ",
				"energy": -0.27269,
				"method": "rhf"
			},
			{
				"type": "unocc",
				"energy": -0.09082,
				"method": "rhf"
			},
			{
				"type": "unocc",
				"energy": -0.05833,
				"method": "rhf"
			},
			{
				"type": "unocc",
				"energy": -0.03258,
				"method": "rhf"
			},
			{
				"type": "unocc",
				"energy": 0.02274,
				"method": "rhf"
			},
			{
				"type": "unocc",
				"energy": 0.056,
				"method": "rhf"
			}
		],
		"cosmo_sigma_profile": { 
			"-0.025": 0.0,
			"-0.024": 0.0,
			"-0.023": 0.0,
			"-0.022": 0.0,
			"-0.021": 0.0,
			"-0.02": 0.0,
			"-0.019": 0.0,
			"-0.018": 0.0,
			"-0.017": 0.0,
			"-0.016": 0.197827003871,
			"-0.015": 0.72734318942,
			"-0.014": 0.489400650346,
			"-0.013": 0.754803023507,
			"-0.012": 0.396536286816,
			"-0.011": 0.967500245573,
			"-0.01": 0.749527784873,
			"-0.009": 1.85030664367,
			"-0.008": 6.80580218899,
			"-0.007": 10.179304089,
			"-0.006": 14.1251650802,
			"-0.005": 11.694816587,
			"-0.004": 11.9983762727,
			"-0.003": 12.9129512696,
			"-0.002": 11.589884522,
			"-0.001": 17.9554068127,
			"0.0": 19.6585367777,
			"0.001": 16.6424300586,
			"0.002": 14.9090818155,
			"0.003": 11.7210170035,
			"0.004": 14.9311390646,
			"0.005": 4.54196488048,
			"0.006": 3.58458323748,
			"0.007": 4.8940227842,
			"0.008": 6.01492367562,
			"0.009": 7.36823293323,
			"0.01": 7.05822702114,
			"0.011": 4.98864082613,
			"0.012": 0.495149325582,
			"0.013": 0.0,
			"0.014": 0.0,
			"0.015": 0.0,
			"0.016": 0.0,
			"0.017": 0.0,
			"0.018": 0.0,
			"0.019": 0.0,
			"0.02": 0.0,
			"0.021": 0.0,
			"0.022": 0.0,
			"0.023": 0.0,
			"0.024": 0.0,
			"0.025": 0.0
		}
	}
}
