{
	 "smiles": "OCC1=NOC(=N1)C1=CC=CC=C1", 
	 "Tm": 354.15, 
	 "num_atms": 21, 
	 "gaussian": { 
		 "optdone": 1, 
		 "sigma_profile": "yes", 
		 "theory": "DFT", 
		 "functional": "B3LYP", 
		 "basiset": "6-31G**", 
		 "properties": { 
			 "R2extent": 3983.7522, 
			 "electric_dipole_moment_norm": 3.67502978899, 
			 "electric_quadrupole_moment_norm": 4.29293404911, 
			 "total_energy": -607.683188543, 
			 "HOMO_LUMO_gap": 0.19088, 
			 "cosmo_polarized_energy": -9.9, 
			 "cosmo_cavitation_energy": 26.0, 
			 "cosmo_dispersion_energy": -19.6, 
			 "cosmo_repulsion_energy": 1.55, 
			 "cosmo_total_nonelectrostatic_energy": 7.95, 
			 "SMD_solvation_energy": 2.79 
		},
		"coords": [
			{
				"x": -3.5686554893,
				"y": -4.2327149963,
				"z": -0.872792474,
				"element": "O" 
			},
			{
				"x": -2.6153179929,
				"y": -3.943991889,
				"z": 0.1230961549,
				"element": "C" 
			},
			{
				"x": -1.5660758996,
				"y": -2.9670714581,
				"z": -0.3246510331,
				"element": "C" 
			},
			{
				"x": -1.4688814127,
				"y": -2.5974261519,
				"z": -1.5772425213,
				"element": "N" 
			},
			{
				"x": -0.3531267362,
				"y": -1.7431708905,
				"z": -1.5730723881,
				"element": "O" 
			},
			{
				"x": 0.0923535463,
				"y": -1.6975088175,
				"z": -0.3011790368,
				"element": "C" 
			},
			{
				"x": -0.615894346,
				"y": -2.4374495451,
				"z": 0.5127999449,
				"element": "N" 
			},
			{
				"x": 1.253581343,
				"y": -0.8691584962,
				"z": 0.0121098219,
				"element": "C" 
			},
			{
				"x": 1.9042951961,
				"y": -0.1282254346,
				"z": -0.9870993941,
				"element": "C" 
			},
			{
				"x": 3.0100643769,
				"y": 0.6527020367,
				"z": -0.6595762606,
				"element": "C" 
			},
			{
				"x": 3.4713381315,
				"y": 0.6996086917,
				"z": 0.6583801878,
				"element": "C" 
			},
			{
				"x": 2.8238738857,
				"y": -0.0376894035,
				"z": 1.6539399484,
				"element": "C" 
			},
			{
				"x": 1.7180516982,
				"y": -0.8208534382,
				"z": 1.3362996114,
				"element": "C" 
			},
			{
				"x": -3.1080281443,
				"y": -4.2832418025,
				"z": -1.721661469,
				"element": "H" 
			},
			{
				"x": -2.0975962587,
				"y": -4.8483181981,
				"z": 0.4862664836,
				"element": "H" 
			},
			{
				"x": -3.1477376771,
				"y": -3.5229349832,
				"z": 0.9830023813,
				"element": "H" 
			},
			{
				"x": 1.5413180651,
				"y": -0.1682547172,
				"z": -2.0084848844,
				"element": "H" 
			},
			{
				"x": 3.5123364504,
				"y": 1.2254877295,
				"z": -1.4331774621,
				"element": "H" 
			},
			{
				"x": 4.3338789309,
				"y": 1.3099564695,
				"z": 0.909510209,
				"element": "H" 
			},
			{
				"x": 3.1819059301,
				"y": -0.0011574095,
				"z": 2.6783431361,
				"element": "H" 
			},
			{
				"x": 1.2030164028,
				"y": -1.3990872959,
				"z": 2.0957890442,
				"element": "H" 
			}
		],
		 "valence_orbital": [ 
			{
				"type": "occ",
				"energy": -0.31207,
				"method": "rhf"
			},
			{
				"type": "occ",
				"energy": -0.30168,
				"method": "rhf"
			},
			{
				"type": "occ",
				"energy": -0.2757,
				"method": "rhf"
			},
			{
				"type": "occ",
				"energy": -0.2695,
				"method": "rhf"
			},
			{
				"type": "occ",
				"energy": -0.2541,
				"method": "rhf"
			},
			{
				"type": "unocc",
				"energy": -0.06322,
				"method": "rhf"
			},
			{
				"type": "unocc",
				"energy": -0.01876,
				"method": "rhf"
			},
			{
				"type": "unocc",
				"energy": 0.01261,
				"method": "rhf"
			},
			{
				"type": "unocc",
				"energy": 0.05487,
				"method": "rhf"
			},
			{
				"type": "unocc",
				"energy": 0.06222,
				"method": "rhf"
			}
		],
		"cosmo_sigma_profile": { 
			"-0.025": 0.0,
			"-0.024": 0.0,
			"-0.023": 0.0,
			"-0.022": 0.0,
			"-0.021": 0.0,
			"-0.02": 0.0,
			"-0.019": 0.0,
			"-0.018": 0.0,
			"-0.017": 0.0,
			"-0.016": 0.0,
			"-0.015": 0.124054242336,
			"-0.014": 0.725573757635,
			"-0.013": 0.536544619449,
			"-0.012": 0.80392981037,
			"-0.011": 0.751322760945,
			"-0.01": 0.278029650699,
			"-0.009": 0.834986391377,
			"-0.008": 1.27918094348,
			"-0.007": 6.77810661805,
			"-0.006": 16.689153809,
			"-0.005": 16.7123260401,
			"-0.004": 15.9475154568,
			"-0.003": 14.3788996404,
			"-0.002": 14.3995893847,
			"-0.001": 13.5661219186,
			"0.0": 13.3903721414,
			"0.001": 13.7843340428,
			"0.002": 14.4040881643,
			"0.003": 16.9950311221,
			"0.004": 10.1918535173,
			"0.005": 5.30662482957,
			"0.006": 7.03531593114,
			"0.007": 4.74543545836,
			"0.008": 2.59897108508,
			"0.009": 3.93903641173,
			"0.01": 3.36453758368,
			"0.011": 3.51173718049,
			"0.012": 2.75897931509,
			"0.013": 2.54642119729,
			"0.014": 0.274450953662,
			"0.015": 0.0,
			"0.016": 0.0,
			"0.017": 0.0,
			"0.018": 0.0,
			"0.019": 0.0,
			"0.02": 0.0,
			"0.021": 0.0,
			"0.022": 0.0,
			"0.023": 0.0,
			"0.024": 0.0,
			"0.025": 0.0
		}
	}
}
