{
	 "smiles": "CC(C(O)=O)C1=C(C)N(CC(F)(F)F)N=C1C", 
	 "Tm": 404.15, 
	 "num_atms": 30, 
	 "gaussian": { 
		 "optdone": 1, 
		 "sigma_profile": "yes", 
		 "theory": "DFT", 
		 "functional": "B3LYP", 
		 "basiset": "6-31G**", 
		 "properties": { 
			 "R2extent": 5160.9217, 
			 "electric_dipole_moment_norm": 3.36034881969, 
			 "electric_quadrupole_moment_norm": 10.376687284, 
			 "total_energy": -948.392504237, 
			 "HOMO_LUMO_gap": 0.23213, 
			 "cosmo_polarized_energy": -14.59, 
			 "cosmo_cavitation_energy": 34.46, 
			 "cosmo_dispersion_energy": -23.12, 
			 "cosmo_repulsion_energy": 1.77, 
			 "cosmo_total_nonelectrostatic_energy": 13.11, 
			 "SMD_solvation_energy": 7.26 
		},
		"coords": [
			{
				"x": 1.6820270125,
				"y": 0.2724276328,
				"z": -2.3649681384,
				"element": "C" 
			},
			{
				"x": 0.7032752295,
				"y": -0.3944760219,
				"z": -1.3860195342,
				"element": "C" 
			},
			{
				"x": 1.0185994465,
				"y": -1.8806127371,
				"z": -1.234086716,
				"element": "C" 
			},
			{
				"x": -0.0879319701,
				"y": -2.5972642084,
				"z": -0.924577088,
				"element": "O" 
			},
			{
				"x": 2.1128271211,
				"y": -2.3912349073,
				"z": -1.3463881606,
				"element": "O" 
			},
			{
				"x": 0.668205315,
				"y": 0.2471914575,
				"z": -0.0143559112,
				"element": "C" 
			},
			{
				"x": -0.45355604,
				"y": 0.7473564288,
				"z": 0.632014134,
				"element": "C" 
			},
			{
				"x": -1.8882989218,
				"y": 0.8227201586,
				"z": 0.2139764258,
				"element": "C" 
			},
			{
				"x": -0.0093765241,
				"y": 1.2304725217,
				"z": 1.8341496617,
				"element": "N" 
			},
			{
				"x": -0.7729070801,
				"y": 1.7991771859,
				"z": 2.9149932029,
				"element": "C" 
			},
			{
				"x": -1.2823030249,
				"y": 0.7621000325,
				"z": 3.9116987122,
				"element": "C" 
			},
			{
				"x": -1.9976821751,
				"y": 1.3844403271,
				"z": 4.8744465489,
				"element": "F" 
			},
			{
				"x": -2.0953677932,
				"y": -0.1428014118,
				"z": 3.3192820517,
				"element": "F" 
			},
			{
				"x": -0.284985865,
				"y": 0.0888156279,
				"z": 4.5005283009,
				"element": "F" 
			},
			{
				"x": 1.3277789377,
				"y": 1.0535670333,
				"z": 2.0078506075,
				"element": "N" 
			},
			{
				"x": 1.750141004,
				"y": 0.4625495147,
				"z": 0.895359082,
				"element": "C" 
			},
			{
				"x": 3.2052065021,
				"y": 0.1302097637,
				"z": 0.7418525005,
				"element": "C" 
			},
			{
				"x": 1.592814728,
				"y": -0.1698084428,
				"z": -3.3620325559,
				"element": "H" 
			},
			{
				"x": 2.7149563467,
				"y": 0.1429888974,
				"z": -2.038458647,
				"element": "H" 
			},
			{
				"x": 1.4670639567,
				"y": 1.3418346137,
				"z": -2.4387930772,
				"element": "H" 
			},
			{
				"x": -0.3071411678,
				"y": -0.3399604777,
				"z": -1.8039307881,
				"element": "H" 
			},
			{
				"x": 0.2102347152,
				"y": -3.5138713505,
				"z": -0.7970024617,
				"element": "H" 
			},
			{
				"x": -2.5413127065,
				"y": 0.3227775119,
				"z": 0.9350159189,
				"element": "H" 
			},
			{
				"x": -2.2299037122,
				"y": 1.8607154683,
				"z": 0.1139966663,
				"element": "H" 
			},
			{
				"x": -2.0287858107,
				"y": 0.3367002504,
				"z": -0.7529939848,
				"element": "H" 
			},
			{
				"x": -1.6385534015,
				"y": 2.3413417908,
				"z": 2.527793785,
				"element": "H" 
			},
			{
				"x": -0.1305821389,
				"y": 2.4957098438,
				"z": 3.4564341772,
				"element": "H" 
			},
			{
				"x": 3.3452182928,
				"y": -0.8774507459,
				"z": 0.3416802318,
				"element": "H" 
			},
			{
				"x": 3.7055615196,
				"y": 0.8262667678,
				"z": 0.0583275163,
				"element": "H" 
			},
			{
				"x": 3.6977782046,
				"y": 0.2030174746,
				"z": 1.7140075397,
				"element": "H" 
			}
		],
		 "valence_orbital": [ 
			{
				"type": "occ",
				"energy": -0.31929,
				"method": "rhf"
			},
			{
				"type": "occ",
				"energy": -0.28447,
				"method": "rhf"
			},
			{
				"type": "occ",
				"energy": -0.28034,
				"method": "rhf"
			},
			{
				"type": "occ",
				"energy": -0.24086,
				"method": "rhf"
			},
			{
				"type": "occ",
				"energy": -0.23415,
				"method": "rhf"
			},
			{
				"type": "unocc",
				"energy": -0.00202,
				"method": "rhf"
			},
			{
				"type": "unocc",
				"energy": 0.02093,
				"method": "rhf"
			},
			{
				"type": "unocc",
				"energy": 0.06733,
				"method": "rhf"
			},
			{
				"type": "unocc",
				"energy": 0.07347,
				"method": "rhf"
			},
			{
				"type": "unocc",
				"energy": 0.08167,
				"method": "rhf"
			}
		],
		"cosmo_sigma_profile": { 
			"-0.025": 0.0,
			"-0.024": 0.0,
			"-0.023": 0.0,
			"-0.022": 0.0,
			"-0.021": 0.0,
			"-0.02": 0.0,
			"-0.019": 0.0,
			"-0.018": 0.643314978478,
			"-0.017": 1.02804332021,
			"-0.016": 0.917959323137,
			"-0.015": 0.263592479561,
			"-0.014": 1.18214696918,
			"-0.013": 0.69211315197,
			"-0.012": 0.646864021337,
			"-0.011": 0.87174315265,
			"-0.01": 1.20869805227,
			"-0.009": 4.43846756279,
			"-0.008": 5.8106785087,
			"-0.007": 6.50304984726,
			"-0.006": 8.33796064012,
			"-0.005": 10.8983126175,
			"-0.004": 16.5503080605,
			"-0.003": 18.9803396384,
			"-0.002": 21.1531888491,
			"-0.001": 23.8903945312,
			"0.0": 25.3111153718,
			"0.001": 20.1394236333,
			"0.002": 28.1074963402,
			"0.003": 25.2073805849,
			"0.004": 8.95660164995,
			"0.005": 7.13007085866,
			"0.006": 5.1627502187,
			"0.007": 4.48799589063,
			"0.008": 5.3141751692,
			"0.009": 4.3279891034,
			"0.01": 2.80618540783,
			"0.011": 4.19282142015,
			"0.012": 4.35225238807,
			"0.013": 0.84937687413,
			"0.014": 0.690621012302,
			"0.015": 0.710942371439,
			"0.016": 0.144873865969,
			"0.017": 0.0,
			"0.018": 0.0,
			"0.019": 0.0,
			"0.02": 0.0,
			"0.021": 0.0,
			"0.022": 0.0,
			"0.023": 0.0,
			"0.024": 0.0,
			"0.025": 0.0
		}
	}
}
