{
	 "smiles": "COC1=C(O)C(Br)=CC(=C1)C(O)=O", 
	 "Tm": 471.15, 
	 "num_atms": 20, 
	 "gaussian": { 
		 "optdone": 1, 
		 "sigma_profile": "yes", 
		 "theory": "DFT", 
		 "functional": "B3LYP", 
		 "basiset": "6-31G**", 
		 "properties": { 
			 "R2extent": 5694.9062, 
			 "electric_dipole_moment_norm": 6.93834108847, 
			 "electric_quadrupole_moment_norm": 9.45546158947, 
			 "total_energy": -3181.35904552, 
			 "HOMO_LUMO_gap": 0.18578, 
			 "cosmo_polarized_energy": -19.39, 
			 "cosmo_cavitation_energy": 27.16, 
			 "cosmo_dispersion_energy": -20.46, 
			 "cosmo_repulsion_energy": 1.63, 
			 "cosmo_total_nonelectrostatic_energy": 8.32, 
			 "SMD_solvation_energy": 5.85 
		},
		"coords": [
			{
				"x": -1.3016819197,
				"y": -2.0682286493,
				"z": 0.1934648801,
				"element": "C" 
			},
			{
				"x": -1.8958520445,
				"y": -0.8359045755,
				"z": 0.5818664201,
				"element": "O" 
			},
			{
				"x": -1.1297128686,
				"y": 0.2996092249,
				"z": 0.5440420918,
				"element": "C" 
			},
			{
				"x": -1.8417107427,
				"y": 1.4576580757,
				"z": 0.9346426638,
				"element": "C" 
			},
			{
				"x": -3.1341741275,
				"y": 1.3605933346,
				"z": 1.3079872838,
				"element": "O" 
			},
			{
				"x": -1.1833455063,
				"y": 2.6890658753,
				"z": 0.9142770043,
				"element": "C" 
			},
			{
				"x": -2.1315246242,
				"y": 4.25417534,
				"z": 1.4277653478,
				"element": "Br" 
			},
			{
				"x": 0.1493834136,
				"y": 2.7782696376,
				"z": 0.5209336828,
				"element": "C" 
			},
			{
				"x": 0.8524790164,
				"y": 1.6274830417,
				"z": 0.1605699584,
				"element": "C" 
			},
			{
				"x": 0.202937814,
				"y": 0.3777054735,
				"z": 0.1634936559,
				"element": "C" 
			},
			{
				"x": 2.2807621404,
				"y": 1.790501877,
				"z": -0.2514681982,
				"element": "C" 
			},
			{
				"x": 3.0654004027,
				"y": 0.676966142,
				"z": -0.1773384692,
				"element": "O" 
			},
			{
				"x": 2.752029244,
				"y": 2.8341718747,
				"z": -0.636373154,
				"element": "O" 
			},
			{
				"x": -0.9650851898,
				"y": -2.034848945,
				"z": -0.8496877021,
				"element": "H" 
			},
			{
				"x": -2.07865514,
				"y": -2.8257875282,
				"z": 0.2991430279,
				"element": "H" 
			},
			{
				"x": -0.4554217961,
				"y": -2.32263633,
				"z": 0.8432854983,
				"element": "H" 
			},
			{
				"x": -3.3845563546,
				"y": 0.4254724973,
				"z": 1.235393823,
				"element": "H" 
			},
			{
				"x": 0.6548851328,
				"y": 3.7355167051,
				"z": 0.4926441053,
				"element": "H" 
			},
			{
				"x": 0.7170444417,
				"y": -0.513357947,
				"z": -0.1790491345,
				"element": "H" 
			},
			{
				"x": 2.6193987086,
				"y": -0.0059251243,
				"z": 0.3420072148,
				"element": "H" 
			}
		],
		 "valence_orbital": [ 
			{
				"type": "occ",
				"energy": -0.31004,
				"method": "rhf"
			},
			{
				"type": "occ",
				"energy": -0.28827,
				"method": "rhf"
			},
			{
				"type": "occ",
				"energy": -0.27464,
				"method": "rhf"
			},
			{
				"type": "occ",
				"energy": -0.25124,
				"method": "rhf"
			},
			{
				"type": "occ",
				"energy": -0.23427,
				"method": "rhf"
			},
			{
				"type": "unocc",
				"energy": -0.04849,
				"method": "rhf"
			},
			{
				"type": "unocc",
				"energy": -0.02208,
				"method": "rhf"
			},
			{
				"type": "unocc",
				"energy": 0.00186,
				"method": "rhf"
			},
			{
				"type": "unocc",
				"energy": 0.04772,
				"method": "rhf"
			},
			{
				"type": "unocc",
				"energy": 0.05346,
				"method": "rhf"
			}
		],
		"cosmo_sigma_profile": { 
			"-0.025": 0.0,
			"-0.024": 0.0,
			"-0.023": 0.0,
			"-0.022": 0.0,
			"-0.021": 0.0,
			"-0.02": 0.0,
			"-0.019": 0.159499334172,
			"-0.018": 0.829721988586,
			"-0.017": 0.902640599696,
			"-0.016": 1.05561981076,
			"-0.015": 1.78535280278,
			"-0.014": 1.27318614955,
			"-0.013": 1.53149901847,
			"-0.012": 2.32987476847,
			"-0.011": 2.05315946675,
			"-0.01": 1.99595475127,
			"-0.009": 2.02131509851,
			"-0.008": 3.2093775747,
			"-0.007": 6.70529790849,
			"-0.006": 12.1308748031,
			"-0.005": 11.5494615523,
			"-0.004": 13.797781865,
			"-0.003": 11.8557405629,
			"-0.002": 10.3333779552,
			"-0.001": 12.831772875,
			"0.0": 17.2035157437,
			"0.001": 18.5764935726,
			"0.002": 15.8490325283,
			"0.003": 11.9136453455,
			"0.004": 13.5475489809,
			"0.005": 6.96101788869,
			"0.006": 4.59900340042,
			"0.007": 4.95809958541,
			"0.008": 4.07826517968,
			"0.009": 5.61568886776,
			"0.01": 6.46650631377,
			"0.011": 5.79553831992,
			"0.012": 4.99676712606,
			"0.013": 1.41582872888,
			"0.014": 0.0405581768291,
			"0.015": 0.0,
			"0.016": 0.0,
			"0.017": 0.0,
			"0.018": 0.0,
			"0.019": 0.0,
			"0.02": 0.0,
			"0.021": 0.0,
			"0.022": 0.0,
			"0.023": 0.0,
			"0.024": 0.0,
			"0.025": 0.0
		}
	}
}
