{
	 "smiles": "CC1CCCC1C", 
	 "Tm": 219.15, 
	 "num_atms": 21, 
	 "gaussian": { 
		 "optdone": 1, 
		 "sigma_profile": "yes", 
		 "theory": "DFT", 
		 "functional": "B3LYP", 
		 "basiset": "6-31G**", 
		 "properties": { 
			 "R2extent": 891.761, 
			 "electric_dipole_moment_norm": 0.102178373446, 
			 "electric_quadrupole_moment_norm": 0.76997783085, 
			 "total_energy": -275.198661191, 
			 "HOMO_LUMO_gap": 0.37639, 
			 "cosmo_polarized_energy": -0.53, 
			 "cosmo_cavitation_energy": 20.96, 
			 "cosmo_dispersion_energy": -15.69, 
			 "cosmo_repulsion_energy": 1.32, 
			 "cosmo_total_nonelectrostatic_energy": 6.6, 
			 "SMD_solvation_energy": 3.1 
		},
		"coords": [
			{
				"x": 2.2748023062,
				"y": 0.5959952122,
				"z": 0.0876279698,
				"element": "C" 
			},
			{
				"x": 1.1666364794,
				"y": -0.4491310647,
				"z": 0.2821275886,
				"element": "C" 
			},
			{
				"x": 0.1048405007,
				"y": 0.0342202343,
				"z": 1.3245702539,
				"element": "C" 
			},
			{
				"x": -1.2568948929,
				"y": 0.0789264274,
				"z": 0.5877646398,
				"element": "C" 
			},
			{
				"x": -0.879024746,
				"y": 0.1750096405,
				"z": -0.8973811331,
				"element": "C" 
			},
			{
				"x": 0.3385570408,
				"y": -0.7600564798,
				"z": -1.0069362649,
				"element": "C" 
			},
			{
				"x": 1.0897392176,
				"y": -0.6871293041,
				"z": -2.3375829557,
				"element": "C" 
			},
			{
				"x": 3.0464924165,
				"y": 0.2546931655,
				"z": -0.6098508707,
				"element": "H" 
			},
			{
				"x": 2.7657056359,
				"y": 0.8107239351,
				"z": 1.043362725,
				"element": "H" 
			},
			{
				"x": 1.8749640947,
				"y": 1.5437064595,
				"z": -0.2924337932,
				"element": "H" 
			},
			{
				"x": 1.6443265396,
				"y": -1.3733744455,
				"z": 0.6299849177,
				"element": "H" 
			},
			{
				"x": 0.3718005931,
				"y": 1.0339867198,
				"z": 1.6865963121,
				"element": "H" 
			},
			{
				"x": 0.068797515,
				"y": -0.6138039821,
				"z": 2.2061911852,
				"element": "H" 
			},
			{
				"x": -1.8946353385,
				"y": 0.9007800515,
				"z": 0.9288045105,
				"element": "H" 
			},
			{
				"x": -1.8134831409,
				"y": -0.85052619,
				"z": 0.7607351549,
				"element": "H" 
			},
			{
				"x": -1.6945785111,
				"y": -0.1070717742,
				"z": -1.5725116119,
				"element": "H" 
			},
			{
				"x": -0.5870781248,
				"y": 1.2032087786,
				"z": -1.1536632062,
				"element": "H" 
			},
			{
				"x": -0.0416482899,
				"y": -1.786651745,
				"z": -0.8965557305,
				"element": "H" 
			},
			{
				"x": 1.9536786977,
				"y": -1.3614027278,
				"z": -2.351756211,
				"element": "H" 
			},
			{
				"x": 1.4536632308,
				"y": 0.3247817137,
				"z": -2.5445353382,
				"element": "H" 
			},
			{
				"x": 0.4343387761,
				"y": -0.976084625,
				"z": -3.1666581422,
				"element": "H" 
			}
		],
		 "valence_orbital": [ 
			{
				"type": "occ",
				"energy": -0.31891,
				"method": "rhf"
			},
			{
				"type": "occ",
				"energy": -0.31707,
				"method": "rhf"
			},
			{
				"type": "occ",
				"energy": -0.30811,
				"method": "rhf"
			},
			{
				"type": "occ",
				"energy": -0.29964,
				"method": "rhf"
			},
			{
				"type": "occ",
				"energy": -0.29663,
				"method": "rhf"
			},
			{
				"type": "unocc",
				"energy": 0.07976,
				"method": "rhf"
			},
			{
				"type": "unocc",
				"energy": 0.10686,
				"method": "rhf"
			},
			{
				"type": "unocc",
				"energy": 0.11357,
				"method": "rhf"
			},
			{
				"type": "unocc",
				"energy": 0.14023,
				"method": "rhf"
			},
			{
				"type": "unocc",
				"energy": 0.14353,
				"method": "rhf"
			}
		],
		"cosmo_sigma_profile": { 
			"-0.025": 0.0,
			"-0.024": 0.0,
			"-0.023": 0.0,
			"-0.022": 0.0,
			"-0.021": 0.0,
			"-0.02": 0.0,
			"-0.019": 0.0,
			"-0.018": 0.0,
			"-0.017": 0.0,
			"-0.016": 0.0,
			"-0.015": 0.0,
			"-0.014": 0.0,
			"-0.013": 0.0,
			"-0.012": 0.0,
			"-0.011": 0.0,
			"-0.01": 0.0,
			"-0.009": 0.0,
			"-0.008": 0.0,
			"-0.007": 0.0,
			"-0.006": 0.0,
			"-0.005": 0.0,
			"-0.004": 0.0,
			"-0.003": 1.67261560905,
			"-0.002": 21.5260824138,
			"-0.001": 35.04536618,
			"0.0": 44.2577837085,
			"0.001": 33.5184353309,
			"0.002": 22.4559846869,
			"0.003": 1.95699426883,
			"0.004": 0.0,
			"0.005": 0.0,
			"0.006": 0.0,
			"0.007": 0.0,
			"0.008": 0.0,
			"0.009": 0.0,
			"0.01": 0.0,
			"0.011": 0.0,
			"0.012": 0.0,
			"0.013": 0.0,
			"0.014": 0.0,
			"0.015": 0.0,
			"0.016": 0.0,
			"0.017": 0.0,
			"0.018": 0.0,
			"0.019": 0.0,
			"0.02": 0.0,
			"0.021": 0.0,
			"0.022": 0.0,
			"0.023": 0.0,
			"0.024": 0.0,
			"0.025": 0.0
		}
	}
}
