{
	 "smiles": "SC1=NC2=C(C=CC(Cl)=C2)C(=O)N1", 
	 "Tm": 580.15, 
	 "num_atms": 18, 
	 "gaussian": { 
		 "optdone": 1, 
		 "sigma_profile": "yes", 
		 "theory": "DFT", 
		 "functional": "B3LYP", 
		 "basiset": "6-31G**", 
		 "properties": { 
			 "R2extent": 3997.1525, 
			 "electric_dipole_moment_norm": 1.95574278984, 
			 "electric_quadrupole_moment_norm": 12.55113492, 
			 "total_energy": -1350.99771127, 
			 "HOMO_LUMO_gap": 0.18394, 
			 "cosmo_polarized_energy": -11.9, 
			 "cosmo_cavitation_energy": 26.6, 
			 "cosmo_dispersion_energy": -20.62, 
			 "cosmo_repulsion_energy": 1.57, 
			 "cosmo_total_nonelectrostatic_energy": 7.55, 
			 "SMD_solvation_energy": 2.93 
		},
		"coords": [
			{
				"x": -0.4356350011,
				"y": 3.6722741792,
				"z": -2.9527413779,
				"element": "S" 
			},
			{
				"x": -0.3065131896,
				"y": 2.0640087886,
				"z": -2.1951437275,
				"element": "C" 
			},
			{
				"x": 0.5785656471,
				"y": 1.8272863114,
				"z": -1.2868146303,
				"element": "N" 
			},
			{
				"x": 0.6079591778,
				"y": 0.5457126113,
				"z": -0.7504967989,
				"element": "C" 
			},
			{
				"x": -0.280812231,
				"y": -0.4763378428,
				"z": -1.1622411375,
				"element": "C" 
			},
			{
				"x": -0.2075763756,
				"y": -1.7534331606,
				"z": -0.5872691362,
				"element": "C" 
			},
			{
				"x": 0.7345185458,
				"y": -2.030700223,
				"z": 0.3899552332,
				"element": "C" 
			},
			{
				"x": 1.6123058231,
				"y": -1.0094726135,
				"z": 0.7919583861,
				"element": "C" 
			},
			{
				"x": 2.8056127751,
				"y": -1.3606477782,
				"z": 2.0298951793,
				"element": "Cl" 
			},
			{
				"x": 1.5643467947,
				"y": 0.261718613,
				"z": 0.2425775438,
				"element": "C" 
			},
			{
				"x": -1.2793400293,
				"y": -0.1887754898,
				"z": -2.1956168284,
				"element": "C" 
			},
			{
				"x": -2.1083591478,
				"y": -0.9602643308,
				"z": -2.6512722497,
				"element": "O" 
			},
			{
				"x": -1.2110794299,
				"y": 1.1392786481,
				"z": -2.6600275607,
				"element": "N" 
			},
			{
				"x": 0.574764642,
				"y": 4.1832861727,
				"z": -2.2263967653,
				"element": "H" 
			},
			{
				"x": -0.9045372426,
				"y": -2.5123639092,
				"z": -0.9271442844,
				"element": "H" 
			},
			{
				"x": 0.8026509396,
				"y": -3.0128180191,
				"z": 0.8429398668,
				"element": "H" 
			},
			{
				"x": 2.2444506335,
				"y": 1.0435642691,
				"z": 0.5578101975,
				"element": "H" 
			},
			{
				"x": -1.8865223319,
				"y": 1.3788837735,
				"z": -3.3765719098,
				"element": "H" 
			}
		],
		 "valence_orbital": [ 
			{
				"type": "occ",
				"energy": -0.29481,
				"method": "rhf"
			},
			{
				"type": "occ",
				"energy": -0.29103,
				"method": "rhf"
			},
			{
				"type": "occ",
				"energy": -0.27782,
				"method": "rhf"
			},
			{
				"type": "occ",
				"energy": -0.26332,
				"method": "rhf"
			},
			{
				"type": "occ",
				"energy": -0.23986,
				"method": "rhf"
			},
			{
				"type": "unocc",
				"energy": -0.05592,
				"method": "rhf"
			},
			{
				"type": "unocc",
				"energy": -0.04891,
				"method": "rhf"
			},
			{
				"type": "unocc",
				"energy": -0.01788,
				"method": "rhf"
			},
			{
				"type": "unocc",
				"energy": 0.01276,
				"method": "rhf"
			},
			{
				"type": "unocc",
				"energy": 0.02236,
				"method": "rhf"
			}
		],
		"cosmo_sigma_profile": { 
			"-0.025": 0.0,
			"-0.024": 0.0,
			"-0.023": 0.0,
			"-0.022": 0.0,
			"-0.021": 0.0,
			"-0.02": 0.0,
			"-0.019": 0.0,
			"-0.018": 0.0675233810657,
			"-0.017": 0.892578361407,
			"-0.016": 1.48983368628,
			"-0.015": 0.551934495275,
			"-0.014": 1.14510591016,
			"-0.013": 0.987907995149,
			"-0.012": 2.69649414424,
			"-0.011": 1.74666833627,
			"-0.01": 1.91462955602,
			"-0.009": 2.51773456369,
			"-0.008": 3.53922347462,
			"-0.007": 6.6183518308,
			"-0.006": 7.93921023333,
			"-0.005": 8.13008238623,
			"-0.004": 9.19499685073,
			"-0.003": 13.0599057432,
			"-0.002": 12.3731938004,
			"-0.001": 14.536136627,
			"0.0": 20.7025513249,
			"0.001": 28.5971024172,
			"0.002": 19.3046640938,
			"0.003": 13.9118425555,
			"0.004": 15.5846939286,
			"0.005": 7.2917104638,
			"0.006": 4.61433449898,
			"0.007": 1.51679247667,
			"0.008": 2.50127637158,
			"0.009": 2.25202046693,
			"0.01": 2.60419821621,
			"0.011": 3.31412701615,
			"0.012": 5.67977797075,
			"0.013": 2.11063279911,
			"0.014": 0.0,
			"0.015": 0.0,
			"0.016": 0.0,
			"0.017": 0.0,
			"0.018": 0.0,
			"0.019": 0.0,
			"0.02": 0.0,
			"0.021": 0.0,
			"0.022": 0.0,
			"0.023": 0.0,
			"0.024": 0.0,
			"0.025": 0.0
		}
	}
}
