{
	 "smiles": "CC(C)(NC(=O)C1=CC=CC=C1)C#N", 
	 "Tm": 440.15, 
	 "num_atms": 26, 
	 "gaussian": { 
		 "optdone": 1, 
		 "sigma_profile": "yes", 
		 "theory": "DFT", 
		 "functional": "B3LYP", 
		 "basiset": "6-31G**", 
		 "properties": { 
			 "R2extent": 4230.3871, 
			 "electric_dipole_moment_norm": 6.27456857242, 
			 "electric_quadrupole_moment_norm": 22.0631973814, 
			 "total_energy": -611.13048734, 
			 "HOMO_LUMO_gap": 0.21146, 
			 "cosmo_polarized_energy": -18.72, 
			 "cosmo_cavitation_energy": 30.43, 
			 "cosmo_dispersion_energy": -21.06, 
			 "cosmo_repulsion_energy": 1.67, 
			 "cosmo_total_nonelectrostatic_energy": 11.03, 
			 "SMD_solvation_energy": 6.71 
		},
		"coords": [
			{
				"x": 0.0668026599,
				"y": 1.6922908841,
				"z": 0.7764444248,
				"element": "C" 
			},
			{
				"x": 0.2963942504,
				"y": 0.2669921992,
				"z": 1.3246229024,
				"element": "C" 
			},
			{
				"x": 1.7887758907,
				"y": 0.0452842355,
				"z": 1.6474794334,
				"element": "C" 
			},
			{
				"x": -0.1029302409,
				"y": -0.7631595144,
				"z": 0.3574977876,
				"element": "N" 
			},
			{
				"x": -1.3821508325,
				"y": -0.9099955826,
				"z": -0.1225734024,
				"element": "C" 
			},
			{
				"x": -2.289031627,
				"y": -0.1479600467,
				"z": 0.1956270221,
				"element": "O" 
			},
			{
				"x": -1.6004943152,
				"y": -2.0509906652,
				"z": -1.0765953806,
				"element": "C" 
			},
			{
				"x": -0.7861980034,
				"y": -3.191727303,
				"z": -1.1238411865,
				"element": "C" 
			},
			{
				"x": -1.0584534367,
				"y": -4.2139226419,
				"z": -2.0332753159,
				"element": "C" 
			},
			{
				"x": -2.1452617942,
				"y": -4.1048759528,
				"z": -2.9026872249,
				"element": "C" 
			},
			{
				"x": -2.9688775779,
				"y": -2.9771838418,
				"z": -2.8504771066,
				"element": "C" 
			},
			{
				"x": -2.7025581318,
				"y": -1.9597813562,
				"z": -1.9375411078,
				"element": "C" 
			},
			{
				"x": -0.4728570711,
				"y": 0.0916413,
				"z": 2.5843056399,
				"element": "C" 
			},
			{
				"x": -1.0118776152,
				"y": -0.0299753455,
				"z": 3.6045443803,
				"element": "N" 
			},
			{
				"x": 0.378356764,
				"y": 2.4344126027,
				"z": 1.5168641046,
				"element": "H" 
			},
			{
				"x": -0.9864788721,
				"y": 1.8376106249,
				"z": 0.5400983372,
				"element": "H" 
			},
			{
				"x": 0.6639645119,
				"y": 1.8249022312,
				"z": -0.1307903165,
				"element": "H" 
			},
			{
				"x": 2.1265390059,
				"y": 0.7730418084,
				"z": 2.3877859381,
				"element": "H" 
			},
			{
				"x": 1.9600684315,
				"y": -0.9579904002,
				"z": 2.047989868,
				"element": "H" 
			},
			{
				"x": 2.383552605,
				"y": 0.1770413961,
				"z": 0.737623263,
				"element": "H" 
			},
			{
				"x": 0.6276937292,
				"y": -1.3551770345,
				"z": -0.0053759769,
				"element": "H" 
			},
			{
				"x": 0.0389284974,
				"y": -3.312727685,
				"z": -0.4270415319,
				"element": "H" 
			},
			{
				"x": -0.4287721053,
				"y": -5.0984589529,
				"z": -2.0552803112,
				"element": "H" 
			},
			{
				"x": -2.3552595634,
				"y": -4.9005629885,
				"z": -3.6115845248,
				"element": "H" 
			},
			{
				"x": -3.820592063,
				"y": -2.8940890455,
				"z": -3.5191541219,
				"element": "H" 
			},
			{
				"x": -3.3369830963,
				"y": -1.0827389253,
				"z": -1.8681655936,
				"element": "H" 
			}
		],
		 "valence_orbital": [ 
			{
				"type": "occ",
				"energy": -0.31902,
				"method": "rhf"
			},
			{
				"type": "occ",
				"energy": -0.27348,
				"method": "rhf"
			},
			{
				"type": "occ",
				"energy": -0.26639,
				"method": "rhf"
			},
			{
				"type": "occ",
				"energy": -0.265,
				"method": "rhf"
			},
			{
				"type": "occ",
				"energy": -0.25526,
				"method": "rhf"
			},
			{
				"type": "unocc",
				"energy": -0.0438,
				"method": "rhf"
			},
			{
				"type": "unocc",
				"energy": -0.01581,
				"method": "rhf"
			},
			{
				"type": "unocc",
				"energy": 0.03418,
				"method": "rhf"
			},
			{
				"type": "unocc",
				"energy": 0.04186,
				"method": "rhf"
			},
			{
				"type": "unocc",
				"energy": 0.051,
				"method": "rhf"
			}
		],
		"cosmo_sigma_profile": { 
			"-0.025": 0.0,
			"-0.024": 0.0,
			"-0.023": 0.0,
			"-0.022": 0.0,
			"-0.021": 0.0,
			"-0.02": 0.0,
			"-0.019": 0.0,
			"-0.018": 0.0,
			"-0.017": 0.0,
			"-0.016": 0.0,
			"-0.015": 0.178499716164,
			"-0.014": 1.21188962418,
			"-0.013": 1.24857645855,
			"-0.012": 1.13087373661,
			"-0.011": 1.61327528399,
			"-0.01": 1.62842957379,
			"-0.009": 1.35501611187,
			"-0.008": 2.31984553183,
			"-0.007": 5.70336947398,
			"-0.006": 16.7541156344,
			"-0.005": 21.360686493,
			"-0.004": 19.9622991022,
			"-0.003": 16.7248170315,
			"-0.002": 21.1168615659,
			"-0.001": 18.6884140059,
			"0.0": 15.1049652208,
			"0.001": 10.7893064002,
			"0.002": 10.6114916676,
			"0.003": 12.9423133054,
			"0.004": 15.1316352926,
			"0.005": 7.02534942873,
			"0.006": 4.02967615057,
			"0.007": 4.16723092133,
			"0.008": 5.91775387439,
			"0.009": 5.78150259747,
			"0.01": 4.89549471083,
			"0.011": 4.97807596668,
			"0.012": 4.63258405751,
			"0.013": 4.77509739048,
			"0.014": 0.654278363525,
			"0.015": 0.0,
			"0.016": 0.0,
			"0.017": 0.0,
			"0.018": 0.0,
			"0.019": 0.0,
			"0.02": 0.0,
			"0.021": 0.0,
			"0.022": 0.0,
			"0.023": 0.0,
			"0.024": 0.0,
			"0.025": 0.0
		}
	}
}
