{
	 "smiles": "CC1=CC=C(C=C1)S(=O)(=O)OS(=O)(=O)C1=CC=C(C)C=C1", 
	 "Tm": 400.65, 
	 "num_atms": 35, 
	 "gaussian": { 
		 "optdone": 1, 
		 "sigma_profile": "yes", 
		 "theory": "DFT", 
		 "functional": "B3LYP", 
		 "basiset": "6-31G**", 
		 "properties": { 
			 "R2extent": 9090.3659, 
			 "electric_dipole_moment_norm": 8.1871916119, 
			 "electric_quadrupole_moment_norm": 30.9383952829, 
			 "total_energy": -1714.29214083, 
			 "HOMO_LUMO_gap": 0.20863, 
			 "cosmo_polarized_energy": -17.9, 
			 "cosmo_cavitation_energy": 42.52, 
			 "cosmo_dispersion_energy": -30.3, 
			 "cosmo_repulsion_energy": 2.25, 
			 "cosmo_total_nonelectrostatic_energy": 14.48, 
			 "SMD_solvation_energy": 5.51 
		},
		"coords": [
			{
				"x": 4.6837636378,
				"y": 1.6915973341,
				"z": -1.285760473,
				"element": "C" 
			},
			{
				"x": 3.1958182495,
				"y": 1.9405218554,
				"z": -1.2421172117,
				"element": "C" 
			},
			{
				"x": 2.5994728904,
				"y": 2.5276628061,
				"z": -0.1165140799,
				"element": "C" 
			},
			{
				"x": 1.2320920503,
				"y": 2.7900826125,
				"z": -0.0800451376,
				"element": "C" 
			},
			{
				"x": 0.4546727952,
				"y": 2.4536067507,
				"z": -1.1896752693,
				"element": "C" 
			},
			{
				"x": 1.0149663239,
				"y": 1.8683029385,
				"z": -2.3270480421,
				"element": "C" 
			},
			{
				"x": 2.3839529039,
				"y": 1.6148157473,
				"z": -2.3393210507,
				"element": "C" 
			},
			{
				"x": -1.2892439701,
				"y": 2.8121563974,
				"z": -1.1591051535,
				"element": "S" 
			},
			{
				"x": -1.7853366241,
				"y": 2.9873499173,
				"z": -2.5151626197,
				"element": "O" 
			},
			{
				"x": -1.5668024912,
				"y": 3.7592696817,
				"z": -0.0911495407,
				"element": "O" 
			},
			{
				"x": -1.935562282,
				"y": 1.3623619477,
				"z": -0.5364320405,
				"element": "O" 
			},
			{
				"x": -2.4572983947,
				"y": 0.0869965772,
				"z": -1.5269926954,
				"element": "S" 
			},
			{
				"x": -3.7913407123,
				"y": 0.4039505012,
				"z": -2.0119641391,
				"element": "O" 
			},
			{
				"x": -1.3676485793,
				"y": -0.2464181126,
				"z": -2.4402836449,
				"element": "O" 
			},
			{
				"x": -2.5594188942,
				"y": -1.1280315226,
				"z": -0.2314611463,
				"element": "C" 
			},
			{
				"x": -3.7580123157,
				"y": -1.2724571276,
				"z": 0.4694179885,
				"element": "C" 
			},
			{
				"x": -3.8338993173,
				"y": -2.2353415164,
				"z": 1.4721166043,
				"element": "C" 
			},
			{
				"x": -2.734385841,
				"y": -3.0502512756,
				"z": 1.7818944483,
				"element": "C" 
			},
			{
				"x": -2.8211385121,
				"y": -4.0695347325,
				"z": 2.8913670316,
				"element": "C" 
			},
			{
				"x": -1.5481195957,
				"y": -2.8842826415,
				"z": 1.0513992861,
				"element": "C" 
			},
			{
				"x": -1.4489026495,
				"y": -1.9265555735,
				"z": 0.0453857505,
				"element": "C" 
			},
			{
				"x": 5.0979049373,
				"y": 1.5583459415,
				"z": -0.2824441243,
				"element": "H" 
			},
			{
				"x": 5.2066131972,
				"y": 2.5392491789,
				"z": -1.7457936286,
				"element": "H" 
			},
			{
				"x": 4.9236274215,
				"y": 0.8030837662,
				"z": -1.8769784787,
				"element": "H" 
			},
			{
				"x": 3.2138437281,
				"y": 2.7868367632,
				"z": 0.7413873555,
				"element": "H" 
			},
			{
				"x": 0.7716611071,
				"y": 3.2553349474,
				"z": 0.7842614189,
				"element": "H" 
			},
			{
				"x": 0.3885003821,
				"y": 1.6098174537,
				"z": -3.172281935,
				"element": "H" 
			},
			{
				"x": 2.8301159404,
				"y": 1.1572710708,
				"z": -3.2180450014,
				"element": "H" 
			},
			{
				"x": -4.6107938556,
				"y": -0.650507748,
				"z": 0.2212286532,
				"element": "H" 
			},
			{
				"x": -4.7637619792,
				"y": -2.3601291614,
				"z": 2.0200537195,
				"element": "H" 
			},
			{
				"x": -3.8305861657,
				"y": -4.4815594315,
				"z": 2.9782613858,
				"element": "H" 
			},
			{
				"x": -2.1254773583,
				"y": -4.8977421332,
				"z": 2.730576053,
				"element": "H" 
			},
			{
				"x": -2.5709915005,
				"y": -3.6141351458,
				"z": 3.8575919017,
				"element": "H" 
			},
			{
				"x": -0.6925369677,
				"y": -3.5173173964,
				"z": 1.2699192673,
				"element": "H" 
			},
			{
				"x": -0.5363475583,
				"y": -1.8058506703,
				"z": -0.5276854518,
				"element": "H" 
			}
		],
		 "valence_orbital": [ 
			{
				"type": "occ",
				"energy": -0.30776,
				"method": "rhf"
			},
			{
				"type": "occ",
				"energy": -0.27772,
				"method": "rhf"
			},
			{
				"type": "occ",
				"energy": -0.27329,
				"method": "rhf"
			},
			{
				"type": "occ",
				"energy": -0.2722,
				"method": "rhf"
			},
			{
				"type": "occ",
				"energy": -0.26824,
				"method": "rhf"
			},
			{
				"type": "unocc",
				"energy": -0.05961,
				"method": "rhf"
			},
			{
				"type": "unocc",
				"energy": -0.0428,
				"method": "rhf"
			},
			{
				"type": "unocc",
				"energy": -0.02775,
				"method": "rhf"
			},
			{
				"type": "unocc",
				"energy": -0.02359,
				"method": "rhf"
			},
			{
				"type": "unocc",
				"energy": 0.01025,
				"method": "rhf"
			}
		],
		"cosmo_sigma_profile": { 
			"-0.025": 0.0,
			"-0.024": 0.0,
			"-0.023": 0.0,
			"-0.022": 0.0,
			"-0.021": 0.0,
			"-0.02": 0.0,
			"-0.019": 0.0,
			"-0.018": 0.0,
			"-0.017": 0.0,
			"-0.016": 0.0,
			"-0.015": 0.0,
			"-0.014": 0.0,
			"-0.013": 0.0,
			"-0.012": 0.0,
			"-0.011": 0.0,
			"-0.01": 0.0,
			"-0.009": 0.010687159323,
			"-0.008": 2.01804304501,
			"-0.007": 11.8049917388,
			"-0.006": 20.6665518208,
			"-0.005": 27.2268503287,
			"-0.004": 24.9055901035,
			"-0.003": 24.8631338531,
			"-0.002": 29.0007440924,
			"-0.001": 33.0689257458,
			"0.0": 26.459177627,
			"0.001": 24.0025942242,
			"0.002": 31.9610925483,
			"0.003": 14.9252154678,
			"0.004": 8.17839348301,
			"0.005": 9.43320025915,
			"0.006": 7.74433859423,
			"0.007": 9.02787825024,
			"0.008": 14.9077782486,
			"0.009": 16.4905425346,
			"0.01": 3.57021228731,
			"0.011": 0.0,
			"0.012": 0.0,
			"0.013": 0.0,
			"0.014": 0.0,
			"0.015": 0.0,
			"0.016": 0.0,
			"0.017": 0.0,
			"0.018": 0.0,
			"0.019": 0.0,
			"0.02": 0.0,
			"0.021": 0.0,
			"0.022": 0.0,
			"0.023": 0.0,
			"0.024": 0.0,
			"0.025": 0.0
		}
	}
}
