{
	 "smiles": "CC(C)(C)N(NC(=O)C1=CC=CC=C1)C(=O)C1=CC=C(F)C=C1", 
	 "Tm": 491.15, 
	 "num_atms": 42, 
	 "gaussian": { 
		 "optdone": 1, 
		 "sigma_profile": "yes", 
		 "theory": "DFT", 
		 "functional": "B3LYP", 
		 "basiset": "6-31G**", 
		 "properties": { 
			 "R2extent": 9397.0061, 
			 "electric_dipole_moment_norm": 2.49048586625, 
			 "electric_quadrupole_moment_norm": 10.7057324691, 
			 "total_energy": -1057.14975381, 
			 "HOMO_LUMO_gap": 0.19912, 
			 "cosmo_polarized_energy": -14.62, 
			 "cosmo_cavitation_energy": 45.57, 
			 "cosmo_dispersion_energy": -30.06, 
			 "cosmo_repulsion_energy": 2.24, 
			 "cosmo_total_nonelectrostatic_energy": 17.74, 
			 "SMD_solvation_energy": 9.56 
		},
		"coords": [
			{
				"x": 0.306328764,
				"y": -3.1322393587,
				"z": 0.88277229,
				"element": "C" 
			},
			{
				"x": -0.8793006652,
				"y": -2.5350107143,
				"z": 0.1092626515,
				"element": "C" 
			},
			{
				"x": -0.8440893454,
				"y": -2.987284673,
				"z": -1.3656500858,
				"element": "C" 
			},
			{
				"x": -2.1879598285,
				"y": -3.0270410357,
				"z": 0.7435771188,
				"element": "C" 
			},
			{
				"x": -0.7445924316,
				"y": -1.0241847535,
				"z": 0.1604903714,
				"element": "N" 
			},
			{
				"x": 0.4368857496,
				"y": -0.5795054937,
				"z": -0.459038855,
				"element": "N" 
			},
			{
				"x": 1.3861934042,
				"y": 0.0508137799,
				"z": 0.3369971341,
				"element": "C" 
			},
			{
				"x": 1.4761525633,
				"y": -0.1423377119,
				"z": 1.5400427622,
				"element": "O" 
			},
			{
				"x": 2.3499325654,
				"y": 0.9217036108,
				"z": -0.4156683521,
				"element": "C" 
			},
			{
				"x": 1.9692429322,
				"y": 1.6814644637,
				"z": -1.531684589,
				"element": "C" 
			},
			{
				"x": 2.9012857351,
				"y": 2.5002357994,
				"z": -2.1706315486,
				"element": "C" 
			},
			{
				"x": 4.2154627603,
				"y": 2.5620132596,
				"z": -1.7039997266,
				"element": "C" 
			},
			{
				"x": 4.5943494666,
				"y": 1.8183779158,
				"z": -0.5825367471,
				"element": "C" 
			},
			{
				"x": 3.6633715615,
				"y": 1.0101865125,
				"z": 0.0649985975,
				"element": "C" 
			},
			{
				"x": -1.8066886492,
				"y": -0.1264847453,
				"z": -0.098313784,
				"element": "C" 
			},
			{
				"x": -1.7418693024,
				"y": 0.6808811035,
				"z": -1.0210349628,
				"element": "O" 
			},
			{
				"x": -2.9292757779,
				"y": -0.0765856011,
				"z": 0.8800049834,
				"element": "C" 
			},
			{
				"x": -4.2110268352,
				"y": 0.2772978752,
				"z": 0.4335557846,
				"element": "C" 
			},
			{
				"x": -5.2563920159,
				"y": 0.4286858468,
				"z": 1.3388801643,
				"element": "C" 
			},
			{
				"x": -4.991549223,
				"y": 0.258336635,
				"z": 2.6959288081,
				"element": "C" 
			},
			{
				"x": -5.9978571154,
				"y": 0.4133658915,
				"z": 3.5771885004,
				"element": "F" 
			},
			{
				"x": -3.7222963604,
				"y": -0.0537342456,
				"z": 3.1725113362,
				"element": "C" 
			},
			{
				"x": -2.6882848552,
				"y": -0.2246761027,
				"z": 2.254235668,
				"element": "C" 
			},
			{
				"x": 0.3156958297,
				"y": -2.7731266421,
				"z": 1.9141577614,
				"element": "H" 
			},
			{
				"x": 0.2294863255,
				"y": -4.2242756004,
				"z": 0.8851250585,
				"element": "H" 
			},
			{
				"x": 1.2580041978,
				"y": -2.8588044446,
				"z": 0.4230647519,
				"element": "H" 
			},
			{
				"x": -0.9095602721,
				"y": -4.0782459636,
				"z": -1.424317504,
				"element": "H" 
			},
			{
				"x": 0.0865770694,
				"y": -2.6822747444,
				"z": -1.8505683301,
				"element": "H" 
			},
			{
				"x": -1.6855228512,
				"y": -2.5673828235,
				"z": -1.9274902477,
				"element": "H" 
			},
			{
				"x": -3.0756620876,
				"y": -2.648854862,
				"z": 0.2311164373,
				"element": "H" 
			},
			{
				"x": -2.2031108849,
				"y": -4.1184590882,
				"z": 0.6686303444,
				"element": "H" 
			},
			{
				"x": -2.2608666747,
				"y": -2.7628185386,
				"z": 1.7996732876,
				"element": "H" 
			},
			{
				"x": 0.2860757369,
				"y": -0.2078395444,
				"z": -1.3897932251,
				"element": "H" 
			},
			{
				"x": 0.9374681132,
				"y": 1.677150149,
				"z": -1.8736914875,
				"element": "H" 
			},
			{
				"x": 2.5978755496,
				"y": 3.0962709438,
				"z": -3.0262887282,
				"element": "H" 
			},
			{
				"x": 4.9404578677,
				"y": 3.1964339913,
				"z": -2.2059225914,
				"element": "H" 
			},
			{
				"x": 5.6137924609,
				"y": 1.874004744,
				"z": -0.2119261976,
				"element": "H" 
			},
			{
				"x": 3.9309604786,
				"y": 0.4400740189,
				"z": 0.9485163585,
				"element": "H" 
			},
			{
				"x": -4.3751798239,
				"y": 0.4330115818,
				"z": -0.6275565998,
				"element": "H" 
			},
			{
				"x": -6.2599581452,
				"y": 0.6851159319,
				"z": 1.0176790099,
				"element": "H" 
			},
			{
				"x": -3.5588706813,
				"y": -0.1478717077,
				"z": 4.2404412063,
				"element": "H" 
			},
			{
				"x": -1.6802853051,
				"y": -0.4423856597,
				"z": 2.592063176,
				"element": "H" 
			}
		],
		 "valence_orbital": [ 
			{
				"type": "occ",
				"energy": -0.26302,
				"method": "rhf"
			},
			{
				"type": "occ",
				"energy": -0.259,
				"method": "rhf"
			},
			{
				"type": "occ",
				"energy": -0.25371,
				"method": "rhf"
			},
			{
				"type": "occ",
				"energy": -0.24822,
				"method": "rhf"
			},
			{
				"type": "occ",
				"energy": -0.24628,
				"method": "rhf"
			},
			{
				"type": "unocc",
				"energy": -0.04716,
				"method": "rhf"
			},
			{
				"type": "unocc",
				"energy": -0.035,
				"method": "rhf"
			},
			{
				"type": "unocc",
				"energy": -0.02027,
				"method": "rhf"
			},
			{
				"type": "unocc",
				"energy": -0.00873,
				"method": "rhf"
			},
			{
				"type": "unocc",
				"energy": 0.02778,
				"method": "rhf"
			}
		],
		"cosmo_sigma_profile": { 
			"-0.025": 0.0,
			"-0.024": 0.0,
			"-0.023": 0.0,
			"-0.022": 0.0,
			"-0.021": 0.0,
			"-0.02": 0.0,
			"-0.019": 0.0,
			"-0.018": 0.0,
			"-0.017": 0.0,
			"-0.016": 0.0,
			"-0.015": 0.0,
			"-0.014": 0.0,
			"-0.013": 0.0,
			"-0.012": 0.0751583315877,
			"-0.011": 0.451262894463,
			"-0.01": 0.89748029162,
			"-0.009": 0.646276114419,
			"-0.008": 2.876235031,
			"-0.007": 6.9284167771,
			"-0.006": 16.3580369958,
			"-0.005": 22.5146221374,
			"-0.004": 26.8520735704,
			"-0.003": 28.6360002686,
			"-0.002": 32.7413778021,
			"-0.001": 35.8144812767,
			"0.0": 42.4998581559,
			"0.001": 33.0542979629,
			"0.002": 24.712727052,
			"0.003": 21.8958831314,
			"0.004": 26.2690118658,
			"0.005": 5.97142516484,
			"0.006": 3.62638221634,
			"0.007": 3.51507883295,
			"0.008": 3.59332719107,
			"0.009": 3.71897571564,
			"0.01": 4.4232899431,
			"0.011": 4.31594564445,
			"0.012": 4.85193751122,
			"0.013": 3.81937378956,
			"0.014": 0.454867967556,
			"0.015": 0.0,
			"0.016": 0.0,
			"0.017": 0.0,
			"0.018": 0.0,
			"0.019": 0.0,
			"0.02": 0.0,
			"0.021": 0.0,
			"0.022": 0.0,
			"0.023": 0.0,
			"0.024": 0.0,
			"0.025": 0.0
		}
	}
}
