{
	 "smiles": "CCC1=CN=C(C)C=C1", 
	 "Tm": 202.15, 
	 "num_atms": 20, 
	 "gaussian": { 
		 "optdone": 1, 
		 "sigma_profile": "yes", 
		 "theory": "DFT", 
		 "functional": "B3LYP", 
		 "basiset": "6-31G**", 
		 "properties": { 
			 "R2extent": 1623.6806, 
			 "electric_dipole_moment_norm": 2.02136226837, 
			 "electric_quadrupole_moment_norm": 5.85931388475, 
			 "total_energy": -366.245573169, 
			 "HOMO_LUMO_gap": 0.22494, 
			 "cosmo_polarized_energy": -5.65, 
			 "cosmo_cavitation_energy": 23.02, 
			 "cosmo_dispersion_energy": -16.8, 
			 "cosmo_repulsion_energy": 1.39, 
			 "cosmo_total_nonelectrostatic_energy": 7.61, 
			 "SMD_solvation_energy": 2.72 
		},
		"coords": [
			{
				"x": 1.4236574517,
				"y": -0.3629150446,
				"z": 2.1556307165,
				"element": "C" 
			},
			{
				"x": 1.2726538345,
				"y": 0.4819373338,
				"z": 0.8777046705,
				"element": "C" 
			},
			{
				"x": 0.1334751944,
				"y": 0.0226398482,
				"z": -0.0037086235,
				"element": "C" 
			},
			{
				"x": -1.1202438348,
				"y": 0.6406224315,
				"z": 0.0390600203,
				"element": "C" 
			},
			{
				"x": -2.1818372287,
				"y": 0.2685911465,
				"z": -0.6869825375,
				"element": "N" 
			},
			{
				"x": -2.0461124172,
				"y": -0.7719313124,
				"z": -1.5228383824,
				"element": "C" 
			},
			{
				"x": -3.2587687562,
				"y": -1.1698111199,
				"z": -2.3293044535,
				"element": "C" 
			},
			{
				"x": -0.8293314336,
				"y": -1.4600000769,
				"z": -1.647264405,
				"element": "C" 
			},
			{
				"x": 0.2612090953,
				"y": -1.0594560525,
				"z": -0.8842307338,
				"element": "C" 
			},
			{
				"x": 0.5144368494,
				"y": -0.3185501826,
				"z": 2.7636696324,
				"element": "H" 
			},
			{
				"x": 1.6086051159,
				"y": -1.4146473572,
				"z": 1.9132306785,
				"element": "H" 
			},
			{
				"x": 2.2593347709,
				"y": -0.0043833555,
				"z": 2.7656322703,
				"element": "H" 
			},
			{
				"x": 1.115864887,
				"y": 1.531160092,
				"z": 1.1545318155,
				"element": "H" 
			},
			{
				"x": 2.2109123149,
				"y": 0.44837948,
				"z": 0.3100308533,
				"element": "H" 
			},
			{
				"x": -1.2756353076,
				"y": 1.494553917,
				"z": 0.6994509505,
				"element": "H" 
			},
			{
				"x": -4.093468726,
				"y": -0.5118186216,
				"z": -2.082595349,
				"element": "H" 
			},
			{
				"x": -3.0627332744,
				"y": -1.0998333536,
				"z": -3.4055902882,
				"element": "H" 
			},
			{
				"x": -3.5537928317,
				"y": -2.2049433834,
				"z": -2.1215477024,
				"element": "H" 
			},
			{
				"x": -0.7446315976,
				"y": -2.2945807133,
				"z": -2.3379655925,
				"element": "H" 
			},
			{
				"x": 1.2123058939,
				"y": -1.5803136755,
				"z": -0.9731135399,
				"element": "H" 
			}
		],
		 "valence_orbital": [ 
			{
				"type": "occ",
				"energy": -0.34934,
				"method": "rhf"
			},
			{
				"type": "occ",
				"energy": -0.33899,
				"method": "rhf"
			},
			{
				"type": "occ",
				"energy": -0.27548,
				"method": "rhf"
			},
			{
				"type": "occ",
				"energy": -0.24384,
				"method": "rhf"
			},
			{
				"type": "occ",
				"energy": -0.23998,
				"method": "rhf"
			},
			{
				"type": "unocc",
				"energy": -0.01504,
				"method": "rhf"
			},
			{
				"type": "unocc",
				"energy": -0.00365,
				"method": "rhf"
			},
			{
				"type": "unocc",
				"energy": 0.09537,
				"method": "rhf"
			},
			{
				"type": "unocc",
				"energy": 0.11388,
				"method": "rhf"
			},
			{
				"type": "unocc",
				"energy": 0.13028,
				"method": "rhf"
			}
		],
		"cosmo_sigma_profile": { 
			"-0.025": 0.0,
			"-0.024": 0.0,
			"-0.023": 0.0,
			"-0.022": 0.0,
			"-0.021": 0.0,
			"-0.02": 0.0,
			"-0.019": 0.0,
			"-0.018": 0.0,
			"-0.017": 0.0,
			"-0.016": 0.0,
			"-0.015": 0.0,
			"-0.014": 0.0,
			"-0.013": 0.0,
			"-0.012": 0.0,
			"-0.011": 0.0,
			"-0.01": 0.0,
			"-0.009": 0.0,
			"-0.008": 0.0,
			"-0.007": 0.183616857052,
			"-0.006": 3.71130785967,
			"-0.005": 7.94945124697,
			"-0.004": 16.0406283495,
			"-0.003": 21.4120419564,
			"-0.002": 22.5757842236,
			"-0.001": 21.8270068933,
			"0.0": 23.0884419396,
			"0.001": 17.7166359155,
			"0.002": 9.77980944061,
			"0.003": 11.9646207264,
			"0.004": 9.35271430856,
			"0.005": 2.76511478412,
			"0.006": 1.61592408524,
			"0.007": 1.42375595876,
			"0.008": 1.61130276368,
			"0.009": 1.59201561684,
			"0.01": 1.21197533183,
			"0.011": 0.932570897475,
			"0.012": 0.936103712008,
			"0.013": 0.924751863537,
			"0.014": 0.407425915746,
			"0.015": 1.05152960768,
			"0.016": 0.651590411781,
			"0.017": 0.549365986923,
			"0.018": 0.0235827083217,
			"0.019": 0.0,
			"0.02": 0.0,
			"0.021": 0.0,
			"0.022": 0.0,
			"0.023": 0.0,
			"0.024": 0.0,
			"0.025": 0.0
		}
	}
}
