{
	 "smiles": "BrC1CCCNC1=O", 
	 "Tm": 323.15, 
	 "num_atms": 16, 
	 "gaussian": { 
		 "optdone": 1, 
		 "sigma_profile": "yes", 
		 "theory": "DFT", 
		 "functional": "B3LYP", 
		 "basiset": "6-31G**", 
		 "properties": { 
			 "R2extent": 2578.2748, 
			 "electric_dipole_moment_norm": 5.33448510542, 
			 "electric_quadrupole_moment_norm": 12.3618766197, 
			 "total_energy": -2896.75073936, 
			 "HOMO_LUMO_gap": 0.23681, 
			 "cosmo_polarized_energy": -14.12, 
			 "cosmo_cavitation_energy": 20.6, 
			 "cosmo_dispersion_energy": -16.1, 
			 "cosmo_repulsion_energy": 1.35, 
			 "cosmo_total_nonelectrostatic_energy": 5.85, 
			 "SMD_solvation_energy": 1.98 
		},
		"coords": [
			{
				"x": -1.4001656366,
				"y": 2.817095841,
				"z": 1.6826473343,
				"element": "Br" 
			},
			{
				"x": -0.1449636569,
				"y": 1.9207746722,
				"z": 0.4497147695,
				"element": "C" 
			},
			{
				"x": -0.8648798892,
				"y": 0.831138938,
				"z": -0.3430681498,
				"element": "C" 
			},
			{
				"x": 0.1563598616,
				"y": 0.0403559829,
				"z": -1.1693253379,
				"element": "C" 
			},
			{
				"x": 1.1542685042,
				"y": -0.6437043398,
				"z": -0.2380604544,
				"element": "C" 
			},
			{
				"x": 1.6956106042,
				"y": 0.3122117434,
				"z": 0.7256885681,
				"element": "N" 
			},
			{
				"x": 1.1022918952,
				"y": 1.4464921922,
				"z": 1.2191127037,
				"element": "C" 
			},
			{
				"x": 1.5916959752,
				"y": 2.076209729,
				"z": 2.1413431538,
				"element": "O" 
			},
			{
				"x": 0.1861927886,
				"y": 2.7232394008,
				"z": -0.2147430307,
				"element": "H" 
			},
			{
				"x": -1.6295022264,
				"y": 1.2842383634,
				"z": -0.9802152817,
				"element": "H" 
			},
			{
				"x": -1.3827693654,
				"y": 0.1576678421,
				"z": 0.3498032788,
				"element": "H" 
			},
			{
				"x": -0.3477925216,
				"y": -0.7152370102,
				"z": -1.780497002,
				"element": "H" 
			},
			{
				"x": 0.6883583578,
				"y": 0.7114139003,
				"z": -1.8552016218,
				"element": "H" 
			},
			{
				"x": 0.6590233612,
				"y": -1.4767014415,
				"z": 0.2841036304,
				"element": "H" 
			},
			{
				"x": 1.9869915598,
				"y": -1.0693670866,
				"z": -0.8085381171,
				"element": "H" 
			},
			{
				"x": 2.5144803884,
				"y": 0.0431712729,
				"z": 1.2567355568,
				"element": "H" 
			}
		],
		 "valence_orbital": [ 
			{
				"type": "occ",
				"energy": -0.34602,
				"method": "rhf"
			},
			{
				"type": "occ",
				"energy": -0.2727,
				"method": "rhf"
			},
			{
				"type": "occ",
				"energy": -0.26863,
				"method": "rhf"
			},
			{
				"type": "occ",
				"energy": -0.25723,
				"method": "rhf"
			},
			{
				"type": "occ",
				"energy": -0.2498,
				"method": "rhf"
			},
			{
				"type": "unocc",
				"energy": -0.01299,
				"method": "rhf"
			},
			{
				"type": "unocc",
				"energy": 0.02682,
				"method": "rhf"
			},
			{
				"type": "unocc",
				"energy": 0.0798,
				"method": "rhf"
			},
			{
				"type": "unocc",
				"energy": 0.10102,
				"method": "rhf"
			},
			{
				"type": "unocc",
				"energy": 0.10763,
				"method": "rhf"
			}
		],
		"cosmo_sigma_profile": { 
			"-0.025": 0.0,
			"-0.024": 0.0,
			"-0.023": 0.0,
			"-0.022": 0.0,
			"-0.021": 0.0,
			"-0.02": 0.0,
			"-0.019": 0.0,
			"-0.018": 0.0,
			"-0.017": 0.0,
			"-0.016": 0.0,
			"-0.015": 0.0,
			"-0.014": 0.699364786533,
			"-0.013": 1.19767247084,
			"-0.012": 1.23485322787,
			"-0.011": 0.5766383685,
			"-0.01": 0.679396959605,
			"-0.009": 2.05883650186,
			"-0.008": 4.10821055904,
			"-0.007": 3.33254711264,
			"-0.006": 4.72069110286,
			"-0.005": 14.8705225416,
			"-0.004": 21.6009512114,
			"-0.003": 18.6409621956,
			"-0.002": 13.3699485658,
			"-0.001": 9.65841418483,
			"0.0": 5.93567447816,
			"0.001": 5.10885664328,
			"0.002": 5.44389130354,
			"0.003": 5.65415649703,
			"0.004": 6.67276903645,
			"0.005": 7.28030047637,
			"0.006": 8.7322333664,
			"0.007": 2.48246111144,
			"0.008": 2.14278053183,
			"0.009": 1.44111682726,
			"0.01": 1.68207129264,
			"0.011": 2.04580010107,
			"0.012": 2.02428970853,
			"0.013": 5.01621907188,
			"0.014": 5.29702602319,
			"0.015": 0.697369701977,
			"0.016": 0.0,
			"0.017": 0.0,
			"0.018": 0.0,
			"0.019": 0.0,
			"0.02": 0.0,
			"0.021": 0.0,
			"0.022": 0.0,
			"0.023": 0.0,
			"0.024": 0.0,
			"0.025": 0.0
		}
	}
}
