{
	 "smiles": "CC(=O)NCC1=CC=C(O1)C(O)=O", 
	 "Tm": 445.15, 
	 "num_atms": 22, 
	 "gaussian": { 
		 "optdone": 1, 
		 "sigma_profile": "yes", 
		 "theory": "DFT", 
		 "functional": "B3LYP", 
		 "basiset": "6-31G**", 
		 "properties": { 
			 "R2extent": 3667.7731, 
			 "electric_dipole_moment_norm": 6.48674378174, 
			 "electric_quadrupole_moment_norm": 19.6779828786, 
			 "total_energy": -665.927578407, 
			 "HOMO_LUMO_gap": 0.19484, 
			 "cosmo_polarized_energy": -21.38, 
			 "cosmo_cavitation_energy": 27.88, 
			 "cosmo_dispersion_energy": -19.58, 
			 "cosmo_repulsion_energy": 1.6, 
			 "cosmo_total_nonelectrostatic_energy": 9.9, 
			 "SMD_solvation_energy": 6.93 
		},
		"coords": [
			{
				"x": -3.3858928143,
				"y": -2.5402141978,
				"z": 0.3283235828,
				"element": "C" 
			},
			{
				"x": -2.8747428828,
				"y": -1.3057145788,
				"z": 1.052586937,
				"element": "C" 
			},
			{
				"x": -3.0281187792,
				"y": -1.1444777543,
				"z": 2.2556085621,
				"element": "O" 
			},
			{
				"x": -2.2368914004,
				"y": -0.3820970437,
				"z": 0.259577984,
				"element": "N" 
			},
			{
				"x": -1.6180941445,
				"y": 0.8084021549,
				"z": 0.8262381355,
				"element": "C" 
			},
			{
				"x": -0.1250060144,
				"y": 0.7456091312,
				"z": 0.858917568,
				"element": "C" 
			},
			{
				"x": 0.8618881509,
				"y": 1.4615117459,
				"z": 0.2359113361,
				"element": "C" 
			},
			{
				"x": 2.1069160317,
				"y": 0.9176612257,
				"z": 0.6726439917,
				"element": "C" 
			},
			{
				"x": 1.799543508,
				"y": -0.0984230628,
				"z": 1.5323818671,
				"element": "C" 
			},
			{
				"x": 0.4354266683,
				"y": -0.2112179931,
				"z": 1.6547837908,
				"element": "O" 
			},
			{
				"x": 2.642382836,
				"y": -1.029681868,
				"z": 2.3004687325,
				"element": "C" 
			},
			{
				"x": 1.974434026,
				"y": -1.9074515542,
				"z": 3.0867835671,
				"element": "O" 
			},
			{
				"x": 3.8502653093,
				"y": -1.0189917805,
				"z": 2.2378961292,
				"element": "O" 
			},
			{
				"x": -3.2766459594,
				"y": -2.4930068253,
				"z": -0.7585936768,
				"element": "H" 
			},
			{
				"x": -2.8460237239,
				"y": -3.4156732825,
				"z": 0.7009836028,
				"element": "H" 
			},
			{
				"x": -4.4407870568,
				"y": -2.6781084246,
				"z": 0.5771261812,
				"element": "H" 
			},
			{
				"x": -2.0582891229,
				"y": -0.6024354427,
				"z": -0.7087429136,
				"element": "H" 
			},
			{
				"x": -2.0184547326,
				"y": 0.892883339,
				"z": 1.8412234634,
				"element": "H" 
			},
			{
				"x": -1.9157650804,
				"y": 1.697987119,
				"z": 0.2615410384,
				"element": "H" 
			},
			{
				"x": 0.7119317028,
				"y": 2.2822302437,
				"z": -0.4512442616,
				"element": "H" 
			},
			{
				"x": 3.1047433433,
				"y": 1.2245036164,
				"z": 0.3971105694,
				"element": "H" 
			},
			{
				"x": 1.0184801353,
				"y": -1.7530947673,
				"z": 3.0187738129,
				"element": "H" 
			}
		],
		 "valence_orbital": [ 
			{
				"type": "occ",
				"energy": -0.30332,
				"method": "rhf"
			},
			{
				"type": "occ",
				"energy": -0.27773,
				"method": "rhf"
			},
			{
				"type": "occ",
				"energy": -0.27372,
				"method": "rhf"
			},
			{
				"type": "occ",
				"energy": -0.26153,
				"method": "rhf"
			},
			{
				"type": "occ",
				"energy": -0.24608,
				"method": "rhf"
			},
			{
				"type": "unocc",
				"energy": -0.05124,
				"method": "rhf"
			},
			{
				"type": "unocc",
				"energy": 0.01394,
				"method": "rhf"
			},
			{
				"type": "unocc",
				"energy": 0.02995,
				"method": "rhf"
			},
			{
				"type": "unocc",
				"energy": 0.06327,
				"method": "rhf"
			},
			{
				"type": "unocc",
				"energy": 0.07954,
				"method": "rhf"
			}
		],
		"cosmo_sigma_profile": { 
			"-0.025": 0.0,
			"-0.024": 0.0,
			"-0.023": 0.0,
			"-0.022": 0.0,
			"-0.021": 0.0,
			"-0.02": 0.0,
			"-0.019": 0.0,
			"-0.018": 0.0,
			"-0.017": 0.0,
			"-0.016": 0.658853803142,
			"-0.015": 0.990451978324,
			"-0.014": 2.226908683,
			"-0.013": 1.93645870372,
			"-0.012": 1.86652834908,
			"-0.011": 2.29223386663,
			"-0.01": 2.13868775207,
			"-0.009": 3.40544711337,
			"-0.008": 6.52977079354,
			"-0.007": 10.7974625457,
			"-0.006": 10.9730083918,
			"-0.005": 13.577466546,
			"-0.004": 13.664026376,
			"-0.003": 16.4861750332,
			"-0.002": 16.7017546105,
			"-0.001": 14.6939153158,
			"0.0": 12.8628839206,
			"0.001": 12.7124416438,
			"0.002": 12.9037837979,
			"0.003": 8.38414303658,
			"0.004": 4.69200678819,
			"0.005": 4.6055089542,
			"0.006": 2.91831584478,
			"0.007": 3.87434321377,
			"0.008": 4.76537014997,
			"0.009": 4.41024780954,
			"0.01": 6.5112985898,
			"0.011": 6.36503808769,
			"0.012": 7.32806480126,
			"0.013": 5.33331170382,
			"0.014": 4.11928306332,
			"0.015": 1.21687318195,
			"0.016": 0.0,
			"0.017": 0.0,
			"0.018": 0.0,
			"0.019": 0.0,
			"0.02": 0.0,
			"0.021": 0.0,
			"0.022": 0.0,
			"0.023": 0.0,
			"0.024": 0.0,
			"0.025": 0.0
		}
	}
}
