{
	 "smiles": "N#CCCN1C=CN=C1C1=CC=CC=C1", 
	 "Tm": 373.15, 
	 "num_atms": 26, 
	 "gaussian": { 
		 "optdone": 1, 
		 "sigma_profile": "yes", 
		 "theory": "DFT", 
		 "functional": "B3LYP", 
		 "basiset": "6-31G**", 
		 "properties": { 
			 "R2extent": 3842.5479, 
			 "electric_dipole_moment_norm": 4.68924961161, 
			 "electric_quadrupole_moment_norm": 12.6605790448, 
			 "total_energy": -628.138866967, 
			 "HOMO_LUMO_gap": 0.18836, 
			 "cosmo_polarized_energy": -18.11, 
			 "cosmo_cavitation_energy": 30.96, 
			 "cosmo_dispersion_energy": -21.19, 
			 "cosmo_repulsion_energy": 1.66, 
			 "cosmo_total_nonelectrostatic_energy": 11.43, 
			 "SMD_solvation_energy": 4.94 
		},
		"coords": [
			{
				"x": 2.2888368652,
				"y": 0.3928217177,
				"z": -2.9878584996,
				"element": "N" 
			},
			{
				"x": 2.0114764705,
				"y": 0.5529862685,
				"z": -1.872270998,
				"element": "C" 
			},
			{
				"x": 1.6422233672,
				"y": 0.7834178888,
				"z": -0.4739052902,
				"element": "C" 
			},
			{
				"x": 0.1144625651,
				"y": 0.8781460948,
				"z": -0.2411354185,
				"element": "C" 
			},
			{
				"x": -0.5781864509,
				"y": -0.390766903,
				"z": -0.4025517519,
				"element": "N" 
			},
			{
				"x": -0.8324798533,
				"y": -0.9918254901,
				"z": -1.6248613629,
				"element": "C" 
			},
			{
				"x": -1.2443438998,
				"y": -2.2663522502,
				"z": -1.3365899088,
				"element": "C" 
			},
			{
				"x": -1.2478946341,
				"y": -2.479035756,
				"z": 0.0196311972,
				"element": "N" 
			},
			{
				"x": -0.8453379427,
				"y": -1.3454359818,
				"z": 0.5681052713,
				"element": "C" 
			},
			{
				"x": -0.7133637962,
				"y": -1.1396704068,
				"z": 2.0222017893,
				"element": "C" 
			},
			{
				"x": -1.1936108966,
				"y": 0.0101394308,
				"z": 2.672566706,
				"element": "C" 
			},
			{
				"x": -1.0668606114,
				"y": 0.148982963,
				"z": 4.0551128628,
				"element": "C" 
			},
			{
				"x": -0.4745653307,
				"y": -0.8637680087,
				"z": 4.8111146541,
				"element": "C" 
			},
			{
				"x": -0.0199843512,
				"y": -2.023130864,
				"z": 4.1773598146,
				"element": "C" 
			},
			{
				"x": -0.1375800482,
				"y": -2.1613235308,
				"z": 2.7960956442,
				"element": "C" 
			},
			{
				"x": 2.1068796994,
				"y": 1.7215477877,
				"z": -0.1481152454,
				"element": "H" 
			},
			{
				"x": 2.0584332652,
				"y": -0.0178044844,
				"z": 0.1460898196,
				"element": "H" 
			},
			{
				"x": -0.3230732488,
				"y": 1.6113645096,
				"z": -0.9246293901,
				"element": "H" 
			},
			{
				"x": -0.041837377,
				"y": 1.2329495847,
				"z": 0.7764368775,
				"element": "H" 
			},
			{
				"x": -0.6823675082,
				"y": -0.4669452761,
				"z": -2.5556596206,
				"element": "H" 
			},
			{
				"x": -1.550275922,
				"y": -3.0376356677,
				"z": -2.0297266847,
				"element": "H" 
			},
			{
				"x": -1.7088009905,
				"y": 0.7788167396,
				"z": 2.1035412802,
				"element": "H" 
			},
			{
				"x": -1.4486076976,
				"y": 1.0413439783,
				"z": 4.5428998333,
				"element": "H" 
			},
			{
				"x": -0.3789415233,
				"y": -0.7560143337,
				"z": 5.887588066,
				"element": "H" 
			},
			{
				"x": 0.4293492692,
				"y": -2.82146321,
				"z": 4.7610279372,
				"element": "H" 
			},
			{
				"x": 0.205250581,
				"y": -3.0612448002,
				"z": 2.2965324175,
				"element": "H" 
			}
		],
		 "valence_orbital": [ 
			{
				"type": "occ",
				"energy": -0.27856,
				"method": "rhf"
			},
			{
				"type": "occ",
				"energy": -0.2719,
				"method": "rhf"
			},
			{
				"type": "occ",
				"energy": -0.26509,
				"method": "rhf"
			},
			{
				"type": "occ",
				"energy": -0.25882,
				"method": "rhf"
			},
			{
				"type": "occ",
				"energy": -0.21716,
				"method": "rhf"
			},
			{
				"type": "unocc",
				"energy": -0.0288,
				"method": "rhf"
			},
			{
				"type": "unocc",
				"energy": -0.01191,
				"method": "rhf"
			},
			{
				"type": "unocc",
				"energy": 0.01577,
				"method": "rhf"
			},
			{
				"type": "unocc",
				"energy": 0.02735,
				"method": "rhf"
			},
			{
				"type": "unocc",
				"energy": 0.03651,
				"method": "rhf"
			}
		],
		"cosmo_sigma_profile": { 
			"-0.025": 0.0,
			"-0.024": 0.0,
			"-0.023": 0.0,
			"-0.022": 0.0,
			"-0.021": 0.0,
			"-0.02": 0.0,
			"-0.019": 0.0,
			"-0.018": 0.0,
			"-0.017": 0.0,
			"-0.016": 0.0,
			"-0.015": 0.0,
			"-0.014": 0.0,
			"-0.013": 0.0,
			"-0.012": 0.0,
			"-0.011": 0.0,
			"-0.01": 0.357406940603,
			"-0.009": 5.14071628265,
			"-0.008": 11.9267419885,
			"-0.007": 13.7387972213,
			"-0.006": 21.1247936929,
			"-0.005": 19.6179150689,
			"-0.004": 17.1179843862,
			"-0.003": 14.2093385153,
			"-0.002": 13.0107485784,
			"-0.001": 11.724748796,
			"0.0": 10.3377196036,
			"0.001": 11.0131585345,
			"0.002": 12.6851984414,
			"0.003": 13.8797245512,
			"0.004": 15.4948433006,
			"0.005": 17.321653392,
			"0.006": 7.2353252335,
			"0.007": 4.59373041313,
			"0.008": 4.48116783574,
			"0.009": 4.65754394258,
			"0.01": 4.79461152999,
			"0.011": 4.17457956379,
			"0.012": 3.34336107147,
			"0.013": 3.00961326027,
			"0.014": 0.822542544553,
			"0.015": 0.939991791819,
			"0.016": 0.804509260749,
			"0.017": 1.06153324288,
			"0.018": 0.22164119635,
			"0.019": 0.0,
			"0.02": 0.0,
			"0.021": 0.0,
			"0.022": 0.0,
			"0.023": 0.0,
			"0.024": 0.0,
			"0.025": 0.0
		}
	}
}
