{
	 "smiles": "CC(=O)OC1=CC2=C(C=C1)C1(OC(=O)C3=C1C=CC=C3)C1=CC=C(OC(C)=O)C=C1O2", 
	 "Tm": 475.15, 
	 "num_atms": 47, 
	 "gaussian": { 
		 "optdone": 1, 
		 "sigma_profile": "yes", 
		 "theory": "DFT", 
		 "functional": "B3LYP", 
		 "basiset": "6-31G**", 
		 "properties": { 
			 "R2extent": 16137.5412, 
			 "electric_dipole_moment_norm": 4.00202087576, 
			 "electric_quadrupole_moment_norm": 40.3541325425, 
			 "total_energy": -1450.79762619, 
			 "HOMO_LUMO_gap": 0.17554, 
			 "cosmo_polarized_energy": -20.37, 
			 "cosmo_cavitation_energy": 53.12, 
			 "cosmo_dispersion_energy": -36.76, 
			 "cosmo_repulsion_energy": 2.77, 
			 "cosmo_total_nonelectrostatic_energy": 19.12, 
			 "SMD_solvation_energy": 12.67 
		},
		"coords": [
			{
				"x": 2.2638906867,
				"y": 1.3758031779,
				"z": -7.6114964812,
				"element": "C" 
			},
			{
				"x": 1.3692068494,
				"y": 1.1081004533,
				"z": -6.4276662795,
				"element": "C" 
			},
			{
				"x": 0.1959427339,
				"y": 1.3718388649,
				"z": -6.3475127693,
				"element": "O" 
			},
			{
				"x": 2.1010359681,
				"y": 0.5120687546,
				"z": -5.4287756555,
				"element": "O" 
			},
			{
				"x": 1.513811865,
				"y": 0.1465210709,
				"z": -4.2210828814,
				"element": "C" 
			},
			{
				"x": 2.2677774179,
				"y": 0.4041393606,
				"z": -3.0859931973,
				"element": "C" 
			},
			{
				"x": 1.784791089,
				"y": -0.0057692834,
				"z": -1.8396348361,
				"element": "C" 
			},
			{
				"x": 0.5552187896,
				"y": -0.6579968464,
				"z": -1.7126043223,
				"element": "C" 
			},
			{
				"x": -0.175553568,
				"y": -0.9023274813,
				"z": -2.8854651724,
				"element": "C" 
			},
			{
				"x": 0.2820978743,
				"y": -0.514639963,
				"z": -4.1370430283,
				"element": "C" 
			},
			{
				"x": 0.0453441743,
				"y": -1.1246163063,
				"z": -0.3644157716,
				"element": "C" 
			},
			{
				"x": -0.0388147671,
				"y": -2.6002257174,
				"z": -0.3868290425,
				"element": "O" 
			},
			{
				"x": -1.3183414938,
				"y": -3.0463876476,
				"z": -0.1679292868,
				"element": "C" 
			},
			{
				"x": -1.6073604909,
				"y": -4.2173759092,
				"z": -0.1434084572,
				"element": "O" 
			},
			{
				"x": -2.1821081298,
				"y": -1.8568885096,
				"z": 0.0150895847,
				"element": "C" 
			},
			{
				"x": -1.3983205115,
				"y": -0.7159618065,
				"z": -0.0977048469,
				"element": "C" 
			},
			{
				"x": -1.9638288073,
				"y": 0.5497265199,
				"z": 0.0318476871,
				"element": "C" 
			},
			{
				"x": -3.3373368784,
				"y": 0.628332492,
				"z": 0.2777156448,
				"element": "C" 
			},
			{
				"x": -4.1264100781,
				"y": -0.5278115778,
				"z": 0.3916273561,
				"element": "C" 
			},
			{
				"x": -3.5532665014,
				"y": -1.7919200184,
				"z": 0.260450592,
				"element": "C" 
			},
			{
				"x": 0.9913954126,
				"y": -0.7229252234,
				"z": 0.7489059527,
				"element": "C" 
			},
			{
				"x": 0.7040759487,
				"y": -1.0338317254,
				"z": 2.0879243525,
				"element": "C" 
			},
			{
				"x": 1.5733618623,
				"y": -0.7018451435,
				"z": 3.112652874,
				"element": "C" 
			},
			{
				"x": 2.7720117097,
				"y": -0.0368939978,
				"z": 2.812118775,
				"element": "C" 
			},
			{
				"x": 3.5537305056,
				"y": 0.223552213,
				"z": 3.9310217447,
				"element": "O" 
			},
			{
				"x": 4.7117000248,
				"y": 0.9534082061,
				"z": 3.9351435171,
				"element": "C" 
			},
			{
				"x": 5.2606041489,
				"y": 1.0019052383,
				"z": 5.3398424956,
				"element": "C" 
			},
			{
				"x": 5.2112296237,
				"y": 1.474034474,
				"z": 2.9674822938,
				"element": "O" 
			},
			{
				"x": 3.0964982529,
				"y": 0.2879990133,
				"z": 1.5008506977,
				"element": "C" 
			},
			{
				"x": 2.1963464549,
				"y": -0.0680450912,
				"z": 0.4871780606,
				"element": "C" 
			},
			{
				"x": 2.5925876504,
				"y": 0.2894412942,
				"z": -0.7748060859,
				"element": "O" 
			},
			{
				"x": 1.6835284482,
				"y": 1.8498453655,
				"z": -8.4020815429,
				"element": "H" 
			},
			{
				"x": 2.6956290549,
				"y": 0.4379440089,
				"z": -7.9732414449,
				"element": "H" 
			},
			{
				"x": 3.0942739864,
				"y": 2.0234367488,
				"z": -7.3155025883,
				"element": "H" 
			},
			{
				"x": 3.2249314185,
				"y": 0.9068784396,
				"z": -3.155980023,
				"element": "H" 
			},
			{
				"x": -1.1287498768,
				"y": -1.4159576749,
				"z": -2.8109865092,
				"element": "H" 
			},
			{
				"x": -0.3023332009,
				"y": -0.7082949591,
				"z": -5.0256265532,
				"element": "H" 
			},
			{
				"x": -1.3617896552,
				"y": 1.4490323166,
				"z": -0.0562356829,
				"element": "H" 
			},
			{
				"x": -3.8048948782,
				"y": 1.6031995136,
				"z": 0.3818496925,
				"element": "H" 
			},
			{
				"x": -5.1909705266,
				"y": -0.4315763984,
				"z": 0.5823366901,
				"element": "H" 
			},
			{
				"x": -4.1396389454,
				"y": -2.7016219451,
				"z": 0.3429146199,
				"element": "H" 
			},
			{
				"x": -0.2209530116,
				"y": -1.5505786576,
				"z": 2.3225146766,
				"element": "H" 
			},
			{
				"x": 1.3509306015,
				"y": -0.9468787704,
				"z": 4.1448945003,
				"element": "H" 
			},
			{
				"x": 4.5242330169,
				"y": 1.4440685158,
				"z": 6.0171975017,
				"element": "H" 
			},
			{
				"x": 6.1765043989,
				"y": 1.5915449012,
				"z": 5.3467900243,
				"element": "H" 
			},
			{
				"x": 5.4655858601,
				"y": -0.01169045,
				"z": 5.6969504512,
				"element": "H" 
			},
			{
				"x": 4.0101954928,
				"y": 0.8011401608,
				"z": 1.2458226738,
				"element": "H" 
			}
		],
		 "valence_orbital": [ 
			{
				"type": "occ",
				"energy": -0.27078,
				"method": "rhf"
			},
			{
				"type": "occ",
				"energy": -0.26708,
				"method": "rhf"
			},
			{
				"type": "occ",
				"energy": -0.2532,
				"method": "rhf"
			},
			{
				"type": "occ",
				"energy": -0.24359,
				"method": "rhf"
			},
			{
				"type": "occ",
				"energy": -0.22631,
				"method": "rhf"
			},
			{
				"type": "unocc",
				"energy": -0.05077,
				"method": "rhf"
			},
			{
				"type": "unocc",
				"energy": -0.03677,
				"method": "rhf"
			},
			{
				"type": "unocc",
				"energy": -0.03038,
				"method": "rhf"
			},
			{
				"type": "unocc",
				"energy": -0.01968,
				"method": "rhf"
			},
			{
				"type": "unocc",
				"energy": -0.01257,
				"method": "rhf"
			}
		],
		"cosmo_sigma_profile": { 
			"-0.025": 0.0,
			"-0.024": 0.0,
			"-0.023": 0.0,
			"-0.022": 0.0,
			"-0.021": 0.0,
			"-0.02": 0.0,
			"-0.019": 0.0,
			"-0.018": 0.0,
			"-0.017": 0.0,
			"-0.016": 0.0,
			"-0.015": 0.0,
			"-0.014": 0.0,
			"-0.013": 0.0,
			"-0.012": 0.0,
			"-0.011": 0.0,
			"-0.01": 0.0,
			"-0.009": 0.0,
			"-0.008": 1.96053037755,
			"-0.007": 22.1124974341,
			"-0.006": 32.1981435233,
			"-0.005": 32.8640050167,
			"-0.004": 28.4550084949,
			"-0.003": 34.069563889,
			"-0.002": 32.3166027643,
			"-0.001": 26.9536080151,
			"0.0": 28.0300891291,
			"0.001": 39.7913514805,
			"0.002": 42.0228580454,
			"0.003": 26.2430836743,
			"0.004": 13.1894178867,
			"0.005": 9.83160053682,
			"0.006": 7.09010654687,
			"0.007": 7.50259242333,
			"0.008": 5.89728557645,
			"0.009": 8.52228383236,
			"0.01": 9.18667950716,
			"0.011": 11.6630456061,
			"0.012": 6.51780650813,
			"0.013": 0.897800520892,
			"0.014": 0.0,
			"0.015": 0.0,
			"0.016": 0.0,
			"0.017": 0.0,
			"0.018": 0.0,
			"0.019": 0.0,
			"0.02": 0.0,
			"0.021": 0.0,
			"0.022": 0.0,
			"0.023": 0.0,
			"0.024": 0.0,
			"0.025": 0.0
		}
	}
}
