{
	 "smiles": "ClC1=CC=C(Cl)C(NN=C(C#N)C2=NC(=CS2)C2=CC=CC=C2)=C1", 
	 "Tm": 406.15, 
	 "num_atms": 34, 
	 "gaussian": { 
		 "optdone": 1, 
		 "sigma_profile": "yes", 
		 "theory": "DFT", 
		 "functional": "B3LYP", 
		 "basiset": "6-31G**", 
		 "properties": { 
			 "R2extent": 12039.4532, 
			 "electric_dipole_moment_norm": 6.08417318951, 
			 "electric_quadrupole_moment_norm": 23.702741194, 
			 "total_energy": -2191.36647696, 
			 "HOMO_LUMO_gap": 0.12855, 
			 "cosmo_polarized_energy": -11.88, 
			 "cosmo_cavitation_energy": 45.87, 
			 "cosmo_dispersion_energy": -32.22, 
			 "cosmo_repulsion_energy": 2.35, 
			 "cosmo_total_nonelectrostatic_energy": 16.0, 
			 "SMD_solvation_energy": 6.93 
		},
		"coords": [
			{
				"x": -4.9134961869,
				"y": 3.6708197662,
				"z": -1.5377841956,
				"element": "Cl" 
			},
			{
				"x": -4.0995064964,
				"y": 2.2147211559,
				"z": -0.9955656897,
				"element": "C" 
			},
			{
				"x": -4.8611409078,
				"y": 1.1392841679,
				"z": -0.5339903474,
				"element": "C" 
			},
			{
				"x": -4.2009147913,
				"y": -0.0097207374,
				"z": -0.1064070992,
				"element": "C" 
			},
			{
				"x": -2.8108071961,
				"y": -0.0791805153,
				"z": -0.1418506251,
				"element": "C" 
			},
			{
				"x": -2.0135015238,
				"y": -1.5409583767,
				"z": 0.4156240069,
				"element": "Cl" 
			},
			{
				"x": -2.0471212085,
				"y": 1.0052919253,
				"z": -0.6090913459,
				"element": "C" 
			},
			{
				"x": -0.6520375704,
				"y": 0.9223918025,
				"z": -0.6424267715,
				"element": "N" 
			},
			{
				"x": 0.0507621967,
				"y": 1.9705689867,
				"z": -1.0259869286,
				"element": "N" 
			},
			{
				"x": 1.3616254215,
				"y": 1.92093649,
				"z": -1.0465035324,
				"element": "C" 
			},
			{
				"x": 2.0165222718,
				"y": 3.1264714955,
				"z": -1.4691150798,
				"element": "C" 
			},
			{
				"x": 2.5934423745,
				"y": 4.0801722717,
				"z": -1.8030863066,
				"element": "N" 
			},
			{
				"x": 2.1977008837,
				"y": 0.7840822725,
				"z": -0.6791050411,
				"element": "C" 
			},
			{
				"x": 1.7247266597,
				"y": -0.3925667947,
				"z": -0.3310641565,
				"element": "N" 
			},
			{
				"x": 2.7297393311,
				"y": -1.28180225,
				"z": -0.008127723,
				"element": "C" 
			},
			{
				"x": 3.9963424231,
				"y": -0.7560735708,
				"z": -0.1217183369,
				"element": "C" 
			},
			{
				"x": 3.9529425231,
				"y": 0.8890911945,
				"z": -0.6374641267,
				"element": "S" 
			},
			{
				"x": 2.4050864463,
				"y": -2.6653980601,
				"z": 0.3899549608,
				"element": "C" 
			},
			{
				"x": 1.2327619255,
				"y": -3.2805344949,
				"z": -0.0771583847,
				"element": "C" 
			},
			{
				"x": 0.9347454434,
				"y": -4.5951547578,
				"z": 0.2775200819,
				"element": "C" 
			},
			{
				"x": 1.8003955712,
				"y": -5.3157199798,
				"z": 1.1029753479,
				"element": "C" 
			},
			{
				"x": 2.9671343476,
				"y": -4.7107915011,
				"z": 1.5753634134,
				"element": "C" 
			},
			{
				"x": 3.2663175628,
				"y": -3.3957785575,
				"z": 1.2247364304,
				"element": "C" 
			},
			{
				"x": -2.7125392948,
				"y": 2.1642596316,
				"z": -1.0390329288,
				"element": "C" 
			},
			{
				"x": -5.9425409636,
				"y": 1.199141791,
				"z": -0.508861191,
				"element": "H" 
			},
			{
				"x": -4.7634019639,
				"y": -0.8610828832,
				"z": 0.260126589,
				"element": "H" 
			},
			{
				"x": -0.1598978091,
				"y": 0.0656611986,
				"z": -0.3599986266,
				"element": "H" 
			},
			{
				"x": 4.9393143145,
				"y": -1.2589787599,
				"z": 0.0342332731,
				"element": "H" 
			},
			{
				"x": 0.5653842732,
				"y": -2.7258092515,
				"z": -0.7269649513,
				"element": "H" 
			},
			{
				"x": 0.0265374045,
				"y": -5.0589634428,
				"z": -0.0963787995,
				"element": "H" 
			},
			{
				"x": 1.5660652108,
				"y": -6.3394183823,
				"z": 1.3795774852,
				"element": "H" 
			},
			{
				"x": 3.6406702399,
				"y": -5.2598535531,
				"z": 2.2268774423,
				"element": "H" 
			},
			{
				"x": 4.1608925366,
				"y": -2.9243047974,
				"z": 1.6211685536,
				"element": "H" 
			},
			{
				"x": -2.1298034488,
				"y": 3.0020965165,
				"z": -1.3979753965,
				"element": "H" 
			}
		],
		 "valence_orbital": [ 
			{
				"type": "occ",
				"energy": -0.28842,
				"method": "rhf"
			},
			{
				"type": "occ",
				"energy": -0.26331,
				"method": "rhf"
			},
			{
				"type": "occ",
				"energy": -0.25961,
				"method": "rhf"
			},
			{
				"type": "occ",
				"energy": -0.24655,
				"method": "rhf"
			},
			{
				"type": "occ",
				"energy": -0.22135,
				"method": "rhf"
			},
			{
				"type": "unocc",
				"energy": -0.0928,
				"method": "rhf"
			},
			{
				"type": "unocc",
				"energy": -0.04557,
				"method": "rhf"
			},
			{
				"type": "unocc",
				"energy": -0.03123,
				"method": "rhf"
			},
			{
				"type": "unocc",
				"energy": -0.01821,
				"method": "rhf"
			},
			{
				"type": "unocc",
				"energy": -0.01364,
				"method": "rhf"
			}
		],
		"cosmo_sigma_profile": { 
			"-0.025": 0.0,
			"-0.024": 0.0,
			"-0.023": 0.0,
			"-0.022": 0.0,
			"-0.021": 0.0,
			"-0.02": 0.0,
			"-0.019": 0.0,
			"-0.018": 0.0,
			"-0.017": 0.0,
			"-0.016": 0.0,
			"-0.015": 0.0,
			"-0.014": 0.0,
			"-0.013": 0.0,
			"-0.012": 0.0,
			"-0.011": 0.0497720090277,
			"-0.01": 1.54987384443,
			"-0.009": 2.59986982009,
			"-0.008": 5.97563562186,
			"-0.007": 7.14454297333,
			"-0.006": 12.838176796,
			"-0.005": 17.6524392542,
			"-0.004": 22.5720082486,
			"-0.003": 25.5831157393,
			"-0.002": 30.1139186727,
			"-0.001": 35.2586461064,
			"0.0": 43.7090264218,
			"0.001": 47.8348834997,
			"0.002": 35.9323529785,
			"0.003": 28.7861055885,
			"0.004": 26.9423134717,
			"0.005": 14.7062384664,
			"0.006": 2.95824790775,
			"0.007": 2.99072263968,
			"0.008": 3.3781831887,
			"0.009": 2.65353423031,
			"0.01": 3.04466828093,
			"0.011": 2.34416003551,
			"0.012": 2.02356732986,
			"0.013": 0.276597044806,
			"0.014": 0.0,
			"0.015": 0.0,
			"0.016": 0.0,
			"0.017": 0.0,
			"0.018": 0.0,
			"0.019": 0.0,
			"0.02": 0.0,
			"0.021": 0.0,
			"0.022": 0.0,
			"0.023": 0.0,
			"0.024": 0.0,
			"0.025": 0.0
		}
	}
}
