{
	 "smiles": "ClCC1=NC2=C(C=CC=C2)C(=O)N1CC#N", 
	 "Tm": 417.15, 
	 "num_atms": 24, 
	 "gaussian": { 
		 "optdone": 1, 
		 "sigma_profile": "yes", 
		 "theory": "DFT", 
		 "functional": "B3LYP", 
		 "basiset": "6-31G**", 
		 "properties": { 
			 "R2extent": 4214.6079, 
			 "electric_dipole_moment_norm": 3.35829058004, 
			 "electric_quadrupole_moment_norm": 16.1834617524, 
			 "total_energy": -1123.66476225, 
			 "HOMO_LUMO_gap": 0.17842, 
			 "cosmo_polarized_energy": -13.71, 
			 "cosmo_cavitation_energy": 30.84, 
			 "cosmo_dispersion_energy": -22.0, 
			 "cosmo_repulsion_energy": 1.69, 
			 "cosmo_total_nonelectrostatic_energy": 10.53, 
			 "SMD_solvation_energy": 5.19 
		},
		"coords": [
			{
				"x": -1.7540881671,
				"y": -2.1490451697,
				"z": -2.591564671,
				"element": "Cl" 
			},
			{
				"x": -2.0831509334,
				"y": -0.6650084997,
				"z": -1.5781858188,
				"element": "C" 
			},
			{
				"x": -0.8118815165,
				"y": 0.0215777122,
				"z": -1.1549787535,
				"element": "C" 
			},
			{
				"x": -0.5186857474,
				"y": 1.1257226132,
				"z": -1.7600521372,
				"element": "N" 
			},
			{
				"x": 0.6419376605,
				"y": 1.7919640598,
				"z": -1.3985655435,
				"element": "C" 
			},
			{
				"x": 1.5136120409,
				"y": 1.2935399704,
				"z": -0.4062815923,
				"element": "C" 
			},
			{
				"x": 2.6851243689,
				"y": 1.9909901988,
				"z": -0.071167006,
				"element": "C" 
			},
			{
				"x": 2.9865525223,
				"y": 3.1788150773,
				"z": -0.7200388412,
				"element": "C" 
			},
			{
				"x": 2.1205333356,
				"y": 3.6810922213,
				"z": -1.7086478838,
				"element": "C" 
			},
			{
				"x": 0.9612410176,
				"y": 2.9998004552,
				"z": -2.047384933,
				"element": "C" 
			},
			{
				"x": 1.1835059124,
				"y": 0.0455690121,
				"z": 0.2806566708,
				"element": "C" 
			},
			{
				"x": 1.8563481194,
				"y": -0.4823340359,
				"z": 1.1560242632,
				"element": "O" 
			},
			{
				"x": -0.0330947873,
				"y": -0.5492428665,
				"z": -0.1531870302,
				"element": "N" 
			},
			{
				"x": -0.4150980694,
				"y": -1.78945006,
				"z": 0.5357851601,
				"element": "C" 
			},
			{
				"x": -1.5152357106,
				"y": -1.5909994552,
				"z": 1.4903378638,
				"element": "C" 
			},
			{
				"x": -2.4037571029,
				"y": -1.4384585979,
				"z": 2.2209498128,
				"element": "N" 
			},
			{
				"x": -2.7008552679,
				"y": -0.9912523533,
				"z": -0.7412123062,
				"element": "H" 
			},
			{
				"x": -2.634109856,
				"y": 0.0270545412,
				"z": -2.2093994706,
				"element": "H" 
			},
			{
				"x": 3.3310902506,
				"y": 1.5786904824,
				"z": 0.6964328693,
				"element": "H" 
			},
			{
				"x": 3.8907413149,
				"y": 3.7230207363,
				"z": -0.465837449,
				"element": "H" 
			},
			{
				"x": 2.3631395423,
				"y": 4.6123289987,
				"z": -2.212148619,
				"element": "H" 
			},
			{
				"x": 0.2817632131,
				"y": 3.3695624649,
				"z": -2.8077824308,
				"element": "H" 
			},
			{
				"x": -0.695043879,
				"y": -2.556287628,
				"z": -0.1906709324,
				"element": "H" 
			},
			{
				"x": 0.4757117388,
				"y": -2.1163498778,
				"z": 1.0787187783,
				"element": "H" 
			}
		],
		 "valence_orbital": [ 
			{
				"type": "occ",
				"energy": -0.30982,
				"method": "rhf"
			},
			{
				"type": "occ",
				"energy": -0.29401,
				"method": "rhf"
			},
			{
				"type": "occ",
				"energy": -0.28701,
				"method": "rhf"
			},
			{
				"type": "occ",
				"energy": -0.27653,
				"method": "rhf"
			},
			{
				"type": "occ",
				"energy": -0.24882,
				"method": "rhf"
			},
			{
				"type": "unocc",
				"energy": -0.0704,
				"method": "rhf"
			},
			{
				"type": "unocc",
				"energy": -0.05907,
				"method": "rhf"
			},
			{
				"type": "unocc",
				"energy": -0.00219,
				"method": "rhf"
			},
			{
				"type": "unocc",
				"energy": 0.00453,
				"method": "rhf"
			},
			{
				"type": "unocc",
				"energy": 0.01829,
				"method": "rhf"
			}
		],
		"cosmo_sigma_profile": { 
			"-0.025": 0.0,
			"-0.024": 0.0,
			"-0.023": 0.0,
			"-0.022": 0.0,
			"-0.021": 0.0,
			"-0.02": 0.0,
			"-0.019": 0.0,
			"-0.018": 0.0,
			"-0.017": 0.0,
			"-0.016": 0.0,
			"-0.015": 0.0,
			"-0.014": 0.0,
			"-0.013": 0.0,
			"-0.012": 0.0,
			"-0.011": 0.104544454055,
			"-0.01": 2.29200074674,
			"-0.009": 5.29474667819,
			"-0.008": 7.94235881166,
			"-0.007": 14.666502029,
			"-0.006": 17.3383774886,
			"-0.005": 17.7740899416,
			"-0.004": 14.2079456809,
			"-0.003": 11.839653961,
			"-0.002": 13.1754304907,
			"-0.001": 11.7755481186,
			"0.0": 16.2592780217,
			"0.001": 18.6664802598,
			"0.002": 22.3866140664,
			"0.003": 17.9967939267,
			"0.004": 10.3293040627,
			"0.005": 11.31128029,
			"0.006": 5.83696191893,
			"0.007": 4.92066704777,
			"0.008": 5.84907626669,
			"0.009": 5.07362769352,
			"0.01": 5.16454962806,
			"0.011": 6.33700569136,
			"0.012": 4.90274561675,
			"0.013": 0.139554002501,
			"0.014": 0.0,
			"0.015": 0.0,
			"0.016": 0.0,
			"0.017": 0.0,
			"0.018": 0.0,
			"0.019": 0.0,
			"0.02": 0.0,
			"0.021": 0.0,
			"0.022": 0.0,
			"0.023": 0.0,
			"0.024": 0.0,
			"0.025": 0.0
		}
	}
}
