{
	 "smiles": "CC(N)C(C)(C)C", 
	 "Tm": 253.15, 
	 "num_atms": 22, 
	 "gaussian": { 
		 "optdone": 1, 
		 "sigma_profile": "yes", 
		 "theory": "DFT", 
		 "functional": "B3LYP", 
		 "basiset": "6-31G**", 
		 "properties": { 
			 "R2extent": 981.7502, 
			 "electric_dipole_moment_norm": 1.31816301723, 
			 "electric_quadrupole_moment_norm": 4.13128834264, 
			 "total_energy": -292.443479318, 
			 "HOMO_LUMO_gap": 0.30113, 
			 "cosmo_polarized_energy": -4.4, 
			 "cosmo_cavitation_energy": 21.98, 
			 "cosmo_dispersion_energy": -15.88, 
			 "cosmo_repulsion_energy": 1.32, 
			 "cosmo_total_nonelectrostatic_energy": 7.41, 
			 "SMD_solvation_energy": 3.37 
		},
		"coords": [
			{
				"x": -1.4609001859,
				"y": -0.0172575011,
				"z": 0.2829773475,
				"element": "C" 
			},
			{
				"x": 0.077933239,
				"y": -0.0452126901,
				"z": 0.3404504935,
				"element": "C" 
			},
			{
				"x": 0.6506919681,
				"y": 1.2677314105,
				"z": 0.6939621292,
				"element": "N" 
			},
			{
				"x": 0.7715121829,
				"y": -0.6021673279,
				"z": -0.9465794561,
				"element": "C" 
			},
			{
				"x": 0.1715330815,
				"y": -1.9705420059,
				"z": -1.3266869593,
				"element": "C" 
			},
			{
				"x": 2.2733923902,
				"y": -0.7887056647,
				"z": -0.6509221625,
				"element": "C" 
			},
			{
				"x": 0.6122616757,
				"y": 0.3683335271,
				"z": -2.1345534818,
				"element": "C" 
			},
			{
				"x": -1.82146721,
				"y": 0.629658603,
				"z": -0.5255159812,
				"element": "H" 
			},
			{
				"x": -1.8583977431,
				"y": 0.3819126402,
				"z": 1.2229674535,
				"element": "H" 
			},
			{
				"x": -1.898085403,
				"y": -1.0097578394,
				"z": 0.1384156846,
				"element": "H" 
			},
			{
				"x": 0.3635202471,
				"y": -0.7268414838,
				"z": 1.1542203302,
				"element": "H" 
			},
			{
				"x": 0.2419532453,
				"y": 1.9874871018,
				"z": 0.1006936437,
				"element": "H" 
			},
			{
				"x": 0.3786211665,
				"y": 1.5086048627,
				"z": 1.6442220838,
				"element": "H" 
			},
			{
				"x": 0.1890219605,
				"y": -2.663627007,
				"z": -0.476901666,
				"element": "H" 
			},
			{
				"x": -0.8630843251,
				"y": -1.8895373008,
				"z": -1.6743778741,
				"element": "H" 
			},
			{
				"x": 0.7527564932,
				"y": -2.427275957,
				"z": -2.1353777159,
				"element": "H" 
			},
			{
				"x": 2.8051962569,
				"y": -1.1312845433,
				"z": -1.5459490211,
				"element": "H" 
			},
			{
				"x": 2.4271688177,
				"y": -1.5392150365,
				"z": 0.1339211221,
				"element": "H" 
			},
			{
				"x": 2.7188022578,
				"y": 0.1488373184,
				"z": -0.3115959429,
				"element": "H" 
			},
			{
				"x": -0.4396729413,
				"y": 0.5506525013,
				"z": -2.3813835912,
				"element": "H" 
			},
			{
				"x": 1.0913753521,
				"y": 1.3311409392,
				"z": -1.9298254204,
				"element": "H" 
			},
			{
				"x": 1.0877674739,
				"y": -0.0475345468,
				"z": -3.0296610155,
				"element": "H" 
			}
		],
		 "valence_orbital": [ 
			{
				"type": "occ",
				"energy": -0.34428,
				"method": "rhf"
			},
			{
				"type": "occ",
				"energy": -0.31376,
				"method": "rhf"
			},
			{
				"type": "occ",
				"energy": -0.3097,
				"method": "rhf"
			},
			{
				"type": "occ",
				"energy": -0.30195,
				"method": "rhf"
			},
			{
				"type": "occ",
				"energy": -0.22952,
				"method": "rhf"
			},
			{
				"type": "unocc",
				"energy": 0.07161,
				"method": "rhf"
			},
			{
				"type": "unocc",
				"energy": 0.11082,
				"method": "rhf"
			},
			{
				"type": "unocc",
				"energy": 0.12125,
				"method": "rhf"
			},
			{
				"type": "unocc",
				"energy": 0.12984,
				"method": "rhf"
			},
			{
				"type": "unocc",
				"energy": 0.14423,
				"method": "rhf"
			}
		],
		"cosmo_sigma_profile": { 
			"-0.025": 0.0,
			"-0.024": 0.0,
			"-0.023": 0.0,
			"-0.022": 0.0,
			"-0.021": 0.0,
			"-0.02": 0.0,
			"-0.019": 0.0,
			"-0.018": 0.0,
			"-0.017": 0.0,
			"-0.016": 0.0,
			"-0.015": 0.0,
			"-0.014": 0.0,
			"-0.013": 0.0,
			"-0.012": 0.0,
			"-0.011": 0.0,
			"-0.01": 0.0372949036417,
			"-0.009": 1.20506537031,
			"-0.008": 2.61618765731,
			"-0.007": 1.90236885878,
			"-0.006": 3.34149800113,
			"-0.005": 3.09723866966,
			"-0.004": 3.3255007179,
			"-0.003": 8.74466051089,
			"-0.002": 25.6223863219,
			"-0.001": 29.272381504,
			"0.0": 23.5329131369,
			"0.001": 23.4119848099,
			"0.002": 23.5083879792,
			"0.003": 5.72364451158,
			"0.004": 1.21456153419,
			"0.005": 1.27278557168,
			"0.006": 1.43202544964,
			"0.007": 1.07343017769,
			"0.008": 0.921623012409,
			"0.009": 0.8718894234,
			"0.01": 0.791549535519,
			"0.011": 0.489404366021,
			"0.012": 1.0260558607,
			"0.013": 0.783653277285,
			"0.014": 0.876864100557,
			"0.015": 0.541037273277,
			"0.016": 0.45302024179,
			"0.017": 0.470062857619,
			"0.018": 0.0328266551783,
			"0.019": 0.0,
			"0.02": 0.0,
			"0.021": 0.0,
			"0.022": 0.0,
			"0.023": 0.0,
			"0.024": 0.0,
			"0.025": 0.0
		}
	}
}
