{
	 "smiles": "CC(C)C1=C(C)C=C2OC=C(CC(O)=O)C2=C1", 
	 "Tm": 415.15, 
	 "num_atms": 33, 
	 "gaussian": { 
		 "optdone": 1, 
		 "sigma_profile": "yes", 
		 "theory": "DFT", 
		 "functional": "B3LYP", 
		 "basiset": "6-31G**", 
		 "properties": { 
			 "R2extent": 4769.9071, 
			 "electric_dipole_moment_norm": 0.717428776953, 
			 "electric_quadrupole_moment_norm": 12.0200957363, 
			 "total_energy": -768.826932532, 
			 "HOMO_LUMO_gap": 0.19566, 
			 "cosmo_polarized_energy": -11.03, 
			 "cosmo_cavitation_energy": 36.02, 
			 "cosmo_dispersion_energy": -24.72, 
			 "cosmo_repulsion_energy": 1.93, 
			 "cosmo_total_nonelectrostatic_energy": 13.23, 
			 "SMD_solvation_energy": 7.85 
		},
		"coords": [
			{
				"x": 2.0829782603,
				"y": 3.517967627,
				"z": 0.6391700205,
				"element": "C" 
			},
			{
				"x": 2.1419139784,
				"y": 2.6826236238,
				"z": -0.6520383931,
				"element": "C" 
			},
			{
				"x": 1.5515739783,
				"y": 3.4722663601,
				"z": -1.8389717596,
				"element": "C" 
			},
			{
				"x": 1.4682642822,
				"y": 1.3160298529,
				"z": -0.523622376,
				"element": "C" 
			},
			{
				"x": 2.0640432654,
				"y": 0.1558685175,
				"z": -1.1032410601,
				"element": "C" 
			},
			{
				"x": 3.3954605115,
				"y": 0.2246051829,
				"z": -1.8217894735,
				"element": "C" 
			},
			{
				"x": 1.4220119109,
				"y": -1.0843536096,
				"z": -1.0202320937,
				"element": "C" 
			},
			{
				"x": 0.2012727419,
				"y": -1.1443092038,
				"z": -0.3638157417,
				"element": "C" 
			},
			{
				"x": -0.5721875293,
				"y": -2.2624697249,
				"z": -0.1814595881,
				"element": "O" 
			},
			{
				"x": -1.6775052831,
				"y": -1.8426995675,
				"z": 0.5153578155,
				"element": "C" 
			},
			{
				"x": -1.6479859426,
				"y": -0.5127740543,
				"z": 0.7916113997,
				"element": "C" 
			},
			{
				"x": -2.675296813,
				"y": 0.2742321821,
				"z": 1.5590153638,
				"element": "C" 
			},
			{
				"x": -3.309784024,
				"y": 1.3545467467,
				"z": 0.6975111999,
				"element": "C" 
			},
			{
				"x": -4.38622469,
				"y": 0.8941507171,
				"z": 0.0205113892,
				"element": "O" 
			},
			{
				"x": -2.9070792158,
				"y": 2.4926680437,
				"z": 0.5933392165,
				"element": "O" 
			},
			{
				"x": -0.4110356583,
				"y": -0.0242593868,
				"z": 0.2132832887,
				"element": "C" 
			},
			{
				"x": 0.2344990235,
				"y": 1.2166198798,
				"z": 0.1244122059,
				"element": "C" 
			},
			{
				"x": 2.4814284007,
				"y": 2.9609590724,
				"z": 1.4930133919,
				"element": "H" 
			},
			{
				"x": 2.6742580673,
				"y": 4.4328622365,
				"z": 0.5238016825,
				"element": "H" 
			},
			{
				"x": 1.0604854673,
				"y": 3.8229708001,
				"z": 0.8842859557,
				"element": "H" 
			},
			{
				"x": 3.2026164961,
				"y": 2.5158252088,
				"z": -0.867316936,
				"element": "H" 
			},
			{
				"x": 1.633969696,
				"y": 2.910317144,
				"z": -2.7750904148,
				"element": "H" 
			},
			{
				"x": 2.0700783129,
				"y": 4.4289527372,
				"z": -1.9698271254,
				"element": "H" 
			},
			{
				"x": 0.4894857416,
				"y": 3.6822603741,
				"z": -1.6716298807,
				"element": "H" 
			},
			{
				"x": 3.6593937628,
				"y": -0.751790922,
				"z": -2.236663687,
				"element": "H" 
			},
			{
				"x": 3.381503542,
				"y": 0.9416130179,
				"z": -2.6503289717,
				"element": "H" 
			},
			{
				"x": 4.2090730012,
				"y": 0.5266378211,
				"z": -1.1514562694,
				"element": "H" 
			},
			{
				"x": 1.8639751409,
				"y": -1.9748184103,
				"z": -1.4556032008,
				"element": "H" 
			},
			{
				"x": -2.3989774233,
				"y": -2.6124341834,
				"z": 0.7470373028,
				"element": "H" 
			},
			{
				"x": -3.4554492492,
				"y": -0.3936601506,
				"z": 1.9337387181,
				"element": "H" 
			},
			{
				"x": -2.2085344733,
				"y": 0.7819674208,
				"z": 2.4090524856,
				"element": "H" 
			},
			{
				"x": -4.6977331264,
				"y": 1.6332440444,
				"z": -0.5291886348,
				"element": "H" 
			},
			{
				"x": -0.2409921528,
				"y": 2.0959806024,
				"z": 0.5452341699,
				"element": "H" 
			}
		],
		 "valence_orbital": [ 
			{
				"type": "occ",
				"energy": -0.31531,
				"method": "rhf"
			},
			{
				"type": "occ",
				"energy": -0.28833,
				"method": "rhf"
			},
			{
				"type": "occ",
				"energy": -0.27201,
				"method": "rhf"
			},
			{
				"type": "occ",
				"energy": -0.22364,
				"method": "rhf"
			},
			{
				"type": "occ",
				"energy": -0.21195,
				"method": "rhf"
			},
			{
				"type": "unocc",
				"energy": -0.01629,
				"method": "rhf"
			},
			{
				"type": "unocc",
				"energy": 0.00637,
				"method": "rhf"
			},
			{
				"type": "unocc",
				"energy": 0.01645,
				"method": "rhf"
			},
			{
				"type": "unocc",
				"energy": 0.05907,
				"method": "rhf"
			},
			{
				"type": "unocc",
				"energy": 0.07474,
				"method": "rhf"
			}
		],
		"cosmo_sigma_profile": { 
			"-0.025": 0.0,
			"-0.024": 0.0,
			"-0.023": 0.0,
			"-0.022": 0.0,
			"-0.021": 0.0,
			"-0.02": 0.0,
			"-0.019": 0.0459861818507,
			"-0.018": 0.891743838552,
			"-0.017": 0.703834855454,
			"-0.016": 1.14115761778,
			"-0.015": 0.56425826171,
			"-0.014": 1.06805789507,
			"-0.013": 0.657168852363,
			"-0.012": 0.433747669953,
			"-0.011": 0.64147583187,
			"-0.01": 0.990112543689,
			"-0.009": 2.39930304284,
			"-0.008": 2.4348433562,
			"-0.007": 5.55290638707,
			"-0.006": 7.45769689764,
			"-0.005": 9.34727595884,
			"-0.004": 14.6033745475,
			"-0.003": 24.3245260654,
			"-0.002": 30.5752127613,
			"-0.001": 27.4662635346,
			"0.0": 27.4846955907,
			"0.001": 29.5685036835,
			"0.002": 22.6002109964,
			"0.003": 16.9911256136,
			"0.004": 14.142332203,
			"0.005": 13.1393641356,
			"0.006": 6.81848887675,
			"0.007": 4.91162505285,
			"0.008": 4.00456859587,
			"0.009": 4.10230750223,
			"0.01": 2.3979552119,
			"0.011": 3.38561990036,
			"0.012": 2.93027033441,
			"0.013": 0.0730694761051,
			"0.014": 0.0,
			"0.015": 0.0,
			"0.016": 0.0,
			"0.017": 0.0,
			"0.018": 0.0,
			"0.019": 0.0,
			"0.02": 0.0,
			"0.021": 0.0,
			"0.022": 0.0,
			"0.023": 0.0,
			"0.024": 0.0,
			"0.025": 0.0
		}
	}
}
