{
	 "smiles": "NC1CCCCNC1=O", 
	 "Tm": 328.15, 
	 "num_atms": 21, 
	 "gaussian": { 
		 "optdone": 1, 
		 "sigma_profile": "yes", 
		 "theory": "DFT", 
		 "functional": "B3LYP", 
		 "basiset": "6-31G**", 
		 "properties": { 
			 "R2extent": 1340.3019, 
			 "electric_dipole_moment_norm": 3.14190077183, 
			 "electric_quadrupole_moment_norm": 8.76387562783, 
			 "total_energy": -420.605960047, 
			 "HOMO_LUMO_gap": 0.24707, 
			 "cosmo_polarized_energy": -12.15, 
			 "cosmo_cavitation_energy": 22.01, 
			 "cosmo_dispersion_energy": -16.84, 
			 "cosmo_repulsion_energy": 1.4, 
			 "cosmo_total_nonelectrostatic_energy": 6.57, 
			 "SMD_solvation_energy": 2.1 
		},
		"coords": [
			{
				"x": -2.6518881418,
				"y": 0.5447501915,
				"z": -1.5187286689,
				"element": "N" 
			},
			{
				"x": -1.3719060412,
				"y": -0.1524436556,
				"z": -1.353874301,
				"element": "C" 
			},
			{
				"x": -1.5523779652,
				"y": -1.3905376752,
				"z": -0.4592079601,
				"element": "C" 
			},
			{
				"x": -0.2321605229,
				"y": -2.0989197102,
				"z": -0.1114153393,
				"element": "C" 
			},
			{
				"x": 0.4765323326,
				"y": -1.5115160889,
				"z": 1.1269349582,
				"element": "C" 
			},
			{
				"x": 0.2372595881,
				"y": -0.0083538653,
				"z": 1.3104008004,
				"element": "C" 
			},
			{
				"x": 0.484961839,
				"y": 0.7871470316,
				"z": 0.1061685122,
				"element": "N" 
			},
			{
				"x": -0.3385161618,
				"y": 0.9310408566,
				"z": -0.9770610557,
				"element": "C" 
			},
			{
				"x": -0.2213764378,
				"y": 1.896633119,
				"z": -1.7275517198,
				"element": "O" 
			},
			{
				"x": -3.2896920586,
				"y": -0.0373963167,
				"z": -2.056556402,
				"element": "H" 
			},
			{
				"x": -2.4758942316,
				"y": 1.3832558523,
				"z": -2.0687449584,
				"element": "H" 
			},
			{
				"x": -0.9617955071,
				"y": -0.5245549895,
				"z": -2.3134368102,
				"element": "H" 
			},
			{
				"x": -2.1147046177,
				"y": -1.1191934257,
				"z": 0.4411485832,
				"element": "H" 
			},
			{
				"x": -2.1997608738,
				"y": -2.0814359905,
				"z": -1.0140905184,
				"element": "H" 
			},
			{
				"x": 0.4366755423,
				"y": -2.0395039387,
				"z": -0.9792110911,
				"element": "H" 
			},
			{
				"x": -0.410345606,
				"y": -3.1666528176,
				"z": 0.0556676601,
				"element": "H" 
			},
			{
				"x": 0.1138156521,
				"y": -2.008236904,
				"z": 2.0359658409,
				"element": "H" 
			},
			{
				"x": 1.5524229245,
				"y": -1.7114282422,
				"z": 1.0668890818,
				"element": "H" 
			},
			{
				"x": 0.9063921187,
				"y": 0.3762677759,
				"z": 2.08524246,
				"element": "H" 
			},
			{
				"x": -0.7823999001,
				"y": 0.1684010135,
				"z": 1.6720662159,
				"element": "H" 
			},
			{
				"x": 1.1048580685,
				"y": 1.5822777798,
				"z": 0.1990947121,
				"element": "H" 
			}
		],
		 "valence_orbital": [ 
			{
				"type": "occ",
				"energy": -0.3313,
				"method": "rhf"
			},
			{
				"type": "occ",
				"energy": -0.32791,
				"method": "rhf"
			},
			{
				"type": "occ",
				"energy": -0.25458,
				"method": "rhf"
			},
			{
				"type": "occ",
				"energy": -0.24348,
				"method": "rhf"
			},
			{
				"type": "occ",
				"energy": -0.22704,
				"method": "rhf"
			},
			{
				"type": "unocc",
				"energy": 0.02003,
				"method": "rhf"
			},
			{
				"type": "unocc",
				"energy": 0.07203,
				"method": "rhf"
			},
			{
				"type": "unocc",
				"energy": 0.099,
				"method": "rhf"
			},
			{
				"type": "unocc",
				"energy": 0.10666,
				"method": "rhf"
			},
			{
				"type": "unocc",
				"energy": 0.11394,
				"method": "rhf"
			}
		],
		"cosmo_sigma_profile": { 
			"-0.025": 0.0,
			"-0.024": 0.0,
			"-0.023": 0.0,
			"-0.022": 0.0,
			"-0.021": 0.0,
			"-0.02": 0.0,
			"-0.019": 0.0,
			"-0.018": 0.0,
			"-0.017": 0.0,
			"-0.016": 0.0,
			"-0.015": 0.0,
			"-0.014": 0.0397284782137,
			"-0.013": 0.88873347943,
			"-0.012": 1.14300970706,
			"-0.011": 1.29287395386,
			"-0.01": 1.46250068304,
			"-0.009": 2.56478670599,
			"-0.008": 2.58462388706,
			"-0.007": 4.28115823821,
			"-0.006": 5.90593298597,
			"-0.005": 5.72104426022,
			"-0.004": 11.7943732964,
			"-0.003": 24.3329275366,
			"-0.002": 23.6611320085,
			"-0.001": 19.0341136296,
			"0.0": 14.1259448628,
			"0.001": 8.23651938167,
			"0.002": 4.20289761554,
			"0.003": 3.73708362663,
			"0.004": 3.44967871919,
			"0.005": 3.22882725443,
			"0.006": 3.10300941281,
			"0.007": 1.96289918131,
			"0.008": 1.61255831463,
			"0.009": 2.37183353496,
			"0.01": 2.01886393946,
			"0.011": 2.00210061785,
			"0.012": 1.89855249096,
			"0.013": 3.21688836566,
			"0.014": 5.98080942752,
			"0.015": 1.42722445806,
			"0.016": 0.810211352392,
			"0.017": 0.514783384969,
			"0.018": 0.39974018486,
			"0.019": 0.485979790273,
			"0.02": 0.146470839947,
			"0.021": 0.0,
			"0.022": 0.0,
			"0.023": 0.0,
			"0.024": 0.0,
			"0.025": 0.0
		}
	}
}
