{
	 "smiles": "CC(=O)CC(=O)NC1=C(C=CC=C1)C(F)(F)F", 
	 "Tm": 334.15, 
	 "num_atms": 27, 
	 "gaussian": { 
		 "optdone": 1, 
		 "sigma_profile": "yes", 
		 "theory": "DFT", 
		 "functional": "B3LYP", 
		 "basiset": "6-31G**", 
		 "properties": { 
			 "R2extent": 4336.7027, 
			 "electric_dipole_moment_norm": 2.18754984629, 
			 "electric_quadrupole_moment_norm": 23.3431187404, 
			 "total_energy": -929.946228252, 
			 "HOMO_LUMO_gap": 0.18926, 
			 "cosmo_polarized_energy": -12.05, 
			 "cosmo_cavitation_energy": 32.23, 
			 "cosmo_dispersion_energy": -22.72, 
			 "cosmo_repulsion_energy": 1.7, 
			 "cosmo_total_nonelectrostatic_energy": 11.21, 
			 "SMD_solvation_energy": 7.54 
		},
		"coords": [
			{
				"x": 1.8594237578,
				"y": 4.0134694394,
				"z": -0.1543190177,
				"element": "C" 
			},
			{
				"x": 1.2520288237,
				"y": 2.6710748422,
				"z": 0.1816104708,
				"element": "C" 
			},
			{
				"x": 1.9378560075,
				"y": 1.6684736138,
				"z": 0.3011932304,
				"element": "O" 
			},
			{
				"x": -0.257880148,
				"y": 2.6381707772,
				"z": 0.3952659135,
				"element": "C" 
			},
			{
				"x": -1.0501511616,
				"y": 1.4158843793,
				"z": -0.1035687581,
				"element": "C" 
			},
			{
				"x": -2.1889296832,
				"y": 1.5789118292,
				"z": -0.5189925046,
				"element": "O" 
			},
			{
				"x": -0.4014298097,
				"y": 0.2137917272,
				"z": 0.0209811241,
				"element": "N" 
			},
			{
				"x": -0.899059261,
				"y": -1.0696196293,
				"z": -0.2782199245,
				"element": "C" 
			},
			{
				"x": -0.0644771893,
				"y": -2.2001437672,
				"z": -0.0958976842,
				"element": "C" 
			},
			{
				"x": -0.5461450404,
				"y": -3.4800013936,
				"z": -0.3770312891,
				"element": "C" 
			},
			{
				"x": -1.8462726017,
				"y": -3.6708899992,
				"z": -0.836875947,
				"element": "C" 
			},
			{
				"x": -2.6681918734,
				"y": -2.5598628291,
				"z": -1.016094638,
				"element": "C" 
			},
			{
				"x": -2.2093451221,
				"y": -1.2730310155,
				"z": -0.7431581382,
				"element": "C" 
			},
			{
				"x": 1.3523418468,
				"y": -2.0506198389,
				"z": 0.3890060549,
				"element": "C" 
			},
			{
				"x": 2.1024111733,
				"y": -1.3138040728,
				"z": -0.4668818217,
				"element": "F" 
			},
			{
				"x": 1.9748674786,
				"y": -3.2355024187,
				"z": 0.5432599356,
				"element": "F" 
			},
			{
				"x": 1.4110059757,
				"y": -1.4131797977,
				"z": 1.588296193,
				"element": "F" 
			},
			{
				"x": 1.5066480831,
				"y": 4.339424044,
				"z": -1.1403296338,
				"element": "H" 
			},
			{
				"x": 1.5363248184,
				"y": 4.7747399829,
				"z": 0.5649041215,
				"element": "H" 
			},
			{
				"x": 2.9474575736,
				"y": 3.9398762145,
				"z": -0.1603461578,
				"element": "H" 
			},
			{
				"x": -0.4142443316,
				"y": 2.7009204833,
				"z": 1.4826991165,
				"element": "H" 
			},
			{
				"x": -0.7427055374,
				"y": 3.5151480858,
				"z": -0.0375484114,
				"element": "H" 
			},
			{
				"x": 0.5710254013,
				"y": 0.299384572,
				"z": 0.3129969943,
				"element": "H" 
			},
			{
				"x": 0.1125981257,
				"y": -4.3274252589,
				"z": -0.2294191578,
				"element": "H" 
			},
			{
				"x": -2.2078383453,
				"y": -4.6713748297,
				"z": -1.0509170543,
				"element": "H" 
			},
			{
				"x": -3.6856335387,
				"y": -2.6871408119,
				"z": -1.374660665,
				"element": "H" 
			},
			{
				"x": -2.8481854222,
				"y": -0.4142743284,
				"z": -0.8852523513,
				"element": "H" 
			}
		],
		 "valence_orbital": [ 
			{
				"type": "occ",
				"energy": -0.31332,
				"method": "rhf"
			},
			{
				"type": "occ",
				"energy": -0.27886,
				"method": "rhf"
			},
			{
				"type": "occ",
				"energy": -0.26266,
				"method": "rhf"
			},
			{
				"type": "occ",
				"energy": -0.25926,
				"method": "rhf"
			},
			{
				"type": "occ",
				"energy": -0.22885,
				"method": "rhf"
			},
			{
				"type": "unocc",
				"energy": -0.03959,
				"method": "rhf"
			},
			{
				"type": "unocc",
				"energy": -0.02811,
				"method": "rhf"
			},
			{
				"type": "unocc",
				"energy": -0.01393,
				"method": "rhf"
			},
			{
				"type": "unocc",
				"energy": 0.03527,
				"method": "rhf"
			},
			{
				"type": "unocc",
				"energy": 0.08139,
				"method": "rhf"
			}
		],
		"cosmo_sigma_profile": { 
			"-0.025": 0.0,
			"-0.024": 0.0,
			"-0.023": 0.0,
			"-0.022": 0.0,
			"-0.021": 0.0,
			"-0.02": 0.0,
			"-0.019": 0.0,
			"-0.018": 0.0,
			"-0.017": 0.0,
			"-0.016": 0.0,
			"-0.015": 0.0,
			"-0.014": 0.0,
			"-0.013": 0.0,
			"-0.012": 0.0,
			"-0.011": 0.0,
			"-0.01": 0.477934232161,
			"-0.009": 3.14777462368,
			"-0.008": 4.91007276868,
			"-0.007": 12.5142446188,
			"-0.006": 16.1337910716,
			"-0.005": 15.6124658936,
			"-0.004": 16.1580099431,
			"-0.003": 14.160331784,
			"-0.002": 18.26778191,
			"-0.001": 13.3706682435,
			"0.0": 17.530401733,
			"0.001": 21.354715765,
			"0.002": 30.7671192993,
			"0.003": 28.6451612272,
			"0.004": 12.8021158757,
			"0.005": 5.76812104015,
			"0.006": 4.86365869437,
			"0.007": 2.79036819995,
			"0.008": 3.4868958884,
			"0.009": 3.01142200777,
			"0.01": 3.13952859751,
			"0.011": 3.61314232197,
			"0.012": 3.48632361824,
			"0.013": 1.87564532105,
			"0.014": 0.241267464103,
			"0.015": 0.0,
			"0.016": 0.0,
			"0.017": 0.0,
			"0.018": 0.0,
			"0.019": 0.0,
			"0.02": 0.0,
			"0.021": 0.0,
			"0.022": 0.0,
			"0.023": 0.0,
			"0.024": 0.0,
			"0.0": 0.0
		}
	}
}
