{
	 "smiles": "CN(C)C1=CC=C(C=CC=O)C=C1", 
	 "Tm": 413.65, 
	 "num_atms": 26, 
	 "gaussian": { 
		 "optdone": 1, 
		 "sigma_profile": "yes", 
		 "theory": "DFT", 
		 "functional": "B3LYP", 
		 "basiset": "6-31G**", 
		 "properties": { 
			 "R2extent": 4865.0979, 
			 "electric_dipole_moment_norm": 7.40691039368, 
			 "electric_quadrupole_moment_norm": 33.1625574609, 
			 "total_energy": -556.95275638, 
			 "HOMO_LUMO_gap": 0.13388, 
			 "cosmo_polarized_energy": -12.46, 
			 "cosmo_cavitation_energy": 29.66, 
			 "cosmo_dispersion_energy": -21.47, 
			 "cosmo_repulsion_energy": 1.68, 
			 "cosmo_total_nonelectrostatic_energy": 9.87, 
			 "SMD_solvation_energy": 6.09 
		},
		"coords": [
			{
				"x": 1.4020072918,
				"y": -1.3993404872,
				"z": 3.2359947225,
				"element": "C" 
			},
			{
				"x": 1.2930325204,
				"y": -0.6234931118,
				"z": 2.0117130554,
				"element": "N" 
			},
			{
				"x": 2.4916938776,
				"y": -0.0765414993,
				"z": 1.3977622785,
				"element": "C" 
			},
			{
				"x": 0.0603839705,
				"y": -0.4200806332,
				"z": 1.4302971968,
				"element": "C" 
			},
			{
				"x": -1.1230285181,
				"y": -0.9471456582,
				"z": 2.0031317694,
				"element": "C" 
			},
			{
				"x": -2.3550669553,
				"y": -0.7325130302,
				"z": 1.4061484321,
				"element": "C" 
			},
			{
				"x": -2.496187358,
				"y": 0.0089064968,
				"z": 0.2163680898,
				"element": "C" 
			},
			{
				"x": -3.8154377011,
				"y": 0.1951174074,
				"z": -0.3549886611,
				"element": "C" 
			},
			{
				"x": -4.1663826778,
				"y": 0.8658489693,
				"z": -1.4789276652,
				"element": "C" 
			},
			{
				"x": -5.5688358625,
				"y": 0.9445498343,
				"z": -1.8998129676,
				"element": "C" 
			},
			{
				"x": -6.5135544763,
				"y": 0.4391891119,
				"z": -1.3096124374,
				"element": "O" 
			},
			{
				"x": -1.3136358953,
				"y": 0.5305631644,
				"z": -0.3493038165,
				"element": "C" 
			},
			{
				"x": -0.0742143639,
				"y": 0.3278002322,
				"z": 0.2306751476,
				"element": "C" 
			},
			{
				"x": 2.4483423616,
				"y": -1.4477756284,
				"z": 3.5386945534,
				"element": "H" 
			},
			{
				"x": 0.833472102,
				"y": -0.9456362207,
				"z": 4.058864759,
				"element": "H" 
			},
			{
				"x": 1.040970104,
				"y": -2.428118311,
				"z": 3.102414508,
				"element": "H" 
			},
			{
				"x": 2.4522349945,
				"y": 1.0187882298,
				"z": 1.3281659073,
				"element": "H" 
			},
			{
				"x": 2.6531009401,
				"y": -0.4744458216,
				"z": 0.3867180273,
				"element": "H" 
			},
			{
				"x": 3.3581881132,
				"y": -0.3418030521,
				"z": 2.0040897546,
				"element": "H" 
			},
			{
				"x": -1.0786513478,
				"y": -1.5259102991,
				"z": 2.9172090934,
				"element": "H" 
			},
			{
				"x": -3.2438348204,
				"y": -1.1509895768,
				"z": 1.8719617806,
				"element": "H" 
			},
			{
				"x": -4.6401192364,
				"y": -0.2648355379,
				"z": 0.1897614515,
				"element": "H" 
			},
			{
				"x": -3.435387838,
				"y": 1.3675091506,
				"z": -2.1085750673,
				"element": "H" 
			},
			{
				"x": -5.7404241329,
				"y": 1.5199961826,
				"z": -2.8367516515,
				"element": "H" 
			},
			{
				"x": -1.3664743592,
				"y": 1.1092795196,
				"z": -1.2666912879,
				"element": "H" 
			},
			{
				"x": 0.8001092674,
				"y": 0.7513805685,
				"z": -0.2478069726,
				"element": "H" 
			}
		],
		 "valence_orbital": [ 
			{
				"type": "occ",
				"energy": -0.31504,
				"method": "rhf"
			},
			{
				"type": "occ",
				"energy": -0.25702,
				"method": "rhf"
			},
			{
				"type": "occ",
				"energy": -0.25665,
				"method": "rhf"
			},
			{
				"type": "occ",
				"energy": -0.23132,
				"method": "rhf"
			},
			{
				"type": "occ",
				"energy": -0.19331,
				"method": "rhf"
			},
			{
				"type": "unocc",
				"energy": -0.05943,
				"method": "rhf"
			},
			{
				"type": "unocc",
				"energy": -0.00422,
				"method": "rhf"
			},
			{
				"type": "unocc",
				"energy": 0.02772,
				"method": "rhf"
			},
			{
				"type": "unocc",
				"energy": 0.07516,
				"method": "rhf"
			},
			{
				"type": "unocc",
				"energy": 0.09375,
				"method": "rhf"
			}
		],
		"cosmo_sigma_profile": { 
			"-0.025": 0.0,
			"-0.024": 0.0,
			"-0.023": 0.0,
			"-0.022": 0.0,
			"-0.021": 0.0,
			"-0.02": 0.0,
			"-0.019": 0.0,
			"-0.018": 0.0,
			"-0.017": 0.0,
			"-0.016": 0.0,
			"-0.015": 0.0,
			"-0.014": 0.0,
			"-0.013": 0.0,
			"-0.012": 0.0,
			"-0.011": 0.0,
			"-0.01": 0.0,
			"-0.009": 0.0,
			"-0.008": 0.188970385235,
			"-0.007": 4.13188086799,
			"-0.006": 11.6162218169,
			"-0.005": 24.1252869767,
			"-0.004": 27.8483134912,
			"-0.003": 22.4978207011,
			"-0.002": 24.484477064,
			"-0.001": 15.7610259484,
			"0.0": 11.1048541344,
			"0.001": 11.6923831538,
			"0.002": 12.1623404242,
			"0.003": 14.7417117262,
			"0.004": 16.3676815574,
			"0.005": 15.3384846898,
			"0.006": 4.50758459754,
			"0.007": 1.50817430803,
			"0.008": 1.78523191914,
			"0.009": 1.7456310117,
			"0.01": 1.82871456082,
			"0.011": 1.97452858876,
			"0.012": 3.56911821116,
			"0.013": 4.82033541908,
			"0.014": 1.59957475087,
			"0.015": 0.2096209755,
			"0.016": 0.0,
			"0.017": 0.0,
			"0.018": 0.0,
			"0.019": 0.0,
			"0.02": 0.0,
			"0.021": 0.0,
			"0.022": 0.0,
			"0.023": 0.0,
			"0.024": 0.0,
			"0.025": 0.0
		}
	}
}
