{
	 "smiles": "OC(=O)CN1N=CC(=O)C2=C1C=CC=C2", 
	 "Tm": 394.15, 
	 "num_atms": 23, 
	 "gaussian": { 
		 "optdone": 1, 
		 "sigma_profile": "yes", 
		 "theory": "DFT", 
		 "functional": "B3LYP", 
		 "basiset": "6-31G**", 
		 "properties": { 
			 "R2extent": 3700.2902, 
			 "electric_dipole_moment_norm": 3.90225482125, 
			 "electric_quadrupole_moment_norm": 20.7395588005, 
			 "total_energy": -721.040695158, 
			 "HOMO_LUMO_gap": 0.15484, 
			 "cosmo_polarized_energy": -18.51, 
			 "cosmo_cavitation_energy": 27.53, 
			 "cosmo_dispersion_energy": -20.46, 
			 "cosmo_repulsion_energy": 1.57, 
			 "cosmo_total_nonelectrostatic_energy": 8.64, 
			 "SMD_solvation_energy": 6.12 
		},
		"coords": [
			{
				"x": 1.4139129263,
				"y": 3.8694523922,
				"z": -1.0321215232,
				"element": "O" 
			},
			{
				"x": 1.7605695094,
				"y": 2.6999120818,
				"z": -1.5787331855,
				"element": "C" 
			},
			{
				"x": 2.8239387121,
				"y": 2.5146362844,
				"z": -2.1185325395,
				"element": "O" 
			},
			{
				"x": 0.6880379958,
				"y": 1.5900153228,
				"z": -1.5685565502,
				"element": "C" 
			},
			{
				"x": -0.097829422,
				"y": 1.4807834041,
				"z": -0.3316218348,
				"element": "N" 
			},
			{
				"x": -0.7680707678,
				"y": 2.6111099337,
				"z": -0.0385833911,
				"element": "N" 
			},
			{
				"x": -1.584640083,
				"y": 2.6581248049,
				"z": 0.9725736052,
				"element": "C" 
			},
			{
				"x": -1.876281133,
				"y": 1.531179398,
				"z": 1.8613945772,
				"element": "C" 
			},
			{
				"x": -2.6767328431,
				"y": 1.6173443301,
				"z": 2.7921659161,
				"element": "O" 
			},
			{
				"x": -1.115935651,
				"y": 0.3185411377,
				"z": 1.5264757037,
				"element": "C" 
			},
			{
				"x": -0.2288358135,
				"y": 0.3132619861,
				"z": 0.4213085708,
				"element": "C" 
			},
			{
				"x": 0.4922238792,
				"y": -0.8665007649,
				"z": 0.130577582,
				"element": "C" 
			},
			{
				"x": 0.3214166407,
				"y": -1.991006256,
				"z": 0.9214527553,
				"element": "C" 
			},
			{
				"x": -0.5610538593,
				"y": -1.9892269695,
				"z": 2.01573937,
				"element": "C" 
			},
			{
				"x": -1.2689549652,
				"y": -0.8388116811,
				"z": 2.3092678078,
				"element": "C" 
			},
			{
				"x": 0.5022748668,
				"y": 3.7917627437,
				"z": -0.6682002823,
				"element": "H" 
			},
			{
				"x": 1.2076271758,
				"y": 0.6599532511,
				"z": -1.7655860107,
				"element": "H" 
			},
			{
				"x": 0.0001087445,
				"y": 1.7767657652,
				"z": -2.4023185969,
				"element": "H" 
			},
			{
				"x": -2.0767073677,
				"y": 3.6093741982,
				"z": 1.1515765173,
				"element": "H" 
			},
			{
				"x": 1.1886917857,
				"y": -0.911789307,
				"z": -0.6964177537,
				"element": "H" 
			},
			{
				"x": 0.8866388758,
				"y": -2.8874699212,
				"z": 0.6846497889,
				"element": "H" 
			},
			{
				"x": -0.6798975563,
				"y": -2.881908775,
				"z": 2.6211331562,
				"element": "H" 
			},
			{
				"x": -1.9607016504,
				"y": -0.7820033593,
				"z": 3.1432563174,
				"element": "H" 
			}
		],
		 "valence_orbital": [ 
			{
				"type": "occ",
				"energy": -0.31355,
				"method": "rhf"
			},
			{
				"type": "occ",
				"energy": -0.28293,
				"method": "rhf"
			},
			{
				"type": "occ",
				"energy": -0.28071,
				"method": "rhf"
			},
			{
				"type": "occ",
				"energy": -0.25457,
				"method": "rhf"
			},
			{
				"type": "occ",
				"energy": -0.24009,
				"method": "rhf"
			},
			{
				"type": "unocc",
				"energy": -0.08525,
				"method": "rhf"
			},
			{
				"type": "unocc",
				"energy": -0.04737,
				"method": "rhf"
			},
			{
				"type": "unocc",
				"energy": -0.01632,
				"method": "rhf"
			},
			{
				"type": "unocc",
				"energy": -0.00134,
				"method": "rhf"
			},
			{
				"type": "unocc",
				"energy": 0.06405,
				"method": "rhf"
			}
		],
		"cosmo_sigma_profile": { 
			"-0.025": 0.0,
			"-0.024": 0.0,
			"-0.023": 0.0,
			"-0.022": 0.0,
			"-0.021": 0.0,
			"-0.02": 0.0,
			"-0.019": 0.0,
			"-0.018": 0.0,
			"-0.017": 0.0,
			"-0.016": 0.0,
			"-0.015": 0.0,
			"-0.014": 0.0,
			"-0.013": 0.00383345937175,
			"-0.012": 0.712981692334,
			"-0.011": 1.40384413304,
			"-0.01": 3.79376484195,
			"-0.009": 6.38076878175,
			"-0.008": 8.61446517717,
			"-0.007": 12.3004029727,
			"-0.006": 17.7805335838,
			"-0.005": 14.0215049434,
			"-0.004": 14.14632531,
			"-0.003": 11.7084162303,
			"-0.002": 12.4848124366,
			"-0.001": 12.9074719852,
			"0.0": 11.4641477372,
			"0.001": 13.8229227324,
			"0.002": 15.2902984947,
			"0.003": 10.6206757275,
			"0.004": 5.00188177153,
			"0.005": 3.38893187871,
			"0.006": 4.21553518122,
			"0.007": 4.70574843806,
			"0.008": 2.82883179774,
			"0.009": 4.80413715365,
			"0.01": 7.21837656938,
			"0.011": 7.21194442391,
			"0.012": 7.19006624426,
			"0.013": 6.0389115173,
			"0.014": 1.63447438084,
			"0.015": 0.105973287936,
			"0.016": 0.0,
			"0.017": 0.0,
			"0.018": 0.0,
			"0.019": 0.0,
			"0.02": 0.0,
			"0.021": 0.0,
			"0.022": 0.0,
			"0.023": 0.0,
			"0.024": 0.0,
			"0.025": 0.0
		}
	}
}
