{
	 "smiles": "FC(F)(F)CBr", 
	 "Tm": 179.25, 
	 "num_atms": 8, 
	 "gaussian": { 
		 "optdone": 1, 
		 "sigma_profile": "yes", 
		 "theory": "DFT", 
		 "functional": "B3LYP", 
		 "basiset": "6-31G**", 
		 "properties": { 
			 "R2extent": 1008.8164, 
			 "electric_dipole_moment_norm": 1.74009142289, 
			 "electric_quadrupole_moment_norm": 3.74967841821, 
			 "total_energy": -2948.34663828, 
			 "HOMO_LUMO_gap": 0.27157, 
			 "cosmo_polarized_energy": -4.39, 
			 "cosmo_cavitation_energy": 15.54, 
			 "cosmo_dispersion_energy": -11.61, 
			 "cosmo_repulsion_energy": 0.96, 
			 "cosmo_total_nonelectrostatic_energy": 4.89, 
			 "SMD_solvation_energy": 2.89 
		},
		"coords": [
			{
				"x": 0.2988129244,
				"y": -0.4498716442,
				"z": -2.2669236266,
				"element": "F" 
			},
			{
				"x": -0.0652397658,
				"y": 0.7058383113,
				"z": -1.6884820486,
				"element": "C" 
			},
			{
				"x": -0.8980361748,
				"y": 1.3504840042,
				"z": -2.5381261514,
				"element": "F" 
			},
			{
				"x": 1.0330296276,
				"y": 1.462876514,
				"z": -1.5352772898,
				"element": "F" 
			},
			{
				"x": -0.7993830773,
				"y": 0.4867976931,
				"z": -0.3790833806,
				"element": "C" 
			},
			{
				"x": 0.3005863769,
				"y": -0.4407365917,
				"z": 0.9429448411,
				"element": "Br" 
			},
			{
				"x": -1.6831480693,
				"y": -0.1223272301,
				"z": -0.5588203838,
				"element": "H" 
			},
			{
				"x": -1.0798218417,
				"y": 1.4501389433,
				"z": 0.0424680398,
				"element": "H" 
			}
		],
		 "valence_orbital": [ 
			{
				"type": "occ",
				"energy": -0.40907,
				"method": "rhf"
			},
			{
				"type": "occ",
				"energy": -0.40625,
				"method": "rhf"
			},
			{
				"type": "occ",
				"energy": -0.39344,
				"method": "rhf"
			},
			{
				"type": "occ",
				"energy": -0.2961,
				"method": "rhf"
			},
			{
				"type": "occ",
				"energy": -0.29307,
				"method": "rhf"
			},
			{
				"type": "unocc",
				"energy": -0.0215,
				"method": "rhf"
			},
			{
				"type": "unocc",
				"energy": 0.09249,
				"method": "rhf"
			},
			{
				"type": "unocc",
				"energy": 0.10385,
				"method": "rhf"
			},
			{
				"type": "unocc",
				"energy": 0.17291,
				"method": "rhf"
			},
			{
				"type": "unocc",
				"energy": 0.19109,
				"method": "rhf"
			}
		],
		"cosmo_sigma_profile": { 
			"-0.025": 0.0,
			"-0.024": 0.0,
			"-0.023": 0.0,
			"-0.022": 0.0,
			"-0.021": 0.0,
			"-0.02": 0.0,
			"-0.019": 0.0,
			"-0.018": 0.0,
			"-0.017": 0.0,
			"-0.016": 0.0,
			"-0.015": 0.0,
			"-0.014": 0.0,
			"-0.013": 0.0,
			"-0.012": 0.0,
			"-0.011": 0.627398552542,
			"-0.01": 4.53390495403,
			"-0.009": 3.91025700833,
			"-0.008": 3.71223938709,
			"-0.007": 3.78464268398,
			"-0.006": 3.22596610761,
			"-0.005": 2.76999941387,
			"-0.004": 3.98389608631,
			"-0.003": 4.41470468425,
			"-0.002": 4.01708642742,
			"-0.001": 4.81311495879,
			"0.0": 6.447248509,
			"0.001": 10.4549746135,
			"0.002": 29.3420015915,
			"0.003": 23.6654622554,
			"0.004": 11.5045549922,
			"0.005": 6.14151689425,
			"0.006": 0.0,
			"0.007": 0.0,
			"0.008": 0.0,
			"0.009": 0.0,
			"0.01": 0.0,
			"0.011": 0.0,
			"0.012": 0.0,
			"0.013": 0.0,
			"0.014": 0.0,
			"0.015": 0.0,
			"0.016": 0.0,
			"0.017": 0.0,
			"0.018": 0.0,
			"0.019": 0.0,
			"0.02": 0.0,
			"0.021": 0.0,
			"0.022": 0.0,
			"0.023": 0.0,
			"0.024": 0.0,
			"0.025": 0.0
		}
	}
}
