{
	 "smiles": "FC1=CC=CC=C1C(Cl)=O", 
	 "Tm": 277.65, 
	 "num_atms": 14, 
	 "gaussian": { 
		 "optdone": 1, 
		 "sigma_profile": "yes", 
		 "theory": "DFT", 
		 "functional": "B3LYP", 
		 "basiset": "6-31G**", 
		 "properties": { 
			 "R2extent": 1705.077, 
			 "electric_dipole_moment_norm": 4.4558519926, 
			 "electric_quadrupole_moment_norm": 5.39245035026, 
			 "total_energy": -904.405277522, 
			 "HOMO_LUMO_gap": 0.19107, 
			 "cosmo_polarized_energy": -6.31, 
			 "cosmo_cavitation_energy": 20.95, 
			 "cosmo_dispersion_energy": -15.63, 
			 "cosmo_repulsion_energy": 1.24, 
			 "cosmo_total_nonelectrostatic_energy": 6.57, 
			 "SMD_solvation_energy": 4.69 
		},
		"coords": [
			{
				"x": -1.0718840836,
				"y": -0.0931968946,
				"z": -1.0981204703,
				"element": "F" 
			},
			{
				"x": 0.0090033881,
				"y": -0.5859110725,
				"z": -0.4797503632,
				"element": "C" 
			},
			{
				"x": 0.5933961438,
				"y": -1.717802415,
				"z": -1.0414047507,
				"element": "C" 
			},
			{
				"x": 1.7327450808,
				"y": -2.2660900509,
				"z": -0.4599982506,
				"element": "C" 
			},
			{
				"x": 2.2937027804,
				"y": -1.676855426,
				"z": 0.6779859348,
				"element": "C" 
			},
			{
				"x": 1.7058803927,
				"y": -0.5449299242,
				"z": 1.2247333777,
				"element": "C" 
			},
			{
				"x": 0.5407768316,
				"y": 0.0245813037,
				"z": 0.6687486795,
				"element": "C" 
			},
			{
				"x": 0.0304361552,
				"y": 1.2307933073,
				"z": 1.3713326896,
				"element": "C" 
			},
			{
				"x": -1.658179314,
				"y": 1.7567890528,
				"z": 0.9945022873,
				"element": "Cl" 
			},
			{
				"x": 0.6506942909,
				"y": 1.8415803126,
				"z": 2.1935109581,
				"element": "O" 
			},
			{
				"x": 0.1409016227,
				"y": -2.1431239222,
				"z": -1.9303219521,
				"element": "H" 
			},
			{
				"x": 2.1843097953,
				"y": -3.1509280913,
				"z": -0.8982183524,
				"element": "H" 
			},
			{
				"x": 3.1838307683,
				"y": -2.0987992253,
				"z": 1.1326266436,
				"element": "H" 
			},
			{
				"x": 2.125686148,
				"y": -0.0683069544,
				"z": 2.1032735688,
				"element": "H" 
			}
		],
		 "valence_orbital": [ 
			{
				"type": "occ",
				"energy": -0.31918,
				"method": "rhf"
			},
			{
				"type": "occ",
				"energy": -0.31465,
				"method": "rhf"
			},
			{
				"type": "occ",
				"energy": -0.29577,
				"method": "rhf"
			},
			{
				"type": "occ",
				"energy": -0.28491,
				"method": "rhf"
			},
			{
				"type": "occ",
				"energy": -0.27076,
				"method": "rhf"
			},
			{
				"type": "unocc",
				"energy": -0.07969,
				"method": "rhf"
			},
			{
				"type": "unocc",
				"energy": -0.02472,
				"method": "rhf"
			},
			{
				"type": "unocc",
				"energy": 0.01201,
				"method": "rhf"
			},
			{
				"type": "unocc",
				"energy": 0.025,
				"method": "rhf"
			},
			{
				"type": "unocc",
				"energy": 0.07708,
				"method": "rhf"
			}
		],
		"cosmo_sigma_profile": { 
			"-0.025": 0.0,
			"-0.024": 0.0,
			"-0.023": 0.0,
			"-0.022": 0.0,
			"-0.021": 0.0,
			"-0.02": 0.0,
			"-0.019": 0.0,
			"-0.018": 0.0,
			"-0.017": 0.0,
			"-0.016": 0.0,
			"-0.015": 0.0,
			"-0.014": 0.0,
			"-0.013": 0.0,
			"-0.012": 0.0,
			"-0.011": 0.0,
			"-0.01": 0.0,
			"-0.009": 0.04638870263,
			"-0.008": 3.23593442068,
			"-0.007": 8.01531050046,
			"-0.006": 9.68681535485,
			"-0.005": 8.9037355306,
			"-0.004": 8.56841556652,
			"-0.003": 9.30094997056,
			"-0.002": 11.3027019464,
			"-0.001": 15.7841887256,
			"0.0": 16.088675435,
			"0.001": 15.0608520873,
			"0.002": 17.3414651848,
			"0.003": 13.6013326575,
			"0.004": 14.296677749,
			"0.005": 7.370278412,
			"0.006": 2.925292746,
			"0.007": 2.08313321444,
			"0.008": 3.92230238185,
			"0.009": 3.35207607688,
			"0.01": 0.726692537847,
			"0.011": 0.0,
			"0.012": 0.0,
			"0.013": 0.0,
			"0.014": 0.0,
			"0.015": 0.0,
			"0.016": 0.0,
			"0.017": 0.0,
			"0.018": 0.0,
			"0.019": 0.0,
			"0.02": 0.0,
			"0.021": 0.0,
			"0.022": 0.0,
			"0.023": 0.0,
			"0.024": 0.0,
			"0.025": 0.0
		}
	}
}
