{
	 "smiles": "CC(=NO)C1=C(C)N=CS1", 
	 "Tm": 418.15, 
	 "num_atms": 18, 
	 "gaussian": { 
		 "optdone": 1, 
		 "sigma_profile": "yes", 
		 "theory": "DFT", 
		 "functional": "B3LYP", 
		 "basiset": "6-31G**", 
		 "properties": { 
			 "R2extent": 1991.395, 
			 "electric_dipole_moment_norm": 1.05956089962, 
			 "electric_quadrupole_moment_norm": 6.45143436687, 
			 "total_energy": -816.309369446, 
			 "HOMO_LUMO_gap": 0.17422, 
			 "cosmo_polarized_energy": -9.6, 
			 "cosmo_cavitation_energy": 22.79, 
			 "cosmo_dispersion_energy": -17.82, 
			 "cosmo_repulsion_energy": 1.39, 
			 "cosmo_total_nonelectrostatic_energy": 6.37, 
			 "SMD_solvation_energy": 2.9 
		},
		"coords": [
			{
				"x": 3.4776329406,
				"y": -0.2663088093,
				"z": 0.5148039678,
				"element": "C" 
			},
			{
				"x": 2.3272386497,
				"y": 0.7146683242,
				"z": 0.5659357187,
				"element": "C" 
			},
			{
				"x": 2.7378161958,
				"y": 1.9385184948,
				"z": 0.6638528722,
				"element": "N" 
			},
			{
				"x": 1.6970014465,
				"y": 2.8740908903,
				"z": 0.7137401813,
				"element": "O" 
			},
			{
				"x": 0.9404873004,
				"y": 0.243362168,
				"z": 0.5059372951,
				"element": "C" 
			},
			{
				"x": 0.4596566103,
				"y": -1.0620401595,
				"z": 0.3984319636,
				"element": "C" 
			},
			{
				"x": 1.2275292851,
				"y": -2.3575332043,
				"z": 0.3124043182,
				"element": "C" 
			},
			{
				"x": -0.9095653837,
				"y": -1.1860080177,
				"z": 0.3658779845,
				"element": "N" 
			},
			{
				"x": -1.4922772003,
				"y": -0.0210445825,
				"z": 0.4446890329,
				"element": "C" 
			},
			{
				"x": -0.43977738,
				"y": 1.3385621025,
				"z": 0.565661125,
				"element": "S" 
			},
			{
				"x": 3.4436192161,
				"y": -0.9735061493,
				"z": 1.3481605161,
				"element": "H" 
			},
			{
				"x": 4.4090801032,
				"y": 0.298335866,
				"z": 0.5747587917,
				"element": "H" 
			},
			{
				"x": 3.477565674,
				"y": -0.8420273575,
				"z": -0.4148691032,
				"element": "H" 
			},
			{
				"x": 2.1704578031,
				"y": 3.7130150716,
				"z": 0.7849675022,
				"element": "H" 
			},
			{
				"x": 1.8474426956,
				"y": -2.5368819875,
				"z": 1.1956010625,
				"element": "H" 
			},
			{
				"x": 0.5008924402,
				"y": -3.1676248893,
				"z": 0.2365116992,
				"element": "H" 
			},
			{
				"x": 1.8797683931,
				"y": -2.4007783191,
				"z": -0.5646119963,
				"element": "H" 
			},
			{
				"x": -2.5693687897,
				"y": 0.1069005586,
				"z": 0.4362470686,
				"element": "H" 
			}
		],
		 "valence_orbital": [ 
			{
				"type": "occ",
				"energy": -0.29188,
				"method": "rhf"
			},
			{
				"type": "occ",
				"energy": -0.27779,
				"method": "rhf"
			},
			{
				"type": "occ",
				"energy": -0.27085,
				"method": "rhf"
			},
			{
				"type": "occ",
				"energy": -0.26837,
				"method": "rhf"
			},
			{
				"type": "occ",
				"energy": -0.22302,
				"method": "rhf"
			},
			{
				"type": "unocc",
				"energy": -0.0488,
				"method": "rhf"
			},
			{
				"type": "unocc",
				"energy": 0.02038,
				"method": "rhf"
			},
			{
				"type": "unocc",
				"energy": 0.03015,
				"method": "rhf"
			},
			{
				"type": "unocc",
				"energy": 0.07004,
				"method": "rhf"
			},
			{
				"type": "unocc",
				"energy": 0.072,
				"method": "rhf"
			}
		],
		"cosmo_sigma_profile": { 
			"-0.025": 0.0,
			"-0.024": 0.0,
			"-0.023": 0.0,
			"-0.022": 0.0,
			"-0.021": 0.0,
			"-0.02": 0.0,
			"-0.019": 0.0,
			"-0.018": 0.520260874886,
			"-0.017": 0.93761031356,
			"-0.016": 1.18315772307,
			"-0.015": 0.861730834739,
			"-0.014": 0.665785211872,
			"-0.013": 0.325444617991,
			"-0.012": 0.227775815666,
			"-0.011": 0.904012573487,
			"-0.01": 1.45438901124,
			"-0.009": 3.36785340592,
			"-0.008": 2.36593491989,
			"-0.007": 3.1126811313,
			"-0.006": 7.8824805257,
			"-0.005": 8.44640274103,
			"-0.004": 11.3909357782,
			"-0.003": 12.2575820972,
			"-0.002": 12.657566821,
			"-0.001": 16.3863559849,
			"0.0": 15.129141494,
			"0.001": 16.1490254573,
			"0.002": 13.3956086312,
			"0.003": 10.1087885154,
			"0.004": 8.1802312515,
			"0.005": 8.12418494433,
			"0.006": 6.89327755136,
			"0.007": 5.42739533494,
			"0.008": 3.34456029266,
			"0.009": 1.73238515719,
			"0.01": 2.14902700532,
			"0.011": 2.38613300536,
			"0.012": 2.39136826296,
			"0.013": 0.943109944496,
			"0.014": 0.781053246897,
			"0.015": 0.838568945304,
			"0.016": 0.0551262991277,
			"0.017": 0.0,
			"0.018": 0.0,
			"0.019": 0.0,
			"0.02": 0.0,
			"0.021": 0.0,
			"0.022": 0.0,
			"0.023": 0.0,
			"0.024": 0.0,
			"0.025": 0.0
		}
	}
}
