{
	 "smiles": "CC(N)=CC#N", 
	 "Tm": 278.15, 
	 "num_atms": 12, 
	 "gaussian": { 
		 "optdone": 1, 
		 "sigma_profile": "yes", 
		 "theory": "DFT", 
		 "functional": "B3LYP", 
		 "basiset": "6-31G**", 
		 "properties": { 
			 "R2extent": 708.4361, 
			 "electric_dipole_moment_norm": 5.48796328249, 
			 "electric_quadrupole_moment_norm": 10.2904482128, 
			 "total_energy": -265.525336555, 
			 "HOMO_LUMO_gap": 0.2059, 
			 "cosmo_polarized_energy": -13.62, 
			 "cosmo_cavitation_energy": 16.7, 
			 "cosmo_dispersion_energy": -11.79, 
			 "cosmo_repulsion_energy": 1.04, 
			 "cosmo_total_nonelectrostatic_energy": 5.95, 
			 "SMD_solvation_energy": 4.69 
		},
		"coords": [
			{
				"x": -0.803084217,
				"y": -1.2464371929,
				"z": -1.3223058312,
				"element": "C" 
			},
			{
				"x": 0.172767395,
				"y": -0.5266332176,
				"z": -0.4320411067,
				"element": "C" 
			},
			{
				"x": 0.8094019324,
				"y": -1.3060698696,
				"z": 0.4947241386,
				"element": "N" 
			},
			{
				"x": 0.4273429468,
				"y": 0.8054185345,
				"z": -0.5840760623,
				"element": "C" 
			},
			{
				"x": 1.3333634553,
				"y": 1.481857977,
				"z": 0.270133097,
				"element": "C" 
			},
			{
				"x": 2.0828891028,
				"y": 1.9924888146,
				"z": 1.0055684167,
				"element": "N" 
			},
			{
				"x": -0.3050223995,
				"y": -2.0619556622,
				"z": -1.8586051168,
				"element": "H" 
			},
			{
				"x": -1.6140202103,
				"y": -1.6882664868,
				"z": -0.7301638196,
				"element": "H" 
			},
			{
				"x": -1.2454038039,
				"y": -0.5678739093,
				"z": -2.0526258096,
				"element": "H" 
			},
			{
				"x": 0.3933800822,
				"y": -2.1842889862,
				"z": 0.7607947473,
				"element": "H" 
			},
			{
				"x": 1.3711601995,
				"y": -0.8491756435,
				"z": 1.2000335762,
				"element": "H" 
			},
			{
				"x": -0.0557744832,
				"y": 1.3666356419,
				"z": -1.3734362297,
				"element": "H" 
			}
		],
		 "valence_orbital": [ 
			{
				"type": "occ",
				"energy": -0.36426,
				"method": "rhf"
			},
			{
				"type": "occ",
				"energy": -0.34014,
				"method": "rhf"
			},
			{
				"type": "occ",
				"energy": -0.32407,
				"method": "rhf"
			},
			{
				"type": "occ",
				"energy": -0.31319,
				"method": "rhf"
			},
			{
				"type": "occ",
				"energy": -0.21965,
				"method": "rhf"
			},
			{
				"type": "unocc",
				"energy": -0.01375,
				"method": "rhf"
			},
			{
				"type": "unocc",
				"energy": 0.03829,
				"method": "rhf"
			},
			{
				"type": "unocc",
				"energy": 0.07161,
				"method": "rhf"
			},
			{
				"type": "unocc",
				"energy": 0.11302,
				"method": "rhf"
			},
			{
				"type": "unocc",
				"energy": 0.12506,
				"method": "rhf"
			}
		],
		"cosmo_sigma_profile": { 
			"-0.025": 0.0,
			"-0.024": 0.0,
			"-0.023": 0.0,
			"-0.022": 0.0,
			"-0.021": 0.0,
			"-0.02": 0.0,
			"-0.019": 0.0,
			"-0.018": 0.0,
			"-0.017": 0.0,
			"-0.016": 0.0,
			"-0.015": 0.0161672191736,
			"-0.014": 1.33543515823,
			"-0.013": 1.63001249091,
			"-0.012": 2.06543213845,
			"-0.011": 2.82415603776,
			"-0.01": 2.83696245081,
			"-0.009": 1.75109845781,
			"-0.008": 1.64552323438,
			"-0.007": 4.71009356205,
			"-0.006": 8.99407950454,
			"-0.005": 9.40475610096,
			"-0.004": 8.12764327193,
			"-0.003": 8.24708285271,
			"-0.002": 8.64232858255,
			"-0.001": 8.8878693697,
			"0.0": 6.01082221279,
			"0.001": 5.6155135078,
			"0.002": 4.6464553403,
			"0.003": 6.67009392076,
			"0.004": 6.56584541412,
			"0.005": 4.56543256946,
			"0.006": 3.06619332262,
			"0.007": 2.30818830229,
			"0.008": 3.04371906475,
			"0.009": 2.98354020287,
			"0.01": 3.22003643472,
			"0.011": 3.42672614625,
			"0.012": 3.47482012715,
			"0.013": 2.65772557171,
			"0.014": 2.51380098907,
			"0.015": 1.03015821634,
			"0.016": 0.0,
			"0.017": 0.0,
			"0.018": 0.0,
			"0.019": 0.0,
			"0.02": 0.0,
			"0.021": 0.0,
			"0.022": 0.0,
			"0.023": 0.0,
			"0.024": 0.0,
			"0.025": 0.0
		}
	}
}
