{
	 "smiles": "CC(C)CNCC(O)C1=CC=CC=C1", 
	 "Tm": 335.15, 
	 "num_atms": 33, 
	 "gaussian": { 
		 "optdone": 1, 
		 "sigma_profile": "yes", 
		 "theory": "DFT", 
		 "functional": "B3LYP", 
		 "basiset": "6-31G**", 
		 "properties": { 
			 "R2extent": 3615.7278, 
			 "electric_dipole_moment_norm": 0.668030306199, 
			 "electric_quadrupole_moment_norm": 4.71947918631, 
			 "total_energy": -598.701026476, 
			 "HOMO_LUMO_gap": 0.21398, 
			 "cosmo_polarized_energy": -8.67, 
			 "cosmo_cavitation_energy": 34.37, 
			 "cosmo_dispersion_energy": -23.28, 
			 "cosmo_repulsion_energy": 1.87, 
			 "cosmo_total_nonelectrostatic_energy": 12.97, 
			 "SMD_solvation_energy": 4.23 
		},
		"coords": [
			{
				"x": 0.0585235499,
				"y": 2.9972789037,
				"z": -2.0375810956,
				"element": "C" 
			},
			{
				"x": -0.307171367,
				"y": 2.3568642072,
				"z": -0.6898923921,
				"element": "C" 
			},
			{
				"x": -1.5525070132,
				"y": 3.0237190343,
				"z": -0.0886221234,
				"element": "C" 
			},
			{
				"x": -0.5235280815,
				"y": 0.8395836484,
				"z": -0.8034677407,
				"element": "C" 
			},
			{
				"x": 0.6765495196,
				"y": 0.1332262281,
				"z": -1.2570698915,
				"element": "N" 
			},
			{
				"x": 0.5931462096,
				"y": -1.3270266611,
				"z": -1.2035410747,
				"element": "C" 
			},
			{
				"x": 1.394253917,
				"y": -1.9222251891,
				"z": -0.0272516715,
				"element": "C" 
			},
			{
				"x": 1.3181789806,
				"y": -3.3361572658,
				"z": -0.209658779,
				"element": "O" 
			},
			{
				"x": 0.8859059455,
				"y": -1.4929026985,
				"z": 1.3382469266,
				"element": "C" 
			},
			{
				"x": -0.1441649022,
				"y": -2.2034213649,
				"z": 1.9698612353,
				"element": "C" 
			},
			{
				"x": -0.6265014975,
				"y": -1.7977003446,
				"z": 3.2151554199,
				"element": "C" 
			},
			{
				"x": -0.0861483692,
				"y": -0.6745709351,
				"z": 3.8452064295,
				"element": "C" 
			},
			{
				"x": 0.9419723697,
				"y": 0.0381125074,
				"z": 3.2238089333,
				"element": "C" 
			},
			{
				"x": 1.4272416858,
				"y": -0.3718184736,
				"z": 1.9810712954,
				"element": "C" 
			},
			{
				"x": 0.9993555366,
				"y": 2.6033059019,
				"z": -2.4364464379,
				"element": "H" 
			},
			{
				"x": -0.7283757778,
				"y": 2.8235423069,
				"z": -2.7828879728,
				"element": "H" 
			},
			{
				"x": 0.1817795909,
				"y": 4.0808974891,
				"z": -1.9354943715,
				"element": "H" 
			},
			{
				"x": 0.5356880239,
				"y": 2.5067500647,
				"z": -0.0017060975,
				"element": "H" 
			},
			{
				"x": -1.4006144884,
				"y": 4.100769054,
				"z": 0.039356879,
				"element": "H" 
			},
			{
				"x": -2.4259799198,
				"y": 2.8885479448,
				"z": -0.7384222795,
				"element": "H" 
			},
			{
				"x": -1.7977843301,
				"y": 2.6006997493,
				"z": 0.8916090097,
				"element": "H" 
			},
			{
				"x": -0.7848551169,
				"y": 0.4494665515,
				"z": 0.1852347132,
				"element": "H" 
			},
			{
				"x": -1.3982140455,
				"y": 0.647522361,
				"z": -1.4571003826,
				"element": "H" 
			},
			{
				"x": 0.8930903182,
				"y": 0.4191135008,
				"z": -2.2049819366,
				"element": "H" 
			},
			{
				"x": 1.0190538131,
				"y": -1.7603717023,
				"z": -2.1152769323,
				"element": "H" 
			},
			{
				"x": -0.4439789673,
				"y": -1.6900784688,
				"z": -1.1372615017,
				"element": "H" 
			},
			{
				"x": 2.4324185093,
				"y": -1.5717152475,
				"z": -0.1367509148,
				"element": "H" 
			},
			{
				"x": 1.7618289662,
				"y": -3.7521119394,
				"z": 0.5410815219,
				"element": "H" 
			},
			{
				"x": -0.556600758,
				"y": -3.0791511238,
				"z": 1.4775824972,
				"element": "H" 
			},
			{
				"x": -1.4236955069,
				"y": -2.3594389988,
				"z": 3.6945720903,
				"element": "H" 
			},
			{
				"x": -0.4597380139,
				"y": -0.3598599409,
				"z": 4.8155856081,
				"element": "H" 
			},
			{
				"x": 1.3717529701,
				"y": 0.9091376293,
				"z": 3.7109691125,
				"element": "H" 
			},
			{
				"x": 2.2252182493,
				"y": 0.1835132719,
				"z": 1.4962719238,
				"element": "H" 
			}
		],
		 "valence_orbital": [ 
			{
				"type": "occ",
				"energy": -0.31177,
				"method": "rhf"
			},
			{
				"type": "occ",
				"energy": -0.27285,
				"method": "rhf"
			},
			{
				"type": "occ",
				"energy": -0.24661,
				"method": "rhf"
			},
			{
				"type": "occ",
				"energy": -0.23848,
				"method": "rhf"
			},
			{
				"type": "occ",
				"energy": -0.2153,
				"method": "rhf"
			},
			{
				"type": "unocc",
				"energy": -0.00132,
				"method": "rhf"
			},
			{
				"type": "unocc",
				"energy": 0.00138,
				"method": "rhf"
			},
			{
				"type": "unocc",
				"energy": 0.08232,
				"method": "rhf"
			},
			{
				"type": "unocc",
				"energy": 0.0914,
				"method": "rhf"
			},
			{
				"type": "unocc",
				"energy": 0.10188,
				"method": "rhf"
			}
		],
		"cosmo_sigma_profile": { 
			"-0.025": 0.0,
			"-0.024": 0.0,
			"-0.023": 0.0,
			"-0.022": 0.0,
			"-0.021": 0.0,
			"-0.02": 0.0,
			"-0.019": 0.0,
			"-0.018": 0.0,
			"-0.017": 0.0,
			"-0.016": 0.0,
			"-0.015": 0.618736282696,
			"-0.014": 0.849513416884,
			"-0.013": 0.926415578766,
			"-0.012": 0.973700068985,
			"-0.011": 0.382169714095,
			"-0.01": 1.38502677199,
			"-0.009": 1.5307653079,
			"-0.008": 2.35014623395,
			"-0.007": 1.95445366395,
			"-0.006": 4.26244401641,
			"-0.005": 11.5852887131,
			"-0.004": 13.9855636358,
			"-0.003": 21.2203802558,
			"-0.002": 28.6760429448,
			"-0.001": 37.5930468417,
			"0.0": 33.5079043248,
			"0.001": 30.1295772509,
			"0.002": 19.0569913074,
			"0.003": 11.9922513944,
			"0.004": 10.5247266354,
			"0.005": 9.83595274543,
			"0.006": 7.96930577388,
			"0.007": 2.81842476387,
			"0.008": 2.23033240093,
			"0.009": 1.12586848766,
			"0.01": 2.17141470816,
			"0.011": 1.90892249985,
			"0.012": 1.81928971694,
			"0.013": 1.83586293676,
			"0.014": 1.92260307012,
			"0.015": 0.0123926796504,
			"0.016": 0.0,
			"0.017": 0.0,
			"0.018": 0.0,
			"0.019": 0.0,
			"0.02": 0.0,
			"0.021": 0.0,
			"0.022": 0.0,
			"0.023": 0.0,
			"0.024": 0.0,
			"0.025": 0.0
		}
	}
}
