{
	 "smiles": "CCC=CC(O)=O", 
	 "Tm": 282.15, 
	 "num_atms": 15, 
	 "gaussian": { 
		 "optdone": 1, 
		 "sigma_profile": "yes", 
		 "theory": "DFT", 
		 "functional": "B3LYP", 
		 "basiset": "6-31G**", 
		 "properties": { 
			 "R2extent": 1596.6324, 
			 "electric_dipole_moment_norm": 5.27797407155, 
			 "electric_quadrupole_moment_norm": 17.7600998922, 
			 "total_energy": -345.792922714, 
			 "HOMO_LUMO_gap": 0.22174, 
			 "cosmo_polarized_energy": -13.71, 
			 "cosmo_cavitation_energy": 18.91, 
			 "cosmo_dispersion_energy": -13.89, 
			 "cosmo_repulsion_energy": 1.21, 
			 "cosmo_total_nonelectrostatic_energy": 6.22, 
			 "SMD_solvation_energy": 4.76 
		},
		"coords": [
			{
				"x": -0.8979019568,
				"y": 1.1913049322,
				"z": 0.2311373909,
				"element": "C" 
			},
			{
				"x": 0.6154671868,
				"y": 1.3450103755,
				"z": 0.0725992742,
				"element": "C" 
			},
			{
				"x": 1.4510585688,
				"y": 0.1837534468,
				"z": 0.5363047234,
				"element": "C" 
			},
			{
				"x": 1.0003841197,
				"y": -0.9691991336,
				"z": 1.0487956986,
				"element": "C" 
			},
			{
				"x": 1.8522683262,
				"y": -2.1273766318,
				"z": 1.4360224038,
				"element": "C" 
			},
			{
				"x": 3.1610888183,
				"y": -1.8768287221,
				"z": 1.7239109346,
				"element": "O" 
			},
			{
				"x": 1.4262484126,
				"y": -3.2573038725,
				"z": 1.489916639,
				"element": "O" 
			},
			{
				"x": -1.4110536139,
				"y": 2.0881447553,
				"z": -0.1272546506,
				"element": "H" 
			},
			{
				"x": -1.2755463768,
				"y": 0.3391163455,
				"z": -0.342640498,
				"element": "H" 
			},
			{
				"x": -1.1773095035,
				"y": 1.042455655,
				"z": 1.2790610477,
				"element": "H" 
			},
			{
				"x": 0.8636179789,
				"y": 1.5400271472,
				"z": -0.9810338592,
				"element": "H" 
			},
			{
				"x": 0.9584431085,
				"y": 2.2421148166,
				"z": 0.6092951219,
				"element": "H" 
			},
			{
				"x": 2.5261210753,
				"y": 0.3206754025,
				"z": 0.3999785787,
				"element": "H" 
			},
			{
				"x": -0.0623292863,
				"y": -1.1692859305,
				"z": 1.1384477799,
				"element": "H" 
			},
			{
				"x": 3.3020431423,
				"y": -0.9232085862,
				"z": 1.8016594152,
				"element": "H" 
			}
		],
		 "valence_orbital": [ 
			{
				"type": "occ",
				"energy": -0.37196,
				"method": "rhf"
			},
			{
				"type": "occ",
				"energy": -0.36502,
				"method": "rhf"
			},
			{
				"type": "occ",
				"energy": -0.31339,
				"method": "rhf"
			},
			{
				"type": "occ",
				"energy": -0.2827,
				"method": "rhf"
			},
			{
				"type": "occ",
				"energy": -0.26535,
				"method": "rhf"
			},
			{
				"type": "unocc",
				"energy": -0.04361,
				"method": "rhf"
			},
			{
				"type": "unocc",
				"energy": 0.059,
				"method": "rhf"
			},
			{
				"type": "unocc",
				"energy": 0.07674,
				"method": "rhf"
			},
			{
				"type": "unocc",
				"energy": 0.08984,
				"method": "rhf"
			},
			{
				"type": "unocc",
				"energy": 0.10893,
				"method": "rhf"
			}
		],
		"cosmo_sigma_profile": { 
			"-0.025": 0.0,
			"-0.024": 0.0,
			"-0.023": 0.0,
			"-0.022": 0.0,
			"-0.021": 0.0,
			"-0.02": 0.0,
			"-0.019": 0.0235154379698,
			"-0.018": 0.514046400544,
			"-0.017": 1.26735413719,
			"-0.016": 0.869030261157,
			"-0.015": 1.04512087345,
			"-0.014": 0.888662274733,
			"-0.013": 0.560848076709,
			"-0.012": 0.754462512516,
			"-0.011": 1.88792057457,
			"-0.01": 0.748835966274,
			"-0.009": 1.1584994604,
			"-0.008": 1.54205040233,
			"-0.007": 2.45841719833,
			"-0.006": 3.0475475134,
			"-0.005": 6.68707816918,
			"-0.004": 12.8540684061,
			"-0.003": 16.1631032579,
			"-0.002": 17.5603711375,
			"-0.001": 15.4577963874,
			"0.0": 11.4988094975,
			"0.001": 8.86044797462,
			"0.002": 4.92262099718,
			"0.003": 3.84487464568,
			"0.004": 1.91337498432,
			"0.005": 2.3565722818,
			"0.006": 1.922448013,
			"0.007": 2.32965690966,
			"0.008": 2.50847984688,
			"0.009": 3.40557442629,
			"0.01": 3.72706964629,
			"0.011": 5.25641082297,
			"0.012": 6.06295026514,
			"0.013": 4.06310553543,
			"0.014": 0.594280625495,
			"0.015": 0.0,
			"0.016": 0.0,
			"0.017": 0.0,
			"0.018": 0.0,
			"0.019": 0.0,
			"0.02": 0.0,
			"0.021": 0.0,
			"0.022": 0.0,
			"0.023": 0.0,
			"0.024": 0.0,
			"0.025": 0.0
		}
	}
}
