{
	 "smiles": "CC(=O)C1=CC=CC(=C1)N=C=O", 
	 "Tm": 306.65, 
	 "num_atms": 19, 
	 "gaussian": { 
		 "optdone": 1, 
		 "sigma_profile": "yes", 
		 "theory": "DFT", 
		 "functional": "B3LYP", 
		 "basiset": "6-31G**", 
		 "properties": { 
			 "R2extent": 2708.4366, 
			 "electric_dipole_moment_norm": 0.548200556366, 
			 "electric_quadrupole_moment_norm": 19.5720074704, 
			 "total_energy": -552.378161372, 
			 "HOMO_LUMO_gap": 0.18089, 
			 "cosmo_polarized_energy": -9.2, 
			 "cosmo_cavitation_energy": 25.12, 
			 "cosmo_dispersion_energy": -17.86, 
			 "cosmo_repulsion_energy": 1.42, 
			 "cosmo_total_nonelectrostatic_energy": 8.68, 
			 "SMD_solvation_energy": 7.4 
		},
		"coords": [
			{
				"x": -2.6242826559,
				"y": -2.4695552492,
				"z": 0.7918302526,
				"element": "C" 
			},
			{
				"x": -1.7031285861,
				"y": -2.3187134018,
				"z": -0.4058412217,
				"element": "C" 
			},
			{
				"x": -1.6062044922,
				"y": -3.2095177016,
				"z": -1.2351296395,
				"element": "O" 
			},
			{
				"x": -0.9082917642,
				"y": -1.0516216918,
				"z": -0.557325408,
				"element": "C" 
			},
			{
				"x": -0.0630595185,
				"y": -0.9305550569,
				"z": -1.6704613668,
				"element": "C" 
			},
			{
				"x": 0.6918207488,
				"y": 0.2249831213,
				"z": -1.8515890683,
				"element": "C" 
			},
			{
				"x": 0.6164974141,
				"y": 1.270930808,
				"z": -0.9320825493,
				"element": "C" 
			},
			{
				"x": -0.2265511442,
				"y": 1.1564159744,
				"z": 0.1830568379,
				"element": "C" 
			},
			{
				"x": -0.9862959137,
				"y": -0.0037249017,
				"z": 0.3674902109,
				"element": "C" 
			},
			{
				"x": -0.3397325895,
				"y": 2.1741865247,
				"z": 1.13477585,
				"element": "N" 
			},
			{
				"x": 0.0990968734,
				"y": 3.2782547202,
				"z": 1.3657529461,
				"element": "C" 
			},
			{
				"x": 0.4446729799,
				"y": 4.3516755142,
				"z": 1.706053594,
				"element": "O" 
			},
			{
				"x": -3.1136878995,
				"y": -3.4419995956,
				"z": 0.7345894145,
				"element": "H" 
			},
			{
				"x": -3.3840287443,
				"y": -1.6802654632,
				"z": 0.8056270552,
				"element": "H" 
			},
			{
				"x": -2.0636248699,
				"y": -2.3993375167,
				"z": 1.7305215461,
				"element": "H" 
			},
			{
				"x": -0.0183557506,
				"y": -1.7544538528,
				"z": -2.3738990003,
				"element": "H" 
			},
			{
				"x": 1.3460314087,
				"y": 0.3187213695,
				"z": -2.7131924553,
				"element": "H" 
			},
			{
				"x": 1.2043405009,
				"y": 2.173468057,
				"z": -1.0709947642,
				"element": "H" 
			},
			{
				"x": -1.6285159973,
				"y": -0.0632916582,
				"z": 1.238417766,
				"element": "H" 
			}
		],
		 "valence_orbital": [ 
			{
				"type": "occ",
				"energy": -0.33089,
				"method": "rhf"
			},
			{
				"type": "occ",
				"energy": -0.31753,
				"method": "rhf"
			},
			{
				"type": "occ",
				"energy": -0.27459,
				"method": "rhf"
			},
			{
				"type": "occ",
				"energy": -0.25565,
				"method": "rhf"
			},
			{
				"type": "occ",
				"energy": -0.24681,
				"method": "rhf"
			},
			{
				"type": "unocc",
				"energy": -0.06592,
				"method": "rhf"
			},
			{
				"type": "unocc",
				"energy": -0.02929,
				"method": "rhf"
			},
			{
				"type": "unocc",
				"energy": 0.00312,
				"method": "rhf"
			},
			{
				"type": "unocc",
				"energy": 0.01954,
				"method": "rhf"
			},
			{
				"type": "unocc",
				"energy": 0.08069,
				"method": "rhf"
			}
		],
		"cosmo_sigma_profile": { 
			"-0.025": 0.0,
			"-0.024": 0.0,
			"-0.023": 0.0,
			"-0.022": 0.0,
			"-0.021": 0.0,
			"-0.02": 0.0,
			"-0.019": 0.0,
			"-0.018": 0.0,
			"-0.017": 0.0,
			"-0.016": 0.0,
			"-0.015": 0.0,
			"-0.014": 0.0,
			"-0.013": 0.0,
			"-0.012": 0.0,
			"-0.011": 0.0,
			"-0.01": 0.0,
			"-0.009": 0.642786964491,
			"-0.008": 2.92310438507,
			"-0.007": 8.46909343254,
			"-0.006": 13.9842840725,
			"-0.005": 14.870598265,
			"-0.004": 13.0532895826,
			"-0.003": 15.8480849059,
			"-0.002": 15.6439459711,
			"-0.001": 15.9817724122,
			"0.0": 13.9199704451,
			"0.001": 15.2846191836,
			"0.002": 18.2394088709,
			"0.003": 13.9883021468,
			"0.004": 5.7699288378,
			"0.005": 5.04129125385,
			"0.006": 4.6163180452,
			"0.007": 9.30669611303,
			"0.008": 3.12203907082,
			"0.009": 1.69588389085,
			"0.01": 2.03171493353,
			"0.011": 3.37441704165,
			"0.012": 3.61078321804,
			"0.013": 1.15243770179,
			"0.014": 0.0548874497045,
			"0.015": 0.0,
			"0.016": 0.0,
			"0.017": 0.0,
			"0.018": 0.0,
			"0.019": 0.0,
			"0.02": 0.0,
			"0.021": 0.0,
			"0.022": 0.0,
			"0.023": 0.0,
			"0.024": 0.0,
			"0.025": 0.0
		}
	}
}
