{
	 "smiles": "OC(=O)CCCNS(=O)(=O)C1=CC2=C(CCCC2)C=C1", 
	 "Tm": 404.15, 
	 "num_atms": 39, 
	 "gaussian": { 
		 "optdone": 1, 
		 "sigma_profile": "yes", 
		 "theory": "DFT", 
		 "functional": "B3LYP", 
		 "basiset": "6-31G**", 
		 "properties": { 
			 "R2extent": 9257.9085, 
			 "electric_dipole_moment_norm": 7.46655528139, 
			 "electric_quadrupole_moment_norm": 27.1392150482, 
			 "total_energy": -1298.74117976, 
			 "HOMO_LUMO_gap": 0.21758, 
			 "cosmo_polarized_energy": -23.33, 
			 "cosmo_cavitation_energy": 42.84, 
			 "cosmo_dispersion_energy": -29.9, 
			 "cosmo_repulsion_energy": 2.33, 
			 "cosmo_total_nonelectrostatic_energy": 15.27, 
			 "SMD_solvation_energy": 5.85 
		},
		"coords": [
			{
				"x": 4.146150788,
				"y": -0.4186687916,
				"z": 2.913324387,
				"element": "O" 
			},
			{
				"x": 4.5827150189,
				"y": -1.7020339959,
				"z": 2.9979355708,
				"element": "C" 
			},
			{
				"x": 5.1575193622,
				"y": -2.1308767834,
				"z": 3.9727126612,
				"element": "O" 
			},
			{
				"x": 4.2251558298,
				"y": -2.5080936723,
				"z": 1.7666304528,
				"element": "C" 
			},
			{
				"x": 2.8802913281,
				"y": -3.2479971175,
				"z": 1.9348592687,
				"element": "C" 
			},
			{
				"x": 1.6719105803,
				"y": -2.3063967467,
				"z": 1.966718951,
				"element": "C" 
			},
			{
				"x": 0.4407098158,
				"y": -3.0873804587,
				"z": 2.1210156244,
				"element": "N" 
			},
			{
				"x": -0.9874331007,
				"y": -2.3074737645,
				"z": 2.5553067029,
				"element": "S" 
			},
			{
				"x": -1.9972550365,
				"y": -3.3661646541,
				"z": 2.5980886925,
				"element": "O" 
			},
			{
				"x": -0.6613608666,
				"y": -1.4744541974,
				"z": 3.7141277467,
				"element": "O" 
			},
			{
				"x": -1.4149789065,
				"y": -1.2054235701,
				"z": 1.2018443701,
				"element": "C" 
			},
			{
				"x": -0.9319833749,
				"y": 0.1064172873,
				"z": 1.2025899495,
				"element": "C" 
			},
			{
				"x": -1.2393334103,
				"y": 0.955611914,
				"z": 0.1386358693,
				"element": "C" 
			},
			{
				"x": -2.0266211192,
				"y": 0.4804687166,
				"z": -0.9289346316,
				"element": "C" 
			},
			{
				"x": -2.3129497688,
				"y": 1.4512924743,
				"z": -2.0469993554,
				"element": "C" 
			},
			{
				"x": -1.0219947025,
				"y": 2.1671945457,
				"z": -2.5095295766,
				"element": "C" 
			},
			{
				"x": -0.1610995362,
				"y": 2.7010758792,
				"z": -1.3274961608,
				"element": "C" 
			},
			{
				"x": -0.7709462928,
				"y": 2.3878005041,
				"z": 0.0592539355,
				"element": "C" 
			},
			{
				"x": -2.5006388922,
				"y": -0.8345996256,
				"z": -0.9108167383,
				"element": "C" 
			},
			{
				"x": -2.2035866997,
				"y": -1.6850862069,
				"z": 0.1538123543,
				"element": "C" 
			},
			{
				"x": 4.3780386537,
				"y": 0.0015274664,
				"z": 3.7594607678,
				"element": "H" 
			},
			{
				"x": 4.1917453168,
				"y": -1.8512614775,
				"z": 0.8918407581,
				"element": "H" 
			},
			{
				"x": 5.0219030791,
				"y": -3.2420180381,
				"z": 1.6240631913,
				"element": "H" 
			},
			{
				"x": 2.8993291387,
				"y": -3.8462688319,
				"z": 2.8513307338,
				"element": "H" 
			},
			{
				"x": 2.7741647217,
				"y": -3.9495084439,
				"z": 1.0975421841,
				"element": "H" 
			},
			{
				"x": 1.6584871527,
				"y": -1.6818696662,
				"z": 1.0592537198,
				"element": "H" 
			},
			{
				"x": 1.7333011611,
				"y": -1.634565998,
				"z": 2.8254914602,
				"element": "H" 
			},
			{
				"x": 0.2583763922,
				"y": -3.7589183711,
				"z": 1.379878277,
				"element": "H" 
			},
			{
				"x": -0.3453823975,
				"y": 0.4622434951,
				"z": 2.0437095322,
				"element": "H" 
			},
			{
				"x": -3.0300812589,
				"y": 2.2047928316,
				"z": -1.6898216369,
				"element": "H" 
			},
			{
				"x": -2.7925287176,
				"y": 0.9453647053,
				"z": -2.8911575219,
				"element": "H" 
			},
			{
				"x": -1.2922401151,
				"y": 2.9835919141,
				"z": -3.1872174515,
				"element": "H" 
			},
			{
				"x": -0.4305166177,
				"y": 1.459643173,
				"z": -3.1001147726,
				"element": "H" 
			},
			{
				"x": -0.0175369597,
				"y": 3.7829656877,
				"z": -1.4154378879,
				"element": "H" 
			},
			{
				"x": 0.83713967,
				"y": 2.2532112553,
				"z": -1.373910138,
				"element": "H" 
			},
			{
				"x": -0.0490759385,
				"y": 2.6071520526,
				"z": 0.8522807385,
				"element": "H" 
			},
			{
				"x": -1.6293735629,
				"y": 3.0535530995,
				"z": 0.229978131,
				"element": "H" 
			},
			{
				"x": -3.1157360237,
				"y": -1.1950510138,
				"z": -1.7314532221,
				"element": "H" 
			},
			{
				"x": -2.5916847106,
				"y": -2.6973955766,
				"z": 0.1889030628,
				"element": "H" 
			}
		],
		 "valence_orbital": [ 
			{
				"type": "occ",
				"energy": -0.29699,
				"method": "rhf"
			},
			{
				"type": "occ",
				"energy": -0.28005,
				"method": "rhf"
			},
			{
				"type": "occ",
				"energy": -0.27874,
				"method": "rhf"
			},
			{
				"type": "occ",
				"energy": -0.26221,
				"method": "rhf"
			},
			{
				"type": "occ",
				"energy": -0.2507,
				"method": "rhf"
			},
			{
				"type": "unocc",
				"energy": -0.03312,
				"method": "rhf"
			},
			{
				"type": "unocc",
				"energy": -0.0173,
				"method": "rhf"
			},
			{
				"type": "unocc",
				"energy": -0.00051,
				"method": "rhf"
			},
			{
				"type": "unocc",
				"energy": 0.06318,
				"method": "rhf"
			},
			{
				"type": "unocc",
				"energy": 0.06936,
				"method": "rhf"
			}
		],
		"cosmo_sigma_profile": { 
			"-0.025": 0.0,
			"-0.024": 0.0,
			"-0.023": 0.0,
			"-0.022": 0.0,
			"-0.021": 0.0,
			"-0.02": 0.0,
			"-0.019": 0.0,
			"-0.018": 0.609985704361,
			"-0.017": 0.96822336169,
			"-0.016": 0.763446983151,
			"-0.015": 1.19677323975,
			"-0.014": 2.15990008551,
			"-0.013": 1.46630459077,
			"-0.012": 1.77315646284,
			"-0.011": 2.20276216604,
			"-0.01": 2.40228779828,
			"-0.009": 1.85108486784,
			"-0.008": 1.36763180287,
			"-0.007": 3.48314389842,
			"-0.006": 10.4268954639,
			"-0.005": 19.5652174575,
			"-0.004": 32.7840748075,
			"-0.003": 33.2334194109,
			"-0.002": 38.636427443,
			"-0.001": 33.6726774803,
			"0.0": 26.1905746326,
			"0.001": 17.3082743836,
			"0.002": 12.1157221737,
			"0.003": 15.1720653239,
			"0.004": 11.7766853415,
			"0.005": 5.55505629974,
			"0.006": 4.71142133949,
			"0.007": 6.86072898726,
			"0.008": 7.07047273375,
			"0.009": 7.34807421329,
			"0.01": 8.74708460107,
			"0.011": 12.5882030044,
			"0.012": 10.6672087302,
			"0.013": 1.12217496277,
			"0.014": 0.0,
			"0.015": 0.0,
			"0.016": 0.0,
			"0.017": 0.0,
			"0.018": 0.0,
			"0.019": 0.0,
			"0.02": 0.0,
			"0.021": 0.0,
			"0.022": 0.0,
			"0.023": 0.0,
			"0.024": 0.0,
			"0.025": 0.0
		}
	}
}
