{
	 "smiles": "COC(=O)C1=C(NC(=O)CCl)SC2=C1CCC2", 
	 "Tm": 372.15, 
	 "num_atms": 29, 
	 "gaussian": { 
		 "optdone": 1, 
		 "sigma_profile": "yes", 
		 "theory": "DFT", 
		 "functional": "B3LYP", 
		 "basiset": "6-31G**", 
		 "properties": { 
			 "R2extent": 6460.2591, 
			 "electric_dipole_moment_norm": 5.44502282273, 
			 "electric_quadrupole_moment_norm": 12.2513701209, 
			 "total_energy": -1565.21566261, 
			 "HOMO_LUMO_gap": 0.15361, 
			 "cosmo_polarized_energy": -12.1, 
			 "cosmo_cavitation_energy": 35.35, 
			 "cosmo_dispersion_energy": -26.24, 
			 "cosmo_repulsion_energy": 2.02, 
			 "cosmo_total_nonelectrostatic_energy": 11.14, 
			 "SMD_solvation_energy": 6.94 
		},
		"coords": [
			{
				"x": -1.1479990366,
				"y": -2.8072384665,
				"z": -1.3934186631,
				"element": "C" 
			},
			{
				"x": -0.1857972349,
				"y": -1.7495061554,
				"z": -1.2439063183,
				"element": "O" 
			},
			{
				"x": -0.5259761868,
				"y": -0.7764817627,
				"z": -0.3729290815,
				"element": "C" 
			},
			{
				"x": -1.5856474238,
				"y": -0.7980938595,
				"z": 0.2487973234,
				"element": "O" 
			},
			{
				"x": 0.4879694884,
				"y": 0.2734969957,
				"z": -0.2706255991,
				"element": "C" 
			},
			{
				"x": 0.3202143894,
				"y": 1.3722619332,
				"z": 0.5795204463,
				"element": "C" 
			},
			{
				"x": -0.7878512311,
				"y": 1.5349281823,
				"z": 1.3881559401,
				"element": "N" 
			},
			{
				"x": -1.1569574879,
				"y": 2.406908245,
				"z": 2.3987800193,
				"element": "C" 
			},
			{
				"x": -2.2035381966,
				"y": 2.2235689176,
				"z": 2.9983241442,
				"element": "O" 
			},
			{
				"x": -0.2614122353,
				"y": 3.5816117984,
				"z": 2.7686644579,
				"element": "C" 
			},
			{
				"x": -0.4873268737,
				"y": 4.9682697224,
				"z": 1.6213571833,
				"element": "Cl" 
			},
			{
				"x": 1.6819597114,
				"y": 2.4766075874,
				"z": 0.474287587,
				"element": "S" 
			},
			{
				"x": 2.4792381086,
				"y": 1.432081196,
				"z": -0.6705445494,
				"element": "C" 
			},
			{
				"x": 1.7394358506,
				"y": 0.3346242184,
				"z": -0.9740182615,
				"element": "C" 
			},
			{
				"x": 2.430110808,
				"y": -0.4929985861,
				"z": -2.0302419798,
				"element": "C" 
			},
			{
				"x": 3.8582772732,
				"y": 0.1315820424,
				"z": -2.0746028074,
				"element": "C" 
			},
			{
				"x": 3.7541629076,
				"y": 1.5603731431,
				"z": -1.4537701003,
				"element": "C" 
			},
			{
				"x": -0.7174332473,
				"y": -3.4906020922,
				"z": -2.1249913408,
				"element": "H" 
			},
			{
				"x": -2.1019282934,
				"y": -2.4120199021,
				"z": -1.7505952654,
				"element": "H" 
			},
			{
				"x": -1.3117302384,
				"y": -3.3165244559,
				"z": -0.4407029359,
				"element": "H" 
			},
			{
				"x": -1.4646621702,
				"y": 0.7747225015,
				"z": 1.2473015797,
				"element": "H" 
			},
			{
				"x": -0.5826720035,
				"y": 3.9252414708,
				"z": 3.7495115178,
				"element": "H" 
			},
			{
				"x": 0.8013230673,
				"y": 3.3364967147,
				"z": 2.7807909886,
				"element": "H" 
			},
			{
				"x": 1.9107751997,
				"y": -0.3978029785,
				"z": -2.9928211444,
				"element": "H" 
			},
			{
				"x": 2.4499079384,
				"y": -1.5603476977,
				"z": -1.7937959462,
				"element": "H" 
			},
			{
				"x": 4.5324456013,
				"y": -0.4725406229,
				"z": -1.4594838266,
				"element": "H" 
			},
			{
				"x": 4.2727629039,
				"y": 0.1532225581,
				"z": -3.0860145856,
				"element": "H" 
			},
			{
				"x": 3.672698631,
				"y": 2.3372151073,
				"z": -2.2265089755,
				"element": "H" 
			},
			{
				"x": 4.6292499804,
				"y": 1.8088442452,
				"z": -0.8432198066,
				"element": "H" 
			}
		],
		 "valence_orbital": [ 
			{
				"type": "occ",
				"energy": -0.30577,
				"method": "rhf"
			},
			{
				"type": "occ",
				"energy": -0.28863,
				"method": "rhf"
			},
			{
				"type": "occ",
				"energy": -0.26818,
				"method": "rhf"
			},
			{
				"type": "occ",
				"energy": -0.26224,
				"method": "rhf"
			},
			{
				"type": "occ",
				"energy": -0.21136,
				"method": "rhf"
			},
			{
				"type": "unocc",
				"energy": -0.05775,
				"method": "rhf"
			},
			{
				"type": "unocc",
				"energy": -0.01537,
				"method": "rhf"
			},
			{
				"type": "unocc",
				"energy": 0.00828,
				"method": "rhf"
			},
			{
				"type": "unocc",
				"energy": 0.00987,
				"method": "rhf"
			},
			{
				"type": "unocc",
				"energy": 0.05601,
				"method": "rhf"
			}
		],
		"cosmo_sigma_profile": { 
			"-0.025": 0.0,
			"-0.024": 0.0,
			"-0.023": 0.0,
			"-0.022": 0.0,
			"-0.021": 0.0,
			"-0.02": 0.0,
			"-0.019": 0.0,
			"-0.018": 0.0,
			"-0.017": 0.0,
			"-0.016": 0.0,
			"-0.015": 0.0,
			"-0.014": 0.0,
			"-0.013": 0.0,
			"-0.012": 0.0,
			"-0.011": 0.0,
			"-0.01": 0.455529088028,
			"-0.009": 2.58002132702,
			"-0.008": 4.63130451745,
			"-0.007": 5.05261532782,
			"-0.006": 9.35523680264,
			"-0.005": 11.706210676,
			"-0.004": 21.9429533857,
			"-0.003": 30.610101344,
			"-0.002": 32.6145886481,
			"-0.001": 29.5287156239,
			"0.0": 26.5911858154,
			"0.001": 20.6140102348,
			"0.002": 18.9549438635,
			"0.003": 15.6823273062,
			"0.004": 13.6314858799,
			"0.005": 13.0043679139,
			"0.006": 4.13558914464,
			"0.007": 2.35901038236,
			"0.008": 2.77504840115,
			"0.009": 2.79685565347,
			"0.01": 4.09108957853,
			"0.011": 5.10344126884,
			"0.012": 5.75674496717,
			"0.013": 0.704465118641,
			"0.014": 0.0,
			"0.015": 0.0,
			"0.016": 0.0,
			"0.017": 0.0,
			"0.018": 0.0,
			"0.019": 0.0,
			"0.02": 0.0,
			"0.021": 0.0,
			"0.022": 0.0,
			"0.023": 0.0,
			"0.024": 0.0,
			"0.025": 0.0
		}
	}
}
