{
	 "smiles": "CCOC(=O)C1=CC(=C(OC)C(Br)=C1)S(Cl)(=O)=O", 
	 "Tm": 336.15, 
	 "num_atms": 28, 
	 "gaussian": { 
		 "optdone": 1, 
		 "sigma_profile": "yes", 
		 "theory": "DFT", 
		 "functional": "B3LYP", 
		 "basiset": "6-31G**", 
		 "properties": { 
			 "R2extent": 11339.8721, 
			 "electric_dipole_moment_norm": 6.49981574585, 
			 "electric_quadrupole_moment_norm": 28.7192534177, 
			 "total_energy": -4192.91616651, 
			 "HOMO_LUMO_gap": 0.17397, 
			 "cosmo_polarized_energy": -12.99, 
			 "cosmo_cavitation_energy": 38.21, 
			 "cosmo_dispersion_energy": -27.77, 
			 "cosmo_repulsion_energy": 2.12, 
			 "cosmo_total_nonelectrostatic_energy": 12.56, 
			 "SMD_solvation_energy": 6.03 
		},
		"coords": [
			{
				"x": 2.7041445374,
				"y": 2.0652242683,
				"z": 1.2805019922,
				"element": "C" 
			},
			{
				"x": 2.8764602395,
				"y": 0.55890631,
				"z": 1.3958669453,
				"element": "C" 
			},
			{
				"x": 1.6493661243,
				"y": -0.1390663599,
				"z": 1.0569316662,
				"element": "O" 
			},
			{
				"x": 1.4410641366,
				"y": -0.3900183927,
				"z": -0.2507487046,
				"element": "C" 
			},
			{
				"x": 2.2050912185,
				"y": -0.0769851409,
				"z": -1.1417979756,
				"element": "O" 
			},
			{
				"x": 0.1526912654,
				"y": -1.1085281734,
				"z": -0.4853473334,
				"element": "C" 
			},
			{
				"x": -0.1869074163,
				"y": -1.4310372438,
				"z": -1.8017178582,
				"element": "C" 
			},
			{
				"x": -1.3811748982,
				"y": -2.0960840949,
				"z": -2.048542297,
				"element": "C" 
			},
			{
				"x": -2.2785880859,
				"y": -2.4646853748,
				"z": -1.020522352,
				"element": "C" 
			},
			{
				"x": -3.3912312385,
				"y": -3.1317707948,
				"z": -1.3707992252,
				"element": "O" 
			},
			{
				"x": -4.6960910365,
				"y": -2.6573203796,
				"z": -0.9748718892,
				"element": "C" 
			},
			{
				"x": -1.8942109174,
				"y": -2.1474978734,
				"z": 0.297009668,
				"element": "C" 
			},
			{
				"x": -2.945972795,
				"y": -2.709604861,
				"z": 1.7844346516,
				"element": "Br" 
			},
			{
				"x": -0.7040917948,
				"y": -1.4738407042,
				"z": 0.5576113524,
				"element": "C" 
			},
			{
				"x": -1.7370327075,
				"y": -2.5122733276,
				"z": -3.7607737408,
				"element": "S" 
			},
			{
				"x": -3.4687685371,
				"y": -1.3142507027,
				"z": -4.1273966877,
				"element": "Cl" 
			},
			{
				"x": -0.6801279869,
				"y": -1.9443309454,
				"z": -4.5879475447,
				"element": "O" 
			},
			{
				"x": -2.1470998494,
				"y": -3.9009884563,
				"z": -3.8942602407,
				"element": "O" 
			},
			{
				"x": 2.5151710037,
				"y": 2.3535053579,
				"z": 0.2436990505,
				"element": "H" 
			},
			{
				"x": 1.8753540793,
				"y": 2.4129617742,
				"z": 1.9040206468,
				"element": "H" 
			},
			{
				"x": 3.618576814,
				"y": 2.5666335645,
				"z": 1.6140393843,
				"element": "H" 
			},
			{
				"x": 3.0819620924,
				"y": 0.2533887131,
				"z": 2.4241165453,
				"element": "H" 
			},
			{
				"x": 3.6733646513,
				"y": 0.1988316226,
				"z": 0.7415440874,
				"element": "H" 
			},
			{
				"x": 0.4736261871,
				"y": -1.152694619,
				"z": -2.6141410802,
				"element": "H" 
			},
			{
				"x": -4.6626731792,
				"y": -1.6021870945,
				"z": -0.6934105117,
				"element": "H" 
			},
			{
				"x": -5.0745700203,
				"y": -3.2520195347,
				"z": -0.1426581684,
				"element": "H" 
			},
			{
				"x": -5.3326677833,
				"y": -2.7818575945,
				"z": -1.8519493551,
				"element": "H" 
			},
			{
				"x": -0.4325641033,
				"y": -1.2447099424,
				"z": 1.5802089746,
				"element": "H" 
			}
		],
		 "valence_orbital": [ 
			{
				"type": "occ",
				"energy": -0.31383,
				"method": "rhf"
			},
			{
				"type": "occ",
				"energy": -0.31132,
				"method": "rhf"
			},
			{
				"type": "occ",
				"energy": -0.29264,
				"method": "rhf"
			},
			{
				"type": "occ",
				"energy": -0.28762,
				"method": "rhf"
			},
			{
				"type": "occ",
				"energy": -0.26633,
				"method": "rhf"
			},
			{
				"type": "unocc",
				"energy": -0.09236,
				"method": "rhf"
			},
			{
				"type": "unocc",
				"energy": -0.07254,
				"method": "rhf"
			},
			{
				"type": "unocc",
				"energy": -0.05333,
				"method": "rhf"
			},
			{
				"type": "unocc",
				"energy": -0.02549,
				"method": "rhf"
			},
			{
				"type": "unocc",
				"energy": 0.01792,
				"method": "rhf"
			}
		],
		"cosmo_sigma_profile": { 
			"-0.025": 0.0,
			"-0.024": 0.0,
			"-0.023": 0.0,
			"-0.022": 0.0,
			"-0.021": 0.0,
			"-0.02": 0.0,
			"-0.019": 0.0,
			"-0.018": 0.0,
			"-0.017": 0.0,
			"-0.016": 0.0,
			"-0.015": 0.0,
			"-0.014": 0.0,
			"-0.013": 0.0,
			"-0.012": 0.0,
			"-0.011": 0.0,
			"-0.01": 0.0,
			"-0.009": 0.0,
			"-0.008": 0.828274088866,
			"-0.007": 5.0450615552,
			"-0.006": 11.604959009,
			"-0.005": 19.3839976702,
			"-0.004": 29.7786724882,
			"-0.003": 34.1821545,
			"-0.002": 35.39017903,
			"-0.001": 32.0268442852,
			"0.0": 24.5523960858,
			"0.001": 17.3779305784,
			"0.002": 19.8742687186,
			"0.003": 22.8715839131,
			"0.004": 11.2038934471,
			"0.005": 5.66332735309,
			"0.006": 5.95704612913,
			"0.007": 8.18865794098,
			"0.008": 12.6838116866,
			"0.009": 5.89708631089,
			"0.01": 3.54439083101,
			"0.011": 3.71264282653,
			"0.012": 0.861339114065,
			"0.013": 0.0,
			"0.014": 0.0,
			"0.015": 0.0,
			"0.016": 0.0,
			"0.017": 0.0,
			"0.018": 0.0,
			"0.019": 0.0,
			"0.02": 0.0,
			"0.021": 0.0,
			"0.022": 0.0,
			"0.023": 0.0,
			"0.024": 0.0,
			"0.025": 0.0
		}
	}
}
