{
	 "smiles": "COC1=CC=C(Cl)C=C1C(=O)NCCC1=CC=C(C=C1)S(=O)(=O)NC(=O)NC1CCCCC1", 
	 "Tm": 442.15, 
	 "num_atms": 61, 
	 "gaussian": { 
		 "optdone": 1, 
		 "sigma_profile": "yes", 
		 "theory": "DFT", 
		 "functional": "B3LYP", 
		 "basiset": "6-31G**", 
		 "properties": { 
			 "R2extent": 16649.4626, 
			 "electric_dipole_moment_norm": 2.76181594789, 
			 "electric_quadrupole_moment_norm": 40.2424005595, 
			 "total_energy": -2292.06579116, 
			 "HOMO_LUMO_gap": 0.18046, 
			 "cosmo_polarized_energy": -24.19, 
			 "cosmo_cavitation_energy": 65.13, 
			 "cosmo_dispersion_energy": -39.45, 
			 "cosmo_repulsion_energy": 2.86, 
			 "cosmo_total_nonelectrostatic_energy": 28.53, 
			 "SMD_solvation_energy": 9.65 
		},
		"coords": [
			{
				"x": -0.0620722378,
				"y": -2.8777689024,
				"z": -2.0126596687,
				"element": "C" 
			},
			{
				"x": 0.1317652672,
				"y": -2.7350573873,
				"z": -0.6013173566,
				"element": "O" 
			},
			{
				"x": 1.2581423273,
				"y": -2.117647384,
				"z": -0.134023683,
				"element": "C" 
			},
			{
				"x": 2.2679300418,
				"y": -1.6606906604,
				"z": -0.9915410292,
				"element": "C" 
			},
			{
				"x": 3.4132164878,
				"y": -1.0511214094,
				"z": -0.4821927284,
				"element": "C" 
			},
			{
				"x": 3.5488040175,
				"y": -0.8924391562,
				"z": 0.8942229757,
				"element": "C" 
			},
			{
				"x": 4.9913451893,
				"y": -0.1248615287,
				"z": 1.5446438246,
				"element": "Cl" 
			},
			{
				"x": 2.5500622078,
				"y": -1.3287513753,
				"z": 1.7548918896,
				"element": "C" 
			},
			{
				"x": 1.3924559299,
				"y": -1.9460608365,
				"z": 1.2661446089,
				"element": "C" 
			},
			{
				"x": 0.3872489404,
				"y": -2.32891159,
				"z": 2.3320657204,
				"element": "C" 
			},
			{
				"x": 0.5839266634,
				"y": -2.0340653725,
				"z": 3.513034318,
				"element": "O" 
			},
			{
				"x": -0.7293639383,
				"y": -2.9992426783,
				"z": 1.9396885706,
				"element": "N" 
			},
			{
				"x": -1.7950799431,
				"y": -3.3066937349,
				"z": 2.8781404338,
				"element": "C" 
			},
			{
				"x": -2.6086270623,
				"y": -2.0675765742,
				"z": 3.3352286975,
				"element": "C" 
			},
			{
				"x": -3.0945395135,
				"y": -1.2339416242,
				"z": 2.1738373435,
				"element": "C" 
			},
			{
				"x": -2.4118742539,
				"y": -0.0627375618,
				"z": 1.8117184955,
				"element": "C" 
			},
			{
				"x": -2.7842502381,
				"y": 0.6710906925,
				"z": 0.6884088434,
				"element": "C" 
			},
			{
				"x": -3.851708354,
				"y": 0.2196917016,
				"z": -0.0906744955,
				"element": "C" 
			},
			{
				"x": -4.5705492677,
				"y": -0.9257800534,
				"z": 0.2602861946,
				"element": "C" 
			},
			{
				"x": -4.1886516985,
				"y": -1.6396560178,
				"z": 1.3944431338,
				"element": "C" 
			},
			{
				"x": -4.2628830931,
				"y": 1.0765305597,
				"z": -1.604909229,
				"element": "S" 
			},
			{
				"x": -5.5728778362,
				"y": 0.6114708247,
				"z": -2.0510373244,
				"element": "O" 
			},
			{
				"x": -3.9550306947,
				"y": 2.502223077,
				"z": -1.4352299588,
				"element": "O" 
			},
			{
				"x": -3.1665385058,
				"y": 0.4919979569,
				"z": -2.7598972651,
				"element": "N" 
			},
			{
				"x": -1.801773664,
				"y": 0.836795477,
				"z": -2.9960362754,
				"element": "C" 
			},
			{
				"x": -1.0757171013,
				"y": 0.001966661,
				"z": -3.5291602279,
				"element": "O" 
			},
			{
				"x": -1.4360025928,
				"y": 2.0891782084,
				"z": -2.6518149606,
				"element": "N" 
			},
			{
				"x": -0.0990039936,
				"y": 2.6126396913,
				"z": -2.9830137871,
				"element": "C" 
			},
			{
				"x": 0.9453948226,
				"y": 2.2216085577,
				"z": -1.9242657598,
				"element": "C" 
			},
			{
				"x": 0.6363026871,
				"y": 2.8101744038,
				"z": -0.5290252206,
				"element": "C" 
			},
			{
				"x": -0.0780883367,
				"y": 4.1817235761,
				"z": -0.6054828347,
				"element": "C" 
			},
			{
				"x": 0.2997555485,
				"y": 4.927715989,
				"z": -1.8920967533,
				"element": "C" 
			},
			{
				"x": -0.1584233089,
				"y": 4.1544445942,
				"z": -3.1498908111,
				"element": "C" 
			},
			{
				"x": -0.1538202793,
				"y": -1.9046538584,
				"z": -2.5056773531,
				"element": "H" 
			},
			{
				"x": 0.7480142675,
				"y": -3.463094049,
				"z": -2.461895344,
				"element": "H" 
			},
			{
				"x": -0.998139975,
				"y": -3.4273572217,
				"z": -2.1210273265,
				"element": "H" 
			},
			{
				"x": 2.1686708415,
				"y": -1.7735250097,
				"z": -2.0635655834,
				"element": "H" 
			},
			{
				"x": 4.1903129407,
				"y": -0.7040367211,
				"z": -1.1542846007,
				"element": "H" 
			},
			{
				"x": 2.6295810022,
				"y": -1.2014081683,
				"z": 2.8280522951,
				"element": "H" 
			},
			{
				"x": -0.874992038,
				"y": -3.1310657788,
				"z": 0.9488084402,
				"element": "H" 
			},
			{
				"x": -2.4552089408,
				"y": -4.0313688235,
				"z": 2.3917074967,
				"element": "H" 
			},
			{
				"x": -1.3632881602,
				"y": -3.7819492993,
				"z": 3.7638313236,
				"element": "H" 
			},
			{
				"x": -3.4541338156,
				"y": -2.4221343163,
				"z": 3.9369912935,
				"element": "H" 
			},
			{
				"x": -1.9676847484,
				"y": -1.4665808164,
				"z": 3.9844833142,
				"element": "H" 
			},
			{
				"x": -1.5743176021,
				"y": 0.2718102384,
				"z": 2.4168619596,
				"element": "H" 
			},
			{
				"x": -2.258601412,
				"y": 1.5808197527,
				"z": 0.4214789051,
				"element": "H" 
			},
			{
				"x": -5.4166698915,
				"y": -1.2375355195,
				"z": -0.3423285159,
				"element": "H" 
			},
			{
				"x": -4.7478164105,
				"y": -2.5287475652,
				"z": 1.6750823305,
				"element": "H" 
			},
			{
				"x": -3.3770025768,
				"y": -0.4490028635,
				"z": -3.0747757508,
				"element": "H" 
			},
			{
				"x": -2.1624522981,
				"y": 2.7172461112,
				"z": -2.3274813773,
				"element": "H" 
			},
			{
				"x": 0.1781025699,
				"y": 2.1486422182,
				"z": -3.9339797853,
				"element": "H" 
			},
			{
				"x": 1.0304227762,
				"y": 1.1323336733,
				"z": -1.8747500736,
				"element": "H" 
			},
			{
				"x": 1.915942109,
				"y": 2.5916736943,
				"z": -2.278868612,
				"element": "H" 
			},
			{
				"x": 0.0253519943,
				"y": 2.1050304674,
				"z": 0.044599633,
				"element": "H" 
			},
			{
				"x": 1.5767848757,
				"y": 2.910543293,
				"z": 0.0242200584,
				"element": "H" 
			},
			{
				"x": 0.1673505981,
				"y": 4.7858746612,
				"z": 0.2746250959,
				"element": "H" 
			},
			{
				"x": -1.1673885855,
				"y": 4.0434658601,
				"z": -0.5809912948,
				"element": "H" 
			},
			{
				"x": -0.1329809985,
				"y": 5.9339009131,
				"z": -1.90031106,
				"element": "H" 
			},
			{
				"x": 1.3886995309,
				"y": 5.0636807796,
				"z": -1.9168807791,
				"element": "H" 
			},
			{
				"x": 0.4674990177,
				"y": 4.4389596875,
				"z": -4.0023040243,
				"element": "H" 
			},
			{
				"x": -1.1810292873,
				"y": 4.4439305368,
				"z": -3.4206063455,
				"element": "H" 
			}
		],
		 "valence_orbital": [ 
			{
				"type": "occ",
				"energy": -0.26728,
				"method": "rhf"
			},
			{
				"type": "occ",
				"energy": -0.25966,
				"method": "rhf"
			},
			{
				"type": "occ",
				"energy": -0.25746,
				"method": "rhf"
			},
			{
				"type": "occ",
				"energy": -0.25148,
				"method": "rhf"
			},
			{
				"type": "occ",
				"energy": -0.23203,
				"method": "rhf"
			},
			{
				"type": "unocc",
				"energy": -0.05157,
				"method": "rhf"
			},
			{
				"type": "unocc",
				"energy": -0.04486,
				"method": "rhf"
			},
			{
				"type": "unocc",
				"energy": -0.03011,
				"method": "rhf"
			},
			{
				"type": "unocc",
				"energy": -0.00815,
				"method": "rhf"
			},
			{
				"type": "unocc",
				"energy": 0.02076,
				"method": "rhf"
			}
		],
		"cosmo_sigma_profile": { 
			"-0.025": 0.0,
			"-0.024": 0.0,
			"-0.023": 0.0,
			"-0.022": 0.0,
			"-0.021": 0.0,
			"-0.02": 0.0,
			"-0.019": 0.0,
			"-0.018": 0.0,
			"-0.017": 0.0099828039127,
			"-0.016": 0.603513880271,
			"-0.015": 0.68457393321,
			"-0.014": 1.07874332147,
			"-0.013": 0.718223591352,
			"-0.012": 0.593885852842,
			"-0.011": 1.08188161794,
			"-0.01": 1.47743775727,
			"-0.009": 1.7384781283,
			"-0.008": 4.53412649565,
			"-0.007": 10.7889104459,
			"-0.006": 20.017463122,
			"-0.005": 29.022079809,
			"-0.004": 31.9179157764,
			"-0.003": 44.2186403166,
			"-0.002": 48.8214523154,
			"-0.001": 52.2501017561,
			"0.0": 56.2284493275,
			"0.001": 54.6072942984,
			"0.002": 42.9613588069,
			"0.003": 26.981583154,
			"0.004": 18.1004998048,
			"0.005": 15.1998730898,
			"0.006": 6.09202006444,
			"0.007": 6.01547249375,
			"0.008": 6.02419058579,
			"0.009": 8.36122406003,
			"0.01": 9.35810073689,
			"0.011": 6.13844601993,
			"0.012": 3.10114137832,
			"0.013": 5.00031762345,
			"0.014": 3.28227702505,
			"0.015": 0.0861128094494,
			"0.016": 0.0,
			"0.017": 0.0,
			"0.018": 0.0,
			"0.019": 0.0,
			"0.02": 0.0,
			"0.021": 0.0,
			"0.022": 0.0,
			"0.023": 0.0,
			"0.024": 0.0,
			"0.025": 0.0
		}
	}
}
