{
	 "smiles": "CCC1=C(C(=N)N(C)N1)C1=CC2=C(OCO2)C=C1", 
	 "Tm": 428.15, 
	 "num_atms": 33, 
	 "gaussian": { 
		 "optdone": 1, 
		 "sigma_profile": "yes", 
		 "theory": "DFT", 
		 "functional": "B3LYP", 
		 "basiset": "6-31G**", 
		 "properties": { 
			 "R2extent": 5589.743, 
			 "electric_dipole_moment_norm": 3.705390696, 
			 "electric_quadrupole_moment_norm": 20.0594961524, 
			 "total_energy": -819.061220183, 
			 "HOMO_LUMO_gap": 0.16688, 
			 "cosmo_polarized_energy": -17.73, 
			 "cosmo_cavitation_energy": 35.66, 
			 "cosmo_dispersion_energy": -26.05, 
			 "cosmo_repulsion_energy": 2.02, 
			 "cosmo_total_nonelectrostatic_energy": 11.64, 
			 "SMD_solvation_energy": 5.18 
		},
		"coords": [
			{
				"x": -3.1294732463,
				"y": -2.3111543829,
				"z": 1.0619568315,
				"element": "C" 
			},
			{
				"x": -2.828646307,
				"y": -0.8142660259,
				"z": 1.264215495,
				"element": "C" 
			},
			{
				"x": -2.5321089223,
				"y": -0.0793379249,
				"z": -0.0087163555,
				"element": "C" 
			},
			{
				"x": -1.3857392097,
				"y": 0.4850099834,
				"z": -0.4842572949,
				"element": "C" 
			},
			{
				"x": -1.7357979581,
				"y": 1.1959344913,
				"z": -1.7267520965,
				"element": "C" 
			},
			{
				"x": -0.917280818,
				"y": 1.8055540401,
				"z": -2.5079974791,
				"element": "N" 
			},
			{
				"x": -3.1394208874,
				"y": 1.0576543538,
				"z": -1.8732458818,
				"element": "N" 
			},
			{
				"x": -3.7176102612,
				"y": 0.8563324944,
				"z": -3.1944015305,
				"element": "C" 
			},
			{
				"x": -3.5941371127,
				"y": 0.1168074116,
				"z": -0.902611231,
				"element": "N" 
			},
			{
				"x": -0.0279087736,
				"y": 0.4182548351,
				"z": 0.0788883614,
				"element": "C" 
			},
			{
				"x": 0.8267561626,
				"y": 1.5458405834,
				"z": -0.0247478432,
				"element": "C" 
			},
			{
				"x": 2.0772512834,
				"y": 1.4462723564,
				"z": 0.5427383446,
				"element": "C" 
			},
			{
				"x": 2.5154202386,
				"y": 0.2966045505,
				"z": 1.1966440957,
				"element": "C" 
			},
			{
				"x": 3.7886263223,
				"y": 0.4906035631,
				"z": 1.6788238631,
				"element": "O" 
			},
			{
				"x": 4.2098338566,
				"y": 1.7517002123,
				"z": 1.1435928163,
				"element": "C" 
			},
			{
				"x": 3.0637247534,
				"y": 2.4072124002,
				"z": 0.5972618323,
				"element": "O" 
			},
			{
				"x": 1.7142994271,
				"y": -0.8223310295,
				"z": 1.2996568325,
				"element": "C" 
			},
			{
				"x": 0.4354204056,
				"y": -0.7427103852,
				"z": 0.7217166824,
				"element": "C" 
			},
			{
				"x": -2.2682646588,
				"y": -2.8330010777,
				"z": 0.633498425,
				"element": "H" 
			},
			{
				"x": -3.9731686522,
				"y": -2.453700828,
				"z": 0.3805505063,
				"element": "H" 
			},
			{
				"x": -3.3745658433,
				"y": -2.7860432082,
				"z": 2.0169245002,
				"element": "H" 
			},
			{
				"x": -3.6975744374,
				"y": -0.3406120944,
				"z": 1.7449641564,
				"element": "H" 
			},
			{
				"x": -1.9855314885,
				"y": -0.6839615055,
				"z": 1.9469823892,
				"element": "H" 
			},
			{
				"x": -1.3959941313,
				"y": 2.2321447941,
				"z": -3.3024775455,
				"element": "H" 
			},
			{
				"x": -3.3840800242,
				"y": 1.6622169762,
				"z": -3.8509928629,
				"element": "H" 
			},
			{
				"x": -3.4342573718,
				"y": -0.1090474546,
				"z": -3.6348543062,
				"element": "H" 
			},
			{
				"x": -4.807158421,
				"y": 0.912086445,
				"z": -3.1262546826,
				"element": "H" 
			},
			{
				"x": -4.4420944797,
				"y": 0.4618146381,
				"z": -0.4515368809,
				"element": "H" 
			},
			{
				"x": 0.5096532363,
				"y": 2.4319051167,
				"z": -0.5577617087,
				"element": "H" 
			},
			{
				"x": 4.952515176,
				"y": 1.5814913127,
				"z": 0.3497415896,
				"element": "H" 
			},
			{
				"x": 4.6336421609,
				"y": 2.3634961138,
				"z": 1.9460491925,
				"element": "H" 
			},
			{
				"x": 2.0624969278,
				"y": -1.7248398394,
				"z": 1.7892916524,
				"element": "H" 
			},
			{
				"x": -0.1952269456,
				"y": -1.6244309161,
				"z": 0.7428101326,
				"element": "H" 
			}
		],
		 "valence_orbital": [ 
			{
				"type": "occ",
				"energy": -0.2628,
				"method": "rhf"
			},
			{
				"type": "occ",
				"energy": -0.24604,
				"method": "rhf"
			},
			{
				"type": "occ",
				"energy": -0.23058,
				"method": "rhf"
			},
			{
				"type": "occ",
				"energy": -0.20432,
				"method": "rhf"
			},
			{
				"type": "occ",
				"energy": -0.18196,
				"method": "rhf"
			},
			{
				"type": "unocc",
				"energy": -0.01508,
				"method": "rhf"
			},
			{
				"type": "unocc",
				"energy": 0.01202,
				"method": "rhf"
			},
			{
				"type": "unocc",
				"energy": 0.02365,
				"method": "rhf"
			},
			{
				"type": "unocc",
				"energy": 0.07026,
				"method": "rhf"
			},
			{
				"type": "unocc",
				"energy": 0.08874,
				"method": "rhf"
			}
		],
		"cosmo_sigma_profile": { 
			"-0.025": 0.0,
			"-0.024": 0.0,
			"-0.023": 0.0,
			"-0.022": 0.0,
			"-0.021": 0.0,
			"-0.02": 0.0,
			"-0.019": 0.0,
			"-0.018": 0.0,
			"-0.017": 0.0,
			"-0.016": 0.0,
			"-0.015": 0.0,
			"-0.014": 1.01567325832,
			"-0.013": 1.51934407411,
			"-0.012": 1.14938136526,
			"-0.011": 1.36086151703,
			"-0.01": 2.25572165957,
			"-0.009": 3.11468208619,
			"-0.008": 4.62612201014,
			"-0.007": 9.9341384511,
			"-0.006": 14.7522256408,
			"-0.005": 14.8655842334,
			"-0.004": 20.662657143,
			"-0.003": 23.6074050799,
			"-0.002": 25.5312666323,
			"-0.001": 21.5966217496,
			"0.0": 18.6197396411,
			"0.001": 16.0812338585,
			"0.002": 14.2948634933,
			"0.003": 18.0154851826,
			"0.004": 15.8648282686,
			"0.005": 13.8792963047,
			"0.006": 7.65103400169,
			"0.007": 5.27071694207,
			"0.008": 6.93262262436,
			"0.009": 5.8606560468,
			"0.01": 4.30754308107,
			"0.011": 1.28661758596,
			"0.012": 1.85907938013,
			"0.013": 1.43134819475,
			"0.014": 1.24203240843,
			"0.015": 1.20838663682,
			"0.016": 0.922307720395,
			"0.017": 0.93949950858,
			"0.018": 0.916817074818,
			"0.019": 0.108177190593,
			"0.02": 0.0,
			"0.021": 0.0,
			"0.022": 0.0,
			"0.023": 0.0,
			"0.024": 0.0,
			"0.025": 0.0
		}
	}
}
