{
	 "smiles": "CCOC(=O)C(C(=O)OCC)C(=C(C#N)C(=O)OCC)C1=CC=C(C=C1)[N+]([O-])=O", 
	 "Tm": 383.15, 
	 "num_atms": 49, 
	 "gaussian": { 
		 "optdone": 1, 
		 "sigma_profile": "yes", 
		 "theory": "DFT", 
		 "functional": "B3LYP", 
		 "basiset": "6-31G**", 
		 "properties": { 
			 "R2extent": 13488.3164, 
			 "electric_dipole_moment_norm": 5.41583087439, 
			 "electric_quadrupole_moment_norm": 36.7056113469, 
			 "total_energy": -1447.26474755, 
			 "HOMO_LUMO_gap": 0.167, 
			 "cosmo_polarized_energy": -23.38, 
			 "cosmo_cavitation_energy": 56.92, 
			 "cosmo_dispersion_energy": -34.82, 
			 "cosmo_repulsion_energy": 2.75, 
			 "cosmo_total_nonelectrostatic_energy": 24.85, 
			 "SMD_solvation_energy": 15.91 
		},
		"coords": [
			{
				"x": -5.1853401875,
				"y": 1.6192592477,
				"z": -0.3793742135,
				"element": "C" 
			},
			{
				"x": -3.9653088365,
				"y": 2.0347000152,
				"z": 0.4171184543,
				"element": "C" 
			},
			{
				"x": -2.7956896296,
				"y": 1.7200345946,
				"z": -0.389151258,
				"element": "O" 
			},
			{
				"x": -1.6132721664,
				"y": 1.983036983,
				"z": 0.1658320675,
				"element": "C" 
			},
			{
				"x": -1.4384322214,
				"y": 2.5212295865,
				"z": 1.2359905262,
				"element": "O" 
			},
			{
				"x": -0.4310974932,
				"y": 1.571837024,
				"z": -0.7372820526,
				"element": "C" 
			},
			{
				"x": -0.8792308438,
				"y": 0.9383835222,
				"z": -2.0675996731,
				"element": "C" 
			},
			{
				"x": -1.1910818402,
				"y": 1.6001467658,
				"z": -3.0297593991,
				"element": "O" 
			},
			{
				"x": -0.8838528129,
				"y": -0.399761454,
				"z": -2.0190172144,
				"element": "O" 
			},
			{
				"x": -1.3978978342,
				"y": -1.0783963664,
				"z": -3.1958052883,
				"element": "C" 
			},
			{
				"x": -1.3716331185,
				"y": -2.5660415852,
				"z": -2.9066751524,
				"element": "C" 
			},
			{
				"x": 0.6355951788,
				"y": 0.7821671413,
				"z": 0.0148741774,
				"element": "C" 
			},
			{
				"x": 0.3445465253,
				"y": -0.2587867629,
				"z": 0.8390791146,
				"element": "C" 
			},
			{
				"x": -1.0085609277,
				"y": -0.6997473939,
				"z": 1.0197601312,
				"element": "C" 
			},
			{
				"x": -2.1094825847,
				"y": -1.0464607079,
				"z": 1.1643293924,
				"element": "N" 
			},
			{
				"x": 1.3899189608,
				"y": -0.9771764064,
				"z": 1.65039814,
				"element": "C" 
			},
			{
				"x": 2.5565893963,
				"y": -0.6573392617,
				"z": 1.7289716635,
				"element": "O" 
			},
			{
				"x": 0.8455587155,
				"y": -2.0207688521,
				"z": 2.2961451159,
				"element": "O" 
			},
			{
				"x": 1.7404917159,
				"y": -2.7797841717,
				"z": 3.1485361563,
				"element": "C" 
			},
			{
				"x": 0.9251760791,
				"y": -3.8846265765,
				"z": 3.7906678462,
				"element": "C" 
			},
			{
				"x": 2.0254904279,
				"y": 1.248682748,
				"z": -0.2565402723,
				"element": "C" 
			},
			{
				"x": 2.8996348155,
				"y": 0.490110087,
				"z": -1.0486343676,
				"element": "C" 
			},
			{
				"x": 4.1625850918,
				"y": 0.9768530664,
				"z": -1.3659641626,
				"element": "C" 
			},
			{
				"x": 4.5414864092,
				"y": 2.2253109005,
				"z": -0.8766797459,
				"element": "C" 
			},
			{
				"x": 3.6926707195,
				"y": 3.0022453282,
				"z": -0.091480344,
				"element": "C" 
			},
			{
				"x": 2.4244823801,
				"y": 2.5131646023,
				"z": 0.2045010536,
				"element": "C" 
			},
			{
				"x": 5.8797359141,
				"y": 2.7424028211,
				"z": -1.205743044,
				"element": "N" 
			},
			{
				"x": 6.6062905903,
				"y": 2.0383038283,
				"z": -1.9060129705,
				"element": "O" 
			},
			{
				"x": 6.1890937939,
				"y": 3.8469704487,
				"z": -0.7609739345,
				"element": "O" 
			},
			{
				"x": -5.1654932025,
				"y": 0.5455412911,
				"z": -0.5842958692,
				"element": "H" 
			},
			{
				"x": -6.0903191044,
				"y": 1.8438686445,
				"z": 0.1934617334,
				"element": "H" 
			},
			{
				"x": -5.2363450742,
				"y": 2.1570942335,
				"z": -1.3302734257,
				"element": "H" 
			},
			{
				"x": -3.8789425314,
				"y": 1.4873240875,
				"z": 1.3593358632,
				"element": "H" 
			},
			{
				"x": -3.9534263415,
				"y": 3.1059609333,
				"z": 0.6378696063,
				"element": "H" 
			},
			{
				"x": 0.0180620053,
				"y": 2.5228244649,
				"z": -1.0371756197,
				"element": "H" 
			},
			{
				"x": -0.7752589153,
				"y": -0.8061597425,
				"z": -4.0534360884,
				"element": "H" 
			},
			{
				"x": -2.4099260455,
				"y": -0.7106075415,
				"z": -3.3875476564,
				"element": "H" 
			},
			{
				"x": -1.9816395961,
				"y": -2.8014137298,
				"z": -2.0304750553,
				"element": "H" 
			},
			{
				"x": -1.7695152904,
				"y": -3.1148971102,
				"z": -3.765722471,
				"element": "H" 
			},
			{
				"x": -0.3508555033,
				"y": -2.9130691627,
				"z": -2.7217208441,
				"element": "H" 
			},
			{
				"x": 2.5584191648,
				"y": -3.1686647556,
				"z": 2.5341384742,
				"element": "H" 
			},
			{
				"x": 2.1751841256,
				"y": -2.0996206266,
				"z": 3.8871961968,
				"element": "H" 
			},
			{
				"x": 0.1095563868,
				"y": -3.4706455755,
				"z": 4.3896357126,
				"element": "H" 
			},
			{
				"x": 0.4954699684,
				"y": -4.5455692998,
				"z": 3.0329135688,
				"element": "H" 
			},
			{
				"x": 1.5673439796,
				"y": -4.4813532998,
				"z": 4.4456746667,
				"element": "H" 
			},
			{
				"x": 2.586355795,
				"y": -0.482107895,
				"z": -1.4137928415,
				"element": "H" 
			},
			{
				"x": 4.8547786935,
				"y": 0.411636672,
				"z": -1.9770759557,
				"element": "H" 
			},
			{
				"x": 4.0301492785,
				"y": 3.9663205398,
				"z": 0.2673954233,
				"element": "H" 
			},
			{
				"x": 1.7431359899,
				"y": 3.1008887002,
				"z": 0.8126838355,
				"element": "H" 
			}
		],
		 "valence_orbital": [ 
			{
				"type": "occ",
				"energy": -0.29346,
				"method": "rhf"
			},
			{
				"type": "occ",
				"energy": -0.29085,
				"method": "rhf"
			},
			{
				"type": "occ",
				"energy": -0.28315,
				"method": "rhf"
			},
			{
				"type": "occ",
				"energy": -0.2787,
				"method": "rhf"
			},
			{
				"type": "occ",
				"energy": -0.26865,
				"method": "rhf"
			},
			{
				"type": "unocc",
				"energy": -0.10165,
				"method": "rhf"
			},
			{
				"type": "unocc",
				"energy": -0.08225,
				"method": "rhf"
			},
			{
				"type": "unocc",
				"energy": -0.03479,
				"method": "rhf"
			},
			{
				"type": "unocc",
				"energy": -0.01612,
				"method": "rhf"
			},
			{
				"type": "unocc",
				"energy": -0.00638,
				"method": "rhf"
			}
		],
		"cosmo_sigma_profile": { 
			"-0.025": 0.0,
			"-0.024": 0.0,
			"-0.023": 0.0,
			"-0.022": 0.0,
			"-0.021": 0.0,
			"-0.02": 0.0,
			"-0.019": 0.0,
			"-0.018": 0.0,
			"-0.017": 0.0,
			"-0.016": 0.0,
			"-0.015": 0.0,
			"-0.014": 0.0,
			"-0.013": 0.0,
			"-0.012": 0.0,
			"-0.011": 0.0680234292543,
			"-0.01": 0.881653493199,
			"-0.009": 2.11068268376,
			"-0.008": 6.18496311277,
			"-0.007": 12.0811495374,
			"-0.006": 21.5719486811,
			"-0.005": 38.803127164,
			"-0.004": 50.1274382684,
			"-0.003": 40.6783129049,
			"-0.002": 39.3043681042,
			"-0.001": 40.5060669072,
			"0.0": 36.857845244,
			"0.001": 18.48129511,
			"0.002": 15.3076543439,
			"0.003": 16.126641572,
			"0.004": 13.9005961928,
			"0.005": 14.4060830226,
			"0.006": 12.2047836375,
			"0.007": 18.6116097874,
			"0.008": 15.7100097366,
			"0.009": 10.9729259481,
			"0.01": 13.1901475811,
			"0.011": 11.3406196672,
			"0.012": 2.15994383947,
			"0.013": 0.0968316232055,
			"0.014": 0.0,
			"0.015": 0.0,
			"0.016": 0.0,
			"0.017": 0.0,
			"0.018": 0.0,
			"0.019": 0.0,
			"0.02": 0.0,
			"0.021": 0.0,
			"0.022": 0.0,
			"0.023": 0.0,
			"0.024": 0.0,
			"0.025": 0.0
		}
	}
}
