{
	 "smiles": "CCOC(=O)C1=C(C)C(C#N)=C(S1)N=CN(C)C", 
	 "Tm": 425.15, 
	 "num_atms": 33, 
	 "gaussian": { 
		 "optdone": 1, 
		 "sigma_profile": "yes", 
		 "theory": "DFT", 
		 "functional": "B3LYP", 
		 "basiset": "6-31G**", 
		 "properties": { 
			 "R2extent": 6500.0915, 
			 "electric_dipole_moment_norm": 3.86760281053, 
			 "electric_quadrupole_moment_norm": 35.9337391763, 
			 "total_energy": -1179.19055569, 
			 "HOMO_LUMO_gap": 0.15705, 
			 "cosmo_polarized_energy": -16.63, 
			 "cosmo_cavitation_energy": 39.1, 
			 "cosmo_dispersion_energy": -26.73, 
			 "cosmo_repulsion_energy": 2.04, 
			 "cosmo_total_nonelectrostatic_energy": 14.41, 
			 "SMD_solvation_energy": 7.49 
		},
		"coords": [
			{
				"x": -3.9343574492,
				"y": 0.6955489275,
				"z": -4.6228615535,
				"element": "C" 
			},
			{
				"x": -3.3898728928,
				"y": -0.5577549978,
				"z": -3.9643062974,
				"element": "C" 
			},
			{
				"x": -2.6690904991,
				"y": -0.1485444187,
				"z": -2.7794878662,
				"element": "O" 
			},
			{
				"x": -2.1179416713,
				"y": -1.1560305763,
				"z": -2.0596067395,
				"element": "C" 
			},
			{
				"x": -2.2076699901,
				"y": -2.331543351,
				"z": -2.3743077717,
				"element": "O" 
			},
			{
				"x": -1.4066184823,
				"y": -0.6885379332,
				"z": -0.8696173382,
				"element": "C" 
			},
			{
				"x": -1.1910237849,
				"y": 0.5775975575,
				"z": -0.3652718496,
				"element": "C" 
			},
			{
				"x": -1.6869686398,
				"y": 1.8689664851,
				"z": -0.958580266,
				"element": "C" 
			},
			{
				"x": -0.4117274436,
				"y": 0.5356432734,
				"z": 0.8400071485,
				"element": "C" 
			},
			{
				"x": -0.0434509733,
				"y": 1.6817801844,
				"z": 1.594399946,
				"element": "C" 
			},
			{
				"x": 0.2906401894,
				"y": 2.6105491385,
				"z": 2.216076072,
				"element": "N" 
			},
			{
				"x": -0.0427894532,
				"y": -0.7607678749,
				"z": 1.2396738507,
				"element": "C" 
			},
			{
				"x": -0.6786709076,
				"y": -1.9430831338,
				"z": 0.1266592348,
				"element": "S" 
			},
			{
				"x": 0.5579811418,
				"y": -1.1684580111,
				"z": 2.3847943189,
				"element": "N" 
			},
			{
				"x": 1.6500685484,
				"y": -0.7450187429,
				"z": 2.9316394472,
				"element": "C" 
			},
			{
				"x": 2.7211996646,
				"y": -0.100261933,
				"z": 2.4118875213,
				"element": "N" 
			},
			{
				"x": 3.7213838505,
				"y": 0.4738848162,
				"z": 3.3048410959,
				"element": "C" 
			},
			{
				"x": 2.8905831002,
				"y": 0.1771127766,
				"z": 0.9907877857,
				"element": "C" 
			},
			{
				"x": -4.4897804729,
				"y": 0.4271519148,
				"z": -5.5269258951,
				"element": "H" 
			},
			{
				"x": -3.124304376,
				"y": 1.3737629948,
				"z": -4.9066719149,
				"element": "H" 
			},
			{
				"x": -4.6115487369,
				"y": 1.2296439054,
				"z": -3.9500284689,
				"element": "H" 
			},
			{
				"x": -2.7076633377,
				"y": -1.1052949686,
				"z": -4.6222555672,
				"element": "H" 
			},
			{
				"x": -4.1869611327,
				"y": -1.24859638,
				"z": -3.6723276569,
				"element": "H" 
			},
			{
				"x": -1.3294502045,
				"y": 1.9930833756,
				"z": -1.9841418074,
				"element": "H" 
			},
			{
				"x": -2.7793827135,
				"y": 1.8828783975,
				"z": -1.0050283679,
				"element": "H" 
			},
			{
				"x": -1.3520619985,
				"y": 2.7206002236,
				"z": -0.3623615588,
				"element": "H" 
			},
			{
				"x": 1.7810487663,
				"y": -0.9910145214,
				"z": 3.9873436908,
				"element": "H" 
			},
			{
				"x": 3.5561215122,
				"y": 0.1201188984,
				"z": 4.324409997,
				"element": "H" 
			},
			{
				"x": 4.7275319177,
				"y": 0.1785251132,
				"z": 2.9879468237,
				"element": "H" 
			},
			{
				"x": 3.658496686,
				"y": 1.5684998134,
				"z": 3.3053768123,
				"element": "H" 
			},
			{
				"x": 2.5306206022,
				"y": 1.1774976079,
				"z": 0.7262284729,
				"element": "H" 
			},
			{
				"x": 3.9556651651,
				"y": 0.1096044891,
				"z": 0.7495530209,
				"element": "H" 
			},
			{
				"x": 2.3543940158,
				"y": -0.5633430503,
				"z": 0.3983556809,
				"element": "H" 
			}
		],
		 "valence_orbital": [ 
			{
				"type": "occ",
				"energy": -0.29452,
				"method": "rhf"
			},
			{
				"type": "occ",
				"energy": -0.2702,
				"method": "rhf"
			},
			{
				"type": "occ",
				"energy": -0.25527,
				"method": "rhf"
			},
			{
				"type": "occ",
				"energy": -0.25156,
				"method": "rhf"
			},
			{
				"type": "occ",
				"energy": -0.20929,
				"method": "rhf"
			},
			{
				"type": "unocc",
				"energy": -0.05224,
				"method": "rhf"
			},
			{
				"type": "unocc",
				"energy": -0.01752,
				"method": "rhf"
			},
			{
				"type": "unocc",
				"energy": 0.00927,
				"method": "rhf"
			},
			{
				"type": "unocc",
				"energy": 0.01235,
				"method": "rhf"
			},
			{
				"type": "unocc",
				"energy": 0.05594,
				"method": "rhf"
			}
		],
		"cosmo_sigma_profile": { 
			"-0.025": 0.0,
			"-0.024": 0.0,
			"-0.023": 0.0,
			"-0.022": 0.0,
			"-0.021": 0.0,
			"-0.02": 0.0,
			"-0.019": 0.0,
			"-0.018": 0.0,
			"-0.017": 0.0,
			"-0.016": 0.0,
			"-0.015": 0.0,
			"-0.014": 0.0,
			"-0.013": 0.0,
			"-0.012": 0.0,
			"-0.011": 0.0,
			"-0.01": 0.943098436414,
			"-0.009": 3.0104113546,
			"-0.008": 2.51379597331,
			"-0.007": 4.75589853008,
			"-0.006": 9.1104614109,
			"-0.005": 21.1011741512,
			"-0.004": 32.2336212183,
			"-0.003": 38.6600287854,
			"-0.002": 32.2926620281,
			"-0.001": 27.0091177421,
			"0.0": 27.9562904311,
			"0.001": 22.5832559794,
			"0.002": 16.127392418,
			"0.003": 15.8623312356,
			"0.004": 9.999237311,
			"0.005": 5.26717733347,
			"0.006": 4.38620105453,
			"0.007": 5.29149118998,
			"0.008": 4.64021897869,
			"0.009": 5.8580949144,
			"0.01": 5.10551267684,
			"0.011": 6.28379867339,
			"0.012": 7.79922978235,
			"0.013": 3.47389688464,
			"0.014": 0.398181760112,
			"0.015": 0.0,
			"0.016": 0.0,
			"0.017": 0.0,
			"0.018": 0.0,
			"0.019": 0.0,
			"0.02": 0.0,
			"0.021": 0.0,
			"0.022": 0.0,
			"0.023": 0.0,
			"0.024": 0.0,
			"0.025": 0.0
		}
	}
}
