{
	 "smiles": "OC(=O)CCCCCBr", 
	 "Tm": 307.65, 
	 "num_atms": 20, 
	 "gaussian": { 
		 "optdone": 1, 
		 "sigma_profile": "yes", 
		 "theory": "DFT", 
		 "functional": "B3LYP", 
		 "basiset": "6-31G**", 
		 "properties": { 
			 "R2extent": 3979.8518, 
			 "electric_dipole_moment_norm": 3.3042171902, 
			 "electric_quadrupole_moment_norm": 22.5761197605, 
			 "total_energy": -2957.14133628, 
			 "HOMO_LUMO_gap": 0.26966, 
			 "cosmo_polarized_energy": -16.71, 
			 "cosmo_cavitation_energy": 25.58, 
			 "cosmo_dispersion_energy": -18.68, 
			 "cosmo_repulsion_energy": 1.58, 
			 "cosmo_total_nonelectrostatic_energy": 8.48, 
			 "SMD_solvation_energy": 3.91 
		},
		"coords": [
			{
				"x": -1.9014454733,
				"y": -0.2429615863,
				"z": -2.949429141,
				"element": "O" 
			},
			{
				"x": -0.7060171398,
				"y": -0.142549185,
				"z": -2.305486681,
				"element": "C" 
			},
			{
				"x": 0.2192398048,
				"y": 0.4172928344,
				"z": -2.8367391724,
				"element": "O" 
			},
			{
				"x": -0.6572636615,
				"y": -0.7768822674,
				"z": -0.9198485351,
				"element": "C" 
			},
			{
				"x": 0.7093044769,
				"y": -0.619351451,
				"z": -0.2472161721,
				"element": "C" 
			},
			{
				"x": 0.8234044923,
				"y": -1.3273583552,
				"z": 1.1129584127,
				"element": "C" 
			},
			{
				"x": -0.1059397792,
				"y": -0.8117594075,
				"z": 2.2311392487,
				"element": "C" 
			},
			{
				"x": 0.2023183478,
				"y": 0.6228839911,
				"z": 2.6385878229,
				"element": "C" 
			},
			{
				"x": -0.978993788,
				"y": 1.2268174611,
				"z": 4.1116223455,
				"element": "Br" 
			},
			{
				"x": -2.54208893,
				"y": -0.7132776907,
				"z": -2.3971164127,
				"element": "H" 
			},
			{
				"x": -0.916005145,
				"y": -1.8413012104,
				"z": -1.0204617644,
				"element": "H" 
			},
			{
				"x": -1.4569166788,
				"y": -0.3288824778,
				"z": -0.314002813,
				"element": "H" 
			},
			{
				"x": 0.9369224672,
				"y": 0.4480736635,
				"z": -0.1542095997,
				"element": "H" 
			},
			{
				"x": 1.472095229,
				"y": -1.0184656203,
				"z": -0.9232979705,
				"element": "H" 
			},
			{
				"x": 1.8638326735,
				"y": -1.2564653844,
				"z": 1.4553722817,
				"element": "H" 
			},
			{
				"x": 0.6254692444,
				"y": -2.3988951364,
				"z": 0.9771886118,
				"element": "H" 
			},
			{
				"x": -1.1561167326,
				"y": -0.8832977701,
				"z": 1.9265753688,
				"element": "H" 
			},
			{
				"x": 0.0016789356,
				"y": -1.4578529278,
				"z": 3.1087444503,
				"element": "H" 
			},
			{
				"x": 1.2181669287,
				"y": 0.7346093974,
				"z": 3.019351602,
				"element": "H" 
			},
			{
				"x": 0.0387547281,
				"y": 1.3419231229,
				"z": 1.8366681173,
				"element": "H" 
			}
		],
		 "valence_orbital": [ 
			{
				"type": "occ",
				"energy": -0.33843,
				"method": "rhf"
			},
			{
				"type": "occ",
				"energy": -0.31964,
				"method": "rhf"
			},
			{
				"type": "occ",
				"energy": -0.27632,
				"method": "rhf"
			},
			{
				"type": "occ",
				"energy": -0.2744,
				"method": "rhf"
			},
			{
				"type": "occ",
				"energy": -0.27376,
				"method": "rhf"
			},
			{
				"type": "unocc",
				"energy": -0.0041,
				"method": "rhf"
			},
			{
				"type": "unocc",
				"energy": 0.00598,
				"method": "rhf"
			},
			{
				"type": "unocc",
				"energy": 0.04897,
				"method": "rhf"
			},
			{
				"type": "unocc",
				"energy": 0.07485,
				"method": "rhf"
			},
			{
				"type": "unocc",
				"energy": 0.09938,
				"method": "rhf"
			}
		],
		"cosmo_sigma_profile": { 
			"-0.025": 0.0,
			"-0.024": 0.0,
			"-0.023": 0.0,
			"-0.022": 0.0,
			"-0.021": 0.0,
			"-0.02": 0.0,
			"-0.019": 0.404596933839,
			"-0.018": 1.11991242895,
			"-0.017": 1.07773095044,
			"-0.016": 1.22340863942,
			"-0.015": 0.741235518494,
			"-0.014": 0.782223251159,
			"-0.013": 1.26765532688,
			"-0.012": 1.28287652964,
			"-0.011": 1.43253072903,
			"-0.01": 0.956901121057,
			"-0.009": 1.13111747963,
			"-0.008": 1.84996893568,
			"-0.007": 4.12840725604,
			"-0.006": 11.8617014616,
			"-0.005": 12.6236457427,
			"-0.004": 15.1415060428,
			"-0.003": 20.837850707,
			"-0.002": 17.786211368,
			"-0.001": 14.9813292484,
			"0.0": 11.1400492793,
			"0.001": 7.68720358729,
			"0.002": 6.14190632428,
			"0.003": 6.27958463048,
			"0.004": 6.94178231636,
			"0.005": 8.55699106771,
			"0.006": 12.1553114498,
			"0.007": 8.52160390634,
			"0.008": 3.03701182763,
			"0.009": 3.28806505719,
			"0.01": 3.6997105001,
			"0.011": 6.0704376535,
			"0.012": 5.66491670441,
			"0.013": 2.62121285955,
			"0.014": 0.224738093252,
			"0.015": 0.0,
			"0.016": 0.0,
			"0.017": 0.0,
			"0.018": 0.0,
			"0.019": 0.0,
			"0.02": 0.0,
			"0.021": 0.0,
			"0.022": 0.0,
			"0.023": 0.0,
			"0.024": 0.0,
			"0.025": 0.0
		}
	}
}
