{
	 "smiles": "CCCCN1C[C@H](O)[C@@H](O)[C@H](O)[C@H]1CO", 
	 "Tm": 443.65, 
	 "num_atms": 36, 
	 "gaussian": { 
		 "optdone": 1, 
		 "sigma_profile": "yes", 
		 "theory": "DFT", 
		 "functional": "B3LYP", 
		 "basiset": "6-31G**", 
		 "properties": { 
			 "R2extent": 4471.9001, 
			 "electric_dipole_moment_norm": 2.47236952133, 
			 "electric_quadrupole_moment_norm": 13.6090976567, 
			 "total_energy": -749.33633585, 
			 "HOMO_LUMO_gap": 0.26844, 
			 "cosmo_polarized_energy": -16.19, 
			 "cosmo_cavitation_energy": 35.0, 
			 "cosmo_dispersion_energy": -24.67, 
			 "cosmo_repulsion_energy": 1.95, 
			 "cosmo_total_nonelectrostatic_energy": 12.28, 
			 "SMD_solvation_energy": 4.28 
		},
		"coords": [
			{
				"x": -1.7844957644,
				"y": -0.3062127262,
				"z": 2.8240295733,
				"element": "C" 
			},
			{
				"x": -0.3764693822,
				"y": -0.9156693428,
				"z": 2.8168609978,
				"element": "C" 
			},
			{
				"x": 0.0844984488,
				"y": -1.4507740265,
				"z": 1.4506172988,
				"element": "C" 
			},
			{
				"x": 0.3457184461,
				"y": -0.3548645306,
				"z": 0.407105147,
				"element": "C" 
			},
			{
				"x": 0.7760714607,
				"y": -0.9278608365,
				"z": -0.8869665971,
				"element": "N" 
			},
			{
				"x": -0.3471726079,
				"y": -1.335648115,
				"z": -1.7417346632,
				"element": "C" 
			},
			{
				"x": -1.0438075823,
				"y": -0.1447354104,
				"z": -2.4233640827,
				"element": "C" 
			},
			{
				"x": -2.0351223963,
				"y": -0.6548804058,
				"z": -3.2990603772,
				"element": "O" 
			},
			{
				"x": -0.0269468614,
				"y": 0.7048759087,
				"z": -3.1814720007,
				"element": "C" 
			},
			{
				"x": -0.7190415229,
				"y": 1.8309766673,
				"z": -3.7040219164,
				"element": "O" 
			},
			{
				"x": 1.1434027609,
				"y": 1.1146149813,
				"z": -2.2886442894,
				"element": "C" 
			},
			{
				"x": 2.0474150983,
				"y": 1.8258022399,
				"z": -3.1428775177,
				"element": "O" 
			},
			{
				"x": 1.760038081,
				"y": -0.1577845431,
				"z": -1.678091218,
				"element": "C" 
			},
			{
				"x": 3.0510787599,
				"y": 0.0585939344,
				"z": -0.8826034999,
				"element": "C" 
			},
			{
				"x": 3.4946946696,
				"y": -1.1571880706,
				"z": -0.3154230275,
				"element": "O" 
			},
			{
				"x": -2.5286556331,
				"y": -1.0308465057,
				"z": 2.4738033443,
				"element": "H" 
			},
			{
				"x": -1.8565297205,
				"y": 0.5772843811,
				"z": 2.1812636837,
				"element": "H" 
			},
			{
				"x": -2.0728907713,
				"y": 0.0022961719,
				"z": 3.834187836,
				"element": "H" 
			},
			{
				"x": -0.3450566477,
				"y": -1.7412907476,
				"z": 3.5382736163,
				"element": "H" 
			},
			{
				"x": 0.3479092821,
				"y": -0.1732359429,
				"z": 3.179691218,
				"element": "H" 
			},
			{
				"x": -0.6631456358,
				"y": -2.1583388167,
				"z": 1.0685330527,
				"element": "H" 
			},
			{
				"x": 1.0124750963,
				"y": -2.0216182375,
				"z": 1.5767485809,
				"element": "H" 
			},
			{
				"x": 1.1384513844,
				"y": 0.2952897707,
				"z": 0.7878181214,
				"element": "H" 
			},
			{
				"x": -0.5441840946,
				"y": 0.2817759991,
				"z": 0.2979409895,
				"element": "H" 
			},
			{
				"x": -1.0776165425,
				"y": -1.8972464863,
				"z": -1.1532939252,
				"element": "H" 
			},
			{
				"x": 0.022801381,
				"y": -2.0115531708,
				"z": -2.5224566879,
				"element": "H" 
			},
			{
				"x": -1.5082355933,
				"y": 0.5019760377,
				"z": -1.6604208102,
				"element": "H" 
			},
			{
				"x": -2.348467379,
				"y": 0.0991753046,
				"z": -3.8189633937,
				"element": "H" 
			},
			{
				"x": 0.3832400572,
				"y": 0.09494906,
				"z": -4.0045980238,
				"element": "H" 
			},
			{
				"x": -0.0504031917,
				"y": 2.3794755213,
				"z": -4.1383510979,
				"element": "H" 
			},
			{
				"x": 0.7718244114,
				"y": 1.7792492945,
				"z": -1.4936690827,
				"element": "H" 
			},
			{
				"x": 2.6380462265,
				"y": 2.3580132973,
				"z": -2.5964014229,
				"element": "H" 
			},
			{
				"x": 2.0320636767,
				"y": -0.8117038639,
				"z": -2.5193341505,
				"element": "H" 
			},
			{
				"x": 2.9107381157,
				"y": 0.8316533818,
				"z": -0.1063964821,
				"element": "H" 
			},
			{
				"x": 3.8261385103,
				"y": 0.4276200115,
				"z": -1.5646431819,
				"element": "H" 
			},
			{
				"x": 2.6941354603,
				"y": -1.702370184,
				"z": -0.2312860111,
				"element": "H" 
			}
		],
		 "valence_orbital": [ 
			{
				"type": "occ",
				"energy": -0.29511,
				"method": "rhf"
			},
			{
				"type": "occ",
				"energy": -0.27459,
				"method": "rhf"
			},
			{
				"type": "occ",
				"energy": -0.26645,
				"method": "rhf"
			},
			{
				"type": "occ",
				"energy": -0.26181,
				"method": "rhf"
			},
			{
				"type": "occ",
				"energy": -0.22167,
				"method": "rhf"
			},
			{
				"type": "unocc",
				"energy": 0.04677,
				"method": "rhf"
			},
			{
				"type": "unocc",
				"energy": 0.07043,
				"method": "rhf"
			},
			{
				"type": "unocc",
				"energy": 0.08277,
				"method": "rhf"
			},
			{
				"type": "unocc",
				"energy": 0.08479,
				"method": "rhf"
			},
			{
				"type": "unocc",
				"energy": 0.09692,
				"method": "rhf"
			}
		],
		"cosmo_sigma_profile": { 
			"-0.025": 0.0,
			"-0.024": 0.0,
			"-0.023": 0.0,
			"-0.022": 0.0,
			"-0.021": 0.0,
			"-0.02": 0.0,
			"-0.019": 0.0,
			"-0.018": 0.0,
			"-0.017": 0.0,
			"-0.016": 0.643154739525,
			"-0.015": 0.795388575913,
			"-0.014": 1.0554863477,
			"-0.013": 2.63046466522,
			"-0.012": 1.98807159855,
			"-0.011": 2.27605091896,
			"-0.01": 1.82499452729,
			"-0.009": 2.43844893604,
			"-0.008": 3.31601785392,
			"-0.007": 2.95329878997,
			"-0.006": 4.87612427188,
			"-0.005": 13.9748467231,
			"-0.004": 21.0179790817,
			"-0.003": 25.0656161659,
			"-0.002": 29.1896369613,
			"-0.001": 30.0581672553,
			"0.0": 28.156645892,
			"0.001": 23.4347399068,
			"0.002": 13.1111518709,
			"0.003": 7.03285054489,
			"0.004": 4.28695994559,
			"0.005": 4.43731689921,
			"0.006": 5.86396892472,
			"0.007": 5.13743166517,
			"0.008": 3.58989809654,
			"0.009": 4.49072608105,
			"0.01": 5.15162761553,
			"0.011": 3.62621438501,
			"0.012": 4.57871991,
			"0.013": 5.09876966222,
			"0.014": 4.19170518457,
			"0.015": 1.81555231155,
			"0.016": 0.0,
			"0.017": 0.0,
			"0.018": 0.0,
			"0.019": 0.0,
			"0.02": 0.0,
			"0.021": 0.0,
			"0.022": 0.0,
			"0.023": 0.0,
			"0.024": 0.0,
			"0.025": 0.0
		}
	}
}
