{
	 "smiles": "NC1=CC(NC(=O)CN2C=NC=N2)=C(F)C=C1", 
	 "Tm": 468.15, 
	 "num_atms": 27, 
	 "gaussian": { 
		 "optdone": 1, 
		 "sigma_profile": "yes", 
		 "theory": "DFT", 
		 "functional": "B3LYP", 
		 "basiset": "6-31G**", 
		 "properties": { 
			 "R2extent": 5444.3231, 
			 "electric_dipole_moment_norm": 6.67330855348, 
			 "electric_quadrupole_moment_norm": 14.0352078973, 
			 "total_energy": -835.894550966, 
			 "HOMO_LUMO_gap": 0.18421, 
			 "cosmo_polarized_energy": -21.09, 
			 "cosmo_cavitation_energy": 32.62, 
			 "cosmo_dispersion_energy": -23.46, 
			 "cosmo_repulsion_energy": 1.79, 
			 "cosmo_total_nonelectrostatic_energy": 10.95, 
			 "SMD_solvation_energy": 4.14 
		},
		"coords": [
			{
				"x": 2.6765088579,
				"y": 2.1473510396,
				"z": 0.2653749641,
				"element": "N" 
			},
			{
				"x": 2.5804243927,
				"y": 0.7629756131,
				"z": 0.1221771944,
				"element": "C" 
			},
			{
				"x": 1.4361048903,
				"y": 0.1932441762,
				"z": -0.464639149,
				"element": "C" 
			},
			{
				"x": 1.336656884,
				"y": -1.1891069592,
				"z": -0.6532842578,
				"element": "C" 
			},
			{
				"x": 0.230913367,
				"y": -1.8381042486,
				"z": -1.2410681966,
				"element": "N" 
			},
			{
				"x": -1.1290447033,
				"y": -1.661628172,
				"z": -1.1063907705,
				"element": "C" 
			},
			{
				"x": -1.9068710651,
				"y": -2.4299956527,
				"z": -1.6505624201,
				"element": "O" 
			},
			{
				"x": -1.6178893082,
				"y": -0.4627407538,
				"z": -0.2881944411,
				"element": "C" 
			},
			{
				"x": -2.9400703773,
				"y": -0.6742871815,
				"z": 0.2660959184,
				"element": "N" 
			},
			{
				"x": -4.1021199344,
				"y": -1.0607164144,
				"z": -0.3154679346,
				"element": "C" 
			},
			{
				"x": -5.0843903221,
				"y": -1.0431248245,
				"z": 0.5697091677,
				"element": "N" 
			},
			{
				"x": -4.4560162436,
				"y": -0.6249224918,
				"z": 1.7041884072,
				"element": "C" 
			},
			{
				"x": -3.1601750139,
				"y": -0.382431997,
				"z": 1.5803010766,
				"element": "N" 
			},
			{
				"x": 2.4309632102,
				"y": -1.9883195569,
				"z": -0.2967473138,
				"element": "C" 
			},
			{
				"x": 2.345172988,
				"y": -3.3237177742,
				"z": -0.5234232747,
				"element": "F" 
			},
			{
				"x": 3.5765308613,
				"y": -1.4464658775,
				"z": 0.2583290754,
				"element": "C" 
			},
			{
				"x": 3.6503624299,
				"y": -0.0730454212,
				"z": 0.4823704729,
				"element": "C" 
			},
			{
				"x": 3.3584497038,
				"y": 2.46259624,
				"z": 0.9410693915,
				"element": "H" 
			},
			{
				"x": 1.7983002214,
				"y": 2.6377019043,
				"z": 0.3621296899,
				"element": "H" 
			},
			{
				"x": 0.6413279549,
				"y": 0.8453032865,
				"z": -0.8083239719,
				"element": "H" 
			},
			{
				"x": 0.4432850589,
				"y": -2.7197933476,
				"z": -1.6945757327,
				"element": "H" 
			},
			{
				"x": -0.9625157555,
				"y": -0.2519070877,
				"z": 0.5569288688,
				"element": "H" 
			},
			{
				"x": -1.6193415989,
				"y": 0.4211363973,
				"z": -0.939669841,
				"element": "H" 
			},
			{
				"x": -4.1637441931,
				"y": -1.3638563128,
				"z": -1.3487329179,
				"element": "H" 
			},
			{
				"x": -4.965460588,
				"y": -0.4962630037,
				"z": 2.6494697779,
				"element": "H" 
			},
			{
				"x": 4.3961020903,
				"y": -2.1053655867,
				"z": 0.5239027077,
				"element": "H" 
			},
			{
				"x": 4.5456361928,
				"y": 0.3543840068,
				"z": 0.9240335092,
				"element": "H" 
			}
		],
		 "valence_orbital": [ 
			{
				"type": "occ",
				"energy": -0.27437,
				"method": "rhf"
			},
			{
				"type": "occ",
				"energy": -0.26667,
				"method": "rhf"
			},
			{
				"type": "occ",
				"energy": -0.25855,
				"method": "rhf"
			},
			{
				"type": "occ",
				"energy": -0.25021,
				"method": "rhf"
			},
			{
				"type": "occ",
				"energy": -0.21728,
				"method": "rhf"
			},
			{
				"type": "unocc",
				"energy": -0.03307,
				"method": "rhf"
			},
			{
				"type": "unocc",
				"energy": -0.00882,
				"method": "rhf"
			},
			{
				"type": "unocc",
				"energy": 0.00756,
				"method": "rhf"
			},
			{
				"type": "unocc",
				"energy": 0.02075,
				"method": "rhf"
			},
			{
				"type": "unocc",
				"energy": 0.05975,
				"method": "rhf"
			}
		],
		"cosmo_sigma_profile": { 
			"-0.025": 0.0,
			"-0.024": 0.0,
			"-0.023": 0.0,
			"-0.022": 0.0,
			"-0.021": 0.0,
			"-0.02": 0.0,
			"-0.019": 0.0,
			"-0.018": 0.0,
			"-0.017": 0.0,
			"-0.016": 0.0,
			"-0.015": 0.0,
			"-0.014": 0.0860257927075,
			"-0.013": 1.42273341604,
			"-0.012": 3.46609085457,
			"-0.011": 5.47681635491,
			"-0.01": 6.40343310274,
			"-0.009": 9.5188114688,
			"-0.008": 9.93219741894,
			"-0.007": 12.7677465735,
			"-0.006": 12.9841125575,
			"-0.005": 12.5027135586,
			"-0.004": 12.5119326919,
			"-0.003": 11.1304194283,
			"-0.002": 9.38210293571,
			"-0.001": 10.3497506476,
			"0.0": 15.2468989648,
			"0.001": 16.1399415959,
			"0.002": 18.7496039846,
			"0.003": 18.3190720497,
			"0.004": 18.9677002666,
			"0.005": 11.5110181988,
			"0.006": 5.28051451196,
			"0.007": 4.7611769694,
			"0.008": 4.47980415412,
			"0.009": 5.18795854147,
			"0.01": 5.02835334205,
			"0.011": 5.00974256868,
			"0.012": 5.90746547795,
			"0.013": 3.48718735591,
			"0.014": 2.47139043166,
			"0.015": 1.40702033601,
			"0.016": 0.964894911445,
			"0.017": 0.316751755085,
			"0.018": 0.0,
			"0.019": 0.0,
			"0.02": 0.0,
			"0.021": 0.0,
			"0.022": 0.0,
			"0.023": 0.0,
			"0.024": 0.0,
			"0.025": 0.0
		}
	}
}
