{
	 "smiles": "NC1=NON=C1C1=NC=CC=C1", 
	 "Tm": 398.15, 
	 "num_atms": 18, 
	 "gaussian": { 
		 "optdone": 1, 
		 "sigma_profile": "yes", 
		 "theory": "DFT", 
		 "functional": "B3LYP", 
		 "basiset": "6-31G**", 
		 "properties": { 
			 "R2extent": 2901.7392, 
			 "electric_dipole_moment_norm": 5.28262329814, 
			 "electric_quadrupole_moment_norm": 18.8917754338, 
			 "total_energy": -564.51099043, 
			 "HOMO_LUMO_gap": 0.16868, 
			 "cosmo_polarized_energy": -11.42, 
			 "cosmo_cavitation_energy": 22.96, 
			 "cosmo_dispersion_energy": -17.48, 
			 "cosmo_repulsion_energy": 1.38, 
			 "cosmo_total_nonelectrostatic_energy": 6.86, 
			 "SMD_solvation_energy": 2.95 
		},
		"coords": [
			{
				"x": 3.4348767764,
				"y": 0.2328356348,
				"z": 1.0012213143,
				"element": "N" 
			},
			{
				"x": 2.6681335559,
				"y": -0.0395513719,
				"z": 2.0947809489,
				"element": "C" 
			},
			{
				"x": 3.1355346048,
				"y": -0.4605838771,
				"z": 3.2495250441,
				"element": "N" 
			},
			{
				"x": 2.0050691124,
				"y": -0.6682335045,
				"z": 4.0395620547,
				"element": "O" 
			},
			{
				"x": 0.864938134,
				"y": -0.36792919,
				"z": 3.3704069742,
				"element": "N" 
			},
			{
				"x": 1.2274606901,
				"y": 0.0252623475,
				"z": 2.1730192129,
				"element": "C" 
			},
			{
				"x": 0.2752546572,
				"y": 0.4677379451,
				"z": 1.1482350617,
				"element": "C" 
			},
			{
				"x": 0.8121716025,
				"y": 0.9666494191,
				"z": 0.0173802244,
				"element": "N" 
			},
			{
				"x": -0.0215923084,
				"y": 1.3889562207,
				"z": -0.9403248328,
				"element": "C" 
			},
			{
				"x": -1.4097907235,
				"y": 1.3402619086,
				"z": -0.8279556599,
				"element": "C" 
			},
			{
				"x": -1.9605632621,
				"y": 0.8239575232,
				"z": 0.34729908,
				"element": "C" 
			},
			{
				"x": -1.1107137872,
				"y": 0.3796567543,
				"z": 1.3531117787,
				"element": "C" 
			},
			{
				"x": 4.416474547,
				"y": 0.4010234904,
				"z": 1.1602691867,
				"element": "H" 
			},
			{
				"x": 2.9606864166,
				"y": 0.7662956377,
				"z": 0.2828300976,
				"element": "H" 
			},
			{
				"x": 0.4463330224,
				"y": 1.784794592,
				"z": -1.8392108769,
				"element": "H" 
			},
			{
				"x": -2.0377405516,
				"y": 1.6958358478,
				"z": -1.638116499,
				"element": "H" 
			},
			{
				"x": -3.0374267757,
				"y": 0.768055817,
				"z": 0.4760244985,
				"element": "H" 
			},
			{
				"x": -1.489105711,
				"y": -0.0290251947,
				"z": 2.283142392,
				"element": "H" 
			}
		],
		 "valence_orbital": [ 
			{
				"type": "occ",
				"energy": -0.30398,
				"method": "rhf"
			},
			{
				"type": "occ",
				"energy": -0.30172,
				"method": "rhf"
			},
			{
				"type": "occ",
				"energy": -0.2839,
				"method": "rhf"
			},
			{
				"type": "occ",
				"energy": -0.26436,
				"method": "rhf"
			},
			{
				"type": "occ",
				"energy": -0.23142,
				"method": "rhf"
			},
			{
				"type": "unocc",
				"energy": -0.06274,
				"method": "rhf"
			},
			{
				"type": "unocc",
				"energy": -0.03965,
				"method": "rhf"
			},
			{
				"type": "unocc",
				"energy": -0.00114,
				"method": "rhf"
			},
			{
				"type": "unocc",
				"energy": 0.07127,
				"method": "rhf"
			},
			{
				"type": "unocc",
				"energy": 0.08207,
				"method": "rhf"
			}
		],
		"cosmo_sigma_profile": { 
			"-0.025": 0.0,
			"-0.024": 0.0,
			"-0.023": 0.0,
			"-0.022": 0.0,
			"-0.021": 0.0,
			"-0.02": 0.0,
			"-0.019": 0.0,
			"-0.018": 0.0,
			"-0.017": 0.0,
			"-0.016": 0.0,
			"-0.015": 0.180755776292,
			"-0.014": 0.982266305937,
			"-0.013": 1.34343500495,
			"-0.012": 1.19214615684,
			"-0.011": 0.71986836628,
			"-0.01": 1.26064380117,
			"-0.009": 2.05234275838,
			"-0.008": 4.21777461333,
			"-0.007": 9.92953586085,
			"-0.006": 10.6930057766,
			"-0.005": 9.54026592902,
			"-0.004": 7.01663620248,
			"-0.003": 7.88761298278,
			"-0.002": 12.8376382323,
			"-0.001": 14.9450841584,
			"0.0": 16.6927072631,
			"0.001": 18.0708581389,
			"0.002": 13.2175088559,
			"0.003": 5.96099869776,
			"0.004": 5.68666631867,
			"0.005": 7.81136421248,
			"0.006": 8.51528262544,
			"0.007": 8.66621357307,
			"0.008": 4.11478146055,
			"0.009": 3.62660265992,
			"0.01": 3.10431547928,
			"0.011": 2.35396697336,
			"0.012": 1.04048983423,
			"0.013": 1.41897200359,
			"0.014": 0.198431854167,
			"0.015": 0.0,
			"0.016": 0.0,
			"0.017": 0.0,
			"0.018": 0.0,
			"0.019": 0.0,
			"0.02": 0.0,
			"0.021": 0.0,
			"0.022": 0.0,
			"0.023": 0.0,
			"0.024": 0.0,
			"0.025": 0.0
		}
	}
}
