{
	 "smiles": "OC1(CNCC2=CC=CC=C2)CCC2=C1C=CC=C2", 
	 "Tm": 328.15, 
	 "num_atms": 38, 
	 "gaussian": { 
		 "optdone": 1, 
		 "sigma_profile": "yes", 
		 "theory": "DFT", 
		 "functional": "B3LYP", 
		 "basiset": "6-31G**", 
		 "properties": { 
			 "R2extent": 6795.7475, 
			 "electric_dipole_moment_norm": 2.81880303853, 
			 "electric_quadrupole_moment_norm": 13.1792459249, 
			 "total_energy": -789.234342322, 
			 "HOMO_LUMO_gap": 0.21802, 
			 "cosmo_polarized_energy": -10.89, 
			 "cosmo_cavitation_energy": 39.18, 
			 "cosmo_dispersion_energy": -26.91, 
			 "cosmo_repulsion_energy": 2.08, 
			 "cosmo_total_nonelectrostatic_energy": 14.35, 
			 "SMD_solvation_energy": 4.89 
		},
		"coords": [
			{
				"x": -0.3544343512,
				"y": -0.0143817438,
				"z": 3.2566392838,
				"element": "O" 
			},
			{
				"x": 0.6274236146,
				"y": 0.4163165613,
				"z": 2.3302827239,
				"element": "C" 
			},
			{
				"x": 0.1646970903,
				"y": -0.0275479766,
				"z": 0.9138027391,
				"element": "C" 
			},
			{
				"x": -1.2464977041,
				"y": 0.3261494291,
				"z": 0.6841776786,
				"element": "N" 
			},
			{
				"x": -1.50312105,
				"y": 1.4832410758,
				"z": -0.1974922948,
				"element": "C" 
			},
			{
				"x": -1.0804205963,
				"y": 1.2998361197,
				"z": -1.6456609226,
				"element": "C" 
			},
			{
				"x": -1.8398713,
				"y": 0.4977515919,
				"z": -2.5105103187,
				"element": "C" 
			},
			{
				"x": -1.4438411426,
				"y": 0.2931312434,
				"z": -3.8316244387,
				"element": "C" 
			},
			{
				"x": -0.276603191,
				"y": 0.892579457,
				"z": -4.3125777102,
				"element": "C" 
			},
			{
				"x": 0.4850533132,
				"y": 1.6981594999,
				"z": -3.4657402402,
				"element": "C" 
			},
			{
				"x": 0.0837170173,
				"y": 1.9002335348,
				"z": -2.1427497767,
				"element": "C" 
			},
			{
				"x": 2.0061836108,
				"y": -0.1988706731,
				"z": 2.675476899,
				"element": "C" 
			},
			{
				"x": 3.0575656731,
				"y": 0.8332557153,
				"z": 2.2020477962,
				"element": "C" 
			},
			{
				"x": 2.3086476744,
				"y": 2.1462158908,
				"z": 2.3147689998,
				"element": "C" 
			},
			{
				"x": 0.9320116441,
				"y": 1.9130892751,
				"z": 2.4184878442,
				"element": "C" 
			},
			{
				"x": 0.0463287471,
				"y": 2.9717839361,
				"z": 2.6112540981,
				"element": "C" 
			},
			{
				"x": 0.5472113354,
				"y": 4.2768294295,
				"z": 2.657310909,
				"element": "C" 
			},
			{
				"x": 1.9194833859,
				"y": 4.5130701654,
				"z": 2.5234671494,
				"element": "C" 
			},
			{
				"x": 2.8094933937,
				"y": 3.4468208538,
				"z": 2.3584290872,
				"element": "C" 
			},
			{
				"x": -1.1955495683,
				"y": 0.1104689439,
				"z": 2.7792821218,
				"element": "H" 
			},
			{
				"x": 0.8310549777,
				"y": 0.3703624578,
				"z": 0.1372130822,
				"element": "H" 
			},
			{
				"x": 0.2485640611,
				"y": -1.1192906089,
				"z": 0.8838871952,
				"element": "H" 
			},
			{
				"x": -1.7362146542,
				"y": -0.4789103478,
				"z": 0.3070763814,
				"element": "H" 
			},
			{
				"x": -0.9970948876,
				"y": 2.3521872268,
				"z": 0.2293339551,
				"element": "H" 
			},
			{
				"x": -2.579830267,
				"y": 1.6862827584,
				"z": -0.1513561379,
				"element": "H" 
			},
			{
				"x": -2.7566242704,
				"y": 0.0364695961,
				"z": -2.1473398641,
				"element": "H" 
			},
			{
				"x": -2.0478865988,
				"y": -0.3265243471,
				"z": -4.4886384028,
				"element": "H" 
			},
			{
				"x": 0.0319704419,
				"y": 0.7368133506,
				"z": -5.3423417976,
				"element": "H" 
			},
			{
				"x": 1.3901959674,
				"y": 2.1729812294,
				"z": -3.8340747017,
				"element": "H" 
			},
			{
				"x": 0.6747098842,
				"y": 2.538018593,
				"z": -1.4898239959,
				"element": "H" 
			},
			{
				"x": 2.1448855643,
				"y": -1.1943654221,
				"z": 2.2422168968,
				"element": "H" 
			},
			{
				"x": 2.0450929336,
				"y": -0.300130799,
				"z": 3.7648256282,
				"element": "H" 
			},
			{
				"x": 3.3605507604,
				"y": 0.6405592977,
				"z": 1.163274407,
				"element": "H" 
			},
			{
				"x": 3.9729294728,
				"y": 0.8137834143,
				"z": 2.8032025569,
				"element": "H" 
			},
			{
				"x": -1.015002243,
				"y": 2.7827033813,
				"z": 2.7460228918,
				"element": "H" 
			},
			{
				"x": -0.1309377809,
				"y": 5.1116266386,
				"z": 2.8119456132,
				"element": "H" 
			},
			{
				"x": 2.2983878319,
				"y": 5.5304280125,
				"z": 2.5686002262,
				"element": "H" 
			},
			{
				"x": 3.8785712099,
				"y": 3.632473239,
				"z": 2.2863044378,
				"element": "H" 
			}
		],
		 "valence_orbital": [ 
			{
				"type": "occ",
				"energy": -0.25372,
				"method": "rhf"
			},
			{
				"type": "occ",
				"energy": -0.24801,
				"method": "rhf"
			},
			{
				"type": "occ",
				"energy": -0.23878,
				"method": "rhf"
			},
			{
				"type": "occ",
				"energy": -0.23438,
				"method": "rhf"
			},
			{
				"type": "occ",
				"energy": -0.22629,
				"method": "rhf"
			},
			{
				"type": "unocc",
				"energy": -0.00827,
				"method": "rhf"
			},
			{
				"type": "unocc",
				"energy": -0.0052,
				"method": "rhf"
			},
			{
				"type": "unocc",
				"energy": 0.00164,
				"method": "rhf"
			},
			{
				"type": "unocc",
				"energy": 0.00838,
				"method": "rhf"
			},
			{
				"type": "unocc",
				"energy": 0.07306,
				"method": "rhf"
			}
		],
		"cosmo_sigma_profile": { 
			"-0.025": 0.0,
			"-0.024": 0.0,
			"-0.023": 0.0,
			"-0.022": 0.0,
			"-0.021": 0.0,
			"-0.02": 0.0,
			"-0.019": 0.0,
			"-0.018": 0.0,
			"-0.017": 0.0,
			"-0.016": 0.0,
			"-0.015": 0.0,
			"-0.014": 0.0,
			"-0.013": 0.0,
			"-0.012": 0.0,
			"-0.011": 0.124692979957,
			"-0.01": 1.28418368714,
			"-0.009": 1.3810816476,
			"-0.008": 2.23705912135,
			"-0.007": 2.4838588922,
			"-0.006": 5.92224644662,
			"-0.005": 19.2509682339,
			"-0.004": 29.482127904,
			"-0.003": 39.5133558944,
			"-0.002": 32.6811372358,
			"-0.001": 30.9502224646,
			"0.0": 26.2580645382,
			"0.001": 19.4119858372,
			"0.002": 14.4224652754,
			"0.003": 16.2350207051,
			"0.004": 15.9722889912,
			"0.005": 15.7976619334,
			"0.006": 17.3003808291,
			"0.007": 6.09317515822,
			"0.008": 1.66228242304,
			"0.009": 1.62588384707,
			"0.01": 1.35480534458,
			"0.011": 0.741676151466,
			"0.012": 2.08336823201,
			"0.013": 1.00109983526,
			"0.014": 2.03393491247,
			"0.015": 1.47944835293,
			"0.016": 0.0244873358233,
			"0.017": 0.0,
			"0.018": 0.0,
			"0.019": 0.0,
			"0.02": 0.0,
			"0.021": 0.0,
			"0.022": 0.0,
			"0.023": 0.0,
			"0.024": 0.0,
			"0.025": 0.0
		}
	}
}
