{
	 "smiles": "CC1=CC=CC(C)=C1NC(=O)C(O)=O", 
	 "Tm": 437.15, 
	 "num_atms": 25, 
	 "gaussian": { 
		 "optdone": 1, 
		 "sigma_profile": "yes", 
		 "theory": "DFT", 
		 "functional": "B3LYP", 
		 "basiset": "6-31G**", 
		 "properties": { 
			 "R2extent": 3516.4232, 
			 "electric_dipole_moment_norm": 3.06521978657, 
			 "electric_quadrupole_moment_norm": 8.03717303036, 
			 "total_energy": -668.15717562, 
			 "HOMO_LUMO_gap": 0.18283, 
			 "cosmo_polarized_energy": -11.68, 
			 "cosmo_cavitation_energy": 28.98, 
			 "cosmo_dispersion_energy": -20.66, 
			 "cosmo_repulsion_energy": 1.62, 
			 "cosmo_total_nonelectrostatic_energy": 9.95, 
			 "SMD_solvation_energy": 7.19 
		},
		"coords": [
			{
				"x": 1.3274669816,
				"y": 1.2189649123,
				"z": -0.7215868899,
				"element": "C" 
			},
			{
				"x": 0.1455783939,
				"y": 0.8096266736,
				"z": -1.5683124141,
				"element": "C" 
			},
			{
				"x": -0.2988280559,
				"y": 1.6234409923,
				"z": -2.6134310067,
				"element": "C" 
			},
			{
				"x": -1.3949078593,
				"y": 1.2524948475,
				"z": -3.3905396698,
				"element": "C" 
			},
			{
				"x": -2.0484856879,
				"y": 0.0495378077,
				"z": -3.1393313885,
				"element": "C" 
			},
			{
				"x": -1.6321729834,
				"y": -0.8069230361,
				"z": -2.1118231039,
				"element": "C" 
			},
			{
				"x": -2.3272415208,
				"y": -2.1275494184,
				"z": -1.8980131934,
				"element": "C" 
			},
			{
				"x": -0.540688245,
				"y": -0.3969041061,
				"z": -1.3232044671,
				"element": "C" 
			},
			{
				"x": -0.0572701699,
				"y": -1.2252660906,
				"z": -0.2641725127,
				"element": "N" 
			},
			{
				"x": -0.7461076921,
				"y": -1.656758602,
				"z": 0.8110497091,
				"element": "C" 
			},
			{
				"x": -1.9382073891,
				"y": -1.4972872687,
				"z": 1.0736976376,
				"element": "O" 
			},
			{
				"x": 0.135451019,
				"y": -2.4444393639,
				"z": 1.8040877807,
				"element": "C" 
			},
			{
				"x": -0.5739105903,
				"y": -2.8713639506,
				"z": 2.8450183195,
				"element": "O" 
			},
			{
				"x": 1.3209644919,
				"y": -2.6297153388,
				"z": 1.6438700679,
				"element": "O" 
			},
			{
				"x": 2.1855834135,
				"y": 0.5472905984,
				"z": -0.8571486463,
				"element": "H" 
			},
			{
				"x": 1.0829992226,
				"y": 1.2128783301,
				"z": 0.3460989658,
				"element": "H" 
			},
			{
				"x": 1.6614410781,
				"y": 2.2248233685,
				"z": -0.9864736719,
				"element": "H" 
			},
			{
				"x": 0.2170696201,
				"y": 2.559174224,
				"z": -2.8101077063,
				"element": "H" 
			},
			{
				"x": -1.7333258679,
				"y": 1.8971580186,
				"z": -4.196372318,
				"element": "H" 
			},
			{
				"x": -2.891441645,
				"y": -0.2479643674,
				"z": -3.7568760032,
				"element": "H" 
			},
			{
				"x": -1.6047038621,
				"y": -2.9406106549,
				"z": -1.7671888335,
				"element": "H" 
			},
			{
				"x": -2.9493432158,
				"y": -2.1043099441,
				"z": -0.9981060959,
				"element": "H" 
			},
			{
				"x": -2.9598872682,
				"y": -2.3708053114,
				"z": -2.7552111178,
				"element": "H" 
			},
			{
				"x": 0.938642776,
				"y": -1.4157155742,
				"z": -0.2024183059,
				"element": "H" 
			},
			{
				"x": -1.4881749438,
				"y": -2.5506767458,
				"z": 2.6800948645,
				"element": "H" 
			}
		],
		 "valence_orbital": [ 
			{
				"type": "occ",
				"energy": -0.33204,
				"method": "rhf"
			},
			{
				"type": "occ",
				"energy": -0.30474,
				"method": "rhf"
			},
			{
				"type": "occ",
				"energy": -0.26995,
				"method": "rhf"
			},
			{
				"type": "occ",
				"energy": -0.24806,
				"method": "rhf"
			},
			{
				"type": "occ",
				"energy": -0.24414,
				"method": "rhf"
			},
			{
				"type": "unocc",
				"energy": -0.06131,
				"method": "rhf"
			},
			{
				"type": "unocc",
				"energy": -0.01027,
				"method": "rhf"
			},
			{
				"type": "unocc",
				"energy": -0.00657,
				"method": "rhf"
			},
			{
				"type": "unocc",
				"energy": 0.07242,
				"method": "rhf"
			},
			{
				"type": "unocc",
				"energy": 0.07983,
				"method": "rhf"
			}
		],
		"cosmo_sigma_profile": { 
			"-0.025": 0.0,
			"-0.024": 0.0,
			"-0.023": 0.0,
			"-0.022": 0.0,
			"-0.021": 0.0,
			"-0.02": 0.0,
			"-0.019": 0.0,
			"-0.018": 0.0,
			"-0.017": 0.0,
			"-0.016": 0.0,
			"-0.015": 0.190204890959,
			"-0.014": 0.503764511508,
			"-0.013": 1.50828996356,
			"-0.012": 1.89766910511,
			"-0.011": 1.47515135357,
			"-0.01": 1.30132543571,
			"-0.009": 1.34164826417,
			"-0.008": 3.18467099744,
			"-0.007": 5.2005468044,
			"-0.006": 7.90107644696,
			"-0.005": 18.0221756248,
			"-0.004": 20.1404523837,
			"-0.003": 17.8664543837,
			"-0.002": 17.5489435483,
			"-0.001": 19.682900445,
			"0.0": 19.7796392594,
			"0.001": 13.3366619823,
			"0.002": 9.36735241645,
			"0.003": 9.92418001966,
			"0.004": 11.144335487,
			"0.005": 13.5968046493,
			"0.006": 6.32811666968,
			"0.007": 5.06067020104,
			"0.008": 5.56644131613,
			"0.009": 6.37551722517,
			"0.01": 5.74471452738,
			"0.011": 4.8085226729,
			"0.012": 1.4568619638,
			"0.013": 0.0,
			"0.014": 0.0,
			"0.015": 0.0,
			"0.016": 0.0,
			"0.017": 0.0,
			"0.018": 0.0,
			"0.019": 0.0,
			"0.02": 0.0,
			"0.021": 0.0,
			"0.022": 0.0,
			"0.023": 0.0,
			"0.024": 0.0,
			"0.025": 0.0
		}
	}
}
