{
	 "smiles": "ClCC1=CC(=O)OC2=C1C=C1CCCC1=C2", 
	 "Tm": 416.15, 
	 "num_atms": 27, 
	 "gaussian": { 
		 "optdone": 1, 
		 "sigma_profile": "yes", 
		 "theory": "DFT", 
		 "functional": "B3LYP", 
		 "basiset": "6-31G**", 
		 "properties": { 
			 "R2extent": 6973.1344, 
			 "electric_dipole_moment_norm": 5.06816373256, 
			 "electric_quadrupole_moment_norm": 22.2771284386, 
			 "total_energy": -1112.67257401, 
			 "HOMO_LUMO_gap": 0.15521, 
			 "cosmo_polarized_energy": -12.55, 
			 "cosmo_cavitation_energy": 31.82, 
			 "cosmo_dispersion_energy": -23.59, 
			 "cosmo_repulsion_energy": 1.84, 
			 "cosmo_total_nonelectrostatic_energy": 10.07, 
			 "SMD_solvation_energy": 5.44 
		},
		"coords": [
			{
				"x": -0.2525946295,
				"y": 3.4606253772,
				"z": -3.8782879812,
				"element": "Cl" 
			},
			{
				"x": 0.3804561659,
				"y": 1.9132182262,
				"z": -4.6148181739,
				"element": "C" 
			},
			{
				"x": -0.3935839177,
				"y": 0.7061341514,
				"z": -4.1655371943,
				"element": "C" 
			},
			{
				"x": -1.2238073663,
				"y": 0.0852717873,
				"z": -5.0414384095,
				"element": "C" 
			},
			{
				"x": -1.9838976983,
				"y": -1.1101364857,
				"z": -4.6980533834,
				"element": "C" 
			},
			{
				"x": -2.7382092099,
				"y": -1.7056129695,
				"z": -5.4315364483,
				"element": "O" 
			},
			{
				"x": -1.8046802502,
				"y": -1.5910777597,
				"z": -3.4062612507,
				"element": "O" 
			},
			{
				"x": -0.9737199707,
				"y": -0.9904754153,
				"z": -2.5023434122,
				"element": "C" 
			},
			{
				"x": -0.2397906993,
				"y": 0.1720501396,
				"z": -2.8229641599,
				"element": "C" 
			},
			{
				"x": 0.5938674086,
				"y": 0.7329979195,
				"z": -1.8304963305,
				"element": "C" 
			},
			{
				"x": 0.6754605149,
				"y": 0.1452131785,
				"z": -0.579937392,
				"element": "C" 
			},
			{
				"x": 1.4985498922,
				"y": 0.5595642034,
				"z": 0.622358123,
				"element": "C" 
			},
			{
				"x": 0.8295280411,
				"y": -0.2128006532,
				"z": 1.787953597,
				"element": "C" 
			},
			{
				"x": 0.200578297,
				"y": -1.4680484584,
				"z": 1.1313377303,
				"element": "C" 
			},
			{
				"x": -0.0682258603,
				"y": -1.0161235604,
				"z": -0.2870908497,
				"element": "C" 
			},
			{
				"x": -0.893264304,
				"y": -1.5912776567,
				"z": -1.242223077,
				"element": "C" 
			},
			{
				"x": 0.3090521149,
				"y": 2.0422256934,
				"z": -5.6937407633,
				"element": "H" 
			},
			{
				"x": 1.4311373674,
				"y": 1.8532146657,
				"z": -4.327802375,
				"element": "H" 
			},
			{
				"x": -1.3678651927,
				"y": 0.4482747915,
				"z": -6.0527724269,
				"element": "H" 
			},
			{
				"x": 1.1486073639,
				"y": 1.6405696833,
				"z": -2.0451557188,
				"element": "H" 
			},
			{
				"x": 2.5435431785,
				"y": 0.2435547571,
				"z": 0.4940264465,
				"element": "H" 
			},
			{
				"x": 1.512798177,
				"y": 1.6423626281,
				"z": 0.7830182808,
				"element": "H" 
			},
			{
				"x": 1.5281695385,
				"y": -0.4591558205,
				"z": 2.5919244993,
				"element": "H" 
			},
			{
				"x": 0.0343015386,
				"y": 0.4041381622,
				"z": 2.2205490727,
				"element": "H" 
			},
			{
				"x": 0.9111669855,
				"y": -2.3068386097,
				"z": 1.1266681604,
				"element": "H" 
			},
			{
				"x": -0.6980265214,
				"y": -1.8188468948,
				"z": 1.6488885662,
				"element": "H" 
			},
			{
				"x": -1.4822509638,
				"y": -2.4818210802,
				"z": -1.0483651294,
				"element": "H" 
			}
		],
		 "valence_orbital": [ 
			{
				"type": "occ",
				"energy": -0.30836,
				"method": "rhf"
			},
			{
				"type": "occ",
				"energy": -0.30067,
				"method": "rhf"
			},
			{
				"type": "occ",
				"energy": -0.2735,
				"method": "rhf"
			},
			{
				"type": "occ",
				"energy": -0.25503,
				"method": "rhf"
			},
			{
				"type": "occ",
				"energy": -0.23144,
				"method": "rhf"
			},
			{
				"type": "unocc",
				"energy": -0.07623,
				"method": "rhf"
			},
			{
				"type": "unocc",
				"energy": -0.01571,
				"method": "rhf"
			},
			{
				"type": "unocc",
				"energy": -0.0111,
				"method": "rhf"
			},
			{
				"type": "unocc",
				"energy": 0.02854,
				"method": "rhf"
			},
			{
				"type": "unocc",
				"energy": 0.07607,
				"method": "rhf"
			}
		],
		"cosmo_sigma_profile": { 
			"-0.025": 0.0,
			"-0.024": 0.0,
			"-0.023": 0.0,
			"-0.022": 0.0,
			"-0.021": 0.0,
			"-0.02": 0.0,
			"-0.019": 0.0,
			"-0.018": 0.0,
			"-0.017": 0.0,
			"-0.016": 0.0,
			"-0.015": 0.0,
			"-0.014": 0.0,
			"-0.013": 0.0,
			"-0.012": 0.0,
			"-0.011": 0.0,
			"-0.01": 0.367842627454,
			"-0.009": 4.59150317433,
			"-0.008": 6.85965903151,
			"-0.007": 7.48636309624,
			"-0.006": 6.8522227031,
			"-0.005": 9.98424313307,
			"-0.004": 16.6661583585,
			"-0.003": 25.5342382666,
			"-0.002": 28.5983122147,
			"-0.001": 26.3187404216,
			"0.0": 24.1229693576,
			"0.001": 16.3058416522,
			"0.002": 14.8280090465,
			"0.003": 16.9071049915,
			"0.004": 9.60396898684,
			"0.005": 9.36656335187,
			"0.006": 9.55332473351,
			"0.007": 1.8294354761,
			"0.008": 1.85899095977,
			"0.009": 2.5871691139,
			"0.01": 2.61896283351,
			"0.011": 3.92553035152,
			"0.012": 6.03499206765,
			"0.013": 2.71490458227,
			"0.014": 0.0909105601472,
			"0.015": 0.0,
			"0.016": 0.0,
			"0.017": 0.0,
			"0.018": 0.0,
			"0.019": 0.0,
			"0.02": 0.0,
			"0.021": 0.0,
			"0.022": 0.0,
			"0.023": 0.0,
			"0.024": 0.0,
			"0.025": 0.0
		}
	}
}
