{
	 "smiles": "FC1=C2C=CC=NC2=C(C=O)C=C1", 
	 "Tm": 387.15, 
	 "num_atms": 19, 
	 "gaussian": { 
		 "optdone": 1, 
		 "sigma_profile": "yes", 
		 "theory": "DFT", 
		 "functional": "B3LYP", 
		 "basiset": "6-31G**", 
		 "properties": { 
			 "R2extent": 3657.8106, 
			 "electric_dipole_moment_norm": 4.17725764587, 
			 "electric_quadrupole_moment_norm": 8.13895295662, 
			 "total_energy": -614.484990973, 
			 "HOMO_LUMO_gap": 0.16087, 
			 "cosmo_polarized_energy": -8.83, 
			 "cosmo_cavitation_energy": 24.24, 
			 "cosmo_dispersion_energy": -17.88, 
			 "cosmo_repulsion_energy": 1.35, 
			 "cosmo_total_nonelectrostatic_energy": 7.72, 
			 "SMD_solvation_energy": 4.54 
		},
		"coords": [
			{
				"x": 2.0961545383,
				"y": -3.1069594769,
				"z": -3.3924832773,
				"element": "F" 
			},
			{
				"x": 1.2355774064,
				"y": -2.1841388693,
				"z": -2.9199958032,
				"element": "C" 
			},
			{
				"x": 0.8914755287,
				"y": -2.2507301568,
				"z": -1.5483244778,
				"element": "C" 
			},
			{
				"x": 1.4066253711,
				"y": -3.2320356666,
				"z": -0.6665045599,
				"element": "C" 
			},
			{
				"x": 1.0092841693,
				"y": -3.2101885481,
				"z": 0.6490328708,
				"element": "C" 
			},
			{
				"x": 0.1006591203,
				"y": -2.2065490361,
				"z": 1.0680809571,
				"element": "C" 
			},
			{
				"x": -0.3991992473,
				"y": -1.2779853532,
				"z": 0.276604491,
				"element": "N" 
			},
			{
				"x": -0.0222115482,
				"y": -1.2760853315,
				"z": -1.03301332,
				"element": "C" 
			},
			{
				"x": -0.5488747823,
				"y": -0.2797224617,
				"z": -1.9160224206,
				"element": "C" 
			},
			{
				"x": -1.4994031213,
				"y": 0.7537205877,
				"z": -1.432958008,
				"element": "C" 
			},
			{
				"x": -1.9678364378,
				"y": 1.6169839049,
				"z": -2.1562328673,
				"element": "O" 
			},
			{
				"x": -0.1673907416,
				"y": -0.2752241334,
				"z": -3.2484665331,
				"element": "C" 
			},
			{
				"x": 0.7299715155,
				"y": -1.2277244118,
				"z": -3.7674576658,
				"element": "C" 
			},
			{
				"x": 2.0998045435,
				"y": -3.977241364,
				"z": -1.0418289107,
				"element": "H" 
			},
			{
				"x": 1.3759016064,
				"y": -3.9403355,
				"z": 1.3628972844,
				"element": "H" 
			},
			{
				"x": -0.2230336332,
				"y": -2.1769845062,
				"z": 2.1078129594,
				"element": "H" 
			},
			{
				"x": -1.7592392887,
				"y": 0.6906131642,
				"z": -0.3621863164,
				"element": "H" 
			},
			{
				"x": -0.5853829212,
				"y": 0.4938693381,
				"z": -3.8905419146,
				"element": "H" 
			},
			{
				"x": 1.026917922,
				"y": -1.2221821794,
				"z": -4.8102124879,
				"element": "H" 
			}
		],
		 "valence_orbital": [ 
			{
				"type": "occ",
				"energy": -0.31863,
				"method": "rhf"
			},
			{
				"type": "occ",
				"energy": -0.28155,
				"method": "rhf"
			},
			{
				"type": "occ",
				"energy": -0.27362,
				"method": "rhf"
			},
			{
				"type": "occ",
				"energy": -0.24514,
				"method": "rhf"
			},
			{
				"type": "occ",
				"energy": -0.24293,
				"method": "rhf"
			},
			{
				"type": "unocc",
				"energy": -0.08206,
				"method": "rhf"
			},
			{
				"type": "unocc",
				"energy": -0.03701,
				"method": "rhf"
			},
			{
				"type": "unocc",
				"energy": -0.03482,
				"method": "rhf"
			},
			{
				"type": "unocc",
				"energy": 0.04437,
				"method": "rhf"
			},
			{
				"type": "unocc",
				"energy": 0.08314,
				"method": "rhf"
			}
		],
		"cosmo_sigma_profile": { 
			"-0.025": 0.0,
			"-0.024": 0.0,
			"-0.023": 0.0,
			"-0.022": 0.0,
			"-0.021": 0.0,
			"-0.02": 0.0,
			"-0.019": 0.0,
			"-0.018": 0.0,
			"-0.017": 0.0,
			"-0.016": 0.0,
			"-0.015": 0.0,
			"-0.014": 0.0,
			"-0.013": 0.0,
			"-0.012": 0.0,
			"-0.011": 0.0,
			"-0.01": 0.0,
			"-0.009": 0.254408694048,
			"-0.008": 3.44606076044,
			"-0.007": 9.66940955672,
			"-0.006": 11.6045452525,
			"-0.005": 9.63771364732,
			"-0.004": 8.96787875705,
			"-0.003": 12.4699800727,
			"-0.002": 14.5656449843,
			"-0.001": 24.046217475,
			"0.0": 25.2046773596,
			"0.001": 21.9336679121,
			"0.002": 10.8999889558,
			"0.003": 11.12498515,
			"0.004": 4.85267717745,
			"0.005": 3.85593181836,
			"0.006": 2.76999288388,
			"0.007": 2.54527508846,
			"0.008": 2.49898382879,
			"0.009": 3.54513816736,
			"0.01": 3.42838823311,
			"0.011": 5.00546825534,
			"0.012": 3.02314800177,
			"0.013": 1.09182140022,
			"0.014": 0.0178281235253,
			"0.015": 0.0,
			"0.016": 0.0,
			"0.017": 0.0,
			"0.018": 0.0,
			"0.019": 0.0,
			"0.02": 0.0,
			"0.021": 0.0,
			"0.022": 0.0,
			"0.023": 0.0,
			"0.024": 0.0,
			"0.025": 0.0
		}
	}
}
