{
	 "smiles": "C1=CC=C(C=C1)[P+](C1=CC=CC=C1)(C1=CC=CC=C1)C1=CC=CC=C1", 
	 "Tm": 546.15, 
	 "num_atms": 45, 
	 "gaussian": { 
		 "optdone": 1, 
		 "sigma_profile": "yes", 
		 "theory": "DFT", 
		 "functional": "B3LYP", 
		 "basiset": "6-31G**", 
		 "properties": { 
			 "R2extent": 8248.6349, 
			 "electric_dipole_moment_norm": 3.10817415374, 
			 "electric_quadrupole_moment_norm": 1.91075031859, 
			 "total_energy": -1267.76383894, 
			 "HOMO_LUMO_gap": 0.21178, 
			 "cosmo_polarized_energy": -40.78, 
			 "cosmo_cavitation_energy": 48.1, 
			 "cosmo_dispersion_energy": -32.01, 
			 "cosmo_repulsion_energy": 2.43, 
			 "cosmo_total_nonelectrostatic_energy": 18.52, 
			 "SMD_solvation_energy": 8.34 
		},
		"coords": [
			{
				"x": 0.5635350596,
				"y": -3.3471820444,
				"z": -3.9321621379,
				"element": "C" 
			},
			{
				"x": 1.5166256454,
				"y": -3.1932135238,
				"z": -2.9218030261,
				"element": "C" 
			},
			{
				"x": 1.3114005219,
				"y": -2.2652688989,
				"z": -1.9024788712,
				"element": "C" 
			},
			{
				"x": 0.1441329579,
				"y": -1.4786670872,
				"z": -1.8966025389,
				"element": "C" 
			},
			{
				"x": -0.8126042701,
				"y": -1.639242509,
				"z": -2.9113405476,
				"element": "C" 
			},
			{
				"x": -0.5983928995,
				"y": -2.5737256629,
				"z": -3.9245713317,
				"element": "C" 
			},
			{
				"x": -0.0831361303,
				"y": -0.229233662,
				"z": -0.5992658389,
				"element": "P" 
			},
			{
				"x": -1.8303622994,
				"y": 0.2517740276,
				"z": -0.4914139188,
				"element": "C" 
			},
			{
				"x": -2.6657102524,
				"y": -0.300724643,
				"z": 0.4923665113,
				"element": "C" 
			},
			{
				"x": -4.015904835,
				"y": 0.047540122,
				"z": 0.5307543914,
				"element": "C" 
			},
			{
				"x": -4.5373016001,
				"y": 0.9415861692,
				"z": -0.4058253696,
				"element": "C" 
			},
			{
				"x": -3.7083709004,
				"y": 1.496816069,
				"z": -1.3843555978,
				"element": "C" 
			},
			{
				"x": -2.3570776418,
				"y": 1.1589691493,
				"z": -1.4299403533,
				"element": "C" 
			},
			{
				"x": 0.4679759971,
				"y": -0.947350949,
				"z": 0.9743716579,
				"element": "C" 
			},
			{
				"x": 0.1418278443,
				"y": -2.2827320564,
				"z": 1.277056425,
				"element": "C" 
			},
			{
				"x": 0.5189562212,
				"y": -2.8273893863,
				"z": 2.5031686108,
				"element": "C" 
			},
			{
				"x": 1.2244444808,
				"y": -2.0522372587,
				"z": 3.4274618843,
				"element": "C" 
			},
			{
				"x": 1.5556767864,
				"y": -0.7300177172,
				"z": 3.1267675927,
				"element": "C" 
			},
			{
				"x": 1.1801869186,
				"y": -0.1732754993,
				"z": 1.9041464976,
				"element": "C" 
			},
			{
				"x": 0.8853211259,
				"y": 1.2574266641,
				"z": -0.9836982862,
				"element": "C" 
			},
			{
				"x": 0.5720569046,
				"y": 2.4714969036,
				"z": -0.3440241576,
				"element": "C" 
			},
			{
				"x": 1.3403900324,
				"y": 3.6064066643,
				"z": -0.5967548063,
				"element": "C" 
			},
			{
				"x": 2.4151844249,
				"y": 3.5414338158,
				"z": -1.4875300357,
				"element": "C" 
			},
			{
				"x": 2.7233473522,
				"y": 2.3406238372,
				"z": -2.1289730509,
				"element": "C" 
			},
			{
				"x": 1.9635137722,
				"y": 1.197449363,
				"z": -1.8808191584,
				"element": "C" 
			},
			{
				"x": 0.7249572626,
				"y": -4.0746051812,
				"z": -4.7215555428,
				"element": "H" 
			},
			{
				"x": 2.4167526211,
				"y": -3.7995595713,
				"z": -2.9230359827,
				"element": "H" 
			},
			{
				"x": 2.0494046041,
				"y": -2.1642173578,
				"z": -1.1127873584,
				"element": "H" 
			},
			{
				"x": -1.7226849428,
				"y": -1.0495295482,
				"z": -2.9087518454,
				"element": "H" 
			},
			{
				"x": -1.3428587267,
				"y": -2.6993004787,
				"z": -4.7041261396,
				"element": "H" 
			},
			{
				"x": -2.2678953455,
				"y": -0.9889581305,
				"z": 1.2300398677,
				"element": "H" 
			},
			{
				"x": -4.6574318532,
				"y": -0.3769657499,
				"z": 1.2962241171,
				"element": "H" 
			},
			{
				"x": -5.5882118691,
				"y": 1.211221016,
				"z": -0.370775585,
				"element": "H" 
			},
			{
				"x": -4.1115607521,
				"y": 2.1977675225,
				"z": -2.1082283406,
				"element": "H" 
			},
			{
				"x": -1.7172319072,
				"y": 1.6077903425,
				"z": -2.1833592667,
				"element": "H" 
			},
			{
				"x": -0.3914739991,
				"y": -2.8973872332,
				"z": 0.5585523478,
				"element": "H" 
			},
			{
				"x": 0.2676230066,
				"y": -3.857797382,
				"z": 2.73333432,
				"element": "H" 
			},
			{
				"x": 1.5205926865,
				"y": -2.4818510515,
				"z": 4.3793400537,
				"element": "H" 
			},
			{
				"x": 2.1112324171,
				"y": -0.1305481112,
				"z": 3.8407006866,
				"element": "H" 
			},
			{
				"x": 1.4502773006,
				"y": 0.8518896552,
				"z": 1.6758091283,
				"element": "H" 
			},
			{
				"x": -0.2710998561,
				"y": 2.5355085144,
				"z": 0.3367541912,
				"element": "H" 
			},
			{
				"x": 1.0956382689,
				"y": 4.5416026318,
				"z": -0.103408633,
				"element": "H" 
			},
			{
				"x": 3.0080417816,
				"y": 4.4289781823,
				"z": -1.6853371552,
				"element": "H" 
			},
			{
				"x": 3.5524242934,
				"y": 2.2919862818,
				"z": -2.8275231675,
				"element": "H" 
			},
			{
				"x": 2.2049897929,
				"y": 0.271513762,
				"z": -2.3911002394,
				"element": "H" 
			}
		],
		 "valence_orbital": [ 
			{
				"type": "occ",
				"energy": -0.37851,
				"method": "rhf"
			},
			{
				"type": "occ",
				"energy": -0.3785,
				"method": "rhf"
			},
			{
				"type": "occ",
				"energy": -0.37299,
				"method": "rhf"
			},
			{
				"type": "occ",
				"energy": -0.37259,
				"method": "rhf"
			},
			{
				"type": "occ",
				"energy": -0.37258,
				"method": "rhf"
			},
			{
				"type": "unocc",
				"energy": -0.1608,
				"method": "rhf"
			},
			{
				"type": "unocc",
				"energy": -0.15526,
				"method": "rhf"
			},
			{
				"type": "unocc",
				"energy": -0.15523,
				"method": "rhf"
			},
			{
				"type": "unocc",
				"energy": -0.13917,
				"method": "rhf"
			},
			{
				"type": "unocc",
				"energy": -0.13316,
				"method": "rhf"
			}
		],
		"cosmo_sigma_profile": { 
			"-0.025": 0.0,
			"-0.024": 0.0,
			"-0.023": 0.0,
			"-0.022": 0.0,
			"-0.021": 0.0,
			"-0.02": 0.0,
			"-0.019": 0.0,
			"-0.018": 0.0,
			"-0.017": 0.0,
			"-0.016": 0.0,
			"-0.015": 0.0,
			"-0.014": 0.0,
			"-0.013": 0.0,
			"-0.012": 0.0,
			"-0.011": 0.185096900714,
			"-0.01": 1.37932760621,
			"-0.009": 2.27086190001,
			"-0.008": 6.01500867661,
			"-0.007": 38.3018299086,
			"-0.006": 50.4254704085,
			"-0.005": 45.7786804649,
			"-0.004": 31.5407108514,
			"-0.003": 31.1593719982,
			"-0.002": 27.3695656273,
			"-0.001": 27.563005639,
			"0.0": 27.3282257347,
			"0.001": 31.0820048339,
			"0.002": 36.3731420315,
			"0.003": 27.6980019234,
			"0.004": 0.313992895037,
			"0.005": 0.0,
			"0.006": 0.0,
			"0.007": 0.0,
			"0.008": 0.0,
			"0.009": 0.0,
			"0.01": 0.0,
			"0.011": 0.0,
			"0.012": 0.0,
			"0.013": 0.0,
			"0.014": 0.0,
			"0.015": 0.0,
			"0.016": 0.0,
			"0.017": 0.0,
			"0.018": 0.0,
			"0.019": 0.0,
			"0.02": 0.0,
			"0.021": 0.0,
			"0.022": 0.0,
			"0.023": 0.0,
			"0.024": 0.0,
			"0.025": 0.0
		}
	}
}
