{
	 "smiles": "CCNC(=O)COC1=CC=C(N)C=C1", 
	 "Tm": 369.15, 
	 "num_atms": 28, 
	 "gaussian": { 
		 "optdone": 1, 
		 "sigma_profile": "yes", 
		 "theory": "DFT", 
		 "functional": "B3LYP", 
		 "basiset": "6-31G**", 
		 "properties": { 
			 "R2extent": 4104.0723, 
			 "electric_dipole_moment_norm": 4.91418067433, 
			 "electric_quadrupole_moment_norm": 15.5675363928, 
			 "total_energy": -649.454564198, 
			 "HOMO_LUMO_gap": 0.1879, 
			 "cosmo_polarized_energy": -17.15, 
			 "cosmo_cavitation_energy": 31.78, 
			 "cosmo_dispersion_energy": -22.51, 
			 "cosmo_repulsion_energy": 1.8, 
			 "cosmo_total_nonelectrostatic_energy": 11.06, 
			 "SMD_solvation_energy": 5.93 
		},
		"coords": [
			{
				"x": -0.4104044646,
				"y": -1.1428268995,
				"z": -2.9708944487,
				"element": "C" 
			},
			{
				"x": -1.310984123,
				"y": -1.8528567191,
				"z": -1.9570854606,
				"element": "C" 
			},
			{
				"x": -2.4987983427,
				"y": -1.0793452695,
				"z": -1.6098119122,
				"element": "N" 
			},
			{
				"x": -2.792309276,
				"y": -0.3741699993,
				"z": -0.479094043,
				"element": "C" 
			},
			{
				"x": -3.8599929186,
				"y": 0.212258932,
				"z": -0.3431426211,
				"element": "O" 
			},
			{
				"x": -1.7792468995,
				"y": -0.3796627715,
				"z": 0.6688262004,
				"element": "C" 
			},
			{
				"x": -0.4911591186,
				"y": -0.0098332032,
				"z": 0.1989177761,
				"element": "O" 
			},
			{
				"x": 0.5264921157,
				"y": 0.0816248726,
				"z": 1.1244505217,
				"element": "C" 
			},
			{
				"x": 1.7778485897,
				"y": 0.4619588009,
				"z": 0.6242563154,
				"element": "C" 
			},
			{
				"x": 2.8712980757,
				"y": 0.5783784198,
				"z": 1.4723508842,
				"element": "C" 
			},
			{
				"x": 2.7504249232,
				"y": 0.3177208828,
				"z": 2.8496026752,
				"element": "C" 
			},
			{
				"x": 3.8423684193,
				"y": 0.496821452,
				"z": 3.7123421412,
				"element": "N" 
			},
			{
				"x": 1.4938370259,
				"y": -0.0606097909,
				"z": 3.3380969516,
				"element": "C" 
			},
			{
				"x": 0.3890731266,
				"y": -0.1779749628,
				"z": 2.4899284039,
				"element": "C" 
			},
			{
				"x": -0.9526814879,
				"y": -0.9264183512,
				"z": -3.89777197,
				"element": "H" 
			},
			{
				"x": 0.4508859038,
				"y": -1.770539244,
				"z": -3.2236709753,
				"element": "H" 
			},
			{
				"x": -0.0481238759,
				"y": -0.1998349326,
				"z": -2.5545626649,
				"element": "H" 
			},
			{
				"x": -1.6407360301,
				"y": -2.8200083655,
				"z": -2.3573819864,
				"element": "H" 
			},
			{
				"x": -0.7509512792,
				"y": -2.0586285743,
				"z": -1.0445784803,
				"element": "H" 
			},
			{
				"x": -3.223735311,
				"y": -0.9962272334,
				"z": -2.3119604288,
				"element": "H" 
			},
			{
				"x": -2.1557235629,
				"y": 0.3352192532,
				"z": 1.4071474394,
				"element": "H" 
			},
			{
				"x": -1.751793996,
				"y": -1.379049476,
				"z": 1.1326258423,
				"element": "H" 
			},
			{
				"x": 1.8766051916,
				"y": 0.6654756992,
				"z": -0.437271413,
				"element": "H" 
			},
			{
				"x": 3.8333270004,
				"y": 0.8816345077,
				"z": 1.0664293422,
				"element": "H" 
			},
			{
				"x": 3.7883114251,
				"y": -0.0377431089,
				"z": 4.5692890471,
				"element": "H" 
			},
			{
				"x": 4.7451501143,
				"y": 0.3806623957,
				"z": 3.2712547214,
				"element": "H" 
			},
			{
				"x": 1.3690334389,
				"y": -0.2612286611,
				"z": 4.3993997212,
				"element": "H" 
			},
			{
				"x": -0.5650146643,
				"y": -0.4707976531,
				"z": 2.912208421,
				"element": "H" 
			}
		],
		 "valence_orbital": [ 
			{
				"type": "occ",
				"energy": -0.27977,
				"method": "rhf"
			},
			{
				"type": "occ",
				"energy": -0.24977,
				"method": "rhf"
			},
			{
				"type": "occ",
				"energy": -0.24579,
				"method": "rhf"
			},
			{
				"type": "occ",
				"energy": -0.244,
				"method": "rhf"
			},
			{
				"type": "occ",
				"energy": -0.18964,
				"method": "rhf"
			},
			{
				"type": "unocc",
				"energy": -0.00174,
				"method": "rhf"
			},
			{
				"type": "unocc",
				"energy": 0.02104,
				"method": "rhf"
			},
			{
				"type": "unocc",
				"energy": 0.02849,
				"method": "rhf"
			},
			{
				"type": "unocc",
				"energy": 0.07986,
				"method": "rhf"
			},
			{
				"type": "unocc",
				"energy": 0.08431,
				"method": "rhf"
			}
		],
		"cosmo_sigma_profile": { 
			"-0.025": 0.0,
			"-0.024": 0.0,
			"-0.023": 0.0,
			"-0.022": 0.0,
			"-0.021": 0.0,
			"-0.02": 0.0,
			"-0.019": 0.0,
			"-0.018": 0.0,
			"-0.017": 0.0,
			"-0.016": 0.0,
			"-0.015": 0.0,
			"-0.014": 0.0471237075194,
			"-0.013": 0.958474775212,
			"-0.012": 2.64938536785,
			"-0.011": 4.35118500424,
			"-0.01": 3.54174275252,
			"-0.009": 3.89668953535,
			"-0.008": 4.26432271931,
			"-0.007": 7.67520913292,
			"-0.006": 14.0057809107,
			"-0.005": 16.5790186147,
			"-0.004": 17.9288409859,
			"-0.003": 19.1175825056,
			"-0.002": 17.8622777869,
			"-0.001": 15.0050924987,
			"0.0": 16.1216424613,
			"0.001": 14.6032350115,
			"0.002": 12.9250038385,
			"0.003": 11.8621653892,
			"0.004": 11.6200282335,
			"0.005": 11.1564300163,
			"0.006": 13.3598076754,
			"0.007": 6.67648664009,
			"0.008": 2.83866155477,
			"0.009": 1.65506204672,
			"0.01": 1.56054574864,
			"0.011": 2.23138829038,
			"0.012": 2.94107157041,
			"0.013": 4.12767241342,
			"0.014": 6.10712391472,
			"0.015": 2.27819997577,
			"0.016": 0.0890871788897,
			"0.017": 0.0,
			"0.018": 0.0,
			"0.019": 0.0,
			"0.02": 0.0,
			"0.021": 0.0,
			"0.022": 0.0,
			"0.023": 0.0,
			"0.024": 0.0,
			"0.025": 0.0
		}
	}
}
