{
	 "smiles": "NC1=CC=CC=C1N1CCCCC1", 
	 "Tm": 319.15, 
	 "num_atms": 29, 
	 "gaussian": { 
		 "optdone": 1, 
		 "sigma_profile": "yes", 
		 "theory": "DFT", 
		 "functional": "B3LYP", 
		 "basiset": "6-31G**", 
		 "properties": { 
			 "R2extent": 3492.3651, 
			 "electric_dipole_moment_norm": 1.62550035681, 
			 "electric_quadrupole_moment_norm": 6.27972190387, 
			 "total_energy": -538.313718606, 
			 "HOMO_LUMO_gap": 0.19664, 
			 "cosmo_polarized_energy": -7.18, 
			 "cosmo_cavitation_energy": 29.19, 
			 "cosmo_dispersion_energy": -21.65, 
			 "cosmo_repulsion_energy": 1.71, 
			 "cosmo_total_nonelectrostatic_energy": 9.25, 
			 "SMD_solvation_energy": 3.61 
		},
		"coords": [
			{
				"x": -1.7313919594,
				"y": 1.043367954,
				"z": 1.3144721329,
				"element": "N" 
			},
			{
				"x": -2.0895132065,
				"y": -0.303565785,
				"z": 1.1717381881,
				"element": "C" 
			},
			{
				"x": -2.6822150831,
				"y": -1.0196468912,
				"z": 2.218277517,
				"element": "C" 
			},
			{
				"x": -3.0458665058,
				"y": -2.3569915209,
				"z": 2.0565756759,
				"element": "C" 
			},
			{
				"x": -2.825946552,
				"y": -2.9942942677,
				"z": 0.8374774543,
				"element": "C" 
			},
			{
				"x": -2.2136874659,
				"y": -2.2952269901,
				"z": -0.2067839246,
				"element": "C" 
			},
			{
				"x": -1.8224115424,
				"y": -0.9595490304,
				"z": -0.0597531886,
				"element": "C" 
			},
			{
				"x": -1.214813057,
				"y": -0.1951331492,
				"z": -1.0953087215,
				"element": "N" 
			},
			{
				"x": -1.5081988816,
				"y": -0.5923370406,
				"z": -2.4760841673,
				"element": "C" 
			},
			{
				"x": -0.7946540006,
				"y": 0.3490552586,
				"z": -3.4488532998,
				"element": "C" 
			},
			{
				"x": 0.7426463449,
				"y": 0.2010751829,
				"z": -3.3322872083,
				"element": "C" 
			},
			{
				"x": 1.1432504601,
				"y": -0.3087829241,
				"z": -1.9312129626,
				"element": "C" 
			},
			{
				"x": 0.1933356371,
				"y": 0.2298567867,
				"z": -0.8563971374,
				"element": "C" 
			},
			{
				"x": -1.7714092362,
				"y": 1.5341150794,
				"z": 0.4271057541,
				"element": "H" 
			},
			{
				"x": -2.2514583056,
				"y": 1.5276259542,
				"z": 2.0350524469,
				"element": "H" 
			},
			{
				"x": -2.8789818734,
				"y": -0.5104157199,
				"z": 3.1592939615,
				"element": "H" 
			},
			{
				"x": -3.5148729082,
				"y": -2.889129264,
				"z": 2.8793093319,
				"element": "H" 
			},
			{
				"x": -3.1165401069,
				"y": -4.0309740581,
				"z": 0.6959038585,
				"element": "H" 
			},
			{
				"x": -2.0349504411,
				"y": -2.8023134343,
				"z": -1.1490244637,
				"element": "H" 
			},
			{
				"x": -2.5941156466,
				"y": -0.5558005879,
				"z": -2.6171284884,
				"element": "H" 
			},
			{
				"x": -1.1955353578,
				"y": -1.6274323893,
				"z": -2.7033341664,
				"element": "H" 
			},
			{
				"x": -1.1289518186,
				"y": 0.144157084,
				"z": -4.4713375979,
				"element": "H" 
			},
			{
				"x": -1.0977090675,
				"y": 1.3768510944,
				"z": -3.2168269208,
				"element": "H" 
			},
			{
				"x": 1.1166904106,
				"y": -0.4921559395,
				"z": -4.0943700846,
				"element": "H" 
			},
			{
				"x": 1.2207831324,
				"y": 1.1669330529,
				"z": -3.5319430019,
				"element": "H" 
			},
			{
				"x": 2.1712535738,
				"y": -0.0148346885,
				"z": -1.6909693252,
				"element": "H" 
			},
			{
				"x": 1.1204716612,
				"y": -1.4048941877,
				"z": -1.9059669942,
				"element": "H" 
			},
			{
				"x": 0.4989857203,
				"y": -0.1162087195,
				"z": 0.1333565415,
				"element": "H" 
			},
			{
				"x": 0.2600060758,
				"y": 1.3277491413,
				"z": -0.8386812094,
				"element": "H" 
			}
		],
		 "valence_orbital": [ 
			{
				"type": "occ",
				"energy": -0.31365,
				"method": "rhf"
			},
			{
				"type": "occ",
				"energy": -0.29427,
				"method": "rhf"
			},
			{
				"type": "occ",
				"energy": -0.25013,
				"method": "rhf"
			},
			{
				"type": "occ",
				"energy": -0.20801,
				"method": "rhf"
			},
			{
				"type": "occ",
				"energy": -0.17903,
				"method": "rhf"
			},
			{
				"type": "unocc",
				"energy": 0.01761,
				"method": "rhf"
			},
			{
				"type": "unocc",
				"energy": 0.0283,
				"method": "rhf"
			},
			{
				"type": "unocc",
				"energy": 0.0779,
				"method": "rhf"
			},
			{
				"type": "unocc",
				"energy": 0.09318,
				"method": "rhf"
			},
			{
				"type": "unocc",
				"energy": 0.10459,
				"method": "rhf"
			}
		],
		"cosmo_sigma_profile": { 
			"-0.025": 0.0,
			"-0.024": 0.0,
			"-0.023": 0.0,
			"-0.022": 0.0,
			"-0.021": 0.0,
			"-0.02": 0.0,
			"-0.019": 0.0,
			"-0.018": 0.0,
			"-0.017": 0.0,
			"-0.016": 0.0,
			"-0.015": 0.0,
			"-0.014": 0.0,
			"-0.013": 0.0,
			"-0.012": 0.475081645761,
			"-0.011": 1.37247232438,
			"-0.01": 1.46813549558,
			"-0.009": 2.50107976678,
			"-0.008": 2.49990776448,
			"-0.007": 2.3112488913,
			"-0.006": 2.16285745875,
			"-0.005": 5.99608202183,
			"-0.004": 10.49091893,
			"-0.003": 21.1068200433,
			"-0.002": 33.9191703969,
			"-0.001": 38.379111943,
			"0.0": 25.2883206106,
			"0.001": 19.1824929552,
			"0.002": 8.37260403839,
			"0.003": 7.5286900826,
			"0.004": 7.15100785977,
			"0.005": 8.55299399607,
			"0.006": 9.71946968774,
			"0.007": 7.4939013078,
			"0.008": 7.08668908655,
			"0.009": 1.38875194134,
			"0.01": 0.37128842147,
			"0.011": 0.441663796432,
			"0.012": 1.06729985195,
			"0.013": 0.495267678858,
			"0.014": 0.571860534946,
			"0.015": 0.188621806338,
			"0.016": 0.0,
			"0.017": 0.0,
			"0.018": 0.0,
			"0.019": 0.0,
			"0.02": 0.0,
			"0.021": 0.0,
			"0.022": 0.0,
			"0.023": 0.0,
			"0.024": 0.0,
			"0.025": 0.0
		}
	}
}
