{
	 "smiles": "FC1=CC=C(NS(=O)(=O)C(F)(F)F)C(=C1)C(F)(F)F", 
	 "Tm": 318.15, 
	 "num_atms": 23, 
	 "gaussian": { 
		 "optdone": 1, 
		 "sigma_profile": "yes", 
		 "theory": "DFT", 
		 "functional": "B3LYP", 
		 "basiset": "6-31G**", 
		 "properties": { 
			 "R2extent": 5760.7638, 
			 "electric_dipole_moment_norm": 3.53917116568, 
			 "electric_quadrupole_moment_norm": 9.92861066011, 
			 "total_energy": -1609.43972572, 
			 "HOMO_LUMO_gap": 0.20772, 
			 "cosmo_polarized_energy": -9.42, 
			 "cosmo_cavitation_energy": 32.57, 
			 "cosmo_dispersion_energy": -22.37, 
			 "cosmo_repulsion_energy": 1.51, 
			 "cosmo_total_nonelectrostatic_energy": 11.72, 
			 "SMD_solvation_energy": 7.45 
		},
		"coords": [
			{
				"x": -2.40150576,
				"y": -0.5644943177,
				"z": 3.3412513779,
				"element": "F" 
			},
			{
				"x": -1.6539239172,
				"y": -0.1767040004,
				"z": 2.2935063222,
				"element": "C" 
			},
			{
				"x": -0.3398966646,
				"y": -0.6175579942,
				"z": 2.1952161661,
				"element": "C" 
			},
			{
				"x": 0.4326999227,
				"y": -0.1929155642,
				"z": 1.1178028406,
				"element": "C" 
			},
			{
				"x": -0.1101168496,
				"y": 0.638457507,
				"z": 0.1348205126,
				"element": "C" 
			},
			{
				"x": 0.7138261988,
				"y": 1.0833390303,
				"z": -0.9435208593,
				"element": "N" 
			},
			{
				"x": 1.212178979,
				"y": 0.0303163156,
				"z": -2.1655191226,
				"element": "S" 
			},
			{
				"x": 0.693165022,
				"y": -1.3075689404,
				"z": -1.9210770308,
				"element": "O" 
			},
			{
				"x": 1.0851644381,
				"y": 0.7379060656,
				"z": -3.4335788308,
				"element": "O" 
			},
			{
				"x": 3.0454468436,
				"y": -0.0493739937,
				"z": -1.8192756679,
				"element": "C" 
			},
			{
				"x": 3.6160225928,
				"y": -0.8264902669,
				"z": -2.7367166693,
				"element": "F" 
			},
			{
				"x": 3.2639278661,
				"y": -0.5686115447,
				"z": -0.6043958591,
				"element": "F" 
			},
			{
				"x": 3.5697159691,
				"y": 1.1737360266,
				"z": -1.8756941235,
				"element": "F" 
			},
			{
				"x": -1.4498762005,
				"y": 1.0561801135,
				"z": 0.2462476159,
				"element": "C" 
			},
			{
				"x": -2.2198923359,
				"y": 0.6585813845,
				"z": 1.3390847835,
				"element": "C" 
			},
			{
				"x": -2.0740962298,
				"y": 1.9089009095,
				"z": -0.8285686922,
				"element": "C" 
			},
			{
				"x": -1.3516756815,
				"y": 3.0491350966,
				"z": -1.0364152742,
				"element": "F" 
			},
			{
				"x": -3.3255952063,
				"y": 2.2864829788,
				"z": -0.5226911675,
				"element": "F" 
			},
			{
				"x": -2.1146485645,
				"y": 1.2636842416,
				"z": -2.0124029872,
				"element": "F" 
			},
			{
				"x": 0.0687159821,
				"y": -1.2667730979,
				"z": 2.9613623946,
				"element": "H" 
			},
			{
				"x": 1.4671943644,
				"y": -0.5015553655,
				"z": 1.0322088659,
				"element": "H" 
			},
			{
				"x": 0.4560548054,
				"y": 1.9761967109,
				"z": -1.3548124082,
				"element": "H" 
			},
			{
				"x": -3.2481855743,
				"y": 0.980828705,
				"z": 1.4429678134,
				"element": "H" 
			}
		],
		 "valence_orbital": [ 
			{
				"type": "occ",
				"energy": -0.33863,
				"method": "rhf"
			},
			{
				"type": "occ",
				"energy": -0.33514,
				"method": "rhf"
			},
			{
				"type": "occ",
				"energy": -0.33379,
				"method": "rhf"
			},
			{
				"type": "occ",
				"energy": -0.29601,
				"method": "rhf"
			},
			{
				"type": "occ",
				"energy": -0.26248,
				"method": "rhf"
			},
			{
				"type": "unocc",
				"energy": -0.05476,
				"method": "rhf"
			},
			{
				"type": "unocc",
				"energy": -0.03905,
				"method": "rhf"
			},
			{
				"type": "unocc",
				"energy": 0.03449,
				"method": "rhf"
			},
			{
				"type": "unocc",
				"energy": 0.03996,
				"method": "rhf"
			},
			{
				"type": "unocc",
				"energy": 0.04871,
				"method": "rhf"
			}
		],
		"cosmo_sigma_profile": { 
			"-0.025": 0.0,
			"-0.024": 0.0,
			"-0.023": 0.0,
			"-0.022": 0.0,
			"-0.021": 0.0,
			"-0.02": 0.0,
			"-0.019": 0.0,
			"-0.018": 0.0,
			"-0.017": 0.0,
			"-0.016": 0.0,
			"-0.015": 0.00107254605583,
			"-0.014": 0.352476935176,
			"-0.013": 0.878819877323,
			"-0.012": 0.2934119349,
			"-0.011": 0.724134849249,
			"-0.01": 1.15544975793,
			"-0.009": 2.7965308445,
			"-0.008": 4.88756255639,
			"-0.007": 6.22087685221,
			"-0.006": 7.02378204334,
			"-0.005": 7.44212000028,
			"-0.004": 10.4077448727,
			"-0.003": 13.3794059669,
			"-0.002": 18.5829730869,
			"-0.001": 32.2411717832,
			"0.0": 41.9106126541,
			"0.001": 37.143513235,
			"0.002": 27.2337490128,
			"0.003": 13.6651740052,
			"0.004": 9.22768544549,
			"0.005": 3.98066302518,
			"0.006": 2.42895711978,
			"0.007": 4.34910327376,
			"0.008": 10.7823030972,
			"0.009": 6.00977035724,
			"0.01": 0.0910239362533,
			"0.011": 0.0,
			"0.012": 0.0,
			"0.013": 0.0,
			"0.014": 0.0,
			"0.015": 0.0,
			"0.016": 0.0,
			"0.017": 0.0,
			"0.018": 0.0,
			"0.019": 0.0,
			"0.02": 0.0,
			"0.021": 0.0,
			"0.022": 0.0,
			"0.023": 0.0,
			"0.024": 0.0,
			"0.025": 0.0
		}
	}
}
