{
	 "smiles": "COC1=CC=C2C(NC3=C(C)N=CC=C23)=C1", 
	 "Tm": 546.15, 
	 "num_atms": 28, 
	 "gaussian": { 
		 "optdone": 1, 
		 "sigma_profile": "yes", 
		 "theory": "DFT", 
		 "functional": "B3LYP", 
		 "basiset": "6-31G**", 
		 "properties": { 
			 "R2extent": 4470.1731, 
			 "electric_dipole_moment_norm": 3.48292701761, 
			 "electric_quadrupole_moment_norm": 15.889757225, 
			 "total_energy": -687.355544978, 
			 "HOMO_LUMO_gap": 0.17308, 
			 "cosmo_polarized_energy": -13.06, 
			 "cosmo_cavitation_energy": 31.58, 
			 "cosmo_dispersion_energy": -23.48, 
			 "cosmo_repulsion_energy": 1.79, 
			 "cosmo_total_nonelectrostatic_energy": 9.89, 
			 "SMD_solvation_energy": 4.13 
		},
		"coords": [
			{
				"x": 1.1812502607,
				"y": -1.8898991042,
				"z": -4.9411779788,
				"element": "C" 
			},
			{
				"x": 0.9324251761,
				"y": -0.7648399007,
				"z": -4.1136627597,
				"element": "O" 
			},
			{
				"x": 0.6053433659,
				"y": -0.9740525763,
				"z": -2.8043050022,
				"element": "C" 
			},
			{
				"x": 0.4988556415,
				"y": -2.2534082541,
				"z": -2.2161020466,
				"element": "C" 
			},
			{
				"x": 0.1599376055,
				"y": -2.3812858168,
				"z": -0.8716048239,
				"element": "C" 
			},
			{
				"x": -0.0760022485,
				"y": -1.2404927452,
				"z": -0.1001686053,
				"element": "C" 
			},
			{
				"x": 0.0375973574,
				"y": 0.0379986519,
				"z": -0.7161458357,
				"element": "C" 
			},
			{
				"x": -0.2376915571,
				"y": 1.0083670676,
				"z": 0.2321407278,
				"element": "N" 
			},
			{
				"x": -0.5269634599,
				"y": 0.3974832899,
				"z": 1.4468605852,
				"element": "C" 
			},
			{
				"x": -0.8621778662,
				"y": 0.9656593555,
				"z": 2.6832828424,
				"element": "C" 
			},
			{
				"x": -0.9620493363,
				"y": 2.4572970819,
				"z": 2.8742760862,
				"element": "C" 
			},
			{
				"x": -1.1035883938,
				"y": 0.1740834912,
				"z": 3.734556019,
				"element": "N" 
			},
			{
				"x": -1.0204613432,
				"y": -1.1629112685,
				"z": 3.5881618513,
				"element": "C" 
			},
			{
				"x": -0.6947466289,
				"y": -1.8082038578,
				"z": 2.3990974906,
				"element": "C" 
			},
			{
				"x": -0.4370155953,
				"y": -1.0055723476,
				"z": 1.2823718152,
				"element": "C" 
			},
			{
				"x": 0.3752890514,
				"y": 0.1869738406,
				"z": -2.0585695698,
				"element": "C" 
			},
			{
				"x": 1.4192313393,
				"y": -1.4894266127,
				"z": -5.9279277897,
				"element": "H" 
			},
			{
				"x": 0.3002463563,
				"y": -2.5396903183,
				"z": -5.0196968711,
				"element": "H" 
			},
			{
				"x": 2.0316554714,
				"y": -2.4813726013,
				"z": -4.5784918983,
				"element": "H" 
			},
			{
				"x": 0.6795271293,
				"y": -3.1439953416,
				"z": -2.8046859277,
				"element": "H" 
			},
			{
				"x": 0.0809920614,
				"y": -3.3706448807,
				"z": -0.4300212512,
				"element": "H" 
			},
			{
				"x": -0.2292354793,
				"y": 2.0009691931,
				"z": 0.0664224694,
				"element": "H" 
			},
			{
				"x": -0.0098989097,
				"y": 2.9579397552,
				"z": 2.6554387916,
				"element": "H" 
			},
			{
				"x": -1.7228610034,
				"y": 2.8992669266,
				"z": 2.2178038007,
				"element": "H" 
			},
			{
				"x": -1.2337676376,
				"y": 2.6686121805,
				"z": 3.9095133146,
				"element": "H" 
			},
			{
				"x": -1.2290454266,
				"y": -1.7456282685,
				"z": 4.4830473566,
				"element": "H" 
			},
			{
				"x": -0.6456258729,
				"y": -2.891735861,
				"z": 2.3517970115,
				"element": "H" 
			},
			{
				"x": 0.4649799423,
				"y": 1.1550089214,
				"z": -2.5396098023,
				"element": "H" 
			}
		],
		 "valence_orbital": [ 
			{
				"type": "occ",
				"energy": -0.276,
				"method": "rhf"
			},
			{
				"type": "occ",
				"energy": -0.25158,
				"method": "rhf"
			},
			{
				"type": "occ",
				"energy": -0.24181,
				"method": "rhf"
			},
			{
				"type": "occ",
				"energy": -0.20941,
				"method": "rhf"
			},
			{
				"type": "occ",
				"energy": -0.20354,
				"method": "rhf"
			},
			{
				"type": "unocc",
				"energy": -0.03046,
				"method": "rhf"
			},
			{
				"type": "unocc",
				"energy": 0.00291,
				"method": "rhf"
			},
			{
				"type": "unocc",
				"energy": 0.02691,
				"method": "rhf"
			},
			{
				"type": "unocc",
				"energy": 0.04638,
				"method": "rhf"
			},
			{
				"type": "unocc",
				"energy": 0.07434,
				"method": "rhf"
			}
		],
		"cosmo_sigma_profile": { 
			"-0.025": 0.0,
			"-0.024": 0.0,
			"-0.023": 0.0,
			"-0.022": 0.0,
			"-0.021": 0.0,
			"-0.02": 0.0,
			"-0.019": 0.0,
			"-0.018": 0.0,
			"-0.017": 0.0,
			"-0.016": 0.142992752677,
			"-0.015": 0.820540122352,
			"-0.014": 1.3301343904,
			"-0.013": 1.1791032385,
			"-0.012": 1.00020856562,
			"-0.011": 0.934920367226,
			"-0.01": 1.73579846364,
			"-0.009": 1.86487980673,
			"-0.008": 1.40750251963,
			"-0.007": 3.23769602916,
			"-0.006": 12.3302779302,
			"-0.005": 22.4597155886,
			"-0.004": 21.998574932,
			"-0.003": 20.6118456433,
			"-0.002": 15.3854680062,
			"-0.001": 14.5948692581,
			"0.0": 16.251832391,
			"0.001": 11.7120053963,
			"0.002": 14.9207049231,
			"0.003": 22.4942716964,
			"0.004": 23.3432438509,
			"0.005": 17.6506404238,
			"0.006": 6.45715830451,
			"0.007": 3.30090370155,
			"0.008": 2.42012003235,
			"0.009": 3.03245646503,
			"0.01": 3.37175055561,
			"0.011": 1.40847402201,
			"0.012": 0.428527835854,
			"0.013": 1.42677878311,
			"0.014": 0.525022595294,
			"0.015": 0.77941716585,
			"0.016": 1.03238894922,
			"0.017": 0.528051526458,
			"0.018": 0.0192499623217,
			"0.019": 0.0,
			"0.02": 0.0,
			"0.021": 0.0,
			"0.022": 0.0,
			"0.023": 0.0,
			"0.024": 0.0,
			"0.025": 0.0
		}
	}
}
