{
	 "smiles": "COC1=CC(Br)=C(CO)C=C1OC", 
	 "Tm": 370.65, 
	 "num_atms": 24, 
	 "gaussian": { 
		 "optdone": 1, 
		 "sigma_profile": "yes", 
		 "theory": "DFT", 
		 "functional": "B3LYP", 
		 "basiset": "6-31G**", 
		 "properties": { 
			 "R2extent": 5389.7943, 
			 "electric_dipole_moment_norm": 2.27794627022, 
			 "electric_quadrupole_moment_norm": 8.06161429678, 
			 "total_energy": -3146.61855654, 
			 "HOMO_LUMO_gap": 0.21656, 
			 "cosmo_polarized_energy": -9.37, 
			 "cosmo_cavitation_energy": 29.61, 
			 "cosmo_dispersion_energy": -21.72, 
			 "cosmo_repulsion_energy": 1.75, 
			 "cosmo_total_nonelectrostatic_energy": 9.64, 
			 "SMD_solvation_energy": 5.49 
		},
		"coords": [
			{
				"x": 1.7091355583,
				"y": 2.9819767177,
				"z": -1.9784583961,
				"element": "C" 
			},
			{
				"x": 0.2793708551,
				"y": 3.0658495231,
				"z": -1.9063293931,
				"element": "O" 
			},
			{
				"x": -0.3449041789,
				"y": 1.925442754,
				"z": -1.4588787376,
				"element": "C" 
			},
			{
				"x": -1.1480177389,
				"y": 1.2094926085,
				"z": -2.347280014,
				"element": "C" 
			},
			{
				"x": -1.8114977005,
				"y": 0.0633393253,
				"z": -1.916500937,
				"element": "C" 
			},
			{
				"x": -2.9149188976,
				"y": -0.8645291162,
				"z": -3.1853068496,
				"element": "Br" 
			},
			{
				"x": -1.6907219704,
				"y": -0.4132473365,
				"z": -0.6068144855,
				"element": "C" 
			},
			{
				"x": -2.401346566,
				"y": -1.665244696,
				"z": -0.1184173354,
				"element": "C" 
			},
			{
				"x": -1.9496421117,
				"y": -2.1178667596,
				"z": 1.1464839023,
				"element": "O" 
			},
			{
				"x": -0.8980179644,
				"y": 0.3304604405,
				"z": 0.2742142755,
				"element": "C" 
			},
			{
				"x": -0.2319527222,
				"y": 1.4873667783,
				"z": -0.1265104108,
				"element": "C" 
			},
			{
				"x": 0.5544955274,
				"y": 2.1524232706,
				"z": 0.7860235343,
				"element": "O" 
			},
			{
				"x": 0.0615832152,
				"y": 3.4401187694,
				"z": 1.179871075,
				"element": "C" 
			},
			{
				"x": 2.0531494986,
				"y": 3.9545330212,
				"z": -2.3356326357,
				"element": "H" 
			},
			{
				"x": 2.0150894672,
				"y": 2.2055492537,
				"z": -2.6905676942,
				"element": "H" 
			},
			{
				"x": 2.1455762009,
				"y": 2.7706753124,
				"z": -0.9976294061,
				"element": "H" 
			},
			{
				"x": -1.2396078385,
				"y": 1.5595829482,
				"z": -3.3686202851,
				"element": "H" 
			},
			{
				"x": -2.3226696775,
				"y": -2.4517849062,
				"z": -0.8820159264,
				"element": "H" 
			},
			{
				"x": -3.4710902195,
				"y": -1.4586844473,
				"z": 0.0025968108,
				"element": "H" 
			},
			{
				"x": -1.0409718658,
				"y": -2.4293471379,
				"z": 1.0398833653,
				"element": "H" 
			},
			{
				"x": -0.805848811,
				"y": 0.0047647747,
				"z": 1.3045670026,
				"element": "H" 
			},
			{
				"x": -0.0259486548,
				"y": 4.1132660699,
				"z": 0.3215275065,
				"element": "H" 
			},
			{
				"x": 0.7872647193,
				"y": 3.8396280813,
				"z": 1.8909954056,
				"element": "H" 
			},
			{
				"x": -0.9142081243,
				"y": 3.3461347508,
				"z": 1.6720996285,
				"element": "H" 
			}
		],
		 "valence_orbital": [ 
			{
				"type": "occ",
				"energy": -0.29241,
				"method": "rhf"
			},
			{
				"type": "occ",
				"energy": -0.27838,
				"method": "rhf"
			},
			{
				"type": "occ",
				"energy": -0.27002,
				"method": "rhf"
			},
			{
				"type": "occ",
				"energy": -0.24773,
				"method": "rhf"
			},
			{
				"type": "occ",
				"energy": -0.22819,
				"method": "rhf"
			},
			{
				"type": "unocc",
				"energy": -0.01163,
				"method": "rhf"
			},
			{
				"type": "unocc",
				"energy": -0.00865,
				"method": "rhf"
			},
			{
				"type": "unocc",
				"energy": 0.00686,
				"method": "rhf"
			},
			{
				"type": "unocc",
				"energy": 0.07602,
				"method": "rhf"
			},
			{
				"type": "unocc",
				"energy": 0.08606,
				"method": "rhf"
			}
		],
		"cosmo_sigma_profile": { 
			"-0.025": 0.0,
			"-0.024": 0.0,
			"-0.023": 0.0,
			"-0.022": 0.0,
			"-0.021": 0.0,
			"-0.02": 0.0,
			"-0.019": 0.0,
			"-0.018": 0.0,
			"-0.017": 0.0,
			"-0.016": 0.522049000285,
			"-0.015": 1.24364881765,
			"-0.014": 0.707533468571,
			"-0.013": 1.17383799183,
			"-0.012": 0.629882746492,
			"-0.011": 1.00362516317,
			"-0.01": 0.788376652725,
			"-0.009": 1.01743676482,
			"-0.008": 0.906483908625,
			"-0.007": 2.48740854003,
			"-0.006": 5.87845055283,
			"-0.005": 13.3762999098,
			"-0.004": 19.5371485319,
			"-0.003": 26.8563643946,
			"-0.002": 22.9131802997,
			"-0.001": 19.0879859242,
			"0.0": 16.4476408257,
			"0.001": 14.1007230028,
			"0.002": 22.3614302222,
			"0.003": 21.4170671891,
			"0.004": 13.3656224548,
			"0.005": 7.69425694074,
			"0.006": 3.67533874407,
			"0.007": 3.92872446361,
			"0.008": 2.4539115741,
			"0.009": 2.31183190393,
			"0.01": 3.3776381851,
			"0.011": 3.50265480821,
			"0.012": 1.71184680456,
			"0.013": 1.96572768454,
			"0.014": 1.01631707636,
			"0.015": 0.0,
			"0.016": 0.0,
			"0.017": 0.0,
			"0.018": 0.0,
			"0.019": 0.0,
			"0.02": 0.0,
			"0.021": 0.0,
			"0.022": 0.0,
			"0.023": 0.0,
			"0.024": 0.0,
			"0.025": 0.0
		}
	}
}
