{
	 "smiles": "CN1N=C(C=C1C(Cl)=O)C1=CC=CC=C1", 
	 "Tm": 361.65, 
	 "num_atms": 24, 
	 "gaussian": { 
		 "optdone": 1, 
		 "sigma_profile": "yes", 
		 "theory": "DFT", 
		 "functional": "B3LYP", 
		 "basiset": "6-31G**", 
		 "properties": { 
			 "R2extent": 5649.8845, 
			 "electric_dipole_moment_norm": 2.4655922027, 
			 "electric_quadrupole_moment_norm": 14.0417362128, 
			 "total_energy": -1069.50311242, 
			 "HOMO_LUMO_gap": 0.15357, 
			 "cosmo_polarized_energy": -8.53, 
			 "cosmo_cavitation_energy": 30.6, 
			 "cosmo_dispersion_energy": -22.48, 
			 "cosmo_repulsion_energy": 1.73, 
			 "cosmo_total_nonelectrostatic_energy": 9.85, 
			 "SMD_solvation_energy": 4.98 
		},
		"coords": [
			{
				"x": -2.7959084077,
				"y": 2.0932576742,
				"z": 2.8749423545,
				"element": "C" 
			},
			{
				"x": -2.0661514892,
				"y": 1.1362541127,
				"z": 2.0471094089,
				"element": "N" 
			},
			{
				"x": -1.0233736926,
				"y": 1.6033548449,
				"z": 1.3544270087,
				"element": "N" 
			},
			{
				"x": -0.5043696238,
				"y": 0.5647937406,
				"z": 0.6700556228,
				"element": "C" 
			},
			{
				"x": -1.2432939902,
				"y": -0.599424862,
				"z": 0.9381549962,
				"element": "C" 
			},
			{
				"x": -2.2441217696,
				"y": -0.2117319218,
				"z": 1.8264188171,
				"element": "C" 
			},
			{
				"x": -3.2336369096,
				"y": -1.1475175064,
				"z": 2.3516256273,
				"element": "C" 
			},
			{
				"x": -4.4775068906,
				"y": -0.4720011598,
				"z": 3.5090353139,
				"element": "Cl" 
			},
			{
				"x": -3.2787286126,
				"y": -2.3100289133,
				"z": 2.0750610816,
				"element": "O" 
			},
			{
				"x": 0.6688055012,
				"y": 0.7484715892,
				"z": -0.2005573464,
				"element": "C" 
			},
			{
				"x": 1.2659964041,
				"y": 2.0132035733,
				"z": -0.3313144035,
				"element": "C" 
			},
			{
				"x": 2.3756138871,
				"y": 2.1890143196,
				"z": -1.1543023533,
				"element": "C" 
			},
			{
				"x": 2.9091233826,
				"y": 1.1082670942,
				"z": -1.8608760499,
				"element": "C" 
			},
			{
				"x": 2.3221848948,
				"y": -0.1522411701,
				"z": -1.7370036105,
				"element": "C" 
			},
			{
				"x": 1.2114962941,
				"y": -0.3313341189,
				"z": -0.9140433786,
				"element": "C" 
			},
			{
				"x": -2.7643722077,
				"y": 1.8018975121,
				"z": 3.9258316113,
				"element": "H" 
			},
			{
				"x": -2.2922140095,
				"y": 3.0483462828,
				"z": 2.7358972268,
				"element": "H" 
			},
			{
				"x": -3.8368268175,
				"y": 2.1682804306,
				"z": 2.5568720265,
				"element": "H" 
			},
			{
				"x": -1.1064151016,
				"y": -1.6013050531,
				"z": 0.56302283,
				"element": "H" 
			},
			{
				"x": 0.8497489105,
				"y": 2.8504328745,
				"z": 0.2183178996,
				"element": "H" 
			},
			{
				"x": 2.8258939204,
				"y": 3.1734758842,
				"z": -1.244686048,
				"element": "H" 
			},
			{
				"x": 3.7745172404,
				"y": 1.2473488279,
				"z": -2.502210063,
				"element": "H" 
			},
			{
				"x": 2.728888962,
				"y": -0.9993408757,
				"z": -2.2818006608,
				"element": "H" 
			},
			{
				"x": 0.766150125,
				"y": -1.3179731796,
				"z": -0.8280779109,
				"element": "H" 
			}
		],
		 "valence_orbital": [ 
			{
				"type": "occ",
				"energy": -0.29918,
				"method": "rhf"
			},
			{
				"type": "occ",
				"energy": -0.29488,
				"method": "rhf"
			},
			{
				"type": "occ",
				"energy": -0.27638,
				"method": "rhf"
			},
			{
				"type": "occ",
				"energy": -0.25427,
				"method": "rhf"
			},
			{
				"type": "occ",
				"energy": -0.23025,
				"method": "rhf"
			},
			{
				"type": "unocc",
				"energy": -0.07668,
				"method": "rhf"
			},
			{
				"type": "unocc",
				"energy": -0.03037,
				"method": "rhf"
			},
			{
				"type": "unocc",
				"energy": -0.00387,
				"method": "rhf"
			},
			{
				"type": "unocc",
				"energy": 0.00979,
				"method": "rhf"
			},
			{
				"type": "unocc",
				"energy": 0.05359,
				"method": "rhf"
			}
		],
		"cosmo_sigma_profile": { 
			"-0.025": 0.0,
			"-0.024": 0.0,
			"-0.023": 0.0,
			"-0.022": 0.0,
			"-0.021": 0.0,
			"-0.02": 0.0,
			"-0.019": 0.0,
			"-0.018": 0.0,
			"-0.017": 0.0,
			"-0.016": 0.0,
			"-0.015": 0.0,
			"-0.014": 0.0,
			"-0.013": 0.0,
			"-0.012": 0.0,
			"-0.011": 0.0,
			"-0.01": 0.0559243791426,
			"-0.009": 1.49634637616,
			"-0.008": 2.1149426784,
			"-0.007": 5.74709758671,
			"-0.006": 14.246040821,
			"-0.005": 18.4990859495,
			"-0.004": 22.1421424888,
			"-0.003": 18.8551202138,
			"-0.002": 14.7898396336,
			"-0.001": 17.9204793448,
			"0.0": 16.3701660217,
			"0.001": 18.4863007485,
			"0.002": 19.5958030465,
			"0.003": 20.3552068514,
			"0.004": 19.1171639563,
			"0.005": 16.3161158747,
			"0.006": 6.82391941319,
			"0.007": 4.29163659878,
			"0.008": 5.17140390229,
			"0.009": 4.99059091086,
			"0.01": 0.797697242822,
			"0.011": 0.0,
			"0.012": 0.0,
			"0.013": 0.0,
			"0.014": 0.0,
			"0.015": 0.0,
			"0.016": 0.0,
			"0.017": 0.0,
			"0.018": 0.0,
			"0.019": 0.0,
			"0.02": 0.0,
			"0.021": 0.0,
			"0.022": 0.0,
			"0.023": 0.0,
			"0.024": 0.0,
			"0.025": 0.0
		}
	}
}
