{
	 "smiles": "CC1=CC=C(CCCCC(O)=O)C=C1", 
	 "Tm": 349.15, 
	 "num_atms": 30, 
	 "gaussian": { 
		 "optdone": 1, 
		 "sigma_profile": "yes", 
		 "theory": "DFT", 
		 "functional": "B3LYP", 
		 "basiset": "6-31G**", 
		 "properties": { 
			 "R2extent": 4188.8494, 
			 "electric_dipole_moment_norm": 1.33190426082, 
			 "electric_quadrupole_moment_norm": 10.7471933718, 
			 "total_energy": -617.404929629, 
			 "HOMO_LUMO_gap": 0.2311, 
			 "cosmo_polarized_energy": -10.67, 
			 "cosmo_cavitation_energy": 33.3, 
			 "cosmo_dispersion_energy": -23.07, 
			 "cosmo_repulsion_energy": 1.86, 
			 "cosmo_total_nonelectrostatic_energy": 12.09, 
			 "SMD_solvation_energy": 6.37 
		},
		"coords": [
			{
				"x": -0.0290283793,
				"y": -4.3742486537,
				"z": 2.4140186966,
				"element": "C" 
			},
			{
				"x": 0.0645582364,
				"y": -2.8929034362,
				"z": 2.1319185608,
				"element": "C" 
			},
			{
				"x": -0.8645028626,
				"y": -1.9952160618,
				"z": 2.6787410197,
				"element": "C" 
			},
			{
				"x": -0.7685779664,
				"y": -0.6263209949,
				"z": 2.4420468719,
				"element": "C" 
			},
			{
				"x": 0.2585824311,
				"y": -0.0967453553,
				"z": 1.6458326836,
				"element": "C" 
			},
			{
				"x": 0.3421162632,
				"y": 1.392442481,
				"z": 1.3786735072,
				"element": "C" 
			},
			{
				"x": -0.7519853153,
				"y": 1.9251605579,
				"z": 0.424287841,
				"element": "C" 
			},
			{
				"x": -0.7254592059,
				"y": 1.3528959148,
				"z": -1.0004558777,
				"element": "C" 
			},
			{
				"x": 0.515554583,
				"y": 1.7513559039,
				"z": -1.803261717,
				"element": "C" 
			},
			{
				"x": 0.4517917017,
				"y": 1.3086487237,
				"z": -3.2489735652,
				"element": "C" 
			},
			{
				"x": 1.6274848315,
				"y": 1.5347191665,
				"z": -3.8894228622,
				"element": "O" 
			},
			{
				"x": -0.5060898751,
				"y": 0.8216590937,
				"z": -3.8080551149,
				"element": "O" 
			},
			{
				"x": 1.1853330572,
				"y": -0.9930742888,
				"z": 1.1021568803,
				"element": "C" 
			},
			{
				"x": 1.0894288614,
				"y": -2.3661995802,
				"z": 1.3392129575,
				"element": "C" 
			},
			{
				"x": -1.0636156702,
				"y": -4.7286283795,
				"z": 2.3570960951,
				"element": "H" 
			},
			{
				"x": 0.5654399309,
				"y": -4.9549528314,
				"z": 1.7028071755,
				"element": "H" 
			},
			{
				"x": 0.3378880642,
				"y": -4.6129032673,
				"z": 3.4202221962,
				"element": "H" 
			},
			{
				"x": -1.6719330052,
				"y": -2.3753142067,
				"z": 3.3007147945,
				"element": "H" 
			},
			{
				"x": -1.5019957488,
				"y": 0.044186334,
				"z": 2.8848762353,
				"element": "H" 
			},
			{
				"x": 1.3345551631,
				"y": 1.6353361867,
				"z": 0.9810044674,
				"element": "H" 
			},
			{
				"x": 0.2559498498,
				"y": 1.9363411627,
				"z": 2.3280140209,
				"element": "H" 
			},
			{
				"x": -0.6712700021,
				"y": 3.0201092418,
				"z": 0.3794014922,
				"element": "H" 
			},
			{
				"x": -1.7330318051,
				"y": 1.7098763211,
				"z": 0.8652251525,
				"element": "H" 
			},
			{
				"x": -0.7967794475,
				"y": 0.2602671416,
				"z": -0.9648283319,
				"element": "H" 
			},
			{
				"x": -1.6126338066,
				"y": 1.69449115,
				"z": -1.5436619909,
				"element": "H" 
			},
			{
				"x": 0.6501591536,
				"y": 2.842208949,
				"z": -1.8055011316,
				"element": "H" 
			},
			{
				"x": 1.4377568266,
				"y": 1.3453112375,
				"z": -1.372805273,
				"element": "H" 
			},
			{
				"x": 1.4931998492,
				"y": 1.2392693286,
				"z": -4.8056246677,
				"element": "H" 
			},
			{
				"x": 1.9986262583,
				"y": -0.6143029968,
				"z": 0.4870619558,
				"element": "H" 
			},
			{
				"x": 1.8246780286,
				"y": -3.036968842,
				"z": 0.9008779281,
				"element": "H" 
			}
		],
		 "valence_orbital": [ 
			{
				"type": "occ",
				"energy": -0.31981,
				"method": "rhf"
			},
			{
				"type": "occ",
				"energy": -0.31471,
				"method": "rhf"
			},
			{
				"type": "occ",
				"energy": -0.27211,
				"method": "rhf"
			},
			{
				"type": "occ",
				"energy": -0.2448,
				"method": "rhf"
			},
			{
				"type": "occ",
				"energy": -0.2293,
				"method": "rhf"
			},
			{
				"type": "unocc",
				"energy": 0.0018,
				"method": "rhf"
			},
			{
				"type": "unocc",
				"energy": 0.00423,
				"method": "rhf"
			},
			{
				"type": "unocc",
				"energy": 0.01336,
				"method": "rhf"
			},
			{
				"type": "unocc",
				"energy": 0.07649,
				"method": "rhf"
			},
			{
				"type": "unocc",
				"energy": 0.08514,
				"method": "rhf"
			}
		],
		"cosmo_sigma_profile": { 
			"-0.025": 0.0,
			"-0.024": 0.0,
			"-0.023": 0.0,
			"-0.022": 0.0,
			"-0.021": 0.0,
			"-0.02": 0.0,
			"-0.019": 0.0,
			"-0.018": 0.411988945175,
			"-0.017": 0.828515552954,
			"-0.016": 0.944472423735,
			"-0.015": 1.0656293311,
			"-0.014": 0.296201490397,
			"-0.013": 0.549944531947,
			"-0.012": 0.676929346416,
			"-0.011": 1.09246732765,
			"-0.01": 0.880646313571,
			"-0.009": 0.454044155458,
			"-0.008": 0.373123932647,
			"-0.007": 0.745249341477,
			"-0.006": 3.0304216164,
			"-0.005": 12.7361218251,
			"-0.004": 22.2372363227,
			"-0.003": 31.2382880899,
			"-0.002": 31.9992892146,
			"-0.001": 28.261028413,
			"0.0": 27.1078785829,
			"0.001": 19.2241255897,
			"0.002": 11.6579821979,
			"0.003": 9.94994629722,
			"0.004": 9.79407608041,
			"0.005": 9.46683138811,
			"0.006": 10.165038787,
			"0.007": 7.27995054411,
			"0.008": 2.91920413824,
			"0.009": 2.77017169804,
			"0.01": 3.62129280813,
			"0.011": 2.79551523661,
			"0.012": 5.15992637762,
			"0.013": 0.963540655774,
			"0.014": 0.0,
			"0.015": 0.0,
			"0.016": 0.0,
			"0.017": 0.0,
			"0.018": 0.0,
			"0.019": 0.0,
			"0.02": 0.0,
			"0.021": 0.0,
			"0.022": 0.0,
			"0.023": 0.0,
			"0.024": 0.0,
			"0.025": 0.0
		}
	}
}
