{
	 "smiles": "OC1=CC=C(C=C1)C(C1=CC=C(O)C=C1)(C(F)(F)F)C(F)(F)F", 
	 "Tm": 434.15, 
	 "num_atms": 33, 
	 "gaussian": { 
		 "optdone": 1, 
		 "sigma_profile": "yes", 
		 "theory": "DFT", 
		 "functional": "B3LYP", 
		 "basiset": "6-31G**", 
		 "properties": { 
			 "R2extent": 6737.4235, 
			 "electric_dipole_moment_norm": 4.27182168752, 
			 "electric_quadrupole_moment_norm": 10.2659001364, 
			 "total_energy": -1327.11081383, 
			 "HOMO_LUMO_gap": 0.20764, 
			 "cosmo_polarized_energy": -14.78, 
			 "cosmo_cavitation_energy": 37.77, 
			 "cosmo_dispersion_energy": -26.16, 
			 "cosmo_repulsion_energy": 1.88, 
			 "cosmo_total_nonelectrostatic_energy": 13.5, 
			 "SMD_solvation_energy": 9.03 
		},
		"coords": [
			{
				"x": 3.3197903138,
				"y": 2.8272481751,
				"z": 3.8279403681,
				"element": "O" 
			},
			{
				"x": 2.4426695192,
				"y": 2.3360578349,
				"z": 2.9067273805,
				"element": "C" 
			},
			{
				"x": 1.4529456496,
				"y": 1.3999477415,
				"z": 3.2223795171,
				"element": "C" 
			},
			{
				"x": 0.5956306035,
				"y": 0.9326896465,
				"z": 2.2300911782,
				"element": "C" 
			},
			{
				"x": 0.6969534377,
				"y": 1.3803105545,
				"z": 0.9052022024,
				"element": "C" 
			},
			{
				"x": 1.6838744843,
				"y": 2.3338358918,
				"z": 0.6111483655,
				"element": "C" 
			},
			{
				"x": 2.5532513633,
				"y": 2.7993589054,
				"z": 1.5927967691,
				"element": "C" 
			},
			{
				"x": -0.3298379102,
				"y": 0.8657650463,
				"z": -0.1278411319,
				"element": "C" 
			},
			{
				"x": -0.5596257913,
				"y": -0.6555884324,
				"z": 0.0099538917,
				"element": "C" 
			},
			{
				"x": 0.5563385632,
				"y": -1.4890195177,
				"z": 0.1712300608,
				"element": "C" 
			},
			{
				"x": 0.4249732186,
				"y": -2.8728957938,
				"z": 0.2455610143,
				"element": "C" 
			},
			{
				"x": -0.8412367862,
				"y": -3.4601514065,
				"z": 0.1598492511,
				"element": "C" 
			},
			{
				"x": -1.0407518924,
				"y": -4.8069426777,
				"z": 0.2346489742,
				"element": "O" 
			},
			{
				"x": -1.9641503629,
				"y": -2.6453974162,
				"z": -0.0089803888,
				"element": "C" 
			},
			{
				"x": -1.8201799182,
				"y": -1.2639373846,
				"z": -0.0931227574,
				"element": "C" 
			},
			{
				"x": -1.6330528847,
				"y": 1.6856965284,
				"z": 0.1028312865,
				"element": "C" 
			},
			{
				"x": -2.5541779656,
				"y": 1.4970838663,
				"z": -0.8703614255,
				"element": "F" 
			},
			{
				"x": -2.2134883358,
				"y": 1.3432537084,
				"z": 1.2717171203,
				"element": "F" 
			},
			{
				"x": -1.3832365241,
				"y": 3.0047108061,
				"z": 0.1504323905,
				"element": "F" 
			},
			{
				"x": 0.1321606031,
				"y": 1.1087745006,
				"z": -1.5947053777,
				"element": "C" 
			},
			{
				"x": -0.6836775767,
				"y": 0.504842127,
				"z": -2.4745509834,
				"element": "F" 
			},
			{
				"x": 0.1640603406,
				"y": 2.4200369665,
				"z": -1.9275643887,
				"element": "F" 
			},
			{
				"x": 1.3731758858,
				"y": 0.6178208218,
				"z": -1.7932441919,
				"element": "F" 
			},
			{
				"x": 3.1259497732,
				"y": 2.4391277318,
				"z": 4.6911411417,
				"element": "H" 
			},
			{
				"x": 1.3510598105,
				"y": 1.0333891906,
				"z": 4.2416574176,
				"element": "H" 
			},
			{
				"x": -0.1626842218,
				"y": 0.2048563185,
				"z": 2.4945298907,
				"element": "H" 
			},
			{
				"x": 1.7895943951,
				"y": 2.728988052,
				"z": -0.3901568041,
				"element": "H" 
			},
			{
				"x": 3.3198208997,
				"y": 3.5293129261,
				"z": 1.3555683123,
				"element": "H" 
			},
			{
				"x": 1.54608941,
				"y": -1.053212293,
				"z": 0.2429835636,
				"element": "H" 
			},
			{
				"x": 1.3092209587,
				"y": -3.4940019099,
				"z": 0.3720748116,
				"element": "H" 
			},
			{
				"x": -0.1883524871,
				"y": -5.2502409292,
				"z": 0.3357967653,
				"element": "H" 
			},
			{
				"x": -2.9430065492,
				"y": -3.1075082289,
				"z": -0.0799133399,
				"element": "H" 
			},
			{
				"x": -2.7109000236,
				"y": -0.6684113501,
				"z": -0.241120884,
				"element": "H" 
			}
		],
		 "valence_orbital": [ 
			{
				"type": "occ",
				"energy": -0.33175,
				"method": "rhf"
			},
			{
				"type": "occ",
				"energy": -0.26266,
				"method": "rhf"
			},
			{
				"type": "occ",
				"energy": -0.25782,
				"method": "rhf"
			},
			{
				"type": "occ",
				"energy": -0.23466,
				"method": "rhf"
			},
			{
				"type": "occ",
				"energy": -0.22482,
				"method": "rhf"
			},
			{
				"type": "unocc",
				"energy": -0.01718,
				"method": "rhf"
			},
			{
				"type": "unocc",
				"energy": -0.00438,
				"method": "rhf"
			},
			{
				"type": "unocc",
				"energy": -0.00329,
				"method": "rhf"
			},
			{
				"type": "unocc",
				"energy": -0.00205,
				"method": "rhf"
			},
			{
				"type": "unocc",
				"energy": 0.06337,
				"method": "rhf"
			}
		],
		"cosmo_sigma_profile": { 
			"-0.025": 0.0,
			"-0.024": 0.0,
			"-0.023": 0.0,
			"-0.022": 0.0,
			"-0.021": 0.0,
			"-0.02": 0.0,
			"-0.019": 0.00426947451265,
			"-0.018": 1.29886990381,
			"-0.017": 2.22676153116,
			"-0.016": 2.71823679047,
			"-0.015": 2.03773794183,
			"-0.014": 2.04095973498,
			"-0.013": 1.32266925366,
			"-0.012": 1.83425789602,
			"-0.011": 2.3742591248,
			"-0.01": 2.42347453174,
			"-0.009": 2.32759087822,
			"-0.008": 1.6440784029,
			"-0.007": 4.07436911867,
			"-0.006": 11.5975693178,
			"-0.005": 14.3658605251,
			"-0.004": 11.3516020714,
			"-0.003": 11.132527661,
			"-0.002": 12.393534913,
			"-0.001": 14.7737209851,
			"0.0": 17.0341067104,
			"0.001": 28.3472331244,
			"0.002": 64.0625362982,
			"0.003": 40.8611929155,
			"0.004": 24.6926175838,
			"0.005": 6.83462882892,
			"0.006": 2.11187410202,
			"0.007": 3.09591443157,
			"0.008": 2.76897050401,
			"0.009": 2.90475666907,
			"0.01": 3.47477105066,
			"0.011": 3.49321664881,
			"0.012": 0.33748055047,
			"0.013": 0.0,
			"0.014": 0.0,
			"0.015": 0.0,
			"0.016": 0.0,
			"0.017": 0.0,
			"0.018": 0.0,
			"0.019": 0.0,
			"0.02": 0.0,
			"0.021": 0.0,
			"0.022": 0.0,
			"0.023": 0.0,
			"0.024": 0.0,
			"0.025": 0.0
		}
	}
}
