{
	 "smiles": "CNS(=O)(=O)C1=CNC(=O)NC1=O", 
	 "Tm": 553.15, 
	 "num_atms": 20, 
	 "gaussian": { 
		 "optdone": 1, 
		 "sigma_profile": "yes", 
		 "theory": "DFT", 
		 "functional": "B3LYP", 
		 "basiset": "6-31G**", 
		 "properties": { 
			 "R2extent": 3648.0272, 
			 "electric_dipole_moment_norm": 4.62738768745, 
			 "electric_quadrupole_moment_norm": 14.6748926262, 
			 "total_energy": -1058.04763472, 
			 "HOMO_LUMO_gap": 0.19785, 
			 "cosmo_polarized_energy": -26.03, 
			 "cosmo_cavitation_energy": 26.12, 
			 "cosmo_dispersion_energy": -19.69, 
			 "cosmo_repulsion_energy": 1.52, 
			 "cosmo_total_nonelectrostatic_energy": 7.95, 
			 "SMD_solvation_energy": 5.1 
		},
		"coords": [
			{
				"x": -0.8440534137,
				"y": 3.3719962439,
				"z": -1.6882011733,
				"element": "C" 
			},
			{
				"x": -1.2519658402,
				"y": 3.2399887003,
				"z": -0.2857491952,
				"element": "N" 
			},
			{
				"x": -0.6090488998,
				"y": 1.9901992794,
				"z": 0.6087924241,
				"element": "S" 
			},
			{
				"x": -1.1178795021,
				"y": 2.1388135949,
				"z": 1.9675765885,
				"element": "O" 
			},
			{
				"x": 0.8262989165,
				"y": 1.9146957897,
				"z": 0.3213628926,
				"element": "O" 
			},
			{
				"x": -1.3174753717,
				"y": 0.4912408054,
				"z": -0.0719586612,
				"element": "C" 
			},
			{
				"x": -0.5201965196,
				"y": -0.5726912799,
				"z": -0.333483567,
				"element": "C" 
			},
			{
				"x": -1.0361063784,
				"y": -1.7610441083,
				"z": -0.7636923899,
				"element": "N" 
			},
			{
				"x": -2.4032371282,
				"y": -1.9918560501,
				"z": -0.959724455,
				"element": "C" 
			},
			{
				"x": -2.8416159986,
				"y": -3.0604747077,
				"z": -1.3310604803,
				"element": "O" 
			},
			{
				"x": -3.1818329306,
				"y": -0.87387289,
				"z": -0.6949237535,
				"element": "N" 
			},
			{
				"x": -2.7625827226,
				"y": 0.399198818,
				"z": -0.276184002,
				"element": "C" 
			},
			{
				"x": -3.5679990301,
				"y": 1.3093390009,
				"z": -0.1408540477,
				"element": "O" 
			},
			{
				"x": -1.2132462773,
				"y": 2.5620192615,
				"z": -2.3324903743,
				"element": "H" 
			},
			{
				"x": 0.2449698098,
				"y": 3.4009129879,
				"z": -1.735268493,
				"element": "H" 
			},
			{
				"x": -1.2344183958,
				"y": 4.321765821,
				"z": -2.0604674694,
				"element": "H" 
			},
			{
				"x": -2.260612952,
				"y": 3.2465502173,
				"z": -0.1363437666,
				"element": "H" 
			},
			{
				"x": 0.5558120165,
				"y": -0.5145591759,
				"z": -0.2084005016,
				"element": "H" 
			},
			{
				"x": -0.4388452447,
				"y": -2.5547003787,
				"z": -0.9519649187,
				"element": "H" 
			},
			{
				"x": -4.1778641375,
				"y": -0.9906219297,
				"z": -0.8436646567,
				"element": "H" 
			}
		],
		 "valence_orbital": [ 
			{
				"type": "occ",
				"energy": -0.31277,
				"method": "rhf"
			},
			{
				"type": "occ",
				"energy": -0.30794,
				"method": "rhf"
			},
			{
				"type": "occ",
				"energy": -0.29872,
				"method": "rhf"
			},
			{
				"type": "occ",
				"energy": -0.28581,
				"method": "rhf"
			},
			{
				"type": "occ",
				"energy": -0.26987,
				"method": "rhf"
			},
			{
				"type": "unocc",
				"energy": -0.07202,
				"method": "rhf"
			},
			{
				"type": "unocc",
				"energy": -0.02234,
				"method": "rhf"
			},
			{
				"type": "unocc",
				"energy": 0.03067,
				"method": "rhf"
			},
			{
				"type": "unocc",
				"energy": 0.06333,
				"method": "rhf"
			},
			{
				"type": "unocc",
				"energy": 0.07045,
				"method": "rhf"
			}
		],
		"cosmo_sigma_profile": { 
			"-0.025": 0.0,
			"-0.024": 0.0,
			"-0.023": 0.0,
			"-0.022": 0.0,
			"-0.021": 0.0,
			"-0.02": 0.0,
			"-0.019": 0.20335867973,
			"-0.018": 1.67880274476,
			"-0.017": 2.28377613496,
			"-0.016": 2.28162142199,
			"-0.015": 1.71836652274,
			"-0.014": 2.47332159907,
			"-0.013": 2.98901691398,
			"-0.012": 1.90695343628,
			"-0.011": 3.75369565717,
			"-0.01": 2.86477693455,
			"-0.009": 2.51476338138,
			"-0.008": 4.75771911686,
			"-0.007": 6.89081774085,
			"-0.006": 9.58537502277,
			"-0.005": 14.436386212,
			"-0.004": 17.8194679478,
			"-0.003": 18.0987199202,
			"-0.002": 11.6831501273,
			"-0.001": 5.63363807518,
			"0.0": 4.58029024107,
			"0.001": 4.78015224304,
			"0.002": 4.54709077322,
			"0.003": 4.83889549014,
			"0.004": 4.97214568995,
			"0.005": 6.17643177522,
			"0.006": 5.79810946051,
			"0.007": 6.48359081386,
			"0.008": 7.45496553765,
			"0.009": 7.51148381193,
			"0.01": 13.5665570555,
			"0.011": 16.6773016609,
			"0.012": 7.16308464919,
			"0.013": 0.0822665651954,
			"0.014": 0.0,
			"0.015": 0.0,
			"0.016": 0.0,
			"0.017": 0.0,
			"0.018": 0.0,
			"0.019": 0.0,
			"0.02": 0.0,
			"0.021": 0.0,
			"0.022": 0.0,
			"0.023": 0.0,
			"0.024": 0.0,
			"0.025": 0.0
		}
	}
}
