{
	 "smiles": "CN1C=C(C=C1C(O)=O)C(C)=O", 
	 "Tm": 452.15, 
	 "num_atms": 21, 
	 "gaussian": { 
		 "optdone": 1, 
		 "sigma_profile": "yes", 
		 "theory": "DFT", 
		 "functional": "B3LYP", 
		 "basiset": "6-31G**", 
		 "properties": { 
			 "R2extent": 2695.4527, 
			 "electric_dipole_moment_norm": 6.51586136593, 
			 "electric_quadrupole_moment_norm": 10.2586896663, 
			 "total_energy": -590.71024198, 
			 "HOMO_LUMO_gap": 0.20333, 
			 "cosmo_polarized_energy": -18.0, 
			 "cosmo_cavitation_energy": 25.93, 
			 "cosmo_dispersion_energy": -18.61, 
			 "cosmo_repulsion_energy": 1.48, 
			 "cosmo_total_nonelectrostatic_energy": 8.81, 
			 "SMD_solvation_energy": 6.75 
		},
		"coords": [
			{
				"x": 2.223466954,
				"y": -1.1702322844,
				"z": 1.2623279702,
				"element": "C" 
			},
			{
				"x": 0.8931402714,
				"y": -0.6546003089,
				"z": 0.9515537746,
				"element": "N" 
			},
			{
				"x": 0.6709188789,
				"y": 0.5373657625,
				"z": 0.3406620953,
				"element": "C" 
			},
			{
				"x": -0.701687157,
				"y": 0.7355273812,
				"z": 0.1886236549,
				"element": "C" 
			},
			{
				"x": -1.3324735098,
				"y": -0.4053614043,
				"z": 0.7414453619,
				"element": "C" 
			},
			{
				"x": -0.3448220031,
				"y": -1.2542476034,
				"z": 1.2078454393,
				"element": "C" 
			},
			{
				"x": -0.5805320221,
				"y": -2.5452446707,
				"z": 1.8515434066,
				"element": "C" 
			},
			{
				"x": 0.5573663428,
				"y": -3.1990963913,
				"z": 2.225246564,
				"element": "O" 
			},
			{
				"x": -1.683063889,
				"y": -3.0168640407,
				"z": 2.0482867002,
				"element": "O" 
			},
			{
				"x": -1.3961327408,
				"y": 1.886439444,
				"z": -0.4194572291,
				"element": "C" 
			},
			{
				"x": -0.5453780884,
				"y": 3.0252101908,
				"z": -0.962692034,
				"element": "C" 
			},
			{
				"x": -2.6167068565,
				"y": 1.922215391,
				"z": -0.4838412282,
				"element": "O" 
			},
			{
				"x": 2.9577247576,
				"y": -0.4391344667,
				"z": 0.9210166255,
				"element": "H" 
			},
			{
				"x": 2.396554686,
				"y": -2.122199405,
				"z": 0.7576515373,
				"element": "H" 
			},
			{
				"x": 2.3366643286,
				"y": -1.324976869,
				"z": 2.3366281448,
				"element": "H" 
			},
			{
				"x": 1.5023271721,
				"y": 1.1659064601,
				"z": 0.0543343238,
				"element": "H" 
			},
			{
				"x": -2.3947135283,
				"y": -0.5894333163,
				"z": 0.7943973561,
				"element": "H" 
			},
			{
				"x": 0.2514757713,
				"y": -4.0268327227,
				"z": 2.6321246369,
				"element": "H" 
			},
			{
				"x": 0.0721360793,
				"y": 3.4624488963,
				"z": -0.1696840303,
				"element": "H" 
			},
			{
				"x": 0.1320724656,
				"y": 2.6658079884,
				"z": -1.7457963208,
				"element": "H" 
			},
			{
				"x": -1.2002379123,
				"y": 3.7931019691,
				"z": -1.3757167489,
				"element": "H" 
			}
		],
		 "valence_orbital": [ 
			{
				"type": "occ",
				"energy": -0.32137,
				"method": "rhf"
			},
			{
				"type": "occ",
				"energy": -0.28041,
				"method": "rhf"
			},
			{
				"type": "occ",
				"energy": -0.25672,
				"method": "rhf"
			},
			{
				"type": "occ",
				"energy": -0.24104,
				"method": "rhf"
			},
			{
				"type": "occ",
				"energy": -0.23899,
				"method": "rhf"
			},
			{
				"type": "unocc",
				"energy": -0.03566,
				"method": "rhf"
			},
			{
				"type": "unocc",
				"energy": -0.03183,
				"method": "rhf"
			},
			{
				"type": "unocc",
				"energy": 0.06886,
				"method": "rhf"
			},
			{
				"type": "unocc",
				"energy": 0.08614,
				"method": "rhf"
			},
			{
				"type": "unocc",
				"energy": 0.08917,
				"method": "rhf"
			}
		],
		"cosmo_sigma_profile": { 
			"-0.025": 0.0,
			"-0.024": 0.0,
			"-0.023": 0.0,
			"-0.022": 0.0,
			"-0.021": 0.0,
			"-0.02": 0.0,
			"-0.019": 0.0473054105376,
			"-0.018": 0.62577148832,
			"-0.017": 0.784526895505,
			"-0.016": 0.827456975119,
			"-0.015": 1.00850634709,
			"-0.014": 0.787575137605,
			"-0.013": 0.503425489232,
			"-0.012": 0.185337107993,
			"-0.011": 1.00613132111,
			"-0.01": 2.81873621159,
			"-0.009": 2.7208065359,
			"-0.008": 3.15212165665,
			"-0.007": 5.03756393219,
			"-0.006": 12.0229426749,
			"-0.005": 15.0733947801,
			"-0.004": 15.7476154712,
			"-0.003": 17.6418260096,
			"-0.002": 15.8046857491,
			"-0.001": 13.8398543647,
			"0.0": 11.9474853652,
			"0.001": 9.86937819106,
			"0.002": 11.4852422515,
			"0.003": 12.9599529376,
			"0.004": 7.98886171603,
			"0.005": 5.09942845543,
			"0.006": 3.71040587368,
			"0.007": 2.70712231567,
			"0.008": 3.23252485024,
			"0.009": 2.88641985464,
			"0.01": 3.83993050192,
			"0.011": 5.69451313413,
			"0.012": 9.17256779554,
			"0.013": 4.57015265997,
			"0.014": 1.01963646494,
			"0.015": 0.017185144024,
			"0.016": 0.0,
			"0.017": 0.0,
			"0.018": 0.0,
			"0.019": 0.0,
			"0.02": 0.0,
			"0.021": 0.0,
			"0.022": 0.0,
			"0.023": 0.0,
			"0.024": 0.0,
			"0.025": 0.0
		}
	}
}
