{
	 "smiles": "CCCCCCCCCCC1CCCCC1", 
	 "Tm": 271.3, 
	 "num_atms": 48, 
	 "gaussian": { 
		 "optdone": 1, 
		 "sigma_profile": "yes", 
		 "theory": "DFT", 
		 "functional": "B3LYP", 
		 "basiset": "6-31G**", 
		 "properties": { 
			 "R2extent": 7015.533, 
			 "electric_dipole_moment_norm": 0.0301590782353, 
			 "electric_quadrupole_moment_norm": 0.661035921868, 
			 "total_energy": -629.043547156, 
			 "HOMO_LUMO_gap": 0.35804, 
			 "cosmo_polarized_energy": -0.95, 
			 "cosmo_cavitation_energy": 44.95, 
			 "cosmo_dispersion_energy": -30.25, 
			 "cosmo_repulsion_energy": 2.45, 
			 "cosmo_total_nonelectrostatic_energy": 17.15, 
			 "SMD_solvation_energy": 5.45 
		},
		"coords": [
			{
				"x": 3.2090784841,
				"y": 3.4828395284,
				"z": -0.6765318991,
				"element": "C" 
			},
			{
				"x": 1.9092335186,
				"y": 3.7343261199,
				"z": 0.0950816885,
				"element": "C" 
			},
			{
				"x": 0.6826931019,
				"y": 3.848715678,
				"z": -0.8208076794,
				"element": "C" 
			},
			{
				"x": -0.6322069482,
				"y": 4.1889078091,
				"z": -0.0969187758,
				"element": "C" 
			},
			{
				"x": -1.1331079215,
				"y": 3.1488909566,
				"z": 0.9212588385,
				"element": "C" 
			},
			{
				"x": -1.4906537564,
				"y": 1.7820979002,
				"z": 0.3201849563,
				"element": "C" 
			},
			{
				"x": -2.0628313041,
				"y": 0.8046881523,
				"z": 1.3567770974,
				"element": "C" 
			},
			{
				"x": -2.5289181773,
				"y": -0.5445088647,
				"z": 0.7809059088,
				"element": "C" 
			},
			{
				"x": -1.4424334616,
				"y": -1.4155142593,
				"z": 0.1221927399,
				"element": "C" 
			},
			{
				"x": -0.339757775,
				"y": -1.8734554174,
				"z": 1.0906301136,
				"element": "C" 
			},
			{
				"x": 0.7232747695,
				"y": -2.8370249617,
				"z": 0.5190746596,
				"element": "C" 
			},
			{
				"x": 1.5484423438,
				"y": -2.2234041658,
				"z": -0.6294681292,
				"element": "C" 
			},
			{
				"x": 2.656017353,
				"y": -3.1754748214,
				"z": -1.1089194885,
				"element": "C" 
			},
			{
				"x": 2.0847852658,
				"y": -4.5417393252,
				"z": -1.5177201849,
				"element": "C" 
			},
			{
				"x": 1.2512492606,
				"y": -5.1609159958,
				"z": -0.3855227118,
				"element": "C" 
			},
			{
				"x": 0.1482983117,
				"y": -4.20188487,
				"z": 0.0911572875,
				"element": "C" 
			},
			{
				"x": 3.4129683099,
				"y": 4.2942869031,
				"z": -1.3846904362,
				"element": "H" 
			},
			{
				"x": 4.0685040494,
				"y": 3.4062117833,
				"z": -0.0022433541,
				"element": "H" 
			},
			{
				"x": 3.1543095308,
				"y": 2.5512291924,
				"z": -1.2516410602,
				"element": "H" 
			},
			{
				"x": 1.7597189874,
				"y": 2.9250292592,
				"z": 0.8210578153,
				"element": "H" 
			},
			{
				"x": 2.0055085303,
				"y": 4.6564668093,
				"z": 0.6850796443,
				"element": "H" 
			},
			{
				"x": 0.8757933467,
				"y": 4.6293934993,
				"z": -1.5695020421,
				"element": "H" 
			},
			{
				"x": 0.56820046,
				"y": 2.9158215539,
				"z": -1.3892840591,
				"element": "H" 
			},
			{
				"x": -1.416234782,
				"y": 4.3478935449,
				"z": -0.8500579175,
				"element": "H" 
			},
			{
				"x": -0.5092746129,
				"y": 5.1518420764,
				"z": 0.4178420934,
				"element": "H" 
			},
			{
				"x": -2.0223826638,
				"y": 3.5571384067,
				"z": 1.4207900149,
				"element": "H" 
			},
			{
				"x": -0.3857203412,
				"y": 3.0113248489,
				"z": 1.7142825347,
				"element": "H" 
			},
			{
				"x": -0.6021670397,
				"y": 1.3422857699,
				"z": -0.149542513,
				"element": "H" 
			},
			{
				"x": -2.2232446994,
				"y": 1.922809846,
				"z": -0.4884494124,
				"element": "H" 
			},
			{
				"x": -2.919917771,
				"y": 1.2798300355,
				"z": 1.853490305,
				"element": "H" 
			},
			{
				"x": -1.3183356794,
				"y": 0.6384685234,
				"z": 2.1468900049,
				"element": "H" 
			},
			{
				"x": -3.0022075873,
				"y": -1.1236298982,
				"z": 1.585888664,
				"element": "H" 
			},
			{
				"x": -3.3190976049,
				"y": -0.3543276746,
				"z": 0.041504388,
				"element": "H" 
			},
			{
				"x": -0.9985806455,
				"y": -0.87277644,
				"z": -0.7212180897,
				"element": "H" 
			},
			{
				"x": -1.9350363762,
				"y": -2.2937745186,
				"z": -0.3130214085,
				"element": "H" 
			},
			{
				"x": 0.1818116087,
				"y": -0.9922829394,
				"z": 1.4874479013,
				"element": "H" 
			},
			{
				"x": -0.814395796,
				"y": -2.3571517615,
				"z": 1.9569216962,
				"element": "H" 
			},
			{
				"x": 1.4277083638,
				"y": -3.0365322624,
				"z": 1.3428431982,
				"element": "H" 
			},
			{
				"x": 1.9837761474,
				"y": -1.268263579,
				"z": -0.3072300994,
				"element": "H" 
			},
			{
				"x": 0.8866841916,
				"y": -1.9937585079,
				"z": -1.4761125083,
				"element": "H" 
			},
			{
				"x": 3.3856939468,
				"y": -3.3174300579,
				"z": -0.2987927028,
				"element": "H" 
			},
			{
				"x": 3.204955958,
				"y": -2.7267683952,
				"z": -1.9458588943,
				"element": "H" 
			},
			{
				"x": 1.4485270952,
				"y": -4.4150784814,
				"z": -2.4055726223,
				"element": "H" 
			},
			{
				"x": 2.8946477074,
				"y": -5.221228029,
				"z": -1.8100258003,
				"element": "H" 
			},
			{
				"x": 0.8112704394,
				"y": -6.110858166,
				"z": -0.7128784817,
				"element": "H" 
			},
			{
				"x": 1.9123489527,
				"y": -5.3994706838,
				"z": 0.4600339256,
				"element": "H" 
			},
			{
				"x": -0.408274162,
				"y": -4.6497877993,
				"z": 0.9247814926,
				"element": "H" 
			},
			{
				"x": -0.574220929,
				"y": -4.0594563214,
				"z": -0.7243066981,
				"element": "H" 
			}
		],
		 "valence_orbital": [ 
			{
				"type": "occ",
				"energy": -0.30369,
				"method": "rhf"
			},
			{
				"type": "occ",
				"energy": -0.29728,
				"method": "rhf"
			},
			{
				"type": "occ",
				"energy": -0.29474,
				"method": "rhf"
			},
			{
				"type": "occ",
				"energy": -0.28646,
				"method": "rhf"
			},
			{
				"type": "occ",
				"energy": -0.28611,
				"method": "rhf"
			},
			{
				"type": "unocc",
				"energy": 0.07193,
				"method": "rhf"
			},
			{
				"type": "unocc",
				"energy": 0.09136,
				"method": "rhf"
			},
			{
				"type": "unocc",
				"energy": 0.09944,
				"method": "rhf"
			},
			{
				"type": "unocc",
				"energy": 0.10164,
				"method": "rhf"
			},
			{
				"type": "unocc",
				"energy": 0.10655,
				"method": "rhf"
			}
		],
		"cosmo_sigma_profile": { 
			"-0.025": 0.0,
			"-0.024": 0.0,
			"-0.023": 0.0,
			"-0.022": 0.0,
			"-0.021": 0.0,
			"-0.02": 0.0,
			"-0.019": 0.0,
			"-0.018": 0.0,
			"-0.017": 0.0,
			"-0.016": 0.0,
			"-0.015": 0.0,
			"-0.014": 0.0,
			"-0.013": 0.0,
			"-0.012": 0.0,
			"-0.011": 0.0,
			"-0.01": 0.0,
			"-0.009": 0.0,
			"-0.008": 0.0,
			"-0.007": 0.0,
			"-0.006": 0.0,
			"-0.005": 0.0,
			"-0.004": 0.0,
			"-0.003": 1.41637378941,
			"-0.002": 34.4919892321,
			"-0.001": 85.6730537556,
			"0.0": 99.1505352387,
			"0.001": 83.8643859112,
			"0.002": 36.7805106333,
			"0.003": 0.87077504369,
			"0.004": 0.0,
			"0.005": 0.0,
			"0.006": 0.0,
			"0.007": 0.0,
			"0.008": 0.0,
			"0.009": 0.0,
			"0.01": 0.0,
			"0.011": 0.0,
			"0.012": 0.0,
			"0.013": 0.0,
			"0.014": 0.0,
			"0.015": 0.0,
			"0.016": 0.0,
			"0.017": 0.0,
			"0.018": 0.0,
			"0.019": 0.0,
			"0.02": 0.0,
			"0.021": 0.0,
			"0.022": 0.0,
			"0.023": 0.0,
			"0.024": 0.0,
			"0.025": 0.0
		}
	}
}
