{
	 "smiles": "N#CC1CSCCN1", 
	 "Tm": 355.15, 
	 "num_atms": 16, 
	 "gaussian": { 
		 "optdone": 1, 
		 "sigma_profile": "yes", 
		 "theory": "DFT", 
		 "functional": "B3LYP", 
		 "basiset": "6-31G**", 
		 "properties": { 
			 "R2extent": 1639.0658, 
			 "electric_dipole_moment_norm": 3.66318335468, 
			 "electric_quadrupole_moment_norm": 17.7060695768, 
			 "total_energy": -703.014161009, 
			 "HOMO_LUMO_gap": 0.23826, 
			 "cosmo_polarized_energy": -12.34, 
			 "cosmo_cavitation_energy": 20.69, 
			 "cosmo_dispersion_energy": -15.6, 
			 "cosmo_repulsion_energy": 1.25, 
			 "cosmo_total_nonelectrostatic_energy": 6.33, 
			 "SMD_solvation_energy": 2.03 
		},
		"coords": [
			{
				"x": 0.22623603,
				"y": -0.0987029718,
				"z": 2.9158287732,
				"element": "N" 
			},
			{
				"x": 0.5124025439,
				"y": 0.3084708425,
				"z": 1.8674932169,
				"element": "C" 
			},
			{
				"x": 0.8237126585,
				"y": 0.8023544946,
				"z": 0.5128886763,
				"element": "C" 
			},
			{
				"x": -0.2000891429,
				"y": 0.22612022,
				"z": -0.4955293721,
				"element": "C" 
			},
			{
				"x": 0.2008851398,
				"y": 0.7361509107,
				"z": -2.2084455941,
				"element": "S" 
			},
			{
				"x": 0.3268512744,
				"y": 2.5432074686,
				"z": -1.9048314875,
				"element": "C" 
			},
			{
				"x": 1.2751064277,
				"y": 2.8648054354,
				"z": -0.7424097086,
				"element": "C" 
			},
			{
				"x": 0.9133218763,
				"y": 2.2645014906,
				"z": 0.5437248745,
				"element": "N" 
			},
			{
				"x": 1.8166577412,
				"y": 0.4200046757,
				"z": 0.2407102308,
				"element": "H" 
			},
			{
				"x": -0.1824247588,
				"y": -0.8670026328,
				"z": -0.4869033415,
				"element": "H" 
			},
			{
				"x": -1.2113078515,
				"y": 0.5525387058,
				"z": -0.2285205092,
				"element": "H" 
			},
			{
				"x": 0.6930031407,
				"y": 2.9780293637,
				"z": -2.839642182,
				"element": "H" 
			},
			{
				"x": -0.673804701,
				"y": 2.9492056285,
				"z": -1.7144578712,
				"element": "H" 
			},
			{
				"x": 1.3172880686,
				"y": 3.9505925214,
				"z": -0.5957692149,
				"element": "H" 
			},
			{
				"x": 2.2880213288,
				"y": 2.5320521728,
				"z": -0.998149037,
				"element": "H" 
			},
			{
				"x": 0.0351402243,
				"y": 2.6526716741,
				"z": 0.8821125465,
				"element": "H" 
			}
		],
		 "valence_orbital": [ 
			{
				"type": "occ",
				"energy": -0.34335,
				"method": "rhf"
			},
			{
				"type": "occ",
				"energy": -0.33271,
				"method": "rhf"
			},
			{
				"type": "occ",
				"energy": -0.32318,
				"method": "rhf"
			},
			{
				"type": "occ",
				"energy": -0.26113,
				"method": "rhf"
			},
			{
				"type": "occ",
				"energy": -0.2318,
				"method": "rhf"
			},
			{
				"type": "unocc",
				"energy": 0.00646,
				"method": "rhf"
			},
			{
				"type": "unocc",
				"energy": 0.01948,
				"method": "rhf"
			},
			{
				"type": "unocc",
				"energy": 0.04209,
				"method": "rhf"
			},
			{
				"type": "unocc",
				"energy": 0.06744,
				"method": "rhf"
			},
			{
				"type": "unocc",
				"energy": 0.08346,
				"method": "rhf"
			}
		],
		"cosmo_sigma_profile": { 
			"-0.025": 0.0,
			"-0.024": 0.0,
			"-0.023": 0.0,
			"-0.022": 0.0,
			"-0.021": 0.0,
			"-0.02": 0.0,
			"-0.019": 0.0,
			"-0.018": 0.0,
			"-0.017": 0.0,
			"-0.016": 0.0,
			"-0.015": 0.0,
			"-0.014": 0.0,
			"-0.013": 0.0,
			"-0.012": 0.696003274195,
			"-0.011": 2.00139208923,
			"-0.01": 1.9164254129,
			"-0.009": 2.38426460938,
			"-0.008": 5.34389014588,
			"-0.007": 8.19028712219,
			"-0.006": 12.5275457698,
			"-0.005": 14.4096575333,
			"-0.004": 14.105945015,
			"-0.003": 14.8893450732,
			"-0.002": 9.05162644053,
			"-0.001": 6.03325865293,
			"0.0": 6.09587159572,
			"0.001": 4.24671236484,
			"0.002": 5.93152927571,
			"0.003": 5.70828474392,
			"0.004": 5.08128240858,
			"0.005": 7.79779971357,
			"0.006": 4.84468093052,
			"0.007": 6.85339361993,
			"0.008": 6.73568318322,
			"0.009": 6.10519703236,
			"0.01": 5.11988182592,
			"0.011": 3.67694654766,
			"0.012": 2.62982446936,
			"0.013": 1.41926430718,
			"0.014": 0.7052437155,
			"0.015": 0.63702911382,
			"0.016": 0.0258738946791,
			"0.017": 0.0,
			"0.018": 0.0,
			"0.019": 0.0,
			"0.02": 0.0,
			"0.021": 0.0,
			"0.022": 0.0,
			"0.023": 0.0,
			"0.024": 0.0,
			"0.025": 0.0
		}
	}
}
