{
	 "smiles": "COC1=CC=C(C#N)C(F)=C1F", 
	 "Tm": 357.15, 
	 "num_atms": 17, 
	 "gaussian": { 
		 "optdone": 1, 
		 "sigma_profile": "yes", 
		 "theory": "DFT", 
		 "functional": "B3LYP", 
		 "basiset": "6-31G**", 
		 "properties": { 
			 "R2extent": 2586.4742, 
			 "electric_dipole_moment_norm": 5.7520889814, 
			 "electric_quadrupole_moment_norm": 18.6084332148, 
			 "total_energy": -637.461976863, 
			 "HOMO_LUMO_gap": 0.19608, 
			 "cosmo_polarized_energy": -9.27, 
			 "cosmo_cavitation_energy": 23.64, 
			 "cosmo_dispersion_energy": -16.71, 
			 "cosmo_repulsion_energy": 1.29, 
			 "cosmo_total_nonelectrostatic_energy": 8.22, 
			 "SMD_solvation_energy": 7.23 
		},
		"coords": [
			{
				"x": 0.3267827878,
				"y": 0.7148300726,
				"z": -2.3614931398,
				"element": "C" 
			},
			{
				"x": -0.9336799843,
				"y": 0.6918337262,
				"z": -1.6789152898,
				"element": "O" 
			},
			{
				"x": -1.0728155756,
				"y": 0.1404119322,
				"z": -0.4552624321,
				"element": "C" 
			},
			{
				"x": -2.37047558,
				"y": 0.1920889703,
				"z": 0.0906011058,
				"element": "C" 
			},
			{
				"x": -2.6508046896,
				"y": -0.3363898298,
				"z": 1.3379448998,
				"element": "C" 
			},
			{
				"x": -1.6390283511,
				"y": -0.9466609802,
				"z": 2.1050710653,
				"element": "C" 
			},
			{
				"x": -1.9015766506,
				"y": -1.4996768721,
				"z": 3.3947105955,
				"element": "C" 
			},
			{
				"x": -2.1346401739,
				"y": -1.9448945946,
				"z": 4.4438719917,
				"element": "N" 
			},
			{
				"x": -0.3507132136,
				"y": -0.9984329563,
				"z": 1.5640039128,
				"element": "C" 
			},
			{
				"x": 0.6464616741,
				"y": -1.5659179008,
				"z": 2.2489227713,
				"element": "F" 
			},
			{
				"x": -0.0642137186,
				"y": -0.4676738953,
				"z": 0.308863496,
				"element": "C" 
			},
			{
				"x": 1.2086267879,
				"y": -0.5647922731,
				"z": -0.1292259432,
				"element": "F" 
			},
			{
				"x": 1.0754304704,
				"y": 1.2780537691,
				"z": -1.7987235954,
				"element": "H" 
			},
			{
				"x": 0.1226694829,
				"y": 1.2168250096,
				"z": -3.3076412305,
				"element": "H" 
			},
			{
				"x": 0.6962384574,
				"y": -0.295918433,
				"z": -2.5520579775,
				"element": "H" 
			},
			{
				"x": -3.1429620841,
				"y": 0.6633966505,
				"z": -0.506215745,
				"element": "H" 
			},
			{
				"x": -3.6563996388,
				"y": -0.2859823952,
				"z": 1.7394455151,
				"element": "H" 
			}
		],
		 "valence_orbital": [ 
			{
				"type": "occ",
				"energy": -0.3542,
				"method": "rhf"
			},
			{
				"type": "occ",
				"energy": -0.3343,
				"method": "rhf"
			},
			{
				"type": "occ",
				"energy": -0.32468,
				"method": "rhf"
			},
			{
				"type": "occ",
				"energy": -0.27106,
				"method": "rhf"
			},
			{
				"type": "occ",
				"energy": -0.24722,
				"method": "rhf"
			},
			{
				"type": "unocc",
				"energy": -0.05114,
				"method": "rhf"
			},
			{
				"type": "unocc",
				"energy": -0.02592,
				"method": "rhf"
			},
			{
				"type": "unocc",
				"energy": 0.02203,
				"method": "rhf"
			},
			{
				"type": "unocc",
				"energy": 0.04773,
				"method": "rhf"
			},
			{
				"type": "unocc",
				"energy": 0.07592,
				"method": "rhf"
			}
		],
		"cosmo_sigma_profile": { 
			"-0.025": 0.0,
			"-0.024": 0.0,
			"-0.023": 0.0,
			"-0.022": 0.0,
			"-0.021": 0.0,
			"-0.02": 0.0,
			"-0.019": 0.0,
			"-0.018": 0.0,
			"-0.017": 0.0,
			"-0.016": 0.0,
			"-0.015": 0.0,
			"-0.014": 0.0,
			"-0.013": 0.0,
			"-0.012": 0.0,
			"-0.011": 0.0,
			"-0.01": 0.0,
			"-0.009": 1.08065654659,
			"-0.008": 3.80946357739,
			"-0.007": 5.32449037346,
			"-0.006": 11.9703060539,
			"-0.005": 10.8914764941,
			"-0.004": 13.3590156386,
			"-0.003": 17.5705307728,
			"-0.002": 18.963809479,
			"-0.001": 14.4793283325,
			"0.0": 12.6803022145,
			"0.001": 13.4222915691,
			"0.002": 18.7816818685,
			"0.003": 14.7722944818,
			"0.004": 4.96844339877,
			"0.005": 3.85787579706,
			"0.006": 3.34156540612,
			"0.007": 5.00511986026,
			"0.008": 4.3378745507,
			"0.009": 3.74395554293,
			"0.01": 3.02184087196,
			"0.011": 2.6433861479,
			"0.012": 2.43845924668,
			"0.013": 1.0741166503,
			"0.014": 0.0,
			"0.015": 0.0,
			"0.016": 0.0,
			"0.017": 0.0,
			"0.018": 0.0,
			"0.019": 0.0,
			"0.02": 0.0,
			"0.021": 0.0,
			"0.022": 0.0,
			"0.023": 0.0,
			"0.024": 0.0,
			"0.025": 0.0
		}
	}
}
