{
	 "smiles": "CCC(C)C(=O)N1CCCC(C1)C(O)=O", 
	 "Tm": 392.15, 
	 "num_atms": 34, 
	 "gaussian": { 
		 "optdone": 1, 
		 "sigma_profile": "yes", 
		 "theory": "DFT", 
		 "functional": "B3LYP", 
		 "basiset": "6-31G**", 
		 "properties": { 
			 "R2extent": 3480.9228, 
			 "electric_dipole_moment_norm": 2.7242316403, 
			 "electric_quadrupole_moment_norm": 12.9954114464, 
			 "total_energy": -711.081975844, 
			 "HOMO_LUMO_gap": 0.22947, 
			 "cosmo_polarized_energy": -14.91, 
			 "cosmo_cavitation_energy": 33.96, 
			 "cosmo_dispersion_energy": -23.28, 
			 "cosmo_repulsion_energy": 1.83, 
			 "cosmo_total_nonelectrostatic_energy": 12.51, 
			 "SMD_solvation_energy": 6.47 
		},
		"coords": [
			{
				"x": 2.3684044413,
				"y": 0.8650150225,
				"z": -1.6800842245,
				"element": "C" 
			},
			{
				"x": 1.9417735638,
				"y": -0.6049837255,
				"z": -1.5969094903,
				"element": "C" 
			},
			{
				"x": 1.9899908207,
				"y": -1.1975400817,
				"z": -0.1723667353,
				"element": "C" 
			},
			{
				"x": 1.5556881118,
				"y": -2.6765564367,
				"z": -0.1324095808,
				"element": "C" 
			},
			{
				"x": 1.3348307214,
				"y": -0.3866427189,
				"z": 0.9657258701,
				"element": "C" 
			},
			{
				"x": 2.0103543995,
				"y": -0.1413331073,
				"z": 1.9655619159,
				"element": "O" 
			},
			{
				"x": 0.0179129395,
				"y": 0.01815163,
				"z": 0.8945264035,
				"element": "N" 
			},
			{
				"x": -0.9011191239,
				"y": -0.2245242718,
				"z": -0.2313068616,
				"element": "C" 
			},
			{
				"x": -2.35294305,
				"y": -0.0500446313,
				"z": 0.2238091048,
				"element": "C" 
			},
			{
				"x": -2.6179994547,
				"y": 1.3818278977,
				"z": 0.7231385069,
				"element": "C" 
			},
			{
				"x": -1.4354753339,
				"y": 1.9234857544,
				"z": 1.5663899939,
				"element": "C" 
			},
			{
				"x": -0.50778428,
				"y": 0.7797289694,
				"z": 2.034029713,
				"element": "C" 
			},
			{
				"x": -0.6042367846,
				"y": 2.9428442631,
				"z": 0.8006924102,
				"element": "C" 
			},
			{
				"x": 0.1472703396,
				"y": 3.6932074148,
				"z": 1.6373654586,
				"element": "O" 
			},
			{
				"x": -0.5686017119,
				"y": 3.0808631121,
				"z": -0.405008746,
				"element": "O" 
			},
			{
				"x": 3.3539687684,
				"y": 1.0147230768,
				"z": -1.2252650642,
				"element": "H" 
			},
			{
				"x": 1.6598432196,
				"y": 1.5233657699,
				"z": -1.1673531765,
				"element": "H" 
			},
			{
				"x": 2.427336918,
				"y": 1.1953799071,
				"z": -2.7221453185,
				"element": "H" 
			},
			{
				"x": 0.9511595833,
				"y": -0.7304936834,
				"z": -2.0459831164,
				"element": "H" 
			},
			{
				"x": 2.6197377446,
				"y": -1.2130041366,
				"z": -2.2105029512,
				"element": "H" 
			},
			{
				"x": 3.0391032925,
				"y": -1.1725491441,
				"z": 0.1404060375,
				"element": "H" 
			},
			{
				"x": 1.6634617262,
				"y": -3.0854827535,
				"z": 0.8766543171,
				"element": "H" 
			},
			{
				"x": 0.5181417583,
				"y": -2.8251780091,
				"z": -0.4484979725,
				"element": "H" 
			},
			{
				"x": 2.1874599123,
				"y": -3.2675865816,
				"z": -0.8041448368,
				"element": "H" 
			},
			{
				"x": -0.7564376236,
				"y": -1.2362526687,
				"z": -0.6143666692,
				"element": "H" 
			},
			{
				"x": -0.7009189306,
				"y": 0.4804062267,
				"z": -1.0475689329,
				"element": "H" 
			},
			{
				"x": -3.0160388217,
				"y": -0.284880726,
				"z": -0.6153345894,
				"element": "H" 
			},
			{
				"x": -2.5744755446,
				"y": -0.7804593687,
				"z": 1.0110589295,
				"element": "H" 
			},
			{
				"x": -3.5356152683,
				"y": 1.4006432829,
				"z": 1.319618193,
				"element": "H" 
			},
			{
				"x": -2.7740305333,
				"y": 2.0425965148,
				"z": -0.133963124,
				"element": "H" 
			},
			{
				"x": -1.7966585797,
				"y": 2.4272377007,
				"z": 2.4692045772,
				"element": "H" 
			},
			{
				"x": 0.3473975646,
				"y": 1.1600585993,
				"z": 2.590708925,
				"element": "H" 
			},
			{
				"x": -1.0733996283,
				"y": 0.1250496648,
				"z": 2.7109374355,
				"element": "H" 
			},
			{
				"x": 0.6891988434,
				"y": 4.273627238,
				"z": 1.0766835983,
				"element": "H" 
			}
		],
		 "valence_orbital": [ 
			{
				"type": "occ",
				"energy": -0.32044,
				"method": "rhf"
			},
			{
				"type": "occ",
				"energy": -0.31425,
				"method": "rhf"
			},
			{
				"type": "occ",
				"energy": -0.28017,
				"method": "rhf"
			},
			{
				"type": "occ",
				"energy": -0.23404,
				"method": "rhf"
			},
			{
				"type": "occ",
				"energy": -0.22892,
				"method": "rhf"
			},
			{
				"type": "unocc",
				"energy": 0.00055,
				"method": "rhf"
			},
			{
				"type": "unocc",
				"energy": 0.03049,
				"method": "rhf"
			},
			{
				"type": "unocc",
				"energy": 0.06676,
				"method": "rhf"
			},
			{
				"type": "unocc",
				"energy": 0.07969,
				"method": "rhf"
			},
			{
				"type": "unocc",
				"energy": 0.09389,
				"method": "rhf"
			}
		],
		"cosmo_sigma_profile": { 
			"-0.025": 0.0,
			"-0.024": 0.0,
			"-0.023": 0.0,
			"-0.022": 0.0,
			"-0.021": 0.0,
			"-0.02": 0.0,
			"-0.019": 0.0,
			"-0.018": 0.611729499402,
			"-0.017": 1.10491898649,
			"-0.016": 1.10120471164,
			"-0.015": 0.769021009374,
			"-0.014": 0.160940403093,
			"-0.013": 0.272663437006,
			"-0.012": 1.0638130591,
			"-0.011": 1.03666303683,
			"-0.01": 0.977777074438,
			"-0.009": 0.464826785539,
			"-0.008": 0.539538908923,
			"-0.007": 0.718342302782,
			"-0.006": 5.20731928453,
			"-0.005": 11.6881164657,
			"-0.004": 19.5747406986,
			"-0.003": 34.59073482,
			"-0.002": 35.3381359055,
			"-0.001": 31.489796544,
			"0.0": 32.9761198879,
			"0.001": 21.174378177,
			"0.002": 10.2556632682,
			"0.003": 5.29954850236,
			"0.004": 5.39174495001,
			"0.005": 5.43364731531,
			"0.006": 3.30080759027,
			"0.007": 3.41519555074,
			"0.008": 4.6155153006,
			"0.009": 4.16959900585,
			"0.01": 2.67166863929,
			"0.011": 3.92169633561,
			"0.012": 4.15848735927,
			"0.013": 2.11567405647,
			"0.014": 4.4116830989,
			"0.015": 2.83017786343,
			"0.016": 0.331142353818,
			"0.017": 0.0,
			"0.018": 0.0,
			"0.019": 0.0,
			"0.02": 0.0,
			"0.021": 0.0,
			"0.022": 0.0,
			"0.023": 0.0,
			"0.024": 0.0,
			"0.025": 0.0
		}
	}
}
