{
	 "smiles": "[O-][N+](=O)C1=CC=C(Cl)C=C1Cl", 
	 "Tm": 305.35, 
	 "num_atms": 14, 
	 "gaussian": { 
		 "optdone": 1, 
		 "sigma_profile": "yes", 
		 "theory": "DFT", 
		 "functional": "B3LYP", 
		 "basiset": "6-31G**", 
		 "properties": { 
			 "R2extent": 4143.5627, 
			 "electric_dipole_moment_norm": 3.36671583891, 
			 "electric_quadrupole_moment_norm": 7.84603787845, 
			 "total_energy": -1355.91456429, 
			 "HOMO_LUMO_gap": 0.17943, 
			 "cosmo_polarized_energy": -8.0, 
			 "cosmo_cavitation_energy": 23.04, 
			 "cosmo_dispersion_energy": -17.33, 
			 "cosmo_repulsion_energy": 1.39, 
			 "cosmo_total_nonelectrostatic_energy": 7.11, 
			 "SMD_solvation_energy": 5.71 
		},
		"coords": [
			{
				"x": 1.8085751245,
				"y": 0.9728609798,
				"z": 1.5333389654,
				"element": "O" 
			},
			{
				"x": 1.62216903,
				"y": 1.5600954394,
				"z": 0.4735241015,
				"element": "N" 
			},
			{
				"x": 1.4690556105,
				"y": 2.7758854866,
				"z": 0.3525887186,
				"element": "O" 
			},
			{
				"x": 1.5354842289,
				"y": 0.7603503711,
				"z": -0.7603684205,
				"element": "C" 
			},
			{
				"x": 0.726687203,
				"y": 1.2764948513,
				"z": -1.7758086777,
				"element": "C" 
			},
			{
				"x": 0.5466854271,
				"y": 0.5830544729,
				"z": -2.9646163131,
				"element": "C" 
			},
			{
				"x": 1.2096346622,
				"y": -0.6336558142,
				"z": -3.1356323105,
				"element": "C" 
			},
			{
				"x": 1.0076852637,
				"y": -1.5254657331,
				"z": -4.6242649393,
				"element": "Cl" 
			},
			{
				"x": 2.0402340861,
				"y": -1.1517143487,
				"z": -2.1444707324,
				"element": "C" 
			},
			{
				"x": 2.2049077887,
				"y": -0.4608300619,
				"z": -0.9409719376,
				"element": "C" 
			},
			{
				"x": 3.2987217353,
				"y": -1.1517033552,
				"z": 0.2219663149,
				"element": "Cl" 
			},
			{
				"x": 0.2433478817,
				"y": 2.2308786133,
				"z": -1.606970657,
				"element": "H" 
			},
			{
				"x": -0.0919992317,
				"y": 0.9768580317,
				"z": -3.7460984992,
				"element": "H" 
			},
			{
				"x": 2.56481119,
				"y": -2.086308933,
				"z": -2.2989156132,
				"element": "H" 
			}
		],
		 "valence_orbital": [ 
			{
				"type": "occ",
				"energy": -0.31853,
				"method": "rhf"
			},
			{
				"type": "occ",
				"energy": -0.31478,
				"method": "rhf"
			},
			{
				"type": "occ",
				"energy": -0.30202,
				"method": "rhf"
			},
			{
				"type": "occ",
				"energy": -0.2864,
				"method": "rhf"
			},
			{
				"type": "occ",
				"energy": -0.27892,
				"method": "rhf"
			},
			{
				"type": "unocc",
				"energy": -0.09949,
				"method": "rhf"
			},
			{
				"type": "unocc",
				"energy": -0.05162,
				"method": "rhf"
			},
			{
				"type": "unocc",
				"energy": -0.02745,
				"method": "rhf"
			},
			{
				"type": "unocc",
				"energy": -0.01289,
				"method": "rhf"
			},
			{
				"type": "unocc",
				"energy": 0.02655,
				"method": "rhf"
			}
		],
		"cosmo_sigma_profile": { 
			"-0.025": 0.0,
			"-0.024": 0.0,
			"-0.023": 0.0,
			"-0.022": 0.0,
			"-0.021": 0.0,
			"-0.02": 0.0,
			"-0.019": 0.0,
			"-0.018": 0.0,
			"-0.017": 0.0,
			"-0.016": 0.0,
			"-0.015": 0.0,
			"-0.014": 0.0,
			"-0.013": 0.0,
			"-0.012": 0.0,
			"-0.011": 0.0,
			"-0.01": 0.486133263301,
			"-0.009": 3.8724637579,
			"-0.008": 7.26081267493,
			"-0.007": 6.535619163,
			"-0.006": 5.73159659706,
			"-0.005": 6.86092859217,
			"-0.004": 8.34025507161,
			"-0.003": 10.7402244531,
			"-0.002": 19.4282010495,
			"-0.001": 23.359713588,
			"0.0": 17.0910728206,
			"0.001": 11.8433319381,
			"0.002": 12.9610553886,
			"0.003": 18.8225707554,
			"0.004": 6.74057010335,
			"0.005": 3.37159003968,
			"0.006": 5.43859234148,
			"0.007": 10.2986111465,
			"0.008": 7.1589848954,
			"0.009": 3.56305343795,
			"0.01": 0.678567344368,
			"0.011": 0.0,
			"0.012": 0.0,
			"0.013": 0.0,
			"0.014": 0.0,
			"0.015": 0.0,
			"0.016": 0.0,
			"0.017": 0.0,
			"0.018": 0.0,
			"0.019": 0.0,
			"0.02": 0.0,
			"0.021": 0.0,
			"0.022": 0.0,
			"0.023": 0.0,
			"0.024": 0.0,
			"0.025": 0.0
		}
	}
}
