{
	 "smiles": "COC1=CC2=C(C=C1)N=C(C=C2)C#N", 
	 "Tm": 450.15, 
	 "num_atms": 22, 
	 "gaussian": { 
		 "optdone": 1, 
		 "sigma_profile": "yes", 
		 "theory": "DFT", 
		 "functional": "B3LYP", 
		 "basiset": "6-31G**", 
		 "properties": { 
			 "R2extent": 3558.6662, 
			 "electric_dipole_moment_norm": 6.98595205466, 
			 "electric_quadrupole_moment_norm": 20.479779033, 
			 "total_energy": -608.691639438, 
			 "HOMO_LUMO_gap": 0.15359, 
			 "cosmo_polarized_energy": -12.81, 
			 "cosmo_cavitation_energy": 27.69, 
			 "cosmo_dispersion_energy": -20.04, 
			 "cosmo_repulsion_energy": 1.55, 
			 "cosmo_total_nonelectrostatic_energy": 9.2, 
			 "SMD_solvation_energy": 5.29 
		},
		"coords": [
			{
				"x": -2.4338107614,
				"y": 1.9318205504,
				"z": 3.2427972708,
				"element": "C" 
			},
			{
				"x": -2.6412523029,
				"y": 1.1308345584,
				"z": 2.0863944399,
				"element": "O" 
			},
			{
				"x": -1.6161886087,
				"y": 0.9542667422,
				"z": 1.2109455981,
				"element": "C" 
			},
			{
				"x": -1.8837127984,
				"y": 0.1630522434,
				"z": 0.1049921845,
				"element": "C" 
			},
			{
				"x": -0.8841473956,
				"y": -0.0788208737,
				"z": -0.8597477364,
				"element": "C" 
			},
			{
				"x": 0.418983216,
				"y": 0.5001165652,
				"z": -0.6922368852,
				"element": "C" 
			},
			{
				"x": 0.661701083,
				"y": 1.3053476114,
				"z": 0.4504162015,
				"element": "C" 
			},
			{
				"x": -0.3259556225,
				"y": 1.5304550912,
				"z": 1.3815411856,
				"element": "C" 
			},
			{
				"x": 1.4315671737,
				"y": 0.3122119007,
				"z": -1.5783879713,
				"element": "N" 
			},
			{
				"x": 1.1881007207,
				"y": -0.4415073978,
				"z": -2.638397563,
				"element": "C" 
			},
			{
				"x": -0.0651123201,
				"y": -1.0651372142,
				"z": -2.9060546225,
				"element": "C" 
			},
			{
				"x": -1.0919794586,
				"y": -0.8796059017,
				"z": -2.0154405883,
				"element": "C" 
			},
			{
				"x": 2.274015125,
				"y": -0.6321434717,
				"z": -3.5713942908,
				"element": "C" 
			},
			{
				"x": 3.1232502701,
				"y": -0.8090061635,
				"z": -4.3453179574,
				"element": "N" 
			},
			{
				"x": -3.3819094336,
				"y": 1.925395862,
				"z": 3.7818685716,
				"element": "H" 
			},
			{
				"x": -1.6504597131,
				"y": 1.5163823549,
				"z": 3.8885748399,
				"element": "H" 
			},
			{
				"x": -2.1771753281,
				"y": 2.9652881422,
				"z": 2.9794740161,
				"element": "H" 
			},
			{
				"x": -2.874162641,
				"y": -0.2668685464,
				"z": -0.0061954811,
				"element": "H" 
			},
			{
				"x": 1.650961348,
				"y": 1.7359917905,
				"z": 0.5634902402,
				"element": "H" 
			},
			{
				"x": -0.1137691672,
				"y": 2.1493710733,
				"z": 2.2450127508,
				"element": "H" 
			},
			{
				"x": -0.1847553954,
				"y": -1.6688853598,
				"z": -3.798819423,
				"element": "H" 
			},
			{
				"x": -2.0627879901,
				"y": -1.3377595571,
				"z": -2.1830147799,
				"element": "H" 
			}
		],
		 "valence_orbital": [ 
			{
				"type": "occ",
				"energy": -0.32423,
				"method": "rhf"
			},
			{
				"type": "occ",
				"energy": -0.30867,
				"method": "rhf"
			},
			{
				"type": "occ",
				"energy": -0.27729,
				"method": "rhf"
			},
			{
				"type": "occ",
				"energy": -0.26116,
				"method": "rhf"
			},
			{
				"type": "occ",
				"energy": -0.2298,
				"method": "rhf"
			},
			{
				"type": "unocc",
				"energy": -0.07621,
				"method": "rhf"
			},
			{
				"type": "unocc",
				"energy": -0.0408,
				"method": "rhf"
			},
			{
				"type": "unocc",
				"energy": 0.00464,
				"method": "rhf"
			},
			{
				"type": "unocc",
				"energy": 0.03913,
				"method": "rhf"
			},
			{
				"type": "unocc",
				"energy": 0.05013,
				"method": "rhf"
			}
		],
		"cosmo_sigma_profile": { 
			"-0.025": 0.0,
			"-0.024": 0.0,
			"-0.023": 0.0,
			"-0.022": 0.0,
			"-0.021": 0.0,
			"-0.02": 0.0,
			"-0.019": 0.0,
			"-0.018": 0.0,
			"-0.017": 0.0,
			"-0.016": 0.0,
			"-0.015": 0.0,
			"-0.014": 0.0,
			"-0.013": 0.0,
			"-0.012": 0.0,
			"-0.011": 0.0,
			"-0.01": 0.0,
			"-0.009": 0.418691976717,
			"-0.008": 5.82603516315,
			"-0.007": 12.2739274026,
			"-0.006": 17.2354273149,
			"-0.005": 15.0077910191,
			"-0.004": 15.7982646248,
			"-0.003": 14.0074567517,
			"-0.002": 12.3917883134,
			"-0.001": 14.8855077994,
			"0.0": 15.9598791013,
			"0.001": 21.7532628404,
			"0.002": 18.6245419158,
			"0.003": 12.5081887606,
			"0.004": 6.2667472865,
			"0.005": 6.2187244931,
			"0.006": 5.48890896129,
			"0.007": 5.73073293739,
			"0.008": 5.92344474556,
			"0.009": 5.68524821887,
			"0.01": 4.34010964987,
			"0.011": 3.15767302083,
			"0.012": 3.26647168814,
			"0.013": 1.00433283738,
			"0.014": 0.150121008293,
			"0.015": 0.0,
			"0.016": 0.0,
			"0.017": 0.0,
			"0.018": 0.0,
			"0.019": 0.0,
			"0.02": 0.0,
			"0.021": 0.0,
			"0.022": 0.0,
			"0.023": 0.0,
			"0.024": 0.0,
			"0.025": 0.0
		}
	}
}
