{
	 "smiles": "CCC(=O)CC1=C(Cl)C=C(Cl)C=C1", 
	 "Tm": 311.15, 
	 "num_atms": 23, 
	 "gaussian": { 
		 "optdone": 1, 
		 "sigma_profile": "yes", 
		 "theory": "DFT", 
		 "functional": "B3LYP", 
		 "basiset": "6-31G**", 
		 "properties": { 
			 "R2extent": 5357.7881, 
			 "electric_dipole_moment_norm": 1.37420797189, 
			 "electric_quadrupole_moment_norm": 6.63268664645, 
			 "total_energy": -1382.70795329, 
			 "HOMO_LUMO_gap": 0.20449, 
			 "cosmo_polarized_energy": -7.51, 
			 "cosmo_cavitation_energy": 30.69, 
			 "cosmo_dispersion_energy": -21.7, 
			 "cosmo_repulsion_energy": 1.75, 
			 "cosmo_total_nonelectrostatic_energy": 10.73, 
			 "SMD_solvation_energy": 5.06 
		},
		"coords": [
			{
				"x": 0.820169968,
				"y": -0.340146559,
				"z": -2.9512736146,
				"element": "C" 
			},
			{
				"x": 1.123715921,
				"y": 0.0970556314,
				"z": -1.5207171463,
				"element": "C" 
			},
			{
				"x": -0.1153638622,
				"y": 0.3572401135,
				"z": -0.6828562687,
				"element": "C" 
			},
			{
				"x": -1.2411909434,
				"y": 0.3127074901,
				"z": -1.1406936047,
				"element": "O" 
			},
			{
				"x": 0.1053350583,
				"y": 0.660446002,
				"z": 0.8098684899,
				"element": "C" 
			},
			{
				"x": -0.0404020569,
				"y": -0.6043255054,
				"z": 1.6341842382,
				"element": "C" 
			},
			{
				"x": 1.0216984799,
				"y": -1.2340559159,
				"z": 2.2990729949,
				"element": "C" 
			},
			{
				"x": 2.6562588991,
				"y": -0.5760022461,
				"z": 2.2256164973,
				"element": "Cl" 
			},
			{
				"x": 0.844476166,
				"y": -2.3994135881,
				"z": 3.0477694802,
				"element": "C" 
			},
			{
				"x": -0.4275547294,
				"y": -2.9581536668,
				"z": 3.125845993,
				"element": "C" 
			},
			{
				"x": -0.662515096,
				"y": -4.4214515326,
				"z": 4.065212618,
				"element": "Cl" 
			},
			{
				"x": -1.5112109761,
				"y": -2.3739272145,
				"z": 2.4702992582,
				"element": "C" 
			},
			{
				"x": -1.3032001571,
				"y": -1.210810741,
				"z": 1.7365166762,
				"element": "C" 
			},
			{
				"x": 1.7459485348,
				"y": -0.4918796712,
				"z": -3.5135595459,
				"element": "H" 
			},
			{
				"x": 0.2530470192,
				"y": -1.2749231258,
				"z": -2.9620071474,
				"element": "H" 
			},
			{
				"x": 0.2182054081,
				"y": 0.4109905019,
				"z": -3.4689581321,
				"element": "H" 
			},
			{
				"x": 1.7245869385,
				"y": 1.0186532011,
				"z": -1.5046633084,
				"element": "H" 
			},
			{
				"x": 1.7372218472,
				"y": -0.6442350867,
				"z": -0.9894687044,
				"element": "H" 
			},
			{
				"x": 1.0838551792,
				"y": 1.1146958329,
				"z": 0.9731865458,
				"element": "H" 
			},
			{
				"x": -0.6672085161,
				"y": 1.3758381356,
				"z": 1.1069523872,
				"element": "H" 
			},
			{
				"x": 1.6840963437,
				"y": -2.8573619599,
				"z": 3.555529391,
				"element": "H" 
			},
			{
				"x": -2.4962023114,
				"y": -2.8216980935,
				"z": 2.5349593264,
				"element": "H" 
			},
			{
				"x": -2.1342671146,
				"y": -0.7534420022,
				"z": 1.2083835763,
				"element": "H" 
			}
		],
		 "valence_orbital": [ 
			{
				"type": "occ",
				"energy": -0.32652,
				"method": "rhf"
			},
			{
				"type": "occ",
				"energy": -0.3203,
				"method": "rhf"
			},
			{
				"type": "occ",
				"energy": -0.26886,
				"method": "rhf"
			},
			{
				"type": "occ",
				"energy": -0.26434,
				"method": "rhf"
			},
			{
				"type": "occ",
				"energy": -0.24274,
				"method": "rhf"
			},
			{
				"type": "unocc",
				"energy": -0.03825,
				"method": "rhf"
			},
			{
				"type": "unocc",
				"energy": -0.02889,
				"method": "rhf"
			},
			{
				"type": "unocc",
				"energy": -0.01155,
				"method": "rhf"
			},
			{
				"type": "unocc",
				"energy": 0.00342,
				"method": "rhf"
			},
			{
				"type": "unocc",
				"energy": 0.04477,
				"method": "rhf"
			}
		],
		"cosmo_sigma_profile": { 
			"-0.025": 0.0,
			"-0.024": 0.0,
			"-0.023": 0.0,
			"-0.022": 0.0,
			"-0.021": 0.0,
			"-0.02": 0.0,
			"-0.019": 0.0,
			"-0.018": 0.0,
			"-0.017": 0.0,
			"-0.016": 0.0,
			"-0.015": 0.0,
			"-0.014": 0.0,
			"-0.013": 0.0,
			"-0.012": 0.0,
			"-0.011": 0.0,
			"-0.01": 0.0,
			"-0.009": 0.0568099917304,
			"-0.008": 2.08398562376,
			"-0.007": 5.13169077455,
			"-0.006": 11.0415679085,
			"-0.005": 11.9355271436,
			"-0.004": 16.6655120041,
			"-0.003": 20.2025959549,
			"-0.002": 25.3720573006,
			"-0.001": 22.5827984009,
			"0.0": 21.7985154202,
			"0.001": 30.7888804463,
			"0.002": 25.7341445557,
			"0.003": 16.0374337519,
			"0.004": 18.1311599649,
			"0.005": 5.25829483027,
			"0.006": 1.68078759429,
			"0.007": 1.47170567711,
			"0.008": 1.74172322579,
			"0.009": 1.57362438818,
			"0.01": 2.18971403831,
			"0.011": 3.14020298894,
			"0.012": 3.26451113412,
			"0.013": 0.448037401459,
			"0.014": 0.0,
			"0.015": 0.0,
			"0.016": 0.0,
			"0.017": 0.0,
			"0.018": 0.0,
			"0.019": 0.0,
			"0.02": 0.0,
			"0.021": 0.0,
			"0.022": 0.0,
			"0.023": 0.0,
			"0.024": 0.0,
			"0.025": 0.0
		}
	}
}
