{
	 "smiles": "OC(C(NC=O)C1=CC=CC=C1)C1=CC=CC=C1", 
	 "Tm": 478.15, 
	 "num_atms": 33, 
	 "gaussian": { 
		 "optdone": 1, 
		 "sigma_profile": "yes", 
		 "theory": "DFT", 
		 "functional": "B3LYP", 
		 "basiset": "6-31G**", 
		 "properties": { 
			 "R2extent": 5283.1266, 
			 "electric_dipole_moment_norm": 4.66011726676, 
			 "electric_quadrupole_moment_norm": 22.6319250681, 
			 "total_energy": -785.83691339, 
			 "HOMO_LUMO_gap": 0.22014, 
			 "cosmo_polarized_energy": -17.12, 
			 "cosmo_cavitation_energy": 36.83, 
			 "cosmo_dispersion_energy": -24.93, 
			 "cosmo_repulsion_energy": 1.94, 
			 "cosmo_total_nonelectrostatic_energy": 13.84, 
			 "SMD_solvation_energy": 7.74 
		},
		"coords": [
			{
				"x": 1.3980580072,
				"y": -0.5416697411,
				"z": -1.4537031183,
				"element": "O" 
			},
			{
				"x": 0.199502723,
				"y": 0.068070694,
				"z": -0.992215701,
				"element": "C" 
			},
			{
				"x": -0.5252833659,
				"y": -0.9033985357,
				"z": -0.0016630052,
				"element": "C" 
			},
			{
				"x": 0.3869900609,
				"y": -1.2224709131,
				"z": 1.0796472051,
				"element": "N" 
			},
			{
				"x": 0.0372934419,
				"y": -1.3647644361,
				"z": 2.3903919604,
				"element": "C" 
			},
			{
				"x": 0.8140637324,
				"y": -1.61243612,
				"z": 3.2943955195,
				"element": "O" 
			},
			{
				"x": -1.046235437,
				"y": -2.1262242653,
				"z": -0.7570101483,
				"element": "C" 
			},
			{
				"x": -0.3328654398,
				"y": -3.3308186352,
				"z": -0.7951870208,
				"element": "C" 
			},
			{
				"x": -0.8017507932,
				"y": -4.4113901886,
				"z": -1.5476499772,
				"element": "C" 
			},
			{
				"x": -1.9899910719,
				"y": -4.3022909187,
				"z": -2.2697933767,
				"element": "C" 
			},
			{
				"x": -2.7115306592,
				"y": -3.1062096586,
				"z": -2.2342586434,
				"element": "C" 
			},
			{
				"x": -2.2404685723,
				"y": -2.0283549697,
				"z": -1.4859928457,
				"element": "C" 
			},
			{
				"x": 0.5345810291,
				"y": 1.4029408025,
				"z": -0.3557737481,
				"element": "C" 
			},
			{
				"x": 1.8445374463,
				"y": 1.7400636654,
				"z": -0.0012309604,
				"element": "C" 
			},
			{
				"x": 2.1164111393,
				"y": 2.9686366999,
				"z": 0.6045016931,
				"element": "C" 
			},
			{
				"x": 1.085210093,
				"y": 3.8723768971,
				"z": 0.861410745,
				"element": "C" 
			},
			{
				"x": -0.2243283553,
				"y": 3.5450658371,
				"z": 0.5023716212,
				"element": "C" 
			},
			{
				"x": -0.4947798582,
				"y": 2.3195200188,
				"z": -0.1047721756,
				"element": "C" 
			},
			{
				"x": 1.1506877619,
				"y": -1.3529153167,
				"z": -1.9200239636,
				"element": "H" 
			},
			{
				"x": -0.4901830349,
				"y": 0.2419116341,
				"z": -1.8316890126,
				"element": "H" 
			},
			{
				"x": -1.3830568693,
				"y": -0.3673231917,
				"z": 0.4205025324,
				"element": "H" 
			},
			{
				"x": 1.3733230728,
				"y": -1.281219385,
				"z": 0.8566708183,
				"element": "H" 
			},
			{
				"x": -1.0525833052,
				"y": -1.2296686575,
				"z": 2.5485164601,
				"element": "H" 
			},
			{
				"x": 0.5745996921,
				"y": -3.4337460324,
				"z": -0.2082337987,
				"element": "H" 
			},
			{
				"x": -0.239416923,
				"y": -5.3406748284,
				"z": -1.5609978186,
				"element": "H" 
			},
			{
				"x": -2.3568461713,
				"y": -5.1440467582,
				"z": -2.8496455166,
				"element": "H" 
			},
			{
				"x": -3.643770622,
				"y": -3.015408167,
				"z": -2.7843924492,
				"element": "H" 
			},
			{
				"x": -2.8116822635,
				"y": -1.1026322373,
				"z": -1.4592903267,
				"element": "H" 
			},
			{
				"x": 2.6477758349,
				"y": 1.044225782,
				"z": -0.2143895845,
				"element": "H" 
			},
			{
				"x": 3.1383830336,
				"y": 3.2185148734,
				"z": 0.8750428671,
				"element": "H" 
			},
			{
				"x": 1.2992818013,
				"y": 4.8271925093,
				"z": 1.332761106,
				"element": "H" 
			},
			{
				"x": -1.0332068144,
				"y": 4.2457382796,
				"z": 0.6888681856,
				"element": "H" 
			},
			{
				"x": -1.5161193133,
				"y": 2.0782052633,
				"z": -0.3928675225,
				"element": "H" 
			}
		],
		 "valence_orbital": [ 
			{
				"type": "occ",
				"energy": -0.26099,
				"method": "rhf"
			},
			{
				"type": "occ",
				"energy": -0.25453,
				"method": "rhf"
			},
			{
				"type": "occ",
				"energy": -0.24794,
				"method": "rhf"
			},
			{
				"type": "occ",
				"energy": -0.24708,
				"method": "rhf"
			},
			{
				"type": "occ",
				"energy": -0.24336,
				"method": "rhf"
			},
			{
				"type": "unocc",
				"energy": -0.02322,
				"method": "rhf"
			},
			{
				"type": "unocc",
				"energy": -0.0169,
				"method": "rhf"
			},
			{
				"type": "unocc",
				"energy": -0.00381,
				"method": "rhf"
			},
			{
				"type": "unocc",
				"energy": -0.00078,
				"method": "rhf"
			},
			{
				"type": "unocc",
				"energy": 0.0307,
				"method": "rhf"
			}
		],
		"cosmo_sigma_profile": { 
			"-0.025": 0.0,
			"-0.024": 0.0,
			"-0.023": 0.0,
			"-0.022": 0.0,
			"-0.021": 0.0,
			"-0.02": 0.0,
			"-0.019": 0.0,
			"-0.018": 0.0,
			"-0.017": 0.0,
			"-0.016": 0.0,
			"-0.015": 0.0,
			"-0.014": 0.109985195117,
			"-0.013": 0.620899969162,
			"-0.012": 0.54795549983,
			"-0.011": 1.26211326751,
			"-0.01": 1.56137311293,
			"-0.009": 1.96597810729,
			"-0.008": 3.7481265965,
			"-0.007": 9.88002616343,
			"-0.006": 19.4697243844,
			"-0.005": 26.7757473971,
			"-0.004": 26.3771546492,
			"-0.003": 24.7315870482,
			"-0.002": 17.4521013069,
			"-0.001": 17.38970112,
			"0.0": 15.6017216602,
			"0.001": 15.7865417857,
			"0.002": 16.8622552305,
			"0.003": 16.0345631773,
			"0.004": 17.2575148711,
			"0.005": 19.7327184622,
			"0.006": 12.3874541891,
			"0.007": 3.10341578477,
			"0.008": 2.75693159592,
			"0.009": 1.94629863995,
			"0.01": 2.5823573184,
			"0.011": 3.06578799293,
			"0.012": 2.88357841441,
			"0.013": 5.09026632767,
			"0.014": 4.71423771014,
			"0.015": 1.08758574118,
			"0.016": 0.0,
			"0.017": 0.0,
			"0.018": 0.0,
			"0.019": 0.0,
			"0.02": 0.0,
			"0.021": 0.0,
			"0.022": 0.0,
			"0.023": 0.0,
			"0.024": 0.0,
			"0.025": 0.0
		}
	}
}
