{
	 "smiles": "CC1=C2C=C(CO)NC2=CC=C1", 
	 "Tm": 345.15, 
	 "num_atms": 23, 
	 "gaussian": { 
		 "optdone": 1, 
		 "sigma_profile": "yes", 
		 "theory": "DFT", 
		 "functional": "B3LYP", 
		 "basiset": "6-31G**", 
		 "properties": { 
			 "R2extent": 2696.6116, 
			 "electric_dipole_moment_norm": 1.01931834576, 
			 "electric_quadrupole_moment_norm": 6.00190114297, 
			 "total_energy": -517.673596655, 
			 "HOMO_LUMO_gap": 0.18832, 
			 "cosmo_polarized_energy": -10.34, 
			 "cosmo_cavitation_energy": 26.3, 
			 "cosmo_dispersion_energy": -19.42, 
			 "cosmo_repulsion_energy": 1.56, 
			 "cosmo_total_nonelectrostatic_energy": 8.43, 
			 "SMD_solvation_energy": 4.16 
		},
		"coords": [
			{
				"x": -2.8529628663,
				"y": 0.0210024066,
				"z": -1.5987386762,
				"element": "C" 
			},
			{
				"x": -2.2808924493,
				"y": -0.6058364478,
				"z": -0.3524364239,
				"element": "C" 
			},
			{
				"x": -1.1734296148,
				"y": -0.0232171356,
				"z": 0.3044491513,
				"element": "C" 
			},
			{
				"x": -0.3816823124,
				"y": 1.1515293844,
				"z": 0.0597512824,
				"element": "C" 
			},
			{
				"x": 0.5737481483,
				"y": 1.2158514441,
				"z": 1.0451606759,
				"element": "C" 
			},
			{
				"x": 1.6849891602,
				"y": 2.1886431622,
				"z": 1.2872846446,
				"element": "C" 
			},
			{
				"x": 1.8241237784,
				"y": 2.5168224003,
				"z": 2.6708260448,
				"element": "O" 
			},
			{
				"x": 0.4201305683,
				"y": 0.1322516541,
				"z": 1.8932152115,
				"element": "N" 
			},
			{
				"x": -0.6482672366,
				"y": -0.6348586921,
				"z": 1.476650124,
				"element": "C" 
			},
			{
				"x": -1.1947761288,
				"y": -1.8015149998,
				"z": 2.0239281357,
				"element": "C" 
			},
			{
				"x": -2.283474611,
				"y": -2.3572058486,
				"z": 1.3649387514,
				"element": "C" 
			},
			{
				"x": -2.8135103517,
				"y": -1.7684824539,
				"z": 0.1978793766,
				"element": "C" 
			},
			{
				"x": -3.196312314,
				"y": 1.0456751667,
				"z": -1.4099239212,
				"element": "H" 
			},
			{
				"x": -2.1033688269,
				"y": 0.0792942454,
				"z": -2.3975011625,
				"element": "H" 
			},
			{
				"x": -3.7031757863,
				"y": -0.5524119485,
				"z": -1.9780629475,
				"element": "H" 
			},
			{
				"x": -0.4962737663,
				"y": 1.8593310292,
				"z": -0.7494557077,
				"element": "H" 
			},
			{
				"x": 2.6529856554,
				"y": 1.7559511777,
				"z": 1.00624021,
				"element": "H" 
			},
			{
				"x": 1.5328619304,
				"y": 3.0786121533,
				"z": 0.6606082757,
				"element": "H" 
			},
			{
				"x": 0.9956491613,
				"y": 2.9283497989,
				"z": 2.9526229108,
				"element": "H" 
			},
			{
				"x": 0.946252496,
				"y": 0.0197535546,
				"z": 2.7455977096,
				"element": "H" 
			},
			{
				"x": -0.7836469902,
				"y": -2.2551102816,
				"z": 2.9212007796,
				"element": "H" 
			},
			{
				"x": -2.7368912858,
				"y": -3.2647429936,
				"z": 1.7530763163,
				"element": "H" 
			},
			{
				"x": -3.6656763582,
				"y": -2.2380867762,
				"z": -0.2870107613,
				"element": "H" 
			}
		],
		 "valence_orbital": [ 
			{
				"type": "occ",
				"energy": -0.31825,
				"method": "rhf"
			},
			{
				"type": "occ",
				"energy": -0.28534,
				"method": "rhf"
			},
			{
				"type": "occ",
				"energy": -0.26535,
				"method": "rhf"
			},
			{
				"type": "occ",
				"energy": -0.21296,
				"method": "rhf"
			},
			{
				"type": "occ",
				"energy": -0.19622,
				"method": "rhf"
			},
			{
				"type": "unocc",
				"energy": -0.0079,
				"method": "rhf"
			},
			{
				"type": "unocc",
				"energy": 0.03467,
				"method": "rhf"
			},
			{
				"type": "unocc",
				"energy": 0.0602,
				"method": "rhf"
			},
			{
				"type": "unocc",
				"energy": 0.08201,
				"method": "rhf"
			},
			{
				"type": "unocc",
				"energy": 0.10383,
				"method": "rhf"
			}
		],
		"cosmo_sigma_profile": { 
			"-0.025": 0.0,
			"-0.024": 0.0,
			"-0.023": 0.0,
			"-0.022": 0.0,
			"-0.021": 0.0,
			"-0.02": 0.0,
			"-0.019": 0.0,
			"-0.018": 0.0,
			"-0.017": 0.0,
			"-0.016": 0.450143125147,
			"-0.015": 1.12276003959,
			"-0.014": 1.94270158628,
			"-0.013": 1.25885152438,
			"-0.012": 2.21537756136,
			"-0.011": 1.16795775617,
			"-0.01": 1.13531719628,
			"-0.009": 2.00458597842,
			"-0.008": 2.64468415157,
			"-0.007": 2.50127489726,
			"-0.006": 3.82881179928,
			"-0.005": 11.7090806796,
			"-0.004": 17.2251429352,
			"-0.003": 20.4325082031,
			"-0.002": 18.9267995631,
			"-0.001": 15.9109726638,
			"0.0": 14.8048638773,
			"0.001": 12.4293826054,
			"0.002": 9.12125434036,
			"0.003": 8.47659880928,
			"0.004": 9.55746623393,
			"0.005": 12.785381594,
			"0.006": 13.0202970922,
			"0.007": 11.5725421866,
			"0.008": 4.25427285871,
			"0.009": 0.774176098335,
			"0.01": 1.23039498575,
			"0.011": 1.06856844914,
			"0.012": 1.44862395117,
			"0.013": 1.48197292641,
			"0.014": 1.40904440915,
			"0.015": 0.00328359481012,
			"0.016": 0.0,
			"0.017": 0.0,
			"0.018": 0.0,
			"0.019": 0.0,
			"0.02": 0.0,
			"0.021": 0.0,
			"0.022": 0.0,
			"0.023": 0.0,
			"0.024": 0.0,
			"0.025": 0.0
		}
	}
}
