{
	 "smiles": "OC(=O)C1=C(C=NC=C1)N1CCOCC1", 
	 "Tm": 475.15, 
	 "num_atms": 27, 
	 "gaussian": { 
		 "optdone": 1, 
		 "sigma_profile": "yes", 
		 "theory": "DFT", 
		 "functional": "B3LYP", 
		 "basiset": "6-31G**", 
		 "properties": { 
			 "R2extent": 3763.8331, 
			 "electric_dipole_moment_norm": 2.35359950714, 
			 "electric_quadrupole_moment_norm": 10.0318525562, 
			 "total_energy": -723.442736169, 
			 "HOMO_LUMO_gap": 0.15644, 
			 "cosmo_polarized_energy": -15.16, 
			 "cosmo_cavitation_energy": 29.28, 
			 "cosmo_dispersion_energy": -21.7, 
			 "cosmo_repulsion_energy": 1.68, 
			 "cosmo_total_nonelectrostatic_energy": 9.26, 
			 "SMD_solvation_energy": 3.77 
		},
		"coords": [
			{
				"x": -2.8814000003,
				"y": -0.735856715,
				"z": 0.7751482592,
				"element": "O" 
			},
			{
				"x": -2.8582201351,
				"y": 0.309154054,
				"z": 1.6413638821,
				"element": "C" 
			},
			{
				"x": -3.8704149895,
				"y": 0.9173421294,
				"z": 1.9297722809,
				"element": "O" 
			},
			{
				"x": -1.5266600838,
				"y": 0.5427557694,
				"z": 2.2700175429,
				"element": "C" 
			},
			{
				"x": -0.2539234765,
				"y": 0.2602918496,
				"z": 1.7032685537,
				"element": "C" 
			},
			{
				"x": 0.8461637895,
				"y": 0.3190689416,
				"z": 2.6022322668,
				"element": "C" 
			},
			{
				"x": 0.7726459812,
				"y": 0.6908819858,
				"z": 3.875357713,
				"element": "N" 
			},
			{
				"x": -0.4245223396,
				"y": 1.0520179749,
				"z": 4.3615261628,
				"element": "C" 
			},
			{
				"x": -1.5811941065,
				"y": 0.9872174058,
				"z": 3.5994812552,
				"element": "C" 
			},
			{
				"x": -0.0485998621,
				"y": -0.0372485261,
				"z": 0.366382929,
				"element": "N" 
			},
			{
				"x": -0.8291271905,
				"y": 0.6097359108,
				"z": -0.6993245635,
				"element": "C" 
			},
			{
				"x": 0.0997824726,
				"y": 1.1128889224,
				"z": -1.8027194232,
				"element": "C" 
			},
			{
				"x": 0.8498530568,
				"y": 0.0628442581,
				"z": -2.4064897985,
				"element": "O" 
			},
			{
				"x": 1.1422891243,
				"y": -1.0180542964,
				"z": -1.5260353175,
				"element": "C" 
			},
			{
				"x": 1.2412477235,
				"y": -0.5792294113,
				"z": -0.0685215457,
				"element": "C" 
			},
			{
				"x": -3.8098624444,
				"y": -0.8157108017,
				"z": 0.4974838847,
				"element": "H" 
			},
			{
				"x": 1.8400706096,
				"y": 0.0603820443,
				"z": 2.2506268082,
				"element": "H" 
			},
			{
				"x": -0.4521083928,
				"y": 1.3858544388,
				"z": 5.3956705229,
				"element": "H" 
			},
			{
				"x": -2.5484455825,
				"y": 1.2356694442,
				"z": 4.0220977955,
				"element": "H" 
			},
			{
				"x": -1.5681113765,
				"y": -0.0795998765,
				"z": -1.1209000669,
				"element": "H" 
			},
			{
				"x": -1.3768472542,
				"y": 1.4603164849,
				"z": -0.2798197796,
				"element": "H" 
			},
			{
				"x": -0.4924596018,
				"y": 1.578875033,
				"z": -2.5973209613,
				"element": "H" 
			},
			{
				"x": 0.7767736521,
				"y": 1.8803501638,
				"z": -1.3963664826,
				"element": "H" 
			},
			{
				"x": 0.3756950625,
				"y": -1.8025855154,
				"z": -1.6168035479,
				"element": "H" 
			},
			{
				"x": 2.0983056976,
				"y": -1.4436609995,
				"z": -1.8475117885,
				"element": "H" 
			},
			{
				"x": 1.5003846999,
				"y": -1.4451573846,
				"z": 0.5508096731,
				"element": "H" 
			},
			{
				"x": 2.0576849663,
				"y": 0.1540567154,
				"z": 0.0313737452,
				"element": "H" 
			}
		],
		 "valence_orbital": [ 
			{
				"type": "occ",
				"energy": -0.28947,
				"method": "rhf"
			},
			{
				"type": "occ",
				"energy": -0.27456,
				"method": "rhf"
			},
			{
				"type": "occ",
				"energy": -0.26017,
				"method": "rhf"
			},
			{
				"type": "occ",
				"energy": -0.25564,
				"method": "rhf"
			},
			{
				"type": "occ",
				"energy": -0.21115,
				"method": "rhf"
			},
			{
				"type": "unocc",
				"energy": -0.05471,
				"method": "rhf"
			},
			{
				"type": "unocc",
				"energy": -0.00564,
				"method": "rhf"
			},
			{
				"type": "unocc",
				"energy": 0.03446,
				"method": "rhf"
			},
			{
				"type": "unocc",
				"energy": 0.0691,
				"method": "rhf"
			},
			{
				"type": "unocc",
				"energy": 0.0771,
				"method": "rhf"
			}
		],
		"cosmo_sigma_profile": { 
			"-0.025": 0.0,
			"-0.024": 0.0,
			"-0.023": 0.0,
			"-0.022": 0.0,
			"-0.021": 0.0,
			"-0.02": 0.0,
			"-0.019": 0.0160030175056,
			"-0.018": 0.582292574521,
			"-0.017": 1.10798218414,
			"-0.016": 0.884407365133,
			"-0.015": 0.577040657044,
			"-0.014": 0.71144513888,
			"-0.013": 0.775021620941,
			"-0.012": 0.558763511939,
			"-0.011": 0.895018656073,
			"-0.01": 0.953432914929,
			"-0.009": 0.379709101587,
			"-0.008": 0.776586482861,
			"-0.007": 3.16884055233,
			"-0.006": 15.4051022287,
			"-0.005": 24.6954174765,
			"-0.004": 28.7734681433,
			"-0.003": 20.2183550986,
			"-0.002": 16.0035502254,
			"-0.001": 10.9116425598,
			"0.0": 9.36996571231,
			"0.001": 13.6408886025,
			"0.002": 13.148035857,
			"0.003": 10.2281056944,
			"0.004": 6.94160607307,
			"0.005": 7.21304603163,
			"0.006": 4.57971788123,
			"0.007": 4.12952820921,
			"0.008": 6.432478819,
			"0.009": 4.7034413805,
			"0.01": 4.8697787762,
			"0.011": 6.43987077633,
			"0.012": 5.85156107196,
			"0.013": 3.22438478587,
			"0.014": 1.42385295663,
			"0.015": 0.481090064978,
			"0.016": 1.09332510964,
			"0.017": 0.0612389695294,
			"0.018": 0.0,
			"0.019": 0.0,
			"0.02": 0.0,
			"0.021": 0.0,
			"0.022": 0.0,
			"0.023": 0.0,
			"0.024": 0.0,
			"0.025": 0.0
		}
	}
}
