{
	 "smiles": "CS(=O)(=O)C1=CC=C(C=C1)C(N)=O", 
	 "Tm": 500.15, 
	 "num_atms": 22, 
	 "gaussian": { 
		 "optdone": 1, 
		 "sigma_profile": "yes", 
		 "theory": "DFT", 
		 "functional": "B3LYP", 
		 "basiset": "6-31G**", 
		 "properties": { 
			 "R2extent": 4135.3972, 
			 "electric_dipole_moment_norm": 6.2583046658, 
			 "electric_quadrupole_moment_norm": 20.9603178666, 
			 "total_energy": -988.83916878, 
			 "HOMO_LUMO_gap": 0.19659, 
			 "cosmo_polarized_energy": -23.29, 
			 "cosmo_cavitation_energy": 27.97, 
			 "cosmo_dispersion_energy": -20.83, 
			 "cosmo_repulsion_energy": 1.6, 
			 "cosmo_total_nonelectrostatic_energy": 8.74, 
			 "SMD_solvation_energy": 5.37 
		},
		"coords": [
			{
				"x": -0.8462072526,
				"y": 3.1618810218,
				"z": -1.0827778344,
				"element": "C" 
			},
			{
				"x": 0.5826714125,
				"y": 2.1578266773,
				"z": -1.5555818448,
				"element": "S" 
			},
			{
				"x": 1.6212997233,
				"y": 2.3595219686,
				"z": -0.5345188342,
				"element": "O" 
			},
			{
				"x": 0.8493372959,
				"y": 2.4106560592,
				"z": -2.9799436018,
				"element": "O" 
			},
			{
				"x": -0.0245904631,
				"y": 0.4663635194,
				"z": -1.4016598622,
				"element": "C" 
			},
			{
				"x": 0.0692750327,
				"y": -0.1869044541,
				"z": -0.1703879909,
				"element": "C" 
			},
			{
				"x": -0.4062753564,
				"y": -1.4903436356,
				"z": -0.0602230284,
				"element": "C" 
			},
			{
				"x": -0.9753172447,
				"y": -2.1354470636,
				"z": -1.1665867694,
				"element": "C" 
			},
			{
				"x": -1.0330412527,
				"y": -1.47299791,
				"z": -2.4009683845,
				"element": "C" 
			},
			{
				"x": -0.5570664719,
				"y": -0.1682371491,
				"z": -2.5242431602,
				"element": "C" 
			},
			{
				"x": -1.4658525769,
				"y": -3.5454278198,
				"z": -0.9587903829,
				"element": "C" 
			},
			{
				"x": -2.3185439202,
				"y": -4.0405532246,
				"z": -1.9128702274,
				"element": "N" 
			},
			{
				"x": -1.1043928068,
				"y": -4.2139806398,
				"z": 0.0004635252,
				"element": "O" 
			},
			{
				"x": -1.6674343305,
				"y": 2.9673312936,
				"z": -1.7738902508,
				"element": "H" 
			},
			{
				"x": -1.1284414274,
				"y": 2.9257930391,
				"z": -0.0558899979,
				"element": "H" 
			},
			{
				"x": -0.5240162973,
				"y": 4.2025635787,
				"z": -1.1584178205,
				"element": "H" 
			},
			{
				"x": 0.5293740389,
				"y": 0.315397887,
				"z": 0.6740833669,
				"element": "H" 
			},
			{
				"x": -0.338673159,
				"y": -2.0376246351,
				"z": 0.8736175824,
				"element": "H" 
			},
			{
				"x": -1.4103852678,
				"y": -1.9819143604,
				"z": -3.2826762832,
				"element": "H" 
			},
			{
				"x": -0.5687227588,
				"y": 0.3470947593,
				"z": -3.4787147243,
				"element": "H" 
			},
			{
				"x": -2.8485531258,
				"y": -3.4233572259,
				"z": -2.5073775555,
				"element": "H" 
			},
			{
				"x": -2.7216437914,
				"y": -4.9441416862,
				"z": -1.7106459209,
				"element": "H" 
			}
		],
		 "valence_orbital": [ 
			{
				"type": "occ",
				"energy": -0.29446,
				"method": "rhf"
			},
			{
				"type": "occ",
				"energy": -0.28702,
				"method": "rhf"
			},
			{
				"type": "occ",
				"energy": -0.2827,
				"method": "rhf"
			},
			{
				"type": "occ",
				"energy": -0.28069,
				"method": "rhf"
			},
			{
				"type": "occ",
				"energy": -0.26443,
				"method": "rhf"
			},
			{
				"type": "unocc",
				"energy": -0.06784,
				"method": "rhf"
			},
			{
				"type": "unocc",
				"energy": -0.03246,
				"method": "rhf"
			},
			{
				"type": "unocc",
				"energy": 0.02747,
				"method": "rhf"
			},
			{
				"type": "unocc",
				"energy": 0.05457,
				"method": "rhf"
			},
			{
				"type": "unocc",
				"energy": 0.07342,
				"method": "rhf"
			}
		],
		"cosmo_sigma_profile": { 
			"-0.025": 0.0,
			"-0.024": 0.0,
			"-0.023": 0.0,
			"-0.022": 0.0,
			"-0.021": 0.0,
			"-0.02": 0.0,
			"-0.019": 0.0,
			"-0.018": 0.0,
			"-0.017": 0.0,
			"-0.016": 0.0,
			"-0.015": 0.547798794788,
			"-0.014": 2.10603635047,
			"-0.013": 3.05121168808,
			"-0.012": 2.15719215363,
			"-0.011": 2.94549399142,
			"-0.01": 2.73699573643,
			"-0.009": 4.92146128219,
			"-0.008": 10.588034061,
			"-0.007": 11.8563947801,
			"-0.006": 14.9040158716,
			"-0.005": 12.1664154217,
			"-0.004": 13.6168602596,
			"-0.003": 11.1917205957,
			"-0.002": 9.61614149045,
			"-0.001": 11.1810908333,
			"0.0": 11.6293309455,
			"0.001": 17.1347968379,
			"0.002": 13.305614939,
			"0.003": 5.14634645264,
			"0.004": 5.35512894867,
			"0.005": 4.13598926027,
			"0.006": 3.7526272754,
			"0.007": 5.27901124486,
			"0.008": 3.74680818687,
			"0.009": 4.65538138448,
			"0.01": 7.04316127467,
			"0.011": 10.1453631488,
			"0.012": 10.5428410808,
			"0.013": 5.92501997888,
			"0.014": 1.65947455668,
			"0.015": 0.00545658409778,
			"0.016": 0.0,
			"0.017": 0.0,
			"0.018": 0.0,
			"0.019": 0.0,
			"0.02": 0.0,
			"0.021": 0.0,
			"0.022": 0.0,
			"0.023": 0.0,
			"0.024": 0.0,
			"0.025": 0.0
		}
	}
}
