{
	 "smiles": "CN(C(C)=O)C1=CC=C(C=C1)S(Cl)(=O)=O", 
	 "Tm": 407.15, 
	 "num_atms": 25, 
	 "gaussian": { 
		 "optdone": 1, 
		 "sigma_profile": "yes", 
		 "theory": "DFT", 
		 "functional": "B3LYP", 
		 "basiset": "6-31G**", 
		 "properties": { 
			 "R2extent": 5482.2562, 
			 "electric_dipole_moment_norm": 3.16567548242, 
			 "electric_quadrupole_moment_norm": 26.4200758036, 
			 "total_energy": -1487.72934158, 
			 "HOMO_LUMO_gap": 0.1593, 
			 "cosmo_polarized_energy": -15.34, 
			 "cosmo_cavitation_energy": 32.4, 
			 "cosmo_dispersion_energy": -23.65, 
			 "cosmo_repulsion_energy": 1.81, 
			 "cosmo_total_nonelectrostatic_energy": 10.57, 
			 "SMD_solvation_energy": 5.08 
		},
		"coords": [
			{
				"x": -2.9188720761,
				"y": -0.4202152016,
				"z": -1.5667584512,
				"element": "C" 
			},
			{
				"x": -1.5948945671,
				"y": -1.0555881698,
				"z": -1.49365261,
				"element": "N" 
			},
			{
				"x": -1.3757440126,
				"y": -2.1261273643,
				"z": -2.3684014834,
				"element": "C" 
			},
			{
				"x": -0.1211340447,
				"y": -2.9692646408,
				"z": -2.2126009781,
				"element": "C" 
			},
			{
				"x": -2.2073120498,
				"y": -2.3979963163,
				"z": -3.2210466865,
				"element": "O" 
			},
			{
				"x": -0.6996156765,
				"y": -0.6169095009,
				"z": -0.4929298125,
				"element": "C" 
			},
			{
				"x": -1.1773355449,
				"y": -0.3583077345,
				"z": 0.8057598315,
				"element": "C" 
			},
			{
				"x": -0.3229126086,
				"y": 0.107592615,
				"z": 1.7978668231,
				"element": "C" 
			},
			{
				"x": 1.0229042512,
				"y": 0.3106059158,
				"z": 1.4875869597,
				"element": "C" 
			},
			{
				"x": 1.5230160488,
				"y": 0.0759017,
				"z": 0.2058318772,
				"element": "C" 
			},
			{
				"x": 0.6558767435,
				"y": -0.3760905708,
				"z": -0.7821114934,
				"element": "C" 
			},
			{
				"x": 2.1288580418,
				"y": 0.8866922152,
				"z": 2.7580085071,
				"element": "S" 
			},
			{
				"x": 1.9748765568,
				"y": 3.0074819746,
				"z": 2.532232748,
				"element": "Cl" 
			},
			{
				"x": 3.4990189973,
				"y": 0.5437608587,
				"z": 2.3979533698,
				"element": "O" 
			},
			{
				"x": 1.5637621072,
				"y": 0.5806919794,
				"z": 4.0662942883,
				"element": "O" 
			},
			{
				"x": -3.6564657823,
				"y": -0.9423457884,
				"z": -0.9462116162,
				"element": "H" 
			},
			{
				"x": -2.8398798969,
				"y": 0.6178814472,
				"z": -1.2406635318,
				"element": "H" 
			},
			{
				"x": -3.256953651,
				"y": -0.4641022149,
				"z": -2.6009292729,
				"element": "H" 
			},
			{
				"x": -0.3761916869,
				"y": -3.9717854769,
				"z": -2.5584423074,
				"element": "H" 
			},
			{
				"x": 0.2592665817,
				"y": -3.014272196,
				"z": -1.191045213,
				"element": "H" 
			},
			{
				"x": 0.6762480343,
				"y": -2.5923406422,
				"z": -2.8610845593,
				"element": "H" 
			},
			{
				"x": -2.2193308937,
				"y": -0.5422839055,
				"z": 1.0421073923,
				"element": "H" 
			},
			{
				"x": -0.6849445696,
				"y": 0.2901502157,
				"z": 2.8034083985,
				"element": "H" 
			},
			{
				"x": 2.5688885205,
				"y": 0.2578214952,
				"z": -0.0145167213,
				"element": "H" 
			},
			{
				"x": 1.0238711776,
				"y": -0.5197506937,
				"z": -1.7907554584,
				"element": "H" 
			}
		],
		 "valence_orbital": [ 
			{
				"type": "occ",
				"energy": -0.31491,
				"method": "rhf"
			},
			{
				"type": "occ",
				"energy": -0.3136,
				"method": "rhf"
			},
			{
				"type": "occ",
				"energy": -0.29675,
				"method": "rhf"
			},
			{
				"type": "occ",
				"energy": -0.27172,
				"method": "rhf"
			},
			{
				"type": "occ",
				"energy": -0.25302,
				"method": "rhf"
			},
			{
				"type": "unocc",
				"energy": -0.09372,
				"method": "rhf"
			},
			{
				"type": "unocc",
				"energy": -0.05144,
				"method": "rhf"
			},
			{
				"type": "unocc",
				"energy": -0.04626,
				"method": "rhf"
			},
			{
				"type": "unocc",
				"energy": 0.00567,
				"method": "rhf"
			},
			{
				"type": "unocc",
				"energy": 0.04775,
				"method": "rhf"
			}
		],
		"cosmo_sigma_profile": { 
			"-0.025": 0.0,
			"-0.024": 0.0,
			"-0.023": 0.0,
			"-0.022": 0.0,
			"-0.021": 0.0,
			"-0.02": 0.0,
			"-0.019": 0.0,
			"-0.018": 0.0,
			"-0.017": 0.0,
			"-0.016": 0.0,
			"-0.015": 0.0,
			"-0.014": 0.0,
			"-0.013": 0.0,
			"-0.012": 0.0,
			"-0.011": 0.0,
			"-0.01": 0.126758710144,
			"-0.009": 2.82211308674,
			"-0.008": 8.46397884289,
			"-0.007": 9.93438231358,
			"-0.006": 12.9614091897,
			"-0.005": 16.9357567691,
			"-0.004": 20.2022956622,
			"-0.003": 20.7273067325,
			"-0.002": 24.1339227847,
			"-0.001": 21.4167484438,
			"0.0": 20.2405166702,
			"0.001": 17.6542661183,
			"0.002": 11.3156586582,
			"0.003": 13.9957096572,
			"0.004": 13.4130596505,
			"0.005": 4.69931814405,
			"0.006": 5.16411826684,
			"0.007": 7.23346237103,
			"0.008": 11.0486686031,
			"0.009": 6.32053337265,
			"0.01": 1.59767719676,
			"0.011": 1.95153118274,
			"0.012": 2.95666841216,
			"0.013": 4.33458073221,
			"0.014": 1.48727665173,
			"0.015": 0.0338603990191,
			"0.016": 0.0,
			"0.017": 0.0,
			"0.018": 0.0,
			"0.019": 0.0,
			"0.02": 0.0,
			"0.021": 0.0,
			"0.022": 0.0,
			"0.023": 0.0,
			"0.024": 0.0,
			"0.025": 0.0
		}
	}
}
