{
	 "smiles": "FC(F)(F)COC1=C(C=C(Cl)C=C1)C#N", 
	 "Tm": 340.15, 
	 "num_atms": 20, 
	 "gaussian": { 
		 "optdone": 1, 
		 "sigma_profile": "yes", 
		 "theory": "DFT", 
		 "functional": "B3LYP", 
		 "basiset": "6-31G**", 
		 "properties": { 
			 "R2extent": 4609.9756, 
			 "electric_dipole_moment_norm": 4.3192853344, 
			 "electric_quadrupole_moment_norm": 9.30270736775, 
			 "total_energy": -1235.63135829, 
			 "HOMO_LUMO_gap": 0.18658, 
			 "cosmo_polarized_energy": -12.2, 
			 "cosmo_cavitation_energy": 29.3, 
			 "cosmo_dispersion_energy": -20.27, 
			 "cosmo_repulsion_energy": 1.55, 
			 "cosmo_total_nonelectrostatic_energy": 10.58, 
			 "SMD_solvation_energy": 7.49 
		},
		"coords": [
			{
				"x": -1.0119110729,
				"y": -0.7716587381,
				"z": 4.0581161931,
				"element": "F" 
			},
			{
				"x": -0.3475335401,
				"y": -0.4459726855,
				"z": 2.9295302881,
				"element": "C" 
			},
			{
				"x": -0.4714314105,
				"y": 0.8878132241,
				"z": 2.7488999564,
				"element": "F" 
			},
			{
				"x": 0.9524037458,
				"y": -0.7147475994,
				"z": 3.1091642968,
				"element": "F" 
			},
			{
				"x": -0.9324562544,
				"y": -1.2423888505,
				"z": 1.7692682709,
				"element": "C" 
			},
			{
				"x": -0.2159048241,
				"y": -1.0413538189,
				"z": 0.5663020143,
				"element": "O" 
			},
			{
				"x": -0.6608432184,
				"y": -0.1562790189,
				"z": -0.3719991161,
				"element": "C" 
			},
			{
				"x": -0.1653660084,
				"y": -0.362037402,
				"z": -1.6788223642,
				"element": "C" 
			},
			{
				"x": -0.5497371289,
				"y": 0.4955516462,
				"z": -2.7198456672,
				"element": "C" 
			},
			{
				"x": -1.4297981726,
				"y": 1.5404331988,
				"z": -2.459167239,
				"element": "C" 
			},
			{
				"x": -1.9177663775,
				"y": 2.6073487322,
				"z": -3.7612052766,
				"element": "Cl" 
			},
			{
				"x": -1.9210472021,
				"y": 1.7487231907,
				"z": -1.1709597293,
				"element": "C" 
			},
			{
				"x": -1.5335776668,
				"y": 0.9068237141,
				"z": -0.1285014201,
				"element": "C" 
			},
			{
				"x": 0.7211367326,
				"y": -1.4534449729,
				"z": -1.9493069587,
				"element": "C" 
			},
			{
				"x": 1.4367377843,
				"y": -2.3352989511,
				"z": -2.1993559752,
				"element": "N" 
			},
			{
				"x": -0.8325088981,
				"y": -2.3014908472,
				"z": 2.0191968197,
				"element": "H" 
			},
			{
				"x": -1.9949248696,
				"y": -0.9999537183,
				"z": 1.6689044019,
				"element": "H" 
			},
			{
				"x": -0.1653207467,
				"y": 0.331168864,
				"z": -3.7193247048,
				"element": "H" 
			},
			{
				"x": -2.5951874422,
				"y": 2.5752194282,
				"z": -0.9758181579,
				"element": "H" 
			},
			{
				"x": -1.8843634292,
				"y": 1.1117446043,
				"z": 0.874124368,
				"element": "H" 
			}
		],
		 "valence_orbital": [ 
			{
				"type": "occ",
				"energy": -0.33787,
				"method": "rhf"
			},
			{
				"type": "occ",
				"energy": -0.32919,
				"method": "rhf"
			},
			{
				"type": "occ",
				"energy": -0.32777,
				"method": "rhf"
			},
			{
				"type": "occ",
				"energy": -0.2848,
				"method": "rhf"
			},
			{
				"type": "occ",
				"energy": -0.25237,
				"method": "rhf"
			},
			{
				"type": "unocc",
				"energy": -0.06579,
				"method": "rhf"
			},
			{
				"type": "unocc",
				"energy": -0.03217,
				"method": "rhf"
			},
			{
				"type": "unocc",
				"energy": 0.00915,
				"method": "rhf"
			},
			{
				"type": "unocc",
				"energy": 0.02939,
				"method": "rhf"
			},
			{
				"type": "unocc",
				"energy": 0.05987,
				"method": "rhf"
			}
		],
		"cosmo_sigma_profile": { 
			"-0.025": 0.0,
			"-0.024": 0.0,
			"-0.023": 0.0,
			"-0.022": 0.0,
			"-0.021": 0.0,
			"-0.02": 0.0,
			"-0.019": 0.0,
			"-0.018": 0.0,
			"-0.017": 0.0,
			"-0.016": 0.0,
			"-0.015": 0.0,
			"-0.014": 0.0,
			"-0.013": 0.0,
			"-0.012": 0.188280397651,
			"-0.011": 1.15477107047,
			"-0.01": 3.99081795015,
			"-0.009": 7.49649440418,
			"-0.008": 9.69423433534,
			"-0.007": 9.04432964493,
			"-0.006": 7.59436115597,
			"-0.005": 7.10445072545,
			"-0.004": 6.47644485401,
			"-0.003": 8.76421078344,
			"-0.002": 15.6394858815,
			"-0.001": 19.3934300686,
			"0.0": 21.9988332722,
			"0.001": 25.0448134601,
			"0.002": 32.9109971347,
			"0.003": 20.1612958498,
			"0.004": 12.9547928362,
			"0.005": 4.99044913351,
			"0.006": 4.17105707423,
			"0.007": 4.69343664418,
			"0.008": 3.44545490592,
			"0.009": 3.40241139562,
			"0.01": 3.16250450062,
			"0.011": 2.55012846822,
			"0.012": 2.38857290161,
			"0.013": 0.895348004385,
			"0.014": 0.0,
			"0.015": 0.0,
			"0.016": 0.0,
			"0.017": 0.0,
			"0.018": 0.0,
			"0.019": 0.0,
			"0.02": 0.0,
			"0.021": 0.0,
			"0.022": 0.0,
			"0.023": 0.0,
			"0.024": 0.0,
			"0.025": 0.0
		}
	}
}
