{
	 "smiles": "CC1=CC(C)=C(C)C(CCl)=C1C", 
	 "Tm": 343.15, 
	 "num_atms": 27, 
	 "gaussian": { 
		 "optdone": 1, 
		 "sigma_profile": "yes", 
		 "theory": "DFT", 
		 "functional": "B3LYP", 
		 "basiset": "6-31G**", 
		 "properties": { 
			 "R2extent": 3453.7826, 
			 "electric_dipole_moment_norm": 2.45098918194, 
			 "electric_quadrupole_moment_norm": 12.9513392435, 
			 "total_energy": -888.43299659, 
			 "HOMO_LUMO_gap": 0.20321, 
			 "cosmo_polarized_energy": -5.81, 
			 "cosmo_cavitation_energy": 29.53, 
			 "cosmo_dispersion_energy": -21.44, 
			 "cosmo_repulsion_energy": 1.69, 
			 "cosmo_total_nonelectrostatic_energy": 9.79, 
			 "SMD_solvation_energy": 4.63 
		},
		"coords": [
			{
				"x": 1.9004389838,
				"y": 0.3465951978,
				"z": 3.2473964322,
				"element": "C" 
			},
			{
				"x": 1.0006983843,
				"y": -0.025476259,
				"z": 2.0890637106,
				"element": "C" 
			},
			{
				"x": 1.5078585674,
				"y": 0.0255350834,
				"z": 0.7884886587,
				"element": "C" 
			},
			{
				"x": 0.7514743806,
				"y": -0.3088516671,
				"z": -0.3372942669,
				"element": "C" 
			},
			{
				"x": 1.3916411373,
				"y": -0.2318394886,
				"z": -1.7062276107,
				"element": "C" 
			},
			{
				"x": -0.5870474835,
				"y": -0.7040564193,
				"z": -0.1585103103,
				"element": "C" 
			},
			{
				"x": -1.4420707869,
				"y": -1.0900973211,
				"z": -1.3483157898,
				"element": "C" 
			},
			{
				"x": -1.1236621396,
				"y": -0.732417927,
				"z": 1.1473041734,
				"element": "C" 
			},
			{
				"x": -2.5728869438,
				"y": -1.0740392198,
				"z": 1.3360853787,
				"element": "C" 
			},
			{
				"x": -2.8656488836,
				"y": -2.8864012528,
				"z": 1.5779852218,
				"element": "Cl" 
			},
			{
				"x": -0.3368720361,
				"y": -0.4195182193,
				"z": 2.277333652,
				"element": "C" 
			},
			{
				"x": -0.9266276437,
				"y": -0.503657462,
				"z": 3.6704851245,
				"element": "C" 
			},
			{
				"x": 2.0686397767,
				"y": -0.4988863426,
				"z": 3.9253185411,
				"element": "H" 
			},
			{
				"x": 2.8786745448,
				"y": 0.6739495137,
				"z": 2.8853613455,
				"element": "H" 
			},
			{
				"x": 1.4816204652,
				"y": 1.1610006732,
				"z": 3.8494237655,
				"element": "H" 
			},
			{
				"x": 2.5412081094,
				"y": 0.3348749182,
				"z": 0.6462035943,
				"element": "H" 
			},
			{
				"x": 1.4410342366,
				"y": -1.2134442728,
				"z": -2.1927837766,
				"element": "H" 
			},
			{
				"x": 0.8411395135,
				"y": 0.4327742189,
				"z": -2.3817479361,
				"element": "H" 
			},
			{
				"x": 2.41436562,
				"y": 0.147276752,
				"z": -1.6321872919,
				"element": "H" 
			},
			{
				"x": -2.0486318444,
				"y": -1.9755011634,
				"z": -1.138954054,
				"element": "H" 
			},
			{
				"x": -0.8320572451,
				"y": -1.3160179841,
				"z": -2.2239069991,
				"element": "H" 
			},
			{
				"x": -2.1275787836,
				"y": -0.282026078,
				"z": -1.6379531835,
				"element": "H" 
			},
			{
				"x": -3.1807358198,
				"y": -0.8121272495,
				"z": 0.4731495176,
				"element": "H" 
			},
			{
				"x": -3.0012010492,
				"y": -0.6078986911,
				"z": 2.2203903372,
				"element": "H" 
			},
			{
				"x": -0.1482977889,
				"y": -0.5388019487,
				"z": 4.4338898532,
				"element": "H" 
			},
			{
				"x": -1.5582123166,
				"y": 0.3654426827,
				"z": 3.8997329781,
				"element": "H" 
			},
			{
				"x": -1.5425629549,
				"y": -1.3985900736,
				"z": 3.7945689342,
				"element": "H" 
			}
		],
		 "valence_orbital": [ 
			{
				"type": "occ",
				"energy": -0.32616,
				"method": "rhf"
			},
			{
				"type": "occ",
				"energy": -0.28772,
				"method": "rhf"
			},
			{
				"type": "occ",
				"energy": -0.28749,
				"method": "rhf"
			},
			{
				"type": "occ",
				"energy": -0.23552,
				"method": "rhf"
			},
			{
				"type": "occ",
				"energy": -0.22517,
				"method": "rhf"
			},
			{
				"type": "unocc",
				"energy": -0.02196,
				"method": "rhf"
			},
			{
				"type": "unocc",
				"energy": 0.00279,
				"method": "rhf"
			},
			{
				"type": "unocc",
				"energy": 0.04864,
				"method": "rhf"
			},
			{
				"type": "unocc",
				"energy": 0.09073,
				"method": "rhf"
			},
			{
				"type": "unocc",
				"energy": 0.10086,
				"method": "rhf"
			}
		],
		"cosmo_sigma_profile": { 
			"-0.025": 0.0,
			"-0.024": 0.0,
			"-0.023": 0.0,
			"-0.022": 0.0,
			"-0.021": 0.0,
			"-0.02": 0.0,
			"-0.019": 0.0,
			"-0.018": 0.0,
			"-0.017": 0.0,
			"-0.016": 0.0,
			"-0.015": 0.0,
			"-0.014": 0.0,
			"-0.013": 0.0,
			"-0.012": 0.0,
			"-0.011": 0.0,
			"-0.01": 0.0,
			"-0.009": 0.0,
			"-0.008": 0.0,
			"-0.007": 1.22536390414,
			"-0.006": 4.80858403867,
			"-0.005": 7.89388611812,
			"-0.004": 24.5173839734,
			"-0.003": 25.5540653432,
			"-0.002": 26.5621832559,
			"-0.001": 25.7411496521,
			"0.0": 29.2230963907,
			"0.001": 21.124600815,
			"0.002": 11.911673528,
			"0.003": 9.53924744683,
			"0.004": 10.5775886381,
			"0.005": 10.6960188726,
			"0.006": 15.5223813034,
			"0.007": 8.53575130449,
			"0.008": 0.601350908237,
			"0.009": 0.0,
			"0.01": 0.0,
			"0.011": 0.0,
			"0.012": 0.0,
			"0.013": 0.0,
			"0.014": 0.0,
			"0.015": 0.0,
			"0.016": 0.0,
			"0.017": 0.0,
			"0.018": 0.0,
			"0.019": 0.0,
			"0.02": 0.0,
			"0.021": 0.0,
			"0.022": 0.0,
			"0.023": 0.0,
			"0.024": 0.0,
			"0.025": 0.0
		}
	}
}
