{
	 "smiles": "ON=CC1=C(Cl)C=CC=C1", 
	 "Tm": 347.65, 
	 "num_atms": 16, 
	 "gaussian": { 
		 "optdone": 1, 
		 "sigma_profile": "yes", 
		 "theory": "DFT", 
		 "functional": "B3LYP", 
		 "basiset": "6-31G**", 
		 "properties": { 
			 "R2extent": 2078.6715, 
			 "electric_dipole_moment_norm": 2.1021493905, 
			 "electric_quadrupole_moment_norm": 9.84134647088, 
			 "total_energy": -860.462869969, 
			 "HOMO_LUMO_gap": 0.18496, 
			 "cosmo_polarized_energy": -7.28, 
			 "cosmo_cavitation_energy": 21.98, 
			 "cosmo_dispersion_energy": -16.72, 
			 "cosmo_repulsion_energy": 1.35, 
			 "cosmo_total_nonelectrostatic_energy": 6.62, 
			 "SMD_solvation_energy": 3.73 
		},
		"coords": [
			{
				"x": 0.3755863571,
				"y": 0.2655457775,
				"z": 3.5780655971,
				"element": "O" 
			},
			{
				"x": 0.1737577369,
				"y": -1.1040622688,
				"z": 3.3785172272,
				"element": "N" 
			},
			{
				"x": 0.0708745844,
				"y": -1.4630055048,
				"z": 2.1469978142,
				"element": "C" 
			},
			{
				"x": 0.1197237959,
				"y": -0.7252550507,
				"z": 0.8771311546,
				"element": "C" 
			},
			{
				"x": -0.0116138363,
				"y": -1.4254540869,
				"z": -0.345478351,
				"element": "C" 
			},
			{
				"x": -0.2304705442,
				"y": -3.1768731918,
				"z": -0.3838149637,
				"element": "Cl" 
			},
			{
				"x": 0.0248482149,
				"y": -0.7779899508,
				"z": -1.5776310155,
				"element": "C" 
			},
			{
				"x": 0.195122241,
				"y": 0.6045395052,
				"z": -1.6268843249,
				"element": "C" 
			},
			{
				"x": 0.3274772193,
				"y": 1.326907984,
				"z": -0.4414825484,
				"element": "C" 
			},
			{
				"x": 0.2906621648,
				"y": 0.6741777702,
				"z": 0.7869143741,
				"element": "C" 
			},
			{
				"x": 0.4258710516,
				"y": 0.3227112833,
				"z": 4.5412865033,
				"element": "H" 
			},
			{
				"x": -0.0823135286,
				"y": -2.5348566967,
				"z": 2.0668564969,
				"element": "H" 
			},
			{
				"x": -0.0799247172,
				"y": -1.3589163421,
				"z": -2.4870086808,
				"element": "H" 
			},
			{
				"x": 0.2233364775,
				"y": 1.1079285744,
				"z": -2.5885865804,
				"element": "H" 
			},
			{
				"x": 0.4602622988,
				"y": 2.4040706766,
				"z": -0.4696369034,
				"element": "H" 
			},
			{
				"x": 0.3935004841,
				"y": 1.2389315214,
				"z": 1.7009542009,
				"element": "H" 
			}
		],
		 "valence_orbital": [ 
			{
				"type": "occ",
				"energy": -0.31889,
				"method": "rhf"
			},
			{
				"type": "occ",
				"energy": -0.29856,
				"method": "rhf"
			},
			{
				"type": "occ",
				"energy": -0.27352,
				"method": "rhf"
			},
			{
				"type": "occ",
				"energy": -0.25539,
				"method": "rhf"
			},
			{
				"type": "occ",
				"energy": -0.23772,
				"method": "rhf"
			},
			{
				"type": "unocc",
				"energy": -0.05276,
				"method": "rhf"
			},
			{
				"type": "unocc",
				"energy": -0.01497,
				"method": "rhf"
			},
			{
				"type": "unocc",
				"energy": 0.02417,
				"method": "rhf"
			},
			{
				"type": "unocc",
				"energy": 0.04762,
				"method": "rhf"
			},
			{
				"type": "unocc",
				"energy": 0.0705,
				"method": "rhf"
			}
		],
		"cosmo_sigma_profile": { 
			"-0.025": 0.0,
			"-0.024": 0.0,
			"-0.023": 0.0,
			"-0.022": 0.0,
			"-0.021": 0.0,
			"-0.02": 0.0,
			"-0.019": 0.0,
			"-0.018": 0.531489689639,
			"-0.017": 0.998262899593,
			"-0.016": 0.904136021489,
			"-0.015": 1.07872399899,
			"-0.014": 0.60971141881,
			"-0.013": 0.666265038058,
			"-0.012": 0.502873069143,
			"-0.011": 0.48226013274,
			"-0.01": 0.769946026556,
			"-0.009": 1.01824497186,
			"-0.008": 0.874121720327,
			"-0.007": 5.26372321294,
			"-0.006": 7.66063866282,
			"-0.005": 8.99688136188,
			"-0.004": 8.51547936714,
			"-0.003": 8.55056139575,
			"-0.002": 8.9641989998,
			"-0.001": 12.5753468508,
			"0.0": 13.5136598561,
			"0.001": 19.1115839985,
			"0.002": 20.405638464,
			"0.003": 22.5101553595,
			"0.004": 15.6994910038,
			"0.005": 5.54547754408,
			"0.006": 3.60005686684,
			"0.007": 3.0997633473,
			"0.008": 1.75296733316,
			"0.009": 0.76111083531,
			"0.01": 0.990312608964,
			"0.011": 1.1100970686,
			"0.012": 0.915264629245,
			"0.013": 0.701302476219,
			"0.014": 0.104069658004,
			"0.015": 0.0,
			"0.016": 0.0,
			"0.017": 0.0,
			"0.018": 0.0,
			"0.019": 0.0,
			"0.02": 0.0,
			"0.021": 0.0,
			"0.022": 0.0,
			"0.023": 0.0,
			"0.024": 0.0,
			"0.025": 0.0
		}
	}
}
