{
	 "smiles": "CC1(C)C2CCC1(C)C(O)C2C(C1=CC=CC=C1)C1=CC=CC=C1", 
	 "Tm": 444.15, 
	 "num_atms": 52, 
	 "gaussian": { 
		 "optdone": 1, 
		 "sigma_profile": "yes", 
		 "theory": "DFT", 
		 "functional": "B3LYP", 
		 "basiset": "6-31G**", 
		 "properties": { 
			 "R2extent": 7979.3977, 
			 "electric_dipole_moment_norm": 1.40708734981, 
			 "electric_quadrupole_moment_norm": 7.29875439099, 
			 "total_energy": -968.540136938, 
			 "HOMO_LUMO_gap": 0.22202, 
			 "cosmo_polarized_energy": -9.66, 
			 "cosmo_cavitation_energy": 47.89, 
			 "cosmo_dispersion_energy": -31.96, 
			 "cosmo_repulsion_energy": 2.39, 
			 "cosmo_total_nonelectrostatic_energy": 18.33, 
			 "SMD_solvation_energy": 7.56 
		},
		"coords": [
			{
				"x": -1.9863713274,
				"y": -2.8788424834,
				"z": 1.8209041114,
				"element": "C" 
			},
			{
				"x": -2.5403158648,
				"y": -1.7918158131,
				"z": 0.8738491864,
				"element": "C" 
			},
			{
				"x": -4.0677388271,
				"y": -1.7776326304,
				"z": 1.0856352996,
				"element": "C" 
			},
			{
				"x": -1.8821091063,
				"y": -0.3709318231,
				"z": 1.0105517031,
				"element": "C" 
			},
			{
				"x": -2.5546176565,
				"y": 0.4058912221,
				"z": -0.1524374257,
				"element": "C" 
			},
			{
				"x": -2.701955821,
				"y": -0.6731652003,
				"z": -1.2658309651,
				"element": "C" 
			},
			{
				"x": -2.0833928135,
				"y": -1.9422073164,
				"z": -0.6246792879,
				"element": "C" 
			},
			{
				"x": -2.4161182107,
				"y": -3.2410021772,
				"z": -1.346419041,
				"element": "C" 
			},
			{
				"x": -0.5479369642,
				"y": -1.6281281389,
				"z": -0.5556219113,
				"element": "C" 
			},
			{
				"x": 0.3117291715,
				"y": -2.7525904139,
				"z": -0.3607494643,
				"element": "O" 
			},
			{
				"x": -0.3982647469,
				"y": -0.7022660559,
				"z": 0.6817800365,
				"element": "C" 
			},
			{
				"x": 0.7503392028,
				"y": 0.3522078367,
				"z": 0.5608943685,
				"element": "C" 
			},
			{
				"x": 1.3750543995,
				"y": 0.7505575304,
				"z": 1.903323956,
				"element": "C" 
			},
			{
				"x": 2.6812762201,
				"y": 1.2684617095,
				"z": 1.8986431723,
				"element": "C" 
			},
			{
				"x": 3.3144438402,
				"y": 1.6508583388,
				"z": 3.0784353111,
				"element": "C" 
			},
			{
				"x": 2.6507017716,
				"y": 1.5270198365,
				"z": 4.3022546367,
				"element": "C" 
			},
			{
				"x": 1.3550405848,
				"y": 1.0158650784,
				"z": 4.3252452817,
				"element": "C" 
			},
			{
				"x": 0.7246424158,
				"y": 0.6304956012,
				"z": 3.1372880653,
				"element": "C" 
			},
			{
				"x": 0.4876069271,
				"y": 1.5885146589,
				"z": -0.3018655891,
				"element": "C" 
			},
			{
				"x": 0.7899292792,
				"y": 1.57124566,
				"z": -1.6710725273,
				"element": "C" 
			},
			{
				"x": 0.5507752077,
				"y": 2.6853031997,
				"z": -2.4793006322,
				"element": "C" 
			},
			{
				"x": 0.014130433,
				"y": 3.8479436817,
				"z": -1.9267695896,
				"element": "C" 
			},
			{
				"x": -0.2715523813,
				"y": 3.8882358995,
				"z": -0.5595616762,
				"element": "C" 
			},
			{
				"x": -0.0322512607,
				"y": 2.7734222126,
				"z": 0.2429109936,
				"element": "C" 
			},
			{
				"x": -0.9584443859,
				"y": -3.1686116664,
				"z": 1.6064487485,
				"element": "H" 
			},
			{
				"x": -2.5965482855,
				"y": -3.7857122553,
				"z": 1.7410595518,
				"element": "H" 
			},
			{
				"x": -2.0475101269,
				"y": -2.5452249187,
				"z": 2.8640507378,
				"element": "H" 
			},
			{
				"x": -4.5020274646,
				"y": -2.7464544478,
				"z": 0.814646792,
				"element": "H" 
			},
			{
				"x": -4.595047617,
				"y": -1.0110839676,
				"z": 0.5160531532,
				"element": "H" 
			},
			{
				"x": -4.2936312131,
				"y": -1.6116867033,
				"z": 2.1455473908,
				"element": "H" 
			},
			{
				"x": -2.0282057176,
				"y": 0.1046778531,
				"z": 1.9849842847,
				"element": "H" 
			},
			{
				"x": -3.5276826195,
				"y": 0.7954269526,
				"z": 0.1605444737,
				"element": "H" 
			},
			{
				"x": -1.9687757394,
				"y": 1.2610605208,
				"z": -0.4806008863,
				"element": "H" 
			},
			{
				"x": -2.1804006813,
				"y": -0.3941939591,
				"z": -2.1883011074,
				"element": "H" 
			},
			{
				"x": -3.7491829455,
				"y": -0.8432689389,
				"z": -1.5355666194,
				"element": "H" 
			},
			{
				"x": -2.0768738691,
				"y": -3.212351316,
				"z": -2.3904822668,
				"element": "H" 
			},
			{
				"x": -3.4966468438,
				"y": -3.4175501543,
				"z": -1.3673959464,
				"element": "H" 
			},
			{
				"x": -1.9450833899,
				"y": -4.1026078527,
				"z": -0.8625472528,
				"element": "H" 
			},
			{
				"x": -0.2515396543,
				"y": -1.1136219822,
				"z": -1.4821215609,
				"element": "H" 
			},
			{
				"x": 0.3050673328,
				"y": -3.2786855887,
				"z": -1.1706285109,
				"element": "H" 
			},
			{
				"x": -0.040396378,
				"y": -1.3631001628,
				"z": 1.4749698762,
				"element": "H" 
			},
			{
				"x": 1.5380178847,
				"y": -0.2094901071,
				"z": 0.0403652294,
				"element": "H" 
			},
			{
				"x": 3.2044000076,
				"y": 1.3727447081,
				"z": 0.9510645413,
				"element": "H" 
			},
			{
				"x": 4.3275054461,
				"y": 2.042354719,
				"z": 3.0444383624,
				"element": "H" 
			},
			{
				"x": 3.1410643112,
				"y": 1.8232933507,
				"z": 5.2251322346,
				"element": "H" 
			},
			{
				"x": 0.8269854983,
				"y": 0.9110344943,
				"z": 5.2691783712,
				"element": "H" 
			},
			{
				"x": -0.2801593104,
				"y": 0.2270691079,
				"z": 3.1864666159,
				"element": "H" 
			},
			{
				"x": 1.2295894579,
				"y": 0.6782423881,
				"z": -2.1085244508,
				"element": "H" 
			},
			{
				"x": 0.7947723954,
				"y": 2.6458445815,
				"z": -3.5374519198,
				"element": "H" 
			},
			{
				"x": -0.1683104133,
				"y": 4.7181995789,
				"z": -2.5506924476,
				"element": "H" 
			},
			{
				"x": -0.6767978362,
				"y": 4.793255716,
				"z": -0.1152145093,
				"element": "H" 
			},
			{
				"x": -0.2466823152,
				"y": 2.8208996361,
				"z": 1.3063691027,
				"element": "H" 
			}
		],
		 "valence_orbital": [ 
			{
				"type": "occ",
				"energy": -0.25496,
				"method": "rhf"
			},
			{
				"type": "occ",
				"energy": -0.24596,
				"method": "rhf"
			},
			{
				"type": "occ",
				"energy": -0.24493,
				"method": "rhf"
			},
			{
				"type": "occ",
				"energy": -0.24208,
				"method": "rhf"
			},
			{
				"type": "occ",
				"energy": -0.22635,
				"method": "rhf"
			},
			{
				"type": "unocc",
				"energy": -0.00433,
				"method": "rhf"
			},
			{
				"type": "unocc",
				"energy": -0.00085,
				"method": "rhf"
			},
			{
				"type": "unocc",
				"energy": 0.00339,
				"method": "rhf"
			},
			{
				"type": "unocc",
				"energy": 0.01342,
				"method": "rhf"
			},
			{
				"type": "unocc",
				"energy": 0.06836,
				"method": "rhf"
			}
		],
		"cosmo_sigma_profile": { 
			"-0.025": 0.0,
			"-0.024": 0.0,
			"-0.023": 0.0,
			"-0.022": 0.0,
			"-0.021": 0.0,
			"-0.02": 0.0,
			"-0.019": 0.0,
			"-0.018": 0.0,
			"-0.017": 0.0,
			"-0.016": 0.0,
			"-0.015": 0.241280878448,
			"-0.014": 0.714358726826,
			"-0.013": 0.86908963344,
			"-0.012": 0.78552929175,
			"-0.011": 0.83403745021,
			"-0.01": 1.01106405536,
			"-0.009": 0.4830624426,
			"-0.008": 0.657136090035,
			"-0.007": 1.56687051598,
			"-0.006": 4.47272230427,
			"-0.005": 18.5329553613,
			"-0.004": 25.2664501579,
			"-0.003": 34.0769246667,
			"-0.002": 42.4425318452,
			"-0.001": 45.2191524695,
			"0.0": 40.518054002,
			"0.001": 38.3712596031,
			"0.002": 36.8200403463,
			"0.003": 20.7285089134,
			"0.004": 16.7862139951,
			"0.005": 17.5073003054,
			"0.006": 14.6662878546,
			"0.007": 4.35025633985,
			"0.008": 1.68334024936,
			"0.009": 1.26253053552,
			"0.01": 0.667956083295,
			"0.011": 1.37427032782,
			"0.012": 0.961122348558,
			"0.013": 0.881316227978,
			"0.014": 0.722804134799,
			"0.015": 0.0241049824604,
			"0.016": 0.0,
			"0.017": 0.0,
			"0.018": 0.0,
			"0.019": 0.0,
			"0.02": 0.0,
			"0.021": 0.0,
			"0.022": 0.0,
			"0.023": 0.0,
			"0.024": 0.0,
			"0.025": 0.0
		}
	}
}
