{
	 "smiles": "[O-][N+](=O)C1=CC2=C(C=C1)C1=C(C=CC=C1)C2=O", 
	 "Tm": 495.15, 
	 "num_atms": 24, 
	 "gaussian": { 
		 "optdone": 1, 
		 "sigma_profile": "yes", 
		 "theory": "DFT", 
		 "functional": "B3LYP", 
		 "basiset": "6-31G**", 
		 "properties": { 
			 "R2extent": 4941.0795, 
			 "electric_dipole_moment_norm": 6.79086836126, 
			 "electric_quadrupole_moment_norm": 10.0273341243, 
			 "total_energy": -779.93212652, 
			 "HOMO_LUMO_gap": 0.14411, 
			 "cosmo_polarized_energy": -12.82, 
			 "cosmo_cavitation_energy": 30.06, 
			 "cosmo_dispersion_energy": -21.87, 
			 "cosmo_repulsion_energy": 1.64, 
			 "cosmo_total_nonelectrostatic_energy": 9.83, 
			 "SMD_solvation_energy": 7.49 
		},
		"coords": [
			{
				"x": -3.9721043804,
				"y": -3.1567884598,
				"z": -1.9382243853,
				"element": "O" 
			},
			{
				"x": -2.8053697776,
				"y": -3.0134012455,
				"z": -2.3044654539,
				"element": "N" 
			},
			{
				"x": -2.2606551991,
				"y": -3.672825662,
				"z": -3.1887181736,
				"element": "O" 
			},
			{
				"x": -2.0010300585,
				"y": -1.9788642754,
				"z": -1.6373978498,
				"element": "C" 
			},
			{
				"x": -0.6716582674,
				"y": -1.7947911194,
				"z": -2.0343326096,
				"element": "C" 
			},
			{
				"x": 0.0434147867,
				"y": -0.8101789712,
				"z": -1.3775756988,
				"element": "C" 
			},
			{
				"x": -0.5292080118,
				"y": -0.0229231772,
				"z": -0.3550888425,
				"element": "C" 
			},
			{
				"x": -1.8546289685,
				"y": -0.2250239158,
				"z": 0.0224658733,
				"element": "C" 
			},
			{
				"x": -2.5946172432,
				"y": -1.2161773,
				"z": -0.6298660063,
				"element": "C" 
			},
			{
				"x": 0.4944227458,
				"y": 0.9287254847,
				"z": 0.1350027314,
				"element": "C" 
			},
			{
				"x": 1.685853729,
				"y": 0.7186040931,
				"z": -0.5893283997,
				"element": "C" 
			},
			{
				"x": 2.8269763723,
				"y": 1.4693646079,
				"z": -0.3477804315,
				"element": "C" 
			},
			{
				"x": 2.771539859,
				"y": 2.4559048345,
				"z": 0.6455837103,
				"element": "C" 
			},
			{
				"x": 1.5926513655,
				"y": 2.6690190635,
				"z": 1.3674132095,
				"element": "C" 
			},
			{
				"x": 0.4404010966,
				"y": 1.9082009882,
				"z": 1.1207895974,
				"element": "C" 
			},
			{
				"x": 1.4706343709,
				"y": -0.3845502872,
				"z": -1.5793992,
				"element": "C" 
			},
			{
				"x": 2.2700598445,
				"y": -0.8401913246,
				"z": -2.3750694206,
				"element": "O" 
			},
			{
				"x": -0.2345918807,
				"y": -2.4002622896,
				"z": -2.8192109122,
				"element": "H" 
			},
			{
				"x": -2.3180196254,
				"y": 0.3668539669,
				"z": 0.8055142296,
				"element": "H" 
			},
			{
				"x": -3.6282877225,
				"y": -1.4110923533,
				"z": -0.3720805687,
				"element": "H" 
			},
			{
				"x": 3.7318384943,
				"y": 1.2874845772,
				"z": -0.919752565,
				"element": "H" 
			},
			{
				"x": 3.6478737154,
				"y": 3.0603720389,
				"z": 0.8585621445,
				"element": "H" 
			},
			{
				"x": 1.5678316278,
				"y": 3.4381480065,
				"z": 2.1338442056,
				"element": "H" 
			},
			{
				"x": -0.4660268729,
				"y": 2.0879927197,
				"z": 1.6914148159,
				"element": "H" 
			}
		],
		 "valence_orbital": [ 
			{
				"type": "occ",
				"energy": -0.29367,
				"method": "rhf"
			},
			{
				"type": "occ",
				"energy": -0.28896,
				"method": "rhf"
			},
			{
				"type": "occ",
				"energy": -0.27952,
				"method": "rhf"
			},
			{
				"type": "occ",
				"energy": -0.26748,
				"method": "rhf"
			},
			{
				"type": "occ",
				"energy": -0.2528,
				"method": "rhf"
			},
			{
				"type": "unocc",
				"energy": -0.10869,
				"method": "rhf"
			},
			{
				"type": "unocc",
				"energy": -0.08741,
				"method": "rhf"
			},
			{
				"type": "unocc",
				"energy": -0.04417,
				"method": "rhf"
			},
			{
				"type": "unocc",
				"energy": -0.02257,
				"method": "rhf"
			},
			{
				"type": "unocc",
				"energy": 0.01865,
				"method": "rhf"
			}
		],
		"cosmo_sigma_profile": { 
			"-0.025": 0.0,
			"-0.024": 0.0,
			"-0.023": 0.0,
			"-0.022": 0.0,
			"-0.021": 0.0,
			"-0.02": 0.0,
			"-0.019": 0.0,
			"-0.018": 0.0,
			"-0.017": 0.0,
			"-0.016": 0.0,
			"-0.015": 0.0,
			"-0.014": 0.0,
			"-0.013": 0.0,
			"-0.012": 0.0,
			"-0.011": 0.0,
			"-0.01": 0.0,
			"-0.009": 0.223816419559,
			"-0.008": 6.15968064476,
			"-0.007": 13.1651686475,
			"-0.006": 14.5135857235,
			"-0.005": 15.1924330014,
			"-0.004": 13.8337361958,
			"-0.003": 16.0689549343,
			"-0.002": 19.1738066111,
			"-0.001": 25.6019876292,
			"0.0": 24.5330144979,
			"0.001": 16.3042582861,
			"0.002": 16.0766838823,
			"0.003": 12.1055720581,
			"0.004": 4.26142627794,
			"0.005": 4.89294968623,
			"0.006": 5.0800037193,
			"0.007": 9.57017269549,
			"0.008": 8.92971535973,
			"0.009": 6.56766226588,
			"0.01": 5.94826264588,
			"0.011": 4.35481074367,
			"0.012": 0.948002117284,
			"0.013": 0.0,
			"0.014": 0.0,
			"0.015": 0.0,
			"0.016": 0.0,
			"0.017": 0.0,
			"0.018": 0.0,
			"0.019": 0.0,
			"0.02": 0.0,
			"0.021": 0.0,
			"0.022": 0.0,
			"0.023": 0.0,
			"0.024": 0.0,
			"0.025": 0.0
		}
	}
}
