{
	 "smiles": "CS(=O)(=O)C1=CC(=C(F)C=C1)[N+]([O-])=O", 
	 "Tm": 428.15, 
	 "num_atms": 20, 
	 "gaussian": { 
		 "optdone": 1, 
		 "sigma_profile": "yes", 
		 "theory": "DFT", 
		 "functional": "B3LYP", 
		 "basiset": "6-31G**", 
		 "properties": { 
			 "R2extent": 3568.3614, 
			 "electric_dipole_moment_norm": 5.01737025443, 
			 "electric_quadrupole_moment_norm": 19.4985095964, 
			 "total_energy": -1123.84873975, 
			 "HOMO_LUMO_gap": 0.18828, 
			 "cosmo_polarized_energy": -18.54, 
			 "cosmo_cavitation_energy": 27.46, 
			 "cosmo_dispersion_energy": -20.12, 
			 "cosmo_repulsion_energy": 1.51, 
			 "cosmo_total_nonelectrostatic_energy": 8.86, 
			 "SMD_solvation_energy": 7.24 
		},
		"coords": [
			{
				"x": -1.8752661362,
				"y": 0.3654892231,
				"z": -3.4492560834,
				"element": "C" 
			},
			{
				"x": -0.9675623507,
				"y": -1.0932569027,
				"z": -2.8872324877,
				"element": "S" 
			},
			{
				"x": -0.0271805293,
				"y": -1.4740615188,
				"z": -3.9509851454,
				"element": "O" 
			},
			{
				"x": -1.9444758882,
				"y": -2.0448766804,
				"z": -2.3422674313,
				"element": "O" 
			},
			{
				"x": 0.018796573,
				"y": -0.4756796005,
				"z": -1.5069382196,
				"element": "C" 
			},
			{
				"x": -0.5389803512,
				"y": -0.437247734,
				"z": -0.2344233522,
				"element": "C" 
			},
			{
				"x": 0.2305466677,
				"y": 0.0223948662,
				"z": 0.8338991937,
				"element": "C" 
			},
			{
				"x": 1.5535429292,
				"y": 0.4381547849,
				"z": 0.615128368,
				"element": "C" 
			},
			{
				"x": 2.3146671375,
				"y": 0.9058174565,
				"z": 1.5994630634,
				"element": "F" 
			},
			{
				"x": 2.1034258364,
				"y": 0.387420292,
				"z": -0.6650689556,
				"element": "C" 
			},
			{
				"x": 1.3398372813,
				"y": -0.0758749331,
				"z": -1.7309880283,
				"element": "C" 
			},
			{
				"x": -0.3874766533,
				"y": 0.0402285417,
				"z": 2.1698746977,
				"element": "N" 
			},
			{
				"x": -1.6112118736,
				"y": -0.0779745028,
				"z": 2.2141441339,
				"element": "O" 
			},
			{
				"x": 0.3499155967,
				"y": 0.1626920807,
				"z": 3.14182532,
				"element": "O" 
			},
			{
				"x": -2.4859396977,
				"y": 0.0343915197,
				"z": -4.2919122809,
				"element": "H" 
			},
			{
				"x": -2.5110945489,
				"y": 0.7285371776,
				"z": -2.6406494742,
				"element": "H" 
			},
			{
				"x": -1.1664051649,
				"y": 1.1293301704,
				"z": -3.7717986847,
				"element": "H" 
			},
			{
				"x": -1.5519666261,
				"y": -0.7732541134,
				"z": -0.0472199958,
				"element": "H" 
			},
			{
				"x": 3.1301338912,
				"y": 0.7103774392,
				"z": -0.7963898985,
				"element": "H" 
			},
			{
				"x": 1.760093907,
				"y": -0.1470075665,
				"z": -2.7285047389,
				"element": "H" 
			}
		],
		 "valence_orbital": [ 
			{
				"type": "occ",
				"energy": -0.31705,
				"method": "rhf"
			},
			{
				"type": "occ",
				"energy": -0.31386,
				"method": "rhf"
			},
			{
				"type": "occ",
				"energy": -0.30913,
				"method": "rhf"
			},
			{
				"type": "occ",
				"energy": -0.3035,
				"method": "rhf"
			},
			{
				"type": "occ",
				"energy": -0.29609,
				"method": "rhf"
			},
			{
				"type": "unocc",
				"energy": -0.10781,
				"method": "rhf"
			},
			{
				"type": "unocc",
				"energy": -0.06467,
				"method": "rhf"
			},
			{
				"type": "unocc",
				"energy": -0.03253,
				"method": "rhf"
			},
			{
				"type": "unocc",
				"energy": 0.03607,
				"method": "rhf"
			},
			{
				"type": "unocc",
				"energy": 0.06065,
				"method": "rhf"
			}
		],
		"cosmo_sigma_profile": { 
			"-0.025": 0.0,
			"-0.024": 0.0,
			"-0.023": 0.0,
			"-0.022": 0.0,
			"-0.021": 0.0,
			"-0.02": 0.0,
			"-0.019": 0.0,
			"-0.018": 0.0,
			"-0.017": 0.0,
			"-0.016": 0.0,
			"-0.015": 0.0,
			"-0.014": 0.0,
			"-0.013": 0.0,
			"-0.012": 0.0,
			"-0.011": 0.010829652972,
			"-0.01": 1.8849616618,
			"-0.009": 10.071207162,
			"-0.008": 12.0467666702,
			"-0.007": 12.5354028385,
			"-0.006": 12.2801732471,
			"-0.005": 13.0637156766,
			"-0.004": 18.0819307318,
			"-0.003": 16.7319145692,
			"-0.002": 13.2687677291,
			"-0.001": 11.5768030966,
			"0.0": 8.61234634736,
			"0.001": 5.32835118039,
			"0.002": 9.1576579241,
			"0.003": 6.99715187473,
			"0.004": 5.89786593637,
			"0.005": 6.14687209156,
			"0.006": 7.55978722092,
			"0.007": 13.930957116,
			"0.008": 8.30396546898,
			"0.009": 6.59643539019,
			"0.01": 7.25242736774,
			"0.011": 9.51701003438,
			"0.012": 3.96451472155,
			"0.013": 0.0,
			"0.014": 0.0,
			"0.015": 0.0,
			"0.016": 0.0,
			"0.017": 0.0,
			"0.018": 0.0,
			"0.019": 0.0,
			"0.02": 0.0,
			"0.021": 0.0,
			"0.022": 0.0,
			"0.023": 0.0,
			"0.024": 0.0,
			"0.025": 0.0
		}
	}
}
