{
	 "smiles": "CC1(C)OC(=O)C(=CC2=CC=C(Br)O2)C(=O)O1", 
	 "Tm": 389.15, 
	 "num_atms": 26, 
	 "gaussian": { 
		 "optdone": 1, 
		 "sigma_profile": "yes", 
		 "theory": "DFT", 
		 "functional": "B3LYP", 
		 "basiset": "6-31G**", 
		 "properties": { 
			 "R2extent": 8658.2641, 
			 "electric_dipole_moment_norm": 3.31025966504, 
			 "electric_quadrupole_moment_norm": 23.0454518504, 
			 "total_energy": -3372.09480605, 
			 "HOMO_LUMO_gap": 0.13913, 
			 "cosmo_polarized_energy": -16.78, 
			 "cosmo_cavitation_energy": 33.72, 
			 "cosmo_dispersion_energy": -24.43, 
			 "cosmo_repulsion_energy": 1.91, 
			 "cosmo_total_nonelectrostatic_energy": 11.2, 
			 "SMD_solvation_energy": 7.25 
		},
		"coords": [
			{
				"x": -1.559895223,
				"y": -2.1669317654,
				"z": 0.7014305896,
				"element": "C" 
			},
			{
				"x": -1.2148336979,
				"y": -1.6268687975,
				"z": -0.6863173392,
				"element": "C" 
			},
			{
				"x": -1.70594502,
				"y": -2.5154646772,
				"z": -1.8159418576,
				"element": "C" 
			},
			{
				"x": -1.8426381611,
				"y": -0.350069065,
				"z": -0.8877064376,
				"element": "O" 
			},
			{
				"x": -1.3260350573,
				"y": 0.7490303792,
				"z": -0.2712888032,
				"element": "C" 
			},
			{
				"x": -1.9944894988,
				"y": 1.7562615925,
				"z": -0.19505231,
				"element": "O" 
			},
			{
				"x": 0.0689614448,
				"y": 0.6163458108,
				"z": 0.2379775284,
				"element": "C" 
			},
			{
				"x": 0.4944626572,
				"y": 1.6382472267,
				"z": 1.0386517096,
				"element": "C" 
			},
			{
				"x": 1.6786520728,
				"y": 1.9080082234,
				"z": 1.7754647143,
				"element": "C" 
			},
			{
				"x": 1.9668161012,
				"y": 3.0364928384,
				"z": 2.5268984347,
				"element": "C" 
			},
			{
				"x": 3.2443621578,
				"y": 2.8486729115,
				"z": 3.1028491716,
				"element": "C" 
			},
			{
				"x": 3.647051278,
				"y": 1.6087049093,
				"z": 2.6722865753,
				"element": "C" 
			},
			{
				"x": 5.2050405567,
				"y": 0.6494054252,
				"z": 3.0121186834,
				"element": "Br" 
			},
			{
				"x": 2.7330152648,
				"y": 1.0277030837,
				"z": 1.8799292631,
				"element": "O" 
			},
			{
				"x": 0.8974683597,
				"y": -0.5138849411,
				"z": -0.2438048866,
				"element": "C" 
			},
			{
				"x": 2.1032999212,
				"y": -0.5669654855,
				"z": -0.2186266361,
				"element": "O" 
			},
			{
				"x": 0.2050676205,
				"y": -1.5327698725,
				"z": -0.8445521008,
				"element": "O" 
			},
			{
				"x": -1.1037235146,
				"y": -3.1503393932,
				"z": 0.8384138219,
				"element": "H" 
			},
			{
				"x": -2.6438332109,
				"y": -2.2573354326,
				"z": 0.8057869017,
				"element": "H" 
			},
			{
				"x": -1.1895429716,
				"y": -1.5011391635,
				"z": 1.4856702128,
				"element": "H" 
			},
			{
				"x": -1.2494298411,
				"y": -3.5044864524,
				"z": -1.7354836457,
				"element": "H" 
			},
			{
				"x": -2.7927526496,
				"y": -2.6137366308,
				"z": -1.7675297776,
				"element": "H" 
			},
			{
				"x": -1.429340492,
				"y": -2.0718695954,
				"z": -2.774492346,
				"element": "H" 
			},
			{
				"x": -0.250094021,
				"y": 2.4227771985,
				"z": 1.1656001213,
				"element": "H" 
			},
			{
				"x": 1.319589947,
				"y": 3.8953468364,
				"z": 2.6381616176,
				"element": "H" 
			},
			{
				"x": 3.7989659771,
				"y": 3.5163648365,
				"z": 3.743456795,
				"element": "H" 
			}
		],
		 "valence_orbital": [ 
			{
				"type": "occ",
				"energy": -0.30593,
				"method": "rhf"
			},
			{
				"type": "occ",
				"energy": -0.29837,
				"method": "rhf"
			},
			{
				"type": "occ",
				"energy": -0.2856,
				"method": "rhf"
			},
			{
				"type": "occ",
				"energy": -0.26699,
				"method": "rhf"
			},
			{
				"type": "occ",
				"energy": -0.2365,
				"method": "rhf"
			},
			{
				"type": "unocc",
				"energy": -0.09737,
				"method": "rhf"
			},
			{
				"type": "unocc",
				"energy": -0.00684,
				"method": "rhf"
			},
			{
				"type": "unocc",
				"energy": 0.00323,
				"method": "rhf"
			},
			{
				"type": "unocc",
				"energy": 0.0054,
				"method": "rhf"
			},
			{
				"type": "unocc",
				"energy": 0.04803,
				"method": "rhf"
			}
		],
		"cosmo_sigma_profile": { 
			"-0.025": 0.0,
			"-0.024": 0.0,
			"-0.023": 0.0,
			"-0.022": 0.0,
			"-0.021": 0.0,
			"-0.02": 0.0,
			"-0.019": 0.0,
			"-0.018": 0.0,
			"-0.017": 0.0,
			"-0.016": 0.0,
			"-0.015": 0.0,
			"-0.014": 0.0,
			"-0.013": 0.0,
			"-0.012": 0.0,
			"-0.011": 0.041637678576,
			"-0.01": 2.79766720956,
			"-0.009": 5.40662046793,
			"-0.008": 4.60443443861,
			"-0.007": 5.0529916709,
			"-0.006": 14.1472328832,
			"-0.005": 21.7302698348,
			"-0.004": 17.4021286015,
			"-0.003": 22.5751888656,
			"-0.002": 29.5229450751,
			"-0.001": 30.3133687953,
			"0.0": 20.4372999841,
			"0.001": 18.5414562069,
			"0.002": 17.6698308164,
			"0.003": 6.80725193625,
			"0.004": 4.39694718002,
			"0.005": 5.12075604342,
			"0.006": 4.46248760901,
			"0.007": 5.01497269653,
			"0.008": 4.85098989583,
			"0.009": 5.95325456667,
			"0.01": 7.24976986644,
			"0.011": 9.82037449281,
			"0.012": 7.70994841629,
			"0.013": 1.86375663924,
			"0.014": 0.0,
			"0.015": 0.0,
			"0.016": 0.0,
			"0.017": 0.0,
			"0.018": 0.0,
			"0.019": 0.0,
			"0.02": 0.0,
			"0.021": 0.0,
			"0.022": 0.0,
			"0.023": 0.0,
			"0.024": 0.0,
			"0.025": 0.0
		}
	}
}
