{
	 "smiles": "CC(=O)CS(=O)(=O)C1=CC=CC=C1", 
	 "Tm": 330.15, 
	 "num_atms": 23, 
	 "gaussian": { 
		 "optdone": 1, 
		 "sigma_profile": "yes", 
		 "theory": "DFT", 
		 "functional": "B3LYP", 
		 "basiset": "6-31G**", 
		 "properties": { 
			 "R2extent": 3895.2217, 
			 "electric_dipole_moment_norm": 2.62801137174, 
			 "electric_quadrupole_moment_norm": 22.8346171025, 
			 "total_energy": -972.773653167, 
			 "HOMO_LUMO_gap": 0.21243, 
			 "cosmo_polarized_energy": -15.51, 
			 "cosmo_cavitation_energy": 28.38, 
			 "cosmo_dispersion_energy": -20.4, 
			 "cosmo_repulsion_energy": 1.57, 
			 "cosmo_total_nonelectrostatic_energy": 9.55, 
			 "SMD_solvation_energy": 4.96 
		},
		"coords": [
			{
				"x": -0.8438795331,
				"y": 0.981695914,
				"z": 1.8747572344,
				"element": "C" 
			},
			{
				"x": 0.1678971755,
				"y": -0.058822923,
				"z": 1.4591237958,
				"element": "C" 
			},
			{
				"x": -0.1337066614,
				"y": -1.134984628,
				"z": 0.9815628312,
				"element": "O" 
			},
			{
				"x": 1.6425263359,
				"y": 0.3086421342,
				"z": 1.6388000297,
				"element": "C" 
			},
			{
				"x": 2.3391162571,
				"y": 1.1628631887,
				"z": 0.1666659034,
				"element": "S" 
			},
			{
				"x": 1.3339521304,
				"y": 2.1436135331,
				"z": -0.2791524839,
				"element": "O" 
			},
			{
				"x": 3.6967474711,
				"y": 1.5822486217,
				"z": 0.5444465542,
				"element": "O" 
			},
			{
				"x": 2.4757486315,
				"y": -0.1157816186,
				"z": -1.0871497453,
				"element": "C" 
			},
			{
				"x": 1.4058518034,
				"y": -0.342643821,
				"z": -1.9545377282,
				"element": "C" 
			},
			{
				"x": 1.5294783617,
				"y": -1.3355739989,
				"z": -2.9261924434,
				"element": "C" 
			},
			{
				"x": 2.7071190857,
				"y": -2.0806601334,
				"z": -3.0213614007,
				"element": "C" 
			},
			{
				"x": 3.7726923053,
				"y": -1.8349732051,
				"z": -2.1516407306,
				"element": "C" 
			},
			{
				"x": 3.6633492446,
				"y": -0.8452986903,
				"z": -1.17515241,
				"element": "C" 
			},
			{
				"x": -1.8522320807,
				"y": 0.6245512042,
				"z": 1.6626851562,
				"element": "H" 
			},
			{
				"x": -0.6455276704,
				"y": 1.912803535,
				"z": 1.3322852756,
				"element": "H" 
			},
			{
				"x": -0.7460217091,
				"y": 1.2009204396,
				"z": 2.9448093962,
				"element": "H" 
			},
			{
				"x": 2.2433190335,
				"y": -0.5885692319,
				"z": 1.7970663648,
				"element": "H" 
			},
			{
				"x": 1.8106284971,
				"y": 1.0265964286,
				"z": 2.4463777273,
				"element": "H" 
			},
			{
				"x": 0.5064795299,
				"y": 0.2571364116,
				"z": -1.8755983202,
				"element": "H" 
			},
			{
				"x": 0.707486664,
				"y": -1.5246046668,
				"z": -3.6095483647,
				"element": "H" 
			},
			{
				"x": 2.7973422254,
				"y": -2.8521216536,
				"z": -3.7804372729,
				"element": "H" 
			},
			{
				"x": 4.6908369463,
				"y": -2.407935121,
				"z": -2.2378288769,
				"element": "H" 
			},
			{
				"x": 4.4859959563,
				"y": -0.6216017194,
				"z": -0.5044804919,
				"element": "H" 
			}
		],
		 "valence_orbital": [ 
			{
				"type": "occ",
				"energy": -0.30672,
				"method": "rhf"
			},
			{
				"type": "occ",
				"energy": -0.29671,
				"method": "rhf"
			},
			{
				"type": "occ",
				"energy": -0.27727,
				"method": "rhf"
			},
			{
				"type": "occ",
				"energy": -0.2728,
				"method": "rhf"
			},
			{
				"type": "occ",
				"energy": -0.2615,
				"method": "rhf"
			},
			{
				"type": "unocc",
				"energy": -0.04907,
				"method": "rhf"
			},
			{
				"type": "unocc",
				"energy": -0.03714,
				"method": "rhf"
			},
			{
				"type": "unocc",
				"energy": -0.02333,
				"method": "rhf"
			},
			{
				"type": "unocc",
				"energy": 0.05766,
				"method": "rhf"
			},
			{
				"type": "unocc",
				"energy": 0.07572,
				"method": "rhf"
			}
		],
		"cosmo_sigma_profile": { 
			"-0.025": 0.0,
			"-0.024": 0.0,
			"-0.023": 0.0,
			"-0.022": 0.0,
			"-0.021": 0.0,
			"-0.02": 0.0,
			"-0.019": 0.0,
			"-0.018": 0.0,
			"-0.017": 0.0,
			"-0.016": 0.0,
			"-0.015": 0.0,
			"-0.014": 0.0,
			"-0.013": 0.0,
			"-0.012": 0.0,
			"-0.011": 0.00899054360256,
			"-0.01": 1.38786984952,
			"-0.009": 5.59144140457,
			"-0.008": 5.91888864123,
			"-0.007": 13.9502902037,
			"-0.006": 18.8086304122,
			"-0.005": 16.6866283321,
			"-0.004": 14.5629318526,
			"-0.003": 13.6650098201,
			"-0.002": 15.611146701,
			"-0.001": 13.3096545849,
			"0.0": 11.3167171053,
			"0.001": 11.3827439222,
			"0.002": 14.4823902896,
			"0.003": 14.5839079858,
			"0.004": 6.02285263603,
			"0.005": 4.27794963096,
			"0.006": 3.37756629303,
			"0.007": 5.16534498526,
			"0.008": 5.51169698658,
			"0.009": 5.80004921546,
			"0.01": 8.14298387177,
			"0.011": 12.2378786086,
			"0.012": 4.35701332808,
			"0.013": 0.0319017548381,
			"0.014": 0.0,
			"0.015": 0.0,
			"0.016": 0.0,
			"0.017": 0.0,
			"0.018": 0.0,
			"0.019": 0.0,
			"0.02": 0.0,
			"0.021": 0.0,
			"0.022": 0.0,
			"0.023": 0.0,
			"0.024": 0.0,
			"0.025": 0.0
		}
	}
}
