{
	 "smiles": "CCOC1=CC=C(C=C1)S(=O)(=O)NC(=O)C1=CC=CC=C1", 
	 "Tm": 359.15, 
	 "num_atms": 36, 
	 "gaussian": { 
		 "optdone": 1, 
		 "sigma_profile": "yes", 
		 "theory": "DFT", 
		 "functional": "B3LYP", 
		 "basiset": "6-31G**", 
		 "properties": { 
			 "R2extent": 10005.9158, 
			 "electric_dipole_moment_norm": 6.43449685212, 
			 "electric_quadrupole_moment_norm": 38.1194214751, 
			 "total_energy": -1334.40945506, 
			 "HOMO_LUMO_gap": 0.18471, 
			 "cosmo_polarized_energy": -20.2, 
			 "cosmo_cavitation_energy": 41.75, 
			 "cosmo_dispersion_energy": -30.35, 
			 "cosmo_repulsion_energy": 2.29, 
			 "cosmo_total_nonelectrostatic_energy": 13.69, 
			 "SMD_solvation_energy": 7.23 
		},
		"coords": [
			{
				"x": -4.367401164,
				"y": 1.0348932115,
				"z": -1.3451917211,
				"element": "C" 
			},
			{
				"x": -4.667656897,
				"y": 0.5557833542,
				"z": 0.070584792,
				"element": "C" 
			},
			{
				"x": -3.7433363005,
				"y": -0.4448594706,
				"z": 0.5172265806,
				"element": "O" 
			},
			{
				"x": -2.5263440739,
				"y": -0.0894632126,
				"z": 1.0011955486,
				"element": "C" 
			},
			{
				"x": -1.7036870787,
				"y": -1.1616213637,
				"z": 1.3933510357,
				"element": "C" 
			},
			{
				"x": -0.4444094615,
				"y": -0.9281204076,
				"z": 1.9218420639,
				"element": "C" 
			},
			{
				"x": 0.003696399,
				"y": 0.3932073326,
				"z": 2.0554931933,
				"element": "C" 
			},
			{
				"x": -0.8009433104,
				"y": 1.4665157798,
				"z": 1.6739696831,
				"element": "C" 
			},
			{
				"x": -2.0679292146,
				"y": 1.2299580209,
				"z": 1.1433608243,
				"element": "C" 
			},
			{
				"x": 1.5994806324,
				"y": 0.7272800175,
				"z": 2.7650456953,
				"element": "S" 
			},
			{
				"x": 1.6892366869,
				"y": 2.1578728203,
				"z": 3.0721284668,
				"element": "O" 
			},
			{
				"x": 1.9071562666,
				"y": -0.2978167387,
				"z": 3.753353914,
				"element": "O" 
			},
			{
				"x": 2.722608558,
				"y": 0.583664956,
				"z": 1.4702682557,
				"element": "N" 
			},
			{
				"x": 3.0336884614,
				"y": -0.5879520601,
				"z": 0.7920247222,
				"element": "C" 
			},
			{
				"x": 2.4084924926,
				"y": -1.6226873646,
				"z": 0.9660178334,
				"element": "O" 
			},
			{
				"x": 4.1658540797,
				"y": -0.4846206836,
				"z": -0.1860080802,
				"element": "C" 
			},
			{
				"x": 4.2231982823,
				"y": -1.4525759855,
				"z": -1.1985591335,
				"element": "C" 
			},
			{
				"x": 5.2471291645,
				"y": -1.4220611804,
				"z": -2.1414918776,
				"element": "C" 
			},
			{
				"x": 6.2319939037,
				"y": -0.4328139344,
				"z": -2.0735602267,
				"element": "C" 
			},
			{
				"x": 6.19249213,
				"y": 0.5223174392,
				"z": -1.0560098113,
				"element": "C" 
			},
			{
				"x": 5.1630758773,
				"y": 0.49896527,
				"z": -0.115271374,
				"element": "C" 
			},
			{
				"x": -4.3624362396,
				"y": 0.1887710278,
				"z": -2.0379302347,
				"element": "H" 
			},
			{
				"x": -5.1372283624,
				"y": 1.7425010942,
				"z": -1.6703604819,
				"element": "H" 
			},
			{
				"x": -3.3965913277,
				"y": 1.5337606881,
				"z": -1.40888849,
				"element": "H" 
			},
			{
				"x": -4.6997035425,
				"y": 1.3873298479,
				"z": 0.7849905484,
				"element": "H" 
			},
			{
				"x": -5.6397362047,
				"y": 0.0569084531,
				"z": 0.1054231489,
				"element": "H" 
			},
			{
				"x": -2.0837756766,
				"y": -2.170779196,
				"z": 1.2772235395,
				"element": "H" 
			},
			{
				"x": 0.1973990809,
				"y": -1.7482427266,
				"z": 2.2180498194,
				"element": "H" 
			},
			{
				"x": -0.4421940913,
				"y": 2.4812555035,
				"z": 1.8062888275,
				"element": "H" 
			},
			{
				"x": -2.6822930493,
				"y": 2.0729747503,
				"z": 0.8528401769,
				"element": "H" 
			},
			{
				"x": 3.1298658416,
				"y": 1.4724116852,
				"z": 1.2092216329,
				"element": "H" 
			},
			{
				"x": 3.4552423043,
				"y": -2.2180893447,
				"z": -1.2238838392,
				"element": "H" 
			},
			{
				"x": 5.2805632998,
				"y": -2.1703209293,
				"z": -2.9278011207,
				"element": "H" 
			},
			{
				"x": 7.0329373296,
				"y": -0.4112049352,
				"z": -2.8068692804,
				"element": "H" 
			},
			{
				"x": 6.9670645132,
				"y": 1.2803041236,
				"z": -0.9886488119,
				"element": "H" 
			},
			{
				"x": 5.1684906907,
				"y": 1.2254541579,
				"z": 0.6923741808,
				"element": "H" 
			}
		],
		 "valence_orbital": [ 
			{
				"type": "occ",
				"energy": -0.2737,
				"method": "rhf"
			},
			{
				"type": "occ",
				"energy": -0.26902,
				"method": "rhf"
			},
			{
				"type": "occ",
				"energy": -0.26729,
				"method": "rhf"
			},
			{
				"type": "occ",
				"energy": -0.26068,
				"method": "rhf"
			},
			{
				"type": "occ",
				"energy": -0.23651,
				"method": "rhf"
			},
			{
				"type": "unocc",
				"energy": -0.0518,
				"method": "rhf"
			},
			{
				"type": "unocc",
				"energy": -0.02699,
				"method": "rhf"
			},
			{
				"type": "unocc",
				"energy": -0.01798,
				"method": "rhf"
			},
			{
				"type": "unocc",
				"energy": -0.01615,
				"method": "rhf"
			},
			{
				"type": "unocc",
				"energy": 0.04194,
				"method": "rhf"
			}
		],
		"cosmo_sigma_profile": { 
			"-0.025": 0.0,
			"-0.024": 0.0,
			"-0.023": 0.0,
			"-0.022": 0.0,
			"-0.021": 0.0,
			"-0.02": 0.0,
			"-0.019": 0.0,
			"-0.018": 0.0,
			"-0.017": 0.0407323030021,
			"-0.016": 0.446590521013,
			"-0.015": 1.17930639306,
			"-0.014": 0.862562152487,
			"-0.013": 0.923574298289,
			"-0.012": 1.31820863473,
			"-0.011": 0.965291080387,
			"-0.01": 1.47387638901,
			"-0.009": 1.37406489617,
			"-0.008": 3.53214731593,
			"-0.007": 10.3738705308,
			"-0.006": 19.8026945072,
			"-0.005": 24.4422977686,
			"-0.004": 27.2708670543,
			"-0.003": 24.2042344349,
			"-0.002": 23.5608683576,
			"-0.001": 21.89400479,
			"0.0": 24.1444784324,
			"0.001": 20.8940890167,
			"0.002": 27.7728542116,
			"0.003": 24.4751684634,
			"0.004": 16.3290785304,
			"0.005": 6.58794758908,
			"0.006": 5.91605239982,
			"0.007": 6.73304216049,
			"0.008": 5.65391896102,
			"0.009": 9.55816719417,
			"0.01": 12.8233881094,
			"0.011": 7.53195082488,
			"0.012": 1.64664926875,
			"0.013": 0.106990521432,
			"0.014": 0.0,
			"0.015": 0.0,
			"0.016": 0.0,
			"0.017": 0.0,
			"0.018": 0.0,
			"0.019": 0.0,
			"0.02": 0.0,
			"0.021": 0.0,
			"0.022": 0.0,
			"0.023": 0.0,
			"0.024": 0.0,
			"0.025": 0.0
		}
	}
}
