{
	 "smiles": "NC(=O)C1=C(F)C=CC(Cl)=C1F", 
	 "Tm": 408.15, 
	 "num_atms": 16, 
	 "gaussian": { 
		 "optdone": 1, 
		 "sigma_profile": "yes", 
		 "theory": "DFT", 
		 "functional": "B3LYP", 
		 "basiset": "6-31G**", 
		 "properties": { 
			 "R2extent": 3855.1259, 
			 "electric_dipole_moment_norm": 2.39753463791, 
			 "electric_quadrupole_moment_norm": 16.7601129579, 
			 "total_energy": -1058.99705657, 
			 "HOMO_LUMO_gap": 0.1985, 
			 "cosmo_polarized_energy": -11.94, 
			 "cosmo_cavitation_energy": 23.27, 
			 "cosmo_dispersion_energy": -17.55, 
			 "cosmo_repulsion_energy": 1.36, 
			 "cosmo_total_nonelectrostatic_energy": 7.08, 
			 "SMD_solvation_energy": 5.27 
		},
		"coords": [
			{
				"x": -3.2209128176,
				"y": -1.8150158046,
				"z": 2.7840524659,
				"element": "N" 
			},
			{
				"x": -2.2208642953,
				"y": -0.8987362339,
				"z": 2.6411377644,
				"element": "C" 
			},
			{
				"x": -1.6456666136,
				"y": -0.4270121137,
				"z": 3.6110044371,
				"element": "O" 
			},
			{
				"x": -1.8495318271,
				"y": -0.4886319363,
				"z": 1.2251907461,
				"element": "C" 
			},
			{
				"x": -0.8224531452,
				"y": 0.4546461081,
				"z": 1.0137114739,
				"element": "C" 
			},
			{
				"x": -0.1689761326,
				"y": 0.9946366556,
				"z": 2.0427927203,
				"element": "F" 
			},
			{
				"x": -0.4325894756,
				"y": 0.8741194436,
				"z": -0.2548971211,
				"element": "C" 
			},
			{
				"x": -1.0635138531,
				"y": 0.3595126068,
				"z": -1.380708994,
				"element": "C" 
			},
			{
				"x": -2.084389406,
				"y": -0.5752139055,
				"z": -1.2270091451,
				"element": "C" 
			},
			{
				"x": -2.9002191164,
				"y": -1.244060194,
				"z": -2.6172941896,
				"element": "Cl" 
			},
			{
				"x": -2.4553921592,
				"y": -0.9782317424,
				"z": 0.0550390274,
				"element": "C" 
			},
			{
				"x": -3.4526560642,
				"y": -1.8878874933,
				"z": 0.1380730334,
				"element": "F" 
			},
			{
				"x": -3.7169261579,
				"y": -2.225793851,
				"z": 2.013073365,
				"element": "H" 
			},
			{
				"x": -3.4485883477,
				"y": -2.0711185471,
				"z": 3.7321912004,
				"element": "H" 
			},
			{
				"x": 0.3654734304,
				"y": 1.6028033611,
				"z": -0.3363586709,
				"element": "H" 
			},
			{
				"x": -0.772094019,
				"y": 0.6754836465,
				"z": -2.3757981132,
				"element": "H" 
			}
		],
		 "valence_orbital": [ 
			{
				"type": "occ",
				"energy": -0.33184,
				"method": "rhf"
			},
			{
				"type": "occ",
				"energy": -0.28312,
				"method": "rhf"
			},
			{
				"type": "occ",
				"energy": -0.27004,
				"method": "rhf"
			},
			{
				"type": "occ",
				"energy": -0.25718,
				"method": "rhf"
			},
			{
				"type": "occ",
				"energy": -0.25667,
				"method": "rhf"
			},
			{
				"type": "unocc",
				"energy": -0.05817,
				"method": "rhf"
			},
			{
				"type": "unocc",
				"energy": -0.02456,
				"method": "rhf"
			},
			{
				"type": "unocc",
				"energy": 0.00462,
				"method": "rhf"
			},
			{
				"type": "unocc",
				"energy": 0.04813,
				"method": "rhf"
			},
			{
				"type": "unocc",
				"energy": 0.08744,
				"method": "rhf"
			}
		],
		"cosmo_sigma_profile": { 
			"-0.025": 0.0,
			"-0.024": 0.0,
			"-0.023": 0.0,
			"-0.022": 0.0,
			"-0.021": 0.0,
			"-0.02": 0.0,
			"-0.019": 0.0,
			"-0.018": 0.0,
			"-0.017": 0.0,
			"-0.016": 0.0,
			"-0.015": 0.0,
			"-0.014": 1.23052571292,
			"-0.013": 1.0331906711,
			"-0.012": 1.66511764094,
			"-0.011": 1.77142602561,
			"-0.01": 2.50545612113,
			"-0.009": 3.75997567685,
			"-0.008": 5.89475028392,
			"-0.007": 5.46331939522,
			"-0.006": 5.39445557308,
			"-0.005": 4.26519165087,
			"-0.004": 7.82946666801,
			"-0.003": 11.2195297918,
			"-0.002": 18.884033474,
			"-0.001": 19.4962086845,
			"0.0": 17.2020048669,
			"0.001": 15.5502466315,
			"0.002": 10.6051920069,
			"0.003": 18.5147463428,
			"0.004": 14.4104376306,
			"0.005": 2.30041884879,
			"0.006": 1.55242190203,
			"0.007": 1.65591319509,
			"0.008": 1.78040469395,
			"0.009": 1.5598427923,
			"0.01": 1.78459855434,
			"0.011": 1.466709897,
			"0.012": 2.80029506193,
			"0.013": 5.60036245183,
			"0.014": 2.75060445618,
			"0.015": 0.0238946720114,
			"0.016": 0.0,
			"0.017": 0.0,
			"0.018": 0.0,
			"0.019": 0.0,
			"0.02": 0.0,
			"0.021": 0.0,
			"0.022": 0.0,
			"0.023": 0.0,
			"0.024": 0.0,
			"0.025": 0.0
		}
	}
}
