{
	 "smiles": "COC(=O)C1=CC2=C(C=C1)N=NN2O", 
	 "Tm": 440.15, 
	 "num_atms": 21, 
	 "gaussian": { 
		 "optdone": 1, 
		 "sigma_profile": "yes", 
		 "theory": "DFT", 
		 "functional": "B3LYP", 
		 "basiset": "6-31G**", 
		 "properties": { 
			 "R2extent": 3533.1008, 
			 "electric_dipole_moment_norm": 1.57505866875, 
			 "electric_quadrupole_moment_norm": 22.0835942575, 
			 "total_energy": -698.901075552, 
			 "HOMO_LUMO_gap": 0.17158, 
			 "cosmo_polarized_energy": -13.75, 
			 "cosmo_cavitation_energy": 26.72, 
			 "cosmo_dispersion_energy": -19.87, 
			 "cosmo_repulsion_energy": 1.55, 
			 "cosmo_total_nonelectrostatic_energy": 8.4, 
			 "SMD_solvation_energy": 5.59 
		},
		"coords": [
			{
				"x": 2.9840406356,
				"y": -2.0752484357,
				"z": 2.8206455083,
				"element": "C" 
			},
			{
				"x": 2.1727803699,
				"y": -0.9436874409,
				"z": 2.4661747544,
				"element": "O" 
			},
			{
				"x": 1.7225346937,
				"y": -0.9353932286,
				"z": 1.1923974395,
				"element": "C" 
			},
			{
				"x": 1.9761154436,
				"y": -1.8140092907,
				"z": 0.3912908357,
				"element": "O" 
			},
			{
				"x": 0.8874802221,
				"y": 0.2648140613,
				"z": 0.8890662331,
				"element": "C" 
			},
			{
				"x": 0.3791346521,
				"y": 0.359170704,
				"z": -0.4011789849,
				"element": "C" 
			},
			{
				"x": -0.4003391222,
				"y": 1.4886798631,
				"z": -0.6687025989,
				"element": "C" 
			},
			{
				"x": -0.6733807693,
				"y": 2.491466815,
				"z": 0.2922847994,
				"element": "C" 
			},
			{
				"x": -0.1466085069,
				"y": 2.372691613,
				"z": 1.5928985167,
				"element": "C" 
			},
			{
				"x": 0.6256373227,
				"y": 1.2628486724,
				"z": 1.8738819989,
				"element": "C" 
			},
			{
				"x": -1.4612614824,
				"y": 3.4624384193,
				"z": -0.2750090178,
				"element": "N" 
			},
			{
				"x": -1.6878989236,
				"y": 3.1207916892,
				"z": -1.5168117541,
				"element": "N" 
			},
			{
				"x": -1.0660097052,
				"y": 1.9598014317,
				"z": -1.7546349405,
				"element": "N" 
			},
			{
				"x": -1.1343576034,
				"y": 1.3627210841,
				"z": -2.987715645,
				"element": "O" 
			},
			{
				"x": 3.2573324283,
				"y": -1.9248102295,
				"z": 3.8647775627,
				"element": "H" 
			},
			{
				"x": 3.8763999701,
				"y": -2.1200512957,
				"z": 2.1914622423,
				"element": "H" 
			},
			{
				"x": 2.4212399706,
				"y": -3.0041228801,
				"z": 2.6997014584,
				"element": "H" 
			},
			{
				"x": 0.5894610217,
				"y": -0.4093983677,
				"z": -1.1347886916,
				"element": "H" 
			},
			{
				"x": -0.3482697518,
				"y": 3.1339827882,
				"z": 2.3385616384,
				"element": "H" 
			},
			{
				"x": 1.0505081355,
				"y": 1.1317251338,
				"z": 2.8613816164,
				"element": "H" 
			},
			{
				"x": -1.6880390011,
				"y": 1.9813888937,
				"z": -3.4975829712,
				"element": "H" 
			}
		],
		 "valence_orbital": [ 
			{
				"type": "occ",
				"energy": -0.30557,
				"method": "rhf"
			},
			{
				"type": "occ",
				"energy": -0.28628,
				"method": "rhf"
			},
			{
				"type": "occ",
				"energy": -0.28084,
				"method": "rhf"
			},
			{
				"type": "occ",
				"energy": -0.26639,
				"method": "rhf"
			},
			{
				"type": "occ",
				"energy": -0.24064,
				"method": "rhf"
			},
			{
				"type": "unocc",
				"energy": -0.06906,
				"method": "rhf"
			},
			{
				"type": "unocc",
				"energy": -0.0224,
				"method": "rhf"
			},
			{
				"type": "unocc",
				"energy": 0.01866,
				"method": "rhf"
			},
			{
				"type": "unocc",
				"energy": 0.04264,
				"method": "rhf"
			},
			{
				"type": "unocc",
				"energy": 0.06426,
				"method": "rhf"
			}
		],
		"cosmo_sigma_profile": { 
			"-0.025": 0.0,
			"-0.024": 0.0,
			"-0.023": 0.0,
			"-0.022": 0.0,
			"-0.021": 0.00465416898128,
			"-0.02": 0.833776945593,
			"-0.019": 1.01010249433,
			"-0.018": 0.584058768199,
			"-0.017": 0.847185666357,
			"-0.016": 0.773890034492,
			"-0.015": 0.533048620179,
			"-0.014": 0.625882443046,
			"-0.013": 0.823349597791,
			"-0.012": 0.859395141167,
			"-0.011": 0.604552299129,
			"-0.01": 0.782168552758,
			"-0.009": 0.850251583159,
			"-0.008": 2.57978993732,
			"-0.007": 4.66656311135,
			"-0.006": 10.5602902175,
			"-0.005": 12.8396745194,
			"-0.004": 15.3365008517,
			"-0.003": 20.0666775856,
			"-0.002": 16.6593964228,
			"-0.001": 13.7114217621,
			"0.0": 17.7996685862,
			"0.001": 18.3572240413,
			"0.002": 12.6369508061,
			"0.003": 9.40640261113,
			"0.004": 6.67442149842,
			"0.005": 6.39399999732,
			"0.006": 5.15058473005,
			"0.007": 5.60625991879,
			"0.008": 5.02475394136,
			"0.009": 5.21537306169,
			"0.01": 4.71184597692,
			"0.011": 5.45750170399,
			"0.012": 3.84057031813,
			"0.013": 1.1108894693,
			"0.014": 1.14555748524,
			"0.015": 0.604516058156,
			"0.016": 0.0,
			"0.017": 0.0,
			"0.018": 0.0,
			"0.019": 0.0,
			"0.02": 0.0,
			"0.021": 0.0,
			"0.022": 0.0,
			"0.023": 0.0,
			"0.024": 0.0,
			"0.025": 0.0
		}
	}
}
