{
	 "smiles": "[O-][N+](=O)C1=C2CCCNC2=CC=C1", 
	 "Tm": 353.15, 
	 "num_atms": 23, 
	 "gaussian": { 
		 "optdone": 1, 
		 "sigma_profile": "yes", 
		 "theory": "DFT", 
		 "functional": "B3LYP", 
		 "basiset": "6-31G**", 
		 "properties": { 
			 "R2extent": 3056.233, 
			 "electric_dipole_moment_norm": 5.61806696738, 
			 "electric_quadrupole_moment_norm": 15.7895687006, 
			 "total_energy": -608.842837582, 
			 "HOMO_LUMO_gap": 0.13262, 
			 "cosmo_polarized_energy": -10.56, 
			 "cosmo_cavitation_energy": 25.72, 
			 "cosmo_dispersion_energy": -19.54, 
			 "cosmo_repulsion_energy": 1.53, 
			 "cosmo_total_nonelectrostatic_energy": 7.72, 
			 "SMD_solvation_energy": 5.04 
		},
		"coords": [
			{
				"x": 3.2054100424,
				"y": -0.7701566852,
				"z": -1.9848503963,
				"element": "O" 
			},
			{
				"x": 3.0870797602,
				"y": -1.7171680769,
				"z": -1.2041135117,
				"element": "N" 
			},
			{
				"x": 3.921727143,
				"y": -2.6134421042,
				"z": -1.0783284732,
				"element": "O" 
			},
			{
				"x": 1.8629240221,
				"y": -1.8037520962,
				"z": -0.3864103548,
				"element": "C" 
			},
			{
				"x": 1.1256618614,
				"y": -0.6491112928,
				"z": -0.0690427907,
				"element": "C" 
			},
			{
				"x": 1.5251711108,
				"y": 0.763312296,
				"z": -0.4661557225,
				"element": "C" 
			},
			{
				"x": 0.8347314201,
				"y": 1.8300203971,
				"z": 0.3936333012,
				"element": "C" 
			},
			{
				"x": -0.6598838358,
				"y": 1.5425034848,
				"z": 0.5053440012,
				"element": "C" 
			},
			{
				"x": -0.8300459134,
				"y": 0.2275532403,
				"z": 1.1035821091,
				"element": "N" 
			},
			{
				"x": -0.0549080483,
				"y": -0.8484235273,
				"z": 0.6946143142,
				"element": "C" 
			},
			{
				"x": -0.4349662901,
				"y": -2.1469371056,
				"z": 1.0840853785,
				"element": "C" 
			},
			{
				"x": 0.3337526621,
				"y": -3.2533900126,
				"z": 0.7481141342,
				"element": "C" 
			},
			{
				"x": 1.5028288658,
				"y": -3.0918685346,
				"z": 0.0126857979,
				"element": "C" 
			},
			{
				"x": 1.280934013,
				"y": 0.9199153064,
				"z": -1.5234678216,
				"element": "H" 
			},
			{
				"x": 2.6094996621,
				"y": 0.880889286,
				"z": -0.4075168199,
				"element": "H" 
			},
			{
				"x": 0.9957822267,
				"y": 2.819409677,
				"z": -0.0459826153,
				"element": "H" 
			},
			{
				"x": 1.2660208838,
				"y": 1.8430939467,
				"z": 1.4012299701,
				"element": "H" 
			},
			{
				"x": -1.1546775397,
				"y": 2.2787104226,
				"z": 1.1471580053,
				"element": "H" 
			},
			{
				"x": -1.1265213705,
				"y": 1.6072726432,
				"z": -0.4925987471,
				"element": "H" 
			},
			{
				"x": -1.7654488792,
				"y": -0.0095372337,
				"z": 1.4001681567,
				"element": "H" 
			},
			{
				"x": -1.3452166433,
				"y": -2.2731612995,
				"z": 1.6654853526,
				"element": "H" 
			},
			{
				"x": 0.019842112,
				"y": -4.2449703643,
				"z": 1.0587037748,
				"element": "H" 
			},
			{
				"x": 2.1319027348,
				"y": -3.9270623669,
				"z": -0.2634370426,
				"element": "H" 
			}
		],
		 "valence_orbital": [ 
			{
				"type": "occ",
				"energy": -0.29831,
				"method": "rhf"
			},
			{
				"type": "occ",
				"energy": -0.29422,
				"method": "rhf"
			},
			{
				"type": "occ",
				"energy": -0.28073,
				"method": "rhf"
			},
			{
				"type": "occ",
				"energy": -0.25991,
				"method": "rhf"
			},
			{
				"type": "occ",
				"energy": -0.20737,
				"method": "rhf"
			},
			{
				"type": "unocc",
				"energy": -0.07475,
				"method": "rhf"
			},
			{
				"type": "unocc",
				"energy": -0.00494,
				"method": "rhf"
			},
			{
				"type": "unocc",
				"energy": 0.01156,
				"method": "rhf"
			},
			{
				"type": "unocc",
				"energy": 0.07116,
				"method": "rhf"
			},
			{
				"type": "unocc",
				"energy": 0.09327,
				"method": "rhf"
			}
		],
		"cosmo_sigma_profile": { 
			"-0.025": 0.0,
			"-0.024": 0.0,
			"-0.023": 0.0,
			"-0.022": 0.0,
			"-0.021": 0.0,
			"-0.02": 0.0,
			"-0.019": 0.0,
			"-0.018": 0.0,
			"-0.017": 0.0,
			"-0.016": 0.0,
			"-0.015": 0.0,
			"-0.014": 0.025000774973,
			"-0.013": 1.03133435797,
			"-0.012": 1.55306136086,
			"-0.011": 1.60105923403,
			"-0.01": 1.3028483814,
			"-0.009": 1.44325693222,
			"-0.008": 1.79179208298,
			"-0.007": 3.09622421259,
			"-0.006": 7.14718765272,
			"-0.005": 9.51778771608,
			"-0.004": 16.6860260196,
			"-0.003": 22.3269476177,
			"-0.002": 22.9759756648,
			"-0.001": 16.8944342139,
			"0.0": 12.7636625777,
			"0.001": 11.3445939506,
			"0.002": 10.0030351809,
			"0.003": 12.828352961,
			"0.004": 12.6530678929,
			"0.005": 5.4918239937,
			"0.006": 4.71654979052,
			"0.007": 5.36163333463,
			"0.008": 9.88955355789,
			"0.009": 6.10941586464,
			"0.01": 3.82173509365,
			"0.011": 1.08791167295,
			"0.012": 0.0,
			"0.013": 0.0,
			"0.014": 0.0,
			"0.015": 0.0,
			"0.016": 0.0,
			"0.017": 0.0,
			"0.018": 0.0,
			"0.019": 0.0,
			"0.02": 0.0,
			"0.021": 0.0,
			"0.022": 0.0,
			"0.023": 0.0,
			"0.024": 0.0,
			"0.025": 0.0
		}
	}
}
