{
	 "smiles": "CCNC(=O)C1=C(N)C=CC(Cl)=C1", 
	 "Tm": 396.15, 
	 "num_atms": 24, 
	 "gaussian": { 
		 "optdone": 1, 
		 "sigma_profile": "yes", 
		 "theory": "DFT", 
		 "functional": "B3LYP", 
		 "basiset": "6-31G**", 
		 "properties": { 
			 "R2extent": 4093.5171, 
			 "electric_dipole_moment_norm": 1.0402943718, 
			 "electric_quadrupole_moment_norm": 18.0955404874, 
			 "total_energy": -994.541446965, 
			 "HOMO_LUMO_gap": 0.16491, 
			 "cosmo_polarized_energy": -12.08, 
			 "cosmo_cavitation_energy": 29.26, 
			 "cosmo_dispersion_energy": -21.72, 
			 "cosmo_repulsion_energy": 1.75, 
			 "cosmo_total_nonelectrostatic_energy": 9.29, 
			 "SMD_solvation_energy": 4.77 
		},
		"coords": [
			{
				"x": 1.5790054969,
				"y": -2.1954641935,
				"z": -1.7907289167,
				"element": "C" 
			},
			{
				"x": 1.8316366323,
				"y": -1.7845593595,
				"z": -0.3387494938,
				"element": "C" 
			},
			{
				"x": 0.7274939905,
				"y": -1.0145217912,
				"z": 0.2206960131,
				"element": "N" 
			},
			{
				"x": 0.8876531689,
				"y": 0.2336119743,
				"z": 0.7546604938,
				"element": "C" 
			},
			{
				"x": 2.0014204101,
				"y": 0.7736642874,
				"z": 0.8079289218,
				"element": "O" 
			},
			{
				"x": -0.3494785931,
				"y": 0.9009528232,
				"z": 1.2680099118,
				"element": "C" 
			},
			{
				"x": -0.2465378645,
				"y": 1.9285235009,
				"z": 2.2498902999,
				"element": "C" 
			},
			{
				"x": 0.9636319084,
				"y": 2.309234778,
				"z": 2.77013735,
				"element": "N" 
			},
			{
				"x": -1.440386191,
				"y": 2.5197234279,
				"z": 2.7211002274,
				"element": "C" 
			},
			{
				"x": -2.6826694609,
				"y": 2.1476186154,
				"z": 2.2334199563,
				"element": "C" 
			},
			{
				"x": -2.7672360436,
				"y": 1.1629973941,
				"z": 1.2452447691,
				"element": "C" 
			},
			{
				"x": -4.3377079166,
				"y": 0.708745797,
				"z": 0.5896185375,
				"element": "Cl" 
			},
			{
				"x": -1.6162749193,
				"y": 0.5523561386,
				"z": 0.7705781462,
				"element": "C" 
			},
			{
				"x": 1.4533946877,
				"y": -1.3150310601,
				"z": -2.4276689693,
				"element": "H" 
			},
			{
				"x": 0.6783348157,
				"y": -2.8131152034,
				"z": -1.882937516,
				"element": "H" 
			},
			{
				"x": 2.4224816859,
				"y": -2.7801605352,
				"z": -2.1721489716,
				"element": "H" 
			},
			{
				"x": 2.0078948245,
				"y": -2.673441815,
				"z": 0.2814745224,
				"element": "H" 
			},
			{
				"x": 2.71532734,
				"y": -1.1492214189,
				"z": -0.2586193186,
				"element": "H" 
			},
			{
				"x": -0.1578734208,
				"y": -1.4798339273,
				"z": 0.3478996417,
				"element": "H" 
			},
			{
				"x": 1.7710532304,
				"y": 2.0562959288,
				"z": 2.2100020106,
				"element": "H" 
			},
			{
				"x": 0.9955178599,
				"y": 3.1819293272,
				"z": 3.2733537078,
				"element": "H" 
			},
			{
				"x": -1.3747830563,
				"y": 3.2915677059,
				"z": 3.4835051284,
				"element": "H" 
			},
			{
				"x": -3.5831735566,
				"y": 2.6245450771,
				"z": 2.6051627508,
				"element": "H" 
			},
			{
				"x": -1.7041250286,
				"y": -0.1756174719,
				"z": -0.0284292027,
				"element": "H" 
			}
		],
		 "valence_orbital": [ 
			{
				"type": "occ",
				"energy": -0.29426,
				"method": "rhf"
			},
			{
				"type": "occ",
				"energy": -0.2677,
				"method": "rhf"
			},
			{
				"type": "occ",
				"energy": -0.25738,
				"method": "rhf"
			},
			{
				"type": "occ",
				"energy": -0.25404,
				"method": "rhf"
			},
			{
				"type": "occ",
				"energy": -0.20283,
				"method": "rhf"
			},
			{
				"type": "unocc",
				"energy": -0.03792,
				"method": "rhf"
			},
			{
				"type": "unocc",
				"energy": 0.00227,
				"method": "rhf"
			},
			{
				"type": "unocc",
				"energy": 0.0321,
				"method": "rhf"
			},
			{
				"type": "unocc",
				"energy": 0.05456,
				"method": "rhf"
			},
			{
				"type": "unocc",
				"energy": 0.08011,
				"method": "rhf"
			}
		],
		"cosmo_sigma_profile": { 
			"-0.025": 0.0,
			"-0.024": 0.0,
			"-0.023": 0.0,
			"-0.022": 0.0,
			"-0.021": 0.0,
			"-0.02": 0.0,
			"-0.019": 0.0,
			"-0.018": 0.0,
			"-0.017": 0.0,
			"-0.016": 0.0,
			"-0.015": 0.0,
			"-0.014": 0.95409915863,
			"-0.013": 1.9465169418,
			"-0.012": 2.72783188744,
			"-0.011": 3.05331701881,
			"-0.01": 2.19225505768,
			"-0.009": 3.11643756551,
			"-0.008": 4.34760883705,
			"-0.007": 6.31594658342,
			"-0.006": 7.70192328228,
			"-0.005": 7.14143545106,
			"-0.004": 12.5989607741,
			"-0.003": 15.8928056436,
			"-0.002": 17.4983063456,
			"-0.001": 17.9160972618,
			"0.0": 19.7206999595,
			"0.001": 18.0769814725,
			"0.002": 16.1675761088,
			"0.003": 22.0969040544,
			"0.004": 19.6488239929,
			"0.005": 13.2994422161,
			"0.006": 5.24550352337,
			"0.007": 2.4681965926,
			"0.008": 2.24409364318,
			"0.009": 2.17195133885,
			"0.01": 1.78718982397,
			"0.011": 2.4049251557,
			"0.012": 2.84904876717,
			"0.013": 2.36209941153,
			"0.014": 0.423813103593,
			"0.015": 0.0,
			"0.016": 0.0,
			"0.017": 0.0,
			"0.018": 0.0,
			"0.019": 0.0,
			"0.02": 0.0,
			"0.021": 0.0,
			"0.022": 0.0,
			"0.023": 0.0,
			"0.024": 0.0,
			"0.025": 0.0
		}
	}
}
