{
	 "smiles": "CC1=CC=CN=C1NC(=O)C(C(F)(F)F)C(F)(F)F", 
	 "Tm": 454.15, 
	 "num_atms": 27, 
	 "gaussian": { 
		 "optdone": 1, 
		 "sigma_profile": "yes", 
		 "theory": "DFT", 
		 "functional": "B3LYP", 
		 "basiset": "6-31G**", 
		 "properties": { 
			 "R2extent": 7023.1868, 
			 "electric_dipole_moment_norm": 5.66251636466, 
			 "electric_quadrupole_moment_norm": 7.34802292865, 
			 "total_energy": -1169.67439774, 
			 "HOMO_LUMO_gap": 0.20896, 
			 "cosmo_polarized_energy": -18.13, 
			 "cosmo_cavitation_energy": 33.95, 
			 "cosmo_dispersion_energy": -23.07, 
			 "cosmo_repulsion_energy": 1.65, 
			 "cosmo_total_nonelectrostatic_energy": 12.53, 
			 "SMD_solvation_energy": 7.23 
		},
		"coords": [
			{
				"x": 1.9509070875,
				"y": 1.5972286953,
				"z": -1.0265926824,
				"element": "C" 
			},
			{
				"x": 0.4686981753,
				"y": 1.5655928021,
				"z": -0.7463084119,
				"element": "C" 
			},
			{
				"x": -0.3110548604,
				"y": 2.7222898436,
				"z": -0.7809068772,
				"element": "C" 
			},
			{
				"x": -1.6753154851,
				"y": 2.6607219654,
				"z": -0.4978815356,
				"element": "C" 
			},
			{
				"x": -2.2244926454,
				"y": 1.4170312922,
				"z": -0.1955991323,
				"element": "C" 
			},
			{
				"x": -1.5125867191,
				"y": 0.2858788966,
				"z": -0.1745115388,
				"element": "N" 
			},
			{
				"x": -0.2099628006,
				"y": 0.367718528,
				"z": -0.4301975591,
				"element": "C" 
			},
			{
				"x": 0.5254638733,
				"y": -0.8439200103,
				"z": -0.4152213736,
				"element": "N" 
			},
			{
				"x": 0.3669335655,
				"y": -1.8787132625,
				"z": 0.4850404003,
				"element": "C" 
			},
			{
				"x": -0.4263236806,
				"y": -1.9141899014,
				"z": 1.3971043046,
				"element": "O" 
			},
			{
				"x": 1.3489373278,
				"y": -3.0561648635,
				"z": 0.2062525177,
				"element": "C" 
			},
			{
				"x": 2.7687671273,
				"y": -2.6902862925,
				"z": 0.6468868628,
				"element": "C" 
			},
			{
				"x": 3.6242886415,
				"y": -3.716651763,
				"z": 0.5365412905,
				"element": "F" 
			},
			{
				"x": 2.8080161691,
				"y": -2.2429545392,
				"z": 1.9085775818,
				"element": "F" 
			},
			{
				"x": 3.246645027,
				"y": -1.6919913563,
				"z": -0.1537080601,
				"element": "F" 
			},
			{
				"x": 0.8512574121,
				"y": -4.3539634915,
				"z": 0.8547110169,
				"element": "C" 
			},
			{
				"x": -0.4188129349,
				"y": -4.5960319635,
				"z": 0.4949318162,
				"element": "F" 
			},
			{
				"x": 0.9286245066,
				"y": -4.3219252932,
				"z": 2.1905650787,
				"element": "F" 
			},
			{
				"x": 1.5939802478,
				"y": -5.3985021563,
				"z": 0.4242179838,
				"element": "F" 
			},
			{
				"x": 2.3138240526,
				"y": 2.626806015,
				"z": -1.0746107375,
				"element": "H" 
			},
			{
				"x": 2.1974348983,
				"y": 1.1257348637,
				"z": -1.9881095989,
				"element": "H" 
			},
			{
				"x": 2.5227561377,
				"y": 1.0737131617,
				"z": -0.2527459901,
				"element": "H" 
			},
			{
				"x": 0.1591413063,
				"y": 3.6733798673,
				"z": -1.017499884,
				"element": "H" 
			},
			{
				"x": -2.2941566807,
				"y": 3.5517675897,
				"z": -0.5117710615,
				"element": "H" 
			},
			{
				"x": -3.2840928673,
				"y": 1.3154946703,
				"z": 0.0298678228,
				"element": "H" 
			},
			{
				"x": 1.3696611575,
				"y": -0.8599462185,
				"z": -0.9684679365,
				"element": "H" 
			},
			{
				"x": 1.3974619608,
				"y": -3.2547170793,
				"z": -0.8686642967,
				"element": "H" 
			}
		],
		 "valence_orbital": [ 
			{
				"type": "occ",
				"energy": -0.31824,
				"method": "rhf"
			},
			{
				"type": "occ",
				"energy": -0.28774,
				"method": "rhf"
			},
			{
				"type": "occ",
				"energy": -0.28441,
				"method": "rhf"
			},
			{
				"type": "occ",
				"energy": -0.25515,
				"method": "rhf"
			},
			{
				"type": "occ",
				"energy": -0.24428,
				"method": "rhf"
			},
			{
				"type": "unocc",
				"energy": -0.03532,
				"method": "rhf"
			},
			{
				"type": "unocc",
				"energy": -0.02481,
				"method": "rhf"
			},
			{
				"type": "unocc",
				"energy": 0.01156,
				"method": "rhf"
			},
			{
				"type": "unocc",
				"energy": 0.06292,
				"method": "rhf"
			},
			{
				"type": "unocc",
				"energy": 0.07898,
				"method": "rhf"
			}
		],
		"cosmo_sigma_profile": { 
			"-0.025": 0.0,
			"-0.024": 0.0,
			"-0.023": 0.0,
			"-0.022": 0.0,
			"-0.021": 0.0,
			"-0.02": 0.0,
			"-0.019": 0.0,
			"-0.018": 0.0,
			"-0.017": 0.0,
			"-0.016": 0.0731057731466,
			"-0.015": 0.632535449393,
			"-0.014": 1.26917301799,
			"-0.013": 1.81701542998,
			"-0.012": 3.9957855687,
			"-0.011": 2.62308438864,
			"-0.01": 2.19123283726,
			"-0.009": 2.40951681023,
			"-0.008": 1.88724330841,
			"-0.007": 6.48636717698,
			"-0.006": 11.1328790526,
			"-0.005": 14.3012250952,
			"-0.004": 13.4643373557,
			"-0.003": 13.982326951,
			"-0.002": 16.4788986237,
			"-0.001": 18.9765508255,
			"0.0": 18.0521377107,
			"0.001": 33.9109554976,
			"0.002": 53.7446267143,
			"0.003": 17.719006323,
			"0.004": 4.69467673385,
			"0.005": 3.99802022171,
			"0.006": 2.95343792229,
			"0.007": 2.89026742927,
			"0.008": 2.83650193444,
			"0.009": 2.71910862273,
			"0.01": 3.08044534258,
			"0.011": 4.59150213393,
			"0.012": 2.8367290001,
			"0.013": 0.940332551829,
			"0.014": 1.84179282776,
			"0.015": 1.3395319881,
			"0.016": 1.12127439516,
			"0.017": 0.645603513646,
			"0.018": 0.0161164985058,
			"0.019": 0.0,
			"0.02": 0.0,
			"0.021": 0.0,
			"0.022": 0.0,
			"0.023": 0.0,
			"0.024": 0.0,
			"0.025": 0.0
		}
	}
}
