{
	 "smiles": "CN1C=CN=C1SCC(=O)NC1=C(C=CC=C1)C(O)=O", 
	 "Tm": 477.15, 
	 "num_atms": 33, 
	 "gaussian": { 
		 "optdone": 1, 
		 "sigma_profile": "yes", 
		 "theory": "DFT", 
		 "functional": "B3LYP", 
		 "basiset": "6-31G**", 
		 "properties": { 
			 "R2extent": 6340.4716, 
			 "electric_dipole_moment_norm": 4.8781610408, 
			 "electric_quadrupole_moment_norm": 16.5425666603, 
			 "total_energy": -1291.35431654, 
			 "HOMO_LUMO_gap": 0.1408, 
			 "cosmo_polarized_energy": -20.12, 
			 "cosmo_cavitation_energy": 38.29, 
			 "cosmo_dispersion_energy": -27.19, 
			 "cosmo_repulsion_energy": 2.0, 
			 "cosmo_total_nonelectrostatic_energy": 13.11, 
			 "SMD_solvation_energy": 6.68 
		},
		"coords": [
			{
				"x": 2.5836648555,
				"y": 2.5805862905,
				"z": 0.0681048983,
				"element": "C" 
			},
			{
				"x": 2.8163628916,
				"y": 1.4974408403,
				"z": 1.0169607476,
				"element": "N" 
			},
			{
				"x": 3.9079251205,
				"y": 0.6453908793,
				"z": 1.0473276107,
				"element": "C" 
			},
			{
				"x": 3.66052926,
				"y": -0.2481908734,
				"z": 2.0564068939,
				"element": "C" 
			},
			{
				"x": 2.4550464296,
				"y": 0.0293427187,
				"z": 2.6615691139,
				"element": "N" 
			},
			{
				"x": 1.9799164149,
				"y": 1.0728577168,
				"z": 2.0129933047,
				"element": "C" 
			},
			{
				"x": 0.4532789909,
				"y": 1.9126318434,
				"z": 2.3703125651,
				"element": "S" 
			},
			{
				"x": -0.425909673,
				"y": 0.5493986462,
				"z": 3.2159407383,
				"element": "C" 
			},
			{
				"x": -1.2705212966,
				"y": -0.4336196463,
				"z": 2.394875039,
				"element": "C" 
			},
			{
				"x": -1.9256463072,
				"y": -1.2674512383,
				"z": 3.0042475261,
				"element": "O" 
			},
			{
				"x": -1.2154464332,
				"y": -0.30726323,
				"z": 1.0271121497,
				"element": "N" 
			},
			{
				"x": -1.8488215561,
				"y": -1.1039471758,
				"z": 0.0686168979,
				"element": "C" 
			},
			{
				"x": -1.5126107032,
				"y": -0.945460936,
				"z": -1.3074116447,
				"element": "C" 
			},
			{
				"x": -2.1926171363,
				"y": -1.7126279379,
				"z": -2.27097133,
				"element": "C" 
			},
			{
				"x": -3.1541144671,
				"y": -2.6471688838,
				"z": -1.9142081318,
				"element": "C" 
			},
			{
				"x": -3.443295169,
				"y": -2.8284619329,
				"z": -0.5592393412,
				"element": "C" 
			},
			{
				"x": -2.8084353002,
				"y": -2.0733945395,
				"z": 0.4198603038,
				"element": "C" 
			},
			{
				"x": -0.4736932142,
				"y": 0.0268253727,
				"z": -1.7416852796,
				"element": "C" 
			},
			{
				"x": 0.1156580641,
				"y": -0.1879984189,
				"z": -2.941919945,
				"element": "O" 
			},
			{
				"x": -0.1233402256,
				"y": 0.9966321064,
				"z": -1.0900123028,
				"element": "O" 
			},
			{
				"x": 2.449700814,
				"y": 3.5315436702,
				"z": 0.5921072059,
				"element": "H" 
			},
			{
				"x": 1.7015776081,
				"y": 2.3656094825,
				"z": -0.5399717252,
				"element": "H" 
			},
			{
				"x": 3.4573967259,
				"y": 2.6635997462,
				"z": -0.5798290944,
				"element": "H" 
			},
			{
				"x": 4.7313459561,
				"y": 0.762565311,
				"z": 0.3594661009,
				"element": "H" 
			},
			{
				"x": 4.2781021433,
				"y": -1.071490915,
				"z": 2.387183081,
				"element": "H" 
			},
			{
				"x": 0.3279843969,
				"y": -0.0336088243,
				"z": 3.7518176035,
				"element": "H" 
			},
			{
				"x": -1.0876106386,
				"y": 1.0100343377,
				"z": 3.9524877408,
				"element": "H" 
			},
			{
				"x": -0.6617908743,
				"y": 0.4605309501,
				"z": 0.6471104059,
				"element": "H" 
			},
			{
				"x": -1.9974926734,
				"y": -1.5411469945,
				"z": -3.3267632587,
				"element": "H" 
			},
			{
				"x": -3.673231921,
				"y": -3.2188275768,
				"z": -2.6763096519,
				"element": "H" 
			},
			{
				"x": -4.1859718226,
				"y": -3.5609926523,
				"z": -0.2565528941,
				"element": "H" 
			},
			{
				"x": -3.0372989066,
				"y": -2.2126481847,
				"z": 1.4661602594,
				"element": "H" 
			},
			{
				"x": -0.1144413531,
				"y": -1.0673899515,
				"z": -3.2726855871,
				"element": "H" 
			}
		],
		 "valence_orbital": [ 
			{
				"type": "occ",
				"energy": -0.26877,
				"method": "rhf"
			},
			{
				"type": "occ",
				"energy": -0.26481,
				"method": "rhf"
			},
			{
				"type": "occ",
				"energy": -0.25516,
				"method": "rhf"
			},
			{
				"type": "occ",
				"energy": -0.23634,
				"method": "rhf"
			},
			{
				"type": "occ",
				"energy": -0.2027,
				"method": "rhf"
			},
			{
				"type": "unocc",
				"energy": -0.0619,
				"method": "rhf"
			},
			{
				"type": "unocc",
				"energy": -0.02779,
				"method": "rhf"
			},
			{
				"type": "unocc",
				"energy": 0.0159,
				"method": "rhf"
			},
			{
				"type": "unocc",
				"energy": 0.03448,
				"method": "rhf"
			},
			{
				"type": "unocc",
				"energy": 0.03623,
				"method": "rhf"
			}
		],
		"cosmo_sigma_profile": { 
			"-0.025": 0.0,
			"-0.024": 0.0,
			"-0.023": 0.0,
			"-0.022": 0.0,
			"-0.021": 0.0,
			"-0.02": 0.0,
			"-0.019": 0.362220087447,
			"-0.018": 1.24876818992,
			"-0.017": 0.764804654238,
			"-0.016": 0.899432287511,
			"-0.015": 0.898612826212,
			"-0.014": 0.55903588089,
			"-0.013": 1.66774294579,
			"-0.012": 1.41059764337,
			"-0.011": 0.687871069102,
			"-0.01": 0.772621853354,
			"-0.009": 3.09606635736,
			"-0.008": 8.12611158697,
			"-0.007": 11.3402952903,
			"-0.006": 17.4720436802,
			"-0.005": 18.760931618,
			"-0.004": 19.2008124785,
			"-0.003": 22.3666960048,
			"-0.002": 16.6833430244,
			"-0.001": 18.642020108,
			"0.0": 21.1698045196,
			"0.001": 18.3012739308,
			"0.002": 22.6750729315,
			"0.003": 24.3674006141,
			"0.004": 15.9577341951,
			"0.005": 12.4241529774,
			"0.006": 10.7447564152,
			"0.007": 7.60569375711,
			"0.008": 5.75856342105,
			"0.009": 7.31050061736,
			"0.01": 6.41907210613,
			"0.011": 3.42153161713,
			"0.012": 4.10871152439,
			"0.013": 2.84554180868,
			"0.014": 1.16860227463,
			"0.015": 0.107220457302,
			"0.016": 0.0,
			"0.017": 0.0,
			"0.018": 0.0,
			"0.019": 0.0,
			"0.02": 0.0,
			"0.021": 0.0,
			"0.022": 0.0,
			"0.023": 0.0,
			"0.024": 0.0,
			"0.025": 0.0
		}
	}
}
