{
	 "smiles": "OC(=O)C1=CC2=C(N1)C(=CC=C2)C(F)(F)F", 
	 "Tm": 453.15, 
	 "num_atms": 22, 
	 "gaussian": { 
		 "optdone": 1, 
		 "sigma_profile": "yes", 
		 "theory": "DFT", 
		 "functional": "B3LYP", 
		 "basiset": "6-31G**", 
		 "properties": { 
			 "R2extent": 3767.0346, 
			 "electric_dipole_moment_norm": 3.62863146379, 
			 "electric_quadrupole_moment_norm": 17.9170088561, 
			 "total_energy": -889.418721081, 
			 "HOMO_LUMO_gap": 0.17186, 
			 "cosmo_polarized_energy": -16.55, 
			 "cosmo_cavitation_energy": 28.55, 
			 "cosmo_dispersion_energy": -20.31, 
			 "cosmo_repulsion_energy": 1.5, 
			 "cosmo_total_nonelectrostatic_energy": 9.74, 
			 "SMD_solvation_energy": 6.83 
		},
		"coords": [
			{
				"x": -0.0097808311,
				"y": -1.0824398516,
				"z": -4.1128960114,
				"element": "O" 
			},
			{
				"x": 0.8914749859,
				"y": -1.7246015198,
				"z": -3.3099273315,
				"element": "C" 
			},
			{
				"x": 1.6958878405,
				"y": -2.4927200858,
				"z": -3.7779665259,
				"element": "O" 
			},
			{
				"x": 0.8110444968,
				"y": -1.4026100619,
				"z": -1.8708923421,
				"element": "C" 
			},
			{
				"x": 1.2554739721,
				"y": -2.1631912473,
				"z": -0.8165229056,
				"element": "C" 
			},
			{
				"x": 0.9162530705,
				"y": -1.4654148401,
				"z": 0.3855296986,
				"element": "C" 
			},
			{
				"x": 0.2748536195,
				"y": -0.2559717,
				"z": -0.0065121945,
				"element": "C" 
			},
			{
				"x": 0.1887722069,
				"y": -0.2539132023,
				"z": -1.379788003,
				"element": "N" 
			},
			{
				"x": -0.1610278704,
				"y": 0.6884145839,
				"z": 0.9387042917,
				"element": "C" 
			},
			{
				"x": 0.0329990617,
				"y": 0.3915435956,
				"z": 2.2832043975,
				"element": "C" 
			},
			{
				"x": 0.6453012889,
				"y": -0.8112135772,
				"z": 2.6872696487,
				"element": "C" 
			},
			{
				"x": 1.091331953,
				"y": -1.7363786167,
				"z": 1.754959076,
				"element": "C" 
			},
			{
				"x": -0.7291078654,
				"y": 2.0063977436,
				"z": 0.5081493632,
				"element": "C" 
			},
			{
				"x": -1.4888179292,
				"y": 1.873959403,
				"z": -0.6177417771,
				"element": "F" 
			},
			{
				"x": -1.5017421484,
				"y": 2.5709704344,
				"z": 1.4527193067,
				"element": "F" 
			},
			{
				"x": 0.2416626609,
				"y": 2.8977932914,
				"z": 0.1968540989,
				"element": "F" 
			},
			{
				"x": -0.7492278795,
				"y": -0.7461595173,
				"z": -3.5858664233,
				"element": "H" 
			},
			{
				"x": 1.740388758,
				"y": -3.1235392462,
				"z": -0.9108903281,
				"element": "H" 
			},
			{
				"x": -0.0456040691,
				"y": 0.5634936041,
				"z": -1.9224405792,
				"element": "H" 
			},
			{
				"x": -0.3015748619,
				"y": 1.1029811924,
				"z": 3.0302133934,
				"element": "H" 
			},
			{
				"x": 0.7715692819,
				"y": -1.0069832454,
				"z": 3.7471034604,
				"element": "H" 
			},
			{
				"x": 1.5713702584,
				"y": -2.6567171368,
				"z": 2.0737376864,
				"element": "H" 
			}
		],
		 "valence_orbital": [ 
			{
				"type": "occ",
				"energy": -0.3272,
				"method": "rhf"
			},
			{
				"type": "occ",
				"energy": -0.30822,
				"method": "rhf"
			},
			{
				"type": "occ",
				"energy": -0.28516,
				"method": "rhf"
			},
			{
				"type": "occ",
				"energy": -0.25354,
				"method": "rhf"
			},
			{
				"type": "occ",
				"energy": -0.23842,
				"method": "rhf"
			},
			{
				"type": "unocc",
				"energy": -0.06656,
				"method": "rhf"
			},
			{
				"type": "unocc",
				"energy": -0.01723,
				"method": "rhf"
			},
			{
				"type": "unocc",
				"energy": 0.00446,
				"method": "rhf"
			},
			{
				"type": "unocc",
				"energy": 0.03824,
				"method": "rhf"
			},
			{
				"type": "unocc",
				"energy": 0.08402,
				"method": "rhf"
			}
		],
		"cosmo_sigma_profile": { 
			"-0.025": 0.0,
			"-0.024": 0.0,
			"-0.023": 0.0,
			"-0.022": 0.0,
			"-0.021": 0.0,
			"-0.02": 0.347126330517,
			"-0.019": 1.22542654649,
			"-0.018": 1.26117639984,
			"-0.017": 1.40590148145,
			"-0.016": 1.79152336247,
			"-0.015": 1.27663933607,
			"-0.014": 1.9732959265,
			"-0.013": 1.66913179744,
			"-0.012": 0.856426404416,
			"-0.011": 1.75797269284,
			"-0.01": 2.01386580777,
			"-0.009": 1.65919804412,
			"-0.008": 1.74775782188,
			"-0.007": 6.43339101374,
			"-0.006": 9.50971269229,
			"-0.005": 10.7825347553,
			"-0.004": 10.8524653406,
			"-0.003": 8.98871751662,
			"-0.002": 8.95610979281,
			"-0.001": 13.070853429,
			"0.0": 14.7990711167,
			"0.001": 20.4513883415,
			"0.002": 34.7014990689,
			"0.003": 33.0557411414,
			"0.004": 8.68282905207,
			"0.005": 2.9784852592,
			"0.006": 2.66577072613,
			"0.007": 1.9887638229,
			"0.008": 3.02106646501,
			"0.009": 3.63847904568,
			"0.01": 4.94618355424,
			"0.011": 5.95791435895,
			"0.012": 4.51464659517,
			"0.013": 0.88502782407,
			"0.014": 0.0,
			"0.015": 0.0,
			"0.016": 0.0,
			"0.017": 0.0,
			"0.018": 0.0,
			"0.019": 0.0,
			"0.02": 0.0,
			"0.021": 0.0,
			"0.022": 0.0,
			"0.023": 0.0,
			"0.024": 0.0,
			"0.025": 0.0
		}
	}
}
