{
	 "smiles": "O=C1NS(=O)(=O)C2=C1C=CC=N2", 
	 "Tm": 473.15, 
	 "num_atms": 16, 
	 "gaussian": { 
		 "optdone": 1, 
		 "sigma_profile": "yes", 
		 "theory": "DFT", 
		 "functional": "B3LYP", 
		 "basiset": "6-31G**", 
		 "properties": { 
			 "R2extent": 2625.3381, 
			 "electric_dipole_moment_norm": 4.67113447248, 
			 "electric_quadrupole_moment_norm": 18.8646352337, 
			 "total_energy": -964.329507069, 
			 "HOMO_LUMO_gap": 0.20175, 
			 "cosmo_polarized_energy": -17.83, 
			 "cosmo_cavitation_energy": 22.73, 
			 "cosmo_dispersion_energy": -17.69, 
			 "cosmo_repulsion_energy": 1.35, 
			 "cosmo_total_nonelectrostatic_energy": 6.39, 
			 "SMD_solvation_energy": 2.35 
		},
		"coords": [
			{
				"x": -2.5979152827,
				"y": 1.3413205375,
				"z": 0.0458824884,
				"element": "O" 
			},
			{
				"x": -2.0732832865,
				"y": 0.2565140263,
				"z": -0.1036909512,
				"element": "C" 
			},
			{
				"x": -2.6821563367,
				"y": -0.8628331213,
				"z": -0.6559129089,
				"element": "N" 
			},
			{
				"x": -1.7397373013,
				"y": -2.3060585896,
				"z": -0.7743376472,
				"element": "S" 
			},
			{
				"x": -1.4986828099,
				"y": -2.6131495538,
				"z": -2.1806990954,
				"element": "O" 
			},
			{
				"x": -2.2927377485,
				"y": -3.3205065274,
				"z": 0.1173957154,
				"element": "O" 
			},
			{
				"x": -0.3390266872,
				"y": -1.4332483347,
				"z": -0.0215066164,
				"element": "C" 
			},
			{
				"x": -0.6764642928,
				"y": -0.1148070598,
				"z": 0.2662414262,
				"element": "C" 
			},
			{
				"x": 0.295984142,
				"y": 0.6917912872,
				"z": 0.8502970242,
				"element": "C" 
			},
			{
				"x": 1.5385438283,
				"y": 0.107608933,
				"z": 1.1012739658,
				"element": "C" 
			},
			{
				"x": 1.7526164438,
				"y": -1.2352735384,
				"z": 0.7635343208,
				"element": "C" 
			},
			{
				"x": 0.8194668679,
				"y": -2.0210768056,
				"z": 0.1993122764,
				"element": "N" 
			},
			{
				"x": -3.6397738928,
				"y": -0.8426336453,
				"z": -0.9850276992,
				"element": "H" 
			},
			{
				"x": 0.0782020008,
				"y": 1.7270164851,
				"z": 1.0924525088,
				"element": "H" 
			},
			{
				"x": 2.3409530822,
				"y": 0.6797962976,
				"z": 1.5545594401,
				"element": "H" 
			},
			{
				"x": 2.7151112735,
				"y": -1.7032603908,
				"z": 0.9531257522,
				"element": "H" 
			}
		],
		 "valence_orbital": [ 
			{
				"type": "occ",
				"energy": -0.32849,
				"method": "rhf"
			},
			{
				"type": "occ",
				"energy": -0.30348,
				"method": "rhf"
			},
			{
				"type": "occ",
				"energy": -0.30299,
				"method": "rhf"
			},
			{
				"type": "occ",
				"energy": -0.2947,
				"method": "rhf"
			},
			{
				"type": "occ",
				"energy": -0.2912,
				"method": "rhf"
			},
			{
				"type": "unocc",
				"energy": -0.08945,
				"method": "rhf"
			},
			{
				"type": "unocc",
				"energy": -0.07505,
				"method": "rhf"
			},
			{
				"type": "unocc",
				"energy": 0.01607,
				"method": "rhf"
			},
			{
				"type": "unocc",
				"energy": 0.02701,
				"method": "rhf"
			},
			{
				"type": "unocc",
				"energy": 0.02911,
				"method": "rhf"
			}
		],
		"cosmo_sigma_profile": { 
			"-0.025": 0.0,
			"-0.024": 0.0,
			"-0.023": 0.0,
			"-0.022": 0.0,
			"-0.021": 0.0,
			"-0.02": 0.0,
			"-0.019": 0.164000617398,
			"-0.018": 1.66506400299,
			"-0.017": 1.24168497613,
			"-0.016": 1.71535658549,
			"-0.015": 0.858302792465,
			"-0.014": 0.190552321843,
			"-0.013": 0.936295904329,
			"-0.012": 1.24791381118,
			"-0.011": 0.57387233997,
			"-0.01": 1.72205900798,
			"-0.009": 7.16436091053,
			"-0.008": 9.29160618024,
			"-0.007": 7.58106671409,
			"-0.006": 6.95555444365,
			"-0.005": 8.05484765026,
			"-0.004": 10.3570327462,
			"-0.003": 13.1687801917,
			"-0.002": 14.0334555949,
			"-0.001": 12.0222112868,
			"0.0": 5.75521578916,
			"0.001": 6.37794309647,
			"0.002": 5.49491380835,
			"0.003": 4.78468668748,
			"0.004": 5.98455443084,
			"0.005": 4.16104254652,
			"0.006": 5.67951556764,
			"0.007": 4.43550803752,
			"0.008": 8.63285806773,
			"0.009": 17.4931630651,
			"0.01": 9.58802921012,
			"0.011": 5.78156558178,
			"0.012": 0.976669871957,
			"0.013": 0.0443057571179,
			"0.014": 0.0,
			"0.015": 0.0,
			"0.016": 0.0,
			"0.017": 0.0,
			"0.018": 0.0,
			"0.019": 0.0,
			"0.02": 0.0,
			"0.021": 0.0,
			"0.022": 0.0,
			"0.023": 0.0,
			"0.024": 0.0,
			"0.025": 0.0
		}
	}
}
