{
	 "smiles": "COC1=C(OCC(=O)N2CCCC2)C=CC(C=O)=C1", 
	 "Tm": 391.15, 
	 "num_atms": 36, 
	 "gaussian": { 
		 "optdone": 1, 
		 "sigma_profile": "yes", 
		 "theory": "DFT", 
		 "functional": "B3LYP", 
		 "basiset": "6-31G**", 
		 "properties": { 
			 "R2extent": 8422.9638, 
			 "electric_dipole_moment_norm": 6.57644022629, 
			 "electric_quadrupole_moment_norm": 20.1638563888, 
			 "total_energy": -899.354937632, 
			 "HOMO_LUMO_gap": 0.17976, 
			 "cosmo_polarized_energy": -18.02, 
			 "cosmo_cavitation_energy": 39.02, 
			 "cosmo_dispersion_energy": -27.71, 
			 "cosmo_repulsion_energy": 2.15, 
			 "cosmo_total_nonelectrostatic_energy": 13.47, 
			 "SMD_solvation_energy": 7.9 
		},
		"coords": [
			{
				"x": 3.2277111946,
				"y": 1.6980799493,
				"z": -1.0870651979,
				"element": "C" 
			},
			{
				"x": 3.1184800726,
				"y": 0.3181903108,
				"z": -0.6794613361,
				"element": "O" 
			},
			{
				"x": 2.6889967798,
				"y": -0.5462163219,
				"z": -1.6575461491,
				"element": "C" 
			},
			{
				"x": 1.3635393241,
				"y": -0.5192458595,
				"z": -2.1434568962,
				"element": "C" 
			},
			{
				"x": 0.4550453184,
				"y": 0.4107439428,
				"z": -1.7132412525,
				"element": "O" 
			},
			{
				"x": 0.1127159748,
				"y": 0.3830996427,
				"z": -0.3311542817,
				"element": "C" 
			},
			{
				"x": -0.3384024671,
				"y": 1.7902081648,
				"z": 0.0792806958,
				"element": "C" 
			},
			{
				"x": -0.0121484368,
				"y": 2.7882188314,
				"z": -0.5544504623,
				"element": "O" 
			},
			{
				"x": -1.0889943969,
				"y": 1.8598198555,
				"z": 1.2127431062,
				"element": "N" 
			},
			{
				"x": -1.5532571607,
				"y": 3.1641538452,
				"z": 1.7121608947,
				"element": "C" 
			},
			{
				"x": -2.5657714536,
				"y": 2.7861019288,
				"z": 2.8015885194,
				"element": "C" 
			},
			{
				"x": -2.028217146,
				"y": 1.4478977654,
				"z": 3.3365420662,
				"element": "C" 
			},
			{
				"x": -1.5113506514,
				"y": 0.7428830463,
				"z": 2.071462415,
				"element": "C" 
			},
			{
				"x": 0.9672357237,
				"y": -1.4170916423,
				"z": -3.1432580662,
				"element": "C" 
			},
			{
				"x": 1.8594190554,
				"y": -2.3576202566,
				"z": -3.6406859306,
				"element": "C" 
			},
			{
				"x": 3.1669187922,
				"y": -2.4155280352,
				"z": -3.1349461813,
				"element": "C" 
			},
			{
				"x": 4.1232327216,
				"y": -3.420907605,
				"z": -3.6414017314,
				"element": "C" 
			},
			{
				"x": 3.8713794192,
				"y": -4.2494766318,
				"z": -4.4970419461,
				"element": "O" 
			},
			{
				"x": 3.5717301138,
				"y": -1.5034877561,
				"z": -2.1510468144,
				"element": "C" 
			},
			{
				"x": 3.6654211886,
				"y": 2.2237136375,
				"z": -0.2362870938,
				"element": "H" 
			},
			{
				"x": 2.2500595995,
				"y": 2.1275686769,
				"z": -1.3217397567,
				"element": "H" 
			},
			{
				"x": 3.8983433661,
				"y": 1.7849223665,
				"z": -1.9500906642,
				"element": "H" 
			},
			{
				"x": 0.9755905622,
				"y": 0.101441363,
				"z": 0.2843230009,
				"element": "H" 
			},
			{
				"x": -0.6833111895,
				"y": -0.3559121932,
				"z": -0.170233164,
				"element": "H" 
			},
			{
				"x": -0.7083070013,
				"y": 3.7358504213,
				"z": 2.1176460063,
				"element": "H" 
			},
			{
				"x": -1.9790073909,
				"y": 3.7496842378,
				"z": 0.8937653925,
				"element": "H" 
			},
			{
				"x": -2.6519365561,
				"y": 3.5532396798,
				"z": 3.5752556577,
				"element": "H" 
			},
			{
				"x": -3.5585158327,
				"y": 2.6435053656,
				"z": 2.3597358885,
				"element": "H" 
			},
			{
				"x": -1.1964698973,
				"y": 1.62528723,
				"z": 4.0274501534,
				"element": "H" 
			},
			{
				"x": -2.7800665734,
				"y": 0.8540880611,
				"z": 3.8627727804,
				"element": "H" 
			},
			{
				"x": -2.3096499213,
				"y": 0.1574694675,
				"z": 1.5928940032,
				"element": "H" 
			},
			{
				"x": -0.680525457,
				"y": 0.0631542284,
				"z": 2.2879562248,
				"element": "H" 
			},
			{
				"x": -0.0535275191,
				"y": -1.353862319,
				"z": -3.5065701961,
				"element": "H" 
			},
			{
				"x": 1.5659975971,
				"y": -3.064978215,
				"z": -4.4092857766,
				"element": "H" 
			},
			{
				"x": 5.1322378571,
				"y": -3.3746989948,
				"z": -3.1727548897,
				"element": "H" 
			},
			{
				"x": 4.5855043901,
				"y": -1.520096188,
				"z": -1.759159018,
				"element": "H" 
			}
		],
		 "valence_orbital": [ 
			{
				"type": "occ",
				"energy": -0.25478,
				"method": "rhf"
			},
			{
				"type": "occ",
				"energy": -0.25272,
				"method": "rhf"
			},
			{
				"type": "occ",
				"energy": -0.24803,
				"method": "rhf"
			},
			{
				"type": "occ",
				"energy": -0.24473,
				"method": "rhf"
			},
			{
				"type": "occ",
				"energy": -0.23541,
				"method": "rhf"
			},
			{
				"type": "unocc",
				"energy": -0.05565,
				"method": "rhf"
			},
			{
				"type": "unocc",
				"energy": -0.00858,
				"method": "rhf"
			},
			{
				"type": "unocc",
				"energy": 0.0177,
				"method": "rhf"
			},
			{
				"type": "unocc",
				"energy": 0.04551,
				"method": "rhf"
			},
			{
				"type": "unocc",
				"energy": 0.06596,
				"method": "rhf"
			}
		],
		"cosmo_sigma_profile": { 
			"-0.025": 0.0,
			"-0.024": 0.0,
			"-0.023": 0.0,
			"-0.022": 0.0,
			"-0.021": 0.0,
			"-0.02": 0.0,
			"-0.019": 0.0,
			"-0.018": 0.0,
			"-0.017": 0.0,
			"-0.016": 0.0,
			"-0.015": 0.0,
			"-0.014": 0.0,
			"-0.013": 0.0,
			"-0.012": 0.0,
			"-0.011": 0.0,
			"-0.01": 0.0,
			"-0.009": 0.0,
			"-0.008": 1.9007214899,
			"-0.007": 8.49513834184,
			"-0.006": 15.7701259196,
			"-0.005": 21.2087833786,
			"-0.004": 32.6995183652,
			"-0.003": 40.3509370353,
			"-0.002": 33.7788951555,
			"-0.001": 26.0265913936,
			"0.0": 21.9997264361,
			"0.001": 17.7465713428,
			"0.002": 18.3095785719,
			"0.003": 12.0358299267,
			"0.004": 4.95505915211,
			"0.005": 5.84258432703,
			"0.006": 3.88474581722,
			"0.007": 5.47667601398,
			"0.008": 4.69730323603,
			"0.009": 4.70503287745,
			"0.01": 5.69996758843,
			"0.011": 6.60371488309,
			"0.012": 5.97433460943,
			"0.013": 4.20777461854,
			"0.014": 4.46944091615,
			"0.015": 1.39254117829,
			"0.016": 0.0785486313325,
			"0.017": 0.0,
			"0.018": 0.0,
			"0.019": 0.0,
			"0.02": 0.0,
			"0.021": 0.0,
			"0.022": 0.0,
			"0.023": 0.0,
			"0.024": 0.0,
			"0.025": 0.0
		}
	}
}
