{
	 "smiles": "COCCC1=CC=C(C=C1)S(Cl)(=O)=O", 
	 "Tm": 314.15, 
	 "num_atms": 25, 
	 "gaussian": { 
		 "optdone": 1, 
		 "sigma_profile": "yes", 
		 "theory": "DFT", 
		 "functional": "B3LYP", 
		 "basiset": "6-31G**", 
		 "properties": { 
			 "R2extent": 5226.3812, 
			 "electric_dipole_moment_norm": 7.09432085967, 
			 "electric_quadrupole_moment_norm": 13.1068850342, 
			 "total_energy": -1433.56101155, 
			 "HOMO_LUMO_gap": 0.18593, 
			 "cosmo_polarized_energy": -10.64, 
			 "cosmo_cavitation_energy": 32.31, 
			 "cosmo_dispersion_energy": -23.59, 
			 "cosmo_repulsion_energy": 1.85, 
			 "cosmo_total_nonelectrostatic_energy": 10.57, 
			 "SMD_solvation_energy": 4.65 
		},
		"coords": [
			{
				"x": -3.9627124306,
				"y": 1.0334669447,
				"z": 1.4344989358,
				"element": "C" 
			},
			{
				"x": -3.0307684963,
				"y": -0.003525941,
				"z": 1.2006022319,
				"element": "O" 
			},
			{
				"x": -2.2416213715,
				"y": -0.3037984083,
				"z": 2.334677669,
				"element": "C" 
			},
			{
				"x": -1.2161783557,
				"y": -1.3770649187,
				"z": 1.9531455099,
				"element": "C" 
			},
			{
				"x": -0.1446646317,
				"y": -0.8941005271,
				"z": 0.999950767,
				"element": "C" 
			},
			{
				"x": 1.1777458794,
				"y": -0.7336355723,
				"z": 1.4384596159,
				"element": "C" 
			},
			{
				"x": 2.1749132431,
				"y": -0.2777742133,
				"z": 0.5785880464,
				"element": "C" 
			},
			{
				"x": 1.8275670159,
				"y": 0.0148688644,
				"z": -0.7396083569,
				"element": "C" 
			},
			{
				"x": 0.5224394811,
				"y": -0.1337785835,
				"z": -1.2133574725,
				"element": "C" 
			},
			{
				"x": -0.4564591656,
				"y": -0.5912081114,
				"z": -0.3363579577,
				"element": "C" 
			},
			{
				"x": 3.0947939357,
				"y": 0.579167336,
				"z": -1.8591110168,
				"element": "S" 
			},
			{
				"x": 2.9761686311,
				"y": 2.7020916382,
				"z": -1.6016516312,
				"element": "Cl" 
			},
			{
				"x": 2.6839128485,
				"y": 0.3205885329,
				"z": -3.2337275636,
				"element": "O" 
			},
			{
				"x": 4.404613128,
				"y": 0.1885583032,
				"z": -1.3516092325,
				"element": "O" 
			},
			{
				"x": -4.6701624597,
				"y": 0.7713740474,
				"z": 2.23655794,
				"element": "H" 
			},
			{
				"x": -3.4635402129,
				"y": 1.9757633919,
				"z": 1.7077880839,
				"element": "H" 
			},
			{
				"x": -4.5202352753,
				"y": 1.1839585413,
				"z": 0.507358481,
				"element": "H" 
			},
			{
				"x": -2.8759996694,
				"y": -0.6790857742,
				"z": 3.1553385245,
				"element": "H" 
			},
			{
				"x": -1.7287951784,
				"y": 0.6009633591,
				"z": 2.7019653375,
				"element": "H" 
			},
			{
				"x": -1.7636869237,
				"y": -2.2167870328,
				"z": 1.5092327679,
				"element": "H" 
			},
			{
				"x": -0.7514215848,
				"y": -1.746860584,
				"z": 2.8733766143,
				"element": "H" 
			},
			{
				"x": 1.43480533,
				"y": -0.9742190256,
				"z": 2.4663824089,
				"element": "H" 
			},
			{
				"x": 3.1994068128,
				"y": -0.1627364104,
				"z": 0.9140309023,
				"element": "H" 
			},
			{
				"x": 0.287867447,
				"y": 0.093380985,
				"z": -2.2472520424,
				"element": "H" 
			},
			{
				"x": -1.477787997,
				"y": -0.7069068414,
				"z": -0.6804785627,
				"element": "H" 
			}
		],
		 "valence_orbital": [ 
			{
				"type": "occ",
				"energy": -0.32424,
				"method": "rhf"
			},
			{
				"type": "occ",
				"energy": -0.30686,
				"method": "rhf"
			},
			{
				"type": "occ",
				"energy": -0.2816,
				"method": "rhf"
			},
			{
				"type": "occ",
				"energy": -0.27529,
				"method": "rhf"
			},
			{
				"type": "occ",
				"energy": -0.27047,
				"method": "rhf"
			},
			{
				"type": "unocc",
				"energy": -0.08454,
				"method": "rhf"
			},
			{
				"type": "unocc",
				"energy": -0.03689,
				"method": "rhf"
			},
			{
				"type": "unocc",
				"energy": -0.03027,
				"method": "rhf"
			},
			{
				"type": "unocc",
				"energy": 0.05407,
				"method": "rhf"
			},
			{
				"type": "unocc",
				"energy": 0.07973,
				"method": "rhf"
			}
		],
		"cosmo_sigma_profile": { 
			"-0.025": 0.0,
			"-0.024": 0.0,
			"-0.023": 0.0,
			"-0.022": 0.0,
			"-0.021": 0.0,
			"-0.02": 0.0,
			"-0.019": 0.0,
			"-0.018": 0.0,
			"-0.017": 0.0,
			"-0.016": 0.0,
			"-0.015": 0.0,
			"-0.014": 0.0,
			"-0.013": 0.0,
			"-0.012": 0.0,
			"-0.011": 0.0,
			"-0.01": 0.0,
			"-0.009": 0.0701697018189,
			"-0.008": 2.68466933201,
			"-0.007": 5.88108420836,
			"-0.006": 9.663592078,
			"-0.005": 12.9465194531,
			"-0.004": 25.0805477243,
			"-0.003": 30.4256559448,
			"-0.002": 26.9034553742,
			"-0.001": 18.6977799534,
			"0.0": 17.3671623462,
			"0.001": 19.493291788,
			"0.002": 20.0616885544,
			"0.003": 16.7071646189,
			"0.004": 14.9217252252,
			"0.005": 6.70419997759,
			"0.006": 5.25291753677,
			"0.007": 6.98625818802,
			"0.008": 10.7687285064,
			"0.009": 6.48969284578,
			"0.01": 1.05106872149,
			"0.011": 0.500530538404,
			"0.012": 0.387761904623,
			"0.013": 0.0384325151592,
			"0.014": 0.0,
			"0.015": 0.0,
			"0.016": 0.0,
			"0.017": 0.0,
			"0.018": 0.0,
			"0.019": 0.0,
			"0.02": 0.0,
			"0.021": 0.0,
			"0.022": 0.0,
			"0.023": 0.0,
			"0.024": 0.0,
			"0.025": 0.0
		}
	}
}
