{
	 "smiles": "CC=C(C)C(C)C", 
	 "Tm": 149.15, 
	 "num_atms": 21, 
	 "gaussian": { 
		 "optdone": 1, 
		 "sigma_profile": "yes", 
		 "theory": "DFT", 
		 "functional": "B3LYP", 
		 "basiset": "6-31G**", 
		 "properties": { 
			 "R2extent": 1005.7477, 
			 "electric_dipole_moment_norm": 0.156835040728, 
			 "electric_quadrupole_moment_norm": 1.48619986206, 
			 "total_energy": -275.178551739, 
			 "HOMO_LUMO_gap": 0.25979, 
			 "cosmo_polarized_energy": -1.5, 
			 "cosmo_cavitation_energy": 22.0, 
			 "cosmo_dispersion_energy": -15.77, 
			 "cosmo_repulsion_energy": 1.34, 
			 "cosmo_total_nonelectrostatic_energy": 7.57, 
			 "SMD_solvation_energy": 4.37 
		},
		"coords": [
			{
				"x": 1.2803468281,
				"y": 1.2390441475,
				"z": 1.2990868092,
				"element": "C" 
			},
			{
				"x": 1.5899575657,
				"y": -0.1264053159,
				"z": 0.7486509077,
				"element": "C" 
			},
			{
				"x": 0.7753213488,
				"y": -1.0321900669,
				"z": 0.1842874876,
				"element": "C" 
			},
			{
				"x": 1.3418556642,
				"y": -2.3502244022,
				"z": -0.2953763623,
				"element": "C" 
			},
			{
				"x": -0.7335044664,
				"y": -0.8815071788,
				"z": -0.0424705405,
				"element": "C" 
			},
			{
				"x": -1.0885079315,
				"y": 0.2487313317,
				"z": -1.028645424,
				"element": "C" 
			},
			{
				"x": -1.5365033413,
				"y": -0.7776982786,
				"z": 1.2691623916,
				"element": "C" 
			},
			{
				"x": 1.8696373339,
				"y": 2.0071383867,
				"z": 0.7808762657,
				"element": "H" 
			},
			{
				"x": 0.2297789454,
				"y": 1.5179911142,
				"z": 1.2173119339,
				"element": "H" 
			},
			{
				"x": 1.559285333,
				"y": 1.3006192928,
				"z": 2.3593630058,
				"element": "H" 
			},
			{
				"x": 2.6424863992,
				"y": -0.4026183868,
				"z": 0.8304414297,
				"element": "H" 
			},
			{
				"x": 2.4186701215,
				"y": -2.4259230079,
				"z": -0.1195255551,
				"element": "H" 
			},
			{
				"x": 0.8553467803,
				"y": -3.1964278911,
				"z": 0.2088147017,
				"element": "H" 
			},
			{
				"x": 1.1629951561,
				"y": -2.4893435162,
				"z": -1.370375442,
				"element": "H" 
			},
			{
				"x": -1.0604439829,
				"y": -1.8138062652,
				"z": -0.5226804034,
				"element": "H" 
			},
			{
				"x": -0.8458736786,
				"y": 1.2369078431,
				"z": -0.6280149085,
				"element": "H" 
			},
			{
				"x": -2.1607191936,
				"y": 0.2365313127,
				"z": -1.2559828861,
				"element": "H" 
			},
			{
				"x": -0.5432568048,
				"y": 0.1325464908,
				"z": -1.9709256291,
				"element": "H" 
			},
			{
				"x": -1.3046946195,
				"y": -1.6129468261,
				"z": 1.9379773142,
				"element": "H" 
			},
			{
				"x": -1.3222167722,
				"y": 0.1472758994,
				"z": 1.8116579372,
				"element": "H" 
			},
			{
				"x": -2.6127606853,
				"y": -0.7999946833,
				"z": 1.0626669669,
				"element": "H" 
			}
		],
		 "valence_orbital": [ 
			{
				"type": "occ",
				"energy": -0.34985,
				"method": "rhf"
			},
			{
				"type": "occ",
				"energy": -0.33571,
				"method": "rhf"
			},
			{
				"type": "occ",
				"energy": -0.3128,
				"method": "rhf"
			},
			{
				"type": "occ",
				"energy": -0.30447,
				"method": "rhf"
			},
			{
				"type": "occ",
				"energy": -0.22408,
				"method": "rhf"
			},
			{
				"type": "unocc",
				"energy": 0.03571,
				"method": "rhf"
			},
			{
				"type": "unocc",
				"energy": 0.08586,
				"method": "rhf"
			},
			{
				"type": "unocc",
				"energy": 0.1105,
				"method": "rhf"
			},
			{
				"type": "unocc",
				"energy": 0.12686,
				"method": "rhf"
			},
			{
				"type": "unocc",
				"energy": 0.13944,
				"method": "rhf"
			}
		],
		"cosmo_sigma_profile": { 
			"-0.025": 0.0,
			"-0.024": 0.0,
			"-0.023": 0.0,
			"-0.022": 0.0,
			"-0.021": 0.0,
			"-0.02": 0.0,
			"-0.019": 0.0,
			"-0.018": 0.0,
			"-0.017": 0.0,
			"-0.016": 0.0,
			"-0.015": 0.0,
			"-0.014": 0.0,
			"-0.013": 0.0,
			"-0.012": 0.0,
			"-0.011": 0.0,
			"-0.01": 0.0,
			"-0.009": 0.0,
			"-0.008": 0.0,
			"-0.007": 0.0,
			"-0.006": 0.0,
			"-0.005": 0.0,
			"-0.004": 2.45459280501,
			"-0.003": 15.7647728581,
			"-0.002": 27.3878780297,
			"-0.001": 31.257280895,
			"0.0": 29.919738046,
			"0.001": 30.4145845828,
			"0.002": 16.2334166213,
			"0.003": 4.62599150448,
			"0.004": 3.898526935,
			"0.005": 2.97696232963,
			"0.006": 2.56123867567,
			"0.007": 2.31674035819,
			"0.008": 0.487349411111,
			"0.009": 0.0,
			"0.01": 0.0,
			"0.011": 0.0,
			"0.012": 0.0,
			"0.013": 0.0,
			"0.014": 0.0,
			"0.015": 0.0,
			"0.016": 0.0,
			"0.017": 0.0,
			"0.018": 0.0,
			"0.019": 0.0,
			"0.02": 0.0,
			"0.021": 0.0,
			"0.022": 0.0,
			"0.023": 0.0,
			"0.024": 0.0,
			"0.025": 0.0
		}
	}
}
