{
	 "smiles": "CCCCC1=CC=C(C=C1)C(=O)NC1=C(C=CS1)C(O)=O", 
	 "Tm": 457.15, 
	 "num_atms": 38, 
	 "gaussian": { 
		 "optdone": 1, 
		 "sigma_profile": "yes", 
		 "theory": "DFT", 
		 "functional": "B3LYP", 
		 "basiset": "6-31G**", 
		 "properties": { 
			 "R2extent": 8165.4676, 
			 "electric_dipole_moment_norm": 4.42019365526, 
			 "electric_quadrupole_moment_norm": 22.5547459123, 
			 "total_energy": -1298.5862234, 
			 "HOMO_LUMO_gap": 0.17777, 
			 "cosmo_polarized_energy": -17.54, 
			 "cosmo_cavitation_energy": 43.46, 
			 "cosmo_dispersion_energy": -29.08, 
			 "cosmo_repulsion_energy": 2.25, 
			 "cosmo_total_nonelectrostatic_energy": 16.63, 
			 "SMD_solvation_energy": 8.44 
		},
		"coords": [
			{
				"x": -1.7076093295,
				"y": 2.8715449558,
				"z": 2.6344440436,
				"element": "C" 
			},
			{
				"x": -1.468978606,
				"y": 2.4694916321,
				"z": 1.1754680733,
				"element": "C" 
			},
			{
				"x": -0.4373342346,
				"y": 3.3598930929,
				"z": 0.472475643,
				"element": "C" 
			},
			{
				"x": -0.1768260905,
				"y": 2.9877360868,
				"z": -1.0043473009,
				"element": "C" 
			},
			{
				"x": 0.4764735364,
				"y": 1.6349601456,
				"z": -1.1938724449,
				"element": "C" 
			},
			{
				"x": 1.8430299199,
				"y": 1.4586527268,
				"z": -0.9196391262,
				"element": "C" 
			},
			{
				"x": 2.4537354284,
				"y": 0.2207996764,
				"z": -1.0784785566,
				"element": "C" 
			},
			{
				"x": 1.7074490398,
				"y": -0.8903285923,
				"z": -1.4978966609,
				"element": "C" 
			},
			{
				"x": 0.3478345198,
				"y": -0.7241681438,
				"z": -1.7866256172,
				"element": "C" 
			},
			{
				"x": -0.2539785998,
				"y": 0.5259204639,
				"z": -1.6384139581,
				"element": "C" 
			},
			{
				"x": 2.4471816959,
				"y": -2.1686511334,
				"z": -1.7196576778,
				"element": "C" 
			},
			{
				"x": 3.610030668,
				"y": -2.1938578856,
				"z": -2.0880330482,
				"element": "O" 
			},
			{
				"x": 1.7578650499,
				"y": -3.3844949486,
				"z": -1.593936162,
				"element": "N" 
			},
			{
				"x": 0.6472217848,
				"y": -3.6907850101,
				"z": -0.8087545788,
				"element": "C" 
			},
			{
				"x": 0.3591457407,
				"y": -3.3941000523,
				"z": 0.5138910871,
				"element": "C" 
			},
			{
				"x": -0.9165151748,
				"y": -3.9080797895,
				"z": 0.9264870954,
				"element": "C" 
			},
			{
				"x": -1.5650505864,
				"y": -4.5955267809,
				"z": -0.053009596,
				"element": "C" 
			},
			{
				"x": -0.6594765202,
				"y": -4.6047807818,
				"z": -1.5359221714,
				"element": "S" 
			},
			{
				"x": 1.2972066619,
				"y": -2.7127114518,
				"z": 1.4263157308,
				"element": "C" 
			},
			{
				"x": 0.7771472433,
				"y": -2.5773450753,
				"z": 2.6749906872,
				"element": "O" 
			},
			{
				"x": 2.4144847425,
				"y": -2.3207696958,
				"z": 1.1514584558,
				"element": "O" 
			},
			{
				"x": -0.7834713772,
				"y": 2.8036848078,
				"z": 3.2199137479,
				"element": "H" 
			},
			{
				"x": -2.0692804301,
				"y": 3.9036093339,
				"z": 2.7092645054,
				"element": "H" 
			},
			{
				"x": -2.4506854041,
				"y": 2.2239970365,
				"z": 3.1113332372,
				"element": "H" 
			},
			{
				"x": -2.4181186536,
				"y": 2.513834589,
				"z": 0.623238117,
				"element": "H" 
			},
			{
				"x": -1.1399341876,
				"y": 1.4240690191,
				"z": 1.1313740216,
				"element": "H" 
			},
			{
				"x": -0.7751375905,
				"y": 4.4042767066,
				"z": 0.5116721517,
				"element": "H" 
			},
			{
				"x": 0.5115771633,
				"y": 3.3239218071,
				"z": 1.0246884045,
				"element": "H" 
			},
			{
				"x": -1.1256600349,
				"y": 3.0159828768,
				"z": -1.5541431438,
				"element": "H" 
			},
			{
				"x": 0.4637768735,
				"y": 3.7593102382,
				"z": -1.4494061383,
				"element": "H" 
			},
			{
				"x": 2.43504367,
				"y": 2.3086895083,
				"z": -0.5886553839,
				"element": "H" 
			},
			{
				"x": 3.5125541579,
				"y": 0.0900445221,
				"z": -0.8842982585,
				"element": "H" 
			},
			{
				"x": -0.2414489998,
				"y": -1.5582840376,
				"z": -2.1520536334,
				"element": "H" 
			},
			{
				"x": -1.3071413388,
				"y": 0.6428597215,
				"z": -1.8807683251,
				"element": "H" 
			},
			{
				"x": 2.339278587,
				"y": -4.1606404239,
				"z": -1.8919914306,
				"element": "H" 
			},
			{
				"x": -1.2999632591,
				"y": -3.7789585315,
				"z": 1.9300676059,
				"element": "H" 
			},
			{
				"x": -2.5133907964,
				"y": -5.111008201,
				"z": 0.0053067016,
				"element": "H" 
			},
			{
				"x": 1.4677647308,
				"y": -2.137488412,
				"z": 3.1977139036,
				"element": "H" 
			}
		],
		 "valence_orbital": [ 
			{
				"type": "occ",
				"energy": -0.27181,
				"method": "rhf"
			},
			{
				"type": "occ",
				"energy": -0.25854,
				"method": "rhf"
			},
			{
				"type": "occ",
				"energy": -0.2517,
				"method": "rhf"
			},
			{
				"type": "occ",
				"energy": -0.23906,
				"method": "rhf"
			},
			{
				"type": "occ",
				"energy": -0.23393,
				"method": "rhf"
			},
			{
				"type": "unocc",
				"energy": -0.05616,
				"method": "rhf"
			},
			{
				"type": "unocc",
				"energy": -0.02734,
				"method": "rhf"
			},
			{
				"type": "unocc",
				"energy": -0.00522,
				"method": "rhf"
			},
			{
				"type": "unocc",
				"energy": 0.00263,
				"method": "rhf"
			},
			{
				"type": "unocc",
				"energy": 0.0081,
				"method": "rhf"
			}
		],
		"cosmo_sigma_profile": { 
			"-0.025": 0.0,
			"-0.024": 0.0,
			"-0.023": 0.0,
			"-0.022": 0.0,
			"-0.021": 0.0,
			"-0.02": 0.0,
			"-0.019": 0.00113137180044,
			"-0.018": 0.802160405627,
			"-0.017": 0.590044092906,
			"-0.016": 1.30662537923,
			"-0.015": 1.32505267038,
			"-0.014": 1.7867567826,
			"-0.013": 0.933865222992,
			"-0.012": 1.97982232714,
			"-0.011": 2.59912109119,
			"-0.01": 1.62053896853,
			"-0.009": 3.21028803475,
			"-0.008": 3.64498269617,
			"-0.007": 4.34088285185,
			"-0.006": 7.80276133786,
			"-0.005": 12.4089158977,
			"-0.004": 17.1770190168,
			"-0.003": 23.6082930661,
			"-0.002": 34.4436004329,
			"-0.001": 37.837406573,
			"0.0": 39.7546759119,
			"0.001": 42.0999500927,
			"0.002": 27.7670004043,
			"0.003": 17.3640350983,
			"0.004": 15.7399447571,
			"0.005": 7.864394144,
			"0.006": 4.26213644731,
			"0.007": 6.07744280508,
			"0.008": 4.09175009535,
			"0.009": 3.23451898757,
			"0.01": 4.88040742853,
			"0.011": 4.68454146172,
			"0.012": 6.17905771542,
			"0.013": 4.08076394723,
			"0.014": 0.317343898986,
			"0.015": 0.0,
			"0.016": 0.0,
			"0.017": 0.0,
			"0.018": 0.0,
			"0.019": 0.0,
			"0.02": 0.0,
			"0.021": 0.0,
			"0.022": 0.0,
			"0.023": 0.0,
			"0.024": 0.0,
			"0.025": 0.0
		}
	}
}
