{
	 "smiles": "IC1=CC=C(C=C1)N=C=S", 
	 "Tm": 350.15, 
	 "num_atms": 14, 
	 "gaussian": { 
		 "optdone": 1, 
		 "sigma_profile": "no", 
		 "theory": "DFT", 
		 "functional": "B3LYP", 
		 "basiset": "6-31G**", 
		 "properties": { 
			 "R2extent": 2633.4051, 
			 "electric_dipole_moment_norm": 2.07752708767, 
			 "electric_quadrupole_moment_norm": 13.3637458824, 
			 "total_energy": -733.472458116, 
			 "HOMO_LUMO_gap": 0.1738, 
			 "cosmo_polarized_energy": -102467.76, 
			 "cosmo_cavitation_energy": 25.07, 
			 "cosmo_dispersion_energy": -20.2, 
			 "cosmo_repulsion_energy": 1.57, 
			 "cosmo_total_nonelectrostatic_energy": 6.44, 
			 "SMD_solvation_energy": 4.01 
		},
		"coords": [
			{
				"x": -0.0394256405,
				"y": 0.3353388905,
				"z": -4.5898455113,
				"element": "I" 
			},
			{
				"x": -0.0943065739,
				"y": 0.3213328943,
				"z": -2.474679806,
				"element": "C" 
			},
			{
				"x": 1.0054384266,
				"y": -0.1573878117,
				"z": -1.7571996337,
				"element": "C" 
			},
			{
				"x": 0.9709189807,
				"y": -0.1670862329,
				"z": -0.3656568295,
				"element": "C" 
			},
			{
				"x": -0.166370733,
				"y": 0.3032102708,
				"z": 0.3111380565,
				"element": "C" 
			},
			{
				"x": -1.2673536279,
				"y": 0.7825576967,
				"z": -0.4173768411,
				"element": "C" 
			},
			{
				"x": -1.2298760308,
				"y": 0.7909717597,
				"z": -1.8088561654,
				"element": "C" 
			},
			{
				"x": -0.2017170844,
				"y": 0.2944351975,
				"z": 1.6811624976,
				"element": "N" 
			},
			{
				"x": -0.2323312997,
				"y": 0.2868599746,
				"z": 2.8682294865,
				"element": "C" 
			},
			{
				"x": -0.2733147264,
				"y": 0.2768230034,
				"z": 4.4599741263,
				"element": "S" 
			},
			{
				"x": 1.8856844362,
				"y": -0.5214894983,
				"z": -2.2745480916,
				"element": "H" 
			},
			{
				"x": 1.8172592727,
				"y": -0.5358133214,
				"z": 0.2036411727,
				"element": "H" 
			},
			{
				"x": -2.1421384443,
				"y": 1.1440758866,
				"z": 0.1121599977,
				"element": "H" 
			},
			{
				"x": -2.0823669552,
				"y": 1.1619712902,
				"z": -2.3662424587,
				"element": "H" 
			}
		],
		 "valence_orbital": [ 
			{
				"type": "occ",
				"energy": -0.28533,
				"method": "rhf"
			},
			{
				"type": "occ",
				"energy": -0.28002,
				"method": "rhf"
			},
			{
				"type": "occ",
				"energy": -0.27379,
				"method": "rhf"
			},
			{
				"type": "occ",
				"energy": -0.25814,
				"method": "rhf"
			},
			{
				"type": "occ",
				"energy": -0.2339,
				"method": "rhf"
			},
			{
				"type": "unocc",
				"energy": -0.0601,
				"method": "rhf"
			},
			{
				"type": "unocc",
				"energy": -0.05012,
				"method": "rhf"
			},
			{
				"type": "unocc",
				"energy": -0.03419,
				"method": "rhf"
			},
			{
				"type": "unocc",
				"energy": -0.00213,
				"method": "rhf"
			},
			{
				"type": "unocc",
				"energy": 0.02922,
				"method": "rhf"
			}
		],
		"cosmo_sigma_profile": { 
			"0.0": 0.0,
			"0.0": 0.0,
			"0.0": 0.0,
			"0.0": 0.0,
			"0.0": 0.0,
			"0.0": 0.0,
			"0.0": 0.0,
			"0.0": 0.0,
			"0.0": 0.0,
			"0.0": 0.0,
			"0.0": 0.0,
			"0.0": 0.0,
			"0.0": 0.0,
			"0.0": 0.0,
			"0.0": 0.0,
			"0.0": 0.0,
			"0.0": 0.0,
			"0.0": 0.0,
			"0.0": 0.0,
			"0.0": 0.0,
			"0.0": 0.0,
			"0.0": 0.0,
			"0.0": 0.0,
			"0.0": 0.0,
			"0.0": 0.0,
			"0.0": 0.0,
			"0.0": 0.0,
			"0.0": 0.0,
			"0.0": 0.0,
			"0.0": 0.0,
			"0.0": 0.0,
			"0.0": 0.0,
			"0.0": 0.0,
			"0.0": 0.0,
			"0.0": 0.0,
			"0.0": 0.0,
			"0.0": 0.0,
			"0.0": 0.0,
			"0.0": 0.0,
			"0.0": 0.0,
			"0.0": 0.0,
			"0.0": 0.0,
			"0.0": 0.0,
			"0.0": 0.0,
			"0.0": 0.0,
			"0.0": 0.0,
			"0.0": 0.0,
			"0.0": 0.0,
			"0.0": 0.0,
			"0.0": 0.0,
			"0.0": 0.0
		}
	}
}
