{
	 "smiles": "N#CC1=CC=C(CN2C=CN=C2)C=C1", 
	 "Tm": 377.15, 
	 "num_atms": 23, 
	 "gaussian": { 
		 "optdone": 1, 
		 "sigma_profile": "yes", 
		 "theory": "DFT", 
		 "functional": "B3LYP", 
		 "basiset": "6-31G**", 
		 "properties": { 
			 "R2extent": 4150.8397, 
			 "electric_dipole_moment_norm": 3.99787938412, 
			 "electric_quadrupole_moment_norm": 29.095671033, 
			 "total_energy": -588.820959271, 
			 "HOMO_LUMO_gap": 0.17243, 
			 "cosmo_polarized_energy": -17.77, 
			 "cosmo_cavitation_energy": 28.82, 
			 "cosmo_dispersion_energy": -19.97, 
			 "cosmo_repulsion_energy": 1.56, 
			 "cosmo_total_nonelectrostatic_energy": 10.41, 
			 "SMD_solvation_energy": 5.29 
		},
		"coords": [
			{
				"x": 2.9887682914,
				"y": -3.8642890778,
				"z": 2.3883804615,
				"element": "N" 
			},
			{
				"x": 2.4289936101,
				"y": -2.8903879463,
				"z": 2.0862214637,
				"element": "C" 
			},
			{
				"x": 1.7373379656,
				"y": -1.6900879752,
				"z": 1.7151902254,
				"element": "C" 
			},
			{
				"x": 0.9908457453,
				"y": -0.9828565194,
				"z": 2.6715903886,
				"element": "C" 
			},
			{
				"x": 0.3277056552,
				"y": 0.1840345637,
				"z": 2.3044675953,
				"element": "C" 
			},
			{
				"x": 0.3877860254,
				"y": 0.6613619006,
				"z": 0.9894025183,
				"element": "C" 
			},
			{
				"x": -0.3933610402,
				"y": 1.9088726223,
				"z": 0.6080535014,
				"element": "C" 
			},
			{
				"x": 0.2257763676,
				"y": 2.7061716109,
				"z": -0.4379425102,
				"element": "N" 
			},
			{
				"x": 1.397812585,
				"y": 3.4349838777,
				"z": -0.3433792893,
				"element": "C" 
			},
			{
				"x": 1.5858444194,
				"y": 3.9905468309,
				"z": -1.5842911197,
				"element": "C" 
			},
			{
				"x": 0.5703374012,
				"y": 3.6273469405,
				"z": -2.4411514167,
				"element": "N" 
			},
			{
				"x": -0.2216474265,
				"y": 2.8607196241,
				"z": -1.7250228501,
				"element": "C" 
			},
			{
				"x": 1.1355609673,
				"y": -0.0475448012,
				"z": 0.0408256481,
				"element": "C" 
			},
			{
				"x": 1.8074063574,
				"y": -1.2128998816,
				"z": 0.3953889386,
				"element": "C" 
			},
			{
				"x": 0.9425916903,
				"y": -1.3467098753,
				"z": 3.6923657394,
				"element": "H" 
			},
			{
				"x": -0.2418247267,
				"y": 0.7308104104,
				"z": 3.0515581895,
				"element": "H" 
			},
			{
				"x": -0.5488317196,
				"y": 2.5330129584,
				"z": 1.4948926366,
				"element": "H" 
			},
			{
				"x": -1.389114061,
				"y": 1.6261933078,
				"z": 0.2467188063,
				"element": "H" 
			},
			{
				"x": 1.9676663575,
				"y": 3.480041173,
				"z": 0.5721867766,
				"element": "H" 
			},
			{
				"x": 2.3926606233,
				"y": 4.6338947458,
				"z": -1.907431997,
				"element": "H" 
			},
			{
				"x": -1.1359322834,
				"y": 2.3930801682,
				"z": -2.0675454655,
				"element": "H" 
			},
			{
				"x": 1.1997386473,
				"y": 0.3206035372,
				"z": -0.9782458694,
				"element": "H" 
			},
			{
				"x": 2.387978548,
				"y": -1.7576981948,
				"z": -0.3414323712,
				"element": "H" 
			}
		],
		 "valence_orbital": [ 
			{
				"type": "occ",
				"energy": -0.28603,
				"method": "rhf"
			},
			{
				"type": "occ",
				"energy": -0.2805,
				"method": "rhf"
			},
			{
				"type": "occ",
				"energy": -0.26996,
				"method": "rhf"
			},
			{
				"type": "occ",
				"energy": -0.2676,
				"method": "rhf"
			},
			{
				"type": "occ",
				"energy": -0.23407,
				"method": "rhf"
			},
			{
				"type": "unocc",
				"energy": -0.06164,
				"method": "rhf"
			},
			{
				"type": "unocc",
				"energy": -0.03552,
				"method": "rhf"
			},
			{
				"type": "unocc",
				"energy": 0.01715,
				"method": "rhf"
			},
			{
				"type": "unocc",
				"energy": 0.03111,
				"method": "rhf"
			},
			{
				"type": "unocc",
				"energy": 0.05796,
				"method": "rhf"
			}
		],
		"cosmo_sigma_profile": { 
			"-0.025": 0.0,
			"-0.024": 0.0,
			"-0.023": 0.0,
			"-0.022": 0.0,
			"-0.021": 0.0,
			"-0.02": 0.0,
			"-0.019": 0.0,
			"-0.018": 0.0,
			"-0.017": 0.0,
			"-0.016": 0.0,
			"-0.015": 0.0,
			"-0.014": 0.0,
			"-0.013": 0.0,
			"-0.012": 0.0,
			"-0.011": 0.0,
			"-0.01": 0.422567836661,
			"-0.009": 3.23589008059,
			"-0.008": 11.6020864994,
			"-0.007": 18.5963946059,
			"-0.006": 17.3161055598,
			"-0.005": 16.0968378463,
			"-0.004": 12.9358678425,
			"-0.003": 12.825411267,
			"-0.002": 12.5269482511,
			"-0.001": 13.6301957693,
			"0.0": 14.2505043661,
			"0.001": 15.2868227361,
			"0.002": 17.9294487912,
			"0.003": 10.1384902191,
			"0.004": 6.5098548045,
			"0.005": 7.27324338634,
			"0.006": 6.27826917133,
			"0.007": 4.73221708869,
			"0.008": 4.51218355205,
			"0.009": 5.32280690579,
			"0.01": 4.92872776878,
			"0.011": 4.46491445044,
			"0.012": 3.43770508157,
			"0.013": 2.9313526202,
			"0.014": 0.666851299847,
			"0.015": 1.71354812813,
			"0.016": 1.0291909222,
			"0.017": 1.15586352989,
			"0.018": 0.90507446562,
			"0.019": 0.103320885727,
			"0.02": 0.0,
			"0.021": 0.0,
			"0.022": 0.0,
			"0.023": 0.0,
			"0.024": 0.0,
			"0.025": 0.0
		}
	}
}
