{
	 "smiles": "[O-][N+](=O)C1=CC=C(C=C1)C1=CC=C(O1)C=CC(=O)C1=CC=CO1", 
	 "Tm": 460.15, 
	 "num_atms": 34, 
	 "gaussian": { 
		 "optdone": 1, 
		 "sigma_profile": "yes", 
		 "theory": "DFT", 
		 "functional": "B3LYP", 
		 "basiset": "6-31G**", 
		 "properties": { 
			 "R2extent": 8789.9817, 
			 "electric_dipole_moment_norm": 7.70546647128, 
			 "electric_quadrupole_moment_norm": 24.6386500965, 
			 "total_energy": -1085.145667, 
			 "HOMO_LUMO_gap": 0.12344, 
			 "cosmo_polarized_energy": -19.41, 
			 "cosmo_cavitation_energy": 41.56, 
			 "cosmo_dispersion_energy": -27.51, 
			 "cosmo_repulsion_energy": 2.07, 
			 "cosmo_total_nonelectrostatic_energy": 16.12, 
			 "SMD_solvation_energy": 11.02 
		},
		"coords": [
			{
				"x": -5.3268094679,
				"y": -0.6503929576,
				"z": -3.6161386802,
				"element": "O" 
			},
			{
				"x": -5.0487863648,
				"y": -0.5348366031,
				"z": -2.4212058872,
				"element": "N" 
			},
			{
				"x": -5.8725181242,
				"y": -0.557516297,
				"z": -1.5056916875,
				"element": "O" 
			},
			{
				"x": -3.638182712,
				"y": -0.3554306343,
				"z": -2.0647991636,
				"element": "C" 
			},
			{
				"x": -3.2851547994,
				"y": -0.2299812223,
				"z": -0.7214468338,
				"element": "C" 
			},
			{
				"x": -1.948671435,
				"y": -0.0551472217,
				"z": -0.386914766,
				"element": "C" 
			},
			{
				"x": -0.9596314331,
				"y": -0.004893003,
				"z": -1.3910328756,
				"element": "C" 
			},
			{
				"x": -1.3493085784,
				"y": -0.1370829724,
				"z": -2.7399735377,
				"element": "C" 
			},
			{
				"x": -2.6820635886,
				"y": -0.3121229403,
				"z": -3.0808800793,
				"element": "C" 
			},
			{
				"x": 0.4387749842,
				"y": 0.1808197941,
				"z": -1.0470314518,
				"element": "C" 
			},
			{
				"x": 1.6010464149,
				"y": 0.2430056124,
				"z": -1.7842656926,
				"element": "C" 
			},
			{
				"x": 2.6615801914,
				"y": 0.4306500402,
				"z": -0.8613382948,
				"element": "C" 
			},
			{
				"x": 2.0943609198,
				"y": 0.4818361013,
				"z": 0.3932558424,
				"element": "C" 
			},
			{
				"x": 0.742072984,
				"y": 0.3245042099,
				"z": 0.2788339036,
				"element": "O" 
			},
			{
				"x": 2.685101096,
				"y": 0.6300347322,
				"z": 1.7003766228,
				"element": "C" 
			},
			{
				"x": 2.0650309655,
				"y": 0.7666550201,
				"z": 2.8899833225,
				"element": "C" 
			},
			{
				"x": 0.585575724,
				"y": 0.8083912949,
				"z": 3.1510605422,
				"element": "C" 
			},
			{
				"x": 0.0425041365,
				"y": -0.0827020708,
				"z": 3.7900309826,
				"element": "O" 
			},
			{
				"x": -0.1408693238,
				"y": 1.9931085186,
				"z": 2.6828838851,
				"element": "C" 
			},
			{
				"x": 0.2616271161,
				"y": 3.187660278,
				"z": 2.1350950247,
				"element": "C" 
			},
			{
				"x": -0.9161611606,
				"y": 3.9627673948,
				"z": 1.9351415516,
				"element": "C" 
			},
			{
				"x": -1.9517890174,
				"y": 3.1849980643,
				"z": 2.3728168663,
				"element": "C" 
			},
			{
				"x": -1.5035428038,
				"y": 1.9940490924,
				"z": 2.8313099155,
				"element": "O" 
			},
			{
				"x": -4.0566061797,
				"y": -0.2725642385,
				"z": 0.0371094031,
				"element": "H" 
			},
			{
				"x": -1.6643418035,
				"y": 0.0428905586,
				"z": 0.6542583874,
				"element": "H" 
			},
			{
				"x": -0.6023717121,
				"y": -0.1005306681,
				"z": -3.5260306523,
				"element": "H" 
			},
			{
				"x": -2.9972951479,
				"y": -0.4143490598,
				"z": -4.1115540164,
				"element": "H" 
			},
			{
				"x": 1.6853997616,
				"y": 0.1576291598,
				"z": -2.8576338393,
				"element": "H" 
			},
			{
				"x": 3.7151337693,
				"y": 0.520130206,
				"z": -1.0847483638,
				"element": "H" 
			},
			{
				"x": 3.7716103825,
				"y": 0.5767275033,
				"z": 1.6919092365,
				"element": "H" 
			},
			{
				"x": 2.6728503653,
				"y": 0.748425842,
				"z": 3.7914928553,
				"element": "H" 
			},
			{
				"x": 1.2801239407,
				"y": 3.4686345341,
				"z": 1.9117571623,
				"element": "H" 
			},
			{
				"x": -0.9879953888,
				"y": 4.9595816384,
				"z": 1.5250620419,
				"element": "H" 
			},
			{
				"x": -3.0196937107,
				"y": 3.3366502937,
				"z": 2.4198082761,
				"element": "H" 
			}
		],
		 "valence_orbital": [ 
			{
				"type": "occ",
				"energy": -0.28596,
				"method": "rhf"
			},
			{
				"type": "occ",
				"energy": -0.27843,
				"method": "rhf"
			},
			{
				"type": "occ",
				"energy": -0.25724,
				"method": "rhf"
			},
			{
				"type": "occ",
				"energy": -0.24635,
				"method": "rhf"
			},
			{
				"type": "occ",
				"energy": -0.21911,
				"method": "rhf"
			},
			{
				"type": "unocc",
				"energy": -0.09567,
				"method": "rhf"
			},
			{
				"type": "unocc",
				"energy": -0.06711,
				"method": "rhf"
			},
			{
				"type": "unocc",
				"energy": -0.04573,
				"method": "rhf"
			},
			{
				"type": "unocc",
				"energy": -0.02658,
				"method": "rhf"
			},
			{
				"type": "unocc",
				"energy": -0.00857,
				"method": "rhf"
			}
		],
		"cosmo_sigma_profile": { 
			"-0.025": 0.0,
			"-0.024": 0.0,
			"-0.023": 0.0,
			"-0.022": 0.0,
			"-0.021": 0.0,
			"-0.02": 0.0,
			"-0.019": 0.0,
			"-0.018": 0.0,
			"-0.017": 0.0,
			"-0.016": 0.0,
			"-0.015": 0.0,
			"-0.014": 0.0,
			"-0.013": 0.0,
			"-0.012": 0.0,
			"-0.011": 0.04309488031,
			"-0.01": 1.6226437612,
			"-0.009": 4.15340800888,
			"-0.008": 13.6074941688,
			"-0.007": 16.9362299738,
			"-0.006": 18.2167304712,
			"-0.005": 18.0403823437,
			"-0.004": 16.3694560596,
			"-0.003": 18.8334311852,
			"-0.002": 18.9462463599,
			"-0.001": 28.2424906934,
			"0.0": 31.8699583443,
			"0.001": 40.7059738948,
			"0.002": 26.6854247786,
			"0.003": 18.4745145952,
			"0.004": 6.22529497804,
			"0.005": 4.96233292462,
			"0.006": 6.64020749195,
			"0.007": 7.50278483961,
			"0.008": 11.5994709832,
			"0.009": 7.55699246812,
			"0.01": 5.46360021054,
			"0.011": 4.737894913,
			"0.012": 5.13636912263,
			"0.013": 3.04247912618,
			"0.014": 0.375833821298,
			"0.015": 0.0,
			"0.016": 0.0,
			"0.017": 0.0,
			"0.018": 0.0,
			"0.019": 0.0,
			"0.02": 0.0,
			"0.021": 0.0,
			"0.022": 0.0,
			"0.023": 0.0,
			"0.024": 0.0,
			"0.025": 0.0
		}
	}
}
