{
	 "smiles": "COC1=C(OC(=O)C2=CC=CS2)C=CC(C=O)=C1", 
	 "Tm": 339.65, 
	 "num_atms": 28, 
	 "gaussian": { 
		 "optdone": 1, 
		 "sigma_profile": "yes", 
		 "theory": "DFT", 
		 "functional": "B3LYP", 
		 "basiset": "6-31G**", 
		 "properties": { 
			 "R2extent": 7394.7763, 
			 "electric_dipole_moment_norm": 5.55266520241, 
			 "electric_quadrupole_moment_norm": 9.07368750233, 
			 "total_energy": -1200.45713787, 
			 "HOMO_LUMO_gap": 0.18424, 
			 "cosmo_polarized_energy": -14.66, 
			 "cosmo_cavitation_energy": 36.09, 
			 "cosmo_dispersion_energy": -25.11, 
			 "cosmo_repulsion_energy": 1.9, 
			 "cosmo_total_nonelectrostatic_energy": 12.88, 
			 "SMD_solvation_energy": 8.93 
		},
		"coords": [
			{
				"x": 0.112461022,
				"y": -2.6450065712,
				"z": 3.3649058983,
				"element": "C" 
			},
			{
				"x": -0.9388783079,
				"y": -2.455033253,
				"z": 2.4109818218,
				"element": "O" 
			},
			{
				"x": -1.1859119005,
				"y": -1.149980017,
				"z": 2.0736212219,
				"element": "C" 
			},
			{
				"x": -0.3562954729,
				"y": -0.4655387814,
				"z": 1.1711500933,
				"element": "C" 
			},
			{
				"x": 0.7847558388,
				"y": -1.090118842,
				"z": 0.6818318809,
				"element": "O" 
			},
			{
				"x": 0.6190992918,
				"y": -2.0260082193,
				"z": -0.3234399356,
				"element": "C" 
			},
			{
				"x": -0.4410597756,
				"y": -2.2658701876,
				"z": -0.8478345463,
				"element": "O" 
			},
			{
				"x": 1.8978963921,
				"y": -2.6542778207,
				"z": -0.6655251289,
				"element": "C" 
			},
			{
				"x": 2.0671778062,
				"y": -3.6206826706,
				"z": -1.6314946395,
				"element": "C" 
			},
			{
				"x": 3.4145142342,
				"y": -4.0508907302,
				"z": -1.7513164551,
				"element": "C" 
			},
			{
				"x": 4.2509569985,
				"y": -3.4047499141,
				"z": -0.8748708735,
				"element": "C" 
			},
			{
				"x": 3.4111773204,
				"y": -2.2609101635,
				"z": 0.1098930302,
				"element": "S" 
			},
			{
				"x": -0.6224737188,
				"y": 0.8514914757,
				"z": 0.7986648049,
				"element": "C" 
			},
			{
				"x": -1.7329364387,
				"y": 1.5034719256,
				"z": 1.3219131269,
				"element": "C" 
			},
			{
				"x": -2.581399562,
				"y": 0.8299545576,
				"z": 2.2126298173,
				"element": "C" 
			},
			{
				"x": -3.7726986228,
				"y": 1.5114752193,
				"z": 2.7682067617,
				"element": "C" 
			},
			{
				"x": -4.0885057868,
				"y": 2.6596865834,
				"z": 2.5211031434,
				"element": "O" 
			},
			{
				"x": -2.3011591506,
				"y": -0.4907046544,
				"z": 2.5862864368,
				"element": "C" 
			},
			{
				"x": 0.1915527019,
				"y": -3.7223524047,
				"z": 3.5202043327,
				"element": "H" 
			},
			{
				"x": -0.1294682588,
				"y": -2.1566352844,
				"z": 4.3173133947,
				"element": "H" 
			},
			{
				"x": 1.0676191338,
				"y": -2.2593832644,
				"z": 2.9923281208,
				"element": "H" 
			},
			{
				"x": 1.2373976724,
				"y": -3.9925670091,
				"z": -2.2202470475,
				"element": "H" 
			},
			{
				"x": 3.7514410474,
				"y": -4.8040481913,
				"z": -2.4537609098,
				"element": "H" 
			},
			{
				"x": 5.3179093205,
				"y": -3.5369012015,
				"z": -0.7548099099,
				"element": "H" 
			},
			{
				"x": 0.0471977226,
				"y": 1.3415602587,
				"z": 0.0996186643,
				"element": "H" 
			},
			{
				"x": -1.9687318622,
				"y": 2.526594099,
				"z": 1.0493962664,
				"element": "H" 
			},
			{
				"x": -4.3858564742,
				"y": 0.8851450802,
				"z": 3.4539660591,
				"element": "H" 
			},
			{
				"x": -2.9512811709,
				"y": -1.0260200192,
				"z": 3.2731845708,
				"element": "H" 
			}
		],
		 "valence_orbital": [ 
			{
				"type": "occ",
				"energy": -0.27082,
				"method": "rhf"
			},
			{
				"type": "occ",
				"energy": -0.26759,
				"method": "rhf"
			},
			{
				"type": "occ",
				"energy": -0.25633,
				"method": "rhf"
			},
			{
				"type": "occ",
				"energy": -0.25571,
				"method": "rhf"
			},
			{
				"type": "occ",
				"energy": -0.25068,
				"method": "rhf"
			},
			{
				"type": "unocc",
				"energy": -0.06644,
				"method": "rhf"
			},
			{
				"type": "unocc",
				"energy": -0.0621,
				"method": "rhf"
			},
			{
				"type": "unocc",
				"energy": -0.01636,
				"method": "rhf"
			},
			{
				"type": "unocc",
				"energy": 0.01675,
				"method": "rhf"
			},
			{
				"type": "unocc",
				"energy": 0.02288,
				"method": "rhf"
			}
		],
		"cosmo_sigma_profile": { 
			"-0.025": 0.0,
			"-0.024": 0.0,
			"-0.023": 0.0,
			"-0.022": 0.0,
			"-0.021": 0.0,
			"-0.02": 0.0,
			"-0.019": 0.0,
			"-0.018": 0.0,
			"-0.017": 0.0,
			"-0.016": 0.0,
			"-0.015": 0.0,
			"-0.014": 0.0,
			"-0.013": 0.0,
			"-0.012": 0.0,
			"-0.011": 0.0,
			"-0.01": 0.786211824013,
			"-0.009": 2.62692829035,
			"-0.008": 7.52597287407,
			"-0.007": 12.486353529,
			"-0.006": 15.5092745055,
			"-0.005": 17.7934734056,
			"-0.004": 20.2401016304,
			"-0.003": 24.3019842749,
			"-0.002": 21.309183386,
			"-0.001": 18.2042382639,
			"0.0": 21.5385081309,
			"0.001": 28.5251603399,
			"0.002": 30.5283648118,
			"0.003": 17.4108600049,
			"0.004": 8.06886774277,
			"0.005": 5.37245473891,
			"0.006": 3.26870655287,
			"0.007": 3.76180794875,
			"0.008": 6.04385722877,
			"0.009": 6.01361202372,
			"0.01": 7.76226287592,
			"0.011": 9.99390538282,
			"0.012": 2.73475910802,
			"0.013": 0.429786592097,
			"0.014": 0.0,
			"0.015": 0.0,
			"0.016": 0.0,
			"0.017": 0.0,
			"0.018": 0.0,
			"0.019": 0.0,
			"0.02": 0.0,
			"0.021": 0.0,
			"0.022": 0.0,
			"0.023": 0.0,
			"0.024": 0.0,
			"0.0": 0.0
		}
	}
}
