{
	 "smiles": "CCOC(=O)C1=CN(C2=CC=C(F)C=C2F)C2=NC(Cl)=C(F)C=C2C1=O", 
	 "Tm": 487.15, 
	 "num_atms": 36, 
	 "gaussian": { 
		 "optdone": 1, 
		 "sigma_profile": "yes", 
		 "theory": "DFT", 
		 "functional": "B3LYP", 
		 "basiset": "6-31G**", 
		 "properties": { 
			 "R2extent": 12443.9829, 
			 "electric_dipole_moment_norm": 2.42499459381, 
			 "electric_quadrupole_moment_norm": 7.59142456131, 
			 "total_energy": -1748.71791259, 
			 "HOMO_LUMO_gap": 0.16185, 
			 "cosmo_polarized_energy": -16.88, 
			 "cosmo_cavitation_energy": 45.75, 
			 "cosmo_dispersion_energy": -31.29, 
			 "cosmo_repulsion_energy": 2.32, 
			 "cosmo_total_nonelectrostatic_energy": 16.78, 
			 "SMD_solvation_energy": 9.96 
		},
		"coords": [
			{
				"x": 1.6073990778,
				"y": 1.2291287054,
				"z": 5.4565221878,
				"element": "C" 
			},
			{
				"x": 0.4832673462,
				"y": 1.669011054,
				"z": 4.5384171906,
				"element": "C" 
			},
			{
				"x": 0.5992137441,
				"y": 0.897447496,
				"z": 3.3204557081,
				"element": "O" 
			},
			{
				"x": -0.3170618755,
				"y": 1.1519192778,
				"z": 2.3796639525,
				"element": "C" 
			},
			{
				"x": -1.2082450304,
				"y": 1.9773316048,
				"z": 2.5098783392,
				"element": "O" 
			},
			{
				"x": -0.1497297335,
				"y": 0.3275473915,
				"z": 1.146834314,
				"element": "C" 
			},
			{
				"x": -1.1020902125,
				"y": 0.5526234582,
				"z": 0.1875803183,
				"element": "C" 
			},
			{
				"x": -1.1635450568,
				"y": -0.0733506784,
				"z": -1.0224314587,
				"element": "N" 
			},
			{
				"x": -2.2087170401,
				"y": 0.2642103063,
				"z": -1.946251353,
				"element": "C" 
			},
			{
				"x": -2.2896451829,
				"y": 1.542670223,
				"z": -2.5004206253,
				"element": "C" 
			},
			{
				"x": -3.3300672373,
				"y": 1.8798929598,
				"z": -3.3648078971,
				"element": "C" 
			},
			{
				"x": -4.2760514883,
				"y": 0.9084289583,
				"z": -3.6746711298,
				"element": "C" 
			},
			{
				"x": -5.2792562613,
				"y": 1.2167823844,
				"z": -4.5125881802,
				"element": "F" 
			},
			{
				"x": -4.2251386761,
				"y": -0.3779198184,
				"z": -3.1461319406,
				"element": "C" 
			},
			{
				"x": -3.1866809235,
				"y": -0.6789043379,
				"z": -2.277104297,
				"element": "C" 
			},
			{
				"x": -3.1226059413,
				"y": -1.9013140753,
				"z": -1.7329407995,
				"element": "F" 
			},
			{
				"x": -0.1926168933,
				"y": -1.0283920011,
				"z": -1.3493117143,
				"element": "C" 
			},
			{
				"x": -0.2777986046,
				"y": -1.5968527471,
				"z": -2.5571759582,
				"element": "N" 
			},
			{
				"x": 0.6234831289,
				"y": -2.4947427157,
				"z": -2.8864368081,
				"element": "C" 
			},
			{
				"x": 0.5093129972,
				"y": -3.2347329021,
				"z": -4.4623940787,
				"element": "Cl" 
			},
			{
				"x": 1.6704756096,
				"y": -2.8787016923,
				"z": -2.0279642105,
				"element": "C" 
			},
			{
				"x": 2.5566977227,
				"y": -3.7997899442,
				"z": -2.4210081009,
				"element": "F" 
			},
			{
				"x": 1.7648045094,
				"y": -2.2862758077,
				"z": -0.7864386353,
				"element": "C" 
			},
			{
				"x": 0.814205054,
				"y": -1.3267230657,
				"z": -0.4147485184,
				"element": "C" 
			},
			{
				"x": 0.9111181516,
				"y": -0.6627462759,
				"z": 0.9177236091,
				"element": "C" 
			},
			{
				"x": 1.8150605715,
				"y": -0.9599827501,
				"z": 1.6934692135,
				"element": "O" 
			},
			{
				"x": 1.5595878032,
				"y": 1.7894533966,
				"z": 6.3956253737,
				"element": "H" 
			},
			{
				"x": 2.5813876493,
				"y": 1.4091950515,
				"z": 4.9934634644,
				"element": "H" 
			},
			{
				"x": 1.5295703416,
				"y": 0.162498558,
				"z": 5.6840052367,
				"element": "H" 
			},
			{
				"x": 0.5437643986,
				"y": 2.7333146709,
				"z": 4.2893584087,
				"element": "H" 
			},
			{
				"x": -0.5038778005,
				"y": 1.4906569758,
				"z": 4.9767487203,
				"element": "H" 
			},
			{
				"x": -1.8838844984,
				"y": 1.2771897483,
				"z": 0.3842970577,
				"element": "H" 
			},
			{
				"x": -1.5265494825,
				"y": 2.2733049156,
				"z": -2.2528223252,
				"element": "H" 
			},
			{
				"x": -3.4084214842,
				"y": 2.8682097558,
				"z": -3.801800365,
				"element": "H" 
			},
			{
				"x": -4.9734382827,
				"y": -1.1201816101,
				"z": -3.3949009779,
				"element": "H" 
			},
			{
				"x": 2.5565736,
				"y": -2.54150647,
				"z": -0.0901937209,
				"element": "H" 
			}
		],
		 "valence_orbital": [ 
			{
				"type": "occ",
				"energy": -0.27823,
				"method": "rhf"
			},
			{
				"type": "occ",
				"energy": -0.27634,
				"method": "rhf"
			},
			{
				"type": "occ",
				"energy": -0.27205,
				"method": "rhf"
			},
			{
				"type": "occ",
				"energy": -0.24763,
				"method": "rhf"
			},
			{
				"type": "occ",
				"energy": -0.239,
				"method": "rhf"
			},
			{
				"type": "unocc",
				"energy": -0.07715,
				"method": "rhf"
			},
			{
				"type": "unocc",
				"energy": -0.05805,
				"method": "rhf"
			},
			{
				"type": "unocc",
				"energy": -0.03999,
				"method": "rhf"
			},
			{
				"type": "unocc",
				"energy": -0.03182,
				"method": "rhf"
			},
			{
				"type": "unocc",
				"energy": -0.0139,
				"method": "rhf"
			}
		],
		"cosmo_sigma_profile": { 
			"-0.025": 0.0,
			"-0.024": 0.0,
			"-0.023": 0.0,
			"-0.022": 0.0,
			"-0.021": 0.0,
			"-0.02": 0.0,
			"-0.019": 0.0,
			"-0.018": 0.0,
			"-0.017": 0.0,
			"-0.016": 0.0,
			"-0.015": 0.0,
			"-0.014": 0.0,
			"-0.013": 0.0,
			"-0.012": 0.0,
			"-0.011": 0.0,
			"-0.01": 0.194353275131,
			"-0.009": 4.75480073986,
			"-0.008": 9.68311718462,
			"-0.007": 10.2628180678,
			"-0.006": 10.6211976455,
			"-0.005": 17.8209983842,
			"-0.004": 29.8038072147,
			"-0.003": 34.8776400632,
			"-0.002": 35.7699323047,
			"-0.001": 35.7702971115,
			"0.0": 32.7953258685,
			"0.001": 23.3396201994,
			"0.002": 24.9783778291,
			"0.003": 38.0407750862,
			"0.004": 17.0853215031,
			"0.005": 6.11691948404,
			"0.006": 4.30822001207,
			"0.007": 4.52503328887,
			"0.008": 4.0301912838,
			"0.009": 3.81245487596,
			"0.01": 3.32472219438,
			"0.011": 4.05637440024,
			"0.012": 6.86538037591,
			"0.013": 4.67250158494,
			"0.014": 2.48358743912,
			"0.015": 1.04885438416,
			"0.016": 0.0,
			"0.017": 0.0,
			"0.018": 0.0,
			"0.019": 0.0,
			"0.02": 0.0,
			"0.021": 0.0,
			"0.022": 0.0,
			"0.023": 0.0,
			"0.024": 0.0,
			"0.025": 0.0
		}
	}
}
