{
	 "smiles": "COC1=CC(=C(C=C1)N=C=S)[N+]([O-])=O", 
	 "Tm": 385.15, 
	 "num_atms": 20, 
	 "gaussian": { 
		 "optdone": 1, 
		 "sigma_profile": "yes", 
		 "theory": "DFT", 
		 "functional": "B3LYP", 
		 "basiset": "6-31G**", 
		 "properties": { 
			 "R2extent": 5320.839, 
			 "electric_dipole_moment_norm": 6.37084469203, 
			 "electric_quadrupole_moment_norm": 12.7012628675, 
			 "total_energy": -1041.70052783, 
			 "HOMO_LUMO_gap": 0.13152, 
			 "cosmo_polarized_energy": -11.56, 
			 "cosmo_cavitation_energy": 28.56, 
			 "cosmo_dispersion_energy": -21.01, 
			 "cosmo_repulsion_energy": 1.63, 
			 "cosmo_total_nonelectrostatic_energy": 9.18, 
			 "SMD_solvation_energy": 8.33 
		},
		"coords": [
			{
				"x": 2.8420216981,
				"y": -0.3622941417,
				"z": 1.381451674,
				"element": "C" 
			},
			{
				"x": 2.5670940096,
				"y": 1.0257938748,
				"z": 1.2172411647,
				"element": "O" 
			},
			{
				"x": 1.3530459727,
				"y": 1.3892499155,
				"z": 0.7378996166,
				"element": "C" 
			},
			{
				"x": 0.3383012628,
				"y": 0.4999475059,
				"z": 0.3892859202,
				"element": "C" 
			},
			{
				"x": -0.8806534106,
				"y": 0.9806468658,
				"z": -0.0965984153,
				"element": "C" 
			},
			{
				"x": -1.1192001929,
				"y": 2.3640796189,
				"z": -0.2474102353,
				"element": "C" 
			},
			{
				"x": -0.0715707409,
				"y": 3.2420568272,
				"z": 0.1125962805,
				"element": "C" 
			},
			{
				"x": 1.1344515973,
				"y": 2.7719697296,
				"z": 0.5939765235,
				"element": "C" 
			},
			{
				"x": -2.2752068385,
				"y": 2.9019285009,
				"z": -0.716508831,
				"element": "N" 
			},
			{
				"x": -3.2859547719,
				"y": 3.4039109397,
				"z": -1.0876900263,
				"element": "C" 
			},
			{
				"x": -4.6290734787,
				"y": 4.084899605,
				"z": -1.5919830061,
				"element": "S" 
			},
			{
				"x": -1.8928261286,
				"y": -0.0323361803,
				"z": -0.4379404579,
				"element": "N" 
			},
			{
				"x": -1.5804016346,
				"y": -1.2150447348,
				"z": -0.2853815215,
				"element": "O" 
			},
			{
				"x": -2.9841786162,
				"y": 0.3496646482,
				"z": -0.8520325137,
				"element": "O" 
			},
			{
				"x": 3.8582694513,
				"y": -0.4200986176,
				"z": 1.7717444661,
				"element": "H" 
			},
			{
				"x": 2.150419881,
				"y": -0.8248836503,
				"z": 2.0957360486,
				"element": "H" 
			},
			{
				"x": 2.7879179657,
				"y": -0.8961799831,
				"z": 0.4251413242,
				"element": "H" 
			},
			{
				"x": 0.4472532948,
				"y": -0.5712583584,
				"z": 0.4768616098,
				"element": "H" 
			},
			{
				"x": -0.2412396212,
				"y": 4.3070075012,
				"z": -0.0000865497,
				"element": "H" 
			},
			{
				"x": 1.9302303008,
				"y": 3.4563401333,
				"z": 0.8675969287,
				"element": "H" 
			}
		],
		 "valence_orbital": [ 
			{
				"type": "occ",
				"energy": -0.29748,
				"method": "rhf"
			},
			{
				"type": "occ",
				"energy": -0.29669,
				"method": "rhf"
			},
			{
				"type": "occ",
				"energy": -0.28482,
				"method": "rhf"
			},
			{
				"type": "occ",
				"energy": -0.25468,
				"method": "rhf"
			},
			{
				"type": "occ",
				"energy": -0.2328,
				"method": "rhf"
			},
			{
				"type": "unocc",
				"energy": -0.10128,
				"method": "rhf"
			},
			{
				"type": "unocc",
				"energy": -0.04885,
				"method": "rhf"
			},
			{
				"type": "unocc",
				"energy": -0.01419,
				"method": "rhf"
			},
			{
				"type": "unocc",
				"energy": -0.00169,
				"method": "rhf"
			},
			{
				"type": "unocc",
				"energy": 0.04,
				"method": "rhf"
			}
		],
		"cosmo_sigma_profile": { 
			"-0.025": 0.0,
			"-0.024": 0.0,
			"-0.023": 0.0,
			"-0.022": 0.0,
			"-0.021": 0.0,
			"-0.02": 0.0,
			"-0.019": 0.0,
			"-0.018": 0.0,
			"-0.017": 0.0,
			"-0.016": 0.0,
			"-0.015": 0.0,
			"-0.014": 0.0,
			"-0.013": 0.0,
			"-0.012": 0.0,
			"-0.011": 0.0,
			"-0.01": 0.0,
			"-0.009": 1.30638966097,
			"-0.008": 5.77504878915,
			"-0.007": 10.1067587907,
			"-0.006": 15.1865921146,
			"-0.005": 14.4197079966,
			"-0.004": 15.0245793113,
			"-0.003": 15.0065699007,
			"-0.002": 16.9979501757,
			"-0.001": 21.4966633366,
			"0.0": 20.0170603414,
			"0.001": 13.6887401863,
			"0.002": 10.2659308773,
			"0.003": 11.1160383569,
			"0.004": 12.4150271312,
			"0.005": 18.3413895028,
			"0.006": 10.5599195574,
			"0.007": 7.87194568922,
			"0.008": 6.92030305518,
			"0.009": 5.2907138966,
			"0.01": 1.938054788,
			"0.011": 0.00702088233601,
			"0.012": 0.0,
			"0.013": 0.0,
			"0.014": 0.0,
			"0.015": 0.0,
			"0.016": 0.0,
			"0.017": 0.0,
			"0.018": 0.0,
			"0.019": 0.0,
			"0.02": 0.0,
			"0.021": 0.0,
			"0.022": 0.0,
			"0.023": 0.0,
			"0.024": 0.0,
			"0.025": 0.0
		}
	}
}
