{
	 "smiles": "CC(C)(C)C1=NOC(=N1)C1=C(C=CC=C1)C(O)=O", 
	 "Tm": 374.15, 
	 "num_atms": 32, 
	 "gaussian": { 
		 "optdone": 1, 
		 "sigma_profile": "yes", 
		 "theory": "DFT", 
		 "functional": "B3LYP", 
		 "basiset": "6-31G**", 
		 "properties": { 
			 "R2extent": 5772.9682, 
			 "electric_dipole_moment_norm": 3.2320812892, 
			 "electric_quadrupole_moment_norm": 16.8190864933, 
			 "total_energy": -838.986399841, 
			 "HOMO_LUMO_gap": 0.19122, 
			 "cosmo_polarized_energy": -14.33, 
			 "cosmo_cavitation_energy": 36.23, 
			 "cosmo_dispersion_energy": -25.04, 
			 "cosmo_repulsion_energy": 1.94, 
			 "cosmo_total_nonelectrostatic_energy": 13.13, 
			 "SMD_solvation_energy": 6.33 
		},
		"coords": [
			{
				"x": 1.2678501145,
				"y": -2.41228267,
				"z": 1.3601660846,
				"element": "C" 
			},
			{
				"x": 0.0348685347,
				"y": -2.4646086602,
				"z": 0.4288178952,
				"element": "C" 
			},
			{
				"x": 0.3232380018,
				"y": -3.3705123038,
				"z": -0.7807809,
				"element": "C" 
			},
			{
				"x": -1.1843263318,
				"y": -2.9978070628,
				"z": 1.2139586922,
				"element": "C" 
			},
			{
				"x": -0.2681199574,
				"y": -1.0533522267,
				"z": -0.0219853711,
				"element": "C" 
			},
			{
				"x": -0.2388042946,
				"y": -0.6727114258,
				"z": -1.2771001071,
				"element": "N" 
			},
			{
				"x": -0.5640076485,
				"y": 0.6948532344,
				"z": -1.2136540208,
				"element": "O" 
			},
			{
				"x": -0.7519562509,
				"y": 0.9809868556,
				"z": 0.0895569638,
				"element": "C" 
			},
			{
				"x": -0.5947159907,
				"y": -0.0501749931,
				"z": 0.8673483035,
				"element": "N" 
			},
			{
				"x": -1.1869602958,
				"y": 2.3419491442,
				"z": 0.4351935361,
				"element": "C" 
			},
			{
				"x": -0.7954288768,
				"y": 2.9824763788,
				"z": 1.6309952907,
				"element": "C" 
			},
			{
				"x": -1.3563979882,
				"y": 4.2221920924,
				"z": 1.9586892319,
				"element": "C" 
			},
			{
				"x": -2.2611450204,
				"y": 4.8472293908,
				"z": 1.1008426605,
				"element": "C" 
			},
			{
				"x": -2.61917784,
				"y": 4.2313177018,
				"z": -0.0976887864,
				"element": "C" 
			},
			{
				"x": -2.0914887371,
				"y": 2.9826982618,
				"z": -0.4224732088,
				"element": "C" 
			},
			{
				"x": 0.3048909316,
				"y": 2.4434162555,
				"z": 2.4904393926,
				"element": "C" 
			},
			{
				"x": 0.1039538307,
				"y": 2.7167091139,
				"z": 3.8036619879,
				"element": "O" 
			},
			{
				"x": 1.299356179,
				"y": 1.8841629744,
				"z": 2.0854717323,
				"element": "O" 
			},
			{
				"x": 1.0944108327,
				"y": -1.7364864713,
				"z": 2.2017820807,
				"element": "H" 
			},
			{
				"x": 1.4811925926,
				"y": -3.4126316742,
				"z": 1.7519835093,
				"element": "H" 
			},
			{
				"x": 2.1529552553,
				"y": -2.0609032426,
				"z": 0.820415079,
				"element": "H" 
			},
			{
				"x": -0.5353073278,
				"y": -3.4192946371,
				"z": -1.4567819648,
				"element": "H" 
			},
			{
				"x": 1.1790296568,
				"y": -3.0068959559,
				"z": -1.3562360471,
				"element": "H" 
			},
			{
				"x": 0.5466618685,
				"y": -4.3850447435,
				"z": -0.4349901872,
				"element": "H" 
			},
			{
				"x": -2.0706877466,
				"y": -3.0573393931,
				"z": 0.5736382137,
				"element": "H" 
			},
			{
				"x": -1.4181233727,
				"y": -2.3490260552,
				"z": 2.0622261464,
				"element": "H" 
			},
			{
				"x": -0.9718898066,
				"y": -4.0030577414,
				"z": 1.5931126702,
				"element": "H" 
			},
			{
				"x": -1.0581507662,
				"y": 4.7026986958,
				"z": 2.8835618941,
				"element": "H" 
			},
			{
				"x": -2.6779001692,
				"y": 5.8138441591,
				"z": 1.3666400291,
				"element": "H" 
			},
			{
				"x": -3.3182102957,
				"y": 4.7128754746,
				"z": -0.7745443458,
				"element": "H" 
			},
			{
				"x": -2.3907701325,
				"y": 2.4831248357,
				"z": -1.337494207,
				"element": "H" 
			},
			{
				"x": 0.8922610511,
				"y": 2.3841946879,
				"z": 4.264927752,
				"element": "H" 
			}
		],
		 "valence_orbital": [ 
			{
				"type": "occ",
				"energy": -0.29663,
				"method": "rhf"
			},
			{
				"type": "occ",
				"energy": -0.28742,
				"method": "rhf"
			},
			{
				"type": "occ",
				"energy": -0.28175,
				"method": "rhf"
			},
			{
				"type": "occ",
				"energy": -0.27105,
				"method": "rhf"
			},
			{
				"type": "occ",
				"energy": -0.25677,
				"method": "rhf"
			},
			{
				"type": "unocc",
				"energy": -0.06555,
				"method": "rhf"
			},
			{
				"type": "unocc",
				"energy": -0.03662,
				"method": "rhf"
			},
			{
				"type": "unocc",
				"energy": 0.00814,
				"method": "rhf"
			},
			{
				"type": "unocc",
				"energy": 0.03456,
				"method": "rhf"
			},
			{
				"type": "unocc",
				"energy": 0.05491,
				"method": "rhf"
			}
		],
		"cosmo_sigma_profile": { 
			"-0.025": 0.0,
			"-0.024": 0.0,
			"-0.023": 0.0,
			"-0.022": 0.0,
			"-0.021": 0.0,
			"-0.02": 0.0,
			"-0.019": 0.0646688636409,
			"-0.018": 0.899208386518,
			"-0.017": 1.01405047635,
			"-0.016": 0.580415886203,
			"-0.015": 1.09783281443,
			"-0.014": 0.67581032014,
			"-0.013": 0.45230003768,
			"-0.012": 0.799025988537,
			"-0.011": 1.05589774361,
			"-0.01": 0.649077559249,
			"-0.009": 0.316981388693,
			"-0.008": 1.97514281751,
			"-0.007": 8.79020625249,
			"-0.006": 11.0515283058,
			"-0.005": 8.75168298705,
			"-0.004": 14.7624248489,
			"-0.003": 28.4009796924,
			"-0.002": 25.4639120541,
			"-0.001": 27.0794553984,
			"0.0": 34.588120209,
			"0.001": 33.8786960019,
			"0.002": 20.0039057261,
			"0.003": 9.72157999771,
			"0.004": 7.19308217219,
			"0.005": 6.04019262396,
			"0.006": 9.00781853702,
			"0.007": 6.80276786237,
			"0.008": 6.08592248824,
			"0.009": 5.98866965195,
			"0.01": 4.29303595072,
			"0.011": 5.86028564983,
			"0.012": 2.65279328539,
			"0.013": 0.841371913047,
			"0.014": 0.0552511828996,
			"0.015": 0.0,
			"0.016": 0.0,
			"0.017": 0.0,
			"0.018": 0.0,
			"0.019": 0.0,
			"0.02": 0.0,
			"0.021": 0.0,
			"0.022": 0.0,
			"0.023": 0.0,
			"0.024": 0.0,
			"0.025": 0.0
		}
	}
}
