{
	 "smiles": "FC(F)(F)C1=CC(=O)NC2=CC(=NN12)C1=CC=C(Cl)C=C1", 
	 "Tm": 428.15, 
	 "num_atms": 28, 
	 "gaussian": { 
		 "optdone": 1, 
		 "sigma_profile": "yes", 
		 "theory": "DFT", 
		 "functional": "B3LYP", 
		 "basiset": "6-31G**", 
		 "properties": { 
			 "R2extent": 9245.8567, 
			 "electric_dipole_moment_norm": 2.20615610282, 
			 "electric_quadrupole_moment_norm": 19.5233722489, 
			 "total_energy": -1498.78578339, 
			 "HOMO_LUMO_gap": 0.15396, 
			 "cosmo_polarized_energy": -15.56, 
			 "cosmo_cavitation_energy": 36.96, 
			 "cosmo_dispersion_energy": -26.52, 
			 "cosmo_repulsion_energy": 1.93, 
			 "cosmo_total_nonelectrostatic_energy": 12.37, 
			 "SMD_solvation_energy": 7.2 
		},
		"coords": [
			{
				"x": 4.7210645602,
				"y": -0.2467184237,
				"z": 0.3981585977,
				"element": "F" 
			},
			{
				"x": 3.4482106985,
				"y": 0.1941022279,
				"z": 0.4146638619,
				"element": "C" 
			},
			{
				"x": 3.2685480996,
				"y": 0.9749039689,
				"z": -0.6617107006,
				"element": "F" 
			},
			{
				"x": 3.2859359276,
				"y": 0.9435131849,
				"z": 1.5158315416,
				"element": "F" 
			},
			{
				"x": 2.4929693267,
				"y": -0.9845229231,
				"z": 0.4052393906,
				"element": "C" 
			},
			{
				"x": 2.915508355,
				"y": -2.2692788376,
				"z": 0.3834755418,
				"element": "C" 
			},
			{
				"x": 1.9760140565,
				"y": -3.3966209009,
				"z": 0.3747629389,
				"element": "C" 
			},
			{
				"x": 2.2914570061,
				"y": -4.5757384109,
				"z": 0.3546389451,
				"element": "O" 
			},
			{
				"x": 0.6261347425,
				"y": -3.0105167534,
				"z": 0.3903424786,
				"element": "N" 
			},
			{
				"x": 0.1895519354,
				"y": -1.7087113593,
				"z": 0.412483448,
				"element": "C" 
			},
			{
				"x": -1.0394509722,
				"y": -1.0906231077,
				"z": 0.4307590237,
				"element": "C" 
			},
			{
				"x": -0.7347849758,
				"y": 0.3045685236,
				"z": 0.4487888321,
				"element": "C" 
			},
			{
				"x": 0.5798979064,
				"y": 0.5339742693,
				"z": 0.4420101232,
				"element": "N" 
			},
			{
				"x": 1.1416621867,
				"y": -0.7082305411,
				"z": 0.4196902718,
				"element": "N" 
			},
			{
				"x": -1.6775664583,
				"y": 1.4327274712,
				"z": 0.472427134,
				"element": "C" 
			},
			{
				"x": -3.0644289548,
				"y": 1.2222412815,
				"z": 0.4796095415,
				"element": "C" 
			},
			{
				"x": -3.9540166948,
				"y": 2.2942074682,
				"z": 0.5019733432,
				"element": "C" 
			},
			{
				"x": -3.4508278469,
				"y": 3.5941092069,
				"z": 0.5173749783,
				"element": "C" 
			},
			{
				"x": -4.5643180663,
				"y": 4.9517515707,
				"z": 0.5455397389,
				"element": "Cl" 
			},
			{
				"x": -2.0752076118,
				"y": 3.8323794343,
				"z": 0.5107062941,
				"element": "C" 
			},
			{
				"x": -1.1978319893,
				"y": 2.7536145234,
				"z": 0.488325008,
				"element": "C" 
			},
			{
				"x": 3.9695344197,
				"y": -2.5049293561,
				"z": 0.3718075443,
				"element": "H" 
			},
			{
				"x": -0.0469898187,
				"y": -3.7658132944,
				"z": 0.384410317,
				"element": "H" 
			},
			{
				"x": -2.005438905,
				"y": -1.5693284343,
				"z": 0.431176174,
				"element": "H" 
			},
			{
				"x": -3.4644065796,
				"y": 0.2133866862,
				"z": 0.4677055543,
				"element": "H" 
			},
			{
				"x": -5.0248862824,
				"y": 2.1247849277,
				"z": 0.5074013985,
				"element": "H" 
			},
			{
				"x": -1.7002816777,
				"y": 4.8497379327,
				"z": 0.5229083159,
				"element": "H" 
			},
			{
				"x": -0.1269523871,
				"y": 2.9240296648,
				"z": 0.4829003635,
				"element": "H" 
			}
		],
		 "valence_orbital": [ 
			{
				"type": "occ",
				"energy": -0.2812,
				"method": "rhf"
			},
			{
				"type": "occ",
				"energy": -0.27892,
				"method": "rhf"
			},
			{
				"type": "occ",
				"energy": -0.27142,
				"method": "rhf"
			},
			{
				"type": "occ",
				"energy": -0.24822,
				"method": "rhf"
			},
			{
				"type": "occ",
				"energy": -0.23166,
				"method": "rhf"
			},
			{
				"type": "unocc",
				"energy": -0.0777,
				"method": "rhf"
			},
			{
				"type": "unocc",
				"energy": -0.03863,
				"method": "rhf"
			},
			{
				"type": "unocc",
				"energy": -0.02144,
				"method": "rhf"
			},
			{
				"type": "unocc",
				"energy": -0.00112,
				"method": "rhf"
			},
			{
				"type": "unocc",
				"energy": 0.02528,
				"method": "rhf"
			}
		],
		"cosmo_sigma_profile": { 
			"-0.025": 0.0,
			"-0.024": 0.0,
			"-0.023": 0.0,
			"-0.022": 0.0,
			"-0.021": 0.0,
			"-0.02": 0.0,
			"-0.019": 0.0,
			"-0.018": 0.00438604658278,
			"-0.017": 0.944082994901,
			"-0.016": 1.59150658067,
			"-0.015": 1.35077704593,
			"-0.014": 0.971357806127,
			"-0.013": 0.829636976208,
			"-0.012": 1.1135790168,
			"-0.011": 0.878454319918,
			"-0.01": 1.33176323054,
			"-0.009": 4.10570867113,
			"-0.008": 5.71695746067,
			"-0.007": 10.3685737265,
			"-0.006": 11.2611468561,
			"-0.005": 13.6876507459,
			"-0.004": 14.9826624336,
			"-0.003": 17.5370379764,
			"-0.002": 18.5363870666,
			"-0.001": 17.7579236863,
			"0.0": 19.0752263864,
			"0.001": 32.6844641302,
			"0.002": 45.173977605,
			"0.003": 29.6518644474,
			"0.004": 15.7296350514,
			"0.005": 9.18203045141,
			"0.006": 3.52518968467,
			"0.007": 2.99527421042,
			"0.008": 3.575449584,
			"0.009": 3.41634627429,
			"0.01": 1.23407296766,
			"0.011": 2.48274117267,
			"0.012": 4.77219620291,
			"0.013": 4.23187150587,
			"0.014": 0.330348632908,
			"0.015": 0.0,
			"0.016": 0.0,
			"0.017": 0.0,
			"0.018": 0.0,
			"0.019": 0.0,
			"0.02": 0.0,
			"0.021": 0.0,
			"0.022": 0.0,
			"0.023": 0.0,
			"0.024": 0.0,
			"0.025": 0.0
		}
	}
}
