{
	 "smiles": "BrC1=C(OCC=C)C=CC=C1OCC=CC1=CC=CC=C1", 
	 "Tm": 354.0, 
	 "num_atms": 38, 
	 "gaussian": { 
		 "optdone": 1, 
		 "sigma_profile": "yes", 
		 "theory": "DFT", 
		 "functional": "B3LYP", 
		 "basiset": "6-31G**", 
		 "properties": { 
			 "R2extent": 12539.8169, 
			 "electric_dipole_moment_norm": 2.83001484448, 
			 "electric_quadrupole_moment_norm": 20.9869292964, 
			 "total_energy": -3417.94057814, 
			 "HOMO_LUMO_gap": 0.19143, 
			 "cosmo_polarized_energy": -11.87, 
			 "cosmo_cavitation_energy": 44.98, 
			 "cosmo_dispersion_energy": -31.14, 
			 "cosmo_repulsion_energy": 2.38, 
			 "cosmo_total_nonelectrostatic_energy": 16.22, 
			 "SMD_solvation_energy": 7.48 
		},
		"coords": [
			{
				"x": 2.771729389,
				"y": 0.3541432702,
				"z": 2.5002397005,
				"element": "Br" 
			},
			{
				"x": 1.0194779622,
				"y": -0.3832559695,
				"z": 2.5763284186,
				"element": "C" 
			},
			{
				"x": 0.7150384732,
				"y": -1.3500766847,
				"z": 3.5552339207,
				"element": "C" 
			},
			{
				"x": 1.7201208354,
				"y": -1.7014468717,
				"z": 4.3975562781,
				"element": "O" 
			},
			{
				"x": 1.4732745959,
				"y": -2.7130682567,
				"z": 5.3789663989,
				"element": "C" 
			},
			{
				"x": 2.7574232083,
				"y": -2.9636134968,
				"z": 6.109913529,
				"element": "C" 
			},
			{
				"x": 2.8662757606,
				"y": -2.9733452646,
				"z": 7.4370441747,
				"element": "C" 
			},
			{
				"x": -0.5817127352,
				"y": -1.8780939638,
				"z": 3.6079507786,
				"element": "C" 
			},
			{
				"x": -1.5503593949,
				"y": -1.4442947475,
				"z": 2.7009911049,
				"element": "C" 
			},
			{
				"x": -1.2484650775,
				"y": -0.4904683582,
				"z": 1.735991939,
				"element": "C" 
			},
			{
				"x": 0.0421394483,
				"y": 0.0482548452,
				"z": 1.6719108032,
				"element": "C" 
			},
			{
				"x": 0.3216427311,
				"y": 1.0283118161,
				"z": 0.7522965933,
				"element": "O" 
			},
			{
				"x": 0.8660019433,
				"y": 0.5444353853,
				"z": -0.505227778,
				"element": "C" 
			},
			{
				"x": 1.4564435369,
				"y": 1.6937370981,
				"z": -1.2647119545,
				"element": "C" 
			},
			{
				"x": 0.8565883735,
				"y": 2.4021590196,
				"z": -2.2361611258,
				"element": "C" 
			},
			{
				"x": -0.5292099797,
				"y": 2.2919062928,
				"z": -2.7278371742,
				"element": "C" 
			},
			{
				"x": -1.612388555,
				"y": 2.0072889734,
				"z": -1.8753890945,
				"element": "C" 
			},
			{
				"x": -2.909175243,
				"y": 1.9199359743,
				"z": -2.3814250569,
				"element": "C" 
			},
			{
				"x": -3.1528701025,
				"y": 2.1219219999,
				"z": -3.7413954898,
				"element": "C" 
			},
			{
				"x": -2.0898439928,
				"y": 2.4278842383,
				"z": -4.5946135694,
				"element": "C" 
			},
			{
				"x": -0.7946234538,
				"y": 2.5211907224,
				"z": -4.0901730718,
				"element": "C" 
			},
			{
				"x": 0.6838028018,
				"y": -2.393665863,
				"z": 6.0725744923,
				"element": "H" 
			},
			{
				"x": 1.1329916239,
				"y": -3.6306439676,
				"z": 4.8742838972,
				"element": "H" 
			},
			{
				"x": 3.6209996742,
				"y": -3.168357306,
				"z": 5.4798492855,
				"element": "H" 
			},
			{
				"x": 3.8075318677,
				"y": -3.1977711384,
				"z": 7.9291090369,
				"element": "H" 
			},
			{
				"x": 2.017337443,
				"y": -2.760384935,
				"z": 8.0824643895,
				"element": "H" 
			},
			{
				"x": -0.8412071842,
				"y": -2.6171711703,
				"z": 4.3555040468,
				"element": "H" 
			},
			{
				"x": -2.5522137026,
				"y": -1.8591973527,
				"z": 2.7566697523,
				"element": "H" 
			},
			{
				"x": -1.9940696003,
				"y": -0.1393827787,
				"z": 1.0310189563,
				"element": "H" 
			},
			{
				"x": 0.0674586286,
				"y": 0.0538351687,
				"z": -1.0739113457,
				"element": "H" 
			},
			{
				"x": 1.6461198035,
				"y": -0.1942314546,
				"z": -0.2881422529,
				"element": "H" 
			},
			{
				"x": 2.4824358284,
				"y": 1.9462967911,
				"z": -1.0076620288,
				"element": "H" 
			},
			{
				"x": 1.4634556569,
				"y": 3.1476593795,
				"z": -2.7502796135,
				"element": "H" 
			},
			{
				"x": -1.432599064,
				"y": 1.8944794596,
				"z": -0.8111075373,
				"element": "H" 
			},
			{
				"x": -3.734953424,
				"y": 1.7075011819,
				"z": -1.7078568282,
				"element": "H" 
			},
			{
				"x": -4.1646561622,
				"y": 2.0566751899,
				"z": -4.1312184927,
				"element": "H" 
			},
			{
				"x": -2.271514973,
				"y": 2.5995845963,
				"z": -5.6518647917,
				"element": "H" 
			},
			{
				"x": 0.0288730593,
				"y": 2.7634681772,
				"z": -4.7574202909,
				"element": "H" 
			}
		],
		 "valence_orbital": [ 
			{
				"type": "occ",
				"energy": -0.26945,
				"method": "rhf"
			},
			{
				"type": "occ",
				"energy": -0.24924,
				"method": "rhf"
			},
			{
				"type": "occ",
				"energy": -0.23757,
				"method": "rhf"
			},
			{
				"type": "occ",
				"energy": -0.22642,
				"method": "rhf"
			},
			{
				"type": "occ",
				"energy": -0.22256,
				"method": "rhf"
			},
			{
				"type": "unocc",
				"energy": -0.03113,
				"method": "rhf"
			},
			{
				"type": "unocc",
				"energy": -0.00931,
				"method": "rhf"
			},
			{
				"type": "unocc",
				"energy": -0.00047,
				"method": "rhf"
			},
			{
				"type": "unocc",
				"energy": 0.00181,
				"method": "rhf"
			},
			{
				"type": "unocc",
				"energy": 0.00555,
				"method": "rhf"
			}
		],
		"cosmo_sigma_profile": { 
			"-0.025": 0.0,
			"-0.024": 0.0,
			"-0.023": 0.0,
			"-0.022": 0.0,
			"-0.021": 0.0,
			"-0.02": 0.0,
			"-0.019": 0.0,
			"-0.018": 0.0,
			"-0.017": 0.0,
			"-0.016": 0.0,
			"-0.015": 0.0,
			"-0.014": 0.0,
			"-0.013": 0.0,
			"-0.012": 0.0,
			"-0.011": 0.0,
			"-0.01": 0.0,
			"-0.009": 0.0,
			"-0.008": 0.28317896892,
			"-0.007": 3.61844501091,
			"-0.006": 19.6009276079,
			"-0.005": 32.6562496773,
			"-0.004": 32.524790674,
			"-0.003": 36.3513010451,
			"-0.002": 25.9805961334,
			"-0.001": 23.1344074848,
			"0.0": 23.1056462627,
			"0.001": 22.8174213985,
			"0.002": 29.6828942875,
			"0.003": 31.6369290937,
			"0.004": 27.8690043257,
			"0.005": 24.8525718695,
			"0.006": 12.5228246483,
			"0.007": 4.42290604584,
			"0.008": 4.20281509154,
			"0.009": 3.20775305243,
			"0.01": 2.5594379224,
			"0.011": 1.09290970011,
			"0.012": 0.231493079389,
			"0.013": 0.0,
			"0.014": 0.0,
			"0.015": 0.0,
			"0.016": 0.0,
			"0.017": 0.0,
			"0.018": 0.0,
			"0.019": 0.0,
			"0.02": 0.0,
			"0.021": 0.0,
			"0.022": 0.0,
			"0.023": 0.0,
			"0.024": 0.0,
			"0.025": 0.0
		}
	}
}
