{
	 "smiles": "O=C1NC(=O)C2=C(N=CN2C2CCCC2)N1CC1=CC=CC=C1", 
	 "Tm": 526.15, 
	 "num_atms": 41, 
	 "gaussian": { 
		 "optdone": 1, 
		 "sigma_profile": "yes", 
		 "theory": "DFT", 
		 "functional": "B3LYP", 
		 "basiset": "6-31G**", 
		 "properties": { 
			 "R2extent": 8680.042, 
			 "electric_dipole_moment_norm": 4.09599623291, 
			 "electric_quadrupole_moment_norm": 10.9854399771, 
			 "total_energy": -1028.17361885, 
			 "HOMO_LUMO_gap": 0.18688, 
			 "cosmo_polarized_energy": -15.53, 
			 "cosmo_cavitation_energy": 42.49, 
			 "cosmo_dispersion_energy": -30.47, 
			 "cosmo_repulsion_energy": 2.29, 
			 "cosmo_total_nonelectrostatic_energy": 14.3, 
			 "SMD_solvation_energy": 6.48 
		},
		"coords": [
			{
				"x": -2.1322778188,
				"y": -0.8923808464,
				"z": -2.839943347,
				"element": "O" 
			},
			{
				"x": -1.2245652483,
				"y": -0.282377786,
				"z": -2.2932657345,
				"element": "C" 
			},
			{
				"x": -1.2208616696,
				"y": 1.1141121635,
				"z": -2.2236891564,
				"element": "N" 
			},
			{
				"x": -0.2892185383,
				"y": 1.9942621399,
				"z": -1.6428101221,
				"element": "C" 
			},
			{
				"x": -0.4623559718,
				"y": 3.2096957135,
				"z": -1.6793936405,
				"element": "O" 
			},
			{
				"x": 0.7943528265,
				"y": 1.2508925549,
				"z": -1.0593550914,
				"element": "C" 
			},
			{
				"x": 0.8484661455,
				"y": -0.1364502077,
				"z": -1.1053824369,
				"element": "C" 
			},
			{
				"x": 1.9685497136,
				"y": -0.6180849167,
				"z": -0.5073781223,
				"element": "N" 
			},
			{
				"x": 2.5994197298,
				"y": 0.4772378588,
				"z": -0.0954101311,
				"element": "C" 
			},
			{
				"x": 1.956078263,
				"y": 1.6334013642,
				"z": -0.3918474945,
				"element": "N" 
			},
			{
				"x": 2.4243430167,
				"y": 2.9813574815,
				"z": -0.0426635035,
				"element": "C" 
			},
			{
				"x": 2.6509269347,
				"y": 3.9219161902,
				"z": -1.2627676744,
				"element": "C" 
			},
			{
				"x": 2.1485849214,
				"y": 5.3176650294,
				"z": -0.8076569536,
				"element": "C" 
			},
			{
				"x": 1.9524928571,
				"y": 5.2060391609,
				"z": 0.7193236829,
				"element": "C" 
			},
			{
				"x": 1.4925327864,
				"y": 3.7541846834,
				"z": 0.9119306387,
				"element": "C" 
			},
			{
				"x": -0.1267056759,
				"y": -0.9031511826,
				"z": -1.708871154,
				"element": "N" 
			},
			{
				"x": -0.0520116462,
				"y": -2.378730662,
				"z": -1.7073343252,
				"element": "C" 
			},
			{
				"x": -0.6983598962,
				"y": -3.0143560357,
				"z": -0.4915812069,
				"element": "C" 
			},
			{
				"x": -2.0749462651,
				"y": -3.2783980271,
				"z": -0.4784464119,
				"element": "C" 
			},
			{
				"x": -2.6689299215,
				"y": -3.8634039782,
				"z": 0.6403331624,
				"element": "C" 
			},
			{
				"x": -1.8945869803,
				"y": -4.1913366434,
				"z": 1.7556014677,
				"element": "C" 
			},
			{
				"x": -0.5234302662,
				"y": -3.9286905088,
				"z": 1.7493550807,
				"element": "C" 
			},
			{
				"x": 0.0719453688,
				"y": -3.3423534889,
				"z": 0.6311896069,
				"element": "C" 
			},
			{
				"x": -2.0255235996,
				"y": 1.5510834804,
				"z": -2.6560458896,
				"element": "H" 
			},
			{
				"x": 3.5434884071,
				"y": 0.4773578869,
				"z": 0.4327140205,
				"element": "H" 
			},
			{
				"x": 3.3808465446,
				"y": 2.8127110663,
				"z": 0.4634440055,
				"element": "H" 
			},
			{
				"x": 3.7094427503,
				"y": 3.9289367155,
				"z": -1.5404189759,
				"element": "H" 
			},
			{
				"x": 2.0853656711,
				"y": 3.569491023,
				"z": -2.1266322163,
				"element": "H" 
			},
			{
				"x": 1.1848088099,
				"y": 5.5213687609,
				"z": -1.2821558989,
				"element": "H" 
			},
			{
				"x": 2.834978458,
				"y": 6.1223646272,
				"z": -1.0865552818,
				"element": "H" 
			},
			{
				"x": 2.9027855472,
				"y": 5.3739033383,
				"z": 1.2434896831,
				"element": "H" 
			},
			{
				"x": 1.2337835955,
				"y": 5.9320521864,
				"z": 1.1101935234,
				"element": "H" 
			},
			{
				"x": 0.4589305931,
				"y": 3.6480767893,
				"z": 0.5709232796,
				"element": "H" 
			},
			{
				"x": 1.5629720649,
				"y": 3.3935647572,
				"z": 1.9428323438,
				"element": "H" 
			},
			{
				"x": -0.5465357708,
				"y": -2.7065711497,
				"z": -2.6223944725,
				"element": "H" 
			},
			{
				"x": 1.0072470433,
				"y": -2.635355064,
				"z": -1.7580259177,
				"element": "H" 
			},
			{
				"x": -2.673304166,
				"y": -3.0126284301,
				"z": -1.3447951324,
				"element": "H" 
			},
			{
				"x": -3.7362361714,
				"y": -4.066471497,
				"z": 0.6399786965,
				"element": "H" 
			},
			{
				"x": -2.357639971,
				"y": -4.650433852,
				"z": 2.6246495242,
				"element": "H" 
			},
			{
				"x": 0.08366857,
				"y": -4.1820588867,
				"z": 2.6140954009,
				"element": "H" 
			},
			{
				"x": 1.1362789585,
				"y": -3.1249418083,
				"z": 0.6266661743,
				"element": "H" 
			}
		],
		 "valence_orbital": [ 
			{
				"type": "occ",
				"energy": -0.27838,
				"method": "rhf"
			},
			{
				"type": "occ",
				"energy": -0.26238,
				"method": "rhf"
			},
			{
				"type": "occ",
				"energy": -0.24513,
				"method": "rhf"
			},
			{
				"type": "occ",
				"energy": -0.24382,
				"method": "rhf"
			},
			{
				"type": "occ",
				"energy": -0.22182,
				"method": "rhf"
			},
			{
				"type": "unocc",
				"energy": -0.03494,
				"method": "rhf"
			},
			{
				"type": "unocc",
				"energy": -0.00296,
				"method": "rhf"
			},
			{
				"type": "unocc",
				"energy": 0.00336,
				"method": "rhf"
			},
			{
				"type": "unocc",
				"energy": 0.02128,
				"method": "rhf"
			},
			{
				"type": "unocc",
				"energy": 0.03378,
				"method": "rhf"
			}
		],
		"cosmo_sigma_profile": { 
			"-0.025": 0.0,
			"-0.024": 0.0,
			"-0.023": 0.0,
			"-0.022": 0.0,
			"-0.021": 0.0,
			"-0.02": 0.0,
			"-0.019": 0.0,
			"-0.018": 0.0,
			"-0.017": 0.0,
			"-0.016": 0.108223186876,
			"-0.015": 1.15315358695,
			"-0.014": 0.655606143467,
			"-0.013": 0.683835029134,
			"-0.012": 0.649456405038,
			"-0.011": 1.02306357353,
			"-0.01": 3.63915616187,
			"-0.009": 3.46406415702,
			"-0.008": 2.70031357257,
			"-0.007": 3.30875433592,
			"-0.006": 8.62428424663,
			"-0.005": 15.4740939777,
			"-0.004": 23.6086404238,
			"-0.003": 36.5244174469,
			"-0.002": 34.5060817133,
			"-0.001": 41.7290014301,
			"0.0": 34.6880760714,
			"0.001": 23.5105577061,
			"0.002": 15.3260529079,
			"0.003": 14.0289068592,
			"0.004": 14.5248479086,
			"0.005": 14.3930382433,
			"0.006": 12.0707228314,
			"0.007": 4.88931943734,
			"0.008": 4.01489518577,
			"0.009": 3.04446705734,
			"0.01": 3.36023079867,
			"0.011": 3.91501473138,
			"0.012": 5.71059547922,
			"0.013": 5.1579543615,
			"0.014": 0.628477269159,
			"0.015": 0.0,
			"0.016": 0.0,
			"0.017": 0.0,
			"0.018": 0.0,
			"0.019": 0.0,
			"0.02": 0.0,
			"0.021": 0.0,
			"0.022": 0.0,
			"0.023": 0.0,
			"0.024": 0.0,
			"0.025": 0.0
		}
	}
}
