{
	 "smiles": "CCOC(=O)CCOC1=CC=CC=C1", 
	 "Tm": 296.15, 
	 "num_atms": 28, 
	 "gaussian": { 
		 "optdone": 1, 
		 "sigma_profile": "yes", 
		 "theory": "DFT", 
		 "functional": "B3LYP", 
		 "basiset": "6-31G**", 
		 "properties": { 
			 "R2extent": 4324.7149, 
			 "electric_dipole_moment_norm": 1.98428216492, 
			 "electric_quadrupole_moment_norm": 5.89240556649, 
			 "total_energy": -653.286688389, 
			 "HOMO_LUMO_gap": 0.22556, 
			 "cosmo_polarized_energy": -9.27, 
			 "cosmo_cavitation_energy": 31.81, 
			 "cosmo_dispersion_energy": -22.96, 
			 "cosmo_repulsion_energy": 1.87, 
			 "cosmo_total_nonelectrostatic_energy": 10.72, 
			 "SMD_solvation_energy": 6.57 
		},
		"coords": [
			{
				"x": 2.7796626234,
				"y": 1.0087043854,
				"z": -3.6019650461,
				"element": "C" 
			},
			{
				"x": 2.3485701453,
				"y": 0.9794438921,
				"z": -2.1482298951,
				"element": "C" 
			},
			{
				"x": 0.9011659624,
				"y": 1.029362124,
				"z": -2.1229600427,
				"element": "O" 
			},
			{
				"x": 0.3308369216,
				"y": 0.9932844023,
				"z": -0.9048674003,
				"element": "C" 
			},
			{
				"x": 0.9590548004,
				"y": 0.9225428207,
				"z": 0.1323171545,
				"element": "O" 
			},
			{
				"x": -1.1814282959,
				"y": 1.0969457402,
				"z": -0.9981382739,
				"element": "C" 
			},
			{
				"x": -1.8709257069,
				"y": 0.4059614808,
				"z": 0.1677555993,
				"element": "C" 
			},
			{
				"x": -1.7274503839,
				"y": -1.0075477922,
				"z": 0.0009004776,
				"element": "O" 
			},
			{
				"x": -1.5651628825,
				"y": -1.7800619277,
				"z": 1.1316231372,
				"element": "C" 
			},
			{
				"x": -2.4066955942,
				"y": -2.8854450023,
				"z": 1.2836770878,
				"element": "C" 
			},
			{
				"x": -2.2421109227,
				"y": -3.7356351632,
				"z": 2.3776742974,
				"element": "C" 
			},
			{
				"x": -1.2495016006,
				"y": -3.4803944072,
				"z": 3.3261504358,
				"element": "C" 
			},
			{
				"x": -0.4104962032,
				"y": -2.3752211564,
				"z": 3.1640296175,
				"element": "C" 
			},
			{
				"x": -0.5561991553,
				"y": -1.5239289416,
				"z": 2.067899753,
				"element": "C" 
			},
			{
				"x": 2.4371580002,
				"y": 1.9234850463,
				"z": -4.0942193008,
				"element": "H" 
			},
			{
				"x": 3.8716369048,
				"y": 0.9719283156,
				"z": -3.6654041534,
				"element": "H" 
			},
			{
				"x": 2.3742586592,
				"y": 0.1515377759,
				"z": -4.1470046269,
				"element": "H" 
			},
			{
				"x": 2.7402058791,
				"y": 1.8318571085,
				"z": -1.5840219913,
				"element": "H" 
			},
			{
				"x": 2.6762067724,
				"y": 0.0685231575,
				"z": -1.6381999972,
				"element": "H" 
			},
			{
				"x": -1.522340805,
				"y": 0.6860422916,
				"z": -1.9517821453,
				"element": "H" 
			},
			{
				"x": -1.4400314271,
				"y": 2.1641648874,
				"z": -0.9947491016,
				"element": "H" 
			},
			{
				"x": -2.9404166755,
				"y": 0.6574078551,
				"z": 0.1785472851,
				"element": "H" 
			},
			{
				"x": -1.4271505499,
				"y": 0.7364923718,
				"z": 1.1107970104,
				"element": "H" 
			},
			{
				"x": -3.1750813981,
				"y": -3.0633123065,
				"z": 0.5380652499,
				"element": "H" 
			},
			{
				"x": -2.8973515761,
				"y": -4.5948400494,
				"z": 2.4916152087,
				"element": "H" 
			},
			{
				"x": -1.1262499808,
				"y": -4.1399153156,
				"z": 4.1800258288,
				"element": "H" 
			},
			{
				"x": 0.3747621108,
				"y": -2.1785246856,
				"z": 3.8888608716,
				"element": "H" 
			},
			{
				"x": 0.1184743783,
				"y": -0.6874569071,
				"z": 1.9150029599,
				"element": "H" 
			}
		],
		 "valence_orbital": [ 
			{
				"type": "occ",
				"energy": -0.30272,
				"method": "rhf"
			},
			{
				"type": "occ",
				"energy": -0.28298,
				"method": "rhf"
			},
			{
				"type": "occ",
				"energy": -0.27473,
				"method": "rhf"
			},
			{
				"type": "occ",
				"energy": -0.24203,
				"method": "rhf"
			},
			{
				"type": "occ",
				"energy": -0.21915,
				"method": "rhf"
			},
			{
				"type": "unocc",
				"energy": 0.00641,
				"method": "rhf"
			},
			{
				"type": "unocc",
				"energy": 0.00803,
				"method": "rhf"
			},
			{
				"type": "unocc",
				"energy": 0.01625,
				"method": "rhf"
			},
			{
				"type": "unocc",
				"energy": 0.09753,
				"method": "rhf"
			},
			{
				"type": "unocc",
				"energy": 0.10152,
				"method": "rhf"
			}
		],
		"cosmo_sigma_profile": { 
			"-0.025": 0.0,
			"-0.024": 0.0,
			"-0.023": 0.0,
			"-0.022": 0.0,
			"-0.021": 0.0,
			"-0.02": 0.0,
			"-0.019": 0.0,
			"-0.018": 0.0,
			"-0.017": 0.0,
			"-0.016": 0.0,
			"-0.015": 0.0,
			"-0.014": 0.0,
			"-0.013": 0.0,
			"-0.012": 0.0,
			"-0.011": 0.0,
			"-0.01": 0.0,
			"-0.009": 0.0,
			"-0.008": 0.655103040929,
			"-0.007": 3.09217827461,
			"-0.006": 7.95252027597,
			"-0.005": 22.3603269628,
			"-0.004": 29.2909000957,
			"-0.003": 28.7156641655,
			"-0.002": 23.5447973109,
			"-0.001": 19.347541891,
			"0.0": 16.8472047479,
			"0.001": 13.4891401345,
			"0.002": 11.831133628,
			"0.003": 12.2955659149,
			"0.004": 16.9934357242,
			"0.005": 15.1111604706,
			"0.006": 10.899722333,
			"0.007": 4.64373233612,
			"0.008": 3.27842471181,
			"0.009": 3.1977015065,
			"0.01": 2.86516235771,
			"0.011": 2.87587545456,
			"0.012": 2.10106863847,
			"0.013": 0.0888323004355,
			"0.014": 0.0,
			"0.015": 0.0,
			"0.016": 0.0,
			"0.017": 0.0,
			"0.018": 0.0,
			"0.019": 0.0,
			"0.02": 0.0,
			"0.021": 0.0,
			"0.022": 0.0,
			"0.023": 0.0,
			"0.024": 0.0,
			"0.025": 0.0
		}
	}
}
