{
	 "smiles": "OCC1=CC2=C(C=CC=C2)C=C1", 
	 "Tm": 354.45, 
	 "num_atms": 22, 
	 "gaussian": { 
		 "optdone": 1, 
		 "sigma_profile": "yes", 
		 "theory": "DFT", 
		 "functional": "B3LYP", 
		 "basiset": "6-31G**", 
		 "properties": { 
			 "R2extent": 3157.6566, 
			 "electric_dipole_moment_norm": 1.4902252984, 
			 "electric_quadrupole_moment_norm": 7.78566521435, 
			 "total_energy": -500.423835984, 
			 "HOMO_LUMO_gap": 0.17662, 
			 "cosmo_polarized_energy": -8.22, 
			 "cosmo_cavitation_energy": 25.4, 
			 "cosmo_dispersion_energy": -18.92, 
			 "cosmo_repulsion_energy": 1.49, 
			 "cosmo_total_nonelectrostatic_energy": 7.98, 
			 "SMD_solvation_energy": 4.07 
		},
		"coords": [
			{
				"x": 4.3332509313,
				"y": 2.4826760883,
				"z": -0.8557269401,
				"element": "O" 
			},
			{
				"x": 2.9912365865,
				"y": 2.217390733,
				"z": -1.2479432125,
				"element": "C" 
			},
			{
				"x": 2.4756209653,
				"y": 0.8804779692,
				"z": -0.757229353,
				"element": "C" 
			},
			{
				"x": 1.1954912135,
				"y": 0.7416760344,
				"z": -0.2634717853,
				"element": "C" 
			},
			{
				"x": 0.6976411756,
				"y": -0.5173420853,
				"z": 0.1691976861,
				"element": "C" 
			},
			{
				"x": 1.55630305,
				"y": -1.6620712547,
				"z": 0.0974501153,
				"element": "C" 
			},
			{
				"x": 1.0620907225,
				"y": -2.9204112578,
				"z": 0.533269982,
				"element": "C" 
			},
			{
				"x": -0.2209672205,
				"y": -3.044986443,
				"z": 1.018115481,
				"element": "C" 
			},
			{
				"x": -1.069834272,
				"y": -1.9131727338,
				"z": 1.0904510783,
				"element": "C" 
			},
			{
				"x": -0.619804221,
				"y": -0.6792078731,
				"z": 0.6765142664,
				"element": "C" 
			},
			{
				"x": 2.8759905359,
				"y": -1.492378618,
				"z": -0.4049302103,
				"element": "C" 
			},
			{
				"x": 3.3232594855,
				"y": -0.2606378153,
				"z": -0.8195109013,
				"element": "C" 
			},
			{
				"x": 4.370082617,
				"y": 2.4194645965,
				"z": 0.1081232957,
				"element": "H" 
			},
			{
				"x": 3.0099417489,
				"y": 2.2351539233,
				"z": -2.3444015569,
				"element": "H" 
			},
			{
				"x": 2.3074767187,
				"y": 3.0186033421,
				"z": -0.9265420515,
				"element": "H" 
			},
			{
				"x": 0.5413051557,
				"y": 1.6093124308,
				"z": -0.1991278876,
				"element": "H" 
			},
			{
				"x": 1.7162169674,
				"y": -3.7869446101,
				"z": 0.4771055298,
				"element": "H" 
			},
			{
				"x": -0.5875297429,
				"y": -4.0129132678,
				"z": 1.3476127743,
				"element": "H" 
			},
			{
				"x": -2.0798311051,
				"y": -2.0235254805,
				"z": 1.4746819412,
				"element": "H" 
			},
			{
				"x": -1.2699248552,
				"y": 0.190486124,
				"z": 0.7310518844,
				"element": "H" 
			},
			{
				"x": 3.530726338,
				"y": -2.3589291003,
				"z": -0.4565344148,
				"element": "H" 
			},
			{
				"x": 4.3354572047,
				"y": -0.1347207021,
				"z": -1.1916557215,
				"element": "H" 
			}
		],
		 "valence_orbital": [ 
			{
				"type": "occ",
				"energy": -0.32024,
				"method": "rhf"
			},
			{
				"type": "occ",
				"energy": -0.28397,
				"method": "rhf"
			},
			{
				"type": "occ",
				"energy": -0.27442,
				"method": "rhf"
			},
			{
				"type": "occ",
				"energy": -0.23883,
				"method": "rhf"
			},
			{
				"type": "occ",
				"energy": -0.21538,
				"method": "rhf"
			},
			{
				"type": "unocc",
				"energy": -0.03876,
				"method": "rhf"
			},
			{
				"type": "unocc",
				"energy": -0.01132,
				"method": "rhf"
			},
			{
				"type": "unocc",
				"energy": 0.03173,
				"method": "rhf"
			},
			{
				"type": "unocc",
				"energy": 0.08071,
				"method": "rhf"
			},
			{
				"type": "unocc",
				"energy": 0.09819,
				"method": "rhf"
			}
		],
		"cosmo_sigma_profile": { 
			"-0.025": 0.0,
			"-0.024": 0.0,
			"-0.023": 0.0,
			"-0.022": 0.0,
			"-0.021": 0.0,
			"-0.02": 0.0,
			"-0.019": 0.0,
			"-0.018": 0.0,
			"-0.017": 0.0,
			"-0.016": 0.145844440814,
			"-0.015": 0.894195019988,
			"-0.014": 0.99526213529,
			"-0.013": 0.444076536215,
			"-0.012": 0.883200780098,
			"-0.011": 0.919796934896,
			"-0.01": 1.03036136879,
			"-0.009": 0.449169810851,
			"-0.008": 0.532564424811,
			"-0.007": 1.17491337383,
			"-0.006": 8.27070104189,
			"-0.005": 19.7717058488,
			"-0.004": 19.1497382613,
			"-0.003": 18.9723302786,
			"-0.002": 13.2806835691,
			"-0.001": 12.2393670895,
			"0.0": 10.7875610195,
			"0.001": 11.0301924462,
			"0.002": 11.6230744679,
			"0.003": 12.5687225955,
			"0.004": 23.4078318738,
			"0.005": 18.683282065,
			"0.006": 4.39708044946,
			"0.007": 1.05095221262,
			"0.008": 0.600899469349,
			"0.009": 1.38097072744,
			"0.01": 1.01139715019,
			"0.011": 1.45144662044,
			"0.012": 1.25402833814,
			"0.013": 1.4613913569,
			"0.014": 2.12234014965,
			"0.015": 0.176057180154,
			"0.016": 0.0,
			"0.017": 0.0,
			"0.018": 0.0,
			"0.019": 0.0,
			"0.02": 0.0,
			"0.021": 0.0,
			"0.022": 0.0,
			"0.023": 0.0,
			"0.024": 0.0,
			"0.025": 0.0
		}
	}
}
