{
	 "smiles": "COC1=C(NN)C=CC(=C1)C(O)=O", 
	 "Tm": 423.15, 
	 "num_atms": 23, 
	 "gaussian": { 
		 "optdone": 1, 
		 "sigma_profile": "yes", 
		 "theory": "DFT", 
		 "functional": "B3LYP", 
		 "basiset": "6-31G**", 
		 "properties": { 
			 "R2extent": 3843.294, 
			 "electric_dipole_moment_norm": 2.69811749188, 
			 "electric_quadrupole_moment_norm": 15.4352386363, 
			 "total_energy": -646.027733223, 
			 "HOMO_LUMO_gap": 0.16936, 
			 "cosmo_polarized_energy": -15.35, 
			 "cosmo_cavitation_energy": 27.35, 
			 "cosmo_dispersion_energy": -20.19, 
			 "cosmo_repulsion_energy": 1.61, 
			 "cosmo_total_nonelectrostatic_energy": 8.78, 
			 "SMD_solvation_energy": 6.99 
		},
		"coords": [
			{
				"x": 0.8868093496,
				"y": -1.0849228195,
				"z": -3.4462688003,
				"element": "C" 
			},
			{
				"x": 1.6351741431,
				"y": -1.0075655888,
				"z": -2.2428221806,
				"element": "O" 
			},
			{
				"x": 1.0168592927,
				"y": -1.3758353665,
				"z": -1.0742774747,
				"element": "C" 
			},
			{
				"x": 1.8375437085,
				"y": -1.2442221445,
				"z": 0.0820040516,
				"element": "C" 
			},
			{
				"x": 3.1393252285,
				"y": -0.815380426,
				"z": -0.0881538321,
				"element": "N" 
			},
			{
				"x": 3.9155108934,
				"y": -0.3175848796,
				"z": 0.9720034736,
				"element": "N" 
			},
			{
				"x": 1.295271314,
				"y": -1.5816830288,
				"z": 1.330040181,
				"element": "C" 
			},
			{
				"x": -0.0154521947,
				"y": -2.0399282604,
				"z": 1.4350563622,
				"element": "C" 
			},
			{
				"x": -0.8145758877,
				"y": -2.1685727106,
				"z": 0.2975957134,
				"element": "C" 
			},
			{
				"x": -0.2858026733,
				"y": -1.8295292638,
				"z": -0.9662687817,
				"element": "C" 
			},
			{
				"x": -2.1972092611,
				"y": -2.6571352276,
				"z": 0.4602367392,
				"element": "C" 
			},
			{
				"x": -2.8794101001,
				"y": -2.7430494149,
				"z": -0.7172031663,
				"element": "O" 
			},
			{
				"x": -2.7186897545,
				"y": -2.9637393071,
				"z": 1.5173121738,
				"element": "O" 
			},
			{
				"x": 0.0034899117,
				"y": -0.4346463969,
				"z": -3.4127326464,
				"element": "H" 
			},
			{
				"x": 0.5670146911,
				"y": -2.1137891683,
				"z": -3.6532017607,
				"element": "H" 
			},
			{
				"x": 1.5543136747,
				"y": -0.7478531991,
				"z": -4.2406984265,
				"element": "H" 
			},
			{
				"x": 3.3440391579,
				"y": -0.3809500258,
				"z": -0.9762068808,
				"element": "H" 
			},
			{
				"x": 4.2574401751,
				"y": -1.097620906,
				"z": 1.5287628269,
				"element": "H" 
			},
			{
				"x": 3.3491942337,
				"y": 0.2748388183,
				"z": 1.5815993709,
				"element": "H" 
			},
			{
				"x": 1.9110367851,
				"y": -1.4910600012,
				"z": 2.2181120816,
				"element": "H" 
			},
			{
				"x": -0.4352204583,
				"y": -2.3043081492,
				"z": 2.3992826274,
				"element": "H" 
			},
			{
				"x": -0.9147975547,
				"y": -1.926578932,
				"z": -1.8411242393,
				"element": "H" 
			},
			{
				"x": -3.7607646748,
				"y": -3.0712836014,
				"z": -0.4765474121,
				"element": "H" 
			}
		],
		 "valence_orbital": [ 
			{
				"type": "occ",
				"energy": -0.29956,
				"method": "rhf"
			},
			{
				"type": "occ",
				"energy": -0.27342,
				"method": "rhf"
			},
			{
				"type": "occ",
				"energy": -0.26394,
				"method": "rhf"
			},
			{
				"type": "occ",
				"energy": -0.24059,
				"method": "rhf"
			},
			{
				"type": "occ",
				"energy": -0.20003,
				"method": "rhf"
			},
			{
				"type": "unocc",
				"energy": -0.03067,
				"method": "rhf"
			},
			{
				"type": "unocc",
				"energy": 0.00627,
				"method": "rhf"
			},
			{
				"type": "unocc",
				"energy": 0.06795,
				"method": "rhf"
			},
			{
				"type": "unocc",
				"energy": 0.07704,
				"method": "rhf"
			},
			{
				"type": "unocc",
				"energy": 0.08708,
				"method": "rhf"
			}
		],
		"cosmo_sigma_profile": { 
			"-0.025": 0.0,
			"-0.024": 0.0,
			"-0.023": 0.0,
			"-0.022": 0.0,
			"-0.021": 0.0,
			"-0.02": 0.0,
			"-0.019": 0.0,
			"-0.018": 0.294723296606,
			"-0.017": 0.612455731983,
			"-0.016": 0.922603532903,
			"-0.015": 1.34180851268,
			"-0.014": 0.323006988419,
			"-0.013": 0.113825725104,
			"-0.012": 1.05013570295,
			"-0.011": 3.74253965905,
			"-0.01": 5.43305007676,
			"-0.009": 5.04690917271,
			"-0.008": 4.0623165323,
			"-0.007": 4.76629415797,
			"-0.006": 10.4488145873,
			"-0.005": 14.7330592669,
			"-0.004": 14.8477890036,
			"-0.003": 14.5068040475,
			"-0.002": 10.2852342495,
			"-0.001": 8.68653177423,
			"0.0": 9.85443794062,
			"0.001": 12.0050617779,
			"0.002": 14.3614584768,
			"0.003": 16.0597771506,
			"0.004": 16.7674382245,
			"0.005": 12.0045670275,
			"0.006": 5.96124938091,
			"0.007": 5.07778361612,
			"0.008": 4.00569146058,
			"0.009": 3.15331687571,
			"0.01": 2.67538023186,
			"0.011": 2.73511197942,
			"0.012": 4.88500297938,
			"0.013": 3.65268386557,
			"0.014": 0.719267435917,
			"0.015": 0.591000166181,
			"0.016": 0.558903225436,
			"0.017": 0.17216836135,
			"0.018": 0.0,
			"0.019": 0.0,
			"0.02": 0.0,
			"0.021": 0.0,
			"0.022": 0.0,
			"0.023": 0.0,
			"0.024": 0.0,
			"0.025": 0.0
		}
	}
}
