{
	 "smiles": "OC(=O)C1=NN(C=C1O)C1=CC=CC=C1", 
	 "Tm": 428.15, 
	 "num_atms": 23, 
	 "gaussian": { 
		 "optdone": 1, 
		 "sigma_profile": "yes", 
		 "theory": "DFT", 
		 "functional": "B3LYP", 
		 "basiset": "6-31G**", 
		 "properties": { 
			 "R2extent": 4515.3533, 
			 "electric_dipole_moment_norm": 2.14673935772, 
			 "electric_quadrupole_moment_norm": 18.1909801775, 
			 "total_energy": -721.045402316, 
			 "HOMO_LUMO_gap": 0.16916, 
			 "cosmo_polarized_energy": -15.42, 
			 "cosmo_cavitation_energy": 28.21, 
			 "cosmo_dispersion_energy": -21.21, 
			 "cosmo_repulsion_energy": 1.64, 
			 "cosmo_total_nonelectrostatic_energy": 8.64, 
			 "SMD_solvation_energy": 6.01 
		},
		"coords": [
			{
				"x": -1.1238489397,
				"y": 4.9156600755,
				"z": -0.712959505,
				"element": "O" 
			},
			{
				"x": -1.289442975,
				"y": 3.5718745701,
				"z": -0.9797426974,
				"element": "C" 
			},
			{
				"x": -2.1912569439,
				"y": 3.1680301925,
				"z": -1.674686784,
				"element": "O" 
			},
			{
				"x": -0.2429866825,
				"y": 2.7964560981,
				"z": -0.3095423171,
				"element": "C" 
			},
			{
				"x": -0.1941200731,
				"y": 1.46138843,
				"z": -0.4205522588,
				"element": "N" 
			},
			{
				"x": 0.864585403,
				"y": 1.0862688482,
				"z": 0.3023133126,
				"element": "N" 
			},
			{
				"x": 1.5143547003,
				"y": 2.1517509138,
				"z": 0.88794907,
				"element": "C" 
			},
			{
				"x": 0.8190152634,
				"y": 3.2799752589,
				"z": 0.5097673693,
				"element": "C" 
			},
			{
				"x": 1.1144868049,
				"y": 4.5476938546,
				"z": 0.8618757788,
				"element": "O" 
			},
			{
				"x": 1.2015972487,
				"y": -0.2955796868,
				"z": 0.3940549793,
				"element": "C" 
			},
			{
				"x": 2.3071787788,
				"y": -0.7100747765,
				"z": 1.1442213352,
				"element": "C" 
			},
			{
				"x": 2.617712615,
				"y": -2.0677938003,
				"z": 1.2195096682,
				"element": "C" 
			},
			{
				"x": 1.8362018325,
				"y": -3.0122353849,
				"z": 0.5542354674,
				"element": "C" 
			},
			{
				"x": 0.7344013586,
				"y": -2.5875802986,
				"z": -0.1921228559,
				"element": "C" 
			},
			{
				"x": 0.4110156354,
				"y": -1.2359961166,
				"z": -0.2773262188,
				"element": "C" 
			},
			{
				"x": -1.8400183426,
				"y": 5.3768950569,
				"z": -1.1792468018,
				"element": "H" 
			},
			{
				"x": 2.3881641932,
				"y": 2.0489491617,
				"z": 1.5074595113,
				"element": "H" 
			},
			{
				"x": 0.4504512408,
				"y": 5.1225293867,
				"z": 0.4456134701,
				"element": "H" 
			},
			{
				"x": 2.9276822355,
				"y": 0.0070652289,
				"z": 1.6687112319,
				"element": "H" 
			},
			{
				"x": 3.4772616582,
				"y": -2.3828135148,
				"z": 1.8035048989,
				"element": "H" 
			},
			{
				"x": 2.0825888731,
				"y": -4.0676790958,
				"z": 0.616352191,
				"element": "H" 
			},
			{
				"x": 0.1180462002,
				"y": -3.3130522654,
				"z": -0.7146935643,
				"element": "H" 
			},
			{
				"x": -0.439970085,
				"y": -0.8932321361,
				"z": -0.8521952809,
				"element": "H" 
			}
		],
		 "valence_orbital": [ 
			{
				"type": "occ",
				"energy": -0.29212,
				"method": "rhf"
			},
			{
				"type": "occ",
				"energy": -0.28466,
				"method": "rhf"
			},
			{
				"type": "occ",
				"energy": -0.2632,
				"method": "rhf"
			},
			{
				"type": "occ",
				"energy": -0.24777,
				"method": "rhf"
			},
			{
				"type": "occ",
				"energy": -0.2215,
				"method": "rhf"
			},
			{
				"type": "unocc",
				"energy": -0.05234,
				"method": "rhf"
			},
			{
				"type": "unocc",
				"energy": -0.01354,
				"method": "rhf"
			},
			{
				"type": "unocc",
				"energy": -0.00054,
				"method": "rhf"
			},
			{
				"type": "unocc",
				"energy": 0.04229,
				"method": "rhf"
			},
			{
				"type": "unocc",
				"energy": 0.06317,
				"method": "rhf"
			}
		],
		"cosmo_sigma_profile": { 
			"-0.025": 0.0,
			"-0.024": 0.0,
			"-0.023": 0.0,
			"-0.022": 0.0,
			"-0.021": 0.0,
			"-0.02": 0.0,
			"-0.019": 0.453814146685,
			"-0.018": 0.92744792531,
			"-0.017": 1.0595444631,
			"-0.016": 0.691757674424,
			"-0.015": 0.616568474967,
			"-0.014": 0.898102864203,
			"-0.013": 0.550485980941,
			"-0.012": 1.08508858191,
			"-0.011": 2.69358347444,
			"-0.01": 3.55897916916,
			"-0.009": 3.17985081811,
			"-0.008": 3.73596474133,
			"-0.007": 5.2364057614,
			"-0.006": 10.5705008437,
			"-0.005": 12.2346662031,
			"-0.004": 14.5807245494,
			"-0.003": 14.344260528,
			"-0.002": 13.2744830533,
			"-0.001": 12.9218033362,
			"0.0": 16.1401114779,
			"0.001": 18.4690020892,
			"0.002": 18.1230236037,
			"0.003": 14.754119509,
			"0.004": 15.5656574555,
			"0.005": 7.8186437394,
			"0.006": 3.47700986958,
			"0.007": 3.73995545827,
			"0.008": 3.40317670866,
			"0.009": 4.95735474658,
			"0.01": 5.4157227555,
			"0.011": 7.24134964618,
			"0.012": 3.5412000579,
			"0.013": 1.7587758253,
			"0.014": 0.0834706177564,
			"0.015": 0.0,
			"0.016": 0.0,
			"0.017": 0.0,
			"0.018": 0.0,
			"0.019": 0.0,
			"0.02": 0.0,
			"0.021": 0.0,
			"0.022": 0.0,
			"0.023": 0.0,
			"0.024": 0.0,
			"0.025": 0.0
		}
	}
}
