{
	 "smiles": "CC(O)CN(CC(C)O)CC(C)O", 
	 "Tm": 323.15, 
	 "num_atms": 34, 
	 "gaussian": { 
		 "optdone": 1, 
		 "sigma_profile": "yes", 
		 "theory": "DFT", 
		 "functional": "B3LYP", 
		 "basiset": "6-31G**", 
		 "properties": { 
			 "R2extent": 3721.7303, 
			 "electric_dipole_moment_norm": 3.498233923, 
			 "electric_quadrupole_moment_norm": 10.4092670265, 
			 "total_energy": -636.005594596, 
			 "HOMO_LUMO_gap": 0.25296, 
			 "cosmo_polarized_energy": -17.22, 
			 "cosmo_cavitation_energy": 33.82, 
			 "cosmo_dispersion_energy": -22.89, 
			 "cosmo_repulsion_energy": 1.83, 
			 "cosmo_total_nonelectrostatic_energy": 12.77, 
			 "SMD_solvation_energy": 5.65 
		},
		"coords": [
			{
				"x": 0.9110707936,
				"y": 0.7339494241,
				"z": 4.0316777356,
				"element": "C" 
			},
			{
				"x": -0.2918292055,
				"y": 1.4662623905,
				"z": 3.4574355146,
				"element": "C" 
			},
			{
				"x": -0.4144738154,
				"y": 2.6897812431,
				"z": 4.1851618476,
				"element": "O" 
			},
			{
				"x": -0.1457701317,
				"y": 1.7749745918,
				"z": 1.9520702201,
				"element": "C" 
			},
			{
				"x": -0.1684824389,
				"y": 0.5837316175,
				"z": 1.1049272457,
				"element": "N" 
			},
			{
				"x": -1.4973978236,
				"y": 0.0657257916,
				"z": 0.773830312,
				"element": "C" 
			},
			{
				"x": -2.1983101595,
				"y": 0.5958841108,
				"z": -0.4961538257,
				"element": "C" 
			},
			{
				"x": -2.4320406568,
				"y": 2.105824326,
				"z": -0.5432640119,
				"element": "C" 
			},
			{
				"x": -3.4404364413,
				"y": -0.1109837709,
				"z": -0.5163790679,
				"element": "O" 
			},
			{
				"x": 0.8626233264,
				"y": 0.4932587755,
				"z": 0.0788750241,
				"element": "C" 
			},
			{
				"x": 1.3075311868,
				"y": -0.9346413462,
				"z": -0.3013998541,
				"element": "C" 
			},
			{
				"x": 1.6567422343,
				"y": -1.8071594176,
				"z": 0.8965055482,
				"element": "C" 
			},
			{
				"x": 0.3163168723,
				"y": -1.6458273426,
				"z": -1.051185212,
				"element": "O" 
			},
			{
				"x": 1.0766076797,
				"y": -0.2000898036,
				"z": 3.4903718601,
				"element": "H" 
			},
			{
				"x": 0.7537223466,
				"y": 0.5101610995,
				"z": 5.0904474745,
				"element": "H" 
			},
			{
				"x": 1.8069412973,
				"y": 1.3590078848,
				"z": 3.9456707825,
				"element": "H" 
			},
			{
				"x": -1.1899689556,
				"y": 0.8437526086,
				"z": 3.6062743633,
				"element": "H" 
			},
			{
				"x": -1.2096558381,
				"y": 3.1423757574,
				"z": 3.8743970693,
				"element": "H" 
			},
			{
				"x": 0.8051080967,
				"y": 2.3012509268,
				"z": 1.8151026423,
				"element": "H" 
			},
			{
				"x": -0.9332730586,
				"y": 2.4985169612,
				"z": 1.68049874,
				"element": "H" 
			},
			{
				"x": -1.4487887556,
				"y": -1.0197335464,
				"z": 0.6561929723,
				"element": "H" 
			},
			{
				"x": -2.1626792291,
				"y": 0.2638194931,
				"z": 1.6211195666,
				"element": "H" 
			},
			{
				"x": -1.5950519574,
				"y": 0.3064258482,
				"z": -1.3713366332,
				"element": "H" 
			},
			{
				"x": -3.0327710498,
				"y": 2.4309278188,
				"z": 0.3124349515,
				"element": "H" 
			},
			{
				"x": -2.9748479764,
				"y": 2.379781458,
				"z": -1.4569323856,
				"element": "H" 
			},
			{
				"x": -1.4905587393,
				"y": 2.663825444,
				"z": -0.5452428713,
				"element": "H" 
			},
			{
				"x": -3.9019985748,
				"y": 0.1191622427,
				"z": -1.3326528535,
				"element": "H" 
			},
			{
				"x": 0.5954591791,
				"y": 1.0187972517,
				"z": -0.8610016667,
				"element": "H" 
			},
			{
				"x": 1.7510260017,
				"y": 1.0070864973,
				"z": 0.4620712678,
				"element": "H" 
			},
			{
				"x": 2.2118554629,
				"y": -0.8111225083,
				"z": -0.9228403106,
				"element": "H" 
			},
			{
				"x": 2.4592188629,
				"y": -1.3509845311,
				"z": 1.4843042638,
				"element": "H" 
			},
			{
				"x": 0.7866197161,
				"y": -1.9352484347,
				"z": 1.5441112809,
				"element": "H" 
			},
			{
				"x": 1.9885383202,
				"y": -2.7912903814,
				"z": 0.555086781,
				"element": "H" 
			},
			{
				"x": 0.1810534307,
				"y": -1.1791024801,
				"z": -1.8856787713,
				"element": "H" 
			}
		],
		 "valence_orbital": [ 
			{
				"type": "occ",
				"energy": -0.31617,
				"method": "rhf"
			},
			{
				"type": "occ",
				"energy": -0.2745,
				"method": "rhf"
			},
			{
				"type": "occ",
				"energy": -0.26557,
				"method": "rhf"
			},
			{
				"type": "occ",
				"energy": -0.2572,
				"method": "rhf"
			},
			{
				"type": "occ",
				"energy": -0.19818,
				"method": "rhf"
			},
			{
				"type": "unocc",
				"energy": 0.05478,
				"method": "rhf"
			},
			{
				"type": "unocc",
				"energy": 0.07371,
				"method": "rhf"
			},
			{
				"type": "unocc",
				"energy": 0.077,
				"method": "rhf"
			},
			{
				"type": "unocc",
				"energy": 0.09578,
				"method": "rhf"
			},
			{
				"type": "unocc",
				"energy": 0.10742,
				"method": "rhf"
			}
		],
		"cosmo_sigma_profile": { 
			"-0.025": 0.0,
			"-0.024": 0.0,
			"-0.023": 0.0,
			"-0.022": 0.0,
			"-0.021": 0.0,
			"-0.02": 0.0,
			"-0.019": 0.0,
			"-0.018": 0.0,
			"-0.017": 0.0,
			"-0.016": 0.0173129656206,
			"-0.015": 1.33247373217,
			"-0.014": 2.57284512363,
			"-0.013": 3.07203576716,
			"-0.012": 2.31523490607,
			"-0.011": 2.84411314143,
			"-0.01": 4.01411158233,
			"-0.009": 2.57899788772,
			"-0.008": 3.1060223992,
			"-0.007": 3.4169740124,
			"-0.006": 3.64344165898,
			"-0.005": 5.73110173408,
			"-0.004": 12.9241280123,
			"-0.003": 27.791837721,
			"-0.002": 31.2052674709,
			"-0.001": 29.9865151116,
			"0.0": 26.1066532135,
			"0.001": 25.4984758092,
			"0.002": 13.0577637537,
			"0.003": 6.46820237552,
			"0.004": 5.40660384272,
			"0.005": 4.2808848664,
			"0.006": 5.0560529983,
			"0.007": 5.00360442551,
			"0.008": 3.91171179393,
			"0.009": 4.54053985296,
			"0.01": 4.04469371885,
			"0.011": 2.46768941433,
			"0.012": 4.27397776585,
			"0.013": 4.45740006254,
			"0.014": 5.54574672256,
			"0.015": 2.26533656745,
			"0.016": 0.0,
			"0.017": 0.0,
			"0.018": 0.0,
			"0.019": 0.0,
			"0.02": 0.0,
			"0.021": 0.0,
			"0.022": 0.0,
			"0.023": 0.0,
			"0.024": 0.0,
			"0.025": 0.0
		}
	}
}
