{
	 "smiles": "CCOC(=O)C(=O)C1=CC=C(Br)S1", 
	 "Tm": 343.65, 
	 "num_atms": 20, 
	 "gaussian": { 
		 "optdone": 1, 
		 "sigma_profile": "yes", 
		 "theory": "DFT", 
		 "functional": "B3LYP", 
		 "basiset": "6-31G**", 
		 "properties": { 
			 "R2extent": 6458.8736, 
			 "electric_dipole_moment_norm": 0.849421438392, 
			 "electric_quadrupole_moment_norm": 15.0386295998, 
			 "total_energy": -3504.31385116, 
			 "HOMO_LUMO_gap": 0.14826, 
			 "cosmo_polarized_energy": -9.19, 
			 "cosmo_cavitation_energy": 29.34, 
			 "cosmo_dispersion_energy": -22.24, 
			 "cosmo_repulsion_energy": 1.74, 
			 "cosmo_total_nonelectrostatic_energy": 8.85, 
			 "SMD_solvation_energy": 5.57 
		},
		"coords": [
			{
				"x": 1.6118342113,
				"y": -3.1874157933,
				"z": -1.4100877349,
				"element": "C" 
			},
			{
				"x": 0.3108258458,
				"y": -3.2841619875,
				"z": -0.6290574274,
				"element": "C" 
			},
			{
				"x": 0.3573361928,
				"y": -2.4598033273,
				"z": 0.5670068293,
				"element": "O" 
			},
			{
				"x": 0.0239933484,
				"y": -1.1806291348,
				"z": 0.4245745271,
				"element": "C" 
			},
			{
				"x": -0.3192535761,
				"y": -0.6489241753,
				"z": -0.6152440579,
				"element": "O" 
			},
			{
				"x": 0.116476354,
				"y": -0.4185252522,
				"z": 1.762230568,
				"element": "C" 
			},
			{
				"x": 0.4927223578,
				"y": -0.9879450652,
				"z": 2.7734870707,
				"element": "O" 
			},
			{
				"x": -0.2618758797,
				"y": 0.998491753,
				"z": 1.7530327704,
				"element": "C" 
			},
			{
				"x": -0.2283482409,
				"y": 1.7876101048,
				"z": 2.8893977163,
				"element": "C" 
			},
			{
				"x": -0.6324207782,
				"y": 3.1232588285,
				"z": 2.6713489019,
				"element": "C" 
			},
			{
				"x": -0.9715897236,
				"y": 3.3321904729,
				"z": 1.3546009896,
				"element": "C" 
			},
			{
				"x": -1.5656888934,
				"y": 4.9561771475,
				"z": 0.609072527,
				"element": "Br" 
			},
			{
				"x": -0.8068251453,
				"y": 1.9205336633,
				"z": 0.3638559419,
				"element": "S" 
			},
			{
				"x": 1.5818214143,
				"y": -3.8782567702,
				"z": -2.2589992376,
				"element": "H" 
			},
			{
				"x": 1.7573761771,
				"y": -2.1761846897,
				"z": -1.7978489657,
				"element": "H" 
			},
			{
				"x": 2.464750216,
				"y": -3.4534894697,
				"z": -0.77956221,
				"element": "H" 
			},
			{
				"x": 0.1422656807,
				"y": -4.2930581151,
				"z": -0.2476376143,
				"element": "H" 
			},
			{
				"x": -0.5433054623,
				"y": -2.9734476718,
				"z": -1.2353795813,
				"element": "H" 
			},
			{
				"x": 0.0848604863,
				"y": 1.3832491423,
				"z": 3.8446988939,
				"element": "H" 
			},
			{
				"x": -0.674754585,
				"y": 3.8925303399,
				"z": 3.4316100931,
				"element": "H" 
			}
		],
		 "valence_orbital": [ 
			{
				"type": "occ",
				"energy": -0.31511,
				"method": "rhf"
			},
			{
				"type": "occ",
				"energy": -0.30621,
				"method": "rhf"
			},
			{
				"type": "occ",
				"energy": -0.27288,
				"method": "rhf"
			},
			{
				"type": "occ",
				"energy": -0.25987,
				"method": "rhf"
			},
			{
				"type": "occ",
				"energy": -0.2433,
				"method": "rhf"
			},
			{
				"type": "unocc",
				"energy": -0.09504,
				"method": "rhf"
			},
			{
				"type": "unocc",
				"energy": -0.02318,
				"method": "rhf"
			},
			{
				"type": "unocc",
				"energy": -0.00957,
				"method": "rhf"
			},
			{
				"type": "unocc",
				"energy": 0.0235,
				"method": "rhf"
			},
			{
				"type": "unocc",
				"energy": 0.03651,
				"method": "rhf"
			}
		],
		"cosmo_sigma_profile": { 
			"-0.025": 0.0,
			"-0.024": 0.0,
			"-0.023": 0.0,
			"-0.022": 0.0,
			"-0.021": 0.0,
			"-0.02": 0.0,
			"-0.019": 0.0,
			"-0.018": 0.0,
			"-0.017": 0.0,
			"-0.016": 0.0,
			"-0.015": 0.0,
			"-0.014": 0.0,
			"-0.013": 0.0,
			"-0.012": 0.0,
			"-0.011": 0.0,
			"-0.01": 0.0,
			"-0.009": 0.964204648642,
			"-0.008": 3.23453982838,
			"-0.007": 6.77274264592,
			"-0.006": 10.1090737783,
			"-0.005": 14.7633966926,
			"-0.004": 19.8476533922,
			"-0.003": 17.3865034931,
			"-0.002": 19.1265857156,
			"-0.001": 22.4546281075,
			"0.0": 27.6414873302,
			"0.001": 25.0092881056,
			"0.002": 20.5823370103,
			"0.003": 14.9596265473,
			"0.004": 4.13669762854,
			"0.005": 4.35125137889,
			"0.006": 3.95861604078,
			"0.007": 3.63299184553,
			"0.008": 4.14289027516,
			"0.009": 4.63626653706,
			"0.01": 6.55631008696,
			"0.011": 3.56940019423,
			"0.012": 1.51180993056,
			"0.013": 0.959696864336,
			"0.014": 0.000895302333179,
			"0.015": 0.0,
			"0.016": 0.0,
			"0.017": 0.0,
			"0.018": 0.0,
			"0.019": 0.0,
			"0.02": 0.0,
			"0.021": 0.0,
			"0.022": 0.0,
			"0.023": 0.0,
			"0.024": 0.0,
			"0.025": 0.0
		}
	}
}
