{
	 "smiles": "OCC1OC(OC2=CC=CC=C2)C(O)C(O)C1O", 
	 "Tm": 450.15, 
	 "num_atms": 34, 
	 "gaussian": { 
		 "optdone": 1, 
		 "sigma_profile": "yes", 
		 "theory": "DFT", 
		 "functional": "B3LYP", 
		 "basiset": "6-31G**", 
		 "properties": { 
			 "R2extent": 5058.8255, 
			 "electric_dipole_moment_norm": 2.24574127406, 
			 "electric_quadrupole_moment_norm": 7.92310297548, 
			 "total_energy": -918.213292382, 
			 "HOMO_LUMO_gap": 0.23621, 
			 "cosmo_polarized_energy": -18.46, 
			 "cosmo_cavitation_energy": 35.28, 
			 "cosmo_dispersion_energy": -24.97, 
			 "cosmo_repulsion_energy": 1.93, 
			 "cosmo_total_nonelectrostatic_energy": 12.24, 
			 "SMD_solvation_energy": 5.39 
		},
		"coords": [
			{
				"x": 1.9817443351,
				"y": 2.9939602826,
				"z": -0.7077207124,
				"element": "O" 
			},
			{
				"x": 0.5891368883,
				"y": 3.2236371885,
				"z": -0.7593074407,
				"element": "C" 
			},
			{
				"x": -0.1529895124,
				"y": 1.9283471508,
				"z": -1.1101768078,
				"element": "C" 
			},
			{
				"x": 0.2369814426,
				"y": 0.8626308139,
				"z": -0.2171780356,
				"element": "O" 
			},
			{
				"x": -0.2410838493,
				"y": 0.9618149774,
				"z": 1.1366247871,
				"element": "C" 
			},
			{
				"x": 0.3305837129,
				"y": -0.0820819034,
				"z": 1.869004032,
				"element": "O" 
			},
			{
				"x": -0.0919694933,
				"y": -1.3859223997,
				"z": 1.6215660389,
				"element": "C" 
			},
			{
				"x": 0.4712823797,
				"y": -2.1218376378,
				"z": 0.5764711595,
				"element": "C" 
			},
			{
				"x": 0.0959106591,
				"y": -3.4553470911,
				"z": 0.4019921076,
				"element": "C" 
			},
			{
				"x": -0.829097052,
				"y": -4.0478331443,
				"z": 1.2648317158,
				"element": "C" 
			},
			{
				"x": -1.3823987226,
				"y": -3.3014215485,
				"z": 2.3080356013,
				"element": "C" 
			},
			{
				"x": -1.0165770863,
				"y": -1.9670141992,
				"z": 2.4916919078,
				"element": "C" 
			},
			{
				"x": -1.7704722377,
				"y": 0.9783343032,
				"z": 1.1245526903,
				"element": "C" 
			},
			{
				"x": -2.2417404252,
				"y": 1.1329872845,
				"z": 2.4480583611,
				"element": "O" 
			},
			{
				"x": -2.2882852803,
				"y": 2.1166614354,
				"z": 0.2324010558,
				"element": "C" 
			},
			{
				"x": -3.7070233485,
				"y": 2.0747814102,
				"z": 0.1861325208,
				"element": "O" 
			},
			{
				"x": -1.679344013,
				"y": 2.0299606036,
				"z": -1.17370147,
				"element": "C" 
			},
			{
				"x": -2.2426616024,
				"y": 0.9034185076,
				"z": -1.8549832076,
				"element": "O" 
			},
			{
				"x": 2.1023833995,
				"y": 2.1484900844,
				"z": -0.2500730289,
				"element": "H" 
			},
			{
				"x": 0.2169121291,
				"y": 3.6551134987,
				"z": 0.1839366568,
				"element": "H" 
			},
			{
				"x": 0.4059551392,
				"y": 3.9652824329,
				"z": -1.5445600327,
				"element": "H" 
			},
			{
				"x": 0.2109492832,
				"y": 1.5955038094,
				"z": -2.087865213,
				"element": "H" 
			},
			{
				"x": 0.1369216447,
				"y": 1.8714959707,
				"z": 1.618731075,
				"element": "H" 
			},
			{
				"x": 1.1960856557,
				"y": -1.6462451237,
				"z": -0.0740841847,
				"element": "H" 
			},
			{
				"x": 0.5336594201,
				"y": -4.0334737539,
				"z": -0.4069281629,
				"element": "H" 
			},
			{
				"x": -1.1140373559,
				"y": -5.086706496,
				"z": 1.1273221703,
				"element": "H" 
			},
			{
				"x": -2.1009013495,
				"y": -3.7579679741,
				"z": 2.9828508608,
				"element": "H" 
			},
			{
				"x": -1.4401447943,
				"y": -1.3593652509,
				"z": 3.2837452147,
				"element": "H" 
			},
			{
				"x": -2.1121785423,
				"y": 0.0214717001,
				"z": 0.6982667313,
				"element": "H" 
			},
			{
				"x": -3.1850083453,
				"y": 1.3405255483,
				"z": 2.3635975794,
				"element": "H" 
			},
			{
				"x": -2.0233693809,
				"y": 3.0715797081,
				"z": 0.7025035131,
				"element": "H" 
			},
			{
				"x": -3.9182734472,
				"y": 1.4140326393,
				"z": -0.4943747746,
				"element": "H" 
			},
			{
				"x": -1.9767436167,
				"y": 2.9077131141,
				"z": -1.7578782891,
				"element": "H" 
			},
			{
				"x": -1.7395066341,
				"y": 0.1221740589,
				"z": -1.5804844194,
				"element": "H" 
			}
		],
		 "valence_orbital": [ 
			{
				"type": "occ",
				"energy": -0.28643,
				"method": "rhf"
			},
			{
				"type": "occ",
				"energy": -0.27171,
				"method": "rhf"
			},
			{
				"type": "occ",
				"energy": -0.26527,
				"method": "rhf"
			},
			{
				"type": "occ",
				"energy": -0.25467,
				"method": "rhf"
			},
			{
				"type": "occ",
				"energy": -0.24252,
				"method": "rhf"
			},
			{
				"type": "unocc",
				"energy": -0.00631,
				"method": "rhf"
			},
			{
				"type": "unocc",
				"energy": -0.00242,
				"method": "rhf"
			},
			{
				"type": "unocc",
				"energy": 0.05635,
				"method": "rhf"
			},
			{
				"type": "unocc",
				"energy": 0.06252,
				"method": "rhf"
			},
			{
				"type": "unocc",
				"energy": 0.0808,
				"method": "rhf"
			}
		],
		"cosmo_sigma_profile": { 
			"-0.025": 0.0,
			"-0.024": 0.0,
			"-0.023": 0.0,
			"-0.022": 0.0,
			"-0.021": 0.0,
			"-0.02": 0.0,
			"-0.019": 0.0,
			"-0.018": 0.0,
			"-0.017": 0.0,
			"-0.016": 0.0,
			"-0.015": 0.0,
			"-0.014": 0.209019257123,
			"-0.013": 0.948120964074,
			"-0.012": 1.93992581453,
			"-0.011": 3.5892646994,
			"-0.01": 3.12283517654,
			"-0.009": 4.1621886997,
			"-0.008": 5.68868943707,
			"-0.007": 13.6027138585,
			"-0.006": 20.1144363318,
			"-0.005": 20.2673960286,
			"-0.004": 21.0336568576,
			"-0.003": 18.2898235402,
			"-0.002": 15.0244965717,
			"-0.001": 14.1150242993,
			"0.0": 13.3455356506,
			"0.001": 11.8446977565,
			"0.002": 11.0254964458,
			"0.003": 15.8896287508,
			"0.004": 16.90450046,
			"0.005": 16.2481278304,
			"0.006": 8.62322388092,
			"0.007": 5.35769137926,
			"0.008": 5.3121146637,
			"0.009": 4.98678598514,
			"0.01": 6.10943083824,
			"0.011": 5.68796615596,
			"0.012": 4.75013613794,
			"0.013": 4.65279739657,
			"0.014": 3.04822973011,
			"0.015": 0.0624215638378,
			"0.016": 0.0,
			"0.017": 0.0,
			"0.018": 0.0,
			"0.019": 0.0,
			"0.02": 0.0,
			"0.021": 0.0,
			"0.022": 0.0,
			"0.023": 0.0,
			"0.024": 0.0,
			"0.025": 0.0
		}
	}
}
