{
	 "smiles": "CCOC(=O)C(Br)C(C)Br", 
	 "Tm": 331.65, 
	 "num_atms": 20, 
	 "gaussian": { 
		 "optdone": 1, 
		 "sigma_profile": "yes", 
		 "theory": "DFT", 
		 "functional": "B3LYP", 
		 "basiset": "6-31G**", 
		 "properties": { 
			 "R2extent": 5224.9871, 
			 "electric_dipole_moment_norm": 3.48298200684, 
			 "electric_quadrupole_moment_norm": 9.18095415575, 
			 "total_energy": -5527.94078177, 
			 "HOMO_LUMO_gap": 0.21527, 
			 "cosmo_polarized_energy": -8.4, 
			 "cosmo_cavitation_energy": 27.79, 
			 "cosmo_dispersion_energy": -20.05, 
			 "cosmo_repulsion_energy": 1.66, 
			 "cosmo_total_nonelectrostatic_energy": 9.4, 
			 "SMD_solvation_energy": 3.51 
		},
		"coords": [
			{
				"x": 0.870440092,
				"y": 1.9532349564,
				"z": -2.315140852,
				"element": "C" 
			},
			{
				"x": -0.2435493403,
				"y": 0.9600329349,
				"z": -2.6049463113,
				"element": "C" 
			},
			{
				"x": 0.0298398634,
				"y": -0.3295665758,
				"z": -1.9928539905,
				"element": "O" 
			},
			{
				"x": -0.3739805537,
				"y": -0.4908437305,
				"z": -0.7242321253,
				"element": "C" 
			},
			{
				"x": -0.8927355624,
				"y": 0.3642464012,
				"z": -0.0386927705,
				"element": "O" 
			},
			{
				"x": -0.0921594513,
				"y": -1.9154359052,
				"z": -0.2508984764,
				"element": "C" 
			},
			{
				"x": -1.7009102206,
				"y": -2.9556747375,
				"z": -0.782384073,
				"element": "Br" 
			},
			{
				"x": 0.1646440211,
				"y": -1.9735279206,
				"z": 1.2525207653,
				"element": "C" 
			},
			{
				"x": 1.3564417265,
				"y": -1.115252272,
				"z": 1.671864524,
				"element": "C" 
			},
			{
				"x": 0.5174708866,
				"y": -3.8526472489,
				"z": 1.8047576538,
				"element": "Br" 
			},
			{
				"x": 0.9187507221,
				"y": 2.1793016126,
				"z": -1.2471446272,
				"element": "H" 
			},
			{
				"x": 0.6801216657,
				"y": 2.8872593418,
				"z": -2.8538170996,
				"element": "H" 
			},
			{
				"x": 1.838166018,
				"y": 1.560961658,
				"z": -2.6409669021,
				"element": "H" 
			},
			{
				"x": -0.319266714,
				"y": 0.7374592025,
				"z": -3.6713006948,
				"element": "H" 
			},
			{
				"x": -1.2063530007,
				"y": 1.3223383296,
				"z": -2.2380091968,
				"element": "H" 
			},
			{
				"x": 0.7255939445,
				"y": -2.3540487281,
				"z": -0.8208997239,
				"element": "H" 
			},
			{
				"x": -0.7363808698,
				"y": -1.6879513205,
				"z": 1.7931639402,
				"element": "H" 
			},
			{
				"x": 1.1407844375,
				"y": -0.0621046998,
				"z": 1.4710933859,
				"element": "H" 
			},
			{
				"x": 2.2643058787,
				"y": -1.4073572194,
				"z": 1.1357755745,
				"element": "H" 
			},
			{
				"x": 1.5420764567,
				"y": -1.2307240789,
				"z": 2.7414109999,
				"element": "H" 
			}
		],
		 "valence_orbital": [ 
			{
				"type": "occ",
				"energy": -0.30507,
				"method": "rhf"
			},
			{
				"type": "occ",
				"energy": -0.28781,
				"method": "rhf"
			},
			{
				"type": "occ",
				"energy": -0.28269,
				"method": "rhf"
			},
			{
				"type": "occ",
				"energy": -0.27617,
				"method": "rhf"
			},
			{
				"type": "occ",
				"energy": -0.26702,
				"method": "rhf"
			},
			{
				"type": "unocc",
				"energy": -0.05175,
				"method": "rhf"
			},
			{
				"type": "unocc",
				"energy": -0.0041,
				"method": "rhf"
			},
			{
				"type": "unocc",
				"energy": 0.03095,
				"method": "rhf"
			},
			{
				"type": "unocc",
				"energy": 0.09156,
				"method": "rhf"
			},
			{
				"type": "unocc",
				"energy": 0.11017,
				"method": "rhf"
			}
		],
		"cosmo_sigma_profile": { 
			"-0.025": 0.0,
			"-0.024": 0.0,
			"-0.023": 0.0,
			"-0.022": 0.0,
			"-0.021": 0.0,
			"-0.02": 0.0,
			"-0.019": 0.0,
			"-0.018": 0.0,
			"-0.017": 0.0,
			"-0.016": 0.0,
			"-0.015": 0.0,
			"-0.014": 0.0,
			"-0.013": 0.0,
			"-0.012": 0.0,
			"-0.011": 0.0,
			"-0.01": 0.102737027882,
			"-0.009": 2.11336836022,
			"-0.008": 2.70774750408,
			"-0.007": 3.79416821591,
			"-0.006": 7.16571775846,
			"-0.005": 14.9299285915,
			"-0.004": 21.1044410412,
			"-0.003": 21.9197050029,
			"-0.002": 21.3329951149,
			"-0.001": 21.3907400923,
			"0.0": 16.3686799815,
			"0.001": 10.7108621683,
			"0.002": 10.7017342018,
			"0.003": 14.2438743821,
			"0.004": 16.1463806595,
			"0.005": 16.3850965275,
			"0.006": 10.4350453871,
			"0.007": 4.34411782398,
			"0.008": 1.55451557659,
			"0.009": 1.40899615742,
			"0.01": 2.34271124353,
			"0.011": 3.28387857663,
			"0.012": 0.0874662767129,
			"0.013": 0.0,
			"0.014": 0.0,
			"0.015": 0.0,
			"0.016": 0.0,
			"0.017": 0.0,
			"0.018": 0.0,
			"0.019": 0.0,
			"0.02": 0.0,
			"0.021": 0.0,
			"0.022": 0.0,
			"0.023": 0.0,
			"0.024": 0.0,
			"0.025": 0.0
		}
	}
}
