{
	 "smiles": "CC1=CC=C(F)C(C(O)=O)=C1Cl", 
	 "Tm": 390.15, 
	 "num_atms": 18, 
	 "gaussian": { 
		 "optdone": 1, 
		 "sigma_profile": "yes", 
		 "theory": "DFT", 
		 "functional": "B3LYP", 
		 "basiset": "6-31G**", 
		 "properties": { 
			 "R2extent": 2219.1567, 
			 "electric_dipole_moment_norm": 5.75578535562, 
			 "electric_quadrupole_moment_norm": 6.37578536417, 
			 "total_energy": -1018.9475325, 
			 "HOMO_LUMO_gap": 0.20007, 
			 "cosmo_polarized_energy": -12.62, 
			 "cosmo_cavitation_energy": 24.22, 
			 "cosmo_dispersion_energy": -18.1, 
			 "cosmo_repulsion_energy": 1.4, 
			 "cosmo_total_nonelectrostatic_energy": 7.53, 
			 "SMD_solvation_energy": 5.5 
		},
		"coords": [
			{
				"x": -1.8451781227,
				"y": -1.3542055105,
				"z": -2.2451389761,
				"element": "C" 
			},
			{
				"x": -0.6837302543,
				"y": -1.1556228291,
				"z": -1.3042929106,
				"element": "C" 
			},
			{
				"x": 0.3404144288,
				"y": -2.1078020545,
				"z": -1.2388799242,
				"element": "C" 
			},
			{
				"x": 1.4386839367,
				"y": -1.9487278303,
				"z": -0.4003221472,
				"element": "C" 
			},
			{
				"x": 1.4936894048,
				"y": -0.815367458,
				"z": 0.3893080247,
				"element": "C" 
			},
			{
				"x": 2.5893563856,
				"y": -0.6633524969,
				"z": 1.188250942,
				"element": "F" 
			},
			{
				"x": 0.5032351209,
				"y": 0.1746602747,
				"z": 0.4065217679,
				"element": "C" 
			},
			{
				"x": 0.5716139784,
				"y": 1.3413327076,
				"z": 1.3717182546,
				"element": "C" 
			},
			{
				"x": 1.8037810976,
				"y": 1.8114848252,
				"z": 1.6695399398,
				"element": "O" 
			},
			{
				"x": -0.4053150254,
				"y": 1.8494941734,
				"z": 1.8602498545,
				"element": "O" 
			},
			{
				"x": -0.5856230538,
				"y": -0.0256786537,
				"z": -0.4712576909,
				"element": "C" 
			},
			{
				"x": -1.8523524544,
				"y": 1.1730499579,
				"z": -0.6007537992,
				"element": "Cl" 
			},
			{
				"x": -1.741104859,
				"y": -2.2971162868,
				"z": -2.7872104045,
				"element": "H" 
			},
			{
				"x": -2.797477059,
				"y": -1.3700321145,
				"z": -1.7056186536,
				"element": "H" 
			},
			{
				"x": -1.9096192584,
				"y": -0.5421651779,
				"z": -2.9765794603,
				"element": "H" 
			},
			{
				"x": 0.2763491469,
				"y": -2.9897826529,
				"z": -1.868907716,
				"element": "H" 
			},
			{
				"x": 2.2402243401,
				"y": -2.6765889729,
				"z": -0.3507318974,
				"element": "H" 
			},
			{
				"x": 2.4925522472,
				"y": 1.2292200993,
				"z": 1.3174047966,
				"element": "H" 
			}
		],
		 "valence_orbital": [ 
			{
				"type": "occ",
				"energy": -0.32705,
				"method": "rhf"
			},
			{
				"type": "occ",
				"energy": -0.31106,
				"method": "rhf"
			},
			{
				"type": "occ",
				"energy": -0.27908,
				"method": "rhf"
			},
			{
				"type": "occ",
				"energy": -0.27069,
				"method": "rhf"
			},
			{
				"type": "occ",
				"energy": -0.26017,
				"method": "rhf"
			},
			{
				"type": "unocc",
				"energy": -0.0601,
				"method": "rhf"
			},
			{
				"type": "unocc",
				"energy": -0.02889,
				"method": "rhf"
			},
			{
				"type": "unocc",
				"energy": 0.0175,
				"method": "rhf"
			},
			{
				"type": "unocc",
				"energy": 0.03348,
				"method": "rhf"
			},
			{
				"type": "unocc",
				"energy": 0.0796,
				"method": "rhf"
			}
		],
		"cosmo_sigma_profile": { 
			"-0.025": 0.0,
			"-0.024": 0.0,
			"-0.023": 0.0,
			"-0.022": 0.0,
			"-0.021": 0.0,
			"-0.02": 0.0,
			"-0.019": 0.0,
			"-0.018": 0.0,
			"-0.017": 0.0,
			"-0.016": 0.208522653656,
			"-0.015": 1.08463800537,
			"-0.014": 0.508316761848,
			"-0.013": 1.11054324082,
			"-0.012": 1.01758101565,
			"-0.011": 0.827301019808,
			"-0.01": 0.69698088194,
			"-0.009": 1.30042016668,
			"-0.008": 4.12574520333,
			"-0.007": 7.16653560286,
			"-0.006": 6.41490092079,
			"-0.005": 7.95419156947,
			"-0.004": 11.5241661036,
			"-0.003": 13.9672473445,
			"-0.002": 16.9302307261,
			"-0.001": 22.1574359158,
			"0.0": 21.3661193803,
			"0.001": 15.8645034947,
			"0.002": 14.4364472904,
			"0.003": 9.1991202833,
			"0.004": 6.48326236894,
			"0.005": 2.84490114395,
			"0.006": 2.88114671246,
			"0.007": 2.93556209553,
			"0.008": 3.76496508224,
			"0.009": 3.76092280499,
			"0.01": 5.51892209311,
			"0.011": 5.93524982252,
			"0.012": 3.83218369372,
			"0.013": 0.382651575643,
			"0.014": 0.0,
			"0.015": 0.0,
			"0.016": 0.0,
			"0.017": 0.0,
			"0.018": 0.0,
			"0.019": 0.0,
			"0.02": 0.0,
			"0.021": 0.0,
			"0.022": 0.0,
			"0.023": 0.0,
			"0.024": 0.0,
			"0.025": 0.0
		}
	}
}
