{
	 "smiles": "O=C1NN(C2C=CC3C4CC(C=C4)C23)C(=O)N1C1=CC=CC=C1", 
	 "Tm": 428.15, 
	 "num_atms": 40, 
	 "gaussian": { 
		 "optdone": 1, 
		 "sigma_profile": "yes", 
		 "theory": "DFT", 
		 "functional": "B3LYP", 
		 "basiset": "6-31G**", 
		 "properties": { 
			 "R2extent": 7096.5938, 
			 "electric_dipole_moment_norm": 2.78959667515, 
			 "electric_quadrupole_moment_norm": 12.1376022999, 
			 "total_energy": -1010.8049614, 
			 "HOMO_LUMO_gap": 0.22106, 
			 "cosmo_polarized_energy": -17.18, 
			 "cosmo_cavitation_energy": 40.63, 
			 "cosmo_dispersion_energy": -28.97, 
			 "cosmo_repulsion_energy": 2.17, 
			 "cosmo_total_nonelectrostatic_energy": 13.83, 
			 "SMD_solvation_energy": 6.83 
		},
		"coords": [
			{
				"x": 0.7977764891,
				"y": -1.6694432533,
				"z": -2.8473595138,
				"element": "O" 
			},
			{
				"x": 0.2291297326,
				"y": -1.2125677211,
				"z": -1.8775823807,
				"element": "C" 
			},
			{
				"x": 0.0441057693,
				"y": -1.8732691965,
				"z": -0.6555700486,
				"element": "N" 
			},
			{
				"x": -0.8736832224,
				"y": -1.1168151467,
				"z": 0.1173607378,
				"element": "N" 
			},
			{
				"x": -0.9489635031,
				"y": -1.4446652512,
				"z": 1.5487688491,
				"element": "C" 
			},
			{
				"x": -1.9166000413,
				"y": -0.5860773507,
				"z": 2.3333672766,
				"element": "C" 
			},
			{
				"x": -1.4232877115,
				"y": -0.2478706755,
				"z": 3.5261659406,
				"element": "C" 
			},
			{
				"x": -0.0109307948,
				"y": -0.7178061732,
				"z": 3.7395315333,
				"element": "C" 
			},
			{
				"x": 1.1140888512,
				"y": 0.3819744799,
				"z": 3.915057538,
				"element": "C" 
			},
			{
				"x": 2.3099173852,
				"y": -0.3771210239,
				"z": 3.2881024134,
				"element": "C" 
			},
			{
				"x": 1.6126531194,
				"y": -0.5467915428,
				"z": 1.9106671704,
				"element": "C" 
			},
			{
				"x": 1.1813749484,
				"y": 0.8925788357,
				"z": 1.6649403303,
				"element": "C" 
			},
			{
				"x": 0.889981182,
				"y": 1.4417874137,
				"z": 2.8513080613,
				"element": "C" 
			},
			{
				"x": 0.3760032598,
				"y": -1.3999203727,
				"z": 2.3792523047,
				"element": "C" 
			},
			{
				"x": -1.0565817472,
				"y": 0.1153658483,
				"z": -0.4780440101,
				"element": "C" 
			},
			{
				"x": -1.6836834786,
				"y": 1.0641291968,
				"z": -0.0489015815,
				"element": "O" 
			},
			{
				"x": -0.3720355263,
				"y": 0.0397777492,
				"z": -1.7190815911,
				"element": "N" 
			},
			{
				"x": -0.3509356412,
				"y": 1.0774404921,
				"z": -2.70147713,
				"element": "C" 
			},
			{
				"x": 0.7859747723,
				"y": 1.2448626339,
				"z": -3.5012687311,
				"element": "C" 
			},
			{
				"x": 0.8050965219,
				"y": 2.2526446808,
				"z": -4.4641533535,
				"element": "C" 
			},
			{
				"x": -0.2916035624,
				"y": 3.1004739185,
				"z": -4.6262694905,
				"element": "C" 
			},
			{
				"x": -1.4176535106,
				"y": 2.9294594487,
				"z": -3.8200655483,
				"element": "C" 
			},
			{
				"x": -1.4589122619,
				"y": 1.9178901006,
				"z": -2.8611574777,
				"element": "C" 
			},
			{
				"x": -0.2193626221,
				"y": -2.8496898016,
				"z": -0.7611694414,
				"element": "H" 
			},
			{
				"x": -1.3196427603,
				"y": -2.482059481,
				"z": 1.560332036,
				"element": "H" 
			},
			{
				"x": -2.9035852361,
				"y": -0.3446446119,
				"z": 1.9586037739,
				"element": "H" 
			},
			{
				"x": -1.9729788192,
				"y": 0.3154502508,
				"z": 4.2748695745,
				"element": "H" 
			},
			{
				"x": 0.0530661785,
				"y": -1.4203586543,
				"z": 4.580753601,
				"element": "H" 
			},
			{
				"x": 1.2281590797,
				"y": 0.7383175115,
				"z": 4.9412203649,
				"element": "H" 
			},
			{
				"x": 3.2145646338,
				"y": 0.2338743767,
				"z": 3.2272784622,
				"element": "H" 
			},
			{
				"x": 2.5401398031,
				"y": -1.326841444,
				"z": 3.7856581327,
				"element": "H" 
			},
			{
				"x": 2.1905401591,
				"y": -1.0199767431,
				"z": 1.1155287793,
				"element": "H" 
			},
			{
				"x": 1.0552745748,
				"y": 1.352182967,
				"z": 0.6923669017,
				"element": "H" 
			},
			{
				"x": 0.4605542968,
				"y": 2.4215674108,
				"z": 3.027408881,
				"element": "H" 
			},
			{
				"x": 0.7268192839,
				"y": -2.4235545308,
				"z": 2.5382793791,
				"element": "H" 
			},
			{
				"x": 1.6321515411,
				"y": 0.5802796158,
				"z": -3.3833250731,
				"element": "H" 
			},
			{
				"x": 1.6866412411,
				"y": 2.3745650341,
				"z": -5.0865744103,
				"element": "H" 
			},
			{
				"x": -0.2688326889,
				"y": 3.8871783827,
				"z": -5.3744964722,
				"element": "H" 
			},
			{
				"x": -2.2767421858,
				"y": 3.5835641197,
				"z": -3.9366667705,
				"element": "H" 
			},
			{
				"x": -2.3270975092,
				"y": 1.7923085074,
				"z": -2.2281590175,
				"element": "H" 
			}
		],
		 "valence_orbital": [ 
			{
				"type": "occ",
				"energy": -0.24976,
				"method": "rhf"
			},
			{
				"type": "occ",
				"energy": -0.24566,
				"method": "rhf"
			},
			{
				"type": "occ",
				"energy": -0.23678,
				"method": "rhf"
			},
			{
				"type": "occ",
				"energy": -0.23521,
				"method": "rhf"
			},
			{
				"type": "occ",
				"energy": -0.23164,
				"method": "rhf"
			},
			{
				"type": "unocc",
				"energy": -0.01058,
				"method": "rhf"
			},
			{
				"type": "unocc",
				"energy": -0.0004,
				"method": "rhf"
			},
			{
				"type": "unocc",
				"energy": 0.00722,
				"method": "rhf"
			},
			{
				"type": "unocc",
				"energy": 0.01076,
				"method": "rhf"
			},
			{
				"type": "unocc",
				"energy": 0.0255,
				"method": "rhf"
			}
		],
		"cosmo_sigma_profile": { 
			"-0.025": 0.0,
			"-0.024": 0.0,
			"-0.023": 0.0,
			"-0.022": 0.0,
			"-0.021": 0.0,
			"-0.02": 0.0,
			"-0.019": 0.0,
			"-0.018": 0.0,
			"-0.017": 0.351784329851,
			"-0.016": 1.39399995726,
			"-0.015": 1.64121532419,
			"-0.014": 1.07988249718,
			"-0.013": 0.894857261166,
			"-0.012": 1.0886621165,
			"-0.011": 1.40830557837,
			"-0.01": 1.32739877518,
			"-0.009": 1.30978227505,
			"-0.008": 1.04536645481,
			"-0.007": 2.2562928499,
			"-0.006": 10.9272704513,
			"-0.005": 20.5991890197,
			"-0.004": 27.8208943489,
			"-0.003": 34.1275517722,
			"-0.002": 31.4605730627,
			"-0.001": 30.1527523344,
			"0.0": 24.7806013058,
			"0.001": 23.4094196859,
			"0.002": 16.803211048,
			"0.003": 15.4227037715,
			"0.004": 17.366071335,
			"0.005": 16.2059523019,
			"0.006": 4.61966410259,
			"0.007": 5.56188221691,
			"0.008": 3.10899968156,
			"0.009": 3.83370408151,
			"0.01": 3.9512227513,
			"0.011": 5.06349657269,
			"0.012": 9.2609105967,
			"0.013": 3.39809812771,
			"0.014": 0.344075594824,
			"0.015": 0.026158313479,
			"0.016": 0.0,
			"0.017": 0.0,
			"0.018": 0.0,
			"0.019": 0.0,
			"0.02": 0.0,
			"0.021": 0.0,
			"0.022": 0.0,
			"0.023": 0.0,
			"0.024": 0.0,
			"0.025": 0.0
		}
	}
}
