{
	 "smiles": "CC1=C(C=CC(=C1)[N+]([O-])=O)C#N", 
	 "Tm": 373.15, 
	 "num_atms": 18, 
	 "gaussian": { 
		 "optdone": 1, 
		 "sigma_profile": "yes", 
		 "theory": "DFT", 
		 "functional": "B3LYP", 
		 "basiset": "6-31G**", 
		 "properties": { 
			 "R2extent": 2771.8849, 
			 "electric_dipole_moment_norm": 0.799250179856, 
			 "electric_quadrupole_moment_norm": 23.0784776261, 
			 "total_energy": -568.305822507, 
			 "HOMO_LUMO_gap": 0.175, 
			 "cosmo_polarized_energy": -11.28, 
			 "cosmo_cavitation_energy": 24.29, 
			 "cosmo_dispersion_energy": -17.08, 
			 "cosmo_repulsion_energy": 1.35, 
			 "cosmo_total_nonelectrostatic_energy": 8.56, 
			 "SMD_solvation_energy": 7.8 
		},
		"coords": [
			{
				"x": -1.1173369156,
				"y": 0.4290968784,
				"z": -1.4839842492,
				"element": "C" 
			},
			{
				"x": -0.6380643464,
				"y": 0.0090081222,
				"z": -0.1183394448,
				"element": "C" 
			},
			{
				"x": 0.5821805146,
				"y": -0.6892022289,
				"z": 0.0472081817,
				"element": "C" 
			},
			{
				"x": 1.0334286545,
				"y": -1.0831031691,
				"z": 1.3185024536,
				"element": "C" 
			},
			{
				"x": 0.2812266977,
				"y": -0.7909016623,
				"z": 2.4495078066,
				"element": "C" 
			},
			{
				"x": -0.9173739323,
				"y": -0.1040808744,
				"z": 2.2783522209,
				"element": "C" 
			},
			{
				"x": -1.3818186536,
				"y": 0.2948208432,
				"z": 1.027617265,
				"element": "C" 
			},
			{
				"x": -1.7292812653,
				"y": 0.2147141096,
				"z": 3.469209926,
				"element": "N" 
			},
			{
				"x": -2.7837803827,
				"y": 0.8214695782,
				"z": 3.2921823592,
				"element": "O" 
			},
			{
				"x": -1.2978433153,
				"y": -0.1476542557,
				"z": 4.5618124812,
				"element": "O" 
			},
			{
				"x": 1.3797419551,
				"y": -1.0043366019,
				"z": -1.1028599708,
				"element": "C" 
			},
			{
				"x": 2.0212855551,
				"y": -1.2567950212,
				"z": -2.0397681919,
				"element": "N" 
			},
			{
				"x": -1.2451917293,
				"y": -0.4374765862,
				"z": -2.141440884,
				"element": "H" 
			},
			{
				"x": -0.3929979625,
				"y": 1.0912050019,
				"z": -1.9702811306,
				"element": "H" 
			},
			{
				"x": -2.0723988718,
				"y": 0.9541799745,
				"z": -1.4184153025,
				"element": "H" 
			},
			{
				"x": 1.9732412016,
				"y": -1.6166415649,
				"z": 1.4083268229,
				"element": "H" 
			},
			{
				"x": 0.6004678071,
				"y": -1.0800268445,
				"z": 3.4423891254,
				"element": "H" 
			},
			{
				"x": -2.3232850108,
				"y": 0.8265243013,
				"z": 0.9626805313,
				"element": "H" 
			}
		],
		 "valence_orbital": [ 
			{
				"type": "occ",
				"energy": -0.32444,
				"method": "rhf"
			},
			{
				"type": "occ",
				"energy": -0.32159,
				"method": "rhf"
			},
			{
				"type": "occ",
				"energy": -0.30593,
				"method": "rhf"
			},
			{
				"type": "occ",
				"energy": -0.29569,
				"method": "rhf"
			},
			{
				"type": "occ",
				"energy": -0.28768,
				"method": "rhf"
			},
			{
				"type": "unocc",
				"energy": -0.11268,
				"method": "rhf"
			},
			{
				"type": "unocc",
				"energy": -0.04537,
				"method": "rhf"
			},
			{
				"type": "unocc",
				"energy": -0.04286,
				"method": "rhf"
			},
			{
				"type": "unocc",
				"energy": 0.01723,
				"method": "rhf"
			},
			{
				"type": "unocc",
				"energy": 0.06516,
				"method": "rhf"
			}
		],
		"cosmo_sigma_profile": { 
			"-0.025": 0.0,
			"-0.024": 0.0,
			"-0.023": 0.0,
			"-0.022": 0.0,
			"-0.021": 0.0,
			"-0.02": 0.0,
			"-0.019": 0.0,
			"-0.018": 0.0,
			"-0.017": 0.0,
			"-0.016": 0.0,
			"-0.015": 0.0,
			"-0.014": 0.0,
			"-0.013": 0.0,
			"-0.012": 0.0,
			"-0.011": 0.0,
			"-0.01": 0.073941913879,
			"-0.009": 2.56794504192,
			"-0.008": 6.23987083746,
			"-0.007": 8.20497330562,
			"-0.006": 10.1431395789,
			"-0.005": 12.9626460557,
			"-0.004": 13.1983708278,
			"-0.003": 17.4075993331,
			"-0.002": 24.0242154575,
			"-0.001": 21.9546814132,
			"0.0": 11.5672656455,
			"0.001": 5.08408415069,
			"0.002": 4.4183659694,
			"0.003": 3.97493639268,
			"0.004": 4.48352240131,
			"0.005": 5.7672558361,
			"0.006": 7.4069152248,
			"0.007": 12.2846004561,
			"0.008": 8.68964396842,
			"0.009": 6.56699902242,
			"0.01": 4.1213166073,
			"0.011": 2.35144323778,
			"0.012": 2.11648395757,
			"0.013": 0.357596982818,
			"0.014": 0.0,
			"0.015": 0.0,
			"0.016": 0.0,
			"0.017": 0.0,
			"0.018": 0.0,
			"0.019": 0.0,
			"0.02": 0.0,
			"0.021": 0.0,
			"0.022": 0.0,
			"0.023": 0.0,
			"0.024": 0.0,
			"0.025": 0.0
		}
	}
}
