{
	 "smiles": "OC1=C(Br)C(Br)=C(Br)C(Br)=C1Br", 
	 "Tm": 501.15, 
	 "num_atms": 13, 
	 "gaussian": { 
		 "optdone": 1, 
		 "sigma_profile": "yes", 
		 "theory": "DFT", 
		 "functional": "B3LYP", 
		 "basiset": "6-31G**", 
		 "properties": { 
			 "R2extent": 9103.9028, 
			 "electric_dipole_moment_norm": 1.73633171082, 
			 "electric_quadrupole_moment_norm": 6.03483326033, 
			 "total_energy": -13161.4530504, 
			 "HOMO_LUMO_gap": 0.1709, 
			 "cosmo_polarized_energy": -6.11, 
			 "cosmo_cavitation_energy": 28.24, 
			 "cosmo_dispersion_energy": -23.13, 
			 "cosmo_repulsion_energy": 1.81, 
			 "cosmo_total_nonelectrostatic_energy": 6.91, 
			 "SMD_solvation_energy": 0.23 
		},
		"coords": [
			{
				"x": -1.3551009729,
				"y": 1.3981534346,
				"z": -0.6097026451,
				"element": "O" 
			},
			{
				"x": -0.1518469106,
				"y": 0.8286753353,
				"z": -0.4197068793,
				"element": "C" 
			},
			{
				"x": 0.1476307912,
				"y": 0.3136889631,
				"z": 0.8527589454,
				"element": "C" 
			},
			{
				"x": -1.1855879933,
				"y": 0.4742241311,
				"z": 2.1862659891,
				"element": "Br" 
			},
			{
				"x": 1.3871401002,
				"y": -0.2882148026,
				"z": 1.0985229544,
				"element": "C" 
			},
			{
				"x": 1.7623726134,
				"y": -0.972800774,
				"z": 2.8227796007,
				"element": "Br" 
			},
			{
				"x": 2.3469021795,
				"y": -0.3840518304,
				"z": 0.0733006546,
				"element": "C" 
			},
			{
				"x": 4.0254332768,
				"y": -1.1993719757,
				"z": 0.4052566345,
				"element": "Br" 
			},
			{
				"x": 2.0539337135,
				"y": 0.1285561764,
				"z": -1.2002927119,
				"element": "C" 
			},
			{
				"x": 3.3183838799,
				"y": 0.0187357927,
				"z": -2.6048260868,
				"element": "Br" 
			},
			{
				"x": 0.8121540872,
				"y": 0.7280928253,
				"z": -1.434966719,
				"element": "C" 
			},
			{
				"x": 0.3372769623,
				"y": 1.4481094665,
				"z": -3.1357696449,
				"element": "Br" 
			},
			{
				"x": -1.413391727,
				"y": 1.7036032575,
				"z": -1.5311200919,
				"element": "H" 
			}
		],
		 "valence_orbital": [ 
			{
				"type": "occ",
				"energy": -0.29757,
				"method": "rhf"
			},
			{
				"type": "occ",
				"energy": -0.29332,
				"method": "rhf"
			},
			{
				"type": "occ",
				"energy": -0.26755,
				"method": "rhf"
			},
			{
				"type": "occ",
				"energy": -0.25521,
				"method": "rhf"
			},
			{
				"type": "occ",
				"energy": -0.24351,
				"method": "rhf"
			},
			{
				"type": "unocc",
				"energy": -0.07261,
				"method": "rhf"
			},
			{
				"type": "unocc",
				"energy": -0.05265,
				"method": "rhf"
			},
			{
				"type": "unocc",
				"energy": -0.03669,
				"method": "rhf"
			},
			{
				"type": "unocc",
				"energy": -0.01993,
				"method": "rhf"
			},
			{
				"type": "unocc",
				"energy": -0.00076,
				"method": "rhf"
			}
		],
		"cosmo_sigma_profile": { 
			"-0.025": 0.0,
			"-0.024": 0.0,
			"-0.023": 0.0,
			"-0.022": 0.0,
			"-0.021": 0.0,
			"-0.02": 0.0,
			"-0.019": 0.0,
			"-0.018": 0.0,
			"-0.017": 0.0,
			"-0.016": 0.177773131547,
			"-0.015": 0.604339115189,
			"-0.014": 0.417728146313,
			"-0.013": 1.02674557961,
			"-0.012": 1.03121998856,
			"-0.011": 0.369821439242,
			"-0.01": 1.08691893459,
			"-0.009": 1.14815725876,
			"-0.008": 1.19125568634,
			"-0.007": 2.73128639827,
			"-0.006": 7.51894330749,
			"-0.005": 8.69948901386,
			"-0.004": 9.33565703009,
			"-0.003": 13.7612879075,
			"-0.002": 25.6307567919,
			"-0.001": 29.7062234632,
			"0.0": 18.8442978342,
			"0.001": 22.3079952253,
			"0.002": 28.3092961451,
			"0.003": 39.3512866412,
			"0.004": 19.8303334564,
			"0.005": 2.12552964105,
			"0.006": 2.21058002773,
			"0.007": 1.97737292664,
			"0.008": 1.87193826086,
			"0.009": 1.96873660899,
			"0.01": 0.129006953055,
			"0.011": 0.0,
			"0.012": 0.0,
			"0.013": 0.0,
			"0.014": 0.0,
			"0.015": 0.0,
			"0.016": 0.0,
			"0.017": 0.0,
			"0.018": 0.0,
			"0.019": 0.0,
			"0.02": 0.0,
			"0.021": 0.0,
			"0.022": 0.0,
			"0.023": 0.0,
			"0.024": 0.0,
			"0.025": 0.0
		}
	}
}
