{
	 "smiles": "CC(C)NCC(O)COC1=C2OC(=CC2=CC=C1)C(C)=O", 
	 "Tm": 388.15, 
	 "num_atms": 42, 
	 "gaussian": { 
		 "optdone": 1, 
		 "sigma_profile": "yes", 
		 "theory": "DFT", 
		 "functional": "B3LYP", 
		 "basiset": "6-31G**", 
		 "properties": { 
			 "R2extent": 9340.007, 
			 "electric_dipole_moment_norm": 3.08218801665, 
			 "electric_quadrupole_moment_norm": 22.6207117189, 
			 "total_energy": -977.982231943, 
			 "HOMO_LUMO_gap": 0.1505, 
			 "cosmo_polarized_energy": -16.83, 
			 "cosmo_cavitation_energy": 45.39, 
			 "cosmo_dispersion_energy": -30.52, 
			 "cosmo_repulsion_energy": 2.37, 
			 "cosmo_total_nonelectrostatic_energy": 17.24, 
			 "SMD_solvation_energy": 7.99 
		},
		"coords": [
			{
				"x": -3.451090328,
				"y": 0.9448187361,
				"z": 3.9682384055,
				"element": "C" 
			},
			{
				"x": -2.6980999051,
				"y": -0.1022959382,
				"z": 3.1402734785,
				"element": "C" 
			},
			{
				"x": -1.7300121698,
				"y": -0.8991726255,
				"z": 4.0186796542,
				"element": "C" 
			},
			{
				"x": -1.9292248323,
				"y": 0.5467727872,
				"z": 2.0593415971,
				"element": "N" 
			},
			{
				"x": -2.7045560051,
				"y": 0.9800495453,
				"z": 0.8907751392,
				"element": "C" 
			},
			{
				"x": -1.9251546986,
				"y": 2.0709543231,
				"z": 0.1306210459,
				"element": "C" 
			},
			{
				"x": -1.5128700287,
				"y": 3.0739259012,
				"z": 1.0360792988,
				"element": "O" 
			},
			{
				"x": -0.7411569115,
				"y": 1.4909988446,
				"z": -0.6479057731,
				"element": "C" 
			},
			{
				"x": -0.230163775,
				"y": 2.5367763933,
				"z": -1.4808644451,
				"element": "O" 
			},
			{
				"x": 1.0301467176,
				"y": 2.4382736878,
				"z": -1.9814272623,
				"element": "C" 
			},
			{
				"x": 1.6955129676,
				"y": 1.2523237899,
				"z": -2.3288715833,
				"element": "C" 
			},
			{
				"x": 1.214774792,
				"y": -0.0258025766,
				"z": -2.2099755995,
				"element": "O" 
			},
			{
				"x": 2.2125466495,
				"y": -0.8593232658,
				"z": -2.6832044698,
				"element": "C" 
			},
			{
				"x": 3.2994957662,
				"y": -0.1454202326,
				"z": -3.0965079391,
				"element": "C" 
			},
			{
				"x": 2.9945858117,
				"y": 1.2398379873,
				"z": -2.8823031133,
				"element": "C" 
			},
			{
				"x": 3.671880171,
				"y": 2.4486121656,
				"z": -3.1187696406,
				"element": "C" 
			},
			{
				"x": 3.0167953106,
				"y": 3.6275951318,
				"z": -2.7891548571,
				"element": "C" 
			},
			{
				"x": 1.7275537659,
				"y": 3.6233630605,
				"z": -2.2277826751,
				"element": "C" 
			},
			{
				"x": 1.9728344743,
				"y": -2.312233535,
				"z": -2.6811945233,
				"element": "C" 
			},
			{
				"x": 0.6332118582,
				"y": -2.803821245,
				"z": -2.1695919836,
				"element": "C" 
			},
			{
				"x": 2.8416922359,
				"y": -3.0715243298,
				"z": -3.0863153679,
				"element": "O" 
			},
			{
				"x": -4.1350153757,
				"y": 1.5407189384,
				"z": 3.3567843005,
				"element": "H" 
			},
			{
				"x": -4.0462075736,
				"y": 0.4582902132,
				"z": 4.7478403724,
				"element": "H" 
			},
			{
				"x": -2.7432447982,
				"y": 1.6298763048,
				"z": 4.4463715807,
				"element": "H" 
			},
			{
				"x": -3.4373748735,
				"y": -0.8075759635,
				"z": 2.7182086935,
				"element": "H" 
			},
			{
				"x": -0.9630038644,
				"y": -0.2386610118,
				"z": 4.4373698097,
				"element": "H" 
			},
			{
				"x": -2.2604854372,
				"y": -1.3774841035,
				"z": 4.8469613325,
				"element": "H" 
			},
			{
				"x": -1.2268763168,
				"y": -1.6876474736,
				"z": 3.4464180984,
				"element": "H" 
			},
			{
				"x": -1.199951455,
				"y": -0.0939560076,
				"z": 1.7562713446,
				"element": "H" 
			},
			{
				"x": -2.9858971724,
				"y": 0.1510054068,
				"z": 0.2196380479,
				"element": "H" 
			},
			{
				"x": -3.6330268148,
				"y": 1.4322678391,
				"z": 1.2490197708,
				"element": "H" 
			},
			{
				"x": -2.5931751241,
				"y": 2.5428639038,
				"z": -0.6011484512,
				"element": "H" 
			},
			{
				"x": -1.306700687,
				"y": 2.5821596068,
				"z": 1.8518198024,
				"element": "H" 
			},
			{
				"x": 0.0403347622,
				"y": 1.1503750789,
				"z": 0.0436957961,
				"element": "H" 
			},
			{
				"x": -1.060090405,
				"y": 0.6405649601,
				"z": -1.2638893458,
				"element": "H" 
			},
			{
				"x": 4.2010214035,
				"y": -0.5754096752,
				"z": -3.5074962237,
				"element": "H" 
			},
			{
				"x": 4.6681573051,
				"y": 2.4555999589,
				"z": -3.5479768425,
				"element": "H" 
			},
			{
				"x": 3.5071699771,
				"y": 4.5817628362,
				"z": -2.9567699985,
				"element": "H" 
			},
			{
				"x": 1.2342427447,
				"y": 4.5529676584,
				"z": -1.9644276285,
				"element": "H" 
			},
			{
				"x": -0.1838570611,
				"y": -2.3821437767,
				"z": -2.765034006,
				"element": "H" 
			},
			{
				"x": 0.6106615721,
				"y": -3.8924899062,
				"z": -2.2260490542,
				"element": "H" 
			},
			{
				"x": 0.4734173275,
				"y": -2.4800933924,
				"z": -1.1354467853,
				"element": "H" 
			}
		],
		 "valence_orbital": [ 
			{
				"type": "occ",
				"energy": -0.26209,
				"method": "rhf"
			},
			{
				"type": "occ",
				"energy": -0.25551,
				"method": "rhf"
			},
			{
				"type": "occ",
				"energy": -0.24466,
				"method": "rhf"
			},
			{
				"type": "occ",
				"energy": -0.23986,
				"method": "rhf"
			},
			{
				"type": "occ",
				"energy": -0.21475,
				"method": "rhf"
			},
			{
				"type": "unocc",
				"energy": -0.06425,
				"method": "rhf"
			},
			{
				"type": "unocc",
				"energy": 0.0078,
				"method": "rhf"
			},
			{
				"type": "unocc",
				"energy": 0.01652,
				"method": "rhf"
			},
			{
				"type": "unocc",
				"energy": 0.05777,
				"method": "rhf"
			},
			{
				"type": "unocc",
				"energy": 0.08049,
				"method": "rhf"
			}
		],
		"cosmo_sigma_profile": { 
			"-0.025": 0.0,
			"-0.024": 0.0,
			"-0.023": 0.0,
			"-0.022": 0.0,
			"-0.021": 0.0,
			"-0.02": 0.0,
			"-0.019": 0.0,
			"-0.018": 0.0,
			"-0.017": 0.0,
			"-0.016": 0.0,
			"-0.015": 0.0,
			"-0.014": 0.0,
			"-0.013": 0.0,
			"-0.012": 0.0,
			"-0.011": 0.0,
			"-0.01": 0.835828680683,
			"-0.009": 2.33208169758,
			"-0.008": 3.16339117343,
			"-0.007": 5.23322246151,
			"-0.006": 14.9612842622,
			"-0.005": 23.6261603915,
			"-0.004": 28.66195556,
			"-0.003": 33.4089869058,
			"-0.002": 37.3738393647,
			"-0.001": 40.2611403896,
			"0.0": 31.6722278293,
			"0.001": 32.7421120574,
			"0.002": 24.8896011003,
			"0.003": 15.9491465197,
			"0.004": 13.2899937488,
			"0.005": 9.03065517633,
			"0.006": 4.55830979535,
			"0.007": 3.51074851848,
			"0.008": 3.21785079024,
			"0.009": 4.1286282906,
			"0.01": 4.91477270823,
			"0.011": 5.33208598865,
			"0.012": 5.41927589153,
			"0.013": 3.00399260964,
			"0.014": 2.19194177471,
			"0.015": 2.60059069904,
			"0.016": 0.334701115626,
			"0.017": 0.0,
			"0.018": 0.0,
			"0.019": 0.0,
			"0.02": 0.0,
			"0.021": 0.0,
			"0.022": 0.0,
			"0.023": 0.0,
			"0.024": 0.0,
			"0.025": 0.0
		}
	}
}
