{
	 "smiles": "O=C1CC2=CC3=C(CC3=O)C=C12", 
	 "Tm": 510.15, 
	 "num_atms": 18, 
	 "gaussian": { 
		 "optdone": 1, 
		 "sigma_profile": "yes", 
		 "theory": "DFT", 
		 "functional": "B3LYP", 
		 "basiset": "6-31G**", 
		 "properties": { 
			 "R2extent": 2501.849, 
			 "electric_dipole_moment_norm": 0.0, 
			 "electric_quadrupole_moment_norm": 21.9514137365, 
			 "total_energy": -535.044274462, 
			 "HOMO_LUMO_gap": 0.16135, 
			 "cosmo_polarized_energy": -10.63, 
			 "cosmo_cavitation_energy": 23.37, 
			 "cosmo_dispersion_energy": -17.19, 
			 "cosmo_repulsion_energy": 1.4, 
			 "cosmo_total_nonelectrostatic_energy": 7.58, 
			 "SMD_solvation_energy": 4.83 
		},
		"coords": [
			{
				"x": 0.5340965375,
				"y": 3.4150025543,
				"z": -2.6692901998,
				"element": "O" 
			},
			{
				"x": -0.2031581264,
				"y": 2.5245011287,
				"z": -2.3344192774,
				"element": "C" 
			},
			{
				"x": -1.6204357039,
				"y": 2.0393590487,
				"z": -2.8116987209,
				"element": "C" 
			},
			{
				"x": -1.4523788848,
				"y": 0.9748289243,
				"z": -1.7293030297,
				"element": "C" 
			},
			{
				"x": -2.0937696209,
				"y": -0.1150824215,
				"z": -1.1495460418,
				"element": "C" 
			},
			{
				"x": -1.3333043969,
				"y": -0.6927785352,
				"z": -0.1271128682,
				"element": "C" 
			},
			{
				"x": -0.0604834729,
				"y": -0.244468706,
				"z": 0.2901296589,
				"element": "C" 
			},
			{
				"x": 0.1075546092,
				"y": -1.3089704644,
				"z": 1.3725554555,
				"element": "C" 
			},
			{
				"x": -1.3096702235,
				"y": -1.7941894216,
				"z": 0.8951924543,
				"element": "C" 
			},
			{
				"x": -2.0469440291,
				"y": -2.6846641702,
				"z": 1.2300918268,
				"element": "O" 
			},
			{
				"x": 0.5809070263,
				"y": 0.8454420449,
				"z": -0.2896269339,
				"element": "C" 
			},
			{
				"x": -0.1795506416,
				"y": 1.4231276209,
				"z": -1.3120725469,
				"element": "C" 
			},
			{
				"x": -2.4232320071,
				"y": 2.7691117605,
				"z": -2.6606117918,
				"element": "H" 
			},
			{
				"x": -1.6521673407,
				"y": 1.6841481943,
				"z": -3.8473934953,
				"element": "H" 
			},
			{
				"x": -3.0701265911,
				"y": -0.4836913793,
				"z": -1.4469585461,
				"element": "H" 
			},
			{
				"x": 0.1392149396,
				"y": -0.953738752,
				"z": 2.4082457564,
				"element": "H" 
			},
			{
				"x": 0.9103876415,
				"y": -2.0386942275,
				"z": 1.2215278263,
				"element": "H" 
			},
			{
				"x": 1.5572602847,
				"y": 1.2140568012,
				"z": 0.0077904735,
				"element": "H" 
			}
		],
		 "valence_orbital": [ 
			{
				"type": "occ",
				"energy": -0.34823,
				"method": "rhf"
			},
			{
				"type": "occ",
				"energy": -0.2854,
				"method": "rhf"
			},
			{
				"type": "occ",
				"energy": -0.26804,
				"method": "rhf"
			},
			{
				"type": "occ",
				"energy": -0.26609,
				"method": "rhf"
			},
			{
				"type": "occ",
				"energy": -0.2557,
				"method": "rhf"
			},
			{
				"type": "unocc",
				"energy": -0.09435,
				"method": "rhf"
			},
			{
				"type": "unocc",
				"energy": -0.03111,
				"method": "rhf"
			},
			{
				"type": "unocc",
				"energy": -0.01042,
				"method": "rhf"
			},
			{
				"type": "unocc",
				"energy": 0.05681,
				"method": "rhf"
			},
			{
				"type": "unocc",
				"energy": 0.09637,
				"method": "rhf"
			}
		],
		"cosmo_sigma_profile": { 
			"-0.025": 0.0,
			"-0.024": 0.0,
			"-0.023": 0.0,
			"-0.022": 0.0,
			"-0.021": 0.0,
			"-0.02": 0.0,
			"-0.019": 0.0,
			"-0.018": 0.0,
			"-0.017": 0.0,
			"-0.016": 0.0,
			"-0.015": 0.0,
			"-0.014": 0.0,
			"-0.013": 0.0,
			"-0.012": 0.0,
			"-0.011": 0.0,
			"-0.01": 0.0,
			"-0.009": 0.283161472859,
			"-0.008": 3.60323396158,
			"-0.007": 6.92406412652,
			"-0.006": 15.2913432882,
			"-0.005": 14.9980266953,
			"-0.004": 15.0404354161,
			"-0.003": 17.9015020279,
			"-0.002": 18.8701311047,
			"-0.001": 15.072889938,
			"0.0": 13.3025444585,
			"0.001": 15.4589551185,
			"0.002": 6.61626098372,
			"0.003": 3.15240943286,
			"0.004": 2.43574535787,
			"0.005": 3.42426646275,
			"0.006": 2.17462843235,
			"0.007": 3.74565701992,
			"0.008": 3.44669648845,
			"0.009": 6.44593448391,
			"0.01": 7.37391603104,
			"0.011": 9.74495518964,
			"0.012": 3.48648975503,
			"0.013": 0.0140431313605,
			"0.014": 0.0,
			"0.015": 0.0,
			"0.016": 0.0,
			"0.017": 0.0,
			"0.018": 0.0,
			"0.019": 0.0,
			"0.02": 0.0,
			"0.021": 0.0,
			"0.022": 0.0,
			"0.023": 0.0,
			"0.024": 0.0,
			"0.025": 0.0
		}
	}
}
