{
	 "smiles": "OC(=O)C1=CC(Br)=C(Br)O1", 
	 "Tm": 444.15, 
	 "num_atms": 12, 
	 "gaussian": { 
		 "optdone": 1, 
		 "sigma_profile": "yes", 
		 "theory": "DFT", 
		 "functional": "B3LYP", 
		 "basiset": "6-31G**", 
		 "properties": { 
			 "R2extent": 8044.8337, 
			 "electric_dipole_moment_norm": 3.48947729323, 
			 "electric_quadrupole_moment_norm": 4.8412810092, 
			 "total_energy": -5560.18265691, 
			 "HOMO_LUMO_gap": 0.18554, 
			 "cosmo_polarized_energy": -10.68, 
			 "cosmo_cavitation_energy": 22.65, 
			 "cosmo_dispersion_energy": -17.54, 
			 "cosmo_repulsion_energy": 1.45, 
			 "cosmo_total_nonelectrostatic_energy": 6.56, 
			 "SMD_solvation_energy": 3.61 
		},
		"coords": [
			{
				"x": 0.3317146061,
				"y": -0.6946458409,
				"z": 0.3593272716,
				"element": "O" 
			},
			{
				"x": 0.1226966959,
				"y": -0.7638176996,
				"z": -0.9752260391,
				"element": "C" 
			},
			{
				"x": 0.7253294451,
				"y": -1.5373708379,
				"z": -1.6810902703,
				"element": "O" 
			},
			{
				"x": -0.8841081709,
				"y": 0.166759437,
				"z": -1.5160443623,
				"element": "C" 
			},
			{
				"x": -1.3399340514,
				"y": 0.3711795949,
				"z": -2.7856225594,
				"element": "C" 
			},
			{
				"x": -2.3171660398,
				"y": 1.404946171,
				"z": -2.6952571812,
				"element": "C" 
			},
			{
				"x": -3.3101663524,
				"y": 2.1384893038,
				"z": -4.1031985667,
				"element": "Br" 
			},
			{
				"x": -2.3896885388,
				"y": 1.7601744374,
				"z": -1.3741486729,
				"element": "C" 
			},
			{
				"x": -3.4188774395,
				"y": 3.0184003468,
				"z": -0.4777686076,
				"element": "Br" 
			},
			{
				"x": -1.5251001573,
				"y": 1.0183385793,
				"z": -0.6387445126,
				"element": "O" 
			},
			{
				"x": -0.2384811124,
				"y": -0.0180783679,
				"z": 0.7571108495,
				"element": "H" 
			},
			{
				"x": -1.0165188846,
				"y": -0.1523751238,
				"z": -3.6721373488,
				"element": "H" 
			}
		],
		 "valence_orbital": [ 
			{
				"type": "occ",
				"energy": -0.32862,
				"method": "rhf"
			},
			{
				"type": "occ",
				"energy": -0.3122,
				"method": "rhf"
			},
			{
				"type": "occ",
				"energy": -0.29636,
				"method": "rhf"
			},
			{
				"type": "occ",
				"energy": -0.29071,
				"method": "rhf"
			},
			{
				"type": "occ",
				"energy": -0.25355,
				"method": "rhf"
			},
			{
				"type": "unocc",
				"energy": -0.06801,
				"method": "rhf"
			},
			{
				"type": "unocc",
				"energy": -0.02503,
				"method": "rhf"
			},
			{
				"type": "unocc",
				"energy": -0.00293,
				"method": "rhf"
			},
			{
				"type": "unocc",
				"energy": 0.00513,
				"method": "rhf"
			},
			{
				"type": "unocc",
				"energy": 0.07223,
				"method": "rhf"
			}
		],
		"cosmo_sigma_profile": { 
			"-0.025": 0.0,
			"-0.024": 0.0,
			"-0.023": 0.0,
			"-0.022": 0.0,
			"-0.021": 0.0,
			"-0.02": 0.0,
			"-0.019": 0.0,
			"-0.018": 0.114371775721,
			"-0.017": 0.576423928079,
			"-0.016": 0.990641454302,
			"-0.015": 0.686036547211,
			"-0.014": 0.735423131392,
			"-0.013": 0.773097417435,
			"-0.012": 0.926840461757,
			"-0.011": 1.52555867029,
			"-0.01": 2.16180139196,
			"-0.009": 2.51612422382,
			"-0.008": 3.2093427682,
			"-0.007": 3.7074513894,
			"-0.006": 5.66290938792,
			"-0.005": 7.10658513278,
			"-0.004": 8.14546299948,
			"-0.003": 11.7330863792,
			"-0.002": 17.1205710662,
			"-0.001": 19.1911614766,
			"0.0": 19.3031889506,
			"0.001": 17.3969980382,
			"0.002": 20.3064014269,
			"0.003": 14.7302967949,
			"0.004": 3.12875351151,
			"0.005": 1.84764425774,
			"0.006": 2.21628866844,
			"0.007": 3.31345995951,
			"0.008": 2.56742704226,
			"0.009": 4.35571007796,
			"0.01": 4.81711403077,
			"0.011": 5.57198602149,
			"0.012": 3.06682886567,
			"0.013": 0.349651196362,
			"0.014": 0.0,
			"0.015": 0.0,
			"0.016": 0.0,
			"0.017": 0.0,
			"0.018": 0.0,
			"0.019": 0.0,
			"0.02": 0.0,
			"0.021": 0.0,
			"0.022": 0.0,
			"0.023": 0.0,
			"0.024": 0.0,
			"0.025": 0.0
		}
	}
}
