{
	 "smiles": "CC(Cl)C(=O)NC1=CC=C(Cl)C=C1", 
	 "Tm": 374.15, 
	 "num_atms": 22, 
	 "gaussian": { 
		 "optdone": 1, 
		 "sigma_profile": "yes", 
		 "theory": "DFT", 
		 "functional": "B3LYP", 
		 "basiset": "6-31G**", 
		 "properties": { 
			 "R2extent": 4079.6086, 
			 "electric_dipole_moment_norm": 2.46132912265, 
			 "electric_quadrupole_moment_norm": 13.6784440658, 
			 "total_energy": -1398.75375118, 
			 "HOMO_LUMO_gap": 0.20444, 
			 "cosmo_polarized_energy": -11.4, 
			 "cosmo_cavitation_energy": 29.28, 
			 "cosmo_dispersion_energy": -21.0, 
			 "cosmo_repulsion_energy": 1.69, 
			 "cosmo_total_nonelectrostatic_energy": 9.96, 
			 "SMD_solvation_energy": 5.15 
		},
		"coords": [
			{
				"x": 1.6848525835,
				"y": -1.601365455,
				"z": -0.052347828,
				"element": "C" 
			},
			{
				"x": 2.394952727,
				"y": -0.3562835749,
				"z": -0.5682052375,
				"element": "C" 
			},
			{
				"x": 3.2274600006,
				"y": 0.5415865089,
				"z": 0.800724148,
				"element": "Cl" 
			},
			{
				"x": 1.572644274,
				"y": 0.6173482571,
				"z": -1.4295644668,
				"element": "C" 
			},
			{
				"x": 2.0320279607,
				"y": 0.9760451843,
				"z": -2.5043470638,
				"element": "O" 
			},
			{
				"x": 0.3157929237,
				"y": 1.0425234848,
				"z": -1.0524831734,
				"element": "N" 
			},
			{
				"x": -0.5151402672,
				"y": 0.7900571442,
				"z": 0.0766429239,
				"element": "C" 
			},
			{
				"x": -1.7967610979,
				"y": 0.2658623408,
				"z": -0.1423561623,
				"element": "C" 
			},
			{
				"x": -2.6740909418,
				"y": 0.0632164769,
				"z": 0.9204662017,
				"element": "C" 
			},
			{
				"x": -2.2577654507,
				"y": 0.3748050192,
				"z": 2.2148655433,
				"element": "C" 
			},
			{
				"x": -3.3506343357,
				"y": 0.1073933463,
				"z": 3.5627679656,
				"element": "Cl" 
			},
			{
				"x": -0.9885719713,
				"y": 0.9015401189,
				"z": 2.4509428122,
				"element": "C" 
			},
			{
				"x": -0.1254950591,
				"y": 1.1256169026,
				"z": 1.3786125633,
				"element": "C" 
			},
			{
				"x": 1.2149075185,
				"y": -2.1201843138,
				"z": -0.8956889677,
				"element": "H" 
			},
			{
				"x": 2.4127856216,
				"y": -2.2779676063,
				"z": 0.4017177426,
				"element": "H" 
			},
			{
				"x": 0.9172220726,
				"y": -1.3708330032,
				"z": 0.6860122481,
				"element": "H" 
			},
			{
				"x": 3.2173075587,
				"y": -0.6329082419,
				"z": -1.2260073464,
				"element": "H" 
			},
			{
				"x": -0.1063431362,
				"y": 1.578336989,
				"z": -1.8024904779,
				"element": "H" 
			},
			{
				"x": -2.1037316058,
				"y": 0.0101250809,
				"z": -1.152304028,
				"element": "H" 
			},
			{
				"x": -3.66511887,
				"y": -0.3417141081,
				"z": 0.7488629401,
				"element": "H" 
			},
			{
				"x": -0.6837195664,
				"y": 1.1538965044,
				"z": 3.4604048187,
				"element": "H" 
			},
			{
				"x": 0.8511190611,
				"y": 1.5598029449,
				"z": 1.5518748442,
				"element": "H" 
			}
		],
		 "valence_orbital": [ 
			{
				"type": "occ",
				"energy": -0.30586,
				"method": "rhf"
			},
			{
				"type": "occ",
				"energy": -0.29116,
				"method": "rhf"
			},
			{
				"type": "occ",
				"energy": -0.27843,
				"method": "rhf"
			},
			{
				"type": "occ",
				"energy": -0.26633,
				"method": "rhf"
			},
			{
				"type": "occ",
				"energy": -0.24337,
				"method": "rhf"
			},
			{
				"type": "unocc",
				"energy": -0.03893,
				"method": "rhf"
			},
			{
				"type": "unocc",
				"energy": -0.02958,
				"method": "rhf"
			},
			{
				"type": "unocc",
				"energy": -0.01707,
				"method": "rhf"
			},
			{
				"type": "unocc",
				"energy": 0.02024,
				"method": "rhf"
			},
			{
				"type": "unocc",
				"energy": 0.05072,
				"method": "rhf"
			}
		],
		"cosmo_sigma_profile": { 
			"-0.025": 0.0,
			"-0.024": 0.0,
			"-0.023": 0.0,
			"-0.022": 0.0,
			"-0.021": 0.0,
			"-0.02": 0.0,
			"-0.019": 0.0,
			"-0.018": 0.0,
			"-0.017": 0.0,
			"-0.016": 0.0,
			"-0.015": 0.325651136556,
			"-0.014": 0.874866848823,
			"-0.013": 1.17959982676,
			"-0.012": 1.30934767177,
			"-0.011": 1.07102358511,
			"-0.01": 0.687108249777,
			"-0.009": 1.00854942728,
			"-0.008": 4.14570578459,
			"-0.007": 9.27333049106,
			"-0.006": 10.8869443658,
			"-0.005": 14.4937859056,
			"-0.004": 12.2408042421,
			"-0.003": 13.5848522886,
			"-0.002": 17.2283952043,
			"-0.001": 19.9606593383,
			"0.0": 17.7179789335,
			"0.001": 21.7478455274,
			"0.002": 23.1691081282,
			"0.003": 17.8451360869,
			"0.004": 15.1558169351,
			"0.005": 13.0101362823,
			"0.006": 4.59733582795,
			"0.007": 0.983059340706,
			"0.008": 1.10012075982,
			"0.009": 1.682018567,
			"0.01": 1.37466999389,
			"0.011": 2.1104784147,
			"0.012": 4.35186262006,
			"0.013": 4.09134923663,
			"0.014": 0.371309168464,
			"0.015": 0.0,
			"0.016": 0.0,
			"0.017": 0.0,
			"0.018": 0.0,
			"0.019": 0.0,
			"0.02": 0.0,
			"0.021": 0.0,
			"0.022": 0.0,
			"0.023": 0.0,
			"0.024": 0.0,
			"0.025": 0.0
		}
	}
}
