{
	 "smiles": "CC1=CC(F)=C(C=C1)N1N=C(C(O)=O)C2=C1CCC2", 
	 "Tm": 493.15, 
	 "num_atms": 32, 
	 "gaussian": { 
		 "optdone": 1, 
		 "sigma_profile": "yes", 
		 "theory": "DFT", 
		 "functional": "B3LYP", 
		 "basiset": "6-31G**", 
		 "properties": { 
			 "R2extent": 5990.5803, 
			 "electric_dipole_moment_norm": 8.27629207073, 
			 "electric_quadrupole_moment_norm": 18.5571235398, 
			 "total_energy": -901.104781003, 
			 "HOMO_LUMO_gap": 0.19488, 
			 "cosmo_polarized_energy": -14.98, 
			 "cosmo_cavitation_energy": 36.54, 
			 "cosmo_dispersion_energy": -25.91, 
			 "cosmo_repulsion_energy": 2.0, 
			 "cosmo_total_nonelectrostatic_energy": 12.63, 
			 "SMD_solvation_energy": 6.77 
		},
		"coords": [
			{
				"x": 1.0939091872,
				"y": 3.6010572798,
				"z": -4.5572295664,
				"element": "C" 
			},
			{
				"x": 0.703549271,
				"y": 2.6654838183,
				"z": -3.4385851353,
				"element": "C" 
			},
			{
				"x": -0.6297889183,
				"y": 2.5845282997,
				"z": -3.0147349996,
				"element": "C" 
			},
			{
				"x": -0.9884935487,
				"y": 1.7389580633,
				"z": -1.9753664823,
				"element": "C" 
			},
			{
				"x": -2.2799226368,
				"y": 1.6611526674,
				"z": -1.6192867982,
				"element": "F" 
			},
			{
				"x": -0.0355326511,
				"y": 0.9571476929,
				"z": -1.3100902385,
				"element": "C" 
			},
			{
				"x": 1.2943657434,
				"y": 1.0390002942,
				"z": -1.7290841338,
				"element": "C" 
			},
			{
				"x": 1.6561135675,
				"y": 1.8737188105,
				"z": -2.7852159708,
				"element": "C" 
			},
			{
				"x": -0.4100079628,
				"y": 0.0867809202,
				"z": -0.2543988714,
				"element": "N" 
			},
			{
				"x": -1.2065084696,
				"y": 0.5182000531,
				"z": 0.7578729945,
				"element": "N" 
			},
			{
				"x": -1.3503482474,
				"y": -0.5322148453,
				"z": 1.5785575768,
				"element": "C" 
			},
			{
				"x": -2.1823840418,
				"y": -0.3949863139,
				"z": 2.7985672255,
				"element": "C" 
			},
			{
				"x": -2.7456912379,
				"y": 0.8228183647,
				"z": 2.9595092062,
				"element": "O" 
			},
			{
				"x": -2.3497554637,
				"y": -1.2941355165,
				"z": 3.5916704722,
				"element": "O" 
			},
			{
				"x": -0.6462653467,
				"y": -1.6549293757,
				"z": 1.0937461477,
				"element": "C" 
			},
			{
				"x": -0.0617904296,
				"y": -1.2243450861,
				"z": -0.0698803714,
				"element": "C" 
			},
			{
				"x": 0.7534170728,
				"y": -2.2699672003,
				"z": -0.7696302439,
				"element": "C" 
			},
			{
				"x": 0.2956903704,
				"y": -3.5526323246,
				"z": 0.0079210009,
				"element": "C" 
			},
			{
				"x": -0.3085353256,
				"y": -3.0892652036,
				"z": 1.377593156,
				"element": "C" 
			},
			{
				"x": 2.0851487879,
				"y": 3.3603963097,
				"z": -4.9502218997,
				"element": "H" 
			},
			{
				"x": 0.3791828473,
				"y": 3.5543690174,
				"z": -5.3849663445,
				"element": "H" 
			},
			{
				"x": 1.1189780178,
				"y": 4.6408115064,
				"z": -4.2094877099,
				"element": "H" 
			},
			{
				"x": -1.4105664523,
				"y": 3.1661696896,
				"z": -3.494828596,
				"element": "H" 
			},
			{
				"x": 2.0455607025,
				"y": 0.4509753711,
				"z": -1.2122838271,
				"element": "H" 
			},
			{
				"x": 2.696090863,
				"y": 1.9197141319,
				"z": -3.0942744818,
				"element": "H" 
			},
			{
				"x": -2.4799102909,
				"y": 1.37638077,
				"z": 2.2027325961,
				"element": "H" 
			},
			{
				"x": 1.8300743676,
				"y": -2.0891783433,
				"z": -0.6501674422,
				"element": "H" 
			},
			{
				"x": 0.5590872873,
				"y": -2.3418047045,
				"z": -1.8447878824,
				"element": "H" 
			},
			{
				"x": -0.4857580316,
				"y": -4.0513533368,
				"z": -0.5738296611,
				"element": "H" 
			},
			{
				"x": 1.1135941349,
				"y": -4.2673878576,
				"z": 0.1314122297,
				"element": "H" 
			},
			{
				"x": 0.4227073083,
				"y": -3.1688048775,
				"z": 2.1918831275,
				"element": "H" 
			},
			{
				"x": -1.1727104743,
				"y": -3.6901580746,
				"z": 1.6735849234,
				"element": "H" 
			}
		],
		 "valence_orbital": [ 
			{
				"type": "occ",
				"energy": -0.2875,
				"method": "rhf"
			},
			{
				"type": "occ",
				"energy": -0.26695,
				"method": "rhf"
			},
			{
				"type": "occ",
				"energy": -0.25992,
				"method": "rhf"
			},
			{
				"type": "occ",
				"energy": -0.24923,
				"method": "rhf"
			},
			{
				"type": "occ",
				"energy": -0.23848,
				"method": "rhf"
			},
			{
				"type": "unocc",
				"energy": -0.0436,
				"method": "rhf"
			},
			{
				"type": "unocc",
				"energy": -0.02142,
				"method": "rhf"
			},
			{
				"type": "unocc",
				"energy": -0.01086,
				"method": "rhf"
			},
			{
				"type": "unocc",
				"energy": 0.02989,
				"method": "rhf"
			},
			{
				"type": "unocc",
				"energy": 0.0678,
				"method": "rhf"
			}
		],
		"cosmo_sigma_profile": { 
			"-0.025": 0.0,
			"-0.024": 0.0,
			"-0.023": 0.0,
			"-0.022": 0.0,
			"-0.021": 0.0,
			"-0.02": 0.0,
			"-0.019": 0.0,
			"-0.018": 0.0,
			"-0.017": 0.0,
			"-0.016": 0.0,
			"-0.015": 0.0580756526139,
			"-0.014": 0.244741487914,
			"-0.013": 0.828614840278,
			"-0.012": 0.639787165991,
			"-0.011": 0.696933005846,
			"-0.01": 0.622048172845,
			"-0.009": 0.473119057328,
			"-0.008": 0.839537138489,
			"-0.007": 5.40941224305,
			"-0.006": 10.0273858967,
			"-0.005": 16.6386455552,
			"-0.004": 26.259661459,
			"-0.003": 30.2899609589,
			"-0.002": 31.6626363791,
			"-0.001": 29.4731573691,
			"0.0": 26.4265640518,
			"0.001": 19.4439301809,
			"0.002": 20.0918761567,
			"0.003": 15.7851465048,
			"0.004": 13.0710721096,
			"0.005": 5.923134619,
			"0.006": 6.04229034386,
			"0.007": 4.86560327685,
			"0.008": 4.16268793599,
			"0.009": 3.4670933626,
			"0.01": 5.27207046139,
			"0.011": 4.78535487188,
			"0.012": 5.19753474236,
			"0.013": 1.95734616003,
			"0.014": 0.203948512054,
			"0.015": 0.0,
			"0.016": 0.0,
			"0.017": 0.0,
			"0.018": 0.0,
			"0.019": 0.0,
			"0.02": 0.0,
			"0.021": 0.0,
			"0.022": 0.0,
			"0.023": 0.0,
			"0.024": 0.0,
			"0.025": 0.0
		}
	}
}
