{
	 "smiles": "O=C1OC(=NC1=CC1=CC=C(C=C2/N=C(OC2=O)C2=CC=CC=C2)C=C1)C1=CC=CC=C1", 
	 "Tm": 544.15, 
	 "num_atms": 48, 
	 "gaussian": { 
		 "optdone": 1, 
		 "sigma_profile": "yes", 
		 "theory": "DFT", 
		 "functional": "B3LYP", 
		 "basiset": "6-31G**", 
		 "properties": { 
			 "R2extent": 27798.7713, 
			 "electric_dipole_moment_norm": 3.37651549826, 
			 "electric_quadrupole_moment_norm": 40.5789904786, 
			 "total_energy": -1410.8219893, 
			 "HOMO_LUMO_gap": 0.0992, 
			 "cosmo_polarized_energy": -16.24, 
			 "cosmo_cavitation_energy": 55.94, 
			 "cosmo_dispersion_energy": -40.34, 
			 "cosmo_repulsion_energy": 2.92, 
			 "cosmo_total_nonelectrostatic_energy": 18.52, 
			 "SMD_solvation_energy": 8.92 
		},
		"coords": [
			{
				"x": 2.719928064,
				"y": 0.4980845792,
				"z": 0.6799059238,
				"element": "O" 
			},
			{
				"x": 3.0211947897,
				"y": 0.8469680909,
				"z": 1.7946305146,
				"element": "C" 
			},
			{
				"x": 4.3599636075,
				"y": 1.0115314177,
				"z": 2.1595553144,
				"element": "O" 
			},
			{
				"x": 4.3546584627,
				"y": 1.4102344382,
				"z": 3.4806584141,
				"element": "C" 
			},
			{
				"x": 3.1858550624,
				"y": 1.5254759858,
				"z": 4.0192986446,
				"element": "N" 
			},
			{
				"x": 2.2601548771,
				"y": 1.1878469089,
				"z": 3.0253892772,
				"element": "C" 
			},
			{
				"x": 0.919988586,
				"y": 1.2145539626,
				"z": 3.2924544902,
				"element": "C" 
			},
			{
				"x": -0.2692594533,
				"y": 0.9319962529,
				"z": 2.5169128087,
				"element": "C" 
			},
			{
				"x": -1.5099746808,
				"y": 1.0837631539,
				"z": 3.1824151322,
				"element": "C" 
			},
			{
				"x": -2.7073898484,
				"y": 0.8396081163,
				"z": 2.5346170987,
				"element": "C" 
			},
			{
				"x": -2.7310855703,
				"y": 0.4291282694,
				"z": 1.1828208353,
				"element": "C" 
			},
			{
				"x": -4.0159476824,
				"y": 0.1893601988,
				"z": 0.5615216224,
				"element": "C" 
			},
			{
				"x": -4.3068697128,
				"y": -0.2083127637,
				"z": -0.7070815818,
				"element": "C" 
			},
			{
				"x": -3.4495392388,
				"y": -0.4972032553,
				"z": -1.7655224716,
				"element": "N" 
			},
			{
				"x": -4.2167402575,
				"y": -0.8298079584,
				"z": -2.7578852413,
				"element": "C" 
			},
			{
				"x": -5.5694480488,
				"y": -0.806385699,
				"z": -2.5065590301,
				"element": "O" 
			},
			{
				"x": -5.7043054991,
				"y": -0.4028515645,
				"z": -1.16508754,
				"element": "C" 
			},
			{
				"x": -6.7734083572,
				"y": -0.2818783022,
				"z": -0.6301903268,
				"element": "O" 
			},
			{
				"x": -3.7954676089,
				"y": -1.2216310281,
				"z": -4.0960604172,
				"element": "C" 
			},
			{
				"x": -4.7426792193,
				"y": -1.5583739064,
				"z": -5.0776095184,
				"element": "C" 
			},
			{
				"x": -4.3184362471,
				"y": -1.930675092,
				"z": -6.3509548702,
				"element": "C" 
			},
			{
				"x": -2.9552518659,
				"y": -1.9697666337,
				"z": -6.6532271246,
				"element": "C" 
			},
			{
				"x": -2.0101485556,
				"y": -1.634824652,
				"z": -5.6775085108,
				"element": "C" 
			},
			{
				"x": -2.4238725614,
				"y": -1.2619502565,
				"z": -4.4036698691,
				"element": "C" 
			},
			{
				"x": -1.4935517006,
				"y": 0.2763071143,
				"z": 0.5143799763,
				"element": "C" 
			},
			{
				"x": -0.2937064203,
				"y": 0.5206004654,
				"z": 1.1617048966,
				"element": "C" 
			},
			{
				"x": 5.6458483186,
				"y": 1.652547727,
				"z": 4.1105800828,
				"element": "C" 
			},
			{
				"x": 6.8417203339,
				"y": 1.4850493239,
				"z": 3.3933160015,
				"element": "C" 
			},
			{
				"x": 8.0638772156,
				"y": 1.722965431,
				"z": 4.0184286641,
				"element": "C" 
			},
			{
				"x": 8.1023796266,
				"y": 2.1270091509,
				"z": 5.3547970844,
				"element": "C" 
			},
			{
				"x": 6.9121339644,
				"y": 2.294406174,
				"z": 6.0709941739,
				"element": "C" 
			},
			{
				"x": 5.6876015986,
				"y": 2.0594587366,
				"z": 5.4558886001,
				"element": "C" 
			},
			{
				"x": 0.7206656008,
				"y": 1.5169019563,
				"z": 4.3191794414,
				"element": "H" 
			},
			{
				"x": -1.5170687868,
				"y": 1.3984486367,
				"z": 4.2223751953,
				"element": "H" 
			},
			{
				"x": -3.645364123,
				"y": 0.9638446601,
				"z": 3.0689243207,
				"element": "H" 
			},
			{
				"x": -4.8905441067,
				"y": 0.3460533954,
				"z": 1.1900003785,
				"element": "H" 
			},
			{
				"x": -5.7987736607,
				"y": -1.525397477,
				"z": -4.834494519,
				"element": "H" 
			},
			{
				"x": -5.0518897572,
				"y": -2.1905725585,
				"z": -7.1081480932,
				"element": "H" 
			},
			{
				"x": -2.6282651203,
				"y": -2.2606169686,
				"z": -7.6472920795,
				"element": "H" 
			},
			{
				"x": -0.9506603477,
				"y": -1.6653400053,
				"z": -5.9129782277,
				"element": "H" 
			},
			{
				"x": -1.7048770155,
				"y": -0.9993143068,
				"z": -3.6355081478,
				"element": "H" 
			},
			{
				"x": -1.4957752352,
				"y": -0.0378613875,
				"z": -0.5222330943,
				"element": "H" 
			},
			{
				"x": 0.6391392246,
				"y": 0.3961646071,
				"z": 0.6269913065,
				"element": "H" 
			},
			{
				"x": 6.8037344217,
				"y": 1.1710239203,
				"z": 2.3561646709,
				"element": "H" 
			},
			{
				"x": 8.987177309,
				"y": 1.592864867,
				"z": 3.4620410695,
				"element": "H" 
			},
			{
				"x": 9.0571197849,
				"y": 2.3114861161,
				"z": 5.8386638209,
				"element": "H" 
			},
			{
				"x": 6.9423303654,
				"y": 2.6085595449,
				"z": 7.1099971732,
				"element": "H" 
			},
			{
				"x": 4.7544294681,
				"y": 2.1838206138,
				"z": 5.9946037305,
				"element": "H" 
			}
		],
		 "valence_orbital": [ 
			{
				"type": "occ",
				"energy": -0.26723,
				"method": "rhf"
			},
			{
				"type": "occ",
				"energy": -0.26605,
				"method": "rhf"
			},
			{
				"type": "occ",
				"energy": -0.26506,
				"method": "rhf"
			},
			{
				"type": "occ",
				"energy": -0.24193,
				"method": "rhf"
			},
			{
				"type": "occ",
				"energy": -0.21134,
				"method": "rhf"
			},
			{
				"type": "unocc",
				"energy": -0.11214,
				"method": "rhf"
			},
			{
				"type": "unocc",
				"energy": -0.07542,
				"method": "rhf"
			},
			{
				"type": "unocc",
				"energy": -0.04068,
				"method": "rhf"
			},
			{
				"type": "unocc",
				"energy": -0.03152,
				"method": "rhf"
			},
			{
				"type": "unocc",
				"energy": -0.01567,
				"method": "rhf"
			}
		],
		"cosmo_sigma_profile": { 
			"-0.025": 0.0,
			"-0.024": 0.0,
			"-0.023": 0.0,
			"-0.022": 0.0,
			"-0.021": 0.0,
			"-0.02": 0.0,
			"-0.019": 0.0,
			"-0.018": 0.0,
			"-0.017": 0.0,
			"-0.016": 0.0,
			"-0.015": 0.0,
			"-0.014": 0.0,
			"-0.013": 0.0,
			"-0.012": 0.0,
			"-0.011": 0.0,
			"-0.01": 0.0,
			"-0.009": 1.30358507251,
			"-0.008": 5.50145499978,
			"-0.007": 13.1808719672,
			"-0.006": 30.2033619588,
			"-0.005": 30.7212994839,
			"-0.004": 30.1919522174,
			"-0.003": 27.539847438,
			"-0.002": 29.784921566,
			"-0.001": 32.4649384516,
			"0.0": 40.3202137536,
			"0.001": 46.6104471247,
			"0.002": 45.5968922831,
			"0.003": 43.1587880046,
			"0.004": 25.3780741399,
			"0.005": 8.26197529457,
			"0.006": 9.04088307291,
			"0.007": 6.47629180462,
			"0.008": 5.99933709981,
			"0.009": 6.31256022984,
			"0.01": 9.21128594226,
			"0.011": 5.85852380285,
			"0.012": 0.556452732109,
			"0.013": 0.0,
			"0.014": 0.0,
			"0.015": 0.0,
			"0.016": 0.0,
			"0.017": 0.0,
			"0.018": 0.0,
			"0.019": 0.0,
			"0.02": 0.0,
			"0.021": 0.0,
			"0.022": 0.0,
			"0.023": 0.0,
			"0.024": 0.0,
			"0.025": 0.0
		}
	}
}
