{
	 "smiles": "CCOC(=O)CS(=O)(=O)C1=CC=C(Br)C=C1", 
	 "Tm": 319.15, 
	 "num_atms": 27, 
	 "gaussian": { 
		 "optdone": 1, 
		 "sigma_profile": "yes", 
		 "theory": "DFT", 
		 "functional": "B3LYP", 
		 "basiset": "6-31G**", 
		 "properties": { 
			 "R2extent": 9840.5582, 
			 "electric_dipole_moment_norm": 3.30337430062, 
			 "electric_quadrupole_moment_norm": 12.7437933485, 
			 "total_energy": -3658.12413473, 
			 "HOMO_LUMO_gap": 0.2099, 
			 "cosmo_polarized_energy": -15.31, 
			 "cosmo_cavitation_energy": 35.37, 
			 "cosmo_dispersion_energy": -25.48, 
			 "cosmo_repulsion_energy": 1.97, 
			 "cosmo_total_nonelectrostatic_energy": 11.86, 
			 "SMD_solvation_energy": 5.16 
		},
		"coords": [
			{
				"x": -2.2909458497,
				"y": -2.4204501311,
				"z": 1.6255780121,
				"element": "C" 
			},
			{
				"x": -2.893876557,
				"y": -1.8525381449,
				"z": 0.3508410334,
				"element": "C" 
			},
			{
				"x": -2.3211132809,
				"y": -0.5509377017,
				"z": 0.0479921603,
				"element": "O" 
			},
			{
				"x": -1.190180942,
				"y": -0.5436272142,
				"z": -0.6710840259,
				"element": "C" 
			},
			{
				"x": -0.6419360277,
				"y": -1.5240502282,
				"z": -1.1297070937,
				"element": "O" 
			},
			{
				"x": -0.6705342498,
				"y": 0.8701281486,
				"z": -0.8367838812,
				"element": "C" 
			},
			{
				"x": 0.8969931926,
				"y": 1.1363629349,
				"z": 0.0890088149,
				"element": "S" 
			},
			{
				"x": 1.1036177252,
				"y": 2.5921342398,
				"z": 0.0923197318,
				"element": "O" 
			},
			{
				"x": 0.8039919115,
				"y": 0.3680014631,
				"z": 1.3385209844,
				"element": "O" 
			},
			{
				"x": 2.1859870478,
				"y": 0.4097840636,
				"z": -0.9310376688,
				"element": "C" 
			},
			{
				"x": 2.9025069708,
				"y": 1.239734181,
				"z": -1.7951516411,
				"element": "C" 
			},
			{
				"x": 3.9202711857,
				"y": 0.6955341812,
				"z": -2.5769945145,
				"element": "C" 
			},
			{
				"x": 4.1989933609,
				"y": -0.6680041165,
				"z": -2.47529895,
				"element": "C" 
			},
			{
				"x": 5.5895005038,
				"y": -1.4151441249,
				"z": -3.5447128159,
				"element": "Br" 
			},
			{
				"x": 3.4883643447,
				"y": -1.4969554844,
				"z": -1.6057621046,
				"element": "C" 
			},
			{
				"x": 2.4717709464,
				"y": -0.9526868427,
				"z": -0.8234685609,
				"element": "C" 
			},
			{
				"x": -1.221600382,
				"y": -2.6050518515,
				"z": 1.4986270044,
				"element": "H" 
			},
			{
				"x": -2.4290972997,
				"y": -1.7310418887,
				"z": 2.4627425601,
				"element": "H" 
			},
			{
				"x": -2.7785747487,
				"y": -3.3692463036,
				"z": 1.8725550763,
				"element": "H" 
			},
			{
				"x": -2.7281892886,
				"y": -2.5139315081,
				"z": -0.5023914889,
				"element": "H" 
			},
			{
				"x": -3.962564369,
				"y": -1.6560906518,
				"z": 0.4597513763,
				"element": "H" 
			},
			{
				"x": -1.3555393895,
				"y": 1.6111541082,
				"z": -0.4220355273,
				"element": "H" 
			},
			{
				"x": -0.4662761137,
				"y": 1.0872314114,
				"z": -1.8870729616,
				"element": "H" 
			},
			{
				"x": 2.677449823,
				"y": 2.2999186219,
				"z": -1.8364507966,
				"element": "H" 
			},
			{
				"x": 4.4936198341,
				"y": 1.3219159498,
				"z": -3.2503085765,
				"element": "H" 
			},
			{
				"x": 3.7276084186,
				"y": -2.5517712936,
				"z": -1.5399663014,
				"element": "H" 
			},
			{
				"x": 1.909353233,
				"y": -1.5760718173,
				"z": -0.1395098448,
				"element": "H" 
			}
		],
		 "valence_orbital": [ 
			{
				"type": "occ",
				"energy": -0.29959,
				"method": "rhf"
			},
			{
				"type": "occ",
				"energy": -0.29829,
				"method": "rhf"
			},
			{
				"type": "occ",
				"energy": -0.29049,
				"method": "rhf"
			},
			{
				"type": "occ",
				"energy": -0.28056,
				"method": "rhf"
			},
			{
				"type": "occ",
				"energy": -0.26279,
				"method": "rhf"
			},
			{
				"type": "unocc",
				"energy": -0.05289,
				"method": "rhf"
			},
			{
				"type": "unocc",
				"energy": -0.03276,
				"method": "rhf"
			},
			{
				"type": "unocc",
				"energy": -0.0221,
				"method": "rhf"
			},
			{
				"type": "unocc",
				"energy": -0.00516,
				"method": "rhf"
			},
			{
				"type": "unocc",
				"energy": 0.06644,
				"method": "rhf"
			}
		],
		"cosmo_sigma_profile": { 
			"-0.025": 0.0,
			"-0.024": 0.0,
			"-0.023": 0.0,
			"-0.022": 0.0,
			"-0.021": 0.0,
			"-0.02": 0.0,
			"-0.019": 0.0,
			"-0.018": 0.0,
			"-0.017": 0.0,
			"-0.016": 0.0,
			"-0.015": 0.0,
			"-0.014": 0.0,
			"-0.013": 0.0,
			"-0.012": 0.0,
			"-0.011": 0.592345560666,
			"-0.01": 3.60895222394,
			"-0.009": 4.38877617265,
			"-0.008": 7.88488988194,
			"-0.007": 11.961268729,
			"-0.006": 12.602249179,
			"-0.005": 15.7195201437,
			"-0.004": 19.6373425306,
			"-0.003": 21.4664277916,
			"-0.002": 16.5872392638,
			"-0.001": 21.7988947986,
			"0.0": 27.3771740188,
			"0.001": 26.4426441381,
			"0.002": 15.5574340386,
			"0.003": 15.474515471,
			"0.004": 16.0608732309,
			"0.005": 5.37052778734,
			"0.006": 4.37530834309,
			"0.007": 6.02188005853,
			"0.008": 4.94870037811,
			"0.009": 5.87145219303,
			"0.01": 9.25388148624,
			"0.011": 10.4748556344,
			"0.012": 1.65198021552,
			"0.013": 0.0,
			"0.014": 0.0,
			"0.015": 0.0,
			"0.016": 0.0,
			"0.017": 0.0,
			"0.018": 0.0,
			"0.019": 0.0,
			"0.02": 0.0,
			"0.021": 0.0,
			"0.022": 0.0,
			"0.023": 0.0,
			"0.024": 0.0,
			"0.025": 0.0
		}
	}
}
