{
	 "smiles": "CC1=CC(CNC2=CC3=C(NC(=O)N3)C=C2)=CC=C1", 
	 "Tm": 490.15, 
	 "num_atms": 34, 
	 "gaussian": { 
		 "optdone": 1, 
		 "sigma_profile": "yes", 
		 "theory": "DFT", 
		 "functional": "B3LYP", 
		 "basiset": "6-31G**", 
		 "properties": { 
			 "R2extent": 6862.5793, 
			 "electric_dipole_moment_norm": 3.9064066071, 
			 "electric_quadrupole_moment_norm": 16.2048768635, 
			 "total_energy": -820.153917669, 
			 "HOMO_LUMO_gap": 0.17162, 
			 "cosmo_polarized_energy": -18.64, 
			 "cosmo_cavitation_energy": 37.91, 
			 "cosmo_dispersion_energy": -26.79, 
			 "cosmo_repulsion_energy": 2.09, 
			 "cosmo_total_nonelectrostatic_energy": 13.22, 
			 "SMD_solvation_energy": 5.53 
		},
		"coords": [
			{
				"x": 2.3263585292,
				"y": -2.4625368691,
				"z": 0.4016552006,
				"element": "C" 
			},
			{
				"x": 0.9551106124,
				"y": -2.8638783993,
				"z": 0.8942079559,
				"element": "C" 
			},
			{
				"x": -0.1934329601,
				"y": -2.2083421285,
				"z": 0.439976933,
				"element": "C" 
			},
			{
				"x": -1.475009543,
				"y": -2.5826191683,
				"z": 0.8716739036,
				"element": "C" 
			},
			{
				"x": -2.708832614,
				"y": -1.82668584,
				"z": 0.4071224066,
				"element": "C" 
			},
			{
				"x": -2.9251482334,
				"y": -0.538906297,
				"z": 1.0820052009,
				"element": "N" 
			},
			{
				"x": -2.2318441848,
				"y": 0.6233550138,
				"z": 0.7034659153,
				"element": "C" 
			},
			{
				"x": -2.0378238552,
				"y": 0.9512203,
				"z": -0.6557984371,
				"element": "C" 
			},
			{
				"x": -1.4093789663,
				"y": 2.1513998449,
				"z": -0.9570567393,
				"element": "C" 
			},
			{
				"x": -0.9802064061,
				"y": 3.0438567124,
				"z": 0.0459842866,
				"element": "C" 
			},
			{
				"x": -0.406424563,
				"y": 4.1351742379,
				"z": -0.6098401438,
				"element": "N" 
			},
			{
				"x": -0.4567684625,
				"y": 3.9783842525,
				"z": -1.9919787115,
				"element": "C" 
			},
			{
				"x": -0.0518628096,
				"y": 4.7402827304,
				"z": -2.8522175596,
				"element": "O" 
			},
			{
				"x": -1.0800165722,
				"y": 2.7390399226,
				"z": -2.1732252066,
				"element": "N" 
			},
			{
				"x": -1.1751696898,
				"y": 2.7350847013,
				"z": 1.3833724685,
				"element": "C" 
			},
			{
				"x": -1.7916256902,
				"y": 1.5193985329,
				"z": 1.6978044819,
				"element": "C" 
			},
			{
				"x": -1.5970575262,
				"y": -3.6419635003,
				"z": 1.7769409036,
				"element": "C" 
			},
			{
				"x": -0.4605565946,
				"y": -4.3080055304,
				"z": 2.2415396742,
				"element": "C" 
			},
			{
				"x": 0.8043368742,
				"y": -3.9206904098,
				"z": 1.8053956201,
				"element": "C" 
			},
			{
				"x": 3.0412848252,
				"y": -2.38739081,
				"z": 1.2279173164,
				"element": "H" 
			},
			{
				"x": 2.7271030992,
				"y": -3.2009619163,
				"z": -0.3037153576,
				"element": "H" 
			},
			{
				"x": 2.3007474935,
				"y": -1.4969243201,
				"z": -0.1107161879,
				"element": "H" 
			},
			{
				"x": -0.089949426,
				"y": -1.3849261942,
				"z": -0.2624309303,
				"element": "H" 
			},
			{
				"x": -3.5980903113,
				"y": -2.4427710218,
				"z": 0.5813232868,
				"element": "H" 
			},
			{
				"x": -2.6657635373,
				"y": -1.6481602151,
				"z": -0.6699062229,
				"element": "H" 
			},
			{
				"x": -2.9257904166,
				"y": -0.6557738616,
				"z": 2.0885488392,
				"element": "H" 
			},
			{
				"x": -2.3903442167,
				"y": 0.3005574259,
				"z": -1.4481180884,
				"element": "H" 
			},
			{
				"x": -0.0034314404,
				"y": 4.9558220647,
				"z": -0.188785686,
				"element": "H" 
			},
			{
				"x": -1.2600541238,
				"y": 2.3739485087,
				"z": -3.0941548848,
				"element": "H" 
			},
			{
				"x": -0.8501639115,
				"y": 3.4062333083,
				"z": 2.1723505598,
				"element": "H" 
			},
			{
				"x": -1.9368626601,
				"y": 1.2568284039,
				"z": 2.742220903,
				"element": "H" 
			},
			{
				"x": -2.5835509166,
				"y": -3.9494011161,
				"z": 2.1169662417,
				"element": "H" 
			},
			{
				"x": -0.5634291553,
				"y": -5.1306283814,
				"z": 2.9439727592,
				"element": "H" 
			},
			{
				"x": 1.6856473526,
				"y": -4.4427199809,
				"z": 2.1705992991,
				"element": "H" 
			}
		],
		 "valence_orbital": [ 
			{
				"type": "occ",
				"energy": -0.26126,
				"method": "rhf"
			},
			{
				"type": "occ",
				"energy": -0.24626,
				"method": "rhf"
			},
			{
				"type": "occ",
				"energy": -0.24158,
				"method": "rhf"
			},
			{
				"type": "occ",
				"energy": -0.22456,
				"method": "rhf"
			},
			{
				"type": "occ",
				"energy": -0.18132,
				"method": "rhf"
			},
			{
				"type": "unocc",
				"energy": -0.0097,
				"method": "rhf"
			},
			{
				"type": "unocc",
				"energy": -0.00059,
				"method": "rhf"
			},
			{
				"type": "unocc",
				"energy": 0.00011,
				"method": "rhf"
			},
			{
				"type": "unocc",
				"energy": 0.02972,
				"method": "rhf"
			},
			{
				"type": "unocc",
				"energy": 0.07554,
				"method": "rhf"
			}
		],
		"cosmo_sigma_profile": { 
			"-0.025": 0.0,
			"-0.024": 0.0,
			"-0.023": 0.0,
			"-0.022": 0.0,
			"-0.021": 0.0,
			"-0.02": 0.0,
			"-0.019": 0.0,
			"-0.018": 0.0,
			"-0.017": 0.0,
			"-0.016": 0.96246399295,
			"-0.015": 2.83909862773,
			"-0.014": 2.43670385637,
			"-0.013": 1.73705110604,
			"-0.012": 2.81586249438,
			"-0.011": 2.92749149688,
			"-0.01": 3.14375482009,
			"-0.009": 3.36796469659,
			"-0.008": 4.17191866236,
			"-0.007": 6.70250449061,
			"-0.006": 8.49446247706,
			"-0.005": 16.7863313216,
			"-0.004": 22.6153536776,
			"-0.003": 24.3206062849,
			"-0.002": 21.9364813002,
			"-0.001": 20.9045640418,
			"0.0": 20.6793669221,
			"0.001": 20.5347103692,
			"0.002": 20.1398574568,
			"0.003": 14.6324142932,
			"0.004": 16.3580266394,
			"0.005": 15.6841157464,
			"0.006": 17.5714293915,
			"0.007": 6.57793620218,
			"0.008": 1.79861670293,
			"0.009": 2.11526037424,
			"0.01": 1.34133931659,
			"0.011": 2.05957254247,
			"0.012": 2.71873336451,
			"0.013": 3.68703832951,
			"0.014": 7.45709712807,
			"0.015": 1.77646147179,
			"0.016": 0.0,
			"0.017": 0.0,
			"0.018": 0.0,
			"0.019": 0.0,
			"0.02": 0.0,
			"0.021": 0.0,
			"0.022": 0.0,
			"0.023": 0.0,
			"0.024": 0.0,
			"0.025": 0.0
		}
	}
}
