{
	 "smiles": "O=C1CC2=C(CCN1)C=C1OCCOC1=C2", 
	 "Tm": 500.15, 
	 "num_atms": 29, 
	 "gaussian": { 
		 "optdone": 1, 
		 "sigma_profile": "yes", 
		 "theory": "DFT", 
		 "functional": "B3LYP", 
		 "basiset": "6-31G**", 
		 "properties": { 
			 "R2extent": 4642.3602, 
			 "electric_dipole_moment_norm": 4.50620618592, 
			 "electric_quadrupole_moment_norm": 25.7596050038, 
			 "total_energy": -745.533052231, 
			 "HOMO_LUMO_gap": 0.20584, 
			 "cosmo_polarized_energy": -15.53, 
			 "cosmo_cavitation_energy": 30.86, 
			 "cosmo_dispersion_energy": -23.45, 
			 "cosmo_repulsion_energy": 1.82, 
			 "cosmo_total_nonelectrostatic_energy": 9.23, 
			 "SMD_solvation_energy": 4.98 
		},
		"coords": [
			{
				"x": 3.6911705519,
				"y": -0.7678677517,
				"z": 1.2211522362,
				"element": "O" 
			},
			{
				"x": 2.4908251008,
				"y": -0.8425927141,
				"z": 0.983718473,
				"element": "C" 
			},
			{
				"x": 1.4947240149,
				"y": 0.0267574563,
				"z": 1.7592854699,
				"element": "C" 
			},
			{
				"x": 0.4810662319,
				"y": 0.7954244132,
				"z": 0.9415595869,
				"element": "C" 
			},
			{
				"x": -0.4977387635,
				"y": 0.1060982167,
				"z": 0.2009716276,
				"element": "C" 
			},
			{
				"x": -0.4823416878,
				"y": -1.4043439998,
				"z": 0.1798875928,
				"element": "C" 
			},
			{
				"x": 0.7297421712,
				"y": -1.9822842784,
				"z": -0.5613165238,
				"element": "C" 
			},
			{
				"x": 2.0291500646,
				"y": -1.7634846595,
				"z": 0.0759912735,
				"element": "N" 
			},
			{
				"x": -1.446829448,
				"y": 0.8286933437,
				"z": -0.5227695799,
				"element": "C" 
			},
			{
				"x": -1.4360080425,
				"y": 2.2239688644,
				"z": -0.5304815621,
				"element": "C" 
			},
			{
				"x": -2.4013097005,
				"y": 2.8834082919,
				"z": -1.2539970798,
				"element": "O" 
			},
			{
				"x": -2.5177886726,
				"y": 4.2675979869,
				"z": -0.9248419315,
				"element": "C" 
			},
			{
				"x": -1.1396801215,
				"y": 4.9040402023,
				"z": -0.8338617832,
				"element": "C" 
			},
			{
				"x": -0.377477244,
				"y": 4.2833257227,
				"z": 0.2008700002,
				"element": "O" 
			},
			{
				"x": -0.4459476764,
				"y": 2.9107228631,
				"z": 0.1880648072,
				"element": "C" 
			},
			{
				"x": 0.4978147823,
				"y": 2.1907155788,
				"z": 0.9215142564,
				"element": "C" 
			},
			{
				"x": 2.1156488991,
				"y": 0.708724019,
				"z": 2.341500247,
				"element": "H" 
			},
			{
				"x": 0.9799266969,
				"y": -0.6279398128,
				"z": 2.4773061702,
				"element": "H" 
			},
			{
				"x": -1.3773368209,
				"y": -1.7755042544,
				"z": -0.3299951049,
				"element": "H" 
			},
			{
				"x": -0.5120871727,
				"y": -1.8134348054,
				"z": 1.1986234211,
				"element": "H" 
			},
			{
				"x": 0.7396753468,
				"y": -1.5674103145,
				"z": -1.5800873935,
				"element": "H" 
			},
			{
				"x": 0.5957504053,
				"y": -3.0671813021,
				"z": -0.6581293082,
				"element": "H" 
			},
			{
				"x": 2.805745943,
				"y": -2.2519120738,
				"z": -0.3535782588,
				"element": "H" 
			},
			{
				"x": -2.2210182976,
				"y": 0.3222416762,
				"z": -1.0921837519,
				"element": "H" 
			},
			{
				"x": -3.1156869053,
				"y": 4.7261018895,
				"z": -1.7166904126,
				"element": "H" 
			},
			{
				"x": -3.044452229,
				"y": 4.3814019068,
				"z": 0.0327555011,
				"element": "H" 
			},
			{
				"x": -1.208103611,
				"y": 5.9640596002,
				"z": -0.5763540631,
				"element": "H" 
			},
			{
				"x": -0.6179114514,
				"y": 4.8023721775,
				"z": -1.795480278,
				"element": "H" 
			},
			{
				"x": 1.2488776358,
				"y": 2.7479017571,
				"z": 1.4732663681,
				"element": "H" 
			}
		],
		 "valence_orbital": [ 
			{
				"type": "occ",
				"energy": -0.30468,
				"method": "rhf"
			},
			{
				"type": "occ",
				"energy": -0.24648,
				"method": "rhf"
			},
			{
				"type": "occ",
				"energy": -0.23983,
				"method": "rhf"
			},
			{
				"type": "occ",
				"energy": -0.23068,
				"method": "rhf"
			},
			{
				"type": "occ",
				"energy": -0.20595,
				"method": "rhf"
			},
			{
				"type": "unocc",
				"energy": -0.00011,
				"method": "rhf"
			},
			{
				"type": "unocc",
				"energy": 0.00754,
				"method": "rhf"
			},
			{
				"type": "unocc",
				"energy": 0.03635,
				"method": "rhf"
			},
			{
				"type": "unocc",
				"energy": 0.07768,
				"method": "rhf"
			},
			{
				"type": "unocc",
				"energy": 0.08863,
				"method": "rhf"
			}
		],
		"cosmo_sigma_profile": { 
			"-0.025": 0.0,
			"-0.024": 0.0,
			"-0.023": 0.0,
			"-0.022": 0.0,
			"-0.021": 0.0,
			"-0.02": 0.0,
			"-0.019": 0.0,
			"-0.018": 0.0,
			"-0.017": 0.0,
			"-0.016": 0.0,
			"-0.015": 0.0,
			"-0.014": 0.0,
			"-0.013": 0.759071342043,
			"-0.012": 1.02702785924,
			"-0.011": 1.02584371061,
			"-0.01": 1.17458767616,
			"-0.009": 0.812961653669,
			"-0.008": 1.16358524645,
			"-0.007": 6.52681019708,
			"-0.006": 19.0332536596,
			"-0.005": 27.4386813685,
			"-0.004": 24.4187108455,
			"-0.003": 22.0648101724,
			"-0.002": 15.3730448918,
			"-0.001": 12.7233491434,
			"0.0": 12.7499420708,
			"0.001": 11.2363697004,
			"0.002": 10.2994337511,
			"0.003": 12.5276903691,
			"0.004": 14.7415802016,
			"0.005": 11.7448608325,
			"0.006": 4.53053387802,
			"0.007": 3.31631327697,
			"0.008": 4.27634237491,
			"0.009": 4.27850868567,
			"0.01": 3.6402461233,
			"0.011": 3.26112406266,
			"0.012": 1.73385767025,
			"0.013": 2.04460214511,
			"0.014": 6.40974983766,
			"0.015": 2.66454863419,
			"0.016": 0.192037685393,
			"0.017": 0.0,
			"0.018": 0.0,
			"0.019": 0.0,
			"0.02": 0.0,
			"0.021": 0.0,
			"0.022": 0.0,
			"0.023": 0.0,
			"0.024": 0.0,
			"0.025": 0.0
		}
	}
}
