{
	 "smiles": "CC(O)C(NC(=O)C1CC1C)C(O)=O", 
	 "Tm": 412.15, 
	 "num_atms": 29, 
	 "gaussian": { 
		 "optdone": 1, 
		 "sigma_profile": "yes", 
		 "theory": "DFT", 
		 "functional": "B3LYP", 
		 "basiset": "6-31G**", 
		 "properties": { 
			 "R2extent": 4075.0821, 
			 "electric_dipole_moment_norm": 2.20713142563, 
			 "electric_quadrupole_moment_norm": 10.192447943, 
			 "total_energy": -707.649556577, 
			 "HOMO_LUMO_gap": 0.24831, 
			 "cosmo_polarized_energy": -18.48, 
			 "cosmo_cavitation_energy": 32.21, 
			 "cosmo_dispersion_energy": -22.23, 
			 "cosmo_repulsion_energy": 1.81, 
			 "cosmo_total_nonelectrostatic_energy": 11.78, 
			 "SMD_solvation_energy": 6.54 
		},
		"coords": [
			{
				"x": -1.9111287032,
				"y": -2.079873228,
				"z": 1.114237996,
				"element": "C" 
			},
			{
				"x": -1.8355790059,
				"y": -1.147535177,
				"z": 2.3196830989,
				"element": "C" 
			},
			{
				"x": -3.1246996704,
				"y": -0.8751657992,
				"z": 2.861873154,
				"element": "O" 
			},
			{
				"x": -1.2333169904,
				"y": 0.2339052828,
				"z": 1.9613737608,
				"element": "C" 
			},
			{
				"x": 0.1700117651,
				"y": 0.1257387763,
				"z": 1.605817314,
				"element": "N" 
			},
			{
				"x": 0.6138500575,
				"y": 0.2422929926,
				"z": 0.3123215672,
				"element": "C" 
			},
			{
				"x": -0.1631758707,
				"y": 0.3034261041,
				"z": -0.6394972712,
				"element": "O" 
			},
			{
				"x": 2.1030546078,
				"y": 0.2662878475,
				"z": 0.1675894166,
				"element": "C" 
			},
			{
				"x": 2.6812062765,
				"y": 0.892542674,
				"z": -1.0878907227,
				"element": "C" 
			},
			{
				"x": 2.7970889807,
				"y": -0.5872308283,
				"z": -0.9010064293,
				"element": "C" 
			},
			{
				"x": 2.0485493746,
				"y": -1.5678816521,
				"z": -1.7787828237,
				"element": "C" 
			},
			{
				"x": -1.3312069943,
				"y": 1.1545351603,
				"z": 3.1736542037,
				"element": "C" 
			},
			{
				"x": -2.365546324,
				"y": 2.0058475874,
				"z": 3.1123846587,
				"element": "O" 
			},
			{
				"x": -0.5403650443,
				"y": 1.1230378502,
				"z": 4.0956826905,
				"element": "O" 
			},
			{
				"x": -2.5542778827,
				"y": -1.6519268905,
				"z": 0.3404315753,
				"element": "H" 
			},
			{
				"x": -0.9225365248,
				"y": -2.255411057,
				"z": 0.6835091398,
				"element": "H" 
			},
			{
				"x": -2.3235813276,
				"y": -3.0504962382,
				"z": 1.4153431483,
				"element": "H" 
			},
			{
				"x": -1.1822242024,
				"y": -1.5888257351,
				"z": 3.0905794932,
				"element": "H" 
			},
			{
				"x": -3.5378388144,
				"y": -1.7180930023,
				"z": 3.0873029085,
				"element": "H" 
			},
			{
				"x": -1.7756369844,
				"y": 0.6567288281,
				"z": 1.1134488723,
				"element": "H" 
			},
			{
				"x": 0.8227810131,
				"y": 0.1799829716,
				"z": 2.3763094938,
				"element": "H" 
			},
			{
				"x": 2.6591513293,
				"y": 0.4023960596,
				"z": 1.0920898027,
				"element": "H" 
			},
			{
				"x": 1.9420597791,
				"y": 1.2445477864,
				"z": -1.8013116374,
				"element": "H" 
			},
			{
				"x": 3.5627292758,
				"y": 1.5172567596,
				"z": -0.9811880067,
				"element": "H" 
			},
			{
				"x": 3.7766525697,
				"y": -0.9373731865,
				"z": -0.5789260506,
				"element": "H" 
			},
			{
				"x": 2.6025321235,
				"y": -1.739187106,
				"z": -2.7087212123,
				"element": "H" 
			},
			{
				"x": 1.0550681159,
				"y": -1.1917993932,
				"z": -2.0289897385,
				"element": "H" 
			},
			{
				"x": 1.9335989652,
				"y": -2.5360808817,
				"z": -1.2776936799,
				"element": "H" 
			},
			{
				"x": -2.3574198942,
				"y": 2.5124534946,
				"z": 3.9428752781,
				"element": "H" 
			}
		],
		 "valence_orbital": [ 
			{
				"type": "occ",
				"energy": -0.28602,
				"method": "rhf"
			},
			{
				"type": "occ",
				"energy": -0.28164,
				"method": "rhf"
			},
			{
				"type": "occ",
				"energy": -0.27693,
				"method": "rhf"
			},
			{
				"type": "occ",
				"energy": -0.25415,
				"method": "rhf"
			},
			{
				"type": "occ",
				"energy": -0.24823,
				"method": "rhf"
			},
			{
				"type": "unocc",
				"energy": 8e-05,
				"method": "rhf"
			},
			{
				"type": "unocc",
				"energy": 0.02415,
				"method": "rhf"
			},
			{
				"type": "unocc",
				"energy": 0.06829,
				"method": "rhf"
			},
			{
				"type": "unocc",
				"energy": 0.07708,
				"method": "rhf"
			},
			{
				"type": "unocc",
				"energy": 0.08314,
				"method": "rhf"
			}
		],
		"cosmo_sigma_profile": { 
			"-0.025": 0.0,
			"-0.024": 0.0,
			"-0.023": 0.0,
			"-0.022": 0.0,
			"-0.021": 0.0,
			"-0.02": 0.0,
			"-0.019": 0.244897614419,
			"-0.018": 1.34208164612,
			"-0.017": 0.731771765054,
			"-0.016": 1.48525001784,
			"-0.015": 1.753964604,
			"-0.014": 1.20289574939,
			"-0.013": 1.99502196538,
			"-0.012": 3.16590456502,
			"-0.011": 2.87456246279,
			"-0.01": 2.59944847983,
			"-0.009": 3.01474694905,
			"-0.008": 2.94765756884,
			"-0.007": 2.63285991541,
			"-0.006": 5.24290015265,
			"-0.005": 9.8985921561,
			"-0.004": 17.039881868,
			"-0.003": 21.6679010138,
			"-0.002": 20.4490209185,
			"-0.001": 23.5807746885,
			"0.0": 23.6834094367,
			"0.001": 21.6690237862,
			"0.002": 13.5730770612,
			"0.003": 9.49167066732,
			"0.004": 7.76362201017,
			"0.005": 5.27372593215,
			"0.006": 5.92722283076,
			"0.007": 5.0529817506,
			"0.008": 5.14489554303,
			"0.009": 5.63454502867,
			"0.01": 5.41282714482,
			"0.011": 7.37554676518,
			"0.012": 4.59508211546,
			"0.013": 3.70249950074,
			"0.014": 2.85722661406,
			"0.015": 0.00267165118241,
			"0.016": 0.0,
			"0.017": 0.0,
			"0.018": 0.0,
			"0.019": 0.0,
			"0.02": 0.0,
			"0.021": 0.0,
			"0.022": 0.0,
			"0.023": 0.0,
			"0.024": 0.0,
			"0.025": 0.0
		}
	}
}
