{
	 "smiles": "CC1=CC(C(=O)CCl)=C(C)N1NC(=O)C1=CC=CC=C1", 
	 "Tm": 415.15, 
	 "num_atms": 35, 
	 "gaussian": { 
		 "optdone": 1, 
		 "sigma_profile": "yes", 
		 "theory": "DFT", 
		 "functional": "B3LYP", 
		 "basiset": "6-31G**", 
		 "properties": { 
			 "R2extent": 7027.6127, 
			 "electric_dipole_moment_norm": 3.52794084134, 
			 "electric_quadrupole_moment_norm": 18.0987764595, 
			 "total_energy": -1300.76455095, 
			 "HOMO_LUMO_gap": 0.16818, 
			 "cosmo_polarized_energy": -16.5, 
			 "cosmo_cavitation_energy": 40.5, 
			 "cosmo_dispersion_energy": -27.3, 
			 "cosmo_repulsion_energy": 2.13, 
			 "cosmo_total_nonelectrostatic_energy": 15.33, 
			 "SMD_solvation_energy": 8.36 
		},
		"coords": [
			{
				"x": -0.2769718959,
				"y": 3.2202849907,
				"z": -0.1830182375,
				"element": "C" 
			},
			{
				"x": -0.355145824,
				"y": 1.7413349439,
				"z": -0.3709256635,
				"element": "C" 
			},
			{
				"x": -1.4192918456,
				"y": 0.8893903401,
				"z": -0.4784924904,
				"element": "C" 
			},
			{
				"x": -0.9186854699,
				"y": -0.4435122452,
				"z": -0.6940874783,
				"element": "C" 
			},
			{
				"x": -1.702424473,
				"y": -1.6692562543,
				"z": -0.8510722965,
				"element": "C" 
			},
			{
				"x": -1.2160455111,
				"y": -2.7859307615,
				"z": -0.9964691628,
				"element": "O" 
			},
			{
				"x": -3.2320927607,
				"y": -1.5608157253,
				"z": -0.7877981902,
				"element": "C" 
			},
			{
				"x": -3.9211435606,
				"y": -0.7342906681,
				"z": -2.2529734436,
				"element": "Cl" 
			},
			{
				"x": 0.4745248176,
				"y": -0.3716914887,
				"z": -0.716040648,
				"element": "C" 
			},
			{
				"x": 1.5194398169,
				"y": -1.4177080036,
				"z": -0.9114713632,
				"element": "C" 
			},
			{
				"x": 0.7946676812,
				"y": 0.9524785627,
				"z": -0.5055610685,
				"element": "N" 
			},
			{
				"x": 2.0734187598,
				"y": 1.474003867,
				"z": -0.4745551951,
				"element": "N" 
			},
			{
				"x": 3.0534004466,
				"y": 1.2278532809,
				"z": 0.4924761674,
				"element": "C" 
			},
			{
				"x": 4.2105063401,
				"y": 1.468911384,
				"z": 0.178486568,
				"element": "O" 
			},
			{
				"x": 2.6917003383,
				"y": 0.7225210754,
				"z": 1.8559140267,
				"element": "C" 
			},
			{
				"x": 3.7583526776,
				"y": 0.1872157728,
				"z": 2.5980356692,
				"element": "C" 
			},
			{
				"x": 3.5556683461,
				"y": -0.2857378947,
				"z": 3.8907188122,
				"element": "C" 
			},
			{
				"x": 2.2853387904,
				"y": -0.2160177123,
				"z": 4.4680926974,
				"element": "C" 
			},
			{
				"x": 1.2234217233,
				"y": 0.3284816211,
				"z": 3.7448947813,
				"element": "C" 
			},
			{
				"x": 1.4181995807,
				"y": 0.7926734821,
				"z": 2.4436999833,
				"element": "C" 
			},
			{
				"x": 0.1754783484,
				"y": 3.7216470025,
				"z": -1.0468259611,
				"element": "H" 
			},
			{
				"x": 0.3173904256,
				"y": 3.4952438622,
				"z": 0.6955234998,
				"element": "H" 
			},
			{
				"x": -1.2842326592,
				"y": 3.6220415309,
				"z": -0.0527969951,
				"element": "H" 
			},
			{
				"x": -2.4571209266,
				"y": 1.1872990448,
				"z": -0.44232945,
				"element": "H" 
			},
			{
				"x": -3.5675008324,
				"y": -0.9910915491,
				"z": 0.0810741672,
				"element": "H" 
			},
			{
				"x": -3.6420580066,
				"y": -2.5687740359,
				"z": -0.7668840996,
				"element": "H" 
			},
			{
				"x": 2.2360787715,
				"y": -1.1256396251,
				"z": -1.6877263622,
				"element": "H" 
			},
			{
				"x": 1.0339110964,
				"y": -2.3496761442,
				"z": -1.1958565302,
				"element": "H" 
			},
			{
				"x": 2.08854796,
				"y": -1.5931450859,
				"z": 0.0093278182,
				"element": "H" 
			},
			{
				"x": 2.4774181753,
				"y": 1.7081714104,
				"z": -1.3758858579,
				"element": "H" 
			},
			{
				"x": 4.7401922691,
				"y": 0.1600191095,
				"z": 2.1388383209,
				"element": "H" 
			},
			{
				"x": 4.3875214979,
				"y": -0.7038673791,
				"z": 4.4496008556,
				"element": "H" 
			},
			{
				"x": 2.124678344,
				"y": -0.5814526354,
				"z": 5.4783008155,
				"element": "H" 
			},
			{
				"x": 0.236199904,
				"y": 0.3932565779,
				"z": 4.1925524715,
				"element": "H" 
			},
			{
				"x": 0.5767576547,
				"y": 1.2116793494,
				"z": 1.9071338395,
				"element": "H" 
			}
		],
		 "valence_orbital": [ 
			{
				"type": "occ",
				"energy": -0.2693,
				"method": "rhf"
			},
			{
				"type": "occ",
				"energy": -0.26403,
				"method": "rhf"
			},
			{
				"type": "occ",
				"energy": -0.25876,
				"method": "rhf"
			},
			{
				"type": "occ",
				"energy": -0.24935,
				"method": "rhf"
			},
			{
				"type": "occ",
				"energy": -0.22336,
				"method": "rhf"
			},
			{
				"type": "unocc",
				"energy": -0.05518,
				"method": "rhf"
			},
			{
				"type": "unocc",
				"energy": -0.05083,
				"method": "rhf"
			},
			{
				"type": "unocc",
				"energy": -0.01597,
				"method": "rhf"
			},
			{
				"type": "unocc",
				"energy": 0.01371,
				"method": "rhf"
			},
			{
				"type": "unocc",
				"energy": 0.03292,
				"method": "rhf"
			}
		],
		"cosmo_sigma_profile": { 
			"-0.025": 0.0,
			"-0.024": 0.0,
			"-0.023": 0.0,
			"-0.022": 0.0,
			"-0.021": 0.0,
			"-0.02": 0.0,
			"-0.019": 0.0,
			"-0.018": 0.0,
			"-0.017": 0.0,
			"-0.016": 0.0141122654975,
			"-0.015": 0.954972364037,
			"-0.014": 1.11104089344,
			"-0.013": 0.838245735126,
			"-0.012": 1.21131911759,
			"-0.011": 1.22167403286,
			"-0.01": 0.927097552964,
			"-0.009": 1.19204969342,
			"-0.008": 4.87742303204,
			"-0.007": 7.83060154933,
			"-0.006": 15.7774421001,
			"-0.005": 24.9583691027,
			"-0.004": 26.205648255,
			"-0.003": 23.0240086873,
			"-0.002": 23.6121975676,
			"-0.001": 27.139173527,
			"0.0": 22.0653838654,
			"0.001": 22.1796779897,
			"0.002": 22.722666733,
			"0.003": 21.5337369127,
			"0.004": 22.1690050088,
			"0.005": 13.9663864564,
			"0.006": 10.6178500561,
			"0.007": 3.33034162433,
			"0.008": 3.20113949913,
			"0.009": 3.6059741438,
			"0.01": 2.59849070586,
			"0.011": 5.25533987029,
			"0.012": 7.54906878655,
			"0.013": 3.07312986593,
			"0.014": 0.0,
			"0.015": 0.0,
			"0.016": 0.0,
			"0.017": 0.0,
			"0.018": 0.0,
			"0.019": 0.0,
			"0.02": 0.0,
			"0.021": 0.0,
			"0.022": 0.0,
			"0.023": 0.0,
			"0.024": 0.0,
			"0.025": 0.0
		}
	}
}
