{
	 "smiles": "CC(C)(C)C(=O)NC1=NC=CC=C1C(O)=O", 
	 "Tm": 553.15, 
	 "num_atms": 30, 
	 "gaussian": { 
		 "optdone": 1, 
		 "sigma_profile": "yes", 
		 "theory": "DFT", 
		 "functional": "B3LYP", 
		 "basiset": "6-31G**", 
		 "properties": { 
			 "R2extent": 4715.4019, 
			 "electric_dipole_moment_norm": 4.40351047915, 
			 "electric_quadrupole_moment_norm": 12.0745825729, 
			 "total_energy": -762.829261549, 
			 "HOMO_LUMO_gap": 0.16224, 
			 "cosmo_polarized_energy": -17.11, 
			 "cosmo_cavitation_energy": 33.34, 
			 "cosmo_dispersion_energy": -23.43, 
			 "cosmo_repulsion_energy": 1.81, 
			 "cosmo_total_nonelectrostatic_energy": 11.72, 
			 "SMD_solvation_energy": 6.49 
		},
		"coords": [
			{
				"x": -1.2476097251,
				"y": -3.7437497391,
				"z": 0.7117914944,
				"element": "C" 
			},
			{
				"x": -1.0679714965,
				"y": -2.2493647733,
				"z": 1.0212440865,
				"element": "C" 
			},
			{
				"x": -1.3362136142,
				"y": -1.996887006,
				"z": 2.5233436087,
				"element": "C" 
			},
			{
				"x": -2.0535139379,
				"y": -1.4219153571,
				"z": 0.1633441688,
				"element": "C" 
			},
			{
				"x": 0.3933554599,
				"y": -1.8605770752,
				"z": 0.6716993815,
				"element": "C" 
			},
			{
				"x": 1.1982433211,
				"y": -2.6556796172,
				"z": 0.2334733508,
				"element": "O" 
			},
			{
				"x": 0.6710586897,
				"y": -0.5082859806,
				"z": 0.9165652906,
				"element": "N" 
			},
			{
				"x": 1.8410150139,
				"y": 0.2060024108,
				"z": 0.7335849861,
				"element": "C" 
			},
			{
				"x": 2.9197529745,
				"y": -0.4230824538,
				"z": 0.2518972672,
				"element": "N" 
			},
			{
				"x": 4.0407836391,
				"y": 0.2740491812,
				"z": 0.0794463762,
				"element": "C" 
			},
			{
				"x": 4.1781857499,
				"y": 1.6343928723,
				"z": 0.3679577505,
				"element": "C" 
			},
			{
				"x": 3.0659119275,
				"y": 2.2958788372,
				"z": 0.8677554833,
				"element": "C" 
			},
			{
				"x": 1.8648552339,
				"y": 1.600227268,
				"z": 1.0650089201,
				"element": "C" 
			},
			{
				"x": 0.6822283028,
				"y": 2.3007254383,
				"z": 1.5956792837,
				"element": "C" 
			},
			{
				"x": 0.8970121209,
				"y": 3.6111313571,
				"z": 1.8484821065,
				"element": "O" 
			},
			{
				"x": -0.4182721007,
				"y": 1.7993548704,
				"z": 1.8097631559,
				"element": "O" 
			},
			{
				"x": -0.5555957779,
				"y": -4.3536359573,
				"z": 1.2977354454,
				"element": "H" 
			},
			{
				"x": -2.2717681838,
				"y": -4.0512056183,
				"z": 0.9479847347,
				"element": "H" 
			},
			{
				"x": -1.0539266846,
				"y": -3.953908309,
				"z": -0.3429508194,
				"element": "H" 
			},
			{
				"x": -2.3465802452,
				"y": -2.3341909174,
				"z": 2.7786755223,
				"element": "H" 
			},
			{
				"x": -0.629310029,
				"y": -2.5522322053,
				"z": 3.1485123657,
				"element": "H" 
			},
			{
				"x": -1.2677469591,
				"y": -0.9380434904,
				"z": 2.7921089744,
				"element": "H" 
			},
			{
				"x": -1.8618140655,
				"y": -1.5651318682,
				"z": -0.9051599185,
				"element": "H" 
			},
			{
				"x": -3.0799776882,
				"y": -1.7458988018,
				"z": 0.3663682718,
				"element": "H" 
			},
			{
				"x": -2.0011818987,
				"y": -0.3496444377,
				"z": 0.3768077385,
				"element": "H" 
			},
			{
				"x": -0.0842693864,
				"y": 0.0638382376,
				"z": 1.2859098522,
				"element": "H" 
			},
			{
				"x": 4.8851452642,
				"y": -0.2900160327,
				"z": -0.3149751765,
				"element": "H" 
			},
			{
				"x": 5.1194743392,
				"y": 2.1474166228,
				"z": 0.2055571926,
				"element": "H" 
			},
			{
				"x": 3.1066852694,
				"y": 3.3511282863,
				"z": 1.1116053763,
				"element": "H" 
			},
			{
				"x": 0.055744487,
				"y": 3.9571042583,
				"z": 2.1891837299,
				"element": "H" 
			}
		],
		 "valence_orbital": [ 
			{
				"type": "occ",
				"energy": -0.30077,
				"method": "rhf"
			},
			{
				"type": "occ",
				"energy": -0.2967,
				"method": "rhf"
			},
			{
				"type": "occ",
				"energy": -0.27487,
				"method": "rhf"
			},
			{
				"type": "occ",
				"energy": -0.23679,
				"method": "rhf"
			},
			{
				"type": "occ",
				"energy": -0.22939,
				"method": "rhf"
			},
			{
				"type": "unocc",
				"energy": -0.06715,
				"method": "rhf"
			},
			{
				"type": "unocc",
				"energy": -0.02805,
				"method": "rhf"
			},
			{
				"type": "unocc",
				"energy": 0.03718,
				"method": "rhf"
			},
			{
				"type": "unocc",
				"energy": 0.04384,
				"method": "rhf"
			},
			{
				"type": "unocc",
				"energy": 0.06454,
				"method": "rhf"
			}
		],
		"cosmo_sigma_profile": { 
			"-0.025": 0.0,
			"-0.024": 0.0,
			"-0.023": 0.0,
			"-0.022": 0.0,
			"-0.021": 0.0,
			"-0.02": 0.0,
			"-0.019": 0.330408362422,
			"-0.018": 1.04755045532,
			"-0.017": 1.11271445389,
			"-0.016": 0.318669259351,
			"-0.015": 0.614654016151,
			"-0.014": 0.703573539151,
			"-0.013": 1.00813251604,
			"-0.012": 0.865646418936,
			"-0.011": 0.743435671824,
			"-0.01": 0.424342087845,
			"-0.009": 0.413474131053,
			"-0.008": 1.67902822309,
			"-0.007": 6.76582873741,
			"-0.006": 7.68735091694,
			"-0.005": 6.8649618951,
			"-0.004": 13.8138769634,
			"-0.003": 30.1059034116,
			"-0.002": 30.0287998021,
			"-0.001": 33.9054246,
			"0.0": 37.0021668049,
			"0.001": 25.6030876607,
			"0.002": 11.3841795922,
			"0.003": 5.51484541336,
			"0.004": 4.31349753208,
			"0.005": 5.43997695987,
			"0.006": 5.34960256527,
			"0.007": 3.91305178477,
			"0.008": 2.64479728008,
			"0.009": 3.02117632215,
			"0.01": 3.99961290241,
			"0.011": 2.76537567614,
			"0.012": 3.24646584151,
			"0.013": 3.81193608653,
			"0.014": 2.21599912532,
			"0.015": 0.823057748315,
			"0.016": 1.25386236183,
			"0.017": 1.01766471819,
			"0.018": 0.859955605881,
			"0.019": 0.835852589079,
			"0.02": 0.217250853636,
			"0.021": 0.0,
			"0.022": 0.0,
			"0.023": 0.0,
			"0.024": 0.0,
			"0.025": 0.0
		}
	}
}
