{
	 "smiles": "CC1OC(C)OC(C)OC(C)O1", 
	 "Tm": 519.15, 
	 "num_atms": 28, 
	 "gaussian": { 
		 "optdone": 1, 
		 "sigma_profile": "yes", 
		 "theory": "DFT", 
		 "functional": "B3LYP", 
		 "basiset": "6-31G**", 
		 "properties": { 
			 "R2extent": 2143.1966, 
			 "electric_dipole_moment_norm": 1.71968967549, 
			 "electric_quadrupole_moment_norm": 5.61607163683, 
			 "total_energy": -615.374594126, 
			 "HOMO_LUMO_gap": 0.34368, 
			 "cosmo_polarized_energy": -9.1, 
			 "cosmo_cavitation_energy": 27.82, 
			 "cosmo_dispersion_energy": -20.55, 
			 "cosmo_repulsion_energy": 1.65, 
			 "cosmo_total_nonelectrostatic_energy": 8.92, 
			 "SMD_solvation_energy": 4.76 
		},
		"coords": [
			{
				"x": -2.6318812259,
				"y": 0.9335177547,
				"z": 1.9631223919,
				"element": "C" 
			},
			{
				"x": -1.3157100677,
				"y": 0.6909687831,
				"z": 1.2450107105,
				"element": "C" 
			},
			{
				"x": -1.2666398462,
				"y": -0.6890532347,
				"z": 0.9630871758,
				"element": "O" 
			},
			{
				"x": -0.0787946474,
				"y": -1.2663373256,
				"z": 0.4417466581,
				"element": "C" 
			},
			{
				"x": 1.075931098,
				"y": -1.2681625469,
				"z": 1.4440041482,
				"element": "C" 
			},
			{
				"x": 0.2387244395,
				"y": -0.7591570659,
				"z": -0.8465523022,
				"element": "O" 
			},
			{
				"x": 1.2334669735,
				"y": 0.226137108,
				"z": -1.0016295471,
				"element": "C" 
			},
			{
				"x": 1.3628963577,
				"y": 0.4662231671,
				"z": -2.5015960399,
				"element": "C" 
			},
			{
				"x": 1.0430456217,
				"y": 1.3925325101,
				"z": -0.2045918051,
				"element": "O" 
			},
			{
				"x": -0.1412418672,
				"y": 2.1863777944,
				"z": -0.2207389196,
				"element": "C" 
			},
			{
				"x": -0.3933666366,
				"y": 2.9827176475,
				"z": -1.4946827748,
				"element": "C" 
			},
			{
				"x": -1.3135334009,
				"y": 1.4583105072,
				"z": 0.046422983,
				"element": "O" 
			},
			{
				"x": -3.4575025012,
				"y": 0.6489886262,
				"z": 1.3058493283,
				"element": "H" 
			},
			{
				"x": -2.684796956,
				"y": 0.3354817873,
				"z": 2.8764680648,
				"element": "H" 
			},
			{
				"x": -2.7309794168,
				"y": 1.9918024687,
				"z": 2.2182709252,
				"element": "H" 
			},
			{
				"x": -0.4617576813,
				"y": 0.9956286698,
				"z": 1.8664523084,
				"element": "H" 
			},
			{
				"x": -0.3855961138,
				"y": -2.2993105879,
				"z": 0.2516678903,
				"element": "H" 
			},
			{
				"x": 0.7296715628,
				"y": -1.7330560528,
				"z": 2.3706366291,
				"element": "H" 
			},
			{
				"x": 1.440793053,
				"y": -0.2640685129,
				"z": 1.6665922414,
				"element": "H" 
			},
			{
				"x": 1.9092993141,
				"y": -1.86141567,
				"z": 1.0552131146,
				"element": "H" 
			},
			{
				"x": 2.1940074056,
				"y": -0.14095141,
				"z": -0.6161187403,
				"element": "H" 
			},
			{
				"x": 0.390943311,
				"y": 0.6651143523,
				"z": -2.9551934281,
				"element": "H" 
			},
			{
				"x": 2.0367780104,
				"y": 1.3047565884,
				"z": -2.6929315199,
				"element": "H" 
			},
			{
				"x": 1.7746041189,
				"y": -0.431444158,
				"z": -2.9712928554,
				"element": "H" 
			},
			{
				"x": 0.0627773748,
				"y": 2.8849392521,
				"z": 0.6059096589,
				"element": "H" 
			},
			{
				"x": -1.1558785422,
				"y": 3.7405799514,
				"z": -1.29409873,
				"element": "H" 
			},
			{
				"x": -0.7621815669,
				"y": 2.3409614635,
				"z": -2.2960391771,
				"element": "H" 
			},
			{
				"x": 0.5236218293,
				"y": 3.4818181328,
				"z": -1.8168883891,
				"element": "H" 
			}
		],
		 "valence_orbital": [ 
			{
				"type": "occ",
				"energy": -0.30267,
				"method": "rhf"
			},
			{
				"type": "occ",
				"energy": -0.29251,
				"method": "rhf"
			},
			{
				"type": "occ",
				"energy": -0.27064,
				"method": "rhf"
			},
			{
				"type": "occ",
				"energy": -0.26373,
				"method": "rhf"
			},
			{
				"type": "occ",
				"energy": -0.25849,
				"method": "rhf"
			},
			{
				"type": "unocc",
				"energy": 0.08519,
				"method": "rhf"
			},
			{
				"type": "unocc",
				"energy": 0.10172,
				"method": "rhf"
			},
			{
				"type": "unocc",
				"energy": 0.11078,
				"method": "rhf"
			},
			{
				"type": "unocc",
				"energy": 0.12166,
				"method": "rhf"
			},
			{
				"type": "unocc",
				"energy": 0.1257,
				"method": "rhf"
			}
		],
		"cosmo_sigma_profile": { 
			"-0.025": 0.0,
			"-0.024": 0.0,
			"-0.023": 0.0,
			"-0.022": 0.0,
			"-0.021": 0.0,
			"-0.02": 0.0,
			"-0.019": 0.0,
			"-0.018": 0.0,
			"-0.017": 0.0,
			"-0.016": 0.0,
			"-0.015": 0.0,
			"-0.014": 0.0,
			"-0.013": 0.0,
			"-0.012": 0.0,
			"-0.011": 0.0,
			"-0.01": 0.0,
			"-0.009": 0.0,
			"-0.008": 0.0,
			"-0.007": 0.0,
			"-0.006": 2.38154624385,
			"-0.005": 15.8686127787,
			"-0.004": 27.4333528592,
			"-0.003": 28.6734466128,
			"-0.002": 27.7641314395,
			"-0.001": 24.693073717,
			"0.0": 26.350243457,
			"0.001": 12.123179251,
			"0.002": 5.97777110017,
			"0.003": 4.90203302734,
			"0.004": 4.00783491514,
			"0.005": 4.57890463944,
			"0.006": 4.21062109908,
			"0.007": 3.50020855331,
			"0.008": 3.36453258312,
			"0.009": 3.81774692702,
			"0.01": 3.73388547803,
			"0.011": 5.31460272267,
			"0.012": 3.67340879636,
			"0.013": 1.33732700572,
			"0.014": 0.982982566122,
			"0.015": 0.595856440825,
			"0.016": 0.0232091395649,
			"0.017": 0.0,
			"0.018": 0.0,
			"0.019": 0.0,
			"0.02": 0.0,
			"0.021": 0.0,
			"0.022": 0.0,
			"0.023": 0.0,
			"0.024": 0.0,
			"0.025": 0.0
		}
	}
}
