{
	 "smiles": "COC1=C(OCC2=CC=NC=C2)C=C(C=C1)C(O)=O", 
	 "Tm": 475.15, 
	 "num_atms": 32, 
	 "gaussian": { 
		 "optdone": 1, 
		 "sigma_profile": "yes", 
		 "theory": "DFT", 
		 "functional": "B3LYP", 
		 "basiset": "6-31G**", 
		 "properties": { 
			 "R2extent": 7079.4369, 
			 "electric_dipole_moment_norm": 3.33103732342, 
			 "electric_quadrupole_moment_norm": 29.7265994002, 
			 "total_energy": -896.957708936, 
			 "HOMO_LUMO_gap": 0.18933, 
			 "cosmo_polarized_energy": -16.9, 
			 "cosmo_cavitation_energy": 37.37, 
			 "cosmo_dispersion_energy": -26.66, 
			 "cosmo_repulsion_energy": 2.06, 
			 "cosmo_total_nonelectrostatic_energy": 12.77, 
			 "SMD_solvation_energy": 7.08 
		},
		"coords": [
			{
				"x": 2.8465471859,
				"y": -0.9385472889,
				"z": 2.7514922832,
				"element": "C" 
			},
			{
				"x": 1.7608726508,
				"y": -0.7478095308,
				"z": 1.8516831966,
				"element": "O" 
			},
			{
				"x": 1.7061245967,
				"y": 0.4067185374,
				"z": 1.1371354148,
				"element": "C" 
			},
			{
				"x": 0.5803931651,
				"y": 0.5569368139,
				"z": 0.2909470068,
				"element": "C" 
			},
			{
				"x": -0.411145047,
				"y": -0.3956882101,
				"z": 0.259023795,
				"element": "O" 
			},
			{
				"x": -0.073438948,
				"y": -1.6287909526,
				"z": -0.3808527421,
				"element": "C" 
			},
			{
				"x": -1.2442102698,
				"y": -2.5767496397,
				"z": -0.297775855,
				"element": "C" 
			},
			{
				"x": -1.2554603862,
				"y": -3.7452933489,
				"z": -1.067470019,
				"element": "C" 
			},
			{
				"x": -2.3324624028,
				"y": -4.6216155733,
				"z": -0.9509730474,
				"element": "C" 
			},
			{
				"x": -3.3791024675,
				"y": -4.4147224885,
				"z": -0.1403375817,
				"element": "N" 
			},
			{
				"x": -3.35983919,
				"y": -3.2921093782,
				"z": 0.5879717386,
				"element": "C" 
			},
			{
				"x": -2.3295104743,
				"y": -2.3505992078,
				"z": 0.5505083964,
				"element": "C" 
			},
			{
				"x": 0.4304175134,
				"y": 1.7110814298,
				"z": -0.4632600703,
				"element": "C" 
			},
			{
				"x": 1.388493651,
				"y": 2.7361943854,
				"z": -0.3985634609,
				"element": "C" 
			},
			{
				"x": 2.5036961027,
				"y": 2.5803026802,
				"z": 0.4290020086,
				"element": "C" 
			},
			{
				"x": 2.6651884797,
				"y": 1.425873889,
				"z": 1.1917249714,
				"element": "C" 
			},
			{
				"x": 1.2659278329,
				"y": 3.9867742415,
				"z": -1.1835130158,
				"element": "C" 
			},
			{
				"x": 0.1445716834,
				"y": 4.0279207968,
				"z": -1.9489560291,
				"element": "O" 
			},
			{
				"x": 2.0676605659,
				"y": 4.9015892993,
				"z": -1.1688105863,
				"element": "O" 
			},
			{
				"x": 2.6749950086,
				"y": -1.9062618692,
				"z": 3.2239897219,
				"element": "H" 
			},
			{
				"x": 3.8082379926,
				"y": -0.956576812,
				"z": 2.2243471213,
				"element": "H" 
			},
			{
				"x": 2.8691052126,
				"y": -0.1575187295,
				"z": 3.5206793698,
				"element": "H" 
			},
			{
				"x": 0.1871099152,
				"y": -1.4420533026,
				"z": -1.4329920428,
				"element": "H" 
			},
			{
				"x": 0.8015125127,
				"y": -2.0773503173,
				"z": 0.1065664603,
				"element": "H" 
			},
			{
				"x": -0.4414089463,
				"y": -3.9728334921,
				"z": -1.7512332446,
				"element": "H" 
			},
			{
				"x": -2.3574568846,
				"y": -5.5353395938,
				"z": -1.5427708929,
				"element": "H" 
			},
			{
				"x": -4.2161750109,
				"y": -3.1317693546,
				"z": 1.2413649135,
				"element": "H" 
			},
			{
				"x": -2.3689550285,
				"y": -1.4569095564,
				"z": 1.1616902372,
				"element": "H" 
			},
			{
				"x": -0.446177127,
				"y": 1.8080587546,
				"z": -1.0927162423,
				"element": "H" 
			},
			{
				"x": 3.2388449836,
				"y": 3.3765438525,
				"z": 0.4686432517,
				"element": "H" 
			},
			{
				"x": 3.5331850315,
				"y": 1.327487116,
				"z": 1.8323746881,
				"element": "H" 
			},
			{
				"x": 0.1733580986,
				"y": 4.8828568502,
				"z": -2.4085197448,
				"element": "H" 
			}
		],
		 "valence_orbital": [ 
			{
				"type": "occ",
				"energy": -0.26895,
				"method": "rhf"
			},
			{
				"type": "occ",
				"energy": -0.2595,
				"method": "rhf"
			},
			{
				"type": "occ",
				"energy": -0.25746,
				"method": "rhf"
			},
			{
				"type": "occ",
				"energy": -0.24957,
				"method": "rhf"
			},
			{
				"type": "occ",
				"energy": -0.23283,
				"method": "rhf"
			},
			{
				"type": "unocc",
				"energy": -0.0435,
				"method": "rhf"
			},
			{
				"type": "unocc",
				"energy": -0.02003,
				"method": "rhf"
			},
			{
				"type": "unocc",
				"energy": -0.01184,
				"method": "rhf"
			},
			{
				"type": "unocc",
				"energy": -0.00687,
				"method": "rhf"
			},
			{
				"type": "unocc",
				"energy": 0.06118,
				"method": "rhf"
			}
		],
		"cosmo_sigma_profile": { 
			"-0.025": 0.0,
			"-0.024": 0.0,
			"-0.023": 0.0,
			"-0.022": 0.0,
			"-0.021": 0.0,
			"-0.02": 0.0,
			"-0.019": 0.0,
			"-0.018": 0.452803120945,
			"-0.017": 1.49732311223,
			"-0.016": 0.549735831152,
			"-0.015": 0.51630675249,
			"-0.014": 0.512209557778,
			"-0.013": 0.705123974953,
			"-0.012": 0.689336599147,
			"-0.011": 1.13692099226,
			"-0.01": 0.787686569406,
			"-0.009": 0.641768971313,
			"-0.008": 0.754395987539,
			"-0.007": 7.98866779059,
			"-0.006": 24.5756388659,
			"-0.005": 24.1127849301,
			"-0.004": 23.758202609,
			"-0.003": 19.0821927491,
			"-0.002": 16.8870370527,
			"-0.001": 16.0736317086,
			"0.0": 19.0296754834,
			"0.001": 21.9423313963,
			"0.002": 28.4797097345,
			"0.003": 28.6519733858,
			"0.004": 10.3916350618,
			"0.005": 8.34122480363,
			"0.006": 7.16722174984,
			"0.007": 6.55176500022,
			"0.008": 5.44463785583,
			"0.009": 3.87597761709,
			"0.01": 3.2219460945,
			"0.011": 3.91670077947,
			"0.012": 5.76244929124,
			"0.013": 1.89860537727,
			"0.014": 1.10007130709,
			"0.015": 0.595396504746,
			"0.016": 0.944618723509,
			"0.017": 0.545788551736,
			"0.018": 0.0219320018115,
			"0.019": 0.0,
			"0.02": 0.0,
			"0.021": 0.0,
			"0.022": 0.0,
			"0.023": 0.0,
			"0.024": 0.0,
			"0.025": 0.0
		}
	}
}
