{
	 "smiles": "CC1=NC(=C(S1)C=O)C1=CC=CC=C1", 
	 "Tm": 346.65, 
	 "num_atms": 23, 
	 "gaussian": { 
		 "optdone": 1, 
		 "sigma_profile": "yes", 
		 "theory": "DFT", 
		 "functional": "B3LYP", 
		 "basiset": "6-31G**", 
		 "properties": { 
			 "R2extent": 3870.774, 
			 "electric_dipole_moment_norm": 3.11292997191, 
			 "electric_quadrupole_moment_norm": 19.0522841274, 
			 "total_energy": -952.752646596, 
			 "HOMO_LUMO_gap": 0.15696, 
			 "cosmo_polarized_energy": -10.12, 
			 "cosmo_cavitation_energy": 29.2, 
			 "cosmo_dispersion_energy": -21.66, 
			 "cosmo_repulsion_energy": 1.66, 
			 "cosmo_total_nonelectrostatic_energy": 9.21, 
			 "SMD_solvation_energy": 4.4 
		},
		"coords": [
			{
				"x": -3.6651871413,
				"y": -1.6696920122,
				"z": -1.7455802298,
				"element": "C" 
			},
			{
				"x": -2.2847573514,
				"y": -1.0921431557,
				"z": -1.6794035579,
				"element": "C" 
			},
			{
				"x": -1.9629170477,
				"y": -0.0894046419,
				"z": -0.904455122,
				"element": "N" 
			},
			{
				"x": -0.6265966466,
				"y": 0.2313361909,
				"z": -1.0081301369,
				"element": "C" 
			},
			{
				"x": 0.0858312183,
				"y": -0.5376684809,
				"z": -1.9212050785,
				"element": "C" 
			},
			{
				"x": -0.9678581468,
				"y": -1.7368505398,
				"z": -2.6335493705,
				"element": "S" 
			},
			{
				"x": 1.4487053328,
				"y": -0.3997069661,
				"z": -2.4218944194,
				"element": "C" 
			},
			{
				"x": 1.9575183257,
				"y": -1.1668790614,
				"z": -3.2246296149,
				"element": "O" 
			},
			{
				"x": -0.1046442591,
				"y": 1.3243658874,
				"z": -0.1654994067,
				"element": "C" 
			},
			{
				"x": 1.1872332892,
				"y": 1.288866621,
				"z": 0.3867099569,
				"element": "C" 
			},
			{
				"x": 1.6497211336,
				"y": 2.3424987725,
				"z": 1.17444615,
				"element": "C" 
			},
			{
				"x": 0.8272494077,
				"y": 3.4404518213,
				"z": 1.4313533824,
				"element": "C" 
			},
			{
				"x": -0.4678683232,
				"y": 3.473650474,
				"z": 0.9072285035,
				"element": "C" 
			},
			{
				"x": -0.9339231504,
				"y": 2.4229818999,
				"z": 0.1215891465,
				"element": "C" 
			},
			{
				"x": -3.6855428464,
				"y": -2.6902767501,
				"z": -1.3481394122,
				"element": "H" 
			},
			{
				"x": -4.0351390711,
				"y": -1.7079710432,
				"z": -2.7750205104,
				"element": "H" 
			},
			{
				"x": -4.3331797993,
				"y": -1.0479650939,
				"z": -1.1472718671,
				"element": "H" 
			},
			{
				"x": 1.9996580309,
				"y": 0.4814803667,
				"z": -2.0408770846,
				"element": "H" 
			},
			{
				"x": 1.8154967776,
				"y": 0.4174121572,
				"z": 0.2341986989,
				"element": "H" 
			},
			{
				"x": 2.6479720614,
				"y": 2.2970115433,
				"z": 1.5996967342,
				"element": "H" 
			},
			{
				"x": 1.1878551904,
				"y": 4.2593361513,
				"z": 2.0469720254,
				"element": "H" 
			},
			{
				"x": -1.116507869,
				"y": 4.3201726917,
				"z": 1.1130890962,
				"element": "H" 
			},
			{
				"x": -1.9408191154,
				"y": 2.4374931682,
				"z": -0.281127883,
				"element": "H" 
			}
		],
		 "valence_orbital": [ 
			{
				"type": "occ",
				"energy": -0.29066,
				"method": "rhf"
			},
			{
				"type": "occ",
				"energy": -0.2766,
				"method": "rhf"
			},
			{
				"type": "occ",
				"energy": -0.26289,
				"method": "rhf"
			},
			{
				"type": "occ",
				"energy": -0.25137,
				"method": "rhf"
			},
			{
				"type": "occ",
				"energy": -0.23549,
				"method": "rhf"
			},
			{
				"type": "unocc",
				"energy": -0.07853,
				"method": "rhf"
			},
			{
				"type": "unocc",
				"energy": -0.01731,
				"method": "rhf"
			},
			{
				"type": "unocc",
				"energy": -0.01158,
				"method": "rhf"
			},
			{
				"type": "unocc",
				"energy": 0.00974,
				"method": "rhf"
			},
			{
				"type": "unocc",
				"energy": 0.01455,
				"method": "rhf"
			}
		],
		"cosmo_sigma_profile": { 
			"-0.025": 0.0,
			"-0.024": 0.0,
			"-0.023": 0.0,
			"-0.022": 0.0,
			"-0.021": 0.0,
			"-0.02": 0.0,
			"-0.019": 0.0,
			"-0.018": 0.0,
			"-0.017": 0.0,
			"-0.016": 0.0,
			"-0.015": 0.0,
			"-0.014": 0.0,
			"-0.013": 0.0,
			"-0.012": 0.0,
			"-0.011": 0.0,
			"-0.01": 0.0,
			"-0.009": 0.0,
			"-0.008": 0.432669862564,
			"-0.007": 5.3448481283,
			"-0.006": 18.1573275979,
			"-0.005": 20.8495664663,
			"-0.004": 20.0723927294,
			"-0.003": 16.5937300985,
			"-0.002": 20.2353659254,
			"-0.001": 18.9180886369,
			"0.0": 18.0882895352,
			"0.001": 17.3383079973,
			"0.002": 18.0344917046,
			"0.003": 12.9240248693,
			"0.004": 14.9123744372,
			"0.005": 9.55849535531,
			"0.006": 2.53755086817,
			"0.007": 3.47699393312,
			"0.008": 2.44303964521,
			"0.009": 3.26095419213,
			"0.01": 3.22454911935,
			"0.011": 5.12663244971,
			"0.012": 3.87417899632,
			"0.013": 1.39734651359,
			"0.014": 0.0571399720892,
			"0.015": 0.0,
			"0.016": 0.0,
			"0.017": 0.0,
			"0.018": 0.0,
			"0.019": 0.0,
			"0.02": 0.0,
			"0.021": 0.0,
			"0.022": 0.0,
			"0.023": 0.0,
			"0.024": 0.0,
			"0.025": 0.0
		}
	}
}
