{
	 "smiles": "CN(CC(O)=O)S(=O)(=O)C=CC1=CC=CC=C1", 
	 "Tm": 424.15, 
	 "num_atms": 30, 
	 "gaussian": { 
		 "optdone": 1, 
		 "sigma_profile": "yes", 
		 "theory": "DFT", 
		 "functional": "B3LYP", 
		 "basiset": "6-31G**", 
		 "properties": { 
			 "R2extent": 5940.3557, 
			 "electric_dipole_moment_norm": 4.73641807593, 
			 "electric_quadrupole_moment_norm": 22.6134578488, 
			 "total_energy": -1180.75786939, 
			 "HOMO_LUMO_gap": 0.17598, 
			 "cosmo_polarized_energy": -19.86, 
			 "cosmo_cavitation_energy": 36.24, 
			 "cosmo_dispersion_energy": -25.6, 
			 "cosmo_repulsion_energy": 1.97, 
			 "cosmo_total_nonelectrostatic_energy": 12.61, 
			 "SMD_solvation_energy": 6.75 
		},
		"coords": [
			{
				"x": -1.1081343503,
				"y": -2.5722486109,
				"z": -2.6586506828,
				"element": "C" 
			},
			{
				"x": -0.5425778216,
				"y": -1.5805034336,
				"z": -1.7348390618,
				"element": "N" 
			},
			{
				"x": -0.0356653998,
				"y": -0.3669326982,
				"z": -2.3627744378,
				"element": "C" 
			},
			{
				"x": -1.1184007992,
				"y": 0.5633906757,
				"z": -2.8954997569,
				"element": "C" 
			},
			{
				"x": -2.3154931188,
				"y": 0.4083692501,
				"z": -2.291132433,
				"element": "O" 
			},
			{
				"x": -0.9105081368,
				"y": 1.3904832825,
				"z": -3.7538386606,
				"element": "O" 
			},
			{
				"x": 0.4250851416,
				"y": -2.1866766931,
				"z": -0.4705859605,
				"element": "S" 
			},
			{
				"x": 1.8505882283,
				"y": -1.9593990982,
				"z": -0.7503455468,
				"element": "O" 
			},
			{
				"x": -0.073216129,
				"y": -3.5375195033,
				"z": -0.1955485242,
				"element": "O" 
			},
			{
				"x": -0.0642807716,
				"y": -1.1141716737,
				"z": 0.8521135925,
				"element": "C" 
			},
			{
				"x": 0.8456397398,
				"y": -0.3708676264,
				"z": 1.4989680711,
				"element": "C" 
			},
			{
				"x": 0.6154001374,
				"y": 0.5202554005,
				"z": 2.6395073558,
				"element": "C" 
			},
			{
				"x": -0.6457149287,
				"y": 0.6921166284,
				"z": 3.2411127142,
				"element": "C" 
			},
			{
				"x": -0.8033119599,
				"y": 1.554766601,
				"z": 4.3204842172,
				"element": "C" 
			},
			{
				"x": 0.2929205905,
				"y": 2.2640218986,
				"z": 4.8230406774,
				"element": "C" 
			},
			{
				"x": 1.5495282458,
				"y": 2.1031292095,
				"z": 4.2383345962,
				"element": "C" 
			},
			{
				"x": 1.7079566316,
				"y": 1.2385505501,
				"z": 3.1568227848,
				"element": "C" 
			},
			{
				"x": -1.4246304964,
				"y": -3.4476599728,
				"z": -2.0938341896,
				"element": "H" 
			},
			{
				"x": -1.9825146766,
				"y": -2.1250844058,
				"z": -3.1387584983,
				"element": "H" 
			},
			{
				"x": -0.3897926243,
				"y": -2.8818015272,
				"z": -3.4306711032,
				"element": "H" 
			},
			{
				"x": 0.6504953038,
				"y": -0.5694530682,
				"z": -3.1951739462,
				"element": "H" 
			},
			{
				"x": 0.5287749953,
				"y": 0.2147903716,
				"z": -1.6264040336,
				"element": "H" 
			},
			{
				"x": -2.9018086753,
				"y": 1.0697513931,
				"z": -2.6971667752,
				"element": "H" 
			},
			{
				"x": -1.1217777458,
				"y": -1.1750209667,
				"z": 1.0826532742,
				"element": "H" 
			},
			{
				"x": 1.8721095981,
				"y": -0.4321222915,
				"z": 1.1408757066,
				"element": "H" 
			},
			{
				"x": -1.5055661157,
				"y": 0.1462403576,
				"z": 2.8652515934,
				"element": "H" 
			},
			{
				"x": -1.7824557919,
				"y": 1.6754122489,
				"z": 4.7744911028,
				"element": "H" 
			},
			{
				"x": 0.1655211106,
				"y": 2.9361041035,
				"z": 5.6665173747,
				"element": "H" 
			},
			{
				"x": 2.4054727565,
				"y": 2.6489592735,
				"z": 4.623766876,
				"element": "H" 
			},
			{
				"x": 2.6873570625,
				"y": 1.1128203251,
				"z": 2.7028836735,
				"element": "H" 
			}
		],
		 "valence_orbital": [ 
			{
				"type": "occ",
				"energy": -0.30469,
				"method": "rhf"
			},
			{
				"type": "occ",
				"energy": -0.28676,
				"method": "rhf"
			},
			{
				"type": "occ",
				"energy": -0.26882,
				"method": "rhf"
			},
			{
				"type": "occ",
				"energy": -0.26222,
				"method": "rhf"
			},
			{
				"type": "occ",
				"energy": -0.24353,
				"method": "rhf"
			},
			{
				"type": "unocc",
				"energy": -0.06755,
				"method": "rhf"
			},
			{
				"type": "unocc",
				"energy": -0.01768,
				"method": "rhf"
			},
			{
				"type": "unocc",
				"energy": -0.00443,
				"method": "rhf"
			},
			{
				"type": "unocc",
				"energy": 0.02702,
				"method": "rhf"
			},
			{
				"type": "unocc",
				"energy": 0.05989,
				"method": "rhf"
			}
		],
		"cosmo_sigma_profile": { 
			"-0.025": 0.0,
			"-0.024": 0.0,
			"-0.023": 0.0,
			"-0.022": 0.0,
			"-0.021": 0.0,
			"-0.02": 0.0,
			"-0.019": 0.201774944807,
			"-0.018": 1.14142427354,
			"-0.017": 1.08066302666,
			"-0.016": 0.194377120094,
			"-0.015": 0.845951805632,
			"-0.014": 0.80614528252,
			"-0.013": 0.982152346141,
			"-0.012": 0.971818458248,
			"-0.011": 0.52358442941,
			"-0.01": 1.86475397665,
			"-0.009": 3.70901080772,
			"-0.008": 5.54933453002,
			"-0.007": 10.8149284115,
			"-0.006": 18.7471850731,
			"-0.005": 24.1740400666,
			"-0.004": 22.476255445,
			"-0.003": 21.0664315211,
			"-0.002": 18.611776762,
			"-0.001": 13.8227290855,
			"0.0": 15.4054121709,
			"0.001": 15.4416207217,
			"0.002": 17.0235702065,
			"0.003": 14.1931655429,
			"0.004": 18.1383705462,
			"0.005": 8.42337526516,
			"0.006": 4.20254840393,
			"0.007": 3.86027753648,
			"0.008": 6.18310687926,
			"0.009": 7.24596566301,
			"0.01": 10.173826725,
			"0.011": 14.2441300404,
			"0.012": 6.18445305444,
			"0.013": 0.140322075814,
			"0.014": 0.0,
			"0.015": 0.0,
			"0.016": 0.0,
			"0.017": 0.0,
			"0.018": 0.0,
			"0.019": 0.0,
			"0.02": 0.0,
			"0.021": 0.0,
			"0.022": 0.0,
			"0.023": 0.0,
			"0.024": 0.0,
			"0.025": 0.0
		}
	}
}
