{
	 "smiles": "CCCCN(CCCC)CCCC", 
	 "Tm": 203.15, 
	 "num_atms": 40, 
	 "gaussian": { 
		 "optdone": 1, 
		 "sigma_profile": "yes", 
		 "theory": "DFT", 
		 "functional": "B3LYP", 
		 "basiset": "6-31G**", 
		 "properties": { 
			 "R2extent": 3651.7773, 
			 "electric_dipole_moment_norm": 0.676694007658, 
			 "electric_quadrupole_moment_norm": 1.1919511735, 
			 "total_energy": -528.319589238, 
			 "HOMO_LUMO_gap": 0.28118, 
			 "cosmo_polarized_energy": -2.08, 
			 "cosmo_cavitation_energy": 38.59, 
			 "cosmo_dispersion_energy": -25.34, 
			 "cosmo_repulsion_energy": 2.08, 
			 "cosmo_total_nonelectrostatic_energy": 15.33, 
			 "SMD_solvation_energy": 5.85 
		},
		"coords": [
			{
				"x": -3.7034056592,
				"y": 1.9472390425,
				"z": 0.0577640316,
				"element": "C" 
			},
			{
				"x": -3.0274942829,
				"y": 0.8601937787,
				"z": -0.7842614976,
				"element": "C" 
			},
			{
				"x": -1.5548232091,
				"y": 0.6400669862,
				"z": -0.4156053947,
				"element": "C" 
			},
			{
				"x": -0.8849877112,
				"y": -0.4434224745,
				"z": -1.2712332735,
				"element": "C" 
			},
			{
				"x": 0.5367140316,
				"y": -0.6797503685,
				"z": -0.9508315589,
				"element": "N" 
			},
			{
				"x": 0.7493633481,
				"y": -1.9516099788,
				"z": -0.2475624224,
				"element": "C" 
			},
			{
				"x": 0.1568603455,
				"y": -2.0105963903,
				"z": 1.1664207004,
				"element": "C" 
			},
			{
				"x": 0.7912420646,
				"y": -1.0309004669,
				"z": 2.1610589239,
				"element": "C" 
			},
			{
				"x": 0.1843495284,
				"y": -1.1260931444,
				"z": 3.5645303101,
				"element": "C" 
			},
			{
				"x": 1.3984302005,
				"y": -0.5804753031,
				"z": -2.1385542493,
				"element": "C" 
			},
			{
				"x": 1.597022059,
				"y": 0.8426132189,
				"z": -2.6891453615,
				"element": "C" 
			},
			{
				"x": 2.6022100901,
				"y": 1.7255981393,
				"z": -1.9276577625,
				"element": "C" 
			},
			{
				"x": 2.1447075565,
				"y": 2.2139118644,
				"z": -0.5491229238,
				"element": "C" 
			},
			{
				"x": -3.6785045251,
				"y": 1.6947777462,
				"z": 1.1239918516,
				"element": "H" 
			},
			{
				"x": -3.1988367678,
				"y": 2.9125716259,
				"z": -0.0631961609,
				"element": "H" 
			},
			{
				"x": -4.751987178,
				"y": 2.0819191748,
				"z": -0.2275400546,
				"element": "H" 
			},
			{
				"x": -3.1012591057,
				"y": 1.1244969396,
				"z": -1.8484776029,
				"element": "H" 
			},
			{
				"x": -3.5773185462,
				"y": -0.0844476961,
				"z": -0.6700720771,
				"element": "H" 
			},
			{
				"x": -1.4786291019,
				"y": 0.3736319595,
				"z": 0.6455802173,
				"element": "H" 
			},
			{
				"x": -0.9973348233,
				"y": 1.577689751,
				"z": -0.5329504976,
				"element": "H" 
			},
			{
				"x": -1.4541812968,
				"y": -1.3836016959,
				"z": -1.1811352932,
				"element": "H" 
			},
			{
				"x": -0.9728567184,
				"y": -0.1514222348,
				"z": -2.3256478084,
				"element": "H" 
			},
			{
				"x": 1.8321938875,
				"y": -2.1085306139,
				"z": -0.1700826772,
				"element": "H" 
			},
			{
				"x": 0.3513951885,
				"y": -2.8038443152,
				"z": -0.8351261637,
				"element": "H" 
			},
			{
				"x": 0.2892568526,
				"y": -3.0374924239,
				"z": 1.5346057882,
				"element": "H" 
			},
			{
				"x": -0.9286089515,
				"y": -1.8497295171,
				"z": 1.12781844,
				"element": "H" 
			},
			{
				"x": 0.6867181821,
				"y": -0.009738799,
				"z": 1.7786282033,
				"element": "H" 
			},
			{
				"x": 1.8713753745,
				"y": -1.2256082009,
				"z": 2.2144951555,
				"element": "H" 
			},
			{
				"x": 0.3008939911,
				"y": -2.1328607736,
				"z": 3.9826977543,
				"element": "H" 
			},
			{
				"x": 0.6607515975,
				"y": -0.4226789395,
				"z": 4.2554313467,
				"element": "H" 
			},
			{
				"x": -0.8883257033,
				"y": -0.8997895603,
				"z": 3.5494898971,
				"element": "H" 
			},
			{
				"x": 2.3835790322,
				"y": -0.9808985113,
				"z": -1.8700938535,
				"element": "H" 
			},
			{
				"x": 1.0186875943,
				"y": -1.2270998359,
				"z": -2.9546005945,
				"element": "H" 
			},
			{
				"x": 1.9531829183,
				"y": 0.7355940246,
				"z": -3.7224424855,
				"element": "H" 
			},
			{
				"x": 0.630200027,
				"y": 1.3581238978,
				"z": -2.7614951688,
				"element": "H" 
			},
			{
				"x": 3.5465851651,
				"y": 1.1725092889,
				"z": -1.8246060032,
				"element": "H" 
			},
			{
				"x": 2.8347005106,
				"y": 2.5969816986,
				"z": -2.5543029242,
				"element": "H" 
			},
			{
				"x": 1.9188491195,
				"y": 1.3759823612,
				"z": 0.113564545,
				"element": "H" 
			},
			{
				"x": 1.2353487701,
				"y": 2.8211114368,
				"z": -0.631255062,
				"element": "H" 
			},
			{
				"x": 2.9150361451,
				"y": 2.835878309,
				"z": -0.0794782934,
				"element": "H" 
			}
		],
		 "valence_orbital": [ 
			{
				"type": "occ",
				"energy": -0.31734,
				"method": "rhf"
			},
			{
				"type": "occ",
				"energy": -0.31243,
				"method": "rhf"
			},
			{
				"type": "occ",
				"energy": -0.31108,
				"method": "rhf"
			},
			{
				"type": "occ",
				"energy": -0.30734,
				"method": "rhf"
			},
			{
				"type": "occ",
				"energy": -0.20249,
				"method": "rhf"
			},
			{
				"type": "unocc",
				"energy": 0.07869,
				"method": "rhf"
			},
			{
				"type": "unocc",
				"energy": 0.09031,
				"method": "rhf"
			},
			{
				"type": "unocc",
				"energy": 0.09627,
				"method": "rhf"
			},
			{
				"type": "unocc",
				"energy": 0.10358,
				"method": "rhf"
			},
			{
				"type": "unocc",
				"energy": 0.1205,
				"method": "rhf"
			}
		],
		"cosmo_sigma_profile": { 
			"-0.025": 0.0,
			"-0.024": 0.0,
			"-0.023": 0.0,
			"-0.022": 0.0,
			"-0.021": 0.0,
			"-0.02": 0.0,
			"-0.019": 0.0,
			"-0.018": 0.0,
			"-0.017": 0.0,
			"-0.016": 0.0,
			"-0.015": 0.0,
			"-0.014": 0.0,
			"-0.013": 0.0,
			"-0.012": 0.0,
			"-0.011": 0.0,
			"-0.01": 0.0,
			"-0.009": 0.0,
			"-0.008": 0.0,
			"-0.007": 0.0,
			"-0.006": 0.0,
			"-0.005": 0.0,
			"-0.004": 0.202773954542,
			"-0.003": 8.69290655916,
			"-0.002": 45.6049058064,
			"-0.001": 68.6620423473,
			"0.0": 69.3071498101,
			"0.001": 59.2205807497,
			"0.002": 29.7923755582,
			"0.003": 5.91552849645,
			"0.004": 2.30940863861,
			"0.005": 1.21664022583,
			"0.006": 1.38598357047,
			"0.007": 1.4512949198,
			"0.008": 0.837223004925,
			"0.009": 0.341546188235,
			"0.01": 0.0112397122775,
			"0.011": 0.0,
			"0.012": 0.0,
			"0.013": 0.0,
			"0.014": 0.0,
			"0.015": 0.0,
			"0.016": 0.0,
			"0.017": 0.0,
			"0.018": 0.0,
			"0.019": 0.0,
			"0.02": 0.0,
			"0.021": 0.0,
			"0.022": 0.0,
			"0.023": 0.0,
			"0.024": 0.0,
			"0.025": 0.0
		}
	}
}
