{
	 "smiles": "COC(=O)C1=CC(NC(=O)CCl)=C(C)C=C1", 
	 "Tm": 409.15, 
	 "num_atms": 28, 
	 "gaussian": { 
		 "optdone": 1, 
		 "sigma_profile": "yes", 
		 "theory": "DFT", 
		 "functional": "B3LYP", 
		 "basiset": "6-31G**", 
		 "properties": { 
			 "R2extent": 5215.7032, 
			 "electric_dipole_moment_norm": 3.35232056194, 
			 "electric_quadrupole_moment_norm": 28.0339730862, 
			 "total_energy": -1167.0456376, 
			 "HOMO_LUMO_gap": 0.18612, 
			 "cosmo_polarized_energy": -18.18, 
			 "cosmo_cavitation_energy": 34.53, 
			 "cosmo_dispersion_energy": -24.23, 
			 "cosmo_repulsion_energy": 1.93, 
			 "cosmo_total_nonelectrostatic_energy": 12.23, 
			 "SMD_solvation_energy": 8.0 
		},
		"coords": [
			{
				"x": -1.6953022602,
				"y": -3.6298023453,
				"z": 1.3680428733,
				"element": "C" 
			},
			{
				"x": -1.0095812219,
				"y": -2.4857405247,
				"z": 0.833268123,
				"element": "O" 
			},
			{
				"x": -1.4878407055,
				"y": -2.0269221934,
				"z": -0.3458791816,
				"element": "C" 
			},
			{
				"x": -2.4318397114,
				"y": -2.5298520918,
				"z": -0.9225752941,
				"element": "O" 
			},
			{
				"x": -0.7305882714,
				"y": -0.8440743479,
				"z": -0.8457548286,
				"element": "C" 
			},
			{
				"x": 0.3711478516,
				"y": -0.3200447119,
				"z": -0.1603668041,
				"element": "C" 
			},
			{
				"x": 1.0442473298,
				"y": 0.8007006273,
				"z": -0.653467642,
				"element": "C" 
			},
			{
				"x": 2.1616406141,
				"y": 1.338810189,
				"z": 0.0362328483,
				"element": "N" 
			},
			{
				"x": 2.3308323014,
				"y": 1.685493848,
				"z": 1.3648848206,
				"element": "C" 
			},
			{
				"x": 3.3963841792,
				"y": 2.1197312716,
				"z": 1.7596030629,
				"element": "O" 
			},
			{
				"x": 1.1142676918,
				"y": 1.4924260787,
				"z": 2.2777438767,
				"element": "C" 
			},
			{
				"x": 1.1398850704,
				"y": 2.6350944005,
				"z": 3.6611206136,
				"element": "Cl" 
			},
			{
				"x": 0.6495685344,
				"y": 1.389500076,
				"z": -1.8763722559,
				"element": "C" 
			},
			{
				"x": 1.3788438655,
				"y": 2.5878445873,
				"z": -2.429053267,
				"element": "C" 
			},
			{
				"x": -0.4378293479,
				"y": 0.8306767882,
				"z": -2.5580305774,
				"element": "C" 
			},
			{
				"x": -1.1323091264,
				"y": -0.2646774639,
				"z": -2.0533524913,
				"element": "C" 
			},
			{
				"x": -1.6335441026,
				"y": -4.4727597559,
				"z": 0.675453409,
				"element": "H" 
			},
			{
				"x": -2.7478992369,
				"y": -3.39728327,
				"z": 1.5469190711,
				"element": "H" 
			},
			{
				"x": -1.1895000153,
				"y": -3.864554193,
				"z": 2.304378512,
				"element": "H" 
			},
			{
				"x": 0.7123273809,
				"y": -0.8035013318,
				"z": 0.7464579011,
				"element": "H" 
			},
			{
				"x": 2.9829882284,
				"y": 1.5704183157,
				"z": -0.5102345488,
				"element": "H" 
			},
			{
				"x": 0.175441803,
				"y": 1.6348983361,
				"z": 1.7433820182,
				"element": "H" 
			},
			{
				"x": 1.1260523733,
				"y": 0.4843491313,
				"z": 2.6978465262,
				"element": "H" 
			},
			{
				"x": 2.3960835139,
				"y": 2.3323038904,
				"z": -2.7547594877,
				"element": "H" 
			},
			{
				"x": 0.8552471488,
				"y": 2.9966221584,
				"z": -3.2961467193,
				"element": "H" 
			},
			{
				"x": 1.4737722352,
				"y": 3.3792402513,
				"z": -1.6780460326,
				"element": "H" 
			},
			{
				"x": -0.7512400303,
				"y": 1.2771566814,
				"z": -3.4976465734,
				"element": "H" 
			},
			{
				"x": -1.9817560919,
				"y": -0.6862544018,
				"z": -2.579147952,
				"element": "H" 
			}
		],
		 "valence_orbital": [ 
			{
				"type": "occ",
				"energy": -0.29729,
				"method": "rhf"
			},
			{
				"type": "occ",
				"energy": -0.28339,
				"method": "rhf"
			},
			{
				"type": "occ",
				"energy": -0.27037,
				"method": "rhf"
			},
			{
				"type": "occ",
				"energy": -0.26932,
				"method": "rhf"
			},
			{
				"type": "occ",
				"energy": -0.24518,
				"method": "rhf"
			},
			{
				"type": "unocc",
				"energy": -0.05906,
				"method": "rhf"
			},
			{
				"type": "unocc",
				"energy": -0.02936,
				"method": "rhf"
			},
			{
				"type": "unocc",
				"energy": -0.00116,
				"method": "rhf"
			},
			{
				"type": "unocc",
				"energy": 0.0363,
				"method": "rhf"
			},
			{
				"type": "unocc",
				"energy": 0.04632,
				"method": "rhf"
			}
		],
		"cosmo_sigma_profile": { 
			"-0.025": 0.0,
			"-0.024": 0.0,
			"-0.023": 0.0,
			"-0.022": 0.0,
			"-0.021": 0.0,
			"-0.02": 0.0,
			"-0.019": 0.0,
			"-0.018": 0.0,
			"-0.017": 0.0,
			"-0.016": 0.0,
			"-0.015": 0.0,
			"-0.014": 0.670027434015,
			"-0.013": 0.95111982097,
			"-0.012": 1.42145281082,
			"-0.011": 2.3637429864,
			"-0.01": 2.43020975055,
			"-0.009": 4.27751082626,
			"-0.008": 5.30515193241,
			"-0.007": 5.94769609268,
			"-0.006": 15.0957711421,
			"-0.005": 20.4271640746,
			"-0.004": 22.1381891819,
			"-0.003": 22.7029255991,
			"-0.002": 19.1933140464,
			"-0.001": 19.2346376673,
			"0.0": 20.2873334187,
			"0.001": 17.5142333053,
			"0.002": 15.8577993671,
			"0.003": 15.6552535693,
			"0.004": 9.82807072457,
			"0.005": 10.7996215538,
			"0.006": 9.47934907167,
			"0.007": 4.08871254538,
			"0.008": 3.31073452242,
			"0.009": 3.10918464048,
			"0.01": 4.27033299027,
			"0.011": 5.57330066608,
			"0.012": 8.58778142582,
			"0.013": 4.74552016967,
			"0.014": 1.31726461812,
			"0.015": 0.0178138067705,
			"0.016": 0.0,
			"0.017": 0.0,
			"0.018": 0.0,
			"0.019": 0.0,
			"0.02": 0.0,
			"0.021": 0.0,
			"0.022": 0.0,
			"0.023": 0.0,
			"0.024": 0.0,
			"0.025": 0.0
		}
	}
}
