{
	 "smiles": "OCC1=CN(CC2=CC=C(Br)C=C2)N=C1", 
	 "Tm": 346.15, 
	 "num_atms": 26, 
	 "gaussian": { 
		 "optdone": 1, 
		 "sigma_profile": "yes", 
		 "theory": "DFT", 
		 "functional": "B3LYP", 
		 "basiset": "6-31G**", 
		 "properties": { 
			 "R2extent": 7988.7717, 
			 "electric_dipole_moment_norm": 2.86821732266, 
			 "electric_quadrupole_moment_norm": 15.0053760666, 
			 "total_energy": -3181.89734362, 
			 "HOMO_LUMO_gap": 0.21566, 
			 "cosmo_polarized_energy": -13.26, 
			 "cosmo_cavitation_energy": 33.01, 
			 "cosmo_dispersion_energy": -23.87, 
			 "cosmo_repulsion_energy": 1.9, 
			 "cosmo_total_nonelectrostatic_energy": 11.05, 
			 "SMD_solvation_energy": 3.96 
		},
		"coords": [
			{
				"x": 4.9298020305,
				"y": -0.8434075976,
				"z": 1.2958280727,
				"element": "O" 
			},
			{
				"x": 3.9843166397,
				"y": -1.9081470326,
				"z": 1.2448089434,
				"element": "C" 
			},
			{
				"x": 2.5655160943,
				"y": -1.4259465806,
				"z": 1.1648808475,
				"element": "C" 
			},
			{
				"x": 1.570010253,
				"y": -1.8203240076,
				"z": 0.2868490259,
				"element": "C" 
			},
			{
				"x": 0.4491869612,
				"y": -1.1196911028,
				"z": 0.6078865852,
				"element": "N" 
			},
			{
				"x": -0.8346500019,
				"y": -1.1115549904,
				"z": -0.0819157516,
				"element": "C" 
			},
			{
				"x": -0.8897223179,
				"y": -0.1592351029,
				"z": -1.2638051541,
				"element": "C" 
			},
			{
				"x": -0.5323785998,
				"y": 1.187087279,
				"z": -1.1092945236,
				"element": "C" 
			},
			{
				"x": -0.6007395055,
				"y": 2.0698509388,
				"z": -2.1849853247,
				"element": "C" 
			},
			{
				"x": -1.0358727751,
				"y": 1.6010604262,
				"z": -3.4253202243,
				"element": "C" 
			},
			{
				"x": -1.133521049,
				"y": 2.8082188885,
				"z": -4.9045350918,
				"element": "Br" 
			},
			{
				"x": -1.3985548603,
				"y": 0.2688890993,
				"z": -3.6036012677,
				"element": "C" 
			},
			{
				"x": -1.3194085528,
				"y": -0.6048381875,
				"z": -2.5169142169,
				"element": "C" 
			},
			{
				"x": 0.6598088365,
				"y": -0.2632676987,
				"z": 1.6359004977,
				"element": "N" 
			},
			{
				"x": 1.9337253574,
				"y": -0.4501201204,
				"z": 1.9760592435,
				"element": "C" 
			},
			{
				"x": 4.7377483616,
				"y": -0.255913541,
				"z": 0.5528292564,
				"element": "H" 
			},
			{
				"x": 4.1886651474,
				"y": -2.5936533254,
				"z": 0.4065938491,
				"element": "H" 
			},
			{
				"x": 4.151699611,
				"y": -2.4773516929,
				"z": 2.1662333632,
				"element": "H" 
			},
			{
				"x": 1.5767031404,
				"y": -2.5394181599,
				"z": -0.5203697297,
				"element": "H" 
			},
			{
				"x": -1.0545854226,
				"y": -2.1322290315,
				"z": -0.4083461395,
				"element": "H" 
			},
			{
				"x": -1.5765760217,
				"y": -0.835310945,
				"z": 0.6726273978,
				"element": "H" 
			},
			{
				"x": -0.1921427948,
				"y": 1.5391054384,
				"z": -0.1397957829,
				"element": "H" 
			},
			{
				"x": -0.3225961499,
				"y": 3.1105715806,
				"z": -2.0632888101,
				"element": "H" 
			},
			{
				"x": -1.7319793466,
				"y": -0.0826606798,
				"z": -4.5732870247,
				"element": "H" 
			},
			{
				"x": -1.5993259003,
				"y": -1.6464420411,
				"z": -2.6550411666,
				"element": "H" 
			},
			{
				"x": 2.3640708651,
				"y": 0.1155281869,
				"z": 2.7917031257,
				"element": "H" 
			}
		],
		 "valence_orbital": [ 
			{
				"type": "occ",
				"energy": -0.27347,
				"method": "rhf"
			},
			{
				"type": "occ",
				"energy": -0.26912,
				"method": "rhf"
			},
			{
				"type": "occ",
				"energy": -0.25628,
				"method": "rhf"
			},
			{
				"type": "occ",
				"energy": -0.24539,
				"method": "rhf"
			},
			{
				"type": "occ",
				"energy": -0.24009,
				"method": "rhf"
			},
			{
				"type": "unocc",
				"energy": -0.02443,
				"method": "rhf"
			},
			{
				"type": "unocc",
				"energy": -0.01984,
				"method": "rhf"
			},
			{
				"type": "unocc",
				"energy": 0.00376,
				"method": "rhf"
			},
			{
				"type": "unocc",
				"energy": 0.01221,
				"method": "rhf"
			},
			{
				"type": "unocc",
				"energy": 0.04885,
				"method": "rhf"
			}
		],
		"cosmo_sigma_profile": { 
			"-0.025": 0.0,
			"-0.024": 0.0,
			"-0.023": 0.0,
			"-0.022": 0.0,
			"-0.021": 0.0,
			"-0.02": 0.0,
			"-0.019": 0.0,
			"-0.018": 0.0,
			"-0.017": 0.0,
			"-0.016": 0.0,
			"-0.015": 0.535028982259,
			"-0.014": 0.941933370524,
			"-0.013": 0.616815233068,
			"-0.012": 0.868152721661,
			"-0.011": 0.902758641216,
			"-0.01": 1.01109930207,
			"-0.009": 2.06945369899,
			"-0.008": 5.58537922871,
			"-0.007": 12.0993440958,
			"-0.006": 13.2063217966,
			"-0.005": 17.3858300852,
			"-0.004": 20.0177070916,
			"-0.003": 16.0674619374,
			"-0.002": 16.8038790732,
			"-0.001": 15.7530254369,
			"0.0": 14.5693386482,
			"0.001": 18.7029049741,
			"0.002": 22.0018473502,
			"0.003": 26.1161944515,
			"0.004": 24.9654043631,
			"0.005": 12.0176834932,
			"0.006": 3.32563266186,
			"0.007": 2.84787002804,
			"0.008": 2.35012727702,
			"0.009": 1.67290631672,
			"0.01": 2.51321871265,
			"0.011": 2.51170289054,
			"0.012": 2.15214142806,
			"0.013": 1.96845792261,
			"0.014": 3.5287212329,
			"0.015": 1.20592199521,
			"0.016": 0.165610689954,
			"0.017": 0.0,
			"0.018": 0.0,
			"0.019": 0.0,
			"0.02": 0.0,
			"0.021": 0.0,
			"0.022": 0.0,
			"0.023": 0.0,
			"0.024": 0.0,
			"0.025": 0.0
		}
	}
}
