{
	 "smiles": "O=C(CC1=NC2=C(N1)C=CC=C2)C1=CC=CC=C1", 
	 "Tm": 454.15, 
	 "num_atms": 30, 
	 "gaussian": { 
		 "optdone": 1, 
		 "sigma_profile": "yes", 
		 "theory": "DFT", 
		 "functional": "B3LYP", 
		 "basiset": "6-31G**", 
		 "properties": { 
			 "R2extent": 7299.4875, 
			 "electric_dipole_moment_norm": 4.46301552989, 
			 "electric_quadrupole_moment_norm": 13.4905310737, 
			 "total_energy": -763.576994858, 
			 "HOMO_LUMO_gap": 0.13847, 
			 "cosmo_polarized_energy": -13.58, 
			 "cosmo_cavitation_energy": 34.35, 
			 "cosmo_dispersion_energy": -25.65, 
			 "cosmo_repulsion_energy": 1.94, 
			 "cosmo_total_nonelectrostatic_energy": 10.64, 
			 "SMD_solvation_energy": 3.57 
		},
		"coords": [
			{
				"x": 0.4053417384,
				"y": 0.5494322401,
				"z": -0.9087344497,
				"element": "O" 
			},
			{
				"x": -0.1850929098,
				"y": 0.7960285546,
				"z": 0.1385509099,
				"element": "C" 
			},
			{
				"x": -1.5284358326,
				"y": 0.1493581295,
				"z": 0.4656531362,
				"element": "C" 
			},
			{
				"x": -1.9145321279,
				"y": -1.0650572241,
				"z": -0.3275222478,
				"element": "C" 
			},
			{
				"x": -2.7831225503,
				"y": -1.9520796668,
				"z": 0.103511506,
				"element": "N" 
			},
			{
				"x": -2.890359078,
				"y": -2.872152545,
				"z": -0.9304946616,
				"element": "C" 
			},
			{
				"x": -2.0449985355,
				"y": -2.5032301887,
				"z": -2.0070015226,
				"element": "C" 
			},
			{
				"x": -1.4459058976,
				"y": -1.3283817409,
				"z": -1.5924817849,
				"element": "N" 
			},
			{
				"x": -1.9436677184,
				"y": -3.2613063513,
				"z": -3.1756892845,
				"element": "C" 
			},
			{
				"x": -2.7246711502,
				"y": -4.4122254579,
				"z": -3.2460763454,
				"element": "C" 
			},
			{
				"x": -3.575199122,
				"y": -4.7917328068,
				"z": -2.1873582007,
				"element": "C" 
			},
			{
				"x": -3.6686863798,
				"y": -4.0333692496,
				"z": -1.024758203,
				"element": "C" 
			},
			{
				"x": 0.3817978933,
				"y": 1.7875847261,
				"z": 1.1037737478,
				"element": "C" 
			},
			{
				"x": 1.6225105094,
				"y": 2.3690558984,
				"z": 0.7909611367,
				"element": "C" 
			},
			{
				"x": 2.1999023324,
				"y": 3.302654436,
				"z": 1.6449154203,
				"element": "C" 
			},
			{
				"x": 1.5423378955,
				"y": 3.6735648513,
				"z": 2.8219214924,
				"element": "C" 
			},
			{
				"x": 0.3070863279,
				"y": 3.1062138463,
				"z": 3.1404931576,
				"element": "C" 
			},
			{
				"x": -0.2707343456,
				"y": 2.1657630647,
				"z": 2.2885604843,
				"element": "C" 
			},
			{
				"x": -2.2901114191,
				"y": 0.9334110056,
				"z": 0.3285897349,
				"element": "H" 
			},
			{
				"x": -1.5826826284,
				"y": -0.1239707043,
				"z": 1.5224073582,
				"element": "H" 
			},
			{
				"x": -0.6825347065,
				"y": -0.8090462708,
				"z": -2.0057235921,
				"element": "H" 
			},
			{
				"x": -1.2904834747,
				"y": -2.9704788884,
				"z": -3.9929594067,
				"element": "H" 
			},
			{
				"x": -2.6781656936,
				"y": -5.0310119763,
				"z": -4.1375032135,
				"element": "H" 
			},
			{
				"x": -4.1679195367,
				"y": -5.6965943157,
				"z": -2.2856401826,
				"element": "H" 
			},
			{
				"x": -4.3201324652,
				"y": -4.3224613943,
				"z": -0.206172887,
				"element": "H" 
			},
			{
				"x": 2.112378665,
				"y": 2.0694416159,
				"z": -0.1290794758,
				"element": "H" 
			},
			{
				"x": 3.1605989676,
				"y": 3.7435750209,
				"z": 1.3961096914,
				"element": "H" 
			},
			{
				"x": 1.9920622499,
				"y": 4.4032767365,
				"z": 3.4891043068,
				"element": "H" 
			},
			{
				"x": -0.2058898935,
				"y": 3.3940103381,
				"z": 4.0531366238,
				"element": "H" 
			},
			{
				"x": -1.231291114,
				"y": 1.7371283168,
				"z": 2.5532067515,
				"element": "H" 
			}
		],
		 "valence_orbital": [ 
			{
				"type": "occ",
				"energy": -0.27389,
				"method": "rhf"
			},
			{
				"type": "occ",
				"energy": -0.27046,
				"method": "rhf"
			},
			{
				"type": "occ",
				"energy": -0.26134,
				"method": "rhf"
			},
			{
				"type": "occ",
				"energy": -0.21683,
				"method": "rhf"
			},
			{
				"type": "occ",
				"energy": -0.21176,
				"method": "rhf"
			},
			{
				"type": "unocc",
				"energy": -0.07329,
				"method": "rhf"
			},
			{
				"type": "unocc",
				"energy": -0.02128,
				"method": "rhf"
			},
			{
				"type": "unocc",
				"energy": -0.00539,
				"method": "rhf"
			},
			{
				"type": "unocc",
				"energy": 0.02419,
				"method": "rhf"
			},
			{
				"type": "unocc",
				"energy": 0.03289,
				"method": "rhf"
			}
		],
		"cosmo_sigma_profile": { 
			"-0.025": 0.0,
			"-0.024": 0.0,
			"-0.023": 0.0,
			"-0.022": 0.0,
			"-0.021": 0.0,
			"-0.02": 0.0,
			"-0.019": 0.0,
			"-0.018": 0.0,
			"-0.017": 0.0,
			"-0.016": 0.0,
			"-0.015": 0.0,
			"-0.014": 0.0,
			"-0.013": 0.192287657772,
			"-0.012": 0.660731056862,
			"-0.011": 0.897357812001,
			"-0.01": 0.637501753354,
			"-0.009": 2.41221182202,
			"-0.008": 7.05501264177,
			"-0.007": 10.2122379258,
			"-0.006": 16.7158576817,
			"-0.005": 22.2964032348,
			"-0.004": 21.0482782012,
			"-0.003": 18.9087301411,
			"-0.002": 15.7376364385,
			"-0.001": 15.4479070181,
			"0.0": 15.7421564332,
			"0.001": 16.5118288268,
			"0.002": 20.8680507225,
			"0.003": 22.1168308313,
			"0.004": 21.5186483805,
			"0.005": 13.1500140712,
			"0.006": 12.0705779701,
			"0.007": 5.61490874021,
			"0.008": 2.84905592535,
			"0.009": 3.13833975291,
			"0.01": 3.03910546673,
			"0.011": 1.12212878504,
			"0.012": 0.81812191542,
			"0.013": 0.915955637339,
			"0.014": 1.75766906435,
			"0.015": 0.648715415365,
			"0.016": 0.495307740097,
			"0.017": 1.17972023325,
			"0.018": 0.474756193385,
			"0.019": 0.00068706901301,
			"0.02": 0.0,
			"0.021": 0.0,
			"0.022": 0.0,
			"0.023": 0.0,
			"0.024": 0.0,
			"0.0": 0.0
		}
	}
}
