{
	 "smiles": "COC(=O)C1=C(N=C=S)C(C)=CS1", 
	 "Tm": 332.15, 
	 "num_atms": 20, 
	 "gaussian": { 
		 "optdone": 1, 
		 "sigma_profile": "yes", 
		 "theory": "DFT", 
		 "functional": "B3LYP", 
		 "basiset": "6-31G**", 
		 "properties": { 
			 "R2extent": 3757.1753, 
			 "electric_dipole_moment_norm": 2.23305782505, 
			 "electric_quadrupole_moment_norm": 14.1178625305, 
			 "total_energy": -1310.63821033, 
			 "HOMO_LUMO_gap": 0.16021, 
			 "cosmo_polarized_energy": -8.27, 
			 "cosmo_cavitation_energy": 29.36, 
			 "cosmo_dispersion_energy": -21.39, 
			 "cosmo_repulsion_energy": 1.62, 
			 "cosmo_total_nonelectrostatic_energy": 9.59, 
			 "SMD_solvation_energy": 6.86 
		},
		"coords": [
			{
				"x": 0.9063799451,
				"y": -2.8998608791,
				"z": -1.8391885027,
				"element": "C" 
			},
			{
				"x": 0.3551328994,
				"y": -2.0523917069,
				"z": -0.8155062541,
				"element": "O" 
			},
			{
				"x": 0.2671325553,
				"y": -0.7446626796,
				"z": -1.1325873731,
				"element": "C" 
			},
			{
				"x": 0.6197799626,
				"y": -0.2779057978,
				"z": -2.2002584813,
				"element": "O" 
			},
			{
				"x": -0.3033724833,
				"y": 0.061992085,
				"z": -0.0450085925,
				"element": "C" 
			},
			{
				"x": -0.7611745843,
				"y": -0.27273742,
				"z": 1.2265217262,
				"element": "C" 
			},
			{
				"x": -0.7758783646,
				"y": -1.5261213678,
				"z": 1.7727116197,
				"element": "N" 
			},
			{
				"x": -0.6072324129,
				"y": -2.7076739621,
				"z": 1.8349509744,
				"element": "C" 
			},
			{
				"x": -0.4330219949,
				"y": -4.2714197655,
				"z": 2.0387414081,
				"element": "S" 
			},
			{
				"x": -1.2486499191,
				"y": 0.8532786929,
				"z": 1.9775159613,
				"element": "C" 
			},
			{
				"x": -1.7927845596,
				"y": 0.7413597159,
				"z": 3.3726791281,
				"element": "C" 
			},
			{
				"x": -1.1431237882,
				"y": 2.0063484363,
				"z": 1.2467925218,
				"element": "C" 
			},
			{
				"x": -0.4701344067,
				"y": 1.7688830084,
				"z": -0.3259466066,
				"element": "S" 
			},
			{
				"x": 0.2935399724,
				"y": -2.8555838086,
				"z": -2.7426366701,
				"element": "H" 
			},
			{
				"x": 1.9243932071,
				"y": -2.5886673333,
				"z": -2.0853351783,
				"element": "H" 
			},
			{
				"x": 0.9000485307,
				"y": -3.9033409828,
				"z": -1.4158717072,
				"element": "H" 
			},
			{
				"x": -1.0419892692,
				"y": 0.3344091941,
				"z": 4.0587857955,
				"element": "H" 
			},
			{
				"x": -2.6571842283,
				"y": 0.0693100608,
				"z": 3.4075798185,
				"element": "H" 
			},
			{
				"x": -2.1049469151,
				"y": 1.7182459823,
				"z": 3.7491943216,
				"element": "H" 
			},
			{
				"x": -1.4325141463,
				"y": 3.0005385277,
				"z": 1.5603660907,
				"element": "H" 
			}
		],
		 "valence_orbital": [ 
			{
				"type": "occ",
				"energy": -0.29737,
				"method": "rhf"
			},
			{
				"type": "occ",
				"energy": -0.28554,
				"method": "rhf"
			},
			{
				"type": "occ",
				"energy": -0.26277,
				"method": "rhf"
			},
			{
				"type": "occ",
				"energy": -0.25552,
				"method": "rhf"
			},
			{
				"type": "occ",
				"energy": -0.23432,
				"method": "rhf"
			},
			{
				"type": "unocc",
				"energy": -0.07411,
				"method": "rhf"
			},
			{
				"type": "unocc",
				"energy": -0.02086,
				"method": "rhf"
			},
			{
				"type": "unocc",
				"energy": -0.00355,
				"method": "rhf"
			},
			{
				"type": "unocc",
				"energy": 0.02423,
				"method": "rhf"
			},
			{
				"type": "unocc",
				"energy": 0.03593,
				"method": "rhf"
			}
		],
		"cosmo_sigma_profile": { 
			"-0.025": 0.0,
			"-0.024": 0.0,
			"-0.023": 0.0,
			"-0.022": 0.0,
			"-0.021": 0.0,
			"-0.02": 0.0,
			"-0.019": 0.0,
			"-0.018": 0.0,
			"-0.017": 0.0,
			"-0.016": 0.0,
			"-0.015": 0.0,
			"-0.014": 0.0,
			"-0.013": 0.0,
			"-0.012": 0.0,
			"-0.011": 0.0,
			"-0.01": 0.533078328298,
			"-0.009": 2.33654125903,
			"-0.008": 2.33181850069,
			"-0.007": 2.9604436337,
			"-0.006": 7.79744862499,
			"-0.005": 13.0714652416,
			"-0.004": 17.1778289017,
			"-0.003": 18.2866016041,
			"-0.002": 21.2344857416,
			"-0.001": 28.4828856172,
			"0.0": 28.0489861578,
			"0.001": 20.6650547892,
			"0.002": 21.4626589789,
			"0.003": 17.110452001,
			"0.004": 11.8515439188,
			"0.005": 12.0600780586,
			"0.006": 1.84931690151,
			"0.007": 1.81479712915,
			"0.008": 1.28200949887,
			"0.009": 1.72983867458,
			"0.01": 2.3420067988,
			"0.011": 3.73961210349,
			"0.012": 2.98810801286,
			"0.013": 0.00198406545993,
			"0.014": 0.0,
			"0.015": 0.0,
			"0.016": 0.0,
			"0.017": 0.0,
			"0.018": 0.0,
			"0.019": 0.0,
			"0.02": 0.0,
			"0.021": 0.0,
			"0.022": 0.0,
			"0.023": 0.0,
			"0.024": 0.0,
			"0.025": 0.0
		}
	}
}
