{
	 "smiles": "O=C1NC2=C(C=CC=C2)N1C1=CC=CC=C1", 
	 "Tm": 480.15, 
	 "num_atms": 26, 
	 "gaussian": { 
		 "optdone": 1, 
		 "sigma_profile": "yes", 
		 "theory": "DFT", 
		 "functional": "B3LYP", 
		 "basiset": "6-31G**", 
		 "properties": { 
			 "R2extent": 4108.5042, 
			 "electric_dipole_moment_norm": 2.41278720363, 
			 "electric_quadrupole_moment_norm": 16.9299793122, 
			 "total_energy": -686.170893944, 
			 "HOMO_LUMO_gap": 0.1918, 
			 "cosmo_polarized_energy": -12.78, 
			 "cosmo_cavitation_energy": 29.89, 
			 "cosmo_dispersion_energy": -22.14, 
			 "cosmo_repulsion_energy": 1.7, 
			 "cosmo_total_nonelectrostatic_energy": 9.45, 
			 "SMD_solvation_energy": 5.55 
		},
		"coords": [
			{
				"x": 3.3607025973,
				"y": 1.9940468684,
				"z": -0.9081388557,
				"element": "O" 
			},
			{
				"x": 2.6050653089,
				"y": 1.6137824705,
				"z": -0.0325775211,
				"element": "C" 
			},
			{
				"x": 2.7364477307,
				"y": 1.8116971552,
				"z": 1.3372266074,
				"element": "N" 
			},
			{
				"x": 1.6946334035,
				"y": 1.2216651886,
				"z": 2.0408520242,
				"element": "C" 
			},
			{
				"x": 0.8470364579,
				"y": 0.6283785214,
				"z": 1.0825691262,
				"element": "C" 
			},
			{
				"x": -0.277990438,
				"y": -0.0876903272,
				"z": 1.477988161,
				"element": "C" 
			},
			{
				"x": -0.5487818329,
				"y": -0.1751508227,
				"z": 2.8497129947,
				"element": "C" 
			},
			{
				"x": 0.2847396733,
				"y": 0.4293124019,
				"z": 3.795139305,
				"element": "C" 
			},
			{
				"x": 1.4277148739,
				"y": 1.1359320467,
				"z": 3.4007589961,
				"element": "C" 
			},
			{
				"x": 1.4081680003,
				"y": 0.8790815046,
				"z": -0.1793882464,
				"element": "N" 
			},
			{
				"x": 0.8582678254,
				"y": 0.5315465036,
				"z": -1.4446286013,
				"element": "C" 
			},
			{
				"x": 1.6866846069,
				"y": 0.0161890384,
				"z": -2.4487315258,
				"element": "C" 
			},
			{
				"x": 1.1406547106,
				"y": -0.3186534557,
				"z": -3.6867523399,
				"element": "C" 
			},
			{
				"x": -0.2251870075,
				"y": -0.157326412,
				"z": -3.9287651073,
				"element": "C" 
			},
			{
				"x": -1.0459675492,
				"y": 0.3606502711,
				"z": -2.9259838378,
				"element": "C" 
			},
			{
				"x": -0.5081315863,
				"y": 0.7161530076,
				"z": -1.689104231,
				"element": "C" 
			},
			{
				"x": 3.5273120662,
				"y": 2.3049793739,
				"z": 1.7186084839,
				"element": "H" 
			},
			{
				"x": -0.9204542795,
				"y": -0.5696922723,
				"z": 0.7505794692,
				"element": "H" 
			},
			{
				"x": -1.4234323343,
				"y": -0.7268336288,
				"z": 3.1798648524,
				"element": "H" 
			},
			{
				"x": 0.0490290732,
				"y": 0.3477762442,
				"z": 4.8515746895,
				"element": "H" 
			},
			{
				"x": 2.0854842232,
				"y": 1.5956023645,
				"z": 4.1318116182,
				"element": "H" 
			},
			{
				"x": 2.746349857,
				"y": -0.1002997818,
				"z": -2.2591022362,
				"element": "H" 
			},
			{
				"x": 1.7881712209,
				"y": -0.7140146433,
				"z": -4.4638487018,
				"element": "H" 
			},
			{
				"x": -0.6451159071,
				"y": -0.4274696087,
				"z": -4.8930232729,
				"element": "H" 
			},
			{
				"x": -2.1072740125,
				"y": 0.5031740494,
				"z": -3.1075174385,
				"element": "H" 
			},
			{
				"x": -1.1394266816,
				"y": 1.1504639424,
				"z": -0.9214244122,
				"element": "H" 
			}
		],
		 "valence_orbital": [ 
			{
				"type": "occ",
				"energy": -0.27103,
				"method": "rhf"
			},
			{
				"type": "occ",
				"energy": -0.25986,
				"method": "rhf"
			},
			{
				"type": "occ",
				"energy": -0.253,
				"method": "rhf"
			},
			{
				"type": "occ",
				"energy": -0.23224,
				"method": "rhf"
			},
			{
				"type": "occ",
				"energy": -0.2054,
				"method": "rhf"
			},
			{
				"type": "unocc",
				"energy": -0.0136,
				"method": "rhf"
			},
			{
				"type": "unocc",
				"energy": -0.00692,
				"method": "rhf"
			},
			{
				"type": "unocc",
				"energy": -0.00465,
				"method": "rhf"
			},
			{
				"type": "unocc",
				"energy": 0.01457,
				"method": "rhf"
			},
			{
				"type": "unocc",
				"energy": 0.06841,
				"method": "rhf"
			}
		],
		"cosmo_sigma_profile": { 
			"-0.025": 0.0,
			"-0.024": 0.0,
			"-0.023": 0.0,
			"-0.022": 0.0,
			"-0.021": 0.0,
			"-0.02": 0.0,
			"-0.019": 0.0,
			"-0.018": 0.0,
			"-0.017": 0.0871375188456,
			"-0.016": 1.41982950997,
			"-0.015": 1.17177677779,
			"-0.014": 1.43121327777,
			"-0.013": 0.700800594423,
			"-0.012": 0.809336576498,
			"-0.011": 1.20306568359,
			"-0.01": 1.28705491723,
			"-0.009": 0.882576402983,
			"-0.008": 1.38746667599,
			"-0.007": 2.92780971024,
			"-0.006": 12.8727145165,
			"-0.005": 18.0519505386,
			"-0.004": 21.3208153123,
			"-0.003": 17.3232155527,
			"-0.002": 16.1385176999,
			"-0.001": 17.0613131627,
			"0.0": 16.1771862744,
			"0.001": 17.7888037474,
			"0.002": 14.5405672678,
			"0.003": 15.5850509524,
			"0.004": 17.0250478898,
			"0.005": 18.1285137575,
			"0.006": 6.76297731095,
			"0.007": 1.60814555169,
			"0.008": 1.88797150616,
			"0.009": 0.971078047677,
			"0.01": 1.39226801778,
			"0.011": 2.35305258528,
			"0.012": 2.19817891828,
			"0.013": 5.75362216887,
			"0.014": 2.15254396399,
			"0.015": 0.0,
			"0.016": 0.0,
			"0.017": 0.0,
			"0.018": 0.0,
			"0.019": 0.0,
			"0.02": 0.0,
			"0.021": 0.0,
			"0.022": 0.0,
			"0.023": 0.0,
			"0.024": 0.0,
			"0.025": 0.0
		}
	}
}
