{
	 "smiles": "COC1=CC=CC=C1N=NC1=CC=CC=C1", 
	 "Tm": 314.15, 
	 "num_atms": 28, 
	 "gaussian": { 
		 "optdone": 1, 
		 "sigma_profile": "yes", 
		 "theory": "DFT", 
		 "functional": "B3LYP", 
		 "basiset": "6-31G**", 
		 "properties": { 
			 "R2extent": 5203.6739, 
			 "electric_dipole_moment_norm": 0.980321625794, 
			 "electric_quadrupole_moment_norm": 12.4778328038, 
			 "total_energy": -687.281747637, 
			 "HOMO_LUMO_gap": 0.13539, 
			 "cosmo_polarized_energy": -6.73, 
			 "cosmo_cavitation_energy": 32.39, 
			 "cosmo_dispersion_energy": -23.53, 
			 "cosmo_repulsion_energy": 1.81, 
			 "cosmo_total_nonelectrostatic_energy": 10.68, 
			 "SMD_solvation_energy": 5.4 
		},
		"coords": [
			{
				"x": -2.430603911,
				"y": 0.0111544105,
				"z": 2.1591708223,
				"element": "C" 
			},
			{
				"x": -2.1508409554,
				"y": -1.3717833122,
				"z": 2.3588968156,
				"element": "O" 
			},
			{
				"x": -0.9659403839,
				"y": -1.9632696765,
				"z": 2.0727381642,
				"element": "C" 
			},
			{
				"x": -0.964865117,
				"y": -3.3431693338,
				"z": 2.3641300939,
				"element": "C" 
			},
			{
				"x": 0.1542733265,
				"y": -4.1248300397,
				"z": 2.1410251205,
				"element": "C" 
			},
			{
				"x": 1.3236651283,
				"y": -3.5501834316,
				"z": 1.6136712145,
				"element": "C" 
			},
			{
				"x": 1.3403211056,
				"y": -2.2006077779,
				"z": 1.3227332872,
				"element": "C" 
			},
			{
				"x": 0.2114056906,
				"y": -1.375360621,
				"z": 1.5402059319,
				"element": "C" 
			},
			{
				"x": 0.2164755871,
				"y": 0.0039690044,
				"z": 1.2475285056,
				"element": "N" 
			},
			{
				"x": 1.3028546623,
				"y": 0.4484047628,
				"z": 0.7785443781,
				"element": "N" 
			},
			{
				"x": 1.3086000282,
				"y": 1.8334649764,
				"z": 0.4842569033,
				"element": "C" 
			},
			{
				"x": 2.5142083563,
				"y": 2.3283230868,
				"z": -0.0341227044,
				"element": "C" 
			},
			{
				"x": 2.6404696983,
				"y": 3.6769147714,
				"z": -0.3619786784,
				"element": "C" 
			},
			{
				"x": 1.5614749317,
				"y": 4.5427020179,
				"z": -0.1742881191,
				"element": "C" 
			},
			{
				"x": 0.3555587332,
				"y": 4.05294863,
				"z": 0.3429407076,
				"element": "C" 
			},
			{
				"x": 0.2235082209,
				"y": 2.7084993479,
				"z": 0.6719925098,
				"element": "C" 
			},
			{
				"x": -2.3362516737,
				"y": 0.2939768174,
				"z": 1.1075108699,
				"element": "H" 
			},
			{
				"x": -3.4645813311,
				"y": 0.1347090732,
				"z": 2.4898030439,
				"element": "H" 
			},
			{
				"x": -1.7680461409,
				"y": 0.6465739412,
				"z": 2.7525477939,
				"element": "H" 
			},
			{
				"x": -1.8784434177,
				"y": -3.764315976,
				"z": 2.7700521693,
				"element": "H" 
			},
			{
				"x": 0.1228006124,
				"y": -5.1849048113,
				"z": 2.3759562614,
				"element": "H" 
			},
			{
				"x": 2.2043091238,
				"y": -4.1598296626,
				"z": 1.4367983567,
				"element": "H" 
			},
			{
				"x": 2.2229516327,
				"y": -1.7219643568,
				"z": 0.9153727946,
				"element": "H" 
			},
			{
				"x": 3.3358706648,
				"y": 1.6321515955,
				"z": -0.1693019541,
				"element": "H" 
			},
			{
				"x": 3.5777299812,
				"y": 4.051616313,
				"z": -0.7627781793,
				"element": "H" 
			},
			{
				"x": 1.6556342804,
				"y": 5.5944889488,
				"z": -0.4285791602,
				"element": "H" 
			},
			{
				"x": -0.4834188173,
				"y": 4.7278900396,
				"z": 0.4883803584,
				"element": "H" 
			},
			{
				"x": -0.7044200162,
				"y": 2.3185312625,
				"z": 1.0726926929,
				"element": "H" 
			}
		],
		 "valence_orbital": [ 
			{
				"type": "occ",
				"energy": -0.27291,
				"method": "rhf"
			},
			{
				"type": "occ",
				"energy": -0.25533,
				"method": "rhf"
			},
			{
				"type": "occ",
				"energy": -0.23497,
				"method": "rhf"
			},
			{
				"type": "occ",
				"energy": -0.22192,
				"method": "rhf"
			},
			{
				"type": "occ",
				"energy": -0.2136,
				"method": "rhf"
			},
			{
				"type": "unocc",
				"energy": -0.07821,
				"method": "rhf"
			},
			{
				"type": "unocc",
				"energy": -0.00434,
				"method": "rhf"
			},
			{
				"type": "unocc",
				"energy": 0.00359,
				"method": "rhf"
			},
			{
				"type": "unocc",
				"energy": 0.01352,
				"method": "rhf"
			},
			{
				"type": "unocc",
				"energy": 0.0466,
				"method": "rhf"
			}
		],
		"cosmo_sigma_profile": { 
			"-0.025": 0.0,
			"-0.024": 0.0,
			"-0.023": 0.0,
			"-0.022": 0.0,
			"-0.021": 0.0,
			"-0.02": 0.0,
			"-0.019": 0.0,
			"-0.018": 0.0,
			"-0.017": 0.0,
			"-0.016": 0.0,
			"-0.015": 0.0,
			"-0.014": 0.0,
			"-0.013": 0.0,
			"-0.012": 0.0,
			"-0.011": 0.0,
			"-0.01": 0.0,
			"-0.009": 0.0,
			"-0.008": 0.0,
			"-0.007": 1.08220834088,
			"-0.006": 12.4525504026,
			"-0.005": 19.9282729441,
			"-0.004": 28.5105373315,
			"-0.003": 21.5258335083,
			"-0.002": 19.1570968833,
			"-0.001": 15.5781959467,
			"0.0": 13.7000131715,
			"0.001": 18.6707589978,
			"0.002": 28.58680182,
			"0.003": 30.2773932789,
			"0.004": 25.9407528924,
			"0.005": 14.8283455588,
			"0.006": 3.14042480144,
			"0.007": 2.7875947373,
			"0.008": 2.45658138167,
			"0.009": 1.16261810952,
			"0.01": 0.14856501025,
			"0.011": 0.0,
			"0.012": 0.0,
			"0.013": 0.0,
			"0.014": 0.0,
			"0.015": 0.0,
			"0.016": 0.0,
			"0.017": 0.0,
			"0.018": 0.0,
			"0.019": 0.0,
			"0.02": 0.0,
			"0.021": 0.0,
			"0.022": 0.0,
			"0.023": 0.0,
			"0.024": 0.0,
			"0.025": 0.0
		}
	}
}
