{
	 "smiles": "CC1=NN=C(NC(=O)OCC(F)(F)F)S1", 
	 "Tm": 505.15, 
	 "num_atms": 21, 
	 "gaussian": { 
		 "optdone": 1, 
		 "sigma_profile": "yes", 
		 "theory": "DFT", 
		 "functional": "B3LYP", 
		 "basiset": "6-31G**", 
		 "properties": { 
			 "R2extent": 4154.5974, 
			 "electric_dipole_moment_norm": 3.10264516502, 
			 "electric_quadrupole_moment_norm": 9.50063283419, 
			 "total_energy": -1244.65898361, 
			 "HOMO_LUMO_gap": 0.20938, 
			 "cosmo_polarized_energy": -14.33, 
			 "cosmo_cavitation_energy": 29.77, 
			 "cosmo_dispersion_energy": -21.21, 
			 "cosmo_repulsion_energy": 1.58, 
			 "cosmo_total_nonelectrostatic_energy": 10.14, 
			 "SMD_solvation_energy": 5.62 
		},
		"coords": [
			{
				"x": 4.2240137805,
				"y": 0.6157323163,
				"z": -0.4021033309,
				"element": "C" 
			},
			{
				"x": 2.8370118325,
				"y": 1.0168388222,
				"z": -0.0122663517,
				"element": "C" 
			},
			{
				"x": 2.5146228726,
				"y": 2.2104733612,
				"z": 0.3865811668,
				"element": "N" 
			},
			{
				"x": 1.1880073202,
				"y": 2.3481065962,
				"z": 0.6948575238,
				"element": "N" 
			},
			{
				"x": 0.5167882149,
				"y": 1.2428166306,
				"z": 0.5242371441,
				"element": "C" 
			},
			{
				"x": -0.8489457214,
				"y": 1.2359778615,
				"z": 0.7742532971,
				"element": "N" 
			},
			{
				"x": -1.7773989038,
				"y": 0.2253109815,
				"z": 0.7106865304,
				"element": "C" 
			},
			{
				"x": -2.9620076202,
				"y": 0.3877977007,
				"z": 0.8996748536,
				"element": "O" 
			},
			{
				"x": -1.1769037993,
				"y": -0.9658725791,
				"z": 0.4345099437,
				"element": "O" 
			},
			{
				"x": -2.0413939342,
				"y": -2.0706983175,
				"z": 0.1811180415,
				"element": "C" 
			},
			{
				"x": -1.9934527734,
				"y": -2.4002278887,
				"z": -1.301076166,
				"element": "C" 
			},
			{
				"x": -0.7455288092,
				"y": -2.7144276717,
				"z": -1.6982040187,
				"element": "F" 
			},
			{
				"x": -2.4138987619,
				"y": -1.3630462882,
				"z": -2.0468403051,
				"element": "F" 
			},
			{
				"x": -2.7915304222,
				"y": -3.457500954,
				"z": -1.5501579442,
				"element": "F" 
			},
			{
				"x": 1.4740416526,
				"y": -0.1077976467,
				"z": -0.048552362,
				"element": "S" 
			},
			{
				"x": 4.2668796499,
				"y": 0.2738554121,
				"z": -1.4414523525,
				"element": "H" 
			},
			{
				"x": 4.8736750814,
				"y": 1.4858254776,
				"z": -0.290086516,
				"element": "H" 
			},
			{
				"x": 4.6025843482,
				"y": -0.1922344274,
				"z": 0.232682612,
				"element": "H" 
			},
			{
				"x": -1.2263965885,
				"y": 2.141427728,
				"z": 1.0259731477,
				"element": "H" 
			},
			{
				"x": -1.6709345091,
				"y": -2.925300615,
				"z": 0.7498255036,
				"element": "H" 
			},
			{
				"x": -3.0648329096,
				"y": -1.8280564996,
				"z": 0.4707395828,
				"element": "H" 
			}
		],
		 "valence_orbital": [ 
			{
				"type": "occ",
				"energy": -0.3201,
				"method": "rhf"
			},
			{
				"type": "occ",
				"energy": -0.30527,
				"method": "rhf"
			},
			{
				"type": "occ",
				"energy": -0.29905,
				"method": "rhf"
			},
			{
				"type": "occ",
				"energy": -0.26918,
				"method": "rhf"
			},
			{
				"type": "occ",
				"energy": -0.25004,
				"method": "rhf"
			},
			{
				"type": "unocc",
				"energy": -0.04066,
				"method": "rhf"
			},
			{
				"type": "unocc",
				"energy": 0.00018,
				"method": "rhf"
			},
			{
				"type": "unocc",
				"energy": 0.01413,
				"method": "rhf"
			},
			{
				"type": "unocc",
				"energy": 0.04892,
				"method": "rhf"
			},
			{
				"type": "unocc",
				"energy": 0.05721,
				"method": "rhf"
			}
		],
		"cosmo_sigma_profile": { 
			"-0.025": 0.0,
			"-0.024": 0.0,
			"-0.023": 0.0,
			"-0.022": 0.0,
			"-0.021": 0.0,
			"-0.02": 0.0,
			"-0.019": 0.0,
			"-0.018": 0.0,
			"-0.017": 0.307073690055,
			"-0.016": 0.986612273637,
			"-0.015": 0.588446990527,
			"-0.014": 0.761698131775,
			"-0.013": 1.43463126434,
			"-0.012": 0.549056102843,
			"-0.011": 0.7171374651,
			"-0.01": 2.38275335006,
			"-0.009": 4.06760540015,
			"-0.008": 4.44264949575,
			"-0.007": 6.52489449784,
			"-0.006": 13.4421399098,
			"-0.005": 11.973180681,
			"-0.004": 14.3146496988,
			"-0.003": 15.8906635251,
			"-0.002": 20.9413356463,
			"-0.001": 15.1735032043,
			"0.0": 13.0829243433,
			"0.001": 19.4124312246,
			"0.002": 35.5158513962,
			"0.003": 17.3863508668,
			"0.004": 2.82338150862,
			"0.005": 3.14278821389,
			"0.006": 2.81562730604,
			"0.007": 3.40331717535,
			"0.008": 3.15735884265,
			"0.009": 3.8307224271,
			"0.01": 5.728574971,
			"0.011": 7.1950171584,
			"0.012": 3.25285938184,
			"0.013": 2.82082014372,
			"0.014": 1.72532352387,
			"0.015": 0.549918882189,
			"0.016": 0.0,
			"0.017": 0.0,
			"0.018": 0.0,
			"0.019": 0.0,
			"0.02": 0.0,
			"0.021": 0.0,
			"0.022": 0.0,
			"0.023": 0.0,
			"0.024": 0.0,
			"0.025": 0.0
		}
	}
}
