{
	 "smiles": "CC(O)=NNC(N)=O", 
	 "Tm": 438.15, 
	 "num_atms": 15, 
	 "gaussian": { 
		 "optdone": 1, 
		 "sigma_profile": "yes", 
		 "theory": "DFT", 
		 "functional": "B3LYP", 
		 "basiset": "6-31G**", 
		 "properties": { 
			 "R2extent": 2539.7021, 
			 "electric_dipole_moment_norm": 5.01622514447, 
			 "electric_quadrupole_moment_norm": 15.7291425084, 
			 "total_energy": -433.226428736, 
			 "HOMO_LUMO_gap": 0.22334, 
			 "cosmo_polarized_energy": -20.8, 
			 "cosmo_cavitation_energy": 19.54, 
			 "cosmo_dispersion_energy": -14.72, 
			 "cosmo_repulsion_energy": 1.28, 
			 "cosmo_total_nonelectrostatic_energy": 6.1, 
			 "SMD_solvation_energy": 4.69 
		},
		"coords": [
			{
				"x": -0.852099304,
				"y": -0.1899780616,
				"z": -0.8499684035,
				"element": "C" 
			},
			{
				"x": 0.3452345262,
				"y": 0.7200505688,
				"z": -0.7521847684,
				"element": "C" 
			},
			{
				"x": 1.5702674943,
				"y": 0.1389472553,
				"z": -0.5893988618,
				"element": "O" 
			},
			{
				"x": 0.3446495899,
				"y": 1.9959408201,
				"z": -0.7763435004,
				"element": "N" 
			},
			{
				"x": -0.8615500458,
				"y": 2.6530758089,
				"z": -0.8915242874,
				"element": "N" 
			},
			{
				"x": -0.883252414,
				"y": 4.0525522184,
				"z": -0.8456907064,
				"element": "C" 
			},
			{
				"x": 0.3271248007,
				"y": 4.6424617048,
				"z": -1.0742250605,
				"element": "N" 
			},
			{
				"x": -1.939740748,
				"y": 4.6454553953,
				"z": -0.6717918161,
				"element": "O" 
			},
			{
				"x": -0.5815588131,
				"y": -1.1431673614,
				"z": -1.3160497046,
				"element": "H" 
			},
			{
				"x": -1.6342855969,
				"y": 0.2654468485,
				"z": -1.4633348075,
				"element": "H" 
			},
			{
				"x": -1.2738259295,
				"y": -0.4102707903,
				"z": 0.1383720225,
				"element": "H" 
			},
			{
				"x": 1.4799110273,
				"y": -0.8179751526,
				"z": -0.667440137,
				"element": "H" 
			},
			{
				"x": -1.7114268998,
				"y": 2.2446806705,
				"z": -0.5184150881,
				"element": "H" 
			},
			{
				"x": 0.3740196366,
				"y": 5.6302520486,
				"z": -0.8864582034,
				"element": "H" 
			},
			{
				"x": 1.1578326761,
				"y": 4.0752280267,
				"z": -0.9865466775,
				"element": "H" 
			}
		],
		 "valence_orbital": [ 
			{
				"type": "occ",
				"energy": -0.33317,
				"method": "rhf"
			},
			{
				"type": "occ",
				"energy": -0.29573,
				"method": "rhf"
			},
			{
				"type": "occ",
				"energy": -0.25743,
				"method": "rhf"
			},
			{
				"type": "occ",
				"energy": -0.24819,
				"method": "rhf"
			},
			{
				"type": "occ",
				"energy": -0.21537,
				"method": "rhf"
			},
			{
				"type": "unocc",
				"energy": 0.00797,
				"method": "rhf"
			},
			{
				"type": "unocc",
				"energy": 0.04752,
				"method": "rhf"
			},
			{
				"type": "unocc",
				"energy": 0.06909,
				"method": "rhf"
			},
			{
				"type": "unocc",
				"energy": 0.09131,
				"method": "rhf"
			},
			{
				"type": "unocc",
				"energy": 0.11309,
				"method": "rhf"
			}
		],
		"cosmo_sigma_profile": { 
			"-0.025": 0.0,
			"-0.024": 0.0,
			"-0.023": 0.0,
			"-0.022": 0.0,
			"-0.021": 0.0,
			"-0.02": 0.0,
			"-0.019": 0.103615797844,
			"-0.018": 0.992190143971,
			"-0.017": 1.00743404426,
			"-0.016": 0.810541005018,
			"-0.015": 1.38171131193,
			"-0.014": 2.10587286498,
			"-0.013": 2.28003632267,
			"-0.012": 3.39555453417,
			"-0.011": 4.21504586279,
			"-0.01": 3.85270431095,
			"-0.009": 4.33485943769,
			"-0.008": 4.19103567395,
			"-0.007": 7.14048449688,
			"-0.006": 8.71245526662,
			"-0.005": 7.85342769295,
			"-0.004": 6.3761944521,
			"-0.003": 8.15056903827,
			"-0.002": 7.68755025257,
			"-0.001": 4.39069817185,
			"0.0": 4.99721021746,
			"0.001": 5.52545283667,
			"0.002": 3.64287886504,
			"0.003": 4.98693955013,
			"0.004": 5.44069787899,
			"0.005": 6.10726067738,
			"0.006": 5.65398461825,
			"0.007": 5.19161450222,
			"0.008": 3.87678559214,
			"0.009": 4.174676428,
			"0.01": 4.63739423706,
			"0.011": 4.05082856329,
			"0.012": 3.90990440952,
			"0.013": 2.19415047174,
			"0.014": 5.93508350755,
			"0.015": 4.32082192919,
			"0.016": 0.106202261916,
			"0.017": 0.0,
			"0.018": 0.0,
			"0.019": 0.0,
			"0.02": 0.0,
			"0.021": 0.0,
			"0.022": 0.0,
			"0.023": 0.0,
			"0.024": 0.0,
			"0.025": 0.0
		}
	}
}
