{
	 "smiles": "FC(F)(F)S(=O)(=O)OS(=O)(=O)C(F)(F)F", 
	 "Tm": 193.15, 
	 "num_atms": 15, 
	 "gaussian": { 
		 "optdone": 1, 
		 "sigma_profile": "yes", 
		 "theory": "DFT", 
		 "functional": "B3LYP", 
		 "basiset": "6-31G**", 
		 "properties": { 
			 "R2extent": 5013.6341, 
			 "electric_dipole_moment_norm": 3.03308879033, 
			 "electric_quadrupole_moment_norm": 9.4543414895, 
			 "total_energy": -1847.54675724, 
			 "HOMO_LUMO_gap": 0.2845, 
			 "cosmo_polarized_energy": -7.0, 
			 "cosmo_cavitation_energy": 27.21, 
			 "cosmo_dispersion_energy": -18.95, 
			 "cosmo_repulsion_energy": 1.29, 
			 "cosmo_total_nonelectrostatic_energy": 9.55, 
			 "SMD_solvation_energy": 5.32 
		},
		"coords": [
			{
				"x": 0.586397021,
				"y": 2.095147468,
				"z": 2.0834879141,
				"element": "F" 
			},
			{
				"x": 0.7858108386,
				"y": 0.9343610406,
				"z": 1.4733321432,
				"element": "C" 
			},
			{
				"x": 1.6890013474,
				"y": 0.2164243963,
				"z": 2.132861056,
				"element": "F" 
			},
			{
				"x": -0.3521830881,
				"y": 0.2637037645,
				"z": 1.3727349924,
				"element": "F" 
			},
			{
				"x": 1.4794433303,
				"y": 1.252471902,
				"z": -0.2429741085,
				"element": "S" 
			},
			{
				"x": 2.5803426206,
				"y": 2.1815772704,
				"z": -0.1156732951,
				"element": "O" 
			},
			{
				"x": 1.5498719713,
				"y": -0.0037194004,
				"z": -0.9612081997,
				"element": "O" 
			},
			{
				"x": 0.1910544323,
				"y": 2.167414947,
				"z": -0.828441409,
				"element": "O" 
			},
			{
				"x": -0.983190943,
				"y": 1.5513252844,
				"z": -1.8981352973,
				"element": "S" 
			},
			{
				"x": -1.670408411,
				"y": 0.437379664,
				"z": -1.2757413445,
				"element": "O" 
			},
			{
				"x": -0.4279054681,
				"y": 1.5091112655,
				"z": -3.2345031223,
				"element": "O" 
			},
			{
				"x": -2.0537081879,
				"y": 3.0883225321,
				"z": -1.7341347274,
				"element": "C" 
			},
			{
				"x": -2.4294187902,
				"y": 3.2329349596,
				"z": -0.4709773036,
				"element": "F" 
			},
			{
				"x": -3.1154630027,
				"y": 2.8899686094,
				"z": -2.5091893049,
				"element": "F" 
			},
			{
				"x": -1.3768436706,
				"y": 4.1496762966,
				"z": -2.1441379934,
				"element": "F" 
			}
		],
		 "valence_orbital": [ 
			{
				"type": "occ",
				"energy": -0.37889,
				"method": "rhf"
			},
			{
				"type": "occ",
				"energy": -0.37175,
				"method": "rhf"
			},
			{
				"type": "occ",
				"energy": -0.36384,
				"method": "rhf"
			},
			{
				"type": "occ",
				"energy": -0.36037,
				"method": "rhf"
			},
			{
				"type": "occ",
				"energy": -0.35423,
				"method": "rhf"
			},
			{
				"type": "unocc",
				"energy": -0.06973,
				"method": "rhf"
			},
			{
				"type": "unocc",
				"energy": -0.0149,
				"method": "rhf"
			},
			{
				"type": "unocc",
				"energy": -0.00579,
				"method": "rhf"
			},
			{
				"type": "unocc",
				"energy": -0.00297,
				"method": "rhf"
			},
			{
				"type": "unocc",
				"energy": 0.03082,
				"method": "rhf"
			}
		],
		"cosmo_sigma_profile": { 
			"-0.025": 0.0,
			"-0.024": 0.0,
			"-0.023": 0.0,
			"-0.022": 0.0,
			"-0.021": 0.0,
			"-0.02": 0.0,
			"-0.019": 0.0,
			"-0.018": 0.0,
			"-0.017": 0.0,
			"-0.016": 0.0,
			"-0.015": 0.0,
			"-0.014": 0.0,
			"-0.013": 0.0,
			"-0.012": 0.0,
			"-0.011": 0.0,
			"-0.01": 0.0,
			"-0.009": 0.0,
			"-0.008": 1.18687706277,
			"-0.007": 3.77879008869,
			"-0.006": 6.43051217356,
			"-0.005": 9.87945718007,
			"-0.004": 12.2628681396,
			"-0.003": 17.978597319,
			"-0.002": 21.5156485522,
			"-0.001": 41.099136045,
			"0.0": 35.8525016221,
			"0.001": 9.21055532352,
			"0.002": 8.68613058882,
			"0.003": 5.77824239191,
			"0.004": 6.4665809431,
			"0.005": 10.7499100161,
			"0.006": 21.8524747931,
			"0.007": 7.65009506459,
			"0.008": 0.0,
			"0.009": 0.0,
			"0.01": 0.0,
			"0.011": 0.0,
			"0.012": 0.0,
			"0.013": 0.0,
			"0.014": 0.0,
			"0.015": 0.0,
			"0.016": 0.0,
			"0.017": 0.0,
			"0.018": 0.0,
			"0.019": 0.0,
			"0.02": 0.0,
			"0.021": 0.0,
			"0.022": 0.0,
			"0.023": 0.0,
			"0.024": 0.0,
			"0.025": 0.0
		}
	}
}
