{
	 "smiles": "FC1=CC=CC(F)=C1N1C(S)=NC2=C1C=CC=C2", 
	 "Tm": 529.15, 
	 "num_atms": 26, 
	 "gaussian": { 
		 "optdone": 1, 
		 "sigma_profile": "yes", 
		 "theory": "DFT", 
		 "functional": "B3LYP", 
		 "basiset": "6-31G**", 
		 "properties": { 
			 "R2extent": 4517.3698, 
			 "electric_dipole_moment_norm": 3.88192069213, 
			 "electric_quadrupole_moment_norm": 12.3172998725, 
			 "total_energy": -1207.56017107, 
			 "HOMO_LUMO_gap": 0.17358, 
			 "cosmo_polarized_energy": -10.57, 
			 "cosmo_cavitation_energy": 33.22, 
			 "cosmo_dispersion_energy": -23.54, 
			 "cosmo_repulsion_energy": 1.73, 
			 "cosmo_total_nonelectrostatic_energy": 11.41, 
			 "SMD_solvation_energy": 4.33 
		},
		"coords": [
			{
				"x": 1.0064336822,
				"y": -0.0347154008,
				"z": 2.8313598695,
				"element": "F" 
			},
			{
				"x": 0.0347806483,
				"y": -0.9292541391,
				"z": 2.6020678807,
				"element": "C" 
			},
			{
				"x": -0.4740068213,
				"y": -1.6763450997,
				"z": 3.6567538939,
				"element": "C" 
			},
			{
				"x": -1.4860092959,
				"y": -2.6017330176,
				"z": 3.3962935215,
				"element": "C" 
			},
			{
				"x": -1.9885537548,
				"y": -2.7724328595,
				"z": 2.1057875336,
				"element": "C" 
			},
			{
				"x": -1.4663994641,
				"y": -1.9978463625,
				"z": 1.0772486632,
				"element": "C" 
			},
			{
				"x": -1.9463320943,
				"y": -2.138810785,
				"z": -0.1662782187,
				"element": "F" 
			},
			{
				"x": -0.439630163,
				"y": -1.0686840036,
				"z": 1.2909806683,
				"element": "C" 
			},
			{
				"x": 0.081570986,
				"y": -0.283294911,
				"z": 0.237167323,
				"element": "N" 
			},
			{
				"x": 0.8650282706,
				"y": -0.7058010827,
				"z": -0.8326765585,
				"element": "C" 
			},
			{
				"x": 1.3437750144,
				"y": -2.4013602806,
				"z": -0.9769398033,
				"element": "S" 
			},
			{
				"x": 1.2058705229,
				"y": 0.2508669399,
				"z": -1.65167092,
				"element": "N" 
			},
			{
				"x": 0.6297567963,
				"y": 1.3998101504,
				"z": -1.1181196244,
				"element": "C" 
			},
			{
				"x": -0.0757338582,
				"y": 1.09650118,
				"z": 0.0666050643,
				"element": "C" 
			},
			{
				"x": -0.7537096274,
				"y": 2.0593111103,
				"z": 0.8099216733,
				"element": "C" 
			},
			{
				"x": -0.7051815817,
				"y": 3.3673370849,
				"z": 0.3279785395,
				"element": "C" 
			},
			{
				"x": -0.0066230325,
				"y": 3.6907436182,
				"z": -0.8503889511,
				"element": "C" 
			},
			{
				"x": 0.6661657026,
				"y": 2.7177814435,
				"z": -1.5858546267,
				"element": "C" 
			},
			{
				"x": -0.0709356656,
				"y": -1.5295344044,
				"z": 4.6520330119,
				"element": "H" 
			},
			{
				"x": -1.8883702059,
				"y": -3.1967209473,
				"z": 4.2096562656,
				"element": "H" 
			},
			{
				"x": -2.7771560495,
				"y": -3.4821670335,
				"z": 1.8846197562,
				"element": "H" 
			},
			{
				"x": 2.080162981,
				"y": -2.1621154229,
				"z": -2.0774147446,
				"element": "H" 
			},
			{
				"x": -1.2926846856,
				"y": 1.8089248251,
				"z": 1.7178768058,
				"element": "H" 
			},
			{
				"x": -1.2178764469,
				"y": 4.1524634432,
				"z": 0.8755463667,
				"element": "H" 
			},
			{
				"x": 0.0064341313,
				"y": 4.7218806164,
				"z": -1.1907947036,
				"element": "H" 
			},
			{
				"x": 1.2051240111,
				"y": 2.9595953385,
				"z": -2.4959586864,
				"element": "H" 
			}
		],
		 "valence_orbital": [ 
			{
				"type": "occ",
				"energy": -0.2801,
				"method": "rhf"
			},
			{
				"type": "occ",
				"energy": -0.26714,
				"method": "rhf"
			},
			{
				"type": "occ",
				"energy": -0.26598,
				"method": "rhf"
			},
			{
				"type": "occ",
				"energy": -0.22623,
				"method": "rhf"
			},
			{
				"type": "occ",
				"energy": -0.2127,
				"method": "rhf"
			},
			{
				"type": "unocc",
				"energy": -0.03912,
				"method": "rhf"
			},
			{
				"type": "unocc",
				"energy": -0.0203,
				"method": "rhf"
			},
			{
				"type": "unocc",
				"energy": -0.01225,
				"method": "rhf"
			},
			{
				"type": "unocc",
				"energy": 0.01287,
				"method": "rhf"
			},
			{
				"type": "unocc",
				"energy": 0.02121,
				"method": "rhf"
			}
		],
		"cosmo_sigma_profile": { 
			"-0.025": 0.0,
			"-0.024": 0.0,
			"-0.023": 0.0,
			"-0.022": 0.0,
			"-0.021": 0.0,
			"-0.02": 0.0,
			"-0.019": 0.0,
			"-0.018": 0.0,
			"-0.017": 0.0,
			"-0.016": 0.0,
			"-0.015": 0.0,
			"-0.014": 0.0,
			"-0.013": 0.0331985891449,
			"-0.012": 1.28133830695,
			"-0.011": 1.49376395389,
			"-0.01": 1.12132107766,
			"-0.009": 1.32104645365,
			"-0.008": 6.44433618653,
			"-0.007": 8.26787084684,
			"-0.006": 12.5682779822,
			"-0.005": 15.7436453863,
			"-0.004": 14.951559204,
			"-0.003": 15.1362469153,
			"-0.002": 15.8432454143,
			"-0.001": 23.3736172569,
			"0.0": 21.8725199391,
			"0.001": 22.9037813229,
			"0.002": 24.0103326711,
			"0.003": 30.8797129182,
			"0.004": 21.1225288209,
			"0.005": 14.0284775399,
			"0.006": 7.81310782366,
			"0.007": 1.93218019017,
			"0.008": 1.11815295441,
			"0.009": 1.21173208389,
			"0.01": 1.35774653655,
			"0.011": 1.13611191571,
			"0.012": 0.595342453515,
			"0.013": 0.858975334598,
			"0.014": 1.15804609146,
			"0.015": 0.849596203709,
			"0.016": 0.269530984568,
			"0.017": 0.0,
			"0.018": 0.0,
			"0.019": 0.0,
			"0.02": 0.0,
			"0.021": 0.0,
			"0.022": 0.0,
			"0.023": 0.0,
			"0.024": 0.0,
			"0.025": 0.0
		}
	}
}
