{
	 "smiles": "OC(=O)C1=CC=CN=C1OC1=CC=C(F)C=C1", 
	 "Tm": 461.15, 
	 "num_atms": 25, 
	 "gaussian": { 
		 "optdone": 1, 
		 "sigma_profile": "yes", 
		 "theory": "DFT", 
		 "functional": "B3LYP", 
		 "basiset": "6-31G**", 
		 "properties": { 
			 "R2extent": 5820.307, 
			 "electric_dipole_moment_norm": 5.01628595377, 
			 "electric_quadrupole_moment_norm": 28.3248586408, 
			 "total_energy": -842.345092264, 
			 "HOMO_LUMO_gap": 0.17523, 
			 "cosmo_polarized_energy": -18.49, 
			 "cosmo_cavitation_energy": 31.65, 
			 "cosmo_dispersion_energy": -22.41, 
			 "cosmo_repulsion_energy": 1.72, 
			 "cosmo_total_nonelectrostatic_energy": 10.96, 
			 "SMD_solvation_energy": 6.59 
		},
		"coords": [
			{
				"x": -4.1888561795,
				"y": -1.3933703009,
				"z": 3.8799719652,
				"element": "O" 
			},
			{
				"x": -2.937181657,
				"y": -1.0911198143,
				"z": 3.4280154388,
				"element": "C" 
			},
			{
				"x": -1.9883061424,
				"y": -1.7398443343,
				"z": 3.7862690826,
				"element": "O" 
			},
			{
				"x": -2.8619213547,
				"y": 0.1113792759,
				"z": 2.5329299596,
				"element": "C" 
			},
			{
				"x": -3.5830366096,
				"y": 1.2705099613,
				"z": 2.8243299012,
				"element": "C" 
			},
			{
				"x": -3.4230578186,
				"y": 2.4146439523,
				"z": 2.0403553495,
				"element": "C" 
			},
			{
				"x": -2.5319190247,
				"y": 2.3457864444,
				"z": 0.9749083867,
				"element": "C" 
			},
			{
				"x": -1.8380459837,
				"y": 1.2436754148,
				"z": 0.6590008634,
				"element": "N" 
			},
			{
				"x": -1.9946683127,
				"y": 0.1650339205,
				"z": 1.4125231156,
				"element": "C" 
			},
			{
				"x": -1.3315589628,
				"y": -0.9733181966,
				"z": 1.1054814685,
				"element": "O" 
			},
			{
				"x": -0.4132557496,
				"y": -1.0206407737,
				"z": 0.0555949691,
				"element": "C" 
			},
			{
				"x": -0.807564775,
				"y": -0.8633097473,
				"z": -1.2726923669,
				"element": "C" 
			},
			{
				"x": 0.1345745527,
				"y": -1.0229625046,
				"z": -2.2874222413,
				"element": "C" 
			},
			{
				"x": 1.4454712791,
				"y": -1.3431213968,
				"z": -1.9479525826,
				"element": "C" 
			},
			{
				"x": 2.3550487203,
				"y": -1.4987981045,
				"z": -2.9331136063,
				"element": "F" 
			},
			{
				"x": 1.84476804,
				"y": -1.5117137929,
				"z": -0.6274355321,
				"element": "C" 
			},
			{
				"x": 0.8997398517,
				"y": -1.3470910858,
				"z": 0.3856896368,
				"element": "C" 
			},
			{
				"x": -4.8484149734,
				"y": -0.8908175713,
				"z": 3.3813009804,
				"element": "H" 
			},
			{
				"x": -4.2430760378,
				"y": 1.2878543096,
				"z": 3.6878431684,
				"element": "H" 
			},
			{
				"x": -3.9624234977,
				"y": 3.3295590315,
				"z": 2.2578450152,
				"element": "H" 
			},
			{
				"x": -2.3586499624,
				"y": 3.2113278386,
				"z": 0.3385783854,
				"element": "H" 
			},
			{
				"x": -1.8351265728,
				"y": -0.6143437178,
				"z": -1.5088556344,
				"element": "H" 
			},
			{
				"x": -0.1345754407,
				"y": -0.905429199,
				"z": -3.3312963755,
				"element": "H" 
			},
			{
				"x": 2.8746451032,
				"y": -1.7679248258,
				"z": -0.4050872992,
				"element": "H" 
			},
			{
				"x": 1.1646915082,
				"y": -1.4782647831,
				"z": 1.429117952,
				"element": "H" 
			}
		],
		 "valence_orbital": [ 
			{
				"type": "occ",
				"energy": -0.29072,
				"method": "rhf"
			},
			{
				"type": "occ",
				"energy": -0.2734,
				"method": "rhf"
			},
			{
				"type": "occ",
				"energy": -0.26336,
				"method": "rhf"
			},
			{
				"type": "occ",
				"energy": -0.26081,
				"method": "rhf"
			},
			{
				"type": "occ",
				"energy": -0.23472,
				"method": "rhf"
			},
			{
				"type": "unocc",
				"energy": -0.05949,
				"method": "rhf"
			},
			{
				"type": "unocc",
				"energy": -0.031,
				"method": "rhf"
			},
			{
				"type": "unocc",
				"energy": -0.0139,
				"method": "rhf"
			},
			{
				"type": "unocc",
				"energy": 0.00413,
				"method": "rhf"
			},
			{
				"type": "unocc",
				"energy": 0.02603,
				"method": "rhf"
			}
		],
		"cosmo_sigma_profile": { 
			"-0.025": 0.0,
			"-0.024": 0.0,
			"-0.023": 0.0,
			"-0.022": 0.0,
			"-0.021": 0.0,
			"-0.02": 0.0,
			"-0.019": 0.427304725823,
			"-0.018": 0.787359619955,
			"-0.017": 1.21018986742,
			"-0.016": 0.570856385175,
			"-0.015": 0.979408487319,
			"-0.014": 0.537385747778,
			"-0.013": 1.76520245662,
			"-0.012": 1.15180677522,
			"-0.011": 0.977292325234,
			"-0.01": 1.56606641071,
			"-0.009": 2.01145691522,
			"-0.008": 6.44484019408,
			"-0.007": 14.5594192954,
			"-0.006": 14.3219955921,
			"-0.005": 14.0600575985,
			"-0.004": 10.7905993331,
			"-0.003": 12.2787331043,
			"-0.002": 14.081833702,
			"-0.001": 14.647196591,
			"0.0": 20.0262877934,
			"0.001": 21.5131108121,
			"0.002": 19.6149027254,
			"0.003": 18.2091727313,
			"0.004": 15.8926420924,
			"0.005": 7.33672098389,
			"0.006": 4.11868803939,
			"0.007": 4.84208141562,
			"0.008": 3.87987913965,
			"0.009": 5.23530297141,
			"0.01": 6.5837214157,
			"0.011": 7.65545742654,
			"0.012": 5.97130014603,
			"0.013": 1.08250316309,
			"0.014": 0.0,
			"0.015": 0.0,
			"0.016": 0.0,
			"0.017": 0.0,
			"0.018": 0.0,
			"0.019": 0.0,
			"0.02": 0.0,
			"0.021": 0.0,
			"0.022": 0.0,
			"0.023": 0.0,
			"0.024": 0.0,
			"0.025": 0.0
		}
	}
}
