{
	 "smiles": "COC1=CC=C(C=C1)N1CCN(CC1)C(=O)CCCl", 
	 "Tm": 347.15, 
	 "num_atms": 38, 
	 "gaussian": { 
		 "optdone": 1, 
		 "sigma_profile": "yes", 
		 "theory": "DFT", 
		 "functional": "B3LYP", 
		 "basiset": "6-31G**", 
		 "properties": { 
			 "R2extent": 10665.4806, 
			 "electric_dipole_moment_norm": 5.4401316133, 
			 "electric_quadrupole_moment_norm": 17.108487342, 
			 "total_energy": -1265.08240687, 
			 "HOMO_LUMO_gap": 0.19049, 
			 "cosmo_polarized_energy": -17.38, 
			 "cosmo_cavitation_energy": 41.18, 
			 "cosmo_dispersion_energy": -29.83, 
			 "cosmo_repulsion_energy": 2.31, 
			 "cosmo_total_nonelectrostatic_energy": 13.66, 
			 "SMD_solvation_energy": 5.67 
		},
		"coords": [
			{
				"x": -4.7146975531,
				"y": 5.3787763719,
				"z": 1.3821588027,
				"element": "C" 
			},
			{
				"x": -4.6063041955,
				"y": 4.5635201794,
				"z": 0.2285243555,
				"element": "O" 
			},
			{
				"x": -3.7211017435,
				"y": 3.5211182176,
				"z": 0.2605545941,
				"element": "C" 
			},
			{
				"x": -2.9138256962,
				"y": 3.1865164683,
				"z": 1.3482778562,
				"element": "C" 
			},
			{
				"x": -2.0358094605,
				"y": 2.0977921268,
				"z": 1.2626542074,
				"element": "C" 
			},
			{
				"x": -1.9598436062,
				"y": 1.3110630199,
				"z": 0.1081174059,
				"element": "C" 
			},
			{
				"x": -2.7950658693,
				"y": 1.6552351996,
				"z": -0.974376131,
				"element": "C" 
			},
			{
				"x": -3.6500670167,
				"y": 2.7429553603,
				"z": -0.9062015407,
				"element": "C" 
			},
			{
				"x": -1.1155805585,
				"y": 0.1705965062,
				"z": -0.0068273809,
				"element": "N" 
			},
			{
				"x": -0.1153389598,
				"y": 0.2188791192,
				"z": -1.0836434639,
				"element": "C" 
			},
			{
				"x": 0.4523814293,
				"y": -1.1745233031,
				"z": -1.3482723451,
				"element": "C" 
			},
			{
				"x": 0.9839919493,
				"y": -1.7561531925,
				"z": -0.1152135504,
				"element": "N" 
			},
			{
				"x": 0.0267589208,
				"y": -1.7616613564,
				"z": 0.9857431219,
				"element": "C" 
			},
			{
				"x": -0.5366982421,
				"y": -0.3537231341,
				"z": 1.2223358807,
				"element": "C" 
			},
			{
				"x": 2.2704609875,
				"y": -2.2328160278,
				"z": -0.0961639619,
				"element": "C" 
			},
			{
				"x": 3.0136417309,
				"y": -2.1378006337,
				"z": -1.0685884405,
				"element": "O" 
			},
			{
				"x": 2.7848271409,
				"y": -2.8637217606,
				"z": 1.2064583376,
				"element": "C" 
			},
			{
				"x": 4.0145437178,
				"y": -3.7255033231,
				"z": 0.961675841,
				"element": "C" 
			},
			{
				"x": 3.5656151539,
				"y": -5.3476620917,
				"z": 0.271380969,
				"element": "Cl" 
			},
			{
				"x": -5.0459492051,
				"y": 4.8035231389,
				"z": 2.2571154142,
				"element": "H" 
			},
			{
				"x": -3.7640064243,
				"y": 5.8738526022,
				"z": 1.6212652017,
				"element": "H" 
			},
			{
				"x": -5.4637512834,
				"y": 6.1372526287,
				"z": 1.1486576412,
				"element": "H" 
			},
			{
				"x": -2.9428570317,
				"y": 3.7641245502,
				"z": 2.2648180659,
				"element": "H" 
			},
			{
				"x": -1.4050845364,
				"y": 1.8810992569,
				"z": 2.1176992352,
				"element": "H" 
			},
			{
				"x": -2.7848000415,
				"y": 1.0420903372,
				"z": -1.8704369303,
				"element": "H" 
			},
			{
				"x": -4.2934763104,
				"y": 3.0011676231,
				"z": -1.7411346486,
				"element": "H" 
			},
			{
				"x": 0.7094256655,
				"y": 0.9075233734,
				"z": -0.8245584363,
				"element": "H" 
			},
			{
				"x": -0.5833362772,
				"y": 0.5954224382,
				"z": -1.995450136,
				"element": "H" 
			},
			{
				"x": 1.264746698,
				"y": -1.1381465432,
				"z": -2.0736660842,
				"element": "H" 
			},
			{
				"x": -0.3447912463,
				"y": -1.8243470055,
				"z": -1.7350374469,
				"element": "H" 
			},
			{
				"x": 0.498848528,
				"y": -2.1135953323,
				"z": 1.9023007257,
				"element": "H" 
			},
			{
				"x": -0.8034498382,
				"y": -2.4408741266,
				"z": 0.7456363002,
				"element": "H" 
			},
			{
				"x": -1.3177967326,
				"y": -0.41235167,
				"z": 1.9864263968,
				"element": "H" 
			},
			{
				"x": 0.2736518641,
				"y": 0.2908310896,
				"z": 1.6143300718,
				"element": "H" 
			},
			{
				"x": 2.0195431851,
				"y": -3.4526043965,
				"z": 1.7173283516,
				"element": "H" 
			},
			{
				"x": 3.0688278875,
				"y": -2.0485199535,
				"z": 1.8877659588,
				"element": "H" 
			},
			{
				"x": 4.5471267282,
				"y": -3.9310665014,
				"z": 1.8902602874,
				"element": "H" 
			},
			{
				"x": 4.6725402416,
				"y": -3.2546692557,
				"z": 0.2332854743,
				"element": "H" 
			}
		],
		 "valence_orbital": [ 
			{
				"type": "occ",
				"energy": -0.26116,
				"method": "rhf"
			},
			{
				"type": "occ",
				"energy": -0.25385,
				"method": "rhf"
			},
			{
				"type": "occ",
				"energy": -0.25012,
				"method": "rhf"
			},
			{
				"type": "occ",
				"energy": -0.2408,
				"method": "rhf"
			},
			{
				"type": "occ",
				"energy": -0.1942,
				"method": "rhf"
			},
			{
				"type": "unocc",
				"energy": -0.00371,
				"method": "rhf"
			},
			{
				"type": "unocc",
				"energy": 0.0159,
				"method": "rhf"
			},
			{
				"type": "unocc",
				"energy": 0.02009,
				"method": "rhf"
			},
			{
				"type": "unocc",
				"energy": 0.0318,
				"method": "rhf"
			},
			{
				"type": "unocc",
				"energy": 0.08184,
				"method": "rhf"
			}
		],
		"cosmo_sigma_profile": { 
			"-0.025": 0.0,
			"-0.024": 0.0,
			"-0.023": 0.0,
			"-0.022": 0.0,
			"-0.021": 0.0,
			"-0.02": 0.0,
			"-0.019": 0.0,
			"-0.018": 0.0,
			"-0.017": 0.0,
			"-0.016": 0.0,
			"-0.015": 0.0,
			"-0.014": 0.0,
			"-0.013": 0.0,
			"-0.012": 0.0,
			"-0.011": 0.0,
			"-0.01": 0.0,
			"-0.009": 0.0,
			"-0.008": 1.36183283899,
			"-0.007": 9.33284033097,
			"-0.006": 17.6000212764,
			"-0.005": 31.35538358,
			"-0.004": 39.9124114736,
			"-0.003": 40.9105441027,
			"-0.002": 26.963601408,
			"-0.001": 16.0836446773,
			"0.0": 13.933623603,
			"0.001": 14.1953024429,
			"0.002": 11.3332044536,
			"0.003": 13.1747647393,
			"0.004": 16.1063599209,
			"0.005": 17.9840375689,
			"0.006": 21.0886480562,
			"0.007": 10.8792011004,
			"0.008": 5.18668106694,
			"0.009": 3.81161781316,
			"0.01": 3.31608084952,
			"0.011": 3.41958309916,
			"0.012": 2.1884758973,
			"0.013": 3.54028078388,
			"0.014": 2.54679926291,
			"0.015": 0.0,
			"0.016": 0.0,
			"0.017": 0.0,
			"0.018": 0.0,
			"0.019": 0.0,
			"0.02": 0.0,
			"0.021": 0.0,
			"0.022": 0.0,
			"0.023": 0.0,
			"0.024": 0.0,
			"0.025": 0.0
		}
	}
}
