{
	 "smiles": "CC1=C(N=NN1C1=CC2=C(C=C1)N=CC=C2)C(O)=O", 
	 "Tm": 493.15, 
	 "num_atms": 29, 
	 "gaussian": { 
		 "optdone": 1, 
		 "sigma_profile": "yes", 
		 "theory": "DFT", 
		 "functional": "B3LYP", 
		 "basiset": "6-31G**", 
		 "properties": { 
			 "R2extent": 7166.4418, 
			 "electric_dipole_moment_norm": 7.21435021745, 
			 "electric_quadrupole_moment_norm": 25.3902506508, 
			 "total_energy": -870.847419395, 
			 "HOMO_LUMO_gap": 0.17515, 
			 "cosmo_polarized_energy": -22.32, 
			 "cosmo_cavitation_energy": 34.41, 
			 "cosmo_dispersion_energy": -25.0, 
			 "cosmo_repulsion_energy": 1.89, 
			 "cosmo_total_nonelectrostatic_energy": 11.3, 
			 "SMD_solvation_energy": 4.13 
		},
		"coords": [
			{
				"x": 1.5826192735,
				"y": -1.4948632513,
				"z": 0.7095607278,
				"element": "C" 
			},
			{
				"x": 1.6543774938,
				"y": -0.4409731343,
				"z": 1.7658073633,
				"element": "C" 
			},
			{
				"x": 2.2503220764,
				"y": -0.4177879859,
				"z": 3.0234095396,
				"element": "C" 
			},
			{
				"x": 1.970224537,
				"y": 0.777389056,
				"z": 3.631011468,
				"element": "N" 
			},
			{
				"x": 1.2496008391,
				"y": 1.4984952947,
				"z": 2.8446428915,
				"element": "N" 
			},
			{
				"x": 1.0453481562,
				"y": 0.7766622227,
				"z": 1.6879006612,
				"element": "N" 
			},
			{
				"x": 0.2545041125,
				"y": 1.3531779313,
				"z": 0.652827384,
				"element": "C" 
			},
			{
				"x": 0.640418058,
				"y": 1.2671001496,
				"z": -0.6679702058,
				"element": "C" 
			},
			{
				"x": -0.1665852109,
				"y": 1.8477456164,
				"z": -1.679308248,
				"element": "C" 
			},
			{
				"x": -1.3666902576,
				"y": 2.5362654803,
				"z": -1.3136408153,
				"element": "C" 
			},
			{
				"x": -1.7172820174,
				"y": 2.6206965399,
				"z": 0.0610878323,
				"element": "C" 
			},
			{
				"x": -0.9304156775,
				"y": 2.0415489782,
				"z": 1.026286338,
				"element": "C" 
			},
			{
				"x": -2.1884267393,
				"y": 3.1205480833,
				"z": -2.2323629445,
				"element": "N" 
			},
			{
				"x": -1.8421526729,
				"y": 3.0419034941,
				"z": -3.5017148119,
				"element": "C" 
			},
			{
				"x": -0.6719524527,
				"y": 2.3912518153,
				"z": -3.9708309487,
				"element": "C" 
			},
			{
				"x": 0.1644768436,
				"y": 1.7946349353,
				"z": -3.0581600373,
				"element": "C" 
			},
			{
				"x": 3.0606274068,
				"y": -1.43073047,
				"z": 3.7199944574,
				"element": "C" 
			},
			{
				"x": 3.2661008779,
				"y": -2.5400245137,
				"z": 2.9519472115,
				"element": "O" 
			},
			{
				"x": 3.5108593917,
				"y": -1.3270307538,
				"z": 4.8382386292,
				"element": "O" 
			},
			{
				"x": 0.6452694184,
				"y": -1.428315668,
				"z": 0.1517320066,
				"element": "H" 
			},
			{
				"x": 2.4083499605,
				"y": -1.4016969482,
				"z": -0.0052061655,
				"element": "H" 
			},
			{
				"x": 1.66526978,
				"y": -2.4786700526,
				"z": 1.1701186927,
				"element": "H" 
			},
			{
				"x": 1.5695352672,
				"y": 0.7794472372,
				"z": -0.9436688278,
				"element": "H" 
			},
			{
				"x": -2.6277047191,
				"y": 3.1516832798,
				"z": 0.317390485,
				"element": "H" 
			},
			{
				"x": -1.1874112752,
				"y": 2.1018105268,
				"z": 2.0771799367,
				"element": "H" 
			},
			{
				"x": -2.514170598,
				"y": 3.5160043478,
				"z": -4.2160731257,
				"element": "H" 
			},
			{
				"x": -0.4540153395,
				"y": 2.3725056287,
				"z": -5.0337909719,
				"element": "H" 
			},
			{
				"x": 1.0715096343,
				"y": 1.2853346886,
				"z": -3.3737127654,
				"element": "H" 
			},
			{
				"x": 3.7983938332,
				"y": -3.1378125281,
				"z": 3.5029042431,
				"element": "H" 
			}
		],
		 "valence_orbital": [ 
			{
				"type": "occ",
				"energy": -0.27354,
				"method": "rhf"
			},
			{
				"type": "occ",
				"energy": -0.27039,
				"method": "rhf"
			},
			{
				"type": "occ",
				"energy": -0.269,
				"method": "rhf"
			},
			{
				"type": "occ",
				"energy": -0.26236,
				"method": "rhf"
			},
			{
				"type": "occ",
				"energy": -0.24846,
				"method": "rhf"
			},
			{
				"type": "unocc",
				"energy": -0.07331,
				"method": "rhf"
			},
			{
				"type": "unocc",
				"energy": -0.04578,
				"method": "rhf"
			},
			{
				"type": "unocc",
				"energy": -0.02684,
				"method": "rhf"
			},
			{
				"type": "unocc",
				"energy": -0.00936,
				"method": "rhf"
			},
			{
				"type": "unocc",
				"energy": 0.00464,
				"method": "rhf"
			}
		],
		"cosmo_sigma_profile": { 
			"-0.025": 0.0,
			"-0.024": 0.0,
			"-0.023": 0.0,
			"-0.022": 0.0,
			"-0.021": 0.0,
			"-0.02": 0.0,
			"-0.019": 0.0659853826749,
			"-0.018": 0.877587764904,
			"-0.017": 0.995356717598,
			"-0.016": 0.883113719149,
			"-0.015": 0.694126367036,
			"-0.014": 0.352994084222,
			"-0.013": 0.563883593792,
			"-0.012": 1.06022213957,
			"-0.011": 1.03259016848,
			"-0.01": 0.436779658397,
			"-0.009": 2.201353091,
			"-0.008": 6.82877307278,
			"-0.007": 12.5854824741,
			"-0.006": 17.5637732537,
			"-0.005": 17.5179900616,
			"-0.004": 17.7785419225,
			"-0.003": 22.2988914801,
			"-0.002": 21.1721320208,
			"-0.001": 14.4856131038,
			"0.0": 18.1783404941,
			"0.001": 27.8166860603,
			"0.002": 19.8962442788,
			"0.003": 10.5557281045,
			"0.004": 5.25561325026,
			"0.005": 6.62617995541,
			"0.006": 4.95786074823,
			"0.007": 5.42190095203,
			"0.008": 3.90583580901,
			"0.009": 5.6332816212,
			"0.01": 6.76290372879,
			"0.011": 8.0880397652,
			"0.012": 6.26179313814,
			"0.013": 3.83168955741,
			"0.014": 2.62171377673,
			"0.015": 1.3946991951,
			"0.016": 0.441085374547,
			"0.017": 0.0,
			"0.018": 0.0,
			"0.019": 0.0,
			"0.02": 0.0,
			"0.021": 0.0,
			"0.022": 0.0,
			"0.023": 0.0,
			"0.024": 0.0,
			"0.025": 0.0
		}
	}
}
