{
	 "smiles": "OC1=C(O)C(=O)C(=O)C1=O", 
	 "Tm": 605.15, 
	 "num_atms": 12, 
	 "gaussian": { 
		 "optdone": 1, 
		 "sigma_profile": "yes", 
		 "theory": "DFT", 
		 "functional": "B3LYP", 
		 "basiset": "6-31G**", 
		 "properties": { 
			 "R2extent": 2813.1733, 
			 "electric_dipole_moment_norm": 6.91350093079, 
			 "electric_quadrupole_moment_norm": 22.4832726515, 
			 "total_energy": -567.776829257, 
			 "HOMO_LUMO_gap": 0.13491, 
			 "cosmo_polarized_energy": -30.29, 
			 "cosmo_cavitation_energy": 19.02, 
			 "cosmo_dispersion_energy": -13.72, 
			 "cosmo_repulsion_energy": 1.14, 
			 "cosmo_total_nonelectrostatic_energy": 6.43, 
			 "SMD_solvation_energy": 6.63 
		},
		"coords": [
			{
				"x": -2.2792642204,
				"y": 2.3398499926,
				"z": 0.942079682,
				"element": "O" 
			},
			{
				"x": -1.46487905,
				"y": 1.4892821645,
				"z": 1.5890072319,
				"element": "C" 
			},
			{
				"x": -0.8942143105,
				"y": 0.3242937917,
				"z": 1.1376723398,
				"element": "C" 
			},
			{
				"x": -0.9946830547,
				"y": -0.2558992124,
				"z": -0.0700065227,
				"element": "O" 
			},
			{
				"x": -0.0987542378,
				"y": -0.3373857646,
				"z": 2.1984737718,
				"element": "C" 
			},
			{
				"x": 0.4969059289,
				"y": -1.389117386,
				"z": 2.1177537249,
				"element": "O" 
			},
			{
				"x": -0.1697131358,
				"y": 0.6082896926,
				"z": 3.4107262153,
				"element": "C" 
			},
			{
				"x": 0.3586347116,
				"y": 0.4520361278,
				"z": 4.4821465567,
				"element": "O" 
			},
			{
				"x": -1.051386285,
				"y": 1.7936915384,
				"z": 2.9790478451,
				"element": "C" 
			},
			{
				"x": -1.3611076337,
				"y": 2.7610051549,
				"z": 3.6392318372,
				"element": "O" 
			},
			{
				"x": -2.7061762148,
				"y": 1.9146214774,
				"z": 0.1845162778,
				"element": "H" 
			},
			{
				"x": -1.2748624978,
				"y": 0.3782324232,
				"z": -0.7455489596,
				"element": "H" 
			}
		],
		 "valence_orbital": [ 
			{
				"type": "occ",
				"energy": -0.38013,
				"method": "rhf"
			},
			{
				"type": "occ",
				"energy": -0.33392,
				"method": "rhf"
			},
			{
				"type": "occ",
				"energy": -0.3032,
				"method": "rhf"
			},
			{
				"type": "occ",
				"energy": -0.27695,
				"method": "rhf"
			},
			{
				"type": "occ",
				"energy": -0.24539,
				"method": "rhf"
			},
			{
				"type": "unocc",
				"energy": -0.11048,
				"method": "rhf"
			},
			{
				"type": "unocc",
				"energy": -0.10405,
				"method": "rhf"
			},
			{
				"type": "unocc",
				"energy": -0.02494,
				"method": "rhf"
			},
			{
				"type": "unocc",
				"energy": 0.07603,
				"method": "rhf"
			},
			{
				"type": "unocc",
				"energy": 0.07684,
				"method": "rhf"
			}
		],
		"cosmo_sigma_profile": { 
			"-0.025": 0.83396463593,
			"-0.024": 1.03943039159,
			"-0.023": 1.6588951204,
			"-0.022": 1.42159269773,
			"-0.021": 2.08376723322,
			"-0.02": 1.81460614555,
			"-0.019": 1.29761575299,
			"-0.018": 1.36705149763,
			"-0.017": 1.25505250928,
			"-0.016": 1.02889910661,
			"-0.015": 1.30639659473,
			"-0.014": 1.49195558151,
			"-0.013": 0.965987569943,
			"-0.012": 1.70662435353,
			"-0.011": 2.56694372539,
			"-0.01": 3.08414465805,
			"-0.009": 3.82189795435,
			"-0.008": 4.25360779716,
			"-0.007": 4.54634424168,
			"-0.006": 5.00442493767,
			"-0.005": 4.11354023639,
			"-0.004": 4.17315802209,
			"-0.003": 4.94287798971,
			"-0.002": 4.1916711726,
			"-0.001": 3.55546034222,
			"0.0": 3.95854971799,
			"0.001": 4.22842156172,
			"0.002": 4.65820967325,
			"0.003": 4.29257304666,
			"0.004": 4.79740160774,
			"0.005": 6.90637930781,
			"0.006": 6.45639114304,
			"0.007": 8.43235822905,
			"0.008": 11.7672667776,
			"0.009": 15.5323744204,
			"0.01": 13.4366191829,
			"0.011": 5.19425113222,
			"0.012": 0.140340265699,
			"0.013": 0.0,
			"0.014": 0.0,
			"0.015": 0.0,
			"0.016": 0.0,
			"0.017": 0.0,
			"0.018": 0.0,
			"0.019": 0.0,
			"0.02": 0.0,
			"0.021": 0.0,
			"0.022": 0.0,
			"0.023": 0.0,
			"0.024": 0.0,
			"0.025": 0.0
		}
	}
}
