{
	 "smiles": "CS(=O)(=O)CCC(O)=O", 
	 "Tm": 374.15, 
	 "num_atms": 17, 
	 "gaussian": { 
		 "optdone": 1, 
		 "sigma_profile": "yes", 
		 "theory": "DFT", 
		 "functional": "B3LYP", 
		 "basiset": "6-31G**", 
		 "properties": { 
			 "R2extent": 1796.5709, 
			 "electric_dipole_moment_norm": 6.52386835704, 
			 "electric_quadrupole_moment_norm": 12.9061976411, 
			 "total_energy": -856.281372524, 
			 "HOMO_LUMO_gap": 0.27165, 
			 "cosmo_polarized_energy": -23.25, 
			 "cosmo_cavitation_energy": 21.77, 
			 "cosmo_dispersion_energy": -16.61, 
			 "cosmo_repulsion_energy": 1.31, 
			 "cosmo_total_nonelectrostatic_energy": 6.46, 
			 "SMD_solvation_energy": 4.69 
		},
		"coords": [
			{
				"x": 0.6470320396,
				"y": -2.3360860587,
				"z": -0.55883953,
				"element": "C" 
			},
			{
				"x": -0.8127146679,
				"y": -1.2846864614,
				"z": -0.7057147113,
				"element": "S" 
			},
			{
				"x": -0.3384376949,
				"y": 0.0306236646,
				"z": -1.2087242707,
				"element": "O" 
			},
			{
				"x": -1.8480485164,
				"y": -2.0237311642,
				"z": -1.4359131253,
				"element": "O" 
			},
			{
				"x": -1.3868497348,
				"y": -1.0346817394,
				"z": 1.005039539,
				"element": "C" 
			},
			{
				"x": -0.5663822545,
				"y": -0.025988328,
				"z": 1.8291963046,
				"element": "C" 
			},
			{
				"x": -1.0511556742,
				"y": 1.4315190414,
				"z": 1.7484128553,
				"element": "C" 
			},
			{
				"x": -1.1513128464,
				"y": 1.9743455797,
				"z": 0.5278272488,
				"element": "O" 
			},
			{
				"x": -1.3265888373,
				"y": 2.0546262934,
				"z": 2.7464614803,
				"element": "O" 
			},
			{
				"x": 0.3455646199,
				"y": -3.3152885834,
				"z": -0.1845565437,
				"element": "H" 
			},
			{
				"x": 1.0519771159,
				"y": -2.4244001405,
				"z": -1.5686383069,
				"element": "H" 
			},
			{
				"x": 1.3802530355,
				"y": -1.8643872845,
				"z": 0.0969667612,
				"element": "H" 
			},
			{
				"x": -1.3935635996,
				"y": -2.0280395879,
				"z": 1.4626996989,
				"element": "H" 
			},
			{
				"x": -2.429914861,
				"y": -0.726767839,
				"z": 0.881804724,
				"element": "H" 
			},
			{
				"x": -0.6260021298,
				"y": -0.3005117694,
				"z": 2.8835648703,
				"element": "H" 
			},
			{
				"x": 0.4932314508,
				"y": -0.060826831,
				"z": 1.546882217,
				"element": "H" 
			},
			{
				"x": -0.8403874449,
				"y": 1.3638812083,
				"z": -0.1784692115,
				"element": "H" 
			}
		],
		 "valence_orbital": [ 
			{
				"type": "occ",
				"energy": -0.33982,
				"method": "rhf"
			},
			{
				"type": "occ",
				"energy": -0.326,
				"method": "rhf"
			},
			{
				"type": "occ",
				"energy": -0.31569,
				"method": "rhf"
			},
			{
				"type": "occ",
				"energy": -0.30668,
				"method": "rhf"
			},
			{
				"type": "occ",
				"energy": -0.26628,
				"method": "rhf"
			},
			{
				"type": "unocc",
				"energy": 0.00537,
				"method": "rhf"
			},
			{
				"type": "unocc",
				"energy": 0.02781,
				"method": "rhf"
			},
			{
				"type": "unocc",
				"energy": 0.04418,
				"method": "rhf"
			},
			{
				"type": "unocc",
				"energy": 0.05129,
				"method": "rhf"
			},
			{
				"type": "unocc",
				"energy": 0.06464,
				"method": "rhf"
			}
		],
		"cosmo_sigma_profile": { 
			"-0.025": 0.0,
			"-0.024": 0.0,
			"-0.023": 0.0,
			"-0.022": 0.0,
			"-0.021": 0.0,
			"-0.02": 0.0,
			"-0.019": 0.0,
			"-0.018": 0.0,
			"-0.017": 0.0,
			"-0.016": 0.0,
			"-0.015": 0.0,
			"-0.014": 0.0,
			"-0.013": 0.0471784209999,
			"-0.012": 0.76341942839,
			"-0.011": 2.79930747331,
			"-0.01": 7.27952264623,
			"-0.009": 12.9273821114,
			"-0.008": 12.7576212005,
			"-0.007": 11.8646852545,
			"-0.006": 11.6350240502,
			"-0.005": 10.6120150117,
			"-0.004": 10.5062136227,
			"-0.003": 5.64904931648,
			"-0.002": 4.22965828866,
			"-0.001": 3.7009136255,
			"0.0": 3.91851277124,
			"0.001": 3.13832538084,
			"0.002": 4.02750284448,
			"0.003": 3.31919686909,
			"0.004": 3.85686598333,
			"0.005": 3.74979736001,
			"0.006": 3.59557208396,
			"0.007": 4.85526063172,
			"0.008": 5.57198227567,
			"0.009": 5.49231537138,
			"0.01": 9.2734538286,
			"0.011": 14.5304855644,
			"0.012": 8.15471207363,
			"0.013": 3.29872966033,
			"0.014": 0.383346890775,
			"0.015": 0.0,
			"0.016": 0.0,
			"0.017": 0.0,
			"0.018": 0.0,
			"0.019": 0.0,
			"0.02": 0.0,
			"0.021": 0.0,
			"0.022": 0.0,
			"0.023": 0.0,
			"0.024": 0.0,
			"0.025": 0.0
		}
	}
}
