{
	 "smiles": "CN1CCN(CC1)S(=O)(=O)C1=CN=C(S)C=C1", 
	 "Tm": 290.15, 
	 "num_atms": 32, 
	 "gaussian": { 
		 "optdone": 1, 
		 "sigma_profile": "yes", 
		 "theory": "DFT", 
		 "functional": "B3LYP", 
		 "basiset": "6-31G**", 
		 "properties": { 
			 "R2extent": 6661.779, 
			 "electric_dipole_moment_norm": 4.43907899119, 
			 "electric_quadrupole_moment_norm": 15.487635468, 
			 "total_energy": -1501.08026381, 
			 "HOMO_LUMO_gap": 0.16558, 
			 "cosmo_polarized_energy": -16.1, 
			 "cosmo_cavitation_energy": 36.89, 
			 "cosmo_dispersion_energy": -27.06, 
			 "cosmo_repulsion_energy": 2.0, 
			 "cosmo_total_nonelectrostatic_energy": 11.83, 
			 "SMD_solvation_energy": -0.2 
		},
		"coords": [
			{
				"x": 2.0070303284,
				"y": 0.8587860344,
				"z": 3.3020683578,
				"element": "C" 
			},
			{
				"x": 1.0447430474,
				"y": 0.8917467937,
				"z": 2.2112573775,
				"element": "N" 
			},
			{
				"x": 0.0699652314,
				"y": -0.1961834003,
				"z": 2.3229293585,
				"element": "C" 
			},
			{
				"x": -0.7051175418,
				"y": -0.3801677025,
				"z": 1.0223827375,
				"element": "C" 
			},
			{
				"x": 0.2359309937,
				"y": -0.8184138233,
				"z": -0.0272175618,
				"element": "N" 
			},
			{
				"x": 1.6256107237,
				"y": -0.3266909122,
				"z": 0.0932520258,
				"element": "C" 
			},
			{
				"x": 1.648413393,
				"y": 0.9939591171,
				"z": 0.8708898785,
				"element": "C" 
			},
			{
				"x": -0.3881456478,
				"y": -1.1622575728,
				"z": -1.5378944812,
				"element": "S" 
			},
			{
				"x": 0.7121086125,
				"y": -1.7171908747,
				"z": -2.3280648208,
				"element": "O" 
			},
			{
				"x": -1.6426545338,
				"y": -1.8812425864,
				"z": -1.3064261432,
				"element": "O" 
			},
			{
				"x": -0.8329036394,
				"y": 0.4023417173,
				"z": -2.2978131574,
				"element": "C" 
			},
			{
				"x": 0.0862351543,
				"y": 1.092717856,
				"z": -3.0907549959,
				"element": "C" 
			},
			{
				"x": -0.1800517566,
				"y": 2.2788846893,
				"z": -3.6484122159,
				"element": "N" 
			},
			{
				"x": -1.3879429399,
				"y": 2.8126042997,
				"z": -3.4372907025,
				"element": "C" 
			},
			{
				"x": -1.7334150903,
				"y": 4.3971747148,
				"z": -4.1711571469,
				"element": "S" 
			},
			{
				"x": -2.3905260851,
				"y": 2.1836595595,
				"z": -2.6785426119,
				"element": "C" 
			},
			{
				"x": -2.1037396563,
				"y": 0.9557429114,
				"z": -2.1001747049,
				"element": "C" 
			},
			{
				"x": 2.6563804462,
				"y": 1.7381456514,
				"z": 3.2557904826,
				"element": "H" 
			},
			{
				"x": 2.6466862026,
				"y": -0.0451425733,
				"z": 3.3100670029,
				"element": "H" 
			},
			{
				"x": 1.4733919777,
				"y": 0.8916939763,
				"z": 4.2582836333,
				"element": "H" 
			},
			{
				"x": 0.5456500715,
				"y": -1.161177075,
				"z": 2.5826870081,
				"element": "H" 
			},
			{
				"x": -0.6371203019,
				"y": 0.035648539,
				"z": 3.1290803486,
				"element": "H" 
			},
			{
				"x": -1.4738972679,
				"y": -1.1451123853,
				"z": 1.1420422405,
				"element": "H" 
			},
			{
				"x": -1.1970965669,
				"y": 0.5688122627,
				"z": 0.7582206443,
				"element": "H" 
			},
			{
				"x": 2.0567844023,
				"y": -0.2028799913,
				"z": -0.9022957895,
				"element": "H" 
			},
			{
				"x": 2.2263075482,
				"y": -1.0885605998,
				"z": 0.6046970806,
				"element": "H" 
			},
			{
				"x": 1.1175061009,
				"y": 1.7559255813,
				"z": 0.2834587282,
				"element": "H" 
			},
			{
				"x": 2.6836637276,
				"y": 1.3363181458,
				"z": 0.9669266447,
				"element": "H" 
			},
			{
				"x": 1.0611173243,
				"y": 0.6620387032,
				"z": -3.3022802724,
				"element": "H" 
			},
			{
				"x": -0.5295378118,
				"y": 4.5002252576,
				"z": -4.7653434578,
				"element": "H" 
			},
			{
				"x": -3.3655841393,
				"y": 2.6437198276,
				"z": -2.5581040894,
				"element": "H" 
			},
			{
				"x": -2.8502923068,
				"y": 0.4142738586,
				"z": -1.5290613979,
				"element": "H" 
			}
		],
		 "valence_orbital": [ 
			{
				"type": "occ",
				"energy": -0.30501,
				"method": "rhf"
			},
			{
				"type": "occ",
				"energy": -0.2794,
				"method": "rhf"
			},
			{
				"type": "occ",
				"energy": -0.26257,
				"method": "rhf"
			},
			{
				"type": "occ",
				"energy": -0.24189,
				"method": "rhf"
			},
			{
				"type": "occ",
				"energy": -0.2175,
				"method": "rhf"
			},
			{
				"type": "unocc",
				"energy": -0.05192,
				"method": "rhf"
			},
			{
				"type": "unocc",
				"energy": -0.04465,
				"method": "rhf"
			},
			{
				"type": "unocc",
				"energy": 0.00483,
				"method": "rhf"
			},
			{
				"type": "unocc",
				"energy": 0.05621,
				"method": "rhf"
			},
			{
				"type": "unocc",
				"energy": 0.06715,
				"method": "rhf"
			}
		],
		"cosmo_sigma_profile": { 
			"-0.025": 0.0,
			"-0.024": 0.0,
			"-0.023": 0.0,
			"-0.022": 0.0,
			"-0.021": 0.0,
			"-0.02": 0.0,
			"-0.019": 0.0,
			"-0.018": 0.0,
			"-0.017": 0.0,
			"-0.016": 0.0,
			"-0.015": 0.0,
			"-0.014": 0.0,
			"-0.013": 0.0,
			"-0.012": 0.0340509580805,
			"-0.011": 1.225525684,
			"-0.01": 1.32371376053,
			"-0.009": 2.54674946377,
			"-0.008": 6.09139676489,
			"-0.007": 7.33243778521,
			"-0.006": 8.53404865793,
			"-0.005": 19.7208384413,
			"-0.004": 31.602301145,
			"-0.003": 31.1371639344,
			"-0.002": 26.660247747,
			"-0.001": 27.7206552128,
			"0.0": 26.0686173698,
			"0.001": 13.9031900506,
			"0.002": 10.9924326866,
			"0.003": 11.235996812,
			"0.004": 9.02349581907,
			"0.005": 9.21895837044,
			"0.006": 8.26381785704,
			"0.007": 7.31626871221,
			"0.008": 5.67546947547,
			"0.009": 5.29758026312,
			"0.01": 7.21787241633,
			"0.011": 9.71786205644,
			"0.012": 4.1210400825,
			"0.013": 0.602373217887,
			"0.014": 0.517557357654,
			"0.015": 0.233283672499,
			"0.016": 0.393664423487,
			"0.017": 0.00333591096723,
			"0.018": 0.0,
			"0.019": 0.0,
			"0.02": 0.0,
			"0.021": 0.0,
			"0.022": 0.0,
			"0.023": 0.0,
			"0.024": 0.0,
			"0.025": 0.0
		}
	}
}
