{
	 "smiles": "OC(=O)C1=C2OCCOC2=CC(=C1)[N+]([O-])=O", 
	 "Tm": 522.15, 
	 "num_atms": 23, 
	 "gaussian": { 
		 "optdone": 1, 
		 "sigma_profile": "yes", 
		 "theory": "DFT", 
		 "functional": "B3LYP", 
		 "basiset": "6-31G**", 
		 "properties": { 
			 "R2extent": 4748.6263, 
			 "electric_dipole_moment_norm": 9.20996066767, 
			 "electric_quadrupole_moment_norm": 16.834525753, 
			 "total_energy": -853.161480221, 
			 "HOMO_LUMO_gap": 0.1653, 
			 "cosmo_polarized_energy": -20.35, 
			 "cosmo_cavitation_energy": 28.06, 
			 "cosmo_dispersion_energy": -21.19, 
			 "cosmo_repulsion_energy": 1.63, 
			 "cosmo_total_nonelectrostatic_energy": 8.5, 
			 "SMD_solvation_energy": 8.62 
		},
		"coords": [
			{
				"x": 2.1206938474,
				"y": -2.551850424,
				"z": -1.1499098525,
				"element": "O" 
			},
			{
				"x": 1.6007367486,
				"y": -2.8750635606,
				"z": 0.0477667238,
				"element": "C" 
			},
			{
				"x": 2.0496540627,
				"y": -3.7958317194,
				"z": 0.6907556704,
				"element": "O" 
			},
			{
				"x": 0.4419501037,
				"y": -2.0490750292,
				"z": 0.5652558942,
				"element": "C" 
			},
			{
				"x": -0.1605687643,
				"y": -0.9755680717,
				"z": -0.1192892115,
				"element": "C" 
			},
			{
				"x": 0.3148790428,
				"y": -0.623009105,
				"z": -1.3597213114,
				"element": "O" 
			},
			{
				"x": -0.1020346793,
				"y": 0.6677107647,
				"z": -1.8417126318,
				"element": "C" 
			},
			{
				"x": -1.5885450113,
				"y": 0.8351699105,
				"z": -1.594927299,
				"element": "C" 
			},
			{
				"x": -1.8578959895,
				"y": 0.7637390927,
				"z": -0.1949538421,
				"element": "O" 
			},
			{
				"x": -1.2422577247,
				"y": -0.2737100666,
				"z": 0.4518719474,
				"element": "C" 
			},
			{
				"x": -1.7070870774,
				"y": -0.6219673959,
				"z": 1.7136791354,
				"element": "C" 
			},
			{
				"x": -1.0928054973,
				"y": -1.6772168972,
				"z": 2.3832603257,
				"element": "C" 
			},
			{
				"x": -0.0425223637,
				"y": -2.3960671944,
				"z": 1.8297099992,
				"element": "C" 
			},
			{
				"x": -1.58950169,
				"y": -2.0430140349,
				"z": 3.7189121113,
				"element": "N" 
			},
			{
				"x": -2.5192744071,
				"y": -1.3797523292,
				"z": 4.1786887533,
				"element": "O" 
			},
			{
				"x": -1.0458696391,
				"y": -2.9852522461,
				"z": 4.2901873164,
				"element": "O" 
			},
			{
				"x": 1.648746398,
				"y": -1.7895682674,
				"z": -1.5300697811,
				"element": "H" 
			},
			{
				"x": 0.4679571196,
				"y": 1.4470157741,
				"z": -1.3229216601,
				"element": "H" 
			},
			{
				"x": 0.1393027023,
				"y": 0.6848899799,
				"z": -2.9060653825,
				"element": "H" 
			},
			{
				"x": -1.9353682408,
				"y": 1.8158530462,
				"z": -1.9277397134,
				"element": "H" 
			},
			{
				"x": -2.1506865059,
				"y": 0.055780494,
				"z": -2.1258220909,
				"element": "H" 
			},
			{
				"x": -2.5343513116,
				"y": -0.0853925839,
				"z": 2.1598958336,
				"element": "H" 
			},
			{
				"x": 0.4174488769,
				"y": -3.2183201367,
				"z": 2.3617490659,
				"element": "H" 
			}
		],
		 "valence_orbital": [ 
			{
				"type": "occ",
				"energy": -0.31117,
				"method": "rhf"
			},
			{
				"type": "occ",
				"energy": -0.29441,
				"method": "rhf"
			},
			{
				"type": "occ",
				"energy": -0.28053,
				"method": "rhf"
			},
			{
				"type": "occ",
				"energy": -0.27936,
				"method": "rhf"
			},
			{
				"type": "occ",
				"energy": -0.25869,
				"method": "rhf"
			},
			{
				"type": "unocc",
				"energy": -0.09339,
				"method": "rhf"
			},
			{
				"type": "unocc",
				"energy": -0.06304,
				"method": "rhf"
			},
			{
				"type": "unocc",
				"energy": -0.00669,
				"method": "rhf"
			},
			{
				"type": "unocc",
				"energy": 0.03553,
				"method": "rhf"
			},
			{
				"type": "unocc",
				"energy": 0.04848,
				"method": "rhf"
			}
		],
		"cosmo_sigma_profile": { 
			"-0.025": 0.0,
			"-0.024": 0.0,
			"-0.023": 0.0,
			"-0.022": 0.0,
			"-0.021": 0.0,
			"-0.02": 0.0,
			"-0.019": 0.0,
			"-0.018": 0.0,
			"-0.017": 0.0,
			"-0.016": 0.0,
			"-0.015": 0.0,
			"-0.014": 0.0,
			"-0.013": 0.0,
			"-0.012": 0.0288727755537,
			"-0.011": 0.366590300914,
			"-0.01": 0.804452993214,
			"-0.009": 3.43168129719,
			"-0.008": 12.9461045423,
			"-0.007": 18.174581717,
			"-0.006": 15.2430368567,
			"-0.005": 13.4643210322,
			"-0.004": 12.3643880141,
			"-0.003": 13.0465884241,
			"-0.002": 16.7863659647,
			"-0.001": 19.8040313391,
			"0.0": 12.4796916525,
			"0.001": 6.86349308051,
			"0.002": 5.24846710799,
			"0.003": 5.57502810066,
			"0.004": 5.91491988822,
			"0.005": 6.58652337146,
			"0.006": 6.73242863017,
			"0.007": 12.6702406822,
			"0.008": 10.8346760677,
			"0.009": 8.28318102466,
			"0.01": 6.87126154633,
			"0.011": 5.91751696092,
			"0.012": 3.65381091385,
			"0.013": 1.10597250768,
			"0.014": 0.0,
			"0.015": 0.0,
			"0.016": 0.0,
			"0.017": 0.0,
			"0.018": 0.0,
			"0.019": 0.0,
			"0.02": 0.0,
			"0.021": 0.0,
			"0.022": 0.0,
			"0.023": 0.0,
			"0.024": 0.0,
			"0.025": 0.0
		}
	}
}
