{
	 "smiles": "CC(=O)C(=O)C1=CC(C(=O)C(C)=O)=C(C=C1[N+]([O-])=O)[N+]([O-])=O", 
	 "Tm": 392.15, 
	 "num_atms": 30, 
	 "gaussian": { 
		 "optdone": 1, 
		 "sigma_profile": "yes", 
		 "theory": "DFT", 
		 "functional": "B3LYP", 
		 "basiset": "6-31G**", 
		 "properties": { 
			 "R2extent": 7601.8276, 
			 "electric_dipole_moment_norm": 2.44880678903, 
			 "electric_quadrupole_moment_norm": 10.1176144313, 
			 "total_energy": -1173.14474544, 
			 "HOMO_LUMO_gap": 0.12517, 
			 "cosmo_polarized_energy": -16.33, 
			 "cosmo_cavitation_energy": 38.39, 
			 "cosmo_dispersion_energy": -25.69, 
			 "cosmo_repulsion_energy": 1.96, 
			 "cosmo_total_nonelectrostatic_energy": 14.67, 
			 "SMD_solvation_energy": 13.24 
		},
		"coords": [
			{
				"x": 0.276733105,
				"y": -5.2485171247,
				"z": -0.5292139238,
				"element": "C" 
			},
			{
				"x": 0.596414208,
				"y": -3.9809393022,
				"z": 0.2100530775,
				"element": "C" 
			},
			{
				"x": 1.470064268,
				"y": -3.8538875082,
				"z": 1.0447429138,
				"element": "O" 
			},
			{
				"x": -0.3151769379,
				"y": -2.7683663784,
				"z": -0.0872333436,
				"element": "C" 
			},
			{
				"x": -1.4301069539,
				"y": -2.9073761196,
				"z": -0.5445077215,
				"element": "O" 
			},
			{
				"x": 0.1587074304,
				"y": -1.4206163592,
				"z": 0.4144442672,
				"element": "C" 
			},
			{
				"x": -0.6881971843,
				"y": -0.7206137669,
				"z": 1.27758984,
				"element": "C" 
			},
			{
				"x": -0.3257633727,
				"y": 0.512542582,
				"z": 1.8255836363,
				"element": "C" 
			},
			{
				"x": -1.3370058638,
				"y": 1.2054031725,
				"z": 2.7144121049,
				"element": "C" 
			},
			{
				"x": -1.8967604523,
				"y": 0.6059197503,
				"z": 3.6081668045,
				"element": "O" 
			},
			{
				"x": -1.77424043,
				"y": 2.6271783234,
				"z": 2.2936004699,
				"element": "C" 
			},
			{
				"x": -2.5413016726,
				"y": 3.415458021,
				"z": 3.3161646456,
				"element": "C" 
			},
			{
				"x": -1.519705654,
				"y": 2.9976858647,
				"z": 1.1648505827,
				"element": "O" 
			},
			{
				"x": 0.9386865642,
				"y": 1.0218035477,
				"z": 1.5077771085,
				"element": "C" 
			},
			{
				"x": 1.7977727177,
				"y": 0.3754465283,
				"z": 0.6296565782,
				"element": "C" 
			},
			{
				"x": 1.3846246915,
				"y": -0.831846836,
				"z": 0.08319308,
				"element": "C" 
			},
			{
				"x": 2.2588998444,
				"y": -1.4637985752,
				"z": -0.9181568054,
				"element": "N" 
			},
			{
				"x": 1.758063013,
				"y": -2.3513320335,
				"z": -1.6152223315,
				"element": "O" 
			},
			{
				"x": 3.4077540627,
				"y": -1.0553479686,
				"z": -1.0185753816,
				"element": "O" 
			},
			{
				"x": 1.4215535988,
				"y": 2.2522675111,
				"z": 2.1552144147,
				"element": "N" 
			},
			{
				"x": 0.7967777955,
				"y": 2.6435770339,
				"z": 3.1456613447,
				"element": "O" 
			},
			{
				"x": 2.4196350304,
				"y": 2.7904714357,
				"z": 1.6959168087,
				"element": "O" 
			},
			{
				"x": 0.8519277599,
				"y": -6.0748475178,
				"z": -0.1109829527,
				"element": "H" 
			},
			{
				"x": 0.5369040056,
				"y": -5.1147318041,
				"z": -1.5859361789,
				"element": "H" 
			},
			{
				"x": -0.7963049274,
				"y": -5.4547224273,
				"z": -0.490022407,
				"element": "H" 
			},
			{
				"x": -1.6535832491,
				"y": -1.1461669501,
				"z": 1.5292385988,
				"element": "H" 
			},
			{
				"x": -2.9549284096,
				"y": 4.3131110205,
				"z": 2.8560363428,
				"element": "H" 
			},
			{
				"x": -3.3287663341,
				"y": 2.8014021326,
				"z": 3.7614856015,
				"element": "H" 
			},
			{
				"x": -1.8596135472,
				"y": 3.6966847276,
				"z": 4.1276159709,
				"element": "H" 
			},
			{
				"x": 2.7607368942,
				"y": 0.8000590206,
				"z": 0.3785468548,
				"element": "H" 
			}
		],
		 "valence_orbital": [ 
			{
				"type": "occ",
				"energy": -0.32948,
				"method": "rhf"
			},
			{
				"type": "occ",
				"energy": -0.31845,
				"method": "rhf"
			},
			{
				"type": "occ",
				"energy": -0.31791,
				"method": "rhf"
			},
			{
				"type": "occ",
				"energy": -0.26831,
				"method": "rhf"
			},
			{
				"type": "occ",
				"energy": -0.26445,
				"method": "rhf"
			},
			{
				"type": "unocc",
				"energy": -0.13928,
				"method": "rhf"
			},
			{
				"type": "unocc",
				"energy": -0.12262,
				"method": "rhf"
			},
			{
				"type": "unocc",
				"energy": -0.10035,
				"method": "rhf"
			},
			{
				"type": "unocc",
				"energy": -0.09596,
				"method": "rhf"
			},
			{
				"type": "unocc",
				"energy": -0.05703,
				"method": "rhf"
			}
		],
		"cosmo_sigma_profile": { 
			"-0.025": 0.0,
			"-0.024": 0.0,
			"-0.023": 0.0,
			"-0.022": 0.0,
			"-0.021": 0.0,
			"-0.02": 0.0,
			"-0.019": 0.0,
			"-0.018": 0.0,
			"-0.017": 0.0,
			"-0.016": 0.0,
			"-0.015": 0.0,
			"-0.014": 0.0,
			"-0.013": 0.0,
			"-0.012": 0.0,
			"-0.011": 0.142868479245,
			"-0.01": 2.53506344988,
			"-0.009": 6.14714010381,
			"-0.008": 7.86130325737,
			"-0.007": 12.2291734319,
			"-0.006": 19.7226617828,
			"-0.005": 23.7660193328,
			"-0.004": 25.4143524259,
			"-0.003": 27.1314963882,
			"-0.002": 23.6678194668,
			"-0.001": 16.1253580241,
			"0.0": 13.7379707205,
			"0.001": 11.5296213841,
			"0.002": 10.950580108,
			"0.003": 11.8522691262,
			"0.004": 13.6687526209,
			"0.005": 14.7652846189,
			"0.006": 17.5183108529,
			"0.007": 15.1310999525,
			"0.008": 13.9605036531,
			"0.009": 12.3354842806,
			"0.01": 5.58711572728,
			"0.011": 2.17521846651,
			"0.012": 0.0366786236629,
			"0.013": 0.0,
			"0.014": 0.0,
			"0.015": 0.0,
			"0.016": 0.0,
			"0.017": 0.0,
			"0.018": 0.0,
			"0.019": 0.0,
			"0.02": 0.0,
			"0.021": 0.0,
			"0.022": 0.0,
			"0.023": 0.0,
			"0.024": 0.0,
			"0.025": 0.0
		}
	}
}
