{
	 "smiles": "CC(Cl)C(C)(C)C", 
	 "Tm": 272.15, 
	 "num_atms": 20, 
	 "gaussian": { 
		 "optdone": 1, 
		 "sigma_profile": "yes", 
		 "theory": "DFT", 
		 "functional": "B3LYP", 
		 "basiset": "6-31G**", 
		 "properties": { 
			 "R2extent": 1360.8527, 
			 "electric_dipole_moment_norm": 2.31722104254, 
			 "electric_quadrupole_moment_norm": 6.283505933, 
			 "total_energy": -696.69098974, 
			 "HOMO_LUMO_gap": 0.31076, 
			 "cosmo_polarized_energy": -3.8, 
			 "cosmo_cavitation_energy": 22.06, 
			 "cosmo_dispersion_energy": -16.05, 
			 "cosmo_repulsion_energy": 1.32, 
			 "cosmo_total_nonelectrostatic_energy": 7.33, 
			 "SMD_solvation_energy": 3.76 
		},
		"coords": [
			{
				"x": -2.3641213391,
				"y": -0.2506699808,
				"z": 1.0647434693,
				"element": "C" 
			},
			{
				"x": -1.2376685013,
				"y": -1.1801511612,
				"z": 0.6235720272,
				"element": "C" 
			},
			{
				"x": -1.9332690611,
				"y": -2.3098642506,
				"z": -0.6672858589,
				"element": "Cl" 
			},
			{
				"x": 0.0760180466,
				"y": -0.5065637866,
				"z": 0.1369704686,
				"element": "C" 
			},
			{
				"x": 0.6286872623,
				"y": 0.3447610838,
				"z": 1.3047378318,
				"element": "C" 
			},
			{
				"x": -0.1506367421,
				"y": 0.3958598912,
				"z": -1.0896860198,
				"element": "C" 
			},
			{
				"x": 1.1214014891,
				"y": -1.5878174995,
				"z": -0.2035566494,
				"element": "C" 
			},
			{
				"x": -2.0379523188,
				"y": 0.3706510583,
				"z": 1.9044043041,
				"element": "H" 
			},
			{
				"x": -3.227000235,
				"y": -0.8341825001,
				"z": 1.3934725535,
				"element": "H" 
			},
			{
				"x": -2.688140989,
				"y": 0.4040939835,
				"z": 0.2521568347,
				"element": "H" 
			},
			{
				"x": -0.9864876422,
				"y": -1.8634778351,
				"z": 1.4396383395,
				"element": "H" 
			},
			{
				"x": 1.6181223423,
				"y": 0.7323199089,
				"z": 1.041361364,
				"element": "H" 
			},
			{
				"x": 0.7399333262,
				"y": -0.2490109385,
				"z": 2.2195723238,
				"element": "H" 
			},
			{
				"x": -0.0094998853,
				"y": 1.2036942992,
				"z": 1.5307602453,
				"element": "H" 
			},
			{
				"x": -0.8428249147,
				"y": 1.2155403737,
				"z": -0.8724159804,
				"element": "H" 
			},
			{
				"x": -0.5503319566,
				"y": -0.1738001352,
				"z": -1.9328436228,
				"element": "H" 
			},
			{
				"x": 0.7984554635,
				"y": 0.8433210437,
				"z": -1.4032450599,
				"element": "H" 
			},
			{
				"x": 0.7987770075,
				"y": -2.2089853121,
				"z": -1.0420577323,
				"element": "H" 
			},
			{
				"x": 2.0735599847,
				"y": -1.1189279926,
				"z": -0.4732807918,
				"element": "H" 
			},
			{
				"x": 1.3045786631,
				"y": -2.2458902501,
				"z": 0.6538819536,
				"element": "H" 
			}
		],
		 "valence_orbital": [ 
			{
				"type": "occ",
				"energy": -0.33655,
				"method": "rhf"
			},
			{
				"type": "occ",
				"energy": -0.3288,
				"method": "rhf"
			},
			{
				"type": "occ",
				"energy": -0.32523,
				"method": "rhf"
			},
			{
				"type": "occ",
				"energy": -0.28495,
				"method": "rhf"
			},
			{
				"type": "occ",
				"energy": -0.28467,
				"method": "rhf"
			},
			{
				"type": "unocc",
				"energy": 0.02609,
				"method": "rhf"
			},
			{
				"type": "unocc",
				"energy": 0.07406,
				"method": "rhf"
			},
			{
				"type": "unocc",
				"energy": 0.11533,
				"method": "rhf"
			},
			{
				"type": "unocc",
				"energy": 0.12293,
				"method": "rhf"
			},
			{
				"type": "unocc",
				"energy": 0.13087,
				"method": "rhf"
			}
		],
		"cosmo_sigma_profile": { 
			"-0.025": 0.0,
			"-0.024": 0.0,
			"-0.023": 0.0,
			"-0.022": 0.0,
			"-0.021": 0.0,
			"-0.02": 0.0,
			"-0.019": 0.0,
			"-0.018": 0.0,
			"-0.017": 0.0,
			"-0.016": 0.0,
			"-0.015": 0.0,
			"-0.014": 0.0,
			"-0.013": 0.0,
			"-0.012": 0.0,
			"-0.011": 0.0,
			"-0.01": 0.0,
			"-0.009": 0.0,
			"-0.008": 0.0,
			"-0.007": 0.0,
			"-0.006": 0.899535141964,
			"-0.005": 3.92550410292,
			"-0.004": 11.031490173,
			"-0.003": 23.8236973171,
			"-0.002": 23.3362345293,
			"-0.001": 20.6058122115,
			"0.0": 22.4181589631,
			"0.001": 24.5325212309,
			"0.002": 10.8212960761,
			"0.003": 5.2754050713,
			"0.004": 5.14695111331,
			"0.005": 5.88829289612,
			"0.006": 5.69787982612,
			"0.007": 6.99198405282,
			"0.008": 1.67605158841,
			"0.009": 0.0,
			"0.01": 0.0,
			"0.011": 0.0,
			"0.012": 0.0,
			"0.013": 0.0,
			"0.014": 0.0,
			"0.015": 0.0,
			"0.016": 0.0,
			"0.017": 0.0,
			"0.018": 0.0,
			"0.019": 0.0,
			"0.02": 0.0,
			"0.021": 0.0,
			"0.022": 0.0,
			"0.023": 0.0,
			"0.024": 0.0,
			"0.025": 0.0
		}
	}
}
