{
	 "smiles": "BrC1=NC2=CC=NN2C=C1", 
	 "Tm": 405.15, 
	 "num_atms": 14, 
	 "gaussian": { 
		 "optdone": 1, 
		 "sigma_profile": "yes", 
		 "theory": "DFT", 
		 "functional": "B3LYP", 
		 "basiset": "6-31G**", 
		 "properties": { 
			 "R2extent": 3671.1232, 
			 "electric_dipole_moment_norm": 1.62205749898, 
			 "electric_quadrupole_moment_norm": 10.4308618239, 
			 "total_energy": -2966.67125502, 
			 "HOMO_LUMO_gap": 0.17029, 
			 "cosmo_polarized_energy": -8.33, 
			 "cosmo_cavitation_energy": 21.08, 
			 "cosmo_dispersion_energy": -16.5, 
			 "cosmo_repulsion_energy": 1.32, 
			 "cosmo_total_nonelectrostatic_energy": 5.9, 
			 "SMD_solvation_energy": 0.49 
		},
		"coords": [
			{
				"x": 2.6740114062,
				"y": -1.0154533449,
				"z": 2.5167370644,
				"element": "Br" 
			},
			{
				"x": 1.1417145094,
				"y": -1.5296331294,
				"z": 1.4860910669,
				"element": "C" 
			},
			{
				"x": 0.0389832759,
				"y": -0.8691250332,
				"z": 1.6751443512,
				"element": "N" 
			},
			{
				"x": -1.0351442723,
				"y": -1.2431751905,
				"z": 0.9413681827,
				"element": "C" 
			},
			{
				"x": -2.3483423125,
				"y": -0.7945675883,
				"z": 0.8616347932,
				"element": "C" 
			},
			{
				"x": -2.9453481204,
				"y": -1.620972691,
				"z": -0.104227364,
				"element": "C" 
			},
			{
				"x": -2.1127849011,
				"y": -2.5368782885,
				"z": -0.6230935679,
				"element": "N" 
			},
			{
				"x": -0.9476817671,
				"y": -2.3033998633,
				"z": 0.0173732836,
				"element": "N" 
			},
			{
				"x": 0.2153108423,
				"y": -2.9826500832,
				"z": -0.1661706422,
				"element": "C" 
			},
			{
				"x": 1.3061088261,
				"y": -2.6117585519,
				"z": 0.5708653729,
				"element": "C" 
			},
			{
				"x": -2.7885604087,
				"y": 0.0114982095,
				"z": 1.4263945935,
				"element": "H" 
			},
			{
				"x": -3.9680846539,
				"y": -1.5934685755,
				"z": -0.4567608485,
				"element": "H" 
			},
			{
				"x": 0.1942232691,
				"y": -3.782990565,
				"z": -0.8957789637,
				"element": "H" 
			},
			{
				"x": 2.2543943069,
				"y": -3.1189253048,
				"z": 0.4634226778,
				"element": "H" 
			}
		],
		 "valence_orbital": [ 
			{
				"type": "occ",
				"energy": -0.30843,
				"method": "rhf"
			},
			{
				"type": "occ",
				"energy": -0.29709,
				"method": "rhf"
			},
			{
				"type": "occ",
				"energy": -0.28228,
				"method": "rhf"
			},
			{
				"type": "occ",
				"energy": -0.2635,
				"method": "rhf"
			},
			{
				"type": "occ",
				"energy": -0.23466,
				"method": "rhf"
			},
			{
				"type": "unocc",
				"energy": -0.06437,
				"method": "rhf"
			},
			{
				"type": "unocc",
				"energy": -0.02391,
				"method": "rhf"
			},
			{
				"type": "unocc",
				"energy": -0.002,
				"method": "rhf"
			},
			{
				"type": "unocc",
				"energy": 0.05323,
				"method": "rhf"
			},
			{
				"type": "unocc",
				"energy": 0.0945,
				"method": "rhf"
			}
		],
		"cosmo_sigma_profile": { 
			"-0.025": 0.0,
			"-0.024": 0.0,
			"-0.023": 0.0,
			"-0.022": 0.0,
			"-0.021": 0.0,
			"-0.02": 0.0,
			"-0.019": 0.0,
			"-0.018": 0.0,
			"-0.017": 0.0,
			"-0.016": 0.0,
			"-0.015": 0.0,
			"-0.014": 0.0,
			"-0.013": 0.0,
			"-0.012": 0.00393572209572,
			"-0.011": 1.60001992232,
			"-0.01": 2.023263715,
			"-0.009": 4.01648208694,
			"-0.008": 5.78618028842,
			"-0.007": 7.04471552264,
			"-0.006": 5.09149085876,
			"-0.005": 8.19139264141,
			"-0.004": 9.89711707635,
			"-0.003": 11.2245583443,
			"-0.002": 13.9422758825,
			"-0.001": 13.9617543774,
			"0.0": 12.183811928,
			"0.001": 10.8945347486,
			"0.002": 12.8449431316,
			"0.003": 17.4044533943,
			"0.004": 13.5180472472,
			"0.005": 4.62824143629,
			"0.006": 3.39659891338,
			"0.007": 2.70734560968,
			"0.008": 2.95675665136,
			"0.009": 2.03537251812,
			"0.01": 2.39104168085,
			"0.011": 1.91997926238,
			"0.012": 2.12806389659,
			"0.013": 1.56697692562,
			"0.014": 0.673116061979,
			"0.015": 0.443525789937,
			"0.016": 0.0,
			"0.017": 0.0,
			"0.018": 0.0,
			"0.019": 0.0,
			"0.02": 0.0,
			"0.021": 0.0,
			"0.022": 0.0,
			"0.023": 0.0,
			"0.024": 0.0,
			"0.025": 0.0
		}
	}
}
