{
	 "smiles": "NCCNCCNCCN", 
	 "Tm": 238.15, 
	 "num_atms": 28, 
	 "gaussian": { 
		 "optdone": 1, 
		 "sigma_profile": "yes", 
		 "theory": "DFT", 
		 "functional": "B3LYP", 
		 "basiset": "6-31G**", 
		 "properties": { 
			 "R2extent": 3366.8547, 
			 "electric_dipole_moment_norm": 3.16822171415, 
			 "electric_quadrupole_moment_norm": 17.9945939479, 
			 "total_energy": -458.464472926, 
			 "HOMO_LUMO_gap": 0.28274, 
			 "cosmo_polarized_energy": -14.13, 
			 "cosmo_cavitation_energy": 29.55, 
			 "cosmo_dispersion_energy": -21.28, 
			 "cosmo_repulsion_energy": 1.82, 
			 "cosmo_total_nonelectrostatic_energy": 10.09, 
			 "SMD_solvation_energy": -1.25 
		},
		"coords": [
			{
				"x": 3.6854396582,
				"y": -2.2947568998,
				"z": 1.8083282335,
				"element": "N" 
			},
			{
				"x": 2.2637169077,
				"y": -2.4927328276,
				"z": 1.5149245195,
				"element": "C" 
			},
			{
				"x": 1.48264749,
				"y": -1.219655004,
				"z": 1.1438579229,
				"element": "C" 
			},
			{
				"x": 0.0734369252,
				"y": -1.5007050473,
				"z": 0.8667609253,
				"element": "N" 
			},
			{
				"x": -0.2231961798,
				"y": -1.8986475455,
				"z": -0.5076992406,
				"element": "C" 
			},
			{
				"x": -0.3240816827,
				"y": -0.7288303175,
				"z": -1.5028634412,
				"element": "C" 
			},
			{
				"x": -1.3656122574,
				"y": 0.2009561675,
				"z": -1.0644243132,
				"element": "N" 
			},
			{
				"x": -1.3957891126,
				"y": 1.5070469393,
				"z": -1.7174079663,
				"element": "C" 
			},
			{
				"x": -1.7303285747,
				"y": 1.5171302554,
				"z": -3.2183030055,
				"element": "C" 
			},
			{
				"x": -1.8039993772,
				"y": 2.9003738875,
				"z": -3.700397338,
				"element": "N" 
			},
			{
				"x": 3.789085198,
				"y": -1.6375453402,
				"z": 2.5791182505,
				"element": "H" 
			},
			{
				"x": 4.1463095506,
				"y": -1.8632181092,
				"z": 1.0094570361,
				"element": "H" 
			},
			{
				"x": 2.1862107979,
				"y": -3.2250233962,
				"z": 0.7016245198,
				"element": "H" 
			},
			{
				"x": 1.7845489009,
				"y": -2.9534737013,
				"z": 2.3856622004,
				"element": "H" 
			},
			{
				"x": 1.5292967797,
				"y": -0.5262891776,
				"z": 1.9935107963,
				"element": "H" 
			},
			{
				"x": 2.0062329164,
				"y": -0.7141650441,
				"z": 0.3079174286,
				"element": "H" 
			},
			{
				"x": -0.489229752,
				"y": -0.6755550094,
				"z": 1.0601072212,
				"element": "H" 
			},
			{
				"x": -1.1770005704,
				"y": -2.4469688004,
				"z": -0.5167278067,
				"element": "H" 
			},
			{
				"x": 0.5367518848,
				"y": -2.6079013537,
				"z": -0.8545242574,
				"element": "H" 
			},
			{
				"x": -0.472636732,
				"y": -1.1309706316,
				"z": -2.5211147662,
				"element": "H" 
			},
			{
				"x": 0.6245343124,
				"y": -0.1761867291,
				"z": -1.5212542674,
				"element": "H" 
			},
			{
				"x": -2.2779666848,
				"y": -0.2441408909,
				"z": -1.141126531,
				"element": "H" 
			},
			{
				"x": -2.1286992573,
				"y": 2.139552627,
				"z": -1.2037478197,
				"element": "H" 
			},
			{
				"x": -0.4152470458,
				"y": 1.9797734575,
				"z": -1.5631297793,
				"element": "H" 
			},
			{
				"x": -1.0075669248,
				"y": 0.8864861135,
				"z": -3.7651051587,
				"element": "H" 
			},
			{
				"x": -2.7173427398,
				"y": 1.0571803473,
				"z": -3.3609825866,
				"element": "H" 
			},
			{
				"x": -0.8765930918,
				"y": 3.3197867568,
				"z": -3.6835066294,
				"element": "H" 
			},
			{
				"x": -2.1022213388,
				"y": 2.9174792734,
				"z": -4.6722541468,
				"element": "H" 
			}
		],
		 "valence_orbital": [ 
			{
				"type": "occ",
				"energy": -0.32287,
				"method": "rhf"
			},
			{
				"type": "occ",
				"energy": -0.24184,
				"method": "rhf"
			},
			{
				"type": "occ",
				"energy": -0.2319,
				"method": "rhf"
			},
			{
				"type": "occ",
				"energy": -0.21815,
				"method": "rhf"
			},
			{
				"type": "occ",
				"energy": -0.20576,
				"method": "rhf"
			},
			{
				"type": "unocc",
				"energy": 0.07698,
				"method": "rhf"
			},
			{
				"type": "unocc",
				"energy": 0.07975,
				"method": "rhf"
			},
			{
				"type": "unocc",
				"energy": 0.08826,
				"method": "rhf"
			},
			{
				"type": "unocc",
				"energy": 0.10316,
				"method": "rhf"
			},
			{
				"type": "unocc",
				"energy": 0.11541,
				"method": "rhf"
			}
		],
		"cosmo_sigma_profile": { 
			"-0.025": 0.0,
			"-0.024": 0.0,
			"-0.023": 0.0,
			"-0.022": 0.0,
			"-0.021": 0.0,
			"-0.02": 0.0,
			"-0.019": 0.0,
			"-0.018": 0.0,
			"-0.017": 0.0,
			"-0.016": 0.0,
			"-0.015": 0.0,
			"-0.014": 0.0,
			"-0.013": 0.0,
			"-0.012": 0.0,
			"-0.011": 0.0,
			"-0.01": 0.947608093429,
			"-0.009": 5.54177394702,
			"-0.008": 7.16984481863,
			"-0.007": 6.95747030042,
			"-0.006": 8.46129508237,
			"-0.005": 9.03509583254,
			"-0.004": 12.9644914077,
			"-0.003": 23.6942915821,
			"-0.002": 33.1593715759,
			"-0.001": 29.9105796318,
			"0.0": 20.5514491157,
			"0.001": 11.0160578723,
			"0.002": 7.3338090308,
			"0.003": 5.4458734621,
			"0.004": 4.81400170006,
			"0.005": 3.97229940505,
			"0.006": 3.91835519484,
			"0.007": 3.59866863049,
			"0.008": 3.03945971266,
			"0.009": 3.53702635799,
			"0.01": 2.43263565888,
			"0.011": 3.21301067005,
			"0.012": 2.03147432871,
			"0.013": 1.77058109457,
			"0.014": 2.17070915254,
			"0.015": 1.74673633242,
			"0.016": 1.28732705124,
			"0.017": 2.25589992247,
			"0.018": 1.76052834601,
			"0.019": 1.07398178051,
			"0.02": 0.905872956673,
			"0.021": 0.0654735120446,
			"0.022": 0.0,
			"0.023": 0.0,
			"0.024": 0.0,
			"0.025": 0.0
		}
	}
}
