{
	 "smiles": "CC(C)(C)N1C=C(N)C=N1", 
	 "Tm": 330.15, 
	 "num_atms": 23, 
	 "gaussian": { 
		 "optdone": 1, 
		 "sigma_profile": "yes", 
		 "theory": "DFT", 
		 "functional": "B3LYP", 
		 "basiset": "6-31G**", 
		 "properties": { 
			 "R2extent": 1990.617, 
			 "electric_dipole_moment_norm": 2.48037911215, 
			 "electric_quadrupole_moment_norm": 10.576807507, 
			 "total_energy": -438.818452145, 
			 "HOMO_LUMO_gap": 0.21999, 
			 "cosmo_polarized_energy": -11.05, 
			 "cosmo_cavitation_energy": 25.09, 
			 "cosmo_dispersion_energy": -18.0, 
			 "cosmo_repulsion_energy": 1.46, 
			 "cosmo_total_nonelectrostatic_energy": 8.54, 
			 "SMD_solvation_energy": 4.36 
		},
		"coords": [
			{
				"x": 1.0059493325,
				"y": 0.7121237964,
				"z": -0.8716552483,
				"element": "C" 
			},
			{
				"x": 0.5979178192,
				"y": -0.4956561951,
				"z": -0.0183507729,
				"element": "C" 
			},
			{
				"x": 1.8459623559,
				"y": -1.159653687,
				"z": 0.5910416408,
				"element": "C" 
			},
			{
				"x": -0.1877796571,
				"y": -1.5070489738,
				"z": -0.8725120081,
				"element": "C" 
			},
			{
				"x": -0.2776018865,
				"y": -0.0474978259,
				"z": 1.0926102116,
				"element": "N" 
			},
			{
				"x": -0.7170457564,
				"y": 1.2139608764,
				"z": 1.4029942022,
				"element": "C" 
			},
			{
				"x": -1.5108230299,
				"y": 1.0973746036,
				"z": 2.534166287,
				"element": "C" 
			},
			{
				"x": -2.1302657765,
				"y": 2.1249012899,
				"z": 3.2721749676,
				"element": "N" 
			},
			{
				"x": -1.487259528,
				"y": -0.2841845651,
				"z": 2.8313242759,
				"element": "C" 
			},
			{
				"x": -0.7429671201,
				"y": -0.965247088,
				"z": 1.956202174,
				"element": "N" 
			},
			{
				"x": 1.6509191694,
				"y": 0.3699680917,
				"z": -1.6856363508,
				"element": "H" 
			},
			{
				"x": 0.1367226056,
				"y": 1.2040308876,
				"z": -1.3191709182,
				"element": "H" 
			},
			{
				"x": 1.5670136828,
				"y": 1.4487639093,
				"z": -0.2884135542,
				"element": "H" 
			},
			{
				"x": 2.4108315597,
				"y": -0.4405866339,
				"z": 1.1926562268,
				"element": "H" 
			},
			{
				"x": 1.5535945388,
				"y": -1.9911813834,
				"z": 1.2352464482,
				"element": "H" 
			},
			{
				"x": 2.4996410768,
				"y": -1.5371048909,
				"z": -0.2019995564,
				"element": "H" 
			},
			{
				"x": 0.4421914365,
				"y": -1.889599055,
				"z": -1.6820799236,
				"element": "H" 
			},
			{
				"x": -1.070932554,
				"y": -1.0351904506,
				"z": -1.3149561922,
				"element": "H" 
			},
			{
				"x": -0.5188769237,
				"y": -2.3444293905,
				"z": -0.2551794731,
				"element": "H" 
			},
			{
				"x": -0.443824759,
				"y": 2.0828663156,
				"z": 0.8267587377,
				"element": "H" 
			},
			{
				"x": -2.3824322482,
				"y": 2.9209235059,
				"z": 2.6983533206,
				"element": "H" 
			},
			{
				"x": -2.9567089378,
				"y": 1.7985628414,
				"z": 3.7591540499,
				"element": "H" 
			},
			{
				"x": -1.9779254001,
				"y": -0.8035959787,
				"z": 3.6446714556,
				"element": "H" 
			}
		],
		 "valence_orbital": [ 
			{
				"type": "occ",
				"energy": -0.33756,
				"method": "rhf"
			},
			{
				"type": "occ",
				"energy": -0.30809,
				"method": "rhf"
			},
			{
				"type": "occ",
				"energy": -0.27055,
				"method": "rhf"
			},
			{
				"type": "occ",
				"energy": -0.23325,
				"method": "rhf"
			},
			{
				"type": "occ",
				"energy": -0.18653,
				"method": "rhf"
			},
			{
				"type": "unocc",
				"energy": 0.03346,
				"method": "rhf"
			},
			{
				"type": "unocc",
				"energy": 0.07927,
				"method": "rhf"
			},
			{
				"type": "unocc",
				"energy": 0.08557,
				"method": "rhf"
			},
			{
				"type": "unocc",
				"energy": 0.10659,
				"method": "rhf"
			},
			{
				"type": "unocc",
				"energy": 0.1182,
				"method": "rhf"
			}
		],
		"cosmo_sigma_profile": { 
			"-0.025": 0.0,
			"-0.024": 0.0,
			"-0.023": 0.0,
			"-0.022": 0.0,
			"-0.021": 0.0,
			"-0.02": 0.0,
			"-0.019": 0.0,
			"-0.018": 0.0,
			"-0.017": 0.0,
			"-0.016": 0.0,
			"-0.015": 0.0,
			"-0.014": 0.0,
			"-0.013": 0.0,
			"-0.012": 0.93334903659,
			"-0.011": 2.85765883706,
			"-0.01": 2.50456350327,
			"-0.009": 2.15875948485,
			"-0.008": 4.27653059782,
			"-0.007": 4.10055171255,
			"-0.006": 6.21202965222,
			"-0.005": 6.17572783402,
			"-0.004": 16.6583267222,
			"-0.003": 20.4529860144,
			"-0.002": 17.2665445479,
			"-0.001": 17.7991370212,
			"0.0": 22.8724784823,
			"0.001": 15.9196473527,
			"0.002": 5.27870302436,
			"0.003": 4.9368739526,
			"0.004": 6.15225696199,
			"0.005": 6.12839563399,
			"0.006": 7.27180640716,
			"0.007": 6.46284968431,
			"0.008": 3.9533354198,
			"0.009": 2.95709210445,
			"0.01": 2.38231941327,
			"0.011": 2.12232281865,
			"0.012": 1.90084574671,
			"0.013": 2.22602544833,
			"0.014": 1.3778483351,
			"0.015": 0.791547292214,
			"0.016": 1.01289075671,
			"0.017": 0.465343797302,
			"0.018": 0.0,
			"0.019": 0.0,
			"0.02": 0.0,
			"0.021": 0.0,
			"0.022": 0.0,
			"0.023": 0.0,
			"0.024": 0.0,
			"0.025": 0.0
		}
	}
}
