{
	 "smiles": "CC(=O)C1=CC=C(SC(F)(F)F)C=C1", 
	 "Tm": 303.15, 
	 "num_atms": 21, 
	 "gaussian": { 
		 "optdone": 1, 
		 "sigma_profile": "yes", 
		 "theory": "DFT", 
		 "functional": "B3LYP", 
		 "basiset": "6-31G**", 
		 "properties": { 
			 "R2extent": 5456.3952, 
			 "electric_dipole_moment_norm": 2.62093257258, 
			 "electric_quadrupole_moment_norm": 10.7325335644, 
			 "total_energy": -1120.10269942, 
			 "HOMO_LUMO_gap": 0.18358, 
			 "cosmo_polarized_energy": -7.96, 
			 "cosmo_cavitation_energy": 28.84, 
			 "cosmo_dispersion_energy": -20.62, 
			 "cosmo_repulsion_energy": 1.52, 
			 "cosmo_total_nonelectrostatic_energy": 9.75, 
			 "SMD_solvation_energy": 6.39 
		},
		"coords": [
			{
				"x": -1.3960873259,
				"y": -1.3758919725,
				"z": -2.1726946451,
				"element": "C" 
			},
			{
				"x": -0.1894602504,
				"y": -1.5510241718,
				"z": -1.2680558709,
				"element": "C" 
			},
			{
				"x": 0.6389377305,
				"y": -2.4194937865,
				"z": -1.4916280965,
				"element": "O" 
			},
			{
				"x": -0.0274710608,
				"y": -0.6355091581,
				"z": -0.0867309401,
				"element": "C" 
			},
			{
				"x": -0.9465304858,
				"y": 0.3763192734,
				"z": 0.2227797331,
				"element": "C" 
			},
			{
				"x": -0.7443874348,
				"y": 1.2020517616,
				"z": 1.328256256,
				"element": "C" 
			},
			{
				"x": 0.3771421982,
				"y": 1.0125467022,
				"z": 2.1431160896,
				"element": "C" 
			},
			{
				"x": 0.5659492266,
				"y": 2.0340363921,
				"z": 3.6076580645,
				"element": "S" 
			},
			{
				"x": 2.0332043166,
				"y": 3.008610734,
				"z": 3.1281331224,
				"element": "C" 
			},
			{
				"x": 3.129348544,
				"y": 2.2493800685,
				"z": 2.9429693573,
				"element": "F" 
			},
			{
				"x": 1.8455659469,
				"y": 3.7114525856,
				"z": 2.0009021408,
				"element": "F" 
			},
			{
				"x": 2.2836152196,
				"y": 3.866512043,
				"z": 4.1296068869,
				"element": "F" 
			},
			{
				"x": 1.2955037527,
				"y": -0.0070799914,
				"z": 1.8503443634,
				"element": "C" 
			},
			{
				"x": 1.0954868924,
				"y": -0.8138883927,
				"z": 0.7367926031,
				"element": "C" 
			},
			{
				"x": -2.3292910966,
				"y": -1.5053619173,
				"z": -1.6133622869,
				"element": "H" 
			},
			{
				"x": -1.4152574848,
				"y": -0.3726907428,
				"z": -2.6128120911,
				"element": "H" 
			},
			{
				"x": -1.3456665067,
				"y": -2.1190735621,
				"z": -2.9686646262,
				"element": "H" 
			},
			{
				"x": -1.8215249072,
				"y": 0.5348250759,
				"z": -0.3988493921,
				"element": "H" 
			},
			{
				"x": -1.4494924075,
				"y": 1.993826937,
				"z": 1.5580310741,
				"element": "H" 
			},
			{
				"x": 2.1564495988,
				"y": -0.1582998338,
				"z": 2.4915152496,
				"element": "H" 
			},
			{
				"x": 1.7941655347,
				"y": -1.6048480443,
				"z": 0.4857930081,
				"element": "H" 
			}
		],
		 "valence_orbital": [ 
			{
				"type": "occ",
				"energy": -0.35012,
				"method": "rhf"
			},
			{
				"type": "occ",
				"energy": -0.28676,
				"method": "rhf"
			},
			{
				"type": "occ",
				"energy": -0.2763,
				"method": "rhf"
			},
			{
				"type": "occ",
				"energy": -0.2613,
				"method": "rhf"
			},
			{
				"type": "occ",
				"energy": -0.25843,
				"method": "rhf"
			},
			{
				"type": "unocc",
				"energy": -0.07485,
				"method": "rhf"
			},
			{
				"type": "unocc",
				"energy": -0.02673,
				"method": "rhf"
			},
			{
				"type": "unocc",
				"energy": -0.00044,
				"method": "rhf"
			},
			{
				"type": "unocc",
				"energy": 0.02489,
				"method": "rhf"
			},
			{
				"type": "unocc",
				"energy": 0.05491,
				"method": "rhf"
			}
		],
		"cosmo_sigma_profile": { 
			"-0.025": 0.0,
			"-0.024": 0.0,
			"-0.023": 0.0,
			"-0.022": 0.0,
			"-0.021": 0.0,
			"-0.02": 0.0,
			"-0.019": 0.0,
			"-0.018": 0.0,
			"-0.017": 0.0,
			"-0.016": 0.0,
			"-0.015": 0.0,
			"-0.014": 0.0,
			"-0.013": 0.0,
			"-0.012": 0.0,
			"-0.011": 0.0,
			"-0.01": 0.0,
			"-0.009": 0.0,
			"-0.008": 1.01551849944,
			"-0.007": 8.04018547872,
			"-0.006": 14.6641763199,
			"-0.005": 12.0667144344,
			"-0.004": 11.9583089714,
			"-0.003": 12.8101776263,
			"-0.002": 16.6794414857,
			"-0.001": 21.3194103183,
			"0.0": 21.4457725282,
			"0.001": 32.0177893757,
			"0.002": 47.1353157388,
			"0.003": 9.46497514766,
			"0.004": 3.84198795975,
			"0.005": 3.50550721212,
			"0.006": 2.7562467311,
			"0.007": 1.46912627043,
			"0.008": 1.29462312417,
			"0.009": 2.12716798622,
			"0.01": 2.22122773853,
			"0.011": 3.46555585101,
			"0.012": 3.08748255626,
			"0.013": 0.858889999973,
			"0.014": 0.0,
			"0.015": 0.0,
			"0.016": 0.0,
			"0.017": 0.0,
			"0.018": 0.0,
			"0.019": 0.0,
			"0.02": 0.0,
			"0.021": 0.0,
			"0.022": 0.0,
			"0.023": 0.0,
			"0.024": 0.0,
			"0.025": 0.0
		}
	}
}
