{
	 "smiles": "CC(C)CNS(=O)(=O)C1=C(Cl)C=C(Cl)C(=C1)C(O)=O", 
	 "Tm": 453.15, 
	 "num_atms": 32, 
	 "gaussian": { 
		 "optdone": 1, 
		 "sigma_profile": "yes", 
		 "theory": "DFT", 
		 "functional": "B3LYP", 
		 "basiset": "6-31G**", 
		 "properties": { 
			 "R2extent": 9771.083, 
			 "electric_dipole_moment_norm": 4.04639493129, 
			 "electric_quadrupole_moment_norm": 16.3440861292, 
			 "total_energy": -2101.16357653, 
			 "HOMO_LUMO_gap": 0.192, 
			 "cosmo_polarized_energy": -18.48, 
			 "cosmo_cavitation_energy": 40.56, 
			 "cosmo_dispersion_energy": -28.36, 
			 "cosmo_repulsion_energy": 2.14, 
			 "cosmo_total_nonelectrostatic_energy": 14.33, 
			 "SMD_solvation_energy": 6.57 
		},
		"coords": [
			{
				"x": 1.1583832001,
				"y": 2.814114867,
				"z": 1.3662231395,
				"element": "C" 
			},
			{
				"x": 0.1874472763,
				"y": 1.6614944958,
				"z": 1.6714617482,
				"element": "C" 
			},
			{
				"x": 0.8625891493,
				"y": 0.5612005905,
				"z": 2.5029886669,
				"element": "C" 
			},
			{
				"x": -0.4867896948,
				"y": 1.1172779038,
				"z": 0.3988929568,
				"element": "C" 
			},
			{
				"x": 0.4919667139,
				"y": 0.4506335214,
				"z": -0.4852889737,
				"element": "N" 
			},
			{
				"x": -0.045570587,
				"y": -0.2002949441,
				"z": -1.9371636677,
				"element": "S" 
			},
			{
				"x": 1.0674682054,
				"y": -0.0535587514,
				"z": -2.8778317889,
				"element": "O" 
			},
			{
				"x": -1.3857252841,
				"y": 0.300790655,
				"z": -2.247898707,
				"element": "O" 
			},
			{
				"x": -0.2231656452,
				"y": -1.9584535599,
				"z": -1.5364578717,
				"element": "C" 
			},
			{
				"x": -0.7092766765,
				"y": -2.8736763542,
				"z": -2.4856186561,
				"element": "C" 
			},
			{
				"x": -1.1411173428,
				"y": -2.397761097,
				"z": -4.1020494649,
				"element": "Cl" 
			},
			{
				"x": -0.8514827436,
				"y": -4.2162820776,
				"z": -2.1461786413,
				"element": "C" 
			},
			{
				"x": -0.5139595407,
				"y": -4.6714553519,
				"z": -0.869195546,
				"element": "C" 
			},
			{
				"x": -0.7792191103,
				"y": -6.3724959098,
				"z": -0.5776473649,
				"element": "Cl" 
			},
			{
				"x": -0.0165739425,
				"y": -3.7760725786,
				"z": 0.0958304626,
				"element": "C" 
			},
			{
				"x": 0.1154748326,
				"y": -2.428048447,
				"z": -0.2749867649,
				"element": "C" 
			},
			{
				"x": 0.3903806943,
				"y": -4.0680529716,
				"z": 1.5069035937,
				"element": "C" 
			},
			{
				"x": 0.5190011938,
				"y": -5.3728340322,
				"z": 1.8042739409,
				"element": "O" 
			},
			{
				"x": 0.6096522175,
				"y": -3.19312006,
				"z": 2.3231710183,
				"element": "O" 
			},
			{
				"x": 0.6770324593,
				"y": 3.6036293659,
				"z": 0.7790993496,
				"element": "H" 
			},
			{
				"x": 1.5257489291,
				"y": 3.2630548491,
				"z": 2.2943165762,
				"element": "H" 
			},
			{
				"x": 2.0420531873,
				"y": 2.4714388093,
				"z": 0.8131897763,
				"element": "H" 
			},
			{
				"x": -0.6389928868,
				"y": 2.0783417894,
				"z": 2.2639546313,
				"element": "H" 
			},
			{
				"x": 1.2157246556,
				"y": 0.9640065893,
				"z": 3.457879881,
				"element": "H" 
			},
			{
				"x": 1.7287822492,
				"y": 0.142267134,
				"z": 1.9807596677,
				"element": "H" 
			},
			{
				"x": 0.1797199814,
				"y": -0.2663822253,
				"z": 2.7192687661,
				"element": "H" 
			},
			{
				"x": -1.2386642237,
				"y": 0.3715581069,
				"z": 0.6747339267,
				"element": "H" 
			},
			{
				"x": -1.0083296124,
				"y": 1.925747021,
				"z": -0.1276108289,
				"element": "H" 
			},
			{
				"x": 1.3177436547,
				"y": 1.0025996647,
				"z": -0.7018604615,
				"element": "H" 
			},
			{
				"x": -1.231980652,
				"y": -4.9153726453,
				"z": -2.8803069531,
				"element": "H" 
			},
			{
				"x": 0.5042237782,
				"y": -1.7390342069,
				"z": 0.4631749328,
				"element": "H" 
			},
			{
				"x": 0.7874555644,
				"y": -5.4054601504,
				"z": 2.7383726559,
				"element": "H" 
			}
		],
		 "valence_orbital": [ 
			{
				"type": "occ",
				"energy": -0.30708,
				"method": "rhf"
			},
			{
				"type": "occ",
				"energy": -0.29963,
				"method": "rhf"
			},
			{
				"type": "occ",
				"energy": -0.28088,
				"method": "rhf"
			},
			{
				"type": "occ",
				"energy": -0.27916,
				"method": "rhf"
			},
			{
				"type": "occ",
				"energy": -0.27175,
				"method": "rhf"
			},
			{
				"type": "unocc",
				"energy": -0.07975,
				"method": "rhf"
			},
			{
				"type": "unocc",
				"energy": -0.05105,
				"method": "rhf"
			},
			{
				"type": "unocc",
				"energy": -0.00702,
				"method": "rhf"
			},
			{
				"type": "unocc",
				"energy": 0.01694,
				"method": "rhf"
			},
			{
				"type": "unocc",
				"energy": 0.02825,
				"method": "rhf"
			}
		],
		"cosmo_sigma_profile": { 
			"-0.025": 0.0,
			"-0.024": 0.0,
			"-0.023": 0.0,
			"-0.022": 0.0,
			"-0.021": 0.0,
			"-0.02": 0.0,
			"-0.019": 0.489245331064,
			"-0.018": 1.16533161672,
			"-0.017": 0.721296394555,
			"-0.016": 0.793999520658,
			"-0.015": 0.743570144922,
			"-0.014": 0.940573064066,
			"-0.013": 1.43939147853,
			"-0.012": 1.04461264396,
			"-0.011": 2.24024096772,
			"-0.01": 1.86119367925,
			"-0.009": 3.89031844397,
			"-0.008": 3.74960811938,
			"-0.007": 4.66768137889,
			"-0.006": 5.36486474903,
			"-0.005": 10.3957139829,
			"-0.004": 20.8255901939,
			"-0.003": 33.7715454285,
			"-0.002": 42.2334014229,
			"-0.001": 33.7474638685,
			"0.0": 25.3202667625,
			"0.001": 25.1417434015,
			"0.002": 19.022099072,
			"0.003": 17.1536666211,
			"0.004": 8.63492702572,
			"0.005": 8.53375132735,
			"0.006": 7.98239570465,
			"0.007": 7.86548391463,
			"0.008": 7.69629351523,
			"0.009": 5.42162673631,
			"0.01": 13.2742890584,
			"0.011": 8.83200878766,
			"0.012": 0.647629691464,
			"0.013": 0.0,
			"0.014": 0.0,
			"0.015": 0.0,
			"0.016": 0.0,
			"0.017": 0.0,
			"0.018": 0.0,
			"0.019": 0.0,
			"0.02": 0.0,
			"0.021": 0.0,
			"0.022": 0.0,
			"0.023": 0.0,
			"0.024": 0.0,
			"0.0": 0.0
		}
	}
}
