{
	 "smiles": "NC(C1=CC=CC=C1)C1=CC=CC=C1", 
	 "Tm": 307.15, 
	 "num_atms": 27, 
	 "gaussian": { 
		 "optdone": 1, 
		 "sigma_profile": "yes", 
		 "theory": "DFT", 
		 "functional": "B3LYP", 
		 "basiset": "6-31G**", 
		 "properties": { 
			 "R2extent": 3170.2762, 
			 "electric_dipole_moment_norm": 1.46127953178, 
			 "electric_quadrupole_moment_norm": 5.41783339629, 
			 "total_energy": -557.9684365, 
			 "HOMO_LUMO_gap": 0.22324, 
			 "cosmo_polarized_energy": -8.07, 
			 "cosmo_cavitation_energy": 29.96, 
			 "cosmo_dispersion_energy": -21.39, 
			 "cosmo_repulsion_energy": 1.69, 
			 "cosmo_total_nonelectrostatic_energy": 10.26, 
			 "SMD_solvation_energy": 4.19 
		},
		"coords": [
			{
				"x": -1.1118223699,
				"y": 1.9753012209,
				"z": 0.066724824,
				"element": "N" 
			},
			{
				"x": -0.9611489273,
				"y": 0.6247440659,
				"z": 0.6413186016,
				"element": "C" 
			},
			{
				"x": 0.2335913604,
				"y": 0.5135636883,
				"z": 1.5894319101,
				"element": "C" 
			},
			{
				"x": 1.5492773699,
				"y": 0.5466003619,
				"z": 1.1009369119,
				"element": "C" 
			},
			{
				"x": 2.6355749884,
				"y": 0.5218072753,
				"z": 1.9734261355,
				"element": "C" 
			},
			{
				"x": 2.4270224827,
				"y": 0.4590856971,
				"z": 3.3546382941,
				"element": "C" 
			},
			{
				"x": 1.1251775963,
				"y": 0.4193361585,
				"z": 3.8526376893,
				"element": "C" 
			},
			{
				"x": 0.0388024917,
				"y": 0.4468162479,
				"z": 2.9737113135,
				"element": "C" 
			},
			{
				"x": -0.9618981984,
				"y": -0.4323236724,
				"z": -0.4662442811,
				"element": "C" 
			},
			{
				"x": -0.5311644798,
				"y": -1.7412305633,
				"z": -0.203307633,
				"element": "C" 
			},
			{
				"x": -0.5801957309,
				"y": -2.7221484894,
				"z": -1.1934566539,
				"element": "C" 
			},
			{
				"x": -1.0570433943,
				"y": -2.4107635918,
				"z": -2.4686232838,
				"element": "C" 
			},
			{
				"x": -1.4907714199,
				"y": -1.1128847689,
				"z": -2.7391010866,
				"element": "C" 
			},
			{
				"x": -1.4482719478,
				"y": -0.1325183547,
				"z": -1.7450904495,
				"element": "C" 
			},
			{
				"x": -1.1876886766,
				"y": 2.6474838634,
				"z": 0.8268484352,
				"element": "H" 
			},
			{
				"x": -0.2616985442,
				"y": 2.2204220883,
				"z": -0.4388625108,
				"element": "H" 
			},
			{
				"x": -1.8648763905,
				"y": 0.4587521215,
				"z": 1.2447776444,
				"element": "H" 
			},
			{
				"x": 1.7208368174,
				"y": 0.5781315937,
				"z": 0.0276041499,
				"element": "H" 
			},
			{
				"x": 3.6470142541,
				"y": 0.5457340271,
				"z": 1.5770872707,
				"element": "H" 
			},
			{
				"x": 3.2739758167,
				"y": 0.4373220444,
				"z": 4.0344059477,
				"element": "H" 
			},
			{
				"x": 0.9520435722,
				"y": 0.3653793561,
				"z": 4.9239308151,
				"element": "H" 
			},
			{
				"x": -0.9744342968,
				"y": 0.4157970122,
				"z": 3.3686888596,
				"element": "H" 
			},
			{
				"x": -0.1505470891,
				"y": -1.9931164964,
				"z": 0.7821633769,
				"element": "H" 
			},
			{
				"x": -0.2414634025,
				"y": -3.7299150872,
				"z": -0.9689287944,
				"element": "H" 
			},
			{
				"x": -1.0908519457,
				"y": -3.1732172282,
				"z": -3.2418316878,
				"element": "H" 
			},
			{
				"x": -1.8676314678,
				"y": -0.859561801,
				"z": -3.7264580327,
				"element": "H" 
			},
			{
				"x": -1.8007084684,
				"y": 0.8728032309,
				"z": -1.9473277658,
				"element": "H" 
			}
		],
		 "valence_orbital": [ 
			{
				"type": "occ",
				"energy": -0.26308,
				"method": "rhf"
			},
			{
				"type": "occ",
				"energy": -0.25171,
				"method": "rhf"
			},
			{
				"type": "occ",
				"energy": -0.24099,
				"method": "rhf"
			},
			{
				"type": "occ",
				"energy": -0.23412,
				"method": "rhf"
			},
			{
				"type": "occ",
				"energy": -0.2296,
				"method": "rhf"
			},
			{
				"type": "unocc",
				"energy": -0.00636,
				"method": "rhf"
			},
			{
				"type": "unocc",
				"energy": -0.00278,
				"method": "rhf"
			},
			{
				"type": "unocc",
				"energy": 0.00368,
				"method": "rhf"
			},
			{
				"type": "unocc",
				"energy": 0.01103,
				"method": "rhf"
			},
			{
				"type": "unocc",
				"energy": 0.09091,
				"method": "rhf"
			}
		],
		"cosmo_sigma_profile": { 
			"-0.025": 0.0,
			"-0.024": 0.0,
			"-0.023": 0.0,
			"-0.022": 0.0,
			"-0.021": 0.0,
			"-0.02": 0.0,
			"-0.019": 0.0,
			"-0.018": 0.0,
			"-0.017": 0.0,
			"-0.016": 0.0,
			"-0.015": 0.0,
			"-0.014": 0.0,
			"-0.013": 0.0,
			"-0.012": 0.0,
			"-0.011": 0.0,
			"-0.01": 0.810124698712,
			"-0.009": 2.34371783103,
			"-0.008": 2.89011861904,
			"-0.007": 3.55929945581,
			"-0.006": 6.76063663049,
			"-0.005": 20.7366826392,
			"-0.004": 23.6893932131,
			"-0.003": 23.8108453933,
			"-0.002": 17.8506437912,
			"-0.001": 17.8676119078,
			"0.0": 13.3893046377,
			"0.001": 14.6338272022,
			"0.002": 13.8362744301,
			"0.003": 17.3304082301,
			"0.004": 15.3673611516,
			"0.005": 15.8544876253,
			"0.006": 15.8045653032,
			"0.007": 5.05367930647,
			"0.008": 0.916283981029,
			"0.009": 0.924644372279,
			"0.01": 0.867872089058,
			"0.011": 0.667633178224,
			"0.012": 0.496868142716,
			"0.013": 0.482241240348,
			"0.014": 0.809317629687,
			"0.015": 0.356721095105,
			"0.016": 0.604587553546,
			"0.017": 0.265457788454,
			"0.018": 0.0,
			"0.019": 0.0,
			"0.02": 0.0,
			"0.021": 0.0,
			"0.022": 0.0,
			"0.023": 0.0,
			"0.024": 0.0,
			"0.025": 0.0
		}
	}
}
