{
	 "smiles": "ClCC1=CC(=O)N2C=C(Br)C=CC2=N1", 
	 "Tm": 446.15, 
	 "num_atms": 20, 
	 "gaussian": { 
		 "optdone": 1, 
		 "sigma_profile": "yes", 
		 "theory": "DFT", 
		 "functional": "B3LYP", 
		 "basiset": "6-31G**", 
		 "properties": { 
			 "R2extent": 7733.2252, 
			 "electric_dipole_moment_norm": 3.24636797822, 
			 "electric_quadrupole_moment_norm": 16.2421047334, 
			 "total_energy": -3562.90012187, 
			 "HOMO_LUMO_gap": 0.1523, 
			 "cosmo_polarized_energy": -12.36, 
			 "cosmo_cavitation_energy": 29.11, 
			 "cosmo_dispersion_energy": -21.97, 
			 "cosmo_repulsion_energy": 1.73, 
			 "cosmo_total_nonelectrostatic_energy": 8.87, 
			 "SMD_solvation_energy": 2.99 
		},
		"coords": [
			{
				"x": 3.1119520635,
				"y": -2.8169339358,
				"z": -0.0329094379,
				"element": "Cl" 
			},
			{
				"x": 1.5840886688,
				"y": -2.2519188026,
				"z": 0.7853426953,
				"element": "C" 
			},
			{
				"x": 1.1784590145,
				"y": -0.8868504461,
				"z": 0.2982245627,
				"element": "C" 
			},
			{
				"x": 0.2375548914,
				"y": -0.7508030524,
				"z": -0.7006731358,
				"element": "C" 
			},
			{
				"x": -0.1569129997,
				"y": 0.5330685659,
				"z": -1.1818549213,
				"element": "C" 
			},
			{
				"x": -0.970521052,
				"y": 0.8120311131,
				"z": -2.0495487043,
				"element": "O" 
			},
			{
				"x": 0.5493082559,
				"y": 1.6247070588,
				"z": -0.4973675089,
				"element": "N" 
			},
			{
				"x": 0.2365323258,
				"y": 2.9026612473,
				"z": -0.9007904065,
				"element": "C" 
			},
			{
				"x": 0.8402260618,
				"y": 3.9756600491,
				"z": -0.3193877903,
				"element": "C" 
			},
			{
				"x": 0.3999256514,
				"y": 5.7333096474,
				"z": -0.8856437939,
				"element": "Br" 
			},
			{
				"x": 1.8006500524,
				"y": 3.7819740857,
				"z": 0.7121299852,
				"element": "C" 
			},
			{
				"x": 2.1050562224,
				"y": 2.5103502544,
				"z": 1.107131998,
				"element": "C" 
			},
			{
				"x": 1.4833127845,
				"y": 1.3718419612,
				"z": 0.5078153761,
				"element": "C" 
			},
			{
				"x": 1.7960836509,
				"y": 0.1501979334,
				"z": 0.9095348487,
				"element": "N" 
			},
			{
				"x": 0.8249349999,
				"y": -3.003401824,
				"z": 0.5712879734,
				"element": "H" 
			},
			{
				"x": 1.8045218308,
				"y": -2.2213257012,
				"z": 1.8516844406,
				"element": "H" 
			},
			{
				"x": -0.2323039194,
				"y": -1.6092939223,
				"z": -1.164690126,
				"element": "H" 
			},
			{
				"x": -0.503267572,
				"y": 2.9491956738,
				"z": -1.6888337603,
				"element": "H" 
			},
			{
				"x": 2.2786842145,
				"y": 4.6401397519,
				"z": 1.1704729677,
				"element": "H" 
			},
			{
				"x": 2.8296148548,
				"y": 2.3046903425,
				"z": 1.8856747374,
				"element": "H" 
			}
		],
		 "valence_orbital": [ 
			{
				"type": "occ",
				"energy": -0.29893,
				"method": "rhf"
			},
			{
				"type": "occ",
				"energy": -0.29113,
				"method": "rhf"
			},
			{
				"type": "occ",
				"energy": -0.27913,
				"method": "rhf"
			},
			{
				"type": "occ",
				"energy": -0.27687,
				"method": "rhf"
			},
			{
				"type": "occ",
				"energy": -0.23098,
				"method": "rhf"
			},
			{
				"type": "unocc",
				"energy": -0.07868,
				"method": "rhf"
			},
			{
				"type": "unocc",
				"energy": -0.06938,
				"method": "rhf"
			},
			{
				"type": "unocc",
				"energy": -0.01823,
				"method": "rhf"
			},
			{
				"type": "unocc",
				"energy": -0.01005,
				"method": "rhf"
			},
			{
				"type": "unocc",
				"energy": 0.03137,
				"method": "rhf"
			}
		],
		"cosmo_sigma_profile": { 
			"-0.025": 0.0,
			"-0.024": 0.0,
			"-0.023": 0.0,
			"-0.022": 0.0,
			"-0.021": 0.0,
			"-0.02": 0.0,
			"-0.019": 0.0,
			"-0.018": 0.0,
			"-0.017": 0.0,
			"-0.016": 0.0,
			"-0.015": 0.0,
			"-0.014": 0.0,
			"-0.013": 0.0,
			"-0.012": 0.0,
			"-0.011": 0.0,
			"-0.01": 0.283954779783,
			"-0.009": 4.12195085895,
			"-0.008": 10.7515624369,
			"-0.007": 8.95170294408,
			"-0.006": 11.6940659289,
			"-0.005": 16.2899473478,
			"-0.004": 14.406994543,
			"-0.003": 16.1708887214,
			"-0.002": 16.353049068,
			"-0.001": 20.9111391898,
			"0.0": 18.8626529227,
			"0.001": 14.3725910092,
			"0.002": 13.9116722095,
			"0.003": 17.5867783913,
			"0.004": 10.6690756444,
			"0.005": 8.40959211174,
			"0.006": 12.2418903852,
			"0.007": 5.50298930165,
			"0.008": 2.32762643691,
			"0.009": 2.35235225823,
			"0.01": 2.84728390531,
			"0.011": 3.00862126576,
			"0.012": 4.38251577566,
			"0.013": 3.4242022603,
			"0.014": 0.489792236464,
			"0.015": 0.0,
			"0.016": 0.0,
			"0.017": 0.0,
			"0.018": 0.0,
			"0.019": 0.0,
			"0.02": 0.0,
			"0.021": 0.0,
			"0.022": 0.0,
			"0.023": 0.0,
			"0.024": 0.0,
			"0.025": 0.0
		}
	}
}
