{
	 "smiles": "COC(=O)C1NC2=CC=CC=C2C1(C)C", 
	 "Tm": 442.15, 
	 "num_atms": 30, 
	 "gaussian": { 
		 "optdone": 1, 
		 "sigma_profile": "yes", 
		 "theory": "DFT", 
		 "functional": "B3LYP", 
		 "basiset": "6-31G**", 
		 "properties": { 
			 "R2extent": 3438.31, 
			 "electric_dipole_moment_norm": 2.15138438453, 
			 "electric_quadrupole_moment_norm": 10.9072599226, 
			 "total_energy": -671.528695766, 
			 "HOMO_LUMO_gap": 0.19579, 
			 "cosmo_polarized_energy": -9.31, 
			 "cosmo_cavitation_energy": 32.13, 
			 "cosmo_dispersion_energy": -22.43, 
			 "cosmo_repulsion_energy": 1.74, 
			 "cosmo_total_nonelectrostatic_energy": 11.43, 
			 "SMD_solvation_energy": 5.44 
		},
		"coords": [
			{
				"x": 3.156725571,
				"y": -1.5964783143,
				"z": 2.3936271754,
				"element": "C" 
			},
			{
				"x": 2.2704344429,
				"y": -1.1980503473,
				"z": 1.3317703985,
				"element": "O" 
			},
			{
				"x": 1.4918740771,
				"y": -0.1252621043,
				"z": 1.5993227073,
				"element": "C" 
			},
			{
				"x": 1.5143974978,
				"y": 0.4704097449,
				"z": 2.6550687009,
				"element": "O" 
			},
			{
				"x": 0.5724597122,
				"y": 0.2400164316,
				"z": 0.4506683818,
				"element": "C" 
			},
			{
				"x": 0.914920127,
				"y": -0.3688008184,
				"z": -0.8410216654,
				"element": "N" 
			},
			{
				"x": -0.2854677974,
				"y": -0.7257172215,
				"z": -1.4820870934,
				"element": "C" 
			},
			{
				"x": -0.4320116794,
				"y": -1.2120151599,
				"z": -2.781710931,
				"element": "C" 
			},
			{
				"x": -1.7248247901,
				"y": -1.4561990776,
				"z": -3.2562840287,
				"element": "C" 
			},
			{
				"x": -2.8447121185,
				"y": -1.2088783822,
				"z": -2.4578160825,
				"element": "C" 
			},
			{
				"x": -2.6826271524,
				"y": -0.7308885699,
				"z": -1.1504857071,
				"element": "C" 
			},
			{
				"x": -1.401872912,
				"y": -0.494594192,
				"z": -0.6649380926,
				"element": "C" 
			},
			{
				"x": -0.9509976475,
				"y": -0.1018780017,
				"z": 0.7387761206,
				"element": "C" 
			},
			{
				"x": -1.1168073612,
				"y": -1.3151337666,
				"z": 1.6817567572,
				"element": "C" 
			},
			{
				"x": -1.6772614799,
				"y": 1.1178048827,
				"z": 1.3214303087,
				"element": "C" 
			},
			{
				"x": 2.585146898,
				"y": -1.8803379969,
				"z": 3.2802603977,
				"element": "H" 
			},
			{
				"x": 3.7152362021,
				"y": -2.4484793413,
				"z": 2.0070364682,
				"element": "H" 
			},
			{
				"x": 3.831400671,
				"y": -0.7779555521,
				"z": 2.6546259326,
				"element": "H" 
			},
			{
				"x": 0.6503856049,
				"y": 1.3319515023,
				"z": 0.362890204,
				"element": "H" 
			},
			{
				"x": 1.637311285,
				"y": -1.0769753561,
				"z": -0.8012356935,
				"element": "H" 
			},
			{
				"x": 0.4362765236,
				"y": -1.3828186941,
				"z": -3.4113931589,
				"element": "H" 
			},
			{
				"x": -1.8574645626,
				"y": -1.8311580782,
				"z": -4.2674487277,
				"element": "H" 
			},
			{
				"x": -3.8412406871,
				"y": -1.3900084513,
				"z": -2.84908654,
				"element": "H" 
			},
			{
				"x": -3.5528625492,
				"y": -0.5585314779,
				"z": -0.5217148069,
				"element": "H" 
			},
			{
				"x": -2.1694129378,
				"y": -1.6110058628,
				"z": 1.7265955008,
				"element": "H" 
			},
			{
				"x": -0.5447452595,
				"y": -2.1767454425,
				"z": 1.3229936487,
				"element": "H" 
			},
			{
				"x": -0.7870943027,
				"y": -1.0735922766,
				"z": 2.6975812714,
				"element": "H" 
			},
			{
				"x": -2.7326171393,
				"y": 0.8922520339,
				"z": 1.5079258594,
				"element": "H" 
			},
			{
				"x": -1.2204935741,
				"y": 1.412421401,
				"z": 2.2718349139,
				"element": "H" 
			},
			{
				"x": -1.6305546618,
				"y": 1.9704484893,
				"z": 0.6366577805,
				"element": "H" 
			}
		],
		 "valence_orbital": [ 
			{
				"type": "occ",
				"energy": -0.3119,
				"method": "rhf"
			},
			{
				"type": "occ",
				"energy": -0.28487,
				"method": "rhf"
			},
			{
				"type": "occ",
				"energy": -0.27586,
				"method": "rhf"
			},
			{
				"type": "occ",
				"energy": -0.23952,
				"method": "rhf"
			},
			{
				"type": "occ",
				"energy": -0.19567,
				"method": "rhf"
			},
			{
				"type": "unocc",
				"energy": 0.00012,
				"method": "rhf"
			},
			{
				"type": "unocc",
				"energy": 0.00372,
				"method": "rhf"
			},
			{
				"type": "unocc",
				"energy": 0.01782,
				"method": "rhf"
			},
			{
				"type": "unocc",
				"energy": 0.08439,
				"method": "rhf"
			},
			{
				"type": "unocc",
				"energy": 0.09888,
				"method": "rhf"
			}
		],
		"cosmo_sigma_profile": { 
			"-0.025": 0.0,
			"-0.024": 0.0,
			"-0.023": 0.0,
			"-0.022": 0.0,
			"-0.021": 0.0,
			"-0.02": 0.0,
			"-0.019": 0.0,
			"-0.018": 0.0,
			"-0.017": 0.0,
			"-0.016": 0.0,
			"-0.015": 0.0,
			"-0.014": 0.0,
			"-0.013": 0.0,
			"-0.012": 0.0,
			"-0.011": 0.20073320464,
			"-0.01": 0.784390818875,
			"-0.009": 0.7906287945,
			"-0.008": 0.845315705155,
			"-0.007": 2.00259842701,
			"-0.006": 7.70970916136,
			"-0.005": 17.9991332502,
			"-0.004": 25.0827722136,
			"-0.003": 29.4139191609,
			"-0.002": 25.9134394233,
			"-0.001": 23.1874187107,
			"0.0": 23.9639677618,
			"0.001": 19.7358854754,
			"0.002": 12.1987661804,
			"0.003": 9.66352128545,
			"0.004": 9.60164263313,
			"0.005": 9.71130531769,
			"0.006": 10.1788918891,
			"0.007": 8.30908909953,
			"0.008": 2.30660932121,
			"0.009": 2.13941723662,
			"0.01": 2.34237121665,
			"0.011": 3.68323526116,
			"0.012": 3.98173504771,
			"0.013": 0.579204682126,
			"0.014": 0.261019773731,
			"0.015": 0.0,
			"0.016": 0.0,
			"0.017": 0.0,
			"0.018": 0.0,
			"0.019": 0.0,
			"0.02": 0.0,
			"0.021": 0.0,
			"0.022": 0.0,
			"0.023": 0.0,
			"0.024": 0.0,
			"0.025": 0.0
		}
	}
}
