{
	 "smiles": "OC1=C(O)C(Br)=C(Br)C(Br)=C1Br", 
	 "Tm": 464.15, 
	 "num_atms": 14, 
	 "gaussian": { 
		 "optdone": 1, 
		 "sigma_profile": "yes", 
		 "theory": "DFT", 
		 "functional": "B3LYP", 
		 "basiset": "6-31G**", 
		 "properties": { 
			 "R2extent": 16271.8016, 
			 "electric_dipole_moment_norm": 3.11496399337, 
			 "electric_quadrupole_moment_norm": 9.29132532742, 
			 "total_energy": -10665.8800117, 
			 "HOMO_LUMO_gap": 0.17208, 
			 "cosmo_polarized_energy": -8.77, 
			 "cosmo_cavitation_energy": 27.07, 
			 "cosmo_dispersion_energy": -22.09, 
			 "cosmo_repulsion_energy": 1.73, 
			 "cosmo_total_nonelectrostatic_energy": 6.71, 
			 "SMD_solvation_energy": 1.28 
		},
		"coords": [
			{
				"x": 0.6014727209,
				"y": -0.155869472,
				"z": -0.742801528,
				"element": "O" 
			},
			{
				"x": -0.0105305723,
				"y": -1.1774628598,
				"z": -1.3813830608,
				"element": "C" 
			},
			{
				"x": -1.3843458123,
				"y": -1.3949778673,
				"z": -1.1861116366,
				"element": "C" 
			},
			{
				"x": -1.9901182281,
				"y": -0.5195233103,
				"z": -0.3379112421,
				"element": "O" 
			},
			{
				"x": -2.0250884133,
				"y": -2.4444964754,
				"z": -1.8388313792,
				"element": "C" 
			},
			{
				"x": -3.889876103,
				"y": -2.6421066299,
				"z": -1.4969228556,
				"element": "Br" 
			},
			{
				"x": -1.314530911,
				"y": -3.2974205357,
				"z": -2.6973996065,
				"element": "C" 
			},
			{
				"x": -2.2209669288,
				"y": -4.7152951784,
				"z": -3.5682017105,
				"element": "Br" 
			},
			{
				"x": 0.0577928646,
				"y": -3.0814332031,
				"z": -2.8936266906,
				"element": "C" 
			},
			{
				"x": 1.0495258493,
				"y": -4.2125632658,
				"z": -4.0457901322,
				"element": "Br" 
			},
			{
				"x": 0.704801344,
				"y": -2.020623509,
				"z": -2.2335558192,
				"element": "C" 
			},
			{
				"x": 2.5516353558,
				"y": -1.6658766666,
				"z": -2.4471516964,
				"element": "Br" 
			},
			{
				"x": -0.0675855613,
				"y": 0.2993223447,
				"z": -0.207502835,
				"element": "H" 
			},
			{
				"x": -2.9319856045,
				"y": -0.7464733714,
				"z": -0.2652098073,
				"element": "H" 
			}
		],
		 "valence_orbital": [ 
			{
				"type": "occ",
				"energy": -0.29712,
				"method": "rhf"
			},
			{
				"type": "occ",
				"energy": -0.29286,
				"method": "rhf"
			},
			{
				"type": "occ",
				"energy": -0.26784,
				"method": "rhf"
			},
			{
				"type": "occ",
				"energy": -0.24565,
				"method": "rhf"
			},
			{
				"type": "occ",
				"energy": -0.23236,
				"method": "rhf"
			},
			{
				"type": "unocc",
				"energy": -0.06028,
				"method": "rhf"
			},
			{
				"type": "unocc",
				"energy": -0.03606,
				"method": "rhf"
			},
			{
				"type": "unocc",
				"energy": -0.0253,
				"method": "rhf"
			},
			{
				"type": "unocc",
				"energy": -0.00859,
				"method": "rhf"
			},
			{
				"type": "unocc",
				"energy": 0.02871,
				"method": "rhf"
			}
		],
		"cosmo_sigma_profile": { 
			"-0.025": 0.0,
			"-0.024": 0.0,
			"-0.023": 0.0,
			"-0.022": 0.0,
			"-0.021": 0.0,
			"-0.02": 0.0,
			"-0.019": 0.0,
			"-0.018": 0.0,
			"-0.017": 0.000394788651349,
			"-0.016": 0.793890242549,
			"-0.015": 1.48587368198,
			"-0.014": 1.37891719763,
			"-0.013": 1.37794679423,
			"-0.012": 0.555972661441,
			"-0.011": 1.67472125989,
			"-0.01": 1.83944542964,
			"-0.009": 2.03228985258,
			"-0.008": 1.53022671246,
			"-0.007": 3.13057061514,
			"-0.006": 5.68932529531,
			"-0.005": 8.19336103863,
			"-0.004": 8.19999346614,
			"-0.003": 11.2005490425,
			"-0.002": 16.3731693424,
			"-0.001": 23.692250056,
			"0.0": 27.2092284869,
			"0.001": 19.0747793006,
			"0.002": 21.6281279448,
			"0.003": 31.8509593041,
			"0.004": 25.686079476,
			"0.005": 5.85278407347,
			"0.006": 2.57928801854,
			"0.007": 1.78936333407,
			"0.008": 1.93074624313,
			"0.009": 2.03239696272,
			"0.01": 1.53845436455,
			"0.011": 0.0109262741427,
			"0.012": 0.0,
			"0.013": 0.0,
			"0.014": 0.0,
			"0.015": 0.0,
			"0.016": 0.0,
			"0.017": 0.0,
			"0.018": 0.0,
			"0.019": 0.0,
			"0.02": 0.0,
			"0.021": 0.0,
			"0.022": 0.0,
			"0.023": 0.0,
			"0.024": 0.0,
			"0.025": 0.0
		}
	}
}
