{
	 "smiles": "CC1=CC=C(C=C1)S(=O)(=O)NC1=CC=C(N)C=C1", 
	 "Tm": 457.15, 
	 "num_atms": 32, 
	 "gaussian": { 
		 "optdone": 1, 
		 "sigma_profile": "yes", 
		 "theory": "DFT", 
		 "functional": "B3LYP", 
		 "basiset": "6-31G**", 
		 "properties": { 
			 "R2extent": 5552.9303, 
			 "electric_dipole_moment_norm": 6.77783469332, 
			 "electric_quadrupole_moment_norm": 19.1249084424, 
			 "total_energy": -1161.9007299, 
			 "HOMO_LUMO_gap": 0.16718, 
			 "cosmo_polarized_energy": -20.7, 
			 "cosmo_cavitation_energy": 37.42, 
			 "cosmo_dispersion_energy": -26.38, 
			 "cosmo_repulsion_energy": 2.02, 
			 "cosmo_total_nonelectrostatic_energy": 13.05, 
			 "SMD_solvation_energy": 5.42 
		},
		"coords": [
			{
				"x": -4.7822970804,
				"y": 0.6591340093,
				"z": 1.5403863549,
				"element": "C" 
			},
			{
				"x": -3.5408818638,
				"y": 0.0955962075,
				"z": 0.8917391706,
				"element": "C" 
			},
			{
				"x": -2.9746836223,
				"y": -1.1040523937,
				"z": 1.3472270653,
				"element": "C" 
			},
			{
				"x": -1.8465430885,
				"y": -1.6466638967,
				"z": 0.7356552702,
				"element": "C" 
			},
			{
				"x": -1.2751940847,
				"y": -0.9814507249,
				"z": -0.3515018491,
				"element": "C" 
			},
			{
				"x": -1.8202799237,
				"y": 0.2130203546,
				"z": -0.8290149225,
				"element": "C" 
			},
			{
				"x": -2.9457669538,
				"y": 0.7424686769,
				"z": -0.2009965464,
				"element": "C" 
			},
			{
				"x": 0.200322855,
				"y": -1.6557063265,
				"z": -1.1158138239,
				"element": "S" 
			},
			{
				"x": 0.1880830657,
				"y": -1.2587829766,
				"z": -2.5237515891,
				"element": "O" 
			},
			{
				"x": 0.3312044167,
				"y": -3.051238945,
				"z": -0.6911477134,
				"element": "O" 
			},
			{
				"x": 1.5339116848,
				"y": -0.8781294434,
				"z": -0.4005569113,
				"element": "N" 
			},
			{
				"x": 1.7127863826,
				"y": 0.5358268326,
				"z": -0.4848329833,
				"element": "C" 
			},
			{
				"x": 1.9877761199,
				"y": 1.1387464708,
				"z": -1.7196477706,
				"element": "C" 
			},
			{
				"x": 2.1917906199,
				"y": 2.5114970641,
				"z": -1.8002793904,
				"element": "C" 
			},
			{
				"x": 2.1626960123,
				"y": 3.3188600197,
				"z": -0.6488532314,
				"element": "C" 
			},
			{
				"x": 2.3309321997,
				"y": 4.7019711341,
				"z": -0.7405768666,
				"element": "N" 
			},
			{
				"x": 1.9048789155,
				"y": 2.7042632698,
				"z": 0.5880397796,
				"element": "C" 
			},
			{
				"x": 1.6661108469,
				"y": 1.3352324747,
				"z": 0.6633681999,
				"element": "C" 
			},
			{
				"x": -4.8138144819,
				"y": 1.7499274516,
				"z": 1.4646977015,
				"element": "H" 
			},
			{
				"x": -4.8400471053,
				"y": 0.3879657957,
				"z": 2.598562581,
				"element": "H" 
			},
			{
				"x": -5.6871846555,
				"y": 0.2725616854,
				"z": 1.0551352949,
				"element": "H" 
			},
			{
				"x": -3.4263888747,
				"y": -1.6231062139,
				"z": 2.1886756105,
				"element": "H" 
			},
			{
				"x": -1.4192954032,
				"y": -2.5832751899,
				"z": 1.0775130514,
				"element": "H" 
			},
			{
				"x": -1.3758800036,
				"y": 0.7081109219,
				"z": -1.6848899996,
				"element": "H" 
			},
			{
				"x": -3.3721055449,
				"y": 1.6719265361,
				"z": -0.5691699503,
				"element": "H" 
			},
			{
				"x": 1.6965540569,
				"y": -1.2781818953,
				"z": 0.5184661285,
				"element": "H" 
			},
			{
				"x": 2.0343469375,
				"y": 0.5215820562,
				"z": -2.6091332266,
				"element": "H" 
			},
			{
				"x": 2.3946743677,
				"y": 2.9662536733,
				"z": -2.7667384325,
				"element": "H" 
			},
			{
				"x": 2.6559562391,
				"y": 5.1524566311,
				"z": 0.1038357248,
				"element": "H" 
			},
			{
				"x": 2.8411939188,
				"y": 5.0182611156,
				"z": -1.5538185213,
				"element": "H" 
			},
			{
				"x": 1.8737534354,
				"y": 3.3069043803,
				"z": 1.4922512509,
				"element": "H" 
			},
			{
				"x": 1.4492906123,
				"y": 0.8819212444,
				"z": 1.6275705445,
				"element": "H" 
			}
		],
		 "valence_orbital": [ 
			{
				"type": "occ",
				"energy": -0.28237,
				"method": "rhf"
			},
			{
				"type": "occ",
				"energy": -0.26446,
				"method": "rhf"
			},
			{
				"type": "occ",
				"energy": -0.25566,
				"method": "rhf"
			},
			{
				"type": "occ",
				"energy": -0.25215,
				"method": "rhf"
			},
			{
				"type": "occ",
				"energy": -0.1999,
				"method": "rhf"
			},
			{
				"type": "unocc",
				"energy": -0.03272,
				"method": "rhf"
			},
			{
				"type": "unocc",
				"energy": -0.01587,
				"method": "rhf"
			},
			{
				"type": "unocc",
				"energy": -0.00522,
				"method": "rhf"
			},
			{
				"type": "unocc",
				"energy": 0.00743,
				"method": "rhf"
			},
			{
				"type": "unocc",
				"energy": 0.06893,
				"method": "rhf"
			}
		],
		"cosmo_sigma_profile": { 
			"-0.025": 0.0,
			"-0.024": 0.0,
			"-0.023": 0.0,
			"-0.022": 0.0,
			"-0.021": 0.0,
			"-0.02": 0.0,
			"-0.019": 0.0,
			"-0.018": 0.0,
			"-0.017": 0.0,
			"-0.016": 0.00799443641784,
			"-0.015": 0.722035449641,
			"-0.014": 1.19360229402,
			"-0.013": 1.12139178375,
			"-0.012": 4.00609750166,
			"-0.011": 4.27723517656,
			"-0.01": 4.15327724851,
			"-0.009": 4.94860709754,
			"-0.008": 3.90297093536,
			"-0.007": 6.46405869667,
			"-0.006": 15.0658492351,
			"-0.005": 20.3428455815,
			"-0.004": 22.2260572383,
			"-0.003": 17.5297551452,
			"-0.002": 17.7459407706,
			"-0.001": 21.1954377396,
			"0.0": 17.5645807806,
			"0.001": 15.7255065996,
			"0.002": 17.5046121834,
			"0.003": 22.1216583871,
			"0.004": 17.4528500926,
			"0.005": 14.4573356774,
			"0.006": 9.6169256582,
			"0.007": 6.18384912237,
			"0.008": 5.26262444991,
			"0.009": 5.49188586882,
			"0.01": 6.34107272962,
			"0.011": 9.03378743475,
			"0.012": 4.64459615241,
			"0.013": 0.528912024471,
			"0.014": 0.652229058691,
			"0.015": 0.122817430722,
			"0.016": 0.0,
			"0.017": 0.0,
			"0.018": 0.0,
			"0.019": 0.0,
			"0.02": 0.0,
			"0.021": 0.0,
			"0.022": 0.0,
			"0.023": 0.0,
			"0.024": 0.0,
			"0.025": 0.0
		}
	}
}
