{
	 "smiles": "CN1C=C(C(C)=O)C(C)=N1", 
	 "Tm": 346.15, 
	 "num_atms": 20, 
	 "gaussian": { 
		 "optdone": 1, 
		 "sigma_profile": "yes", 
		 "theory": "DFT", 
		 "functional": "B3LYP", 
		 "basiset": "6-31G**", 
		 "properties": { 
			 "R2extent": 1903.4909, 
			 "electric_dipole_moment_norm": 4.78244169646, 
			 "electric_quadrupole_moment_norm": 3.56639717783, 
			 "total_energy": -457.490594601, 
			 "HOMO_LUMO_gap": 0.20816, 
			 "cosmo_polarized_energy": -12.8, 
			 "cosmo_cavitation_energy": 23.89, 
			 "cosmo_dispersion_energy": -17.26, 
			 "cosmo_repulsion_energy": 1.41, 
			 "cosmo_total_nonelectrostatic_energy": 8.04, 
			 "SMD_solvation_energy": 4.35 
		},
		"coords": [
			{
				"x": 0.7133815442,
				"y": 0.5143427816,
				"z": 2.662625173,
				"element": "C" 
			},
			{
				"x": -0.1581420648,
				"y": 0.3770786839,
				"z": 1.5117759224,
				"element": "N" 
			},
			{
				"x": 0.1732030872,
				"y": 0.0781287028,
				"z": 0.239784356,
				"element": "C" 
			},
			{
				"x": -1.0088704183,
				"y": 0.0615559104,
				"z": -0.4961054527,
				"element": "C" 
			},
			{
				"x": -1.1912330446,
				"y": -0.2113953941,
				"z": -1.9266135625,
				"element": "C" 
			},
			{
				"x": 0.0495257888,
				"y": -0.5232717114,
				"z": -2.7530091892,
				"element": "C" 
			},
			{
				"x": -2.301327335,
				"y": -0.1915771512,
				"z": -2.4459945233,
				"element": "O" 
			},
			{
				"x": -2.0250138734,
				"y": 0.3739929989,
				"z": 0.4622773961,
				"element": "C" 
			},
			{
				"x": -3.4994903843,
				"y": 0.4973736028,
				"z": 0.2461992639,
				"element": "C" 
			},
			{
				"x": -1.4977503639,
				"y": 0.5617285507,
				"z": 1.6686107345,
				"element": "N" 
			},
			{
				"x": 0.4328602395,
				"y": -0.2088268225,
				"z": 3.4328469637,
				"element": "H" 
			},
			{
				"x": 1.7437895126,
				"y": 0.3334446004,
				"z": 2.3523167389,
				"element": "H" 
			},
			{
				"x": 0.6297114289,
				"y": 1.5222965697,
				"z": 3.0772759716,
				"element": "H" 
			},
			{
				"x": 1.1988775445,
				"y": -0.0984131202,
				"z": -0.0515436911,
				"element": "H" 
			},
			{
				"x": 0.760662691,
				"y": 0.3099971532,
				"z": -2.7183806755,
				"element": "H" 
			},
			{
				"x": 0.5638782525,
				"y": -1.4098000719,
				"z": -2.3647288827,
				"element": "H" 
			},
			{
				"x": -0.2480250801,
				"y": -0.7018270544,
				"z": -3.7868851645,
				"element": "H" 
			},
			{
				"x": -3.722412109,
				"y": 1.2689380594,
				"z": -0.4965214456,
				"element": "H" 
			},
			{
				"x": -3.9161714356,
				"y": -0.4345302102,
				"z": -0.1469640426,
				"element": "H" 
			},
			{
				"x": -3.9900539803,
				"y": 0.7467639223,
				"z": 1.1896341096,
				"element": "H" 
			}
		],
		 "valence_orbital": [ 
			{
				"type": "occ",
				"energy": -0.3496,
				"method": "rhf"
			},
			{
				"type": "occ",
				"energy": -0.29009,
				"method": "rhf"
			},
			{
				"type": "occ",
				"energy": -0.25434,
				"method": "rhf"
			},
			{
				"type": "occ",
				"energy": -0.24388,
				"method": "rhf"
			},
			{
				"type": "occ",
				"energy": -0.2376,
				"method": "rhf"
			},
			{
				"type": "unocc",
				"energy": -0.02944,
				"method": "rhf"
			},
			{
				"type": "unocc",
				"energy": 0.02045,
				"method": "rhf"
			},
			{
				"type": "unocc",
				"energy": 0.08453,
				"method": "rhf"
			},
			{
				"type": "unocc",
				"energy": 0.10172,
				"method": "rhf"
			},
			{
				"type": "unocc",
				"energy": 0.10399,
				"method": "rhf"
			}
		],
		"cosmo_sigma_profile": { 
			"-0.025": 0.0,
			"-0.024": 0.0,
			"-0.023": 0.0,
			"-0.022": 0.0,
			"-0.021": 0.0,
			"-0.02": 0.0,
			"-0.019": 0.0,
			"-0.018": 0.0,
			"-0.017": 0.0,
			"-0.016": 0.0,
			"-0.015": 0.0,
			"-0.014": 0.0,
			"-0.013": 0.0,
			"-0.012": 0.0,
			"-0.011": 0.0,
			"-0.01": 1.58431555933,
			"-0.009": 2.59658557341,
			"-0.008": 3.34088014207,
			"-0.007": 4.85916854592,
			"-0.006": 10.3641543527,
			"-0.005": 14.0033589185,
			"-0.004": 17.2290259869,
			"-0.003": 19.3007569311,
			"-0.002": 15.2195433207,
			"-0.001": 15.6030768936,
			"0.0": 16.2624547917,
			"0.001": 9.95581705589,
			"0.002": 10.2835494163,
			"0.003": 9.18417975001,
			"0.004": 5.02764252594,
			"0.005": 3.82933243922,
			"0.006": 3.62493880828,
			"0.007": 3.4953503684,
			"0.008": 2.6506327403,
			"0.009": 2.93943353384,
			"0.01": 3.33272280932,
			"0.011": 2.61864830038,
			"0.012": 3.34886032474,
			"0.013": 5.00843298248,
			"0.014": 2.01666887317,
			"0.015": 0.854433954164,
			"0.016": 0.318462329673,
			"0.017": 0.0,
			"0.018": 0.0,
			"0.019": 0.0,
			"0.02": 0.0,
			"0.021": 0.0,
			"0.022": 0.0,
			"0.023": 0.0,
			"0.024": 0.0,
			"0.025": 0.0
		}
	}
}
