{
	 "smiles": "CCC1=CC=NC=C1", 
	 "Tm": 182.35, 
	 "num_atms": 17, 
	 "gaussian": { 
		 "optdone": 1, 
		 "sigma_profile": "yes", 
		 "theory": "DFT", 
		 "functional": "B3LYP", 
		 "basiset": "6-31G**", 
		 "properties": { 
			 "R2extent": 2057.6527, 
			 "electric_dipole_moment_norm": 2.66210156455, 
			 "electric_quadrupole_moment_norm": 14.5419411221, 
			 "total_energy": -326.923870972, 
			 "HOMO_LUMO_gap": 0.23012, 
			 "cosmo_polarized_energy": -5.94, 
			 "cosmo_cavitation_energy": 20.23, 
			 "cosmo_dispersion_energy": -14.84, 
			 "cosmo_repulsion_energy": 1.24, 
			 "cosmo_total_nonelectrostatic_energy": 6.63, 
			 "SMD_solvation_energy": 2.17 
		},
		"coords": [
			{
				"x": -0.293056886,
				"y": 1.6492399947,
				"z": 1.5924726178,
				"element": "C" 
			},
			{
				"x": 0.0667612338,
				"y": 0.4452779694,
				"z": 0.7028591357,
				"element": "C" 
			},
			{
				"x": 1.5545364689,
				"y": 0.1783434747,
				"z": 0.6619916811,
				"element": "C" 
			},
			{
				"x": 2.1753519347,
				"y": -0.6621145662,
				"z": 1.5935531526,
				"element": "C" 
			},
			{
				"x": 3.5566095349,
				"y": -0.8471082468,
				"z": 1.5371453752,
				"element": "C" 
			},
			{
				"x": 4.351772266,
				"y": -0.2639617327,
				"z": 0.6311152636,
				"element": "N" 
			},
			{
				"x": 3.7560038156,
				"y": 0.539301446,
				"z": -0.2594269344,
				"element": "C" 
			},
			{
				"x": 2.3839820086,
				"y": 0.7885555993,
				"z": -0.2862927056,
				"element": "C" 
			},
			{
				"x": 0.0345201233,
				"y": 1.4869690225,
				"z": 2.6242932131,
				"element": "H" 
			},
			{
				"x": 0.1893086847,
				"y": 2.5629096844,
				"z": 1.230780856,
				"element": "H" 
			},
			{
				"x": -1.3748885298,
				"y": 1.8162521802,
				"z": 1.6012620135,
				"element": "H" 
			},
			{
				"x": -0.2988619775,
				"y": 0.6246324178,
				"z": -0.3149682743,
				"element": "H" 
			},
			{
				"x": -0.4529427275,
				"y": -0.4464739378,
				"z": 1.072326896,
				"element": "H" 
			},
			{
				"x": 1.5895664146,
				"y": -1.1728199644,
				"z": 2.3536440345,
				"element": "H" 
			},
			{
				"x": 4.0484545846,
				"y": -1.5020484213,
				"z": 2.2549454458,
				"element": "H" 
			},
			{
				"x": 4.409170337,
				"y": 1.006133487,
				"z": -0.9953189322,
				"element": "H" 
			},
			{
				"x": 1.966512714,
				"y": 1.4482115932,
				"z": -1.0427828384,
				"element": "H" 
			}
		],
		 "valence_orbital": [ 
			{
				"type": "occ",
				"energy": -0.35555,
				"method": "rhf"
			},
			{
				"type": "occ",
				"energy": -0.34282,
				"method": "rhf"
			},
			{
				"type": "occ",
				"energy": -0.27103,
				"method": "rhf"
			},
			{
				"type": "occ",
				"energy": -0.25759,
				"method": "rhf"
			},
			{
				"type": "occ",
				"energy": -0.24868,
				"method": "rhf"
			},
			{
				"type": "unocc",
				"energy": -0.01856,
				"method": "rhf"
			},
			{
				"type": "unocc",
				"energy": -0.007,
				"method": "rhf"
			},
			{
				"type": "unocc",
				"energy": 0.09243,
				"method": "rhf"
			},
			{
				"type": "unocc",
				"energy": 0.11743,
				"method": "rhf"
			},
			{
				"type": "unocc",
				"energy": 0.12494,
				"method": "rhf"
			}
		],
		"cosmo_sigma_profile": { 
			"-0.025": 0.0,
			"-0.024": 0.0,
			"-0.023": 0.0,
			"-0.022": 0.0,
			"-0.021": 0.0,
			"-0.02": 0.0,
			"-0.019": 0.0,
			"-0.018": 0.0,
			"-0.017": 0.0,
			"-0.016": 0.0,
			"-0.015": 0.0,
			"-0.014": 0.0,
			"-0.013": 0.0,
			"-0.012": 0.0,
			"-0.011": 0.0,
			"-0.01": 0.0,
			"-0.009": 0.0,
			"-0.008": 0.0,
			"-0.007": 0.199905688493,
			"-0.006": 6.73341054031,
			"-0.005": 10.6072287923,
			"-0.004": 14.5031817963,
			"-0.003": 16.8812012775,
			"-0.002": 17.5557840794,
			"-0.001": 17.7091317325,
			"0.0": 16.759979112,
			"0.001": 13.8958663796,
			"0.002": 8.49079234503,
			"0.003": 15.5575388522,
			"0.004": 5.54992975242,
			"0.005": 2.06088221407,
			"0.006": 2.11933142774,
			"0.007": 0.731360212991,
			"0.008": 1.75980092778,
			"0.009": 1.60898472232,
			"0.01": 1.16944884229,
			"0.011": 0.423262268464,
			"0.012": 1.26121432735,
			"0.013": 1.1252543493,
			"0.014": 0.97135860867,
			"0.015": 0.784430680642,
			"0.016": 0.925306309022,
			"0.017": 0.748839569456,
			"0.018": 0.0244451997325,
			"0.019": 0.0,
			"0.02": 0.0,
			"0.021": 0.0,
			"0.022": 0.0,
			"0.023": 0.0,
			"0.024": 0.0,
			"0.025": 0.0
		}
	}
}
