{
	 "smiles": "O=C(OC1=CC=C(OC(=O)C2=CC=CC=C2)C=C1)C1=CC=CC=C1", 
	 "Tm": 388.15, 
	 "num_atms": 38, 
	 "gaussian": { 
		 "optdone": 1, 
		 "sigma_profile": "yes", 
		 "theory": "DFT", 
		 "functional": "B3LYP", 
		 "basiset": "6-31G**", 
		 "properties": { 
			 "R2extent": 12124.8366, 
			 "electric_dipole_moment_norm": 4.60756718779, 
			 "electric_quadrupole_moment_norm": 22.6967874123, 
			 "total_energy": -1071.47048013, 
			 "HOMO_LUMO_gap": 0.17561, 
			 "cosmo_polarized_energy": -14.35, 
			 "cosmo_cavitation_energy": 44.33, 
			 "cosmo_dispersion_energy": -30.95, 
			 "cosmo_repulsion_energy": 2.34, 
			 "cosmo_total_nonelectrostatic_energy": 15.73, 
			 "SMD_solvation_energy": 9.3 
		},
		"coords": [
			{
				"x": 0.3374946783,
				"y": 2.6008162113,
				"z": -2.1397712412,
				"element": "O" 
			},
			{
				"x": -0.8733858109,
				"y": 2.6009982306,
				"z": -2.1119008683,
				"element": "C" 
			},
			{
				"x": -1.6126859824,
				"y": 2.0208690868,
				"z": -1.1134624789,
				"element": "O" 
			},
			{
				"x": -0.984695675,
				"y": 1.376432052,
				"z": -0.0481841271,
				"element": "C" 
			},
			{
				"x": -1.5060905964,
				"y": 0.136935026,
				"z": 0.3158042624,
				"element": "C" 
			},
			{
				"x": -0.9908620653,
				"y": -0.5387707621,
				"z": 1.4209049784,
				"element": "C" 
			},
			{
				"x": 0.0615897601,
				"y": 0.0306962295,
				"z": 2.1402282635,
				"element": "C" 
			},
			{
				"x": 0.5841508467,
				"y": -0.5588099867,
				"z": 3.278507699,
				"element": "O" 
			},
			{
				"x": 0.7189538773,
				"y": -1.9302195945,
				"z": 3.4165398169,
				"element": "C" 
			},
			{
				"x": 0.4095495738,
				"y": -2.4326081358,
				"z": 4.4690848992,
				"element": "O" 
			},
			{
				"x": 1.3309529094,
				"y": -2.6936761662,
				"z": 2.2887644127,
				"element": "C" 
			},
			{
				"x": 2.1414532276,
				"y": -2.099183322,
				"z": 1.3105293566,
				"element": "C" 
			},
			{
				"x": 2.7409431955,
				"y": -2.8876637115,
				"z": 0.3296999682,
				"element": "C" 
			},
			{
				"x": 2.5297843107,
				"y": -4.2680802708,
				"z": 0.3124214614,
				"element": "C" 
			},
			{
				"x": 1.7284624274,
				"y": -4.8657948791,
				"z": 1.2890537898,
				"element": "C" 
			},
			{
				"x": 1.1399467118,
				"y": -4.0840717769,
				"z": 2.2792500371,
				"element": "C" 
			},
			{
				"x": 0.5730977169,
				"y": 1.2797261453,
				"z": 1.7814573371,
				"element": "C" 
			},
			{
				"x": 0.0487204676,
				"y": 1.9612455734,
				"z": 0.6856471974,
				"element": "C" 
			},
			{
				"x": -1.7471428153,
				"y": 3.2215989232,
				"z": -3.1441022616,
				"element": "C" 
			},
			{
				"x": -1.1198620184,
				"y": 3.836568103,
				"z": -4.2373408342,
				"element": "C" 
			},
			{
				"x": -1.8848816638,
				"y": 4.4348593119,
				"z": -5.2348194557,
				"element": "C" 
			},
			{
				"x": -3.2796997468,
				"y": 4.4238833705,
				"z": -5.1457854082,
				"element": "C" 
			},
			{
				"x": -3.9080571359,
				"y": 3.8129561636,
				"z": -4.0577234998,
				"element": "C" 
			},
			{
				"x": -3.1468999098,
				"y": 3.2113897676,
				"z": -3.0570500304,
				"element": "C" 
			},
			{
				"x": -2.3213583948,
				"y": -0.2850826417,
				"z": -0.262114502,
				"element": "H" 
			},
			{
				"x": -1.4074087184,
				"y": -1.4943569129,
				"z": 1.720617828,
				"element": "H" 
			},
			{
				"x": 2.3123684829,
				"y": -1.0291796115,
				"z": 1.3191333094,
				"element": "H" 
			},
			{
				"x": 3.3728033406,
				"y": -2.4233164319,
				"z": -0.4212989706,
				"element": "H" 
			},
			{
				"x": 2.9930274968,
				"y": -4.8777809437,
				"z": -0.4580418554,
				"element": "H" 
			},
			{
				"x": 1.5688382096,
				"y": -5.9398768856,
				"z": 1.2812839021,
				"element": "H" 
			},
			{
				"x": 0.5322144684,
				"y": -4.5307777253,
				"z": 3.05887133,
				"element": "H" 
			},
			{
				"x": 1.3761598779,
				"y": 1.7092666189,
				"z": 2.3708898721,
				"element": "H" 
			},
			{
				"x": 0.4459412499,
				"y": 2.9260605037,
				"z": 0.3988337152,
				"element": "H" 
			},
			{
				"x": -0.0361546971,
				"y": 3.8330873674,
				"z": -4.2833160345,
				"element": "H" 
			},
			{
				"x": -1.3966301753,
				"y": 4.9099153875,
				"z": -6.0804527828,
				"element": "H" 
			},
			{
				"x": -3.8766252275,
				"y": 4.8913377265,
				"z": -5.9237745101,
				"element": "H" 
			},
			{
				"x": -4.9917963009,
				"y": 3.8055558752,
				"z": -3.9891752931,
				"element": "H" 
			},
			{
				"x": -3.6276158953,
				"y": 2.7357520842,
				"z": -2.2103092826,
				"element": "H" 
			}
		],
		 "valence_orbital": [ 
			{
				"type": "occ",
				"energy": -0.26664,
				"method": "rhf"
			},
			{
				"type": "occ",
				"energy": -0.26425,
				"method": "rhf"
			},
			{
				"type": "occ",
				"energy": -0.26288,
				"method": "rhf"
			},
			{
				"type": "occ",
				"energy": -0.26107,
				"method": "rhf"
			},
			{
				"type": "occ",
				"energy": -0.23222,
				"method": "rhf"
			},
			{
				"type": "unocc",
				"energy": -0.05661,
				"method": "rhf"
			},
			{
				"type": "unocc",
				"energy": -0.05415,
				"method": "rhf"
			},
			{
				"type": "unocc",
				"energy": -0.0183,
				"method": "rhf"
			},
			{
				"type": "unocc",
				"energy": -0.01375,
				"method": "rhf"
			},
			{
				"type": "unocc",
				"energy": -0.01291,
				"method": "rhf"
			}
		],
		"cosmo_sigma_profile": { 
			"-0.025": 0.0,
			"-0.024": 0.0,
			"-0.023": 0.0,
			"-0.022": 0.0,
			"-0.021": 0.0,
			"-0.02": 0.0,
			"-0.019": 0.0,
			"-0.018": 0.0,
			"-0.017": 0.0,
			"-0.016": 0.0,
			"-0.015": 0.0,
			"-0.014": 0.0,
			"-0.013": 0.0,
			"-0.012": 0.0,
			"-0.011": 0.0,
			"-0.01": 0.0,
			"-0.009": 0.0503713838686,
			"-0.008": 2.50500316924,
			"-0.007": 11.2193089332,
			"-0.006": 26.7506955083,
			"-0.005": 31.3203646597,
			"-0.004": 26.46676742,
			"-0.003": 24.1196870371,
			"-0.002": 22.6671582502,
			"-0.001": 20.880219362,
			"0.0": 24.6995243453,
			"0.001": 29.6784496216,
			"0.002": 35.8224278121,
			"0.003": 37.7647153691,
			"0.004": 22.7358010927,
			"0.005": 4.36232818066,
			"0.006": 3.94555711301,
			"0.007": 4.41275136628,
			"0.008": 4.44927759522,
			"0.009": 5.17707447472,
			"0.01": 6.98649207021,
			"0.011": 8.73426300359,
			"0.012": 2.53957004172,
			"0.013": 0.0734431401861,
			"0.014": 0.0,
			"0.015": 0.0,
			"0.016": 0.0,
			"0.017": 0.0,
			"0.018": 0.0,
			"0.019": 0.0,
			"0.02": 0.0,
			"0.021": 0.0,
			"0.022": 0.0,
			"0.023": 0.0,
			"0.024": 0.0,
			"0.025": 0.0
		}
	}
}
