{
	 "smiles": "COC1=C(C=CC=N1)C(N)=O", 
	 "Tm": 404.15, 
	 "num_atms": 19, 
	 "gaussian": { 
		 "optdone": 1, 
		 "sigma_profile": "yes", 
		 "theory": "DFT", 
		 "functional": "B3LYP", 
		 "basiset": "6-31G**", 
		 "properties": { 
			 "R2extent": 2085.3101, 
			 "electric_dipole_moment_norm": 3.60192895821, 
			 "electric_quadrupole_moment_norm": 15.0810447785, 
			 "total_energy": -531.520310899, 
			 "HOMO_LUMO_gap": 0.19576, 
			 "cosmo_polarized_energy": -16.25, 
			 "cosmo_cavitation_energy": 23.63, 
			 "cosmo_dispersion_energy": -17.39, 
			 "cosmo_repulsion_energy": 1.43, 
			 "cosmo_total_nonelectrostatic_energy": 7.68, 
			 "SMD_solvation_energy": 5.04 
		},
		"coords": [
			{
				"x": -1.6305168148,
				"y": 1.6662336656,
				"z": -1.3356588351,
				"element": "C" 
			},
			{
				"x": -0.3045890108,
				"y": 1.1541719744,
				"z": -1.1734169974,
				"element": "O" 
			},
			{
				"x": -0.1685654593,
				"y": -0.1731566633,
				"z": -1.0208846139,
				"element": "C" 
			},
			{
				"x": 1.1469590089,
				"y": -0.6856151021,
				"z": -0.8693436173,
				"element": "C" 
			},
			{
				"x": 1.2649690299,
				"y": -2.0572271215,
				"z": -0.6574906447,
				"element": "C" 
			},
			{
				"x": 0.1253630406,
				"y": -2.8673105875,
				"z": -0.6179794839,
				"element": "C" 
			},
			{
				"x": -1.1076367703,
				"y": -2.2531354939,
				"z": -0.7930331496,
				"element": "C" 
			},
			{
				"x": -1.2586915624,
				"y": -0.933630621,
				"z": -0.9826955952,
				"element": "N" 
			},
			{
				"x": 2.3629607631,
				"y": 0.1903981682,
				"z": -1.0024893394,
				"element": "C" 
			},
			{
				"x": 3.3575341318,
				"y": -0.083047736,
				"z": -0.0872881553,
				"element": "N" 
			},
			{
				"x": 2.4974470412,
				"y": 1.0271010344,
				"z": -1.8800672696,
				"element": "O" 
			},
			{
				"x": -2.2479027743,
				"y": 1.4510017897,
				"z": -0.4587807444,
				"element": "H" 
			},
			{
				"x": -1.5060970496,
				"y": 2.7423498662,
				"z": -1.4606505099,
				"element": "H" 
			},
			{
				"x": -2.1137624724,
				"y": 1.2335410172,
				"z": -2.2158718406,
				"element": "H" 
			},
			{
				"x": 2.2545065841,
				"y": -2.4921981371,
				"z": -0.5503207383,
				"element": "H" 
			},
			{
				"x": 0.1977063774,
				"y": -3.938833167,
				"z": -0.4678186051,
				"element": "H" 
			},
			{
				"x": -2.0261508739,
				"y": -2.8372000573,
				"z": -0.7822038749,
				"element": "H" 
			},
			{
				"x": 4.1462674715,
				"y": 0.5484292721,
				"z": -0.0992391775,
				"element": "H" 
			},
			{
				"x": 3.1270993393,
				"y": -0.5156721011,
				"z": 0.7941331922,
				"element": "H" 
			}
		],
		 "valence_orbital": [ 
			{
				"type": "occ",
				"energy": -0.29097,
				"method": "rhf"
			},
			{
				"type": "occ",
				"energy": -0.27199,
				"method": "rhf"
			},
			{
				"type": "occ",
				"energy": -0.26991,
				"method": "rhf"
			},
			{
				"type": "occ",
				"energy": -0.24547,
				"method": "rhf"
			},
			{
				"type": "occ",
				"energy": -0.2335,
				"method": "rhf"
			},
			{
				"type": "unocc",
				"energy": -0.03774,
				"method": "rhf"
			},
			{
				"type": "unocc",
				"energy": -0.0076,
				"method": "rhf"
			},
			{
				"type": "unocc",
				"energy": 0.04311,
				"method": "rhf"
			},
			{
				"type": "unocc",
				"energy": 0.0841,
				"method": "rhf"
			},
			{
				"type": "unocc",
				"energy": 0.10691,
				"method": "rhf"
			}
		],
		"cosmo_sigma_profile": { 
			"-0.025": 0.0,
			"-0.024": 0.0,
			"-0.023": 0.0,
			"-0.022": 0.0,
			"-0.021": 0.0,
			"-0.02": 0.0,
			"-0.019": 0.0,
			"-0.018": 0.0,
			"-0.017": 0.0,
			"-0.016": 0.0,
			"-0.015": 0.105130749651,
			"-0.014": 1.23345124738,
			"-0.013": 2.57028733467,
			"-0.012": 2.23924249547,
			"-0.011": 2.53855017502,
			"-0.01": 2.33385029914,
			"-0.009": 2.03459770946,
			"-0.008": 2.14294001272,
			"-0.007": 6.69283925635,
			"-0.006": 10.6244644523,
			"-0.005": 13.8893350472,
			"-0.004": 12.2010008656,
			"-0.003": 15.7274559427,
			"-0.002": 11.776016801,
			"-0.001": 9.81051883644,
			"0.0": 12.9862678352,
			"0.001": 12.9158886852,
			"0.002": 13.3849471114,
			"0.003": 8.1732498982,
			"0.004": 4.89556629865,
			"0.005": 4.74614571658,
			"0.006": 3.49190769129,
			"0.007": 4.05309824645,
			"0.008": 4.08682371087,
			"0.009": 2.03719535221,
			"0.01": 3.1297689199,
			"0.011": 2.46505480285,
			"0.012": 3.28855432626,
			"0.013": 5.70050786228,
			"0.014": 4.66419713738,
			"0.015": 1.89106808374,
			"0.016": 0.21537039041,
			"0.017": 0.0,
			"0.018": 0.0,
			"0.019": 0.0,
			"0.02": 0.0,
			"0.021": 0.0,
			"0.022": 0.0,
			"0.023": 0.0,
			"0.024": 0.0,
			"0.025": 0.0
		}
	}
}
