{
	 "smiles": "NC(=O)CCC1=NN=C(S)N1CC1=CC=CO1", 
	 "Tm": 478.15, 
	 "num_atms": 29, 
	 "gaussian": { 
		 "optdone": 1, 
		 "sigma_profile": "yes", 
		 "theory": "DFT", 
		 "functional": "B3LYP", 
		 "basiset": "6-31G**", 
		 "properties": { 
			 "R2extent": 5898.8779, 
			 "electric_dipole_moment_norm": 5.82921674498, 
			 "electric_quadrupole_moment_norm": 17.4535168353, 
			 "total_energy": -1155.90826122, 
			 "HOMO_LUMO_gap": 0.21426, 
			 "cosmo_polarized_energy": -21.5, 
			 "cosmo_cavitation_energy": 35.14, 
			 "cosmo_dispersion_energy": -24.79, 
			 "cosmo_repulsion_energy": 1.91, 
			 "cosmo_total_nonelectrostatic_energy": 12.26, 
			 "SMD_solvation_energy": 5.22 
		},
		"coords": [
			{
				"x": 4.1205144791,
				"y": 1.4465008285,
				"z": -3.113364479,
				"element": "N" 
			},
			{
				"x": 3.444962127,
				"y": 0.4420962476,
				"z": -3.7432929102,
				"element": "C" 
			},
			{
				"x": 3.9215136369,
				"y": -0.6643989971,
				"z": -3.9652117396,
				"element": "O" 
			},
			{
				"x": 2.0221053695,
				"y": 0.8010661277,
				"z": -4.1903121753,
				"element": "C" 
			},
			{
				"x": 0.9526028429,
				"y": 0.4249198419,
				"z": -3.1454961451,
				"element": "C" 
			},
			{
				"x": 0.8888672729,
				"y": 1.3729620514,
				"z": -1.9844132408,
				"element": "C" 
			},
			{
				"x": 1.6308093569,
				"y": 2.4420766135,
				"z": -1.8082756301,
				"element": "N" 
			},
			{
				"x": 1.2628726804,
				"y": 3.0433032137,
				"z": -0.617790264,
				"element": "N" 
			},
			{
				"x": 0.2960277383,
				"y": 2.3156210563,
				"z": -0.1164293182,
				"element": "C" 
			},
			{
				"x": -0.5625136001,
				"y": 2.623461633,
				"z": 1.3979876219,
				"element": "S" 
			},
			{
				"x": 0.003666994,
				"y": 1.2485228746,
				"z": -0.9328240364,
				"element": "N" 
			},
			{
				"x": -1.0035164107,
				"y": 0.2012427874,
				"z": -0.7159029877,
				"element": "C" 
			},
			{
				"x": -0.5176819517,
				"y": -0.9462072657,
				"z": 0.1034798871,
				"element": "C" 
			},
			{
				"x": -0.7873300901,
				"y": -1.3775822116,
				"z": 1.3688553623,
				"element": "C" 
			},
			{
				"x": 0.0161255731,
				"y": -2.5466749278,
				"z": 1.5783392834,
				"element": "C" 
			},
			{
				"x": 0.7151699874,
				"y": -2.7363271086,
				"z": 0.4264939011,
				"element": "C" 
			},
			{
				"x": 0.3999627581,
				"y": -1.7727489511,
				"z": -0.4859869108,
				"element": "O" 
			},
			{
				"x": 3.5747825389,
				"y": 2.1889505988,
				"z": -2.6839547814,
				"element": "H" 
			},
			{
				"x": 4.9969702298,
				"y": 1.1875669976,
				"z": -2.6823461456,
				"element": "H" 
			},
			{
				"x": 1.8350223534,
				"y": 0.2177846404,
				"z": -5.0944518431,
				"element": "H" 
			},
			{
				"x": 1.9414807604,
				"y": 1.8636743308,
				"z": -4.4358404994,
				"element": "H" 
			},
			{
				"x": -0.0291305508,
				"y": 0.4059081896,
				"z": -3.6387888067,
				"element": "H" 
			},
			{
				"x": 1.1340931292,
				"y": -0.5937102096,
				"z": -2.7822106525,
				"element": "H" 
			},
			{
				"x": -0.1245606066,
				"y": 3.8941058061,
				"z": 1.4731295969,
				"element": "H" 
			},
			{
				"x": -1.3330744934,
				"y": -0.1395107593,
				"z": -1.7016989005,
				"element": "H" 
			},
			{
				"x": -1.8646924626,
				"y": 0.6576919123,
				"z": -0.2209721932,
				"element": "H" 
			},
			{
				"x": -1.4718305352,
				"y": -0.9193700061,
				"z": 2.0685139071,
				"element": "H" 
			},
			{
				"x": 0.0638245436,
				"y": -3.1573446655,
				"z": 2.4680424094,
				"element": "H" 
			},
			{
				"x": 1.4393563295,
				"y": -3.4680806489,
				"z": 0.1041216903,
				"element": "H" 
			}
		],
		 "valence_orbital": [ 
			{
				"type": "occ",
				"energy": -0.27009,
				"method": "rhf"
			},
			{
				"type": "occ",
				"energy": -0.25046,
				"method": "rhf"
			},
			{
				"type": "occ",
				"energy": -0.24516,
				"method": "rhf"
			},
			{
				"type": "occ",
				"energy": -0.23739,
				"method": "rhf"
			},
			{
				"type": "occ",
				"energy": -0.22976,
				"method": "rhf"
			},
			{
				"type": "unocc",
				"energy": -0.0155,
				"method": "rhf"
			},
			{
				"type": "unocc",
				"energy": -0.00123,
				"method": "rhf"
			},
			{
				"type": "unocc",
				"energy": 0.01004,
				"method": "rhf"
			},
			{
				"type": "unocc",
				"energy": 0.03108,
				"method": "rhf"
			},
			{
				"type": "unocc",
				"energy": 0.03912,
				"method": "rhf"
			}
		],
		"cosmo_sigma_profile": { 
			"-0.025": 0.0,
			"-0.024": 0.0,
			"-0.023": 0.0,
			"-0.022": 0.0,
			"-0.021": 0.0,
			"-0.02": 0.0,
			"-0.019": 0.0,
			"-0.018": 0.0,
			"-0.017": 0.0,
			"-0.016": 0.0,
			"-0.015": 0.0,
			"-0.014": 0.00936982550648,
			"-0.013": 0.888719721504,
			"-0.012": 2.51969785739,
			"-0.011": 3.09043601598,
			"-0.01": 2.64737876813,
			"-0.009": 5.85576000877,
			"-0.008": 10.53457781,
			"-0.007": 13.6643121797,
			"-0.006": 16.1255775645,
			"-0.005": 15.5329752144,
			"-0.004": 18.1022676734,
			"-0.003": 20.0905915585,
			"-0.002": 17.1707071529,
			"-0.001": 18.697024034,
			"0.0": 15.6732233869,
			"0.001": 16.8362165921,
			"0.002": 18.4629837513,
			"0.003": 17.0797096301,
			"0.004": 12.1669717113,
			"0.005": 12.1200461536,
			"0.006": 6.3780211637,
			"0.007": 4.38282374143,
			"0.008": 4.36138721387,
			"0.009": 2.83863879538,
			"0.01": 2.8992767069,
			"0.011": 3.08517749102,
			"0.012": 4.99642505818,
			"0.013": 4.15694284146,
			"0.014": 6.53726705285,
			"0.015": 4.26215041741,
			"0.016": 0.926577658049,
			"0.017": 0.170672968678,
			"0.018": 0.0,
			"0.019": 0.0,
			"0.02": 0.0,
			"0.021": 0.0,
			"0.022": 0.0,
			"0.023": 0.0,
			"0.024": 0.0,
			"0.025": 0.0
		}
	}
}
