{
	 "smiles": "CC(O)C1=NC2=C(C=CC(Cl)=C2)N1C", 
	 "Tm": 410.15, 
	 "num_atms": 25, 
	 "gaussian": { 
		 "optdone": 1, 
		 "sigma_profile": "yes", 
		 "theory": "DFT", 
		 "functional": "B3LYP", 
		 "basiset": "6-31G**", 
		 "properties": { 
			 "R2extent": 4042.8776, 
			 "electric_dipole_moment_norm": 5.83146105449, 
			 "electric_quadrupole_moment_norm": 7.58370935888, 
			 "total_energy": -1032.62226626, 
			 "HOMO_LUMO_gap": 0.19746, 
			 "cosmo_polarized_energy": -13.58, 
			 "cosmo_cavitation_energy": 30.03, 
			 "cosmo_dispersion_energy": -22.02, 
			 "cosmo_repulsion_energy": 1.73, 
			 "cosmo_total_nonelectrostatic_energy": 9.74, 
			 "SMD_solvation_energy": 2.77 
		},
		"coords": [
			{
				"x": 3.6777456626,
				"y": 0.7087430972,
				"z": 0.3006626104,
				"element": "C" 
			},
			{
				"x": 2.5469025826,
				"y": 1.5014624165,
				"z": -0.3697059715,
				"element": "C" 
			},
			{
				"x": 2.567354801,
				"y": 2.879766491,
				"z": 0.0176205432,
				"element": "O" 
			},
			{
				"x": 1.1869921589,
				"y": 0.9333438661,
				"z": -0.0587932181,
				"element": "C" 
			},
			{
				"x": 0.549741608,
				"y": 0.1650212099,
				"z": -0.9151840948,
				"element": "N" 
			},
			{
				"x": -0.6059131745,
				"y": -0.221567549,
				"z": -0.2610368826,
				"element": "C" 
			},
			{
				"x": -0.646265087,
				"y": 0.3491963581,
				"z": 1.0323956846,
				"element": "C" 
			},
			{
				"x": -1.709552124,
				"y": 0.1314626537,
				"z": 1.9109923285,
				"element": "C" 
			},
			{
				"x": -2.7470650883,
				"y": -0.6827532309,
				"z": 1.4645317654,
				"element": "C" 
			},
			{
				"x": -2.7054351338,
				"y": -1.2506315122,
				"z": 0.1767804156,
				"element": "C" 
			},
			{
				"x": -4.0515002078,
				"y": -2.2736444644,
				"z": -0.3274785428,
				"element": "Cl" 
			},
			{
				"x": -1.6534955101,
				"y": -1.0385511289,
				"z": -0.7048294128,
				"element": "C" 
			},
			{
				"x": 0.5197752397,
				"y": 1.0885442883,
				"z": 1.1440305214,
				"element": "N" 
			},
			{
				"x": 0.9060398843,
				"y": 1.8545598681,
				"z": 2.3202803016,
				"element": "C" 
			},
			{
				"x": 4.6523468499,
				"y": 1.1171607048,
				"z": 0.0077727481,
				"element": "H" 
			},
			{
				"x": 3.6458955333,
				"y": -0.3394627545,
				"z": -0.0097336534,
				"element": "H" 
			},
			{
				"x": 3.6019973072,
				"y": 0.7534383379,
				"z": 1.3911820021,
				"element": "H" 
			},
			{
				"x": 2.6450046617,
				"y": 1.4069524694,
				"z": -1.4588043284,
				"element": "H" 
			},
			{
				"x": 3.4427984882,
				"y": 3.2287484203,
				"z": -0.1945168706,
				"element": "H" 
			},
			{
				"x": -1.7390918533,
				"y": 0.5672649433,
				"z": 2.9045246392,
				"element": "H" 
			},
			{
				"x": -3.5959775447,
				"y": -0.8875521649,
				"z": 2.1066929196,
				"element": "H" 
			},
			{
				"x": -1.6384228539,
				"y": -1.4822035456,
				"z": -1.6932039162,
				"element": "H" 
			},
			{
				"x": 1.1889953201,
				"y": 1.1883567225,
				"z": 3.1431736,
				"element": "H" 
			},
			{
				"x": 1.738300475,
				"y": 2.5046178073,
				"z": 2.060343675,
				"element": "H" 
			},
			{
				"x": 0.0649280048,
				"y": 2.4747266959,
				"z": 2.6451031365,
				"element": "H" 
			}
		],
		 "valence_orbital": [ 
			{
				"type": "occ",
				"energy": -0.29426,
				"method": "rhf"
			},
			{
				"type": "occ",
				"energy": -0.28851,
				"method": "rhf"
			},
			{
				"type": "occ",
				"energy": -0.2717,
				"method": "rhf"
			},
			{
				"type": "occ",
				"energy": -0.22702,
				"method": "rhf"
			},
			{
				"type": "occ",
				"energy": -0.22045,
				"method": "rhf"
			},
			{
				"type": "unocc",
				"energy": -0.02299,
				"method": "rhf"
			},
			{
				"type": "unocc",
				"energy": 0.01411,
				"method": "rhf"
			},
			{
				"type": "unocc",
				"energy": 0.03903,
				"method": "rhf"
			},
			{
				"type": "unocc",
				"energy": 0.0449,
				"method": "rhf"
			},
			{
				"type": "unocc",
				"energy": 0.05798,
				"method": "rhf"
			}
		],
		"cosmo_sigma_profile": { 
			"-0.025": 0.0,
			"-0.024": 0.0,
			"-0.023": 0.0,
			"-0.022": 0.0,
			"-0.021": 0.0,
			"-0.02": 0.0,
			"-0.019": 0.0,
			"-0.018": 0.0,
			"-0.017": 0.0383996873889,
			"-0.016": 0.810470472132,
			"-0.015": 1.15696867305,
			"-0.014": 0.866326716023,
			"-0.013": 1.09721507883,
			"-0.012": 1.10808098466,
			"-0.011": 1.1064025087,
			"-0.01": 0.51557299908,
			"-0.009": 0.561605835016,
			"-0.008": 1.51552181845,
			"-0.007": 6.18082782107,
			"-0.006": 12.457099553,
			"-0.005": 15.4172968988,
			"-0.004": 19.3101066209,
			"-0.003": 19.729453227,
			"-0.002": 16.7457290306,
			"-0.001": 17.2728934553,
			"0.0": 15.8822299782,
			"0.001": 13.1406950065,
			"0.002": 15.8165253069,
			"0.003": 21.4868839957,
			"0.004": 22.0723148028,
			"0.005": 14.433475396,
			"0.006": 4.17970371989,
			"0.007": 2.76943833302,
			"0.008": 2.49880406633,
			"0.009": 1.70747193323,
			"0.01": 2.45201790613,
			"0.011": 1.78344456683,
			"0.012": 1.66175025432,
			"0.013": 1.39600502746,
			"0.014": 1.06662572577,
			"0.015": 0.88154485577,
			"0.016": 0.869534445315,
			"0.017": 0.651918489553,
			"0.018": 0.0718951051442,
			"0.019": 0.0,
			"0.02": 0.0,
			"0.021": 0.0,
			"0.022": 0.0,
			"0.023": 0.0,
			"0.024": 0.0,
			"0.025": 0.0
		}
	}
}
