{
	 "smiles": "OC(=O)C(F)(F)C1=CC=C(F)C=C1", 
	 "Tm": 373.15, 
	 "num_atms": 18, 
	 "gaussian": { 
		 "optdone": 1, 
		 "sigma_profile": "yes", 
		 "theory": "DFT", 
		 "functional": "B3LYP", 
		 "basiset": "6-31G**", 
		 "properties": { 
			 "R2extent": 3009.7689, 
			 "electric_dipole_moment_norm": 2.79072183852, 
			 "electric_quadrupole_moment_norm": 7.97795288216, 
			 "total_energy": -757.826106984, 
			 "HOMO_LUMO_gap": 0.22165, 
			 "cosmo_polarized_energy": -10.57, 
			 "cosmo_cavitation_energy": 24.36, 
			 "cosmo_dispersion_energy": -17.33, 
			 "cosmo_repulsion_energy": 1.32, 
			 "cosmo_total_nonelectrostatic_energy": 8.34, 
			 "SMD_solvation_energy": 6.68 
		},
		"coords": [
			{
				"x": 1.2995432975,
				"y": 0.1326437605,
				"z": 2.2480927777,
				"element": "O" 
			},
			{
				"x": 1.5528193217,
				"y": -0.5106314847,
				"z": 1.0986432914,
				"element": "C" 
			},
			{
				"x": 2.5512438653,
				"y": -0.3426678084,
				"z": 0.4498423612,
				"element": "O" 
			},
			{
				"x": 0.4591334109,
				"y": -1.5193954803,
				"z": 0.6481583798,
				"element": "C" 
			},
			{
				"x": -0.5565137571,
				"y": -1.5048926812,
				"z": 1.5961216453,
				"element": "F" 
			},
			{
				"x": 1.0330913365,
				"y": -2.757693086,
				"z": 0.7013059352,
				"element": "F" 
			},
			{
				"x": -0.0991900214,
				"y": -1.2462511938,
				"z": -0.7204097944,
				"element": "C" 
			},
			{
				"x": -1.3799431448,
				"y": -0.7092240189,
				"z": -0.88245756,
				"element": "C" 
			},
			{
				"x": -1.875427924,
				"y": -0.4517397398,
				"z": -2.1597123927,
				"element": "C" 
			},
			{
				"x": -1.0707185465,
				"y": -0.7360884281,
				"z": -3.2571189898,
				"element": "C" 
			},
			{
				"x": -1.5441761756,
				"y": -0.4897858261,
				"z": -4.4925274663,
				"element": "F" 
			},
			{
				"x": 0.2087376329,
				"y": -1.2673131835,
				"z": -3.1205425763,
				"element": "C" 
			},
			{
				"x": 0.6944457476,
				"y": -1.5220459922,
				"z": -1.8416899203,
				"element": "C" 
			},
			{
				"x": 0.452087395,
				"y": -0.183289364,
				"z": 2.6024378357,
				"element": "H" 
			},
			{
				"x": -1.9949245731,
				"y": -0.5011093047,
				"z": -0.0144559727,
				"element": "H" 
			},
			{
				"x": -2.8670313852,
				"y": -0.040861296,
				"z": -2.3129287845,
				"element": "H" 
			},
			{
				"x": 0.801640739,
				"y": -1.4722540002,
				"z": -4.0048656632,
				"element": "H" 
			},
			{
				"x": 1.6912827813,
				"y": -1.9255008726,
				"z": -1.708093106,
				"element": "H" 
			}
		],
		 "valence_orbital": [ 
			{
				"type": "occ",
				"energy": -0.36185,
				"method": "rhf"
			},
			{
				"type": "occ",
				"energy": -0.33563,
				"method": "rhf"
			},
			{
				"type": "occ",
				"energy": -0.29305,
				"method": "rhf"
			},
			{
				"type": "occ",
				"energy": -0.27751,
				"method": "rhf"
			},
			{
				"type": "occ",
				"energy": -0.26294,
				"method": "rhf"
			},
			{
				"type": "unocc",
				"energy": -0.04129,
				"method": "rhf"
			},
			{
				"type": "unocc",
				"energy": -0.02762,
				"method": "rhf"
			},
			{
				"type": "unocc",
				"energy": -0.0006,
				"method": "rhf"
			},
			{
				"type": "unocc",
				"energy": 0.06748,
				"method": "rhf"
			},
			{
				"type": "unocc",
				"energy": 0.08036,
				"method": "rhf"
			}
		],
		"cosmo_sigma_profile": { 
			"-0.025": 0.0,
			"-0.024": 0.0,
			"-0.023": 0.0,
			"-0.022": 0.0,
			"-0.021": 0.0,
			"-0.02": 0.0,
			"-0.019": 0.0,
			"-0.018": 0.488061836425,
			"-0.017": 0.389821685214,
			"-0.016": 0.739259683078,
			"-0.015": 0.603290050729,
			"-0.014": 0.931148002785,
			"-0.013": 1.29440847281,
			"-0.012": 1.25219573504,
			"-0.011": 1.13782252517,
			"-0.01": 1.35202186873,
			"-0.009": 1.31213913043,
			"-0.008": 4.49413776567,
			"-0.007": 8.81814995838,
			"-0.006": 8.34175403081,
			"-0.005": 9.26944661505,
			"-0.004": 7.27720034717,
			"-0.003": 8.08934576372,
			"-0.002": 7.95085224783,
			"-0.001": 11.9643718954,
			"0.0": 17.270638947,
			"0.001": 18.1867675635,
			"0.002": 23.14839692,
			"0.003": 22.8542338128,
			"0.004": 13.358943385,
			"0.005": 3.01999171796,
			"0.006": 3.00819711885,
			"0.007": 3.60130443531,
			"0.008": 4.89016779313,
			"0.009": 3.8101742661,
			"0.01": 4.46686897868,
			"0.011": 2.41704847509,
			"0.012": 0.275142116177,
			"0.013": 0.0,
			"0.014": 0.0,
			"0.015": 0.0,
			"0.016": 0.0,
			"0.017": 0.0,
			"0.018": 0.0,
			"0.019": 0.0,
			"0.02": 0.0,
			"0.021": 0.0,
			"0.022": 0.0,
			"0.023": 0.0,
			"0.024": 0.0,
			"0.025": 0.0
		}
	}
}
