{
	 "smiles": "CC1=C(OC(CN)=N1)C1=CC=C(Cl)C=C1", 
	 "Tm": 343.15, 
	 "num_atms": 26, 
	 "gaussian": { 
		 "optdone": 1, 
		 "sigma_profile": "yes", 
		 "theory": "DFT", 
		 "functional": "B3LYP", 
		 "basiset": "6-31G**", 
		 "properties": { 
			 "R2extent": 5441.0899, 
			 "electric_dipole_moment_norm": 2.41378538814, 
			 "electric_quadrupole_moment_norm": 14.617301332, 
			 "total_energy": -1070.71634672, 
			 "HOMO_LUMO_gap": 0.1707, 
			 "cosmo_polarized_energy": -11.36, 
			 "cosmo_cavitation_energy": 32.2, 
			 "cosmo_dispersion_energy": -23.58, 
			 "cosmo_repulsion_energy": 1.88, 
			 "cosmo_total_nonelectrostatic_energy": 10.5, 
			 "SMD_solvation_energy": 2.53 
		},
		"coords": [
			{
				"x": -1.7873049171,
				"y": -2.053070373,
				"z": -0.2805772504,
				"element": "C" 
			},
			{
				"x": -0.3040119495,
				"y": -2.0520850494,
				"z": -0.0822051655,
				"element": "C" 
			},
			{
				"x": 0.5316494866,
				"y": -1.0907574079,
				"z": 0.4333994558,
				"element": "C" 
			},
			{
				"x": 1.814766687,
				"y": -1.5938925487,
				"z": 0.3638053857,
				"element": "O" 
			},
			{
				"x": 1.6878584554,
				"y": -2.8280120915,
				"z": -0.18285545,
				"element": "C" 
			},
			{
				"x": 2.9225248312,
				"y": -3.6404785286,
				"z": -0.406172944,
				"element": "C" 
			},
			{
				"x": 3.775334015,
				"y": -3.0312656697,
				"z": -1.4350457015,
				"element": "N" 
			},
			{
				"x": 0.4598536966,
				"y": -3.1482073386,
				"z": -0.4655307796,
				"element": "N" 
			},
			{
				"x": 0.3767929306,
				"y": 0.2516679765,
				"z": 0.9750905701,
				"element": "C" 
			},
			{
				"x": 1.5020531359,
				"y": 1.080104123,
				"z": 1.1501196638,
				"element": "C" 
			},
			{
				"x": 1.3728192072,
				"y": 2.3683681129,
				"z": 1.6588755555,
				"element": "C" 
			},
			{
				"x": 0.1073693008,
				"y": 2.8471547466,
				"z": 1.9989969665,
				"element": "C" 
			},
			{
				"x": -0.0625225072,
				"y": 4.4750796283,
				"z": 2.63859638,
				"element": "Cl" 
			},
			{
				"x": -1.0240264513,
				"y": 2.047747382,
				"z": 1.8418933217,
				"element": "C" 
			},
			{
				"x": -0.8855822736,
				"y": 0.7574149095,
				"z": 1.3372803475,
				"element": "C" 
			},
			{
				"x": -2.3278919089,
				"y": -2.242548909,
				"z": 0.6552342668,
				"element": "H" 
			},
			{
				"x": -2.0516004662,
				"y": -2.8479200211,
				"z": -0.9812555003,
				"element": "H" 
			},
			{
				"x": -2.1454306026,
				"y": -1.1005081223,
				"z": -0.6839820568,
				"element": "H" 
			},
			{
				"x": 3.497422998,
				"y": -3.6727090712,
				"z": 0.5268816273,
				"element": "H" 
			},
			{
				"x": 2.5823767665,
				"y": -4.6643478008,
				"z": -0.6212511757,
				"element": "H" 
			},
			{
				"x": 4.6562112256,
				"y": -3.5361773637,
				"z": -1.4870176746,
				"element": "H" 
			},
			{
				"x": 3.3307977124,
				"y": -3.125314725,
				"z": -2.3452717988,
				"element": "H" 
			},
			{
				"x": 2.4833787381,
				"y": 0.7070379353,
				"z": 0.8793524585,
				"element": "H" 
			},
			{
				"x": 2.2452995302,
				"y": 2.9993663026,
				"z": 1.7876779989,
				"element": "H" 
			},
			{
				"x": -2.0009017408,
				"y": 2.427644372,
				"z": 2.119851046,
				"element": "H" 
			},
			{
				"x": -1.7691359001,
				"y": 0.1374095319,
				"z": 1.242010453,
				"element": "H" 
			}
		],
		 "valence_orbital": [ 
			{
				"type": "occ",
				"energy": -0.28562,
				"method": "rhf"
			},
			{
				"type": "occ",
				"energy": -0.2735,
				"method": "rhf"
			},
			{
				"type": "occ",
				"energy": -0.26536,
				"method": "rhf"
			},
			{
				"type": "occ",
				"energy": -0.24774,
				"method": "rhf"
			},
			{
				"type": "occ",
				"energy": -0.21146,
				"method": "rhf"
			},
			{
				"type": "unocc",
				"energy": -0.04076,
				"method": "rhf"
			},
			{
				"type": "unocc",
				"energy": -0.01503,
				"method": "rhf"
			},
			{
				"type": "unocc",
				"energy": 0.01812,
				"method": "rhf"
			},
			{
				"type": "unocc",
				"energy": 0.03072,
				"method": "rhf"
			},
			{
				"type": "unocc",
				"energy": 0.06698,
				"method": "rhf"
			}
		],
		"cosmo_sigma_profile": { 
			"-0.025": 0.0,
			"-0.024": 0.0,
			"-0.023": 0.0,
			"-0.022": 0.0,
			"-0.021": 0.0,
			"-0.02": 0.0,
			"-0.019": 0.0,
			"-0.018": 0.0,
			"-0.017": 0.0,
			"-0.016": 0.0,
			"-0.015": 0.0,
			"-0.014": 0.0,
			"-0.013": 0.0,
			"-0.012": 0.0,
			"-0.011": 0.628381991204,
			"-0.01": 2.89823580839,
			"-0.009": 2.63126793368,
			"-0.008": 3.74261772797,
			"-0.007": 7.03482721741,
			"-0.006": 14.2473510405,
			"-0.005": 18.9077911763,
			"-0.004": 18.0550575423,
			"-0.003": 17.8113684305,
			"-0.002": 16.7458014435,
			"-0.001": 19.1087737869,
			"0.0": 18.2181150211,
			"0.001": 22.5882216234,
			"0.002": 23.5263149089,
			"0.003": 23.9058699619,
			"0.004": 16.7589335281,
			"0.005": 9.8071914596,
			"0.006": 2.94127052706,
			"0.007": 2.72901954545,
			"0.008": 2.04735336248,
			"0.009": 1.8073465358,
			"0.01": 1.33477271276,
			"0.011": 2.75285313297,
			"0.012": 1.57175309941,
			"0.013": 1.38677045137,
			"0.014": 1.42693249345,
			"0.015": 1.4223969048,
			"0.016": 1.42676739685,
			"0.017": 0.663277848411,
			"0.018": 0.531655810264,
			"0.019": 0.110555817216,
			"0.02": 0.0,
			"0.021": 0.0,
			"0.022": 0.0,
			"0.023": 0.0,
			"0.024": 0.0,
			"0.025": 0.0
		}
	}
}
