{
	 "smiles": "CC1=C(F)C=CC(=C1)C1=NN=NN1", 
	 "Tm": 383.15, 
	 "num_atms": 20, 
	 "gaussian": { 
		 "optdone": 1, 
		 "sigma_profile": "yes", 
		 "theory": "DFT", 
		 "functional": "B3LYP", 
		 "basiset": "6-31G**", 
		 "properties": { 
			 "R2extent": 3842.2737, 
			 "electric_dipole_moment_norm": 4.96658279806, 
			 "electric_quadrupole_moment_norm": 29.7359573088, 
			 "total_energy": -627.867031805, 
			 "HOMO_LUMO_gap": 0.19387, 
			 "cosmo_polarized_energy": -17.48, 
			 "cosmo_cavitation_energy": 25.43, 
			 "cosmo_dispersion_energy": -18.7, 
			 "cosmo_repulsion_energy": 1.44, 
			 "cosmo_total_nonelectrostatic_energy": 8.16, 
			 "SMD_solvation_energy": 3.06 
		},
		"coords": [
			{
				"x": 0.1532290732,
				"y": -1.7929187194,
				"z": 1.6060586045,
				"element": "C" 
			},
			{
				"x": 0.1824065178,
				"y": -1.0232882053,
				"z": 0.3111526569,
				"element": "C" 
			},
			{
				"x": 1.2260746479,
				"y": -0.1307642132,
				"z": 0.0428209136,
				"element": "C" 
			},
			{
				"x": 2.1938532527,
				"y": 0.0158846846,
				"z": 0.9716208456,
				"element": "F" 
			},
			{
				"x": 1.3114851033,
				"y": 0.6075752976,
				"z": -1.1299113897,
				"element": "C" 
			},
			{
				"x": 0.3144233369,
				"y": 0.4587436708,
				"z": -2.090834663,
				"element": "C" 
			},
			{
				"x": -0.7518727676,
				"y": -0.4235987435,
				"z": -1.8674049163,
				"element": "C" 
			},
			{
				"x": -0.8024477097,
				"y": -1.1534167682,
				"z": -0.6670554974,
				"element": "C" 
			},
			{
				"x": -1.8232235831,
				"y": -0.6151593162,
				"z": -2.8448910574,
				"element": "C" 
			},
			{
				"x": -2.8642687265,
				"y": -1.4273044956,
				"z": -2.715275238,
				"element": "N" 
			},
			{
				"x": -3.603789505,
				"y": -1.2953814751,
				"z": -3.845179366,
				"element": "N" 
			},
			{
				"x": -3.0707927197,
				"y": -0.4456979783,
				"z": -4.659872184,
				"element": "N" 
			},
			{
				"x": -1.9458007575,
				"y": -0.0044127152,
				"z": -4.047639926,
				"element": "N" 
			},
			{
				"x": 1.0467541735,
				"y": -2.4166175361,
				"z": 1.7152820593,
				"element": "H" 
			},
			{
				"x": -0.7253118528,
				"y": -2.4398043463,
				"z": 1.6536392184,
				"element": "H" 
			},
			{
				"x": 0.1306082329,
				"y": -1.1168876402,
				"z": 2.4673074507,
				"element": "H" 
			},
			{
				"x": 2.1475494308,
				"y": 1.2823823032,
				"z": -1.275601099,
				"element": "H" 
			},
			{
				"x": 0.3822217041,
				"y": 1.0366346656,
				"z": -3.0079962995,
				"element": "H" 
			},
			{
				"x": -1.6344032816,
				"y": -1.8319904204,
				"z": -0.5099038874,
				"element": "H" 
			},
			{
				"x": -1.3606945697,
				"y": 0.6766219512,
				"z": -4.5075162254,
				"element": "H" 
			}
		],
		 "valence_orbital": [ 
			{
				"type": "occ",
				"energy": -0.31608,
				"method": "rhf"
			},
			{
				"type": "occ",
				"energy": -0.29847,
				"method": "rhf"
			},
			{
				"type": "occ",
				"energy": -0.28399,
				"method": "rhf"
			},
			{
				"type": "occ",
				"energy": -0.27303,
				"method": "rhf"
			},
			{
				"type": "occ",
				"energy": -0.24862,
				"method": "rhf"
			},
			{
				"type": "unocc",
				"energy": -0.05475,
				"method": "rhf"
			},
			{
				"type": "unocc",
				"energy": -0.02761,
				"method": "rhf"
			},
			{
				"type": "unocc",
				"energy": 0.00024,
				"method": "rhf"
			},
			{
				"type": "unocc",
				"energy": 0.04096,
				"method": "rhf"
			},
			{
				"type": "unocc",
				"energy": 0.05219,
				"method": "rhf"
			}
		],
		"cosmo_sigma_profile": { 
			"-0.025": 0.0,
			"-0.024": 0.0,
			"-0.023": 0.0,
			"-0.022": 0.0,
			"-0.021": 0.0,
			"-0.02": 0.0,
			"-0.019": 0.861045704208,
			"-0.018": 1.81960795208,
			"-0.017": 1.97065257522,
			"-0.016": 1.1156297573,
			"-0.015": 1.19542385795,
			"-0.014": 1.52589651858,
			"-0.013": 0.697514618721,
			"-0.012": 1.15447388487,
			"-0.011": 1.52406821777,
			"-0.01": 0.852845091533,
			"-0.009": 2.09739922636,
			"-0.008": 2.67167920239,
			"-0.007": 3.90238418253,
			"-0.006": 6.60681564114,
			"-0.005": 8.98515921631,
			"-0.004": 11.3939458983,
			"-0.003": 13.8976466501,
			"-0.002": 14.469621552,
			"-0.001": 16.4513643223,
			"0.0": 18.9319431627,
			"0.001": 15.9860739702,
			"0.002": 16.2611849507,
			"0.003": 11.6473506009,
			"0.004": 11.7681439827,
			"0.005": 3.0642145247,
			"0.006": 3.08045808868,
			"0.007": 3.32224977093,
			"0.008": 5.90985196044,
			"0.009": 4.17790114382,
			"0.01": 4.93325204695,
			"0.011": 4.75256479122,
			"0.012": 3.4879236057,
			"0.013": 2.4300466906,
			"0.014": 1.45603238733,
			"0.015": 0.0519740318368,
			"0.016": 0.0,
			"0.017": 0.0,
			"0.018": 0.0,
			"0.019": 0.0,
			"0.02": 0.0,
			"0.021": 0.0,
			"0.022": 0.0,
			"0.023": 0.0,
			"0.024": 0.0,
			"0.025": 0.0
		}
	}
}
