{
	 "smiles": "CC1=CC=CC2=C1NC(=O)C2=O", 
	 "Tm": 540.15, 
	 "num_atms": 19, 
	 "gaussian": { 
		 "optdone": 1, 
		 "sigma_profile": "yes", 
		 "theory": "DFT", 
		 "functional": "B3LYP", 
		 "basiset": "6-31G**", 
		 "properties": { 
			 "R2extent": 2976.2941, 
			 "electric_dipole_moment_norm": 6.22890902968, 
			 "electric_quadrupole_moment_norm": 25.0637296714, 
			 "total_energy": -552.383594996, 
			 "HOMO_LUMO_gap": 0.14128, 
			 "cosmo_polarized_energy": -15.04, 
			 "cosmo_cavitation_energy": 23.88, 
			 "cosmo_dispersion_energy": -17.49, 
			 "cosmo_repulsion_energy": 1.38, 
			 "cosmo_total_nonelectrostatic_energy": 7.77, 
			 "SMD_solvation_energy": 5.43 
		},
		"coords": [
			{
				"x": -2.0506183616,
				"y": 1.1723802383,
				"z": 1.283027565,
				"element": "C" 
			},
			{
				"x": -1.5236128805,
				"y": 0.2008265425,
				"z": 0.2573325367,
				"element": "C" 
			},
			{
				"x": -1.3274716796,
				"y": -1.1615329485,
				"z": 0.5380339456,
				"element": "C" 
			},
			{
				"x": -0.8385341141,
				"y": -2.0727716148,
				"z": -0.406929915,
				"element": "C" 
			},
			{
				"x": -0.5217155518,
				"y": -1.6415943216,
				"z": -1.6953336507,
				"element": "C" 
			},
			{
				"x": -0.7061725422,
				"y": -0.2957623639,
				"z": -2.00190516,
				"element": "C" 
			},
			{
				"x": -1.1987326436,
				"y": 0.6051889933,
				"z": -1.0387006761,
				"element": "C" 
			},
			{
				"x": -1.2956302108,
				"y": 1.8958433812,
				"z": -1.5853648332,
				"element": "N" 
			},
			{
				"x": -0.8850622712,
				"y": 1.9344450066,
				"z": -2.9094428443,
				"element": "C" 
			},
			{
				"x": -0.8567156327,
				"y": 2.9002559767,
				"z": -3.6377781952,
				"element": "O" 
			},
			{
				"x": -0.4708200731,
				"y": 0.4567609654,
				"z": -3.2443824599,
				"element": "C" 
			},
			{
				"x": -0.0536983858,
				"y": 0.090299415,
				"z": -4.3213402624,
				"element": "O" 
			},
			{
				"x": -2.9893510807,
				"y": 1.6367840859,
				"z": 0.956126438,
				"element": "H" 
			},
			{
				"x": -2.2459731659,
				"y": 0.6708366458,
				"z": 2.2338304561,
				"element": "H" 
			},
			{
				"x": -1.3366593179,
				"y": 1.9823282322,
				"z": 1.4779711797,
				"element": "H" 
			},
			{
				"x": -1.5686019542,
				"y": -1.5172572884,
				"z": 1.5369257352,
				"element": "H" 
			},
			{
				"x": -0.7085635931,
				"y": -3.1137563925,
				"z": -0.1295717893,
				"element": "H" 
			},
			{
				"x": -0.1409429959,
				"y": -2.321891789,
				"z": -2.4507364496,
				"element": "H" 
			},
			{
				"x": -1.6221235455,
				"y": 2.7137172359,
				"z": -1.0928616205,
				"element": "H" 
			}
		],
		 "valence_orbital": [ 
			{
				"type": "occ",
				"energy": -0.3269,
				"method": "rhf"
			},
			{
				"type": "occ",
				"energy": -0.30797,
				"method": "rhf"
			},
			{
				"type": "occ",
				"energy": -0.26991,
				"method": "rhf"
			},
			{
				"type": "occ",
				"energy": -0.24458,
				"method": "rhf"
			},
			{
				"type": "occ",
				"energy": -0.2362,
				"method": "rhf"
			},
			{
				"type": "unocc",
				"energy": -0.09492,
				"method": "rhf"
			},
			{
				"type": "unocc",
				"energy": -0.02011,
				"method": "rhf"
			},
			{
				"type": "unocc",
				"energy": 0.00994,
				"method": "rhf"
			},
			{
				"type": "unocc",
				"energy": 0.06199,
				"method": "rhf"
			},
			{
				"type": "unocc",
				"energy": 0.08672,
				"method": "rhf"
			}
		],
		"cosmo_sigma_profile": { 
			"-0.025": 0.0,
			"-0.024": 0.0,
			"-0.023": 0.0,
			"-0.022": 0.0,
			"-0.021": 0.0,
			"-0.02": 0.0,
			"-0.019": 0.0,
			"-0.018": 0.0,
			"-0.017": 0.00381312253695,
			"-0.016": 0.66784667201,
			"-0.015": 0.962539400752,
			"-0.014": 0.851125666352,
			"-0.013": 0.823984008341,
			"-0.012": 0.89015005585,
			"-0.011": 1.15965798874,
			"-0.01": 1.92293041677,
			"-0.009": 1.31566072768,
			"-0.008": 1.63349166141,
			"-0.007": 6.6169501111,
			"-0.006": 12.4950010798,
			"-0.005": 14.568377322,
			"-0.004": 13.3800465508,
			"-0.003": 12.3276662929,
			"-0.002": 13.4188322701,
			"-0.001": 17.5394759222,
			"0.0": 15.2538710535,
			"0.001": 10.5518320265,
			"0.002": 10.8081328431,
			"0.003": 10.7183893476,
			"0.004": 6.10686537733,
			"0.005": 1.49054767051,
			"0.006": 3.51549079331,
			"0.007": 2.54802573461,
			"0.008": 2.89509732756,
			"0.009": 5.19067074244,
			"0.01": 7.52234902855,
			"0.011": 9.40569625937,
			"0.012": 4.42931078014,
			"0.013": 0.440177971223,
			"0.014": 0.0,
			"0.015": 0.0,
			"0.016": 0.0,
			"0.017": 0.0,
			"0.018": 0.0,
			"0.019": 0.0,
			"0.02": 0.0,
			"0.021": 0.0,
			"0.022": 0.0,
			"0.023": 0.0,
			"0.024": 0.0,
			"0.025": 0.0
		}
	}
}
