{
	 "smiles": "COC(=O)NC1=NC2=C(N1)C=CC(=C2)C(=O)C1CC1", 
	 "Tm": 523.15, 
	 "num_atms": 32, 
	 "gaussian": { 
		 "optdone": 1, 
		 "sigma_profile": "yes", 
		 "theory": "DFT", 
		 "functional": "B3LYP", 
		 "basiset": "6-31G**", 
		 "properties": { 
			 "R2extent": 8697.2988, 
			 "electric_dipole_moment_norm": 5.87827344464, 
			 "electric_quadrupole_moment_norm": 31.5460239932, 
			 "total_energy": -893.161363184, 
			 "HOMO_LUMO_gap": 0.17906, 
			 "cosmo_polarized_energy": -18.72, 
			 "cosmo_cavitation_energy": 36.9, 
			 "cosmo_dispersion_energy": -27.46, 
			 "cosmo_repulsion_energy": 2.09, 
			 "cosmo_total_nonelectrostatic_energy": 11.53, 
			 "SMD_solvation_energy": 5.58 
		},
		"coords": [
			{
				"x": -2.4836125041,
				"y": 2.6012283937,
				"z": 5.6318692319,
				"element": "C" 
			},
			{
				"x": -1.3091731003,
				"y": 2.0494731121,
				"z": 5.0111146868,
				"element": "O" 
			},
			{
				"x": -1.4850567467,
				"y": 1.6054851033,
				"z": 3.7525061899,
				"element": "C" 
			},
			{
				"x": -2.5392240979,
				"y": 1.6435426801,
				"z": 3.1364100033,
				"element": "O" 
			},
			{
				"x": -0.3031160845,
				"y": 1.104287137,
				"z": 3.2662231147,
				"element": "N" 
			},
			{
				"x": -0.1243014901,
				"y": 0.5643796976,
				"z": 2.0007939318,
				"element": "C" 
			},
			{
				"x": 1.0239659162,
				"y": 0.0992783057,
				"z": 1.5828352711,
				"element": "N" 
			},
			{
				"x": 0.755401215,
				"y": -0.3347091328,
				"z": 0.2870601552,
				"element": "C" 
			},
			{
				"x": -0.6070640791,
				"y": -0.1031249048,
				"z": -0.0401556139,
				"element": "C" 
			},
			{
				"x": -1.1498574308,
				"y": 0.4803223456,
				"z": 1.0912380421,
				"element": "N" 
			},
			{
				"x": -1.1456904249,
				"y": -0.4448797805,
				"z": -1.2789879925,
				"element": "C" 
			},
			{
				"x": -0.2823585355,
				"y": -1.0273732487,
				"z": -2.203299535,
				"element": "C" 
			},
			{
				"x": 1.0799167458,
				"y": -1.2696390751,
				"z": -1.9063398203,
				"element": "C" 
			},
			{
				"x": 1.5997254453,
				"y": -0.9231039767,
				"z": -0.6493215878,
				"element": "C" 
			},
			{
				"x": 2.0294507911,
				"y": -1.9013568221,
				"z": -2.8772169038,
				"element": "C" 
			},
			{
				"x": 3.1769510542,
				"y": -2.1745294141,
				"z": -2.5332408124,
				"element": "O" 
			},
			{
				"x": 1.5906878024,
				"y": -2.2021052209,
				"z": -4.27650812,
				"element": "C" 
			},
			{
				"x": 2.6647254278,
				"y": -2.1443785162,
				"z": -5.354762791,
				"element": "C" 
			},
			{
				"x": 2.1500282936,
				"y": -3.4704640232,
				"z": -4.911420207,
				"element": "C" 
			},
			{
				"x": -2.8491074618,
				"y": 3.461008132,
				"z": 5.0658061619,
				"element": "H" 
			},
			{
				"x": -3.2741992222,
				"y": 1.8499667641,
				"z": 5.6936109915,
				"element": "H" 
			},
			{
				"x": -2.1659956472,
				"y": 2.9057670061,
				"z": 6.6284311868,
				"element": "H" 
			},
			{
				"x": 0.5180771275,
				"y": 1.1171059465,
				"z": 3.8553331283,
				"element": "H" 
			},
			{
				"x": -2.0891783576,
				"y": 0.8034060142,
				"z": 1.2852964128,
				"element": "H" 
			},
			{
				"x": -2.1894724275,
				"y": -0.2690949866,
				"z": -1.5192115911,
				"element": "H" 
			},
			{
				"x": -0.6855375957,
				"y": -1.307261323,
				"z": -3.1692179748,
				"element": "H" 
			},
			{
				"x": 2.6433700938,
				"y": -1.1194336103,
				"z": -0.4334830636,
				"element": "H" 
			},
			{
				"x": 0.5925438468,
				"y": -1.9098501355,
				"z": -4.5775293239,
				"element": "H" 
			},
			{
				"x": 3.6521293683,
				"y": -1.8542361885,
				"z": -5.0115391093,
				"element": "H" 
			},
			{
				"x": 2.3688518711,
				"y": -1.761412994,
				"z": -6.3264444267,
				"element": "H" 
			},
			{
				"x": 1.4895754327,
				"y": -4.0286004316,
				"z": -5.5677542876,
				"element": "H" 
			},
			{
				"x": 2.7941447742,
				"y": -4.0660968531,
				"z": -4.2729953476,
				"element": "H" 
			}
		],
		 "valence_orbital": [ 
			{
				"type": "occ",
				"energy": -0.28323,
				"method": "rhf"
			},
			{
				"type": "occ",
				"energy": -0.28093,
				"method": "rhf"
			},
			{
				"type": "occ",
				"energy": -0.23698,
				"method": "rhf"
			},
			{
				"type": "occ",
				"energy": -0.22958,
				"method": "rhf"
			},
			{
				"type": "occ",
				"energy": -0.21853,
				"method": "rhf"
			},
			{
				"type": "unocc",
				"energy": -0.03947,
				"method": "rhf"
			},
			{
				"type": "unocc",
				"energy": -0.01625,
				"method": "rhf"
			},
			{
				"type": "unocc",
				"energy": 0.02183,
				"method": "rhf"
			},
			{
				"type": "unocc",
				"energy": 0.06096,
				"method": "rhf"
			},
			{
				"type": "unocc",
				"energy": 0.0787,
				"method": "rhf"
			}
		],
		"cosmo_sigma_profile": { 
			"-0.025": 0.0,
			"-0.024": 0.0,
			"-0.023": 0.0,
			"-0.022": 0.0,
			"-0.021": 0.0,
			"-0.02": 0.0,
			"-0.019": 0.0,
			"-0.018": 0.0,
			"-0.017": 0.234592829794,
			"-0.016": 0.7586745645,
			"-0.015": 1.10443950842,
			"-0.014": 1.40211124408,
			"-0.013": 1.27736670164,
			"-0.012": 1.09010171517,
			"-0.011": 1.33136441233,
			"-0.01": 2.08441590658,
			"-0.009": 1.82211826305,
			"-0.008": 4.2108218358,
			"-0.007": 7.98516709985,
			"-0.006": 12.6932614575,
			"-0.005": 19.4188645042,
			"-0.004": 25.8750664412,
			"-0.003": 24.9910690307,
			"-0.002": 18.3592430344,
			"-0.001": 22.1110736911,
			"0.0": 21.2273191327,
			"0.001": 19.5912553024,
			"0.002": 18.8899259044,
			"0.003": 20.256315625,
			"0.004": 18.7478308835,
			"0.005": 9.2178663266,
			"0.006": 6.0590458662,
			"0.007": 5.33877550783,
			"0.008": 3.4791159314,
			"0.009": 3.90967403768,
			"0.01": 5.04380549161,
			"0.011": 4.29871828365,
			"0.012": 5.21478652421,
			"0.013": 4.04619590553,
			"0.014": 1.29620052432,
			"0.015": 0.731030776395,
			"0.016": 0.703814610052,
			"0.017": 0.126413054119,
			"0.018": 0.0,
			"0.019": 0.0,
			"0.02": 0.0,
			"0.021": 0.0,
			"0.022": 0.0,
			"0.023": 0.0,
			"0.024": 0.0,
			"0.025": 0.0
		}
	}
}
