{
	 "smiles": "NC1=CC(F)=CC(O)=C1", 
	 "Tm": 433.15, 
	 "num_atms": 15, 
	 "gaussian": { 
		 "optdone": 1, 
		 "sigma_profile": "yes", 
		 "theory": "DFT", 
		 "functional": "B3LYP", 
		 "basiset": "6-31G**", 
		 "properties": { 
			 "R2extent": 1614.7759, 
			 "electric_dipole_moment_norm": 3.86550070495, 
			 "electric_quadrupole_moment_norm": 7.91919687216, 
			 "total_energy": -462.06185568, 
			 "HOMO_LUMO_gap": 0.22105, 
			 "cosmo_polarized_energy": -12.85, 
			 "cosmo_cavitation_energy": 19.63, 
			 "cosmo_dispersion_energy": -14.7, 
			 "cosmo_repulsion_energy": 1.19, 
			 "cosmo_total_nonelectrostatic_energy": 6.13, 
			 "SMD_solvation_energy": 4.26 
		},
		"coords": [
			{
				"x": -1.4912824898,
				"y": 0.7511276895,
				"z": -1.4702958949,
				"element": "N" 
			},
			{
				"x": -1.0656185722,
				"y": 0.465716584,
				"z": -0.1742020701,
				"element": "C" 
			},
			{
				"x": -0.2964629399,
				"y": -0.6807538972,
				"z": 0.0825225004,
				"element": "C" 
			},
			{
				"x": 0.0566161533,
				"y": -0.9586643044,
				"z": 1.3964266771,
				"element": "C" 
			},
			{
				"x": 0.7982345926,
				"y": -2.0624972756,
				"z": 1.6339896267,
				"element": "F" 
			},
			{
				"x": -0.3051946794,
				"y": -0.1652736352,
				"z": 2.4750273189,
				"element": "C" 
			},
			{
				"x": -1.071328172,
				"y": 0.9730544306,
				"z": 2.2016563533,
				"element": "C" 
			},
			{
				"x": -1.4234896858,
				"y": 1.7496897068,
				"z": 3.2677540712,
				"element": "O" 
			},
			{
				"x": -1.4495910362,
				"y": 1.2931251455,
				"z": 0.8954717559,
				"element": "C" 
			},
			{
				"x": -1.7084873791,
				"y": 1.7209842158,
				"z": -1.652098714,
				"element": "H" 
			},
			{
				"x": -0.9326191579,
				"y": 0.3429847241,
				"z": -2.206605728,
				"element": "H" 
			},
			{
				"x": 0.0163815433,
				"y": -1.3476778861,
				"z": -0.7131912109,
				"element": "H" 
			},
			{
				"x": -0.0098683167,
				"y": -0.4138093725,
				"z": 3.4860723533,
				"element": "H" 
			},
			{
				"x": -1.9576005189,
				"y": 2.4913457675,
				"z": 2.9556011281,
				"element": "H" 
			},
			{
				"x": -2.0513893413,
				"y": 2.1792481073,
				"z": 0.7039718331,
				"element": "H" 
			}
		],
		 "valence_orbital": [ 
			{
				"type": "occ",
				"energy": -0.36057,
				"method": "rhf"
			},
			{
				"type": "occ",
				"energy": -0.35295,
				"method": "rhf"
			},
			{
				"type": "occ",
				"energy": -0.28531,
				"method": "rhf"
			},
			{
				"type": "occ",
				"energy": -0.22457,
				"method": "rhf"
			},
			{
				"type": "occ",
				"energy": -0.20491,
				"method": "rhf"
			},
			{
				"type": "unocc",
				"energy": 0.01614,
				"method": "rhf"
			},
			{
				"type": "unocc",
				"energy": 0.01954,
				"method": "rhf"
			},
			{
				"type": "unocc",
				"energy": 0.06954,
				"method": "rhf"
			},
			{
				"type": "unocc",
				"energy": 0.07648,
				"method": "rhf"
			},
			{
				"type": "unocc",
				"energy": 0.10617,
				"method": "rhf"
			}
		],
		"cosmo_sigma_profile": { 
			"-0.025": 0.0,
			"-0.024": 0.0,
			"-0.023": 0.0,
			"-0.022": 0.0,
			"-0.021": 0.0,
			"-0.02": 0.0,
			"-0.019": 0.0,
			"-0.018": 0.243950589173,
			"-0.017": 1.12112259705,
			"-0.016": 1.01508037281,
			"-0.015": 1.16564887269,
			"-0.014": 0.683083463142,
			"-0.013": 2.16307885685,
			"-0.012": 3.48863730856,
			"-0.011": 3.92185539143,
			"-0.01": 4.03123334688,
			"-0.009": 4.44444223806,
			"-0.008": 3.76408483579,
			"-0.007": 5.7062606866,
			"-0.006": 6.09209180529,
			"-0.005": 4.73139184917,
			"-0.004": 3.92155308454,
			"-0.003": 5.17490046259,
			"-0.002": 3.78492954378,
			"-0.001": 5.05144090894,
			"0.0": 5.67536267275,
			"0.001": 5.89520434677,
			"0.002": 9.82480913773,
			"0.003": 12.0887983325,
			"0.004": 17.4889126801,
			"0.005": 23.8400076496,
			"0.006": 5.73859998491,
			"0.007": 2.86353557208,
			"0.008": 2.06275150739,
			"0.009": 2.42216856926,
			"0.01": 2.02555999989,
			"0.011": 2.99593058053,
			"0.012": 1.47805928767,
			"0.013": 0.54474907549,
			"0.014": 0.461261815683,
			"0.015": 0.0643712932423,
			"0.016": 0.0,
			"0.017": 0.0,
			"0.018": 0.0,
			"0.019": 0.0,
			"0.02": 0.0,
			"0.021": 0.0,
			"0.022": 0.0,
			"0.023": 0.0,
			"0.024": 0.0,
			"0.025": 0.0
		}
	}
}
