{
	 "smiles": "COC1=CC2=C(C=C1)N=C(N2)SC1=C(C=CC=N1)C(O)=O", 
	 "Tm": 493.15, 
	 "num_atms": 32, 
	 "gaussian": { 
		 "optdone": 1, 
		 "sigma_profile": "yes", 
		 "theory": "DFT", 
		 "functional": "B3LYP", 
		 "basiset": "6-31G**", 
		 "properties": { 
			 "R2extent": 9780.0634, 
			 "electric_dipole_moment_norm": 7.79756654092, 
			 "electric_quadrupole_moment_norm": 25.2123044609, 
			 "total_energy": -1328.23692075, 
			 "HOMO_LUMO_gap": 0.11147, 
			 "cosmo_polarized_energy": -22.01, 
			 "cosmo_cavitation_energy": 38.62, 
			 "cosmo_dispersion_energy": -29.3, 
			 "cosmo_repulsion_energy": 2.16, 
			 "cosmo_total_nonelectrostatic_energy": 11.49, 
			 "SMD_solvation_energy": 5.54 
		},
		"coords": [
			{
				"x": 0.0568277281,
				"y": -0.2745835028,
				"z": -5.3839605687,
				"element": "C" 
			},
			{
				"x": 0.0782716019,
				"y": -1.6200185282,
				"z": -4.9462643254,
				"element": "O" 
			},
			{
				"x": 0.0891712537,
				"y": -1.8601725608,
				"z": -3.5979113622,
				"element": "C" 
			},
			{
				"x": 0.0810487055,
				"y": -0.8577575215,
				"z": -2.6263041515,
				"element": "C" 
			},
			{
				"x": 0.0943663799,
				"y": -1.2884905193,
				"z": -1.2940693197,
				"element": "C" 
			},
			{
				"x": 0.114966174,
				"y": -2.6516270129,
				"z": -0.9200651882,
				"element": "C" 
			},
			{
				"x": 0.1227152455,
				"y": -3.6365594049,
				"z": -1.9195508349,
				"element": "C" 
			},
			{
				"x": 0.1097746366,
				"y": -3.2316087725,
				"z": -3.244161103,
				"element": "C" 
			},
			{
				"x": 0.1244968652,
				"y": -2.7759527145,
				"z": 0.4617011058,
				"element": "N" 
			},
			{
				"x": 0.1101921269,
				"y": -1.5392490559,
				"z": 0.8968869196,
				"element": "C" 
			},
			{
				"x": 0.0916554099,
				"y": -0.5946503393,
				"z": -0.0993788886,
				"element": "N" 
			},
			{
				"x": 0.1165299581,
				"y": -1.2968196496,
				"z": 2.659755106,
				"element": "S" 
			},
			{
				"x": 0.0956349452,
				"y": 0.4641822085,
				"z": 2.9237818663,
				"element": "C" 
			},
			{
				"x": 0.0965347197,
				"y": 0.9761997677,
				"z": 4.2552969742,
				"element": "C" 
			},
			{
				"x": 0.0799058933,
				"y": 2.3639310097,
				"z": 4.428209154,
				"element": "C" 
			},
			{
				"x": 0.063054834,
				"y": 3.2100644537,
				"z": 3.3251728609,
				"element": "C" 
			},
			{
				"x": 0.0635433334,
				"y": 2.6183502243,
				"z": 2.0668453438,
				"element": "C" 
			},
			{
				"x": 0.0791988478,
				"y": 1.2959043905,
				"z": 1.8693580765,
				"element": "N" 
			},
			{
				"x": 0.1143670058,
				"y": 0.0856657413,
				"z": 5.4385818987,
				"element": "C" 
			},
			{
				"x": 0.1124855983,
				"y": 0.7636131834,
				"z": 6.6131681704,
				"element": "O" 
			},
			{
				"x": 0.1293546755,
				"y": -1.129134919,
				"z": 5.3974527753,
				"element": "O" 
			},
			{
				"x": -0.8421198033,
				"y": 0.2524427934,
				"z": -5.0359999032,
				"element": "H" 
			},
			{
				"x": 0.0507819671,
				"y": -0.3091174784,
				"z": -6.4748227341,
				"element": "H" 
			},
			{
				"x": 0.9447742175,
				"y": 0.2774802293,
				"z": -5.046728994,
				"element": "H" 
			},
			{
				"x": 0.0653342652,
				"y": 0.1948912074,
				"z": -2.8798803227,
				"element": "H" 
			},
			{
				"x": 0.1384796568,
				"y": -4.6882202427,
				"z": -1.6530265391,
				"element": "H" 
			},
			{
				"x": 0.1150261153,
				"y": -3.95538612,
				"z": -4.0521983544,
				"element": "H" 
			},
			{
				"x": 0.07990145,
				"y": 0.3977327447,
				"z": 0.1120668288,
				"element": "H" 
			},
			{
				"x": 0.0804600018,
				"y": 2.7620830965,
				"z": 5.4360566684,
				"element": "H" 
			},
			{
				"x": 0.0499913036,
				"y": 4.2884078227,
				"z": 3.4345712536,
				"element": "H" 
			},
			{
				"x": 0.0507770931,
				"y": 3.2286452041,
				"z": 1.1660106813,
				"element": "H" 
			},
			{
				"x": 0.1248977946,
				"y": 0.0859542653,
				"z": 7.3089069061,
				"element": "H" 
			}
		],
		 "valence_orbital": [ 
			{
				"type": "occ",
				"energy": -0.28901,
				"method": "rhf"
			},
			{
				"type": "occ",
				"energy": -0.26495,
				"method": "rhf"
			},
			{
				"type": "occ",
				"energy": -0.24826,
				"method": "rhf"
			},
			{
				"type": "occ",
				"energy": -0.21932,
				"method": "rhf"
			},
			{
				"type": "occ",
				"energy": -0.18847,
				"method": "rhf"
			},
			{
				"type": "unocc",
				"energy": -0.077,
				"method": "rhf"
			},
			{
				"type": "unocc",
				"energy": -0.04941,
				"method": "rhf"
			},
			{
				"type": "unocc",
				"energy": 0.0034,
				"method": "rhf"
			},
			{
				"type": "unocc",
				"energy": 0.02893,
				"method": "rhf"
			},
			{
				"type": "unocc",
				"energy": 0.03596,
				"method": "rhf"
			}
		],
		"cosmo_sigma_profile": { 
			"-0.025": 0.0,
			"-0.024": 0.0,
			"-0.023": 0.0,
			"-0.022": 0.0,
			"-0.021": 0.0,
			"-0.02": 0.0,
			"-0.019": 0.343138602597,
			"-0.018": 0.920664821279,
			"-0.017": 1.11959944113,
			"-0.016": 0.909131807407,
			"-0.015": 0.492845895812,
			"-0.014": 0.568662775103,
			"-0.013": 0.485631714712,
			"-0.012": 1.05018636534,
			"-0.011": 1.54585198406,
			"-0.01": 1.92901516465,
			"-0.009": 1.35218531503,
			"-0.008": 7.61337058247,
			"-0.007": 11.8912225993,
			"-0.006": 14.3110226283,
			"-0.005": 18.5179412395,
			"-0.004": 19.4243091685,
			"-0.003": 23.5022762236,
			"-0.002": 23.0566041434,
			"-0.001": 24.9892429266,
			"0.0": 22.1486514994,
			"0.001": 18.2690157517,
			"0.002": 16.2362311275,
			"0.003": 16.2103678684,
			"0.004": 19.7040844608,
			"0.005": 22.0545082517,
			"0.006": 10.584517669,
			"0.007": 6.67298131552,
			"0.008": 4.83916965937,
			"0.009": 5.62977599556,
			"0.01": 5.54344312889,
			"0.011": 4.71508468396,
			"0.012": 1.36231146859,
			"0.013": 1.50484733883,
			"0.014": 0.73599240457,
			"0.015": 1.23291643684,
			"0.016": 0.624072027441,
			"0.017": 0.480910270144,
			"0.018": 0.0,
			"0.019": 0.0,
			"0.02": 0.0,
			"0.021": 0.0,
			"0.022": 0.0,
			"0.023": 0.0,
			"0.024": 0.0,
			"0.025": 0.0
		}
	}
}
