{
	 "smiles": "CC1=C(F)C=C(C=C1)C(=O)CC#N", 
	 "Tm": 356.15, 
	 "num_atms": 21, 
	 "gaussian": { 
		 "optdone": 1, 
		 "sigma_profile": "yes", 
		 "theory": "DFT", 
		 "functional": "B3LYP", 
		 "basiset": "6-31G**", 
		 "properties": { 
			 "R2extent": 3013.6948, 
			 "electric_dipole_moment_norm": 3.86023594227, 
			 "electric_quadrupole_moment_norm": 14.688404974, 
			 "total_energy": -615.680720225, 
			 "HOMO_LUMO_gap": 0.18311, 
			 "cosmo_polarized_energy": -12.48, 
			 "cosmo_cavitation_energy": 27.06, 
			 "cosmo_dispersion_energy": -18.69, 
			 "cosmo_repulsion_energy": 1.46, 
			 "cosmo_total_nonelectrostatic_energy": 9.82, 
			 "SMD_solvation_energy": 7.04 
		},
		"coords": [
			{
				"x": 1.1520520258,
				"y": 0.0671540751,
				"z": 2.7849406564,
				"element": "C" 
			},
			{
				"x": 0.5404267165,
				"y": 0.1460181711,
				"z": 1.4125675645,
				"element": "C" 
			},
			{
				"x": 0.2149880666,
				"y": 1.3902799367,
				"z": 0.8557988861,
				"element": "C" 
			},
			{
				"x": 0.4663292163,
				"y": 2.4950570481,
				"z": 1.5919742267,
				"element": "F" 
			},
			{
				"x": -0.3460337582,
				"y": 1.5347917355,
				"z": -0.3977618841,
				"element": "C" 
			},
			{
				"x": -0.6076144854,
				"y": 0.3864614653,
				"z": -1.164719921,
				"element": "C" 
			},
			{
				"x": -0.2949439489,
				"y": -0.8751475431,
				"z": -0.63787978,
				"element": "C" 
			},
			{
				"x": 0.2706615492,
				"y": -0.9835509119,
				"z": 0.6323684027,
				"element": "C" 
			},
			{
				"x": -1.2258782902,
				"y": 0.5863023261,
				"z": -2.5037421364,
				"element": "C" 
			},
			{
				"x": -1.5262561837,
				"y": 1.6888667494,
				"z": -2.922753861,
				"element": "O" 
			},
			{
				"x": -1.546387465,
				"y": -0.6472738677,
				"z": -3.3874340137,
				"element": "C" 
			},
			{
				"x": -0.3667640517,
				"y": -1.40222236,
				"z": -3.8081648709,
				"element": "C" 
			},
			{
				"x": 0.5748945841,
				"y": -1.9954800791,
				"z": -4.1382535755,
				"element": "N" 
			},
			{
				"x": 0.4956155897,
				"y": 0.5208685283,
				"z": 3.5351855424,
				"element": "H" 
			},
			{
				"x": 1.3400862019,
				"y": -0.969777193,
				"z": 3.0718262395,
				"element": "H" 
			},
			{
				"x": 2.1000983082,
				"y": 0.6142388019,
				"z": 2.8244238499,
				"element": "H" 
			},
			{
				"x": -0.5839935132,
				"y": 2.5164882318,
				"z": -0.7902616723,
				"element": "H" 
			},
			{
				"x": -0.4734009822,
				"y": -1.7781220172,
				"z": -1.2105882018,
				"element": "H" 
			},
			{
				"x": 0.5127995542,
				"y": -1.9651658688,
				"z": 1.0293282862,
				"element": "H" 
			},
			{
				"x": -2.2261716357,
				"y": -1.3207320605,
				"z": -2.8512882312,
				"element": "H" 
			},
			{
				"x": -2.0689074981,
				"y": -0.2669551681,
				"z": -4.2687655063,
				"element": "H" 
			}
		],
		 "valence_orbital": [ 
			{
				"type": "occ",
				"energy": -0.34377,
				"method": "rhf"
			},
			{
				"type": "occ",
				"energy": -0.33376,
				"method": "rhf"
			},
			{
				"type": "occ",
				"energy": -0.27428,
				"method": "rhf"
			},
			{
				"type": "occ",
				"energy": -0.27238,
				"method": "rhf"
			},
			{
				"type": "occ",
				"energy": -0.26173,
				"method": "rhf"
			},
			{
				"type": "unocc",
				"energy": -0.07862,
				"method": "rhf"
			},
			{
				"type": "unocc",
				"energy": -0.01979,
				"method": "rhf"
			},
			{
				"type": "unocc",
				"energy": 0.01343,
				"method": "rhf"
			},
			{
				"type": "unocc",
				"energy": 0.02695,
				"method": "rhf"
			},
			{
				"type": "unocc",
				"energy": 0.0377,
				"method": "rhf"
			}
		],
		"cosmo_sigma_profile": { 
			"-0.025": 0.0,
			"-0.024": 0.0,
			"-0.023": 0.0,
			"-0.022": 0.0,
			"-0.021": 0.0,
			"-0.02": 0.0,
			"-0.019": 0.0,
			"-0.018": 0.0,
			"-0.017": 0.0,
			"-0.016": 0.0,
			"-0.015": 0.0,
			"-0.014": 0.0,
			"-0.013": 0.0,
			"-0.012": 0.0,
			"-0.011": 1.05779061592,
			"-0.01": 4.50603383049,
			"-0.009": 5.21759824191,
			"-0.008": 4.92835897669,
			"-0.007": 7.66237000275,
			"-0.006": 11.1487919647,
			"-0.005": 13.0612334407,
			"-0.004": 12.6671116768,
			"-0.003": 12.5488714255,
			"-0.002": 13.1556213044,
			"-0.001": 18.5682863013,
			"0.0": 19.5471865864,
			"0.001": 16.717374744,
			"0.002": 15.2262404467,
			"0.003": 10.9439722982,
			"0.004": 12.2627085727,
			"0.005": 4.53401926922,
			"0.006": 3.1814935295,
			"0.007": 4.6860773788,
			"0.008": 4.97795935183,
			"0.009": 5.31824072066,
			"0.01": 6.60618974043,
			"0.011": 5.20989114757,
			"0.012": 2.55248954025,
			"0.013": 1.13824436458,
			"0.014": 0.00767566999852,
			"0.015": 0.0,
			"0.016": 0.0,
			"0.017": 0.0,
			"0.018": 0.0,
			"0.019": 0.0,
			"0.02": 0.0,
			"0.021": 0.0,
			"0.022": 0.0,
			"0.023": 0.0,
			"0.024": 0.0,
			"0.025": 0.0
		}
	}
}
