{
	 "smiles": "CC1CCC(C)(COC(=O)C2=CC=CC=C2C(=O)OCC2(C)CCC(C)C2(C)C)C1(C)C", 
	 "Tm": 353.15, 
	 "num_atms": 74, 
	 "gaussian": { 
		 "optdone": 1, 
		 "sigma_profile": "yes", 
		 "theory": "DFT", 
		 "functional": "B3LYP", 
		 "basiset": "6-31G**", 
		 "properties": { 
			 "R2extent": 17249.775, 
			 "electric_dipole_moment_norm": 3.67083823125, 
			 "electric_quadrupole_moment_norm": 21.3532704622, 
			 "total_energy": -1393.23805667, 
			 "HOMO_LUMO_gap": 0.2018, 
			 "cosmo_polarized_energy": -12.46, 
			 "cosmo_cavitation_energy": 67.52, 
			 "cosmo_dispersion_energy": -41.34, 
			 "cosmo_repulsion_energy": 3.03, 
			 "cosmo_total_nonelectrostatic_energy": 29.22, 
			 "SMD_solvation_energy": 11.49 
		},
		"coords": [
			{
				"x": 2.7699889,
				"y": -4.0514309287,
				"z": -4.0646475903,
				"element": "C" 
			},
			{
				"x": 2.5181275357,
				"y": -2.5399707673,
				"z": -4.1476850089,
				"element": "C" 
			},
			{
				"x": 3.6159539938,
				"y": -1.7296241097,
				"z": -3.404635316,
				"element": "C" 
			},
			{
				"x": 2.8896138729,
				"y": -0.5605435639,
				"z": -2.7269825548,
				"element": "C" 
			},
			{
				"x": 1.5137148761,
				"y": -1.1438988483,
				"z": -2.3270463037,
				"element": "C" 
			},
			{
				"x": 1.6647677621,
				"y": -2.0179136528,
				"z": -1.0614662039,
				"element": "C" 
			},
			{
				"x": 0.4864524173,
				"y": -0.0445564966,
				"z": -2.0408360171,
				"element": "C" 
			},
			{
				"x": 0.9197359963,
				"y": 0.6956616692,
				"z": -0.8715179607,
				"element": "O" 
			},
			{
				"x": 0.1129061445,
				"y": 1.7046280855,
				"z": -0.482935628,
				"element": "C" 
			},
			{
				"x": -0.9316120857,
				"y": 1.9799980881,
				"z": -1.041714007,
				"element": "O" 
			},
			{
				"x": 0.6723606315,
				"y": 2.4558679271,
				"z": 0.6830214316,
				"element": "C" 
			},
			{
				"x": 2.052848782,
				"y": 2.4583207224,
				"z": 0.9238012052,
				"element": "C" 
			},
			{
				"x": 2.5975161561,
				"y": 3.2498927299,
				"z": 1.933308687,
				"element": "C" 
			},
			{
				"x": 1.7654317125,
				"y": 4.0603661865,
				"z": 2.7063204344,
				"element": "C" 
			},
			{
				"x": 0.3901748326,
				"y": 4.0656962011,
				"z": 2.4750424589,
				"element": "C" 
			},
			{
				"x": -0.1688857355,
				"y": 3.2555124808,
				"z": 1.4825659689,
				"element": "C" 
			},
			{
				"x": -1.6640834746,
				"y": 3.2954466164,
				"z": 1.3358446666,
				"element": "C" 
			},
			{
				"x": -2.2947154561,
				"y": 4.3209091052,
				"z": 1.19473688,
				"element": "O" 
			},
			{
				"x": -2.2166481517,
				"y": 2.0741196475,
				"z": 1.4799481634,
				"element": "O" 
			},
			{
				"x": -3.637416438,
				"y": 2.0038892709,
				"z": 1.214691825,
				"element": "C" 
			},
			{
				"x": -4.2103087122,
				"y": 0.5941756913,
				"z": 1.4486780668,
				"element": "C" 
			},
			{
				"x": -5.6900619834,
				"y": 0.7295189102,
				"z": 1.0279696243,
				"element": "C" 
			},
			{
				"x": -3.4818287101,
				"y": -0.4611206912,
				"z": 0.5798090535,
				"element": "C" 
			},
			{
				"x": -2.2596207514,
				"y": -0.9081404025,
				"z": 1.394212313,
				"element": "C" 
			},
			{
				"x": -2.6649373412,
				"y": -0.7926864011,
				"z": 2.8881663067,
				"element": "C" 
			},
			{
				"x": -1.5029695231,
				"y": -0.2962346123,
				"z": 3.7578356157,
				"element": "C" 
			},
			{
				"x": -4.0110227058,
				"y": 0.0499209474,
				"z": 2.9310423402,
				"element": "C" 
			},
			{
				"x": -5.1451192674,
				"y": -0.9305806313,
				"z": 3.3143595852,
				"element": "C" 
			},
			{
				"x": -4.0202893838,
				"y": 1.1741332778,
				"z": 3.9826669534,
				"element": "C" 
			},
			{
				"x": 1.1230268636,
				"y": -2.00924769,
				"z": -3.6013920523,
				"element": "C" 
			},
			{
				"x": 0.1092062782,
				"y": -3.1237622938,
				"z": -3.283990526,
				"element": "C" 
			},
			{
				"x": 0.4917486985,
				"y": -1.1337086588,
				"z": -4.7118559144,
				"element": "C" 
			},
			{
				"x": 2.0289008353,
				"y": -4.6284197842,
				"z": -4.6266508946,
				"element": "H" 
			},
			{
				"x": 2.7645622617,
				"y": -4.4148415697,
				"z": -3.0312739429,
				"element": "H" 
			},
			{
				"x": 3.7542942365,
				"y": -4.2861656417,
				"z": -4.4854157895,
				"element": "H" 
			},
			{
				"x": 2.5599054649,
				"y": -2.2776619383,
				"z": -5.2119197012,
				"element": "H" 
			},
			{
				"x": 4.4102811621,
				"y": -1.3958764275,
				"z": -4.0802098543,
				"element": "H" 
			},
			{
				"x": 4.0981710098,
				"y": -2.3603089307,
				"z": -2.6481677439,
				"element": "H" 
			},
			{
				"x": 2.7528266081,
				"y": 0.2664934317,
				"z": -3.4347492571,
				"element": "H" 
			},
			{
				"x": 3.4360968383,
				"y": -0.1567178878,
				"z": -1.8690479141,
				"element": "H" 
			},
			{
				"x": 2.3344883047,
				"y": -2.8657943498,
				"z": -1.2261287461,
				"element": "H" 
			},
			{
				"x": 0.7010881269,
				"y": -2.4156153282,
				"z": -0.7292352575,
				"element": "H" 
			},
			{
				"x": 2.0723272846,
				"y": -1.4216906506,
				"z": -0.2413084626,
				"element": "H" 
			},
			{
				"x": -0.507442467,
				"y": -0.4566872364,
				"z": -1.8361029544,
				"element": "H" 
			},
			{
				"x": 0.3912809848,
				"y": 0.6629997864,
				"z": -2.8669993319,
				"element": "H" 
			},
			{
				"x": 2.6944677455,
				"y": 1.8476215789,
				"z": 0.299496226,
				"element": "H" 
			},
			{
				"x": 3.6695149203,
				"y": 3.2432792121,
				"z": 2.1060014461,
				"element": "H" 
			},
			{
				"x": 2.1844740258,
				"y": 4.6891083491,
				"z": 3.4862983057,
				"element": "H" 
			},
			{
				"x": -0.2664809951,
				"y": 4.6955120036,
				"z": 3.0664472609,
				"element": "H" 
			},
			{
				"x": -4.1437270313,
				"y": 2.7490359461,
				"z": 1.8335047181,
				"element": "H" 
			},
			{
				"x": -3.7820039549,
				"y": 2.289957315,
				"z": 0.1679980225,
				"element": "H" 
			},
			{
				"x": -5.7633540786,
				"y": 1.120003158,
				"z": 0.0068328197,
				"element": "H" 
			},
			{
				"x": -6.2416085655,
				"y": 1.4155404453,
				"z": 1.6810940774,
				"element": "H" 
			},
			{
				"x": -6.2026645231,
				"y": -0.2341297202,
				"z": 1.0430821999,
				"element": "H" 
			},
			{
				"x": -4.156720256,
				"y": -1.3097592045,
				"z": 0.4111211041,
				"element": "H" 
			},
			{
				"x": -3.2122432113,
				"y": -0.0648192344,
				"z": -0.405412178,
				"element": "H" 
			},
			{
				"x": -1.4145761738,
				"y": -0.2462333199,
				"z": 1.1909683205,
				"element": "H" 
			},
			{
				"x": -1.9414160452,
				"y": -1.9251490222,
				"z": 1.1381591253,
				"element": "H" 
			},
			{
				"x": -2.9155017086,
				"y": -1.7974847143,
				"z": 3.2509462855,
				"element": "H" 
			},
			{
				"x": -0.6486459256,
				"y": -0.9754276185,
				"z": 3.6552904863,
				"element": "H" 
			},
			{
				"x": -1.1699589154,
				"y": 0.6996406483,
				"z": 3.4534843055,
				"element": "H" 
			},
			{
				"x": -1.7650208189,
				"y": -0.262491029,
				"z": 4.8205974146,
				"element": "H" 
			},
			{
				"x": -5.2431151765,
				"y": -1.7518439181,
				"z": 2.5960812618,
				"element": "H" 
			},
			{
				"x": -6.1167784931,
				"y": -0.4333002703,
				"z": 3.3952483402,
				"element": "H" 
			},
			{
				"x": -4.9249183004,
				"y": -1.3781321588,
				"z": 4.2899048311,
				"element": "H" 
			},
			{
				"x": -4.9584806188,
				"y": 1.7395684193,
				"z": 3.934773949,
				"element": "H" 
			},
			{
				"x": -3.1962440728,
				"y": 1.8790988809,
				"z": 3.8581833048,
				"element": "H" 
			},
			{
				"x": -3.9507620828,
				"y": 0.7583410952,
				"z": 4.993448349,
				"element": "H" 
			},
			{
				"x": -0.8103362919,
				"y": -2.7034190389,
				"z": -2.8608087419,
				"element": "H" 
			},
			{
				"x": -0.1743900485,
				"y": -3.6563848666,
				"z": -4.1980263889,
				"element": "H" 
			},
			{
				"x": 0.4899758187,
				"y": -3.8638054651,
				"z": -2.5776990189,
				"element": "H" 
			},
			{
				"x": -0.4948587926,
				"y": -0.750288507,
				"z": -4.4311461308,
				"element": "H" 
			},
			{
				"x": 1.1224154705,
				"y": -0.2806745398,
				"z": -4.9827174439,
				"element": "H" 
			},
			{
				"x": 0.3566217154,
				"y": -1.7356157067,
				"z": -5.6170588982,
				"element": "H" 
			}
		],
		 "valence_orbital": [ 
			{
				"type": "occ",
				"energy": -0.28412,
				"method": "rhf"
			},
			{
				"type": "occ",
				"energy": -0.2779,
				"method": "rhf"
			},
			{
				"type": "occ",
				"energy": -0.27482,
				"method": "rhf"
			},
			{
				"type": "occ",
				"energy": -0.26438,
				"method": "rhf"
			},
			{
				"type": "occ",
				"energy": -0.25454,
				"method": "rhf"
			},
			{
				"type": "unocc",
				"energy": -0.05274,
				"method": "rhf"
			},
			{
				"type": "unocc",
				"energy": -0.02399,
				"method": "rhf"
			},
			{
				"type": "unocc",
				"energy": 0.03065,
				"method": "rhf"
			},
			{
				"type": "unocc",
				"energy": 0.04817,
				"method": "rhf"
			},
			{
				"type": "unocc",
				"energy": 0.06283,
				"method": "rhf"
			}
		],
		"cosmo_sigma_profile": { 
			"-0.025": 0.0,
			"-0.024": 0.0,
			"-0.023": 0.0,
			"-0.022": 0.0,
			"-0.021": 0.0,
			"-0.02": 0.0,
			"-0.019": 0.0,
			"-0.018": 0.0,
			"-0.017": 0.0,
			"-0.016": 0.0,
			"-0.015": 0.0,
			"-0.014": 0.0,
			"-0.013": 0.0,
			"-0.012": 0.0,
			"-0.011": 0.0,
			"-0.01": 0.0,
			"-0.009": 0.0,
			"-0.008": 0.113899684978,
			"-0.007": 4.84595751899,
			"-0.006": 8.61695469477,
			"-0.005": 10.8326309284,
			"-0.004": 21.0362766119,
			"-0.003": 43.6238404519,
			"-0.002": 74.0265886585,
			"-0.001": 78.9828754644,
			"0.0": 82.5857442204,
			"0.001": 78.7400086285,
			"0.002": 57.4069658138,
			"0.003": 19.4452017125,
			"0.004": 7.44598164059,
			"0.005": 4.92809439915,
			"0.006": 4.31192784579,
			"0.007": 3.52832741344,
			"0.008": 3.12062245104,
			"0.009": 3.01919587602,
			"0.01": 3.79908537954,
			"0.011": 5.89907896373,
			"0.012": 5.09033966111,
			"0.013": 0.511999855411,
			"0.014": 0.0,
			"0.015": 0.0,
			"0.016": 0.0,
			"0.017": 0.0,
			"0.018": 0.0,
			"0.019": 0.0,
			"0.02": 0.0,
			"0.021": 0.0,
			"0.022": 0.0,
			"0.023": 0.0,
			"0.024": 0.0,
			"0.025": 0.0
		}
	}
}
