{
	 "smiles": "COC1=CC=C(Cl)C=C1C(O)=O", 
	 "Tm": 372.15, 
	 "num_atms": 19, 
	 "gaussian": { 
		 "optdone": 1, 
		 "sigma_profile": "yes", 
		 "theory": "DFT", 
		 "functional": "B3LYP", 
		 "basiset": "6-31G**", 
		 "properties": { 
			 "R2extent": 3087.6217, 
			 "electric_dipole_moment_norm": 7.18001115668, 
			 "electric_quadrupole_moment_norm": 13.5990486906, 
			 "total_energy": -994.935276179, 
			 "HOMO_LUMO_gap": 0.18844, 
			 "cosmo_polarized_energy": -14.48, 
			 "cosmo_cavitation_energy": 25.14, 
			 "cosmo_dispersion_energy": -18.89, 
			 "cosmo_repulsion_energy": 1.5, 
			 "cosmo_total_nonelectrostatic_energy": 7.75, 
			 "SMD_solvation_energy": 6.01 
		},
		"coords": [
			{
				"x": 0.8897323472,
				"y": -2.34220721,
				"z": -1.8794844707,
				"element": "C" 
			},
			{
				"x": -0.0806162323,
				"y": -1.9901787204,
				"z": -0.895007408,
				"element": "O" 
			},
			{
				"x": -0.4570292917,
				"y": -0.6775440382,
				"z": -0.7476789559,
				"element": "C" 
			},
			{
				"x": 0.0751899961,
				"y": 0.3509750353,
				"z": -1.5310159532,
				"element": "C" 
			},
			{
				"x": -0.3419313385,
				"y": 1.6676419965,
				"z": -1.3402916677,
				"element": "C" 
			},
			{
				"x": -1.2931767198,
				"y": 1.9534546179,
				"z": -0.3637148071,
				"element": "C" 
			},
			{
				"x": -1.8191512766,
				"y": 3.6106092189,
				"z": -0.1226670635,
				"element": "Cl" 
			},
			{
				"x": -1.8272899222,
				"y": 0.9371345822,
				"z": 0.4192076171,
				"element": "C" 
			},
			{
				"x": -1.4221980376,
				"y": -0.3905630585,
				"z": 0.2437537823,
				"element": "C" 
			},
			{
				"x": -2.0799241443,
				"y": -1.3996769471,
				"z": 1.1593662941,
				"element": "C" 
			},
			{
				"x": -1.7253097557,
				"y": -2.6902106596,
				"z": 1.0311912689,
				"element": "O" 
			},
			{
				"x": -2.9007220247,
				"y": -1.0624869605,
				"z": 1.9838782153,
				"element": "O" 
			},
			{
				"x": 1.8471863616,
				"y": -1.8477181155,
				"z": -1.6827020757,
				"element": "H" 
			},
			{
				"x": 1.014565353,
				"y": -3.4221171814,
				"z": -1.8001988426,
				"element": "H" 
			},
			{
				"x": 0.5397548968,
				"y": -2.0871537435,
				"z": -2.8856736846,
				"element": "H" 
			},
			{
				"x": 0.8150937722,
				"y": 0.1409169688,
				"z": -2.2931628759,
				"element": "H" 
			},
			{
				"x": 0.0726178823,
				"y": 2.4633221645,
				"z": -1.9493393027,
				"element": "H" 
			},
			{
				"x": -2.5681215236,
				"y": 1.1388446488,
				"z": 1.1838704736,
				"element": "H" 
			},
			{
				"x": -1.0586703424,
				"y": -2.7807425982,
				"z": 0.3250694561,
				"element": "H" 
			}
		],
		 "valence_orbital": [ 
			{
				"type": "occ",
				"energy": -0.31912,
				"method": "rhf"
			},
			{
				"type": "occ",
				"energy": -0.30625,
				"method": "rhf"
			},
			{
				"type": "occ",
				"energy": -0.27782,
				"method": "rhf"
			},
			{
				"type": "occ",
				"energy": -0.26948,
				"method": "rhf"
			},
			{
				"type": "occ",
				"energy": -0.24531,
				"method": "rhf"
			},
			{
				"type": "unocc",
				"energy": -0.05687,
				"method": "rhf"
			},
			{
				"type": "unocc",
				"energy": -0.01981,
				"method": "rhf"
			},
			{
				"type": "unocc",
				"energy": 0.02303,
				"method": "rhf"
			},
			{
				"type": "unocc",
				"energy": 0.04987,
				"method": "rhf"
			},
			{
				"type": "unocc",
				"energy": 0.06709,
				"method": "rhf"
			}
		],
		"cosmo_sigma_profile": { 
			"-0.025": 0.0,
			"-0.024": 0.0,
			"-0.023": 0.0,
			"-0.022": 0.0,
			"-0.021": 0.0,
			"-0.02": 0.0,
			"-0.019": 0.0,
			"-0.018": 0.0,
			"-0.017": 0.0,
			"-0.016": 0.0,
			"-0.015": 0.0,
			"-0.014": 0.0,
			"-0.013": 0.0,
			"-0.012": 0.0,
			"-0.011": 0.0,
			"-0.01": 0.322499320714,
			"-0.009": 1.61177001681,
			"-0.008": 6.00273084391,
			"-0.007": 11.4858614052,
			"-0.006": 15.6166041707,
			"-0.005": 13.5806416583,
			"-0.004": 15.2539064968,
			"-0.003": 9.43382711643,
			"-0.002": 10.5197752899,
			"-0.001": 13.9776765217,
			"0.0": 16.0971527249,
			"0.001": 21.0641542246,
			"0.002": 14.5108093298,
			"0.003": 9.01247506293,
			"0.004": 11.2451700334,
			"0.005": 7.19444936157,
			"0.006": 1.96790426361,
			"0.007": 2.15165611407,
			"0.008": 2.88892469534,
			"0.009": 2.49806848266,
			"0.01": 4.00346594791,
			"0.011": 5.76853786827,
			"0.012": 5.15012883091,
			"0.013": 2.19668795982,
			"0.014": 0.355377135767,
			"0.015": 0.0,
			"0.016": 0.0,
			"0.017": 0.0,
			"0.018": 0.0,
			"0.019": 0.0,
			"0.02": 0.0,
			"0.021": 0.0,
			"0.022": 0.0,
			"0.023": 0.0,
			"0.024": 0.0,
			"0.025": 0.0
		}
	}
}
