{
	 "smiles": "CCOC(=O)C1=CC2=C(NC(C)C(=O)N2)C=C1", 
	 "Tm": 455.15, 
	 "num_atms": 31, 
	 "gaussian": { 
		 "optdone": 1, 
		 "sigma_profile": "yes", 
		 "theory": "DFT", 
		 "functional": "B3LYP", 
		 "basiset": "6-31G**", 
		 "properties": { 
			 "R2extent": 6140.8093, 
			 "electric_dipole_moment_norm": 3.98977862794, 
			 "electric_quadrupole_moment_norm": 14.8613847619, 
			 "total_energy": -800.938648766, 
			 "HOMO_LUMO_gap": 0.16977, 
			 "cosmo_polarized_energy": -17.31, 
			 "cosmo_cavitation_energy": 34.69, 
			 "cosmo_dispersion_energy": -25.41, 
			 "cosmo_repulsion_energy": 1.97, 
			 "cosmo_total_nonelectrostatic_energy": 11.26, 
			 "SMD_solvation_energy": 6.58 
		},
		"coords": [
			{
				"x": -0.0374503553,
				"y": 3.0060444506,
				"z": -4.1481519514,
				"element": "C" 
			},
			{
				"x": 1.2375945443,
				"y": 2.5315117455,
				"z": -3.4664777045,
				"element": "C" 
			},
			{
				"x": 0.9644304406,
				"y": 1.9896805601,
				"z": -2.154524567,
				"element": "O" 
			},
			{
				"x": 0.6008274198,
				"y": 0.6845686478,
				"z": -2.1047063889,
				"element": "C" 
			},
			{
				"x": 0.5072760589,
				"y": -0.0230122529,
				"z": -3.0926723967,
				"element": "O" 
			},
			{
				"x": 0.3378952309,
				"y": 0.2234041424,
				"z": -0.7200053519,
				"element": "C" 
			},
			{
				"x": -0.043043857,
				"y": -1.1157104056,
				"z": -0.5425409958,
				"element": "C" 
			},
			{
				"x": -0.2979024087,
				"y": -1.6106748328,
				"z": 0.727450695,
				"element": "C" 
			},
			{
				"x": -0.1913155561,
				"y": -0.7686397677,
				"z": 1.8583809136,
				"element": "C" 
			},
			{
				"x": -0.4074100874,
				"y": -1.3335570459,
				"z": 3.104452137,
				"element": "N" 
			},
			{
				"x": -1.3510619337,
				"y": -2.4461788442,
				"z": 3.2384022704,
				"element": "C" 
			},
			{
				"x": -1.2321353467,
				"y": -3.0889204964,
				"z": 4.6167753121,
				"element": "C" 
			},
			{
				"x": -1.1058623919,
				"y": -3.4780900219,
				"z": 2.1268427559,
				"element": "C" 
			},
			{
				"x": -1.3710139348,
				"y": -4.6625348196,
				"z": 2.2584515071,
				"element": "O" 
			},
			{
				"x": -0.6259745226,
				"y": -2.9597217058,
				"z": 0.9507469987,
				"element": "N" 
			},
			{
				"x": 0.1850357609,
				"y": 0.5686089172,
				"z": 1.6716345274,
				"element": "C" 
			},
			{
				"x": 0.4536013497,
				"y": 1.0602095247,
				"z": 0.3981435925,
				"element": "C" 
			},
			{
				"x": -0.5633520172,
				"y": 3.736881692,
				"z": -3.5265707339,
				"element": "H" 
			},
			{
				"x": -0.7032448455,
				"y": 2.1620304487,
				"z": -4.3433564774,
				"element": "H" 
			},
			{
				"x": 0.206346304,
				"y": 3.4802237332,
				"z": -5.1048500812,
				"element": "H" 
			},
			{
				"x": 1.7421520473,
				"y": 1.7694471677,
				"z": -4.0650880627,
				"element": "H" 
			},
			{
				"x": 1.9242180727,
				"y": 3.3612432328,
				"z": -3.2805157135,
				"element": "H" 
			},
			{
				"x": -0.1239934414,
				"y": -1.7543234037,
				"z": -1.4167655651,
				"element": "H" 
			},
			{
				"x": -0.4361346669,
				"y": -0.6755680964,
				"z": 3.8726810709,
				"element": "H" 
			},
			{
				"x": -2.3932804974,
				"y": -2.101901331,
				"z": 3.0954009537,
				"element": "H" 
			},
			{
				"x": -0.2050879684,
				"y": -3.4177948261,
				"z": 4.7970334564,
				"element": "H" 
			},
			{
				"x": -1.5161646894,
				"y": -2.3772566259,
				"z": 5.3992857022,
				"element": "H" 
			},
			{
				"x": -1.8901199668,
				"y": -3.9568746448,
				"z": 4.6742961396,
				"element": "H" 
			},
			{
				"x": -0.5370789229,
				"y": -3.6222466284,
				"z": 0.1906686488,
				"element": "H" 
			},
			{
				"x": 0.2714565571,
				"y": 1.2193326132,
				"z": 2.5380094828,
				"element": "H" 
			},
			{
				"x": 0.7448936241,
				"y": 2.0950188732,
				"z": 0.264469826,
				"element": "H" 
			}
		],
		 "valence_orbital": [ 
			{
				"type": "occ",
				"energy": -0.29262,
				"method": "rhf"
			},
			{
				"type": "occ",
				"energy": -0.26789,
				"method": "rhf"
			},
			{
				"type": "occ",
				"energy": -0.26319,
				"method": "rhf"
			},
			{
				"type": "occ",
				"energy": -0.23985,
				"method": "rhf"
			},
			{
				"type": "occ",
				"energy": -0.20641,
				"method": "rhf"
			},
			{
				"type": "unocc",
				"energy": -0.03664,
				"method": "rhf"
			},
			{
				"type": "unocc",
				"energy": -0.01502,
				"method": "rhf"
			},
			{
				"type": "unocc",
				"energy": 0.02122,
				"method": "rhf"
			},
			{
				"type": "unocc",
				"energy": 0.06885,
				"method": "rhf"
			},
			{
				"type": "unocc",
				"energy": 0.0786,
				"method": "rhf"
			}
		],
		"cosmo_sigma_profile": { 
			"-0.025": 0.0,
			"-0.024": 0.0,
			"-0.023": 0.0,
			"-0.022": 0.0,
			"-0.021": 0.0,
			"-0.02": 0.0,
			"-0.019": 0.0,
			"-0.018": 0.0,
			"-0.017": 0.0,
			"-0.016": 0.0614862933876,
			"-0.015": 0.919035558956,
			"-0.014": 1.74509702204,
			"-0.013": 2.73527830193,
			"-0.012": 2.6918191359,
			"-0.011": 2.61905607019,
			"-0.01": 2.95514343006,
			"-0.009": 2.46817613183,
			"-0.008": 2.64312141783,
			"-0.007": 4.40236936038,
			"-0.006": 9.10392362295,
			"-0.005": 13.7992987269,
			"-0.004": 21.8381017368,
			"-0.003": 22.5389581627,
			"-0.002": 22.2823087798,
			"-0.001": 22.4170582136,
			"0.0": 24.9720262192,
			"0.001": 18.2249470819,
			"0.002": 17.183739264,
			"0.003": 17.158621202,
			"0.004": 15.282337361,
			"0.005": 7.56473152575,
			"0.006": 6.20480942635,
			"0.007": 4.2397344939,
			"0.008": 3.27927642987,
			"0.009": 2.51556288069,
			"0.01": 3.88939503207,
			"0.011": 3.66318969047,
			"0.012": 7.07636671483,
			"0.013": 7.0684268621,
			"0.014": 0.668791092605,
			"0.015": 0.0,
			"0.016": 0.0,
			"0.017": 0.0,
			"0.018": 0.0,
			"0.019": 0.0,
			"0.02": 0.0,
			"0.021": 0.0,
			"0.022": 0.0,
			"0.023": 0.0,
			"0.024": 0.0,
			"0.025": 0.0
		}
	}
}
