{
	 "smiles": "CC(=O)OC1=CC=C(C=C1)C(C)(C)C1=CC=C(OC(C)=O)C=C1", 
	 "Tm": 361.65, 
	 "num_atms": 43, 
	 "gaussian": { 
		 "optdone": 1, 
		 "sigma_profile": "yes", 
		 "theory": "DFT", 
		 "functional": "B3LYP", 
		 "basiset": "6-31G**", 
		 "properties": { 
			 "R2extent": 11620.2296, 
			 "electric_dipole_moment_norm": 0.0486942501739, 
			 "electric_quadrupole_moment_norm": 23.8812278451, 
			 "total_energy": -1036.99946463, 
			 "HOMO_LUMO_gap": 0.21222, 
			 "cosmo_polarized_energy": -13.68, 
			 "cosmo_cavitation_energy": 46.75, 
			 "cosmo_dispersion_energy": -32.18, 
			 "cosmo_repulsion_energy": 2.48, 
			 "cosmo_total_nonelectrostatic_energy": 17.06, 
			 "SMD_solvation_energy": 10.63 
		},
		"coords": [
			{
				"x": 5.5412052697,
				"y": 4.7138810959,
				"z": 1.6502759036,
				"element": "C" 
			},
			{
				"x": 4.0799636163,
				"y": 4.3654151174,
				"z": 1.5035274943,
				"element": "C" 
			},
			{
				"x": 3.2314577265,
				"y": 5.0700476023,
				"z": 1.0143505953,
				"element": "O" 
			},
			{
				"x": 3.8576259858,
				"y": 3.1136556641,
				"z": 2.0120146176,
				"element": "O" 
			},
			{
				"x": 2.5915941698,
				"y": 2.5240561448,
				"z": 1.9914757446,
				"element": "C" 
			},
			{
				"x": 1.4154926015,
				"y": 3.2030016888,
				"z": 2.2961138238,
				"element": "C" 
			},
			{
				"x": 0.2096385664,
				"y": 2.4952300013,
				"z": 2.3160320783,
				"element": "C" 
			},
			{
				"x": 0.1506283613,
				"y": 1.1240654119,
				"z": 2.0406908676,
				"element": "C" 
			},
			{
				"x": 1.3581683714,
				"y": 0.4710683985,
				"z": 1.7401463451,
				"element": "C" 
			},
			{
				"x": 2.5676139844,
				"y": 1.1566840669,
				"z": 1.7151795384,
				"element": "C" 
			},
			{
				"x": -1.15561412,
				"y": 0.3068702518,
				"z": 2.1044563994,
				"element": "C" 
			},
			{
				"x": -1.0866119133,
				"y": -0.585409392,
				"z": 3.3673694548,
				"element": "C" 
			},
			{
				"x": -2.4072641369,
				"y": 1.2073173055,
				"z": 2.2393659112,
				"element": "C" 
			},
			{
				"x": -1.3137233909,
				"y": -0.5183848712,
				"z": 0.8113209269,
				"element": "C" 
			},
			{
				"x": -1.2119088319,
				"y": 0.1251286499,
				"z": -0.4338222739,
				"element": "C" 
			},
			{
				"x": -1.391206713,
				"y": -0.567771004,
				"z": -1.6260129149,
				"element": "C" 
			},
			{
				"x": -1.6770094839,
				"y": -1.9329699176,
				"z": -1.5943424161,
				"element": "C" 
			},
			{
				"x": -1.9100548703,
				"y": -2.5308775722,
				"z": -2.8349726641,
				"element": "O" 
			},
			{
				"x": -1.4466287104,
				"y": -3.7853111468,
				"z": -3.1295298619,
				"element": "C" 
			},
			{
				"x": -1.8362010871,
				"y": -4.1447719641,
				"z": -4.5427393095,
				"element": "C" 
			},
			{
				"x": -0.8225648092,
				"y": -4.484094979,
				"z": -2.3693104878,
				"element": "O" 
			},
			{
				"x": -1.788486843,
				"y": -2.6024795615,
				"z": -0.3793482582,
				"element": "C" 
			},
			{
				"x": -1.6046343115,
				"y": -1.8876147625,
				"z": 0.8082690005,
				"element": "C" 
			},
			{
				"x": 5.7145858874,
				"y": 5.7150609208,
				"z": 1.2574547545,
				"element": "H" 
			},
			{
				"x": 5.8337803408,
				"y": 4.6677810721,
				"z": 2.7033845932,
				"element": "H" 
			},
			{
				"x": 6.1559886876,
				"y": 3.9881452456,
				"z": 1.1097559176,
				"element": "H" 
			},
			{
				"x": 1.4303236514,
				"y": 4.2650258051,
				"z": 2.5004712653,
				"element": "H" 
			},
			{
				"x": -0.6944416385,
				"y": 3.0447996713,
				"z": 2.5523849945,
				"element": "H" 
			},
			{
				"x": 1.3501113115,
				"y": -0.5896853227,
				"z": 1.507193302,
				"element": "H" 
			},
			{
				"x": 3.4974862079,
				"y": 0.6477116,
				"z": 1.483059618,
				"element": "H" 
			},
			{
				"x": -0.9297932629,
				"y": 0.0422920304,
				"z": 4.2493701283,
				"element": "H" 
			},
			{
				"x": -0.2611986589,
				"y": -1.3013026288,
				"z": 3.3180339067,
				"element": "H" 
			},
			{
				"x": -2.0180282033,
				"y": -1.1417329968,
				"z": 3.5159369985,
				"element": "H" 
			},
			{
				"x": -3.3066904099,
				"y": 0.5847861286,
				"z": 2.2354841276,
				"element": "H" 
			},
			{
				"x": -2.491241134,
				"y": 1.9176172858,
				"z": 1.4119421011,
				"element": "H" 
			},
			{
				"x": -2.396094983,
				"y": 1.7704547211,
				"z": 3.1784286488,
				"element": "H" 
			},
			{
				"x": -0.9737074221,
				"y": 1.1840697909,
				"z": -0.4718214051,
				"element": "H" 
			},
			{
				"x": -1.3119549229,
				"y": -0.0661155564,
				"z": -2.58500148,
				"element": "H" 
			},
			{
				"x": -2.9234241233,
				"y": -4.0991309352,
				"z": -4.6551010013,
				"element": "H" 
			},
			{
				"x": -1.4060526234,
				"y": -3.4246919568,
				"z": -5.2450693799,
				"element": "H" 
			},
			{
				"x": -1.4783633717,
				"y": -5.147919214,
				"z": -4.7716016227,
				"element": "H" 
			},
			{
				"x": -1.999939989,
				"y": -3.6629384328,
				"z": -0.3528534992,
				"element": "H" 
			},
			{
				"x": -1.6927247757,
				"y": -2.4298634564,
				"z": 1.7428375171,
				"element": "H" 
			}
		],
		 "valence_orbital": [ 
			{
				"type": "occ",
				"energy": -0.27638,
				"method": "rhf"
			},
			{
				"type": "occ",
				"energy": -0.25252,
				"method": "rhf"
			},
			{
				"type": "occ",
				"energy": -0.24967,
				"method": "rhf"
			},
			{
				"type": "occ",
				"energy": -0.23961,
				"method": "rhf"
			},
			{
				"type": "occ",
				"energy": -0.22508,
				"method": "rhf"
			},
			{
				"type": "unocc",
				"energy": -0.01286,
				"method": "rhf"
			},
			{
				"type": "unocc",
				"energy": -0.00986,
				"method": "rhf"
			},
			{
				"type": "unocc",
				"energy": -0.00761,
				"method": "rhf"
			},
			{
				"type": "unocc",
				"energy": 0.0022,
				"method": "rhf"
			},
			{
				"type": "unocc",
				"energy": 0.01828,
				"method": "rhf"
			}
		],
		"cosmo_sigma_profile": { 
			"-0.025": 0.0,
			"-0.024": 0.0,
			"-0.023": 0.0,
			"-0.022": 0.0,
			"-0.021": 0.0,
			"-0.02": 0.0,
			"-0.019": 0.0,
			"-0.018": 0.0,
			"-0.017": 0.0,
			"-0.016": 0.0,
			"-0.015": 0.0,
			"-0.014": 0.0,
			"-0.013": 0.0,
			"-0.012": 0.0,
			"-0.011": 0.0,
			"-0.01": 0.0,
			"-0.009": 0.0,
			"-0.008": 0.0,
			"-0.007": 4.72093232943,
			"-0.006": 17.4218254118,
			"-0.005": 26.6553806864,
			"-0.004": 36.9692891349,
			"-0.003": 43.1662330601,
			"-0.002": 40.2069860823,
			"-0.001": 29.2681228976,
			"0.0": 27.3781001807,
			"0.001": 25.7937087379,
			"0.002": 18.1305979904,
			"0.003": 21.0840347384,
			"0.004": 22.7857677148,
			"0.005": 18.0762081648,
			"0.006": 5.4701114474,
			"0.007": 6.76144526087,
			"0.008": 4.70595716295,
			"0.009": 3.88353937675,
			"0.01": 4.5316265964,
			"0.011": 8.83104272262,
			"0.012": 4.37046310994,
			"0.013": 0.251873122353,
			"0.014": 0.0,
			"0.015": 0.0,
			"0.016": 0.0,
			"0.017": 0.0,
			"0.018": 0.0,
			"0.019": 0.0,
			"0.02": 0.0,
			"0.021": 0.0,
			"0.022": 0.0,
			"0.023": 0.0,
			"0.024": 0.0,
			"0.025": 0.0
		}
	}
}
