{
	 "smiles": "COC1=CC=C(O)C2=C1C=CC=C2", 
	 "Tm": 402.15, 
	 "num_atms": 23, 
	 "gaussian": { 
		 "optdone": 1, 
		 "sigma_profile": "yes", 
		 "theory": "DFT", 
		 "functional": "B3LYP", 
		 "basiset": "6-31G**", 
		 "properties": { 
			 "R2extent": 2452.8688, 
			 "electric_dipole_moment_norm": 1.04872107827, 
			 "electric_quadrupole_moment_norm": 13.8434138217, 
			 "total_energy": -575.635484721, 
			 "HOMO_LUMO_gap": 0.15809, 
			 "cosmo_polarized_energy": -9.88, 
			 "cosmo_cavitation_energy": 26.13, 
			 "cosmo_dispersion_energy": -19.79, 
			 "cosmo_repulsion_energy": 1.53, 
			 "cosmo_total_nonelectrostatic_energy": 7.87, 
			 "SMD_solvation_energy": 5.2 
		},
		"coords": [
			{
				"x": -1.2264795609,
				"y": 0.0887637033,
				"z": 3.0492527951,
				"element": "C" 
			},
			{
				"x": -0.3226238248,
				"y": -0.3185408445,
				"z": 2.0375344658,
				"element": "O" 
			},
			{
				"x": -0.5960455942,
				"y": 0.0467389613,
				"z": 0.7469919882,
				"element": "C" 
			},
			{
				"x": -1.6877495071,
				"y": 0.7926615361,
				"z": 0.3535808611,
				"element": "C" 
			},
			{
				"x": -1.8921659415,
				"y": 1.0988872752,
				"z": -1.0128286115,
				"element": "C" 
			},
			{
				"x": -1.0031075176,
				"y": 0.6828310552,
				"z": -1.975429171,
				"element": "C" 
			},
			{
				"x": -1.2579225396,
				"y": 1.024062942,
				"z": -3.2811717597,
				"element": "O" 
			},
			{
				"x": 0.1609956973,
				"y": -0.0612510963,
				"z": -1.6037208752,
				"element": "C" 
			},
			{
				"x": 0.3553600808,
				"y": -0.4008824078,
				"z": -0.2251352541,
				"element": "C" 
			},
			{
				"x": 1.4932358367,
				"y": -1.163823711,
				"z": 0.1427654673,
				"element": "C" 
			},
			{
				"x": 2.4121933711,
				"y": -1.566176034,
				"z": -0.8022515651,
				"element": "C" 
			},
			{
				"x": 2.238924104,
				"y": -1.2101680044,
				"z": -2.1585676254,
				"element": "C" 
			},
			{
				"x": 1.1410682436,
				"y": -0.4727457263,
				"z": -2.5456754363,
				"element": "C" 
			},
			{
				"x": -1.2934068599,
				"y": 1.1827230058,
				"z": 3.1151621834,
				"element": "H" 
			},
			{
				"x": -2.2315715245,
				"y": -0.3204784126,
				"z": 2.8822645917,
				"element": "H" 
			},
			{
				"x": -0.8297149769,
				"y": -0.3038633685,
				"z": 3.9869783864,
				"element": "H" 
			},
			{
				"x": -2.4143525109,
				"y": 1.1425469151,
				"z": 1.0767081102,
				"element": "H" 
			},
			{
				"x": -2.7663420198,
				"y": 1.6633556957,
				"z": -1.319467814,
				"element": "H" 
			},
			{
				"x": -0.8085008908,
				"y": 0.4020986457,
				"z": -3.8662084906,
				"element": "H" 
			},
			{
				"x": 1.6253076086,
				"y": -1.4202467702,
				"z": 1.1874118074,
				"element": "H" 
			},
			{
				"x": 3.2782409202,
				"y": -2.1497316953,
				"z": -0.5039746121,
				"element": "H" 
			},
			{
				"x": 2.977965069,
				"y": -1.5098643919,
				"z": -2.8959226559,
				"element": "H" 
			},
			{
				"x": 1.0489923371,
				"y": -0.1776972725,
				"z": -3.5880967858,
				"element": "H" 
			}
		],
		 "valence_orbital": [ 
			{
				"type": "occ",
				"energy": -0.3204,
				"method": "rhf"
			},
			{
				"type": "occ",
				"energy": -0.28802,
				"method": "rhf"
			},
			{
				"type": "occ",
				"energy": -0.2575,
				"method": "rhf"
			},
			{
				"type": "occ",
				"energy": -0.24218,
				"method": "rhf"
			},
			{
				"type": "occ",
				"energy": -0.18675,
				"method": "rhf"
			},
			{
				"type": "unocc",
				"energy": -0.02866,
				"method": "rhf"
			},
			{
				"type": "unocc",
				"energy": -0.00825,
				"method": "rhf"
			},
			{
				"type": "unocc",
				"energy": 0.05274,
				"method": "rhf"
			},
			{
				"type": "unocc",
				"energy": 0.06884,
				"method": "rhf"
			},
			{
				"type": "unocc",
				"energy": 0.09904,
				"method": "rhf"
			}
		],
		"cosmo_sigma_profile": { 
			"-0.025": 0.0,
			"-0.024": 0.0,
			"-0.023": 0.0,
			"-0.022": 0.0,
			"-0.021": 0.0,
			"-0.02": 0.0,
			"-0.019": 0.0,
			"-0.018": 0.0032113989595,
			"-0.017": 0.600382286293,
			"-0.016": 1.36389267088,
			"-0.015": 0.630239240942,
			"-0.014": 0.866889399566,
			"-0.013": 0.899372295896,
			"-0.012": 0.327756138879,
			"-0.011": 1.32933859458,
			"-0.01": 1.40052663422,
			"-0.009": 1.11781448778,
			"-0.008": 0.768973305572,
			"-0.007": 1.8050077917,
			"-0.006": 8.95098634933,
			"-0.005": 18.6527697889,
			"-0.004": 18.8839069008,
			"-0.003": 18.3296036304,
			"-0.002": 12.8624174427,
			"-0.001": 9.62586246941,
			"0.0": 8.24718973235,
			"0.001": 10.0440883944,
			"0.002": 9.69439574317,
			"0.003": 18.7382225497,
			"0.004": 24.4307204889,
			"0.005": 19.7559841258,
			"0.006": 6.86744897868,
			"0.007": 3.20032746399,
			"0.008": 2.86911322382,
			"0.009": 1.45178893918,
			"0.01": 1.98734337078,
			"0.011": 1.52702116972,
			"0.012": 1.54183972641,
			"0.013": 0.029397729234,
			"0.014": 0.0,
			"0.015": 0.0,
			"0.016": 0.0,
			"0.017": 0.0,
			"0.018": 0.0,
			"0.019": 0.0,
			"0.02": 0.0,
			"0.021": 0.0,
			"0.022": 0.0,
			"0.023": 0.0,
			"0.024": 0.0,
			"0.025": 0.0
		}
	}
}
