{
	 "smiles": "COC(=O)CC[C@H](C)C1CCC2C3C=C[C@@H]4C[C@@H](CC[C@]4(C)C3C[C@H](OC(C)=O)[C@]12C)OC(C)=O", 
	 "Tm": 360.15, 
	 "num_atms": 79, 
	 "gaussian": { 
		 "optdone": 1, 
		 "sigma_profile": "yes", 
		 "theory": "DFT", 
		 "functional": "B3LYP", 
		 "basiset": "6-31G**", 
		 "properties": { 
			 "R2extent": 20265.3778, 
			 "electric_dipole_moment_norm": 3.41572559495, 
			 "electric_quadrupole_moment_norm": 25.4080462136, 
			 "total_energy": -1582.96334857, 
			 "HOMO_LUMO_gap": 0.23535, 
			 "cosmo_polarized_energy": -17.29, 
			 "cosmo_cavitation_energy": 68.19, 
			 "cosmo_dispersion_energy": -43.72, 
			 "cosmo_repulsion_energy": 3.24, 
			 "cosmo_total_nonelectrostatic_energy": 27.71, 
			 "SMD_solvation_energy": 13.12 
		},
		"coords": [
			{
				"x": 1.3619733537,
				"y": -7.7403234912,
				"z": 1.9876347855,
				"element": "C" 
			},
			{
				"x": 0.6253849791,
				"y": -7.104806866,
				"z": 0.9311294305,
				"element": "O" 
			},
			{
				"x": 1.2018261749,
				"y": -7.1647230479,
				"z": -0.2936691052,
				"element": "C" 
			},
			{
				"x": 2.2594042559,
				"y": -7.7216919361,
				"z": -0.5000096971,
				"element": "O" 
			},
			{
				"x": 0.3398407342,
				"y": -6.4889629256,
				"z": -1.3416201747,
				"element": "C" 
			},
			{
				"x": -0.0717289325,
				"y": -5.0295105331,
				"z": -1.0432900914,
				"element": "C" 
			},
			{
				"x": 1.0547269228,
				"y": -3.9899469123,
				"z": -1.2573592448,
				"element": "C" 
			},
			{
				"x": 2.135748164,
				"y": -4.095480042,
				"z": -0.1646301802,
				"element": "C" 
			},
			{
				"x": 0.6080209308,
				"y": -2.5170049247,
				"z": -1.5139600655,
				"element": "C" 
			},
			{
				"x": -0.2979963605,
				"y": -2.3464896314,
				"z": -2.7751827814,
				"element": "C" 
			},
			{
				"x": -1.1603397676,
				"y": -1.0756949778,
				"z": -2.5469073129,
				"element": "C" 
			},
			{
				"x": -0.5521248951,
				"y": -0.4289336334,
				"z": -1.2910065828,
				"element": "C" 
			},
			{
				"x": -1.3476194167,
				"y": 0.6804701865,
				"z": -0.5734714383,
				"element": "C" 
			},
			{
				"x": -2.8320652131,
				"y": 0.4783044395,
				"z": -0.3708113634,
				"element": "C" 
			},
			{
				"x": -3.5215541014,
				"y": 1.3974318072,
				"z": 0.3128617041,
				"element": "C" 
			},
			{
				"x": -2.7915082574,
				"y": 2.5605051803,
				"z": 0.9485384842,
				"element": "C" 
			},
			{
				"x": -2.5260297335,
				"y": 3.6962586956,
				"z": -0.0846815515,
				"element": "C" 
			},
			{
				"x": -1.4157367644,
				"y": 4.6828090977,
				"z": 0.3264057584,
				"element": "C" 
			},
			{
				"x": -1.1633230755,
				"y": 4.6346251763,
				"z": 1.8272642303,
				"element": "C" 
			},
			{
				"x": -0.6990561962,
				"y": 3.2411570364,
				"z": 2.2916014213,
				"element": "C" 
			},
			{
				"x": -1.5208882948,
				"y": 2.034390291,
				"z": 1.7060904694,
				"element": "C" 
			},
			{
				"x": -2.0542121071,
				"y": 1.2215962824,
				"z": 2.9124909194,
				"element": "C" 
			},
			{
				"x": -0.6045882577,
				"y": 1.1812304129,
				"z": 0.7266209328,
				"element": "C" 
			},
			{
				"x": 0.1601514933,
				"y": 0.0638712538,
				"z": 1.4848679329,
				"element": "C" 
			},
			{
				"x": 0.833762372,
				"y": -1.082127248,
				"z": 0.7016427405,
				"element": "C" 
			},
			{
				"x": 2.2232332186,
				"y": -0.8457411582,
				"z": 0.2762825543,
				"element": "O" 
			},
			{
				"x": 2.7399937513,
				"y": 0.2700706524,
				"z": -0.2651082783,
				"element": "C" 
			},
			{
				"x": 4.2349673296,
				"y": 0.1057478359,
				"z": -0.4461770536,
				"element": "C" 
			},
			{
				"x": 2.1268132224,
				"y": 1.2698379862,
				"z": -0.5795448922,
				"element": "O" 
			},
			{
				"x": -0.0806449097,
				"y": -1.6258981833,
				"z": -0.4232756064,
				"element": "C" 
			},
			{
				"x": -1.2688422384,
				"y": -2.3442343997,
				"z": 0.2564680134,
				"element": "C" 
			},
			{
				"x": -0.1446325175,
				"y": 4.3393987491,
				"z": -0.2978076713,
				"element": "O" 
			},
			{
				"x": 0.0509724083,
				"y": 4.7544816494,
				"z": -1.5723705044,
				"element": "C" 
			},
			{
				"x": 1.4430548724,
				"y": 4.4050517248,
				"z": -2.0428192296,
				"element": "C" 
			},
			{
				"x": -0.7836455714,
				"y": 5.3492018996,
				"z": -2.221714714,
				"element": "O" 
			},
			{
				"x": 2.3410652464,
				"y": -7.2705264954,
				"z": 2.11224267,
				"element": "H" 
			},
			{
				"x": 0.7594081401,
				"y": -7.6118913516,
				"z": 2.8869707201,
				"element": "H" 
			},
			{
				"x": 1.5081880995,
				"y": -8.8016861078,
				"z": 1.7720318319,
				"element": "H" 
			},
			{
				"x": -0.5711162881,
				"y": -7.0948660785,
				"z": -1.4283612634,
				"element": "H" 
			},
			{
				"x": 0.8755208838,
				"y": -6.5642670456,
				"z": -2.2918404366,
				"element": "H" 
			},
			{
				"x": -0.9155869272,
				"y": -4.8001201148,
				"z": -1.701090139,
				"element": "H" 
			},
			{
				"x": -0.4559897327,
				"y": -4.9843684311,
				"z": -0.0210543523,
				"element": "H" 
			},
			{
				"x": 1.5417276662,
				"y": -4.2708802647,
				"z": -2.2050225524,
				"element": "H" 
			},
			{
				"x": 2.6648267338,
				"y": -5.0507858852,
				"z": -0.2204837776,
				"element": "H" 
			},
			{
				"x": 1.7017545461,
				"y": -4.0167088328,
				"z": 0.8385414716,
				"element": "H" 
			},
			{
				"x": 2.8782124812,
				"y": -3.2996682737,
				"z": -0.2650304611,
				"element": "H" 
			},
			{
				"x": 1.5460264503,
				"y": -1.9975170761,
				"z": -1.7413655298,
				"element": "H" 
			},
			{
				"x": 0.3252756425,
				"y": -2.2589344598,
				"z": -3.671208283,
				"element": "H" 
			},
			{
				"x": -0.9374923044,
				"y": -3.2191809488,
				"z": -2.9371376622,
				"element": "H" 
			},
			{
				"x": -2.2084337431,
				"y": -1.350588594,
				"z": -2.3910593925,
				"element": "H" 
			},
			{
				"x": -1.1422343322,
				"y": -0.3943332386,
				"z": -3.4036026891,
				"element": "H" 
			},
			{
				"x": 0.369531942,
				"y": 0.0631534203,
				"z": -1.6195445185,
				"element": "H" 
			},
			{
				"x": -1.2792361016,
				"y": 1.5336005629,
				"z": -1.2629065338,
				"element": "H" 
			},
			{
				"x": -3.3404877457,
				"y": -0.3610053594,
				"z": -0.8376977057,
				"element": "H" 
			},
			{
				"x": -4.5999227614,
				"y": 1.3183631487,
				"z": 0.4320802778,
				"element": "H" 
			},
			{
				"x": -3.4414424726,
				"y": 2.9946082796,
				"z": 1.7183276205,
				"element": "H" 
			},
			{
				"x": -3.4585946814,
				"y": 4.2581679849,
				"z": -0.2095807575,
				"element": "H" 
			},
			{
				"x": -2.2945793427,
				"y": 3.2968402275,
				"z": -1.0736797079,
				"element": "H" 
			},
			{
				"x": -1.673833563,
				"y": 5.690145217,
				"z": -0.0091579432,
				"element": "H" 
			},
			{
				"x": -0.4173467157,
				"y": 5.3868236498,
				"z": 2.1062064611,
				"element": "H" 
			},
			{
				"x": -2.0972379217,
				"y": 4.9171567722,
				"z": 2.3295358436,
				"element": "H" 
			},
			{
				"x": -0.7389423135,
				"y": 3.2199952859,
				"z": 3.386596541,
				"element": "H" 
			},
			{
				"x": 0.3554806451,
				"y": 3.1250489732,
				"z": 2.0244210984,
				"element": "H" 
			},
			{
				"x": -2.6065143099,
				"y": 0.3284406872,
				"z": 2.60708963,
				"element": "H" 
			},
			{
				"x": -1.2507336259,
				"y": 0.9170514593,
				"z": 3.5892026071,
				"element": "H" 
			},
			{
				"x": -2.7385606975,
				"y": 1.8468109894,
				"z": 3.4973078036,
				"element": "H" 
			},
			{
				"x": 0.1543981045,
				"y": 1.8621718271,
				"z": 0.3499987205,
				"element": "H" 
			},
			{
				"x": 0.9104476175,
				"y": 0.5185779155,
				"z": 2.1431646689,
				"element": "H" 
			},
			{
				"x": -0.5272738267,
				"y": -0.4604999654,
				"z": 2.1519032172,
				"element": "H" 
			},
			{
				"x": 1.0116694787,
				"y": -1.883750777,
				"z": 1.423362443,
				"element": "H" 
			},
			{
				"x": 4.440276813,
				"y": -0.7261806967,
				"z": -1.1266880103,
				"element": "H" 
			},
			{
				"x": 4.7074537354,
				"y": -0.133245208,
				"z": 0.5106045136,
				"element": "H" 
			},
			{
				"x": 4.654392746,
				"y": 1.0258024459,
				"z": -0.8521601574,
				"element": "H" 
			},
			{
				"x": -1.9069417505,
				"y": -2.839097358,
				"z": -0.4797680779,
				"element": "H" 
			},
			{
				"x": -0.9218466128,
				"y": -3.1103773008,
				"z": 0.9563335332,
				"element": "H" 
			},
			{
				"x": -1.9017171189,
				"y": -1.6509540567,
				"z": 0.8145890226,
				"element": "H" 
			},
			{
				"x": 2.1535616513,
				"y": 5.1155100835,
				"z": -1.6053362407,
				"element": "H" 
			},
			{
				"x": 1.4871803635,
				"y": 4.4900762559,
				"z": -3.1289392475,
				"element": "H" 
			},
			{
				"x": 1.7331283294,
				"y": 3.4045182886,
				"z": -1.7136770944,
				"element": "H" 
			}
		],
		 "valence_orbital": [ 
			{
				"type": "occ",
				"energy": -0.2703,
				"method": "rhf"
			},
			{
				"type": "occ",
				"energy": -0.26524,
				"method": "rhf"
			},
			{
				"type": "occ",
				"energy": -0.26378,
				"method": "rhf"
			},
			{
				"type": "occ",
				"energy": -0.25627,
				"method": "rhf"
			},
			{
				"type": "occ",
				"energy": -0.22957,
				"method": "rhf"
			},
			{
				"type": "unocc",
				"energy": 0.00578,
				"method": "rhf"
			},
			{
				"type": "unocc",
				"energy": 0.0118,
				"method": "rhf"
			},
			{
				"type": "unocc",
				"energy": 0.01987,
				"method": "rhf"
			},
			{
				"type": "unocc",
				"energy": 0.0252,
				"method": "rhf"
			},
			{
				"type": "unocc",
				"energy": 0.06388,
				"method": "rhf"
			}
		],
		"cosmo_sigma_profile": { 
			"-0.025": 0.0,
			"-0.024": 0.0,
			"-0.023": 0.0,
			"-0.022": 0.0,
			"-0.021": 0.0,
			"-0.02": 0.0,
			"-0.019": 0.0,
			"-0.018": 0.0,
			"-0.017": 0.0,
			"-0.016": 0.0,
			"-0.015": 0.0,
			"-0.014": 0.0,
			"-0.013": 0.0,
			"-0.012": 0.0,
			"-0.011": 0.0,
			"-0.01": 0.0,
			"-0.009": 0.0,
			"-0.008": 0.0,
			"-0.007": 0.791038538754,
			"-0.006": 10.2723185501,
			"-0.005": 19.9787615209,
			"-0.004": 40.3645137165,
			"-0.003": 67.9100417797,
			"-0.002": 76.7822577638,
			"-0.001": 77.775935623,
			"0.0": 61.6566161943,
			"0.001": 44.252039074,
			"0.002": 29.7339959887,
			"0.003": 16.9869787746,
			"0.004": 12.9138536905,
			"0.005": 11.7486221985,
			"0.006": 13.1669015159,
			"0.007": 9.64926014728,
			"0.008": 6.29998972686,
			"0.009": 4.10647331985,
			"0.01": 4.14814836941,
			"0.011": 4.10420771219,
			"0.012": 9.28595494207,
			"0.013": 4.70260725363,
			"0.014": 0.467510989486,
			"0.015": 0.0,
			"0.016": 0.0,
			"0.017": 0.0,
			"0.018": 0.0,
			"0.019": 0.0,
			"0.02": 0.0,
			"0.021": 0.0,
			"0.022": 0.0,
			"0.023": 0.0,
			"0.024": 0.0,
			"0.025": 0.0
		}
	}
}
