{
	 "smiles": "CC1=C(C(C)=NO1)S(=O)(=O)NC1(CCCC1)C(O)=O", 
	 "Tm": 450.15, 
	 "num_atms": 35, 
	 "gaussian": { 
		 "optdone": 1, 
		 "sigma_profile": "yes", 
		 "theory": "DFT", 
		 "functional": "B3LYP", 
		 "basiset": "6-31G**", 
		 "properties": { 
			 "R2extent": 5178.0915, 
			 "electric_dipole_moment_norm": 2.51222742601, 
			 "electric_quadrupole_moment_norm": 18.6300555233, 
			 "total_energy": -1312.52714185, 
			 "HOMO_LUMO_gap": 0.23532, 
			 "cosmo_polarized_energy": -17.16, 
			 "cosmo_cavitation_energy": 37.97, 
			 "cosmo_dispersion_energy": -26.33, 
			 "cosmo_repulsion_energy": 1.99, 
			 "cosmo_total_nonelectrostatic_energy": 13.63, 
			 "SMD_solvation_energy": 6.64 
		},
		"coords": [
			{
				"x": -3.5065771863,
				"y": 1.3575386041,
				"z": -1.2836210658,
				"element": "C" 
			},
			{
				"x": -2.8164276122,
				"y": 0.0472421959,
				"z": -1.4288523763,
				"element": "C" 
			},
			{
				"x": -1.9179760164,
				"y": -0.6668506587,
				"z": -0.6760308445,
				"element": "C" 
			},
			{
				"x": -1.6871488156,
				"y": -1.8755896327,
				"z": -1.4176713153,
				"element": "C" 
			},
			{
				"x": -0.8125158007,
				"y": -3.035501644,
				"z": -1.0676522829,
				"element": "C" 
			},
			{
				"x": -2.3754454499,
				"y": -1.8708403822,
				"z": -2.5319713338,
				"element": "N" 
			},
			{
				"x": -3.0894692655,
				"y": -0.6560717252,
				"z": -2.5391415861,
				"element": "O" 
			},
			{
				"x": -1.2852093681,
				"y": -0.2869693415,
				"z": 0.9247045597,
				"element": "S" 
			},
			{
				"x": -1.5979300076,
				"y": -1.4098677733,
				"z": 1.8135418434,
				"element": "O" 
			},
			{
				"x": -1.7094202723,
				"y": 1.0810558496,
				"z": 1.2511841492,
				"element": "O" 
			},
			{
				"x": 0.3839411713,
				"y": -0.3761258855,
				"z": 0.7212652365,
				"element": "N" 
			},
			{
				"x": 1.2600441366,
				"y": 0.8022911605,
				"z": 0.5289936417,
				"element": "C" 
			},
			{
				"x": 1.3664191729,
				"y": 1.7684564268,
				"z": 1.76408263,
				"element": "C" 
			},
			{
				"x": 1.6175874737,
				"y": 3.148662311,
				"z": 1.1438163972,
				"element": "C" 
			},
			{
				"x": 0.6927481858,
				"y": 3.1432602067,
				"z": -0.0847683512,
				"element": "C" 
			},
			{
				"x": 0.8335415126,
				"y": 1.7179224405,
				"z": -0.6609634476,
				"element": "C" 
			},
			{
				"x": 2.6730107855,
				"y": 0.2493689341,
				"z": 0.2921239908,
				"element": "C" 
			},
			{
				"x": 2.9194404579,
				"y": -0.8585767069,
				"z": 1.035000532,
				"element": "O" 
			},
			{
				"x": 3.5197309498,
				"y": 0.7626456295,
				"z": -0.4021774175,
				"element": "O" 
			},
			{
				"x": -3.3059815326,
				"y": 1.7790090935,
				"z": -0.2999544816,
				"element": "H" 
			},
			{
				"x": -4.5845610471,
				"y": 1.2262767786,
				"z": -1.4180128946,
				"element": "H" 
			},
			{
				"x": -3.1598761118,
				"y": 2.0551154078,
				"z": -2.053868105,
				"element": "H" 
			},
			{
				"x": 0.2281018763,
				"y": -2.7116398029,
				"z": -0.9707324545,
				"element": "H" 
			},
			{
				"x": -0.8834892429,
				"y": -3.7987919545,
				"z": -1.844309678,
				"element": "H" 
			},
			{
				"x": -1.1169777908,
				"y": -3.4628589399,
				"z": -0.1077294425,
				"element": "H" 
			},
			{
				"x": 0.740227713,
				"y": -1.0349871666,
				"z": 1.4083187833,
				"element": "H" 
			},
			{
				"x": 2.1325198646,
				"y": 1.4487599903,
				"z": 2.4775940289,
				"element": "H" 
			},
			{
				"x": 0.4009869107,
				"y": 1.7579263392,
				"z": 2.2753315488,
				"element": "H" 
			},
			{
				"x": 1.4035730147,
				"y": 3.9636953371,
				"z": 1.8418463774,
				"element": "H" 
			},
			{
				"x": 2.6639920521,
				"y": 3.2422249244,
				"z": 0.8309301648,
				"element": "H" 
			},
			{
				"x": 0.9499813203,
				"y": 3.9126251726,
				"z": -0.8186385711,
				"element": "H" 
			},
			{
				"x": -0.340164876,
				"y": 3.3142638994,
				"z": 0.2355806987,
				"element": "H" 
			},
			{
				"x": -0.0851967087,
				"y": 1.358129236,
				"z": -1.1259131839,
				"element": "H" 
			},
			{
				"x": 1.6183283378,
				"y": 1.6866087146,
				"z": -1.419189881,
				"element": "H" 
			},
			{
				"x": 3.8452921688,
				"y": -1.1031070381,
				"z": 0.8693841308,
				"element": "H" 
			}
		],
		 "valence_orbital": [ 
			{
				"type": "occ",
				"energy": -0.30905,
				"method": "rhf"
			},
			{
				"type": "occ",
				"energy": -0.30439,
				"method": "rhf"
			},
			{
				"type": "occ",
				"energy": -0.29596,
				"method": "rhf"
			},
			{
				"type": "occ",
				"energy": -0.2808,
				"method": "rhf"
			},
			{
				"type": "occ",
				"energy": -0.26382,
				"method": "rhf"
			},
			{
				"type": "unocc",
				"energy": -0.0285,
				"method": "rhf"
			},
			{
				"type": "unocc",
				"energy": -0.013,
				"method": "rhf"
			},
			{
				"type": "unocc",
				"energy": 0.01014,
				"method": "rhf"
			},
			{
				"type": "unocc",
				"energy": 0.04848,
				"method": "rhf"
			},
			{
				"type": "unocc",
				"energy": 0.0516,
				"method": "rhf"
			}
		],
		"cosmo_sigma_profile": { 
			"-0.025": 0.0,
			"-0.024": 0.0,
			"-0.023": 0.0,
			"-0.022": 0.0,
			"-0.021": 0.0,
			"-0.02": 0.0348016420734,
			"-0.019": 0.590446573558,
			"-0.018": 0.944240001222,
			"-0.017": 1.00793967616,
			"-0.016": 0.870451196787,
			"-0.015": 0.449538947203,
			"-0.014": 0.386180057348,
			"-0.013": 0.810950964253,
			"-0.012": 1.09754623265,
			"-0.011": 1.02047597799,
			"-0.01": 1.67167030383,
			"-0.009": 1.24473693307,
			"-0.008": 1.81425989973,
			"-0.007": 5.42261866017,
			"-0.006": 8.41636973355,
			"-0.005": 14.5432615843,
			"-0.004": 21.1367641383,
			"-0.003": 32.0567266894,
			"-0.002": 39.4322255045,
			"-0.001": 36.0496991058,
			"0.0": 25.077854608,
			"0.001": 16.7839095799,
			"0.002": 10.7869700024,
			"0.003": 9.25609842105,
			"0.004": 7.86714510914,
			"0.005": 6.51452324664,
			"0.006": 7.90753905835,
			"0.007": 9.4410996276,
			"0.008": 6.49480694219,
			"0.009": 6.30908160368,
			"0.01": 10.000423654,
			"0.011": 10.3717924399,
			"0.012": 2.0748507726,
			"0.013": 1.03968108481,
			"0.014": 0.232873900976,
			"0.015": 0.0,
			"0.016": 0.0,
			"0.017": 0.0,
			"0.018": 0.0,
			"0.019": 0.0,
			"0.02": 0.0,
			"0.021": 0.0,
			"0.022": 0.0,
			"0.023": 0.0,
			"0.024": 0.0,
			"0.025": 0.0
		}
	}
}
