{
	 "smiles": "CC1=NC2=CC=C(CBr)C=C2C=C1", 
	 "Tm": 366.65, 
	 "num_atms": 23, 
	 "gaussian": { 
		 "optdone": 1, 
		 "sigma_profile": "yes", 
		 "theory": "DFT", 
		 "functional": "B3LYP", 
		 "basiset": "6-31G**", 
		 "properties": { 
			 "R2extent": 7416.7386, 
			 "electric_dipole_moment_norm": 2.94497261108, 
			 "electric_quadrupole_moment_norm": 15.2188807292, 
			 "total_energy": -3051.37658928, 
			 "HOMO_LUMO_gap": 0.17745, 
			 "cosmo_polarized_energy": -9.6, 
			 "cosmo_cavitation_energy": 29.13, 
			 "cosmo_dispersion_energy": -21.68, 
			 "cosmo_repulsion_energy": 1.72, 
			 "cosmo_total_nonelectrostatic_energy": 9.17, 
			 "SMD_solvation_energy": 2.11 
		},
		"coords": [
			{
				"x": -3.1575346735,
				"y": 0.9992051964,
				"z": -2.2388102442,
				"element": "C" 
			},
			{
				"x": -2.4068467216,
				"y": 0.108969663,
				"z": -1.2803520448,
				"element": "C" 
			},
			{
				"x": -1.93567503,
				"y": 0.6605044271,
				"z": -0.1758284035,
				"element": "N" 
			},
			{
				"x": -1.2537931311,
				"y": -0.1246927329,
				"z": 0.7083750366,
				"element": "C" 
			},
			{
				"x": -0.7495307308,
				"y": 0.4699266743,
				"z": 1.8963100014,
				"element": "C" 
			},
			{
				"x": -0.055471142,
				"y": -0.2809987264,
				"z": 2.8143191826,
				"element": "C" 
			},
			{
				"x": 0.1801203001,
				"y": -1.6684406122,
				"z": 2.6012894202,
				"element": "C" 
			},
			{
				"x": 0.9596274876,
				"y": -2.4584515269,
				"z": 3.5993965291,
				"element": "C" 
			},
			{
				"x": -0.1392340469,
				"y": -2.9532032305,
				"z": 5.2069997514,
				"element": "Br" 
			},
			{
				"x": -0.3057351468,
				"y": -2.266035951,
				"z": 1.4535998798,
				"element": "C" 
			},
			{
				"x": -1.0255140298,
				"y": -1.518139498,
				"z": 0.4891345067,
				"element": "C" 
			},
			{
				"x": -1.5446107822,
				"y": -2.0773931661,
				"z": -0.7080138414,
				"element": "C" 
			},
			{
				"x": -2.2290040391,
				"y": -1.2741330541,
				"z": -1.5841268075,
				"element": "C" 
			},
			{
				"x": -3.1919647739,
				"y": 2.0165549823,
				"z": -1.8469299616,
				"element": "H" 
			},
			{
				"x": -4.1830254675,
				"y": 0.6411820529,
				"z": -2.3880022437,
				"element": "H" 
			},
			{
				"x": -2.6757248518,
				"y": 1.0135406389,
				"z": -3.223561486,
				"element": "H" 
			},
			{
				"x": -0.9321503209,
				"y": 1.5288342743,
				"z": 2.0467202345,
				"element": "H" 
			},
			{
				"x": 0.3187002253,
				"y": 0.1813351057,
				"z": 3.723744068,
				"element": "H" 
			},
			{
				"x": 1.3066739158,
				"y": -3.4105283137,
				"z": 3.2029603463,
				"element": "H" 
			},
			{
				"x": 1.7955328225,
				"y": -1.9019697749,
				"z": 4.0205274753,
				"element": "H" 
			},
			{
				"x": -0.1389600273,
				"y": -3.326710742,
				"z": 1.2784546802,
				"element": "H" 
			},
			{
				"x": -1.3952433237,
				"y": -3.1342308447,
				"z": -0.9153874379,
				"element": "H" 
			},
			{
				"x": -2.6378365124,
				"y": -1.6757248416,
				"z": -2.5067186415,
				"element": "H" 
			}
		],
		 "valence_orbital": [ 
			{
				"type": "occ",
				"energy": -0.27256,
				"method": "rhf"
			},
			{
				"type": "occ",
				"energy": -0.26973,
				"method": "rhf"
			},
			{
				"type": "occ",
				"energy": -0.25478,
				"method": "rhf"
			},
			{
				"type": "occ",
				"energy": -0.24693,
				"method": "rhf"
			},
			{
				"type": "occ",
				"energy": -0.23476,
				"method": "rhf"
			},
			{
				"type": "unocc",
				"energy": -0.05731,
				"method": "rhf"
			},
			{
				"type": "unocc",
				"energy": -0.03561,
				"method": "rhf"
			},
			{
				"type": "unocc",
				"energy": 0.00731,
				"method": "rhf"
			},
			{
				"type": "unocc",
				"energy": 0.02306,
				"method": "rhf"
			},
			{
				"type": "unocc",
				"energy": 0.07879,
				"method": "rhf"
			}
		],
		"cosmo_sigma_profile": { 
			"-0.025": 0.0,
			"-0.024": 0.0,
			"-0.023": 0.0,
			"-0.022": 0.0,
			"-0.021": 0.0,
			"-0.02": 0.0,
			"-0.019": 0.0,
			"-0.018": 0.0,
			"-0.017": 0.0,
			"-0.016": 0.0,
			"-0.015": 0.0,
			"-0.014": 0.0,
			"-0.013": 0.0,
			"-0.012": 0.0,
			"-0.011": 0.0,
			"-0.01": 0.0,
			"-0.009": 0.0,
			"-0.008": 3.33026367533,
			"-0.007": 11.5810326897,
			"-0.006": 14.3804218158,
			"-0.005": 14.9401954259,
			"-0.004": 19.2116143994,
			"-0.003": 16.0897467136,
			"-0.002": 13.7666368956,
			"-0.001": 15.3031574287,
			"0.0": 16.9274337665,
			"0.001": 16.7770428268,
			"0.002": 22.0450954626,
			"0.003": 21.7373297533,
			"0.004": 13.0820690366,
			"0.005": 9.88217566704,
			"0.006": 12.7482639061,
			"0.007": 5.74616754398,
			"0.008": 2.37289874614,
			"0.009": 1.08881525295,
			"0.01": 0.698246763277,
			"0.011": 0.661174065663,
			"0.012": 0.820715822116,
			"0.013": 0.996663220003,
			"0.014": 1.07744817916,
			"0.015": 0.363051826783,
			"0.016": 0.267155234698,
			"0.017": 0.0,
			"0.018": 0.0,
			"0.019": 0.0,
			"0.02": 0.0,
			"0.021": 0.0,
			"0.022": 0.0,
			"0.023": 0.0,
			"0.024": 0.0,
			"0.025": 0.0
		}
	}
}
