{
	 "smiles": "COC1=CC=C(F)C=C1", 
	 "Tm": 228.15, 
	 "num_atms": 16, 
	 "gaussian": { 
		 "optdone": 1, 
		 "sigma_profile": "yes", 
		 "theory": "DFT", 
		 "functional": "B3LYP", 
		 "basiset": "6-31G**", 
		 "properties": { 
			 "R2extent": 1767.0254, 
			 "electric_dipole_moment_norm": 2.24760154387, 
			 "electric_quadrupole_moment_norm": 8.13890125877, 
			 "total_energy": -446.00618732, 
			 "HOMO_LUMO_gap": 0.20585, 
			 "cosmo_polarized_energy": -5.25, 
			 "cosmo_cavitation_energy": 20.25, 
			 "cosmo_dispersion_energy": -15.06, 
			 "cosmo_repulsion_energy": 1.21, 
			 "cosmo_total_nonelectrostatic_energy": 6.39, 
			 "SMD_solvation_energy": 4.86 
		},
		"coords": [
			{
				"x": -0.4816930772,
				"y": 3.7089283084,
				"z": 1.7113734843,
				"element": "C" 
			},
			{
				"x": -1.3748515234,
				"y": 2.651939392,
				"z": 1.4043015224,
				"element": "O" 
			},
			{
				"x": -1.0038016776,
				"y": 1.7529660683,
				"z": 0.4435288853,
				"element": "C" 
			},
			{
				"x": -1.9273427385,
				"y": 0.7288763745,
				"z": 0.1819807018,
				"element": "C" 
			},
			{
				"x": -1.6522648979,
				"y": -0.2398573942,
				"z": -0.7761285873,
				"element": "C" 
			},
			{
				"x": -0.4474713382,
				"y": -0.1796467514,
				"z": -1.4725555026,
				"element": "C" 
			},
			{
				"x": -0.1782617632,
				"y": -1.121802558,
				"z": -2.4053785097,
				"element": "F" 
			},
			{
				"x": 0.4791733431,
				"y": 0.8224493126,
				"z": -1.2308428556,
				"element": "C" 
			},
			{
				"x": 0.2019743309,
				"y": 1.7974008476,
				"z": -0.2663773982,
				"element": "C" 
			},
			{
				"x": 0.4783234109,
				"y": 3.3332228622,
				"z": 2.0895711116,
				"element": "H" 
			},
			{
				"x": -0.9671845556,
				"y": 4.2978831908,
				"z": 2.4910515629,
				"element": "H" 
			},
			{
				"x": -0.2954013059,
				"y": 4.3501509009,
				"z": 0.8396201473,
				"element": "H" 
			},
			{
				"x": -2.8555350499,
				"y": 0.7129633844,
				"z": 0.7433234107,
				"element": "H" 
			},
			{
				"x": -2.3558957199,
				"y": -1.0373467847,
				"z": -0.9894308694,
				"element": "H" 
			},
			{
				"x": 1.4078082482,
				"y": 0.8399651773,
				"z": -1.7911723531,
				"element": "H" 
			},
			{
				"x": 0.9306243142,
				"y": 2.5776076693,
				"z": -0.0826647503,
				"element": "H" 
			}
		],
		 "valence_orbital": [ 
			{
				"type": "occ",
				"energy": -0.35207,
				"method": "rhf"
			},
			{
				"type": "occ",
				"energy": -0.32954,
				"method": "rhf"
			},
			{
				"type": "occ",
				"energy": -0.31305,
				"method": "rhf"
			},
			{
				"type": "occ",
				"energy": -0.25849,
				"method": "rhf"
			},
			{
				"type": "occ",
				"energy": -0.21502,
				"method": "rhf"
			},
			{
				"type": "unocc",
				"energy": -0.00917,
				"method": "rhf"
			},
			{
				"type": "unocc",
				"energy": 0.01765,
				"method": "rhf"
			},
			{
				"type": "unocc",
				"energy": 0.08523,
				"method": "rhf"
			},
			{
				"type": "unocc",
				"energy": 0.10457,
				"method": "rhf"
			},
			{
				"type": "unocc",
				"energy": 0.12641,
				"method": "rhf"
			}
		],
		"cosmo_sigma_profile": { 
			"-0.025": 0.0,
			"-0.024": 0.0,
			"-0.023": 0.0,
			"-0.022": 0.0,
			"-0.021": 0.0,
			"-0.02": 0.0,
			"-0.019": 0.0,
			"-0.018": 0.0,
			"-0.017": 0.0,
			"-0.016": 0.0,
			"-0.015": 0.0,
			"-0.014": 0.0,
			"-0.013": 0.0,
			"-0.012": 0.0,
			"-0.011": 0.0,
			"-0.01": 0.0,
			"-0.009": 0.0,
			"-0.008": 0.120097819091,
			"-0.007": 4.21293544043,
			"-0.006": 10.7250890149,
			"-0.005": 15.2632557959,
			"-0.004": 14.890009868,
			"-0.003": 12.9703958371,
			"-0.002": 8.39169552748,
			"-0.001": 7.53626417878,
			"0.0": 8.25298655252,
			"0.001": 9.84142125415,
			"0.002": 13.443366233,
			"0.003": 14.1213149228,
			"0.004": 20.580283081,
			"0.005": 13.761722563,
			"0.006": 1.46271983039,
			"0.007": 1.29360669565,
			"0.008": 1.50558040865,
			"0.009": 1.33922248781,
			"0.01": 1.57768615177,
			"0.011": 0.454453035552,
			"0.012": 0.0,
			"0.013": 0.0,
			"0.014": 0.0,
			"0.015": 0.0,
			"0.016": 0.0,
			"0.017": 0.0,
			"0.018": 0.0,
			"0.019": 0.0,
			"0.02": 0.0,
			"0.021": 0.0,
			"0.022": 0.0,
			"0.023": 0.0,
			"0.024": 0.0,
			"0.025": 0.0
		}
	}
}
