{
	 "smiles": "OC(=O)C1=C(NS(=O)(=O)C2=CC(=C(Cl)C=C2)[N+]([O-])=O)C=CC=C1", 
	 "Tm": 485.15, 
	 "num_atms": 32, 
	 "gaussian": { 
		 "optdone": 1, 
		 "sigma_profile": "yes", 
		 "theory": "DFT", 
		 "functional": "B3LYP", 
		 "basiset": "6-31G**", 
		 "properties": { 
			 "R2extent": 8732.2055, 
			 "electric_dipole_moment_norm": 3.53569438017, 
			 "electric_quadrupole_moment_norm": 22.1182557875, 
			 "total_energy": -1919.85489271, 
			 "HOMO_LUMO_gap": 0.16783, 
			 "cosmo_polarized_energy": -24.68, 
			 "cosmo_cavitation_energy": 40.91, 
			 "cosmo_dispersion_energy": -27.77, 
			 "cosmo_repulsion_energy": 2.07, 
			 "cosmo_total_nonelectrostatic_energy": 15.21, 
			 "SMD_solvation_energy": 9.37 
		},
		"coords": [
			{
				"x": -2.884710236,
				"y": 0.463226151,
				"z": -0.7505381218,
				"element": "O" 
			},
			{
				"x": -2.0542836072,
				"y": 0.8143578736,
				"z": -1.7475641765,
				"element": "C" 
			},
			{
				"x": -2.3375013367,
				"y": 1.7120945426,
				"z": -2.5095692565,
				"element": "O" 
			},
			{
				"x": -0.7660854095,
				"y": 0.0283973349,
				"z": -1.8956878417,
				"element": "C" 
			},
			{
				"x": -0.273200972,
				"y": -0.9319378006,
				"z": -0.9875880549,
				"element": "C" 
			},
			{
				"x": -1.0108159158,
				"y": -1.1935006693,
				"z": 0.2354869855,
				"element": "N" 
			},
			{
				"x": -0.2926768729,
				"y": -0.6938900809,
				"z": 1.7489448928,
				"element": "S" 
			},
			{
				"x": -1.1967735607,
				"y": -1.258859878,
				"z": 2.7494634613,
				"element": "O" 
			},
			{
				"x": 1.141514148,
				"y": -0.9841405324,
				"z": 1.7574583365,
				"element": "O" 
			},
			{
				"x": -0.4901824975,
				"y": 1.0838227316,
				"z": 1.6856009765,
				"element": "C" 
			},
			{
				"x": 0.6072178498,
				"y": 1.8679419075,
				"z": 1.3534415847,
				"element": "C" 
			},
			{
				"x": 0.4715007726,
				"y": 3.2556626349,
				"z": 1.3438973411,
				"element": "C" 
			},
			{
				"x": -0.7636868868,
				"y": 3.8571861796,
				"z": 1.6369641258,
				"element": "C" 
			},
			{
				"x": -1.0382646409,
				"y": 5.5675191957,
				"z": 1.5690186361,
				"element": "Cl" 
			},
			{
				"x": -1.8564421768,
				"y": 3.0406553139,
				"z": 1.9574818649,
				"element": "C" 
			},
			{
				"x": -1.7258100024,
				"y": 1.658363244,
				"z": 1.9961779598,
				"element": "C" 
			},
			{
				"x": 1.6931212242,
				"y": 4.0210054086,
				"z": 1.0224201586,
				"element": "N" 
			},
			{
				"x": 2.4937090747,
				"y": 3.477248783,
				"z": 0.2638852054,
				"element": "O" 
			},
			{
				"x": 1.8408256282,
				"y": 5.1164486073,
				"z": 1.5498787872,
				"element": "O" 
			},
			{
				"x": 0.9080922824,
				"y": -1.6286905151,
				"z": -1.2612622438,
				"element": "C" 
			},
			{
				"x": 1.6128030392,
				"y": -1.3762550173,
				"z": -2.4365161234,
				"element": "C" 
			},
			{
				"x": 1.1426174494,
				"y": -0.4187407794,
				"z": -3.3376393589,
				"element": "C" 
			},
			{
				"x": -0.033490404,
				"y": 0.2732406296,
				"z": -3.065457502,
				"element": "C" 
			},
			{
				"x": -2.4602853398,
				"y": -0.2548236138,
				"z": -0.2269015567,
				"element": "H" 
			},
			{
				"x": -1.2169841243,
				"y": -2.1850622964,
				"z": 0.37134879,
				"element": "H" 
			},
			{
				"x": 1.5659255114,
				"y": 1.4242292932,
				"z": 1.1157597413,
				"element": "H" 
			},
			{
				"x": -2.8109418525,
				"y": 3.5068987202,
				"z": 2.1711350509,
				"element": "H" 
			},
			{
				"x": -2.5710739759,
				"y": 1.0358924696,
				"z": 2.2664575973,
				"element": "H" 
			},
			{
				"x": 1.2773024157,
				"y": -2.3496675248,
				"z": -0.5399791301,
				"element": "H" 
			},
			{
				"x": 2.5288438863,
				"y": -1.9214619987,
				"z": -2.6417550461,
				"element": "H" 
			},
			{
				"x": 1.6910046908,
				"y": -0.2142002194,
				"z": -4.251894,
				"element": "H" 
			},
			{
				"x": -0.4229681611,
				"y": 1.0172399053,
				"z": -3.751169083,
				"element": "H" 
			}
		],
		 "valence_orbital": [ 
			{
				"type": "occ",
				"energy": -0.29976,
				"method": "rhf"
			},
			{
				"type": "occ",
				"energy": -0.29508,
				"method": "rhf"
			},
			{
				"type": "occ",
				"energy": -0.28322,
				"method": "rhf"
			},
			{
				"type": "occ",
				"energy": -0.28177,
				"method": "rhf"
			},
			{
				"type": "occ",
				"energy": -0.27687,
				"method": "rhf"
			},
			{
				"type": "unocc",
				"energy": -0.10904,
				"method": "rhf"
			},
			{
				"type": "unocc",
				"energy": -0.07894,
				"method": "rhf"
			},
			{
				"type": "unocc",
				"energy": -0.06536,
				"method": "rhf"
			},
			{
				"type": "unocc",
				"energy": -0.04306,
				"method": "rhf"
			},
			{
				"type": "unocc",
				"energy": -0.041,
				"method": "rhf"
			}
		],
		"cosmo_sigma_profile": { 
			"-0.025": 0.0,
			"-0.024": 0.0,
			"-0.023": 0.0,
			"-0.022": 0.0,
			"-0.021": 0.0,
			"-0.02": 0.0,
			"-0.019": 0.0,
			"-0.018": 0.043242369052,
			"-0.017": 1.06024376189,
			"-0.016": 1.24100205176,
			"-0.015": 1.16812153891,
			"-0.014": 1.02122536966,
			"-0.013": 1.90869974579,
			"-0.012": 1.17445500738,
			"-0.011": 1.87342294299,
			"-0.01": 5.18196889056,
			"-0.009": 8.71915090355,
			"-0.008": 8.12797036607,
			"-0.007": 13.6279296291,
			"-0.006": 15.8029855552,
			"-0.005": 18.4654065774,
			"-0.004": 21.0978038823,
			"-0.003": 23.72653638,
			"-0.002": 21.520005695,
			"-0.001": 18.454733224,
			"0.0": 17.4966283011,
			"0.001": 19.9801785959,
			"0.002": 23.6407018497,
			"0.003": 14.6966959387,
			"0.004": 8.31421731941,
			"0.005": 9.38173228435,
			"0.006": 11.9581926378,
			"0.007": 15.8665677921,
			"0.008": 10.5405639225,
			"0.009": 13.6644574059,
			"0.01": 8.82170055264,
			"0.011": 6.25535303233,
			"0.012": 4.71499695418,
			"0.013": 1.96313294943,
			"0.014": 0.271913986593,
			"0.015": 0.0,
			"0.016": 0.0,
			"0.017": 0.0,
			"0.018": 0.0,
			"0.019": 0.0,
			"0.02": 0.0,
			"0.021": 0.0,
			"0.022": 0.0,
			"0.023": 0.0,
			"0.024": 0.0,
			"0.0": 0.0
		}
	}
}
