{
	 "smiles": "OC(=O)CC1C2=CC=CC=C2C2=CC=CC=C12", 
	 "Tm": 407.15, 
	 "num_atms": 29, 
	 "gaussian": { 
		 "optdone": 1, 
		 "sigma_profile": "yes", 
		 "theory": "DFT", 
		 "functional": "B3LYP", 
		 "basiset": "6-31G**", 
		 "properties": { 
			 "R2extent": 4496.7869, 
			 "electric_dipole_moment_norm": 1.5681795146, 
			 "electric_quadrupole_moment_norm": 19.8957301635, 
			 "total_energy": -729.308365963, 
			 "HOMO_LUMO_gap": 0.18392, 
			 "cosmo_polarized_energy": -12.04, 
			 "cosmo_cavitation_energy": 32.59, 
			 "cosmo_dispersion_energy": -23.26, 
			 "cosmo_repulsion_energy": 1.78, 
			 "cosmo_total_nonelectrostatic_energy": 11.11, 
			 "SMD_solvation_energy": 5.95 
		},
		"coords": [
			{
				"x": 3.3138636899,
				"y": -1.6471197825,
				"z": 0.9412811855,
				"element": "O" 
			},
			{
				"x": 2.5543475247,
				"y": -1.3233075608,
				"z": 2.0220085094,
				"element": "C" 
			},
			{
				"x": 3.0021216326,
				"y": -1.3214355024,
				"z": 3.1460669226,
				"element": "O" 
			},
			{
				"x": 1.1169229774,
				"y": -1.0280662866,
				"z": 1.6495760728,
				"element": "C" 
			},
			{
				"x": 0.9072684713,
				"y": -0.1893328208,
				"z": 0.3656993107,
				"element": "C" 
			},
			{
				"x": 1.3754805074,
				"y": 1.2560999038,
				"z": 0.4797304446,
				"element": "C" 
			},
			{
				"x": 2.6501643245,
				"y": 1.7556516014,
				"z": 0.7276454723,
				"element": "C" 
			},
			{
				"x": 2.8364356457,
				"y": 3.1415207491,
				"z": 0.7938681377,
				"element": "C" 
			},
			{
				"x": 1.7599304836,
				"y": 4.014760708,
				"z": 0.6068866465,
				"element": "C" 
			},
			{
				"x": 0.4804944147,
				"y": 3.5199390608,
				"z": 0.345081494,
				"element": "C" 
			},
			{
				"x": 0.2922195081,
				"y": 2.1378159991,
				"z": 0.2813106266,
				"element": "C" 
			},
			{
				"x": -0.9142813964,
				"y": 1.345676202,
				"z": 0.0081062708,
				"element": "C" 
			},
			{
				"x": -2.2260457666,
				"y": 1.7388006313,
				"z": -0.2660638268,
				"element": "C" 
			},
			{
				"x": -3.1889649478,
				"y": 0.755725997,
				"z": -0.5053355077,
				"element": "C" 
			},
			{
				"x": -2.8471492707,
				"y": -0.600538291,
				"z": -0.4734942703,
				"element": "C" 
			},
			{
				"x": -1.5325165294,
				"y": -0.9956036714,
				"z": -0.198729349,
				"element": "C" 
			},
			{
				"x": -0.5702985913,
				"y": -0.0208196457,
				"z": 0.0409923894,
				"element": "C" 
			},
			{
				"x": 4.1975025566,
				"y": -1.8542768664,
				"z": 1.2897686676,
				"element": "H" 
			},
			{
				"x": 0.6521345632,
				"y": -0.5441686356,
				"z": 2.5110286772,
				"element": "H" 
			},
			{
				"x": 0.6264145638,
				"y": -2.0016047762,
				"z": 1.5184355972,
				"element": "H" 
			},
			{
				"x": 1.4276001143,
				"y": -0.6948364518,
				"z": -0.4578977966,
				"element": "H" 
			},
			{
				"x": 3.4951195574,
				"y": 1.0862904814,
				"z": 0.8568266032,
				"element": "H" 
			},
			{
				"x": 3.8271113162,
				"y": 3.541724057,
				"z": 0.9890840961,
				"element": "H" 
			},
			{
				"x": 1.9218029012,
				"y": 5.0875823618,
				"z": 0.660630184,
				"element": "H" 
			},
			{
				"x": -0.350726485,
				"y": 4.2026203624,
				"z": 0.191441623,
				"element": "H" 
			},
			{
				"x": -2.4977515739,
				"y": 2.7904065526,
				"z": -0.29461393,
				"element": "H" 
			},
			{
				"x": -4.2133679275,
				"y": 1.0467610874,
				"z": -0.7196247539,
				"element": "H" 
			},
			{
				"x": -3.6070901494,
				"y": -1.3526139729,
				"z": -0.6647386248,
				"element": "H" 
			},
			{
				"x": -1.2751421149,
				"y": -2.0519514912,
				"z": -0.1795708724,
				"element": "H" 
			}
		],
		 "valence_orbital": [ 
			{
				"type": "occ",
				"energy": -0.28226,
				"method": "rhf"
			},
			{
				"type": "occ",
				"energy": -0.27648,
				"method": "rhf"
			},
			{
				"type": "occ",
				"energy": -0.25074,
				"method": "rhf"
			},
			{
				"type": "occ",
				"energy": -0.24497,
				"method": "rhf"
			},
			{
				"type": "occ",
				"energy": -0.21613,
				"method": "rhf"
			},
			{
				"type": "unocc",
				"energy": -0.03221,
				"method": "rhf"
			},
			{
				"type": "unocc",
				"energy": -0.0172,
				"method": "rhf"
			},
			{
				"type": "unocc",
				"energy": 0.00671,
				"method": "rhf"
			},
			{
				"type": "unocc",
				"energy": 0.0101,
				"method": "rhf"
			},
			{
				"type": "unocc",
				"energy": 0.0399,
				"method": "rhf"
			}
		],
		"cosmo_sigma_profile": { 
			"-0.025": 0.0,
			"-0.024": 0.0,
			"-0.023": 0.0,
			"-0.022": 0.0,
			"-0.021": 0.0,
			"-0.02": 0.0,
			"-0.019": 0.0307220898415,
			"-0.018": 0.830129745271,
			"-0.017": 0.750906385431,
			"-0.016": 0.994541378869,
			"-0.015": 0.665150409072,
			"-0.014": 0.48813258432,
			"-0.013": 0.345147687742,
			"-0.012": 1.13198450977,
			"-0.011": 0.971201195783,
			"-0.01": 0.999460820713,
			"-0.009": 0.0847889515043,
			"-0.008": 0.81028541406,
			"-0.007": 4.47000985585,
			"-0.006": 14.0892699135,
			"-0.005": 22.322577854,
			"-0.004": 21.5719661558,
			"-0.003": 23.0577536153,
			"-0.002": 16.4660465535,
			"-0.001": 15.7510757419,
			"0.0": 14.0137406006,
			"0.001": 15.6469551368,
			"0.002": 16.8238492185,
			"0.003": 18.5912058595,
			"0.004": 17.8849295793,
			"0.005": 19.3954808395,
			"0.006": 14.1430363121,
			"0.007": 2.60256500522,
			"0.008": 1.98173010914,
			"0.009": 1.8984936053,
			"0.01": 1.69325960849,
			"0.011": 4.53352906218,
			"0.012": 4.15338821363,
			"0.013": 0.805007867458,
			"0.014": 0.0,
			"0.015": 0.0,
			"0.016": 0.0,
			"0.017": 0.0,
			"0.018": 0.0,
			"0.019": 0.0,
			"0.02": 0.0,
			"0.021": 0.0,
			"0.022": 0.0,
			"0.023": 0.0,
			"0.024": 0.0,
			"0.025": 0.0
		}
	}
}
