{
	 "smiles": "COC(=O)C(=O)CC(=O)C1=CC=C(Cl)S1", 
	 "Tm": 377.15, 
	 "num_atms": 22, 
	 "gaussian": { 
		 "optdone": 1, 
		 "sigma_profile": "yes", 
		 "theory": "DFT", 
		 "functional": "B3LYP", 
		 "basiset": "6-31G**", 
		 "properties": { 
			 "R2extent": 7092.8689, 
			 "electric_dipole_moment_norm": 1.95223582848, 
			 "electric_quadrupole_moment_norm": 17.1942487431, 
			 "total_energy": -1506.41639812, 
			 "HOMO_LUMO_gap": 0.17163, 
			 "cosmo_polarized_energy": -13.44, 
			 "cosmo_cavitation_energy": 32.04, 
			 "cosmo_dispersion_energy": -23.07, 
			 "cosmo_repulsion_energy": 1.8, 
			 "cosmo_total_nonelectrostatic_energy": 10.77, 
			 "SMD_solvation_energy": 7.74 
		},
		"coords": [
			{
				"x": 0.6580144656,
				"y": -4.1442132546,
				"z": 0.7286493193,
				"element": "C" 
			},
			{
				"x": -0.6672212146,
				"y": -3.5920606475,
				"z": 0.6177409266,
				"element": "O" 
			},
			{
				"x": -0.7348600476,
				"y": -2.2626048766,
				"z": 0.6648521206,
				"element": "C" 
			},
			{
				"x": 0.2056952513,
				"y": -1.5094955321,
				"z": 0.8128089611,
				"element": "O" 
			},
			{
				"x": -2.1839008393,
				"y": -1.7523850861,
				"z": 0.5471379583,
				"element": "C" 
			},
			{
				"x": -3.1333119912,
				"y": -2.474034537,
				"z": 0.7404401007,
				"element": "O" 
			},
			{
				"x": -2.2964416591,
				"y": -0.269276691,
				"z": 0.2325671509,
				"element": "C" 
			},
			{
				"x": -1.7878186425,
				"y": 0.0159083204,
				"z": -1.1800272798,
				"element": "C" 
			},
			{
				"x": -1.4782013371,
				"y": -0.9004635032,
				"z": -1.9295175362,
				"element": "O" 
			},
			{
				"x": -1.6997531357,
				"y": 1.4153915987,
				"z": -1.6301570571,
				"element": "C" 
			},
			{
				"x": -1.292005142,
				"y": 1.819541209,
				"z": -2.8833013416,
				"element": "C" 
			},
			{
				"x": -1.3023399078,
				"y": 3.2247594109,
				"z": -3.0621621094,
				"element": "C" 
			},
			{
				"x": -1.7235068796,
				"y": 3.8784671675,
				"z": -1.9301577325,
				"element": "C" 
			},
			{
				"x": -1.8795068111,
				"y": 5.5862565514,
				"z": -1.7269653062,
				"element": "Cl" 
			},
			{
				"x": -2.112580168,
				"y": 2.7956006668,
				"z": -0.6301389407,
				"element": "S" 
			},
			{
				"x": 1.1033326062,
				"y": -3.8746686001,
				"z": 1.6894217012,
				"element": "H" 
			},
			{
				"x": 0.5319406309,
				"y": -5.223162933,
				"z": 0.6509664947,
				"element": "H" 
			},
			{
				"x": 1.2935410273,
				"y": -3.7689152798,
				"z": -0.0769793118,
				"element": "H" 
			},
			{
				"x": -3.348006696,
				"y": 0.0229844327,
				"z": 0.31921445,
				"element": "H" 
			},
			{
				"x": -1.7091235072,
				"y": 0.3068212149,
				"z": 0.9572769189,
				"element": "H" 
			},
			{
				"x": -0.9970445131,
				"y": 1.1011469558,
				"z": -3.6386151437,
				"element": "H" 
			},
			{
				"x": -1.0161014895,
				"y": 3.737303413,
				"z": -3.9718543432,
				"element": "H" 
			}
		],
		 "valence_orbital": [ 
			{
				"type": "occ",
				"energy": -0.31431,
				"method": "rhf"
			},
			{
				"type": "occ",
				"energy": -0.28318,
				"method": "rhf"
			},
			{
				"type": "occ",
				"energy": -0.27503,
				"method": "rhf"
			},
			{
				"type": "occ",
				"energy": -0.25636,
				"method": "rhf"
			},
			{
				"type": "occ",
				"energy": -0.25262,
				"method": "rhf"
			},
			{
				"type": "unocc",
				"energy": -0.08099,
				"method": "rhf"
			},
			{
				"type": "unocc",
				"energy": -0.07389,
				"method": "rhf"
			},
			{
				"type": "unocc",
				"energy": -0.00733,
				"method": "rhf"
			},
			{
				"type": "unocc",
				"energy": 0.00259,
				"method": "rhf"
			},
			{
				"type": "unocc",
				"energy": 0.01125,
				"method": "rhf"
			}
		],
		"cosmo_sigma_profile": { 
			"-0.025": 0.0,
			"-0.024": 0.0,
			"-0.023": 0.0,
			"-0.022": 0.0,
			"-0.021": 0.0,
			"-0.02": 0.0,
			"-0.019": 0.0,
			"-0.018": 0.0,
			"-0.017": 0.0,
			"-0.016": 0.0,
			"-0.015": 0.0,
			"-0.014": 0.0,
			"-0.013": 0.0,
			"-0.012": 0.0,
			"-0.011": 0.0,
			"-0.01": 0.0018168391131,
			"-0.009": 3.41448668975,
			"-0.008": 9.99226286186,
			"-0.007": 12.0651445099,
			"-0.006": 16.2965457146,
			"-0.005": 15.8680763442,
			"-0.004": 18.1040938634,
			"-0.003": 13.4458691329,
			"-0.002": 16.5466640683,
			"-0.001": 16.7397524764,
			"0.0": 24.7198810536,
			"0.001": 25.3878085997,
			"0.002": 21.3877137739,
			"0.003": 13.1264338055,
			"0.004": 6.43005828693,
			"0.005": 5.01885806453,
			"0.006": 4.70340317524,
			"0.007": 6.71990656848,
			"0.008": 6.77433119261,
			"0.009": 7.59850292748,
			"0.01": 10.4583222728,
			"0.011": 6.10492197003,
			"0.012": 0.338564113911,
			"0.013": 0.0,
			"0.014": 0.0,
			"0.015": 0.0,
			"0.016": 0.0,
			"0.017": 0.0,
			"0.018": 0.0,
			"0.019": 0.0,
			"0.02": 0.0,
			"0.021": 0.0,
			"0.022": 0.0,
			"0.023": 0.0,
			"0.024": 0.0,
			"0.025": 0.0
		}
	}
}
