{
	 "smiles": "OC1CC2CCCC(C1)N2CC1=CC=CC=C1", 
	 "Tm": 331.15, 
	 "num_atms": 38, 
	 "gaussian": { 
		 "optdone": 1, 
		 "sigma_profile": "yes", 
		 "theory": "DFT", 
		 "functional": "B3LYP", 
		 "basiset": "6-31G**", 
		 "properties": { 
			 "R2extent": 4870.9813, 
			 "electric_dipole_moment_norm": 1.37829238553, 
			 "electric_quadrupole_moment_norm": 9.33981825466, 
			 "total_energy": -714.219287399, 
			 "HOMO_LUMO_gap": 0.20386, 
			 "cosmo_polarized_energy": -9.24, 
			 "cosmo_cavitation_energy": 36.26, 
			 "cosmo_dispersion_energy": -25.87, 
			 "cosmo_repulsion_energy": 2.0, 
			 "cosmo_total_nonelectrostatic_energy": 12.39, 
			 "SMD_solvation_energy": 4.61 
		},
		"coords": [
			{
				"x": 3.3559648803,
				"y": -1.2438613692,
				"z": 2.3518425534,
				"element": "O" 
			},
			{
				"x": 2.3730387363,
				"y": -0.7220009103,
				"z": 1.460647428,
				"element": "C" 
			},
			{
				"x": 1.5880837803,
				"y": -1.8420706921,
				"z": 0.7595690505,
				"element": "C" 
			},
			{
				"x": 0.3606659399,
				"y": -1.3162561088,
				"z": -0.0660205236,
				"element": "C" 
			},
			{
				"x": -0.9806817644,
				"y": -1.8437772414,
				"z": 0.4827241123,
				"element": "C" 
			},
			{
				"x": -1.3032051451,
				"y": -1.2515801411,
				"z": 1.8647411234,
				"element": "C" 
			},
			{
				"x": -1.1304717771,
				"y": 0.2766931433,
				"z": 1.87528631,
				"element": "C" 
			},
			{
				"x": 0.2222536541,
				"y": 0.7016144839,
				"z": 1.2661747879,
				"element": "C" 
			},
			{
				"x": 1.432608006,
				"y": 0.2670038138,
				"z": 2.164876578,
				"element": "C" 
			},
			{
				"x": 0.2739489946,
				"y": 0.1520543043,
				"z": -0.0958723432,
				"element": "N" 
			},
			{
				"x": 1.1223062247,
				"y": 0.831622079,
				"z": -1.0692365256,
				"element": "C" 
			},
			{
				"x": 0.6521648109,
				"y": 0.6302628659,
				"z": -2.5026209488,
				"element": "C" 
			},
			{
				"x": -0.7079844106,
				"y": 0.7164502483,
				"z": -2.8298287872,
				"element": "C" 
			},
			{
				"x": -1.1309309289,
				"y": 0.5806030045,
				"z": -4.1514226598,
				"element": "C" 
			},
			{
				"x": -0.199430126,
				"y": 0.3565037877,
				"z": -5.1691643835,
				"element": "C" 
			},
			{
				"x": 1.1563716019,
				"y": 0.2654642497,
				"z": -4.8535895438,
				"element": "C" 
			},
			{
				"x": 1.5759785483,
				"y": 0.3986216033,
				"z": -3.5277367321,
				"element": "C" 
			},
			{
				"x": 2.8888131937,
				"y": -1.7429368491,
				"z": 3.0361886601,
				"element": "H" 
			},
			{
				"x": 2.9644649067,
				"y": -0.1794795975,
				"z": 0.7169836262,
				"element": "H" 
			},
			{
				"x": 2.2736805915,
				"y": -2.4126066467,
				"z": 0.1251800315,
				"element": "H" 
			},
			{
				"x": 1.2409955011,
				"y": -2.5408655626,
				"z": 1.5343433444,
				"element": "H" 
			},
			{
				"x": 0.4582789127,
				"y": -1.650359806,
				"z": -1.1030911027,
				"element": "H" 
			},
			{
				"x": -1.7661645091,
				"y": -1.5620033552,
				"z": -0.2281973805,
				"element": "H" 
			},
			{
				"x": -0.9613072839,
				"y": -2.9396889531,
				"z": 0.5310411213,
				"element": "H" 
			},
			{
				"x": -2.3246546617,
				"y": -1.517242844,
				"z": 2.1607909066,
				"element": "H" 
			},
			{
				"x": -0.6471502866,
				"y": -1.7017836042,
				"z": 2.6214022716,
				"element": "H" 
			},
			{
				"x": -1.9261710786,
				"y": 0.7375024738,
				"z": 1.2781153841,
				"element": "H" 
			},
			{
				"x": -1.2203770608,
				"y": 0.6654167593,
				"z": 2.8973806385,
				"element": "H" 
			},
			{
				"x": 0.2251556629,
				"y": 1.7928606382,
				"z": 1.1705045099,
				"element": "H" 
			},
			{
				"x": 1.0642553609,
				"y": -0.2152234338,
				"z": 3.0817094573,
				"element": "H" 
			},
			{
				"x": 2.0109302489,
				"y": 1.1367181898,
				"z": 2.4926295954,
				"element": "H" 
			},
			{
				"x": 2.1892193698,
				"y": 0.5526048254,
				"z": -1.0161941041,
				"element": "H" 
			},
			{
				"x": 1.0824154374,
				"y": 1.9034645987,
				"z": -0.8322044108,
				"element": "H" 
			},
			{
				"x": -1.4263198282,
				"y": 0.8783096702,
				"z": -2.0319757623,
				"element": "H" 
			},
			{
				"x": -2.1890220322,
				"y": 0.649883379,
				"z": -4.3895406612,
				"element": "H" 
			},
			{
				"x": -0.5296057105,
				"y": 0.2495876884,
				"z": -6.1986315164,
				"element": "H" 
			},
			{
				"x": 1.8878533575,
				"y": 0.0838270683,
				"z": -5.6362420496,
				"element": "H" 
			},
			{
				"x": 2.6338288833,
				"y": 0.3211682405,
				"z": -3.2861620554,
				"element": "H" 
			}
		],
		 "valence_orbital": [ 
			{
				"type": "occ",
				"energy": -0.29774,
				"method": "rhf"
			},
			{
				"type": "occ",
				"energy": -0.25578,
				"method": "rhf"
			},
			{
				"type": "occ",
				"energy": -0.2449,
				"method": "rhf"
			},
			{
				"type": "occ",
				"energy": -0.23916,
				"method": "rhf"
			},
			{
				"type": "occ",
				"energy": -0.20331,
				"method": "rhf"
			},
			{
				"type": "unocc",
				"energy": 0.00055,
				"method": "rhf"
			},
			{
				"type": "unocc",
				"energy": 0.00413,
				"method": "rhf"
			},
			{
				"type": "unocc",
				"energy": 0.06852,
				"method": "rhf"
			},
			{
				"type": "unocc",
				"energy": 0.079,
				"method": "rhf"
			},
			{
				"type": "unocc",
				"energy": 0.09623,
				"method": "rhf"
			}
		],
		"cosmo_sigma_profile": { 
			"-0.025": 0.0,
			"-0.024": 0.0,
			"-0.023": 0.0,
			"-0.022": 0.0,
			"-0.021": 0.0,
			"-0.02": 0.0,
			"-0.019": 0.0,
			"-0.018": 0.0,
			"-0.017": 0.0,
			"-0.016": 0.0,
			"-0.015": 0.0383101550582,
			"-0.014": 0.786218762119,
			"-0.013": 0.937308792382,
			"-0.012": 0.759375176975,
			"-0.011": 0.836092915433,
			"-0.01": 1.36761235152,
			"-0.009": 0.812110108709,
			"-0.008": 1.22192135206,
			"-0.007": 1.10800298269,
			"-0.006": 2.91479033792,
			"-0.005": 10.4324809405,
			"-0.004": 19.3764657623,
			"-0.003": 28.3792266868,
			"-0.002": 41.013996351,
			"-0.001": 36.255401891,
			"0.0": 32.9712753639,
			"0.001": 28.4104405828,
			"0.002": 13.6283605642,
			"0.003": 11.5484827811,
			"0.004": 9.99201466203,
			"0.005": 9.65479450696,
			"0.006": 10.8427693015,
			"0.007": 6.12159633646,
			"0.008": 1.31803649604,
			"0.009": 1.48316606853,
			"0.01": 1.4070434242,
			"0.011": 1.05150354106,
			"0.012": 1.28101553283,
			"0.013": 1.849040205,
			"0.014": 1.92621621222,
			"0.015": 1.91273111702,
			"0.016": 0.0229172577752,
			"0.017": 0.0,
			"0.018": 0.0,
			"0.019": 0.0,
			"0.02": 0.0,
			"0.021": 0.0,
			"0.022": 0.0,
			"0.023": 0.0,
			"0.024": 0.0,
			"0.025": 0.0
		}
	}
}
