{
	 "smiles": "CCC1=C(NC(C)=C1C(C)=O)C(O)=O", 
	 "Tm": 476.15, 
	 "num_atms": 27, 
	 "gaussian": { 
		 "optdone": 1, 
		 "sigma_profile": "yes", 
		 "theory": "DFT", 
		 "functional": "B3LYP", 
		 "basiset": "6-31G**", 
		 "properties": { 
			 "R2extent": 3284.4706, 
			 "electric_dipole_moment_norm": 7.22611756893, 
			 "electric_quadrupole_moment_norm": 14.6460376625, 
			 "total_energy": -669.341669801, 
			 "HOMO_LUMO_gap": 0.19697, 
			 "cosmo_polarized_energy": -24.63, 
			 "cosmo_cavitation_energy": 30.12, 
			 "cosmo_dispersion_energy": -21.44, 
			 "cosmo_repulsion_energy": 1.69, 
			 "cosmo_total_nonelectrostatic_energy": 10.38, 
			 "SMD_solvation_energy": 6.75 
		},
		"coords": [
			{
				"x": -1.4380041402,
				"y": 3.1608562258,
				"z": 0.5299328811,
				"element": "C" 
			},
			{
				"x": -0.1672485725,
				"y": 2.8759507883,
				"z": -0.2919020747,
				"element": "C" 
			},
			{
				"x": 0.1727851554,
				"y": 1.4121753697,
				"z": -0.3614119131,
				"element": "C" 
			},
			{
				"x": -0.135393942,
				"y": 0.5690856762,
				"z": -1.417477556,
				"element": "C" 
			},
			{
				"x": 0.2961201031,
				"y": -0.7134767212,
				"z": -1.0777091168,
				"element": "N" 
			},
			{
				"x": 0.9042709615,
				"y": -0.7091704782,
				"z": 0.1389649988,
				"element": "C" 
			},
			{
				"x": 1.5010083865,
				"y": -1.981459999,
				"z": 0.6608685544,
				"element": "C" 
			},
			{
				"x": 0.8215070964,
				"y": 0.6008333299,
				"z": 0.639929755,
				"element": "C" 
			},
			{
				"x": 1.31347303,
				"y": 1.1072261515,
				"z": 1.9383337461,
				"element": "C" 
			},
			{
				"x": 2.0793884593,
				"y": 0.180042094,
				"z": 2.8727974335,
				"element": "C" 
			},
			{
				"x": 1.1223035358,
				"y": 2.269274105,
				"z": 2.279671446,
				"element": "O" 
			},
			{
				"x": -0.8090668075,
				"y": 0.8344681909,
				"z": -2.6948046368,
				"element": "C" 
			},
			{
				"x": -1.382272016,
				"y": -0.2695120961,
				"z": -3.2882965522,
				"element": "O" 
			},
			{
				"x": -0.8658743404,
				"y": 1.9070636439,
				"z": -3.2488803127,
				"element": "O" 
			},
			{
				"x": -1.6501409532,
				"y": 4.2347832594,
				"z": 0.5342151353,
				"element": "H" 
			},
			{
				"x": -1.3096075645,
				"y": 2.8370831777,
				"z": 1.5654293949,
				"element": "H" 
			},
			{
				"x": -2.3071923235,
				"y": 2.6482828788,
				"z": 0.1042682596,
				"element": "H" 
			},
			{
				"x": -0.297807415,
				"y": 3.2446043899,
				"z": -1.3115290745,
				"element": "H" 
			},
			{
				"x": 0.6699214592,
				"y": 3.4085198256,
				"z": 0.1653860379,
				"element": "H" 
			},
			{
				"x": 0.3737536942,
				"y": -1.4755157374,
				"z": -1.7360873605,
				"element": "H" 
			},
			{
				"x": 2.5774715009,
				"y": -1.8900918804,
				"z": 0.8338808492,
				"element": "H" 
			},
			{
				"x": 1.3492461284,
				"y": -2.7945255595,
				"z": -0.0556767787,
				"element": "H" 
			},
			{
				"x": 1.0441737079,
				"y": -2.2900320156,
				"z": 1.6061164368,
				"element": "H" 
			},
			{
				"x": 2.9772884941,
				"y": -0.2232355401,
				"z": 2.3928302447,
				"element": "H" 
			},
			{
				"x": 2.36996439,
				"y": 0.7543640533,
				"z": 3.7530972122,
				"element": "H" 
			},
			{
				"x": 1.4634695089,
				"y": -0.6691760448,
				"z": 3.1874296675,
				"element": "H" 
			},
			{
				"x": -1.5941375366,
				"y": -0.9286170875,
				"z": -2.6118766772,
				"element": "H" 
			}
		],
		 "valence_orbital": [ 
			{
				"type": "occ",
				"energy": -0.319,
				"method": "rhf"
			},
			{
				"type": "occ",
				"energy": -0.27437,
				"method": "rhf"
			},
			{
				"type": "occ",
				"energy": -0.26088,
				"method": "rhf"
			},
			{
				"type": "occ",
				"energy": -0.24414,
				"method": "rhf"
			},
			{
				"type": "occ",
				"energy": -0.23437,
				"method": "rhf"
			},
			{
				"type": "unocc",
				"energy": -0.0374,
				"method": "rhf"
			},
			{
				"type": "unocc",
				"energy": -0.0344,
				"method": "rhf"
			},
			{
				"type": "unocc",
				"energy": 0.03586,
				"method": "rhf"
			},
			{
				"type": "unocc",
				"energy": 0.06022,
				"method": "rhf"
			},
			{
				"type": "unocc",
				"energy": 0.06952,
				"method": "rhf"
			}
		],
		"cosmo_sigma_profile": { 
			"-0.025": 0.0,
			"-0.024": 0.0,
			"-0.023": 0.0,
			"-0.022": 0.0,
			"-0.021": 0.0,
			"-0.02": 0.0,
			"-0.019": 0.655066235949,
			"-0.018": 1.7559358084,
			"-0.017": 2.27178136896,
			"-0.016": 1.42019620119,
			"-0.015": 2.42695843385,
			"-0.014": 1.908089856,
			"-0.013": 2.14003066045,
			"-0.012": 2.13589497908,
			"-0.011": 1.44639379409,
			"-0.01": 1.42142344753,
			"-0.009": 1.43817577023,
			"-0.008": 2.16944430045,
			"-0.007": 5.49498471004,
			"-0.006": 9.44838662708,
			"-0.005": 9.6890997234,
			"-0.004": 11.2749732914,
			"-0.003": 15.5119580703,
			"-0.002": 20.5208536283,
			"-0.001": 21.463889073,
			"0.0": 20.2980367118,
			"0.001": 20.4273742059,
			"0.002": 15.6828711014,
			"0.003": 10.2696235121,
			"0.004": 7.33944252151,
			"0.005": 4.55877754397,
			"0.006": 3.92513447696,
			"0.007": 4.4919708912,
			"0.008": 4.58300742158,
			"0.009": 5.01139766162,
			"0.01": 5.66471776027,
			"0.011": 6.75608783565,
			"0.012": 7.60488485718,
			"0.013": 4.41289277039,
			"0.014": 1.63324481559,
			"0.015": 0.151432893157,
			"0.016": 0.0,
			"0.017": 0.0,
			"0.018": 0.0,
			"0.019": 0.0,
			"0.02": 0.0,
			"0.021": 0.0,
			"0.022": 0.0,
			"0.023": 0.0,
			"0.024": 0.0,
			"0.025": 0.0
		}
	}
}
