{
	 "smiles": "N#CC1=CC=C(S1)C1=CC=CS1", 
	 "Tm": 373.15, 
	 "num_atms": 17, 
	 "gaussian": { 
		 "optdone": 1, 
		 "sigma_profile": "yes", 
		 "theory": "DFT", 
		 "functional": "B3LYP", 
		 "basiset": "6-31G**", 
		 "properties": { 
			 "R2extent": 3353.1819, 
			 "electric_dipole_moment_norm": 5.47386093356, 
			 "electric_quadrupole_moment_norm": 21.6095617117, 
			 "total_energy": -1197.0530633, 
			 "HOMO_LUMO_gap": 0.14212, 
			 "cosmo_polarized_energy": -9.69, 
			 "cosmo_cavitation_energy": 25.99, 
			 "cosmo_dispersion_energy": -19.69, 
			 "cosmo_repulsion_energy": 1.45, 
			 "cosmo_total_nonelectrostatic_energy": 7.75, 
			 "SMD_solvation_energy": 5.57 
		},
		"coords": [
			{
				"x": 0.0142307971,
				"y": -1.1485630015,
				"z": 5.0361403711,
				"element": "N" 
			},
			{
				"x": 0.1464414425,
				"y": -1.0289107539,
				"z": 3.8842636559,
				"element": "C" 
			},
			{
				"x": 0.3088267125,
				"y": -0.8790296931,
				"z": 2.4878605129,
				"element": "C" 
			},
			{
				"x": 0.1817090604,
				"y": -1.8483164215,
				"z": 1.5143046738,
				"element": "C" 
			},
			{
				"x": 0.4125257895,
				"y": -1.3541575337,
				"z": 0.2105701857,
				"element": "C" 
			},
			{
				"x": 0.7179745672,
				"y": -0.0051690276,
				"z": 0.1724928706,
				"element": "C" 
			},
			{
				"x": 0.7208473131,
				"y": 0.6721584614,
				"z": 1.7861784061,
				"element": "S" 
			},
			{
				"x": 1.0097971477,
				"y": 0.8247691313,
				"z": -0.9779997719,
				"element": "C" 
			},
			{
				"x": 1.3151602776,
				"y": 2.1697560604,
				"z": -1.0214319735,
				"element": "C" 
			},
			{
				"x": 1.5454335647,
				"y": 2.6574456461,
				"z": -2.3370819653,
				"element": "C" 
			},
			{
				"x": 1.4156228581,
				"y": 1.6860613498,
				"z": -3.2925126438,
				"element": "C" 
			},
			{
				"x": 1.0083277762,
				"y": 0.1520694868,
				"z": -2.5991733186,
				"element": "S" 
			},
			{
				"x": -0.0695938119,
				"y": -2.8767838925,
				"z": 1.7433060926,
				"element": "H" 
			},
			{
				"x": 0.3565642745,
				"y": -1.9707104527,
				"z": -0.6790366119,
				"element": "H" 
			},
			{
				"x": 1.3729404302,
				"y": 2.7916325815,
				"z": -0.1347966378,
				"element": "H" 
			},
			{
				"x": 1.7968572693,
				"y": 3.6871405811,
				"z": -2.5625347531,
				"element": "H" 
			},
			{
				"x": 1.5341345314,
				"y": 1.7756074783,
				"z": -4.3633490929,
				"element": "H" 
			}
		],
		 "valence_orbital": [ 
			{
				"type": "occ",
				"energy": -0.33211,
				"method": "rhf"
			},
			{
				"type": "occ",
				"energy": -0.28798,
				"method": "rhf"
			},
			{
				"type": "occ",
				"energy": -0.27936,
				"method": "rhf"
			},
			{
				"type": "occ",
				"energy": -0.26901,
				"method": "rhf"
			},
			{
				"type": "occ",
				"energy": -0.22182,
				"method": "rhf"
			},
			{
				"type": "unocc",
				"energy": -0.0797,
				"method": "rhf"
			},
			{
				"type": "unocc",
				"energy": -0.01939,
				"method": "rhf"
			},
			{
				"type": "unocc",
				"energy": -0.00646,
				"method": "rhf"
			},
			{
				"type": "unocc",
				"energy": 0.00488,
				"method": "rhf"
			},
			{
				"type": "unocc",
				"energy": 0.02059,
				"method": "rhf"
			}
		],
		"cosmo_sigma_profile": { 
			"-0.025": 0.0,
			"-0.024": 0.0,
			"-0.023": 0.0,
			"-0.022": 0.0,
			"-0.021": 0.0,
			"-0.02": 0.0,
			"-0.019": 0.0,
			"-0.018": 0.0,
			"-0.017": 0.0,
			"-0.016": 0.0,
			"-0.015": 0.0,
			"-0.014": 0.0,
			"-0.013": 0.0,
			"-0.012": 0.0,
			"-0.011": 0.0,
			"-0.01": 0.196637424011,
			"-0.009": 3.69015467795,
			"-0.008": 6.99427132393,
			"-0.007": 9.99003502334,
			"-0.006": 10.4022332687,
			"-0.005": 10.9079860947,
			"-0.004": 10.9727035662,
			"-0.003": 10.9117769359,
			"-0.002": 12.6210485436,
			"-0.001": 15.1242147606,
			"0.0": 20.1713930518,
			"0.001": 25.9779868616,
			"0.002": 23.3444221655,
			"0.003": 18.4883463489,
			"0.004": 10.3514718159,
			"0.005": 3.85149489389,
			"0.006": 2.86312523789,
			"0.007": 2.38046734528,
			"0.008": 3.70766009985,
			"0.009": 2.95673782907,
			"0.01": 3.35811286812,
			"0.011": 2.67181132236,
			"0.012": 2.53635821256,
			"0.013": 1.35168544271,
			"0.014": 0.0063299355914,
			"0.015": 0.0,
			"0.016": 0.0,
			"0.017": 0.0,
			"0.018": 0.0,
			"0.019": 0.0,
			"0.02": 0.0,
			"0.021": 0.0,
			"0.022": 0.0,
			"0.023": 0.0,
			"0.024": 0.0,
			"0.025": 0.0
		}
	}
}
