{
	 "smiles": "CNS(=O)(=O)CCC(=O)OCC1=CC=CC=C1", 
	 "Tm": 333.15, 
	 "num_atms": 32, 
	 "gaussian": { 
		 "optdone": 1, 
		 "sigma_profile": "yes", 
		 "theory": "DFT", 
		 "functional": "B3LYP", 
		 "basiset": "6-31G**", 
		 "properties": { 
			 "R2extent": 6816.5594, 
			 "electric_dipole_moment_norm": 4.5420113309, 
			 "electric_quadrupole_moment_norm": 16.1136764778, 
			 "total_energy": -1181.99342884, 
			 "HOMO_LUMO_gap": 0.2374, 
			 "cosmo_polarized_energy": -18.73, 
			 "cosmo_cavitation_energy": 37.2, 
			 "cosmo_dispersion_energy": -26.33, 
			 "cosmo_repulsion_energy": 2.02, 
			 "cosmo_total_nonelectrostatic_energy": 12.9, 
			 "SMD_solvation_energy": 6.12 
		},
		"coords": [
			{
				"x": 3.5661859496,
				"y": -1.5558687551,
				"z": 1.1118085615,
				"element": "C" 
			},
			{
				"x": 2.5495098547,
				"y": -0.6960823931,
				"z": 1.7386188072,
				"element": "N" 
			},
			{
				"x": 2.9519719631,
				"y": 0.927956726,
				"z": 2.0021646691,
				"element": "S" 
			},
			{
				"x": 2.0173637031,
				"y": 1.3767689593,
				"z": 3.0421677162,
				"element": "O" 
			},
			{
				"x": 4.4002574929,
				"y": 1.1055975138,
				"z": 2.1593767096,
				"element": "O" 
			},
			{
				"x": 2.4950400753,
				"y": 1.7106712279,
				"z": 0.4311412811,
				"element": "C" 
			},
			{
				"x": 1.0450421246,
				"y": 1.4650755595,
				"z": 0.0294620679,
				"element": "C" 
			},
			{
				"x": 0.8734415641,
				"y": 0.1739947434,
				"z": -0.7532644113,
				"element": "C" 
			},
			{
				"x": 1.7469634029,
				"y": -0.3691934516,
				"z": -1.3993141892,
				"element": "O" 
			},
			{
				"x": -0.3970425791,
				"y": -0.2596071907,
				"z": -0.691322991,
				"element": "O" 
			},
			{
				"x": -0.6896380721,
				"y": -1.4667477416,
				"z": -1.4432175637,
				"element": "C" 
			},
			{
				"x": -2.1161383203,
				"y": -1.8643949585,
				"z": -1.1735417026,
				"element": "C" 
			},
			{
				"x": -3.0048659071,
				"y": -2.0732076441,
				"z": -2.2327788542,
				"element": "C" 
			},
			{
				"x": -4.3187785378,
				"y": -2.4794933078,
				"z": -1.9885099541,
				"element": "C" 
			},
			{
				"x": -4.7577301905,
				"y": -2.6698605136,
				"z": -0.678500264,
				"element": "C" 
			},
			{
				"x": -3.8777428178,
				"y": -2.4556454794,
				"z": 0.3863570786,
				"element": "C" 
			},
			{
				"x": -2.5645319037,
				"y": -2.0601176918,
				"z": 0.1401757432,
				"element": "C" 
			},
			{
				"x": 4.541568017,
				"y": -1.4986864707,
				"z": 1.6060661616,
				"element": "H" 
			},
			{
				"x": 3.196068118,
				"y": -2.583046113,
				"z": 1.1507661416,
				"element": "H" 
			},
			{
				"x": 3.6669346595,
				"y": -1.2795564762,
				"z": 0.0602244776,
				"element": "H" 
			},
			{
				"x": 2.2053205142,
				"y": -1.0452530349,
				"z": 2.6303647153,
				"element": "H" 
			},
			{
				"x": 2.70020378,
				"y": 2.7691483329,
				"z": 0.6100240188,
				"element": "H" 
			},
			{
				"x": 3.185911321,
				"y": 1.3397827687,
				"z": -0.3290409007,
				"element": "H" 
			},
			{
				"x": 0.378392538,
				"y": 1.4748868283,
				"z": 0.8951654268,
				"element": "H" 
			},
			{
				"x": 0.7137674066,
				"y": 2.2791782093,
				"z": -0.6279137698,
				"element": "H" 
			},
			{
				"x": 0.0200436965,
				"y": -2.2393510435,
				"z": -1.1289150547,
				"element": "H" 
			},
			{
				"x": -0.5169505471,
				"y": -1.27612059,
				"z": -2.5063827249,
				"element": "H" 
			},
			{
				"x": -2.6682385383,
				"y": -1.9172400753,
				"z": -3.2547101233,
				"element": "H" 
			},
			{
				"x": -4.998110236,
				"y": -2.6395904847,
				"z": -2.8207445968,
				"element": "H" 
			},
			{
				"x": -5.780271956,
				"y": -2.9813095726,
				"z": -0.4856979067,
				"element": "H" 
			},
			{
				"x": -4.2157562615,
				"y": -2.5996508499,
				"z": 1.4085754833,
				"element": "H" 
			},
			{
				"x": -1.8826903136,
				"y": -1.8890370311,
				"z": 0.9683959478,
				"element": "H" 
			}
		],
		 "valence_orbital": [ 
			{
				"type": "occ",
				"energy": -0.29502,
				"method": "rhf"
			},
			{
				"type": "occ",
				"energy": -0.28737,
				"method": "rhf"
			},
			{
				"type": "occ",
				"energy": -0.27309,
				"method": "rhf"
			},
			{
				"type": "occ",
				"energy": -0.2588,
				"method": "rhf"
			},
			{
				"type": "occ",
				"energy": -0.2539,
				"method": "rhf"
			},
			{
				"type": "unocc",
				"energy": -0.0165,
				"method": "rhf"
			},
			{
				"type": "unocc",
				"energy": -0.00906,
				"method": "rhf"
			},
			{
				"type": "unocc",
				"energy": 0.00154,
				"method": "rhf"
			},
			{
				"type": "unocc",
				"energy": 0.05982,
				"method": "rhf"
			},
			{
				"type": "unocc",
				"energy": 0.07658,
				"method": "rhf"
			}
		],
		"cosmo_sigma_profile": { 
			"-0.025": 0.0,
			"-0.024": 0.0,
			"-0.023": 0.0,
			"-0.022": 0.0,
			"-0.021": 0.0,
			"-0.02": 0.0,
			"-0.019": 0.0,
			"-0.018": 0.0,
			"-0.017": 0.0,
			"-0.016": 0.0,
			"-0.015": 0.233113981143,
			"-0.014": 0.99843843525,
			"-0.013": 1.25422363631,
			"-0.012": 1.12645045809,
			"-0.011": 1.00550944694,
			"-0.01": 1.11479324548,
			"-0.009": 3.35575775279,
			"-0.008": 7.44827588469,
			"-0.007": 10.1362541771,
			"-0.006": 20.0024354246,
			"-0.005": 24.217218481,
			"-0.004": 27.8599056568,
			"-0.003": 24.7626809385,
			"-0.002": 19.1541879732,
			"-0.001": 14.0740680507,
			"0.0": 12.9717787007,
			"0.001": 13.0101386786,
			"0.002": 13.303475544,
			"0.003": 14.4181585728,
			"0.004": 15.0075367177,
			"0.005": 16.1427924118,
			"0.006": 9.45217409063,
			"0.007": 4.76649605922,
			"0.008": 5.49496327785,
			"0.009": 4.92316234333,
			"0.01": 6.08002865109,
			"0.011": 13.3803536663,
			"0.012": 8.22681871148,
			"0.013": 0.231621741883,
			"0.014": 0.0,
			"0.015": 0.0,
			"0.016": 0.0,
			"0.017": 0.0,
			"0.018": 0.0,
			"0.019": 0.0,
			"0.02": 0.0,
			"0.021": 0.0,
			"0.022": 0.0,
			"0.023": 0.0,
			"0.024": 0.0,
			"0.025": 0.0
		}
	}
}
