{
	 "smiles": "CCOC(=O)C1(CCN(C)CC1)C1=CC=CC=C1", 
	 "Tm": 543.15, 
	 "num_atms": 39, 
	 "gaussian": { 
		 "optdone": 1, 
		 "sigma_profile": "yes", 
		 "theory": "DFT", 
		 "functional": "B3LYP", 
		 "basiset": "6-31G**", 
		 "properties": { 
			 "R2extent": 4649.9391, 
			 "electric_dipole_moment_norm": 1.62701650268, 
			 "electric_quadrupole_moment_norm": 9.62559868268, 
			 "total_energy": -789.457915773, 
			 "HOMO_LUMO_gap": 0.20459, 
			 "cosmo_polarized_energy": -9.17, 
			 "cosmo_cavitation_energy": 38.76, 
			 "cosmo_dispersion_energy": -26.34, 
			 "cosmo_repulsion_energy": 2.05, 
			 "cosmo_total_nonelectrostatic_energy": 14.46, 
			 "SMD_solvation_energy": 6.16 
		},
		"coords": [
			{
				"x": -0.8971751717,
				"y": -2.8644325936,
				"z": 2.109854227,
				"element": "C" 
			},
			{
				"x": -1.737476307,
				"y": -1.6328191021,
				"z": 1.8074532615,
				"element": "C" 
			},
			{
				"x": -1.2475703949,
				"y": -0.9243593025,
				"z": 0.6443029508,
				"element": "O" 
			},
			{
				"x": -0.241900903,
				"y": -0.0453096375,
				"z": 0.8575865479,
				"element": "C" 
			},
			{
				"x": 0.2647644923,
				"y": 0.1368930146,
				"z": 1.9458049531,
				"element": "O" 
			},
			{
				"x": 0.2493929343,
				"y": 0.6351710543,
				"z": -0.4365752871,
				"element": "C" 
			},
			{
				"x": -0.8982354486,
				"y": 0.8797455077,
				"z": -1.4579320944,
				"element": "C" 
			},
			{
				"x": -1.7779361257,
				"y": 2.0893925577,
				"z": -1.057949084,
				"element": "C" 
			},
			{
				"x": -1.6148860607,
				"y": 2.3792559578,
				"z": 0.3627210214,
				"element": "N" 
			},
			{
				"x": -2.644366103,
				"y": 3.2524892041,
				"z": 0.8975885343,
				"element": "C" 
			},
			{
				"x": -0.2709617255,
				"y": 2.8814853702,
				"z": 0.6501555805,
				"element": "C" 
			},
			{
				"x": 0.8101165208,
				"y": 2.0145401711,
				"z": -0.0350599728,
				"element": "C" 
			},
			{
				"x": 1.3076073732,
				"y": -0.296328966,
				"z": -1.0612936637,
				"element": "C" 
			},
			{
				"x": 2.6421414025,
				"y": 0.0945298903,
				"z": -1.2350222154,
				"element": "C" 
			},
			{
				"x": 3.572418828,
				"y": -0.7625609716,
				"z": -1.8285442705,
				"element": "C" 
			},
			{
				"x": 3.1892147393,
				"y": -2.0315371051,
				"z": -2.2585718214,
				"element": "C" 
			},
			{
				"x": 1.8642162605,
				"y": -2.4371294654,
				"z": -2.087576662,
				"element": "C" 
			},
			{
				"x": 0.936838394,
				"y": -1.5806595934,
				"z": -1.4965161664,
				"element": "C" 
			},
			{
				"x": -1.3330759859,
				"y": -3.4129568298,
				"z": 2.9518440825,
				"element": "H" 
			},
			{
				"x": 0.121707825,
				"y": -2.5759054378,
				"z": 2.3776584062,
				"element": "H" 
			},
			{
				"x": -0.8600639332,
				"y": -3.5356332325,
				"z": 1.2465994186,
				"element": "H" 
			},
			{
				"x": -1.7463904774,
				"y": -0.944831973,
				"z": 2.655908788,
				"element": "H" 
			},
			{
				"x": -2.7643640389,
				"y": -1.9022990918,
				"z": 1.5476508432,
				"element": "H" 
			},
			{
				"x": -0.4465180263,
				"y": 1.0570962393,
				"z": -2.4392457712,
				"element": "H" 
			},
			{
				"x": -1.508438566,
				"y": -0.0204019878,
				"z": -1.5424684327,
				"element": "H" 
			},
			{
				"x": -2.8327027852,
				"y": 1.8631883245,
				"z": -1.2451408525,
				"element": "H" 
			},
			{
				"x": -1.5323249154,
				"y": 2.9720687892,
				"z": -1.6820055262,
				"element": "H" 
			},
			{
				"x": -2.6453137246,
				"y": 4.2600093042,
				"z": 0.4376373993,
				"element": "H" 
			},
			{
				"x": -3.6318617808,
				"y": 2.8067172623,
				"z": 0.7397034248,
				"element": "H" 
			},
			{
				"x": -2.4955731412,
				"y": 3.3782431959,
				"z": 1.9752065043,
				"element": "H" 
			},
			{
				"x": -0.1562378527,
				"y": 3.9345865782,
				"z": 0.3251061836,
				"element": "H" 
			},
			{
				"x": -0.1342399278,
				"y": 2.8569750987,
				"z": 1.7357357311,
				"element": "H" 
			},
			{
				"x": 1.1733299455,
				"y": 2.5081392376,
				"z": -0.9431068886,
				"element": "H" 
			},
			{
				"x": 1.6583523912,
				"y": 1.8996999151,
				"z": 0.642322043,
				"element": "H" 
			},
			{
				"x": 2.9723997698,
				"y": 1.074050246,
				"z": -0.909703161,
				"element": "H" 
			},
			{
				"x": 4.6002079827,
				"y": -0.4321445631,
				"z": -1.9513051185,
				"element": "H" 
			},
			{
				"x": 3.9130693369,
				"y": -2.6977798313,
				"z": -2.7190488697,
				"element": "H" 
			},
			{
				"x": 1.5498186662,
				"y": -3.4247614251,
				"z": -2.4139300856,
				"element": "H" 
			},
			{
				"x": -0.0857834667,
				"y": -1.9157258094,
				"z": -1.3606439572,
				"element": "H" 
			}
		],
		 "valence_orbital": [ 
			{
				"type": "occ",
				"energy": -0.28842,
				"method": "rhf"
			},
			{
				"type": "occ",
				"energy": -0.26187,
				"method": "rhf"
			},
			{
				"type": "occ",
				"energy": -0.24568,
				"method": "rhf"
			},
			{
				"type": "occ",
				"energy": -0.23752,
				"method": "rhf"
			},
			{
				"type": "occ",
				"energy": -0.20855,
				"method": "rhf"
			},
			{
				"type": "unocc",
				"energy": -0.00396,
				"method": "rhf"
			},
			{
				"type": "unocc",
				"energy": 0.00171,
				"method": "rhf"
			},
			{
				"type": "unocc",
				"energy": 0.03574,
				"method": "rhf"
			},
			{
				"type": "unocc",
				"energy": 0.08122,
				"method": "rhf"
			},
			{
				"type": "unocc",
				"energy": 0.09522,
				"method": "rhf"
			}
		],
		"cosmo_sigma_profile": { 
			"-0.025": 0.0,
			"-0.024": 0.0,
			"-0.023": 0.0,
			"-0.022": 0.0,
			"-0.021": 0.0,
			"-0.02": 0.0,
			"-0.019": 0.0,
			"-0.018": 0.0,
			"-0.017": 0.0,
			"-0.016": 0.0,
			"-0.015": 0.0,
			"-0.014": 0.0,
			"-0.013": 0.0,
			"-0.012": 0.0,
			"-0.011": 0.0,
			"-0.01": 0.0,
			"-0.009": 0.0,
			"-0.008": 0.0,
			"-0.007": 0.0,
			"-0.006": 3.15427078304,
			"-0.005": 12.2112522806,
			"-0.004": 27.2857013411,
			"-0.003": 40.6480666092,
			"-0.002": 42.2449242403,
			"-0.001": 42.8948561497,
			"0.0": 35.9793342865,
			"0.001": 19.6427169237,
			"0.002": 12.1140487467,
			"0.003": 10.2827863067,
			"0.004": 13.4168426615,
			"0.005": 12.0027246496,
			"0.006": 11.2480675042,
			"0.007": 3.789719825,
			"0.008": 3.30615292522,
			"0.009": 3.03219034386,
			"0.01": 2.75419337612,
			"0.011": 1.62379612336,
			"0.012": 3.40267659748,
			"0.013": 1.46980801403,
			"0.014": 0.0,
			"0.015": 0.0,
			"0.016": 0.0,
			"0.017": 0.0,
			"0.018": 0.0,
			"0.019": 0.0,
			"0.02": 0.0,
			"0.021": 0.0,
			"0.022": 0.0,
			"0.023": 0.0,
			"0.024": 0.0,
			"0.025": 0.0
		}
	}
}
