{
	 "smiles": "[O-][N+](=O)C1=CC(C=O)=C(C=C1)N1CCCC1", 
	 "Tm": 410.15, 
	 "num_atms": 28, 
	 "gaussian": { 
		 "optdone": 1, 
		 "sigma_profile": "yes", 
		 "theory": "DFT", 
		 "functional": "B3LYP", 
		 "basiset": "6-31G**", 
		 "properties": { 
			 "R2extent": 5517.183, 
			 "electric_dipole_moment_norm": 8.58928819752, 
			 "electric_quadrupole_moment_norm": 26.0011348839, 
			 "total_energy": -761.461355998, 
			 "HOMO_LUMO_gap": 0.14772, 
			 "cosmo_polarized_energy": -15.0, 
			 "cosmo_cavitation_energy": 31.39, 
			 "cosmo_dispersion_energy": -22.87, 
			 "cosmo_repulsion_energy": 1.77, 
			 "cosmo_total_nonelectrostatic_energy": 10.29, 
			 "SMD_solvation_energy": 7.38 
		},
		"coords": [
			{
				"x": 2.254359828,
				"y": 0.077624562,
				"z": -5.7353926638,
				"element": "O" 
			},
			{
				"x": 1.8090681396,
				"y": -0.7804065176,
				"z": -4.969265124,
				"element": "N" 
			},
			{
				"x": 1.6399044412,
				"y": -1.9637225806,
				"z": -5.2649495242,
				"element": "O" 
			},
			{
				"x": 1.4556350944,
				"y": -0.3599955311,
				"z": -3.6148088245,
				"element": "C" 
			},
			{
				"x": 0.9957746985,
				"y": -1.297420701,
				"z": -2.7003253727,
				"element": "C" 
			},
			{
				"x": 0.6680388143,
				"y": -0.9014668332,
				"z": -1.4018355352,
				"element": "C" 
			},
			{
				"x": 0.4559159401,
				"y": -1.9793592426,
				"z": -0.4045763793,
				"element": "C" 
			},
			{
				"x": 0.2155059364,
				"y": -3.1383304506,
				"z": -0.6882052301,
				"element": "O" 
			},
			{
				"x": 0.7236586663,
				"y": 0.4775923165,
				"z": -1.0339900218,
				"element": "C" 
			},
			{
				"x": 1.263756346,
				"y": 1.3892895964,
				"z": -1.9728878619,
				"element": "C" 
			},
			{
				"x": 1.6220011961,
				"y": 0.9782105896,
				"z": -3.246735027,
				"element": "C" 
			},
			{
				"x": 0.2853415015,
				"y": 0.9006008769,
				"z": 0.2107730807,
				"element": "N" 
			},
			{
				"x": -1.0282591455,
				"y": 0.5171564268,
				"z": 0.7679261936,
				"element": "C" 
			},
			{
				"x": -0.9419670449,
				"y": 1.0511263634,
				"z": 2.196429888,
				"element": "C" 
			},
			{
				"x": -0.1964008599,
				"y": 2.3934609015,
				"z": 2.0266670785,
				"element": "C" 
			},
			{
				"x": 0.594582331,
				"y": 2.2542432802,
				"z": 0.6992624222,
				"element": "C" 
			},
			{
				"x": 0.9362937191,
				"y": -2.3467020752,
				"z": -2.9638545694,
				"element": "H" 
			},
			{
				"x": 0.6014141742,
				"y": -1.6745082722,
				"z": 0.6517155348,
				"element": "H" 
			},
			{
				"x": 1.3688670274,
				"y": 2.4355388191,
				"z": -1.7161165131,
				"element": "H" 
			},
			{
				"x": 2.0112394849,
				"y": 1.6803227828,
				"z": -3.9740279877,
				"element": "H" 
			},
			{
				"x": -1.8373608534,
				"y": 1.0166126897,
				"z": 0.2088186059,
				"element": "H" 
			},
			{
				"x": -1.2041440636,
				"y": -0.556322618,
				"z": 0.7170095891,
				"element": "H" 
			},
			{
				"x": -1.9236312378,
				"y": 1.1650598473,
				"z": 2.663042124,
				"element": "H" 
			},
			{
				"x": -0.3538789506,
				"y": 0.3580402996,
				"z": 2.8063339289,
				"element": "H" 
			},
			{
				"x": 0.4586379237,
				"y": 2.6107424833,
				"z": 2.8736813598,
				"element": "H" 
			},
			{
				"x": -0.9079155985,
				"y": 3.2203309746,
				"z": 1.9480224588,
				"element": "H" 
			},
			{
				"x": 0.269632962,
				"y": 3.0278586893,
				"z": -0.0121827415,
				"element": "H" 
			},
			{
				"x": 1.6767295295,
				"y": 2.3572233228,
				"z": 0.8275711118,
				"element": "H" 
			}
		],
		 "valence_orbital": [ 
			{
				"type": "occ",
				"energy": -0.30038,
				"method": "rhf"
			},
			{
				"type": "occ",
				"energy": -0.28308,
				"method": "rhf"
			},
			{
				"type": "occ",
				"energy": -0.27928,
				"method": "rhf"
			},
			{
				"type": "occ",
				"energy": -0.2622,
				"method": "rhf"
			},
			{
				"type": "occ",
				"energy": -0.2307,
				"method": "rhf"
			},
			{
				"type": "unocc",
				"energy": -0.08298,
				"method": "rhf"
			},
			{
				"type": "unocc",
				"energy": -0.07101,
				"method": "rhf"
			},
			{
				"type": "unocc",
				"energy": -0.00576,
				"method": "rhf"
			},
			{
				"type": "unocc",
				"energy": 0.0282,
				"method": "rhf"
			},
			{
				"type": "unocc",
				"energy": 0.06126,
				"method": "rhf"
			}
		],
		"cosmo_sigma_profile": { 
			"-0.025": 0.0,
			"-0.024": 0.0,
			"-0.023": 0.0,
			"-0.022": 0.0,
			"-0.021": 0.0,
			"-0.02": 0.0,
			"-0.019": 0.0,
			"-0.018": 0.0,
			"-0.017": 0.0,
			"-0.016": 0.0,
			"-0.015": 0.0,
			"-0.014": 0.0,
			"-0.013": 0.0,
			"-0.012": 0.0,
			"-0.011": 0.0,
			"-0.01": 0.0,
			"-0.009": 0.0,
			"-0.008": 1.33726093005,
			"-0.007": 5.98278257643,
			"-0.006": 9.33567563113,
			"-0.005": 15.3739431444,
			"-0.004": 29.6075593725,
			"-0.003": 33.1828254611,
			"-0.002": 27.6587464642,
			"-0.001": 22.6691580971,
			"0.0": 23.4598177686,
			"0.001": 13.6832751968,
			"0.002": 7.75818062719,
			"0.003": 5.76033413064,
			"0.004": 4.20229198177,
			"0.005": 3.95566588935,
			"0.006": 5.03808364373,
			"0.007": 5.48611121292,
			"0.008": 12.068708308,
			"0.009": 7.08461669269,
			"0.01": 7.20300816968,
			"0.011": 5.32804471017,
			"0.012": 2.46091393747,
			"0.013": 0.592612763185,
			"0.014": 0.0,
			"0.015": 0.0,
			"0.016": 0.0,
			"0.017": 0.0,
			"0.018": 0.0,
			"0.019": 0.0,
			"0.02": 0.0,
			"0.021": 0.0,
			"0.022": 0.0,
			"0.023": 0.0,
			"0.024": 0.0,
			"0.025": 0.0
		}
	}
}
