{
	 "smiles": "O=C1CCCCC1=CC1=CC=CC=C1", 
	 "Tm": 327.15, 
	 "num_atms": 28, 
	 "gaussian": { 
		 "optdone": 1, 
		 "sigma_profile": "yes", 
		 "theory": "DFT", 
		 "functional": "B3LYP", 
		 "basiset": "6-31G**", 
		 "properties": { 
			 "R2extent": 3527.3766, 
			 "electric_dipole_moment_norm": 3.17399045682, 
			 "electric_quadrupole_moment_norm": 9.60628518835, 
			 "total_energy": -579.037498333, 
			 "HOMO_LUMO_gap": 0.16777, 
			 "cosmo_polarized_energy": -8.74, 
			 "cosmo_cavitation_energy": 30.26, 
			 "cosmo_dispersion_energy": -22.07, 
			 "cosmo_repulsion_energy": 1.74, 
			 "cosmo_total_nonelectrostatic_energy": 9.93, 
			 "SMD_solvation_energy": 5.0 
		},
		"coords": [
			{
				"x": -1.0326901563,
				"y": -1.0818938857,
				"z": 2.6998632908,
				"element": "O" 
			},
			{
				"x": 0.0695552253,
				"y": -0.6787177581,
				"z": 2.3584911996,
				"element": "C" 
			},
			{
				"x": 1.1522076344,
				"y": -0.3255272706,
				"z": 3.3725591289,
				"element": "C" 
			},
			{
				"x": 1.8179191523,
				"y": 1.0145455429,
				"z": 3.0007770339,
				"element": "C" 
			},
			{
				"x": 2.4580586262,
				"y": 0.9905800975,
				"z": 1.5860527559,
				"element": "C" 
			},
			{
				"x": 1.9331245088,
				"y": -0.180243562,
				"z": 0.7207622837,
				"element": "C" 
			},
			{
				"x": 0.4585559629,
				"y": -0.4394924817,
				"z": 0.9269409829,
				"element": "C" 
			},
			{
				"x": -0.5188247353,
				"y": -0.5181967915,
				"z": -0.0021887462,
				"element": "C" 
			},
			{
				"x": -0.468519576,
				"y": -0.2896276152,
				"z": -1.4524323697,
				"element": "C" 
			},
			{
				"x": -1.3035633882,
				"y": -1.0638165356,
				"z": -2.2810693725,
				"element": "C" 
			},
			{
				"x": -1.3014000719,
				"y": -0.8955520916,
				"z": -3.6636894714,
				"element": "C" 
			},
			{
				"x": -0.4827257765,
				"y": 0.0722716689,
				"z": -4.2501081813,
				"element": "C" 
			},
			{
				"x": 0.325680857,
				"y": 0.8733178914,
				"z": -3.440519223,
				"element": "C" 
			},
			{
				"x": 0.3335548957,
				"y": 0.6963311407,
				"z": -2.0581223606,
				"element": "C" 
			},
			{
				"x": 1.9024151996,
				"y": -1.1293261299,
				"z": 3.3835002266,
				"element": "H" 
			},
			{
				"x": 0.6939495664,
				"y": -0.2958706392,
				"z": 4.3641698241,
				"element": "H" 
			},
			{
				"x": 2.5655215986,
				"y": 1.2791145142,
				"z": 3.7556270381,
				"element": "H" 
			},
			{
				"x": 1.0513429709,
				"y": 1.7967849332,
				"z": 3.0446308698,
				"element": "H" 
			},
			{
				"x": 2.2561321475,
				"y": 1.9413567707,
				"z": 1.0801790163,
				"element": "H" 
			},
			{
				"x": 3.5478717514,
				"y": 0.9061286714,
				"z": 1.660563263,
				"element": "H" 
			},
			{
				"x": 2.4676721437,
				"y": -1.0930608649,
				"z": 1.0215823769,
				"element": "H" 
			},
			{
				"x": 2.1773187613,
				"y": -0.0278587624,
				"z": -0.3313448399,
				"element": "H" 
			},
			{
				"x": -1.4881113515,
				"y": -0.8283154305,
				"z": 0.3891281206,
				"element": "H" 
			},
			{
				"x": -1.9487407461,
				"y": -1.8117375577,
				"z": -1.8277765305,
				"element": "H" 
			},
			{
				"x": -1.9447971657,
				"y": -1.5136472431,
				"z": -4.2833171218,
				"element": "H" 
			},
			{
				"x": -0.4859232028,
				"y": 0.2115454135,
				"z": -5.3272350379,
				"element": "H" 
			},
			{
				"x": 0.945113111,
				"y": 1.6464913467,
				"z": -3.8862617726,
				"element": "H" 
			},
			{
				"x": 0.9349020575,
				"y": 1.3540166285,
				"z": -1.4395623837,
				"element": "H" 
			}
		],
		 "valence_orbital": [ 
			{
				"type": "occ",
				"energy": -0.32158,
				"method": "rhf"
			},
			{
				"type": "occ",
				"energy": -0.28573,
				"method": "rhf"
			},
			{
				"type": "occ",
				"energy": -0.25599,
				"method": "rhf"
			},
			{
				"type": "occ",
				"energy": -0.23563,
				"method": "rhf"
			},
			{
				"type": "occ",
				"energy": -0.2279,
				"method": "rhf"
			},
			{
				"type": "unocc",
				"energy": -0.06013,
				"method": "rhf"
			},
			{
				"type": "unocc",
				"energy": -0.00691,
				"method": "rhf"
			},
			{
				"type": "unocc",
				"energy": 0.00825,
				"method": "rhf"
			},
			{
				"type": "unocc",
				"energy": 0.06737,
				"method": "rhf"
			},
			{
				"type": "unocc",
				"energy": 0.08229,
				"method": "rhf"
			}
		],
		"cosmo_sigma_profile": { 
			"-0.025": 0.0,
			"-0.024": 0.0,
			"-0.023": 0.0,
			"-0.022": 0.0,
			"-0.021": 0.0,
			"-0.02": 0.0,
			"-0.019": 0.0,
			"-0.018": 0.0,
			"-0.017": 0.0,
			"-0.016": 0.0,
			"-0.015": 0.0,
			"-0.014": 0.0,
			"-0.013": 0.0,
			"-0.012": 0.0,
			"-0.011": 0.0,
			"-0.01": 0.0,
			"-0.009": 0.0,
			"-0.008": 0.0,
			"-0.007": 0.0432496848758,
			"-0.006": 7.08096654279,
			"-0.005": 16.5097891793,
			"-0.004": 25.2926593685,
			"-0.003": 28.8063197121,
			"-0.002": 29.1321065531,
			"-0.001": 25.8107820663,
			"0.0": 20.7606070265,
			"0.001": 13.729230562,
			"0.002": 13.8427503959,
			"0.003": 13.4743541238,
			"0.004": 12.1307270977,
			"0.005": 12.0249689557,
			"0.006": 3.25869445481,
			"0.007": 1.75881475705,
			"0.008": 1.58939799797,
			"0.009": 1.62481080731,
			"0.01": 1.88405940017,
			"0.011": 2.35976496274,
			"0.012": 4.32514307714,
			"0.013": 3.02542989954,
			"0.014": 0.764392136712,
			"0.015": 0.0,
			"0.016": 0.0,
			"0.017": 0.0,
			"0.018": 0.0,
			"0.019": 0.0,
			"0.02": 0.0,
			"0.021": 0.0,
			"0.022": 0.0,
			"0.023": 0.0,
			"0.024": 0.0,
			"0.025": 0.0
		}
	}
}
