{
	 "smiles": "COC1=CC(C(O)=O)=C(N)C(OC)=C1OC", 
	 "Tm": 412.15, 
	 "num_atms": 29, 
	 "gaussian": { 
		 "optdone": 1, 
		 "sigma_profile": "yes", 
		 "theory": "DFT", 
		 "functional": "B3LYP", 
		 "basiset": "6-31G**", 
		 "properties": { 
			 "R2extent": 4087.9218, 
			 "electric_dipole_moment_norm": 5.63812308308, 
			 "electric_quadrupole_moment_norm": 23.4707086007, 
			 "total_energy": -819.738919523, 
			 "HOMO_LUMO_gap": 0.18246, 
			 "cosmo_polarized_energy": -17.38, 
			 "cosmo_cavitation_energy": 32.39, 
			 "cosmo_dispersion_energy": -23.22, 
			 "cosmo_repulsion_energy": 1.83, 
			 "cosmo_total_nonelectrostatic_energy": 10.99, 
			 "SMD_solvation_energy": 9.35 
		},
		"coords": [
			{
				"x": 1.5051104809,
				"y": 2.1625582109,
				"z": -1.513014302,
				"element": "C" 
			},
			{
				"x": 0.421127375,
				"y": 1.2732951257,
				"z": -1.7525323154,
				"element": "O" 
			},
			{
				"x": -0.0419788029,
				"y": 0.5386789495,
				"z": -0.7003392772,
				"element": "C" 
			},
			{
				"x": 0.4539488679,
				"y": 0.6088110373,
				"z": 0.5968283468,
				"element": "C" 
			},
			{
				"x": -0.0737950261,
				"y": -0.1959296956,
				"z": 1.6171424452,
				"element": "C" 
			},
			{
				"x": 0.613057785,
				"y": -0.1003766658,
				"z": 2.9584782256,
				"element": "C" 
			},
			{
				"x": 0.3144943127,
				"y": -1.0444354827,
				"z": 3.8652071768,
				"element": "O" 
			},
			{
				"x": 1.4242911601,
				"y": 0.7700178254,
				"z": 3.2002045991,
				"element": "O" 
			},
			{
				"x": -1.1353533261,
				"y": -1.0677196299,
				"z": 1.3365729674,
				"element": "C" 
			},
			{
				"x": -1.7175614305,
				"y": -1.8754399734,
				"z": 2.3702445617,
				"element": "N" 
			},
			{
				"x": -1.6309135711,
				"y": -1.1539937157,
				"z": 0.0208104665,
				"element": "C" 
			},
			{
				"x": -2.6845633189,
				"y": -2.0114238067,
				"z": -0.1956393758,
				"element": "O" 
			},
			{
				"x": -2.4694041962,
				"y": -3.0645206315,
				"z": -1.1498683808,
				"element": "C" 
			},
			{
				"x": -1.1004480864,
				"y": -0.3514008938,
				"z": -0.9965178058,
				"element": "C" 
			},
			{
				"x": -1.5962599652,
				"y": -0.4706461224,
				"z": -2.2686675178,
				"element": "O" 
			},
			{
				"x": -2.3512116448,
				"y": 0.6517104965,
				"z": -2.7456829875,
				"element": "C" 
			},
			{
				"x": 2.3945146897,
				"y": 1.6247830306,
				"z": -1.1633497479,
				"element": "H" 
			},
			{
				"x": 1.7213133209,
				"y": 2.6344120014,
				"z": -2.4724150457,
				"element": "H" 
			},
			{
				"x": 1.2404348121,
				"y": 2.9332091555,
				"z": -0.7786839881,
				"element": "H" 
			},
			{
				"x": 1.269563863,
				"y": 1.2667876555,
				"z": 0.86711331,
				"element": "H" 
			},
			{
				"x": -0.3482152728,
				"y": -1.6709610392,
				"z": 3.4784936092,
				"element": "H" 
			},
			{
				"x": -2.3635034804,
				"y": -1.3251566377,
				"z": 2.9355407073,
				"element": "H" 
			},
			{
				"x": -2.2664129515,
				"y": -2.6166821969,
				"z": 1.9415859929,
				"element": "H" 
			},
			{
				"x": -2.3186720646,
				"y": -2.6618430666,
				"z": -2.1528069333,
				"element": "H" 
			},
			{
				"x": -3.3714881978,
				"y": -3.6790089813,
				"z": -1.1231580145,
				"element": "H" 
			},
			{
				"x": -1.6040062435,
				"y": -3.6755159047,
				"z": -0.8647913273,
				"element": "H" 
			},
			{
				"x": -1.7288102581,
				"y": 1.5484377806,
				"z": -2.8038061895,
				"element": "H" 
			},
			{
				"x": -3.2172605891,
				"y": 0.8390819039,
				"z": -2.0998094749,
				"element": "H" 
			},
			{
				"x": -2.6963982413,
				"y": 0.3791712711,
				"z": -3.744739725,
				"element": "H" 
			}
		],
		 "valence_orbital": [ 
			{
				"type": "occ",
				"energy": -0.28788,
				"method": "rhf"
			},
			{
				"type": "occ",
				"energy": -0.28333,
				"method": "rhf"
			},
			{
				"type": "occ",
				"energy": -0.25569,
				"method": "rhf"
			},
			{
				"type": "occ",
				"energy": -0.2363,
				"method": "rhf"
			},
			{
				"type": "occ",
				"energy": -0.2197,
				"method": "rhf"
			},
			{
				"type": "unocc",
				"energy": -0.03724,
				"method": "rhf"
			},
			{
				"type": "unocc",
				"energy": 0.00186,
				"method": "rhf"
			},
			{
				"type": "unocc",
				"energy": 0.05626,
				"method": "rhf"
			},
			{
				"type": "unocc",
				"energy": 0.06692,
				"method": "rhf"
			},
			{
				"type": "unocc",
				"energy": 0.08435,
				"method": "rhf"
			}
		],
		"cosmo_sigma_profile": { 
			"-0.025": 0.0,
			"-0.024": 0.0,
			"-0.023": 0.0,
			"-0.022": 0.0,
			"-0.021": 0.0,
			"-0.02": 0.0,
			"-0.019": 0.0,
			"-0.018": 0.0,
			"-0.017": 0.0,
			"-0.016": 0.0,
			"-0.015": 0.0,
			"-0.014": 0.100458740405,
			"-0.013": 1.68840755134,
			"-0.012": 1.85872211788,
			"-0.011": 2.43532257419,
			"-0.01": 2.85474323,
			"-0.009": 1.98617192932,
			"-0.008": 2.39472088829,
			"-0.007": 2.09105419428,
			"-0.006": 11.8913716569,
			"-0.005": 23.2130964683,
			"-0.004": 24.7903051188,
			"-0.003": 29.3296653534,
			"-0.002": 20.6661181752,
			"-0.001": 14.0044647403,
			"0.0": 12.8656939836,
			"0.001": 16.3985658646,
			"0.002": 16.1501983842,
			"0.003": 13.5878728438,
			"0.004": 8.12991565162,
			"0.005": 5.79957192586,
			"0.006": 5.13836322891,
			"0.007": 4.40802976679,
			"0.008": 5.12220725048,
			"0.009": 5.83082695477,
			"0.01": 5.58211952552,
			"0.011": 5.89019852086,
			"0.012": 6.84250522541,
			"0.013": 3.96436396793,
			"0.014": 1.51070151596,
			"0.015": 0.0451498900237,
			"0.016": 0.0,
			"0.017": 0.0,
			"0.018": 0.0,
			"0.019": 0.0,
			"0.02": 0.0,
			"0.021": 0.0,
			"0.022": 0.0,
			"0.023": 0.0,
			"0.024": 0.0,
			"0.025": 0.0
		}
	}
}
