{
	 "smiles": "CC12CCCC1C1CCC3CC(O)CCC3(C)C1CC2", 
	 "Tm": 421.15, 
	 "num_atms": 52, 
	 "gaussian": { 
		 "optdone": 1, 
		 "sigma_profile": "yes", 
		 "theory": "DFT", 
		 "functional": "B3LYP", 
		 "basiset": "6-31G**", 
		 "properties": { 
			 "R2extent": 6808.7417, 
			 "electric_dipole_moment_norm": 1.83605693267, 
			 "electric_quadrupole_moment_norm": 12.3954100033, 
			 "total_energy": -818.543497355, 
			 "HOMO_LUMO_gap": 0.31387, 
			 "cosmo_polarized_energy": -6.54, 
			 "cosmo_cavitation_energy": 43.17, 
			 "cosmo_dispersion_energy": -30.65, 
			 "cosmo_repulsion_energy": 2.27, 
			 "cosmo_total_nonelectrostatic_energy": 14.79, 
			 "SMD_solvation_energy": 5.26 
		},
		"coords": [
			{
				"x": -2.9700480649,
				"y": -0.3246401573,
				"z": -1.6346641504,
				"element": "C" 
			},
			{
				"x": -2.6958748679,
				"y": 0.0505685,
				"z": -0.1603277683,
				"element": "C" 
			},
			{
				"x": -3.8034252681,
				"y": 1.0170879093,
				"z": 0.3223664908,
				"element": "C" 
			},
			{
				"x": -3.4063098381,
				"y": 2.4074867185,
				"z": -0.2480194876,
				"element": "C" 
			},
			{
				"x": -1.8798272124,
				"y": 2.321689684,
				"z": -0.5602046356,
				"element": "C" 
			},
			{
				"x": -1.4439938013,
				"y": 0.9532506205,
				"z": -0.0000398564,
				"element": "C" 
			},
			{
				"x": -0.1488712945,
				"y": 0.3230895767,
				"z": -0.5350459509,
				"element": "C" 
			},
			{
				"x": 1.0890388871,
				"y": 1.1350304667,
				"z": -0.1010371326,
				"element": "C" 
			},
			{
				"x": 2.4248533393,
				"y": 0.5200734139,
				"z": -0.590293962,
				"element": "C" 
			},
			{
				"x": 2.2712511788,
				"y": -0.9642798461,
				"z": -0.9591843537,
				"element": "C" 
			},
			{
				"x": 3.5935901465,
				"y": -1.6898356525,
				"z": -1.2318351507,
				"element": "C" 
			},
			{
				"x": 3.3647068031,
				"y": -3.070884211,
				"z": -1.9050278124,
				"element": "C" 
			},
			{
				"x": 3.6600905572,
				"y": -3.0534142208,
				"z": -3.302436225,
				"element": "O" 
			},
			{
				"x": 1.9365481566,
				"y": -3.5909543995,
				"z": -1.6459502368,
				"element": "C" 
			},
			{
				"x": 1.4694157918,
				"y": -3.2640995333,
				"z": -0.2221107018,
				"element": "C" 
			},
			{
				"x": 1.3899727509,
				"y": -1.7277642524,
				"z": 0.07585648,
				"element": "C" 
			},
			{
				"x": 1.8971132807,
				"y": -1.5219694681,
				"z": 1.5223497501,
				"element": "C" 
			},
			{
				"x": -0.0743603487,
				"y": -1.2047465108,
				"z": -0.1317559091,
				"element": "C" 
			},
			{
				"x": -1.0319898445,
				"y": -1.5247353786,
				"z": 1.0342338803,
				"element": "C" 
			},
			{
				"x": -2.5141965435,
				"y": -1.2364852698,
				"z": 0.6923327275,
				"element": "C" 
			},
			{
				"x": -3.9025074874,
				"y": -0.896841346,
				"z": -1.7009439127,
				"element": "H" 
			},
			{
				"x": -3.0811084947,
				"y": 0.5551916813,
				"z": -2.2762465271,
				"element": "H" 
			},
			{
				"x": -2.1771633247,
				"y": -0.9460678133,
				"z": -2.0610567483,
				"element": "H" 
			},
			{
				"x": -4.8071041726,
				"y": 0.7042589074,
				"z": 0.013343297,
				"element": "H" 
			},
			{
				"x": -3.8014478021,
				"y": 1.0481579853,
				"z": 1.4188505296,
				"element": "H" 
			},
			{
				"x": -3.6297908178,
				"y": 3.2048886855,
				"z": 0.4673379696,
				"element": "H" 
			},
			{
				"x": -3.974573863,
				"y": 2.6391417176,
				"z": -1.1544214657,
				"element": "H" 
			},
			{
				"x": -1.6996141413,
				"y": 2.3700070896,
				"z": -1.6408922944,
				"element": "H" 
			},
			{
				"x": -1.3204610513,
				"y": 3.1492454593,
				"z": -0.1135668606,
				"element": "H" 
			},
			{
				"x": -1.3143123294,
				"y": 1.0886127873,
				"z": 1.0853079661,
				"element": "H" 
			},
			{
				"x": -0.1896664311,
				"y": 0.3686703022,
				"z": -1.6324457768,
				"element": "H" 
			},
			{
				"x": 1.0888172627,
				"y": 1.2215605776,
				"z": 0.9921599231,
				"element": "H" 
			},
			{
				"x": 0.9914032246,
				"y": 2.1606717488,
				"z": -0.4742556866,
				"element": "H" 
			},
			{
				"x": 3.1971449315,
				"y": 0.640039063,
				"z": 0.1794983414,
				"element": "H" 
			},
			{
				"x": 2.7932812438,
				"y": 1.0600318898,
				"z": -1.4712934408,
				"element": "H" 
			},
			{
				"x": 1.7082774801,
				"y": -0.983797366,
				"z": -1.9046998642,
				"element": "H" 
			},
			{
				"x": 4.2404319452,
				"y": -1.0978573042,
				"z": -1.8899672541,
				"element": "H" 
			},
			{
				"x": 4.1487135311,
				"y": -1.8160183147,
				"z": -0.2937298906,
				"element": "H" 
			},
			{
				"x": 4.0840093206,
				"y": -3.7881051126,
				"z": -1.4939556528,
				"element": "H" 
			},
			{
				"x": 3.015359561,
				"y": -2.4715934472,
				"z": -3.7277601823,
				"element": "H" 
			},
			{
				"x": 1.2550848546,
				"y": -3.1332917239,
				"z": -2.3774964143,
				"element": "H" 
			},
			{
				"x": 1.8983503363,
				"y": -4.6690578367,
				"z": -1.8338737961,
				"element": "H" 
			},
			{
				"x": 0.4990271876,
				"y": -3.7345988623,
				"z": -0.025672003,
				"element": "H" 
			},
			{
				"x": 2.1717344824,
				"y": -3.7321896602,
				"z": 0.4803168982,
				"element": "H" 
			},
			{
				"x": 1.3641801454,
				"y": -2.1837797839,
				"z": 2.2121750795,
				"element": "H" 
			},
			{
				"x": 2.9601080065,
				"y": -1.7746112691,
				"z": 1.5982738401,
				"element": "H" 
			},
			{
				"x": 1.7738662316,
				"y": -0.5012723625,
				"z": 1.8897339789,
				"element": "H" 
			},
			{
				"x": -0.4508217345,
				"y": -1.764078418,
				"z": -1.0004806388,
				"element": "H" 
			},
			{
				"x": -0.7411545854,
				"y": -0.9422624728,
				"z": 1.9160466078,
				"element": "H" 
			},
			{
				"x": -0.9310964264,
				"y": -2.5763106849,
				"z": 1.327671948,
				"element": "H" 
			},
			{
				"x": -3.0823470546,
				"y": -1.1563855673,
				"z": 1.6274164501,
				"element": "H" 
			},
			{
				"x": -2.9360038366,
				"y": -2.0955265389,
				"z": 0.1559195845,
				"element": "H" 
			}
		],
		 "valence_orbital": [ 
			{
				"type": "occ",
				"energy": -0.29559,
				"method": "rhf"
			},
			{
				"type": "occ",
				"energy": -0.27973,
				"method": "rhf"
			},
			{
				"type": "occ",
				"energy": -0.27255,
				"method": "rhf"
			},
			{
				"type": "occ",
				"energy": -0.26387,
				"method": "rhf"
			},
			{
				"type": "occ",
				"energy": -0.2527,
				"method": "rhf"
			},
			{
				"type": "unocc",
				"energy": 0.06117,
				"method": "rhf"
			},
			{
				"type": "unocc",
				"energy": 0.0723,
				"method": "rhf"
			},
			{
				"type": "unocc",
				"energy": 0.08164,
				"method": "rhf"
			},
			{
				"type": "unocc",
				"energy": 0.09212,
				"method": "rhf"
			},
			{
				"type": "unocc",
				"energy": 0.09528,
				"method": "rhf"
			}
		],
		"cosmo_sigma_profile": { 
			"-0.025": 0.0,
			"-0.024": 0.0,
			"-0.023": 0.0,
			"-0.022": 0.0,
			"-0.021": 0.0,
			"-0.02": 0.0,
			"-0.019": 0.0,
			"-0.018": 0.0,
			"-0.017": 0.0,
			"-0.016": 0.0,
			"-0.015": 0.0,
			"-0.014": 0.479912063789,
			"-0.013": 0.604679180181,
			"-0.012": 1.1838252042,
			"-0.011": 0.918085240573,
			"-0.01": 1.46989381245,
			"-0.009": 1.47252629318,
			"-0.008": 0.690123520745,
			"-0.007": 0.806558763439,
			"-0.006": 1.81062672255,
			"-0.005": 1.40153305272,
			"-0.004": 1.53474834599,
			"-0.003": 9.95332429072,
			"-0.002": 49.592469416,
			"-0.001": 76.0171392156,
			"0.0": 71.8570002206,
			"0.001": 51.0100709476,
			"0.002": 33.9279851472,
			"0.003": 5.44347413073,
			"0.004": 1.67093151497,
			"0.005": 1.86928442187,
			"0.006": 0.828356247687,
			"0.007": 1.4228500611,
			"0.008": 1.22914786541,
			"0.009": 0.725413006687,
			"0.01": 1.48614787643,
			"0.011": 1.19338517492,
			"0.012": 1.41205127413,
			"0.013": 1.43015435988,
			"0.014": 1.80321806014,
			"0.015": 2.3343205287,
			"0.016": 0.12702586977,
			"0.017": 0.0,
			"0.018": 0.0,
			"0.019": 0.0,
			"0.02": 0.0,
			"0.021": 0.0,
			"0.022": 0.0,
			"0.023": 0.0,
			"0.024": 0.0,
			"0.025": 0.0
		}
	}
}
