{
	 "smiles": "CC1=C(C=CO1)C(=O)NC1=C(F)C=CC(N)=C1", 
	 "Tm": 404.15, 
	 "num_atms": 28, 
	 "gaussian": { 
		 "optdone": 1, 
		 "sigma_profile": "yes", 
		 "theory": "DFT", 
		 "functional": "B3LYP", 
		 "basiset": "6-31G**", 
		 "properties": { 
			 "R2extent": 5547.2372, 
			 "electric_dipole_moment_norm": 5.32716959088, 
			 "electric_quadrupole_moment_norm": 18.064241603, 
			 "total_energy": -823.683119747, 
			 "HOMO_LUMO_gap": 0.17442, 
			 "cosmo_polarized_energy": -20.96, 
			 "cosmo_cavitation_energy": 33.39, 
			 "cosmo_dispersion_energy": -23.77, 
			 "cosmo_repulsion_energy": 1.83, 
			 "cosmo_total_nonelectrostatic_energy": 11.46, 
			 "SMD_solvation_energy": 7.7 
		},
		"coords": [
			{
				"x": 2.8956945468,
				"y": 1.600220866,
				"z": 1.1284224593,
				"element": "C" 
			},
			{
				"x": 2.6503096226,
				"y": 0.1292760814,
				"z": 1.1455305715,
				"element": "C" 
			},
			{
				"x": 1.5303541761,
				"y": -0.6704439075,
				"z": 1.1456691776,
				"element": "C" 
			},
			{
				"x": 2.0002690562,
				"y": -2.0275121134,
				"z": 1.2486028887,
				"element": "C" 
			},
			{
				"x": 3.3519804463,
				"y": -1.9594618117,
				"z": 1.2821444461,
				"element": "C" 
			},
			{
				"x": 3.7638876543,
				"y": -0.6528787453,
				"z": 1.2250525286,
				"element": "O" 
			},
			{
				"x": 0.0888019915,
				"y": -0.322984274,
				"z": 1.1167053277,
				"element": "C" 
			},
			{
				"x": -0.7671932539,
				"y": -1.0715446519,
				"z": 1.5599674105,
				"element": "O" 
			},
			{
				"x": -0.2129480393,
				"y": 0.9092972762,
				"z": 0.5378058017,
				"element": "N" 
			},
			{
				"x": -1.5314401206,
				"y": 1.3990581331,
				"z": 0.3924367672,
				"element": "C" 
			},
			{
				"x": -2.3763673456,
				"y": 1.5279919962,
				"z": 1.4998270945,
				"element": "C" 
			},
			{
				"x": -1.9300790328,
				"y": 1.1898745562,
				"z": 2.725012189,
				"element": "F" 
			},
			{
				"x": -3.659977648,
				"y": 2.0349479418,
				"z": 1.3565433509,
				"element": "C" 
			},
			{
				"x": -4.1132169865,
				"y": 2.4542938832,
				"z": 0.1078691904,
				"element": "C" 
			},
			{
				"x": -3.2789534747,
				"y": 2.3619110503,
				"z": -1.0181124385,
				"element": "C" 
			},
			{
				"x": -3.7436684462,
				"y": 2.7276317847,
				"z": -2.2875065678,
				"element": "N" 
			},
			{
				"x": -1.993787342,
				"y": 1.8220256759,
				"z": -0.8577990312,
				"element": "C" 
			},
			{
				"x": 3.2065630651,
				"y": 1.9551996492,
				"z": 0.1370470104,
				"element": "H" 
			},
			{
				"x": 3.6975226623,
				"y": 1.8539153545,
				"z": 1.8282981777,
				"element": "H" 
			},
			{
				"x": 1.9946335955,
				"y": 2.1412630616,
				"z": 1.4234045849,
				"element": "H" 
			},
			{
				"x": 1.3753579369,
				"y": -2.9066118251,
				"z": 1.290412029,
				"element": "H" 
			},
			{
				"x": 4.1387774265,
				"y": -2.6943464961,
				"z": 1.3474531013,
				"element": "H" 
			},
			{
				"x": 0.4692985533,
				"y": 1.2783378597,
				"z": -0.1087920106,
				"element": "H" 
			},
			{
				"x": -4.2883203684,
				"y": 2.1158909855,
				"z": 2.2370804675,
				"element": "H" 
			},
			{
				"x": -5.1182642728,
				"y": 2.8537182809,
				"z": 0.0044010399,
				"element": "H" 
			},
			{
				"x": -4.4989735135,
				"y": 3.3995811194,
				"z": -2.2808508667,
				"element": "H" 
			},
			{
				"x": -3.0222537541,
				"y": 2.9927120899,
				"z": -2.9442396249,
				"element": "H" 
			},
			{
				"x": -1.3461071352,
				"y": 1.7056361794,
				"z": -1.7236850747,
				"element": "H" 
			}
		],
		 "valence_orbital": [ 
			{
				"type": "occ",
				"energy": -0.276,
				"method": "rhf"
			},
			{
				"type": "occ",
				"energy": -0.25102,
				"method": "rhf"
			},
			{
				"type": "occ",
				"energy": -0.23375,
				"method": "rhf"
			},
			{
				"type": "occ",
				"energy": -0.22721,
				"method": "rhf"
			},
			{
				"type": "occ",
				"energy": -0.19865,
				"method": "rhf"
			},
			{
				"type": "unocc",
				"energy": -0.02423,
				"method": "rhf"
			},
			{
				"type": "unocc",
				"energy": 0.00243,
				"method": "rhf"
			},
			{
				"type": "unocc",
				"energy": 0.02138,
				"method": "rhf"
			},
			{
				"type": "unocc",
				"energy": 0.03205,
				"method": "rhf"
			},
			{
				"type": "unocc",
				"energy": 0.07445,
				"method": "rhf"
			}
		],
		"cosmo_sigma_profile": { 
			"-0.025": 0.0,
			"-0.024": 0.0,
			"-0.023": 0.0,
			"-0.022": 0.0,
			"-0.021": 0.0,
			"-0.02": 0.0,
			"-0.019": 0.0,
			"-0.018": 0.0,
			"-0.017": 0.0,
			"-0.016": 0.0,
			"-0.015": 0.0153478468622,
			"-0.014": 0.648446753339,
			"-0.013": 1.25501798705,
			"-0.012": 3.78936169538,
			"-0.011": 4.43261812859,
			"-0.01": 4.84113901954,
			"-0.009": 7.13125099906,
			"-0.008": 6.53576852885,
			"-0.007": 9.87915525624,
			"-0.006": 13.0343360689,
			"-0.005": 14.7068860368,
			"-0.004": 15.0117857028,
			"-0.003": 14.3954864618,
			"-0.002": 15.2486691408,
			"-0.001": 15.595890274,
			"0.0": 11.578408114,
			"0.001": 13.403368261,
			"0.002": 18.064008768,
			"0.003": 17.4532184423,
			"0.004": 19.8168837027,
			"0.005": 22.5915048596,
			"0.006": 7.46430757505,
			"0.007": 4.43394996546,
			"0.008": 4.0640447721,
			"0.009": 2.9741348299,
			"0.01": 2.46458772064,
			"0.011": 3.76545892827,
			"0.012": 3.09729970433,
			"0.013": 6.35827318432,
			"0.014": 2.24805925175,
			"0.015": 0.33595451648,
			"0.016": 0.0,
			"0.017": 0.0,
			"0.018": 0.0,
			"0.019": 0.0,
			"0.02": 0.0,
			"0.021": 0.0,
			"0.022": 0.0,
			"0.023": 0.0,
			"0.024": 0.0,
			"0.025": 0.0
		}
	}
}
