{
	 "smiles": "CCN(CC)C1=CC=C(C=C1)C1=NN=C(S)O1", 
	 "Tm": 437.15, 
	 "num_atms": 32, 
	 "gaussian": { 
		 "optdone": 1, 
		 "sigma_profile": "yes", 
		 "theory": "DFT", 
		 "functional": "B3LYP", 
		 "basiset": "6-31G**", 
		 "properties": { 
			 "R2extent": 10369.9155, 
			 "electric_dipole_moment_norm": 7.06895044331, 
			 "electric_quadrupole_moment_norm": 27.3827396533, 
			 "total_energy": -1103.9511471, 
			 "HOMO_LUMO_gap": 0.16006, 
			 "cosmo_polarized_energy": -15.14, 
			 "cosmo_cavitation_energy": 36.81, 
			 "cosmo_dispersion_energy": -27.17, 
			 "cosmo_repulsion_energy": 2.05, 
			 "cosmo_total_nonelectrostatic_energy": 11.69, 
			 "SMD_solvation_energy": 3.93 
		},
		"coords": [
			{
				"x": -2.8763042893,
				"y": -1.1769590142,
				"z": 1.3463256113,
				"element": "C" 
			},
			{
				"x": -2.4279678619,
				"y": -1.1631866409,
				"z": -0.1224827456,
				"element": "C" 
			},
			{
				"x": -1.0137909921,
				"y": -0.8590351026,
				"z": -0.3352151379,
				"element": "N" 
			},
			{
				"x": -0.0883108877,
				"y": -1.981281266,
				"z": -0.4876655312,
				"element": "C" 
			},
			{
				"x": 0.645455671,
				"y": -2.3971912364,
				"z": 0.7956011668,
				"element": "C" 
			},
			{
				"x": -0.5530317705,
				"y": 0.4461213075,
				"z": -0.3043136497,
				"element": "C" 
			},
			{
				"x": 0.8222993921,
				"y": 0.754013052,
				"z": -0.4785097506,
				"element": "C" 
			},
			{
				"x": 1.2742626195,
				"y": 2.0625634728,
				"z": -0.488740543,
				"element": "C" 
			},
			{
				"x": 0.3889128375,
				"y": 3.1398335892,
				"z": -0.3154739299,
				"element": "C" 
			},
			{
				"x": -0.970539343,
				"y": 2.8502931076,
				"z": -0.1266497155,
				"element": "C" 
			},
			{
				"x": -1.4326034048,
				"y": 1.5423977604,
				"z": -0.1149064639,
				"element": "C" 
			},
			{
				"x": 0.8957158261,
				"y": 4.4984993422,
				"z": -0.3265036635,
				"element": "C" 
			},
			{
				"x": 2.1173773862,
				"y": 4.9186553231,
				"z": -0.4830006826,
				"element": "N" 
			},
			{
				"x": 2.0828384286,
				"y": 6.3146559204,
				"z": -0.4160666385,
				"element": "N" 
			},
			{
				"x": 0.8430861381,
				"y": 6.6269165719,
				"z": -0.2242254923,
				"element": "C" 
			},
			{
				"x": 0.1831339345,
				"y": 8.2482409091,
				"z": -0.0567593861,
				"element": "S" 
			},
			{
				"x": 0.0150629895,
				"y": 5.5470463336,
				"z": -0.1534471296,
				"element": "O" 
			},
			{
				"x": -2.3545495208,
				"y": -1.9550216264,
				"z": 1.9110816653,
				"element": "H" 
			},
			{
				"x": -3.9518438874,
				"y": -1.3749197613,
				"z": 1.4114790018,
				"element": "H" 
			},
			{
				"x": -2.6763403497,
				"y": -0.2182984509,
				"z": 1.8329470919,
				"element": "H" 
			},
			{
				"x": -2.6192028283,
				"y": -2.1436818653,
				"z": -0.5696605652,
				"element": "H" 
			},
			{
				"x": -3.0360377953,
				"y": -0.4517575165,
				"z": -0.6928964443,
				"element": "H" 
			},
			{
				"x": 0.6375305067,
				"y": -1.7422924279,
				"z": -1.2732085725,
				"element": "H" 
			},
			{
				"x": -0.6679562218,
				"y": -2.8290572292,
				"z": -0.8659405499,
				"element": "H" 
			},
			{
				"x": -0.0582867287,
				"y": -2.7402542273,
				"z": 1.5596016759,
				"element": "H" 
			},
			{
				"x": 1.3416437314,
				"y": -3.2161482294,
				"z": 0.5841133659,
				"element": "H" 
			},
			{
				"x": 1.2169860009,
				"y": -1.5647926665,
				"z": 1.21535681,
				"element": "H" 
			},
			{
				"x": 1.5498059957,
				"y": -0.0367571304,
				"z": -0.6068439688,
				"element": "H" 
			},
			{
				"x": 2.3304914434,
				"y": 2.2681245177,
				"z": -0.6285748964,
				"element": "H" 
			},
			{
				"x": -1.6778871547,
				"y": 3.6606171355,
				"z": 0.0179025697,
				"element": "H" 
			},
			{
				"x": -2.4899540208,
				"y": 1.3771490708,
				"z": 0.045502141,
				"element": "H" 
			},
			{
				"x": -1.0870958443,
				"y": 7.8308069775,
				"z": 0.1032743576,
				"element": "H" 
			}
		],
		 "valence_orbital": [ 
			{
				"type": "occ",
				"energy": -0.29347,
				"method": "rhf"
			},
			{
				"type": "occ",
				"energy": -0.26883,
				"method": "rhf"
			},
			{
				"type": "occ",
				"energy": -0.25657,
				"method": "rhf"
			},
			{
				"type": "occ",
				"energy": -0.24329,
				"method": "rhf"
			},
			{
				"type": "occ",
				"energy": -0.1923,
				"method": "rhf"
			},
			{
				"type": "unocc",
				"energy": -0.03224,
				"method": "rhf"
			},
			{
				"type": "unocc",
				"energy": -0.00617,
				"method": "rhf"
			},
			{
				"type": "unocc",
				"energy": 0.00325,
				"method": "rhf"
			},
			{
				"type": "unocc",
				"energy": 0.02449,
				"method": "rhf"
			},
			{
				"type": "unocc",
				"energy": 0.05647,
				"method": "rhf"
			}
		],
		"cosmo_sigma_profile": { 
			"-0.025": 0.0,
			"-0.024": 0.0,
			"-0.023": 0.0,
			"-0.022": 0.0,
			"-0.021": 0.0,
			"-0.02": 0.0,
			"-0.019": 0.0,
			"-0.018": 0.0,
			"-0.017": 0.0,
			"-0.016": 0.0,
			"-0.015": 0.0,
			"-0.014": 0.0124966425549,
			"-0.013": 1.58614335476,
			"-0.012": 1.75174838755,
			"-0.011": 1.63854897558,
			"-0.01": 1.45132341904,
			"-0.009": 1.04185571485,
			"-0.008": 1.42936692308,
			"-0.007": 2.27871215783,
			"-0.006": 9.7846594176,
			"-0.005": 14.6316626105,
			"-0.004": 22.7267544164,
			"-0.003": 30.935989887,
			"-0.002": 29.4713875136,
			"-0.001": 30.0470857263,
			"0.0": 27.7293210008,
			"0.001": 27.0628884443,
			"0.002": 20.4519675782,
			"0.003": 16.0194487106,
			"0.004": 15.4870463367,
			"0.005": 14.095238522,
			"0.006": 4.05819794258,
			"0.007": 1.87913264619,
			"0.008": 1.96784432162,
			"0.009": 2.36999306363,
			"0.01": 2.52813067499,
			"0.011": 2.78247945215,
			"0.012": 3.57736721796,
			"0.013": 2.71525065924,
			"0.014": 2.51275717565,
			"0.015": 1.14275632372,
			"0.016": 0.0342467527931,
			"0.017": 0.0,
			"0.018": 0.0,
			"0.019": 0.0,
			"0.02": 0.0,
			"0.021": 0.0,
			"0.022": 0.0,
			"0.023": 0.0,
			"0.024": 0.0,
			"0.025": 0.0
		}
	}
}
