{
	 "smiles": "CS(=O)(=O)NCCC1=CC=C(C=C1)C(O)=O", 
	 "Tm": 445.15, 
	 "num_atms": 29, 
	 "gaussian": { 
		 "optdone": 1, 
		 "sigma_profile": "yes", 
		 "theory": "DFT", 
		 "functional": "B3LYP", 
		 "basiset": "6-31G**", 
		 "properties": { 
			 "R2extent": 5573.8112, 
			 "electric_dipole_moment_norm": 5.69660700856, 
			 "electric_quadrupole_moment_norm": 25.1937355483, 
			 "total_energy": -1142.68227604, 
			 "HOMO_LUMO_gap": 0.20867, 
			 "cosmo_polarized_energy": -25.92, 
			 "cosmo_cavitation_energy": 35.0, 
			 "cosmo_dispersion_energy": -24.11, 
			 "cosmo_repulsion_energy": 1.85, 
			 "cosmo_total_nonelectrostatic_energy": 12.75, 
			 "SMD_solvation_energy": 6.15 
		},
		"coords": [
			{
				"x": -0.8748449654,
				"y": -1.4190070718,
				"z": -2.822485868,
				"element": "C" 
			},
			{
				"x": 0.6573168634,
				"y": -1.413666711,
				"z": -3.7643334336,
				"element": "S" 
			},
			{
				"x": 0.6094118296,
				"y": -0.2604724608,
				"z": -4.6692891904,
				"element": "O" 
			},
			{
				"x": 0.9043804779,
				"y": -2.7709027979,
				"z": -4.2599262673,
				"element": "O" 
			},
			{
				"x": 1.8256985708,
				"y": -1.1533620991,
				"z": -2.5660446331,
				"element": "N" 
			},
			{
				"x": 2.4269250437,
				"y": 0.1789302703,
				"z": -2.4102163989,
				"element": "C" 
			},
			{
				"x": 2.6178876396,
				"y": 0.5470696908,
				"z": -0.9252843544,
				"element": "C" 
			},
			{
				"x": 1.3175976554,
				"y": 0.6389662597,
				"z": -0.1595365094,
				"element": "C" 
			},
			{
				"x": 0.4806445322,
				"y": 1.7575534545,
				"z": -0.3046658608,
				"element": "C" 
			},
			{
				"x": -0.7358323327,
				"y": 1.835373592,
				"z": 0.3649252943,
				"element": "C" 
			},
			{
				"x": -1.1404586684,
				"y": 0.8011769174,
				"z": 1.2209779512,
				"element": "C" 
			},
			{
				"x": -0.3148081455,
				"y": -0.3220044788,
				"z": 1.3649813673,
				"element": "C" 
			},
			{
				"x": 0.8963839677,
				"y": -0.4004827949,
				"z": 0.6788843721,
				"element": "C" 
			},
			{
				"x": -2.4636710206,
				"y": 0.9427328074,
				"z": 1.9105621358,
				"element": "C" 
			},
			{
				"x": -2.6596158018,
				"y": 0.1835470399,
				"z": 3.0224748231,
				"element": "O" 
			},
			{
				"x": -3.336683471,
				"y": 1.6836009617,
				"z": 1.5238592587,
				"element": "O" 
			},
			{
				"x": -1.6866525295,
				"y": -1.566621427,
				"z": -3.5369472401,
				"element": "H" 
			},
			{
				"x": -0.839520031,
				"y": -2.2357891943,
				"z": -2.1020382219,
				"element": "H" 
			},
			{
				"x": -0.9826190167,
				"y": -0.4589207931,
				"z": -2.3164727749,
				"element": "H" 
			},
			{
				"x": 2.4888867941,
				"y": -1.9204759798,
				"z": -2.6230120641,
				"element": "H" 
			},
			{
				"x": 1.7709660417,
				"y": 0.9027319099,
				"z": -2.899909465,
				"element": "H" 
			},
			{
				"x": 3.3920710775,
				"y": 0.2328147999,
				"z": -2.928869556,
				"element": "H" 
			},
			{
				"x": 3.2788205913,
				"y": -0.1880227068,
				"z": -0.4521986124,
				"element": "H" 
			},
			{
				"x": 3.1417389065,
				"y": 1.5104253009,
				"z": -0.889480897,
				"element": "H" 
			},
			{
				"x": 0.7884417528,
				"y": 2.5768978885,
				"z": -0.9498669517,
				"element": "H" 
			},
			{
				"x": -1.3887887083,
				"y": 2.6934503864,
				"z": 0.2464159813,
				"element": "H" 
			},
			{
				"x": -0.6229006153,
				"y": -1.16461253,
				"z": 1.979963249,
				"element": "H" 
			},
			{
				"x": 1.5195955838,
				"y": -1.2830804386,
				"z": 0.789745457,
				"element": "H" 
			},
			{
				"x": -1.8267720218,
				"y": -0.2212497952,
				"z": 3.3013884092,
				"element": "H" 
			}
		],
		 "valence_orbital": [ 
			{
				"type": "occ",
				"energy": -0.30256,
				"method": "rhf"
			},
			{
				"type": "occ",
				"energy": -0.28385,
				"method": "rhf"
			},
			{
				"type": "occ",
				"energy": -0.2813,
				"method": "rhf"
			},
			{
				"type": "occ",
				"energy": -0.27469,
				"method": "rhf"
			},
			{
				"type": "occ",
				"energy": -0.26684,
				"method": "rhf"
			},
			{
				"type": "unocc",
				"energy": -0.05817,
				"method": "rhf"
			},
			{
				"type": "unocc",
				"energy": -0.03028,
				"method": "rhf"
			},
			{
				"type": "unocc",
				"energy": 0.03735,
				"method": "rhf"
			},
			{
				"type": "unocc",
				"energy": 0.05018,
				"method": "rhf"
			},
			{
				"type": "unocc",
				"energy": 0.05681,
				"method": "rhf"
			}
		],
		"cosmo_sigma_profile": { 
			"-0.025": 0.0,
			"-0.024": 0.0,
			"-0.023": 0.0,
			"-0.022": 0.0,
			"-0.021": 0.0,
			"-0.02": 0.0,
			"-0.019": 0.133389404985,
			"-0.018": 0.712423964848,
			"-0.017": 1.22862444088,
			"-0.016": 1.10533348795,
			"-0.015": 0.572572753986,
			"-0.014": 1.44511162582,
			"-0.013": 2.38429191542,
			"-0.012": 2.32691826735,
			"-0.011": 2.47173800969,
			"-0.01": 1.76392736536,
			"-0.009": 3.26941251252,
			"-0.008": 5.84877072217,
			"-0.007": 6.92847678963,
			"-0.006": 16.7724489805,
			"-0.005": 26.1253274225,
			"-0.004": 24.437343907,
			"-0.003": 20.5118985174,
			"-0.002": 17.4541145233,
			"-0.001": 14.2228357789,
			"0.0": 15.1316910642,
			"0.001": 15.4979403385,
			"0.002": 11.0403484295,
			"0.003": 10.8705128138,
			"0.004": 6.97801053428,
			"0.005": 4.87552865404,
			"0.006": 5.42923154732,
			"0.007": 5.24172864287,
			"0.008": 6.34981053804,
			"0.009": 5.8828581862,
			"0.01": 9.21256955883,
			"0.011": 16.0039234136,
			"0.012": 12.9177104134,
			"0.013": 2.01159823999,
			"0.014": 0.0811092830787,
			"0.015": 0.0,
			"0.016": 0.0,
			"0.017": 0.0,
			"0.018": 0.0,
			"0.019": 0.0,
			"0.02": 0.0,
			"0.021": 0.0,
			"0.022": 0.0,
			"0.023": 0.0,
			"0.024": 0.0,
			"0.025": 0.0
		}
	}
}
