{
	 "smiles": "CC1=C(C=CO1)C(=O)CC#N", 
	 "Tm": 369.15, 
	 "num_atms": 18, 
	 "gaussian": { 
		 "optdone": 1, 
		 "sigma_profile": "yes", 
		 "theory": "DFT", 
		 "functional": "B3LYP", 
		 "basiset": "6-31G**", 
		 "properties": { 
			 "R2extent": 2134.6936, 
			 "electric_dipole_moment_norm": 3.30398930537, 
			 "electric_quadrupole_moment_norm": 11.2005952994, 
			 "total_energy": -514.227117115, 
			 "HOMO_LUMO_gap": 0.18416, 
			 "cosmo_polarized_energy": -12.02, 
			 "cosmo_cavitation_energy": 23.7, 
			 "cosmo_dispersion_energy": -16.49, 
			 "cosmo_repulsion_energy": 1.33, 
			 "cosmo_total_nonelectrostatic_energy": 8.54, 
			 "SMD_solvation_energy": 7.01 
		},
		"coords": [
			{
				"x": 2.0961490491,
				"y": -1.1591130138,
				"z": 1.5935394178,
				"element": "C" 
			},
			{
				"x": 1.6725623745,
				"y": -1.3020409365,
				"z": 0.1757965031,
				"element": "C" 
			},
			{
				"x": 1.1365453922,
				"y": -0.4210719732,
				"z": -0.7465475536,
				"element": "C" 
			},
			{
				"x": 0.9448071048,
				"y": -1.1766634834,
				"z": -1.9628880868,
				"element": "C" 
			},
			{
				"x": 1.3689691143,
				"y": -2.4334695935,
				"z": -1.69349827,
				"element": "C" 
			},
			{
				"x": 1.8142880685,
				"y": -2.5188317266,
				"z": -0.3952826918,
				"element": "O" 
			},
			{
				"x": 0.8763232541,
				"y": 0.9875961757,
				"z": -0.4592864124,
				"element": "C" 
			},
			{
				"x": 1.1078805446,
				"y": 1.499834478,
				"z": 0.6261735464,
				"element": "O" 
			},
			{
				"x": 0.3384224425,
				"y": 1.8886467936,
				"z": -1.6007644365,
				"element": "C" 
			},
			{
				"x": -0.9079367818,
				"y": 1.4239532589,
				"z": -2.2071498445,
				"element": "C" 
			},
			{
				"x": -1.8965255311,
				"y": 1.0451948275,
				"z": -2.6837509349,
				"element": "N" 
			},
			{
				"x": 1.2582793473,
				"y": -0.8332511109,
				"z": 2.2173134066,
				"element": "H" 
			},
			{
				"x": 2.4777118036,
				"y": -2.1123654399,
				"z": 1.9650205549,
				"element": "H" 
			},
			{
				"x": 2.8695384461,
				"y": -0.3914533708,
				"z": 1.6922095029,
				"element": "H" 
			},
			{
				"x": 0.525194999,
				"y": -0.8297539282,
				"z": -2.8953144901,
				"element": "H" 
			},
			{
				"x": 1.4203359916,
				"y": -3.3459706825,
				"z": -2.2654869281,
				"element": "H" 
			},
			{
				"x": 1.1034256186,
				"y": 1.9612700237,
				"z": -2.3847930321,
				"element": "H" 
			},
			{
				"x": 0.1940287621,
				"y": 2.885289702,
				"z": -1.1757902511,
				"element": "H" 
			}
		],
		 "valence_orbital": [ 
			{
				"type": "occ",
				"energy": -0.34085,
				"method": "rhf"
			},
			{
				"type": "occ",
				"energy": -0.33155,
				"method": "rhf"
			},
			{
				"type": "occ",
				"energy": -0.2963,
				"method": "rhf"
			},
			{
				"type": "occ",
				"energy": -0.26704,
				"method": "rhf"
			},
			{
				"type": "occ",
				"energy": -0.24237,
				"method": "rhf"
			},
			{
				"type": "unocc",
				"energy": -0.05821,
				"method": "rhf"
			},
			{
				"type": "unocc",
				"energy": 0.00536,
				"method": "rhf"
			},
			{
				"type": "unocc",
				"energy": 0.02773,
				"method": "rhf"
			},
			{
				"type": "unocc",
				"energy": 0.03191,
				"method": "rhf"
			},
			{
				"type": "unocc",
				"energy": 0.0834,
				"method": "rhf"
			}
		],
		"cosmo_sigma_profile": { 
			"-0.025": 0.0,
			"-0.024": 0.0,
			"-0.023": 0.0,
			"-0.022": 0.0,
			"-0.021": 0.0,
			"-0.02": 0.0,
			"-0.019": 0.0,
			"-0.018": 0.0,
			"-0.017": 0.0,
			"-0.016": 0.0,
			"-0.015": 0.0,
			"-0.014": 0.0,
			"-0.013": 0.0,
			"-0.012": 0.0,
			"-0.011": 0.296667985589,
			"-0.01": 3.61191857425,
			"-0.009": 7.33953927656,
			"-0.008": 6.89130544537,
			"-0.007": 6.56112734324,
			"-0.006": 10.0388703202,
			"-0.005": 10.7219351632,
			"-0.004": 13.1226494501,
			"-0.003": 10.8511660763,
			"-0.002": 14.7200609736,
			"-0.001": 14.7543096313,
			"0.0": 10.7657831399,
			"0.001": 12.1274466585,
			"0.002": 10.459974295,
			"0.003": 9.22083639878,
			"0.004": 6.99300041485,
			"0.005": 5.69499612688,
			"0.006": 5.59741849278,
			"0.007": 4.60161156608,
			"0.008": 4.5038600849,
			"0.009": 4.84428562052,
			"0.01": 5.48667336355,
			"0.011": 5.47323428593,
			"0.012": 4.34840701297,
			"0.013": 1.43652954866,
			"0.014": 0.0,
			"0.015": 0.0,
			"0.016": 0.0,
			"0.017": 0.0,
			"0.018": 0.0,
			"0.019": 0.0,
			"0.02": 0.0,
			"0.021": 0.0,
			"0.022": 0.0,
			"0.023": 0.0,
			"0.024": 0.0,
			"0.025": 0.0
		}
	}
}
