{
	 "smiles": "CC1=CC(C)=C2C(CC(C)(C)C(=O)OC2=O)=C1", 
	 "Tm": 372.65, 
	 "num_atms": 33, 
	 "gaussian": { 
		 "optdone": 1, 
		 "sigma_profile": "yes", 
		 "theory": "DFT", 
		 "functional": "B3LYP", 
		 "basiset": "6-31G**", 
		 "properties": { 
			 "R2extent": 4427.8539, 
			 "electric_dipole_moment_norm": 5.00607131092, 
			 "electric_quadrupole_moment_norm": 15.6119973133, 
			 "total_energy": -768.83916535, 
			 "HOMO_LUMO_gap": 0.2038, 
			 "cosmo_polarized_energy": -11.79, 
			 "cosmo_cavitation_energy": 34.77, 
			 "cosmo_dispersion_energy": -24.12, 
			 "cosmo_repulsion_energy": 1.86, 
			 "cosmo_total_nonelectrostatic_energy": 12.51, 
			 "SMD_solvation_energy": 7.31 
		},
		"coords": [
			{
				"x": -1.0648025751,
				"y": -1.4949730218,
				"z": -3.0416153902,
				"element": "C" 
			},
			{
				"x": -0.6305541836,
				"y": -1.4387152243,
				"z": -1.5970513015,
				"element": "C" 
			},
			{
				"x": 0.3736325812,
				"y": -2.2877553813,
				"z": -1.1188651065,
				"element": "C" 
			},
			{
				"x": 0.7748985836,
				"y": -2.29352244,
				"z": 0.2193906806,
				"element": "C" 
			},
			{
				"x": 1.8472770992,
				"y": -3.2585624461,
				"z": 0.668048783,
				"element": "C" 
			},
			{
				"x": 0.1599860071,
				"y": -1.3774691122,
				"z": 1.1034411651,
				"element": "C" 
			},
			{
				"x": -0.8548675193,
				"y": -0.5076961644,
				"z": 0.6464212646,
				"element": "C" 
			},
			{
				"x": -1.5339016254,
				"y": 0.45938623,
				"z": 1.595246788,
				"element": "C" 
			},
			{
				"x": -0.6131586714,
				"y": 1.6258488987,
				"z": 2.0514350593,
				"element": "C" 
			},
			{
				"x": -1.2154501874,
				"y": 2.3061511539,
				"z": 3.3035855728,
				"element": "C" 
			},
			{
				"x": -0.4077812235,
				"y": 2.6551570438,
				"z": 0.9298372883,
				"element": "C" 
			},
			{
				"x": 0.7363090783,
				"y": 1.0409938562,
				"z": 2.4502208342,
				"element": "C" 
			},
			{
				"x": 1.8118783467,
				"y": 1.5437010223,
				"z": 2.2859818709,
				"element": "O" 
			},
			{
				"x": 0.6351926905,
				"y": -0.1586891716,
				"z": 3.17755124,
				"element": "O" 
			},
			{
				"x": 0.5355444663,
				"y": -1.3896622173,
				"z": 2.5491490429,
				"element": "C" 
			},
			{
				"x": 0.7403742874,
				"y": -2.3783673652,
				"z": 3.2063243779,
				"element": "O" 
			},
			{
				"x": -1.236136212,
				"y": -0.557870419,
				"z": -0.6962767077,
				"element": "C" 
			},
			{
				"x": -1.5656945204,
				"y": -0.5719633241,
				"z": -3.3465363125,
				"element": "H" 
			},
			{
				"x": -0.2125342943,
				"y": -1.6576399085,
				"z": -3.7084520631,
				"element": "H" 
			},
			{
				"x": -1.7676217397,
				"y": -2.3209025128,
				"z": -3.2073577743,
				"element": "H" 
			},
			{
				"x": 0.8580591432,
				"y": -2.9741751247,
				"z": -1.8093158523,
				"element": "H" 
			},
			{
				"x": 2.6395716814,
				"y": -2.7556105099,
				"z": 1.2304835884,
				"element": "H" 
			},
			{
				"x": 1.4335374842,
				"y": -4.0210023831,
				"z": 1.3333058362,
				"element": "H" 
			},
			{
				"x": 2.2993536307,
				"y": -3.7525519355,
				"z": -0.1956982831,
				"element": "H" 
			},
			{
				"x": -2.4179333965,
				"y": 0.8886031432,
				"z": 1.1133000774,
				"element": "H" 
			},
			{
				"x": -1.8894286214,
				"y": -0.0774826112,
				"z": 2.4815635969,
				"element": "H" 
			},
			{
				"x": -2.2170289485,
				"y": 2.6824310842,
				"z": 3.0700151146,
				"element": "H" 
			},
			{
				"x": -0.5990582704,
				"y": 3.1518989986,
				"z": 3.6222243192,
				"element": "H" 
			},
			{
				"x": -1.2978505829,
				"y": 1.6032625344,
				"z": 4.1375302628,
				"element": "H" 
			},
			{
				"x": 0.3140166254,
				"y": 3.416625424,
				"z": 1.2327711793,
				"element": "H" 
			},
			{
				"x": -1.3577417734,
				"y": 3.1463040205,
				"z": 0.6954006922,
				"element": "H" 
			},
			{
				"x": -0.0313276508,
				"y": 2.1802342583,
				"z": 0.0194413872,
				"element": "H" 
			},
			{
				"x": -2.0261597094,
				"y": 0.1034136047,
				"z": -1.0441012308,
				"element": "H" 
			}
		],
		 "valence_orbital": [ 
			{
				"type": "occ",
				"energy": -0.31241,
				"method": "rhf"
			},
			{
				"type": "occ",
				"energy": -0.29267,
				"method": "rhf"
			},
			{
				"type": "occ",
				"energy": -0.27342,
				"method": "rhf"
			},
			{
				"type": "occ",
				"energy": -0.25363,
				"method": "rhf"
			},
			{
				"type": "occ",
				"energy": -0.2518,
				"method": "rhf"
			},
			{
				"type": "unocc",
				"energy": -0.048,
				"method": "rhf"
			},
			{
				"type": "unocc",
				"energy": -0.02687,
				"method": "rhf"
			},
			{
				"type": "unocc",
				"energy": -0.00961,
				"method": "rhf"
			},
			{
				"type": "unocc",
				"energy": 0.03227,
				"method": "rhf"
			},
			{
				"type": "unocc",
				"energy": 0.07834,
				"method": "rhf"
			}
		],
		"cosmo_sigma_profile": { 
			"-0.025": 0.0,
			"-0.024": 0.0,
			"-0.023": 0.0,
			"-0.022": 0.0,
			"-0.021": 0.0,
			"-0.02": 0.0,
			"-0.019": 0.0,
			"-0.018": 0.0,
			"-0.017": 0.0,
			"-0.016": 0.0,
			"-0.015": 0.0,
			"-0.014": 0.0,
			"-0.013": 0.0,
			"-0.012": 0.0,
			"-0.011": 0.0,
			"-0.01": 0.0,
			"-0.009": 0.0,
			"-0.008": 0.0,
			"-0.007": 0.166121147104,
			"-0.006": 6.50247253205,
			"-0.005": 21.9501018219,
			"-0.004": 30.2323377596,
			"-0.003": 29.9099879726,
			"-0.002": 32.3833908348,
			"-0.001": 33.0857837836,
			"0.0": 30.4873843062,
			"0.001": 14.9604951719,
			"0.002": 10.9469374578,
			"0.003": 11.7454853802,
			"0.004": 9.5302266872,
			"0.005": 4.62087629756,
			"0.006": 4.5762701168,
			"0.007": 4.08900611016,
			"0.008": 6.4296556842,
			"0.009": 6.80610654604,
			"0.01": 8.45299421735,
			"0.011": 4.75166541822,
			"0.012": 1.44187487676,
			"0.013": 0.0152905898955,
			"0.014": 0.0,
			"0.015": 0.0,
			"0.016": 0.0,
			"0.017": 0.0,
			"0.018": 0.0,
			"0.019": 0.0,
			"0.02": 0.0,
			"0.021": 0.0,
			"0.022": 0.0,
			"0.023": 0.0,
			"0.024": 0.0,
			"0.025": 0.0
		}
	}
}
