{
	 "smiles": "CCN1CCCC1CNC(=O)C1=C(OC)C=C(N)C(=C1)S(=O)(=O)CC", 
	 "Tm": 399.15, 
	 "num_atms": 52, 
	 "gaussian": { 
		 "optdone": 1, 
		 "sigma_profile": "yes", 
		 "theory": "DFT", 
		 "functional": "B3LYP", 
		 "basiset": "6-31G**", 
		 "properties": { 
			 "R2extent": 11493.5102, 
			 "electric_dipole_moment_norm": 1.83642522854, 
			 "electric_quadrupole_moment_norm": 24.8526718771, 
			 "total_energy": -1527.36798736, 
			 "HOMO_LUMO_gap": 0.17095, 
			 "cosmo_polarized_energy": -23.07, 
			 "cosmo_cavitation_energy": 53.25, 
			 "cosmo_dispersion_energy": -35.82, 
			 "cosmo_repulsion_energy": 2.73, 
			 "cosmo_total_nonelectrostatic_energy": 20.16, 
			 "SMD_solvation_energy": 7.27 
		},
		"coords": [
			{
				"x": 0.369148304,
				"y": 5.0919333819,
				"z": 2.58188761,
				"element": "C" 
			},
			{
				"x": -0.8320731696,
				"y": 4.4949945597,
				"z": 1.8473104678,
				"element": "C" 
			},
			{
				"x": -0.7629963624,
				"y": 3.0436555688,
				"z": 1.7349938601,
				"element": "N" 
			},
			{
				"x": -0.8632671223,
				"y": 2.3057757574,
				"z": 2.9990788157,
				"element": "C" 
			},
			{
				"x": -1.229501279,
				"y": 0.8866188233,
				"z": 2.5611426424,
				"element": "C" 
			},
			{
				"x": -2.2224034645,
				"y": 1.1533053329,
				"z": 1.4182780353,
				"element": "C" 
			},
			{
				"x": -1.6956801082,
				"y": 2.4476153217,
				"z": 0.7550119825,
				"element": "C" 
			},
			{
				"x": -0.9323786159,
				"y": 2.2154463356,
				"z": -0.5615423945,
				"element": "C" 
			},
			{
				"x": -1.806714821,
				"y": 1.724450716,
				"z": -1.62569423,
				"element": "N" 
			},
			{
				"x": -1.4871076355,
				"y": 0.9320372804,
				"z": -2.6983479365,
				"element": "C" 
			},
			{
				"x": -2.2077439926,
				"y": 0.8979986303,
				"z": -3.6942044363,
				"element": "O" 
			},
			{
				"x": -0.2704036362,
				"y": 0.0554007712,
				"z": -2.5823325018,
				"element": "C" 
			},
			{
				"x": 0.7258936817,
				"y": 0.0590515535,
				"z": -3.5843787929,
				"element": "C" 
			},
			{
				"x": 0.6829686824,
				"y": 0.9717835712,
				"z": -4.6029416292,
				"element": "O" 
			},
			{
				"x": 0.0398559685,
				"y": 0.523380565,
				"z": -5.8071945271,
				"element": "C" 
			},
			{
				"x": 1.8188014215,
				"y": -0.7953489082,
				"z": -3.5035655618,
				"element": "C" 
			},
			{
				"x": 1.9802679245,
				"y": -1.7101793415,
				"z": -2.4428548549,
				"element": "C" 
			},
			{
				"x": 3.0636912047,
				"y": -2.5557105808,
				"z": -2.4194655884,
				"element": "N" 
			},
			{
				"x": 0.9621754512,
				"y": -1.7250273852,
				"z": -1.4531731739,
				"element": "C" 
			},
			{
				"x": -0.121052683,
				"y": -0.843522329,
				"z": -1.5302671514,
				"element": "C" 
			},
			{
				"x": 1.0014940058,
				"y": -2.8068635694,
				"z": -0.0256041667,
				"element": "S" 
			},
			{
				"x": 2.4087713083,
				"y": -3.1972167729,
				"z": 0.2284924412,
				"element": "O" 
			},
			{
				"x": 0.2127813263,
				"y": -2.1754923191,
				"z": 1.0471321454,
				"element": "O" 
			},
			{
				"x": 0.0898423123,
				"y": -4.3075719742,
				"z": -0.5128548126,
				"element": "C" 
			},
			{
				"x": 0.7858630885,
				"y": -5.143636996,
				"z": -1.5804828596,
				"element": "C" 
			},
			{
				"x": 0.4117206573,
				"y": 4.7622140327,
				"z": 3.624545357,
				"element": "H" 
			},
			{
				"x": 1.3020497383,
				"y": 4.7938132572,
				"z": 2.0937266317,
				"element": "H" 
			},
			{
				"x": 0.3099099116,
				"y": 6.185208186,
				"z": 2.5836998603,
				"element": "H" 
			},
			{
				"x": -1.7678847895,
				"y": 4.8171480073,
				"z": 2.3493971541,
				"element": "H" 
			},
			{
				"x": -0.8653169534,
				"y": 4.9100452631,
				"z": 0.8329064877,
				"element": "H" 
			},
			{
				"x": 0.079746689,
				"y": 2.3502146029,
				"z": 3.5541982086,
				"element": "H" 
			},
			{
				"x": -1.6540412085,
				"y": 2.7208535769,
				"z": 3.6558040841,
				"element": "H" 
			},
			{
				"x": -0.347218974,
				"y": 0.3532677587,
				"z": 2.1940925602,
				"element": "H" 
			},
			{
				"x": -1.6616405563,
				"y": 0.292917216,
				"z": 3.3713107495,
				"element": "H" 
			},
			{
				"x": -2.3082571745,
				"y": 0.3262153792,
				"z": 0.7087523494,
				"element": "H" 
			},
			{
				"x": -3.2234335975,
				"y": 1.3303003951,
				"z": 1.8269381182,
				"element": "H" 
			},
			{
				"x": -2.5392115946,
				"y": 3.1301714837,
				"z": 0.5486280607,
				"element": "H" 
			},
			{
				"x": -0.4504488728,
				"y": 3.1573449081,
				"z": -0.8611025367,
				"element": "H" 
			},
			{
				"x": -0.1344041794,
				"y": 1.4935957981,
				"z": -0.3887854942,
				"element": "H" 
			},
			{
				"x": -2.6353405517,
				"y": 2.2772839081,
				"z": -1.8170582006,
				"element": "H" 
			},
			{
				"x": -1.0123470111,
				"y": 0.3032658563,
				"z": -5.6112592082,
				"element": "H" 
			},
			{
				"x": 0.1245932876,
				"y": 1.3483887389,
				"z": -6.5167133896,
				"element": "H" 
			},
			{
				"x": 0.5492795892,
				"y": -0.3593010117,
				"z": -6.2152300213,
				"element": "H" 
			},
			{
				"x": 2.5820933659,
				"y": -0.7262841722,
				"z": -4.2732698319,
				"element": "H" 
			},
			{
				"x": 3.8376446153,
				"y": -2.3033119578,
				"z": -3.0153032579,
				"element": "H" 
			},
			{
				"x": 3.308060335,
				"y": -2.9417870501,
				"z": -1.5139393638,
				"element": "H" 
			},
			{
				"x": -0.8577317054,
				"y": -0.8693652951,
				"z": -0.7348360002,
				"element": "H" 
			},
			{
				"x": -0.9001162616,
				"y": -3.9608157693,
				"z": -0.8221490467,
				"element": "H" 
			},
			{
				"x": -0.0178210981,
				"y": -4.8498157712,
				"z": 0.4321684537,
				"element": "H" 
			},
			{
				"x": 0.9092335921,
				"y": -4.5876425469,
				"z": -2.5132935925,
				"element": "H" 
			},
			{
				"x": 0.1848429112,
				"y": -6.0331267625,
				"z": -1.7921601057,
				"element": "H" 
			},
			{
				"x": 1.7716080466,
				"y": -5.4666760238,
				"z": -1.2384914086,
				"element": "H" 
			}
		],
		 "valence_orbital": [ 
			{
				"type": "occ",
				"energy": -0.26108,
				"method": "rhf"
			},
			{
				"type": "occ",
				"energy": -0.2531,
				"method": "rhf"
			},
			{
				"type": "occ",
				"energy": -0.24372,
				"method": "rhf"
			},
			{
				"type": "occ",
				"energy": -0.22047,
				"method": "rhf"
			},
			{
				"type": "occ",
				"energy": -0.2041,
				"method": "rhf"
			},
			{
				"type": "unocc",
				"energy": -0.03315,
				"method": "rhf"
			},
			{
				"type": "unocc",
				"energy": -0.01952,
				"method": "rhf"
			},
			{
				"type": "unocc",
				"energy": 0.03573,
				"method": "rhf"
			},
			{
				"type": "unocc",
				"energy": 0.06362,
				"method": "rhf"
			},
			{
				"type": "unocc",
				"energy": 0.0692,
				"method": "rhf"
			}
		],
		"cosmo_sigma_profile": { 
			"-0.025": 0.0,
			"-0.024": 0.0,
			"-0.023": 0.0,
			"-0.022": 0.0,
			"-0.021": 0.0,
			"-0.02": 0.0,
			"-0.019": 0.0,
			"-0.018": 0.0,
			"-0.017": 0.0,
			"-0.016": 0.0,
			"-0.015": 0.0,
			"-0.014": 0.566817183457,
			"-0.013": 2.2791922632,
			"-0.012": 2.44253585276,
			"-0.011": 2.46311069533,
			"-0.01": 3.5569230173,
			"-0.009": 3.31851258456,
			"-0.008": 6.79709854436,
			"-0.007": 8.3130561032,
			"-0.006": 10.768004109,
			"-0.005": 15.9307544662,
			"-0.004": 27.3892439678,
			"-0.003": 39.5053686495,
			"-0.002": 45.5289447786,
			"-0.001": 54.8262770662,
			"0.0": 43.575780353,
			"0.001": 32.3798883923,
			"0.002": 22.483937514,
			"0.003": 14.0528806115,
			"0.004": 8.79809923625,
			"0.005": 9.73411503677,
			"0.006": 7.26856496633,
			"0.007": 7.7151547296,
			"0.008": 8.14226841669,
			"0.009": 8.34320552609,
			"0.01": 7.31852852818,
			"0.011": 7.98416440069,
			"0.012": 7.44020495898,
			"0.013": 4.38518629316,
			"0.014": 2.68842071129,
			"0.015": 0.352173416737,
			"0.016": 0.0,
			"0.017": 0.0,
			"0.018": 0.0,
			"0.019": 0.0,
			"0.02": 0.0,
			"0.021": 0.0,
			"0.022": 0.0,
			"0.023": 0.0,
			"0.024": 0.0,
			"0.025": 0.0
		}
	}
}
