{
	 "smiles": "NC1=C(NC(=O)CC2CCC=C2)C=CC=C1", 
	 "Tm": 402.15, 
	 "num_atms": 32, 
	 "gaussian": { 
		 "optdone": 1, 
		 "sigma_profile": "yes", 
		 "theory": "DFT", 
		 "functional": "B3LYP", 
		 "basiset": "6-31G**", 
		 "properties": { 
			 "R2extent": 4610.2707, 
			 "electric_dipole_moment_norm": 3.43303343561, 
			 "electric_quadrupole_moment_norm": 10.2423085015, 
			 "total_energy": -689.756136035, 
			 "HOMO_LUMO_gap": 0.19888, 
			 "cosmo_polarized_energy": -13.15, 
			 "cosmo_cavitation_energy": 33.55, 
			 "cosmo_dispersion_energy": -23.52, 
			 "cosmo_repulsion_energy": 1.84, 
			 "cosmo_total_nonelectrostatic_energy": 11.87, 
			 "SMD_solvation_energy": 5.78 
		},
		"coords": [
			{
				"x": -1.0640474615,
				"y": -0.3888323928,
				"z": 1.3971502404,
				"element": "N" 
			},
			{
				"x": -0.0814711445,
				"y": 0.0668751271,
				"z": 2.2731232513,
				"element": "C" 
			},
			{
				"x": 0.4826645325,
				"y": 1.3506358546,
				"z": 2.0866691246,
				"element": "C" 
			},
			{
				"x": 0.0108499402,
				"y": 2.1423031105,
				"z": 0.9993355465,
				"element": "N" 
			},
			{
				"x": 0.6820332469,
				"y": 2.6643529807,
				"z": -0.0893657178,
				"element": "C" 
			},
			{
				"x": 0.0973646948,
				"y": 3.4280951869,
				"z": -0.8510865716,
				"element": "O" 
			},
			{
				"x": 2.1136751981,
				"y": 2.215195138,
				"z": -0.3422659591,
				"element": "C" 
			},
			{
				"x": 2.2242367311,
				"y": 1.1222527317,
				"z": -1.4433359244,
				"element": "C" 
			},
			{
				"x": 1.6787092199,
				"y": 1.5332593834,
				"z": -2.8439539186,
				"element": "C" 
			},
			{
				"x": 0.9525098606,
				"y": 0.2822553876,
				"z": -3.4092758022,
				"element": "C" 
			},
			{
				"x": 0.7820877325,
				"y": -0.6038040833,
				"z": -2.1978578816,
				"element": "C" 
			},
			{
				"x": 1.4706121051,
				"y": -0.1577700377,
				"z": -1.1430975077,
				"element": "C" 
			},
			{
				"x": 1.4275355742,
				"y": 1.8387868366,
				"z": 2.9932727339,
				"element": "C" 
			},
			{
				"x": 1.8493790922,
				"y": 1.0660476374,
				"z": 4.0746687809,
				"element": "C" 
			},
			{
				"x": 1.2889242869,
				"y": -0.1991405598,
				"z": 4.265482605,
				"element": "C" 
			},
			{
				"x": 0.3345274016,
				"y": -0.6924219856,
				"z": 3.3797763836,
				"element": "C" 
			},
			{
				"x": -1.2306002842,
				"y": -1.3853646773,
				"z": 1.4321402244,
				"element": "H" 
			},
			{
				"x": -0.9584155784,
				"y": -0.0516800659,
				"z": 0.4471096548,
				"element": "H" 
			},
			{
				"x": -0.961378023,
				"y": 2.4340762144,
				"z": 1.0243821504,
				"element": "H" 
			},
			{
				"x": 2.5829300402,
				"y": 1.8439647107,
				"z": 0.5717760425,
				"element": "H" 
			},
			{
				"x": 2.6649036887,
				"y": 3.1019071549,
				"z": -0.6696350418,
				"element": "H" 
			},
			{
				"x": 3.2980143598,
				"y": 0.8876289529,
				"z": -1.5100642408,
				"element": "H" 
			},
			{
				"x": 0.9697424658,
				"y": 2.355145481,
				"z": -2.7236455722,
				"element": "H" 
			},
			{
				"x": 2.479360264,
				"y": 1.8823821907,
				"z": -3.5023983356,
				"element": "H" 
			},
			{
				"x": -0.0013421739,
				"y": 0.532494612,
				"z": -3.8895085548,
				"element": "H" 
			},
			{
				"x": 1.5525626528,
				"y": -0.2339759721,
				"z": -4.1728304101,
				"element": "H" 
			},
			{
				"x": 0.2068520275,
				"y": -1.5259533821,
				"z": -2.2214463264,
				"element": "H" 
			},
			{
				"x": 1.542247895,
				"y": -0.6606003821,
				"z": -0.1825458209,
				"element": "H" 
			},
			{
				"x": 1.8206936741,
				"y": 2.8397871929,
				"z": 2.8414162761,
				"element": "H" 
			},
			{
				"x": 2.5890841461,
				"y": 1.4539313457,
				"z": 4.7673859089,
				"element": "H" 
			},
			{
				"x": 1.5978261818,
				"y": -0.8101930735,
				"z": 5.1088162567,
				"element": "H" 
			},
			{
				"x": -0.0943723472,
				"y": -1.6795406174,
				"z": 3.5345084052,
				"element": "H" 
			}
		],
		 "valence_orbital": [ 
			{
				"type": "occ",
				"energy": -0.27593,
				"method": "rhf"
			},
			{
				"type": "occ",
				"energy": -0.24827,
				"method": "rhf"
			},
			{
				"type": "occ",
				"energy": -0.24137,
				"method": "rhf"
			},
			{
				"type": "occ",
				"energy": -0.23577,
				"method": "rhf"
			},
			{
				"type": "occ",
				"energy": -0.2084,
				"method": "rhf"
			},
			{
				"type": "unocc",
				"energy": -0.00952,
				"method": "rhf"
			},
			{
				"type": "unocc",
				"energy": 0.00672,
				"method": "rhf"
			},
			{
				"type": "unocc",
				"energy": 0.0203,
				"method": "rhf"
			},
			{
				"type": "unocc",
				"energy": 0.02754,
				"method": "rhf"
			},
			{
				"type": "unocc",
				"energy": 0.07873,
				"method": "rhf"
			}
		],
		"cosmo_sigma_profile": { 
			"-0.025": 0.0,
			"-0.024": 0.0,
			"-0.023": 0.0,
			"-0.022": 0.0,
			"-0.021": 0.0,
			"-0.02": 0.0,
			"-0.019": 0.0,
			"-0.018": 0.0,
			"-0.017": 0.0,
			"-0.016": 0.0,
			"-0.015": 0.0,
			"-0.014": 0.0331350407708,
			"-0.013": 0.852492150002,
			"-0.012": 2.42843637982,
			"-0.011": 1.88081333765,
			"-0.01": 1.61810734618,
			"-0.009": 2.63352962644,
			"-0.008": 2.96886109284,
			"-0.007": 4.20854413588,
			"-0.006": 6.95688642599,
			"-0.005": 12.3629146822,
			"-0.004": 17.0091697891,
			"-0.003": 28.6767735084,
			"-0.002": 32.4094628835,
			"-0.001": 28.2404716458,
			"0.0": 22.309877092,
			"0.001": 19.0766914554,
			"0.002": 12.9491434538,
			"0.003": 11.106555418,
			"0.004": 11.4918966926,
			"0.005": 10.8131700124,
			"0.006": 10.1643631836,
			"0.007": 3.61273689166,
			"0.008": 2.7100430817,
			"0.009": 1.39106022466,
			"0.01": 2.46102384358,
			"0.011": 1.56773475381,
			"0.012": 2.49070726285,
			"0.013": 4.09954105718,
			"0.014": 4.85190818711,
			"0.015": 0.728688451174,
			"0.016": 0.0,
			"0.017": 0.0,
			"0.018": 0.0,
			"0.019": 0.0,
			"0.02": 0.0,
			"0.021": 0.0,
			"0.022": 0.0,
			"0.023": 0.0,
			"0.024": 0.0,
			"0.025": 0.0
		}
	}
}
