{
	 "smiles": "CC1CN(CC(C)O1)C(=O)CCl", 
	 "Tm": 335.15, 
	 "num_atms": 26, 
	 "gaussian": { 
		 "optdone": 1, 
		 "sigma_profile": "yes", 
		 "theory": "DFT", 
		 "functional": "B3LYP", 
		 "basiset": "6-31G**", 
		 "properties": { 
			 "R2extent": 2893.9058, 
			 "electric_dipole_moment_norm": 2.69973747057, 
			 "electric_quadrupole_moment_norm": 10.6030139899, 
			 "total_energy": -978.695391615, 
			 "HOMO_LUMO_gap": 0.21635, 
			 "cosmo_polarized_energy": -11.32, 
			 "cosmo_cavitation_energy": 29.25, 
			 "cosmo_dispersion_energy": -20.89, 
			 "cosmo_repulsion_energy": 1.69, 
			 "cosmo_total_nonelectrostatic_energy": 10.05, 
			 "SMD_solvation_energy": 4.74 
		},
		"coords": [
			{
				"x": -2.341446618,
				"y": -3.1315961837,
				"z": -0.5821084273,
				"element": "C" 
			},
			{
				"x": -1.2523488194,
				"y": -2.1191372783,
				"z": -0.2624520364,
				"element": "C" 
			},
			{
				"x": -0.6088994104,
				"y": -1.5319461568,
				"z": -1.5232892481,
				"element": "C" 
			},
			{
				"x": 0.3201652121,
				"y": -0.4596848315,
				"z": -1.1627779479,
				"element": "N" 
			},
			{
				"x": -0.2650647371,
				"y": 0.5685432885,
				"z": -0.305097311,
				"element": "C" 
			},
			{
				"x": -0.9216269339,
				"y": -0.0807532827,
				"z": 0.9239697378,
				"element": "C" 
			},
			{
				"x": -1.6796963176,
				"y": 0.9267944301,
				"z": 1.775094785,
				"element": "C" 
			},
			{
				"x": -1.8540099306,
				"y": -1.0764638457,
				"z": 0.5093149641,
				"element": "O" 
			},
			{
				"x": 1.600437284,
				"y": -0.4984488338,
				"z": -1.6424517833,
				"element": "C" 
			},
			{
				"x": 2.0095866,
				"y": -1.3818782653,
				"z": -2.3890101988,
				"element": "O" 
			},
			{
				"x": 2.5554827885,
				"y": 0.6334976008,
				"z": -1.2524041814,
				"element": "C" 
			},
			{
				"x": 3.0793896257,
				"y": 0.5518088559,
				"z": 0.4884291724,
				"element": "Cl" 
			},
			{
				"x": -2.7911863889,
				"y": -3.5031964219,
				"z": 0.3421654403,
				"element": "H" 
			},
			{
				"x": -3.1301537758,
				"y": -2.6694538755,
				"z": -1.1841981778,
				"element": "H" 
			},
			{
				"x": -1.9298926802,
				"y": -3.9806529359,
				"z": -1.1363374568,
				"element": "H" 
			},
			{
				"x": -0.4586825274,
				"y": -2.5950508686,
				"z": 0.3382100407,
				"element": "H" 
			},
			{
				"x": -0.0487658005,
				"y": -2.2845189511,
				"z": -2.0786217862,
				"element": "H" 
			},
			{
				"x": -1.3977723348,
				"y": -1.1254250283,
				"z": -2.1727571768,
				"element": "H" 
			},
			{
				"x": 0.4954830576,
				"y": 1.2768355421,
				"z": 0.0205930095,
				"element": "H" 
			},
			{
				"x": -1.0351834316,
				"y": 1.1159343375,
				"z": -0.8689216394,
				"element": "H" 
			},
			{
				"x": -0.1237327301,
				"y": -0.5557358265,
				"z": 1.519210807,
				"element": "H" 
			},
			{
				"x": -1.0034771574,
				"y": 1.6941961813,
				"z": 2.164525037,
				"element": "H" 
			},
			{
				"x": -2.1529215019,
				"y": 0.4198515386,
				"z": 2.6197334098,
				"element": "H" 
			},
			{
				"x": -2.4640858419,
				"y": 1.4141685417,
				"z": 1.187314532,
				"element": "H" 
			},
			{
				"x": 3.4520796784,
				"y": 0.5072421016,
				"z": -1.8539696444,
				"element": "H" 
			},
			{
				"x": 2.1328226913,
				"y": 1.6271701674,
				"z": -1.41046392,
				"element": "H" 
			}
		],
		 "valence_orbital": [ 
			{
				"type": "occ",
				"energy": -0.31681,
				"method": "rhf"
			},
			{
				"type": "occ",
				"energy": -0.30791,
				"method": "rhf"
			},
			{
				"type": "occ",
				"energy": -0.27674,
				"method": "rhf"
			},
			{
				"type": "occ",
				"energy": -0.2569,
				"method": "rhf"
			},
			{
				"type": "occ",
				"energy": -0.23756,
				"method": "rhf"
			},
			{
				"type": "unocc",
				"energy": -0.02121,
				"method": "rhf"
			},
			{
				"type": "unocc",
				"energy": 0.05209,
				"method": "rhf"
			},
			{
				"type": "unocc",
				"energy": 0.08504,
				"method": "rhf"
			},
			{
				"type": "unocc",
				"energy": 0.09678,
				"method": "rhf"
			},
			{
				"type": "unocc",
				"energy": 0.10246,
				"method": "rhf"
			}
		],
		"cosmo_sigma_profile": { 
			"-0.025": 0.0,
			"-0.024": 0.0,
			"-0.023": 0.0,
			"-0.022": 0.0,
			"-0.021": 0.0,
			"-0.02": 0.0,
			"-0.019": 0.0,
			"-0.018": 0.0,
			"-0.017": 0.0,
			"-0.016": 0.0,
			"-0.015": 0.0,
			"-0.014": 0.0,
			"-0.013": 0.0,
			"-0.012": 0.0,
			"-0.011": 0.0,
			"-0.01": 0.23478405863,
			"-0.009": 2.78489511407,
			"-0.008": 3.86601739635,
			"-0.007": 4.425364243,
			"-0.006": 4.50727283585,
			"-0.005": 13.5999682669,
			"-0.004": 27.2949167874,
			"-0.003": 26.141494309,
			"-0.002": 24.7181418137,
			"-0.001": 20.3510058365,
			"0.0": 21.4518004172,
			"0.001": 14.9183345237,
			"0.002": 7.47767695061,
			"0.003": 9.56140178218,
			"0.004": 8.90739007886,
			"0.005": 9.37786404565,
			"0.006": 6.34661074605,
			"0.007": 2.46991709014,
			"0.008": 2.56589841363,
			"0.009": 2.69565732492,
			"0.01": 2.50825997249,
			"0.011": 2.72747449016,
			"0.012": 4.18281822512,
			"0.013": 5.15719319805,
			"0.014": 1.90557363556,
			"0.015": 0.0196977963013,
			"0.016": 0.0,
			"0.017": 0.0,
			"0.018": 0.0,
			"0.019": 0.0,
			"0.02": 0.0,
			"0.021": 0.0,
			"0.022": 0.0,
			"0.023": 0.0,
			"0.024": 0.0,
			"0.025": 0.0
		}
	}
}
