{
	 "smiles": "NC1=CC(=NO1)C1=CC=CC=C1", 
	 "Tm": 382.15, 
	 "num_atms": 20, 
	 "gaussian": { 
		 "optdone": 1, 
		 "sigma_profile": "yes", 
		 "theory": "DFT", 
		 "functional": "B3LYP", 
		 "basiset": "6-31G**", 
		 "properties": { 
			 "R2extent": 2500.8672, 
			 "electric_dipole_moment_norm": 3.57062373963, 
			 "electric_quadrupole_moment_norm": 17.8404290728, 
			 "total_energy": -532.459275002, 
			 "HOMO_LUMO_gap": 0.18783, 
			 "cosmo_polarized_energy": -14.09, 
			 "cosmo_cavitation_energy": 24.58, 
			 "cosmo_dispersion_energy": -18.53, 
			 "cosmo_repulsion_energy": 1.47, 
			 "cosmo_total_nonelectrostatic_energy": 7.51, 
			 "SMD_solvation_energy": 4.33 
		},
		"coords": [
			{
				"x": -2.3062966081,
				"y": 3.1877338011,
				"z": -1.0624947128,
				"element": "N" 
			},
			{
				"x": -1.3189013472,
				"y": 2.2400805681,
				"z": -0.9397773475,
				"element": "C" 
			},
			{
				"x": -1.0332623069,
				"y": 1.2921397162,
				"z": 0.0058270587,
				"element": "C" 
			},
			{
				"x": 0.0916522485,
				"y": 0.605013403,
				"z": -0.5411702672,
				"element": "C" 
			},
			{
				"x": 0.4510788196,
				"y": 1.096309652,
				"z": -1.7137193859,
				"element": "N" 
			},
			{
				"x": -0.4568259495,
				"y": 2.1499983003,
				"z": -1.9670362024,
				"element": "O" 
			},
			{
				"x": 0.8419218125,
				"y": -0.5232836839,
				"z": 0.0425845688,
				"element": "C" 
			},
			{
				"x": 0.4037557353,
				"y": -1.1447860424,
				"z": 1.2208641861,
				"element": "C" 
			},
			{
				"x": 1.1168466029,
				"y": -2.2109739103,
				"z": 1.7688444357,
				"element": "C" 
			},
			{
				"x": 2.2772677428,
				"y": -2.6720293773,
				"z": 1.1461915414,
				"element": "C" 
			},
			{
				"x": 2.7202856621,
				"y": -2.059604741,
				"z": -0.029686698,
				"element": "C" 
			},
			{
				"x": 2.0114837096,
				"y": -0.9943849709,
				"z": -0.5779222643,
				"element": "C" 
			},
			{
				"x": -2.0899094339,
				"y": 3.9360930575,
				"z": -1.7074726953,
				"element": "H" 
			},
			{
				"x": -2.7017003439,
				"y": 3.5113540572,
				"z": -0.1916785917,
				"element": "H" 
			},
			{
				"x": -1.5432300701,
				"y": 1.1197035854,
				"z": 0.9395773611,
				"element": "H" 
			},
			{
				"x": -0.5017771004,
				"y": -0.800857639,
				"z": 1.7110252903,
				"element": "H" 
			},
			{
				"x": 0.7633034227,
				"y": -2.6819096085,
				"z": 2.6816370732,
				"element": "H" 
			},
			{
				"x": 2.8328349287,
				"y": -3.5022384146,
				"z": 1.5728091913,
				"element": "H" 
			},
			{
				"x": 3.6229717827,
				"y": -2.412882914,
				"z": -0.5199675482,
				"element": "H" 
			},
			{
				"x": 2.3521006924,
				"y": -0.514174839,
				"z": -1.4888349933,
				"element": "H" 
			}
		],
		 "valence_orbital": [ 
			{
				"type": "occ",
				"energy": -0.30411,
				"method": "rhf"
			},
			{
				"type": "occ",
				"energy": -0.29231,
				"method": "rhf"
			},
			{
				"type": "occ",
				"energy": -0.24983,
				"method": "rhf"
			},
			{
				"type": "occ",
				"energy": -0.23464,
				"method": "rhf"
			},
			{
				"type": "occ",
				"energy": -0.21598,
				"method": "rhf"
			},
			{
				"type": "unocc",
				"energy": -0.02815,
				"method": "rhf"
			},
			{
				"type": "unocc",
				"energy": 0.00039,
				"method": "rhf"
			},
			{
				"type": "unocc",
				"energy": 0.03433,
				"method": "rhf"
			},
			{
				"type": "unocc",
				"energy": 0.06207,
				"method": "rhf"
			},
			{
				"type": "unocc",
				"energy": 0.09298,
				"method": "rhf"
			}
		],
		"cosmo_sigma_profile": { 
			"-0.025": 0.0,
			"-0.024": 0.0,
			"-0.023": 0.0,
			"-0.022": 0.0,
			"-0.021": 0.0,
			"-0.02": 0.0,
			"-0.019": 0.0,
			"-0.018": 0.0,
			"-0.017": 0.0,
			"-0.016": 0.0,
			"-0.015": 0.592747604091,
			"-0.014": 2.73230823714,
			"-0.013": 2.84900530753,
			"-0.012": 2.37905262426,
			"-0.011": 3.11185584584,
			"-0.01": 1.83130048547,
			"-0.009": 2.94739158585,
			"-0.008": 3.84420395675,
			"-0.007": 4.80590810353,
			"-0.006": 9.12761060515,
			"-0.005": 11.3188388615,
			"-0.004": 13.1720422744,
			"-0.003": 10.1733373265,
			"-0.002": 9.35161905885,
			"-0.001": 8.73448017385,
			"0.0": 7.91587383196,
			"0.001": 9.84444955392,
			"0.002": 15.7161768359,
			"0.003": 18.8846992552,
			"0.004": 16.8904276077,
			"0.005": 14.8898469546,
			"0.006": 3.91794069366,
			"0.007": 3.19210327498,
			"0.008": 4.85406422439,
			"0.009": 4.69929205986,
			"0.01": 2.54377400188,
			"0.011": 2.11869031029,
			"0.012": 2.07254727978,
			"0.013": 1.22049357274,
			"0.014": 1.1954319448,
			"0.015": 0.126247843733,
			"0.016": 0.0,
			"0.017": 0.0,
			"0.018": 0.0,
			"0.019": 0.0,
			"0.02": 0.0,
			"0.021": 0.0,
			"0.022": 0.0,
			"0.023": 0.0,
			"0.024": 0.0,
			"0.025": 0.0
		}
	}
}
