{
	 "smiles": "CC1=CC=C(C=C1)C(=O)C1=NOC2C1C(=O)N(C2=O)C1=CC=C(O)C=C1", 
	 "Tm": 393.15, 
	 "num_atms": 40, 
	 "gaussian": { 
		 "optdone": 1, 
		 "sigma_profile": "yes", 
		 "theory": "DFT", 
		 "functional": "B3LYP", 
		 "basiset": "6-31G**", 
		 "properties": { 
			 "R2extent": 13027.3596, 
			 "electric_dipole_moment_norm": 0.808807078357, 
			 "electric_quadrupole_moment_norm": 32.0661281144, 
			 "total_energy": -1218.0361187, 
			 "HOMO_LUMO_gap": 0.14353, 
			 "cosmo_polarized_energy": -23.61, 
			 "cosmo_cavitation_energy": 45.92, 
			 "cosmo_dispersion_energy": -32.39, 
			 "cosmo_repulsion_energy": 2.43, 
			 "cosmo_total_nonelectrostatic_energy": 15.97, 
			 "SMD_solvation_energy": 9.55 
		},
		"coords": [
			{
				"x": -3.1520934303,
				"y": -5.2012195446,
				"z": 1.8267482226,
				"element": "C" 
			},
			{
				"x": -2.4183457985,
				"y": -4.1745127115,
				"z": 0.9999776227,
				"element": "C" 
			},
			{
				"x": -1.725246463,
				"y": -4.5542832049,
				"z": -0.1624232768,
				"element": "C" 
			},
			{
				"x": -1.029371093,
				"y": -3.6200758374,
				"z": -0.9153688564,
				"element": "C" 
			},
			{
				"x": -1.0095706022,
				"y": -2.2652413825,
				"z": -0.5352234666,
				"element": "C" 
			},
			{
				"x": -1.6977604845,
				"y": -1.8782980612,
				"z": 0.6252213524,
				"element": "C" 
			},
			{
				"x": -2.3916416925,
				"y": -2.8256040819,
				"z": 1.375449959,
				"element": "C" 
			},
			{
				"x": -0.2228461683,
				"y": -1.3378748265,
				"z": -1.3884307506,
				"element": "C" 
			},
			{
				"x": 0.4676862905,
				"y": -1.736618261,
				"z": -2.3209510166,
				"element": "O" 
			},
			{
				"x": -0.2341823351,
				"y": 0.1473086863,
				"z": -1.1784386978,
				"element": "C" 
			},
			{
				"x": -1.2058917479,
				"y": 0.8090340379,
				"z": -0.6582485865,
				"element": "N" 
			},
			{
				"x": -0.9955577204,
				"y": 2.1696095532,
				"z": -0.7831795713,
				"element": "O" 
			},
			{
				"x": 0.2555601515,
				"y": 2.411085781,
				"z": -1.5015310058,
				"element": "C" 
			},
			{
				"x": 0.8607984548,
				"y": 1.0338608173,
				"z": -1.734035275,
				"element": "C" 
			},
			{
				"x": 2.1301664322,
				"y": 0.9996106078,
				"z": -0.8646686434,
				"element": "C" 
			},
			{
				"x": 2.8855925742,
				"y": 0.0671820428,
				"z": -0.7328250594,
				"element": "O" 
			},
			{
				"x": 2.2533128965,
				"y": 2.2513131573,
				"z": -0.2304420174,
				"element": "N" 
			},
			{
				"x": 1.231422742,
				"y": 3.1481739122,
				"z": -0.5778286092,
				"element": "C" 
			},
			{
				"x": 1.135722552,
				"y": 4.2982939315,
				"z": -0.2177740457,
				"element": "O" 
			},
			{
				"x": 3.3244660447,
				"y": 2.5781600283,
				"z": 0.6648758245,
				"element": "C" 
			},
			{
				"x": 3.7245912821,
				"y": 1.6593941215,
				"z": 1.6428578733,
				"element": "C" 
			},
			{
				"x": 4.762636265,
				"y": 1.9737347501,
				"z": 2.5112162936,
				"element": "C" 
			},
			{
				"x": 5.4041942611,
				"y": 3.2144184936,
				"z": 2.4173727531,
				"element": "C" 
			},
			{
				"x": 6.4109016095,
				"y": 3.4686694237,
				"z": 3.3006797019,
				"element": "O" 
			},
			{
				"x": 5.0003123189,
				"y": 4.1331090913,
				"z": 1.442709265,
				"element": "C" 
			},
			{
				"x": 3.9668817661,
				"y": 3.8146319695,
				"z": 0.5650797346,
				"element": "C" 
			},
			{
				"x": -3.7369609407,
				"y": -5.8773458075,
				"z": 1.1945499285,
				"element": "H" 
			},
			{
				"x": -2.4483607848,
				"y": -5.8216185308,
				"z": 2.3953537519,
				"element": "H" 
			},
			{
				"x": -3.8310343463,
				"y": -4.7304896888,
				"z": 2.5426472137,
				"element": "H" 
			},
			{
				"x": -1.7352323837,
				"y": -5.5957384104,
				"z": -0.4741938287,
				"element": "H" 
			},
			{
				"x": -0.489995448,
				"y": -3.9116876514,
				"z": -1.8100316501,
				"element": "H" 
			},
			{
				"x": -1.7024985772,
				"y": -0.8412226138,
				"z": 0.9361921884,
				"element": "H" 
			},
			{
				"x": -2.9219755394,
				"y": -2.5104959095,
				"z": 2.2701563994,
				"element": "H" 
			},
			{
				"x": 0.0241895692,
				"y": 3.0137347817,
				"z": -2.3822903169,
				"element": "H" 
			},
			{
				"x": 1.1171470897,
				"y": 0.7610858662,
				"z": -2.7596052932,
				"element": "H" 
			},
			{
				"x": 3.2346293603,
				"y": 0.6965074716,
				"z": 1.714858631,
				"element": "H" 
			},
			{
				"x": 5.0866512844,
				"y": 1.2706525521,
				"z": 3.2706826683,
				"element": "H" 
			},
			{
				"x": 6.7680479986,
				"y": 4.3506405211,
				"z": 3.1338098186,
				"element": "H" 
			},
			{
				"x": 5.4929886849,
				"y": 5.0996035243,
				"z": 1.3653608331,
				"element": "H" 
			},
			{
				"x": 3.6527659276,
				"y": 4.5330114013,
				"z": -0.1814100682,
				"element": "H" 
			}
		],
		 "valence_orbital": [ 
			{
				"type": "occ",
				"energy": -0.26255,
				"method": "rhf"
			},
			{
				"type": "occ",
				"energy": -0.26196,
				"method": "rhf"
			},
			{
				"type": "occ",
				"energy": -0.25885,
				"method": "rhf"
			},
			{
				"type": "occ",
				"energy": -0.25322,
				"method": "rhf"
			},
			{
				"type": "occ",
				"energy": -0.227,
				"method": "rhf"
			},
			{
				"type": "unocc",
				"energy": -0.08347,
				"method": "rhf"
			},
			{
				"type": "unocc",
				"energy": -0.04509,
				"method": "rhf"
			},
			{
				"type": "unocc",
				"energy": -0.03047,
				"method": "rhf"
			},
			{
				"type": "unocc",
				"energy": -0.01353,
				"method": "rhf"
			},
			{
				"type": "unocc",
				"energy": -0.01235,
				"method": "rhf"
			}
		],
		"cosmo_sigma_profile": { 
			"-0.025": 0.0,
			"-0.024": 0.0,
			"-0.023": 0.0,
			"-0.022": 0.0,
			"-0.021": 0.0,
			"-0.02": 0.0,
			"-0.019": 0.00569353654111,
			"-0.018": 0.724146202447,
			"-0.017": 1.21701383101,
			"-0.016": 1.12624799747,
			"-0.015": 1.43415037363,
			"-0.014": 1.06582222015,
			"-0.013": 0.452735141288,
			"-0.012": 0.757757209912,
			"-0.011": 2.96391803445,
			"-0.01": 9.29879655498,
			"-0.009": 7.99610659028,
			"-0.008": 5.7491468492,
			"-0.007": 7.95639313193,
			"-0.006": 16.9198621071,
			"-0.005": 25.1074014489,
			"-0.004": 25.2980989736,
			"-0.003": 22.3113460881,
			"-0.002": 22.2770786241,
			"-0.001": 23.0821443364,
			"0.0": 20.2128625338,
			"0.001": 20.1720124028,
			"0.002": 21.3796916608,
			"0.003": 28.1676524061,
			"0.004": 27.337651628,
			"0.005": 10.3290052627,
			"0.006": 9.78748823054,
			"0.007": 10.3509870479,
			"0.008": 10.5378341933,
			"0.009": 11.3072096412,
			"0.01": 13.5108436828,
			"0.011": 9.16950602222,
			"0.012": 0.292794038421,
			"0.013": 0.0,
			"0.014": 0.0,
			"0.015": 0.0,
			"0.016": 0.0,
			"0.017": 0.0,
			"0.018": 0.0,
			"0.019": 0.0,
			"0.02": 0.0,
			"0.021": 0.0,
			"0.022": 0.0,
			"0.023": 0.0,
			"0.024": 0.0,
			"0.025": 0.0
		}
	}
}
