{
	 "smiles": "OC(=O)CNCCNCC(O)=O", 
	 "Tm": 497.15, 
	 "num_atms": 24, 
	 "gaussian": { 
		 "optdone": 1, 
		 "sigma_profile": "yes", 
		 "theory": "DFT", 
		 "functional": "B3LYP", 
		 "basiset": "6-31G**", 
		 "properties": { 
			 "R2extent": 3118.2049, 
			 "electric_dipole_moment_norm": 2.86740259294, 
			 "electric_quadrupole_moment_norm": 13.5088956188, 
			 "total_energy": -646.279323871, 
			 "HOMO_LUMO_gap": 0.21138, 
			 "cosmo_polarized_energy": -17.57, 
			 "cosmo_cavitation_energy": 27.57, 
			 "cosmo_dispersion_energy": -19.45, 
			 "cosmo_repulsion_energy": 1.6, 
			 "cosmo_total_nonelectrostatic_energy": 9.72, 
			 "SMD_solvation_energy": 2.38 
		},
		"coords": [
			{
				"x": -3.0329257081,
				"y": 3.098216669,
				"z": -0.3272173376,
				"element": "O" 
			},
			{
				"x": -2.9487850588,
				"y": 1.7543410715,
				"z": -0.2338763776,
				"element": "C" 
			},
			{
				"x": -3.0107981108,
				"y": 1.1675987515,
				"z": 0.8278618671,
				"element": "O" 
			},
			{
				"x": -2.8535645858,
				"y": 1.0926000738,
				"z": -1.6042182327,
				"element": "C" 
			},
			{
				"x": -2.580709829,
				"y": -0.3264657171,
				"z": -1.5991257762,
				"element": "N" 
			},
			{
				"x": -1.1773860094,
				"y": -0.7411667478,
				"z": -1.6401382861,
				"element": "C" 
			},
			{
				"x": -0.2750716879,
				"y": -0.3670405852,
				"z": -0.4519539152,
				"element": "C" 
			},
			{
				"x": -0.7750381886,
				"y": -0.9394591546,
				"z": 0.7964936643,
				"element": "N" 
			},
			{
				"x": 0.1958038326,
				"y": -1.0404170879,
				"z": 1.8644943182,
				"element": "C" 
			},
			{
				"x": 0.8264319659,
				"y": 0.2392274958,
				"z": 2.4227095163,
				"element": "C" 
			},
			{
				"x": 0.0877188367,
				"y": 1.3487553863,
				"z": 2.1724237856,
				"element": "O" 
			},
			{
				"x": 1.8586508064,
				"y": 0.2745344144,
				"z": 3.0554702507,
				"element": "O" 
			},
			{
				"x": -3.1433308376,
				"y": 3.4322372951,
				"z": 0.5793946124,
				"element": "H" 
			},
			{
				"x": -2.1058842737,
				"y": 1.6242686414,
				"z": -2.20211413,
				"element": "H" 
			},
			{
				"x": -3.819841418,
				"y": 1.2961347886,
				"z": -2.0918911276,
				"element": "H" 
			},
			{
				"x": -3.0629084193,
				"y": -0.7758092034,
				"z": -0.8262202089,
				"element": "H" 
			},
			{
				"x": -0.7344565843,
				"y": -0.3333679218,
				"z": -2.5587815329,
				"element": "H" 
			},
			{
				"x": -1.1746492393,
				"y": -1.8320482434,
				"z": -1.7386003314,
				"element": "H" 
			},
			{
				"x": -0.1401540011,
				"y": 0.7278420765,
				"z": -0.3991407739,
				"element": "H" 
			},
			{
				"x": 0.7192981251,
				"y": -0.789302474,
				"z": -0.6503056415,
				"element": "H" 
			},
			{
				"x": -1.5861960927,
				"y": -0.4085263905,
				"z": 1.1052214732,
				"element": "H" 
			},
			{
				"x": -0.2687356311,
				"y": -1.5408273551,
				"z": 2.7248429971,
				"element": "H" 
			},
			{
				"x": 1.0325894496,
				"y": -1.6789352458,
				"z": 1.5610177564,
				"element": "H" 
			},
			{
				"x": 0.5659426593,
				"y": 2.0816094629,
				"z": 2.5963534302,
				"element": "H" 
			}
		],
		 "valence_orbital": [ 
			{
				"type": "occ",
				"energy": -0.31466,
				"method": "rhf"
			},
			{
				"type": "occ",
				"energy": -0.29265,
				"method": "rhf"
			},
			{
				"type": "occ",
				"energy": -0.28423,
				"method": "rhf"
			},
			{
				"type": "occ",
				"energy": -0.23074,
				"method": "rhf"
			},
			{
				"type": "occ",
				"energy": -0.21397,
				"method": "rhf"
			},
			{
				"type": "unocc",
				"energy": -0.00259,
				"method": "rhf"
			},
			{
				"type": "unocc",
				"energy": 0.01209,
				"method": "rhf"
			},
			{
				"type": "unocc",
				"energy": 0.06363,
				"method": "rhf"
			},
			{
				"type": "unocc",
				"energy": 0.07456,
				"method": "rhf"
			},
			{
				"type": "unocc",
				"energy": 0.08915,
				"method": "rhf"
			}
		],
		"cosmo_sigma_profile": { 
			"-0.025": 0.0,
			"-0.024": 0.0,
			"-0.023": 0.0,
			"-0.022": 0.0,
			"-0.021": 0.0,
			"-0.02": 0.0,
			"-0.019": 0.0915109590448,
			"-0.018": 1.39843933655,
			"-0.017": 1.82659011195,
			"-0.016": 1.85652201127,
			"-0.015": 1.73479473669,
			"-0.014": 1.04363155125,
			"-0.013": 1.60689203522,
			"-0.012": 0.919150186667,
			"-0.011": 1.77675040206,
			"-0.01": 1.75069122576,
			"-0.009": 0.838867696494,
			"-0.008": 1.6700990402,
			"-0.007": 7.92984290729,
			"-0.006": 12.4612999728,
			"-0.005": 14.1165998184,
			"-0.004": 15.4648268915,
			"-0.003": 17.8270223927,
			"-0.002": 18.192920947,
			"-0.001": 15.9297143261,
			"0.0": 9.70241550018,
			"0.001": 8.36143133433,
			"0.002": 7.98888198525,
			"0.003": 6.58592423289,
			"0.004": 6.83637534353,
			"0.005": 7.01014015415,
			"0.006": 6.58813206429,
			"0.007": 5.29189491769,
			"0.008": 5.74795593778,
			"0.009": 8.09664278401,
			"0.01": 5.41928815639,
			"0.011": 6.09110108671,
			"0.012": 6.86076840763,
			"0.013": 3.24182127471,
			"0.014": 0.36637106789,
			"0.015": 0.961965216711,
			"0.016": 1.05081976978,
			"0.017": 0.278844037139,
			"0.018": 0.0,
			"0.019": 0.0,
			"0.02": 0.0,
			"0.021": 0.0,
			"0.022": 0.0,
			"0.023": 0.0,
			"0.024": 0.0,
			"0.025": 0.0
		}
	}
}
