{
	 "smiles": "CC1=NC(C)=C(NC(=O)OC(C)(C)C)S1", 
	 "Tm": 364.15, 
	 "num_atms": 31, 
	 "gaussian": { 
		 "optdone": 1, 
		 "sigma_profile": "yes", 
		 "theory": "DFT", 
		 "functional": "B3LYP", 
		 "basiset": "6-31G**", 
		 "properties": { 
			 "R2extent": 4342.7444, 
			 "electric_dipole_moment_norm": 1.55991411943, 
			 "electric_quadrupole_moment_norm": 10.319570149, 
			 "total_energy": -1048.88432787, 
			 "HOMO_LUMO_gap": 0.20485, 
			 "cosmo_polarized_energy": -11.04, 
			 "cosmo_cavitation_energy": 35.74, 
			 "cosmo_dispersion_energy": -24.18, 
			 "cosmo_repulsion_energy": 1.89, 
			 "cosmo_total_nonelectrostatic_energy": 13.46, 
			 "SMD_solvation_energy": 5.65 
		},
		"coords": [
			{
				"x": 4.4517305822,
				"y": -0.4340233982,
				"z": -0.0726776799,
				"element": "C" 
			},
			{
				"x": 3.1091938767,
				"y": -0.370110965,
				"z": 0.5901527135,
				"element": "C" 
			},
			{
				"x": 2.5205342321,
				"y": -1.3946131189,
				"z": 1.1375013438,
				"element": "N" 
			},
			{
				"x": 1.3053492854,
				"y": -1.0623666055,
				"z": 1.7026017905,
				"element": "C" 
			},
			{
				"x": 0.4859053242,
				"y": -2.1277990688,
				"z": 2.3640823791,
				"element": "C" 
			},
			{
				"x": 0.9488111407,
				"y": 0.2547408165,
				"z": 1.5824463301,
				"element": "C" 
			},
			{
				"x": -0.217799276,
				"y": 0.8815005936,
				"z": 2.0386303748,
				"element": "N" 
			},
			{
				"x": -1.4516917363,
				"y": 0.9008540873,
				"z": 1.4042223832,
				"element": "C" 
			},
			{
				"x": -2.3802214828,
				"y": 1.5649165853,
				"z": 1.8293275149,
				"element": "O" 
			},
			{
				"x": -1.4482426781,
				"y": 0.1001324032,
				"z": 0.3257253905,
				"element": "O" 
			},
			{
				"x": -2.6526689426,
				"y": -0.0408009202,
				"z": -0.5138898219,
				"element": "C" 
			},
			{
				"x": -3.7943291416,
				"y": -0.6450046212,
				"z": 0.3097148173,
				"element": "C" 
			},
			{
				"x": -2.1854200866,
				"y": -1.0145117351,
				"z": -1.5981893886,
				"element": "C" 
			},
			{
				"x": -3.0266605841,
				"y": 1.3148196686,
				"z": -1.1216948258,
				"element": "C" 
			},
			{
				"x": 2.2016093229,
				"y": 1.1306804443,
				"z": 0.7008472744,
				"element": "S" 
			},
			{
				"x": 5.1789800606,
				"y": 0.2127631679,
				"z": 0.429892414,
				"element": "H" 
			},
			{
				"x": 4.3995078681,
				"y": -0.1222886107,
				"z": -1.1212132551,
				"element": "H" 
			},
			{
				"x": 4.8078854703,
				"y": -1.465021287,
				"z": -0.0283919394,
				"element": "H" 
			},
			{
				"x": 0.0820879445,
				"y": -2.8220145701,
				"z": 1.6184206408,
				"element": "H" 
			},
			{
				"x": -0.3498559534,
				"y": -1.6936156654,
				"z": 2.9163916864,
				"element": "H" 
			},
			{
				"x": 1.105782769,
				"y": -2.711490178,
				"z": 3.0513237098,
				"element": "H" 
			},
			{
				"x": -0.1693984297,
				"y": 1.5283822971,
				"z": 2.8145245181,
				"element": "H" 
			},
			{
				"x": -3.4775756539,
				"y": -1.5898218197,
				"z": 0.7626894297,
				"element": "H" 
			},
			{
				"x": -4.6477664409,
				"y": -0.8518364266,
				"z": -0.3440899754,
				"element": "H" 
			},
			{
				"x": -4.1116750312,
				"y": 0.0377915336,
				"z": 1.0982267328,
				"element": "H" 
			},
			{
				"x": -1.3374740332,
				"y": -0.5994041217,
				"z": -2.1502120331,
				"element": "H" 
			},
			{
				"x": -2.9990040644,
				"y": -1.2080853122,
				"z": -2.3035418821,
				"element": "H" 
			},
			{
				"x": -1.8755864992,
				"y": -1.9657558139,
				"z": -1.1560616487,
				"element": "H" 
			},
			{
				"x": -3.3394402614,
				"y": 2.017749271,
				"z": -0.3492259631,
				"element": "H" 
			},
			{
				"x": -3.8485159396,
				"y": 1.1824347205,
				"z": -1.8327466964,
				"element": "H" 
			},
			{
				"x": -2.1739516419,
				"y": 1.7363986491,
				"z": -1.6631863337,
				"element": "H" 
			}
		],
		 "valence_orbital": [ 
			{
				"type": "occ",
				"energy": -0.28601,
				"method": "rhf"
			},
			{
				"type": "occ",
				"energy": -0.27554,
				"method": "rhf"
			},
			{
				"type": "occ",
				"energy": -0.2689,
				"method": "rhf"
			},
			{
				"type": "occ",
				"energy": -0.25814,
				"method": "rhf"
			},
			{
				"type": "occ",
				"energy": -0.22956,
				"method": "rhf"
			},
			{
				"type": "unocc",
				"energy": -0.02471,
				"method": "rhf"
			},
			{
				"type": "unocc",
				"energy": 0.0123,
				"method": "rhf"
			},
			{
				"type": "unocc",
				"energy": 0.04766,
				"method": "rhf"
			},
			{
				"type": "unocc",
				"energy": 0.05179,
				"method": "rhf"
			},
			{
				"type": "unocc",
				"energy": 0.08026,
				"method": "rhf"
			}
		],
		"cosmo_sigma_profile": { 
			"-0.025": 0.0,
			"-0.024": 0.0,
			"-0.023": 0.0,
			"-0.022": 0.0,
			"-0.021": 0.0,
			"-0.02": 0.0,
			"-0.019": 0.0,
			"-0.018": 0.0,
			"-0.017": 0.0,
			"-0.016": 0.0,
			"-0.015": 0.506823550804,
			"-0.014": 1.25386407704,
			"-0.013": 1.05548280758,
			"-0.012": 0.698752964147,
			"-0.011": 0.946206213329,
			"-0.01": 0.70747541234,
			"-0.009": 0.784101032353,
			"-0.008": 1.44561796008,
			"-0.007": 0.583788780801,
			"-0.006": 3.73419323732,
			"-0.005": 10.8575632113,
			"-0.004": 25.3379742141,
			"-0.003": 28.2486581999,
			"-0.002": 33.8264103223,
			"-0.001": 33.4220832527,
			"0.0": 39.4698875094,
			"0.001": 28.0053907781,
			"0.002": 14.3635904123,
			"0.003": 11.1636757764,
			"0.004": 9.50995964441,
			"0.005": 6.76039082628,
			"0.006": 4.78322156881,
			"0.007": 4.40716430721,
			"0.008": 3.24698722488,
			"0.009": 2.56880054732,
			"0.01": 2.39420792714,
			"0.011": 3.00866200045,
			"0.012": 3.61787369321,
			"0.013": 3.91063121238,
			"0.014": 1.20210498393,
			"0.015": 0.787607523516,
			"0.016": 0.106778577234,
			"0.017": 0.0,
			"0.018": 0.0,
			"0.019": 0.0,
			"0.02": 0.0,
			"0.021": 0.0,
			"0.022": 0.0,
			"0.023": 0.0,
			"0.024": 0.0,
			"0.025": 0.0
		}
	}
}
