{
	 "smiles": "CS(=O)(=O)C1=NC2=C(N1)N=CC(Br)=C2", 
	 "Tm": 496.15, 
	 "num_atms": 20, 
	 "gaussian": { 
		 "optdone": 1, 
		 "sigma_profile": "yes", 
		 "theory": "DFT", 
		 "functional": "B3LYP", 
		 "basiset": "6-31G**", 
		 "properties": { 
			 "R2extent": 7983.6898, 
			 "electric_dipole_moment_norm": 2.21977737172, 
			 "electric_quadrupole_moment_norm": 13.6148379344, 
			 "total_energy": -3554.58452046, 
			 "HOMO_LUMO_gap": 0.18397, 
			 "cosmo_polarized_energy": -16.97, 
			 "cosmo_cavitation_energy": 29.1, 
			 "cosmo_dispersion_energy": -22.46, 
			 "cosmo_repulsion_energy": 1.71, 
			 "cosmo_total_nonelectrostatic_energy": 8.35, 
			 "SMD_solvation_energy": 0.01 
		},
		"coords": [
			{
				"x": -3.1912504985,
				"y": -0.3364547045,
				"z": -0.0091065289,
				"element": "C" 
			},
			{
				"x": -1.6547088737,
				"y": -1.0428684795,
				"z": 0.5987679529,
				"element": "S" 
			},
			{
				"x": -1.210664953,
				"y": -2.1080631981,
				"z": -0.3097481087,
				"element": "O" 
			},
			{
				"x": -1.7730841239,
				"y": -1.3108578177,
				"z": 2.0380038882,
				"element": "O" 
			},
			{
				"x": -0.506476657,
				"y": 0.3318423765,
				"z": 0.4071094062,
				"element": "C" 
			},
			{
				"x": -0.8277962594,
				"y": 1.5076077331,
				"z": -0.0695873231,
				"element": "N" 
			},
			{
				"x": 0.3605506334,
				"y": 2.2193719756,
				"z": -0.0261107143,
				"element": "C" 
			},
			{
				"x": 1.4005389494,
				"y": 1.4137601333,
				"z": 0.4973815465,
				"element": "C" 
			},
			{
				"x": 0.8077859816,
				"y": 0.1952093912,
				"z": 0.7691156542,
				"element": "N" 
			},
			{
				"x": 2.6683507633,
				"y": 1.7601220486,
				"z": 0.6842351255,
				"element": "N" 
			},
			{
				"x": 2.9520029347,
				"y": 3.0153266722,
				"z": 0.3259181425,
				"element": "C" 
			},
			{
				"x": 1.9977364433,
				"y": 3.9080844807,
				"z": -0.2066431207,
				"element": "C" 
			},
			{
				"x": 2.563595739,
				"y": 5.6697429729,
				"z": -0.6692560986,
				"element": "Br" 
			},
			{
				"x": 0.6731367125,
				"y": 3.5302276997,
				"z": -0.3964397343,
				"element": "C" 
			},
			{
				"x": -3.0643996295,
				"y": -0.0434880483,
				"z": -1.0507144819,
				"element": "H" 
			},
			{
				"x": -3.4616199504,
				"y": 0.5196533697,
				"z": 0.6080269394,
				"element": "H" 
			},
			{
				"x": -3.9261918692,
				"y": -1.1382836675,
				"z": 0.0871213783,
				"element": "H" 
			},
			{
				"x": 1.2563847643,
				"y": -0.6239416859,
				"z": 1.1552774003,
				"element": "H" 
			},
			{
				"x": 3.9778941484,
				"y": 3.3446691083,
				"z": 0.4604674825,
				"element": "H" 
			},
			{
				"x": -0.0684842552,
				"y": 4.2066396397,
				"z": -0.8044188061,
				"element": "H" 
			}
		],
		 "valence_orbital": [ 
			{
				"type": "occ",
				"energy": -0.31346,
				"method": "rhf"
			},
			{
				"type": "occ",
				"energy": -0.30404,
				"method": "rhf"
			},
			{
				"type": "occ",
				"energy": -0.28431,
				"method": "rhf"
			},
			{
				"type": "occ",
				"energy": -0.27631,
				"method": "rhf"
			},
			{
				"type": "occ",
				"energy": -0.25437,
				"method": "rhf"
			},
			{
				"type": "unocc",
				"energy": -0.0704,
				"method": "rhf"
			},
			{
				"type": "unocc",
				"energy": -0.02029,
				"method": "rhf"
			},
			{
				"type": "unocc",
				"energy": -0.0081,
				"method": "rhf"
			},
			{
				"type": "unocc",
				"energy": -0.00102,
				"method": "rhf"
			},
			{
				"type": "unocc",
				"energy": 0.03519,
				"method": "rhf"
			}
		],
		"cosmo_sigma_profile": { 
			"-0.025": 0.0,
			"-0.024": 0.0,
			"-0.023": 0.0,
			"-0.022": 0.0,
			"-0.021": 0.0,
			"-0.02": 0.0,
			"-0.019": 0.606653384201,
			"-0.018": 1.37291486961,
			"-0.017": 1.31517489464,
			"-0.016": 0.589020316588,
			"-0.015": 0.522304602509,
			"-0.014": 1.08459680008,
			"-0.013": 1.74119432333,
			"-0.012": 0.655372482472,
			"-0.011": 0.920712924481,
			"-0.01": 2.81364029358,
			"-0.009": 6.71666838689,
			"-0.008": 8.52114546823,
			"-0.007": 9.40983088909,
			"-0.006": 8.31004148503,
			"-0.005": 10.8203659257,
			"-0.004": 11.2312963275,
			"-0.003": 15.2615282938,
			"-0.002": 17.1554050275,
			"-0.001": 15.332603465,
			"0.0": 20.3857886641,
			"0.001": 12.3562218598,
			"0.002": 11.7252351689,
			"0.003": 13.7337611113,
			"0.004": 14.0591008383,
			"0.005": 4.63513721158,
			"0.006": 4.4927946887,
			"0.007": 3.55132532295,
			"0.008": 5.24209044031,
			"0.009": 5.40916970614,
			"0.01": 13.2695946644,
			"0.011": 11.1084986565,
			"0.012": 2.14246842581,
			"0.013": 0.620703515779,
			"0.014": 0.459691149154,
			"0.015": 0.0,
			"0.016": 0.0,
			"0.017": 0.0,
			"0.018": 0.0,
			"0.019": 0.0,
			"0.02": 0.0,
			"0.021": 0.0,
			"0.022": 0.0,
			"0.023": 0.0,
			"0.024": 0.0,
			"0.025": 0.0
		}
	}
}
