{
	 "smiles": "ON=C(CC1=NC2=C(N1)C=CC=C2)C1=CC=CS1", 
	 "Tm": 481.15, 
	 "num_atms": 29, 
	 "gaussian": { 
		 "optdone": 1, 
		 "sigma_profile": "yes", 
		 "theory": "DFT", 
		 "functional": "B3LYP", 
		 "basiset": "6-31G**", 
		 "properties": { 
			 "R2extent": 5743.1424, 
			 "electric_dipole_moment_norm": 2.44631219798, 
			 "electric_quadrupole_moment_norm": 11.8581035828, 
			 "total_energy": -1139.62651162, 
			 "HOMO_LUMO_gap": 0.16845, 
			 "cosmo_polarized_energy": -15.8, 
			 "cosmo_cavitation_energy": 35.01, 
			 "cosmo_dispersion_energy": -25.85, 
			 "cosmo_repulsion_energy": 1.96, 
			 "cosmo_total_nonelectrostatic_energy": 11.12, 
			 "SMD_solvation_energy": 3.76 
		},
		"coords": [
			{
				"x": 1.4100534359,
				"y": -2.9755942243,
				"z": 1.8178571255,
				"element": "O" 
			},
			{
				"x": 0.1645637102,
				"y": -2.8460304725,
				"z": 1.188780307,
				"element": "N" 
			},
			{
				"x": -0.3467586549,
				"y": -1.6672742852,
				"z": 1.3426413072,
				"element": "C" 
			},
			{
				"x": -1.6870687684,
				"y": -1.5082838896,
				"z": 0.6366556778,
				"element": "C" 
			},
			{
				"x": -1.5979526361,
				"y": -0.7084415698,
				"z": -0.6294705652,
				"element": "C" 
			},
			{
				"x": -2.2720062399,
				"y": 0.3864099129,
				"z": -0.8907655232,
				"element": "N" 
			},
			{
				"x": -1.8702955284,
				"y": 0.7605627804,
				"z": -2.1683185024,
				"element": "C" 
			},
			{
				"x": -0.9154849274,
				"y": -0.1571240136,
				"z": -2.6725442659,
				"element": "C" 
			},
			{
				"x": -0.7667008693,
				"y": -1.0900922372,
				"z": -1.6605133712,
				"element": "N" 
			},
			{
				"x": -0.338535718,
				"y": -0.022067022,
				"z": -3.9363036249,
				"element": "C" 
			},
			{
				"x": -0.7464113691,
				"y": 1.0715126373,
				"z": -4.6971970594,
				"element": "C" 
			},
			{
				"x": -1.6955772598,
				"y": 1.9936798073,
				"z": -4.2127952235,
				"element": "C" 
			},
			{
				"x": -2.2663780347,
				"y": 1.8514991738,
				"z": -2.9515163099,
				"element": "C" 
			},
			{
				"x": 0.1975098164,
				"y": -0.527113274,
				"z": 2.0676190272,
				"element": "C" 
			},
			{
				"x": -0.3710272126,
				"y": 0.7359918477,
				"z": 2.113203919,
				"element": "C" 
			},
			{
				"x": 0.3541569852,
				"y": 1.6558755864,
				"z": 2.9117719056,
				"element": "C" 
			},
			{
				"x": 1.4716744822,
				"y": 1.0941734959,
				"z": 3.4744379176,
				"element": "C" 
			},
			{
				"x": 1.6676030547,
				"y": -0.5618182637,
				"z": 3.0324766792,
				"element": "S" 
			},
			{
				"x": 1.623194311,
				"y": -3.9079326343,
				"z": 1.6818451999,
				"element": "H" 
			},
			{
				"x": -2.4169556219,
				"y": -1.0219852915,
				"z": 1.2868267699,
				"element": "H" 
			},
			{
				"x": -2.0518489648,
				"y": -2.516221438,
				"z": 0.4136789511,
				"element": "H" 
			},
			{
				"x": -0.1387035131,
				"y": -1.8794546969,
				"z": -1.6362813794,
				"element": "H" 
			},
			{
				"x": 0.3926266426,
				"y": -0.7309332374,
				"z": -4.3132442143,
				"element": "H" 
			},
			{
				"x": -0.3228781209,
				"y": 1.215713443,
				"z": -5.6867889248,
				"element": "H" 
			},
			{
				"x": -1.9851357018,
				"y": 2.831429354,
				"z": -4.8402862444,
				"element": "H" 
			},
			{
				"x": -2.997988933,
				"y": 2.5583463564,
				"z": -2.5734571579,
				"element": "H" 
			},
			{
				"x": -1.2675490256,
				"y": 0.9992113282,
				"z": 1.5641528122,
				"element": "H" 
			},
			{
				"x": 0.0594528601,
				"y": 2.6883823977,
				"z": 3.0583097117,
				"element": "H" 
			},
			{
				"x": 2.1972218016,
				"y": 1.5666784289,
				"z": 4.1233250556,
				"element": "H" 
			}
		],
		 "valence_orbital": [ 
			{
				"type": "occ",
				"energy": -0.27004,
				"method": "rhf"
			},
			{
				"type": "occ",
				"energy": -0.25256,
				"method": "rhf"
			},
			{
				"type": "occ",
				"energy": -0.22513,
				"method": "rhf"
			},
			{
				"type": "occ",
				"energy": -0.22388,
				"method": "rhf"
			},
			{
				"type": "occ",
				"energy": -0.21906,
				"method": "rhf"
			},
			{
				"type": "unocc",
				"energy": -0.05061,
				"method": "rhf"
			},
			{
				"type": "unocc",
				"energy": -0.01157,
				"method": "rhf"
			},
			{
				"type": "unocc",
				"energy": 0.02466,
				"method": "rhf"
			},
			{
				"type": "unocc",
				"energy": 0.0308,
				"method": "rhf"
			},
			{
				"type": "unocc",
				"energy": 0.03773,
				"method": "rhf"
			}
		],
		"cosmo_sigma_profile": { 
			"-0.025": 0.0,
			"-0.024": 0.0,
			"-0.023": 0.0,
			"-0.022": 0.0,
			"-0.021": 0.0,
			"-0.02": 0.0,
			"-0.019": 0.00353596359226,
			"-0.018": 0.621383074544,
			"-0.017": 0.975339435737,
			"-0.016": 1.39751007478,
			"-0.015": 1.86836099591,
			"-0.014": 1.82282991673,
			"-0.013": 0.762550006818,
			"-0.012": 1.47252240886,
			"-0.011": 1.51083841664,
			"-0.01": 1.90850785329,
			"-0.009": 3.04752984317,
			"-0.008": 4.73781676535,
			"-0.007": 6.9040736649,
			"-0.006": 13.4753695699,
			"-0.005": 18.0297481036,
			"-0.004": 19.0091291129,
			"-0.003": 18.0641796366,
			"-0.002": 16.2919745284,
			"-0.001": 12.2321923011,
			"0.0": 13.1364059085,
			"0.001": 17.9542778904,
			"0.002": 20.3100784406,
			"0.003": 26.0380583468,
			"0.004": 26.6497026856,
			"0.005": 20.0998110542,
			"0.006": 13.7190972505,
			"0.007": 6.54727429688,
			"0.008": 3.15295547266,
			"0.009": 2.19380488452,
			"0.01": 2.1885347767,
			"0.011": 1.29510282678,
			"0.012": 1.30648656204,
			"0.013": 1.19221951212,
			"0.014": 0.843469801723,
			"0.015": 0.494635137746,
			"0.016": 0.74773072348,
			"0.017": 0.497885337406,
			"0.018": 0.0694053555919,
			"0.019": 0.0,
			"0.02": 0.0,
			"0.021": 0.0,
			"0.022": 0.0,
			"0.023": 0.0,
			"0.024": 0.0,
			"0.025": 0.0
		}
	}
}
