{
	 "smiles": "NC1=C(SC2(CC#N)CCCC2)C=CC=C1", 
	 "Tm": 363.15, 
	 "num_atms": 32, 
	 "gaussian": { 
		 "optdone": 1, 
		 "sigma_profile": "yes", 
		 "theory": "DFT", 
		 "functional": "B3LYP", 
		 "basiset": "6-31G**", 
		 "properties": { 
			 "R2extent": 4386.8268, 
			 "electric_dipole_moment_norm": 5.45566297071, 
			 "electric_quadrupole_moment_norm": 22.8190995169, 
			 "total_energy": -1012.70733129, 
			 "HOMO_LUMO_gap": 0.18929, 
			 "cosmo_polarized_energy": -14.85, 
			 "cosmo_cavitation_energy": 35.16, 
			 "cosmo_dispersion_energy": -24.3, 
			 "cosmo_repulsion_energy": 1.86, 
			 "cosmo_total_nonelectrostatic_energy": 12.73, 
			 "SMD_solvation_energy": 6.31 
		},
		"coords": [
			{
				"x": -2.9919258723,
				"y": 0.4010809383,
				"z": -1.5399348773,
				"element": "N" 
			},
			{
				"x": -1.875653121,
				"y": 0.4785891098,
				"z": -2.3632313336,
				"element": "C" 
			},
			{
				"x": -0.685181769,
				"y": 1.1234241848,
				"z": -1.9388037118,
				"element": "C" 
			},
			{
				"x": -0.6222289909,
				"y": 2.0035667254,
				"z": -0.3816975026,
				"element": "S" 
			},
			{
				"x": 0.0267121427,
				"y": 0.7511010766,
				"z": 0.8614408843,
				"element": "C" 
			},
			{
				"x": 0.2047317588,
				"y": 1.5846032059,
				"z": 2.1623469708,
				"element": "C" 
			},
			{
				"x": 1.2931433211,
				"y": 2.5661670631,
				"z": 2.1300615207,
				"element": "C" 
			},
			{
				"x": 2.1674887142,
				"y": 3.329643881,
				"z": 2.1292199963,
				"element": "N" 
			},
			{
				"x": 1.3575274496,
				"y": 0.0472848305,
				"z": 0.4403453928,
				"element": "C" 
			},
			{
				"x": 1.1168980684,
				"y": -1.4729427723,
				"z": 0.604777297,
				"element": "C" 
			},
			{
				"x": -0.0685642621,
				"y": -1.580202473,
				"z": 1.5790499588,
				"element": "C" 
			},
			{
				"x": -0.9638600495,
				"y": -0.4092328745,
				"z": 1.1461688135,
				"element": "C" 
			},
			{
				"x": 0.419328392,
				"y": 1.1725022038,
				"z": -2.803306528,
				"element": "C" 
			},
			{
				"x": 0.3900417713,
				"y": 0.5644516928,
				"z": -4.0558273151,
				"element": "C" 
			},
			{
				"x": -0.7760778068,
				"y": -0.0906700185,
				"z": -4.4614592911,
				"element": "C" 
			},
			{
				"x": -1.8916158823,
				"y": -0.1293981863,
				"z": -3.6332271298,
				"element": "C" 
			},
			{
				"x": -3.8739451552,
				"y": 0.2777167967,
				"z": -2.0170436714,
				"element": "H" 
			},
			{
				"x": -3.0194473582,
				"y": 1.1033838251,
				"z": -0.8105132766,
				"element": "H" 
			},
			{
				"x": -0.7285875286,
				"y": 2.1067582574,
				"z": 2.4040677814,
				"element": "H" 
			},
			{
				"x": 0.4053835874,
				"y": 0.8951413527,
				"z": 2.9913449671,
				"element": "H" 
			},
			{
				"x": 2.1769201231,
				"y": 0.3918193189,
				"z": 1.0795595982,
				"element": "H" 
			},
			{
				"x": 1.6387841896,
				"y": 0.2968410631,
				"z": -0.583263816,
				"element": "H" 
			},
			{
				"x": 2.0094791066,
				"y": -2.0030896691,
				"z": 0.9503101048,
				"element": "H" 
			},
			{
				"x": 0.832769802,
				"y": -1.9089890398,
				"z": -0.3598533562,
				"element": "H" 
			},
			{
				"x": 0.272481972,
				"y": -1.4521862464,
				"z": 2.614861916,
				"element": "H" 
			},
			{
				"x": -0.5834473394,
				"y": -2.5446568692,
				"z": 1.5277109331,
				"element": "H" 
			},
			{
				"x": -1.7231608053,
				"y": -0.1282748488,
				"z": 1.8844931237,
				"element": "H" 
			},
			{
				"x": -1.4918549474,
				"y": -0.6772745003,
				"z": 0.2274620699,
				"element": "H" 
			},
			{
				"x": 1.3019289139,
				"y": 1.7156417355,
				"z": -2.4801340277,
				"element": "H" 
			},
			{
				"x": 1.2558335108,
				"y": 0.611226006,
				"z": -4.7082745697,
				"element": "H" 
			},
			{
				"x": -0.8226363123,
				"y": -0.5666313302,
				"z": -5.4370874829,
				"element": "H" 
			},
			{
				"x": -2.7968656233,
				"y": -0.6339944388,
				"z": -3.9622634384,
				"element": "H" 
			}
		],
		 "valence_orbital": [ 
			{
				"type": "occ",
				"energy": -0.3124,
				"method": "rhf"
			},
			{
				"type": "occ",
				"energy": -0.30878,
				"method": "rhf"
			},
			{
				"type": "occ",
				"energy": -0.25252,
				"method": "rhf"
			},
			{
				"type": "occ",
				"energy": -0.23394,
				"method": "rhf"
			},
			{
				"type": "occ",
				"energy": -0.21118,
				"method": "rhf"
			},
			{
				"type": "unocc",
				"energy": -0.02189,
				"method": "rhf"
			},
			{
				"type": "unocc",
				"energy": 0.00431,
				"method": "rhf"
			},
			{
				"type": "unocc",
				"energy": 0.0309,
				"method": "rhf"
			},
			{
				"type": "unocc",
				"energy": 0.03736,
				"method": "rhf"
			},
			{
				"type": "unocc",
				"energy": 0.05266,
				"method": "rhf"
			}
		],
		"cosmo_sigma_profile": { 
			"-0.025": 0.0,
			"-0.024": 0.0,
			"-0.023": 0.0,
			"-0.022": 0.0,
			"-0.021": 0.0,
			"-0.02": 0.0,
			"-0.019": 0.0,
			"-0.018": 0.0,
			"-0.017": 0.0,
			"-0.016": 0.0,
			"-0.015": 0.0,
			"-0.014": 0.0,
			"-0.013": 0.499869238638,
			"-0.012": 1.37257832316,
			"-0.011": 1.77836373272,
			"-0.01": 1.54163486475,
			"-0.009": 2.84239852508,
			"-0.008": 7.23457000858,
			"-0.007": 8.49377177331,
			"-0.006": 11.0904180244,
			"-0.005": 15.8934422703,
			"-0.004": 16.4661622301,
			"-0.003": 20.6452560635,
			"-0.002": 24.3774642293,
			"-0.001": 27.6116373943,
			"0.0": 26.8818027602,
			"0.001": 19.870406699,
			"0.002": 12.9202005907,
			"0.003": 11.5348326933,
			"0.004": 12.5478271053,
			"0.005": 13.7795684863,
			"0.006": 13.1172020336,
			"0.007": 6.58442882842,
			"0.008": 5.05764522437,
			"0.009": 4.96277780803,
			"0.01": 4.20974166521,
			"0.011": 3.2183963067,
			"0.012": 2.63015896728,
			"0.013": 1.9867376442,
			"0.014": 0.337214145166,
			"0.015": 0.0,
			"0.016": 0.0,
			"0.017": 0.0,
			"0.018": 0.0,
			"0.019": 0.0,
			"0.02": 0.0,
			"0.021": 0.0,
			"0.022": 0.0,
			"0.023": 0.0,
			"0.024": 0.0,
			"0.025": 0.0
		}
	}
}
