{
	 "smiles": "O=CC1=CN=C(C=C1)N1C=CN=C1", 
	 "Tm": 413.15, 
	 "num_atms": 20, 
	 "gaussian": { 
		 "optdone": 1, 
		 "sigma_profile": "yes", 
		 "theory": "DFT", 
		 "functional": "B3LYP", 
		 "basiset": "6-31G**", 
		 "properties": { 
			 "R2extent": 3279.7635, 
			 "electric_dipole_moment_norm": 4.66436438328, 
			 "electric_quadrupole_moment_norm": 11.8718224212, 
			 "total_energy": -586.630389366, 
			 "HOMO_LUMO_gap": 0.15603, 
			 "cosmo_polarized_energy": -15.26, 
			 "cosmo_cavitation_energy": 25.41, 
			 "cosmo_dispersion_energy": -18.68, 
			 "cosmo_repulsion_energy": 1.42, 
			 "cosmo_total_nonelectrostatic_energy": 8.15, 
			 "SMD_solvation_energy": 3.72 
		},
		"coords": [
			{
				"x": 0.3865999332,
				"y": -2.2648913563,
				"z": 3.990525083,
				"element": "O" 
			},
			{
				"x": 0.4011614902,
				"y": -2.4499749678,
				"z": 2.7886740321,
				"element": "C" 
			},
			{
				"x": -0.100915958,
				"y": -1.4853921231,
				"z": 1.7892856024,
				"element": "C" 
			},
			{
				"x": -0.6441999636,
				"y": -0.2533672309,
				"z": 2.1843355685,
				"element": "C" 
			},
			{
				"x": -1.1112712652,
				"y": 0.6539331742,
				"z": 1.3316482178,
				"element": "N" 
			},
			{
				"x": -1.0585973216,
				"y": 0.3725038724,
				"z": 0.021516711,
				"element": "C" 
			},
			{
				"x": -0.5365970944,
				"y": -0.8280418121,
				"z": -0.4888951505,
				"element": "C" 
			},
			{
				"x": -0.0545606983,
				"y": -1.7611000048,
				"z": 0.4172872896,
				"element": "C" 
			},
			{
				"x": -1.566389013,
				"y": 1.3691192502,
				"z": -0.8275784574,
				"element": "N" 
			},
			{
				"x": -1.6463130713,
				"y": 1.3660434667,
				"z": -2.2191972474,
				"element": "C" 
			},
			{
				"x": -2.2150740617,
				"y": 2.5604960259,
				"z": -2.5557139276,
				"element": "C" 
			},
			{
				"x": -2.4945558486,
				"y": 3.3119409271,
				"z": -1.4268834509,
				"element": "N" 
			},
			{
				"x": -2.0999987752,
				"y": 2.5821741134,
				"z": -0.4170007557,
				"element": "C" 
			},
			{
				"x": 0.8088845709,
				"y": -3.3919380516,
				"z": 2.3579169775,
				"element": "H" 
			},
			{
				"x": -0.6942244278,
				"y": -0.0097289412,
				"z": 3.2427588109,
				"element": "H" 
			},
			{
				"x": -0.5086535961,
				"y": -1.0244644443,
				"z": -1.5531331238,
				"element": "H" 
			},
			{
				"x": 0.3579338799,
				"y": -2.703341902,
				"z": 0.064073621,
				"element": "H" 
			},
			{
				"x": -1.3027854912,
				"y": 0.5421971926,
				"z": -2.8218808328,
				"element": "H" 
			},
			{
				"x": -2.4420100125,
				"y": 2.9281232506,
				"z": -3.5467807785,
				"element": "H" 
			},
			{
				"x": -2.1553332758,
				"y": 2.8357095611,
				"z": 0.6297418109,
				"element": "H" 
			}
		],
		 "valence_orbital": [ 
			{
				"type": "occ",
				"energy": -0.29753,
				"method": "rhf"
			},
			{
				"type": "occ",
				"energy": -0.27549,
				"method": "rhf"
			},
			{
				"type": "occ",
				"energy": -0.2655,
				"method": "rhf"
			},
			{
				"type": "occ",
				"energy": -0.26178,
				"method": "rhf"
			},
			{
				"type": "occ",
				"energy": -0.2404,
				"method": "rhf"
			},
			{
				"type": "unocc",
				"energy": -0.08437,
				"method": "rhf"
			},
			{
				"type": "unocc",
				"energy": -0.05163,
				"method": "rhf"
			},
			{
				"type": "unocc",
				"energy": -0.00766,
				"method": "rhf"
			},
			{
				"type": "unocc",
				"energy": 0.04981,
				"method": "rhf"
			},
			{
				"type": "unocc",
				"energy": 0.06032,
				"method": "rhf"
			}
		],
		"cosmo_sigma_profile": { 
			"-0.025": 0.0,
			"-0.024": 0.0,
			"-0.023": 0.0,
			"-0.022": 0.0,
			"-0.021": 0.0,
			"-0.02": 0.0,
			"-0.019": 0.0,
			"-0.018": 0.0,
			"-0.017": 0.0,
			"-0.016": 0.0,
			"-0.015": 0.0,
			"-0.014": 0.0,
			"-0.013": 0.0,
			"-0.012": 0.661659758138,
			"-0.011": 1.44946876865,
			"-0.01": 2.14320336102,
			"-0.009": 5.22538577491,
			"-0.008": 8.05893012414,
			"-0.007": 11.6879869131,
			"-0.006": 10.0181424693,
			"-0.005": 9.76616304513,
			"-0.004": 10.8413051316,
			"-0.003": 11.5679641893,
			"-0.002": 17.9882149353,
			"-0.001": 20.3512624091,
			"0.0": 16.0964067949,
			"0.001": 11.6098620002,
			"0.002": 8.75716002413,
			"0.003": 8.84857859315,
			"0.004": 8.07335234481,
			"0.005": 6.0519664838,
			"0.006": 4.27942097443,
			"0.007": 4.10482435994,
			"0.008": 5.06965046091,
			"0.009": 4.43955943058,
			"0.01": 4.54724352234,
			"0.011": 5.37999496335,
			"0.012": 2.98101045853,
			"0.013": 1.62787930701,
			"0.014": 1.36140855742,
			"0.015": 0.701415040772,
			"0.016": 1.20197294927,
			"0.017": 0.909038515486,
			"0.018": 0.0599956874698,
			"0.019": 0.0,
			"0.02": 0.0,
			"0.021": 0.0,
			"0.022": 0.0,
			"0.023": 0.0,
			"0.024": 0.0,
			"0.025": 0.0
		}
	}
}
