{
	 "smiles": "ClC(=O)C1=CC(=CC=C1)C#N", 
	 "Tm": 314.15, 
	 "num_atms": 15, 
	 "gaussian": { 
		 "optdone": 1, 
		 "sigma_profile": "yes", 
		 "theory": "DFT", 
		 "functional": "B3LYP", 
		 "basiset": "6-31G**", 
		 "properties": { 
			 "R2extent": 2736.9992, 
			 "electric_dipole_moment_norm": 3.70464015257, 
			 "electric_quadrupole_moment_norm": 21.6675740481, 
			 "total_energy": -897.416929094, 
			 "HOMO_LUMO_gap": 0.1908, 
			 "cosmo_polarized_energy": -10.53, 
			 "cosmo_cavitation_energy": 23.24, 
			 "cosmo_dispersion_energy": -16.54, 
			 "cosmo_repulsion_energy": 1.33, 
			 "cosmo_total_nonelectrostatic_energy": 8.03, 
			 "SMD_solvation_energy": 6.08 
		},
		"coords": [
			{
				"x": -2.3157966615,
				"y": -1.1658738714,
				"z": 1.3967758963,
				"element": "Cl" 
			},
			{
				"x": -1.2762132622,
				"y": -2.0971236861,
				"z": 0.2288225321,
				"element": "C" 
			},
			{
				"x": -1.1423729449,
				"y": -3.2743742096,
				"z": 0.3771314671,
				"element": "O" 
			},
			{
				"x": -0.6538960635,
				"y": -1.2909300906,
				"z": -0.8558099462,
				"element": "C" 
			},
			{
				"x": -0.8343976629,
				"y": 0.0874470125,
				"z": -0.9985875236,
				"element": "C" 
			},
			{
				"x": -0.2050937312,
				"y": 0.7607789344,
				"z": -2.055323444,
				"element": "C" 
			},
			{
				"x": 0.6014284531,
				"y": 0.0549098031,
				"z": -2.9645214017,
				"element": "C" 
			},
			{
				"x": 0.7759182241,
				"y": -1.3196602365,
				"z": -2.8145758276,
				"element": "C" 
			},
			{
				"x": 0.1537482667,
				"y": -1.9932624473,
				"z": -1.7676436762,
				"element": "C" 
			},
			{
				"x": -0.3857714568,
				"y": 2.1762913,
				"z": -2.208351999,
				"element": "C" 
			},
			{
				"x": -0.5282678599,
				"y": 3.3229949202,
				"z": -2.3376247358,
				"element": "N" 
			},
			{
				"x": -1.4544204029,
				"y": 0.6365675257,
				"z": -0.3014951151,
				"element": "H" 
			},
			{
				"x": 1.0822245997,
				"y": 0.5888065244,
				"z": -3.7773349156,
				"element": "H" 
			},
			{
				"x": 1.3985579352,
				"y": -1.8647807219,
				"z": -3.5163815755,
				"element": "H" 
			},
			{
				"x": 0.2793525671,
				"y": -3.0622907568,
				"z": -1.6371797351,
				"element": "H" 
			}
		],
		 "valence_orbital": [ 
			{
				"type": "occ",
				"energy": -0.33568,
				"method": "rhf"
			},
			{
				"type": "occ",
				"energy": -0.33468,
				"method": "rhf"
			},
			{
				"type": "occ",
				"energy": -0.30934,
				"method": "rhf"
			},
			{
				"type": "occ",
				"energy": -0.30351,
				"method": "rhf"
			},
			{
				"type": "occ",
				"energy": -0.2897,
				"method": "rhf"
			},
			{
				"type": "unocc",
				"energy": -0.0989,
				"method": "rhf"
			},
			{
				"type": "unocc",
				"energy": -0.06952,
				"method": "rhf"
			},
			{
				"type": "unocc",
				"energy": -0.00517,
				"method": "rhf"
			},
			{
				"type": "unocc",
				"energy": 0.00608,
				"method": "rhf"
			},
			{
				"type": "unocc",
				"energy": 0.0199,
				"method": "rhf"
			}
		],
		"cosmo_sigma_profile": { 
			"-0.025": 0.0,
			"-0.024": 0.0,
			"-0.023": 0.0,
			"-0.022": 0.0,
			"-0.021": 0.0,
			"-0.02": 0.0,
			"-0.019": 0.0,
			"-0.018": 0.0,
			"-0.017": 0.0,
			"-0.016": 0.0,
			"-0.015": 0.0,
			"-0.014": 0.0,
			"-0.013": 0.0,
			"-0.012": 0.0,
			"-0.011": 0.0,
			"-0.01": 0.0593528108198,
			"-0.009": 3.25349745423,
			"-0.008": 8.89952371314,
			"-0.007": 8.84820005363,
			"-0.006": 7.57432417337,
			"-0.005": 9.16459112292,
			"-0.004": 11.7663974057,
			"-0.003": 14.001588575,
			"-0.002": 16.8956076803,
			"-0.001": 20.6505254947,
			"0.0": 14.6575583273,
			"0.001": 9.94407278055,
			"0.002": 8.1701236943,
			"0.003": 9.69377690088,
			"0.004": 9.79157964678,
			"0.005": 6.47118324977,
			"0.006": 5.11373596029,
			"0.007": 5.73828494114,
			"0.008": 7.50271260094,
			"0.009": 4.95692311886,
			"0.01": 2.97374093824,
			"0.011": 2.60593252837,
			"0.012": 2.30853487268,
			"0.013": 0.528131220102,
			"0.014": 0.0,
			"0.015": 0.0,
			"0.016": 0.0,
			"0.017": 0.0,
			"0.018": 0.0,
			"0.019": 0.0,
			"0.02": 0.0,
			"0.021": 0.0,
			"0.022": 0.0,
			"0.023": 0.0,
			"0.024": 0.0,
			"0.025": 0.0
		}
	}
}
