{
	 "smiles": "OC(=O)C=CC(=O)C1=CC=C(Cl)C=C1", 
	 "Tm": 431.15, 
	 "num_atms": 21, 
	 "gaussian": { 
		 "optdone": 1, 
		 "sigma_profile": "yes", 
		 "theory": "DFT", 
		 "functional": "B3LYP", 
		 "basiset": "6-31G**", 
		 "properties": { 
			 "R2extent": 5340.3487, 
			 "electric_dipole_moment_norm": 3.13284505841, 
			 "electric_quadrupole_moment_norm": 19.642980405, 
			 "total_energy": -1071.13966798, 
			 "HOMO_LUMO_gap": 0.159, 
			 "cosmo_polarized_energy": -13.39, 
			 "cosmo_cavitation_energy": 29.13, 
			 "cosmo_dispersion_energy": -21.23, 
			 "cosmo_repulsion_energy": 1.67, 
			 "cosmo_total_nonelectrostatic_energy": 9.57, 
			 "SMD_solvation_energy": 6.77 
		},
		"coords": [
			{
				"x": 0.3355295387,
				"y": -1.8334584087,
				"z": 3.6737401807,
				"element": "O" 
			},
			{
				"x": 0.0754096641,
				"y": -2.9662613459,
				"z": 2.9724775228,
				"element": "C" 
			},
			{
				"x": -0.1089400991,
				"y": -4.0398080332,
				"z": 3.5078780457,
				"element": "O" 
			},
			{
				"x": 0.0401109648,
				"y": -2.7607604417,
				"z": 1.506827911,
				"element": "C" 
			},
			{
				"x": 0.2423030589,
				"y": -1.5798715493,
				"z": 0.9053891005,
				"element": "C" 
			},
			{
				"x": 0.1850303784,
				"y": -1.4737848205,
				"z": -0.5861976488,
				"element": "C" 
			},
			{
				"x": -0.0546007248,
				"y": -2.4673566858,
				"z": -1.2643258385,
				"element": "O" 
			},
			{
				"x": 0.4211708247,
				"y": -0.1486243104,
				"z": -1.2402568535,
				"element": "C" 
			},
			{
				"x": 0.7124775597,
				"y": 1.032594912,
				"z": -0.5396592207,
				"element": "C" 
			},
			{
				"x": 0.9219710226,
				"y": 2.2320985624,
				"z": -1.2174329826,
				"element": "C" 
			},
			{
				"x": 0.8386791399,
				"y": 2.2495011362,
				"z": -2.6094537014,
				"element": "C" 
			},
			{
				"x": 1.1004256978,
				"y": 3.7544096379,
				"z": -3.4675545218,
				"element": "Cl" 
			},
			{
				"x": 0.5503397878,
				"y": 1.0883089257,
				"z": -3.3322609339,
				"element": "C" 
			},
			{
				"x": 0.3445271005,
				"y": -0.099636747,
				"z": -2.643074733,
				"element": "C" 
			},
			{
				"x": 0.3325057089,
				"y": -2.0932906245,
				"z": 4.6096647413,
				"element": "H" 
			},
			{
				"x": -0.1658786145,
				"y": -3.6480524496,
				"z": 0.9171627206,
				"element": "H" 
			},
			{
				"x": 0.4461679262,
				"y": -0.7035556794,
				"z": 1.5087348084,
				"element": "H" 
			},
			{
				"x": 0.7823541765,
				"y": 1.0393954555,
				"z": 0.5419750884,
				"element": "H" 
			},
			{
				"x": 1.1472090141,
				"y": 3.1432823202,
				"z": -0.6749641118,
				"element": "H" 
			},
			{
				"x": 0.4901841529,
				"y": 1.1232289156,
				"z": -4.4142991044,
				"element": "H" 
			},
			{
				"x": 0.1195237219,
				"y": -1.0176587693,
				"z": -3.1748704689,
				"element": "H" 
			}
		],
		 "valence_orbital": [ 
			{
				"type": "occ",
				"energy": -0.29758,
				"method": "rhf"
			},
			{
				"type": "occ",
				"energy": -0.2905,
				"method": "rhf"
			},
			{
				"type": "occ",
				"energy": -0.2809,
				"method": "rhf"
			},
			{
				"type": "occ",
				"energy": -0.26845,
				"method": "rhf"
			},
			{
				"type": "occ",
				"energy": -0.26358,
				"method": "rhf"
			},
			{
				"type": "unocc",
				"energy": -0.10458,
				"method": "rhf"
			},
			{
				"type": "unocc",
				"energy": -0.04385,
				"method": "rhf"
			},
			{
				"type": "unocc",
				"energy": -0.02839,
				"method": "rhf"
			},
			{
				"type": "unocc",
				"energy": 0.01735,
				"method": "rhf"
			},
			{
				"type": "unocc",
				"energy": 0.0353,
				"method": "rhf"
			}
		],
		"cosmo_sigma_profile": { 
			"-0.025": 0.0,
			"-0.024": 0.0,
			"-0.023": 0.0,
			"-0.022": 0.0,
			"-0.021": 0.0,
			"-0.02": 0.0,
			"-0.019": 0.192833192896,
			"-0.018": 1.05261466886,
			"-0.017": 0.949040620133,
			"-0.016": 0.393411908306,
			"-0.015": 0.744085017827,
			"-0.014": 0.92873631812,
			"-0.013": 0.859418566081,
			"-0.012": 0.844595584715,
			"-0.011": 1.64786884824,
			"-0.01": 2.03162775425,
			"-0.009": 2.13592784776,
			"-0.008": 4.28636929641,
			"-0.007": 9.04403793075,
			"-0.006": 9.01067327333,
			"-0.005": 9.30813682317,
			"-0.004": 11.8460471248,
			"-0.003": 15.3031241605,
			"-0.002": 16.290435448,
			"-0.001": 18.0381522258,
			"0.0": 22.005224206,
			"0.001": 22.9299861176,
			"0.002": 23.6348872239,
			"0.003": 10.9556918727,
			"0.004": 15.4107879892,
			"0.005": 4.86094405061,
			"0.006": 3.7614904706,
			"0.007": 4.25396687799,
			"0.008": 3.21292953649,
			"0.009": 4.17393197959,
			"0.01": 4.47759549181,
			"0.011": 8.94325826695,
			"0.012": 3.15003771722,
			"0.013": 0.155470972451,
			"0.014": 0.0,
			"0.015": 0.0,
			"0.016": 0.0,
			"0.017": 0.0,
			"0.018": 0.0,
			"0.019": 0.0,
			"0.02": 0.0,
			"0.021": 0.0,
			"0.022": 0.0,
			"0.023": 0.0,
			"0.024": 0.0,
			"0.025": 0.0
		}
	}
}
