{
	 "smiles": "CNC(=O)C1=NC=CC(OC2=C(C)C(O)=CC=C2)=C1", 
	 "Tm": 453.15, 
	 "num_atms": 33, 
	 "gaussian": { 
		 "optdone": 1, 
		 "sigma_profile": "yes", 
		 "theory": "DFT", 
		 "functional": "B3LYP", 
		 "basiset": "6-31G**", 
		 "properties": { 
			 "R2extent": 7542.5536, 
			 "electric_dipole_moment_norm": 3.09256816578, 
			 "electric_quadrupole_moment_norm": 15.5488170595, 
			 "total_energy": -877.104523398, 
			 "HOMO_LUMO_gap": 0.18597, 
			 "cosmo_polarized_energy": -16.61, 
			 "cosmo_cavitation_energy": 37.47, 
			 "cosmo_dispersion_energy": -26.74, 
			 "cosmo_repulsion_energy": 2.07, 
			 "cosmo_total_nonelectrostatic_energy": 12.8, 
			 "SMD_solvation_energy": 6.7 
		},
		"coords": [
			{
				"x": -3.4821753984,
				"y": 3.8941790363,
				"z": 3.4711261618,
				"element": "C" 
			},
			{
				"x": -2.6864364613,
				"y": 2.8100952768,
				"z": 4.0376798677,
				"element": "N" 
			},
			{
				"x": -1.840846812,
				"y": 1.8951906864,
				"z": 3.4804105907,
				"element": "C" 
			},
			{
				"x": -1.2595898975,
				"y": 1.0750619657,
				"z": 4.1930168711,
				"element": "O" 
			},
			{
				"x": -1.6097287999,
				"y": 1.8779265813,
				"z": 1.9849782677,
				"element": "C" 
			},
			{
				"x": -2.2772433837,
				"y": 2.7283359625,
				"z": 1.1870477303,
				"element": "N" 
			},
			{
				"x": -2.0302140033,
				"y": 2.6525716814,
				"z": -0.1239577351,
				"element": "C" 
			},
			{
				"x": -1.1325605137,
				"y": 1.7595231972,
				"z": -0.7080803507,
				"element": "C" 
			},
			{
				"x": -0.4448206521,
				"y": 0.884496101,
				"z": 0.1391097483,
				"element": "C" 
			},
			{
				"x": 0.4460985867,
				"y": -0.0628463539,
				"z": -0.2821626083,
				"element": "O" 
			},
			{
				"x": 0.8758380037,
				"y": -0.0805413116,
				"z": -1.6089893406,
				"element": "C" 
			},
			{
				"x": 0.4668502816,
				"y": -1.1489628598,
				"z": -2.4173875418,
				"element": "C" 
			},
			{
				"x": -0.4663486192,
				"y": -2.226134966,
				"z": -1.9210506589,
				"element": "C" 
			},
			{
				"x": 0.9778308506,
				"y": -1.1885237715,
				"z": -3.729583067,
				"element": "C" 
			},
			{
				"x": 0.6431087156,
				"y": -2.1874819222,
				"z": -4.5982194731,
				"element": "O" 
			},
			{
				"x": 1.8486573728,
				"y": -0.2034814932,
				"z": -4.2036327366,
				"element": "C" 
			},
			{
				"x": 2.2310523362,
				"y": 0.8391601844,
				"z": -3.364107886,
				"element": "C" 
			},
			{
				"x": 1.7511593823,
				"y": 0.9087332657,
				"z": -2.056446785,
				"element": "C" 
			},
			{
				"x": -0.6891629834,
				"y": 0.9424755741,
				"z": 1.5119721434,
				"element": "C" 
			},
			{
				"x": -2.8653295837,
				"y": 4.6182402669,
				"z": 2.9347341933,
				"element": "H" 
			},
			{
				"x": -4.2418036924,
				"y": 3.5278363884,
				"z": 2.7771896761,
				"element": "H" 
			},
			{
				"x": -3.9769364683,
				"y": 4.4001903463,
				"z": 4.3044635502,
				"element": "H" 
			},
			{
				"x": -2.7289445271,
				"y": 2.683884324,
				"z": 5.0397073715,
				"element": "H" 
			},
			{
				"x": -2.5820172317,
				"y": 3.3454523148,
				"z": -0.7570231245,
				"element": "H" 
			},
			{
				"x": -0.9770894692,
				"y": 1.7507105331,
				"z": -1.7798440211,
				"element": "H" 
			},
			{
				"x": -1.4039409157,
				"y": -2.2497701248,
				"z": -2.4925850195,
				"element": "H" 
			},
			{
				"x": -0.007194158,
				"y": -3.2214972727,
				"z": -1.9908498988,
				"element": "H" 
			},
			{
				"x": -0.7226645825,
				"y": -2.0640513601,
				"z": -0.8743125425,
				"element": "H" 
			},
			{
				"x": 0.0476924509,
				"y": -2.8106057737,
				"z": -4.1631958974,
				"element": "H" 
			},
			{
				"x": 2.2143424068,
				"y": -0.2786513864,
				"z": -5.2218651189,
				"element": "H" 
			},
			{
				"x": 2.9143855265,
				"y": 1.6001355052,
				"z": -3.7283835683,
				"element": "H" 
			},
			{
				"x": 2.0503365513,
				"y": 1.7039007009,
				"z": -1.3826842198,
				"element": "H" 
			},
			{
				"x": -0.1855043119,
				"y": 0.2830487034,
				"z": 2.2072254218,
				"element": "H" 
			}
		],
		 "valence_orbital": [ 
			{
				"type": "occ",
				"energy": -0.26094,
				"method": "rhf"
			},
			{
				"type": "occ",
				"energy": -0.24706,
				"method": "rhf"
			},
			{
				"type": "occ",
				"energy": -0.24107,
				"method": "rhf"
			},
			{
				"type": "occ",
				"energy": -0.23953,
				"method": "rhf"
			},
			{
				"type": "occ",
				"energy": -0.22775,
				"method": "rhf"
			},
			{
				"type": "unocc",
				"energy": -0.04178,
				"method": "rhf"
			},
			{
				"type": "unocc",
				"energy": -0.01924,
				"method": "rhf"
			},
			{
				"type": "unocc",
				"energy": -0.00568,
				"method": "rhf"
			},
			{
				"type": "unocc",
				"energy": 0.0022,
				"method": "rhf"
			},
			{
				"type": "unocc",
				"energy": 0.05841,
				"method": "rhf"
			}
		],
		"cosmo_sigma_profile": { 
			"-0.025": 0.0,
			"-0.024": 0.0,
			"-0.023": 0.0,
			"-0.022": 0.0,
			"-0.021": 0.0,
			"-0.02": 0.0,
			"-0.019": 0.0,
			"-0.018": 0.0,
			"-0.017": 0.0475753529021,
			"-0.016": 0.591683983023,
			"-0.015": 1.02052578204,
			"-0.014": 0.768271819164,
			"-0.013": 2.01831223301,
			"-0.012": 2.03026480608,
			"-0.011": 2.05609993281,
			"-0.01": 2.73138098085,
			"-0.009": 2.74440995892,
			"-0.008": 2.58162684872,
			"-0.007": 5.66560815961,
			"-0.006": 14.1524799161,
			"-0.005": 15.4161739231,
			"-0.004": 20.2210995006,
			"-0.003": 20.93068929,
			"-0.002": 22.5329907089,
			"-0.001": 27.8831260237,
			"0.0": 25.430168257,
			"0.001": 26.1677513364,
			"0.002": 20.9074216082,
			"0.003": 18.3395805532,
			"0.004": 14.8731301142,
			"0.005": 11.68094517,
			"0.006": 6.78962309664,
			"0.007": 5.28456653627,
			"0.008": 5.30484065676,
			"0.009": 3.93945127739,
			"0.01": 2.00701427712,
			"0.011": 3.4246274609,
			"0.012": 2.30453712225,
			"0.013": 3.34579490948,
			"0.014": 4.47240394654,
			"0.015": 0.806060284217,
			"0.016": 0.0,
			"0.017": 0.0,
			"0.018": 0.0,
			"0.019": 0.0,
			"0.02": 0.0,
			"0.021": 0.0,
			"0.022": 0.0,
			"0.023": 0.0,
			"0.024": 0.0,
			"0.025": 0.0
		}
	}
}
