{
	 "smiles": "CC(N)C1=C(C=CC=C1)C1=CC=CC=C1", 
	 "Tm": 350.15, 
	 "num_atms": 30, 
	 "gaussian": { 
		 "optdone": 1, 
		 "sigma_profile": "yes", 
		 "theory": "DFT", 
		 "functional": "B3LYP", 
		 "basiset": "6-31G**", 
		 "properties": { 
			 "R2extent": 3404.9507, 
			 "electric_dipole_moment_norm": 1.47390316168, 
			 "electric_quadrupole_moment_norm": 8.67339407787, 
			 "total_energy": -597.287783845, 
			 "HOMO_LUMO_gap": 0.20446, 
			 "cosmo_polarized_energy": -8.19, 
			 "cosmo_cavitation_energy": 31.9, 
			 "cosmo_dispersion_energy": -22.84, 
			 "cosmo_repulsion_energy": 1.8, 
			 "cosmo_total_nonelectrostatic_energy": 10.86, 
			 "SMD_solvation_energy": 4.65 
		},
		"coords": [
			{
				"x": 1.0860682576,
				"y": -2.3761186707,
				"z": -2.7987479028,
				"element": "C" 
			},
			{
				"x": 0.9052868339,
				"y": -1.7963014206,
				"z": -1.3833586416,
				"element": "C" 
			},
			{
				"x": 1.7997929167,
				"y": -2.404492,
				"z": -0.3751011154,
				"element": "N" 
			},
			{
				"x": 1.0577308389,
				"y": -0.2776918956,
				"z": -1.3225668605,
				"element": "C" 
			},
			{
				"x": 0.1889698798,
				"y": 0.5360506312,
				"z": -0.5547014794,
				"element": "C" 
			},
			{
				"x": 0.3819872223,
				"y": 1.9289941094,
				"z": -0.5656087522,
				"element": "C" 
			},
			{
				"x": 1.4115787663,
				"y": 2.5225150432,
				"z": -1.2912556587,
				"element": "C" 
			},
			{
				"x": 2.2776642148,
				"y": 1.7203807541,
				"z": -2.0316691406,
				"element": "C" 
			},
			{
				"x": 2.0901624603,
				"y": 0.3390193813,
				"z": -2.0430216804,
				"element": "C" 
			},
			{
				"x": -0.9343477789,
				"y": 0.0003022855,
				"z": 0.2700885406,
				"element": "C" 
			},
			{
				"x": -0.7362764715,
				"y": -1.0195239768,
				"z": 1.2177914749,
				"element": "C" 
			},
			{
				"x": -1.793463548,
				"y": -1.4614752778,
				"z": 2.014311329,
				"element": "C" 
			},
			{
				"x": -3.0639612465,
				"y": -0.8975249333,
				"z": 1.8836427718,
				"element": "C" 
			},
			{
				"x": -3.2733043734,
				"y": 0.1147353989,
				"z": 0.9453513112,
				"element": "C" 
			},
			{
				"x": -2.2183448064,
				"y": 0.5595199797,
				"z": 0.1489238072,
				"element": "C" 
			},
			{
				"x": 2.1101729274,
				"y": -2.2565054744,
				"z": -3.1681412608,
				"element": "H" 
			},
			{
				"x": 0.8667647564,
				"y": -3.4499415727,
				"z": -2.7887379792,
				"element": "H" 
			},
			{
				"x": 0.4089610835,
				"y": -1.9023434091,
				"z": -3.5175112253,
				"element": "H" 
			},
			{
				"x": -0.1147657306,
				"y": -2.0372556951,
				"z": -1.0677579552,
				"element": "H" 
			},
			{
				"x": 2.762987359,
				"y": -2.1394245186,
				"z": -0.573578609,
				"element": "H" 
			},
			{
				"x": 1.7572001407,
				"y": -3.4197030727,
				"z": -0.4510399454,
				"element": "H" 
			},
			{
				"x": -0.280943333,
				"y": 2.5489231308,
				"z": 0.0308585675,
				"element": "H" 
			},
			{
				"x": 1.5392977379,
				"y": 3.6010970775,
				"z": -1.2706558639,
				"element": "H" 
			},
			{
				"x": 3.0901385414,
				"y": 2.1632154913,
				"z": -2.6007830097,
				"element": "H" 
			},
			{
				"x": 2.7606435079,
				"y": -0.272200708,
				"z": -2.6401642907,
				"element": "H" 
			},
			{
				"x": 0.2509345302,
				"y": -1.4614458594,
				"z": 1.3189281754,
				"element": "H" 
			},
			{
				"x": -1.6204051141,
				"y": -2.246857005,
				"z": 2.7452245848,
				"element": "H" 
			},
			{
				"x": -3.8840130945,
				"y": -1.2442528861,
				"z": 2.5062426969,
				"element": "H" 
			},
			{
				"x": -4.2592509888,
				"y": 0.5565671666,
				"z": 0.8296818838,
				"element": "H" 
			},
			{
				"x": -2.3898654894,
				"y": 1.3394379265,
				"z": -0.5878437723,
				"element": "H" 
			}
		],
		 "valence_orbital": [ 
			{
				"type": "occ",
				"energy": -0.26094,
				"method": "rhf"
			},
			{
				"type": "occ",
				"energy": -0.24364,
				"method": "rhf"
			},
			{
				"type": "occ",
				"energy": -0.24095,
				"method": "rhf"
			},
			{
				"type": "occ",
				"energy": -0.23606,
				"method": "rhf"
			},
			{
				"type": "occ",
				"energy": -0.2216,
				"method": "rhf"
			},
			{
				"type": "unocc",
				"energy": -0.01714,
				"method": "rhf"
			},
			{
				"type": "unocc",
				"energy": -0.00029,
				"method": "rhf"
			},
			{
				"type": "unocc",
				"energy": 0.00795,
				"method": "rhf"
			},
			{
				"type": "unocc",
				"energy": 0.02684,
				"method": "rhf"
			},
			{
				"type": "unocc",
				"energy": 0.08215,
				"method": "rhf"
			}
		],
		"cosmo_sigma_profile": { 
			"-0.025": 0.0,
			"-0.024": 0.0,
			"-0.023": 0.0,
			"-0.022": 0.0,
			"-0.021": 0.0,
			"-0.02": 0.0,
			"-0.019": 0.0,
			"-0.018": 0.0,
			"-0.017": 0.0,
			"-0.016": 0.0,
			"-0.015": 0.0,
			"-0.014": 0.0,
			"-0.013": 0.0,
			"-0.012": 0.0,
			"-0.011": 0.0,
			"-0.01": 0.331080565987,
			"-0.009": 2.31187098407,
			"-0.008": 2.17726288247,
			"-0.007": 3.00649392324,
			"-0.006": 8.97012989922,
			"-0.005": 18.944471177,
			"-0.004": 21.2868669535,
			"-0.003": 24.2196767779,
			"-0.002": 20.2800905405,
			"-0.001": 21.4232967725,
			"0.0": 19.4045342883,
			"0.001": 19.2923817123,
			"0.002": 15.7418618253,
			"0.003": 17.6751388647,
			"0.004": 15.500417519,
			"0.005": 17.1074273983,
			"0.006": 16.7561122728,
			"0.007": 2.49189811729,
			"0.008": 1.19807370595,
			"0.009": 0.725491880098,
			"0.01": 0.834050776821,
			"0.011": 1.03103731008,
			"0.012": 0.643592996109,
			"0.013": 0.772420747273,
			"0.014": 0.493502947706,
			"0.015": 0.108401980577,
			"0.016": 0.0,
			"0.017": 0.0,
			"0.018": 0.0,
			"0.019": 0.0,
			"0.02": 0.0,
			"0.021": 0.0,
			"0.022": 0.0,
			"0.023": 0.0,
			"0.024": 0.0,
			"0.025": 0.0
		}
	}
}
