{
	 "smiles": "OC(=O)C1=C(C=NC=C1)C(O)=O", 
	 "Tm": 535.15, 
	 "num_atms": 17, 
	 "gaussian": { 
		 "optdone": 1, 
		 "sigma_profile": "yes", 
		 "theory": "DFT", 
		 "functional": "B3LYP", 
		 "basiset": "6-31G**", 
		 "properties": { 
			 "R2extent": 2455.1112, 
			 "electric_dipole_moment_norm": 1.67163091919, 
			 "electric_quadrupole_moment_norm": 15.0425467784, 
			 "total_energy": -625.418315819, 
			 "HOMO_LUMO_gap": 0.19524, 
			 "cosmo_polarized_energy": -15.75, 
			 "cosmo_cavitation_energy": 22.9, 
			 "cosmo_dispersion_energy": -16.7, 
			 "cosmo_repulsion_energy": 1.34, 
			 "cosmo_total_nonelectrostatic_energy": 7.54, 
			 "SMD_solvation_energy": 4.95 
		},
		"coords": [
			{
				"x": 1.7676498876,
				"y": 1.9085440371,
				"z": 2.4509199995,
				"element": "O" 
			},
			{
				"x": 0.9480194898,
				"y": 1.9395757222,
				"z": 1.3828734642,
				"element": "C" 
			},
			{
				"x": 0.5578670985,
				"y": 2.9573693282,
				"z": 0.8578114732,
				"element": "O" 
			},
			{
				"x": 0.4743900692,
				"y": 0.5674309132,
				"z": 0.9890572397,
				"element": "C" 
			},
			{
				"x": 1.325337955,
				"y": -0.5007655216,
				"z": 0.654372344,
				"element": "C" 
			},
			{
				"x": 0.7394400299,
				"y": -1.738645895,
				"z": 0.350939628,
				"element": "C" 
			},
			{
				"x": -0.5773013228,
				"y": -1.9653086492,
				"z": 0.3527308219,
				"element": "N" 
			},
			{
				"x": -1.3733477883,
				"y": -0.9315487663,
				"z": 0.6501199211,
				"element": "C" 
			},
			{
				"x": -0.9015730226,
				"y": 0.3432930351,
				"z": 0.9646220683,
				"element": "C" 
			},
			{
				"x": 2.7936067009,
				"y": -0.2979410774,
				"z": 0.5086294437,
				"element": "C" 
			},
			{
				"x": 3.4847572232,
				"y": -1.4610649849,
				"z": 0.5441701386,
				"element": "O" 
			},
			{
				"x": 3.3294396708,
				"y": 0.7773603708,
				"z": 0.3399495446,
				"element": "O" 
			},
			{
				"x": 2.0396102054,
				"y": 2.8274771051,
				"z": 2.6155525898,
				"element": "H" 
			},
			{
				"x": 1.3757531693,
				"y": -2.5772466065,
				"z": 0.0829919755,
				"element": "H" 
			},
			{
				"x": -2.4432276399,
				"y": -1.1300448294,
				"z": 0.6393776925,
				"element": "H" 
			},
			{
				"x": -1.5887920963,
				"y": 1.149420709,
				"z": 1.1971134163,
				"element": "H" 
			},
			{
				"x": 4.4150703704,
				"y": -1.2253048903,
				"z": 0.3919682391,
				"element": "H" 
			}
		],
		 "valence_orbital": [ 
			{
				"type": "occ",
				"energy": -0.31433,
				"method": "rhf"
			},
			{
				"type": "occ",
				"energy": -0.3003,
				"method": "rhf"
			},
			{
				"type": "occ",
				"energy": -0.28494,
				"method": "rhf"
			},
			{
				"type": "occ",
				"energy": -0.28311,
				"method": "rhf"
			},
			{
				"type": "occ",
				"energy": -0.27012,
				"method": "rhf"
			},
			{
				"type": "unocc",
				"energy": -0.07488,
				"method": "rhf"
			},
			{
				"type": "unocc",
				"energy": -0.04686,
				"method": "rhf"
			},
			{
				"type": "unocc",
				"energy": 0.01308,
				"method": "rhf"
			},
			{
				"type": "unocc",
				"energy": 0.03145,
				"method": "rhf"
			},
			{
				"type": "unocc",
				"energy": 0.06667,
				"method": "rhf"
			}
		],
		"cosmo_sigma_profile": { 
			"-0.025": 0.0,
			"-0.024": 0.0,
			"-0.023": 0.0,
			"-0.022": 0.0,
			"-0.021": 0.0,
			"-0.02": 0.0,
			"-0.019": 1.05820212344,
			"-0.018": 2.18440554052,
			"-0.017": 1.6596995644,
			"-0.016": 1.14969593484,
			"-0.015": 1.67920761128,
			"-0.014": 1.19253888167,
			"-0.013": 1.79370917685,
			"-0.012": 1.4332165156,
			"-0.011": 1.66917280193,
			"-0.01": 1.08696813994,
			"-0.009": 1.50608926482,
			"-0.008": 5.76850505298,
			"-0.007": 8.36181229237,
			"-0.006": 6.73970787288,
			"-0.005": 5.90322205778,
			"-0.004": 8.81144950243,
			"-0.003": 8.21782843174,
			"-0.002": 14.025549428,
			"-0.001": 16.8361719758,
			"0.0": 13.0733210746,
			"0.001": 7.6349027908,
			"0.002": 6.8663698891,
			"0.003": 7.45356925979,
			"0.004": 5.74584377915,
			"0.005": 6.42745482463,
			"0.006": 7.16372049788,
			"0.007": 6.6069068884,
			"0.008": 6.38475165925,
			"0.009": 5.19641826428,
			"0.01": 6.79908064859,
			"0.011": 9.02540358486,
			"0.012": 1.83818861576,
			"0.013": 0.731766867141,
			"0.014": 0.941911731404,
			"0.015": 0.678668268007,
			"0.016": 0.040941387011,
			"0.017": 0.0,
			"0.018": 0.0,
			"0.019": 0.0,
			"0.02": 0.0,
			"0.021": 0.0,
			"0.022": 0.0,
			"0.023": 0.0,
			"0.024": 0.0,
			"0.025": 0.0
		}
	}
}
