{
	 "smiles": "NC1=CC(=NO1)C1=CC(Br)=CC=C1", 
	 "Tm": 396.15, 
	 "num_atms": 20, 
	 "gaussian": { 
		 "optdone": 1, 
		 "sigma_profile": "yes", 
		 "theory": "DFT", 
		 "functional": "B3LYP", 
		 "basiset": "6-31G**", 
		 "properties": { 
			 "R2extent": 5571.8024, 
			 "electric_dipole_moment_norm": 5.3872540742, 
			 "electric_quadrupole_moment_norm": 14.5056490368, 
			 "total_energy": -3103.26077059, 
			 "HOMO_LUMO_gap": 0.18295, 
			 "cosmo_polarized_energy": -14.52, 
			 "cosmo_cavitation_energy": 27.38, 
			 "cosmo_dispersion_energy": -20.86, 
			 "cosmo_repulsion_energy": 1.65, 
			 "cosmo_total_nonelectrostatic_energy": 8.17, 
			 "SMD_solvation_energy": 3.63 
		},
		"coords": [
			{
				"x": 3.7785929426,
				"y": 1.8605365179,
				"z": -0.618442491,
				"element": "N" 
			},
			{
				"x": 2.4778029025,
				"y": 1.4277930906,
				"z": -0.6877712808,
				"element": "C" 
			},
			{
				"x": 1.6934592555,
				"y": 0.6570305153,
				"z": 0.1288452176,
				"element": "C" 
			},
			{
				"x": 0.4697062421,
				"y": 0.5475862114,
				"z": -0.5957189642,
				"element": "C" 
			},
			{
				"x": 0.5126765936,
				"y": 1.1945057475,
				"z": -1.7462543886,
				"element": "N" 
			},
			{
				"x": 1.8033951197,
				"y": 1.7613973032,
				"z": -1.8023457619,
				"element": "O" 
			},
			{
				"x": -0.7596606097,
				"y": -0.169352893,
				"z": -0.2062300784,
				"element": "C" 
			},
			{
				"x": -1.9113483105,
				"y": -0.0649436195,
				"z": -1.0046758669,
				"element": "C" 
			},
			{
				"x": -3.0647413484,
				"y": -0.7434615201,
				"z": -0.6323337021,
				"element": "C" 
			},
			{
				"x": -4.6295000091,
				"y": -0.5953108892,
				"z": -1.7232913255,
				"element": "Br" 
			},
			{
				"x": -3.1135493738,
				"y": -1.5298238751,
				"z": 0.5195356406,
				"element": "C" 
			},
			{
				"x": -1.9677477368,
				"y": -1.6304420627,
				"z": 1.3080048709,
				"element": "C" 
			},
			{
				"x": -0.799242423,
				"y": -0.9582646704,
				"z": 0.9515446383,
				"element": "C" 
			},
			{
				"x": 3.9921690191,
				"y": 2.6492463057,
				"z": -1.2141996734,
				"element": "H" 
			},
			{
				"x": 4.1584628858,
				"y": 1.9430464438,
				"z": 0.3131932422,
				"element": "H" 
			},
			{
				"x": 1.9524877629,
				"y": 0.2412180438,
				"z": 1.0888193304,
				"element": "H" 
			},
			{
				"x": -1.8883223087,
				"y": 0.5429688804,
				"z": -1.9006004804,
				"element": "H" 
			},
			{
				"x": -4.0256431165,
				"y": -2.048984421,
				"z": 0.7902058077,
				"element": "H" 
			},
			{
				"x": -1.9887242424,
				"y": -2.2401306221,
				"z": 2.2063801951,
				"element": "H" 
			},
			{
				"x": 0.0840267549,
				"y": -1.0543144866,
				"z": 1.5741350704,
				"element": "H" 
			}
		],
		 "valence_orbital": [ 
			{
				"type": "occ",
				"energy": -0.29877,
				"method": "rhf"
			},
			{
				"type": "occ",
				"energy": -0.28297,
				"method": "rhf"
			},
			{
				"type": "occ",
				"energy": -0.25091,
				"method": "rhf"
			},
			{
				"type": "occ",
				"energy": -0.23918,
				"method": "rhf"
			},
			{
				"type": "occ",
				"energy": -0.22263,
				"method": "rhf"
			},
			{
				"type": "unocc",
				"energy": -0.03968,
				"method": "rhf"
			},
			{
				"type": "unocc",
				"energy": -0.01342,
				"method": "rhf"
			},
			{
				"type": "unocc",
				"energy": 0.01069,
				"method": "rhf"
			},
			{
				"type": "unocc",
				"energy": 0.0266,
				"method": "rhf"
			},
			{
				"type": "unocc",
				"energy": 0.05684,
				"method": "rhf"
			}
		],
		"cosmo_sigma_profile": { 
			"-0.025": 0.0,
			"-0.024": 0.0,
			"-0.023": 0.0,
			"-0.022": 0.0,
			"-0.021": 0.0,
			"-0.02": 0.0,
			"-0.019": 0.0,
			"-0.018": 0.0,
			"-0.017": 0.0,
			"-0.016": 0.0,
			"-0.015": 0.743521275331,
			"-0.014": 3.02764466834,
			"-0.013": 2.66475543089,
			"-0.012": 2.74010732752,
			"-0.011": 2.85293305521,
			"-0.01": 2.24053901704,
			"-0.009": 2.64405216764,
			"-0.008": 4.88096393093,
			"-0.007": 8.97345182399,
			"-0.006": 8.39116334405,
			"-0.005": 9.75209537558,
			"-0.004": 9.31665004679,
			"-0.003": 9.70655108152,
			"-0.002": 8.52681810047,
			"-0.001": 10.384728013,
			"0.0": 11.3956057225,
			"0.001": 18.3163024819,
			"0.002": 28.2071499667,
			"0.003": 26.5981394001,
			"0.004": 18.971422801,
			"0.005": 9.86095973902,
			"0.006": 2.75810867102,
			"0.007": 3.11587621029,
			"0.008": 5.43491965998,
			"0.009": 3.24487035453,
			"0.01": 3.01309614336,
			"0.011": 2.17802430256,
			"0.012": 1.10920656288,
			"0.013": 1.66538264325,
			"0.014": 0.575409099596,
			"0.015": 0.0,
			"0.016": 0.0,
			"0.017": 0.0,
			"0.018": 0.0,
			"0.019": 0.0,
			"0.02": 0.0,
			"0.021": 0.0,
			"0.022": 0.0,
			"0.023": 0.0,
			"0.024": 0.0,
			"0.025": 0.0
		}
	}
}
