{
	 "smiles": "OC(=O)C1=CN2C=CC=CC2=C1", 
	 "Tm": 453.15, 
	 "num_atms": 19, 
	 "gaussian": { 
		 "optdone": 1, 
		 "sigma_profile": "yes", 
		 "theory": "DFT", 
		 "functional": "B3LYP", 
		 "basiset": "6-31G**", 
		 "properties": { 
			 "R2extent": 2381.851, 
			 "electric_dipole_moment_norm": 6.37253507954, 
			 "electric_quadrupole_moment_norm": 15.4318172251, 
			 "total_energy": -552.366749462, 
			 "HOMO_LUMO_gap": 0.15794, 
			 "cosmo_polarized_energy": -17.73, 
			 "cosmo_cavitation_energy": 23.72, 
			 "cosmo_dispersion_energy": -17.72, 
			 "cosmo_repulsion_energy": 1.38, 
			 "cosmo_total_nonelectrostatic_energy": 7.38, 
			 "SMD_solvation_energy": 5.76 
		},
		"coords": [
			{
				"x": -1.8206909094,
				"y": 0.218466669,
				"z": -3.1610384081,
				"element": "O" 
			},
			{
				"x": -2.1341030197,
				"y": -0.0679558602,
				"z": -1.8642900636,
				"element": "C" 
			},
			{
				"x": -3.1871527174,
				"y": -0.604954938,
				"z": -1.610081857,
				"element": "O" 
			},
			{
				"x": -1.1423485668,
				"y": 0.3065194729,
				"z": -0.8304116476,
				"element": "C" 
			},
			{
				"x": 0.0988194634,
				"y": 0.9253808554,
				"z": -0.9902362414,
				"element": "C" 
			},
			{
				"x": 0.6593451969,
				"y": 1.0690798454,
				"z": 0.2499499556,
				"element": "N" 
			},
			{
				"x": 1.8745851032,
				"y": 1.6221572326,
				"z": 0.6028712382,
				"element": "C" 
			},
			{
				"x": 2.2440078036,
				"y": 1.6658184829,
				"z": 1.9126488171,
				"element": "C" 
			},
			{
				"x": 1.3831196928,
				"y": 1.1430839149,
				"z": 2.927737309,
				"element": "C" 
			},
			{
				"x": 0.1768338231,
				"y": 0.5934486752,
				"z": 2.5839700898,
				"element": "C" 
			},
			{
				"x": -0.2251952789,
				"y": 0.5391431865,
				"z": 1.2237391256,
				"element": "C" 
			},
			{
				"x": -1.3426660006,
				"y": 0.0667210216,
				"z": 0.5486055143,
				"element": "C" 
			},
			{
				"x": -0.9552388176,
				"y": 0.6442862083,
				"z": -3.2180611577,
				"element": "H" 
			},
			{
				"x": 0.6294620964,
				"y": 1.2734104866,
				"z": -1.8653783504,
				"element": "H" 
			},
			{
				"x": 2.4804559226,
				"y": 2.000457397,
				"z": -0.2117699086,
				"element": "H" 
			},
			{
				"x": 3.2011989904,
				"y": 2.1033351443,
				"z": 2.1724382158,
				"element": "H" 
			},
			{
				"x": 1.6925135492,
				"y": 1.1856930673,
				"z": 3.9664236275,
				"element": "H" 
			},
			{
				"x": -0.496232767,
				"y": 0.1894074525,
				"z": 3.3327864701,
				"element": "H" 
			},
			{
				"x": -2.2137135644,
				"y": -0.4007983143,
				"z": 0.9815972714,
				"element": "H" 
			}
		],
		 "valence_orbital": [ 
			{
				"type": "occ",
				"energy": -0.31695,
				"method": "rhf"
			},
			{
				"type": "occ",
				"energy": -0.30407,
				"method": "rhf"
			},
			{
				"type": "occ",
				"energy": -0.26542,
				"method": "rhf"
			},
			{
				"type": "occ",
				"energy": -0.25033,
				"method": "rhf"
			},
			{
				"type": "occ",
				"energy": -0.20551,
				"method": "rhf"
			},
			{
				"type": "unocc",
				"energy": -0.04757,
				"method": "rhf"
			},
			{
				"type": "unocc",
				"energy": -0.01762,
				"method": "rhf"
			},
			{
				"type": "unocc",
				"energy": 0.0171,
				"method": "rhf"
			},
			{
				"type": "unocc",
				"energy": 0.05422,
				"method": "rhf"
			},
			{
				"type": "unocc",
				"energy": 0.07755,
				"method": "rhf"
			}
		],
		"cosmo_sigma_profile": { 
			"-0.025": 0.0,
			"-0.024": 0.0,
			"-0.023": 0.0,
			"-0.022": 0.0,
			"-0.021": 0.0,
			"-0.02": 0.0,
			"-0.019": 0.351758058924,
			"-0.018": 1.19431661018,
			"-0.017": 1.05017299606,
			"-0.016": 0.672848830769,
			"-0.015": 1.29208422616,
			"-0.014": 1.13198619636,
			"-0.013": 0.599334677333,
			"-0.012": 1.16734314929,
			"-0.011": 2.05527212088,
			"-0.01": 3.21331470302,
			"-0.009": 3.46008598933,
			"-0.008": 4.17178539993,
			"-0.007": 7.48399592905,
			"-0.006": 10.0134181476,
			"-0.005": 10.8607875115,
			"-0.004": 10.5181387374,
			"-0.003": 8.44851485057,
			"-0.002": 8.66627857993,
			"-0.001": 8.63368457332,
			"0.0": 10.9704408884,
			"0.001": 12.9136020572,
			"0.002": 12.5463456826,
			"0.003": 16.7911866644,
			"0.004": 15.3452335002,
			"0.005": 7.23934659567,
			"0.006": 2.98454356178,
			"0.007": 2.45506378853,
			"0.008": 2.44150264145,
			"0.009": 2.91039043351,
			"0.01": 3.99892350681,
			"0.011": 5.41987674379,
			"0.012": 6.00115961282,
			"0.013": 3.22906038464,
			"0.014": 0.676750759681,
			"0.015": 0.0,
			"0.016": 0.0,
			"0.017": 0.0,
			"0.018": 0.0,
			"0.019": 0.0,
			"0.02": 0.0,
			"0.021": 0.0,
			"0.022": 0.0,
			"0.023": 0.0,
			"0.024": 0.0,
			"0.025": 0.0
		}
	}
}
