{
	 "smiles": "CCOC(=O)C1=C(OC2=CC=C(OC)C=C2)C2=C(N=C1)N(C)N=C2C", 
	 "Tm": 365.95, 
	 "num_atms": 44, 
	 "gaussian": { 
		 "optdone": 1, 
		 "sigma_profile": "yes", 
		 "theory": "DFT", 
		 "functional": "B3LYP", 
		 "basiset": "6-31G**", 
		 "properties": { 
			 "R2extent": 9604.4396, 
			 "electric_dipole_moment_norm": 2.54007669569, 
			 "electric_quadrupole_moment_norm": 18.0604847382, 
			 "total_energy": -1162.50510278, 
			 "HOMO_LUMO_gap": 0.15934, 
			 "cosmo_polarized_energy": -14.04, 
			 "cosmo_cavitation_energy": 48.3, 
			 "cosmo_dispersion_energy": -31.92, 
			 "cosmo_repulsion_energy": 2.43, 
			 "cosmo_total_nonelectrostatic_energy": 18.82, 
			 "SMD_solvation_energy": 7.7 
		},
		"coords": [
			{
				"x": 1.2874261568,
				"y": 3.1998852206,
				"z": -1.7422336135,
				"element": "C" 
			},
			{
				"x": 0.8995208204,
				"y": 2.1087065103,
				"z": -2.7287265878,
				"element": "C" 
			},
			{
				"x": 0.3492122483,
				"y": 0.9499679303,
				"z": -2.0549384283,
				"element": "O" 
			},
			{
				"x": 1.2369493703,
				"y": 0.0653325593,
				"z": -1.5603331742,
				"element": "C" 
			},
			{
				"x": 2.4435877538,
				"y": 0.1822625035,
				"z": -1.6838416573,
				"element": "O" 
			},
			{
				"x": 0.5972247493,
				"y": -1.1027602992,
				"z": -0.8923604449,
				"element": "C" 
			},
			{
				"x": -0.7474091116,
				"y": -1.2125051219,
				"z": -0.4909446244,
				"element": "C" 
			},
			{
				"x": -1.7000865665,
				"y": -0.2430465155,
				"z": -0.6356536701,
				"element": "O" 
			},
			{
				"x": -1.6248950155,
				"y": 0.951318598,
				"z": 0.0695075244,
				"element": "C" 
			},
			{
				"x": -0.8751226716,
				"y": 1.1125565597,
				"z": 1.2293905129,
				"element": "C" 
			},
			{
				"x": -0.9000540095,
				"y": 2.3354379436,
				"z": 1.9114818352,
				"element": "C" 
			},
			{
				"x": -1.6855958249,
				"y": 3.3892316511,
				"z": 1.435533938,
				"element": "C" 
			},
			{
				"x": -1.7867337588,
				"y": 4.6181617117,
				"z": 2.0255122451,
				"element": "O" 
			},
			{
				"x": -1.0392234617,
				"y": 4.8542478572,
				"z": 3.2068529849,
				"element": "C" 
			},
			{
				"x": -2.4456419181,
				"y": 3.2087962778,
				"z": 0.268054769,
				"element": "C" 
			},
			{
				"x": -2.4147729753,
				"y": 1.9995012671,
				"z": -0.4119891596,
				"element": "C" 
			},
			{
				"x": -1.157589314,
				"y": -2.4380645288,
				"z": 0.0512664691,
				"element": "C" 
			},
			{
				"x": -0.188821144,
				"y": -3.465331587,
				"z": 0.1679576986,
				"element": "C" 
			},
			{
				"x": 1.1056048243,
				"y": -3.3948006536,
				"z": -0.1778703104,
				"element": "N" 
			},
			{
				"x": 1.4547442033,
				"y": -2.2233869115,
				"z": -0.6914298302,
				"element": "C" 
			},
			{
				"x": -0.8254354529,
				"y": -4.531316737,
				"z": 0.7202054852,
				"element": "N" 
			},
			{
				"x": -0.2663654732,
				"y": -5.8278728815,
				"z": 1.0413227374,
				"element": "C" 
			},
			{
				"x": -2.1423671576,
				"y": -4.2554023768,
				"z": 0.9635361179,
				"element": "N" 
			},
			{
				"x": -2.3643070585,
				"y": -3.0090926361,
				"z": 0.5752843046,
				"element": "C" 
			},
			{
				"x": -3.7196584221,
				"y": -2.3901826699,
				"z": 0.705090308,
				"element": "C" 
			},
			{
				"x": 2.1048273586,
				"y": 2.8632725141,
				"z": -1.1002934281,
				"element": "H" 
			},
			{
				"x": 1.6240345962,
				"y": 4.0870947164,
				"z": -2.2894345709,
				"element": "H" 
			},
			{
				"x": 0.4348186627,
				"y": 3.480507133,
				"z": -1.1179103671,
				"element": "H" 
			},
			{
				"x": 1.7572092652,
				"y": 1.7919590868,
				"z": -3.3266513932,
				"element": "H" 
			},
			{
				"x": 0.0948662832,
				"y": 2.4360509355,
				"z": -3.3910905348,
				"element": "H" 
			},
			{
				"x": -0.2689510889,
				"y": 0.2983547993,
				"z": 1.6111408233,
				"element": "H" 
			},
			{
				"x": -0.3073132923,
				"y": 2.4421178695,
				"z": 2.8119943366,
				"element": "H" 
			},
			{
				"x": 0.0400453387,
				"y": 4.7536905215,
				"z": 3.0314041886,
				"element": "H" 
			},
			{
				"x": -1.2593075024,
				"y": 5.880767249,
				"z": 3.5040851573,
				"element": "H" 
			},
			{
				"x": -1.334034214,
				"y": 4.1741283924,
				"z": 4.0169088845,
				"element": "H" 
			},
			{
				"x": -3.0536150316,
				"y": 4.0341632169,
				"z": -0.0874534184,
				"element": "H" 
			},
			{
				"x": -2.9940538332,
				"y": 1.8499810198,
				"z": -1.3167883711,
				"element": "H" 
			},
			{
				"x": 2.4903638842,
				"y": -2.1069735216,
				"z": -0.9978544293,
				"element": "H" 
			},
			{
				"x": -0.7803450625,
				"y": -6.6125757814,
				"z": 0.4792572033,
				"element": "H" 
			},
			{
				"x": 0.7892531995,
				"y": -5.80914666,
				"z": 0.768052455,
				"element": "H" 
			},
			{
				"x": -0.3684862253,
				"y": -6.0299910391,
				"z": 2.1110886848,
				"element": "H" 
			},
			{
				"x": -4.4126978378,
				"y": -3.1154255641,
				"z": 1.1365220886,
				"element": "H" 
			},
			{
				"x": -4.1022877943,
				"y": -2.0684550696,
				"z": -0.2688238054,
				"element": "H" 
			},
			{
				"x": -3.6914174969,
				"y": -1.5033634896,
				"z": 1.3470710668,
				"element": "H" 
			}
		],
		 "valence_orbital": [ 
			{
				"type": "occ",
				"energy": -0.26741,
				"method": "rhf"
			},
			{
				"type": "occ",
				"energy": -0.25994,
				"method": "rhf"
			},
			{
				"type": "occ",
				"energy": -0.2526,
				"method": "rhf"
			},
			{
				"type": "occ",
				"energy": -0.22984,
				"method": "rhf"
			},
			{
				"type": "occ",
				"energy": -0.21004,
				"method": "rhf"
			},
			{
				"type": "unocc",
				"energy": -0.0507,
				"method": "rhf"
			},
			{
				"type": "unocc",
				"energy": -0.02882,
				"method": "rhf"
			},
			{
				"type": "unocc",
				"energy": -0.00944,
				"method": "rhf"
			},
			{
				"type": "unocc",
				"energy": 0.0155,
				"method": "rhf"
			},
			{
				"type": "unocc",
				"energy": 0.04129,
				"method": "rhf"
			}
		],
		"cosmo_sigma_profile": { 
			"-0.025": 0.0,
			"-0.024": 0.0,
			"-0.023": 0.0,
			"-0.022": 0.0,
			"-0.021": 0.0,
			"-0.02": 0.0,
			"-0.019": 0.0,
			"-0.018": 0.0,
			"-0.017": 0.0,
			"-0.016": 0.0,
			"-0.015": 0.0,
			"-0.014": 0.0,
			"-0.013": 0.0,
			"-0.012": 0.0,
			"-0.011": 0.0,
			"-0.01": 0.0,
			"-0.009": 0.0,
			"-0.008": 0.0,
			"-0.007": 3.17998320272,
			"-0.006": 17.4044392203,
			"-0.005": 30.4758713345,
			"-0.004": 34.6308733882,
			"-0.003": 42.9113947748,
			"-0.002": 33.5684288058,
			"-0.001": 40.8134508091,
			"0.0": 38.4226251779,
			"0.001": 27.8882739117,
			"0.002": 23.8916382026,
			"0.003": 19.9510306131,
			"0.004": 16.4304859746,
			"0.005": 10.2250884219,
			"0.006": 7.96680423579,
			"0.007": 7.18014044911,
			"0.008": 5.43879175212,
			"0.009": 5.42721656215,
			"0.01": 6.3246407108,
			"0.011": 4.76301659002,
			"0.012": 5.19505275926,
			"0.013": 0.988908704513,
			"0.014": 1.06142773796,
			"0.015": 0.298393770175,
			"0.016": 0.0,
			"0.017": 0.0,
			"0.018": 0.0,
			"0.019": 0.0,
			"0.02": 0.0,
			"0.021": 0.0,
			"0.022": 0.0,
			"0.023": 0.0,
			"0.024": 0.0,
			"0.025": 0.0
		}
	}
}
