{
	 "smiles": "CC(C)(C)NC1=NN=C(S)S1", 
	 "Tm": 438.15, 
	 "num_atms": 22, 
	 "gaussian": { 
		 "optdone": 1, 
		 "sigma_profile": "yes", 
		 "theory": "DFT", 
		 "functional": "B3LYP", 
		 "basiset": "6-31G**", 
		 "properties": { 
			 "R2extent": 3260.9414, 
			 "electric_dipole_moment_norm": 4.93067119569, 
			 "electric_quadrupole_moment_norm": 14.8260898055, 
			 "total_energy": -1195.86707416, 
			 "HOMO_LUMO_gap": 0.19106, 
			 "cosmo_polarized_energy": -13.11, 
			 "cosmo_cavitation_energy": 27.85, 
			 "cosmo_dispersion_energy": -21.1, 
			 "cosmo_repulsion_energy": 1.6, 
			 "cosmo_total_nonelectrostatic_energy": 8.35, 
			 "SMD_solvation_energy": 1.9 
		},
		"coords": [
			{
				"x": 0.0129585862,
				"y": -2.5083602683,
				"z": -0.2445620466,
				"element": "C" 
			},
			{
				"x": 0.06328932,
				"y": -1.4712667546,
				"z": 0.891435095,
				"element": "C" 
			},
			{
				"x": -1.34468508,
				"y": -0.9266423797,
				"z": 1.2007405494,
				"element": "C" 
			},
			{
				"x": 0.6570584869,
				"y": -2.1312684305,
				"z": 2.1469597192,
				"element": "C" 
			},
			{
				"x": 1.0024764115,
				"y": -0.3724215429,
				"z": 0.5436754106,
				"element": "N" 
			},
			{
				"x": 0.8200210881,
				"y": 0.6106687594,
				"z": -0.3864633645,
				"element": "C" 
			},
			{
				"x": 1.3377607526,
				"y": 1.8110918,
				"z": -0.2146359531,
				"element": "N" 
			},
			{
				"x": 1.1790500893,
				"y": 2.6253025534,
				"z": -1.2941975716,
				"element": "N" 
			},
			{
				"x": 0.5267794088,
				"y": 2.083804172,
				"z": -2.2751903827,
				"element": "C" 
			},
			{
				"x": 0.0390834673,
				"y": 2.9769512614,
				"z": -3.722865061,
				"element": "S" 
			},
			{
				"x": 0.0238249277,
				"y": 0.4116571868,
				"z": -1.9476907887,
				"element": "S" 
			},
			{
				"x": -0.5827078954,
				"y": -3.3713360668,
				"z": 0.0690393138,
				"element": "H" 
			},
			{
				"x": 1.0200501371,
				"y": -2.8529742914,
				"z": -0.4954749339,
				"element": "H" 
			},
			{
				"x": -0.4493448828,
				"y": -2.1093038838,
				"z": -1.1515038984,
				"element": "H" 
			},
			{
				"x": -2.0162668692,
				"y": -1.7433919205,
				"z": 1.4844630723,
				"element": "H" 
			},
			{
				"x": -1.3101719358,
				"y": -0.2094169706,
				"z": 2.0268951201,
				"element": "H" 
			},
			{
				"x": -1.7788074912,
				"y": -0.4235084819,
				"z": 0.3319038573,
				"element": "H" 
			},
			{
				"x": 0.0336612008,
				"y": -2.9716711303,
				"z": 2.463172773,
				"element": "H" 
			},
			{
				"x": 0.7063715486,
				"y": -1.420964782,
				"z": 2.9803932758,
				"element": "H" 
			},
			{
				"x": 1.6663243956,
				"y": -2.5058497681,
				"z": 1.949873459,
				"element": "H" 
			},
			{
				"x": 1.5021660858,
				"y": 0.0122942952,
				"z": 1.3385555374,
				"element": "H" 
			},
			{
				"x": 0.630008248,
				"y": 2.1631066437,
				"z": -4.6243231823,
				"element": "H" 
			}
		],
		 "valence_orbital": [ 
			{
				"type": "occ",
				"energy": -0.30167,
				"method": "rhf"
			},
			{
				"type": "occ",
				"energy": -0.2932,
				"method": "rhf"
			},
			{
				"type": "occ",
				"energy": -0.26901,
				"method": "rhf"
			},
			{
				"type": "occ",
				"energy": -0.25598,
				"method": "rhf"
			},
			{
				"type": "occ",
				"energy": -0.22202,
				"method": "rhf"
			},
			{
				"type": "unocc",
				"energy": -0.03096,
				"method": "rhf"
			},
			{
				"type": "unocc",
				"energy": -0.00328,
				"method": "rhf"
			},
			{
				"type": "unocc",
				"energy": 0.02283,
				"method": "rhf"
			},
			{
				"type": "unocc",
				"energy": 0.04305,
				"method": "rhf"
			},
			{
				"type": "unocc",
				"energy": 0.05428,
				"method": "rhf"
			}
		],
		"cosmo_sigma_profile": { 
			"-0.025": 0.0,
			"-0.024": 0.0,
			"-0.023": 0.0,
			"-0.022": 0.0,
			"-0.021": 0.0,
			"-0.02": 0.0,
			"-0.019": 0.0,
			"-0.018": 0.0,
			"-0.017": 0.0,
			"-0.016": 0.0,
			"-0.015": 0.0,
			"-0.014": 0.0,
			"-0.013": 0.409943423861,
			"-0.012": 1.1676756287,
			"-0.011": 4.09638508233,
			"-0.01": 3.38936732515,
			"-0.009": 2.80202091395,
			"-0.008": 2.5899427804,
			"-0.007": 2.91322804012,
			"-0.006": 2.61606249593,
			"-0.005": 5.04092030456,
			"-0.004": 18.3410827859,
			"-0.003": 20.8107847216,
			"-0.002": 23.6770445994,
			"-0.001": 26.7128306728,
			"0.0": 31.7261776656,
			"0.001": 17.5904914424,
			"0.002": 10.1479267756,
			"0.003": 8.24367414562,
			"0.004": 5.83642323679,
			"0.005": 4.09129747571,
			"0.006": 5.1700477667,
			"0.007": 4.29430925296,
			"0.008": 3.69802048473,
			"0.009": 3.16596129062,
			"0.01": 2.4047678961,
			"0.011": 3.02611214744,
			"0.012": 3.41840484728,
			"0.013": 2.66133709351,
			"0.014": 2.46623217523,
			"0.015": 1.19988582215,
			"0.016": 0.0623914087957,
			"0.017": 0.0,
			"0.018": 0.0,
			"0.019": 0.0,
			"0.02": 0.0,
			"0.021": 0.0,
			"0.022": 0.0,
			"0.023": 0.0,
			"0.024": 0.0,
			"0.025": 0.0
		}
	}
}
