{
	 "smiles": "CCCC=CCC", 
	 "Tm": 136.15, 
	 "num_atms": 21, 
	 "gaussian": { 
		 "optdone": 1, 
		 "sigma_profile": "yes", 
		 "theory": "DFT", 
		 "functional": "B3LYP", 
		 "basiset": "6-31G**", 
		 "properties": { 
			 "R2extent": 1346.2609, 
			 "electric_dipole_moment_norm": 0.165125194928, 
			 "electric_quadrupole_moment_norm": 2.01943789209, 
			 "total_energy": -275.181098186, 
			 "HOMO_LUMO_gap": 0.26849, 
			 "cosmo_polarized_energy": -1.35, 
			 "cosmo_cavitation_energy": 22.87, 
			 "cosmo_dispersion_energy": -16.35, 
			 "cosmo_repulsion_energy": 1.43, 
			 "cosmo_total_nonelectrostatic_energy": 7.95, 
			 "SMD_solvation_energy": 3.89 
		},
		"coords": [
			{
				"x": -0.4463451838,
				"y": 1.4470148296,
				"z": -1.6891719351,
				"element": "C" 
			},
			{
				"x": 0.4808144396,
				"y": 0.3625178422,
				"z": -2.2455668432,
				"element": "C" 
			},
			{
				"x": 0.3413763209,
				"y": -0.9979064643,
				"z": -1.5294747005,
				"element": "C" 
			},
			{
				"x": 0.7838068483,
				"y": -0.9704678138,
				"z": -0.0902664772,
				"element": "C" 
			},
			{
				"x": 0.0075419054,
				"y": -1.2578354513,
				"z": 0.9587661373,
				"element": "C" 
			},
			{
				"x": 0.4068211716,
				"y": -1.2502506433,
				"z": 2.413170732,
				"element": "C" 
			},
			{
				"x": 1.8555388002,
				"y": -0.8567272852,
				"z": 2.7098631114,
				"element": "C" 
			},
			{
				"x": -0.3064072587,
				"y": 2.397805183,
				"z": -2.2140295109,
				"element": "H" 
			},
			{
				"x": -0.2613758172,
				"y": 1.6174604764,
				"z": -0.6238960563,
				"element": "H" 
			},
			{
				"x": -1.4984577274,
				"y": 1.1583616455,
				"z": -1.7978144859,
				"element": "H" 
			},
			{
				"x": 0.2791332447,
				"y": 0.2194719017,
				"z": -3.314769596,
				"element": "H" 
			},
			{
				"x": 1.5243532153,
				"y": 0.6986090097,
				"z": -2.1750809838,
				"element": "H" 
			},
			{
				"x": -0.7006194736,
				"y": -1.3387734907,
				"z": -1.5899671206,
				"element": "H" 
			},
			{
				"x": 0.9434176345,
				"y": -1.7378141985,
				"z": -2.0770264579,
				"element": "H" 
			},
			{
				"x": 1.8241017439,
				"y": -0.6870061833,
				"z": 0.0748452679,
				"element": "H" 
			},
			{
				"x": -1.0308567144,
				"y": -1.537300959,
				"z": 0.7690870549,
				"element": "H" 
			},
			{
				"x": 0.2064980061,
				"y": -2.2472071142,
				"z": 2.8338219608,
				"element": "H" 
			},
			{
				"x": -0.2726178571,
				"y": -0.5766874188,
				"z": 2.9566930388,
				"element": "H" 
			},
			{
				"x": 2.049200165,
				"y": -0.8789330492,
				"z": 3.7866925178,
				"element": "H" 
			},
			{
				"x": 2.075559129,
				"y": 0.1544002297,
				"z": 2.3514246972,
				"element": "H" 
			},
			{
				"x": 2.5617174077,
				"y": -1.5419310465,
				"z": 2.2291996494,
				"element": "H" 
			}
		],
		 "valence_orbital": [ 
			{
				"type": "occ",
				"energy": -0.33834,
				"method": "rhf"
			},
			{
				"type": "occ",
				"energy": -0.33399,
				"method": "rhf"
			},
			{
				"type": "occ",
				"energy": -0.32342,
				"method": "rhf"
			},
			{
				"type": "occ",
				"energy": -0.31432,
				"method": "rhf"
			},
			{
				"type": "occ",
				"energy": -0.23464,
				"method": "rhf"
			},
			{
				"type": "unocc",
				"energy": 0.03385,
				"method": "rhf"
			},
			{
				"type": "unocc",
				"energy": 0.10266,
				"method": "rhf"
			},
			{
				"type": "unocc",
				"energy": 0.11015,
				"method": "rhf"
			},
			{
				"type": "unocc",
				"energy": 0.11612,
				"method": "rhf"
			},
			{
				"type": "unocc",
				"energy": 0.14301,
				"method": "rhf"
			}
		],
		"cosmo_sigma_profile": { 
			"-0.025": 0.0,
			"-0.024": 0.0,
			"-0.023": 0.0,
			"-0.022": 0.0,
			"-0.021": 0.0,
			"-0.02": 0.0,
			"-0.019": 0.0,
			"-0.018": 0.0,
			"-0.017": 0.0,
			"-0.016": 0.0,
			"-0.015": 0.0,
			"-0.014": 0.0,
			"-0.013": 0.0,
			"-0.012": 0.0,
			"-0.011": 0.0,
			"-0.01": 0.0,
			"-0.009": 0.0,
			"-0.008": 0.0,
			"-0.007": 0.0,
			"-0.006": 0.0,
			"-0.005": 0.0,
			"-0.004": 0.662634059425,
			"-0.003": 12.3901372826,
			"-0.002": 30.1144106076,
			"-0.001": 34.5482664993,
			"0.0": 35.330824153,
			"0.001": 31.0846702003,
			"0.002": 15.9229168426,
			"0.003": 5.23697792946,
			"0.004": 4.60468730717,
			"0.005": 3.83452973079,
			"0.006": 1.50535878229,
			"0.007": 1.10126030106,
			"0.008": 0.36397063246,
			"0.009": 0.0,
			"0.01": 0.0,
			"0.011": 0.0,
			"0.012": 0.0,
			"0.013": 0.0,
			"0.014": 0.0,
			"0.015": 0.0,
			"0.016": 0.0,
			"0.017": 0.0,
			"0.018": 0.0,
			"0.019": 0.0,
			"0.02": 0.0,
			"0.021": 0.0,
			"0.022": 0.0,
			"0.023": 0.0,
			"0.024": 0.0,
			"0.025": 0.0
		}
	}
}
