{
	 "smiles": "OC(=O)C1=CC=C(CS)C=C1", 
	 "Tm": 453.15, 
	 "num_atms": 19, 
	 "gaussian": { 
		 "optdone": 1, 
		 "sigma_profile": "yes", 
		 "theory": "DFT", 
		 "functional": "B3LYP", 
		 "basiset": "6-31G**", 
		 "properties": { 
			 "R2extent": 3143.5835, 
			 "electric_dipole_moment_norm": 3.80587033279, 
			 "electric_quadrupole_moment_norm": 18.7906700807, 
			 "total_energy": -858.31677497, 
			 "HOMO_LUMO_gap": 0.18841, 
			 "cosmo_polarized_energy": -16.35, 
			 "cosmo_cavitation_energy": 25.22, 
			 "cosmo_dispersion_energy": -18.84, 
			 "cosmo_repulsion_energy": 1.47, 
			 "cosmo_total_nonelectrostatic_energy": 7.85, 
			 "SMD_solvation_energy": 4.89 
		},
		"coords": [
			{
				"x": -0.3245860558,
				"y": -1.1398891015,
				"z": 3.1669101303,
				"element": "O" 
			},
			{
				"x": -0.4836650932,
				"y": -0.07536053,
				"z": 2.3350202037,
				"element": "C" 
			},
			{
				"x": -0.6533124209,
				"y": 1.0292269685,
				"z": 2.7954401241,
				"element": "O" 
			},
			{
				"x": -0.4335485017,
				"y": -0.3534938215,
				"z": 0.8627947047,
				"element": "C" 
			},
			{
				"x": -0.1880419042,
				"y": 0.7253670304,
				"z": 0.0054871598,
				"element": "C" 
			},
			{
				"x": -0.12997075,
				"y": 0.5300004318,
				"z": -1.3716714288,
				"element": "C" 
			},
			{
				"x": -0.3337219024,
				"y": -0.7405206925,
				"z": -1.9273524183,
				"element": "C" 
			},
			{
				"x": -0.270126329,
				"y": -0.9377807741,
				"z": -3.4205429394,
				"element": "C" 
			},
			{
				"x": -1.9020166306,
				"y": -1.315015715,
				"z": -4.2132020023,
				"element": "S" 
			},
			{
				"x": -0.6043064292,
				"y": -1.8145266289,
				"z": -1.067327459,
				"element": "C" 
			},
			{
				"x": -0.6509974248,
				"y": -1.6255308074,
				"z": 0.3100904026,
				"element": "C" 
			},
			{
				"x": -0.0407756473,
				"y": -1.9169900875,
				"z": 2.6662504152,
				"element": "H" 
			},
			{
				"x": -0.042250339,
				"y": 1.7083222783,
				"z": 0.4402246832,
				"element": "H" 
			},
			{
				"x": 0.0773096477,
				"y": 1.3735061742,
				"z": -2.0252331132,
				"element": "H" 
			},
			{
				"x": 0.3442166262,
				"y": -1.8060054286,
				"z": -3.6763206743,
				"element": "H" 
			},
			{
				"x": 0.1707853849,
				"y": -0.06677838,
				"z": -3.9100959581,
				"element": "H" 
			},
			{
				"x": -2.5440497937,
				"y": -0.2135512475,
				"z": -3.7742702074,
				"element": "H" 
			},
			{
				"x": -0.7966917237,
				"y": -2.7988945922,
				"z": -1.4842644023,
				"element": "H" 
			},
			{
				"x": -0.8983507131,
				"y": -2.4739850766,
				"z": 0.9440627795,
				"element": "H" 
			}
		],
		 "valence_orbital": [ 
			{
				"type": "occ",
				"energy": -0.3174,
				"method": "rhf"
			},
			{
				"type": "occ",
				"energy": -0.27847,
				"method": "rhf"
			},
			{
				"type": "occ",
				"energy": -0.2759,
				"method": "rhf"
			},
			{
				"type": "occ",
				"energy": -0.26759,
				"method": "rhf"
			},
			{
				"type": "occ",
				"energy": -0.24681,
				"method": "rhf"
			},
			{
				"type": "unocc",
				"energy": -0.0584,
				"method": "rhf"
			},
			{
				"type": "unocc",
				"energy": -0.02732,
				"method": "rhf"
			},
			{
				"type": "unocc",
				"energy": 0.01443,
				"method": "rhf"
			},
			{
				"type": "unocc",
				"energy": 0.03931,
				"method": "rhf"
			},
			{
				"type": "unocc",
				"energy": 0.05708,
				"method": "rhf"
			}
		],
		"cosmo_sigma_profile": { 
			"-0.025": 0.0,
			"-0.024": 0.0,
			"-0.023": 0.0,
			"-0.022": 0.0,
			"-0.021": 0.0,
			"-0.02": 0.0,
			"-0.019": 0.184698741038,
			"-0.018": 0.545836955605,
			"-0.017": 0.789928476704,
			"-0.016": 1.06336973663,
			"-0.015": 1.5339153138,
			"-0.014": 1.09765921357,
			"-0.013": 0.500940377697,
			"-0.012": 0.964869908381,
			"-0.011": 1.30953869881,
			"-0.01": 1.31603347023,
			"-0.009": 3.61888388523,
			"-0.008": 3.21602615543,
			"-0.007": 9.23590612015,
			"-0.006": 15.5193207527,
			"-0.005": 13.7886189795,
			"-0.004": 12.1535385824,
			"-0.003": 11.7311006685,
			"-0.002": 10.5884969516,
			"-0.001": 9.91856944978,
			"0.0": 9.68045118347,
			"0.001": 10.5422785388,
			"0.002": 11.2766790172,
			"0.003": 17.2147929297,
			"0.004": 8.46209157407,
			"0.005": 6.54465177086,
			"0.006": 6.34731362478,
			"0.007": 4.74195739623,
			"0.008": 5.31290867097,
			"0.009": 5.44495345601,
			"0.01": 6.31902061477,
			"0.011": 5.31375424974,
			"0.012": 5.37037271241,
			"0.013": 1.70670831862,
			"0.014": 0.10010568359,
			"0.015": 0.0,
			"0.016": 0.0,
			"0.017": 0.0,
			"0.018": 0.0,
			"0.019": 0.0,
			"0.02": 0.0,
			"0.021": 0.0,
			"0.022": 0.0,
			"0.023": 0.0,
			"0.024": 0.0,
			"0.025": 0.0
		}
	}
}
