{
	 "smiles": "CC(=O)C1=CC=C(O1)C1=C(OC(F)(F)F)C=CC=C1", 
	 "Tm": 316.65, 
	 "num_atms": 28, 
	 "gaussian": { 
		 "optdone": 1, 
		 "sigma_profile": "yes", 
		 "theory": "DFT", 
		 "functional": "B3LYP", 
		 "basiset": "6-31G**", 
		 "properties": { 
			 "R2extent": 5192.6022, 
			 "electric_dipole_moment_norm": 4.9419274762, 
			 "electric_quadrupole_moment_norm": 15.0815363965, 
			 "total_energy": -1025.98749166, 
			 "HOMO_LUMO_gap": 0.15719, 
			 "cosmo_polarized_energy": -10.42, 
			 "cosmo_cavitation_energy": 34.54, 
			 "cosmo_dispersion_energy": -23.4, 
			 "cosmo_repulsion_energy": 1.72, 
			 "cosmo_total_nonelectrostatic_energy": 12.86, 
			 "SMD_solvation_energy": 8.23 
		},
		"coords": [
			{
				"x": -0.4928394067,
				"y": -4.4037905528,
				"z": 0.1390736664,
				"element": "C" 
			},
			{
				"x": -0.4277952589,
				"y": -4.166305225,
				"z": -1.3562888842,
				"element": "C" 
			},
			{
				"x": -0.2478045337,
				"y": -5.0672230438,
				"z": -2.1648814214,
				"element": "O" 
			},
			{
				"x": -0.5993864741,
				"y": -2.7869022182,
				"z": -1.8343079896,
				"element": "C" 
			},
			{
				"x": -0.5972438118,
				"y": -2.2535330325,
				"z": -3.0996967333,
				"element": "C" 
			},
			{
				"x": -0.7912488359,
				"y": -0.8582936037,
				"z": -2.9490400021,
				"element": "C" 
			},
			{
				"x": -0.9022804401,
				"y": -0.6149011888,
				"z": -1.5942403653,
				"element": "C" 
			},
			{
				"x": -0.7882777003,
				"y": -1.7884287319,
				"z": -0.9158216048,
				"element": "O" 
			},
			{
				"x": -1.1076742737,
				"y": 0.6264464709,
				"z": -0.8527776723,
				"element": "C" 
			},
			{
				"x": -0.8257531979,
				"y": 0.7901977548,
				"z": 0.5175162854,
				"element": "C" 
			},
			{
				"x": -0.4015826825,
				"y": -0.3033051787,
				"z": 1.2856082074,
				"element": "O" 
			},
			{
				"x": 0.931500072,
				"y": -0.4543716774,
				"z": 1.4813315045,
				"element": "C" 
			},
			{
				"x": 1.1210199304,
				"y": -1.6354602997,
				"z": 2.07611496,
				"element": "F" 
			},
			{
				"x": 1.4430471041,
				"y": 0.5068370016,
				"z": 2.2782743148,
				"element": "F" 
			},
			{
				"x": 1.6321171259,
				"y": -0.429271684,
				"z": 0.3339381262,
				"element": "F" 
			},
			{
				"x": -1.0199895423,
				"y": 2.003765264,
				"z": 1.1699152625,
				"element": "C" 
			},
			{
				"x": -1.4976485886,
				"y": 3.1051421671,
				"z": 0.4626796969,
				"element": "C" 
			},
			{
				"x": -1.7852898052,
				"y": 2.9757362477,
				"z": -0.8978392046,
				"element": "C" 
			},
			{
				"x": -1.5985261061,
				"y": 1.7559164595,
				"z": -1.5382276789,
				"element": "C" 
			},
			{
				"x": -1.5105429057,
				"y": -4.2189504652,
				"z": 0.5024653473,
				"element": "H" 
			},
			{
				"x": -0.2178344051,
				"y": -5.4389470634,
				"z": 0.3440356424,
				"element": "H" 
			},
			{
				"x": 0.1633689032,
				"y": -3.7179829859,
				"z": 0.6829539585,
				"element": "H" 
			},
			{
				"x": -0.4613475666,
				"y": -2.8143273262,
				"z": -4.0122748768,
				"element": "H" 
			},
			{
				"x": -0.8198111105,
				"y": -0.1191676143,
				"z": -3.7360693969,
				"element": "H" 
			},
			{
				"x": -0.792460867,
				"y": 2.0648357188,
				"z": 2.2280345604,
				"element": "H" 
			},
			{
				"x": -1.6495256633,
				"y": 4.0513929312,
				"z": 0.9719289282,
				"element": "H" 
			},
			{
				"x": -2.1686749454,
				"y": 3.8223938227,
				"z": -1.4586618742,
				"element": "H" 
			},
			{
				"x": -1.8509150141,
				"y": 1.6597980533,
				"z": -2.5889427568,
				"element": "H" 
			}
		],
		 "valence_orbital": [ 
			{
				"type": "occ",
				"energy": -0.30292,
				"method": "rhf"
			},
			{
				"type": "occ",
				"energy": -0.28946,
				"method": "rhf"
			},
			{
				"type": "occ",
				"energy": -0.27195,
				"method": "rhf"
			},
			{
				"type": "occ",
				"energy": -0.24864,
				"method": "rhf"
			},
			{
				"type": "occ",
				"energy": -0.2254,
				"method": "rhf"
			},
			{
				"type": "unocc",
				"energy": -0.06821,
				"method": "rhf"
			},
			{
				"type": "unocc",
				"energy": -0.02666,
				"method": "rhf"
			},
			{
				"type": "unocc",
				"energy": -0.0211,
				"method": "rhf"
			},
			{
				"type": "unocc",
				"energy": 0.05024,
				"method": "rhf"
			},
			{
				"type": "unocc",
				"energy": 0.0726,
				"method": "rhf"
			}
		],
		"cosmo_sigma_profile": { 
			"-0.025": 0.0,
			"-0.024": 0.0,
			"-0.023": 0.0,
			"-0.022": 0.0,
			"-0.021": 0.0,
			"-0.02": 0.0,
			"-0.019": 0.0,
			"-0.018": 0.0,
			"-0.017": 0.0,
			"-0.016": 0.0,
			"-0.015": 0.0,
			"-0.014": 0.0,
			"-0.013": 0.0,
			"-0.012": 0.0,
			"-0.011": 0.0,
			"-0.01": 0.030647577186,
			"-0.009": 1.54041269872,
			"-0.008": 4.76026008606,
			"-0.007": 9.77506941572,
			"-0.006": 12.960726313,
			"-0.005": 15.6229741673,
			"-0.004": 13.6822802492,
			"-0.003": 16.324016649,
			"-0.002": 18.617040623,
			"-0.001": 23.2862937919,
			"0.0": 28.8085450609,
			"0.001": 36.975658248,
			"0.002": 44.6690233001,
			"0.003": 20.0376948052,
			"0.004": 5.14524621216,
			"0.005": 3.06201012841,
			"0.006": 3.31971475667,
			"0.007": 3.30473291439,
			"0.008": 2.55381186873,
			"0.009": 1.15579931987,
			"0.01": 2.04223356602,
			"0.011": 2.94694774823,
			"0.012": 4.65966089893,
			"0.013": 2.24448166419,
			"0.014": 0.323238198167,
			"0.015": 0.0,
			"0.016": 0.0,
			"0.017": 0.0,
			"0.018": 0.0,
			"0.019": 0.0,
			"0.02": 0.0,
			"0.021": 0.0,
			"0.022": 0.0,
			"0.023": 0.0,
			"0.024": 0.0,
			"0.025": 0.0
		}
	}
}
