{
	 "smiles": "CC1CCCN(C1)C(=O)C1=CC(C)=C(N)C=C1", 
	 "Tm": 402.15, 
	 "num_atms": 37, 
	 "gaussian": { 
		 "optdone": 1, 
		 "sigma_profile": "yes", 
		 "theory": "DFT", 
		 "functional": "B3LYP", 
		 "basiset": "6-31G**", 
		 "properties": { 
			 "R2extent": 5492.4116, 
			 "electric_dipole_moment_norm": 3.68100097935, 
			 "electric_quadrupole_moment_norm": 19.23524468, 
			 "total_energy": -730.305200717, 
			 "HOMO_LUMO_gap": 0.19264, 
			 "cosmo_polarized_energy": -15.7, 
			 "cosmo_cavitation_energy": 37.47, 
			 "cosmo_dispersion_energy": -26.87, 
			 "cosmo_repulsion_energy": 2.1, 
			 "cosmo_total_nonelectrostatic_energy": 12.7, 
			 "SMD_solvation_energy": 5.43 
		},
		"coords": [
			{
				"x": 3.9440204165,
				"y": 0.6832180243,
				"z": -0.4251164669,
				"element": "C" 
			},
			{
				"x": 2.9449982565,
				"y": 0.1576026597,
				"z": 0.6105421773,
				"element": "C" 
			},
			{
				"x": 3.4062850609,
				"y": 0.4446053774,
				"z": 2.0606341287,
				"element": "C" 
			},
			{
				"x": 2.2119351042,
				"y": 0.5603254688,
				"z": 3.0335589759,
				"element": "C" 
			},
			{
				"x": 1.0330662337,
				"y": -0.3083678481,
				"z": 2.5972602932,
				"element": "C" 
			},
			{
				"x": 0.554807596,
				"y": 0.1126667562,
				"z": 1.2694354672,
				"element": "N" 
			},
			{
				"x": 1.5396192426,
				"y": 0.7353887081,
				"z": 0.3729690229,
				"element": "C" 
			},
			{
				"x": -0.637077866,
				"y": -0.4479041549,
				"z": 0.8596016334,
				"element": "C" 
			},
			{
				"x": -1.2018352381,
				"y": -1.2936256383,
				"z": 1.5572424484,
				"element": "O" 
			},
			{
				"x": -1.2611554798,
				"y": 0.010361945,
				"z": -0.4243904408,
				"element": "C" 
			},
			{
				"x": -2.0099215448,
				"y": -0.9279159131,
				"z": -1.1506653856,
				"element": "C" 
			},
			{
				"x": -2.6927794019,
				"y": -0.5988293852,
				"z": -2.3177077572,
				"element": "C" 
			},
			{
				"x": -3.4614745493,
				"y": -1.6394388435,
				"z": -3.0941333276,
				"element": "C" 
			},
			{
				"x": -2.6562688312,
				"y": 0.7436811243,
				"z": -2.7684648333,
				"element": "C" 
			},
			{
				"x": -3.2879197,
				"y": 1.1036511687,
				"z": -3.9576141442,
				"element": "N" 
			},
			{
				"x": -1.9363188129,
				"y": 1.6972103336,
				"z": -2.0304270594,
				"element": "C" 
			},
			{
				"x": -1.24408079,
				"y": 1.3352326273,
				"z": -0.8799237208,
				"element": "C" 
			},
			{
				"x": 4.011541063,
				"y": 1.7772569727,
				"z": -0.3856123045,
				"element": "H" 
			},
			{
				"x": 4.9468089638,
				"y": 0.2846359271,
				"z": -0.2380430808,
				"element": "H" 
			},
			{
				"x": 3.6562389566,
				"y": 0.400626231,
				"z": -1.4435822971,
				"element": "H" 
			},
			{
				"x": 2.8607177948,
				"y": -0.930109537,
				"z": 0.4829652942,
				"element": "H" 
			},
			{
				"x": 3.9879462316,
				"y": 1.374780912,
				"z": 2.0857764227,
				"element": "H" 
			},
			{
				"x": 4.0868584115,
				"y": -0.351818741,
				"z": 2.3839769844,
				"element": "H" 
			},
			{
				"x": 1.8746316195,
				"y": 1.6023822956,
				"z": 3.0912296001,
				"element": "H" 
			},
			{
				"x": 2.5107348721,
				"y": 0.2767071582,
				"z": 4.0481341629,
				"element": "H" 
			},
			{
				"x": 0.1974512702,
				"y": -0.2300152105,
				"z": 3.296716656,
				"element": "H" 
			},
			{
				"x": 1.3177058931,
				"y": -1.3705073153,
				"z": 2.5805040324,
				"element": "H" 
			},
			{
				"x": 1.5702749344,
				"y": 1.8272703708,
				"z": 0.5162367274,
				"element": "H" 
			},
			{
				"x": 1.2335444643,
				"y": 0.558524586,
				"z": -0.6592263679,
				"element": "H" 
			},
			{
				"x": -2.0569549803,
				"y": -1.9441389531,
				"z": -0.7707429145,
				"element": "H" 
			},
			{
				"x": -3.3610104646,
				"y": -2.624220078,
				"z": -2.6319933268,
				"element": "H" 
			},
			{
				"x": -4.5363519268,
				"y": -1.4114101912,
				"z": -3.1379745944,
				"element": "H" 
			},
			{
				"x": -3.1063500454,
				"y": -1.7142522217,
				"z": -4.1298026581,
				"element": "H" 
			},
			{
				"x": -4.0865419433,
				"y": 0.5443691144,
				"z": -4.2214438305,
				"element": "H" 
			},
			{
				"x": -3.4606071649,
				"y": 2.0928206816,
				"z": -4.0709710857,
				"element": "H" 
			},
			{
				"x": -1.9275153772,
				"y": 2.7320876598,
				"z": -2.3650145539,
				"element": "H" 
			},
			{
				"x": -0.7166222685,
				"y": 2.1001479284,
				"z": -0.3188338773,
				"element": "H" 
			}
		],
		 "valence_orbital": [ 
			{
				"type": "occ",
				"energy": -0.30037,
				"method": "rhf"
			},
			{
				"type": "occ",
				"energy": -0.24175,
				"method": "rhf"
			},
			{
				"type": "occ",
				"energy": -0.23259,
				"method": "rhf"
			},
			{
				"type": "occ",
				"energy": -0.21887,
				"method": "rhf"
			},
			{
				"type": "occ",
				"energy": -0.20006,
				"method": "rhf"
			},
			{
				"type": "unocc",
				"energy": -0.00742,
				"method": "rhf"
			},
			{
				"type": "unocc",
				"energy": 0.0069,
				"method": "rhf"
			},
			{
				"type": "unocc",
				"energy": 0.06971,
				"method": "rhf"
			},
			{
				"type": "unocc",
				"energy": 0.07444,
				"method": "rhf"
			},
			{
				"type": "unocc",
				"energy": 0.07882,
				"method": "rhf"
			}
		],
		"cosmo_sigma_profile": { 
			"-0.025": 0.0,
			"-0.024": 0.0,
			"-0.023": 0.0,
			"-0.022": 0.0,
			"-0.021": 0.0,
			"-0.02": 0.0,
			"-0.019": 0.0,
			"-0.018": 0.0,
			"-0.017": 0.0,
			"-0.016": 0.0,
			"-0.015": 0.0,
			"-0.014": 0.0,
			"-0.013": 0.362978458769,
			"-0.012": 2.10014144787,
			"-0.011": 2.68102547519,
			"-0.01": 2.77503883689,
			"-0.009": 3.39345576326,
			"-0.008": 3.0884203425,
			"-0.007": 2.53715256419,
			"-0.006": 3.84573063677,
			"-0.005": 7.45382383318,
			"-0.004": 15.6659825088,
			"-0.003": 35.4513654117,
			"-0.002": 44.2743373665,
			"-0.001": 38.8675736214,
			"0.0": 31.6529295578,
			"0.001": 22.6836432359,
			"0.002": 11.5256128608,
			"0.003": 9.33007938367,
			"0.004": 8.87765144782,
			"0.005": 9.46660056943,
			"0.006": 9.53731395259,
			"0.007": 2.39763001766,
			"0.008": 3.58421252806,
			"0.009": 2.02653502086,
			"0.01": 2.44831570658,
			"0.011": 2.55746835159,
			"0.012": 2.25618725915,
			"0.013": 2.30431468591,
			"0.014": 3.60198979422,
			"0.015": 4.61032914668,
			"0.016": 0.533840166295,
			"0.017": 0.0,
			"0.018": 0.0,
			"0.019": 0.0,
			"0.02": 0.0,
			"0.021": 0.0,
			"0.022": 0.0,
			"0.023": 0.0,
			"0.024": 0.0,
			"0.025": 0.0
		}
	}
}
