{
	 "smiles": "ClC(=O)C1=C(Cl)C(Cl)=CC=C1", 
	 "Tm": 303.15, 
	 "num_atms": 14, 
	 "gaussian": { 
		 "optdone": 1, 
		 "sigma_profile": "yes", 
		 "theory": "DFT", 
		 "functional": "B3LYP", 
		 "basiset": "6-31G**", 
		 "properties": { 
			 "R2extent": 3005.8195, 
			 "electric_dipole_moment_norm": 3.6312072414, 
			 "electric_quadrupole_moment_norm": 7.32582762765, 
			 "total_energy": -1724.34271213, 
			 "HOMO_LUMO_gap": 0.19146, 
			 "cosmo_polarized_energy": -6.39, 
			 "cosmo_cavitation_energy": 24.36, 
			 "cosmo_dispersion_energy": -18.09, 
			 "cosmo_repulsion_energy": 1.46, 
			 "cosmo_total_nonelectrostatic_energy": 7.73, 
			 "SMD_solvation_energy": 4.24 
		},
		"coords": [
			{
				"x": -0.09094745,
				"y": 0.6843429166,
				"z": 3.6216938745,
				"element": "Cl" 
			},
			{
				"x": -0.3965346519,
				"y": -0.4669589641,
				"z": 2.2592293369,
				"element": "C" 
			},
			{
				"x": -0.9121582042,
				"y": -1.5211635547,
				"z": 2.4697977404,
				"element": "O" 
			},
			{
				"x": 0.1771902635,
				"y": -0.0449849553,
				"z": 0.9431896572,
				"element": "C" 
			},
			{
				"x": -0.1390335963,
				"y": 1.1506936653,
				"z": 0.2741967715,
				"element": "C" 
			},
			{
				"x": -1.3368573121,
				"y": 2.2385790094,
				"z": 0.913274194,
				"element": "Cl" 
			},
			{
				"x": 0.4799364321,
				"y": 1.4263534802,
				"z": -0.9552793006,
				"element": "C" 
			},
			{
				"x": 0.1210467103,
				"y": 2.8873456318,
				"z": -1.8378789207,
				"element": "Cl" 
			},
			{
				"x": 1.3942388213,
				"y": 0.5262109428,
				"z": -1.5067292783,
				"element": "C" 
			},
			{
				"x": 1.68310457,
				"y": -0.6670570136,
				"z": -0.8509801659,
				"element": "C" 
			},
			{
				"x": 1.0658644275,
				"y": -0.9588017518,
				"z": 0.3611114915,
				"element": "C" 
			},
			{
				"x": 1.8612105337,
				"y": 0.7686386368,
				"z": -2.4546726795,
				"element": "H" 
			},
			{
				"x": 2.3837523999,
				"y": -1.3697198157,
				"z": -1.2895383222,
				"element": "H" 
			},
			{
				"x": 1.2719870561,
				"y": -1.8887782277,
				"z": 0.8793856012,
				"element": "H" 
			}
		],
		 "valence_orbital": [ 
			{
				"type": "occ",
				"energy": -0.32755,
				"method": "rhf"
			},
			{
				"type": "occ",
				"energy": -0.31483,
				"method": "rhf"
			},
			{
				"type": "occ",
				"energy": -0.30795,
				"method": "rhf"
			},
			{
				"type": "occ",
				"energy": -0.28181,
				"method": "rhf"
			},
			{
				"type": "occ",
				"energy": -0.26927,
				"method": "rhf"
			},
			{
				"type": "unocc",
				"energy": -0.07781,
				"method": "rhf"
			},
			{
				"type": "unocc",
				"energy": -0.04408,
				"method": "rhf"
			},
			{
				"type": "unocc",
				"energy": -0.02962,
				"method": "rhf"
			},
			{
				"type": "unocc",
				"energy": -0.01225,
				"method": "rhf"
			},
			{
				"type": "unocc",
				"energy": 0.02443,
				"method": "rhf"
			}
		],
		"cosmo_sigma_profile": { 
			"-0.025": 0.0,
			"-0.024": 0.0,
			"-0.023": 0.0,
			"-0.022": 0.0,
			"-0.021": 0.0,
			"-0.02": 0.0,
			"-0.019": 0.0,
			"-0.018": 0.0,
			"-0.017": 0.0,
			"-0.016": 0.0,
			"-0.015": 0.0,
			"-0.014": 0.0,
			"-0.013": 0.0,
			"-0.012": 0.0,
			"-0.011": 0.0,
			"-0.01": 0.0,
			"-0.009": 2.08988463819,
			"-0.008": 7.31931410261,
			"-0.007": 8.11011424573,
			"-0.006": 5.45935844524,
			"-0.005": 5.29210144419,
			"-0.004": 7.40916868428,
			"-0.003": 9.91878706448,
			"-0.002": 14.9185483529,
			"-0.001": 22.8311730027,
			"0.0": 22.5393789331,
			"0.001": 20.9714551314,
			"0.002": 18.6605937199,
			"0.003": 24.180591679,
			"0.004": 18.5045800797,
			"0.005": 4.19862627956,
			"0.006": 2.23417698775,
			"0.007": 3.86644146904,
			"0.008": 4.21026741991,
			"0.009": 0.570527261271,
			"0.01": 0.0,
			"0.011": 0.0,
			"0.012": 0.0,
			"0.013": 0.0,
			"0.014": 0.0,
			"0.015": 0.0,
			"0.016": 0.0,
			"0.017": 0.0,
			"0.018": 0.0,
			"0.019": 0.0,
			"0.02": 0.0,
			"0.021": 0.0,
			"0.022": 0.0,
			"0.023": 0.0,
			"0.024": 0.0,
			"0.025": 0.0
		}
	}
}
