{
	 "smiles": "CC(=O)N1C=C(C=O)C2=C1C=CC=C2", 
	 "Tm": 435.15, 
	 "num_atms": 23, 
	 "gaussian": { 
		 "optdone": 1, 
		 "sigma_profile": "yes", 
		 "theory": "DFT", 
		 "functional": "B3LYP", 
		 "basiset": "6-31G**", 
		 "properties": { 
			 "R2extent": 3348.5136, 
			 "electric_dipole_moment_norm": 4.06166315689, 
			 "electric_quadrupole_moment_norm": 8.30015926715, 
			 "total_energy": -629.79986814, 
			 "HOMO_LUMO_gap": 0.16805, 
			 "cosmo_polarized_energy": -12.57, 
			 "cosmo_cavitation_energy": 27.34, 
			 "cosmo_dispersion_energy": -19.94, 
			 "cosmo_repulsion_energy": 1.52, 
			 "cosmo_total_nonelectrostatic_energy": 8.92, 
			 "SMD_solvation_energy": 6.65 
		},
		"coords": [
			{
				"x": 2.7970977153,
				"y": 0.7747138067,
				"z": 0.8786568768,
				"element": "C" 
			},
			{
				"x": 1.7878293853,
				"y": 0.888700036,
				"z": 1.9940994003,
				"element": "C" 
			},
			{
				"x": 2.0992731938,
				"y": 1.1822248284,
				"z": 3.1314084555,
				"element": "O" 
			},
			{
				"x": 0.4233767005,
				"y": 0.6411736336,
				"z": 1.6913699826,
				"element": "N" 
			},
			{
				"x": -0.5317632082,
				"y": 0.737562915,
				"z": 2.6956550194,
				"element": "C" 
			},
			{
				"x": -1.7762492216,
				"y": 0.4625672733,
				"z": 2.1987530132,
				"element": "C" 
			},
			{
				"x": -3.0061278693,
				"y": 0.4735088503,
				"z": 2.9822942101,
				"element": "C" 
			},
			{
				"x": -4.1146441091,
				"y": 0.2280795741,
				"z": 2.5334657465,
				"element": "O" 
			},
			{
				"x": -1.6174132809,
				"y": 0.1703375055,
				"z": 0.7864948355,
				"element": "C" 
			},
			{
				"x": -0.2379769965,
				"y": 0.2859556563,
				"z": 0.4843071412,
				"element": "C" 
			},
			{
				"x": 0.2334928581,
				"y": 0.0607782745,
				"z": -0.8126656077,
				"element": "C" 
			},
			{
				"x": -0.6994429459,
				"y": -0.280066956,
				"z": -1.792341167,
				"element": "C" 
			},
			{
				"x": -2.0667147559,
				"y": -0.3962955298,
				"z": -1.4997948273,
				"element": "C" 
			},
			{
				"x": -2.5378739897,
				"y": -0.1726056599,
				"z": -0.2100207109,
				"element": "C" 
			},
			{
				"x": 3.7765336685,
				"y": 0.9975297689,
				"z": 1.3004340363,
				"element": "H" 
			},
			{
				"x": 2.5779836564,
				"y": 1.4823092416,
				"z": 0.0735169842,
				"element": "H" 
			},
			{
				"x": 2.8045263971,
				"y": -0.2334421495,
				"z": 0.4537795529,
				"element": "H" 
			},
			{
				"x": -0.2114109553,
				"y": 1.0009929555,
				"z": 3.6921267126,
				"element": "H" 
			},
			{
				"x": -2.8702413204,
				"y": 0.7306774983,
				"z": 4.0557403992,
				"element": "H" 
			},
			{
				"x": 1.2777643164,
				"y": 0.1400043384,
				"z": -1.0792280585,
				"element": "H" 
			},
			{
				"x": -0.3511218756,
				"y": -0.4585836215,
				"z": -2.8052445072,
				"element": "H" 
			},
			{
				"x": -2.7618465381,
				"y": -0.6636148803,
				"z": -2.2898382182,
				"element": "H" 
			},
			{
				"x": -3.5883508251,
				"y": -0.2557073596,
				"z": 0.0426307308,
				"element": "H" 
			}
		],
		 "valence_orbital": [ 
			{
				"type": "occ",
				"energy": -0.29323,
				"method": "rhf"
			},
			{
				"type": "occ",
				"energy": -0.28853,
				"method": "rhf"
			},
			{
				"type": "occ",
				"energy": -0.25225,
				"method": "rhf"
			},
			{
				"type": "occ",
				"energy": -0.24679,
				"method": "rhf"
			},
			{
				"type": "occ",
				"energy": -0.23362,
				"method": "rhf"
			},
			{
				"type": "unocc",
				"energy": -0.06557,
				"method": "rhf"
			},
			{
				"type": "unocc",
				"energy": -0.02502,
				"method": "rhf"
			},
			{
				"type": "unocc",
				"energy": -0.01774,
				"method": "rhf"
			},
			{
				"type": "unocc",
				"energy": 0.02874,
				"method": "rhf"
			},
			{
				"type": "unocc",
				"energy": 0.08101,
				"method": "rhf"
			}
		],
		"cosmo_sigma_profile": { 
			"-0.025": 0.0,
			"-0.024": 0.0,
			"-0.023": 0.0,
			"-0.022": 0.0,
			"-0.021": 0.0,
			"-0.02": 0.0,
			"-0.019": 0.0,
			"-0.018": 0.0,
			"-0.017": 0.0,
			"-0.016": 0.0,
			"-0.015": 0.0,
			"-0.014": 0.0,
			"-0.013": 0.0,
			"-0.012": 0.0,
			"-0.011": 0.0,
			"-0.01": 0.290845290412,
			"-0.009": 1.77175741033,
			"-0.008": 6.18763461522,
			"-0.007": 12.0038783409,
			"-0.006": 14.4975511287,
			"-0.005": 15.4046406852,
			"-0.004": 16.0214157323,
			"-0.003": 17.4020751585,
			"-0.002": 17.6530671348,
			"-0.001": 13.3343030925,
			"0.0": 11.6912479848,
			"0.001": 13.3938384984,
			"0.002": 12.3927351506,
			"0.003": 13.2767686286,
			"0.004": 12.6502909198,
			"0.005": 10.9131595935,
			"0.006": 2.70274417908,
			"0.007": 3.32371476887,
			"0.008": 3.15222081957,
			"0.009": 4.07165497683,
			"0.01": 5.20713306991,
			"0.011": 6.63257636834,
			"0.012": 4.11400165106,
			"0.013": 1.59561146937,
			"0.014": 0.0897222264893,
			"0.015": 0.0,
			"0.016": 0.0,
			"0.017": 0.0,
			"0.018": 0.0,
			"0.019": 0.0,
			"0.02": 0.0,
			"0.021": 0.0,
			"0.022": 0.0,
			"0.023": 0.0,
			"0.024": 0.0,
			"0.025": 0.0
		}
	}
}
