{
	 "smiles": "CC(C)C1CCC(C)=CCCC(C)=CCC=C(C)C=C1", 
	 "Tm": 333.15, 
	 "num_atms": 52, 
	 "gaussian": { 
		 "optdone": 1, 
		 "sigma_profile": "yes", 
		 "theory": "DFT", 
		 "functional": "B3LYP", 
		 "basiset": "6-31G**", 
		 "properties": { 
			 "R2extent": 5999.8148, 
			 "electric_dipole_moment_norm": 0.684618974321, 
			 "electric_quadrupole_moment_norm": 1.65550254002, 
			 "total_energy": -781.352926752, 
			 "HOMO_LUMO_gap": 0.22449, 
			 "cosmo_polarized_energy": -3.69, 
			 "cosmo_cavitation_energy": 46.42, 
			 "cosmo_dispersion_energy": -30.21, 
			 "cosmo_repulsion_energy": 2.31, 
			 "cosmo_total_nonelectrostatic_energy": 18.53, 
			 "SMD_solvation_energy": 7.29 
		},
		"coords": [
			{
				"x": -2.2155068409,
				"y": 2.4979231805,
				"z": 0.9118933272,
				"element": "C" 
			},
			{
				"x": -1.21559374,
				"y": 1.5839893384,
				"z": 1.6361482302,
				"element": "C" 
			},
			{
				"x": -1.7475646569,
				"y": 1.21173402,
				"z": 3.0303120393,
				"element": "C" 
			},
			{
				"x": -0.8316608402,
				"y": 0.3570628223,
				"z": 0.7500355322,
				"element": "C" 
			},
			{
				"x": 0.4071055264,
				"y": -0.4159471512,
				"z": 1.2684790042,
				"element": "C" 
			},
			{
				"x": 1.7840390514,
				"y": 0.285174295,
				"z": 1.1558885214,
				"element": "C" 
			},
			{
				"x": 2.1490209116,
				"y": 0.8466177302,
				"z": -0.21169063,
				"element": "C" 
			},
			{
				"x": 2.0183678869,
				"y": 2.352366553,
				"z": -0.3231219966,
				"element": "C" 
			},
			{
				"x": 2.5819876321,
				"y": 0.1574977978,
				"z": -1.2830507438,
				"element": "C" 
			},
			{
				"x": 2.9234744615,
				"y": -1.2980043392,
				"z": -1.5443033387,
				"element": "C" 
			},
			{
				"x": 2.2882953064,
				"y": -2.4764864589,
				"z": -0.7792751594,
				"element": "C" 
			},
			{
				"x": 0.8851327256,
				"y": -2.989525333,
				"z": -1.0830341655,
				"element": "C" 
			},
			{
				"x": 0.639941239,
				"y": -4.3318374555,
				"z": -0.420149376,
				"element": "C" 
			},
			{
				"x": -0.1025045902,
				"y": -2.4422366858,
				"z": -1.8119165886,
				"element": "C" 
			},
			{
				"x": -0.1461493955,
				"y": -1.1522075729,
				"z": -2.5938368572,
				"element": "C" 
			},
			{
				"x": -1.5004026658,
				"y": -0.487625549,
				"z": -2.7308988239,
				"element": "C" 
			},
			{
				"x": -2.5394895398,
				"y": -0.4041343154,
				"z": -1.8797552702,
				"element": "C" 
			},
			{
				"x": -3.8204075737,
				"y": 0.2785807987,
				"z": -2.3242255333,
				"element": "C" 
			},
			{
				"x": -2.6364965376,
				"y": -0.9709129217,
				"z": -0.5096591788,
				"element": "C" 
			},
			{
				"x": -1.9657572041,
				"y": -0.6294479657,
				"z": 0.6011319218,
				"element": "C" 
			},
			{
				"x": -1.8242838979,
				"y": 2.8330965477,
				"z": -0.0551712215,
				"element": "H" 
			},
			{
				"x": -2.4416971133,
				"y": 3.3879231394,
				"z": 1.5095797987,
				"element": "H" 
			},
			{
				"x": -3.1582897403,
				"y": 1.9721669516,
				"z": 0.7240959518,
				"element": "H" 
			},
			{
				"x": -0.2924789995,
				"y": 2.1610726493,
				"z": 1.7856293811,
				"element": "H" 
			},
			{
				"x": -1.8920237495,
				"y": 2.1139789051,
				"z": 3.6344255892,
				"element": "H" 
			},
			{
				"x": -1.0614933532,
				"y": 0.5582617263,
				"z": 3.5788297847,
				"element": "H" 
			},
			{
				"x": -2.7160550428,
				"y": 0.70391116,
				"z": 2.9668184006,
				"element": "H" 
			},
			{
				"x": -0.5919372954,
				"y": 0.7450270063,
				"z": -0.2466709373,
				"element": "H" 
			},
			{
				"x": 0.4481470402,
				"y": -1.3518870503,
				"z": 0.7109594871,
				"element": "H" 
			},
			{
				"x": 0.2538121319,
				"y": -0.6950551586,
				"z": 2.3193585352,
				"element": "H" 
			},
			{
				"x": 1.8324254748,
				"y": 1.1058130906,
				"z": 1.8819435965,
				"element": "H" 
			},
			{
				"x": 2.5450336791,
				"y": -0.4350077081,
				"z": 1.4796150855,
				"element": "H" 
			},
			{
				"x": 2.2821933753,
				"y": 2.7162819287,
				"z": -1.3200879477,
				"element": "H" 
			},
			{
				"x": 0.9969950785,
				"y": 2.6858818945,
				"z": -0.1018353541,
				"element": "H" 
			},
			{
				"x": 2.6706547208,
				"y": 2.8540039014,
				"z": 0.4044985425,
				"element": "H" 
			},
			{
				"x": 2.8099423015,
				"y": 0.7707210175,
				"z": -2.1570141528,
				"element": "H" 
			},
			{
				"x": 4.011847817,
				"y": -1.3893767565,
				"z": -1.4003038697,
				"element": "H" 
			},
			{
				"x": 2.7780066224,
				"y": -1.4755689659,
				"z": -2.6172192406,
				"element": "H" 
			},
			{
				"x": 2.3628656109,
				"y": -2.3083902561,
				"z": 0.3032600168,
				"element": "H" 
			},
			{
				"x": 2.9556414501,
				"y": -3.333480454,
				"z": -0.9547360441,
				"element": "H" 
			},
			{
				"x": 0.7892340367,
				"y": -4.2692090106,
				"z": 0.6665348397,
				"element": "H" 
			},
			{
				"x": -0.3755203837,
				"y": -4.6948692609,
				"z": -0.5977972758,
				"element": "H" 
			},
			{
				"x": 1.3425655176,
				"y": -5.0932717074,
				"z": -0.7850956473,
				"element": "H" 
			},
			{
				"x": -1.0174689764,
				"y": -3.0286437534,
				"z": -1.8917925533,
				"element": "H" 
			},
			{
				"x": 0.2013667469,
				"y": -1.3575013399,
				"z": -3.6181812099,
				"element": "H" 
			},
			{
				"x": 0.5661913122,
				"y": -0.42510924,
				"z": -2.1895190933,
				"element": "H" 
			},
			{
				"x": -1.6406644149,
				"y": 0.0076051043,
				"z": -3.6923492326,
				"element": "H" 
			},
			{
				"x": -3.7577918801,
				"y": 0.6267857994,
				"z": -3.3592401649,
				"element": "H" 
			},
			{
				"x": -4.6758851898,
				"y": -0.4057590424,
				"z": -2.2478205124,
				"element": "H" 
			},
			{
				"x": -4.0526586815,
				"y": 1.1382461605,
				"z": -1.6835869033,
				"element": "H" 
			},
			{
				"x": -3.4494931519,
				"y": -1.6912435676,
				"z": -0.3866772106,
				"element": "H" 
			},
			{
				"x": -2.2506122018,
				"y": -1.1461844982,
				"z": 1.5185786473,
				"element": "H" 
			}
		],
		 "valence_orbital": [ 
			{
				"type": "occ",
				"energy": -0.29549,
				"method": "rhf"
			},
			{
				"type": "occ",
				"energy": -0.25812,
				"method": "rhf"
			},
			{
				"type": "occ",
				"energy": -0.22714,
				"method": "rhf"
			},
			{
				"type": "occ",
				"energy": -0.21859,
				"method": "rhf"
			},
			{
				"type": "occ",
				"energy": -0.21574,
				"method": "rhf"
			},
			{
				"type": "unocc",
				"energy": 0.00875,
				"method": "rhf"
			},
			{
				"type": "unocc",
				"energy": 0.02175,
				"method": "rhf"
			},
			{
				"type": "unocc",
				"energy": 0.03359,
				"method": "rhf"
			},
			{
				"type": "unocc",
				"energy": 0.05667,
				"method": "rhf"
			},
			{
				"type": "unocc",
				"energy": 0.07857,
				"method": "rhf"
			}
		],
		"cosmo_sigma_profile": { 
			"-0.025": 0.0,
			"-0.024": 0.0,
			"-0.023": 0.0,
			"-0.022": 0.0,
			"-0.021": 0.0,
			"-0.02": 0.0,
			"-0.019": 0.0,
			"-0.018": 0.0,
			"-0.017": 0.0,
			"-0.016": 0.0,
			"-0.015": 0.0,
			"-0.014": 0.0,
			"-0.013": 0.0,
			"-0.012": 0.0,
			"-0.011": 0.0,
			"-0.01": 0.0,
			"-0.009": 0.0,
			"-0.008": 0.0,
			"-0.007": 0.0,
			"-0.006": 0.0,
			"-0.005": 0.0,
			"-0.004": 4.78807923086,
			"-0.003": 39.1075637609,
			"-0.002": 62.8430753818,
			"-0.001": 59.8469533334,
			"0.0": 58.2768021034,
			"0.001": 55.814154311,
			"0.002": 33.8691217277,
			"0.003": 16.3865323653,
			"0.004": 9.77220736612,
			"0.005": 7.76012021032,
			"0.006": 6.03443792171,
			"0.007": 2.5636088939,
			"0.008": 0.658282327554,
			"0.009": 0.674784110101,
			"0.01": 0.0,
			"0.011": 0.0,
			"0.012": 0.0,
			"0.013": 0.0,
			"0.014": 0.0,
			"0.015": 0.0,
			"0.016": 0.0,
			"0.017": 0.0,
			"0.018": 0.0,
			"0.019": 0.0,
			"0.02": 0.0,
			"0.021": 0.0,
			"0.022": 0.0,
			"0.023": 0.0,
			"0.024": 0.0,
			"0.025": 0.0
		}
	}
}
