{
	 "smiles": "CCOC(=O)CN=C(C1=CC=CC=C1)C1=CC=CC=C1", 
	 "Tm": 326.15, 
	 "num_atms": 37, 
	 "gaussian": { 
		 "optdone": 1, 
		 "sigma_profile": "yes", 
		 "theory": "DFT", 
		 "functional": "B3LYP", 
		 "basiset": "6-31G**", 
		 "properties": { 
			 "R2extent": 7137.1788, 
			 "electric_dipole_moment_norm": 1.61631206764, 
			 "electric_quadrupole_moment_norm": 13.6282307025, 
			 "total_energy": -863.256766211, 
			 "HOMO_LUMO_gap": 0.19008, 
			 "cosmo_polarized_energy": -10.93, 
			 "cosmo_cavitation_energy": 40.86, 
			 "cosmo_dispersion_energy": -28.43, 
			 "cosmo_repulsion_energy": 2.24, 
			 "cosmo_total_nonelectrostatic_energy": 14.68, 
			 "SMD_solvation_energy": 5.93 
		},
		"coords": [
			{
				"x": -0.358644251,
				"y": -1.0549607849,
				"z": 6.0009918912,
				"element": "C" 
			},
			{
				"x": 0.8086840321,
				"y": -0.2501720452,
				"z": 5.4503706044,
				"element": "C" 
			},
			{
				"x": 0.3630556553,
				"y": 0.7125012351,
				"z": 4.4623500355,
				"element": "O" 
			},
			{
				"x": 0.2445832172,
				"y": 0.2654267133,
				"z": 3.1954462414,
				"element": "C" 
			},
			{
				"x": 0.4703718321,
				"y": -0.8749444162,
				"z": 2.8493717469,
				"element": "O" 
			},
			{
				"x": -0.153139437,
				"y": 1.4017752709,
				"z": 2.2578322455,
				"element": "C" 
			},
			{
				"x": -1.0868520879,
				"y": 0.9436798938,
				"z": 1.2522914059,
				"element": "N" 
			},
			{
				"x": -0.7291341221,
				"y": 0.7532923975,
				"z": 0.0340917819,
				"element": "C" 
			},
			{
				"x": -1.7883399448,
				"y": 0.3313281594,
				"z": -0.9337721721,
				"element": "C" 
			},
			{
				"x": -3.1431977292,
				"y": 0.4283990036,
				"z": -0.5697233929,
				"element": "C" 
			},
			{
				"x": -4.1436058705,
				"y": 0.0274223182,
				"z": -1.4486836089,
				"element": "C" 
			},
			{
				"x": -3.8119879462,
				"y": -0.4844195217,
				"z": -2.7077288604,
				"element": "C" 
			},
			{
				"x": -2.4716936396,
				"y": -0.5918394298,
				"z": -3.0774152568,
				"element": "C" 
			},
			{
				"x": -1.4662087757,
				"y": -0.1849739491,
				"z": -2.1986832809,
				"element": "C" 
			},
			{
				"x": 0.6659399788,
				"y": 0.9403651053,
				"z": -0.4964523404,
				"element": "C" 
			},
			{
				"x": 1.718357212,
				"y": 0.1232923696,
				"z": -0.0560426821,
				"element": "C" 
			},
			{
				"x": 3.0096047812,
				"y": 0.3123889702,
				"z": -0.5528784772,
				"element": "C" 
			},
			{
				"x": 3.2663327486,
				"y": 1.320143025,
				"z": -1.4838827254,
				"element": "C" 
			},
			{
				"x": 2.2239868842,
				"y": 2.1393273888,
				"z": -1.9242468455,
				"element": "C" 
			},
			{
				"x": 0.9303324278,
				"y": 1.9453382184,
				"z": -1.440611597,
				"element": "C" 
			},
			{
				"x": -0.8066404175,
				"y": -1.6674362059,
				"z": 5.2149795306,
				"element": "H" 
			},
			{
				"x": -1.125270299,
				"y": -0.3945606839,
				"z": 6.4166572543,
				"element": "H" 
			},
			{
				"x": -0.0079485813,
				"y": -1.7194821952,
				"z": 6.7977592884,
				"element": "H" 
			},
			{
				"x": 1.2795445395,
				"y": 0.3577607127,
				"z": 6.2266153231,
				"element": "H" 
			},
			{
				"x": 1.5571735834,
				"y": -0.9024455304,
				"z": 4.9939982444,
				"element": "H" 
			},
			{
				"x": 0.7861445106,
				"y": 1.8157328787,
				"z": 1.8578035804,
				"element": "H" 
			},
			{
				"x": -0.634927977,
				"y": 2.1811688231,
				"z": 2.8556676875,
				"element": "H" 
			},
			{
				"x": -3.3838216336,
				"y": 0.8207509821,
				"z": 0.4118982596,
				"element": "H" 
			},
			{
				"x": -5.1860150956,
				"y": 0.1142180251,
				"z": -1.1549140698,
				"element": "H" 
			},
			{
				"x": -4.5945312407,
				"y": -0.7972025593,
				"z": -3.393402516,
				"element": "H" 
			},
			{
				"x": -2.2045645782,
				"y": -0.9947644721,
				"z": -4.0502195328,
				"element": "H" 
			},
			{
				"x": -0.4268816656,
				"y": -0.2792117551,
				"z": -2.4937796433,
				"element": "H" 
			},
			{
				"x": 1.5149667561,
				"y": -0.6527531239,
				"z": 0.6753834233,
				"element": "H" 
			},
			{
				"x": 3.8156778466,
				"y": -0.33011206,
				"z": -0.2098488198,
				"element": "H" 
			},
			{
				"x": 4.2725443967,
				"y": 1.4664465451,
				"z": -1.8662857195,
				"element": "H" 
			},
			{
				"x": 2.4170512809,
				"y": 2.9263882465,
				"z": -2.6477162323,
				"element": "H" 
			},
			{
				"x": 0.1187536094,
				"y": 2.5759324502,
				"z": -1.7926207713,
				"element": "H" 
			}
		],
		 "valence_orbital": [ 
			{
				"type": "occ",
				"energy": -0.25617,
				"method": "rhf"
			},
			{
				"type": "occ",
				"energy": -0.25254,
				"method": "rhf"
			},
			{
				"type": "occ",
				"energy": -0.24642,
				"method": "rhf"
			},
			{
				"type": "occ",
				"energy": -0.24382,
				"method": "rhf"
			},
			{
				"type": "occ",
				"energy": -0.23284,
				"method": "rhf"
			},
			{
				"type": "unocc",
				"energy": -0.04276,
				"method": "rhf"
			},
			{
				"type": "unocc",
				"energy": -0.00908,
				"method": "rhf"
			},
			{
				"type": "unocc",
				"energy": -0.00731,
				"method": "rhf"
			},
			{
				"type": "unocc",
				"energy": 0.00689,
				"method": "rhf"
			},
			{
				"type": "unocc",
				"energy": 0.01432,
				"method": "rhf"
			}
		],
		"cosmo_sigma_profile": { 
			"-0.025": 0.0,
			"-0.024": 0.0,
			"-0.023": 0.0,
			"-0.022": 0.0,
			"-0.021": 0.0,
			"-0.02": 0.0,
			"-0.019": 0.0,
			"-0.018": 0.0,
			"-0.017": 0.0,
			"-0.016": 0.0,
			"-0.015": 0.0,
			"-0.014": 0.0,
			"-0.013": 0.0,
			"-0.012": 0.0,
			"-0.011": 0.0,
			"-0.01": 0.0,
			"-0.009": 0.0,
			"-0.008": 0.0,
			"-0.007": 0.385126659154,
			"-0.006": 15.0973656378,
			"-0.005": 24.3117431823,
			"-0.004": 34.3412377923,
			"-0.003": 34.5601602016,
			"-0.002": 28.9091021579,
			"-0.001": 29.0091069465,
			"0.0": 27.4618734924,
			"0.001": 21.2724496014,
			"0.002": 20.6189836451,
			"0.003": 19.7179981919,
			"0.004": 22.2986933829,
			"0.005": 21.2165849066,
			"0.006": 4.88082550528,
			"0.007": 4.28451489794,
			"0.008": 4.73961478037,
			"0.009": 3.3540001914,
			"0.01": 3.53829896366,
			"0.011": 3.98824273222,
			"0.012": 1.64897966804,
			"0.013": 0.0505014812546,
			"0.014": 0.0,
			"0.015": 0.0,
			"0.016": 0.0,
			"0.017": 0.0,
			"0.018": 0.0,
			"0.019": 0.0,
			"0.02": 0.0,
			"0.021": 0.0,
			"0.022": 0.0,
			"0.023": 0.0,
			"0.024": 0.0,
			"0.025": 0.0
		}
	}
}
