{
	 "smiles": "COC1=C(OC)C=C(C=C2CCCC3=C2N=C2C=CC=CC2=C3C(O)=O)C=C1", 
	 "Tm": 385.15, 
	 "num_atms": 49, 
	 "gaussian": { 
		 "optdone": 1, 
		 "sigma_profile": "yes", 
		 "theory": "DFT", 
		 "functional": "B3LYP", 
		 "basiset": "6-31G**", 
		 "properties": { 
			 "R2extent": 12120.558, 
			 "electric_dipole_moment_norm": 2.49796336442, 
			 "electric_quadrupole_moment_norm": 30.6220233135, 
			 "total_energy": -1244.73037675, 
			 "HOMO_LUMO_gap": 0.12012, 
			 "cosmo_polarized_energy": -19.8, 
			 "cosmo_cavitation_energy": 51.36, 
			 "cosmo_dispersion_energy": -34.51, 
			 "cosmo_repulsion_energy": 2.6, 
			 "cosmo_total_nonelectrostatic_energy": 19.44, 
			 "SMD_solvation_energy": 9.33 
		},
		"coords": [
			{
				"x": -1.1630306226,
				"y": -5.1045156908,
				"z": -1.573462737,
				"element": "C" 
			},
			{
				"x": -0.8526099926,
				"y": -4.2062022304,
				"z": -2.6413815075,
				"element": "O" 
			},
			{
				"x": -0.8401548449,
				"y": -2.8707343126,
				"z": -2.3291283261,
				"element": "C" 
			},
			{
				"x": 0.1255976149,
				"y": -2.3113024201,
				"z": -1.4571216277,
				"element": "C" 
			},
			{
				"x": 1.0252289799,
				"y": -3.1925356963,
				"z": -0.9212119491,
				"element": "O" 
			},
			{
				"x": 2.0296844301,
				"y": -2.6834159447,
				"z": -0.0584008902,
				"element": "C" 
			},
			{
				"x": 0.1263371842,
				"y": -0.9411357661,
				"z": -1.2105749696,
				"element": "C" 
			},
			{
				"x": -0.8098920207,
				"y": -0.086722089,
				"z": -1.8272560679,
				"element": "C" 
			},
			{
				"x": -0.8241690979,
				"y": 1.3763832706,
				"z": -1.6809517484,
				"element": "C" 
			},
			{
				"x": -0.4360852912,
				"y": 2.2519129981,
				"z": -0.7193375484,
				"element": "C" 
			},
			{
				"x": -0.4640293794,
				"y": 3.7353259396,
				"z": -1.0348300961,
				"element": "C" 
			},
			{
				"x": 0.9073628988,
				"y": 4.3448485078,
				"z": -0.7204404576,
				"element": "C" 
			},
			{
				"x": 1.1973603088,
				"y": 4.2361952126,
				"z": 0.7788119654,
				"element": "C" 
			},
			{
				"x": 0.8242730813,
				"y": 2.893120974,
				"z": 1.3856664599,
				"element": "C" 
			},
			{
				"x": 0.0271263062,
				"y": 1.9346689406,
				"z": 0.6550019937,
				"element": "C" 
			},
			{
				"x": -0.3588490762,
				"y": 0.7843363255,
				"z": 1.1875964692,
				"element": "N" 
			},
			{
				"x": 0.0036107291,
				"y": 0.4631903137,
				"z": 2.4518474961,
				"element": "C" 
			},
			{
				"x": -0.4534364277,
				"y": -0.7762192227,
				"z": 2.980690511,
				"element": "C" 
			},
			{
				"x": -0.124320188,
				"y": -1.1533091842,
				"z": 4.2621495733,
				"element": "C" 
			},
			{
				"x": 0.6659600235,
				"y": -0.302009502,
				"z": 5.072054802,
				"element": "C" 
			},
			{
				"x": 1.1253162253,
				"y": 0.9047088955,
				"z": 4.5889340749,
				"element": "C" 
			},
			{
				"x": 0.8171849434,
				"y": 1.3174041613,
				"z": 3.2616006892,
				"element": "C" 
			},
			{
				"x": 1.2270338873,
				"y": 2.5539634327,
				"z": 2.6702147203,
				"element": "C" 
			},
			{
				"x": 2.0809579232,
				"y": 3.5184435714,
				"z": 3.4557396763,
				"element": "C" 
			},
			{
				"x": 3.235272154,
				"y": 3.0043323156,
				"z": 3.9621218824,
				"element": "O" 
			},
			{
				"x": 1.8075648557,
				"y": 4.6786621257,
				"z": 3.639665578,
				"element": "O" 
			},
			{
				"x": -1.7276904001,
				"y": -0.6524062934,
				"z": -2.726429568,
				"element": "C" 
			},
			{
				"x": -1.7527636767,
				"y": -2.0274730831,
				"z": -2.9545519319,
				"element": "C" 
			},
			{
				"x": -2.151669337,
				"y": -4.8817578866,
				"z": -1.1509394863,
				"element": "H" 
			},
			{
				"x": -1.1791926641,
				"y": -6.1035412828,
				"z": -2.0142503504,
				"element": "H" 
			},
			{
				"x": -0.4097948316,
				"y": -5.0653688575,
				"z": -0.7818186804,
				"element": "H" 
			},
			{
				"x": 1.5982863964,
				"y": -2.209951947,
				"z": 0.8327576714,
				"element": "H" 
			},
			{
				"x": 2.6294950149,
				"y": -3.5435986309,
				"z": 0.243745299,
				"element": "H" 
			},
			{
				"x": 2.6737223491,
				"y": -1.9586839443,
				"z": -0.5729958937,
				"element": "H" 
			},
			{
				"x": 0.8625712911,
				"y": -0.5165434327,
				"z": -0.5450348664,
				"element": "H" 
			},
			{
				"x": -1.2273165954,
				"y": 1.8596155757,
				"z": -2.5717393295,
				"element": "H" 
			},
			{
				"x": -0.7321648461,
				"y": 3.8941693263,
				"z": -2.0831983561,
				"element": "H" 
			},
			{
				"x": -1.2266246735,
				"y": 4.2445231588,
				"z": -0.4260601067,
				"element": "H" 
			},
			{
				"x": 0.946197953,
				"y": 5.397343257,
				"z": -1.021554159,
				"element": "H" 
			},
			{
				"x": 1.674789577,
				"y": 3.8166690261,
				"z": -1.2998723143,
				"element": "H" 
			},
			{
				"x": 2.249167121,
				"y": 4.4629652277,
				"z": 0.9830767141,
				"element": "H" 
			},
			{
				"x": 0.6325330716,
				"y": 5.0064910899,
				"z": 1.3178567135,
				"element": "H" 
			},
			{
				"x": -1.0720555048,
				"y": -1.3931204358,
				"z": 2.337223338,
				"element": "H" 
			},
			{
				"x": -0.4784541294,
				"y": -2.0988360026,
				"z": 4.6619854084,
				"element": "H" 
			},
			{
				"x": 0.9050355289,
				"y": -0.5981644157,
				"z": 6.0891146341,
				"element": "H" 
			},
			{
				"x": 1.7088231533,
				"y": 1.5514932289,
				"z": 5.2360648383,
				"element": "H" 
			},
			{
				"x": 3.3258988449,
				"y": 2.0777498054,
				"z": 3.6941156098,
				"element": "H" 
			},
			{
				"x": -2.4398016147,
				"y": -0.0112511548,
				"z": -3.2382573413,
				"element": "H" 
			},
			{
				"x": -2.4700866325,
				"y": -2.4722172544,
				"z": -3.6368358087,
				"element": "H" 
			}
		],
		 "valence_orbital": [ 
			{
				"type": "occ",
				"energy": -0.26014,
				"method": "rhf"
			},
			{
				"type": "occ",
				"energy": -0.24869,
				"method": "rhf"
			},
			{
				"type": "occ",
				"energy": -0.24288,
				"method": "rhf"
			},
			{
				"type": "occ",
				"energy": -0.2244,
				"method": "rhf"
			},
			{
				"type": "occ",
				"energy": -0.19947,
				"method": "rhf"
			},
			{
				"type": "unocc",
				"energy": -0.07935,
				"method": "rhf"
			},
			{
				"type": "unocc",
				"energy": -0.04508,
				"method": "rhf"
			},
			{
				"type": "unocc",
				"energy": -0.01596,
				"method": "rhf"
			},
			{
				"type": "unocc",
				"energy": -0.0085,
				"method": "rhf"
			},
			{
				"type": "unocc",
				"energy": 0.01426,
				"method": "rhf"
			}
		],
		"cosmo_sigma_profile": { 
			"-0.025": 0.0,
			"-0.024": 0.0,
			"-0.023": 0.0,
			"-0.022": 0.0,
			"-0.021": 0.0,
			"-0.02": 0.0,
			"-0.019": 0.0,
			"-0.018": 0.832965505,
			"-0.017": 0.718358593639,
			"-0.016": 0.609735324511,
			"-0.015": 0.870921290174,
			"-0.014": 0.966654601968,
			"-0.013": 0.881309755562,
			"-0.012": 0.827231196604,
			"-0.011": 1.14007156172,
			"-0.01": 0.608393133849,
			"-0.009": 0.631263426333,
			"-0.008": 1.39856626184,
			"-0.007": 2.94474793763,
			"-0.006": 14.8223525346,
			"-0.005": 29.1043858532,
			"-0.004": 34.5894183915,
			"-0.003": 45.5212111101,
			"-0.002": 43.2108509098,
			"-0.001": 38.2980151555,
			"0.0": 30.6122509757,
			"0.001": 23.9539972803,
			"0.002": 21.8092344449,
			"0.003": 25.5817632899,
			"0.004": 22.6148273667,
			"0.005": 13.7835495849,
			"0.006": 8.79187881986,
			"0.007": 6.73498142077,
			"0.008": 6.09638685674,
			"0.009": 8.00549283937,
			"0.01": 8.51271329382,
			"0.011": 8.30231467961,
			"0.012": 4.03143359857,
			"0.013": 1.21365383322,
			"0.014": 0.41822819312,
			"0.015": 0.0,
			"0.016": 0.0,
			"0.017": 0.0,
			"0.018": 0.0,
			"0.019": 0.0,
			"0.02": 0.0,
			"0.021": 0.0,
			"0.022": 0.0,
			"0.023": 0.0,
			"0.024": 0.0,
			"0.0": 0.0
		}
	}
}
