{
	 "smiles": "FC(F)(F)C1=C(NNC2=CC=C(Cl)C=C2)C(=O)N=C2C=CC=CC2=N1", 
	 "Tm": 424.15, 
	 "num_atms": 35, 
	 "gaussian": { 
		 "optdone": 1, 
		 "sigma_profile": "yes", 
		 "theory": "DFT", 
		 "functional": "B3LYP", 
		 "basiset": "6-31G**", 
		 "properties": { 
			 "R2extent": 10463.5719, 
			 "electric_dipole_moment_norm": 2.31213710017, 
			 "electric_quadrupole_moment_norm": 24.4180758445, 
			 "total_energy": -1669.58893037, 
			 "HOMO_LUMO_gap": 0.10196, 
			 "cosmo_polarized_energy": -16.52, 
			 "cosmo_cavitation_energy": 42.98, 
			 "cosmo_dispersion_energy": -29.97, 
			 "cosmo_repulsion_energy": 2.21, 
			 "cosmo_total_nonelectrostatic_energy": 15.22, 
			 "SMD_solvation_energy": 6.16 
		},
		"coords": [
			{
				"x": -0.1771865427,
				"y": 2.4022545716,
				"z": 1.6367766595,
				"element": "F" 
			},
			{
				"x": 0.6027329298,
				"y": 1.3443639994,
				"z": 1.4235474049,
				"element": "C" 
			},
			{
				"x": 1.8642163456,
				"y": 1.6976493228,
				"z": 1.8175422121,
				"element": "F" 
			},
			{
				"x": 0.2011388421,
				"y": 0.3625463614,
				"z": 2.2659368852,
				"element": "F" 
			},
			{
				"x": 0.5828187622,
				"y": 0.9032023104,
				"z": -0.0417854971,
				"element": "C" 
			},
			{
				"x": 1.6796208631,
				"y": 0.1904989136,
				"z": -0.5825667451,
				"element": "C" 
			},
			{
				"x": 2.6749476091,
				"y": -0.4227268696,
				"z": 0.0865966976,
				"element": "N" 
			},
			{
				"x": 2.6960457745,
				"y": -0.9081107587,
				"z": 1.3830202156,
				"element": "N" 
			},
			{
				"x": 2.0171084319,
				"y": -2.1113952356,
				"z": 1.6740557566,
				"element": "C" 
			},
			{
				"x": 1.6922162255,
				"y": -3.0439337596,
				"z": 0.6815619349,
				"element": "C" 
			},
			{
				"x": 1.0796993509,
				"y": -4.2490267718,
				"z": 1.0255150175,
				"element": "C" 
			},
			{
				"x": 0.7946887928,
				"y": -4.5263171247,
				"z": 2.3599494382,
				"element": "C" 
			},
			{
				"x": 0.0216804861,
				"y": -6.0454658948,
				"z": 2.7918149776,
				"element": "Cl" 
			},
			{
				"x": 1.1152875195,
				"y": -3.6055513938,
				"z": 3.3581847356,
				"element": "C" 
			},
			{
				"x": 1.7227890101,
				"y": -2.4025298642,
				"z": 3.0143586039,
				"element": "C" 
			},
			{
				"x": 1.9686725633,
				"y": 0.1649972035,
				"z": -2.0677298533,
				"element": "C" 
			},
			{
				"x": 3.1546028315,
				"y": 0.1739869993,
				"z": -2.4002380936,
				"element": "O" 
			},
			{
				"x": 0.9584574666,
				"y": -0.0782680132,
				"z": -2.9330611544,
				"element": "N" 
			},
			{
				"x": -0.3096518464,
				"y": 0.2998938223,
				"z": -2.9128748452,
				"element": "C" 
			},
			{
				"x": -1.1034773227,
				"y": -0.0953693731,
				"z": -4.04691233,
				"element": "C" 
			},
			{
				"x": -2.3718434504,
				"y": 0.3799871045,
				"z": -4.2299381083,
				"element": "C" 
			},
			{
				"x": -2.9722028241,
				"y": 1.2628646203,
				"z": -3.2796372831,
				"element": "C" 
			},
			{
				"x": -2.2906817689,
				"y": 1.6060417706,
				"z": -2.1471193996,
				"element": "C" 
			},
			{
				"x": -0.9701704853,
				"y": 1.1014937185,
				"z": -1.8853264436,
				"element": "C" 
			},
			{
				"x": -0.5062460011,
				"y": 1.3364276809,
				"z": -0.6605699897,
				"element": "N" 
			},
			{
				"x": 3.493551442,
				"y": -0.6056871826,
				"z": -0.4917061748,
				"element": "H" 
			},
			{
				"x": 2.6269972511,
				"y": -0.176986376,
				"z": 2.0777299561,
				"element": "H" 
			},
			{
				"x": 1.9149628678,
				"y": -2.8384822169,
				"z": -0.3595169054,
				"element": "H" 
			},
			{
				"x": 0.8276967305,
				"y": -4.9688846463,
				"z": 0.254699462,
				"element": "H" 
			},
			{
				"x": 0.8854409029,
				"y": -3.8244962349,
				"z": 4.3950158468,
				"element": "H" 
			},
			{
				"x": 1.9671283596,
				"y": -1.6832164069,
				"z": 3.7909261962,
				"element": "H" 
			},
			{
				"x": -0.61950607,
				"y": -0.7359675386,
				"z": -4.7758947932,
				"element": "H" 
			},
			{
				"x": -2.9303078035,
				"y": 0.0958469746,
				"z": -5.117293024,
				"element": "H" 
			},
			{
				"x": -3.9755713705,
				"y": 1.6381342766,
				"z": -3.453683883,
				"element": "H" 
			},
			{
				"x": -2.726055873,
				"y": 2.2382260111,
				"z": -1.3806774769,
				"element": "H" 
			}
		],
		 "valence_orbital": [ 
			{
				"type": "occ",
				"energy": -0.27161,
				"method": "rhf"
			},
			{
				"type": "occ",
				"energy": -0.27069,
				"method": "rhf"
			},
			{
				"type": "occ",
				"energy": -0.26091,
				"method": "rhf"
			},
			{
				"type": "occ",
				"energy": -0.23159,
				"method": "rhf"
			},
			{
				"type": "occ",
				"energy": -0.22312,
				"method": "rhf"
			},
			{
				"type": "unocc",
				"energy": -0.12116,
				"method": "rhf"
			},
			{
				"type": "unocc",
				"energy": -0.0687,
				"method": "rhf"
			},
			{
				"type": "unocc",
				"energy": -0.0216,
				"method": "rhf"
			},
			{
				"type": "unocc",
				"energy": -0.01673,
				"method": "rhf"
			},
			{
				"type": "unocc",
				"energy": -0.00841,
				"method": "rhf"
			}
		],
		"cosmo_sigma_profile": { 
			"-0.025": 0.0,
			"-0.024": 0.0,
			"-0.023": 0.0,
			"-0.022": 0.0,
			"-0.021": 0.0,
			"-0.02": 0.0,
			"-0.019": 0.0,
			"-0.018": 0.0,
			"-0.017": 0.0,
			"-0.016": 0.0,
			"-0.015": 0.116115510919,
			"-0.014": 0.460651954748,
			"-0.013": 1.4267661631,
			"-0.012": 1.34679380277,
			"-0.011": 2.06025933787,
			"-0.01": 2.00795422256,
			"-0.009": 2.7310221538,
			"-0.008": 5.55586393725,
			"-0.007": 15.124847298,
			"-0.006": 19.9465443599,
			"-0.005": 21.8454435038,
			"-0.004": 17.9335922147,
			"-0.003": 17.4290126143,
			"-0.002": 19.1412382983,
			"-0.001": 21.8730707995,
			"0.0": 25.694891921,
			"0.001": 29.5889221727,
			"0.002": 46.0602005089,
			"0.003": 32.305592529,
			"0.004": 23.2879860315,
			"0.005": 13.5191191967,
			"0.006": 4.06871771026,
			"0.007": 3.16137549573,
			"0.008": 3.97140406008,
			"0.009": 2.60736291085,
			"0.01": 2.35789028282,
			"0.011": 3.318841009,
			"0.012": 4.15241676683,
			"0.013": 3.19246843534,
			"0.014": 2.59840664722,
			"0.015": 0.246282846565,
			"0.016": 0.0,
			"0.017": 0.0,
			"0.018": 0.0,
			"0.019": 0.0,
			"0.02": 0.0,
			"0.021": 0.0,
			"0.022": 0.0,
			"0.023": 0.0,
			"0.024": 0.0,
			"0.025": 0.0
		}
	}
}
