{
	 "smiles": "CC(C)N1CCC2=C(C1)SC(N)=C2C#N", 
	 "Tm": 441.15, 
	 "num_atms": 30, 
	 "gaussian": { 
		 "optdone": 1, 
		 "sigma_profile": "yes", 
		 "theory": "DFT", 
		 "functional": "B3LYP", 
		 "basiset": "6-31G**", 
		 "properties": { 
			 "R2extent": 4085.5548, 
			 "electric_dipole_moment_norm": 3.37762367057, 
			 "electric_quadrupole_moment_norm": 20.5751569936, 
			 "total_energy": -990.625822341, 
			 "HOMO_LUMO_gap": 0.18273, 
			 "cosmo_polarized_energy": -13.94, 
			 "cosmo_cavitation_energy": 33.22, 
			 "cosmo_dispersion_energy": -23.88, 
			 "cosmo_repulsion_energy": 1.82, 
			 "cosmo_total_nonelectrostatic_energy": 11.17, 
			 "SMD_solvation_energy": 3.73 
		},
		"coords": [
			{
				"x": -1.5209057312,
				"y": -2.8544654401,
				"z": 1.0573398516,
				"element": "C" 
			},
			{
				"x": -0.2077026961,
				"y": -2.1574232377,
				"z": 0.6734869999,
				"element": "C" 
			},
			{
				"x": 0.9168186174,
				"y": -3.2056539236,
				"z": 0.6605119559,
				"element": "C" 
			},
			{
				"x": -0.3170025198,
				"y": -1.5043931809,
				"z": -0.6553007413,
				"element": "N" 
			},
			{
				"x": -1.5310956497,
				"y": -0.7027921156,
				"z": -0.8744797146,
				"element": "C" 
			},
			{
				"x": -1.6502206963,
				"y": 0.5447429901,
				"z": 0.0308735516,
				"element": "C" 
			},
			{
				"x": -0.3286569325,
				"y": 1.2652012626,
				"z": 0.0818619026,
				"element": "C" 
			},
			{
				"x": 0.8045866561,
				"y": 0.6781320298,
				"z": -0.3868430291,
				"element": "C" 
			},
			{
				"x": 0.8520637265,
				"y": -0.6946002083,
				"z": -1.022446049,
				"element": "C" 
			},
			{
				"x": 2.2026282102,
				"y": 1.7405380418,
				"z": -0.2172742524,
				"element": "S" 
			},
			{
				"x": 1.2205295054,
				"y": 3.0020882229,
				"z": 0.4911837568,
				"element": "C" 
			},
			{
				"x": 1.7791798071,
				"y": 4.173534653,
				"z": 0.945019179,
				"element": "N" 
			},
			{
				"x": -0.1033988707,
				"y": 2.6001002396,
				"z": 0.5936032845,
				"element": "C" 
			},
			{
				"x": -1.099815196,
				"y": 3.4592981062,
				"z": 1.1239717884,
				"element": "C" 
			},
			{
				"x": -1.8897376253,
				"y": 4.1997538431,
				"z": 1.5587780255,
				"element": "N" 
			},
			{
				"x": -2.3388730314,
				"y": -2.1540186139,
				"z": 1.2438474098,
				"element": "H" 
			},
			{
				"x": -1.3734232294,
				"y": -3.4288637249,
				"z": 1.9764380006,
				"element": "H" 
			},
			{
				"x": -1.831697669,
				"y": -3.5487555449,
				"z": 0.2688138654,
				"element": "H" 
			},
			{
				"x": 0.0249574466,
				"y": -1.4160913375,
				"z": 1.459677306,
				"element": "H" 
			},
			{
				"x": 0.9527814967,
				"y": -3.7246284659,
				"z": 1.6234213862,
				"element": "H" 
			},
			{
				"x": 0.7333930538,
				"y": -3.9438937631,
				"z": -0.126973153,
				"element": "H" 
			},
			{
				"x": 1.9070434046,
				"y": -2.7725561465,
				"z": 0.496869428,
				"element": "H" 
			},
			{
				"x": -2.4149273046,
				"y": -1.3345653895,
				"z": -0.7696056939,
				"element": "H" 
			},
			{
				"x": -1.5054765059,
				"y": -0.3757066792,
				"z": -1.9212682564,
				"element": "H" 
			},
			{
				"x": -2.4368543603,
				"y": 1.2081080462,
				"z": -0.3499907332,
				"element": "H" 
			},
			{
				"x": -1.9594665922,
				"y": 0.2634998916,
				"z": 1.0470377679,
				"element": "H" 
			},
			{
				"x": 1.7694908382,
				"y": -1.2205070474,
				"z": -0.7501207989,
				"element": "H" 
			},
			{
				"x": 0.8700543296,
				"y": -0.598525945,
				"z": -2.1182018431,
				"element": "H" 
			},
			{
				"x": 1.1111459904,
				"y": 4.8913423111,
				"z": 1.1975545831,
				"element": "H" 
			},
			{
				"x": 2.5801815275,
				"y": 4.527501126,
				"z": 0.4416142223,
				"element": "H" 
			}
		],
		 "valence_orbital": [ 
			{
				"type": "occ",
				"energy": -0.32246,
				"method": "rhf"
			},
			{
				"type": "occ",
				"energy": -0.31232,
				"method": "rhf"
			},
			{
				"type": "occ",
				"energy": -0.2514,
				"method": "rhf"
			},
			{
				"type": "occ",
				"energy": -0.21505,
				"method": "rhf"
			},
			{
				"type": "occ",
				"energy": -0.20455,
				"method": "rhf"
			},
			{
				"type": "unocc",
				"energy": -0.02182,
				"method": "rhf"
			},
			{
				"type": "unocc",
				"energy": -0.00296,
				"method": "rhf"
			},
			{
				"type": "unocc",
				"energy": 0.01937,
				"method": "rhf"
			},
			{
				"type": "unocc",
				"energy": 0.04535,
				"method": "rhf"
			},
			{
				"type": "unocc",
				"energy": 0.06364,
				"method": "rhf"
			}
		],
		"cosmo_sigma_profile": { 
			"-0.025": 0.0,
			"-0.024": 0.0,
			"-0.023": 0.0,
			"-0.022": 0.0,
			"-0.021": 0.0,
			"-0.02": 0.0,
			"-0.019": 0.0,
			"-0.018": 0.0,
			"-0.017": 0.0,
			"-0.016": 0.0,
			"-0.015": 0.767373815517,
			"-0.014": 2.02221937441,
			"-0.013": 2.52955764695,
			"-0.012": 2.62491529839,
			"-0.011": 2.3842725798,
			"-0.01": 2.2813340698,
			"-0.009": 1.95665176998,
			"-0.008": 2.61213479797,
			"-0.007": 1.57237180139,
			"-0.006": 4.56927333383,
			"-0.005": 5.91158814424,
			"-0.004": 18.3595335321,
			"-0.003": 27.7990083997,
			"-0.002": 26.8359218708,
			"-0.001": 29.8791132294,
			"0.0": 25.3950155955,
			"0.001": 24.7418925372,
			"0.002": 18.3877635587,
			"0.003": 14.9331311063,
			"0.004": 10.2974650118,
			"0.005": 4.21046195799,
			"0.006": 4.0019592068,
			"0.007": 3.99157055037,
			"0.008": 3.47449890205,
			"0.009": 4.63712139599,
			"0.01": 4.48975937136,
			"0.011": 4.20005937501,
			"0.012": 3.35448362056,
			"0.013": 3.09751344588,
			"0.014": 1.66313151447,
			"0.015": 0.354964041116,
			"0.016": 0.210912885663,
			"0.017": 0.0,
			"0.018": 0.0,
			"0.019": 0.0,
			"0.02": 0.0,
			"0.021": 0.0,
			"0.022": 0.0,
			"0.023": 0.0,
			"0.024": 0.0,
			"0.025": 0.0
		}
	}
}
