{
	 "smiles": "OC(=O)C1=CC=C2C(=O)C3=C(C=CC=C3)C(=O)C2=C1", 
	 "Tm": 564.15, 
	 "num_atms": 27, 
	 "gaussian": { 
		 "optdone": 1, 
		 "sigma_profile": "yes", 
		 "theory": "DFT", 
		 "functional": "B3LYP", 
		 "basiset": "6-31G**", 
		 "properties": { 
			 "R2extent": 5608.9629, 
			 "electric_dipole_moment_norm": 2.11741247989, 
			 "electric_quadrupole_moment_norm": 13.9031067215, 
			 "total_energy": -877.34919861, 
			 "HOMO_LUMO_gap": 0.15156, 
			 "cosmo_polarized_energy": -13.93, 
			 "cosmo_cavitation_energy": 32.64, 
			 "cosmo_dispersion_energy": -24.05, 
			 "cosmo_repulsion_energy": 1.77, 
			 "cosmo_total_nonelectrostatic_energy": 10.37, 
			 "SMD_solvation_energy": 7.4 
		},
		"coords": [
			{
				"x": -0.1757321766,
				"y": -2.3546620579,
				"z": 4.3808220262,
				"element": "O" 
			},
			{
				"x": 0.972490735,
				"y": -2.52515122,
				"z": 3.6861177176,
				"element": "C" 
			},
			{
				"x": 1.8750029017,
				"y": -3.2365959661,
				"z": 4.0785964605,
				"element": "O" 
			},
			{
				"x": 1.000572243,
				"y": -1.7545879004,
				"z": 2.4094117328,
				"element": "C" 
			},
			{
				"x": 2.1483700041,
				"y": -1.8588581994,
				"z": 1.6068333347,
				"element": "C" 
			},
			{
				"x": 2.2265717451,
				"y": -1.1622895126,
				"z": 0.4076104286,
				"element": "C" 
			},
			{
				"x": 1.1610733188,
				"y": -0.353101075,
				"z": -0.006046302,
				"element": "C" 
			},
			{
				"x": 1.2726998572,
				"y": 0.3849246681,
				"z": -1.3012448869,
				"element": "C" 
			},
			{
				"x": 2.2776207467,
				"y": 0.2898347294,
				"z": -1.996818935,
				"element": "O" 
			},
			{
				"x": 0.1201663984,
				"y": 1.2367160717,
				"z": -1.7095779995,
				"element": "C" 
			},
			{
				"x": -1.0324572732,
				"y": 1.3426454319,
				"z": -0.9052805968,
				"element": "C" 
			},
			{
				"x": -2.0961850364,
				"y": 2.1522026246,
				"z": -1.3202412711,
				"element": "C" 
			},
			{
				"x": -2.01603888,
				"y": 2.850035922,
				"z": -2.5226895182,
				"element": "C" 
			},
			{
				"x": -0.871130474,
				"y": 2.7448231875,
				"z": -3.3215878639,
				"element": "C" 
			},
			{
				"x": 0.1920289587,
				"y": 1.9418425057,
				"z": -2.9168016455,
				"element": "C" 
			},
			{
				"x": -1.146061451,
				"y": 0.6069430975,
				"z": 0.3868096956,
				"element": "C" 
			},
			{
				"x": -2.1473770052,
				"y": 0.6980383198,
				"z": 1.0880155597,
				"element": "O" 
			},
			{
				"x": 0.0087167558,
				"y": -0.2464995665,
				"z": 0.796794755,
				"element": "C" 
			},
			{
				"x": -0.0660316074,
				"y": -0.9492927472,
				"z": 2.0031536293,
				"element": "C" 
			},
			{
				"x": -0.0881127525,
				"y": -2.8942524192,
				"z": 5.1838184428,
				"element": "H" 
			},
			{
				"x": 2.9620476732,
				"y": -2.4910498577,
				"z": 1.9458335622,
				"element": "H" 
			},
			{
				"x": 3.1019493753,
				"y": -1.2264770889,
				"z": -0.2294874086,
				"element": "H" 
			},
			{
				"x": -2.97159208,
				"y": 2.2162474777,
				"z": -0.6827840639,
				"element": "H" 
			},
			{
				"x": -2.8438386943,
				"y": 3.4769657378,
				"z": -2.8406596343,
				"element": "H" 
			},
			{
				"x": -0.8112843202,
				"y": 3.2901357259,
				"z": -4.2588255108,
				"element": "H" 
			},
			{
				"x": 1.0903302823,
				"y": 1.8428557785,
				"z": -3.5168555734,
				"element": "H" 
			},
			{
				"x": -0.9604992445,
				"y": -0.8548936673,
				"z": 2.6071838649,
				"element": "H" 
			}
		],
		 "valence_orbital": [ 
			{
				"type": "occ",
				"energy": -0.27894,
				"method": "rhf"
			},
			{
				"type": "occ",
				"energy": -0.27554,
				"method": "rhf"
			},
			{
				"type": "occ",
				"energy": -0.27411,
				"method": "rhf"
			},
			{
				"type": "occ",
				"energy": -0.27256,
				"method": "rhf"
			},
			{
				"type": "occ",
				"energy": -0.26409,
				"method": "rhf"
			},
			{
				"type": "unocc",
				"energy": -0.11253,
				"method": "rhf"
			},
			{
				"type": "unocc",
				"energy": -0.07196,
				"method": "rhf"
			},
			{
				"type": "unocc",
				"energy": -0.04639,
				"method": "rhf"
			},
			{
				"type": "unocc",
				"energy": -0.02126,
				"method": "rhf"
			},
			{
				"type": "unocc",
				"energy": 0.01361,
				"method": "rhf"
			}
		],
		"cosmo_sigma_profile": { 
			"-0.025": 0.0,
			"-0.024": 0.0,
			"-0.023": 0.0,
			"-0.022": 0.0,
			"-0.021": 0.0,
			"-0.02": 0.0,
			"-0.019": 0.438794103728,
			"-0.018": 0.735747211808,
			"-0.017": 1.12512265051,
			"-0.016": 0.762628766695,
			"-0.015": 1.03575092781,
			"-0.014": 0.374725153291,
			"-0.013": 0.164404345987,
			"-0.012": 0.776837046254,
			"-0.011": 1.01911988439,
			"-0.01": 0.785565805556,
			"-0.009": 0.327059952422,
			"-0.008": 1.78146949949,
			"-0.007": 10.4309015616,
			"-0.006": 14.3955359787,
			"-0.005": 14.4305142156,
			"-0.004": 14.7187578792,
			"-0.003": 17.379894091,
			"-0.002": 19.3509136736,
			"-0.001": 26.4607458342,
			"0.0": 30.6968842862,
			"0.001": 24.6486189956,
			"0.002": 19.3695325685,
			"0.003": 7.63095786081,
			"0.004": 6.29127741168,
			"0.005": 5.51745322228,
			"0.006": 5.77138285327,
			"0.007": 6.24448535418,
			"0.008": 4.5871669311,
			"0.009": 5.71894233663,
			"0.01": 8.1398303951,
			"0.011": 11.3940825713,
			"0.012": 1.48022457159,
			"0.013": 0.0,
			"0.014": 0.0,
			"0.015": 0.0,
			"0.016": 0.0,
			"0.017": 0.0,
			"0.018": 0.0,
			"0.019": 0.0,
			"0.02": 0.0,
			"0.021": 0.0,
			"0.022": 0.0,
			"0.023": 0.0,
			"0.024": 0.0,
			"0.025": 0.0
		}
	}
}
