{
	 "smiles": "ClC1=CC(=CC=C1)C1=CSC(=O)N1", 
	 "Tm": 437.15, 
	 "num_atms": 19, 
	 "gaussian": { 
		 "optdone": 1, 
		 "sigma_profile": "yes", 
		 "theory": "DFT", 
		 "functional": "B3LYP", 
		 "basiset": "6-31G**", 
		 "properties": { 
			 "R2extent": 4053.3197, 
			 "electric_dipole_moment_norm": 4.39957380777, 
			 "electric_quadrupole_moment_norm": 14.7254993443, 
			 "total_energy": -1334.93792659, 
			 "HOMO_LUMO_gap": 0.16488, 
			 "cosmo_polarized_energy": -12.53, 
			 "cosmo_cavitation_energy": 27.47, 
			 "cosmo_dispersion_energy": -20.93, 
			 "cosmo_repulsion_energy": 1.6, 
			 "cosmo_total_nonelectrostatic_energy": 8.14, 
			 "SMD_solvation_energy": 5.08 
		},
		"coords": [
			{
				"x": 1.1917695981,
				"y": -3.3653817678,
				"z": 2.3473688111,
				"element": "Cl" 
			},
			{
				"x": -0.0644711246,
				"y": -2.2878231127,
				"z": 1.7591985535,
				"element": "C" 
			},
			{
				"x": 0.2115171228,
				"y": -1.4559568253,
				"z": 0.6765418007,
				"element": "C" 
			},
			{
				"x": -0.7819916196,
				"y": -0.5867317157,
				"z": 0.1951703076,
				"element": "C" 
			},
			{
				"x": -2.0398867693,
				"y": -0.5776073271,
				"z": 0.8216317924,
				"element": "C" 
			},
			{
				"x": -2.2909783667,
				"y": -1.4085269925,
				"z": 1.9096374691,
				"element": "C" 
			},
			{
				"x": -1.307757945,
				"y": -2.2766411447,
				"z": 2.3892475597,
				"element": "C" 
			},
			{
				"x": -0.5086966896,
				"y": 0.3054978584,
				"z": -0.9409025827,
				"element": "C" 
			},
			{
				"x": -1.0309392175,
				"y": 1.5348684235,
				"z": -1.1677490266,
				"element": "C" 
			},
			{
				"x": -0.400958834,
				"y": 2.2753718952,
				"z": -2.6269401205,
				"element": "S" 
			},
			{
				"x": 0.6317398686,
				"y": 0.8155319509,
				"z": -2.9663007755,
				"element": "C" 
			},
			{
				"x": 1.3552487557,
				"y": 0.6501575817,
				"z": -3.921449226,
				"element": "O" 
			},
			{
				"x": 0.412556814,
				"y": -0.0670340321,
				"z": -1.924244338,
				"element": "N" 
			},
			{
				"x": 1.2041501069,
				"y": -1.4647574659,
				"z": 0.2397937855,
				"element": "H" 
			},
			{
				"x": -2.8243968818,
				"y": 0.0647127146,
				"z": 0.4355998134,
				"element": "H" 
			},
			{
				"x": -3.2678276257,
				"y": -1.395620392,
				"z": 2.3833885422,
				"element": "H" 
			},
			{
				"x": -1.5001688272,
				"y": -2.9339406835,
				"z": 3.2294340843,
				"element": "H" 
			},
			{
				"x": -1.7096221832,
				"y": 2.0703819962,
				"z": -0.5210636134,
				"element": "H" 
			},
			{
				"x": 0.8094138179,
				"y": -0.993800961,
				"z": -1.9930628369,
				"element": "H" 
			}
		],
		 "valence_orbital": [ 
			{
				"type": "occ",
				"energy": -0.3057,
				"method": "rhf"
			},
			{
				"type": "occ",
				"energy": -0.28428,
				"method": "rhf"
			},
			{
				"type": "occ",
				"energy": -0.27431,
				"method": "rhf"
			},
			{
				"type": "occ",
				"energy": -0.26458,
				"method": "rhf"
			},
			{
				"type": "occ",
				"energy": -0.21714,
				"method": "rhf"
			},
			{
				"type": "unocc",
				"energy": -0.05226,
				"method": "rhf"
			},
			{
				"type": "unocc",
				"energy": -0.03175,
				"method": "rhf"
			},
			{
				"type": "unocc",
				"energy": 0.00486,
				"method": "rhf"
			},
			{
				"type": "unocc",
				"energy": 0.01067,
				"method": "rhf"
			},
			{
				"type": "unocc",
				"energy": 0.02006,
				"method": "rhf"
			}
		],
		"cosmo_sigma_profile": { 
			"-0.025": 0.0,
			"-0.024": 0.0,
			"-0.023": 0.0,
			"-0.022": 0.0,
			"-0.021": 0.0,
			"-0.02": 0.0,
			"-0.019": 0.0,
			"-0.018": 0.0,
			"-0.017": 0.22473151471,
			"-0.016": 0.940187732231,
			"-0.015": 1.24148378652,
			"-0.014": 0.982023153517,
			"-0.013": 1.29295230687,
			"-0.012": 1.09439451512,
			"-0.011": 1.39482611285,
			"-0.01": 1.35990777861,
			"-0.009": 3.3144963356,
			"-0.008": 5.16403981108,
			"-0.007": 9.22837593661,
			"-0.006": 10.2210368433,
			"-0.005": 9.0169102133,
			"-0.004": 8.40451555659,
			"-0.003": 8.60559890765,
			"-0.002": 11.0696318867,
			"-0.001": 15.6907252847,
			"0.0": 19.4720475172,
			"0.001": 24.515109124,
			"0.002": 25.6325136984,
			"0.003": 25.0592633772,
			"0.004": 16.000388587,
			"0.005": 7.34816103257,
			"0.006": 1.69611044052,
			"0.007": 1.80718266926,
			"0.008": 0.799513142041,
			"0.009": 1.02277656594,
			"0.01": 2.12113971187,
			"0.011": 2.8130147175,
			"0.012": 6.85516285656,
			"0.013": 1.54315302903,
			"0.014": 0.0,
			"0.015": 0.0,
			"0.016": 0.0,
			"0.017": 0.0,
			"0.018": 0.0,
			"0.019": 0.0,
			"0.02": 0.0,
			"0.021": 0.0,
			"0.022": 0.0,
			"0.023": 0.0,
			"0.024": 0.0,
			"0.025": 0.0
		}
	}
}
