{
	 "smiles": "COC(=O)C1(CC1)S(=O)(=O)C1=CC=C(C=C1)N(=O)=O", 
	 "Tm": 400.15, 
	 "num_atms": 30, 
	 "gaussian": { 
		 "optdone": 1, 
		 "sigma_profile": "yes", 
		 "theory": "DFT", 
		 "functional": "B3LYP", 
		 "basiset": "6-31G**", 
		 "properties": { 
			 "R2extent": 6218.8044, 
			 "electric_dipole_moment_norm": 6.09106191481, 
			 "electric_quadrupole_moment_norm": 21.6172050689, 
			 "total_energy": -1329.88626999, 
			 "HOMO_LUMO_gap": 0.18346, 
			 "cosmo_polarized_energy": -18.04, 
			 "cosmo_cavitation_energy": 36.41, 
			 "cosmo_dispersion_energy": -25.82, 
			 "cosmo_repulsion_energy": 1.93, 
			 "cosmo_total_nonelectrostatic_energy": 12.52, 
			 "SMD_solvation_energy": 9.18 
		},
		"coords": [
			{
				"x": -2.6832418604,
				"y": 1.7462804108,
				"z": -3.876374993,
				"element": "C" 
			},
			{
				"x": -2.2317117317,
				"y": 0.45123347,
				"z": -3.4336050135,
				"element": "O" 
			},
			{
				"x": -1.2011834958,
				"y": 0.4670071251,
				"z": -2.5636327887,
				"element": "C" 
			},
			{
				"x": -0.6763280631,
				"y": 1.4844799446,
				"z": -2.1643241522,
				"element": "O" 
			},
			{
				"x": -0.8229377267,
				"y": -0.9193821898,
				"z": -2.143535383,
				"element": "C" 
			},
			{
				"x": -1.0767322221,
				"y": -2.100544004,
				"z": -3.0761879823,
				"element": "C" 
			},
			{
				"x": -1.9207204336,
				"y": -1.9418331162,
				"z": -1.8609489833,
				"element": "C" 
			},
			{
				"x": 0.7130736138,
				"y": -1.0581628802,
				"z": -1.1764647056,
				"element": "S" 
			},
			{
				"x": 0.8240930852,
				"y": -2.4904490041,
				"z": -0.8438939648,
				"element": "O" 
			},
			{
				"x": 1.7876679741,
				"y": -0.3647392409,
				"z": -1.8930421845,
				"element": "O" 
			},
			{
				"x": 0.4140835105,
				"y": -0.1909208303,
				"z": 0.3808327995,
				"element": "C" 
			},
			{
				"x": 0.7249787253,
				"y": 1.166973928,
				"z": 0.4842107265,
				"element": "C" 
			},
			{
				"x": 0.5344338209,
				"y": 1.8116932626,
				"z": 1.7039641749,
				"element": "C" 
			},
			{
				"x": 0.0422625167,
				"y": 1.0765146959,
				"z": 2.7807498106,
				"element": "C" 
			},
			{
				"x": -0.2557666013,
				"y": -0.2814100005,
				"z": 2.6907803891,
				"element": "C" 
			},
			{
				"x": -0.0605879664,
				"y": -0.9249725172,
				"z": 1.4710277293,
				"element": "C" 
			},
			{
				"x": -0.1651684698,
				"y": 1.7618614802,
				"z": 4.0725522684,
				"element": "N" 
			},
			{
				"x": 0.1113971932,
				"y": 2.9579665226,
				"z": 4.1315081178,
				"element": "O" 
			},
			{
				"x": -0.6036521862,
				"y": 1.0924112385,
				"z": 5.0059907985,
				"element": "O" 
			},
			{
				"x": -3.0181254883,
				"y": 2.3450163981,
				"z": -3.0263985314,
				"element": "H" 
			},
			{
				"x": -3.5094494892,
				"y": 1.5481723115,
				"z": -4.5581379759,
				"element": "H" 
			},
			{
				"x": -1.8767779466,
				"y": 2.2746882874,
				"z": -4.3892842691,
				"element": "H" 
			},
			{
				"x": -0.3264556306,
				"y": -2.8833950502,
				"z": -3.0626267398,
				"element": "H" 
			},
			{
				"x": -1.489893981,
				"y": -1.8454757031,
				"z": -4.0447335682,
				"element": "H" 
			},
			{
				"x": -2.9370777184,
				"y": -1.5793776816,
				"z": -1.9677080323,
				"element": "H" 
			},
			{
				"x": -1.738473709,
				"y": -2.6230168243,
				"z": -1.0369975587,
				"element": "H" 
			},
			{
				"x": 1.1004150514,
				"y": 1.7010805641,
				"z": -0.3788539309,
				"element": "H" 
			},
			{
				"x": 0.7603539674,
				"y": 2.8625055971,
				"z": 1.8330204142,
				"element": "H" 
			},
			{
				"x": -0.6208931746,
				"y": -0.8082613503,
				"z": 3.5631384523,
				"element": "H" 
			},
			{
				"x": -0.2470815637,
				"y": -1.9875448438,
				"z": 1.3673750761,
				"element": "H" 
			}
		],
		 "valence_orbital": [ 
			{
				"type": "occ",
				"energy": -0.30608,
				"method": "rhf"
			},
			{
				"type": "occ",
				"energy": -0.30057,
				"method": "rhf"
			},
			{
				"type": "occ",
				"energy": -0.29856,
				"method": "rhf"
			},
			{
				"type": "occ",
				"energy": -0.2942,
				"method": "rhf"
			},
			{
				"type": "occ",
				"energy": -0.28762,
				"method": "rhf"
			},
			{
				"type": "unocc",
				"energy": -0.10416,
				"method": "rhf"
			},
			{
				"type": "unocc",
				"energy": -0.03978,
				"method": "rhf"
			},
			{
				"type": "unocc",
				"energy": -0.02932,
				"method": "rhf"
			},
			{
				"type": "unocc",
				"energy": -0.01703,
				"method": "rhf"
			},
			{
				"type": "unocc",
				"energy": 0.03537,
				"method": "rhf"
			}
		],
		"cosmo_sigma_profile": { 
			"-0.025": 0.0,
			"-0.024": 0.0,
			"-0.023": 0.0,
			"-0.022": 0.0,
			"-0.021": 0.0,
			"-0.02": 0.0,
			"-0.019": 0.0,
			"-0.018": 0.0,
			"-0.017": 0.0,
			"-0.016": 0.0,
			"-0.015": 0.0,
			"-0.014": 0.0,
			"-0.013": 0.0,
			"-0.012": 0.0,
			"-0.011": 0.0,
			"-0.01": 0.0,
			"-0.009": 1.46860116747,
			"-0.008": 6.70324578976,
			"-0.007": 13.361922635,
			"-0.006": 20.6134267499,
			"-0.005": 20.8428049721,
			"-0.004": 26.848584396,
			"-0.003": 25.0350621604,
			"-0.002": 25.6972655204,
			"-0.001": 24.8627723209,
			"0.0": 19.6811006529,
			"0.001": 10.8595008774,
			"0.002": 9.18639042186,
			"0.003": 8.05389006987,
			"0.004": 7.19022373725,
			"0.005": 8.44905915021,
			"0.006": 9.28630636256,
			"0.007": 13.4942998405,
			"0.008": 9.59549359768,
			"0.009": 10.4558966808,
			"0.01": 11.0463575306,
			"0.011": 7.64485533781,
			"0.012": 0.94266377776,
			"0.013": 0.0,
			"0.014": 0.0,
			"0.015": 0.0,
			"0.016": 0.0,
			"0.017": 0.0,
			"0.018": 0.0,
			"0.019": 0.0,
			"0.02": 0.0,
			"0.021": 0.0,
			"0.022": 0.0,
			"0.023": 0.0,
			"0.024": 0.0,
			"0.025": 0.0
		}
	}
}
