{
	 "smiles": "FC1=CC=C(C=C1)S(Cl)(=O)=O", 
	 "Tm": 309.65, 
	 "num_atms": 15, 
	 "gaussian": { 
		 "optdone": 1, 
		 "sigma_profile": "yes", 
		 "theory": "DFT", 
		 "functional": "B3LYP", 
		 "basiset": "6-31G**", 
		 "properties": { 
			 "R2extent": 3434.586, 
			 "electric_dipole_moment_norm": 4.18151389571, 
			 "electric_quadrupole_moment_norm": 6.89538337948, 
			 "total_energy": -1339.63960637, 
			 "HOMO_LUMO_gap": 0.19355, 
			 "cosmo_polarized_energy": -8.59, 
			 "cosmo_cavitation_energy": 23.68, 
			 "cosmo_dispersion_energy": -17.8, 
			 "cosmo_repulsion_energy": 1.36, 
			 "cosmo_total_nonelectrostatic_energy": 7.24, 
			 "SMD_solvation_energy": 3.34 
		},
		"coords": [
			{
				"x": 1.7572170612,
				"y": -1.2465151674,
				"z": 5.2132257487,
				"element": "F" 
			},
			{
				"x": 1.1310359127,
				"y": -1.0696135222,
				"z": 4.0404885459,
				"element": "C" 
			},
			{
				"x": 1.8576203041,
				"y": -0.5655834952,
				"z": 2.9637961042,
				"element": "C" 
			},
			{
				"x": 1.2088770853,
				"y": -0.3814491189,
				"z": 1.7463799328,
				"element": "C" 
			},
			{
				"x": -0.1451263517,
				"y": -0.7113339941,
				"z": 1.6486298048,
				"element": "C" 
			},
			{
				"x": -0.8698341298,
				"y": -1.2181833706,
				"z": 2.7301162234,
				"element": "C" 
			},
			{
				"x": -0.2189111492,
				"y": -1.4013876004,
				"z": 3.94650178,
				"element": "C" 
			},
			{
				"x": -0.9725491697,
				"y": -0.4942647969,
				"z": 0.0847559806,
				"element": "S" 
			},
			{
				"x": -1.6966096922,
				"y": 1.506959279,
				"z": 0.2610641217,
				"element": "Cl" 
			},
			{
				"x": -2.1534217526,
				"y": -1.3473761314,
				"z": 0.0414875829,
				"element": "O" 
			},
			{
				"x": 0.0168336584,
				"y": -0.4717807347,
				"z": -0.9851803482,
				"element": "O" 
			},
			{
				"x": 2.9084215616,
				"y": -0.3303288387,
				"z": 3.0890272423,
				"element": "H" 
			},
			{
				"x": 1.7415654989,
				"y": 0.0003625838,
				"z": 0.8828988833,
				"element": "H" 
			},
			{
				"x": -1.9172591577,
				"y": -1.4724829765,
				"z": 2.6144676714,
				"element": "H" 
			},
			{
				"x": -0.7355596794,
				"y": -1.7970221157,
				"z": 4.8135407263,
				"element": "H" 
			}
		],
		 "valence_orbital": [ 
			{
				"type": "occ",
				"energy": -0.34068,
				"method": "rhf"
			},
			{
				"type": "occ",
				"energy": -0.33466,
				"method": "rhf"
			},
			{
				"type": "occ",
				"energy": -0.31604,
				"method": "rhf"
			},
			{
				"type": "occ",
				"energy": -0.30031,
				"method": "rhf"
			},
			{
				"type": "occ",
				"energy": -0.28625,
				"method": "rhf"
			},
			{
				"type": "unocc",
				"energy": -0.0927,
				"method": "rhf"
			},
			{
				"type": "unocc",
				"energy": -0.04913,
				"method": "rhf"
			},
			{
				"type": "unocc",
				"energy": -0.0449,
				"method": "rhf"
			},
			{
				"type": "unocc",
				"energy": 0.04642,
				"method": "rhf"
			},
			{
				"type": "unocc",
				"energy": 0.06883,
				"method": "rhf"
			}
		],
		"cosmo_sigma_profile": { 
			"-0.025": 0.0,
			"-0.024": 0.0,
			"-0.023": 0.0,
			"-0.022": 0.0,
			"-0.021": 0.0,
			"-0.02": 0.0,
			"-0.019": 0.0,
			"-0.018": 0.0,
			"-0.017": 0.0,
			"-0.016": 0.0,
			"-0.015": 0.0,
			"-0.014": 0.0,
			"-0.013": 0.0,
			"-0.012": 0.0,
			"-0.011": 0.0,
			"-0.01": 0.0614594786306,
			"-0.009": 5.09819847069,
			"-0.008": 7.51547315812,
			"-0.007": 7.39711763998,
			"-0.006": 8.07504823802,
			"-0.005": 6.82251463763,
			"-0.004": 8.49696643185,
			"-0.003": 7.05272104229,
			"-0.002": 15.3760211913,
			"-0.001": 21.3316760511,
			"0.0": 20.3290143081,
			"0.001": 14.8389035224,
			"0.002": 10.0323715146,
			"0.003": 22.9515352674,
			"0.004": 11.524986148,
			"0.005": 3.73650379949,
			"0.006": 3.05671993524,
			"0.007": 6.2243226814,
			"0.008": 9.61933032007,
			"0.009": 4.29186411639,
			"0.01": 0.000188368205325,
			"0.011": 0.0,
			"0.012": 0.0,
			"0.013": 0.0,
			"0.014": 0.0,
			"0.015": 0.0,
			"0.016": 0.0,
			"0.017": 0.0,
			"0.018": 0.0,
			"0.019": 0.0,
			"0.02": 0.0,
			"0.021": 0.0,
			"0.022": 0.0,
			"0.023": 0.0,
			"0.024": 0.0,
			"0.025": 0.0
		}
	}
}
