{
	 "smiles": "IC1=CC=C(C=C1)C1=CC=C(I)C=C1", 
	 "Tm": 480.15, 
	 "num_atms": 22, 
	 "gaussian": { 
		 "optdone": 1, 
		 "sigma_profile": "no", 
		 "theory": "DFT", 
		 "functional": "B3LYP", 
		 "basiset": "6-31G**", 
		 "properties": { 
			 "R2extent": 4147.1964, 
			 "electric_dipole_moment_norm": 0.000173205080757, 
			 "electric_quadrupole_moment_norm": 11.3598883921, 
			 "total_energy": -484.877364681, 
			 "HOMO_LUMO_gap": 0.17935, 
			 "cosmo_polarized_energy": -214442.66, 
			 "cosmo_cavitation_energy": 32.77, 
			 "cosmo_dispersion_energy": -26.84, 
			 "cosmo_repulsion_energy": 2.03, 
			 "cosmo_total_nonelectrostatic_energy": 7.96, 
			 "SMD_solvation_energy": 3.49 
		},
		"coords": [
			{
				"x": -3.7061179771,
				"y": 3.4703177054,
				"z": 0.0397831264,
				"element": "I" 
			},
			{
				"x": -2.1579576001,
				"y": 2.0511447965,
				"z": -0.249406024,
				"element": "C" 
			},
			{
				"x": -1.241445054,
				"y": 1.8085664252,
				"z": 0.775112289,
				"element": "C" 
			},
			{
				"x": -0.2267556906,
				"y": 0.8733697267,
				"z": 0.5770415008,
				"element": "C" 
			},
			{
				"x": -0.1059557192,
				"y": 0.1701174081,
				"z": -0.6328007094,
				"element": "C" 
			},
			{
				"x": -1.0426201402,
				"y": 0.4362567694,
				"z": -1.6450787696,
				"element": "C" 
			},
			{
				"x": -2.0639369947,
				"y": 1.3674216147,
				"z": -1.4627352744,
				"element": "C" 
			},
			{
				"x": 0.9776352894,
				"y": -0.823338286,
				"z": -0.8352331997,
				"element": "C" 
			},
			{
				"x": 2.2661219228,
				"y": -0.6043078491,
				"z": -0.3207403399,
				"element": "C" 
			},
			{
				"x": 3.2893989509,
				"y": -1.5327662828,
				"z": -0.5058770052,
				"element": "C" 
			},
			{
				"x": 3.0294557887,
				"y": -2.7046151096,
				"z": -1.2183895689,
				"element": "C" 
			},
			{
				"x": 4.577459399,
				"y": -4.1240315932,
				"z": -1.5072627568,
				"element": "I" 
			},
			{
				"x": 1.7590859183,
				"y": -2.9500020602,
				"z": -1.7422501725,
				"element": "C" 
			},
			{
				"x": 0.7465447111,
				"y": -2.011843436,
				"z": -1.5472238555,
				"element": "C" 
			},
			{
				"x": -1.3192433528,
				"y": 2.3320723084,
				"z": 1.7213889746,
				"element": "H" 
			},
			{
				"x": 0.4654191877,
				"y": 0.6697932134,
				"z": 1.3885646392,
				"element": "H" 
			},
			{
				"x": -0.9592358201,
				"y": -0.0710936873,
				"z": -2.6015084487,
				"element": "H" 
			},
			{
				"x": -2.7694845047,
				"y": 1.5620368628,
				"z": -2.2626569763,
				"element": "H" 
			},
			{
				"x": 2.4832825021,
				"y": 0.3175245887,
				"z": 0.2104753146,
				"element": "H" 
			},
			{
				"x": 4.2782534297,
				"y": -1.3366954705,
				"z": -0.1068116668,
				"element": "H" 
			},
			{
				"x": 1.5535186343,
				"y": -3.864268581,
				"z": -2.2875975272,
				"element": "H" 
			},
			{
				"x": -0.2461228805,
				"y": -2.2226590635,
				"z": -1.9335935497,
				"element": "H" 
			}
		],
		 "valence_orbital": [ 
			{
				"type": "occ",
				"energy": -0.27146,
				"method": "rhf"
			},
			{
				"type": "occ",
				"energy": -0.2707,
				"method": "rhf"
			},
			{
				"type": "occ",
				"energy": -0.27013,
				"method": "rhf"
			},
			{
				"type": "occ",
				"energy": -0.25471,
				"method": "rhf"
			},
			{
				"type": "occ",
				"energy": -0.22849,
				"method": "rhf"
			},
			{
				"type": "unocc",
				"energy": -0.04914,
				"method": "rhf"
			},
			{
				"type": "unocc",
				"energy": -0.04273,
				"method": "rhf"
			},
			{
				"type": "unocc",
				"energy": -0.04106,
				"method": "rhf"
			},
			{
				"type": "unocc",
				"energy": -0.02315,
				"method": "rhf"
			},
			{
				"type": "unocc",
				"energy": -0.01943,
				"method": "rhf"
			}
		],
		"cosmo_sigma_profile": { 
			"0.0": 0.0,
			"0.0": 0.0,
			"0.0": 0.0,
			"0.0": 0.0,
			"0.0": 0.0,
			"0.0": 0.0,
			"0.0": 0.0,
			"0.0": 0.0,
			"0.0": 0.0,
			"0.0": 0.0,
			"0.0": 0.0,
			"0.0": 0.0,
			"0.0": 0.0,
			"0.0": 0.0,
			"0.0": 0.0,
			"0.0": 0.0,
			"0.0": 0.0,
			"0.0": 0.0,
			"0.0": 0.0,
			"0.0": 0.0,
			"0.0": 0.0,
			"0.0": 0.0,
			"0.0": 0.0,
			"0.0": 0.0,
			"0.0": 0.0,
			"0.0": 0.0,
			"0.0": 0.0,
			"0.0": 0.0,
			"0.0": 0.0,
			"0.0": 0.0,
			"0.0": 0.0,
			"0.0": 0.0,
			"0.0": 0.0,
			"0.0": 0.0,
			"0.0": 0.0,
			"0.0": 0.0,
			"0.0": 0.0,
			"0.0": 0.0,
			"0.0": 0.0,
			"0.0": 0.0,
			"0.0": 0.0,
			"0.0": 0.0,
			"0.0": 0.0,
			"0.0": 0.0,
			"0.0": 0.0,
			"0.0": 0.0,
			"0.0": 0.0,
			"0.0": 0.0,
			"0.0": 0.0,
			"0.0": 0.0,
			"0.0": 0.0
		}
	}
}
