{
	 "smiles": "OC(=O)C1=CC=C(C=C1)S(=O)(=O)CC(F)F", 
	 "Tm": 486.15, 
	 "num_atms": 24, 
	 "gaussian": { 
		 "optdone": 1, 
		 "sigma_profile": "yes", 
		 "theory": "DFT", 
		 "functional": "B3LYP", 
		 "basiset": "6-31G**", 
		 "properties": { 
			 "R2extent": 4608.4223, 
			 "electric_dipole_moment_norm": 5.76261149827, 
			 "electric_quadrupole_moment_norm": 20.6327157219, 
			 "total_energy": -1246.46967206, 
			 "HOMO_LUMO_gap": 0.20262, 
			 "cosmo_polarized_energy": -25.62, 
			 "cosmo_cavitation_energy": 30.64, 
			 "cosmo_dispersion_energy": -22.24, 
			 "cosmo_repulsion_energy": 1.65, 
			 "cosmo_total_nonelectrostatic_energy": 10.06, 
			 "SMD_solvation_energy": 6.38 
		},
		"coords": [
			{
				"x": 2.5600493831,
				"y": 2.943385525,
				"z": 2.3021576339,
				"element": "O" 
			},
			{
				"x": 1.7558827023,
				"y": 1.8751161765,
				"z": 2.5393448902,
				"element": "C" 
			},
			{
				"x": 1.3325346016,
				"y": 1.6665170194,
				"z": 3.6504699887,
				"element": "O" 
			},
			{
				"x": 1.4350376959,
				"y": 0.9936838206,
				"z": 1.3637494564,
				"element": "C" 
			},
			{
				"x": 2.2448074991,
				"y": 0.9274203703,
				"z": 0.2214845568,
				"element": "C" 
			},
			{
				"x": 1.906996463,
				"y": 0.0792034205,
				"z": -0.832402586,
				"element": "C" 
			},
			{
				"x": 0.7504689109,
				"y": -0.692356935,
				"z": -0.7297216127,
				"element": "C" 
			},
			{
				"x": -0.0570562193,
				"y": -0.6608656063,
				"z": 0.4102774138,
				"element": "C" 
			},
			{
				"x": 0.2957104269,
				"y": 0.1818287411,
				"z": 1.4586822569,
				"element": "C" 
			},
			{
				"x": 0.3410162395,
				"y": -1.8177733864,
				"z": -2.0763567188,
				"element": "S" 
			},
			{
				"x": 1.5432502738,
				"y": -1.9712163109,
				"z": -2.9093961413,
				"element": "O" 
			},
			{
				"x": -0.3472795848,
				"y": -2.9793795637,
				"z": -1.5038932732,
				"element": "O" 
			},
			{
				"x": -0.8544764368,
				"y": -0.9277936309,
				"z": -3.1532894537,
				"element": "C" 
			},
			{
				"x": -2.0646738746,
				"y": -0.2916808568,
				"z": -2.4920085244,
				"element": "C" 
			},
			{
				"x": -1.6854277489,
				"y": 0.818703368,
				"z": -1.7893983647,
				"element": "F" 
			},
			{
				"x": -2.6667446405,
				"y": -1.1507767887,
				"z": -1.6231705382,
				"element": "F" 
			},
			{
				"x": 2.6818681192,
				"y": 3.0724242234,
				"z": 1.3514321263,
				"element": "H" 
			},
			{
				"x": 3.1684170347,
				"y": 1.4970771801,
				"z": 0.1584735258,
				"element": "H" 
			},
			{
				"x": 2.5384243039,
				"y": -0.0086391798,
				"z": -1.7095903325,
				"element": "H" 
			},
			{
				"x": -0.9377256066,
				"y": -1.2900725715,
				"z": 0.4692453896,
				"element": "H" 
			},
			{
				"x": -0.2964717133,
				"y": 0.22475771,
				"z": 2.3660273506,
				"element": "H" 
			},
			{
				"x": -0.2891502256,
				"y": -0.1677222822,
				"z": -3.6960852648,
				"element": "H" 
			},
			{
				"x": -1.1719739726,
				"y": -1.7058826746,
				"z": -3.8533463787,
				"element": "H" 
			},
			{
				"x": -2.8064836307,
				"y": 0.018142232,
				"z": -3.2387853999,
				"element": "H" 
			}
		],
		 "valence_orbital": [ 
			{
				"type": "occ",
				"energy": -0.31273,
				"method": "rhf"
			},
			{
				"type": "occ",
				"energy": -0.30435,
				"method": "rhf"
			},
			{
				"type": "occ",
				"energy": -0.29589,
				"method": "rhf"
			},
			{
				"type": "occ",
				"energy": -0.29134,
				"method": "rhf"
			},
			{
				"type": "occ",
				"energy": -0.28325,
				"method": "rhf"
			},
			{
				"type": "unocc",
				"energy": -0.08063,
				"method": "rhf"
			},
			{
				"type": "unocc",
				"energy": -0.04225,
				"method": "rhf"
			},
			{
				"type": "unocc",
				"energy": 0.01353,
				"method": "rhf"
			},
			{
				"type": "unocc",
				"energy": 0.03449,
				"method": "rhf"
			},
			{
				"type": "unocc",
				"energy": 0.04602,
				"method": "rhf"
			}
		],
		"cosmo_sigma_profile": { 
			"-0.025": 0.0,
			"-0.024": 0.0,
			"-0.023": 0.0,
			"-0.022": 0.0,
			"-0.021": 0.0,
			"-0.02": 0.0503416737348,
			"-0.019": 0.755296161889,
			"-0.018": 0.953796365475,
			"-0.017": 0.986138843292,
			"-0.016": 1.67562270273,
			"-0.015": 0.533743388081,
			"-0.014": 0.946161861526,
			"-0.013": 1.21684713742,
			"-0.012": 1.19456588095,
			"-0.011": 5.12295547777,
			"-0.01": 10.9725489482,
			"-0.009": 8.46675585646,
			"-0.008": 9.12686138425,
			"-0.007": 10.6163417194,
			"-0.006": 9.07489638734,
			"-0.005": 9.68530648159,
			"-0.004": 8.31150798472,
			"-0.003": 10.4549315443,
			"-0.002": 10.3749195085,
			"-0.001": 10.4615653314,
			"0.0": 15.1061140086,
			"0.001": 15.4106812915,
			"0.002": 11.3041906263,
			"0.003": 12.4106952875,
			"0.004": 16.7476415789,
			"0.005": 5.71258576523,
			"0.006": 4.49064679267,
			"0.007": 6.03658533789,
			"0.008": 6.27839299864,
			"0.009": 7.68729444063,
			"0.01": 13.9168011258,
			"0.011": 13.6106835544,
			"0.012": 5.09308083699,
			"0.013": 0.383109547873,
			"0.014": 0.0,
			"0.015": 0.0,
			"0.016": 0.0,
			"0.017": 0.0,
			"0.018": 0.0,
			"0.019": 0.0,
			"0.02": 0.0,
			"0.021": 0.0,
			"0.022": 0.0,
			"0.023": 0.0,
			"0.024": 0.0,
			"0.025": 0.0
		}
	}
}
