{
	 "smiles": "CC1C2CC(OC(C)=O)C3C(C2OC(C)=O)(C2CC4C(C)(C)CCC(OC(C)=O)C34C(OC(C)=O)O2)C1=O", 
	 "Tm": 538.15, 
	 "num_atms": 76, 
	 "gaussian": { 
		 "optdone": 1, 
		 "sigma_profile": "yes", 
		 "theory": "DFT", 
		 "functional": "B3LYP", 
		 "basiset": "6-31G**", 
		 "properties": { 
			 "R2extent": 15254.0853, 
			 "electric_dipole_moment_norm": 3.15666431063, 
			 "electric_quadrupole_moment_norm": 22.3441612373, 
			 "total_energy": -1842.17617361, 
			 "HOMO_LUMO_gap": 0.21162, 
			 "cosmo_polarized_energy": -22.77, 
			 "cosmo_cavitation_energy": 66.96, 
			 "cosmo_dispersion_energy": -41.03, 
			 "cosmo_repulsion_energy": 3.03, 
			 "cosmo_total_nonelectrostatic_energy": 28.95, 
			 "SMD_solvation_energy": 14.57 
		},
		"coords": [
			{
				"x": -3.9184427501,
				"y": 1.8071311401,
				"z": 2.307229412,
				"element": "C" 
			},
			{
				"x": -3.0064319057,
				"y": 0.5824751251,
				"z": 2.3399481802,
				"element": "C" 
			},
			{
				"x": -1.5904850933,
				"y": 0.6794243667,
				"z": 2.9646609478,
				"element": "C" 
			},
			{
				"x": -0.7482514557,
				"y": 1.8633619089,
				"z": 2.4132542741,
				"element": "C" 
			},
			{
				"x": 0.2427458525,
				"y": 1.50158198,
				"z": 1.2867437622,
				"element": "C" 
			},
			{
				"x": 1.464342016,
				"y": 0.9638108668,
				"z": 1.8672272716,
				"element": "O" 
			},
			{
				"x": 2.4242000955,
				"y": 1.8571791449,
				"z": 2.2377054311,
				"element": "C" 
			},
			{
				"x": 3.6079764868,
				"y": 1.1483681926,
				"z": 2.8411907037,
				"element": "C" 
			},
			{
				"x": 2.3044920076,
				"y": 3.0562665059,
				"z": 2.0977280491,
				"element": "O" 
			},
			{
				"x": -0.3353274418,
				"y": 0.4934692199,
				"z": 0.2602710535,
				"element": "C" 
			},
			{
				"x": -1.2707445641,
				"y": -0.5799603244,
				"z": 0.9613794204,
				"element": "C" 
			},
			{
				"x": -0.952436697,
				"y": -0.6325086768,
				"z": 2.4708548386,
				"element": "C" 
			},
			{
				"x": -1.6269626884,
				"y": -1.7875730502,
				"z": 3.0261255131,
				"element": "O" 
			},
			{
				"x": -1.1516755196,
				"y": -2.2528305021,
				"z": 4.2119695438,
				"element": "C" 
			},
			{
				"x": -1.8717688783,
				"y": -3.5163885879,
				"z": 4.616222702,
				"element": "C" 
			},
			{
				"x": -0.2628309069,
				"y": -1.7175747865,
				"z": 4.835078149,
				"element": "O" 
			},
			{
				"x": -1.0743072229,
				"y": -1.9153652904,
				"z": 0.2305311845,
				"element": "C" 
			},
			{
				"x": -1.3089763401,
				"y": -1.7659429936,
				"z": -1.2725394166,
				"element": "C" 
			},
			{
				"x": -0.1235785155,
				"y": -0.9742625797,
				"z": -1.874041321,
				"element": "C" 
			},
			{
				"x": -0.4250958768,
				"y": -0.1202293352,
				"z": -3.1421064284,
				"element": "C" 
			},
			{
				"x": -1.0643269083,
				"y": -1.0454335535,
				"z": -4.2001233207,
				"element": "C" 
			},
			{
				"x": -1.3901760922,
				"y": 1.0612734587,
				"z": -2.9005970224,
				"element": "C" 
			},
			{
				"x": 0.9391647784,
				"y": 0.4243824129,
				"z": -3.697669172,
				"element": "C" 
			},
			{
				"x": 2.1380764094,
				"y": 0.2354214708,
				"z": -2.7504837501,
				"element": "C" 
			},
			{
				"x": 1.8151404041,
				"y": 0.6089395518,
				"z": -1.300745799,
				"element": "C" 
			},
			{
				"x": 1.4376389884,
				"y": 2.0172394637,
				"z": -1.2730526893,
				"element": "O" 
			},
			{
				"x": 2.4635599956,
				"y": 2.9146364522,
				"z": -1.241582321,
				"element": "C" 
			},
			{
				"x": 1.9515609136,
				"y": 4.3271149242,
				"z": -1.1162089474,
				"element": "C" 
			},
			{
				"x": 3.6312953453,
				"y": 2.5957113757,
				"z": -1.2709809148,
				"element": "O" 
			},
			{
				"x": 0.6604434886,
				"y": -0.2626220974,
				"z": -0.7117488737,
				"element": "C" 
			},
			{
				"x": 1.2681963785,
				"y": -1.4307021323,
				"z": 0.1158239724,
				"element": "C" 
			},
			{
				"x": 2.2177482299,
				"y": -2.1793765032,
				"z": -0.6781080603,
				"element": "O" 
			},
			{
				"x": 3.4758708426,
				"y": -2.348370202,
				"z": -0.1860772467,
				"element": "C" 
			},
			{
				"x": 4.2562499153,
				"y": -3.300630744,
				"z": -1.0582397295,
				"element": "C" 
			},
			{
				"x": 3.9063342394,
				"y": -1.8006433215,
				"z": 0.8049881083,
				"element": "O" 
			},
			{
				"x": 0.2728384864,
				"y": -2.3552993543,
				"z": 0.4983080104,
				"element": "O" 
			},
			{
				"x": -2.7142769817,
				"y": -0.0175033895,
				"z": 0.9620122886,
				"element": "C" 
			},
			{
				"x": -3.484475528,
				"y": -0.0026128146,
				"z": 0.0220978572,
				"element": "O" 
			},
			{
				"x": -4.1582968241,
				"y": 2.1447270668,
				"z": 3.3201377269,
				"element": "H" 
			},
			{
				"x": -4.8508251107,
				"y": 1.5535213763,
				"z": 1.7959867139,
				"element": "H" 
			},
			{
				"x": -3.4733876965,
				"y": 2.6468772356,
				"z": 1.7656078929,
				"element": "H" 
			},
			{
				"x": -3.5323136779,
				"y": -0.2168422652,
				"z": 2.8819493711,
				"element": "H" 
			},
			{
				"x": -1.6297537348,
				"y": 0.7184083917,
				"z": 4.0554805059,
				"element": "H" 
			},
			{
				"x": -0.1671535209,
				"y": 2.3262954096,
				"z": 3.2144396605,
				"element": "H" 
			},
			{
				"x": -1.4074481808,
				"y": 2.6521941322,
				"z": 2.0373648988,
				"element": "H" 
			},
			{
				"x": 0.5182627635,
				"y": 2.4156905036,
				"z": 0.7721275764,
				"element": "H" 
			},
			{
				"x": 3.914807148,
				"y": 0.3074212777,
				"z": 2.2135462273,
				"element": "H" 
			},
			{
				"x": 4.4255826773,
				"y": 1.8572794999,
				"z": 2.9681764615,
				"element": "H" 
			},
			{
				"x": 3.3238757436,
				"y": 0.7398562885,
				"z": 3.8170004672,
				"element": "H" 
			},
			{
				"x": -0.9724110618,
				"y": 1.1044436745,
				"z": -0.3806223611,
				"element": "H" 
			},
			{
				"x": 0.1047991624,
				"y": -0.7082184918,
				"z": 2.7082539445,
				"element": "H" 
			},
			{
				"x": -1.5935332054,
				"y": -4.3275303422,
				"z": 3.9357346314,
				"element": "H" 
			},
			{
				"x": -1.5902327898,
				"y": -3.7839680389,
				"z": 5.6341691721,
				"element": "H" 
			},
			{
				"x": -2.9544822363,
				"y": -3.3841002542,
				"z": 4.5431951917,
				"element": "H" 
			},
			{
				"x": -1.7103817983,
				"y": -2.6854647537,
				"z": 0.6692610611,
				"element": "H" 
			},
			{
				"x": -2.2704420985,
				"y": -1.2702940744,
				"z": -1.4235380612,
				"element": "H" 
			},
			{
				"x": -1.3714662704,
				"y": -2.7572827464,
				"z": -1.7307050081,
				"element": "H" 
			},
			{
				"x": 0.577605111,
				"y": -1.7330520878,
				"z": -2.2322307244,
				"element": "H" 
			},
			{
				"x": -0.4387251584,
				"y": -1.9253773022,
				"z": -4.3914218059,
				"element": "H" 
			},
			{
				"x": -2.054916758,
				"y": -1.3952309946,
				"z": -3.8918419619,
				"element": "H" 
			},
			{
				"x": -1.1847670503,
				"y": -0.510183573,
				"z": -5.1485318747,
				"element": "H" 
			},
			{
				"x": -2.3125271669,
				"y": 0.7519313065,
				"z": -2.3988003864,
				"element": "H" 
			},
			{
				"x": -1.6727154821,
				"y": 1.5044597184,
				"z": -3.8626385033,
				"element": "H" 
			},
			{
				"x": -0.9202157856,
				"y": 1.8532509402,
				"z": -2.3118431595,
				"element": "H" 
			},
			{
				"x": 0.8321462787,
				"y": 1.4892004952,
				"z": -3.9289694499,
				"element": "H" 
			},
			{
				"x": 1.1775701034,
				"y": -0.0668093662,
				"z": -4.6479528858,
				"element": "H" 
			},
			{
				"x": 2.4781299619,
				"y": -0.8038311544,
				"z": -2.7626054996,
				"element": "H" 
			},
			{
				"x": 2.9841566116,
				"y": 0.8441793064,
				"z": -3.0807476629,
				"element": "H" 
			},
			{
				"x": 2.7135319137,
				"y": 0.511768409,
				"z": -0.6869107735,
				"element": "H" 
			},
			{
				"x": 2.6833166118,
				"y": 5.0149714453,
				"z": -1.5413105907,
				"element": "H" 
			},
			{
				"x": 0.980198854,
				"y": 4.4504884517,
				"z": -1.5987059619,
				"element": "H" 
			},
			{
				"x": 1.8471512985,
				"y": 4.5479949412,
				"z": -0.0482391786,
				"element": "H" 
			},
			{
				"x": 1.8023295177,
				"y": -1.072393768,
				"z": 0.9920876416,
				"element": "H" 
			},
			{
				"x": 4.32106772,
				"y": -2.9078048032,
				"z": -2.0774699861,
				"element": "H" 
			},
			{
				"x": 5.2570144896,
				"y": -3.4310430229,
				"z": -0.6480799731,
				"element": "H" 
			},
			{
				"x": 3.7407461335,
				"y": -4.2637901532,
				"z": -1.1116989969,
				"element": "H" 
			}
		],
		 "valence_orbital": [ 
			{
				"type": "occ",
				"energy": -0.27578,
				"method": "rhf"
			},
			{
				"type": "occ",
				"energy": -0.27502,
				"method": "rhf"
			},
			{
				"type": "occ",
				"energy": -0.26903,
				"method": "rhf"
			},
			{
				"type": "occ",
				"energy": -0.2537,
				"method": "rhf"
			},
			{
				"type": "occ",
				"energy": -0.24522,
				"method": "rhf"
			},
			{
				"type": "unocc",
				"energy": -0.0336,
				"method": "rhf"
			},
			{
				"type": "unocc",
				"energy": 0.0021,
				"method": "rhf"
			},
			{
				"type": "unocc",
				"energy": 0.00644,
				"method": "rhf"
			},
			{
				"type": "unocc",
				"energy": 0.00878,
				"method": "rhf"
			},
			{
				"type": "unocc",
				"energy": 0.01239,
				"method": "rhf"
			}
		],
		"cosmo_sigma_profile": { 
			"-0.025": 0.0,
			"-0.024": 0.0,
			"-0.023": 0.0,
			"-0.022": 0.0,
			"-0.021": 0.0,
			"-0.02": 0.0,
			"-0.019": 0.0,
			"-0.018": 0.0,
			"-0.017": 0.0,
			"-0.016": 0.0,
			"-0.015": 0.0,
			"-0.014": 0.0,
			"-0.013": 0.0,
			"-0.012": 0.0,
			"-0.011": 0.0,
			"-0.01": 0.0,
			"-0.009": 0.3565282082,
			"-0.008": 1.09454646861,
			"-0.007": 5.5881575795,
			"-0.006": 20.2145406813,
			"-0.005": 32.2156245094,
			"-0.004": 44.9761812489,
			"-0.003": 60.4862969394,
			"-0.002": 77.5637743441,
			"-0.001": 63.8473544931,
			"0.0": 44.8369522129,
			"0.001": 35.653067125,
			"0.002": 22.7667153768,
			"0.003": 15.0033903542,
			"0.004": 12.649567698,
			"0.005": 10.8989113468,
			"0.006": 9.40155366147,
			"0.007": 9.60296942273,
			"0.008": 8.45427818788,
			"0.009": 9.02994188005,
			"0.01": 10.0480464513,
			"0.011": 13.6328623983,
			"0.012": 11.2981881053,
			"0.013": 2.13648771186,
			"0.014": 0.0,
			"0.015": 0.0,
			"0.016": 0.0,
			"0.017": 0.0,
			"0.018": 0.0,
			"0.019": 0.0,
			"0.02": 0.0,
			"0.021": 0.0,
			"0.022": 0.0,
			"0.023": 0.0,
			"0.024": 0.0,
			"0.025": 0.0
		}
	}
}
