{
	 "smiles": "FC1=CN(C(=O)NC2=CC=CC=C2)C(=O)NC1=O", 
	 "Tm": 496.15, 
	 "num_atms": 26, 
	 "gaussian": { 
		 "optdone": 1, 
		 "sigma_profile": "yes", 
		 "theory": "DFT", 
		 "functional": "B3LYP", 
		 "basiset": "6-31G**", 
		 "properties": { 
			 "R2extent": 5366.2394, 
			 "electric_dipole_moment_norm": 4.53890437, 
			 "electric_quadrupole_moment_norm": 9.540303448, 
			 "total_energy": -913.776548999, 
			 "HOMO_LUMO_gap": 0.18923, 
			 "cosmo_polarized_energy": -19.57, 
			 "cosmo_cavitation_energy": 32.28, 
			 "cosmo_dispersion_energy": -22.5, 
			 "cosmo_repulsion_energy": 1.72, 
			 "cosmo_total_nonelectrostatic_energy": 11.5, 
			 "SMD_solvation_energy": 8.88 
		},
		"coords": [
			{
				"x": -3.7776618059,
				"y": -2.6012772451,
				"z": 3.1030963104,
				"element": "F" 
			},
			{
				"x": -2.7246035596,
				"y": -2.2225246486,
				"z": 2.3701998417,
				"element": "C" 
			},
			{
				"x": -1.8116565014,
				"y": -1.3646316949,
				"z": 2.8530657477,
				"element": "C" 
			},
			{
				"x": -0.7286929082,
				"y": -0.9316488561,
				"z": 2.0867010667,
				"element": "N" 
			},
			{
				"x": 0.2292518477,
				"y": -0.0879800893,
				"z": 2.773714464,
				"element": "C" 
			},
			{
				"x": 0.43729584,
				"y": -0.2552198736,
				"z": 3.9612849581,
				"element": "O" 
			},
			{
				"x": 0.8229922839,
				"y": 0.8882482645,
				"z": 2.0346557043,
				"element": "N" 
			},
			{
				"x": 0.4359127157,
				"y": 1.4822539442,
				"z": 0.7995231435,
				"element": "C" 
			},
			{
				"x": 1.4318549546,
				"y": 1.8196740049,
				"z": -0.1221372228,
				"element": "C" 
			},
			{
				"x": 1.0892358823,
				"y": 2.461462987,
				"z": -1.3104228254,
				"element": "C" 
			},
			{
				"x": -0.2467861337,
				"y": 2.7526067318,
				"z": -1.5945751292,
				"element": "C" 
			},
			{
				"x": -1.23823768,
				"y": 2.4127337016,
				"z": -0.6730083332,
				"element": "C" 
			},
			{
				"x": -0.9015768016,
				"y": 1.7934096604,
				"z": 0.530889229,
				"element": "C" 
			},
			{
				"x": -0.433585458,
				"y": -1.5270627776,
				"z": 0.8390394492,
				"element": "C" 
			},
			{
				"x": 0.5947995785,
				"y": -1.3425537281,
				"z": 0.2221160195,
				"element": "O" 
			},
			{
				"x": -1.4449457629,
				"y": -2.3594628956,
				"z": 0.3777044847,
				"element": "N" 
			},
			{
				"x": -2.610476246,
				"y": -2.7970263529,
				"z": 1.0293172173,
				"element": "C" 
			},
			{
				"x": -3.3900754793,
				"y": -3.5704889245,
				"z": 0.5077723819,
				"element": "O" 
			},
			{
				"x": -1.8634136968,
				"y": -0.9593686687,
				"z": 3.854687795,
				"element": "H" 
			},
			{
				"x": 1.5807340306,
				"y": 1.3285872395,
				"z": 2.5406483712,
				"element": "H" 
			},
			{
				"x": 2.4644719814,
				"y": 1.5596504696,
				"z": 0.0892012139,
				"element": "H" 
			},
			{
				"x": 1.8674490559,
				"y": 2.720809107,
				"z": -2.0218842472,
				"element": "H" 
			},
			{
				"x": -0.5125034192,
				"y": 3.2443591132,
				"z": -2.5252415943,
				"element": "H" 
			},
			{
				"x": -2.2782297279,
				"y": 2.6479548929,
				"z": -0.8789184851,
				"element": "H" 
			},
			{
				"x": -1.6700389906,
				"y": 1.566202588,
				"z": 1.2623242138,
				"element": "H" 
			},
			{
				"x": -1.2614139996,
				"y": -2.7805069499,
				"z": -0.5258537746,
				"element": "H" 
			}
		],
		 "valence_orbital": [ 
			{
				"type": "occ",
				"energy": -0.2952,
				"method": "rhf"
			},
			{
				"type": "occ",
				"energy": -0.27839,
				"method": "rhf"
			},
			{
				"type": "occ",
				"energy": -0.26887,
				"method": "rhf"
			},
			{
				"type": "occ",
				"energy": -0.25346,
				"method": "rhf"
			},
			{
				"type": "occ",
				"energy": -0.24663,
				"method": "rhf"
			},
			{
				"type": "unocc",
				"energy": -0.0574,
				"method": "rhf"
			},
			{
				"type": "unocc",
				"energy": -0.03188,
				"method": "rhf"
			},
			{
				"type": "unocc",
				"energy": -0.01938,
				"method": "rhf"
			},
			{
				"type": "unocc",
				"energy": -0.00508,
				"method": "rhf"
			},
			{
				"type": "unocc",
				"energy": 0.02289,
				"method": "rhf"
			}
		],
		"cosmo_sigma_profile": { 
			"-0.025": 0.0,
			"-0.024": 0.0,
			"-0.023": 0.0,
			"-0.022": 0.0,
			"-0.021": 0.0,
			"-0.02": 0.0,
			"-0.019": 0.0,
			"-0.018": 0.0,
			"-0.017": 0.416563176717,
			"-0.016": 1.44036273481,
			"-0.015": 2.03977243886,
			"-0.014": 2.24354317569,
			"-0.013": 1.59645570119,
			"-0.012": 0.840205844064,
			"-0.011": 3.13277225048,
			"-0.01": 2.64670072421,
			"-0.009": 4.41804989223,
			"-0.008": 6.46252648629,
			"-0.007": 8.08219272946,
			"-0.006": 15.5399195016,
			"-0.005": 17.4473535373,
			"-0.004": 19.0918090711,
			"-0.003": 15.3611678062,
			"-0.002": 17.27611084,
			"-0.001": 13.3035085877,
			"0.0": 12.0465486881,
			"0.001": 10.5944674908,
			"0.002": 12.4771387368,
			"0.003": 17.7333524401,
			"0.004": 14.2131937545,
			"0.005": 10.0405288238,
			"0.006": 5.6875079155,
			"0.007": 4.8673671699,
			"0.008": 4.7689328653,
			"0.009": 7.05350580514,
			"0.01": 6.16247962385,
			"0.011": 13.7682064977,
			"0.012": 8.26493449983,
			"0.013": 0.272205351893,
			"0.014": 0.0,
			"0.015": 0.0,
			"0.016": 0.0,
			"0.017": 0.0,
			"0.018": 0.0,
			"0.019": 0.0,
			"0.02": 0.0,
			"0.021": 0.0,
			"0.022": 0.0,
			"0.023": 0.0,
			"0.024": 0.0,
			"0.025": 0.0
		}
	}
}
