{
	 "smiles": "[O-][N+](=O)C1=CC=C(C=C1)N1CCN(CC1)C(=O)CCl", 
	 "Tm": 403.15, 
	 "num_atms": 33, 
	 "gaussian": { 
		 "optdone": 1, 
		 "sigma_profile": "yes", 
		 "theory": "DFT", 
		 "functional": "B3LYP", 
		 "basiset": "6-31G**", 
		 "properties": { 
			 "R2extent": 9847.258, 
			 "electric_dipole_moment_norm": 4.24651426466, 
			 "electric_quadrupole_moment_norm": 53.1646573294, 
			 "total_energy": -1315.73385507, 
			 "HOMO_LUMO_gap": 0.14546, 
			 "cosmo_polarized_energy": -26.16, 
			 "cosmo_cavitation_energy": 37.9, 
			 "cosmo_dispersion_energy": -27.56, 
			 "cosmo_repulsion_energy": 2.1, 
			 "cosmo_total_nonelectrostatic_energy": 12.44, 
			 "SMD_solvation_energy": 7.4 
		},
		"coords": [
			{
				"x": -6.2432487163,
				"y": 1.5646382046,
				"z": -0.1108254312,
				"element": "O" 
			},
			{
				"x": -5.2602728781,
				"y": 2.1960068956,
				"z": -0.5082909347,
				"element": "N" 
			},
			{
				"x": -5.320458092,
				"y": 3.2612412884,
				"z": -1.1287155529,
				"element": "O" 
			},
			{
				"x": -3.9415265945,
				"y": 1.6479210902,
				"z": -0.2273704148,
				"element": "C" 
			},
			{
				"x": -2.801682843,
				"y": 2.3379844048,
				"z": -0.6447326427,
				"element": "C" 
			},
			{
				"x": -1.5477487908,
				"y": 1.816140984,
				"z": -0.377642013,
				"element": "C" 
			},
			{
				"x": -1.3913060656,
				"y": 0.5843795568,
				"z": 0.3083582151,
				"element": "C" 
			},
			{
				"x": -2.5697642282,
				"y": -0.0881705062,
				"z": 0.7167514044,
				"element": "C" 
			},
			{
				"x": -3.8258762769,
				"y": 0.4386930923,
				"z": 0.4566909216,
				"element": "C" 
			},
			{
				"x": -0.1255050205,
				"y": 0.0898570023,
				"z": 0.5985959833,
				"element": "N" 
			},
			{
				"x": 0.0939556057,
				"y": -1.0634938146,
				"z": 1.4709752237,
				"element": "C" 
			},
			{
				"x": 0.3598236941,
				"y": -2.3415068315,
				"z": 0.667764744,
				"element": "C" 
			},
			{
				"x": 1.4761756796,
				"y": -2.1161638528,
				"z": -0.2552499262,
				"element": "N" 
			},
			{
				"x": 1.3232772095,
				"y": -0.9468967055,
				"z": -1.1175317121,
				"element": "C" 
			},
			{
				"x": 1.020881735,
				"y": 0.31144789,
				"z": -0.2782447663,
				"element": "C" 
			},
			{
				"x": 2.4694626211,
				"y": -3.0699382707,
				"z": -0.3335672661,
				"element": "C" 
			},
			{
				"x": 2.4837973684,
				"y": -4.0579174276,
				"z": 0.380024473,
				"element": "O" 
			},
			{
				"x": 3.5670103215,
				"y": -2.7932843954,
				"z": -1.3779287278,
				"element": "C" 
			},
			{
				"x": 4.818394926,
				"y": -4.0702500654,
				"z": -1.397334994,
				"element": "Cl" 
			},
			{
				"x": -2.9156494353,
				"y": 3.2841660539,
				"z": -1.159228889,
				"element": "H" 
			},
			{
				"x": -0.6783808447,
				"y": 2.3922989559,
				"z": -0.6709334757,
				"element": "H" 
			},
			{
				"x": -2.5119098946,
				"y": -1.0460357794,
				"z": 1.2179751914,
				"element": "H" 
			},
			{
				"x": -4.7240712238,
				"y": -0.0840023838,
				"z": 0.7618121541,
				"element": "H" 
			},
			{
				"x": -0.749634921,
				"y": -1.192726338,
				"z": 2.1485941758,
				"element": "H" 
			},
			{
				"x": 0.974583423,
				"y": -0.8481411828,
				"z": 2.0906641974,
				"element": "H" 
			},
			{
				"x": 0.6327164749,
				"y": -3.1738909173,
				"z": 1.3167080535,
				"element": "H" 
			},
			{
				"x": -0.5383858684,
				"y": -2.6214807922,
				"z": 0.0985858583,
				"element": "H" 
			},
			{
				"x": 2.2294274488,
				"y": -0.7765864383,
				"z": -1.6998099415,
				"element": "H" 
			},
			{
				"x": 0.4960289969,
				"y": -1.1091506863,
				"z": -1.8250257282,
				"element": "H" 
			},
			{
				"x": 1.8982948358,
				"y": 0.5561723812,
				"z": 0.3349514126,
				"element": "H" 
			},
			{
				"x": 0.8382921325,
				"y": 1.1485469574,
				"z": -0.9502518936,
				"element": "H" 
			},
			{
				"x": 3.1400336645,
				"y": -2.7415791016,
				"z": -2.3821360309,
				"element": "H" 
			},
			{
				"x": 4.0737655562,
				"y": -1.8485792678,
				"z": -1.1686316674,
				"element": "H" 
			}
		],
		 "valence_orbital": [ 
			{
				"type": "occ",
				"energy": -0.27946,
				"method": "rhf"
			},
			{
				"type": "occ",
				"energy": -0.27895,
				"method": "rhf"
			},
			{
				"type": "occ",
				"energy": -0.27506,
				"method": "rhf"
			},
			{
				"type": "occ",
				"energy": -0.26787,
				"method": "rhf"
			},
			{
				"type": "occ",
				"energy": -0.22345,
				"method": "rhf"
			},
			{
				"type": "unocc",
				"energy": -0.07799,
				"method": "rhf"
			},
			{
				"type": "unocc",
				"energy": -0.02842,
				"method": "rhf"
			},
			{
				"type": "unocc",
				"energy": 0.00077,
				"method": "rhf"
			},
			{
				"type": "unocc",
				"energy": 0.0092,
				"method": "rhf"
			},
			{
				"type": "unocc",
				"energy": 0.01505,
				"method": "rhf"
			}
		],
		"cosmo_sigma_profile": { 
			"-0.025": 0.0,
			"-0.024": 0.0,
			"-0.023": 0.0,
			"-0.022": 0.0,
			"-0.021": 0.0,
			"-0.02": 0.0,
			"-0.019": 0.0,
			"-0.018": 0.0,
			"-0.017": 0.0,
			"-0.016": 0.0,
			"-0.015": 0.0,
			"-0.014": 0.0,
			"-0.013": 0.0,
			"-0.012": 0.0,
			"-0.011": 0.12127831991,
			"-0.01": 2.45297413459,
			"-0.009": 9.0747788956,
			"-0.008": 10.7918028399,
			"-0.007": 12.236519049,
			"-0.006": 19.4313057125,
			"-0.005": 30.8954716697,
			"-0.004": 25.1119935957,
			"-0.003": 17.4798504159,
			"-0.002": 14.3020546961,
			"-0.001": 14.5312950271,
			"0.0": 15.0758560051,
			"0.001": 14.6443025226,
			"0.002": 18.2798921561,
			"0.003": 18.3033520131,
			"0.004": 10.650011157,
			"0.005": 9.39292766247,
			"0.006": 10.4811552117,
			"0.007": 7.70389909579,
			"0.008": 7.84657977955,
			"0.009": 10.8130083803,
			"0.01": 7.32644248357,
			"0.011": 4.95419741909,
			"0.012": 3.63967360387,
			"0.013": 4.81587813527,
			"0.014": 2.39773662944,
			"0.015": 0.347766745827,
			"0.016": 0.0,
			"0.017": 0.0,
			"0.018": 0.0,
			"0.019": 0.0,
			"0.02": 0.0,
			"0.021": 0.0,
			"0.022": 0.0,
			"0.023": 0.0,
			"0.024": 0.0,
			"0.025": 0.0
		}
	}
}
