{
	 "smiles": "CCCC(C)C(N)C(O)=O", 
	 "Tm": 533.15, 
	 "num_atms": 25, 
	 "gaussian": { 
		 "optdone": 1, 
		 "sigma_profile": "yes", 
		 "theory": "DFT", 
		 "functional": "B3LYP", 
		 "basiset": "6-31G**", 
		 "properties": { 
			 "R2extent": 2229.2236, 
			 "electric_dipole_moment_norm": 2.11434474483, 
			 "electric_quadrupole_moment_norm": 9.74853929007, 
			 "total_energy": -481.006970252, 
			 "HOMO_LUMO_gap": 0.24567, 
			 "cosmo_polarized_energy": -10.99, 
			 "cosmo_cavitation_energy": 26.4, 
			 "cosmo_dispersion_energy": -18.72, 
			 "cosmo_repulsion_energy": 1.55, 
			 "cosmo_total_nonelectrostatic_energy": 9.23, 
			 "SMD_solvation_energy": 4.79 
		},
		"coords": [
			{
				"x": -2.5368631709,
				"y": -1.5819397478,
				"z": 1.040612785,
				"element": "C" 
			},
			{
				"x": -1.8941866102,
				"y": -0.9007139564,
				"z": -0.1737024313,
				"element": "C" 
			},
			{
				"x": -0.3575698029,
				"y": -0.9804968218,
				"z": -0.2099843713,
				"element": "C" 
			},
			{
				"x": 0.4061988769,
				"y": -0.3232561202,
				"z": 0.9598331292,
				"element": "C" 
			},
			{
				"x": 1.9181353602,
				"y": -0.5411963813,
				"z": 0.7988020077,
				"element": "C" 
			},
			{
				"x": 0.0539427115,
				"y": 1.1782844166,
				"z": 1.1093142544,
				"element": "C" 
			},
			{
				"x": 0.4636847607,
				"y": 1.9514838684,
				"z": -0.0642045373,
				"element": "N" 
			},
			{
				"x": 0.655560972,
				"y": 1.7472107402,
				"z": 2.3897617839,
				"element": "C" 
			},
			{
				"x": 0.922662261,
				"y": 3.0738452782,
				"z": 2.2977453385,
				"element": "O" 
			},
			{
				"x": 0.8235097031,
				"y": 1.1281176197,
				"z": 3.4176225458,
				"element": "O" 
			},
			{
				"x": -3.6294555637,
				"y": -1.5585679576,
				"z": 0.9727583365,
				"element": "H" 
			},
			{
				"x": -2.2304377744,
				"y": -2.6321801842,
				"z": 1.1086736792,
				"element": "H" 
			},
			{
				"x": -2.2558291034,
				"y": -1.0968428184,
				"z": 1.9810353853,
				"element": "H" 
			},
			{
				"x": -2.2791452145,
				"y": -1.3676123341,
				"z": -1.0892486527,
				"element": "H" 
			},
			{
				"x": -2.2233820186,
				"y": 0.1468157274,
				"z": -0.2202179482,
				"element": "H" 
			},
			{
				"x": -0.0663416589,
				"y": -2.0390441782,
				"z": -0.2400189787,
				"element": "H" 
			},
			{
				"x": 0.0034622176,
				"y": -0.5524306346,
				"z": -1.1554588821,
				"element": "H" 
			},
			{
				"x": 0.0921798253,
				"y": -0.7974300137,
				"z": 1.8962365978,
				"element": "H" 
			},
			{
				"x": 2.2948642251,
				"y": -0.0086062166,
				"z": -0.0787424788,
				"element": "H" 
			},
			{
				"x": 2.4642121726,
				"y": -0.1854207846,
				"z": 1.677164889,
				"element": "H" 
			},
			{
				"x": 2.1402979373,
				"y": -1.6070968028,
				"z": 0.6807833783,
				"element": "H" 
			},
			{
				"x": -1.0344590494,
				"y": 1.2418036927,
				"z": 1.3064108833,
				"element": "H" 
			},
			{
				"x": -0.1466333137,
				"y": 1.7325836199,
				"z": -0.8458556603,
				"element": "H" 
			},
			{
				"x": 0.3734783787,
				"y": 2.945345069,
				"z": 0.1210700527,
				"element": "H" 
			},
			{
				"x": 1.2568138788,
				"y": 3.3406449203,
				"z": 3.1706088939,
				"element": "H" 
			}
		],
		 "valence_orbital": [ 
			{
				"type": "occ",
				"energy": -0.31976,
				"method": "rhf"
			},
			{
				"type": "occ",
				"energy": -0.31826,
				"method": "rhf"
			},
			{
				"type": "occ",
				"energy": -0.30887,
				"method": "rhf"
			},
			{
				"type": "occ",
				"energy": -0.2749,
				"method": "rhf"
			},
			{
				"type": "occ",
				"energy": -0.23857,
				"method": "rhf"
			},
			{
				"type": "unocc",
				"energy": 0.0071,
				"method": "rhf"
			},
			{
				"type": "unocc",
				"energy": 0.06376,
				"method": "rhf"
			},
			{
				"type": "unocc",
				"energy": 0.08473,
				"method": "rhf"
			},
			{
				"type": "unocc",
				"energy": 0.10311,
				"method": "rhf"
			},
			{
				"type": "unocc",
				"energy": 0.11791,
				"method": "rhf"
			}
		],
		"cosmo_sigma_profile": { 
			"-0.025": 0.0,
			"-0.024": 0.0,
			"-0.023": 0.0,
			"-0.022": 0.0,
			"-0.021": 0.0,
			"-0.02": 0.0,
			"-0.019": 0.0,
			"-0.018": 0.830759720338,
			"-0.017": 0.755226578952,
			"-0.016": 1.13764391079,
			"-0.015": 0.395509617564,
			"-0.014": 1.12435475482,
			"-0.013": 0.701729772743,
			"-0.012": 0.57058905235,
			"-0.011": 0.401983246485,
			"-0.01": 1.32502886786,
			"-0.009": 1.9993960036,
			"-0.008": 3.25619773934,
			"-0.007": 3.93895804605,
			"-0.006": 5.02005350895,
			"-0.005": 5.99335185012,
			"-0.004": 7.89742915579,
			"-0.003": 12.2943439529,
			"-0.002": 23.8343009445,
			"-0.001": 24.9045479596,
			"0.0": 27.0891508032,
			"0.001": 25.6148362616,
			"0.002": 14.2810657346,
			"0.003": 4.54515713882,
			"0.004": 3.46445187744,
			"0.005": 4.21059705068,
			"0.006": 3.91761137958,
			"0.007": 3.70434400818,
			"0.008": 2.83836973174,
			"0.009": 2.77791493706,
			"0.01": 2.3039653495,
			"0.011": 3.94629178284,
			"0.012": 5.33021917096,
			"0.013": 0.753722650178,
			"0.014": 0.99638183057,
			"0.015": 0.500193908438,
			"0.016": 0.543442616918,
			"0.017": 0.142153097934,
			"0.018": 0.0,
			"0.019": 0.0,
			"0.02": 0.0,
			"0.021": 0.0,
			"0.022": 0.0,
			"0.023": 0.0,
			"0.024": 0.0,
			"0.025": 0.0
		}
	}
}
