{
	 "smiles": "CNC(=O)CN1N=C(N)C=C1C", 
	 "Tm": 389.15, 
	 "num_atms": 24, 
	 "gaussian": { 
		 "optdone": 1, 
		 "sigma_profile": "yes", 
		 "theory": "DFT", 
		 "functional": "B3LYP", 
		 "basiset": "6-31G**", 
		 "properties": { 
			 "R2extent": 2859.8584, 
			 "electric_dipole_moment_norm": 2.30485467004, 
			 "electric_quadrupole_moment_norm": 17.1246678549, 
			 "total_energy": -568.20333239, 
			 "HOMO_LUMO_gap": 0.20979, 
			 "cosmo_polarized_energy": -15.82, 
			 "cosmo_cavitation_energy": 27.17, 
			 "cosmo_dispersion_energy": -19.61, 
			 "cosmo_repulsion_energy": 1.6, 
			 "cosmo_total_nonelectrostatic_energy": 9.15, 
			 "SMD_solvation_energy": 4.27 
		},
		"coords": [
			{
				"x": 0.4296625592,
				"y": 3.0797324923,
				"z": -0.5585784739,
				"element": "C" 
			},
			{
				"x": 0.4264159628,
				"y": 2.9364889157,
				"z": 0.8923933115,
				"element": "N" 
			},
			{
				"x": 0.1140492457,
				"y": 1.8402721848,
				"z": 1.6352433009,
				"element": "C" 
			},
			{
				"x": 0.1458156153,
				"y": 1.8570889614,
				"z": 2.8634033899,
				"element": "O" 
			},
			{
				"x": -0.2666748248,
				"y": 0.5476853024,
				"z": 0.8867703618,
				"element": "C" 
			},
			{
				"x": 0.8902051467,
				"y": -0.2553477247,
				"z": 0.5385928903,
				"element": "N" 
			},
			{
				"x": 1.452793849,
				"y": -0.1081593036,
				"z": -0.7039187946,
				"element": "N" 
			},
			{
				"x": 2.5277384743,
				"y": -0.8930881737,
				"z": -0.6773509707,
				"element": "C" 
			},
			{
				"x": 3.3124131022,
				"y": -1.0703188656,
				"z": -1.8184281405,
				"element": "N" 
			},
			{
				"x": 2.6805615526,
				"y": -1.5293724113,
				"z": 0.5807065347,
				"element": "C" 
			},
			{
				"x": 1.6134007978,
				"y": -1.0865414342,
				"z": 1.3429007333,
				"element": "C" 
			},
			{
				"x": 1.2172092832,
				"y": -1.4054539953,
				"z": 2.7507196712,
				"element": "C" 
			},
			{
				"x": 1.1355605185,
				"y": 3.8693969877,
				"z": -0.8286384947,
				"element": "H" 
			},
			{
				"x": 0.7643868447,
				"y": 2.1535263317,
				"z": -1.0305665409,
				"element": "H" 
			},
			{
				"x": -0.5572602169,
				"y": 3.3585192099,
				"z": -0.9520316518,
				"element": "H" 
			},
			{
				"x": 0.6518401936,
				"y": 3.7447819839,
				"z": 1.4573291689,
				"element": "H" 
			},
			{
				"x": -0.8161016461,
				"y": 0.738626567,
				"z": -0.0368528652,
				"element": "H" 
			},
			{
				"x": -0.9071579268,
				"y": -0.0162568339,
				"z": 1.5673060791,
				"element": "H" 
			},
			{
				"x": 4.3014619804,
				"y": -1.1458111771,
				"z": -1.617722519,
				"element": "H" 
			},
			{
				"x": 3.1373930857,
				"y": -0.3528025739,
				"z": -2.5116661064,
				"element": "H" 
			},
			{
				"x": 3.4439740071,
				"y": -2.2316291873,
				"z": 0.8820329117,
				"element": "H" 
			},
			{
				"x": 2.024552407,
				"y": -1.9474513963,
				"z": 3.2478700596,
				"element": "H" 
			},
			{
				"x": 0.3227171438,
				"y": -2.0406417217,
				"z": 2.7826741752,
				"element": "H" 
			},
			{
				"x": 0.9997428452,
				"y": -0.4959441381,
				"z": 3.3184119696,
				"element": "H" 
			}
		],
		 "valence_orbital": [ 
			{
				"type": "occ",
				"energy": -0.28184,
				"method": "rhf"
			},
			{
				"type": "occ",
				"energy": -0.25119,
				"method": "rhf"
			},
			{
				"type": "occ",
				"energy": -0.24967,
				"method": "rhf"
			},
			{
				"type": "occ",
				"energy": -0.22714,
				"method": "rhf"
			},
			{
				"type": "occ",
				"energy": -0.19601,
				"method": "rhf"
			},
			{
				"type": "unocc",
				"energy": 0.01378,
				"method": "rhf"
			},
			{
				"type": "unocc",
				"energy": 0.03413,
				"method": "rhf"
			},
			{
				"type": "unocc",
				"energy": 0.08085,
				"method": "rhf"
			},
			{
				"type": "unocc",
				"energy": 0.08363,
				"method": "rhf"
			},
			{
				"type": "unocc",
				"energy": 0.10499,
				"method": "rhf"
			}
		],
		"cosmo_sigma_profile": { 
			"-0.025": 0.0,
			"-0.024": 0.0,
			"-0.023": 0.0,
			"-0.022": 0.0,
			"-0.021": 0.0,
			"-0.02": 0.0,
			"-0.019": 0.0,
			"-0.018": 0.0,
			"-0.017": 0.0,
			"-0.016": 0.0,
			"-0.015": 0.0,
			"-0.014": 0.36472559891,
			"-0.013": 1.53767219385,
			"-0.012": 2.37069550987,
			"-0.011": 3.36962220581,
			"-0.01": 3.2233095852,
			"-0.009": 3.77400307116,
			"-0.008": 3.48306867033,
			"-0.007": 5.4822120864,
			"-0.006": 12.1090289852,
			"-0.005": 16.3275085047,
			"-0.004": 17.8216789188,
			"-0.003": 14.5583402799,
			"-0.002": 15.7344800815,
			"-0.001": 15.851310685,
			"0.0": 11.9189117578,
			"0.001": 10.317149804,
			"0.002": 8.22470871187,
			"0.003": 9.71957043612,
			"0.004": 7.22523940435,
			"0.005": 7.63109000832,
			"0.006": 8.34869130385,
			"0.007": 6.78582819069,
			"0.008": 4.37510502035,
			"0.009": 2.87483684884,
			"0.01": 2.0100757279,
			"0.011": 4.07750836877,
			"0.012": 3.23104461206,
			"0.013": 4.27317176502,
			"0.014": 5.31372698908,
			"0.015": 1.25547181243,
			"0.016": 0.284566365007,
			"0.017": 0.0,
			"0.018": 0.0,
			"0.019": 0.0,
			"0.02": 0.0,
			"0.021": 0.0,
			"0.022": 0.0,
			"0.023": 0.0,
			"0.024": 0.0,
			"0.025": 0.0
		}
	}
}
