{
	 "smiles": "CC(C)(C)C(=O)C1=C(N)SC=C1", 
	 "Tm": 375.15, 
	 "num_atms": 25, 
	 "gaussian": { 
		 "optdone": 1, 
		 "sigma_profile": "yes", 
		 "theory": "DFT", 
		 "functional": "B3LYP", 
		 "basiset": "6-31G**", 
		 "properties": { 
			 "R2extent": 2945.1237, 
			 "electric_dipole_moment_norm": 1.39746604252, 
			 "electric_quadrupole_moment_norm": 8.36740746827, 
			 "total_energy": -878.958010377, 
			 "HOMO_LUMO_gap": 0.16905, 
			 "cosmo_polarized_energy": -8.84, 
			 "cosmo_cavitation_energy": 27.91, 
			 "cosmo_dispersion_energy": -21.04, 
			 "cosmo_repulsion_energy": 1.62, 
			 "cosmo_total_nonelectrostatic_energy": 8.49, 
			 "SMD_solvation_energy": 5.26 
		},
		"coords": [
			{
				"x": -1.8488252565,
				"y": -0.569373697,
				"z": -1.4350471604,
				"element": "C" 
			},
			{
				"x": -0.5849647944,
				"y": 0.2804434385,
				"z": -1.7071188963,
				"element": "C" 
			},
			{
				"x": 0.2824987087,
				"y": -0.462822963,
				"z": -2.7401903366,
				"element": "C" 
			},
			{
				"x": -0.961547832,
				"y": 1.6612323919,
				"z": -2.2942140608,
				"element": "C" 
			},
			{
				"x": 0.2395232853,
				"y": 0.454745195,
				"z": -0.4040611029,
				"element": "C" 
			},
			{
				"x": 1.3950729076,
				"y": -0.0037467593,
				"z": -0.3805680865,
				"element": "O" 
			},
			{
				"x": -0.30052712,
				"y": 1.1298916105,
				"z": 0.7779945458,
				"element": "C" 
			},
			{
				"x": 0.4889078301,
				"y": 1.2443906789,
				"z": 1.9389408093,
				"element": "C" 
			},
			{
				"x": 1.7648507515,
				"y": 0.8325550006,
				"z": 2.0883355437,
				"element": "N" 
			},
			{
				"x": -0.3656023039,
				"y": 2.0525021271,
				"z": 3.2366743053,
				"element": "S" 
			},
			{
				"x": -1.7930899118,
				"y": 2.2414663224,
				"z": 2.229188117,
				"element": "C" 
			},
			{
				"x": -1.6039053656,
				"y": 1.7209831845,
				"z": 0.9933601321,
				"element": "C" 
			},
			{
				"x": -1.5757791889,
				"y": -1.5521638428,
				"z": -1.0365390598,
				"element": "H" 
			},
			{
				"x": -2.3927115869,
				"y": -0.7296873169,
				"z": -2.3726269335,
				"element": "H" 
			},
			{
				"x": -2.5373099972,
				"y": -0.1048235039,
				"z": -0.7266073659,
				"element": "H" 
			},
			{
				"x": 0.5822680159,
				"y": -1.4472057148,
				"z": -2.3729010181,
				"element": "H" 
			},
			{
				"x": 1.1961087613,
				"y": 0.0925792735,
				"z": -2.965320898,
				"element": "H" 
			},
			{
				"x": -0.2843327953,
				"y": -0.5939341913,
				"z": -3.6683176584,
				"element": "H" 
			},
			{
				"x": -0.0628292937,
				"y": 2.2510164375,
				"z": -2.5030826488,
				"element": "H" 
			},
			{
				"x": -1.4975713118,
				"y": 1.524503187,
				"z": -3.240002593,
				"element": "H" 
			},
			{
				"x": -1.5986483505,
				"y": 2.252398106,
				"z": -1.6336265248,
				"element": "H" 
			},
			{
				"x": 2.1264983099,
				"y": 0.312103658,
				"z": 1.2898860935,
				"element": "H" 
			},
			{
				"x": 2.2008888874,
				"y": 0.795936313,
				"z": 2.9945705419,
				"element": "H" 
			},
			{
				"x": -2.6679772897,
				"y": 2.7275902062,
				"z": 2.6348746545,
				"element": "H" 
			},
			{
				"x": -2.3826950595,
				"y": 1.7531208584,
				"z": 0.2444996007,
				"element": "H" 
			}
		],
		 "valence_orbital": [ 
			{
				"type": "occ",
				"energy": -0.32066,
				"method": "rhf"
			},
			{
				"type": "occ",
				"energy": -0.31731,
				"method": "rhf"
			},
			{
				"type": "occ",
				"energy": -0.25323,
				"method": "rhf"
			},
			{
				"type": "occ",
				"energy": -0.23869,
				"method": "rhf"
			},
			{
				"type": "occ",
				"energy": -0.19766,
				"method": "rhf"
			},
			{
				"type": "unocc",
				"energy": -0.02861,
				"method": "rhf"
			},
			{
				"type": "unocc",
				"energy": 0.00843,
				"method": "rhf"
			},
			{
				"type": "unocc",
				"energy": 0.01167,
				"method": "rhf"
			},
			{
				"type": "unocc",
				"energy": 0.08555,
				"method": "rhf"
			},
			{
				"type": "unocc",
				"energy": 0.09298,
				"method": "rhf"
			}
		],
		"cosmo_sigma_profile": { 
			"-0.025": 0.0,
			"-0.024": 0.0,
			"-0.023": 0.0,
			"-0.022": 0.0,
			"-0.021": 0.0,
			"-0.02": 0.0,
			"-0.019": 0.0,
			"-0.018": 0.0,
			"-0.017": 0.0,
			"-0.016": 0.0104048578704,
			"-0.015": 0.737898308821,
			"-0.014": 1.39036426028,
			"-0.013": 1.482927344,
			"-0.012": 0.877592630895,
			"-0.011": 0.904711315387,
			"-0.01": 1.56753246363,
			"-0.009": 2.68748936737,
			"-0.008": 3.23456299114,
			"-0.007": 4.44598273666,
			"-0.006": 5.90667367882,
			"-0.005": 6.17428037055,
			"-0.004": 6.89687915649,
			"-0.003": 17.3022587428,
			"-0.002": 22.5682832392,
			"-0.001": 19.8829817053,
			"0.0": 23.9097384372,
			"0.001": 25.1791809693,
			"0.002": 17.9118323716,
			"0.003": 15.6856790685,
			"0.004": 14.5249394054,
			"0.005": 10.7535296481,
			"0.006": 5.06927314101,
			"0.007": 2.662780831,
			"0.008": 1.32460111417,
			"0.009": 1.87555961674,
			"0.01": 1.92929696974,
			"0.011": 1.23572156718,
			"0.012": 1.86750943538,
			"0.013": 1.33042238859,
			"0.014": 0.360021734787,
			"0.015": 0.0,
			"0.016": 0.0,
			"0.017": 0.0,
			"0.018": 0.0,
			"0.019": 0.0,
			"0.02": 0.0,
			"0.021": 0.0,
			"0.022": 0.0,
			"0.023": 0.0,
			"0.024": 0.0,
			"0.025": 0.0
		}
	}
}
