{
	 "smiles": "S=C1NC(=S)C(N1)(C1=CC=CC=C1)C1=CC=CC=C1", 
	 "Tm": 536.15, 
	 "num_atms": 31, 
	 "gaussian": { 
		 "optdone": 1, 
		 "sigma_profile": "yes", 
		 "theory": "DFT", 
		 "functional": "B3LYP", 
		 "basiset": "6-31G**", 
		 "properties": { 
			 "R2extent": 6450.4141, 
			 "electric_dipole_moment_norm": 3.88339998712, 
			 "electric_quadrupole_moment_norm": 16.4985906428, 
			 "total_energy": -1484.72162532, 
			 "HOMO_LUMO_gap": 0.14719, 
			 "cosmo_polarized_energy": -16.74, 
			 "cosmo_cavitation_energy": 38.11, 
			 "cosmo_dispersion_energy": -26.7, 
			 "cosmo_repulsion_energy": 2.0, 
			 "cosmo_total_nonelectrostatic_energy": 13.41, 
			 "SMD_solvation_energy": 4.39 
		},
		"coords": [
			{
				"x": -3.9778998071,
				"y": -1.6663862459,
				"z": 3.0381604657,
				"element": "S" 
			},
			{
				"x": -2.7260589625,
				"y": -0.7629820185,
				"z": 2.4407299538,
				"element": "C" 
			},
			{
				"x": -2.3669040115,
				"y": 0.5136613246,
				"z": 2.8757712699,
				"element": "N" 
			},
			{
				"x": -1.2534443169,
				"y": 1.0303075505,
				"z": 2.2867318373,
				"element": "C" 
			},
			{
				"x": -0.58346405,
				"y": 2.4928313641,
				"z": 2.6152057927,
				"element": "S" 
			},
			{
				"x": -0.7920423417,
				"y": -0.0443181079,
				"z": 1.2589592589,
				"element": "C" 
			},
			{
				"x": -1.8434490001,
				"y": -1.0602984341,
				"z": 1.4633182659,
				"element": "N" 
			},
			{
				"x": -0.8498402113,
				"y": 0.5553198576,
				"z": -0.1567850915,
				"element": "C" 
			},
			{
				"x": -1.9658608153,
				"y": 0.3619254158,
				"z": -0.9779392898,
				"element": "C" 
			},
			{
				"x": -2.0209010797,
				"y": 0.9478135469,
				"z": -2.2448904395,
				"element": "C" 
			},
			{
				"x": -0.9666319481,
				"y": 1.7389982627,
				"z": -2.6988182467,
				"element": "C" 
			},
			{
				"x": 0.1458033519,
				"y": 1.9425881441,
				"z": -1.8786917501,
				"element": "C" 
			},
			{
				"x": 0.2063127246,
				"y": 1.3553728616,
				"z": -0.6163562538,
				"element": "C" 
			},
			{
				"x": 0.5689480502,
				"y": -0.6830049228,
				"z": 1.592313173,
				"element": "C" 
			},
			{
				"x": 1.2092703608,
				"y": -1.4583544968,
				"z": 0.6141460596,
				"element": "C" 
			},
			{
				"x": 2.3844537578,
				"y": -2.148095072,
				"z": 0.9112542089,
				"element": "C" 
			},
			{
				"x": 2.9384281546,
				"y": -2.0714727129,
				"z": 2.1900591787,
				"element": "C" 
			},
			{
				"x": 2.3056993995,
				"y": -1.3050116313,
				"z": 3.1687885097,
				"element": "C" 
			},
			{
				"x": 1.1258890575,
				"y": -0.619430791,
				"z": 2.8751568531,
				"element": "C" 
			},
			{
				"x": -2.9005607844,
				"y": 1.0019608498,
				"z": 3.5828104408,
				"element": "H" 
			},
			{
				"x": -1.7785098613,
				"y": -1.9972426771,
				"z": 1.0942211232,
				"element": "H" 
			},
			{
				"x": -2.7947350247,
				"y": -0.2455876076,
				"z": -0.6307207804,
				"element": "H" 
			},
			{
				"x": -2.8919443939,
				"y": 0.7842627839,
				"z": -2.8726755502,
				"element": "H" 
			},
			{
				"x": -1.0098362184,
				"y": 2.1950008338,
				"z": -3.6835950434,
				"element": "H" 
			},
			{
				"x": 0.9708962243,
				"y": 2.5598161335,
				"z": -2.2217961797,
				"element": "H" 
			},
			{
				"x": 1.0713604346,
				"y": 1.520194577,
				"z": 0.0159386292,
				"element": "H" 
			},
			{
				"x": 0.7945839479,
				"y": -1.5129039112,
				"z": -0.3876776394,
				"element": "H" 
			},
			{
				"x": 2.8682205327,
				"y": -2.740671296,
				"z": 0.140259031,
				"element": "H" 
			},
			{
				"x": 3.8566641427,
				"y": -2.6033810242,
				"z": 2.420864758,
				"element": "H" 
			},
			{
				"x": 2.7285365109,
				"y": -1.2367984475,
				"z": 4.166720659,
				"element": "H" 
			},
			{
				"x": 0.6515161771,
				"y": -0.026314109,
				"z": 3.6489367962,
				"element": "H" 
			}
		],
		 "valence_orbital": [ 
			{
				"type": "occ",
				"energy": -0.26199,
				"method": "rhf"
			},
			{
				"type": "occ",
				"energy": -0.25141,
				"method": "rhf"
			},
			{
				"type": "occ",
				"energy": -0.23833,
				"method": "rhf"
			},
			{
				"type": "occ",
				"energy": -0.2362,
				"method": "rhf"
			},
			{
				"type": "occ",
				"energy": -0.22575,
				"method": "rhf"
			},
			{
				"type": "unocc",
				"energy": -0.07856,
				"method": "rhf"
			},
			{
				"type": "unocc",
				"energy": -0.02757,
				"method": "rhf"
			},
			{
				"type": "unocc",
				"energy": -0.0212,
				"method": "rhf"
			},
			{
				"type": "unocc",
				"energy": -0.01686,
				"method": "rhf"
			},
			{
				"type": "unocc",
				"energy": -0.00763,
				"method": "rhf"
			}
		],
		"cosmo_sigma_profile": { 
			"-0.025": 0.0,
			"-0.024": 0.0,
			"-0.023": 0.0,
			"-0.022": 0.0,
			"-0.021": 0.0,
			"-0.02": 0.0,
			"-0.019": 0.0,
			"-0.018": 0.0,
			"-0.017": 0.828420670871,
			"-0.016": 1.51049393579,
			"-0.015": 1.86968366416,
			"-0.014": 1.65955246095,
			"-0.013": 0.98785963232,
			"-0.012": 2.76066889018,
			"-0.011": 2.14515878505,
			"-0.01": 1.80492747784,
			"-0.009": 1.69403978135,
			"-0.008": 2.14715905401,
			"-0.007": 3.59988267961,
			"-0.006": 16.8852078337,
			"-0.005": 25.8031773794,
			"-0.004": 27.1350373941,
			"-0.003": 21.0234994777,
			"-0.002": 15.3263599924,
			"-0.001": 16.3346743811,
			"0.0": 14.7554939954,
			"0.001": 16.9633254068,
			"0.002": 21.0391410655,
			"0.003": 21.3857836023,
			"0.004": 25.220691713,
			"0.005": 24.2572296802,
			"0.006": 11.6242225415,
			"0.007": 10.5081859218,
			"0.008": 9.66238265888,
			"0.009": 6.53466119861,
			"0.01": 4.59566536021,
			"0.011": 0.985417530206,
			"0.012": 0.0,
			"0.013": 0.0,
			"0.014": 0.0,
			"0.015": 0.0,
			"0.016": 0.0,
			"0.017": 0.0,
			"0.018": 0.0,
			"0.019": 0.0,
			"0.02": 0.0,
			"0.021": 0.0,
			"0.022": 0.0,
			"0.023": 0.0,
			"0.024": 0.0,
			"0.025": 0.0
		}
	}
}
