{
	 "smiles": "CCC(C)C=O", 
	 "Tm": 364.15, 
	 "num_atms": 16, 
	 "gaussian": { 
		 "optdone": 1, 
		 "sigma_profile": "yes", 
		 "theory": "DFT", 
		 "functional": "B3LYP", 
		 "basiset": "6-31G**", 
		 "properties": { 
			 "R2extent": 969.5832, 
			 "electric_dipole_moment_norm": 2.62948934586, 
			 "electric_quadrupole_moment_norm": 9.14282853826, 
			 "total_energy": -271.780371354, 
			 "HOMO_LUMO_gap": 0.22801, 
			 "cosmo_polarized_energy": -5.8, 
			 "cosmo_cavitation_energy": 18.4, 
			 "cosmo_dispersion_energy": -13.25, 
			 "cosmo_repulsion_energy": 1.15, 
			 "cosmo_total_nonelectrostatic_energy": 6.31, 
			 "SMD_solvation_energy": 4.24 
		},
		"coords": [
			{
				"x": -2.2368552836,
				"y": -0.6296388352,
				"z": -0.3362308845,
				"element": "C" 
			},
			{
				"x": -0.8832561913,
				"y": -0.3128075687,
				"z": 0.3107927335,
				"element": "C" 
			},
			{
				"x": -0.1034563778,
				"y": 0.8514108639,
				"z": -0.3520060699,
				"element": "C" 
			},
			{
				"x": 0.2348274044,
				"y": 0.6329261184,
				"z": -1.8280286317,
				"element": "C" 
			},
			{
				"x": -0.8386675805,
				"y": 2.1593500786,
				"z": -0.1236534608,
				"element": "C" 
			},
			{
				"x": -1.1336376883,
				"y": 2.9573836503,
				"z": -0.9860606522,
				"element": "O" 
			},
			{
				"x": -2.1233503082,
				"y": -0.9626963514,
				"z": -1.372133227,
				"element": "H" 
			},
			{
				"x": -2.8971971952,
				"y": 0.2448593946,
				"z": -0.3414130516,
				"element": "H" 
			},
			{
				"x": -2.7480384724,
				"y": -1.4272676898,
				"z": 0.2118736743,
				"element": "H" 
			},
			{
				"x": -0.2468079387,
				"y": -1.2054823562,
				"z": 0.2918475261,
				"element": "H" 
			},
			{
				"x": -1.0354381646,
				"y": -0.072071981,
				"z": 1.3715513017,
				"element": "H" 
			},
			{
				"x": 0.8335506235,
				"y": 0.9559481511,
				"z": 0.2209625154,
				"element": "H" 
			},
			{
				"x": -0.6680425149,
				"y": 0.6050083992,
				"z": -2.4433886326,
				"element": "H" 
			},
			{
				"x": 0.855305465,
				"y": 1.4488897946,
				"z": -2.207404741,
				"element": "H" 
			},
			{
				"x": 0.7775171773,
				"y": -0.3077020881,
				"z": -1.965609933,
				"element": "H" 
			},
			{
				"x": -1.1038529548,
				"y": 2.3541904197,
				"z": 0.9432015332,
				"element": "H" 
			}
		],
		 "valence_orbital": [ 
			{
				"type": "occ",
				"energy": -0.37438,
				"method": "rhf"
			},
			{
				"type": "occ",
				"energy": -0.35183,
				"method": "rhf"
			},
			{
				"type": "occ",
				"energy": -0.33592,
				"method": "rhf"
			},
			{
				"type": "occ",
				"energy": -0.33073,
				"method": "rhf"
			},
			{
				"type": "occ",
				"energy": -0.24871,
				"method": "rhf"
			},
			{
				"type": "unocc",
				"energy": -0.0207,
				"method": "rhf"
			},
			{
				"type": "unocc",
				"energy": 0.0844,
				"method": "rhf"
			},
			{
				"type": "unocc",
				"energy": 0.11206,
				"method": "rhf"
			},
			{
				"type": "unocc",
				"energy": 0.1295,
				"method": "rhf"
			},
			{
				"type": "unocc",
				"energy": 0.14135,
				"method": "rhf"
			}
		],
		"cosmo_sigma_profile": { 
			"-0.025": 0.0,
			"-0.024": 0.0,
			"-0.023": 0.0,
			"-0.022": 0.0,
			"-0.021": 0.0,
			"-0.02": 0.0,
			"-0.019": 0.0,
			"-0.018": 0.0,
			"-0.017": 0.0,
			"-0.016": 0.0,
			"-0.015": 0.0,
			"-0.014": 0.0,
			"-0.013": 0.0,
			"-0.012": 0.0,
			"-0.011": 0.0,
			"-0.01": 0.0,
			"-0.009": 0.0,
			"-0.008": 0.0,
			"-0.007": 0.0,
			"-0.006": 3.34600441381,
			"-0.005": 9.99965954742,
			"-0.004": 8.74060405531,
			"-0.003": 19.9778942431,
			"-0.002": 20.7275579302,
			"-0.001": 18.5638910871,
			"0.0": 19.4679252861,
			"0.001": 14.4800541563,
			"0.002": 4.28003786685,
			"0.003": 1.13669993848,
			"0.004": 2.26288871688,
			"0.005": 1.25644189021,
			"0.006": 1.86486273992,
			"0.007": 1.16355554293,
			"0.008": 1.77514963329,
			"0.009": 2.35797578096,
			"0.01": 2.69227323431,
			"0.011": 3.58860417841,
			"0.012": 4.07122809945,
			"0.013": 0.974370903984,
			"0.014": 0.0,
			"0.015": 0.0,
			"0.016": 0.0,
			"0.017": 0.0,
			"0.018": 0.0,
			"0.019": 0.0,
			"0.02": 0.0,
			"0.021": 0.0,
			"0.022": 0.0,
			"0.023": 0.0,
			"0.024": 0.0,
			"0.025": 0.0
		}
	}
}
