{
	 "smiles": "CN1C(=O)C(C2=NNC(=O)C2=C/NC2=CC=CC3=CC=CC=C23)=C(O)C2=CC=CC=C12", 
	 "Tm": 565.15, 
	 "num_atms": 49, 
	 "gaussian": { 
		 "optdone": 1, 
		 "sigma_profile": "yes", 
		 "theory": "DFT", 
		 "functional": "B3LYP", 
		 "basiset": "6-31G**", 
		 "properties": { 
			 "R2extent": 18437.3909, 
			 "electric_dipole_moment_norm": 2.92309378741, 
			 "electric_quadrupole_moment_norm": 17.7797706225, 
			 "total_energy": -1370.1290075, 
			 "HOMO_LUMO_gap": 0.13123, 
			 "cosmo_polarized_energy": -16.65, 
			 "cosmo_cavitation_energy": 51.82, 
			 "cosmo_dispersion_energy": -38.19, 
			 "cosmo_repulsion_energy": 2.73, 
			 "cosmo_total_nonelectrostatic_energy": 16.35, 
			 "SMD_solvation_energy": 8.75 
		},
		"coords": [
			{
				"x": -1.0601216845,
				"y": 2.3354264875,
				"z": -2.3944360306,
				"element": "C" 
			},
			{
				"x": 0.1465594966,
				"y": 2.2000208385,
				"z": -1.5784990796,
				"element": "N" 
			},
			{
				"x": 0.0903205279,
				"y": 1.2995867598,
				"z": -0.4966780568,
				"element": "C" 
			},
			{
				"x": -0.9675766466,
				"y": 0.6901919334,
				"z": -0.2889594882,
				"element": "O" 
			},
			{
				"x": 1.2875845852,
				"y": 1.1483934123,
				"z": 0.3220925187,
				"element": "C" 
			},
			{
				"x": 1.3313694962,
				"y": 0.1948626934,
				"z": 1.4469639436,
				"element": "C" 
			},
			{
				"x": 2.3815643073,
				"y": 0.2819704798,
				"z": 2.2599578586,
				"element": "N" 
			},
			{
				"x": 2.2834132624,
				"y": -0.7100255442,
				"z": 3.2008716584,
				"element": "N" 
			},
			{
				"x": 1.1574962322,
				"y": -1.4770729636,
				"z": 3.0540652024,
				"element": "C" 
			},
			{
				"x": 0.823415173,
				"y": -2.4419825158,
				"z": 3.7704172929,
				"element": "O" 
			},
			{
				"x": 0.4904124802,
				"y": -0.9069839971,
				"z": 1.8833111134,
				"element": "C" 
			},
			{
				"x": -0.6722152605,
				"y": -1.4926260063,
				"z": 1.4026689732,
				"element": "C" 
			},
			{
				"x": -1.2082527962,
				"y": -2.5477358691,
				"z": 2.0252336518,
				"element": "N" 
			},
			{
				"x": -2.4016865366,
				"y": -3.2077898127,
				"z": 1.6714734784,
				"element": "C" 
			},
			{
				"x": -3.4065386315,
				"y": -2.5541188745,
				"z": 0.9806897589,
				"element": "C" 
			},
			{
				"x": -4.5942234864,
				"y": -3.2334243428,
				"z": 0.63405971,
				"element": "C" 
			},
			{
				"x": -4.7845887417,
				"y": -4.5456183374,
				"z": 1.0008099958,
				"element": "C" 
			},
			{
				"x": -3.7807394149,
				"y": -5.2449652695,
				"z": 1.7225659261,
				"element": "C" 
			},
			{
				"x": -3.9562992126,
				"y": -6.5995195094,
				"z": 2.1146033529,
				"element": "C" 
			},
			{
				"x": -2.9715598111,
				"y": -7.274366224,
				"z": 2.7987581976,
				"element": "C" 
			},
			{
				"x": -1.7563971492,
				"y": -6.6229494969,
				"z": 3.1147561573,
				"element": "C" 
			},
			{
				"x": -1.5499422447,
				"y": -5.3096655695,
				"z": 2.7524010593,
				"element": "C" 
			},
			{
				"x": -2.5554725918,
				"y": -4.5802037646,
				"z": 2.060333468,
				"element": "C" 
			},
			{
				"x": 2.4035022776,
				"y": 1.9430794835,
				"z": 0.0503747388,
				"element": "C" 
			},
			{
				"x": 3.5135340093,
				"y": 1.924692567,
				"z": 0.7779812844,
				"element": "O" 
			},
			{
				"x": 2.4201201172,
				"y": 2.84947916,
				"z": -1.0758312544,
				"element": "C" 
			},
			{
				"x": 3.5598977229,
				"y": 3.6203618546,
				"z": -1.372331006,
				"element": "C" 
			},
			{
				"x": 3.570353307,
				"y": 4.4821312572,
				"z": -2.4565094486,
				"element": "C" 
			},
			{
				"x": 2.4271817098,
				"y": 4.5854229677,
				"z": -3.2616506098,
				"element": "C" 
			},
			{
				"x": 1.2894281991,
				"y": 3.8385231596,
				"z": -2.9871377496,
				"element": "C" 
			},
			{
				"x": 1.2677378494,
				"y": 2.9565915793,
				"z": -1.887184508,
				"element": "C" 
			},
			{
				"x": -1.4233450481,
				"y": 3.3676182847,
				"z": -2.3745208051,
				"element": "H" 
			},
			{
				"x": -0.8582728477,
				"y": 2.0465056477,
				"z": -3.4307397547,
				"element": "H" 
			},
			{
				"x": -1.8126653546,
				"y": 1.6756721194,
				"z": -1.9713258252,
				"element": "H" 
			},
			{
				"x": 2.9788636019,
				"y": -0.792487531,
				"z": 3.9249980479,
				"element": "H" 
			},
			{
				"x": -1.1529409896,
				"y": -1.1071181415,
				"z": 0.5142946737,
				"element": "H" 
			},
			{
				"x": -0.6812901833,
				"y": -2.8468426441,
				"z": 2.8598141412,
				"element": "H" 
			},
			{
				"x": -3.2957858618,
				"y": -1.5052301752,
				"z": 0.7262579385,
				"element": "H" 
			},
			{
				"x": -5.3675017852,
				"y": -2.6984567193,
				"z": 0.0910956072,
				"element": "H" 
			},
			{
				"x": -5.7056000552,
				"y": -5.0633812484,
				"z": 0.748054845,
				"element": "H" 
			},
			{
				"x": -4.8892086271,
				"y": -7.0954729338,
				"z": 1.8595946148,
				"element": "H" 
			},
			{
				"x": -3.1210912812,
				"y": -8.309321699,
				"z": 3.0921244074,
				"element": "H" 
			},
			{
				"x": -0.9767491405,
				"y": -7.1635205181,
				"z": 3.6430413245,
				"element": "H" 
			},
			{
				"x": -0.6007433014,
				"y": -4.840504753,
				"z": 2.9906115848,
				"element": "H" 
			},
			{
				"x": 3.3562698986,
				"y": 1.2867994689,
				"z": 1.5483605027,
				"element": "H" 
			},
			{
				"x": 4.425802008,
				"y": 3.5181374705,
				"z": -0.7290387745,
				"element": "H" 
			},
			{
				"x": 4.4535676756,
				"y": 5.0719073989,
				"z": -2.6795633261,
				"element": "H" 
			},
			{
				"x": 2.4228882872,
				"y": 5.2584073124,
				"z": -4.1142763354,
				"element": "H" 
			},
			{
				"x": 0.421426459,
				"y": 3.940002125,
				"z": -3.6252549755,
				"element": "H" 
			}
		],
		 "valence_orbital": [ 
			{
				"type": "occ",
				"energy": -0.24859,
				"method": "rhf"
			},
			{
				"type": "occ",
				"energy": -0.23611,
				"method": "rhf"
			},
			{
				"type": "occ",
				"energy": -0.22475,
				"method": "rhf"
			},
			{
				"type": "occ",
				"energy": -0.20751,
				"method": "rhf"
			},
			{
				"type": "occ",
				"energy": -0.19819,
				"method": "rhf"
			},
			{
				"type": "unocc",
				"energy": -0.06696,
				"method": "rhf"
			},
			{
				"type": "unocc",
				"energy": -0.04684,
				"method": "rhf"
			},
			{
				"type": "unocc",
				"energy": -0.02605,
				"method": "rhf"
			},
			{
				"type": "unocc",
				"energy": -0.01398,
				"method": "rhf"
			},
			{
				"type": "unocc",
				"energy": -0.00757,
				"method": "rhf"
			}
		],
		"cosmo_sigma_profile": { 
			"-0.025": 0.0,
			"-0.024": 0.0,
			"-0.023": 0.0,
			"-0.022": 0.0,
			"-0.021": 0.0,
			"-0.02": 0.0,
			"-0.019": 0.0,
			"-0.018": 0.0,
			"-0.017": 0.0448898075272,
			"-0.016": 1.35214385507,
			"-0.015": 1.31755281443,
			"-0.014": 1.2567567697,
			"-0.013": 1.15447859427,
			"-0.012": 0.384946328241,
			"-0.011": 0.65483837261,
			"-0.01": 1.13744485706,
			"-0.009": 0.519587825046,
			"-0.008": 0.806408779361,
			"-0.007": 4.65891325553,
			"-0.006": 24.8598229773,
			"-0.005": 29.2240250521,
			"-0.004": 32.1785722696,
			"-0.003": 27.957897304,
			"-0.002": 27.285502511,
			"-0.001": 31.5534544713,
			"0.0": 39.2853129651,
			"0.001": 36.7699019743,
			"0.002": 36.4247450661,
			"0.003": 36.323237054,
			"0.004": 35.0523786639,
			"0.005": 17.1453268979,
			"0.006": 5.01855006871,
			"0.007": 4.28063583158,
			"0.008": 4.53614266191,
			"0.009": 3.7649166624,
			"0.01": 3.16681970883,
			"0.011": 2.6132627614,
			"0.012": 2.38028224325,
			"0.013": 2.08833510583,
			"0.014": 2.17262536775,
			"0.015": 0.606856203936,
			"0.016": 0.0,
			"0.017": 0.0,
			"0.018": 0.0,
			"0.019": 0.0,
			"0.02": 0.0,
			"0.021": 0.0,
			"0.022": 0.0,
			"0.023": 0.0,
			"0.024": 0.0,
			"0.025": 0.0
		}
	}
}
