{
	 "smiles": "CCC(C)C", 
	 "Tm": 113.15, 
	 "num_atms": 17, 
	 "gaussian": { 
		 "optdone": 1, 
		 "sigma_profile": "yes", 
		 "theory": "DFT", 
		 "functional": "B3LYP", 
		 "basiset": "6-31G**", 
		 "properties": { 
			 "R2extent": 666.4995, 
			 "electric_dipole_moment_norm": 0.0545975274165, 
			 "electric_quadrupole_moment_norm": 0.477090410719, 
			 "total_energy": -197.784216215, 
			 "HOMO_LUMO_gap": 0.39511, 
			 "cosmo_polarized_energy": -0.51, 
			 "cosmo_cavitation_energy": 18.19, 
			 "cosmo_dispersion_energy": -13.37, 
			 "cosmo_repulsion_energy": 1.18, 
			 "cosmo_total_nonelectrostatic_energy": 6.0, 
			 "SMD_solvation_energy": 3.36 
		},
		"coords": [
			{
				"x": 2.1370475073,
				"y": -0.7434802952,
				"z": -1.2039360996,
				"element": "C" 
			},
			{
				"x": 1.3032571569,
				"y": 0.2813831411,
				"z": -0.4267228888,
				"element": "C" 
			},
			{
				"x": -0.1235652447,
				"y": 0.505318138,
				"z": -0.9665015387,
				"element": "C" 
			},
			{
				"x": -0.7988960306,
				"y": 1.6753552483,
				"z": -0.2358552341,
				"element": "C" 
			},
			{
				"x": -0.9909821337,
				"y": -0.7594083739,
				"z": -0.8752612641,
				"element": "C" 
			},
			{
				"x": 1.7082571368,
				"y": -1.7491317966,
				"z": -1.148916952,
				"element": "H" 
			},
			{
				"x": 3.1561374033,
				"y": -0.8013552029,
				"z": -0.8074425095,
				"element": "H" 
			},
			{
				"x": 2.2097066168,
				"y": -0.4718851624,
				"z": -2.2637004245,
				"element": "H" 
			},
			{
				"x": 1.2394237387,
				"y": -0.0212283482,
				"z": 0.6286391764,
				"element": "H" 
			},
			{
				"x": 1.8311951009,
				"y": 1.2444230046,
				"z": -0.4324971535,
				"element": "H" 
			},
			{
				"x": -0.0358868222,
				"y": 0.7781137106,
				"z": -2.0295876513,
				"element": "H" 
			},
			{
				"x": -0.2135211733,
				"y": 2.5968512295,
				"z": -0.3286831302,
				"element": "H" 
			},
			{
				"x": -1.7995578162,
				"y": 1.8718886104,
				"z": -0.6361071021,
				"element": "H" 
			},
			{
				"x": -0.9077009624,
				"y": 1.4577413009,
				"z": 0.8339916711,
				"element": "H" 
			},
			{
				"x": -0.5689176445,
				"y": -1.5915180149,
				"z": -1.4469307815,
				"element": "H" 
			},
			{
				"x": -1.0920204803,
				"y": -1.0874278821,
				"z": 0.1670686448,
				"element": "H" 
			},
			{
				"x": -1.9988763529,
				"y": -0.5725393072,
				"z": -1.2617567625,
				"element": "H" 
			}
		],
		 "valence_orbital": [ 
			{
				"type": "occ",
				"energy": -0.35433,
				"method": "rhf"
			},
			{
				"type": "occ",
				"energy": -0.34347,
				"method": "rhf"
			},
			{
				"type": "occ",
				"energy": -0.31646,
				"method": "rhf"
			},
			{
				"type": "occ",
				"energy": -0.3144,
				"method": "rhf"
			},
			{
				"type": "occ",
				"energy": -0.30866,
				"method": "rhf"
			},
			{
				"type": "unocc",
				"energy": 0.08645,
				"method": "rhf"
			},
			{
				"type": "unocc",
				"energy": 0.12271,
				"method": "rhf"
			},
			{
				"type": "unocc",
				"energy": 0.13083,
				"method": "rhf"
			},
			{
				"type": "unocc",
				"energy": 0.14239,
				"method": "rhf"
			},
			{
				"type": "unocc",
				"energy": 0.15589,
				"method": "rhf"
			}
		],
		"cosmo_sigma_profile": { 
			"-0.025": 0.0,
			"-0.024": 0.0,
			"-0.023": 0.0,
			"-0.022": 0.0,
			"-0.021": 0.0,
			"-0.02": 0.0,
			"-0.019": 0.0,
			"-0.018": 0.0,
			"-0.017": 0.0,
			"-0.016": 0.0,
			"-0.015": 0.0,
			"-0.014": 0.0,
			"-0.013": 0.0,
			"-0.012": 0.0,
			"-0.011": 0.0,
			"-0.01": 0.0,
			"-0.009": 0.0,
			"-0.008": 0.0,
			"-0.007": 0.0,
			"-0.006": 0.0,
			"-0.005": 0.0,
			"-0.004": 0.0,
			"-0.003": 3.45893872669,
			"-0.002": 20.1029646416,
			"-0.001": 29.6311552731,
			"0.0": 30.39844531,
			"0.001": 32.3992773722,
			"0.002": 22.0499796855,
			"0.003": 1.38529183587,
			"0.004": 0.0,
			"0.005": 0.0,
			"0.006": 0.0,
			"0.007": 0.0,
			"0.008": 0.0,
			"0.009": 0.0,
			"0.01": 0.0,
			"0.011": 0.0,
			"0.012": 0.0,
			"0.013": 0.0,
			"0.014": 0.0,
			"0.015": 0.0,
			"0.016": 0.0,
			"0.017": 0.0,
			"0.018": 0.0,
			"0.019": 0.0,
			"0.02": 0.0,
			"0.021": 0.0,
			"0.022": 0.0,
			"0.023": 0.0,
			"0.024": 0.0,
			"0.025": 0.0
		}
	}
}
