{
	 "smiles": "[O-][N+](=O)C1=CC=C(CCS(Cl)(=O)=O)C=C1", 
	 "Tm": 363.15, 
	 "num_atms": 23, 
	 "gaussian": { 
		 "optdone": 1, 
		 "sigma_profile": "yes", 
		 "theory": "DFT", 
		 "functional": "B3LYP", 
		 "basiset": "6-31G**", 
		 "properties": { 
			 "R2extent": 6632.3075, 
			 "electric_dipole_moment_norm": 6.20103032971, 
			 "electric_quadrupole_moment_norm": 15.3521036112, 
			 "total_energy": -1523.53846515, 
			 "HOMO_LUMO_gap": 0.1896, 
			 "cosmo_polarized_energy": -17.82, 
			 "cosmo_cavitation_energy": 31.67, 
			 "cosmo_dispersion_energy": -22.74, 
			 "cosmo_repulsion_energy": 1.74, 
			 "cosmo_total_nonelectrostatic_energy": 10.67, 
			 "SMD_solvation_energy": 6.12 
		},
		"coords": [
			{
				"x": -1.9110386491,
				"y": 2.7782764408,
				"z": 2.3237511378,
				"element": "O" 
			},
			{
				"x": -1.8274948031,
				"y": 2.5721291826,
				"z": 1.1135910086,
				"element": "N" 
			},
			{
				"x": -2.2831334024,
				"y": 3.3098294061,
				"z": 0.2414538863,
				"element": "O" 
			},
			{
				"x": -1.1280448825,
				"y": 1.3518049216,
				"z": 0.6775926046,
				"element": "C" 
			},
			{
				"x": -1.0199706031,
				"y": 1.0846539743,
				"z": -0.6843963912,
				"element": "C" 
			},
			{
				"x": -0.3503150312,
				"y": -0.0678957672,
				"z": -1.0873275987,
				"element": "C" 
			},
			{
				"x": 0.2031762588,
				"y": -0.9440504498,
				"z": -0.1432442792,
				"element": "C" 
			},
			{
				"x": 0.9295041392,
				"y": -2.19693399,
				"z": -0.5867218262,
				"element": "C" 
			},
			{
				"x": 0.1115826887,
				"y": -3.4981971839,
				"z": -0.5048995788,
				"element": "C" 
			},
			{
				"x": -1.2677384756,
				"y": -3.4964235021,
				"z": -1.7014709138,
				"element": "S" 
			},
			{
				"x": -1.7164350132,
				"y": -5.584891338,
				"z": -1.7045135913,
				"element": "Cl" 
			},
			{
				"x": -0.7426352585,
				"y": -3.1660834398,
				"z": -3.022750725,
				"element": "O" 
			},
			{
				"x": -2.4277942245,
				"y": -2.8141632735,
				"z": -1.1445783219,
				"element": "O" 
			},
			{
				"x": 0.0779289268,
				"y": -0.6425224154,
				"z": 1.2212454519,
				"element": "C" 
			},
			{
				"x": -0.5885120229,
				"y": 0.5034701123,
				"z": 1.6424720154,
				"element": "C" 
			},
			{
				"x": -1.4537923002,
				"y": 1.7719544044,
				"z": -1.3996118085,
				"element": "H" 
			},
			{
				"x": -0.2619138889,
				"y": -0.291761584,
				"z": -2.1462868906,
				"element": "H" 
			},
			{
				"x": 1.3019748512,
				"y": -2.0827925229,
				"z": -1.6085476159,
				"element": "H" 
			},
			{
				"x": 1.8044548076,
				"y": -2.3618610682,
				"z": 0.053366044,
				"element": "H" 
			},
			{
				"x": 0.7233110136,
				"y": -4.3625427627,
				"z": -0.7713318904,
				"element": "H" 
			},
			{
				"x": -0.3500390751,
				"y": -3.6586372511,
				"z": 0.4719467965,
				"element": "H" 
			},
			{
				"x": 0.5128733798,
				"y": -1.3065683623,
				"z": 1.9637991831,
				"element": "H" 
			},
			{
				"x": -0.6921484353,
				"y": 0.7539064688,
				"z": 2.6906633034,
				"element": "H" 
			}
		],
		 "valence_orbital": [ 
			{
				"type": "occ",
				"energy": -0.31397,
				"method": "rhf"
			},
			{
				"type": "occ",
				"energy": -0.3113,
				"method": "rhf"
			},
			{
				"type": "occ",
				"energy": -0.29526,
				"method": "rhf"
			},
			{
				"type": "occ",
				"energy": -0.28673,
				"method": "rhf"
			},
			{
				"type": "occ",
				"energy": -0.28556,
				"method": "rhf"
			},
			{
				"type": "unocc",
				"energy": -0.09596,
				"method": "rhf"
			},
			{
				"type": "unocc",
				"energy": -0.09231,
				"method": "rhf"
			},
			{
				"type": "unocc",
				"energy": -0.03824,
				"method": "rhf"
			},
			{
				"type": "unocc",
				"energy": -0.01132,
				"method": "rhf"
			},
			{
				"type": "unocc",
				"energy": 0.02172,
				"method": "rhf"
			}
		],
		"cosmo_sigma_profile": { 
			"-0.025": 0.0,
			"-0.024": 0.0,
			"-0.023": 0.0,
			"-0.022": 0.0,
			"-0.021": 0.0,
			"-0.02": 0.0,
			"-0.019": 0.0,
			"-0.018": 0.0,
			"-0.017": 0.0,
			"-0.016": 0.0,
			"-0.015": 0.0,
			"-0.014": 0.0,
			"-0.013": 0.0,
			"-0.012": 0.0,
			"-0.011": 0.493971233466,
			"-0.01": 4.65116883973,
			"-0.009": 5.64442002998,
			"-0.008": 11.7452792544,
			"-0.007": 13.7251141087,
			"-0.006": 16.3637062081,
			"-0.005": 12.9766663563,
			"-0.004": 12.4542087492,
			"-0.003": 12.0187982289,
			"-0.002": 11.8124749761,
			"-0.001": 16.3447097014,
			"0.0": 14.5817705679,
			"0.001": 18.6368431284,
			"0.002": 17.7785015433,
			"0.003": 16.4653695816,
			"0.004": 12.1938663418,
			"0.005": 6.74371489832,
			"0.006": 7.25159071014,
			"0.007": 13.0402554482,
			"0.008": 17.3011831973,
			"0.009": 10.3128845822,
			"0.01": 2.75351729376,
			"0.011": 0.125234099855,
			"0.012": 0.0,
			"0.013": 0.0,
			"0.014": 0.0,
			"0.015": 0.0,
			"0.016": 0.0,
			"0.017": 0.0,
			"0.018": 0.0,
			"0.019": 0.0,
			"0.02": 0.0,
			"0.021": 0.0,
			"0.022": 0.0,
			"0.023": 0.0,
			"0.024": 0.0,
			"0.025": 0.0
		}
	}
}
