{
	 "smiles": "NC1=C(CN2C=CC=N2)C=CC=C1", 
	 "Tm": 330.15, 
	 "num_atms": 24, 
	 "gaussian": { 
		 "optdone": 1, 
		 "sigma_profile": "yes", 
		 "theory": "DFT", 
		 "functional": "B3LYP", 
		 "basiset": "6-31G**", 
		 "properties": { 
			 "R2extent": 3056.7404, 
			 "electric_dipole_moment_norm": 1.12662362837, 
			 "electric_quadrupole_moment_norm": 8.12258708541, 
			 "total_energy": -551.93341848, 
			 "HOMO_LUMO_gap": 0.19538, 
			 "cosmo_polarized_energy": -9.69, 
			 "cosmo_cavitation_energy": 27.25, 
			 "cosmo_dispersion_energy": -19.93, 
			 "cosmo_repulsion_energy": 1.56, 
			 "cosmo_total_nonelectrostatic_energy": 8.89, 
			 "SMD_solvation_energy": 4.21 
		},
		"coords": [
			{
				"x": -2.9350404278,
				"y": 0.3461564535,
				"z": -1.1427976418,
				"element": "N" 
			},
			{
				"x": -2.3683899297,
				"y": -0.7022209701,
				"z": -0.427928749,
				"element": "C" 
			},
			{
				"x": -0.9892280043,
				"y": -0.6917527215,
				"z": -0.0992442748,
				"element": "C" 
			},
			{
				"x": -0.1049991753,
				"y": 0.458600956,
				"z": -0.5278075648,
				"element": "C" 
			},
			{
				"x": -0.2471740582,
				"y": 1.6799629109,
				"z": 0.2761292066,
				"element": "N" 
			},
			{
				"x": 0.4836825548,
				"y": 2.0661699203,
				"z": 1.3525025483,
				"element": "C" 
			},
			{
				"x": -0.068515956,
				"y": 3.2476157214,
				"z": 1.8154699657,
				"element": "C" 
			},
			{
				"x": -1.1497015239,
				"y": 3.4929019976,
				"z": 0.9459653176,
				"element": "C" 
			},
			{
				"x": -1.2558266202,
				"y": 2.5421557697,
				"z": 0.0148734423,
				"element": "N" 
			},
			{
				"x": -0.4381233232,
				"y": -1.78162064,
				"z": 0.5805073547,
				"element": "C" 
			},
			{
				"x": -1.2047853353,
				"y": -2.8894665891,
				"z": 0.9393929617,
				"element": "C" 
			},
			{
				"x": -2.5598165685,
				"y": -2.9040348283,
				"z": 0.6017431289,
				"element": "C" 
			},
			{
				"x": -3.1331146719,
				"y": -1.8283300345,
				"z": -0.0686686023,
				"element": "C" 
			},
			{
				"x": -3.944508726,
				"y": 0.3234337856,
				"z": -1.1868718849,
				"element": "H" 
			},
			{
				"x": -2.5731318937,
				"y": 1.2739141351,
				"z": -0.9255333242,
				"element": "H" 
			},
			{
				"x": 0.9459012074,
				"y": 0.1639750728,
				"z": -0.4707046883,
				"element": "H" 
			},
			{
				"x": -0.320269703,
				"y": 0.7477068029,
				"z": -1.5612364716,
				"element": "H" 
			},
			{
				"x": 1.3277039392,
				"y": 1.4862525249,
				"z": 1.69633467,
				"element": "H" 
			},
			{
				"x": 0.2674547747,
				"y": 3.8450943853,
				"z": 2.6494205427,
				"element": "H" 
			},
			{
				"x": -1.8481217872,
				"y": 4.3190015061,
				"z": 0.9501565213,
				"element": "H" 
			},
			{
				"x": 0.6229693773,
				"y": -1.7622950349,
				"z": 0.8215382337,
				"element": "H" 
			},
			{
				"x": -0.7534269664,
				"y": -3.725663311,
				"z": 1.4635825772,
				"element": "H" 
			},
			{
				"x": -3.1788353049,
				"y": -3.7571513152,
				"z": 0.8662513637,
				"element": "H" 
			},
			{
				"x": -4.1908018778,
				"y": -1.8471064974,
				"z": -0.3216746326,
				"element": "H" 
			}
		],
		 "valence_orbital": [ 
			{
				"type": "occ",
				"energy": -0.29556,
				"method": "rhf"
			},
			{
				"type": "occ",
				"energy": -0.2535,
				"method": "rhf"
			},
			{
				"type": "occ",
				"energy": -0.24619,
				"method": "rhf"
			},
			{
				"type": "occ",
				"energy": -0.24086,
				"method": "rhf"
			},
			{
				"type": "occ",
				"energy": -0.1953,
				"method": "rhf"
			},
			{
				"type": "unocc",
				"energy": 8e-05,
				"method": "rhf"
			},
			{
				"type": "unocc",
				"energy": 0.01789,
				"method": "rhf"
			},
			{
				"type": "unocc",
				"energy": 0.02076,
				"method": "rhf"
			},
			{
				"type": "unocc",
				"energy": 0.06878,
				"method": "rhf"
			},
			{
				"type": "unocc",
				"energy": 0.08912,
				"method": "rhf"
			}
		],
		"cosmo_sigma_profile": { 
			"-0.025": 0.0,
			"-0.024": 0.0,
			"-0.023": 0.0,
			"-0.022": 0.0,
			"-0.021": 0.0,
			"-0.02": 0.0,
			"-0.019": 0.0,
			"-0.018": 0.0,
			"-0.017": 0.0,
			"-0.016": 0.0,
			"-0.015": 0.0,
			"-0.014": 0.0,
			"-0.013": 0.00837889271474,
			"-0.012": 0.734801391744,
			"-0.011": 1.45469990976,
			"-0.01": 0.85955438619,
			"-0.009": 3.85239652639,
			"-0.008": 5.21913009102,
			"-0.007": 7.36646882016,
			"-0.006": 11.3129322111,
			"-0.005": 15.2446947888,
			"-0.004": 14.8492785682,
			"-0.003": 18.2324097771,
			"-0.002": 13.8773098292,
			"-0.001": 11.9924252545,
			"0.0": 11.3959525599,
			"0.001": 9.93315937734,
			"0.002": 12.1155211078,
			"0.003": 16.1342431538,
			"0.004": 14.6508768375,
			"0.005": 17.2091238778,
			"0.006": 13.8887678683,
			"0.007": 8.4833973071,
			"0.008": 2.42636249896,
			"0.009": 1.63511915182,
			"0.01": 1.29948300973,
			"0.011": 1.50922047837,
			"0.012": 0.758644617469,
			"0.013": 0.641654299944,
			"0.014": 0.360326192109,
			"0.015": 0.104171125048,
			"0.016": 0.0,
			"0.017": 0.0,
			"0.018": 0.0,
			"0.019": 0.0,
			"0.02": 0.0,
			"0.021": 0.0,
			"0.022": 0.0,
			"0.023": 0.0,
			"0.024": 0.0,
			"0.025": 0.0
		}
	}
}
