{
	 "smiles": "NC1=CC(C#N)=C(F)C=C1", 
	 "Tm": 367.15, 
	 "num_atms": 15, 
	 "gaussian": { 
		 "optdone": 1, 
		 "sigma_profile": "yes", 
		 "theory": "DFT", 
		 "functional": "B3LYP", 
		 "basiset": "6-31G**", 
		 "properties": { 
			 "R2extent": 2291.2817, 
			 "electric_dipole_moment_norm": 6.41209279097, 
			 "electric_quadrupole_moment_norm": 11.1848821608, 
			 "total_energy": -479.07715851, 
			 "HOMO_LUMO_gap": 0.16994, 
			 "cosmo_polarized_energy": -13.49, 
			 "cosmo_cavitation_energy": 21.09, 
			 "cosmo_dispersion_energy": -14.95, 
			 "cosmo_repulsion_energy": 1.2, 
			 "cosmo_total_nonelectrostatic_energy": 7.34, 
			 "SMD_solvation_energy": 5.5 
		},
		"coords": [
			{
				"x": 0.2639795586,
				"y": 2.6646284736,
				"z": -1.5375868363,
				"element": "N" 
			},
			{
				"x": -0.6434319397,
				"y": 1.6574979593,
				"z": -1.2126292086,
				"element": "C" 
			},
			{
				"x": -0.3995320004,
				"y": 0.326320664,
				"z": -1.576400716,
				"element": "C" 
			},
			{
				"x": -1.3417399983,
				"y": -0.6784943927,
				"z": -1.3027196933,
				"element": "C" 
			},
			{
				"x": -1.0843556867,
				"y": -2.0367016425,
				"z": -1.6730651667,
				"element": "C" 
			},
			{
				"x": -0.8572543595,
				"y": -3.1352017966,
				"z": -1.9797221165,
				"element": "N" 
			},
			{
				"x": -2.5367946431,
				"y": -0.3383709853,
				"z": -0.657844066,
				"element": "C" 
			},
			{
				"x": -3.4392883864,
				"y": -1.299679561,
				"z": -0.3923925864,
				"element": "F" 
			},
			{
				"x": -2.7953315023,
				"y": 0.9743211774,
				"z": -0.2895342722,
				"element": "C" 
			},
			{
				"x": -1.8562594687,
				"y": 1.9637610263,
				"z": -0.5652168467,
				"element": "C" 
			},
			{
				"x": 0.2158616905,
				"y": 3.4943542801,
				"z": -0.9630301293,
				"element": "H" 
			},
			{
				"x": 1.2164476041,
				"y": 2.3616951182,
				"z": -1.6859729597,
				"element": "H" 
			},
			{
				"x": 0.522977029,
				"y": 0.0557115514,
				"z": -2.0800879744,
				"element": "H" 
			},
			{
				"x": -3.7285805041,
				"y": 1.2086435101,
				"z": 0.2105460132,
				"element": "H" 
			},
			{
				"x": -2.0644973929,
				"y": 2.9914146179,
				"z": -0.2802434411,
				"element": "H" 
			}
		],
		 "valence_orbital": [ 
			{
				"type": "occ",
				"energy": -0.3549,
				"method": "rhf"
			},
			{
				"type": "occ",
				"energy": -0.33023,
				"method": "rhf"
			},
			{
				"type": "occ",
				"energy": -0.3153,
				"method": "rhf"
			},
			{
				"type": "occ",
				"energy": -0.2716,
				"method": "rhf"
			},
			{
				"type": "occ",
				"energy": -0.22246,
				"method": "rhf"
			},
			{
				"type": "unocc",
				"energy": -0.05252,
				"method": "rhf"
			},
			{
				"type": "unocc",
				"energy": -0.00648,
				"method": "rhf"
			},
			{
				"type": "unocc",
				"energy": 0.035,
				"method": "rhf"
			},
			{
				"type": "unocc",
				"energy": 0.06034,
				"method": "rhf"
			},
			{
				"type": "unocc",
				"energy": 0.08162,
				"method": "rhf"
			}
		],
		"cosmo_sigma_profile": { 
			"-0.025": 0.0,
			"-0.024": 0.0,
			"-0.023": 0.0,
			"-0.022": 0.0,
			"-0.021": 0.0,
			"-0.02": 0.0,
			"-0.019": 0.0,
			"-0.018": 0.0,
			"-0.017": 0.0,
			"-0.016": 0.0,
			"-0.015": 0.0,
			"-0.014": 0.128353724783,
			"-0.013": 1.97151644505,
			"-0.012": 4.05331885706,
			"-0.011": 2.54074219127,
			"-0.01": 3.86859621814,
			"-0.009": 3.63240316057,
			"-0.008": 5.73777299156,
			"-0.007": 7.21768290433,
			"-0.006": 7.01669918825,
			"-0.005": 6.51837536077,
			"-0.004": 4.8974698366,
			"-0.003": 5.42552402259,
			"-0.002": 7.90324509311,
			"-0.001": 11.456985015,
			"0.0": 12.0089989343,
			"0.001": 12.899359907,
			"0.002": 14.7756754545,
			"0.003": 16.0585620548,
			"0.004": 10.991606228,
			"0.005": 3.6382182047,
			"0.006": 3.10782801979,
			"0.007": 4.03445656253,
			"0.008": 3.79822838017,
			"0.009": 4.64359678286,
			"0.01": 3.43181024997,
			"0.011": 3.27050995848,
			"0.012": 3.04150157247,
			"0.013": 1.87974905722,
			"0.014": 0.199428937176,
			"0.015": 0.0,
			"0.016": 0.0,
			"0.017": 0.0,
			"0.018": 0.0,
			"0.019": 0.0,
			"0.02": 0.0,
			"0.021": 0.0,
			"0.022": 0.0,
			"0.023": 0.0,
			"0.024": 0.0,
			"0.025": 0.0
		}
	}
}
