{
	 "smiles": "OC(=O)CCC1=CC2=C(O1)C=CC=C2", 
	 "Tm": 384.15, 
	 "num_atms": 24, 
	 "gaussian": { 
		 "optdone": 1, 
		 "sigma_profile": "yes", 
		 "theory": "DFT", 
		 "functional": "B3LYP", 
		 "basiset": "6-31G**", 
		 "properties": { 
			 "R2extent": 3384.3947, 
			 "electric_dipole_moment_norm": 5.63330519944, 
			 "electric_quadrupole_moment_norm": 15.7250237033, 
			 "total_energy": -650.876089384, 
			 "HOMO_LUMO_gap": 0.19903, 
			 "cosmo_polarized_energy": -13.77, 
			 "cosmo_cavitation_energy": 28.11, 
			 "cosmo_dispersion_energy": -20.62, 
			 "cosmo_repulsion_energy": 1.61, 
			 "cosmo_total_nonelectrostatic_energy": 9.11, 
			 "SMD_solvation_energy": 5.8 
		},
		"coords": [
			{
				"x": 0.2793996748,
				"y": -1.8669542939,
				"z": 2.0661322893,
				"element": "O" 
			},
			{
				"x": 1.1550085731,
				"y": -2.6154207284,
				"z": 1.3628964154,
				"element": "C" 
			},
			{
				"x": 1.6402180201,
				"y": -3.609664622,
				"z": 1.8479998466,
				"element": "O" 
			},
			{
				"x": 1.514580248,
				"y": -2.141970287,
				"z": -0.0486112513,
				"element": "C" 
			},
			{
				"x": 0.3276212487,
				"y": -1.7763856078,
				"z": -0.9848572379,
				"element": "C" 
			},
			{
				"x": -0.0961018221,
				"y": -0.3469265837,
				"z": -0.9527801682,
				"element": "C" 
			},
			{
				"x": -0.1429855553,
				"y": 0.6312950603,
				"z": -1.8918121126,
				"element": "C" 
			},
			{
				"x": -0.6408027515,
				"y": 1.8216689069,
				"z": -1.2415862546,
				"element": "C" 
			},
			{
				"x": -0.8616735448,
				"y": 1.4581244788,
				"z": 0.0979105317,
				"element": "C" 
			},
			{
				"x": -0.5335839103,
				"y": 0.1318341842,
				"z": 0.2764355362,
				"element": "O" 
			},
			{
				"x": -1.3412231631,
				"y": 2.3221729297,
				"z": 1.0716796852,
				"element": "C" 
			},
			{
				"x": -1.6100505019,
				"y": 3.6274412855,
				"z": 0.6570368323,
				"element": "C" 
			},
			{
				"x": -1.4018213232,
				"y": 4.0276863917,
				"z": -0.675373798,
				"element": "C" 
			},
			{
				"x": -0.9193933215,
				"y": 3.1393287159,
				"z": -1.633585205,
				"element": "C" 
			},
			{
				"x": -0.0135989822,
				"y": -1.0840464814,
				"z": 1.5661897532,
				"element": "H" 
			},
			{
				"x": 2.1958661499,
				"y": -1.2857002469,
				"z": 0.0343781612,
				"element": "H" 
			},
			{
				"x": 2.0852891328,
				"y": -2.9618157584,
				"z": -0.4875273261,
				"element": "H" 
			},
			{
				"x": -0.529583017,
				"y": -2.4259492686,
				"z": -0.7636682022,
				"element": "H" 
			},
			{
				"x": 0.6190822634,
				"y": -1.9950548565,
				"z": -2.015856498,
				"element": "H" 
			},
			{
				"x": 0.1419395432,
				"y": 0.5219351104,
				"z": -2.928600238,
				"element": "H" 
			},
			{
				"x": -1.4974195179,
				"y": 1.9973408957,
				"z": 2.0946337603,
				"element": "H" 
			},
			{
				"x": -1.9874733614,
				"y": 4.3459242413,
				"z": 1.3779236789,
				"element": "H" 
			},
			{
				"x": -1.6228645611,
				"y": 5.0518968252,
				"z": -0.9601338449,
				"element": "H" 
			},
			{
				"x": -0.7624295208,
				"y": 3.4594397093,
				"z": -2.6591243535,
				"element": "H" 
			}
		],
		 "valence_orbital": [ 
			{
				"type": "occ",
				"energy": -0.30731,
				"method": "rhf"
			},
			{
				"type": "occ",
				"energy": -0.30076,
				"method": "rhf"
			},
			{
				"type": "occ",
				"energy": -0.25858,
				"method": "rhf"
			},
			{
				"type": "occ",
				"energy": -0.25294,
				"method": "rhf"
			},
			{
				"type": "occ",
				"energy": -0.23301,
				"method": "rhf"
			},
			{
				"type": "unocc",
				"energy": -0.03398,
				"method": "rhf"
			},
			{
				"type": "unocc",
				"energy": -0.002,
				"method": "rhf"
			},
			{
				"type": "unocc",
				"energy": 0.01812,
				"method": "rhf"
			},
			{
				"type": "unocc",
				"energy": 0.03937,
				"method": "rhf"
			},
			{
				"type": "unocc",
				"energy": 0.07067,
				"method": "rhf"
			}
		],
		"cosmo_sigma_profile": { 
			"-0.025": 0.0,
			"-0.024": 0.0,
			"-0.023": 0.0,
			"-0.022": 0.0,
			"-0.021": 0.0,
			"-0.02": 0.0,
			"-0.019": 0.0,
			"-0.018": 0.0,
			"-0.017": 0.0,
			"-0.016": 0.0,
			"-0.015": 0.0,
			"-0.014": 0.0,
			"-0.013": 0.0,
			"-0.012": 0.0,
			"-0.011": 0.0,
			"-0.01": 0.0856042466783,
			"-0.009": 0.688286610862,
			"-0.008": 2.04521698735,
			"-0.007": 12.0290753628,
			"-0.006": 20.3154463751,
			"-0.005": 21.6758472229,
			"-0.004": 21.0368830604,
			"-0.003": 17.85771319,
			"-0.002": 12.1395540267,
			"-0.001": 10.6115588323,
			"0.0": 10.9435657627,
			"0.001": 12.6981341297,
			"0.002": 12.2390737325,
			"0.003": 14.0670962097,
			"0.004": 13.5209514088,
			"0.005": 10.9387979694,
			"0.006": 4.38753221848,
			"0.007": 1.81168601915,
			"0.008": 2.36240537179,
			"0.009": 3.18291289813,
			"0.01": 3.62581704484,
			"0.011": 5.4179780622,
			"0.012": 6.40855926573,
			"0.013": 3.83443637094,
			"0.014": 0.758400031873,
			"0.015": 0.0,
			"0.016": 0.0,
			"0.017": 0.0,
			"0.018": 0.0,
			"0.019": 0.0,
			"0.02": 0.0,
			"0.021": 0.0,
			"0.022": 0.0,
			"0.023": 0.0,
			"0.024": 0.0,
			"0.025": 0.0
		}
	}
}
