{
	 "smiles": "N#CC1CC2CCC1C2", 
	 "Tm": 317.15, 
	 "num_atms": 20, 
	 "gaussian": { 
		 "optdone": 1, 
		 "sigma_profile": "yes", 
		 "theory": "DFT", 
		 "functional": "B3LYP", 
		 "basiset": "6-31G**", 
		 "properties": { 
			 "R2extent": 1150.7488, 
			 "electric_dipole_moment_norm": 4.27382637457, 
			 "electric_quadrupole_moment_norm": 13.5336329184, 
			 "total_energy": -366.21723397, 
			 "HOMO_LUMO_gap": 0.33584, 
			 "cosmo_polarized_energy": -7.85, 
			 "cosmo_cavitation_energy": 21.54, 
			 "cosmo_dispersion_energy": -15.91, 
			 "cosmo_repulsion_energy": 1.3, 
			 "cosmo_total_nonelectrostatic_energy": 6.93, 
			 "SMD_solvation_energy": 4.12 
		},
		"coords": [
			{
				"x": -0.4897117182,
				"y": -3.1692252583,
				"z": -0.1646939888,
				"element": "N" 
			},
			{
				"x": -0.2746484455,
				"y": -2.1322734001,
				"z": 0.3130252309,
				"element": "C" 
			},
			{
				"x": -0.008711261,
				"y": -0.8168140337,
				"z": 0.8993737948,
				"element": "C" 
			},
			{
				"x": -1.3249984328,
				"y": 0.0278075308,
				"z": 1.1040618139,
				"element": "C" 
			},
			{
				"x": -1.0471927341,
				"y": 1.3085231656,
				"z": 0.28460117,
				"element": "C" 
			},
			{
				"x": 0.0358038133,
				"y": 2.1390874497,
				"z": 1.0128776436,
				"element": "C" 
			},
			{
				"x": 1.3350788442,
				"y": 1.296635575,
				"z": 0.7899868852,
				"element": "C" 
			},
			{
				"x": 0.8385502666,
				"y": 0.0945093506,
				"z": -0.0463993494,
				"element": "C" 
			},
			{
				"x": -0.2579893408,
				"y": 0.7435232677,
				"z": -0.9164422341,
				"element": "C" 
			},
			{
				"x": 0.5143468759,
				"y": -0.9830032479,
				"z": 1.8475203497,
				"element": "H" 
			},
			{
				"x": -2.191969456,
				"y": -0.5110429728,
				"z": 0.7128908282,
				"element": "H" 
			},
			{
				"x": -1.5096169206,
				"y": 0.2317568452,
				"z": 2.1626052003,
				"element": "H" 
			},
			{
				"x": -1.9536370562,
				"y": 1.8704700245,
				"z": 0.045661543,
				"element": "H" 
			},
			{
				"x": 0.1296993598,
				"y": 3.1333204535,
				"z": 0.5645072327,
				"element": "H" 
			},
			{
				"x": -0.1989799954,
				"y": 2.282944286,
				"z": 2.0724725059,
				"element": "H" 
			},
			{
				"x": 1.8070602662,
				"y": 0.9834327648,
				"z": 1.7269862016,
				"element": "H" 
			},
			{
				"x": 2.0830559131,
				"y": 1.8632383758,
				"z": 0.2267657559,
				"element": "H" 
			},
			{
				"x": 1.6281896427,
				"y": -0.4469466611,
				"z": -0.5711994221,
				"element": "H" 
			},
			{
				"x": 0.1334982119,
				"y": 1.5197337624,
				"z": -1.582030057,
				"element": "H" 
			},
			{
				"x": -0.8243278331,
				"y": 0.0200227221,
				"z": -1.5117711044,
				"element": "H" 
			}
		],
		 "valence_orbital": [ 
			{
				"type": "occ",
				"energy": -0.33637,
				"method": "rhf"
			},
			{
				"type": "occ",
				"energy": -0.32562,
				"method": "rhf"
			},
			{
				"type": "occ",
				"energy": -0.32119,
				"method": "rhf"
			},
			{
				"type": "occ",
				"energy": -0.30914,
				"method": "rhf"
			},
			{
				"type": "occ",
				"energy": -0.30339,
				"method": "rhf"
			},
			{
				"type": "unocc",
				"energy": 0.03245,
				"method": "rhf"
			},
			{
				"type": "unocc",
				"energy": 0.04294,
				"method": "rhf"
			},
			{
				"type": "unocc",
				"energy": 0.07115,
				"method": "rhf"
			},
			{
				"type": "unocc",
				"energy": 0.10005,
				"method": "rhf"
			},
			{
				"type": "unocc",
				"energy": 0.11958,
				"method": "rhf"
			}
		],
		"cosmo_sigma_profile": { 
			"-0.025": 0.0,
			"-0.024": 0.0,
			"-0.023": 0.0,
			"-0.022": 0.0,
			"-0.021": 0.0,
			"-0.02": 0.0,
			"-0.019": 0.0,
			"-0.018": 0.0,
			"-0.017": 0.0,
			"-0.016": 0.0,
			"-0.015": 0.0,
			"-0.014": 0.0,
			"-0.013": 0.0,
			"-0.012": 0.0,
			"-0.011": 0.0,
			"-0.01": 0.0,
			"-0.009": 0.0,
			"-0.008": 0.0431867601318,
			"-0.007": 2.26331002451,
			"-0.006": 3.08943058629,
			"-0.005": 4.78029294233,
			"-0.004": 14.9370714491,
			"-0.003": 26.2031865751,
			"-0.002": 28.0688101491,
			"-0.001": 23.7182194945,
			"0.0": 21.0719332582,
			"0.001": 11.9792430776,
			"0.002": 2.87155987988,
			"0.003": 1.45724241135,
			"0.004": 2.15527353339,
			"0.005": 1.56444752843,
			"0.006": 2.49583894742,
			"0.007": 2.05398264068,
			"0.008": 3.00445548192,
			"0.009": 3.49677770905,
			"0.01": 3.67108786853,
			"0.011": 3.0876710417,
			"0.012": 2.88989769439,
			"0.013": 2.41947759035,
			"0.014": 1.12332616001,
			"0.015": 0.0,
			"0.016": 0.0,
			"0.017": 0.0,
			"0.018": 0.0,
			"0.019": 0.0,
			"0.02": 0.0,
			"0.021": 0.0,
			"0.022": 0.0,
			"0.023": 0.0,
			"0.024": 0.0,
			"0.025": 0.0
		}
	}
}
