{
	 "smiles": "COC(=O)C1=CC(O)=CC(O)=C1", 
	 "Tm": 439.15, 
	 "num_atms": 20, 
	 "gaussian": { 
		 "optdone": 1, 
		 "sigma_profile": "yes", 
		 "theory": "DFT", 
		 "functional": "B3LYP", 
		 "basiset": "6-31G**", 
		 "properties": { 
			 "R2extent": 3004.6656, 
			 "electric_dipole_moment_norm": 2.17137896508, 
			 "electric_quadrupole_moment_norm": 12.5218782569, 
			 "total_energy": -610.570811871, 
			 "HOMO_LUMO_gap": 0.17903, 
			 "cosmo_polarized_energy": -15.19, 
			 "cosmo_cavitation_energy": 25.04, 
			 "cosmo_dispersion_energy": -18.57, 
			 "cosmo_repulsion_energy": 1.49, 
			 "cosmo_total_nonelectrostatic_energy": 7.96, 
			 "SMD_solvation_energy": 6.66 
		},
		"coords": [
			{
				"x": -2.0982182609,
				"y": 0.717592234,
				"z": -3.568987057,
				"element": "C" 
			},
			{
				"x": -1.7404006565,
				"y": -0.1020105047,
				"z": -2.4458671864,
				"element": "O" 
			},
			{
				"x": -1.6694000133,
				"y": 0.5472449009,
				"z": -1.2605356254,
				"element": "C" 
			},
			{
				"x": -1.8901794859,
				"y": 1.737500931,
				"z": -1.1445461319,
				"element": "O" 
			},
			{
				"x": -1.2937533352,
				"y": -0.355656476,
				"z": -0.1344158898,
				"element": "C" 
			},
			{
				"x": -1.1922715011,
				"y": 0.2177481433,
				"z": 1.1366097575,
				"element": "C" 
			},
			{
				"x": -0.8430431238,
				"y": -0.5883880029,
				"z": 2.2232238613,
				"element": "C" 
			},
			{
				"x": -0.725518295,
				"y": -0.0972654638,
				"z": 3.490357915,
				"element": "O" 
			},
			{
				"x": -0.5972864196,
				"y": -1.951972198,
				"z": 2.0463303436,
				"element": "C" 
			},
			{
				"x": -0.7026350614,
				"y": -2.510139232,
				"z": 0.7707036216,
				"element": "C" 
			},
			{
				"x": -0.451253452,
				"y": -3.8469136651,
				"z": 0.6583800134,
				"element": "O" 
			},
			{
				"x": -1.0509800326,
				"y": -1.7196614191,
				"z": -0.329536906,
				"element": "C" 
			},
			{
				"x": -2.1099483789,
				"y": 0.0492291482,
				"z": -4.4297846289,
				"element": "H" 
			},
			{
				"x": -3.0824798658,
				"y": 1.1684962799,
				"z": -3.4187832325,
				"element": "H" 
			},
			{
				"x": -1.3657200879,
				"y": 1.5161023944,
				"z": -3.7120705534,
				"element": "H" 
			},
			{
				"x": -1.387698208,
				"y": 1.2795044341,
				"z": 1.2508366905,
				"element": "H" 
			},
			{
				"x": -0.9187443523,
				"y": 0.849289744,
				"z": 3.480047497,
				"element": "H" 
			},
			{
				"x": -0.3267628867,
				"y": -2.5726148489,
				"z": 2.8926217052,
				"element": "H" 
			},
			{
				"x": -0.5559615445,
				"y": -4.1108932521,
				"z": -0.2648960627,
				"element": "H" 
			},
			{
				"x": -1.1338450386,
				"y": -2.1493931471,
				"z": -1.3219881312,
				"element": "H" 
			}
		],
		 "valence_orbital": [ 
			{
				"type": "occ",
				"energy": -0.31633,
				"method": "rhf"
			},
			{
				"type": "occ",
				"energy": -0.30334,
				"method": "rhf"
			},
			{
				"type": "occ",
				"energy": -0.27544,
				"method": "rhf"
			},
			{
				"type": "occ",
				"energy": -0.23986,
				"method": "rhf"
			},
			{
				"type": "occ",
				"energy": -0.22329,
				"method": "rhf"
			},
			{
				"type": "unocc",
				"energy": -0.04426,
				"method": "rhf"
			},
			{
				"type": "unocc",
				"energy": 0.01481,
				"method": "rhf"
			},
			{
				"type": "unocc",
				"energy": 0.06317,
				"method": "rhf"
			},
			{
				"type": "unocc",
				"energy": 0.06586,
				"method": "rhf"
			},
			{
				"type": "unocc",
				"energy": 0.07655,
				"method": "rhf"
			}
		],
		"cosmo_sigma_profile": { 
			"-0.025": 0.0,
			"-0.024": 0.0,
			"-0.023": 0.0,
			"-0.022": 0.0,
			"-0.021": 0.0,
			"-0.02": 0.0,
			"-0.019": 0.0,
			"-0.018": 1.29492228157,
			"-0.017": 2.29934706852,
			"-0.016": 2.10040147514,
			"-0.015": 2.34537383133,
			"-0.014": 1.91054053489,
			"-0.013": 1.97498960006,
			"-0.012": 1.76542443694,
			"-0.011": 1.65492372053,
			"-0.01": 2.12481282464,
			"-0.009": 2.05710996454,
			"-0.008": 2.37957839529,
			"-0.007": 2.88664086275,
			"-0.006": 8.49532748818,
			"-0.005": 10.111207586,
			"-0.004": 12.5500043106,
			"-0.003": 12.9012977359,
			"-0.002": 9.64057166264,
			"-0.001": 8.12784397206,
			"0.0": 8.35741719175,
			"0.001": 10.1182967469,
			"0.002": 14.8958306765,
			"0.003": 23.7293076837,
			"0.004": 13.9134496883,
			"0.005": 7.12110321456,
			"0.006": 5.43460146639,
			"0.007": 3.11133216405,
			"0.008": 4.70317578123,
			"0.009": 4.72665568896,
			"0.01": 5.510297008,
			"0.011": 6.38147736217,
			"0.012": 4.3783012706,
			"0.013": 0.137298757305,
			"0.014": 0.0,
			"0.015": 0.0,
			"0.016": 0.0,
			"0.017": 0.0,
			"0.018": 0.0,
			"0.019": 0.0,
			"0.02": 0.0,
			"0.021": 0.0,
			"0.022": 0.0,
			"0.023": 0.0,
			"0.024": 0.0,
			"0.025": 0.0
		}
	}
}
