{
	 "smiles": "ClCCN(CCCl)P1(=O)NCCCO1", 
	 "Tm": 324.65, 
	 "num_atms": 29, 
	 "gaussian": { 
		 "optdone": 1, 
		 "sigma_profile": "yes", 
		 "theory": "DFT", 
		 "functional": "B3LYP", 
		 "basiset": "6-31G**", 
		 "properties": { 
			 "R2extent": 5186.8253, 
			 "electric_dipole_moment_norm": 5.72224816833, 
			 "electric_quadrupole_moment_norm": 16.2210092836, 
			 "total_energy": -1797.53260248, 
			 "HOMO_LUMO_gap": 0.26896, 
			 "cosmo_polarized_energy": -17.87, 
			 "cosmo_cavitation_energy": 34.48, 
			 "cosmo_dispersion_energy": -24.39, 
			 "cosmo_repulsion_energy": 1.92, 
			 "cosmo_total_nonelectrostatic_energy": 12.01, 
			 "SMD_solvation_energy": 5.4 
		},
		"coords": [
			{
				"x": 1.2182467747,
				"y": 4.1160111549,
				"z": 1.1514944014,
				"element": "Cl" 
			},
			{
				"x": 2.0931576934,
				"y": 2.7143416477,
				"z": 1.9064435716,
				"element": "C" 
			},
			{
				"x": 1.1650465891,
				"y": 1.6496424706,
				"z": 2.4859833814,
				"element": "C" 
			},
			{
				"x": 0.2652297016,
				"y": 0.9830379587,
				"z": 1.5315204511,
				"element": "N" 
			},
			{
				"x": -1.166835785,
				"y": 0.9289946884,
				"z": 1.8221818723,
				"element": "C" 
			},
			{
				"x": -1.9558195397,
				"y": 2.2145190048,
				"z": 1.548981737,
				"element": "C" 
			},
			{
				"x": -2.0121723382,
				"y": 3.3390852488,
				"z": 2.9820415661,
				"element": "Cl" 
			},
			{
				"x": 0.8963289407,
				"y": 0.1605970191,
				"z": 0.2234258456,
				"element": "P" 
			},
			{
				"x": 2.3837553903,
				"y": 0.1072387098,
				"z": 0.2721036415,
				"element": "O" 
			},
			{
				"x": 0.1066199507,
				"y": -1.3324287957,
				"z": 0.1085526075,
				"element": "N" 
			},
			{
				"x": -0.4858536721,
				"y": -1.718506814,
				"z": -1.1893806098,
				"element": "C" 
			},
			{
				"x": 0.3259411947,
				"y": -1.1770227065,
				"z": -2.3738434085,
				"element": "C" 
			},
			{
				"x": 0.3093294896,
				"y": 0.3585673313,
				"z": -2.372364218,
				"element": "C" 
			},
			{
				"x": 0.2009296344,
				"y": 0.913264872,
				"z": -1.0376373708,
				"element": "O" 
			},
			{
				"x": 2.7328132232,
				"y": 2.2906456826,
				"z": 1.1346512584,
				"element": "H" 
			},
			{
				"x": 2.7069037061,
				"y": 3.1299034159,
				"z": 2.7082073764,
				"element": "H" 
			},
			{
				"x": 0.5385201285,
				"y": 2.0942899754,
				"z": 3.2613436241,
				"element": "H" 
			},
			{
				"x": 1.8241626524,
				"y": 0.9136897451,
				"z": 2.9684798895,
				"element": "H" 
			},
			{
				"x": -1.32680198,
				"y": 0.6144747126,
				"z": 2.8610641987,
				"element": "H" 
			},
			{
				"x": -1.5939581947,
				"y": 0.1404827076,
				"z": 1.1957770609,
				"element": "H" 
			},
			{
				"x": -2.9993686006,
				"y": 1.9823092114,
				"z": 1.3295272764,
				"element": "H" 
			},
			{
				"x": -1.5147697711,
				"y": 2.7744715933,
				"z": 0.7249679065,
				"element": "H" 
			},
			{
				"x": 0.6436339399,
				"y": -2.0742083307,
				"z": 0.5432240614,
				"element": "H" 
			},
			{
				"x": -0.5407855079,
				"y": -2.8097402907,
				"z": -1.2254149078,
				"element": "H" 
			},
			{
				"x": -1.5166627993,
				"y": -1.345674861,
				"z": -1.2413395305,
				"element": "H" 
			},
			{
				"x": 1.3533073574,
				"y": -1.549255401,
				"z": -2.2954089476,
				"element": "H" 
			},
			{
				"x": -0.0837791576,
				"y": -1.5382598659,
				"z": -3.3241581175,
				"element": "H" 
			},
			{
				"x": 1.2016454455,
				"y": 0.771171337,
				"z": -2.8527867257,
				"element": "H" 
			},
			{
				"x": -0.5723644659,
				"y": 0.7373585782,
				"z": -2.8970378918,
				"element": "H" 
			}
		],
		 "valence_orbital": [ 
			{
				"type": "occ",
				"energy": -0.28539,
				"method": "rhf"
			},
			{
				"type": "occ",
				"energy": -0.28265,
				"method": "rhf"
			},
			{
				"type": "occ",
				"energy": -0.27537,
				"method": "rhf"
			},
			{
				"type": "occ",
				"energy": -0.25879,
				"method": "rhf"
			},
			{
				"type": "occ",
				"energy": -0.24114,
				"method": "rhf"
			},
			{
				"type": "unocc",
				"energy": 0.02782,
				"method": "rhf"
			},
			{
				"type": "unocc",
				"energy": 0.04101,
				"method": "rhf"
			},
			{
				"type": "unocc",
				"energy": 0.05587,
				"method": "rhf"
			},
			{
				"type": "unocc",
				"energy": 0.07627,
				"method": "rhf"
			},
			{
				"type": "unocc",
				"energy": 0.08798,
				"method": "rhf"
			}
		],
		"cosmo_sigma_profile": { 
			"-0.025": 0.0,
			"-0.024": 0.0,
			"-0.023": 0.0,
			"-0.022": 0.0,
			"-0.021": 0.0,
			"-0.02": 0.0,
			"-0.019": 0.0,
			"-0.018": 0.0,
			"-0.017": 0.0,
			"-0.016": 0.0,
			"-0.015": 0.0,
			"-0.014": 0.0228148674793,
			"-0.013": 1.07822844429,
			"-0.012": 1.27688955257,
			"-0.011": 0.970707093038,
			"-0.01": 1.13574182593,
			"-0.009": 1.43342249671,
			"-0.008": 1.84216726235,
			"-0.007": 7.92431646609,
			"-0.006": 13.4650251198,
			"-0.005": 26.2798205815,
			"-0.004": 32.2593993892,
			"-0.003": 29.0138200801,
			"-0.002": 17.6149417815,
			"-0.001": 13.0059190082,
			"0.0": 11.9543572681,
			"0.001": 12.8156254398,
			"0.002": 12.2737065526,
			"0.003": 10.6939062872,
			"0.004": 10.7330576554,
			"0.005": 15.1924218369,
			"0.006": 15.9132374641,
			"0.007": 14.5241980189,
			"0.008": 4.91190058537,
			"0.009": 1.9652481616,
			"0.01": 1.3070596306,
			"0.011": 1.41391880466,
			"0.012": 0.757717033746,
			"0.013": 1.34251760626,
			"0.014": 1.877604719,
			"0.015": 3.91928306097,
			"0.016": 2.14947092105,
			"0.017": 0.0,
			"0.018": 0.0,
			"0.019": 0.0,
			"0.02": 0.0,
			"0.021": 0.0,
			"0.022": 0.0,
			"0.023": 0.0,
			"0.024": 0.0,
			"0.025": 0.0
		}
	}
}
