{
	 "smiles": "CC1=NN(C(=C1C(O)=O)C(F)(F)Cl)C1=CC=CC=C1", 
	 "Tm": 418.15, 
	 "num_atms": 28, 
	 "gaussian": { 
		 "optdone": 1, 
		 "sigma_profile": "yes", 
		 "theory": "DFT", 
		 "functional": "B3LYP", 
		 "basiset": "6-31G**", 
		 "properties": { 
			 "R2extent": 5359.6161, 
			 "electric_dipole_moment_norm": 5.37328494871, 
			 "electric_quadrupole_moment_norm": 16.2800185528, 
			 "total_energy": -1382.50245179, 
			 "HOMO_LUMO_gap": 0.19393, 
			 "cosmo_polarized_energy": -16.36, 
			 "cosmo_cavitation_energy": 34.83, 
			 "cosmo_dispersion_energy": -24.54, 
			 "cosmo_repulsion_energy": 1.85, 
			 "cosmo_total_nonelectrostatic_energy": 12.14, 
			 "SMD_solvation_energy": 6.34 
		},
		"coords": [
			{
				"x": 1.8037235218,
				"y": -2.6179623819,
				"z": 1.8682516059,
				"element": "C" 
			},
			{
				"x": 0.8789624335,
				"y": -1.6145505354,
				"z": 1.2430555988,
				"element": "C" 
			},
			{
				"x": 0.5967552785,
				"y": -1.7051375307,
				"z": -0.0520785063,
				"element": "N" 
			},
			{
				"x": -0.2323099925,
				"y": -0.6676396152,
				"z": -0.3342351078,
				"element": "N" 
			},
			{
				"x": -0.482405239,
				"y": 0.088304194,
				"z": 0.7749738782,
				"element": "C" 
			},
			{
				"x": 0.2296616302,
				"y": -0.4897216282,
				"z": 1.8261015042,
				"element": "C" 
			},
			{
				"x": 0.3586811706,
				"y": 0.0431529228,
				"z": 3.2061827955,
				"element": "C" 
			},
			{
				"x": 0.6435239913,
				"y": -0.8768788385,
				"z": 4.1702408881,
				"element": "O" 
			},
			{
				"x": 0.2627986494,
				"y": 1.2102976149,
				"z": 3.4963635412,
				"element": "O" 
			},
			{
				"x": -1.4413985118,
				"y": 1.2448177843,
				"z": 0.821887563,
				"element": "C" 
			},
			{
				"x": -2.3789092708,
				"y": 1.1334758936,
				"z": -0.1459356344,
				"element": "F" 
			},
			{
				"x": -2.0859643785,
				"y": 1.2652398201,
				"z": 1.9989337322,
				"element": "F" 
			},
			{
				"x": -0.6194716354,
				"y": 2.8428833778,
				"z": 0.6050000911,
				"element": "Cl" 
			},
			{
				"x": -0.6817310184,
				"y": -0.5375943992,
				"z": -1.6915187944,
				"element": "C" 
			},
			{
				"x": -0.5429956066,
				"y": 0.6707756934,
				"z": -2.3757572076,
				"element": "C" 
			},
			{
				"x": -0.956847894,
				"y": 0.749854948,
				"z": -3.705026738,
				"element": "C" 
			},
			{
				"x": -1.485842371,
				"y": -0.3708059838,
				"z": -4.3477753588,
				"element": "C" 
			},
			{
				"x": -1.6017001423,
				"y": -1.5792292555,
				"z": -3.6574054861,
				"element": "C" 
			},
			{
				"x": -1.200875593,
				"y": -1.6681915133,
				"z": -2.3255403464,
				"element": "C" 
			},
			{
				"x": 2.5479173075,
				"y": -2.1377277374,
				"z": 2.5098183074,
				"element": "H" 
			},
			{
				"x": 1.2619493497,
				"y": -3.3578528878,
				"z": 2.4732766083,
				"element": "H" 
			},
			{
				"x": 2.3213014825,
				"y": -3.1681056398,
				"z": 1.0802618459,
				"element": "H" 
			},
			{
				"x": 0.5551489991,
				"y": -1.7739112618,
				"z": 3.8206671808,
				"element": "H" 
			},
			{
				"x": -0.1137002054,
				"y": 1.533491242,
				"z": -1.8794712089,
				"element": "H" 
			},
			{
				"x": -0.8537468552,
				"y": 1.6887775211,
				"z": -4.2400670049,
				"element": "H" 
			},
			{
				"x": -1.8022656264,
				"y": -0.304025662,
				"z": -5.3842581032,
				"element": "H" 
			},
			{
				"x": -2.0079457204,
				"y": -2.4552222562,
				"z": -4.1536951499,
				"element": "H" 
			},
			{
				"x": -1.2777137536,
				"y": -2.5988138853,
				"z": -1.775250494,
				"element": "H" 
			}
		],
		 "valence_orbital": [ 
			{
				"type": "occ",
				"energy": -0.29498,
				"method": "rhf"
			},
			{
				"type": "occ",
				"energy": -0.2813,
				"method": "rhf"
			},
			{
				"type": "occ",
				"energy": -0.27164,
				"method": "rhf"
			},
			{
				"type": "occ",
				"energy": -0.26932,
				"method": "rhf"
			},
			{
				"type": "occ",
				"energy": -0.25399,
				"method": "rhf"
			},
			{
				"type": "unocc",
				"energy": -0.06006,
				"method": "rhf"
			},
			{
				"type": "unocc",
				"energy": -0.02067,
				"method": "rhf"
			},
			{
				"type": "unocc",
				"energy": -0.01899,
				"method": "rhf"
			},
			{
				"type": "unocc",
				"energy": -0.00428,
				"method": "rhf"
			},
			{
				"type": "unocc",
				"energy": 0.01941,
				"method": "rhf"
			}
		],
		"cosmo_sigma_profile": { 
			"-0.025": 0.0,
			"-0.024": 0.0,
			"-0.023": 0.0,
			"-0.022": 0.0,
			"-0.021": 0.0,
			"-0.02": 0.0,
			"-0.019": 0.0,
			"-0.018": 0.337739821287,
			"-0.017": 0.892212860969,
			"-0.016": 1.16670526581,
			"-0.015": 0.811387748552,
			"-0.014": 0.681340271273,
			"-0.013": 1.06502350721,
			"-0.012": 1.43537427955,
			"-0.011": 0.998666004391,
			"-0.01": 0.674849016968,
			"-0.009": 1.05535272219,
			"-0.008": 1.41760080089,
			"-0.007": 5.77002599739,
			"-0.006": 15.8529929754,
			"-0.005": 20.7358358206,
			"-0.004": 19.8053238255,
			"-0.003": 18.6625436207,
			"-0.002": 21.0874055418,
			"-0.001": 20.6706610309,
			"0.0": 18.1495750026,
			"0.001": 22.1283405724,
			"0.002": 28.061087669,
			"0.003": 23.7449891412,
			"0.004": 15.081447461,
			"0.005": 5.58399120134,
			"0.006": 4.50989416695,
			"0.007": 4.07211681892,
			"0.008": 4.19942655208,
			"0.009": 6.2484975525,
			"0.01": 5.97682767734,
			"0.011": 5.57758223762,
			"0.012": 3.94278221556,
			"0.013": 1.19834494236,
			"0.014": 0.0366667187449,
			"0.015": 0.0,
			"0.016": 0.0,
			"0.017": 0.0,
			"0.018": 0.0,
			"0.019": 0.0,
			"0.02": 0.0,
			"0.021": 0.0,
			"0.022": 0.0,
			"0.023": 0.0,
			"0.024": 0.0,
			"0.025": 0.0
		}
	}
}
