{
	 "smiles": "NCC1=CC=CO1", 
	 "Tm": 203.15, 
	 "num_atms": 14, 
	 "gaussian": { 
		 "optdone": 1, 
		 "sigma_profile": "yes", 
		 "theory": "DFT", 
		 "functional": "B3LYP", 
		 "basiset": "6-31G**", 
		 "properties": { 
			 "R2extent": 1427.5911, 
			 "electric_dipole_moment_norm": 1.16197592488, 
			 "electric_quadrupole_moment_norm": 5.31778135974, 
			 "total_energy": -324.689581468, 
			 "HOMO_LUMO_gap": 0.23309, 
			 "cosmo_polarized_energy": -7.01, 
			 "cosmo_cavitation_energy": 17.66, 
			 "cosmo_dispersion_energy": -13.35, 
			 "cosmo_repulsion_energy": 1.15, 
			 "cosmo_total_nonelectrostatic_energy": 5.46, 
			 "SMD_solvation_energy": 3.13 
		},
		"coords": [
			{
				"x": 0.3319974442,
				"y": -2.1967076453,
				"z": 0.3867778151,
				"element": "N" 
			},
			{
				"x": 0.7130905826,
				"y": -0.7862149055,
				"z": 0.4828875575,
				"element": "C" 
			},
			{
				"x": 0.1170006303,
				"y": -0.1807080297,
				"z": 1.7146055247,
				"element": "C" 
			},
			{
				"x": -0.3376358797,
				"y": -0.7024339009,
				"z": 2.8893541835,
				"element": "C" 
			},
			{
				"x": -0.7787982061,
				"y": 0.4099374535,
				"z": 3.6827773924,
				"element": "C" 
			},
			{
				"x": -0.5582095451,
				"y": 1.5225387966,
				"z": 2.9323309197,
				"element": "C" 
			},
			{
				"x": -0.0153204895,
				"y": 1.1812344726,
				"z": 1.7252607513,
				"element": "O" 
			},
			{
				"x": -0.6647078441,
				"y": -2.2717027742,
				"z": 0.1993792824,
				"element": "H" 
			},
			{
				"x": 0.8156578653,
				"y": -2.6340957559,
				"z": -0.3922846743,
				"element": "H" 
			},
			{
				"x": 1.8101646016,
				"y": -0.7411078628,
				"z": 0.5372785632,
				"element": "H" 
			},
			{
				"x": 0.4253404391,
				"y": -0.1608640689,
				"z": -0.3805066155,
				"element": "H" 
			},
			{
				"x": -0.347444757,
				"y": -1.7503011111,
				"z": 3.1484232643,
				"element": "H" 
			},
			{
				"x": -1.2030049571,
				"y": 0.3787789679,
				"z": 4.6763287835,
				"element": "H" 
			},
			{
				"x": -0.7236298847,
				"y": 2.5767463639,
				"z": 3.0914872521,
				"element": "H" 
			}
		],
		 "valence_orbital": [ 
			{
				"type": "occ",
				"energy": -0.37791,
				"method": "rhf"
			},
			{
				"type": "occ",
				"energy": -0.3565,
				"method": "rhf"
			},
			{
				"type": "occ",
				"energy": -0.26654,
				"method": "rhf"
			},
			{
				"type": "occ",
				"energy": -0.24317,
				"method": "rhf"
			},
			{
				"type": "occ",
				"energy": -0.21041,
				"method": "rhf"
			},
			{
				"type": "unocc",
				"energy": 0.02268,
				"method": "rhf"
			},
			{
				"type": "unocc",
				"energy": 0.07726,
				"method": "rhf"
			},
			{
				"type": "unocc",
				"energy": 0.08915,
				"method": "rhf"
			},
			{
				"type": "unocc",
				"energy": 0.13139,
				"method": "rhf"
			},
			{
				"type": "unocc",
				"energy": 0.14,
				"method": "rhf"
			}
		],
		"cosmo_sigma_profile": { 
			"-0.025": 0.0,
			"-0.024": 0.0,
			"-0.023": 0.0,
			"-0.022": 0.0,
			"-0.021": 0.0,
			"-0.02": 0.0,
			"-0.019": 0.0,
			"-0.018": 0.0,
			"-0.017": 0.0,
			"-0.016": 0.0,
			"-0.015": 0.0,
			"-0.014": 0.0,
			"-0.013": 0.0,
			"-0.012": 0.0,
			"-0.011": 0.0731621943404,
			"-0.01": 2.33923585554,
			"-0.009": 2.93052720034,
			"-0.008": 4.16105110319,
			"-0.007": 5.02179150643,
			"-0.006": 6.87888963682,
			"-0.005": 8.44300716882,
			"-0.004": 9.93192527316,
			"-0.003": 12.1866718673,
			"-0.002": 11.8671954318,
			"-0.001": 7.5811358719,
			"0.0": 7.4485266106,
			"0.001": 5.31934888528,
			"0.002": 7.27867370088,
			"0.003": 8.26490840362,
			"0.004": 9.80336516322,
			"0.005": 8.21434080881,
			"0.006": 7.75464116063,
			"0.007": 4.33238205807,
			"0.008": 2.55148404773,
			"0.009": 2.29324391375,
			"0.01": 0.360945319449,
			"0.011": 0.67812258857,
			"0.012": 0.72753664444,
			"0.013": 0.852125079721,
			"0.014": 0.418519841335,
			"0.015": 0.537733033521,
			"0.016": 0.42839009999,
			"0.017": 0.672479625258,
			"0.018": 0.252422805453,
			"0.019": 0.0,
			"0.02": 0.0,
			"0.021": 0.0,
			"0.022": 0.0,
			"0.023": 0.0,
			"0.024": 0.0,
			"0.025": 0.0
		}
	}
}
