{
	 "smiles": "CN(CC(N)=S)C(=O)C1=CC=CC=C1", 
	 "Tm": 423.15, 
	 "num_atms": 26, 
	 "gaussian": { 
		 "optdone": 1, 
		 "sigma_profile": "yes", 
		 "theory": "DFT", 
		 "functional": "B3LYP", 
		 "basiset": "6-31G**", 
		 "properties": { 
			 "R2extent": 3844.4678, 
			 "electric_dipole_moment_norm": 2.29316813601, 
			 "electric_quadrupole_moment_norm": 28.7809414556, 
			 "total_energy": -971.225215543, 
			 "HOMO_LUMO_gap": 0.16731, 
			 "cosmo_polarized_energy": -18.63, 
			 "cosmo_cavitation_energy": 31.25, 
			 "cosmo_dispersion_energy": -22.25, 
			 "cosmo_repulsion_energy": 1.73, 
			 "cosmo_total_nonelectrostatic_energy": 10.72, 
			 "SMD_solvation_energy": 4.64 
		},
		"coords": [
			{
				"x": 1.627254636,
				"y": -2.3073870776,
				"z": 0.5102206209,
				"element": "C" 
			},
			{
				"x": 0.9212866476,
				"y": -1.0276525706,
				"z": 0.4177891647,
				"element": "N" 
			},
			{
				"x": 0.7103204147,
				"y": -0.5103975768,
				"z": -0.9292514545,
				"element": "C" 
			},
			{
				"x": 1.9756622778,
				"y": -0.0261956842,
				"z": -1.6524122269,
				"element": "C" 
			},
			{
				"x": 2.9968109852,
				"y": 0.3229145889,
				"z": -0.8536593942,
				"element": "N" 
			},
			{
				"x": 2.0081288498,
				"y": 0.110831154,
				"z": -3.3077394333,
				"element": "S" 
			},
			{
				"x": 0.874501541,
				"y": -0.2401254205,
				"z": 1.5607584532,
				"element": "C" 
			},
			{
				"x": 1.5668963314,
				"y": -0.5042627692,
				"z": 2.5417484209,
				"element": "O" 
			},
			{
				"x": -0.0785097065,
				"y": 0.9215578016,
				"z": 1.5947887373,
				"element": "C" 
			},
			{
				"x": -1.384060804,
				"y": 0.8428074779,
				"z": 1.0878194064,
				"element": "C" 
			},
			{
				"x": -2.2595759269,
				"y": 1.9195022972,
				"z": 1.2314273102,
				"element": "C" 
			},
			{
				"x": -1.8367106676,
				"y": 3.084064869,
				"z": 1.8750797861,
				"element": "C" 
			},
			{
				"x": -0.542272443,
				"y": 3.1624167756,
				"z": 2.395510597,
				"element": "C" 
			},
			{
				"x": 0.3273319166,
				"y": 2.0814837654,
				"z": 2.268844246,
				"element": "C" 
			},
			{
				"x": 2.6833104406,
				"y": -2.2284396868,
				"z": 0.2244656563,
				"element": "H" 
			},
			{
				"x": 1.5773666592,
				"y": -2.6631095365,
				"z": 1.5380632374,
				"element": "H" 
			},
			{
				"x": 1.1426959841,
				"y": -3.024921399,
				"z": -0.1586426024,
				"element": "H" 
			},
			{
				"x": 0.0283291569,
				"y": 0.3408234551,
				"z": -0.8974270134,
				"element": "H" 
			},
			{
				"x": 0.2447730419,
				"y": -1.2749002654,
				"z": -1.5557299943,
				"element": "H" 
			},
			{
				"x": 3.8424098699,
				"y": 0.6810685749,
				"z": -1.2733505072,
				"element": "H" 
			},
			{
				"x": 2.9587474442,
				"y": 0.2033288376,
				"z": 0.1495633503,
				"element": "H" 
			},
			{
				"x": -1.7226942523,
				"y": -0.0700688199,
				"z": 0.6069295835,
				"element": "H" 
			},
			{
				"x": -3.2720941587,
				"y": 1.846401284,
				"z": 0.8457417646,
				"element": "H" 
			},
			{
				"x": -2.5168905189,
				"y": 3.9243240734,
				"z": 1.9797336033,
				"element": "H" 
			},
			{
				"x": -0.2149337227,
				"y": 4.062525868,
				"z": 2.9073895291,
				"element": "H" 
			},
			{
				"x": 1.3240160038,
				"y": 2.1163099842,
				"z": 2.6965391589,
				"element": "H" 
			}
		],
		 "valence_orbital": [ 
			{
				"type": "occ",
				"energy": -0.26659,
				"method": "rhf"
			},
			{
				"type": "occ",
				"energy": -0.26342,
				"method": "rhf"
			},
			{
				"type": "occ",
				"energy": -0.25324,
				"method": "rhf"
			},
			{
				"type": "occ",
				"energy": -0.23562,
				"method": "rhf"
			},
			{
				"type": "occ",
				"energy": -0.21216,
				"method": "rhf"
			},
			{
				"type": "unocc",
				"energy": -0.04485,
				"method": "rhf"
			},
			{
				"type": "unocc",
				"energy": -0.03591,
				"method": "rhf"
			},
			{
				"type": "unocc",
				"energy": -0.0156,
				"method": "rhf"
			},
			{
				"type": "unocc",
				"energy": 0.0321,
				"method": "rhf"
			},
			{
				"type": "unocc",
				"energy": 0.06068,
				"method": "rhf"
			}
		],
		"cosmo_sigma_profile": { 
			"-0.025": 0.0,
			"-0.024": 0.0,
			"-0.023": 0.0,
			"-0.022": 0.0,
			"-0.021": 0.0,
			"-0.02": 0.0,
			"-0.019": 0.0,
			"-0.018": 0.0,
			"-0.017": 0.0,
			"-0.016": 0.241193901191,
			"-0.015": 1.12727565628,
			"-0.014": 1.73906190638,
			"-0.013": 2.46199445854,
			"-0.012": 1.59542494962,
			"-0.011": 1.48275078012,
			"-0.01": 2.24616626389,
			"-0.009": 1.80499832327,
			"-0.008": 2.19938440728,
			"-0.007": 6.73323657201,
			"-0.006": 17.6384479609,
			"-0.005": 22.3013238317,
			"-0.004": 21.2604964132,
			"-0.003": 18.9966581776,
			"-0.002": 19.3605725588,
			"-0.001": 13.0702228488,
			"0.0": 10.4792545198,
			"0.001": 11.6692688132,
			"0.002": 11.1549079683,
			"0.003": 12.3648481189,
			"0.004": 15.3638041674,
			"0.005": 8.0758092396,
			"0.006": 4.85163449941,
			"0.007": 5.75832287719,
			"0.008": 6.72606708863,
			"0.009": 8.21127302808,
			"0.01": 6.78490906528,
			"0.011": 5.15985317394,
			"0.012": 4.44337103064,
			"0.013": 4.59274671584,
			"0.014": 1.19210039433,
			"0.015": 0.0120317039486,
			"0.016": 0.0,
			"0.017": 0.0,
			"0.018": 0.0,
			"0.019": 0.0,
			"0.02": 0.0,
			"0.021": 0.0,
			"0.022": 0.0,
			"0.023": 0.0,
			"0.024": 0.0,
			"0.025": 0.0
		}
	}
}
