{
	 "smiles": "NC(CC1=CC(I)=C(O)C(I)=C1)C(O)=O", 
	 "Tm": 486.15, 
	 "num_atms": 24, 
	 "gaussian": { 
		 "optdone": 1, 
		 "sigma_profile": "no", 
		 "theory": "DFT", 
		 "functional": "B3LYP", 
		 "basiset": "6-31G**", 
		 "properties": { 
			 "R2extent": 4188.5365, 
			 "electric_dipole_moment_norm": 3.81266809465, 
			 "electric_quadrupole_moment_norm": 17.8867564452, 
			 "total_energy": -651.582379997, 
			 "HOMO_LUMO_gap": 0.16956, 
			 "cosmo_polarized_energy": -210576.43, 
			 "cosmo_cavitation_energy": 34.2, 
			 "cosmo_dispersion_energy": -26.94, 
			 "cosmo_repulsion_energy": 2.11, 
			 "cosmo_total_nonelectrostatic_energy": 9.36, 
			 "SMD_solvation_energy": 4.73 
		},
		"coords": [
			{
				"x": 1.594472997,
				"y": -2.9182218302,
				"z": 0.9586565874,
				"element": "N" 
			},
			{
				"x": 1.1377377021,
				"y": -1.7060737844,
				"z": 1.6314978707,
				"element": "C" 
			},
			{
				"x": 1.4448011626,
				"y": -0.4450664015,
				"z": 0.7848106247,
				"element": "C" 
			},
			{
				"x": 0.7407094003,
				"y": -0.387940947,
				"z": -0.5543681859,
				"element": "C" 
			},
			{
				"x": 1.2224023237,
				"y": -1.1049791741,
				"z": -1.6578620556,
				"element": "C" 
			},
			{
				"x": 0.5704577549,
				"y": -1.0542147568,
				"z": -2.8852761813,
				"element": "C" 
			},
			{
				"x": 1.344434897,
				"y": -2.1572228844,
				"z": -4.5160919417,
				"element": "I" 
			},
			{
				"x": -0.5925871665,
				"y": -0.2842954491,
				"z": -3.0670868515,
				"element": "C" 
			},
			{
				"x": -1.1809546832,
				"y": -0.2679361651,
				"z": -4.2816204244,
				"element": "O" 
			},
			{
				"x": -1.0640705643,
				"y": 0.4257478542,
				"z": -1.9496418327,
				"element": "C" 
			},
			{
				"x": -2.8223030787,
				"y": 1.6084780258,
				"z": -2.1523695973,
				"element": "I" 
			},
			{
				"x": -0.4169106118,
				"y": 0.3800330109,
				"z": -0.7168649163,
				"element": "C" 
			},
			{
				"x": -0.3460956208,
				"y": -1.760730543,
				"z": 1.9816578402,
				"element": "C" 
			},
			{
				"x": -0.8174272315,
				"y": -3.0241566,
				"z": 2.0821040907,
				"element": "O" 
			},
			{
				"x": -1.0321331188,
				"y": -0.7893240624,
				"z": 2.2136124856,
				"element": "O" 
			},
			{
				"x": 2.6015831286,
				"y": -3.0081682107,
				"z": 1.055553345,
				"element": "H" 
			},
			{
				"x": 1.1695798104,
				"y": -3.7419025344,
				"z": 1.3714603882,
				"element": "H" 
			},
			{
				"x": 1.6239364296,
				"y": -1.5459770625,
				"z": 2.6138250691,
				"element": "H" 
			},
			{
				"x": 1.1789983075,
				"y": 0.431430571,
				"z": 1.3813367751,
				"element": "H" 
			},
			{
				"x": 2.5306286769,
				"y": -0.4139221731,
				"z": 0.6353437215,
				"element": "H" 
			},
			{
				"x": 2.1072787491,
				"y": -1.719247837,
				"z": -1.5498801551,
				"element": "H" 
			},
			{
				"x": -1.9643685323,
				"y": 0.3050661964,
				"z": -4.2516630421,
				"element": "H" 
			},
			{
				"x": -0.8194343885,
				"y": 0.9275870737,
				"z": 0.1269409216,
				"element": "H" 
			},
			{
				"x": -1.7528363433,
				"y": -2.9483623165,
				"z": 2.3359254643,
				"element": "H" 
			}
		],
		 "valence_orbital": [ 
			{
				"type": "occ",
				"energy": -0.27548,
				"method": "rhf"
			},
			{
				"type": "occ",
				"energy": -0.25777,
				"method": "rhf"
			},
			{
				"type": "occ",
				"energy": -0.25233,
				"method": "rhf"
			},
			{
				"type": "occ",
				"energy": -0.23617,
				"method": "rhf"
			},
			{
				"type": "occ",
				"energy": -0.22463,
				"method": "rhf"
			},
			{
				"type": "unocc",
				"energy": -0.05507,
				"method": "rhf"
			},
			{
				"type": "unocc",
				"energy": -0.02164,
				"method": "rhf"
			},
			{
				"type": "unocc",
				"energy": -0.01998,
				"method": "rhf"
			},
			{
				"type": "unocc",
				"energy": -0.00849,
				"method": "rhf"
			},
			{
				"type": "unocc",
				"energy": -0.00199,
				"method": "rhf"
			}
		],
		"cosmo_sigma_profile": { 
			"0.0": 0.0,
			"0.0": 0.0,
			"0.0": 0.0,
			"0.0": 0.0,
			"0.0": 0.0,
			"0.0": 0.0,
			"0.0": 0.0,
			"0.0": 0.0,
			"0.0": 0.0,
			"0.0": 0.0,
			"0.0": 0.0,
			"0.0": 0.0,
			"0.0": 0.0,
			"0.0": 0.0,
			"0.0": 0.0,
			"0.0": 0.0,
			"0.0": 0.0,
			"0.0": 0.0,
			"0.0": 0.0,
			"0.0": 0.0,
			"0.0": 0.0,
			"0.0": 0.0,
			"0.0": 0.0,
			"0.0": 0.0,
			"0.0": 0.0,
			"0.0": 0.0,
			"0.0": 0.0,
			"0.0": 0.0,
			"0.0": 0.0,
			"0.0": 0.0,
			"0.0": 0.0,
			"0.0": 0.0,
			"0.0": 0.0,
			"0.0": 0.0,
			"0.0": 0.0,
			"0.0": 0.0,
			"0.0": 0.0,
			"0.0": 0.0,
			"0.0": 0.0,
			"0.0": 0.0,
			"0.0": 0.0,
			"0.0": 0.0,
			"0.0": 0.0,
			"0.0": 0.0,
			"0.0": 0.0,
			"0.0": 0.0,
			"0.0": 0.0,
			"0.0": 0.0,
			"0.0": 0.0,
			"0.0": 0.0,
			"0.0": 0.0
		}
	}
}
