{
	 "smiles": "CC1=CC(C2=NC(=NN2)C2CC2)=C(N)C=C1", 
	 "Tm": 479.15, 
	 "num_atms": 30, 
	 "gaussian": { 
		 "optdone": 1, 
		 "sigma_profile": "yes", 
		 "theory": "DFT", 
		 "functional": "B3LYP", 
		 "basiset": "6-31G**", 
		 "properties": { 
			 "R2extent": 6199.9544, 
			 "electric_dipole_moment_norm": 1.75364479014, 
			 "electric_quadrupole_moment_norm": 13.2150816116, 
			 "total_energy": -684.710094175, 
			 "HOMO_LUMO_gap": 0.16018, 
			 "cosmo_polarized_energy": -13.04, 
			 "cosmo_cavitation_energy": 33.19, 
			 "cosmo_dispersion_energy": -24.32, 
			 "cosmo_repulsion_energy": 1.89, 
			 "cosmo_total_nonelectrostatic_energy": 10.75, 
			 "SMD_solvation_energy": 3.29 
		},
		"coords": [
			{
				"x": 5.0539530838,
				"y": -2.7859114427,
				"z": -0.9664294158,
				"element": "C" 
			},
			{
				"x": 3.6590769063,
				"y": -2.2266413896,
				"z": -1.1170154404,
				"element": "C" 
			},
			{
				"x": 3.4051926373,
				"y": -0.8621074936,
				"z": -1.0490738206,
				"element": "C" 
			},
			{
				"x": 2.1154252633,
				"y": -0.3103261185,
				"z": -1.1835727567,
				"element": "C" 
			},
			{
				"x": 1.9231970989,
				"y": 1.1353957433,
				"z": -1.0999911808,
				"element": "C" 
			},
			{
				"x": 0.7620188928,
				"y": 1.7925160382,
				"z": -1.0175074539,
				"element": "N" 
			},
			{
				"x": 1.1209852486,
				"y": 3.1102542004,
				"z": -0.9496435326,
				"element": "C" 
			},
			{
				"x": 2.4295593825,
				"y": 3.321121153,
				"z": -0.9872994007,
				"element": "N" 
			},
			{
				"x": 2.9228423235,
				"y": 2.0549764421,
				"z": -1.08176469,
				"element": "N" 
			},
			{
				"x": 0.1504702946,
				"y": 4.2158303679,
				"z": -0.8435331043,
				"element": "C" 
			},
			{
				"x": -1.1836363378,
				"y": 4.119709832,
				"z": -1.5589199633,
				"element": "C" 
			},
			{
				"x": -1.1345021829,
				"y": 4.0190871641,
				"z": -0.0621278987,
				"element": "C" 
			},
			{
				"x": 1.0106153543,
				"y": -1.1829636139,
				"z": -1.3924204468,
				"element": "C" 
			},
			{
				"x": -0.2663747045,
				"y": -0.7129072807,
				"z": -1.5684017704,
				"element": "N" 
			},
			{
				"x": 1.2726654666,
				"y": -2.5697296604,
				"z": -1.4574200518,
				"element": "C" 
			},
			{
				"x": 2.5548047884,
				"y": -3.0734700252,
				"z": -1.3261042709,
				"element": "C" 
			},
			{
				"x": 5.1166938091,
				"y": -3.4984239678,
				"z": -0.1353491667,
				"element": "H" 
			},
			{
				"x": 5.7829239041,
				"y": -1.9927347793,
				"z": -0.7756862083,
				"element": "H" 
			},
			{
				"x": 5.3756282961,
				"y": -3.3186808484,
				"z": -1.8695449426,
				"element": "H" 
			},
			{
				"x": 4.2450752282,
				"y": -0.1973917711,
				"z": -0.8592496523,
				"element": "H" 
			},
			{
				"x": 3.9168343485,
				"y": 1.9169818588,
				"z": -1.1680225128,
				"element": "H" 
			},
			{
				"x": 0.6208279306,
				"y": 5.1923954811,
				"z": -0.7940035871,
				"element": "H" 
			},
			{
				"x": -1.5773016989,
				"y": 5.0258810058,
				"z": -2.0091463197,
				"element": "H" 
			},
			{
				"x": -1.3707008965,
				"y": 3.2113050694,
				"z": -2.122437081,
				"element": "H" 
			},
			{
				"x": -1.4946837371,
				"y": 4.8548844498,
				"z": 0.5299404405,
				"element": "H" 
			},
			{
				"x": -1.2876937053,
				"y": 3.0420826063,
				"z": 0.3847454214,
				"element": "H" 
			},
			{
				"x": -0.4356208989,
				"y": 0.2560843961,
				"z": -1.3162531635,
				"element": "H" 
			},
			{
				"x": -1.0226133403,
				"y": -1.3704357149,
				"z": -1.46491766,
				"element": "H" 
			},
			{
				"x": 0.4378491462,
				"y": -3.2472947043,
				"z": -1.6195550607,
				"element": "H" 
			},
			{
				"x": 2.7081880986,
				"y": -4.1488869981,
				"z": -1.3807953094,
				"element": "H" 
			}
		],
		 "valence_orbital": [ 
			{
				"type": "occ",
				"energy": -0.29401,
				"method": "rhf"
			},
			{
				"type": "occ",
				"energy": -0.27406,
				"method": "rhf"
			},
			{
				"type": "occ",
				"energy": -0.25884,
				"method": "rhf"
			},
			{
				"type": "occ",
				"energy": -0.22737,
				"method": "rhf"
			},
			{
				"type": "occ",
				"energy": -0.19095,
				"method": "rhf"
			},
			{
				"type": "unocc",
				"energy": -0.03077,
				"method": "rhf"
			},
			{
				"type": "unocc",
				"energy": 0.01663,
				"method": "rhf"
			},
			{
				"type": "unocc",
				"energy": 0.04101,
				"method": "rhf"
			},
			{
				"type": "unocc",
				"energy": 0.06658,
				"method": "rhf"
			},
			{
				"type": "unocc",
				"energy": 0.06845,
				"method": "rhf"
			}
		],
		"cosmo_sigma_profile": { 
			"-0.025": 0.0,
			"-0.024": 0.0,
			"-0.023": 0.0,
			"-0.022": 0.0,
			"-0.021": 0.0,
			"-0.02": 0.0,
			"-0.019": 0.0,
			"-0.018": 0.0365902462931,
			"-0.017": 0.862518547148,
			"-0.016": 1.3088622057,
			"-0.015": 0.704842527628,
			"-0.014": 1.28988459897,
			"-0.013": 1.07768242719,
			"-0.012": 2.69291912343,
			"-0.011": 2.89648274357,
			"-0.01": 2.12831272683,
			"-0.009": 3.08063997082,
			"-0.008": 2.44401491595,
			"-0.007": 3.04757158469,
			"-0.006": 4.99482796199,
			"-0.005": 12.4276885771,
			"-0.004": 18.7577628061,
			"-0.003": 19.9999145758,
			"-0.002": 20.5907986631,
			"-0.001": 18.5754580538,
			"0.0": 22.7387216965,
			"0.001": 19.7060797777,
			"0.002": 18.9461670618,
			"0.003": 22.5635178358,
			"0.004": 18.3365707887,
			"0.005": 15.5993583228,
			"0.006": 11.5663353898,
			"0.007": 4.19321148982,
			"0.008": 2.52144074898,
			"0.009": 1.35842854213,
			"0.01": 1.85750692436,
			"0.011": 1.94358386817,
			"0.012": 1.66248863831,
			"0.013": 1.55372867187,
			"0.014": 0.434778620178,
			"0.015": 1.1218480062,
			"0.016": 0.390413263834,
			"0.017": 0.0,
			"0.018": 0.0,
			"0.019": 0.0,
			"0.02": 0.0,
			"0.021": 0.0,
			"0.022": 0.0,
			"0.023": 0.0,
			"0.024": 0.0,
			"0.025": 0.0
		}
	}
}
