{
	 "smiles": "NC1=CC=NN1CC1=CSC=C1", 
	 "Tm": 307.15, 
	 "num_atms": 21, 
	 "gaussian": { 
		 "optdone": 1, 
		 "sigma_profile": "yes", 
		 "theory": "DFT", 
		 "functional": "B3LYP", 
		 "basiset": "6-31G**", 
		 "properties": { 
			 "R2extent": 2852.6335, 
			 "electric_dipole_moment_norm": 2.72711440721, 
			 "electric_quadrupole_moment_norm": 10.2429588147, 
			 "total_energy": -872.676635132, 
			 "HOMO_LUMO_gap": 0.18534, 
			 "cosmo_polarized_energy": -12.26, 
			 "cosmo_cavitation_energy": 26.56, 
			 "cosmo_dispersion_energy": -19.6, 
			 "cosmo_repulsion_energy": 1.51, 
			 "cosmo_total_nonelectrostatic_energy": 8.47, 
			 "SMD_solvation_energy": 3.83 
		},
		"coords": [
			{
				"x": 0.4918636132,
				"y": -1.817518842,
				"z": 2.2050693712,
				"element": "N" 
			},
			{
				"x": 1.1706391233,
				"y": -2.4373958958,
				"z": 1.1513435713,
				"element": "C" 
			},
			{
				"x": 1.3331553634,
				"y": -3.7673955711,
				"z": 0.7904006485,
				"element": "C" 
			},
			{
				"x": 2.1876650952,
				"y": -3.7211438961,
				"z": -0.3335933049,
				"element": "C" 
			},
			{
				"x": 2.5325580395,
				"y": -2.4796268095,
				"z": -0.6620166773,
				"element": "N" 
			},
			{
				"x": 1.9159838682,
				"y": -1.7026339523,
				"z": 0.2771581114,
				"element": "N" 
			},
			{
				"x": 2.040464568,
				"y": -0.2554052809,
				"z": 0.2294541584,
				"element": "C" 
			},
			{
				"x": 0.8079757074,
				"y": 0.4263337013,
				"z": -0.3208542969,
				"element": "C" 
			},
			{
				"x": 0.1167138273,
				"y": 1.4180910294,
				"z": 0.3262967128,
				"element": "C" 
			},
			{
				"x": -1.2303756642,
				"y": 1.9863337685,
				"z": -0.6087577795,
				"element": "S" 
			},
			{
				"x": -0.8683277309,
				"y": 0.8640315547,
				"z": -1.8844650536,
				"element": "C" 
			},
			{
				"x": 0.2304804396,
				"y": 0.1078036965,
				"z": -1.595422008,
				"element": "C" 
			},
			{
				"x": -0.042390045,
				"y": -2.4823786341,
				"z": 2.7499945197,
				"element": "H" 
			},
			{
				"x": -0.1114606556,
				"y": -1.0603417491,
				"z": 1.8966484744,
				"element": "H" 
			},
			{
				"x": 0.8921860085,
				"y": -4.6311814591,
				"z": 1.2656238007,
				"element": "H" 
			},
			{
				"x": 2.561440094,
				"y": -4.5499695865,
				"z": -0.9209934201,
				"element": "H" 
			},
			{
				"x": 2.9102562698,
				"y": -0.059964171,
				"z": -0.4030958815,
				"element": "H" 
			},
			{
				"x": 2.2592333455,
				"y": 0.1136302941,
				"z": 1.2368612214,
				"element": "H" 
			},
			{
				"x": 0.3368776295,
				"y": 1.8621510367,
				"z": 1.2881963615,
				"element": "H" 
			},
			{
				"x": -1.4912250304,
				"y": 0.832227585,
				"z": -2.7676666801,
				"element": "H" 
			},
			{
				"x": 0.6295861337,
				"y": -0.6606468187,
				"z": -2.2477818494,
				"element": "H" 
			}
		],
		 "valence_orbital": [ 
			{
				"type": "occ",
				"energy": -0.27397,
				"method": "rhf"
			},
			{
				"type": "occ",
				"energy": -0.25622,
				"method": "rhf"
			},
			{
				"type": "occ",
				"energy": -0.24395,
				"method": "rhf"
			},
			{
				"type": "occ",
				"energy": -0.23432,
				"method": "rhf"
			},
			{
				"type": "occ",
				"energy": -0.2033,
				"method": "rhf"
			},
			{
				"type": "unocc",
				"energy": -0.01796,
				"method": "rhf"
			},
			{
				"type": "unocc",
				"energy": 0.02533,
				"method": "rhf"
			},
			{
				"type": "unocc",
				"energy": 0.03713,
				"method": "rhf"
			},
			{
				"type": "unocc",
				"energy": 0.05159,
				"method": "rhf"
			},
			{
				"type": "unocc",
				"energy": 0.07429,
				"method": "rhf"
			}
		],
		"cosmo_sigma_profile": { 
			"-0.025": 0.0,
			"-0.024": 0.0,
			"-0.023": 0.0,
			"-0.022": 0.0,
			"-0.021": 0.0,
			"-0.02": 0.0,
			"-0.019": 0.0,
			"-0.018": 0.0,
			"-0.017": 0.0,
			"-0.016": 0.0,
			"-0.015": 0.0,
			"-0.014": 0.0,
			"-0.013": 0.82521188839,
			"-0.012": 1.5262242821,
			"-0.011": 1.49466400859,
			"-0.01": 2.69634164333,
			"-0.009": 3.24194640921,
			"-0.008": 5.97997148781,
			"-0.007": 7.71769157377,
			"-0.006": 13.4693863689,
			"-0.005": 15.4290949145,
			"-0.004": 13.3101095855,
			"-0.003": 12.1057268592,
			"-0.002": 12.1302507517,
			"-0.001": 11.8844858661,
			"0.0": 10.4836511949,
			"0.001": 11.2437816608,
			"0.002": 15.6687313373,
			"0.003": 15.3234630076,
			"0.004": 18.6434501621,
			"0.005": 12.5986117541,
			"0.006": 7.95841406661,
			"0.007": 5.18223618111,
			"0.008": 2.76216595879,
			"0.009": 2.05721415324,
			"0.01": 1.87527181786,
			"0.011": 1.2825285817,
			"0.012": 2.07067441601,
			"0.013": 1.76272416739,
			"0.014": 1.71081673863,
			"0.015": 0.629859261454,
			"0.016": 0.887230989884,
			"0.017": 0.328088651391,
			"0.018": 0.0,
			"0.019": 0.0,
			"0.02": 0.0,
			"0.021": 0.0,
			"0.022": 0.0,
			"0.023": 0.0,
			"0.024": 0.0,
			"0.025": 0.0
		}
	}
}
