{
	 "smiles": "COC1=CC=C(NC(=O)C2=C(N)SC3=C2CCCC3)C=C1", 
	 "Tm": 432.15, 
	 "num_atms": 39, 
	 "gaussian": { 
		 "optdone": 1, 
		 "sigma_profile": "yes", 
		 "theory": "DFT", 
		 "functional": "B3LYP", 
		 "basiset": "6-31G**", 
		 "properties": { 
			 "R2extent": 8746.2256, 
			 "electric_dipole_moment_norm": 4.89971714898, 
			 "electric_quadrupole_moment_norm": 20.1022936127, 
			 "total_energy": -1278.69349347, 
			 "HOMO_LUMO_gap": 0.16752, 
			 "cosmo_polarized_energy": -16.74, 
			 "cosmo_cavitation_energy": 42.07, 
			 "cosmo_dispersion_energy": -30.15, 
			 "cosmo_repulsion_energy": 2.29, 
			 "cosmo_total_nonelectrostatic_energy": 14.2, 
			 "SMD_solvation_energy": 6.97 
		},
		"coords": [
			{
				"x": -5.0078635042,
				"y": -0.4787524545,
				"z": -3.922291591,
				"element": "C" 
			},
			{
				"x": -4.0511553881,
				"y": 0.323479355,
				"z": -3.249650174,
				"element": "O" 
			},
			{
				"x": -3.1375280821,
				"y": -0.2989726682,
				"z": -2.4485884674,
				"element": "C" 
			},
			{
				"x": -3.0613603515,
				"y": -1.6805621492,
				"z": -2.2449641185,
				"element": "C" 
			},
			{
				"x": -2.0691819042,
				"y": -2.2028896515,
				"z": -1.4103195892,
				"element": "C" 
			},
			{
				"x": -1.1607761552,
				"y": -1.3689875702,
				"z": -0.7501166006,
				"element": "C" 
			},
			{
				"x": -0.2004976266,
				"y": -1.9624471543,
				"z": 0.1165227782,
				"element": "N" 
			},
			{
				"x": 1.0220505741,
				"y": -1.4552517686,
				"z": 0.5696593307,
				"element": "C" 
			},
			{
				"x": 1.4088789405,
				"y": -1.778201328,
				"z": 1.6900142926,
				"element": "O" 
			},
			{
				"x": 1.8236849791,
				"y": -0.60876442,
				"z": -0.3431300001,
				"element": "C" 
			},
			{
				"x": 1.9666483016,
				"y": -0.823060836,
				"z": -1.7043452248,
				"element": "C" 
			},
			{
				"x": 1.462557824,
				"y": -1.839582504,
				"z": -2.4925428839,
				"element": "N" 
			},
			{
				"x": 3.0938891644,
				"y": 0.3154160052,
				"z": -2.4139831442,
				"element": "S" 
			},
			{
				"x": 3.3684048998,
				"y": 1.0915222447,
				"z": -0.8562914299,
				"element": "C" 
			},
			{
				"x": 2.6621149193,
				"y": 0.4785335172,
				"z": 0.1340122845,
				"element": "C" 
			},
			{
				"x": 2.7387722153,
				"y": 0.9587452178,
				"z": 1.5658207494,
				"element": "C" 
			},
			{
				"x": 3.9296754866,
				"y": 1.9078511208,
				"z": 1.7810685991,
				"element": "C" 
			},
			{
				"x": 4.03882811,
				"y": 2.9500140091,
				"z": 0.6594334723,
				"element": "C" 
			},
			{
				"x": 4.2841865248,
				"y": 2.2737968788,
				"z": -0.7023947492,
				"element": "C" 
			},
			{
				"x": -1.2608161814,
				"y": 0.0195722291,
				"z": -0.9428851811,
				"element": "C" 
			},
			{
				"x": -2.2259911716,
				"y": 0.5423909457,
				"z": -1.7921595864,
				"element": "C" 
			},
			{
				"x": -5.6369092654,
				"y": -1.0372681184,
				"z": -3.2168255301,
				"element": "H" 
			},
			{
				"x": -4.5307658905,
				"y": -1.1861750448,
				"z": -4.6133070902,
				"element": "H" 
			},
			{
				"x": -5.6333757471,
				"y": 0.2103432494,
				"z": -4.4916732445,
				"element": "H" 
			},
			{
				"x": -3.7532247787,
				"y": -2.358557908,
				"z": -2.7302076055,
				"element": "H" 
			},
			{
				"x": -2.0058461117,
				"y": -3.2784605923,
				"z": -1.2656222189,
				"element": "H" 
			},
			{
				"x": -0.5716936251,
				"y": -2.6236041721,
				"z": 0.7901019512,
				"element": "H" 
			},
			{
				"x": 1.3218870076,
				"y": -1.6099704209,
				"z": -3.4670223156,
				"element": "H" 
			},
			{
				"x": 0.6725878068,
				"y": -2.3279494453,
				"z": -2.0930215615,
				"element": "H" 
			},
			{
				"x": 1.8021743143,
				"y": 1.4741635218,
				"z": 1.8278804697,
				"element": "H" 
			},
			{
				"x": 2.7996141299,
				"y": 0.0959998082,
				"z": 2.2335853752,
				"element": "H" 
			},
			{
				"x": 3.8342132261,
				"y": 2.4033190423,
				"z": 2.7538204693,
				"element": "H" 
			},
			{
				"x": 4.8577093401,
				"y": 1.3217216448,
				"z": 1.8166307549,
				"element": "H" 
			},
			{
				"x": 3.107977653,
				"y": 3.5303890197,
				"z": 0.6121320816,
				"element": "H" 
			},
			{
				"x": 4.8467196661,
				"y": 3.6606465562,
				"z": 0.8676514166,
				"element": "H" 
			},
			{
				"x": 5.3343739957,
				"y": 1.9535270725,
				"z": -0.773113443,
				"element": "H" 
			},
			{
				"x": 4.1311422425,
				"y": 2.9952684288,
				"z": -1.5151633737,
				"element": "H" 
			},
			{
				"x": -0.5799839423,
				"y": 0.687217528,
				"z": -0.4282925271,
				"element": "H" 
			},
			{
				"x": -2.3072215961,
				"y": 1.6131408111,
				"z": -1.9479223748,
				"element": "H" 
			}
		],
		 "valence_orbital": [ 
			{
				"type": "occ",
				"energy": -0.26244,
				"method": "rhf"
			},
			{
				"type": "occ",
				"energy": -0.24819,
				"method": "rhf"
			},
			{
				"type": "occ",
				"energy": -0.23353,
				"method": "rhf"
			},
			{
				"type": "occ",
				"energy": -0.21064,
				"method": "rhf"
			},
			{
				"type": "occ",
				"energy": -0.18729,
				"method": "rhf"
			},
			{
				"type": "unocc",
				"energy": -0.01977,
				"method": "rhf"
			},
			{
				"type": "unocc",
				"energy": -0.01454,
				"method": "rhf"
			},
			{
				"type": "unocc",
				"energy": 0.0091,
				"method": "rhf"
			},
			{
				"type": "unocc",
				"energy": 0.01792,
				"method": "rhf"
			},
			{
				"type": "unocc",
				"energy": 0.03312,
				"method": "rhf"
			}
		],
		"cosmo_sigma_profile": { 
			"-0.025": 0.0,
			"-0.024": 0.0,
			"-0.023": 0.0,
			"-0.022": 0.0,
			"-0.021": 0.0,
			"-0.02": 0.0,
			"-0.019": 0.0,
			"-0.018": 0.0,
			"-0.017": 0.0,
			"-0.016": 0.0,
			"-0.015": 0.101257560596,
			"-0.014": 1.08959376714,
			"-0.013": 2.33345504115,
			"-0.012": 2.14042036091,
			"-0.011": 1.56866184344,
			"-0.01": 2.48172421218,
			"-0.009": 2.05905359727,
			"-0.008": 4.58570659974,
			"-0.007": 4.4619200687,
			"-0.006": 12.5417580723,
			"-0.005": 17.8281615284,
			"-0.004": 21.736705401,
			"-0.003": 29.303597037,
			"-0.002": 33.0008535479,
			"-0.001": 33.6127013689,
			"0.0": 29.9346328933,
			"0.001": 21.807967446,
			"0.002": 16.9359835628,
			"0.003": 18.6664280159,
			"0.004": 23.2726984745,
			"0.005": 18.871034845,
			"0.006": 7.60454487434,
			"0.007": 4.31873917791,
			"0.008": 3.93447277331,
			"0.009": 2.94450427965,
			"0.01": 3.77234682226,
			"0.011": 3.58013060087,
			"0.012": 2.24245791356,
			"0.013": 4.57414406287,
			"0.014": 2.7218062678,
			"0.015": 0.0676477612201,
			"0.016": 0.0,
			"0.017": 0.0,
			"0.018": 0.0,
			"0.019": 0.0,
			"0.02": 0.0,
			"0.021": 0.0,
			"0.022": 0.0,
			"0.023": 0.0,
			"0.024": 0.0,
			"0.025": 0.0
		}
	}
}
