{
	 "smiles": "CCC(=O)NN", 
	 "Tm": 298.15, 
	 "num_atms": 14, 
	 "gaussian": { 
		 "optdone": 1, 
		 "sigma_profile": "yes", 
		 "theory": "DFT", 
		 "functional": "B3LYP", 
		 "basiset": "6-31G**", 
		 "properties": { 
			 "R2extent": 815.4429, 
			 "electric_dipole_moment_norm": 2.26750798235, 
			 "electric_quadrupole_moment_norm": 5.03834170636, 
			 "total_energy": -303.855010785, 
			 "HOMO_LUMO_gap": 0.27758, 
			 "cosmo_polarized_energy": -11.36, 
			 "cosmo_cavitation_energy": 17.43, 
			 "cosmo_dispersion_energy": -12.97, 
			 "cosmo_repulsion_energy": 1.16, 
			 "cosmo_total_nonelectrostatic_energy": 5.62, 
			 "SMD_solvation_energy": 4.34 
		},
		"coords": [
			{
				"x": 0.6995017856,
				"y": 1.778491532,
				"z": -2.452289885,
				"element": "C" 
			},
			{
				"x": 1.1757628769,
				"y": 0.4343185964,
				"z": -1.8944104918,
				"element": "C" 
			},
			{
				"x": 0.2765638675,
				"y": -0.0593777281,
				"z": -0.7657927256,
				"element": "C" 
			},
			{
				"x": -0.9423139331,
				"y": 0.0688984817,
				"z": -0.7721214225,
				"element": "O" 
			},
			{
				"x": 0.9269095255,
				"y": -0.6801716396,
				"z": 0.2681332731,
				"element": "N" 
			},
			{
				"x": 0.2171337177,
				"y": -1.3512728977,
				"z": 1.2852809191,
				"element": "N" 
			},
			{
				"x": -0.356454351,
				"y": 1.7145674812,
				"z": -2.7237298403,
				"element": "H" 
			},
			{
				"x": 0.8061745944,
				"y": 2.5743667031,
				"z": -1.7085358904,
				"element": "H" 
			},
			{
				"x": 1.2774286929,
				"y": 2.0599167871,
				"z": -3.3372376251,
				"element": "H" 
			},
			{
				"x": 2.21830104,
				"y": 0.4934139075,
				"z": -1.5590937245,
				"element": "H" 
			},
			{
				"x": 1.1423123228,
				"y": -0.3263068323,
				"z": -2.6858559157,
				"element": "H" 
			},
			{
				"x": 1.8941481877,
				"y": -0.9544493279,
				"z": 0.1764355854,
				"element": "H" 
			},
			{
				"x": -0.6064433013,
				"y": -1.7641772266,
				"z": 0.8452287554,
				"element": "H" 
			},
			{
				"x": -0.1508250256,
				"y": -0.6408178369,
				"z": 1.9176889879,
				"element": "H" 
			}
		],
		 "valence_orbital": [ 
			{
				"type": "occ",
				"energy": -0.36129,
				"method": "rhf"
			},
			{
				"type": "occ",
				"energy": -0.34307,
				"method": "rhf"
			},
			{
				"type": "occ",
				"energy": -0.28507,
				"method": "rhf"
			},
			{
				"type": "occ",
				"energy": -0.25345,
				"method": "rhf"
			},
			{
				"type": "occ",
				"energy": -0.25099,
				"method": "rhf"
			},
			{
				"type": "unocc",
				"energy": 0.02659,
				"method": "rhf"
			},
			{
				"type": "unocc",
				"energy": 0.08076,
				"method": "rhf"
			},
			{
				"type": "unocc",
				"energy": 0.09041,
				"method": "rhf"
			},
			{
				"type": "unocc",
				"energy": 0.11869,
				"method": "rhf"
			},
			{
				"type": "unocc",
				"energy": 0.14452,
				"method": "rhf"
			}
		],
		"cosmo_sigma_profile": { 
			"-0.025": 0.0,
			"-0.024": 0.0,
			"-0.023": 0.0,
			"-0.022": 0.0,
			"-0.021": 0.0,
			"-0.02": 0.0,
			"-0.019": 0.0,
			"-0.018": 0.0,
			"-0.017": 0.0,
			"-0.016": 0.0,
			"-0.015": 0.11610792341,
			"-0.014": 0.832912602107,
			"-0.013": 1.20153175012,
			"-0.012": 1.32539394036,
			"-0.011": 2.567296979,
			"-0.01": 3.32914804912,
			"-0.009": 3.79900625748,
			"-0.008": 2.95670676822,
			"-0.007": 2.99283928417,
			"-0.006": 4.04371633185,
			"-0.005": 5.81699760697,
			"-0.004": 8.60192049687,
			"-0.003": 11.5673774179,
			"-0.002": 13.4342717589,
			"-0.001": 13.56482676,
			"0.0": 10.0062494297,
			"0.001": 9.07509576927,
			"0.002": 5.64215700005,
			"0.003": 3.02447468997,
			"0.004": 2.37972066633,
			"0.005": 3.02775110382,
			"0.006": 1.60010577629,
			"0.007": 1.82240887459,
			"0.008": 2.95037572063,
			"0.009": 2.0138328969,
			"0.01": 2.08499481081,
			"0.011": 2.02716606693,
			"0.012": 1.95568757172,
			"0.013": 4.02197995531,
			"0.014": 5.7742645077,
			"0.015": 1.00845315544,
			"0.016": 0.511830061023,
			"0.017": 0.368056801956,
			"0.018": 0.0,
			"0.019": 0.0,
			"0.02": 0.0,
			"0.021": 0.0,
			"0.022": 0.0,
			"0.023": 0.0,
			"0.024": 0.0,
			"0.025": 0.0
		}
	}
}
