{
	 "smiles": "C1CN(CCN1)C1=NC(=NS1)C1=CC=CC=C1", 
	 "Tm": 366.65, 
	 "num_atms": 31, 
	 "gaussian": { 
		 "optdone": 1, 
		 "sigma_profile": "yes", 
		 "theory": "DFT", 
		 "functional": "B3LYP", 
		 "basiset": "6-31G**", 
		 "properties": { 
			 "R2extent": 6520.383, 
			 "electric_dipole_moment_norm": 3.26205984617, 
			 "electric_quadrupole_moment_norm": 12.0228826968, 
			 "total_energy": -1082.89773492, 
			 "HOMO_LUMO_gap": 0.1791, 
			 "cosmo_polarized_energy": -13.03, 
			 "cosmo_cavitation_energy": 34.86, 
			 "cosmo_dispersion_energy": -26.45, 
			 "cosmo_repulsion_energy": 1.99, 
			 "cosmo_total_nonelectrostatic_energy": 10.4, 
			 "SMD_solvation_energy": 0.04 
		},
		"coords": [
			{
				"x": 0.9308196227,
				"y": -0.5242838332,
				"z": -3.6348553008,
				"element": "C" 
			},
			{
				"x": 0.0156312986,
				"y": -1.2109707112,
				"z": -2.5989876118,
				"element": "C" 
			},
			{
				"x": -0.0880752594,
				"y": -0.3699117394,
				"z": -1.4059653034,
				"element": "N" 
			},
			{
				"x": 0.262048772,
				"y": 1.04416865,
				"z": -1.5432866777,
				"element": "C" 
			},
			{
				"x": 1.7029353718,
				"y": 1.1885256196,
				"z": -2.087657101,
				"element": "C" 
			},
			{
				"x": 2.0884488591,
				"y": 0.1183030008,
				"z": -3.0249470199,
				"element": "N" 
			},
			{
				"x": -0.6575357885,
				"y": -0.8437569939,
				"z": -0.274898142,
				"element": "C" 
			},
			{
				"x": -0.8601001606,
				"y": -0.1539616076,
				"z": 0.8256851724,
				"element": "N" 
			},
			{
				"x": -1.4317245502,
				"y": -0.9673523444,
				"z": 1.7761461429,
				"element": "C" 
			},
			{
				"x": -1.6965826503,
				"y": -2.2282729328,
				"z": 1.4931666453,
				"element": "N" 
			},
			{
				"x": -1.2174115512,
				"y": -2.5154799524,
				"z": -0.0981806996,
				"element": "S" 
			},
			{
				"x": -1.7477566133,
				"y": -0.4198142037,
				"z": 3.1128984274,
				"element": "C" 
			},
			{
				"x": -1.4700554962,
				"y": 0.9219801164,
				"z": 3.4118831669,
				"element": "C" 
			},
			{
				"x": -1.7684083978,
				"y": 1.4376311344,
				"z": 4.6725707419,
				"element": "C" 
			},
			{
				"x": -2.345823416,
				"y": 0.6214470136,
				"z": 5.6469222028,
				"element": "C" 
			},
			{
				"x": -2.6244955816,
				"y": -0.7168412312,
				"z": 5.3537056683,
				"element": "C" 
			},
			{
				"x": -2.328584308,
				"y": -1.2361736193,
				"z": 4.0963294983,
				"element": "C" 
			},
			{
				"x": 0.3690777427,
				"y": 0.233410563,
				"z": -4.1935996029,
				"element": "H" 
			},
			{
				"x": 1.262953762,
				"y": -1.2672077943,
				"z": -4.3665510594,
				"element": "H" 
			},
			{
				"x": -0.9779562599,
				"y": -1.4204667232,
				"z": -3.0270504523,
				"element": "H" 
			},
			{
				"x": 0.4545668181,
				"y": -2.1754433097,
				"z": -2.3063689084,
				"element": "H" 
			},
			{
				"x": -0.4546121101,
				"y": 1.5312198814,
				"z": -2.2192814719,
				"element": "H" 
			},
			{
				"x": 0.1563796836,
				"y": 1.5111967145,
				"z": -0.5644753487,
				"element": "H" 
			},
			{
				"x": 2.4167323262,
				"y": 1.1906624057,
				"z": -1.2583907804,
				"element": "H" 
			},
			{
				"x": 1.7861327227,
				"y": 2.1649763776,
				"z": -2.5843179118,
				"element": "H" 
			},
			{
				"x": 2.6314649853,
				"y": -0.5828897855,
				"z": -2.5294315769,
				"element": "H" 
			},
			{
				"x": -1.0218649409,
				"y": 1.54710517,
				"z": 2.6478839843,
				"element": "H" 
			},
			{
				"x": -1.54951808,
				"y": 2.478503598,
				"z": 4.8940012871,
				"element": "H" 
			},
			{
				"x": -2.5778088717,
				"y": 1.0242379201,
				"z": 6.628888895,
				"element": "H" 
			},
			{
				"x": -3.0738684336,
				"y": -1.3565872781,
				"z": 6.1080263468,
				"element": "H" 
			},
			{
				"x": -2.5407094955,
				"y": -2.2728541053,
				"z": 3.85823679,
				"element": "H" 
			}
		],
		 "valence_orbital": [ 
			{
				"type": "occ",
				"energy": -0.26732,
				"method": "rhf"
			},
			{
				"type": "occ",
				"energy": -0.24416,
				"method": "rhf"
			},
			{
				"type": "occ",
				"energy": -0.24066,
				"method": "rhf"
			},
			{
				"type": "occ",
				"energy": -0.23354,
				"method": "rhf"
			},
			{
				"type": "occ",
				"energy": -0.21081,
				"method": "rhf"
			},
			{
				"type": "unocc",
				"energy": -0.03171,
				"method": "rhf"
			},
			{
				"type": "unocc",
				"energy": 0.00519,
				"method": "rhf"
			},
			{
				"type": "unocc",
				"energy": 0.00787,
				"method": "rhf"
			},
			{
				"type": "unocc",
				"energy": 0.01701,
				"method": "rhf"
			},
			{
				"type": "unocc",
				"energy": 0.06109,
				"method": "rhf"
			}
		],
		"cosmo_sigma_profile": { 
			"-0.025": 0.0,
			"-0.024": 0.0,
			"-0.023": 0.0,
			"-0.022": 0.0,
			"-0.021": 0.0,
			"-0.02": 0.0,
			"-0.019": 0.0,
			"-0.018": 0.0,
			"-0.017": 0.0,
			"-0.016": 0.0,
			"-0.015": 0.0,
			"-0.014": 0.0,
			"-0.013": 0.0,
			"-0.012": 0.0,
			"-0.011": 0.188459283177,
			"-0.01": 1.63927453412,
			"-0.009": 1.38726627921,
			"-0.008": 2.16519790015,
			"-0.007": 1.98682577708,
			"-0.006": 9.68484150239,
			"-0.005": 29.3069163855,
			"-0.004": 33.7546216886,
			"-0.003": 26.7450178052,
			"-0.002": 17.5267158575,
			"-0.001": 17.3082423788,
			"0.0": 16.3290811879,
			"0.001": 17.5673315144,
			"0.002": 17.2500266637,
			"0.003": 20.3459831806,
			"0.004": 20.5957510051,
			"0.005": 16.7699943484,
			"0.006": 7.12245806737,
			"0.007": 4.81958758546,
			"0.008": 3.13279333857,
			"0.009": 3.0191762994,
			"0.01": 1.79936442374,
			"0.011": 2.26031573185,
			"0.012": 1.99630378799,
			"0.013": 1.77626630583,
			"0.014": 0.492711460487,
			"0.015": 0.409792515484,
			"0.016": 0.328962744532,
			"0.017": 0.9062115186,
			"0.018": 0.191869733894,
			"0.019": 0.0,
			"0.02": 0.0,
			"0.021": 0.0,
			"0.022": 0.0,
			"0.023": 0.0,
			"0.024": 0.0,
			"0.025": 0.0
		}
	}
}
