{
	 "smiles": "NC1=NC(=NN1)C1=CC=C(O)C=C1", 
	 "Tm": 542.15, 
	 "num_atms": 21, 
	 "gaussian": { 
		 "optdone": 1, 
		 "sigma_profile": "yes", 
		 "theory": "DFT", 
		 "functional": "B3LYP", 
		 "basiset": "6-31G**", 
		 "properties": { 
			 "R2extent": 3647.5323, 
			 "electric_dipole_moment_norm": 3.8090883765, 
			 "electric_quadrupole_moment_norm": 18.9723914138, 
			 "total_energy": -603.897722812, 
			 "HOMO_LUMO_gap": 0.18907, 
			 "cosmo_polarized_energy": -21.89, 
			 "cosmo_cavitation_energy": 25.96, 
			 "cosmo_dispersion_energy": -19.74, 
			 "cosmo_repulsion_energy": 1.57, 
			 "cosmo_total_nonelectrostatic_energy": 7.79, 
			 "SMD_solvation_energy": 2.35 
		},
		"coords": [
			{
				"x": -1.1690867771,
				"y": -3.3363746892,
				"z": -3.3506778646,
				"element": "N" 
			},
			{
				"x": -0.9886065286,
				"y": -2.4970728524,
				"z": -2.2657892672,
				"element": "C" 
			},
			{
				"x": 0.0760764507,
				"y": -2.450187768,
				"z": -1.4874652735,
				"element": "N" 
			},
			{
				"x": -0.2092363391,
				"y": -1.4123109809,
				"z": -0.628835895,
				"element": "C" 
			},
			{
				"x": -1.3855138578,
				"y": -0.8319465799,
				"z": -0.8302579568,
				"element": "N" 
			},
			{
				"x": -1.8789271319,
				"y": -1.5456676195,
				"z": -1.8917712328,
				"element": "N" 
			},
			{
				"x": 0.7128988388,
				"y": -0.9900049616,
				"z": 0.4318420808,
				"element": "C" 
			},
			{
				"x": 1.9476139982,
				"y": -1.6323588691,
				"z": 0.590831519,
				"element": "C" 
			},
			{
				"x": 2.8312584356,
				"y": -1.2384034189,
				"z": 1.5928738885,
				"element": "C" 
			},
			{
				"x": 2.4893437573,
				"y": -0.1908083834,
				"z": 2.4545350562,
				"element": "C" 
			},
			{
				"x": 3.3130024497,
				"y": 0.2408415357,
				"z": 3.4561325644,
				"element": "O" 
			},
			{
				"x": 1.2571797137,
				"y": 0.4593028112,
				"z": 2.3060984035,
				"element": "C" 
			},
			{
				"x": 0.3818582749,
				"y": 0.0606506315,
				"z": 1.304736233,
				"element": "C" 
			},
			{
				"x": -2.1013287925,
				"y": -3.718202649,
				"z": -3.4492786838,
				"element": "H" 
			},
			{
				"x": -0.4630902482,
				"y": -4.0611409605,
				"z": -3.3703954981,
				"element": "H" 
			},
			{
				"x": -2.745707134,
				"y": -1.2698224617,
				"z": -2.3256586049,
				"element": "H" 
			},
			{
				"x": 2.2068889875,
				"y": -2.4437538334,
				"z": -0.0806017313,
				"element": "H" 
			},
			{
				"x": 3.7879022461,
				"y": -1.7451412132,
				"z": 1.7058664153,
				"element": "H" 
			},
			{
				"x": 4.1221130859,
				"y": -0.2867541546,
				"z": 3.4464137394,
				"element": "H" 
			},
			{
				"x": 1.0078553722,
				"y": 1.2697623778,
				"z": 2.9830986143,
				"element": "H" 
			},
			{
				"x": -0.5732948014,
				"y": 0.561594039,
				"z": 1.1867034936,
				"element": "H" 
			}
		],
		 "valence_orbital": [ 
			{
				"type": "occ",
				"energy": -0.28444,
				"method": "rhf"
			},
			{
				"type": "occ",
				"energy": -0.26614,
				"method": "rhf"
			},
			{
				"type": "occ",
				"energy": -0.24458,
				"method": "rhf"
			},
			{
				"type": "occ",
				"energy": -0.23558,
				"method": "rhf"
			},
			{
				"type": "occ",
				"energy": -0.19712,
				"method": "rhf"
			},
			{
				"type": "unocc",
				"energy": -0.00805,
				"method": "rhf"
			},
			{
				"type": "unocc",
				"energy": 0.00721,
				"method": "rhf"
			},
			{
				"type": "unocc",
				"energy": 0.04239,
				"method": "rhf"
			},
			{
				"type": "unocc",
				"energy": 0.06288,
				"method": "rhf"
			},
			{
				"type": "unocc",
				"energy": 0.07599,
				"method": "rhf"
			}
		],
		"cosmo_sigma_profile": { 
			"-0.025": 0.0,
			"-0.024": 0.0,
			"-0.023": 0.0,
			"-0.022": 0.0,
			"-0.021": 0.0,
			"-0.02": 0.0,
			"-0.019": 0.0,
			"-0.018": 0.604989543127,
			"-0.017": 1.91326168097,
			"-0.016": 3.27855987135,
			"-0.015": 3.00262030388,
			"-0.014": 4.69733010655,
			"-0.013": 4.23912913897,
			"-0.012": 4.44972034648,
			"-0.011": 4.09912484939,
			"-0.01": 4.56786875904,
			"-0.009": 3.54204787231,
			"-0.008": 2.78373336379,
			"-0.007": 3.12951818406,
			"-0.006": 5.22207073423,
			"-0.005": 8.12897839482,
			"-0.004": 7.86198842735,
			"-0.003": 8.23088895482,
			"-0.002": 6.52319788759,
			"-0.001": 5.96283823034,
			"0.0": 8.66590871124,
			"0.001": 9.8618533231,
			"0.002": 11.0220179836,
			"0.003": 15.6559503882,
			"0.004": 21.3991108415,
			"0.005": 18.0103434151,
			"0.006": 7.5163978993,
			"0.007": 6.09865447985,
			"0.008": 4.77299703279,
			"0.009": 4.04282710187,
			"0.01": 4.97701359866,
			"0.011": 4.53312386545,
			"0.012": 2.99435406142,
			"0.013": 3.36105473518,
			"0.014": 1.55794902444,
			"0.015": 0.407038085297,
			"0.016": 0.0,
			"0.017": 0.0,
			"0.018": 0.0,
			"0.019": 0.0,
			"0.02": 0.0,
			"0.021": 0.0,
			"0.022": 0.0,
			"0.023": 0.0,
			"0.024": 0.0,
			"0.025": 0.0
		}
	}
}
