{
	 "smiles": "OC(=O)C1=C(Br)C=C(C=C1)S(Cl)(=O)=O", 
	 "Tm": 478.15, 
	 "num_atms": 18, 
	 "gaussian": { 
		 "optdone": 1, 
		 "sigma_profile": "yes", 
		 "theory": "DFT", 
		 "functional": "B3LYP", 
		 "basiset": "6-31G**", 
		 "properties": { 
			 "R2extent": 6419.0121, 
			 "electric_dipole_moment_norm": 2.21822180135, 
			 "electric_quadrupole_moment_norm": 24.7696169288, 
			 "total_energy": -3999.76288803, 
			 "HOMO_LUMO_gap": 0.18273, 
			 "cosmo_polarized_energy": -14.26, 
			 "cosmo_cavitation_energy": 28.93, 
			 "cosmo_dispersion_energy": -22.17, 
			 "cosmo_repulsion_energy": 1.69, 
			 "cosmo_total_nonelectrostatic_energy": 8.44, 
			 "SMD_solvation_energy": 3.83 
		},
		"coords": [
			{
				"x": 1.4886324518,
				"y": 2.5393691867,
				"z": -1.2086520053,
				"element": "O" 
			},
			{
				"x": 0.3121653915,
				"y": 2.048323683,
				"z": -0.799917932,
				"element": "C" 
			},
			{
				"x": -0.7206434289,
				"y": 2.5711420927,
				"z": -1.1504887643,
				"element": "O" 
			},
			{
				"x": 0.274383154,
				"y": 0.8438930719,
				"z": 0.1377815872,
				"element": "C" 
			},
			{
				"x": 1.3130614046,
				"y": -0.0284780314,
				"z": 0.5112873105,
				"element": "C" 
			},
			{
				"x": 3.1165125322,
				"y": 0.1130822994,
				"z": -0.1400872884,
				"element": "Br" 
			},
			{
				"x": 1.0949583037,
				"y": -1.0925855055,
				"z": 1.3863335483,
				"element": "C" 
			},
			{
				"x": -0.184046701,
				"y": -1.2797830327,
				"z": 1.8979575908,
				"element": "C" 
			},
			{
				"x": -1.249415998,
				"y": -0.4504246169,
				"z": 1.5546120711,
				"element": "C" 
			},
			{
				"x": -1.0018717104,
				"y": 0.5963958809,
				"z": 0.6769748324,
				"element": "C" 
			},
			{
				"x": -0.4637379985,
				"y": -2.6594271499,
				"z": 3.0107294216,
				"element": "S" 
			},
			{
				"x": -0.127660211,
				"y": -1.7289151181,
				"z": 4.8900767405,
				"element": "Cl" 
			},
			{
				"x": -1.8743032679,
				"y": -3.0179056306,
				"z": 2.9704536308,
				"element": "O" 
			},
			{
				"x": 0.6031179845,
				"y": -3.6351357961,
				"z": 2.8336177438,
				"element": "O" 
			},
			{
				"x": 2.2428285898,
				"y": 2.0193636491,
				"z": -0.8801406464,
				"element": "H" 
			},
			{
				"x": 1.8995358666,
				"y": -1.7657084667,
				"z": 1.6553957582,
				"element": "H" 
			},
			{
				"x": -2.2409485132,
				"y": -0.6280612978,
				"z": 1.9545416046,
				"element": "H" 
			},
			{
				"x": -1.79916785,
				"y": 1.2624547819,
				"z": 0.3684247965,
				"element": "H" 
			}
		],
		 "valence_orbital": [ 
			{
				"type": "occ",
				"energy": -0.33532,
				"method": "rhf"
			},
			{
				"type": "occ",
				"energy": -0.32998,
				"method": "rhf"
			},
			{
				"type": "occ",
				"energy": -0.31191,
				"method": "rhf"
			},
			{
				"type": "occ",
				"energy": -0.29876,
				"method": "rhf"
			},
			{
				"type": "occ",
				"energy": -0.29786,
				"method": "rhf"
			},
			{
				"type": "unocc",
				"energy": -0.11513,
				"method": "rhf"
			},
			{
				"type": "unocc",
				"energy": -0.08237,
				"method": "rhf"
			},
			{
				"type": "unocc",
				"energy": -0.065,
				"method": "rhf"
			},
			{
				"type": "unocc",
				"energy": -0.04845,
				"method": "rhf"
			},
			{
				"type": "unocc",
				"energy": 0.00278,
				"method": "rhf"
			}
		],
		"cosmo_sigma_profile": { 
			"-0.025": 0.0,
			"-0.024": 0.0,
			"-0.023": 0.0,
			"-0.022": 0.0,
			"-0.021": 0.0,
			"-0.02": 0.0,
			"-0.019": 0.0,
			"-0.018": 0.0,
			"-0.017": 0.0,
			"-0.016": 0.0,
			"-0.015": 0.0,
			"-0.014": 0.0275602337851,
			"-0.013": 0.202401921943,
			"-0.012": 0.901577889039,
			"-0.011": 1.29725853327,
			"-0.01": 2.24208004741,
			"-0.009": 3.82431356318,
			"-0.008": 7.70970389979,
			"-0.007": 10.2708364355,
			"-0.006": 10.4675892467,
			"-0.005": 11.1334805929,
			"-0.004": 12.5288746333,
			"-0.003": 19.7696682787,
			"-0.002": 25.0349092716,
			"-0.001": 18.7559543058,
			"0.0": 13.6718703935,
			"0.001": 14.4035572295,
			"0.002": 17.4265486056,
			"0.003": 14.8208065298,
			"0.004": 5.77147519895,
			"0.005": 4.50869531463,
			"0.006": 6.11154112044,
			"0.007": 11.467627611,
			"0.008": 10.7486098111,
			"0.009": 5.05025741164,
			"0.01": 5.25074949874,
			"0.011": 4.05824947847,
			"0.012": 2.02045165874,
			"0.013": 0.181801680087,
			"0.014": 0.0,
			"0.015": 0.0,
			"0.016": 0.0,
			"0.017": 0.0,
			"0.018": 0.0,
			"0.019": 0.0,
			"0.02": 0.0,
			"0.021": 0.0,
			"0.022": 0.0,
			"0.023": 0.0,
			"0.024": 0.0,
			"0.025": 0.0
		}
	}
}
