{
	 "smiles": "CN1CCN(CC1)C(=O)C1=CC=C(Br)C=C1", 
	 "Tm": 355.15, 
	 "num_atms": 31, 
	 "gaussian": { 
		 "optdone": 1, 
		 "sigma_profile": "yes", 
		 "theory": "DFT", 
		 "functional": "B3LYP", 
		 "basiset": "6-31G**", 
		 "properties": { 
			 "R2extent": 8873.6112, 
			 "electric_dipole_moment_norm": 3.26052616919, 
			 "electric_quadrupole_moment_norm": 7.14221107781, 
			 "total_energy": -3222.44723345, 
			 "HOMO_LUMO_gap": 0.17026, 
			 "cosmo_polarized_energy": -11.91, 
			 "cosmo_cavitation_energy": 35.1, 
			 "cosmo_dispersion_energy": -25.66, 
			 "cosmo_repulsion_energy": 1.99, 
			 "cosmo_total_nonelectrostatic_energy": 11.44, 
			 "SMD_solvation_energy": 1.92 
		},
		"coords": [
			{
				"x": -0.4507281689,
				"y": 2.573202158,
				"z": -4.8044793028,
				"element": "C" 
			},
			{
				"x": -0.2217337977,
				"y": 1.2879043466,
				"z": -4.1529092652,
				"element": "N" 
			},
			{
				"x": -1.3245130143,
				"y": 0.8423002907,
				"z": -3.3014198363,
				"element": "C" 
			},
			{
				"x": -1.3784836722,
				"y": 1.5492807636,
				"z": -1.9358044109,
				"element": "C" 
			},
			{
				"x": -0.0816971602,
				"y": 1.4193846717,
				"z": -1.2593348099,
				"element": "N" 
			},
			{
				"x": 1.0425156563,
				"y": 1.9146542355,
				"z": -2.062695578,
				"element": "C" 
			},
			{
				"x": 1.046500838,
				"y": 1.2002239188,
				"z": -3.424278356,
				"element": "C" 
			},
			{
				"x": 0.0923723385,
				"y": 1.3382865641,
				"z": 0.1064086336,
				"element": "C" 
			},
			{
				"x": 1.1313619273,
				"y": 1.701189306,
				"z": 0.6541840655,
				"element": "O" 
			},
			{
				"x": -1.006760256,
				"y": 0.7271401344,
				"z": 0.935315299,
				"element": "C" 
			},
			{
				"x": -1.2808817528,
				"y": 1.302654331,
				"z": 2.1828834375,
				"element": "C" 
			},
			{
				"x": -2.2304441922,
				"y": 0.7435453501,
				"z": 3.0345257909,
				"element": "C" 
			},
			{
				"x": -2.8894725422,
				"y": -0.4223372449,
				"z": 2.6434932803,
				"element": "C" 
			},
			{
				"x": -4.188112753,
				"y": -1.2023667041,
				"z": 3.8075557381,
				"element": "Br" 
			},
			{
				"x": -2.6101523108,
				"y": -1.034479915,
				"z": 1.4229473974,
				"element": "C" 
			},
			{
				"x": -1.6705012116,
				"y": -0.4523171988,
				"z": 0.5718295318,
				"element": "C" 
			},
			{
				"x": -0.5453043455,
				"y": 3.4411605643,
				"z": -4.1282795147,
				"element": "H" 
			},
			{
				"x": -1.3686309596,
				"y": 2.5157942954,
				"z": -5.3990526884,
				"element": "H" 
			},
			{
				"x": 0.3777754098,
				"y": 2.77896923,
				"z": -5.4901976496,
				"element": "H" 
			},
			{
				"x": -1.2074930366,
				"y": -0.2366654637,
				"z": -3.1298811588,
				"element": "H" 
			},
			{
				"x": -2.2706850239,
				"y": 0.9921070996,
				"z": -3.8329711578,
				"element": "H" 
			},
			{
				"x": -1.6062602058,
				"y": 2.6178301988,
				"z": -2.0752783506,
				"element": "H" 
			},
			{
				"x": -2.169456346,
				"y": 1.1289806036,
				"z": -1.3155968005,
				"element": "H" 
			},
			{
				"x": 0.9582122829,
				"y": 3.0044878571,
				"z": -2.1913807875,
				"element": "H" 
			},
			{
				"x": 1.9623845974,
				"y": 1.7245926328,
				"z": -1.5090204765,
				"element": "H" 
			},
			{
				"x": 1.8465387495,
				"y": 1.6058771194,
				"z": -4.0529547758,
				"element": "H" 
			},
			{
				"x": 1.2662781617,
				"y": 0.1377069599,
				"z": -3.2551549763,
				"element": "H" 
			},
			{
				"x": -0.7327005769,
				"y": 2.1897091112,
				"z": 2.4825248341,
				"element": "H" 
			},
			{
				"x": -2.450767381,
				"y": 1.1989547079,
				"z": 3.9932129593,
				"element": "H" 
			},
			{
				"x": -3.1134578151,
				"y": -1.9534354266,
				"z": 1.1449708777,
				"element": "H" 
			},
			{
				"x": -1.4351034391,
				"y": -0.9378344973,
				"z": -0.3704619496,
				"element": "H" 
			}
		],
		 "valence_orbital": [ 
			{
				"type": "occ",
				"energy": -0.27053,
				"method": "rhf"
			},
			{
				"type": "occ",
				"energy": -0.26347,
				"method": "rhf"
			},
			{
				"type": "occ",
				"energy": -0.25098,
				"method": "rhf"
			},
			{
				"type": "occ",
				"energy": -0.24022,
				"method": "rhf"
			},
			{
				"type": "occ",
				"energy": -0.209,
				"method": "rhf"
			},
			{
				"type": "unocc",
				"energy": -0.03874,
				"method": "rhf"
			},
			{
				"type": "unocc",
				"energy": -0.02035,
				"method": "rhf"
			},
			{
				"type": "unocc",
				"energy": 0.00336,
				"method": "rhf"
			},
			{
				"type": "unocc",
				"energy": 0.03637,
				"method": "rhf"
			},
			{
				"type": "unocc",
				"energy": 0.07604,
				"method": "rhf"
			}
		],
		"cosmo_sigma_profile": { 
			"-0.025": 0.0,
			"-0.024": 0.0,
			"-0.023": 0.0,
			"-0.022": 0.0,
			"-0.021": 0.0,
			"-0.02": 0.0,
			"-0.019": 0.0,
			"-0.018": 0.0,
			"-0.017": 0.0,
			"-0.016": 0.0,
			"-0.015": 0.0,
			"-0.014": 0.0,
			"-0.013": 0.0,
			"-0.012": 0.0,
			"-0.011": 0.0,
			"-0.01": 0.0,
			"-0.009": 0.0,
			"-0.008": 0.554362023746,
			"-0.007": 4.68999808642,
			"-0.006": 8.27967482089,
			"-0.005": 14.6300828629,
			"-0.004": 33.4703448554,
			"-0.003": 37.3945648411,
			"-0.002": 30.4372824734,
			"-0.001": 23.5876522581,
			"0.0": 22.273825831,
			"0.001": 17.2692509478,
			"0.002": 22.1318375733,
			"0.003": 17.9151324731,
			"0.004": 15.3197894624,
			"0.005": 5.65617078465,
			"0.006": 2.34375840893,
			"0.007": 2.66992585117,
			"0.008": 2.76031768234,
			"0.009": 2.63672617022,
			"0.01": 1.2336726684,
			"0.011": 2.28194170314,
			"0.012": 2.97193957509,
			"0.013": 4.32301520701,
			"0.014": 4.02424308831,
			"0.015": 0.908027546701,
			"0.016": 0.351101814109,
			"0.017": 0.0562837534133,
			"0.018": 0.0,
			"0.019": 0.0,
			"0.02": 0.0,
			"0.021": 0.0,
			"0.022": 0.0,
			"0.023": 0.0,
			"0.024": 0.0,
			"0.025": 0.0
		}
	}
}
