{
	 "smiles": "ClC1CCCC1", 
	 "Tm": 223.15, 
	 "num_atms": 15, 
	 "gaussian": { 
		 "optdone": 1, 
		 "sigma_profile": "yes", 
		 "theory": "DFT", 
		 "functional": "B3LYP", 
		 "basiset": "6-31G**", 
		 "properties": { 
			 "R2extent": 1237.8348, 
			 "electric_dipole_moment_norm": 2.37012229642, 
			 "electric_quadrupole_moment_norm": 3.95883732679, 
			 "total_energy": -656.162061091, 
			 "HOMO_LUMO_gap": 0.3102, 
			 "cosmo_polarized_energy": -3.71, 
			 "cosmo_cavitation_energy": 18.0, 
			 "cosmo_dispersion_energy": -13.97, 
			 "cosmo_repulsion_energy": 1.2, 
			 "cosmo_total_nonelectrostatic_energy": 5.24, 
			 "SMD_solvation_energy": 2.17 
		},
		"coords": [
			{
				"x": -1.2335001343,
				"y": -1.1056927682,
				"z": 0.0245315683,
				"element": "Cl" 
			},
			{
				"x": 0.2743399654,
				"y": -1.6530868721,
				"z": -0.8830342275,
				"element": "C" 
			},
			{
				"x": 1.2783551998,
				"y": -0.503293346,
				"z": -0.9876255513,
				"element": "C" 
			},
			{
				"x": 0.7741243332,
				"y": 0.360287385,
				"z": -2.1682587693,
				"element": "C" 
			},
			{
				"x": -0.0987996845,
				"y": -0.5877712961,
				"z": -3.0466218337,
				"element": "C" 
			},
			{
				"x": -0.0671327776,
				"y": -1.964639615,
				"z": -2.3415872674,
				"element": "C" 
			},
			{
				"x": 0.6354835889,
				"y": -2.5113094994,
				"z": -0.3156414073,
				"element": "H" 
			},
			{
				"x": 2.2532856178,
				"y": -0.9483558938,
				"z": -1.2275716343,
				"element": "H" 
			},
			{
				"x": 1.3923490514,
				"y": 0.0498852638,
				"z": -0.0527807248,
				"element": "H" 
			},
			{
				"x": 1.6084552819,
				"y": 0.7935295136,
				"z": -2.7272842916,
				"element": "H" 
			},
			{
				"x": 0.171806915,
				"y": 1.1933233956,
				"z": -1.7960895925,
				"element": "H" 
			},
			{
				"x": 0.2703831791,
				"y": -0.6596584695,
				"z": -4.0736815364,
				"element": "H" 
			},
			{
				"x": -1.1252408864,
				"y": -0.2153644664,
				"z": -3.1011899497,
				"element": "H" 
			},
			{
				"x": -0.9903467331,
				"y": -2.5380144135,
				"z": -2.450458571,
				"element": "H" 
			},
			{
				"x": 0.7511370835,
				"y": -2.579838918,
				"z": -2.7392062115,
				"element": "H" 
			}
		],
		 "valence_orbital": [ 
			{
				"type": "occ",
				"energy": -0.34399,
				"method": "rhf"
			},
			{
				"type": "occ",
				"energy": -0.34173,
				"method": "rhf"
			},
			{
				"type": "occ",
				"energy": -0.32415,
				"method": "rhf"
			},
			{
				"type": "occ",
				"energy": -0.28706,
				"method": "rhf"
			},
			{
				"type": "occ",
				"energy": -0.28382,
				"method": "rhf"
			},
			{
				"type": "unocc",
				"energy": 0.02638,
				"method": "rhf"
			},
			{
				"type": "unocc",
				"energy": 0.07501,
				"method": "rhf"
			},
			{
				"type": "unocc",
				"energy": 0.10249,
				"method": "rhf"
			},
			{
				"type": "unocc",
				"energy": 0.14254,
				"method": "rhf"
			},
			{
				"type": "unocc",
				"energy": 0.14389,
				"method": "rhf"
			}
		],
		"cosmo_sigma_profile": { 
			"-0.025": 0.0,
			"-0.024": 0.0,
			"-0.023": 0.0,
			"-0.022": 0.0,
			"-0.021": 0.0,
			"-0.02": 0.0,
			"-0.019": 0.0,
			"-0.018": 0.0,
			"-0.017": 0.0,
			"-0.016": 0.0,
			"-0.015": 0.0,
			"-0.014": 0.0,
			"-0.013": 0.0,
			"-0.012": 0.0,
			"-0.011": 0.0,
			"-0.01": 0.0,
			"-0.009": 0.0,
			"-0.008": 0.0,
			"-0.007": 0.49833592199,
			"-0.006": 2.36400569832,
			"-0.005": 4.57795708877,
			"-0.004": 11.7354291168,
			"-0.003": 14.6216262005,
			"-0.002": 19.9650795354,
			"-0.001": 21.9262636274,
			"0.0": 17.1476637251,
			"0.001": 12.406356987,
			"0.002": 5.6546285817,
			"0.003": 4.21016470134,
			"0.004": 5.37520657263,
			"0.005": 4.14512660241,
			"0.006": 6.6386014098,
			"0.007": 9.02637689788,
			"0.008": 1.55694285983,
			"0.009": 0.0,
			"0.01": 0.0,
			"0.011": 0.0,
			"0.012": 0.0,
			"0.013": 0.0,
			"0.014": 0.0,
			"0.015": 0.0,
			"0.016": 0.0,
			"0.017": 0.0,
			"0.018": 0.0,
			"0.019": 0.0,
			"0.02": 0.0,
			"0.021": 0.0,
			"0.022": 0.0,
			"0.023": 0.0,
			"0.024": 0.0,
			"0.025": 0.0
		}
	}
}
