{
	 "smiles": "CN1C(NC2=C1C=CC=C2)=C(C#N)C(=O)CCl", 
	 "Tm": 518.15, 
	 "num_atms": 27, 
	 "gaussian": { 
		 "optdone": 1, 
		 "sigma_profile": "yes", 
		 "theory": "DFT", 
		 "functional": "B3LYP", 
		 "basiset": "6-31G**", 
		 "properties": { 
			 "R2extent": 5294.0492, 
			 "electric_dipole_moment_norm": 6.99959319747, 
			 "electric_quadrupole_moment_norm": 8.64028569435, 
			 "total_energy": -1162.96617156, 
			 "HOMO_LUMO_gap": 0.15565, 
			 "cosmo_polarized_energy": -18.11, 
			 "cosmo_cavitation_energy": 33.51, 
			 "cosmo_dispersion_energy": -23.84, 
			 "cosmo_repulsion_energy": 1.83, 
			 "cosmo_total_nonelectrostatic_energy": 11.5, 
			 "SMD_solvation_energy": 6.52 
		},
		"coords": [
			{
				"x": -2.1069861253,
				"y": -0.4355274757,
				"z": 1.2110714819,
				"element": "C" 
			},
			{
				"x": -1.5529090691,
				"y": -0.1468509474,
				"z": -0.1117501849,
				"element": "N" 
			},
			{
				"x": -0.2484608526,
				"y": -0.2335783859,
				"z": -0.5211436104,
				"element": "C" 
			},
			{
				"x": -0.1767799681,
				"y": 0.3929105442,
				"z": -1.7395371162,
				"element": "N" 
			},
			{
				"x": -1.4155629469,
				"y": 0.8775793459,
				"z": -2.1241882277,
				"element": "C" 
			},
			{
				"x": -2.2952263695,
				"y": 0.5358141512,
				"z": -1.0860464375,
				"element": "C" 
			},
			{
				"x": -3.6410585851,
				"y": 0.8904601775,
				"z": -1.1360539251,
				"element": "C" 
			},
			{
				"x": -4.0762161805,
				"y": 1.5841015581,
				"z": -2.2684446248,
				"element": "C" 
			},
			{
				"x": -3.1952491593,
				"y": 1.9145892462,
				"z": -3.3087888797,
				"element": "C" 
			},
			{
				"x": -1.8432510368,
				"y": 1.5683791426,
				"z": -3.2538143201,
				"element": "C" 
			},
			{
				"x": 0.9172602931,
				"y": -0.784147481,
				"z": 0.0823049609,
				"element": "C" 
			},
			{
				"x": 2.1184087155,
				"y": -0.3882768828,
				"z": -0.56935083,
				"element": "C" 
			},
			{
				"x": 3.052065824,
				"y": -0.037420909,
				"z": -1.1783899239,
				"element": "N" 
			},
			{
				"x": 0.9775429388,
				"y": -1.7881041433,
				"z": 1.1262104165,
				"element": "C" 
			},
			{
				"x": 0.0072031138,
				"y": -2.3878288617,
				"z": 1.5987148364,
				"element": "O" 
			},
			{
				"x": 2.3668029568,
				"y": -2.1506640609,
				"z": 1.6616082767,
				"element": "C" 
			},
			{
				"x": 2.9066194062,
				"y": -0.93000968,
				"z": 2.8967715733,
				"element": "Cl" 
			},
			{
				"x": -2.091126031,
				"y": 0.4688713967,
				"z": 1.8280062612,
				"element": "H" 
			},
			{
				"x": -3.1393311792,
				"y": -0.7672485512,
				"z": 1.0839365601,
				"element": "H" 
			},
			{
				"x": -1.5271707843,
				"y": -1.231976186,
				"z": 1.6733365609,
				"element": "H" 
			},
			{
				"x": 0.6882580201,
				"y": 0.447445319,
				"z": -2.2599592594,
				"element": "H" 
			},
			{
				"x": -4.3266664308,
				"y": 0.6462548162,
				"z": -0.3327291512,
				"element": "H" 
			},
			{
				"x": -5.1191365455,
				"y": 1.875095704,
				"z": -2.340789004,
				"element": "H" 
			},
			{
				"x": -3.5691281009,
				"y": 2.4530318175,
				"z": -4.1736285779,
				"element": "H" 
			},
			{
				"x": -1.1577601353,
				"y": 1.8269181115,
				"z": -4.0539377836,
				"element": "H" 
			},
			{
				"x": 2.2925564359,
				"y": -3.1085029103,
				"z": 2.1729879034,
				"element": "H" 
			},
			{
				"x": 3.1379017959,
				"y": -2.1744148553,
				"z": 0.8915030249,
				"element": "H" 
			}
		],
		 "valence_orbital": [ 
			{
				"type": "occ",
				"energy": -0.29107,
				"method": "rhf"
			},
			{
				"type": "occ",
				"energy": -0.28059,
				"method": "rhf"
			},
			{
				"type": "occ",
				"energy": -0.2642,
				"method": "rhf"
			},
			{
				"type": "occ",
				"energy": -0.2489,
				"method": "rhf"
			},
			{
				"type": "occ",
				"energy": -0.21378,
				"method": "rhf"
			},
			{
				"type": "unocc",
				"energy": -0.05813,
				"method": "rhf"
			},
			{
				"type": "unocc",
				"energy": -0.02014,
				"method": "rhf"
			},
			{
				"type": "unocc",
				"energy": -0.0129,
				"method": "rhf"
			},
			{
				"type": "unocc",
				"energy": 0.00688,
				"method": "rhf"
			},
			{
				"type": "unocc",
				"energy": 0.02947,
				"method": "rhf"
			}
		],
		"cosmo_sigma_profile": { 
			"-0.025": 0.0,
			"-0.024": 0.0,
			"-0.023": 0.0,
			"-0.022": 0.0,
			"-0.021": 0.0,
			"-0.02": 0.0,
			"-0.019": 0.0,
			"-0.018": 0.0,
			"-0.017": 0.112372390514,
			"-0.016": 0.852809146267,
			"-0.015": 0.645361697065,
			"-0.014": 1.11870362182,
			"-0.013": 0.847944011235,
			"-0.012": 1.22561396549,
			"-0.011": 0.980273677729,
			"-0.01": 1.07343472712,
			"-0.009": 1.61851267049,
			"-0.008": 6.93434954575,
			"-0.007": 12.200247758,
			"-0.006": 16.1641584655,
			"-0.005": 20.7967848523,
			"-0.004": 19.315143322,
			"-0.003": 18.9986480129,
			"-0.002": 17.0057544125,
			"-0.001": 16.5473828752,
			"0.0": 14.3889680582,
			"0.001": 14.2568920734,
			"0.002": 15.6404934923,
			"0.003": 17.7707602448,
			"0.004": 17.9323643416,
			"0.005": 14.2931426729,
			"0.006": 10.9128363544,
			"0.007": 3.77835160691,
			"0.008": 3.50203307574,
			"0.009": 2.52371482065,
			"0.01": 5.03050782622,
			"0.011": 5.02920528315,
			"0.012": 4.90117141726,
			"0.013": 4.09926469528,
			"0.014": 1.55270998772,
			"0.015": 0.0125400726033,
			"0.016": 0.0,
			"0.017": 0.0,
			"0.018": 0.0,
			"0.019": 0.0,
			"0.02": 0.0,
			"0.021": 0.0,
			"0.022": 0.0,
			"0.023": 0.0,
			"0.024": 0.0,
			"0.025": 0.0
		}
	}
}
