{
	 "smiles": "CCOC(=O)NC1=CC2=NC3=C(C=CC(N)=C3CO)C=C2C=C1", 
	 "Tm": 408.15, 
	 "num_atms": 40, 
	 "gaussian": { 
		 "optdone": 1, 
		 "sigma_profile": "yes", 
		 "theory": "DFT", 
		 "functional": "B3LYP", 
		 "basiset": "6-31G**", 
		 "properties": { 
			 "R2extent": 11649.9955, 
			 "electric_dipole_moment_norm": 5.31563537783, 
			 "electric_quadrupole_moment_norm": 28.3583837489, 
			 "total_energy": -1048.02176597, 
			 "HOMO_LUMO_gap": 0.12541, 
			 "cosmo_polarized_energy": -21.91, 
			 "cosmo_cavitation_energy": 43.33, 
			 "cosmo_dispersion_energy": -31.76, 
			 "cosmo_repulsion_energy": 2.39, 
			 "cosmo_total_nonelectrostatic_energy": 13.96, 
			 "SMD_solvation_energy": 7.17 
		},
		"coords": [
			{
				"x": 1.7833119609,
				"y": 2.5081535251,
				"z": 5.6652050557,
				"element": "C" 
			},
			{
				"x": 0.7718326069,
				"y": 1.3848557388,
				"z": 5.5031839921,
				"element": "C" 
			},
			{
				"x": 0.4733053572,
				"y": 1.1365881079,
				"z": 4.1056338374,
				"element": "O" 
			},
			{
				"x": -0.4651718262,
				"y": 1.9381212459,
				"z": 3.55942081,
				"element": "C" 
			},
			{
				"x": -1.0631128465,
				"y": 2.815550149,
				"z": 4.1561500698,
				"element": "O" 
			},
			{
				"x": -0.7094531544,
				"y": 1.6760538397,
				"z": 2.2267710791,
				"element": "N" 
			},
			{
				"x": -0.2210048992,
				"y": 0.7384314199,
				"z": 1.2994178572,
				"element": "C" 
			},
			{
				"x": -0.834642886,
				"y": 0.7027877448,
				"z": 0.0607832805,
				"element": "C" 
			},
			{
				"x": -0.4091492056,
				"y": -0.1956552122,
				"z": -0.9535624967,
				"element": "C" 
			},
			{
				"x": -1.0447006896,
				"y": -0.1853026719,
				"z": -2.1415423191,
				"element": "N" 
			},
			{
				"x": -0.6567862707,
				"y": -1.0388653867,
				"z": -3.1134240179,
				"element": "C" 
			},
			{
				"x": 0.4410032966,
				"y": -1.9603034773,
				"z": -2.9153358223,
				"element": "C" 
			},
			{
				"x": 0.8066776544,
				"y": -2.8293134611,
				"z": -3.9861390945,
				"element": "C" 
			},
			{
				"x": 0.1231693168,
				"y": -2.7964495659,
				"z": -5.1640448031,
				"element": "C" 
			},
			{
				"x": -0.9814691321,
				"y": -1.8978454806,
				"z": -5.3648452789,
				"element": "C" 
			},
			{
				"x": -1.5957380829,
				"y": -1.9385775145,
				"z": -6.6082486036,
				"element": "N" 
			},
			{
				"x": -1.3645679695,
				"y": -1.0162690174,
				"z": -4.3592442902,
				"element": "C" 
			},
			{
				"x": -2.5368162228,
				"y": -0.0556782224,
				"z": -4.5078554231,
				"element": "C" 
			},
			{
				"x": -2.2417252105,
				"y": 1.2754821695,
				"z": -4.135336078,
				"element": "O" 
			},
			{
				"x": 1.0926022362,
				"y": -1.9577713576,
				"z": -1.6836312077,
				"element": "C" 
			},
			{
				"x": 0.688016481,
				"y": -1.0844555823,
				"z": -0.6687923228,
				"element": "C" 
			},
			{
				"x": 1.300021693,
				"y": -1.0206509774,
				"z": 0.6151627158,
				"element": "C" 
			},
			{
				"x": 0.8730936363,
				"y": -0.1433548424,
				"z": 1.5765247827,
				"element": "C" 
			},
			{
				"x": 2.0440040002,
				"y": 2.6206669106,
				"z": 6.7228959284,
				"element": "H" 
			},
			{
				"x": 2.6995127763,
				"y": 2.2939359459,
				"z": 5.106924546,
				"element": "H" 
			},
			{
				"x": 1.3635086007,
				"y": 3.4531725691,
				"z": 5.312919604,
				"element": "H" 
			},
			{
				"x": 1.1663848443,
				"y": 0.4315036992,
				"z": 5.8622903979,
				"element": "H" 
			},
			{
				"x": -0.1604145856,
				"y": 1.6125983598,
				"z": 6.0238193445,
				"element": "H" 
			},
			{
				"x": -1.438222943,
				"y": 2.2855340747,
				"z": 1.8813796702,
				"element": "H" 
			},
			{
				"x": -1.667093554,
				"y": 1.3613676242,
				"z": -0.1704901724,
				"element": "H" 
			},
			{
				"x": 1.6349027149,
				"y": -3.5190430478,
				"z": -3.846797547,
				"element": "H" 
			},
			{
				"x": 0.4071031959,
				"y": -3.4560280051,
				"z": -5.9805219432,
				"element": "H" 
			},
			{
				"x": -2.5292113079,
				"y": -1.5683946118,
				"z": -6.6863902342,
				"element": "H" 
			},
			{
				"x": -1.4516592181,
				"y": -2.7773343437,
				"z": -7.1497628039,
				"element": "H" 
			},
			{
				"x": -3.3892915166,
				"y": -0.450851543,
				"z": -3.9264674196,
				"element": "H" 
			},
			{
				"x": -2.8640943732,
				"y": -0.0047241009,
				"z": -5.5514745304,
				"element": "H" 
			},
			{
				"x": -1.9092463049,
				"y": 1.1898111906,
				"z": -3.2221871704,
				"element": "H" 
			},
			{
				"x": 1.9219751156,
				"y": -2.641130033,
				"z": -1.5105784684,
				"element": "H" 
			},
			{
				"x": 2.1313770788,
				"y": -1.6876197591,
				"z": 0.8294163742,
				"element": "H" 
			},
			{
				"x": 1.3535696334,
				"y": -0.1082961005,
				"z": 2.5422727017,
				"element": "H" 
			}
		],
		 "valence_orbital": [ 
			{
				"type": "occ",
				"energy": -0.25618,
				"method": "rhf"
			},
			{
				"type": "occ",
				"energy": -0.25132,
				"method": "rhf"
			},
			{
				"type": "occ",
				"energy": -0.23705,
				"method": "rhf"
			},
			{
				"type": "occ",
				"energy": -0.21285,
				"method": "rhf"
			},
			{
				"type": "occ",
				"energy": -0.19658,
				"method": "rhf"
			},
			{
				"type": "unocc",
				"energy": -0.07117,
				"method": "rhf"
			},
			{
				"type": "unocc",
				"energy": -0.01544,
				"method": "rhf"
			},
			{
				"type": "unocc",
				"energy": 0.00227,
				"method": "rhf"
			},
			{
				"type": "unocc",
				"energy": 0.02903,
				"method": "rhf"
			},
			{
				"type": "unocc",
				"energy": 0.04112,
				"method": "rhf"
			}
		],
		"cosmo_sigma_profile": { 
			"-0.025": 0.0,
			"-0.024": 0.0,
			"-0.023": 0.0,
			"-0.022": 0.0,
			"-0.021": 0.0,
			"-0.02": 0.0,
			"-0.019": 0.0,
			"-0.018": 0.0,
			"-0.017": 0.0,
			"-0.016": 0.0,
			"-0.015": 0.671445906297,
			"-0.014": 1.46388797896,
			"-0.013": 3.1765079672,
			"-0.012": 4.05587469338,
			"-0.011": 3.92431577872,
			"-0.01": 3.92945443627,
			"-0.009": 4.17132002366,
			"-0.008": 4.69505607167,
			"-0.007": 10.4530412839,
			"-0.006": 13.8778785766,
			"-0.005": 15.4199773776,
			"-0.004": 23.3428647074,
			"-0.003": 22.5379076305,
			"-0.002": 24.3614955403,
			"-0.001": 23.97305859,
			"0.0": 24.8450044099,
			"0.001": 24.2716443356,
			"0.002": 29.3367899247,
			"0.003": 33.929373306,
			"0.004": 22.1134894467,
			"0.005": 9.2387452016,
			"0.006": 4.29589211287,
			"0.007": 5.06633232425,
			"0.008": 3.4931026629,
			"0.009": 4.90603008959,
			"0.01": 3.42275593941,
			"0.011": 3.94309770061,
			"0.012": 5.62803842753,
			"0.013": 4.39428839924,
			"0.014": 2.07182142005,
			"0.015": 2.74971777883,
			"0.016": 0.962710961735,
			"0.017": 0.0,
			"0.018": 0.0,
			"0.019": 0.0,
			"0.02": 0.0,
			"0.021": 0.0,
			"0.022": 0.0,
			"0.023": 0.0,
			"0.024": 0.0,
			"0.025": 0.0
		}
	}
}
