{
	 "smiles": "ClC1=NC=C(Br)C=N1", 
	 "Tm": 352.15, 
	 "num_atms": 10, 
	 "gaussian": { 
		 "optdone": 1, 
		 "sigma_profile": "yes", 
		 "theory": "DFT", 
		 "functional": "B3LYP", 
		 "basiset": "6-31G**", 
		 "properties": { 
			 "R2extent": 2535.4538, 
			 "electric_dipole_moment_norm": 2.45715134658, 
			 "electric_quadrupole_moment_norm": 3.21621478605, 
			 "total_energy": -3294.71269255, 
			 "HOMO_LUMO_gap": 0.20202, 
			 "cosmo_polarized_energy": -6.49, 
			 "cosmo_cavitation_energy": 19.16, 
			 "cosmo_dispersion_energy": -15.09, 
			 "cosmo_repulsion_energy": 1.25, 
			 "cosmo_total_nonelectrostatic_energy": 5.32, 
			 "SMD_solvation_energy": -0.83 
		},
		"coords": [
			{
				"x": -0.2360481651,
				"y": 2.0583518953,
				"z": -2.583702264,
				"element": "Cl" 
			},
			{
				"x": 0.2279138377,
				"y": 0.7645815935,
				"z": -1.5064203038,
				"element": "C" 
			},
			{
				"x": 1.4579784349,
				"y": 0.2861415192,
				"z": -1.6645208591,
				"element": "N" 
			},
			{
				"x": 1.8098770597,
				"y": -0.7033230947,
				"z": -0.8388732831,
				"element": "C" 
			},
			{
				"x": 0.9308412668,
				"y": -1.1949228858,
				"z": 0.1255842642,
				"element": "C" 
			},
			{
				"x": 1.4343390365,
				"y": -2.5987526185,
				"z": 1.2942441368,
				"element": "Br" 
			},
			{
				"x": -0.3337709883,
				"y": -0.6113933652,
				"z": 0.1948405742,
				"element": "C" 
			},
			{
				"x": -0.6918109302,
				"y": 0.3783539256,
				"z": -0.6278511329,
				"element": "N" 
			},
			{
				"x": 2.811480274,
				"y": -1.1103698102,
				"z": -0.9499351294,
				"element": "H" 
			},
			{
				"x": -1.0700998261,
				"y": -0.9438671591,
				"z": 0.9218339972,
				"element": "H" 
			}
		],
		 "valence_orbital": [ 
			{
				"type": "occ",
				"energy": -0.32933,
				"method": "rhf"
			},
			{
				"type": "occ",
				"energy": -0.32744,
				"method": "rhf"
			},
			{
				"type": "occ",
				"energy": -0.32151,
				"method": "rhf"
			},
			{
				"type": "occ",
				"energy": -0.27932,
				"method": "rhf"
			},
			{
				"type": "occ",
				"energy": -0.27366,
				"method": "rhf"
			},
			{
				"type": "unocc",
				"energy": -0.07164,
				"method": "rhf"
			},
			{
				"type": "unocc",
				"energy": -0.05562,
				"method": "rhf"
			},
			{
				"type": "unocc",
				"energy": -0.01722,
				"method": "rhf"
			},
			{
				"type": "unocc",
				"energy": 0.0295,
				"method": "rhf"
			},
			{
				"type": "unocc",
				"energy": 0.09639,
				"method": "rhf"
			}
		],
		"cosmo_sigma_profile": { 
			"-0.025": 0.0,
			"-0.024": 0.0,
			"-0.023": 0.0,
			"-0.022": 0.0,
			"-0.021": 0.0,
			"-0.02": 0.0,
			"-0.019": 0.0,
			"-0.018": 0.0,
			"-0.017": 0.0,
			"-0.016": 0.0,
			"-0.015": 0.0,
			"-0.014": 0.0,
			"-0.013": 0.0,
			"-0.012": 0.0,
			"-0.011": 0.0,
			"-0.01": 2.01994939319,
			"-0.009": 3.59550108651,
			"-0.008": 3.64684390146,
			"-0.007": 3.6200152562,
			"-0.006": 5.50600938884,
			"-0.005": 7.32587629918,
			"-0.004": 10.0187671097,
			"-0.003": 17.0374046198,
			"-0.002": 12.0618688529,
			"-0.001": 10.1163610724,
			"0.0": 10.2161920846,
			"0.001": 11.9150179251,
			"0.002": 14.5482587081,
			"0.003": 19.317490835,
			"0.004": 9.34521414583,
			"0.005": 5.49584581675,
			"0.006": 2.90743570089,
			"0.007": 1.87072855877,
			"0.008": 2.14566353472,
			"0.009": 2.75166423658,
			"0.01": 1.90002005132,
			"0.011": 1.12264733398,
			"0.012": 2.10061762546,
			"0.013": 0.549258017681,
			"0.014": 0.0,
			"0.015": 0.0,
			"0.016": 0.0,
			"0.017": 0.0,
			"0.018": 0.0,
			"0.019": 0.0,
			"0.02": 0.0,
			"0.021": 0.0,
			"0.022": 0.0,
			"0.023": 0.0,
			"0.024": 0.0,
			"0.025": 0.0
		}
	}
}
