{
	 "smiles": "NC1=CC(Cl)=C(F)C=C1[N+]([O-])=O", 
	 "Tm": 416.15, 
	 "num_atms": 16, 
	 "gaussian": { 
		 "optdone": 1, 
		 "sigma_profile": "yes", 
		 "theory": "DFT", 
		 "functional": "B3LYP", 
		 "basiset": "6-31G**", 
		 "properties": { 
			 "R2extent": 2643.9179, 
			 "electric_dipole_moment_norm": 3.9288253359, 
			 "electric_quadrupole_moment_norm": 14.3032050975, 
			 "total_energy": -1050.92685293, 
			 "HOMO_LUMO_gap": 0.13738, 
			 "cosmo_polarized_energy": -11.08, 
			 "cosmo_cavitation_energy": 23.3, 
			 "cosmo_dispersion_energy": -17.64, 
			 "cosmo_repulsion_energy": 1.38, 
			 "cosmo_total_nonelectrostatic_energy": 7.03, 
			 "SMD_solvation_energy": 6.25 
		},
		"coords": [
			{
				"x": 1.5539225269,
				"y": -0.6587684344,
				"z": -2.0863754455,
				"element": "N" 
			},
			{
				"x": 0.9368729525,
				"y": -0.0992272707,
				"z": -1.0166714729,
				"element": "C" 
			},
			{
				"x": 0.9852032163,
				"y": -0.7562554942,
				"z": 0.2392011439,
				"element": "C" 
			},
			{
				"x": 0.3751533364,
				"y": -0.226438562,
				"z": 1.3599568828,
				"element": "C" 
			},
			{
				"x": 0.4569159062,
				"y": -1.0628708155,
				"z": 2.8830058965,
				"element": "Cl" 
			},
			{
				"x": -0.3184950473,
				"y": 0.9950243271,
				"z": 1.2813934956,
				"element": "C" 
			},
			{
				"x": -0.9070086002,
				"y": 1.4998210174,
				"z": 2.3767956018,
				"element": "F" 
			},
			{
				"x": -0.3898277599,
				"y": 1.6640605449,
				"z": 0.0839431427,
				"element": "C" 
			},
			{
				"x": 0.2266983264,
				"y": 1.1338683372,
				"z": -1.0612201212,
				"element": "C" 
			},
			{
				"x": 0.0998771063,
				"y": 1.9041819511,
				"z": -2.2804581763,
				"element": "N" 
			},
			{
				"x": -0.5286352158,
				"y": 2.9619215863,
				"z": -2.2428057991,
				"element": "O" 
			},
			{
				"x": 0.6297942014,
				"y": 1.469582564,
				"z": -3.3207469917,
				"element": "O" 
			},
			{
				"x": 2.0280490835,
				"y": -1.5404572666,
				"z": -1.9898132323,
				"element": "H" 
			},
			{
				"x": 1.5004951005,
				"y": -0.1813909706,
				"z": -2.9744131774,
				"element": "H" 
			},
			{
				"x": 1.5155844162,
				"y": -1.6988002948,
				"z": 0.3205130135,
				"element": "H" 
			},
			{
				"x": -0.9202995495,
				"y": 2.6040487807,
				"z": 0.0092952395,
				"element": "H" 
			}
		],
		 "valence_orbital": [ 
			{
				"type": "occ",
				"energy": -0.31428,
				"method": "rhf"
			},
			{
				"type": "occ",
				"energy": -0.31095,
				"method": "rhf"
			},
			{
				"type": "occ",
				"energy": -0.29551,
				"method": "rhf"
			},
			{
				"type": "occ",
				"energy": -0.2798,
				"method": "rhf"
			},
			{
				"type": "occ",
				"energy": -0.23232,
				"method": "rhf"
			},
			{
				"type": "unocc",
				"energy": -0.09494,
				"method": "rhf"
			},
			{
				"type": "unocc",
				"energy": -0.02244,
				"method": "rhf"
			},
			{
				"type": "unocc",
				"energy": -0.00152,
				"method": "rhf"
			},
			{
				"type": "unocc",
				"energy": 0.00667,
				"method": "rhf"
			},
			{
				"type": "unocc",
				"energy": 0.06855,
				"method": "rhf"
			}
		],
		"cosmo_sigma_profile": { 
			"-0.025": 0.0,
			"-0.024": 0.0,
			"-0.023": 0.0,
			"-0.022": 0.0,
			"-0.021": 0.0,
			"-0.02": 0.0,
			"-0.019": 0.0,
			"-0.018": 0.0,
			"-0.017": 0.0,
			"-0.016": 0.0781475529605,
			"-0.015": 1.34609559706,
			"-0.014": 2.16890911814,
			"-0.013": 1.43008311228,
			"-0.012": 1.50501227773,
			"-0.011": 1.94937927222,
			"-0.01": 3.03282599579,
			"-0.009": 2.91857005099,
			"-0.008": 3.44625671947,
			"-0.007": 3.227286292,
			"-0.006": 3.51132334314,
			"-0.005": 5.76428783467,
			"-0.004": 6.09872908572,
			"-0.003": 8.89133048488,
			"-0.002": 12.736671661,
			"-0.001": 24.1320189519,
			"0.0": 22.161350209,
			"0.001": 12.8098753026,
			"0.002": 12.6614703691,
			"0.003": 19.1516870882,
			"0.004": 13.0606866311,
			"0.005": 4.49983193506,
			"0.006": 2.85068830396,
			"0.007": 3.73598345257,
			"0.008": 6.8061767896,
			"0.009": 4.20601357236,
			"0.01": 3.95756896509,
			"0.011": 1.69405628834,
			"0.012": 0.0,
			"0.013": 0.0,
			"0.014": 0.0,
			"0.015": 0.0,
			"0.016": 0.0,
			"0.017": 0.0,
			"0.018": 0.0,
			"0.019": 0.0,
			"0.02": 0.0,
			"0.021": 0.0,
			"0.022": 0.0,
			"0.023": 0.0,
			"0.024": 0.0,
			"0.025": 0.0
		}
	}
}
