{
	 "smiles": "CCC(NC1=CC=CC=C1)C(O)=O", 
	 "Tm": 413.15, 
	 "num_atms": 26, 
	 "gaussian": { 
		 "optdone": 1, 
		 "sigma_profile": "yes", 
		 "theory": "DFT", 
		 "functional": "B3LYP", 
		 "basiset": "6-31G**", 
		 "properties": { 
			 "R2extent": 3003.6949, 
			 "electric_dipole_moment_norm": 4.67861924931, 
			 "electric_quadrupole_moment_norm": 11.7115615846, 
			 "total_energy": -594.117355812, 
			 "HOMO_LUMO_gap": 0.21161, 
			 "cosmo_polarized_energy": -14.43, 
			 "cosmo_cavitation_energy": 28.84, 
			 "cosmo_dispersion_energy": -20.77, 
			 "cosmo_repulsion_energy": 1.65, 
			 "cosmo_total_nonelectrostatic_energy": 9.73, 
			 "SMD_solvation_energy": 5.64 
		},
		"coords": [
			{
				"x": -1.8563247543,
				"y": 1.4702674024,
				"z": 2.5937669264,
				"element": "C" 
			},
			{
				"x": -1.7210794987,
				"y": 1.1645673031,
				"z": 1.0996937049,
				"element": "C" 
			},
			{
				"x": -0.65447208,
				"y": 0.0987038379,
				"z": 0.7606753101,
				"element": "C" 
			},
			{
				"x": -0.5161092427,
				"y": -0.012423842,
				"z": -0.6959912849,
				"element": "N" 
			},
			{
				"x": 0.7201676414,
				"y": -0.3996392754,
				"z": -1.2676182713,
				"element": "C" 
			},
			{
				"x": 1.6399498576,
				"y": -1.1994416017,
				"z": -0.5722246134,
				"element": "C" 
			},
			{
				"x": 2.8274490408,
				"y": -1.5943222055,
				"z": -1.1912693157,
				"element": "C" 
			},
			{
				"x": 3.1178565008,
				"y": -1.2083458983,
				"z": -2.4992162688,
				"element": "C" 
			},
			{
				"x": 2.2001707836,
				"y": -0.4148727715,
				"z": -3.1923691402,
				"element": "C" 
			},
			{
				"x": 1.0137117272,
				"y": -0.0128132037,
				"z": -2.585717551,
				"element": "C" 
			},
			{
				"x": -1.0672301231,
				"y": -1.2627103299,
				"z": 1.3574057108,
				"element": "C" 
			},
			{
				"x": -1.6661398102,
				"y": -2.0870481219,
				"z": 0.481249802,
				"element": "O" 
			},
			{
				"x": -0.9069730004,
				"y": -1.5484822168,
				"z": 2.521229233,
				"element": "O" 
			},
			{
				"x": -2.6308326068,
				"y": 2.2262747947,
				"z": 2.7543616059,
				"element": "H" 
			},
			{
				"x": -2.1189385794,
				"y": 0.576881716,
				"z": 3.1637569709,
				"element": "H" 
			},
			{
				"x": -0.9171480217,
				"y": 1.858588252,
				"z": 3.0011488698,
				"element": "H" 
			},
			{
				"x": -1.4454233814,
				"y": 2.0829959546,
				"z": 0.56393817,
				"element": "H" 
			},
			{
				"x": -2.685777538,
				"y": 0.8371805447,
				"z": 0.6902406435,
				"element": "H" 
			},
			{
				"x": 0.2944249843,
				"y": 0.3804025329,
				"z": 1.2344623906,
				"element": "H" 
			},
			{
				"x": -0.9247989945,
				"y": 0.7760830028,
				"z": -1.1839699893,
				"element": "H" 
			},
			{
				"x": 1.4376410221,
				"y": -1.521845204,
				"z": 0.4435232694,
				"element": "H" 
			},
			{
				"x": 3.5284731606,
				"y": -2.2126020756,
				"z": -0.637929259,
				"element": "H" 
			},
			{
				"x": 4.0434294891,
				"y": -1.520025586,
				"z": -2.9726943604,
				"element": "H" 
			},
			{
				"x": 2.4092339059,
				"y": -0.1017799822,
				"z": -4.2113910642,
				"element": "H" 
			},
			{
				"x": 0.305127396,
				"y": 0.6053349982,
				"z": -3.132891693,
				"element": "H" 
			},
			{
				"x": -1.5875878785,
				"y": -1.6450280246,
				"z": -0.3914697962,
				"element": "H" 
			}
		],
		 "valence_orbital": [ 
			{
				"type": "occ",
				"energy": -0.31875,
				"method": "rhf"
			},
			{
				"type": "occ",
				"energy": -0.30618,
				"method": "rhf"
			},
			{
				"type": "occ",
				"energy": -0.2627,
				"method": "rhf"
			},
			{
				"type": "occ",
				"energy": -0.25645,
				"method": "rhf"
			},
			{
				"type": "occ",
				"energy": -0.22069,
				"method": "rhf"
			},
			{
				"type": "unocc",
				"energy": -0.00908,
				"method": "rhf"
			},
			{
				"type": "unocc",
				"energy": 0.00267,
				"method": "rhf"
			},
			{
				"type": "unocc",
				"energy": 0.01231,
				"method": "rhf"
			},
			{
				"type": "unocc",
				"energy": 0.06715,
				"method": "rhf"
			},
			{
				"type": "unocc",
				"energy": 0.09057,
				"method": "rhf"
			}
		],
		"cosmo_sigma_profile": { 
			"-0.025": 0.0,
			"-0.024": 0.0,
			"-0.023": 0.0,
			"-0.022": 0.0,
			"-0.021": 0.0,
			"-0.02": 0.0,
			"-0.019": 0.0,
			"-0.018": 0.0,
			"-0.017": 0.0,
			"-0.016": 0.0,
			"-0.015": 0.0,
			"-0.014": 0.0,
			"-0.013": 0.959935316988,
			"-0.012": 1.38173477033,
			"-0.011": 2.13210742155,
			"-0.01": 2.63209191326,
			"-0.009": 2.3881977438,
			"-0.008": 2.72919868697,
			"-0.007": 3.55182634631,
			"-0.006": 8.90621935061,
			"-0.005": 18.5449107114,
			"-0.004": 21.2949722725,
			"-0.003": 20.7466730487,
			"-0.002": 19.4400656947,
			"-0.001": 17.8323836096,
			"0.0": 15.1446426876,
			"0.001": 13.3433959427,
			"0.002": 8.82506642446,
			"0.003": 8.65011013919,
			"0.004": 10.372555451,
			"0.005": 9.5982655289,
			"0.006": 10.9455376563,
			"0.007": 4.87767909813,
			"0.008": 3.06808124895,
			"0.009": 2.96155916047,
			"0.01": 4.91650154203,
			"0.011": 4.12225578632,
			"0.012": 4.99058347146,
			"0.013": 2.92117404649,
			"0.014": 0.25605711635,
			"0.015": 0.0,
			"0.016": 0.0,
			"0.017": 0.0,
			"0.018": 0.0,
			"0.019": 0.0,
			"0.02": 0.0,
			"0.021": 0.0,
			"0.022": 0.0,
			"0.023": 0.0,
			"0.024": 0.0,
			"0.025": 0.0
		}
	}
}
