{
	 "smiles": "CCOC(=O)C1=NN=C(N)O1", 
	 "Tm": 473.15, 
	 "num_atms": 18, 
	 "gaussian": { 
		 "optdone": 1, 
		 "sigma_profile": "yes", 
		 "theory": "DFT", 
		 "functional": "B3LYP", 
		 "basiset": "6-31G**", 
		 "properties": { 
			 "R2extent": 3269.0341, 
			 "electric_dipole_moment_norm": 6.1393929871, 
			 "electric_quadrupole_moment_norm": 25.8065431443, 
			 "total_energy": -584.649074002, 
			 "HOMO_LUMO_gap": 0.19385, 
			 "cosmo_polarized_energy": -19.57, 
			 "cosmo_cavitation_energy": 23.87, 
			 "cosmo_dispersion_energy": -17.65, 
			 "cosmo_repulsion_energy": 1.48, 
			 "cosmo_total_nonelectrostatic_energy": 7.7, 
			 "SMD_solvation_energy": 4.14 
		},
		"coords": [
			{
				"x": 0.998012334,
				"y": 0.7677134761,
				"z": -2.0823911333,
				"element": "C" 
			},
			{
				"x": -0.2284113976,
				"y": 1.324837048,
				"z": -1.3864621775,
				"element": "C" 
			},
			{
				"x": -0.0614366551,
				"y": 1.0969404869,
				"z": 0.0349609836,
				"element": "O" 
			},
			{
				"x": -1.0694547063,
				"y": 1.5391835635,
				"z": 0.8105903101,
				"element": "C" 
			},
			{
				"x": -2.0702210768,
				"y": 2.0917309257,
				"z": 0.4134085498,
				"element": "O" 
			},
			{
				"x": -0.7996341383,
				"y": 1.2618485441,
				"z": 2.2379884991,
				"element": "C" 
			},
			{
				"x": -1.5537518042,
				"y": 1.5373830312,
				"z": 3.2540690207,
				"element": "N" 
			},
			{
				"x": -0.8992039617,
				"y": 1.083823728,
				"z": 4.3876648473,
				"element": "N" 
			},
			{
				"x": 0.225360387,
				"y": 0.5675312131,
				"z": 3.9576018915,
				"element": "C" 
			},
			{
				"x": 1.2427334194,
				"y": 0.045678347,
				"z": 4.6923690281,
				"element": "N" 
			},
			{
				"x": 0.372322207,
				"y": 0.6331932668,
				"z": 2.6173443858,
				"element": "O" 
			},
			{
				"x": 1.9062389078,
				"y": 1.2686644188,
				"z": -1.7356489054,
				"element": "H" 
			},
			{
				"x": 0.9106243367,
				"y": 0.9213403808,
				"z": -3.1623549624,
				"element": "H" 
			},
			{
				"x": 1.1016837657,
				"y": -0.3047292235,
				"z": -1.8945724808,
				"element": "H" 
			},
			{
				"x": -0.3492230681,
				"y": 2.3991087967,
				"z": -1.556448665,
				"element": "H" 
			},
			{
				"x": -1.1499123578,
				"y": 0.8334594848,
				"z": -1.7136536946,
				"element": "H" 
			},
			{
				"x": 1.843110616,
				"y": -0.6221600877,
				"z": 4.2318702769,
				"element": "H" 
			},
			{
				"x": 1.0033631923,
				"y": -0.1643474002,
				"z": 5.650364226,
				"element": "H" 
			}
		],
		 "valence_orbital": [ 
			{
				"type": "occ",
				"energy": -0.327,
				"method": "rhf"
			},
			{
				"type": "occ",
				"energy": -0.30843,
				"method": "rhf"
			},
			{
				"type": "occ",
				"energy": -0.28769,
				"method": "rhf"
			},
			{
				"type": "occ",
				"energy": -0.27785,
				"method": "rhf"
			},
			{
				"type": "occ",
				"energy": -0.24671,
				"method": "rhf"
			},
			{
				"type": "unocc",
				"energy": -0.05286,
				"method": "rhf"
			},
			{
				"type": "unocc",
				"energy": 0.03192,
				"method": "rhf"
			},
			{
				"type": "unocc",
				"energy": 0.05764,
				"method": "rhf"
			},
			{
				"type": "unocc",
				"energy": 0.091,
				"method": "rhf"
			},
			{
				"type": "unocc",
				"energy": 0.09565,
				"method": "rhf"
			}
		],
		"cosmo_sigma_profile": { 
			"-0.025": 0.0,
			"-0.024": 0.0,
			"-0.023": 0.0,
			"-0.022": 0.0,
			"-0.021": 0.0,
			"-0.02": 0.0,
			"-0.019": 0.0,
			"-0.018": 0.0,
			"-0.017": 0.0,
			"-0.016": 1.59081113754,
			"-0.015": 2.88590788628,
			"-0.014": 3.00495790495,
			"-0.013": 2.10232706419,
			"-0.012": 2.66018429238,
			"-0.011": 2.08298561199,
			"-0.01": 1.84154555177,
			"-0.009": 2.16141312867,
			"-0.008": 1.28063920649,
			"-0.007": 1.39039364223,
			"-0.006": 7.36260684265,
			"-0.005": 16.7356391722,
			"-0.004": 18.8036377274,
			"-0.003": 14.4844222522,
			"-0.002": 12.968517806,
			"-0.001": 11.5608238231,
			"0.0": 11.4819341475,
			"0.001": 7.78134044184,
			"0.002": 5.90943679862,
			"0.003": 5.04372870979,
			"0.004": 4.53776870916,
			"0.005": 5.46810777777,
			"0.006": 6.06277917467,
			"0.007": 4.65769674168,
			"0.008": 5.45226382969,
			"0.009": 4.81931731236,
			"0.01": 6.34005778173,
			"0.011": 8.57474043157,
			"0.012": 5.30918200955,
			"0.013": 2.50235100186,
			"0.014": 2.14536381466,
			"0.015": 0.788173412307,
			"0.016": 0.0443900450962,
			"0.017": 0.0,
			"0.018": 0.0,
			"0.019": 0.0,
			"0.02": 0.0,
			"0.021": 0.0,
			"0.022": 0.0,
			"0.023": 0.0,
			"0.024": 0.0,
			"0.025": 0.0
		}
	}
}
