{
	 "smiles": "COC1=CC=C(C=C1)C(N)=NO", 
	 "Tm": 393.15, 
	 "num_atms": 22, 
	 "gaussian": { 
		 "optdone": 1, 
		 "sigma_profile": "yes", 
		 "theory": "DFT", 
		 "functional": "B3LYP", 
		 "basiset": "6-31G**", 
		 "properties": { 
			 "R2extent": 2901.7673, 
			 "electric_dipole_moment_norm": 2.97826460208, 
			 "electric_quadrupole_moment_norm": 10.3518080923, 
			 "total_energy": -570.756033352, 
			 "HOMO_LUMO_gap": 0.18412, 
			 "cosmo_polarized_energy": -14.96, 
			 "cosmo_cavitation_energy": 26.08, 
			 "cosmo_dispersion_energy": -19.4, 
			 "cosmo_repulsion_energy": 1.57, 
			 "cosmo_total_nonelectrostatic_energy": 8.25, 
			 "SMD_solvation_energy": 5.15 
		},
		"coords": [
			{
				"x": -3.7629444174,
				"y": -3.4625645895,
				"z": -0.4992084217,
				"element": "C" 
			},
			{
				"x": -3.3170435027,
				"y": -2.438300022,
				"z": 0.3755162858,
				"element": "O" 
			},
			{
				"x": -2.2478790956,
				"y": -1.6831599212,
				"z": -0.0049727574,
				"element": "C" 
			},
			{
				"x": -1.8563583132,
				"y": -0.6813246622,
				"z": 0.8973805827,
				"element": "C" 
			},
			{
				"x": -0.7829003311,
				"y": 0.1459322608,
				"z": 0.6059851955,
				"element": "C" 
			},
			{
				"x": -0.056753039,
				"y": -0.008585672,
				"z": -0.5891329888,
				"element": "C" 
			},
			{
				"x": -0.4593134595,
				"y": -1.0102381979,
				"z": -1.4797056734,
				"element": "C" 
			},
			{
				"x": -1.5454148782,
				"y": -1.8439818176,
				"z": -1.2044286376,
				"element": "C" 
			},
			{
				"x": 1.1201425598,
				"y": 0.8473162754,
				"z": -0.9024928427,
				"element": "C" 
			},
			{
				"x": 2.2687600624,
				"y": 0.1816030612,
				"z": -1.3283684252,
				"element": "N" 
			},
			{
				"x": 1.2176439114,
				"y": 2.1286711113,
				"z": -0.7795607138,
				"element": "N" 
			},
			{
				"x": 0.0212891475,
				"y": 2.7173102632,
				"z": -0.2891036905,
				"element": "O" 
			},
			{
				"x": -4.6140749604,
				"y": -3.9324667815,
				"z": -0.004148404,
				"element": "H" 
			},
			{
				"x": -4.0873339136,
				"y": -3.0568190447,
				"z": -1.4661435855,
				"element": "H" 
			},
			{
				"x": -2.9840414868,
				"y": -4.2168700277,
				"z": -0.670357699,
				"element": "H" 
			},
			{
				"x": -2.4148139206,
				"y": -0.5720291509,
				"z": 1.8212720435,
				"element": "H" 
			},
			{
				"x": -0.4979059433,
				"y": 0.9258887374,
				"z": 1.3008624383,
				"element": "H" 
			},
			{
				"x": 0.0612582822,
				"y": -1.1364373853,
				"z": -2.4259002444,
				"element": "H" 
			},
			{
				"x": -1.8315858046,
				"y": -2.6004168004,
				"z": -1.9252881323,
				"element": "H" 
			},
			{
				"x": 2.9384649284,
				"y": 0.7742592182,
				"z": -1.8011062025,
				"element": "H" 
			},
			{
				"x": 2.1236941372,
				"y": -0.7139431572,
				"z": -1.768246226,
				"element": "H" 
			},
			{
				"x": 0.2636100375,
				"y": 3.6515563026,
				"z": -0.2873519012,
				"element": "H" 
			}
		],
		 "valence_orbital": [ 
			{
				"type": "occ",
				"energy": -0.30709,
				"method": "rhf"
			},
			{
				"type": "occ",
				"energy": -0.25771,
				"method": "rhf"
			},
			{
				"type": "occ",
				"energy": -0.2512,
				"method": "rhf"
			},
			{
				"type": "occ",
				"energy": -0.22492,
				"method": "rhf"
			},
			{
				"type": "occ",
				"energy": -0.19408,
				"method": "rhf"
			},
			{
				"type": "unocc",
				"energy": -0.00996,
				"method": "rhf"
			},
			{
				"type": "unocc",
				"energy": -0.00183,
				"method": "rhf"
			},
			{
				"type": "unocc",
				"energy": 0.06358,
				"method": "rhf"
			},
			{
				"type": "unocc",
				"energy": 0.0792,
				"method": "rhf"
			},
			{
				"type": "unocc",
				"energy": 0.08844,
				"method": "rhf"
			}
		],
		"cosmo_sigma_profile": { 
			"-0.025": 0.0,
			"-0.024": 0.0,
			"-0.023": 0.0,
			"-0.022": 0.0,
			"-0.021": 0.0,
			"-0.02": 0.0,
			"-0.019": 0.0,
			"-0.018": 0.0,
			"-0.017": 0.0774611985715,
			"-0.016": 0.783717264392,
			"-0.015": 1.03946504219,
			"-0.014": 0.495577547393,
			"-0.013": 1.12730216621,
			"-0.012": 3.62480378781,
			"-0.011": 3.03132396942,
			"-0.01": 2.65997202444,
			"-0.009": 2.94319281183,
			"-0.008": 4.59645456012,
			"-0.007": 4.3773667167,
			"-0.006": 11.3050759346,
			"-0.005": 17.0382312916,
			"-0.004": 16.3913937043,
			"-0.003": 13.6393568749,
			"-0.002": 10.1002122252,
			"-0.001": 8.86560781031,
			"0.0": 8.00176673443,
			"0.001": 9.03289111124,
			"0.002": 9.20627099617,
			"0.003": 12.8140972969,
			"0.004": 14.7364300946,
			"0.005": 11.35658431,
			"0.006": 5.69574542801,
			"0.007": 6.75109383478,
			"0.008": 6.66868123245,
			"0.009": 5.47276258114,
			"0.01": 5.29122570474,
			"0.011": 3.17079526726,
			"0.012": 2.61011307786,
			"0.013": 2.18611957533,
			"0.014": 1.14951373646,
			"0.015": 0.248823756575,
			"0.016": 0.0,
			"0.017": 0.0,
			"0.018": 0.0,
			"0.019": 0.0,
			"0.02": 0.0,
			"0.021": 0.0,
			"0.022": 0.0,
			"0.023": 0.0,
			"0.024": 0.0,
			"0.025": 0.0
		}
	}
}
