{
	 "smiles": "CCOC(=O)C1=NN(C)C(C)=C1", 
	 "Tm": 360.15, 
	 "num_atms": 24, 
	 "gaussian": { 
		 "optdone": 1, 
		 "sigma_profile": "yes", 
		 "theory": "DFT", 
		 "functional": "B3LYP", 
		 "basiset": "6-31G**", 
		 "properties": { 
			 "R2extent": 2977.7283, 
			 "electric_dipole_moment_norm": 4.35906368387, 
			 "electric_quadrupole_moment_norm": 15.7416583904, 
			 "total_energy": -572.035808442, 
			 "HOMO_LUMO_gap": 0.22495, 
			 "cosmo_polarized_energy": -14.24, 
			 "cosmo_cavitation_energy": 28.17, 
			 "cosmo_dispersion_energy": -20.29, 
			 "cosmo_repulsion_energy": 1.65, 
			 "cosmo_total_nonelectrostatic_energy": 9.53, 
			 "SMD_solvation_energy": 5.29 
		},
		"coords": [
			{
				"x": -2.2017675835,
				"y": -3.1349352536,
				"z": -2.4145887644,
				"element": "C" 
			},
			{
				"x": -0.699767081,
				"y": -2.9741714966,
				"z": -2.600957396,
				"element": "C" 
			},
			{
				"x": -0.1304822007,
				"y": -2.1202936949,
				"z": -1.584495532,
				"element": "O" 
			},
			{
				"x": -0.1776037848,
				"y": -0.783603885,
				"z": -1.83010103,
				"element": "C" 
			},
			{
				"x": -0.6546822113,
				"y": -0.2945299295,
				"z": -2.8323597449,
				"element": "O" 
			},
			{
				"x": 0.4347178784,
				"y": -0.036675293,
				"z": -0.7106581199,
				"element": "C" 
			},
			{
				"x": 0.4876504143,
				"y": 1.3000107971,
				"z": -0.7523779168,
				"element": "N" 
			},
			{
				"x": 1.0917745471,
				"y": 1.6502866053,
				"z": 0.3945402407,
				"element": "N" 
			},
			{
				"x": 1.3156108203,
				"y": 3.0561848129,
				"z": 0.6802985297,
				"element": "C" 
			},
			{
				"x": 1.4301392252,
				"y": 0.5744061814,
				"z": 1.1767931448,
				"element": "C" 
			},
			{
				"x": 2.1122236073,
				"y": 0.7183696271,
				"z": 2.4994387449,
				"element": "C" 
			},
			{
				"x": 1.0122828799,
				"y": -0.5417085375,
				"z": 0.4789389385,
				"element": "C" 
			},
			{
				"x": -2.5951779579,
				"y": -3.8446448466,
				"z": -3.1503008526,
				"element": "H" 
			},
			{
				"x": -2.7083193921,
				"y": -2.1772827593,
				"z": -2.556365844,
				"element": "H" 
			},
			{
				"x": -2.4322356131,
				"y": -3.5134557026,
				"z": -1.4141894069,
				"element": "H" 
			},
			{
				"x": -0.4704237902,
				"y": -2.5552943906,
				"z": -3.5838529302,
				"element": "H" 
			},
			{
				"x": -0.1779349641,
				"y": -3.9272055905,
				"z": -2.4816120322,
				"element": "H" 
			},
			{
				"x": 2.3840314169,
				"y": 3.267249942,
				"z": 0.7904963216,
				"element": "H" 
			},
			{
				"x": 0.797457218,
				"y": 3.3560789996,
				"z": 1.5967177987,
				"element": "H" 
			},
			{
				"x": 0.9191830825,
				"y": 3.6209905048,
				"z": -0.1620958326,
				"element": "H" 
			},
			{
				"x": 3.0865954329,
				"y": 1.2132091503,
				"z": 2.407654016,
				"element": "H" 
			},
			{
				"x": 1.5137824547,
				"y": 1.3022621329,
				"z": 3.2090965979,
				"element": "H" 
			},
			{
				"x": 2.2799205752,
				"y": -0.2674011954,
				"z": 2.9379827235,
				"element": "H" 
			},
			{
				"x": 1.1062250261,
				"y": -1.5744461783,
				"z": 0.7762983462,
				"element": "H" 
			}
		],
		 "valence_orbital": [ 
			{
				"type": "occ",
				"energy": -0.28884,
				"method": "rhf"
			},
			{
				"type": "occ",
				"energy": -0.28516,
				"method": "rhf"
			},
			{
				"type": "occ",
				"energy": -0.25845,
				"method": "rhf"
			},
			{
				"type": "occ",
				"energy": -0.24989,
				"method": "rhf"
			},
			{
				"type": "occ",
				"energy": -0.24131,
				"method": "rhf"
			},
			{
				"type": "unocc",
				"energy": -0.01636,
				"method": "rhf"
			},
			{
				"type": "unocc",
				"energy": 0.03106,
				"method": "rhf"
			},
			{
				"type": "unocc",
				"energy": 0.07842,
				"method": "rhf"
			},
			{
				"type": "unocc",
				"energy": 0.11089,
				"method": "rhf"
			},
			{
				"type": "unocc",
				"energy": 0.11618,
				"method": "rhf"
			}
		],
		"cosmo_sigma_profile": { 
			"-0.025": 0.0,
			"-0.024": 0.0,
			"-0.023": 0.0,
			"-0.022": 0.0,
			"-0.021": 0.0,
			"-0.02": 0.0,
			"-0.019": 0.0,
			"-0.018": 0.0,
			"-0.017": 0.0,
			"-0.016": 0.0,
			"-0.015": 0.0,
			"-0.014": 0.0,
			"-0.013": 0.0,
			"-0.012": 0.0,
			"-0.011": 0.0,
			"-0.01": 0.0,
			"-0.009": 0.0,
			"-0.008": 0.0,
			"-0.007": 3.52811565707,
			"-0.006": 14.3961334691,
			"-0.005": 18.7812916984,
			"-0.004": 24.3151926332,
			"-0.003": 26.5170135211,
			"-0.002": 22.2766878962,
			"-0.001": 19.8447589624,
			"0.0": 16.5278844327,
			"0.001": 9.94932215722,
			"0.002": 9.78261436026,
			"0.003": 10.3138610785,
			"0.004": 9.53934491309,
			"0.005": 5.2938521271,
			"0.006": 4.721738753,
			"0.007": 3.49717859926,
			"0.008": 2.31603332357,
			"0.009": 2.45942828495,
			"0.01": 1.96681761918,
			"0.011": 3.30635950875,
			"0.012": 5.00993585952,
			"0.013": 3.35149561991,
			"0.014": 2.23241472271,
			"0.015": 1.80780089492,
			"0.016": 0.643183459933,
			"0.017": 0.0,
			"0.018": 0.0,
			"0.019": 0.0,
			"0.02": 0.0,
			"0.021": 0.0,
			"0.022": 0.0,
			"0.023": 0.0,
			"0.024": 0.0,
			"0.025": 0.0
		}
	}
}
