{
	 "smiles": "COC(=O)C1=C(Cl)C(=CC(=C1Cl)[N+]([O-])=O)[N+]([O-])=O", 
	 "Tm": 371.15, 
	 "num_atms": 22, 
	 "gaussian": { 
		 "optdone": 1, 
		 "sigma_profile": "yes", 
		 "theory": "DFT", 
		 "functional": "B3LYP", 
		 "basiset": "6-31G**", 
		 "properties": { 
			 "R2extent": 5939.7918, 
			 "electric_dipole_moment_norm": 4.33121490693, 
			 "electric_quadrupole_moment_norm": 6.80250581845, 
			 "total_energy": -1788.24987305, 
			 "HOMO_LUMO_gap": 0.17364, 
			 "cosmo_polarized_energy": -13.93, 
			 "cosmo_cavitation_energy": 33.09, 
			 "cosmo_dispersion_energy": -23.09, 
			 "cosmo_repulsion_energy": 1.79, 
			 "cosmo_total_nonelectrostatic_energy": 11.79, 
			 "SMD_solvation_energy": 11.13 
		},
		"coords": [
			{
				"x": 0.7405937142,
				"y": -0.7837492694,
				"z": -3.1586115511,
				"element": "C" 
			},
			{
				"x": 0.6182659564,
				"y": -0.3750517387,
				"z": -1.7783630241,
				"element": "O" 
			},
			{
				"x": -0.4492729284,
				"y": -0.8550074495,
				"z": -1.1326056659,
				"element": "C" 
			},
			{
				"x": -1.2934593887,
				"y": -1.5809461388,
				"z": -1.5984736325,
				"element": "O" 
			},
			{
				"x": -0.4731436164,
				"y": -0.3623218978,
				"z": 0.3012806313,
				"element": "C" 
			},
			{
				"x": 0.1387052594,
				"y": -1.1246056668,
				"z": 1.307367237,
				"element": "C" 
			},
			{
				"x": 0.9538084859,
				"y": -2.5826771504,
				"z": 0.845397119,
				"element": "Cl" 
			},
			{
				"x": 0.017315567,
				"y": -0.7124193414,
				"z": 2.6437599689,
				"element": "C" 
			},
			{
				"x": -0.7058882984,
				"y": 0.4274234372,
				"z": 2.9650756205,
				"element": "C" 
			},
			{
				"x": -1.2624778456,
				"y": 1.208647307,
				"z": 1.962377439,
				"element": "C" 
			},
			{
				"x": -1.1572681557,
				"y": 0.8207609899,
				"z": 0.6173718997,
				"element": "C" 
			},
			{
				"x": -1.9014349729,
				"y": 1.7038996535,
				"z": -0.6749133582,
				"element": "Cl" 
			},
			{
				"x": -1.9452840783,
				"y": 2.4411596526,
				"z": 2.4059374289,
				"element": "N" 
			},
			{
				"x": -2.4813026888,
				"y": 2.3980667576,
				"z": 3.5107483254,
				"element": "O" 
			},
			{
				"x": -1.9013036457,
				"y": 3.4178118217,
				"z": 1.6683939771,
				"element": "O" 
			},
			{
				"x": 0.6332598609,
				"y": -1.4295447668,
				"z": 3.7788487982,
				"element": "N" 
			},
			{
				"x": 0.0311424851,
				"y": -1.3733774638,
				"z": 4.8484652763,
				"element": "O" 
			},
			{
				"x": 1.703468941,
				"y": -1.993355076,
				"z": 3.5877583124,
				"element": "O" 
			},
			{
				"x": 0.8166642708,
				"y": -1.871157778,
				"z": -3.2243235511,
				"element": "H" 
			},
			{
				"x": -0.1273155571,
				"y": -0.4472240662,
				"z": -3.7296255825,
				"element": "H" 
			},
			{
				"x": 1.6508968896,
				"y": -0.3087493557,
				"z": -3.5207770331,
				"element": "H" 
			},
			{
				"x": -0.8315702545,
				"y": 0.7114175399,
				"z": 4.0018113648,
				"element": "H" 
			}
		],
		 "valence_orbital": [ 
			{
				"type": "occ",
				"energy": -0.32611,
				"method": "rhf"
			},
			{
				"type": "occ",
				"energy": -0.31698,
				"method": "rhf"
			},
			{
				"type": "occ",
				"energy": -0.31427,
				"method": "rhf"
			},
			{
				"type": "occ",
				"energy": -0.2992,
				"method": "rhf"
			},
			{
				"type": "occ",
				"energy": -0.29591,
				"method": "rhf"
			},
			{
				"type": "unocc",
				"energy": -0.12227,
				"method": "rhf"
			},
			{
				"type": "unocc",
				"energy": -0.10968,
				"method": "rhf"
			},
			{
				"type": "unocc",
				"energy": -0.06451,
				"method": "rhf"
			},
			{
				"type": "unocc",
				"energy": -0.03885,
				"method": "rhf"
			},
			{
				"type": "unocc",
				"energy": -0.02933,
				"method": "rhf"
			}
		],
		"cosmo_sigma_profile": { 
			"-0.025": 0.0,
			"-0.024": 0.0,
			"-0.023": 0.0,
			"-0.022": 0.0,
			"-0.021": 0.0,
			"-0.02": 0.0,
			"-0.019": 0.0,
			"-0.018": 0.0,
			"-0.017": 0.0,
			"-0.016": 0.0,
			"-0.015": 0.0,
			"-0.014": 0.0,
			"-0.013": 0.0,
			"-0.012": 0.0,
			"-0.011": 0.444054514886,
			"-0.01": 3.4079656251,
			"-0.009": 4.50763504248,
			"-0.008": 4.51695362556,
			"-0.007": 11.464463898,
			"-0.006": 16.4852680101,
			"-0.005": 22.6353569584,
			"-0.004": 21.2936793924,
			"-0.003": 17.145259959,
			"-0.002": 14.4385695027,
			"-0.001": 15.1618601677,
			"0.0": 17.0547301847,
			"0.001": 19.0477115856,
			"0.002": 14.4819639486,
			"0.003": 10.5753145051,
			"0.004": 9.2148272676,
			"0.005": 11.4147399973,
			"0.006": 22.2073976883,
			"0.007": 16.2122218184,
			"0.008": 8.51981624643,
			"0.009": 4.29233147189,
			"0.01": 4.70456612611,
			"0.011": 1.45170779733,
			"0.012": 0.000522680372239,
			"0.013": 0.0,
			"0.014": 0.0,
			"0.015": 0.0,
			"0.016": 0.0,
			"0.017": 0.0,
			"0.018": 0.0,
			"0.019": 0.0,
			"0.02": 0.0,
			"0.021": 0.0,
			"0.022": 0.0,
			"0.023": 0.0,
			"0.024": 0.0,
			"0.025": 0.0
		}
	}
}
