{
	 "smiles": "NC1=CN=C(Br)C=C1", 
	 "Tm": 350.15, 
	 "num_atms": 13, 
	 "gaussian": { 
		 "optdone": 1, 
		 "sigma_profile": "yes", 
		 "theory": "DFT", 
		 "functional": "B3LYP", 
		 "basiset": "6-31G**", 
		 "properties": { 
			 "R2extent": 5343.2287, 
			 "electric_dipole_moment_norm": 5.00301049469, 
			 "electric_quadrupole_moment_norm": 17.1447168886, 
			 "total_energy": -2874.44747192, 
			 "HOMO_LUMO_gap": 0.18644, 
			 "cosmo_polarized_energy": -12.22, 
			 "cosmo_cavitation_energy": 19.58, 
			 "cosmo_dispersion_energy": -15.28, 
			 "cosmo_repulsion_energy": 1.28, 
			 "cosmo_total_nonelectrostatic_energy": 5.58, 
			 "SMD_solvation_energy": 0.88 
		},
		"coords": [
			{
				"x": 0.5765016579,
				"y": 0.2229891872,
				"z": 1.0647902709,
				"element": "N" 
			},
			{
				"x": -0.5903443726,
				"y": 0.9548934899,
				"z": 0.878415388,
				"element": "C" 
			},
			{
				"x": -1.8559265352,
				"y": 0.3562338699,
				"z": 1.0074884279,
				"element": "C" 
			},
			{
				"x": -3.0054946343,
				"y": 0.9995270542,
				"z": 0.7865480324,
				"element": "N" 
			},
			{
				"x": -2.9491856284,
				"y": 2.2664321081,
				"z": 0.4286237369,
				"element": "C" 
			},
			{
				"x": -4.6195001578,
				"y": 3.1732583274,
				"z": 0.1206345705,
				"element": "Br" 
			},
			{
				"x": -1.7590356939,
				"y": 2.9794589124,
				"z": 0.2665560345,
				"element": "C" 
			},
			{
				"x": -0.5652713316,
				"y": 2.307644281,
				"z": 0.4959868314,
				"element": "C" 
			},
			{
				"x": 1.3971223957,
				"y": 0.7568998699,
				"z": 1.3140940401,
				"element": "H" 
			},
			{
				"x": 0.4819579037,
				"y": -0.6170280752,
				"z": 1.6184989686,
				"element": "H" 
			},
			{
				"x": -1.937137304,
				"y": -0.6900017425,
				"z": 1.3004035047,
				"element": "H" 
			},
			{
				"x": -1.7712873867,
				"y": 4.0220897918,
				"z": -0.0272140915,
				"element": "H" 
			},
			{
				"x": 0.3836010872,
				"y": 2.824402926,
				"z": 0.3762742855,
				"element": "H" 
			}
		],
		 "valence_orbital": [ 
			{
				"type": "occ",
				"energy": -0.29285,
				"method": "rhf"
			},
			{
				"type": "occ",
				"energy": -0.28025,
				"method": "rhf"
			},
			{
				"type": "occ",
				"energy": -0.27722,
				"method": "rhf"
			},
			{
				"type": "occ",
				"energy": -0.26492,
				"method": "rhf"
			},
			{
				"type": "occ",
				"energy": -0.21678,
				"method": "rhf"
			},
			{
				"type": "unocc",
				"energy": -0.03034,
				"method": "rhf"
			},
			{
				"type": "unocc",
				"energy": -0.00503,
				"method": "rhf"
			},
			{
				"type": "unocc",
				"energy": 0.01803,
				"method": "rhf"
			},
			{
				"type": "unocc",
				"energy": 0.06789,
				"method": "rhf"
			},
			{
				"type": "unocc",
				"energy": 0.10546,
				"method": "rhf"
			}
		],
		"cosmo_sigma_profile": { 
			"-0.025": 0.0,
			"-0.024": 0.0,
			"-0.023": 0.0,
			"-0.022": 0.0,
			"-0.021": 0.0,
			"-0.02": 0.0,
			"-0.019": 0.0,
			"-0.018": 0.0,
			"-0.017": 0.0,
			"-0.016": 0.0,
			"-0.015": 0.0,
			"-0.014": 0.207394059454,
			"-0.013": 2.79720377437,
			"-0.012": 2.94838217542,
			"-0.011": 3.242085466,
			"-0.01": 3.57589143369,
			"-0.009": 3.32364813851,
			"-0.008": 4.33217238775,
			"-0.007": 6.6965029136,
			"-0.006": 6.96101310849,
			"-0.005": 5.80875343064,
			"-0.004": 5.36238337706,
			"-0.003": 6.36334612823,
			"-0.002": 5.89177718183,
			"-0.001": 6.33678157158,
			"0.0": 8.24058712485,
			"0.001": 13.3148954803,
			"0.002": 17.4466017146,
			"0.003": 12.7140040787,
			"0.004": 9.97899579564,
			"0.005": 12.4438363725,
			"0.006": 5.64818449372,
			"0.007": 3.49964568872,
			"0.008": 2.43584772544,
			"0.009": 2.43388215879,
			"0.01": 1.72807033346,
			"0.011": 1.76662211674,
			"0.012": 1.82002401435,
			"0.013": 1.22277002651,
			"0.014": 1.08794284515,
			"0.015": 0.358938696954,
			"0.016": 0.0,
			"0.017": 0.0,
			"0.018": 0.0,
			"0.019": 0.0,
			"0.02": 0.0,
			"0.021": 0.0,
			"0.022": 0.0,
			"0.023": 0.0,
			"0.024": 0.0,
			"0.025": 0.0
		}
	}
}
