{
	 "smiles": "CCCC(C1=CC=CC=C1)C1=CC=CC=C1", 
	 "Tm": 300.15, 
	 "num_atms": 34, 
	 "gaussian": { 
		 "optdone": 1, 
		 "sigma_profile": "yes", 
		 "theory": "DFT", 
		 "functional": "B3LYP", 
		 "basiset": "6-31G**", 
		 "properties": { 
			 "R2extent": 3954.6299, 
			 "electric_dipole_moment_norm": 0.163266071184, 
			 "electric_quadrupole_moment_norm": 4.68399840521, 
			 "total_energy": -620.560572689, 
			 "HOMO_LUMO_gap": 0.22415, 
			 "cosmo_polarized_energy": -5.03, 
			 "cosmo_cavitation_energy": 35.0, 
			 "cosmo_dispersion_energy": -24.2, 
			 "cosmo_repulsion_energy": 1.9, 
			 "cosmo_total_nonelectrostatic_energy": 12.7, 
			 "SMD_solvation_energy": 5.61 
		},
		"coords": [
			{
				"x": 0.3918922482,
				"y": -2.031963515,
				"z": 2.3861572096,
				"element": "C" 
			},
			{
				"x": 1.4065109481,
				"y": -1.0948716927,
				"z": 1.7178076021,
				"element": "C" 
			},
			{
				"x": 1.1221985768,
				"y": 0.4100541349,
				"z": 1.9487219008,
				"element": "C" 
			},
			{
				"x": 0.3803784518,
				"y": 1.1762078023,
				"z": 0.8175145958,
				"element": "C" 
			},
			{
				"x": -0.9576385541,
				"y": 0.5210126906,
				"z": 0.4720171646,
				"element": "C" 
			},
			{
				"x": -2.0915507231,
				"y": 0.8201806791,
				"z": 1.2412962486,
				"element": "C" 
			},
			{
				"x": -3.3166223915,
				"y": 0.2000839835,
				"z": 0.993788929,
				"element": "C" 
			},
			{
				"x": -3.4314450241,
				"y": -0.735018269,
				"z": -0.036676756,
				"element": "C" 
			},
			{
				"x": -2.3136614813,
				"y": -1.0360482042,
				"z": -0.8165955006,
				"element": "C" 
			},
			{
				"x": -1.090315516,
				"y": -0.4112534841,
				"z": -0.5668025773,
				"element": "C" 
			},
			{
				"x": 1.2309712741,
				"y": 1.4868441244,
				"z": -0.4179474537,
				"element": "C" 
			},
			{
				"x": 2.5541800368,
				"y": 1.0576270357,
				"z": -0.5784971016,
				"element": "C" 
			},
			{
				"x": 3.2956831071,
				"y": 1.4120724019,
				"z": -1.7106452701,
				"element": "C" 
			},
			{
				"x": 2.7292725413,
				"y": 2.2070028851,
				"z": -2.7042830667,
				"element": "C" 
			},
			{
				"x": 1.410851567,
				"y": 2.6473815754,
				"z": -2.5571933361,
				"element": "C" 
			},
			{
				"x": 0.6756988149,
				"y": 2.2893668415,
				"z": -1.4300485908,
				"element": "C" 
			},
			{
				"x": -0.6209430954,
				"y": -1.8617324568,
				"z": 2.0113718112,
				"element": "H" 
			},
			{
				"x": 0.6459213369,
				"y": -3.0816321148,
				"z": 2.2025508,
				"element": "H" 
			},
			{
				"x": 0.3766311465,
				"y": -1.8796713575,
				"z": 3.4717232272,
				"element": "H" 
			},
			{
				"x": 1.4464944434,
				"y": -1.3126746619,
				"z": 0.6446692562,
				"element": "H" 
			},
			{
				"x": 2.4056895579,
				"y": -1.3298595144,
				"z": 2.106044721,
				"element": "H" 
			},
			{
				"x": 2.05842115,
				"y": 0.9446057976,
				"z": 2.1476009725,
				"element": "H" 
			},
			{
				"x": 0.5234326632,
				"y": 0.5169704667,
				"z": 2.8612915403,
				"element": "H" 
			},
			{
				"x": 0.1321265346,
				"y": 2.1548444876,
				"z": 1.2530238236,
				"element": "H" 
			},
			{
				"x": -2.0117622158,
				"y": 1.549018752,
				"z": 2.0450895245,
				"element": "H" 
			},
			{
				"x": -4.1815563547,
				"y": 0.4514180054,
				"z": 1.6015762493,
				"element": "H" 
			},
			{
				"x": -4.3840688225,
				"y": -1.21802775,
				"z": -0.2345560437,
				"element": "H" 
			},
			{
				"x": -2.3932435922,
				"y": -1.7562584271,
				"z": -1.6263464096,
				"element": "H" 
			},
			{
				"x": -0.2331695877,
				"y": -0.6402031842,
				"z": -1.1924820682,
				"element": "H" 
			},
			{
				"x": 3.0255737681,
				"y": 0.4429589369,
				"z": 0.1801557315,
				"element": "H" 
			},
			{
				"x": 4.3199790497,
				"y": 1.0630093885,
				"z": -1.8093473256,
				"element": "H" 
			},
			{
				"x": 3.3056359224,
				"y": 2.4831809242,
				"z": -3.5826177605,
				"element": "H" 
			},
			{
				"x": 0.9559149839,
				"y": 3.2719681793,
				"z": -3.3211698266,
				"element": "H" 
			},
			{
				"x": -0.3502807642,
				"y": 2.6337055388,
				"z": -1.3282922206,
				"element": "H" 
			}
		],
		 "valence_orbital": [ 
			{
				"type": "occ",
				"energy": -0.31049,
				"method": "rhf"
			},
			{
				"type": "occ",
				"energy": -0.24919,
				"method": "rhf"
			},
			{
				"type": "occ",
				"energy": -0.2446,
				"method": "rhf"
			},
			{
				"type": "occ",
				"energy": -0.24376,
				"method": "rhf"
			},
			{
				"type": "occ",
				"energy": -0.22908,
				"method": "rhf"
			},
			{
				"type": "unocc",
				"energy": -0.00493,
				"method": "rhf"
			},
			{
				"type": "unocc",
				"energy": -0.00075,
				"method": "rhf"
			},
			{
				"type": "unocc",
				"energy": 0.00507,
				"method": "rhf"
			},
			{
				"type": "unocc",
				"energy": 0.00988,
				"method": "rhf"
			},
			{
				"type": "unocc",
				"energy": 0.08884,
				"method": "rhf"
			}
		],
		"cosmo_sigma_profile": { 
			"-0.025": 0.0,
			"-0.024": 0.0,
			"-0.023": 0.0,
			"-0.022": 0.0,
			"-0.021": 0.0,
			"-0.02": 0.0,
			"-0.019": 0.0,
			"-0.018": 0.0,
			"-0.017": 0.0,
			"-0.016": 0.0,
			"-0.015": 0.0,
			"-0.014": 0.0,
			"-0.013": 0.0,
			"-0.012": 0.0,
			"-0.011": 0.0,
			"-0.01": 0.0,
			"-0.009": 0.0,
			"-0.008": 0.0,
			"-0.007": 0.0,
			"-0.006": 2.30103293893,
			"-0.005": 15.9782303607,
			"-0.004": 23.142023777,
			"-0.003": 30.0047272254,
			"-0.002": 32.4911830269,
			"-0.001": 29.131371748,
			"0.0": 27.9905573749,
			"0.001": 25.5242772825,
			"0.002": 22.9517397949,
			"0.003": 17.5268292251,
			"0.004": 18.6556147027,
			"0.005": 15.127217184,
			"0.006": 11.5802629198,
			"0.007": 3.74418769515,
			"0.008": 0.0,
			"0.009": 0.0,
			"0.01": 0.0,
			"0.011": 0.0,
			"0.012": 0.0,
			"0.013": 0.0,
			"0.014": 0.0,
			"0.015": 0.0,
			"0.016": 0.0,
			"0.017": 0.0,
			"0.018": 0.0,
			"0.019": 0.0,
			"0.02": 0.0,
			"0.021": 0.0,
			"0.022": 0.0,
			"0.023": 0.0,
			"0.024": 0.0,
			"0.025": 0.0
		}
	}
}
