{
	 "smiles": "CC(=O)NC1C(OC(C)=O)OC(COC(C)=O)C(OC(C)=O)C1OC(C)=O", 
	 "Tm": 461.15, 
	 "num_atms": 50, 
	 "gaussian": { 
		 "optdone": 1, 
		 "sigma_profile": "yes", 
		 "theory": "DFT", 
		 "functional": "B3LYP", 
		 "basiset": "6-31G**", 
		 "properties": { 
			 "R2extent": 9830.3292, 
			 "electric_dipole_moment_norm": 3.30610912101, 
			 "electric_quadrupole_moment_norm": 32.110262162, 
			 "total_energy": -1430.60763152, 
			 "HOMO_LUMO_gap": 0.23617, 
			 "cosmo_polarized_energy": -25.56, 
			 "cosmo_cavitation_energy": 52.55, 
			 "cosmo_dispersion_energy": -32.5, 
			 "cosmo_repulsion_energy": 2.53, 
			 "cosmo_total_nonelectrostatic_energy": 22.59, 
			 "SMD_solvation_energy": 13.37 
		},
		"coords": [
			{
				"x": -1.8453732051,
				"y": 4.1079987102,
				"z": -1.4594787741,
				"element": "C" 
			},
			{
				"x": -2.4142841438,
				"y": 3.4705481618,
				"z": -0.2043403895,
				"element": "C" 
			},
			{
				"x": -3.2431475407,
				"y": 4.0480772972,
				"z": 0.4846093942,
				"element": "O" 
			},
			{
				"x": -2.0428042075,
				"y": 2.1776631106,
				"z": 0.1226861954,
				"element": "N" 
			},
			{
				"x": -0.9330943302,
				"y": 1.3417417922,
				"z": -0.299922463,
				"element": "C" 
			},
			{
				"x": -0.9624333665,
				"y": 0.9613025761,
				"z": -1.788986205,
				"element": "C" 
			},
			{
				"x": -1.9435775336,
				"y": -0.0777784102,
				"z": -1.9584719696,
				"element": "O" 
			},
			{
				"x": -2.9550421955,
				"y": 0.1537387167,
				"z": -2.8447678877,
				"element": "C" 
			},
			{
				"x": -3.8569696341,
				"y": -1.0508234067,
				"z": -2.9367668918,
				"element": "C" 
			},
			{
				"x": -3.1005227629,
				"y": 1.1882488474,
				"z": -3.4560253354,
				"element": "O" 
			},
			{
				"x": 0.2855867325,
				"y": 0.5329258811,
				"z": -2.2641347316,
				"element": "O" 
			},
			{
				"x": 1.2120709478,
				"y": -0.1074643782,
				"z": -1.3742334843,
				"element": "C" 
			},
			{
				"x": 0.8798169501,
				"y": -1.5697628407,
				"z": -1.0695195782,
				"element": "C" 
			},
			{
				"x": -0.1124173915,
				"y": -1.6732459564,
				"z": -0.0360175134,
				"element": "O" 
			},
			{
				"x": 0.0755330149,
				"y": -2.6329150543,
				"z": 0.9207143262,
				"element": "C" 
			},
			{
				"x": -0.9935302979,
				"y": -2.5349992863,
				"z": 1.9767491851,
				"element": "C" 
			},
			{
				"x": 0.991605423,
				"y": -3.4215993571,
				"z": 0.8991342298,
				"element": "O" 
			},
			{
				"x": 1.4969318499,
				"y": 0.7429906503,
				"z": -0.1091981527,
				"element": "C" 
			},
			{
				"x": 2.8262485334,
				"y": 1.2966591685,
				"z": -0.2491786862,
				"element": "O" 
			},
			{
				"x": 3.582065241,
				"y": 1.4180932616,
				"z": 0.8761743582,
				"element": "C" 
			},
			{
				"x": 4.9289256289,
				"y": 2.0094407186,
				"z": 0.5426815203,
				"element": "C" 
			},
			{
				"x": 3.2110930023,
				"y": 1.0904586882,
				"z": 1.9814024437,
				"element": "O" 
			},
			{
				"x": 0.4820786697,
				"y": 1.8864691218,
				"z": 0.0136718706,
				"element": "C" 
			},
			{
				"x": 0.603399488,
				"y": 2.5752580032,
				"z": 1.270478978,
				"element": "O" 
			},
			{
				"x": 0.2514918797,
				"y": 1.9547062716,
				"z": 2.4257053374,
				"element": "C" 
			},
			{
				"x": 0.6557415835,
				"y": 2.7828950729,
				"z": 3.6150909928,
				"element": "C" 
			},
			{
				"x": -0.2969460137,
				"y": 0.8725502259,
				"z": 2.475733135,
				"element": "O" 
			},
			{
				"x": -2.0611375697,
				"y": 5.1753199482,
				"z": -1.4130094696,
				"element": "H" 
			},
			{
				"x": -2.3440887884,
				"y": 3.6869592475,
				"z": -2.3394081893,
				"element": "H" 
			},
			{
				"x": -0.7683858852,
				"y": 3.9628354987,
				"z": -1.5759302515,
				"element": "H" 
			},
			{
				"x": -2.4813902974,
				"y": 1.8865094165,
				"z": 0.9870835852,
				"element": "H" 
			},
			{
				"x": -1.0511519685,
				"y": 0.4146623976,
				"z": 0.2565809449,
				"element": "H" 
			},
			{
				"x": -1.248879564,
				"y": 1.7883876665,
				"z": -2.4339686135,
				"element": "H" 
			},
			{
				"x": -4.2858566999,
				"y": -1.2687273193,
				"z": -1.9542088081,
				"element": "H" 
			},
			{
				"x": -4.6522628483,
				"y": -0.8550679109,
				"z": -3.6549477663,
				"element": "H" 
			},
			{
				"x": -3.2798072661,
				"y": -1.9281931811,
				"z": -3.2427084268,
				"element": "H" 
			},
			{
				"x": 2.1356668516,
				"y": -0.1233081193,
				"z": -1.9599246363,
				"element": "H" 
			},
			{
				"x": 1.7812549264,
				"y": -2.0955875048,
				"z": -0.7437848529,
				"element": "H" 
			},
			{
				"x": 0.4964849431,
				"y": -2.0475553829,
				"z": -1.9758337885,
				"element": "H" 
			},
			{
				"x": -1.9847873838,
				"y": -2.5555142428,
				"z": 1.5151455314,
				"element": "H" 
			},
			{
				"x": -0.8922530715,
				"y": -1.5797346631,
				"z": 2.5016677263,
				"element": "H" 
			},
			{
				"x": -0.8868933231,
				"y": -3.362622046,
				"z": 2.6771540116,
				"element": "H" 
			},
			{
				"x": 1.4694024103,
				"y": 0.1323973132,
				"z": 0.7934160327,
				"element": "H" 
			},
			{
				"x": 5.4231192047,
				"y": 1.414388328,
				"z": -0.230289272,
				"element": "H" 
			},
			{
				"x": 5.5426991127,
				"y": 2.0419859779,
				"z": 1.4420325281,
				"element": "H" 
			},
			{
				"x": 4.8003419182,
				"y": 3.0203500844,
				"z": 0.1439650224,
				"element": "H" 
			},
			{
				"x": 0.7611698477,
				"y": 2.6544174911,
				"z": -0.7123275605,
				"element": "H" 
			},
			{
				"x": 0.1260399038,
				"y": 2.4320922657,
				"z": 4.5004276765,
				"element": "H" 
			},
			{
				"x": 1.7330974527,
				"y": 2.653421521,
				"z": 3.7619227339,
				"element": "H" 
			},
			{
				"x": 0.4589717727,
				"y": 3.842805628,
				"z": 3.440755938,
				"element": "H" 
			}
		],
		 "valence_orbital": [ 
			{
				"type": "occ",
				"energy": -0.28339,
				"method": "rhf"
			},
			{
				"type": "occ",
				"energy": -0.28042,
				"method": "rhf"
			},
			{
				"type": "occ",
				"energy": -0.27809,
				"method": "rhf"
			},
			{
				"type": "occ",
				"energy": -0.25482,
				"method": "rhf"
			},
			{
				"type": "occ",
				"energy": -0.24525,
				"method": "rhf"
			},
			{
				"type": "unocc",
				"energy": -0.00908,
				"method": "rhf"
			},
			{
				"type": "unocc",
				"energy": -0.00209,
				"method": "rhf"
			},
			{
				"type": "unocc",
				"energy": 0.00073,
				"method": "rhf"
			},
			{
				"type": "unocc",
				"energy": 0.00564,
				"method": "rhf"
			},
			{
				"type": "unocc",
				"energy": 0.0236,
				"method": "rhf"
			}
		],
		"cosmo_sigma_profile": { 
			"-0.025": 0.0,
			"-0.024": 0.0,
			"-0.023": 0.0,
			"-0.022": 0.0,
			"-0.021": 0.0,
			"-0.02": 0.0,
			"-0.019": 0.0,
			"-0.018": 0.0,
			"-0.017": 0.0,
			"-0.016": 0.0,
			"-0.015": 0.0,
			"-0.014": 0.0,
			"-0.013": 0.0867444408642,
			"-0.012": 0.642063135991,
			"-0.011": 0.721504161497,
			"-0.01": 1.40451956712,
			"-0.009": 3.70956851227,
			"-0.008": 6.36121346463,
			"-0.007": 13.922684999,
			"-0.006": 28.1894752091,
			"-0.005": 29.9754768092,
			"-0.004": 35.8312530227,
			"-0.003": 39.8950344465,
			"-0.002": 47.9204417746,
			"-0.001": 31.5704967462,
			"0.0": 23.597943586,
			"0.001": 18.1079241348,
			"0.002": 18.3580147975,
			"0.003": 15.4098778926,
			"0.004": 12.3890046455,
			"0.005": 12.2382240115,
			"0.006": 7.98711701116,
			"0.007": 8.19001598486,
			"0.008": 10.1667196541,
			"0.009": 9.51307004465,
			"0.01": 8.5134510043,
			"0.011": 11.1924305018,
			"0.012": 7.64090576064,
			"0.013": 5.59797650329,
			"0.014": 4.30465397238,
			"0.015": 0.480502098447,
			"0.016": 0.0,
			"0.017": 0.0,
			"0.018": 0.0,
			"0.019": 0.0,
			"0.02": 0.0,
			"0.021": 0.0,
			"0.022": 0.0,
			"0.023": 0.0,
			"0.024": 0.0,
			"0.025": 0.0
		}
	}
}
