{
	 "smiles": "CCOC(=O)C1=C(C)N2N=C(C)C=C2N=C1", 
	 "Tm": 373.15, 
	 "num_atms": 29, 
	 "gaussian": { 
		 "optdone": 1, 
		 "sigma_profile": "yes", 
		 "theory": "DFT", 
		 "functional": "B3LYP", 
		 "basiset": "6-31G**", 
		 "properties": { 
			 "R2extent": 4812.7906, 
			 "electric_dipole_moment_norm": 3.27056435803, 
			 "electric_quadrupole_moment_norm": 11.169203066, 
			 "total_energy": -741.713129564, 
			 "HOMO_LUMO_gap": 0.16668, 
			 "cosmo_polarized_energy": -10.44, 
			 "cosmo_cavitation_energy": 32.92, 
			 "cosmo_dispersion_energy": -23.89, 
			 "cosmo_repulsion_energy": 1.87, 
			 "cosmo_total_nonelectrostatic_energy": 10.9, 
			 "SMD_solvation_energy": 4.6 
		},
		"coords": [
			{
				"x": -0.3202203717,
				"y": 3.7938477743,
				"z": -2.3907170945,
				"element": "C" 
			},
			{
				"x": -0.3747789103,
				"y": 2.3024703363,
				"z": -2.6608432103,
				"element": "C" 
			},
			{
				"x": -0.2823931637,
				"y": 1.6234165195,
				"z": -1.3841028767,
				"element": "O" 
			},
			{
				"x": -0.3080291416,
				"y": 0.2728375594,
				"z": -1.4414661997,
				"element": "C" 
			},
			{
				"x": -0.3895863357,
				"y": -0.334963957,
				"z": -2.4928947298,
				"element": "O" 
			},
			{
				"x": -0.1876684201,
				"y": -0.409543376,
				"z": -0.1234268393,
				"element": "C" 
			},
			{
				"x": -0.3004094513,
				"y": 0.18011371,
				"z": 1.1326481415,
				"element": "C" 
			},
			{
				"x": -0.6013503453,
				"y": 1.6021241807,
				"z": 1.4918559272,
				"element": "C" 
			},
			{
				"x": -0.1248232308,
				"y": -0.6655077735,
				"z": 2.1916630656,
				"element": "N" 
			},
			{
				"x": -0.1864616357,
				"y": -0.2895966084,
				"z": 3.4950709889,
				"element": "N" 
			},
			{
				"x": 0.0387718255,
				"y": -1.4211244293,
				"z": 4.1814860021,
				"element": "C" 
			},
			{
				"x": 0.0459979047,
				"y": -1.3837016927,
				"z": 5.6781670083,
				"element": "C" 
			},
			{
				"x": 0.2470919951,
				"y": -2.5341428913,
				"z": 3.3405106893,
				"element": "C" 
			},
			{
				"x": 0.1400032949,
				"y": -2.0430559996,
				"z": 2.0485889156,
				"element": "C" 
			},
			{
				"x": 0.2342558533,
				"y": -2.6163105158,
				"z": 0.8287760819,
				"element": "N" 
			},
			{
				"x": 0.0713954403,
				"y": -1.8189289287,
				"z": -0.2000095781,
				"element": "C" 
			},
			{
				"x": -1.1590225995,
				"y": 4.1133765631,
				"z": -1.7652442197,
				"element": "H" 
			},
			{
				"x": 0.6112795484,
				"y": 4.0677229404,
				"z": -1.8871334728,
				"element": "H" 
			},
			{
				"x": -0.3724794626,
				"y": 4.3412791557,
				"z": -3.3368938511,
				"element": "H" 
			},
			{
				"x": -1.3059813932,
				"y": 2.0045930824,
				"z": -3.152149814,
				"element": "H" 
			},
			{
				"x": 0.4521090155,
				"y": 1.9677294204,
				"z": -3.2941520206,
				"element": "H" 
			},
			{
				"x": -0.9816060741,
				"y": 2.1533953007,
				"z": 0.6388522091,
				"element": "H" 
			},
			{
				"x": -1.3102834766,
				"y": 1.6192324637,
				"z": 2.3227706244,
				"element": "H" 
			},
			{
				"x": 0.3106304689,
				"y": 2.091593814,
				"z": 1.8533024439,
				"element": "H" 
			},
			{
				"x": -0.1531278905,
				"y": -0.3688718432,
				"z": 6.0282955907,
				"element": "H" 
			},
			{
				"x": -0.7161334243,
				"y": -2.0526640239,
				"z": 6.0922093793,
				"element": "H" 
			},
			{
				"x": 1.0141628022,
				"y": -1.7070740162,
				"z": 6.0755843183,
				"element": "H" 
			},
			{
				"x": 0.4470017658,
				"y": -3.5569439692,
				"z": 3.6194208826,
				"element": "H" 
			},
			{
				"x": 0.1401554125,
				"y": -2.2577027958,
				"z": -1.1912683622,
				"element": "H" 
			}
		],
		 "valence_orbital": [ 
			{
				"type": "occ",
				"energy": -0.30637,
				"method": "rhf"
			},
			{
				"type": "occ",
				"energy": -0.28354,
				"method": "rhf"
			},
			{
				"type": "occ",
				"energy": -0.26172,
				"method": "rhf"
			},
			{
				"type": "occ",
				"energy": -0.25376,
				"method": "rhf"
			},
			{
				"type": "occ",
				"energy": -0.22359,
				"method": "rhf"
			},
			{
				"type": "unocc",
				"energy": -0.05691,
				"method": "rhf"
			},
			{
				"type": "unocc",
				"energy": -0.0334,
				"method": "rhf"
			},
			{
				"type": "unocc",
				"energy": 0.03787,
				"method": "rhf"
			},
			{
				"type": "unocc",
				"energy": 0.06936,
				"method": "rhf"
			},
			{
				"type": "unocc",
				"energy": 0.08884,
				"method": "rhf"
			}
		],
		"cosmo_sigma_profile": { 
			"-0.025": 0.0,
			"-0.024": 0.0,
			"-0.023": 0.0,
			"-0.022": 0.0,
			"-0.021": 0.0,
			"-0.02": 0.0,
			"-0.019": 0.0,
			"-0.018": 0.0,
			"-0.017": 0.0,
			"-0.016": 0.0,
			"-0.015": 0.0,
			"-0.014": 0.0,
			"-0.013": 0.0,
			"-0.012": 0.0,
			"-0.011": 0.0,
			"-0.01": 0.0,
			"-0.009": 0.0,
			"-0.008": 0.260188864644,
			"-0.007": 2.23351869265,
			"-0.006": 5.56406756523,
			"-0.005": 15.8223585741,
			"-0.004": 28.6997759682,
			"-0.003": 35.3100067976,
			"-0.002": 35.0090635776,
			"-0.001": 31.8439675698,
			"0.0": 22.8672096736,
			"0.001": 13.1255992391,
			"0.002": 11.0680630684,
			"0.003": 11.4888106362,
			"0.004": 9.214287945,
			"0.005": 5.82951096787,
			"0.006": 5.45033090048,
			"0.007": 3.24918609783,
			"0.008": 3.53568213958,
			"0.009": 4.80419026297,
			"0.01": 3.46394450939,
			"0.011": 4.90565898131,
			"0.012": 5.21496259275,
			"0.013": 1.44292156149,
			"0.014": 0.908354188978,
			"0.015": 0.595794907842,
			"0.016": 0.0132444822924,
			"0.017": 0.0,
			"0.018": 0.0,
			"0.019": 0.0,
			"0.02": 0.0,
			"0.021": 0.0,
			"0.022": 0.0,
			"0.023": 0.0,
			"0.024": 0.0,
			"0.025": 0.0
		}
	}
}
