{
	 "smiles": "[O-][N+](=O)C1=CC(=CNC1=O)C(F)(F)F", 
	 "Tm": 463.15, 
	 "num_atms": 17, 
	 "gaussian": { 
		 "optdone": 1, 
		 "sigma_profile": "yes", 
		 "theory": "DFT", 
		 "functional": "B3LYP", 
		 "basiset": "6-31G**", 
		 "properties": { 
			 "R2extent": 3078.5663, 
			 "electric_dipole_moment_norm": 6.0707697815, 
			 "electric_quadrupole_moment_norm": 14.1901462487, 
			 "total_energy": -865.035931496, 
			 "HOMO_LUMO_gap": 0.15787, 
			 "cosmo_polarized_energy": -20.77, 
			 "cosmo_cavitation_energy": 24.67, 
			 "cosmo_dispersion_energy": -17.59, 
			 "cosmo_repulsion_energy": 1.33, 
			 "cosmo_total_nonelectrostatic_energy": 8.41, 
			 "SMD_solvation_energy": 8.71 
		},
		"coords": [
			{
				"x": 1.9036291194,
				"y": -0.3192271086,
				"z": 2.439657685,
				"element": "O" 
			},
			{
				"x": 1.7683273871,
				"y": 0.5785545761,
				"z": 1.6032237286,
				"element": "N" 
			},
			{
				"x": 2.3367013448,
				"y": 1.662527642,
				"z": 1.6310469484,
				"element": "O" 
			},
			{
				"x": 0.8696755635,
				"y": 0.303335092,
				"z": 0.4760180945,
				"element": "C" 
			},
			{
				"x": 0.5268628264,
				"y": -0.9998299736,
				"z": 0.243197628,
				"element": "C" 
			},
			{
				"x": -0.3066920553,
				"y": -1.3590742006,
				"z": -0.845930753,
				"element": "C" 
			},
			{
				"x": -0.7747589979,
				"y": -0.3606753655,
				"z": -1.6596688535,
				"element": "C" 
			},
			{
				"x": -0.4452881477,
				"y": 0.9240347949,
				"z": -1.4122973034,
				"element": "N" 
			},
			{
				"x": 0.3782761535,
				"y": 1.4096730084,
				"z": -0.3516011652,
				"element": "C" 
			},
			{
				"x": 0.5512553702,
				"y": 2.607017667,
				"z": -0.2446252552,
				"element": "O" 
			},
			{
				"x": -0.6524372535,
				"y": -2.7961898801,
				"z": -1.0928262175,
				"element": "C" 
			},
			{
				"x": -1.4635989947,
				"y": -2.9314171564,
				"z": -2.1651152111,
				"element": "F" 
			},
			{
				"x": -1.2795877405,
				"y": -3.3422476503,
				"z": -0.029992061,
				"element": "F" 
			},
			{
				"x": 0.4522978069,
				"y": -3.5388760584,
				"z": -1.3165877958,
				"element": "F" 
			},
			{
				"x": 0.913566817,
				"y": -1.7563351889,
				"z": 0.9177039307,
				"element": "H" 
			},
			{
				"x": -1.4132447158,
				"y": -0.5533952907,
				"z": -2.5135562685,
				"element": "H" 
			},
			{
				"x": -0.7999844835,
				"y": 1.6664250926,
				"z": -2.005047131,
				"element": "H" 
			}
		],
		 "valence_orbital": [ 
			{
				"type": "occ",
				"energy": -0.32067,
				"method": "rhf"
			},
			{
				"type": "occ",
				"energy": -0.31208,
				"method": "rhf"
			},
			{
				"type": "occ",
				"energy": -0.29986,
				"method": "rhf"
			},
			{
				"type": "occ",
				"energy": -0.28071,
				"method": "rhf"
			},
			{
				"type": "occ",
				"energy": -0.26774,
				"method": "rhf"
			},
			{
				"type": "unocc",
				"energy": -0.10987,
				"method": "rhf"
			},
			{
				"type": "unocc",
				"energy": -0.04901,
				"method": "rhf"
			},
			{
				"type": "unocc",
				"energy": -0.03564,
				"method": "rhf"
			},
			{
				"type": "unocc",
				"energy": 0.03741,
				"method": "rhf"
			},
			{
				"type": "unocc",
				"energy": 0.0883,
				"method": "rhf"
			}
		],
		"cosmo_sigma_profile": { 
			"-0.025": 0.0,
			"-0.024": 0.0,
			"-0.023": 0.0,
			"-0.022": 0.0,
			"-0.021": 0.0,
			"-0.02": 0.0,
			"-0.019": 0.0269991243635,
			"-0.018": 1.56519375781,
			"-0.017": 1.47318598421,
			"-0.016": 1.61792003841,
			"-0.015": 1.1550536622,
			"-0.014": 1.90678861007,
			"-0.013": 1.57929623716,
			"-0.012": 1.7763569392,
			"-0.011": 2.18545561274,
			"-0.01": 2.1270775633,
			"-0.009": 2.83718725133,
			"-0.008": 3.37740969337,
			"-0.007": 6.74552137827,
			"-0.006": 9.13548173793,
			"-0.005": 11.7282036211,
			"-0.004": 13.1543334853,
			"-0.003": 11.2503017291,
			"-0.002": 9.0255394716,
			"-0.001": 7.61140030469,
			"0.0": 7.04334870865,
			"0.001": 10.9783179113,
			"0.002": 27.0610186278,
			"0.003": 13.8931466936,
			"0.004": 2.56751716049,
			"0.005": 3.28591598702,
			"0.006": 3.89147098294,
			"0.007": 7.95066445589,
			"0.008": 8.50235569222,
			"0.009": 6.71113123919,
			"0.01": 4.43434895127,
			"0.011": 3.77479821479,
			"0.012": 4.89474333092,
			"0.013": 1.93137029896,
			"0.014": 1.44691537095,
			"0.015": 0.24069442992,
			"0.016": 0.0,
			"0.017": 0.0,
			"0.018": 0.0,
			"0.019": 0.0,
			"0.02": 0.0,
			"0.021": 0.0,
			"0.022": 0.0,
			"0.023": 0.0,
			"0.024": 0.0,
			"0.025": 0.0
		}
	}
}
