{
	 "smiles": "CNC(=O)CC1CCNCC1", 
	 "Tm": 379.15, 
	 "num_atms": 27, 
	 "gaussian": { 
		 "optdone": 1, 
		 "sigma_profile": "yes", 
		 "theory": "DFT", 
		 "functional": "B3LYP", 
		 "basiset": "6-31G**", 
		 "properties": { 
			 "R2extent": 2689.5653, 
			 "electric_dipole_moment_norm": 3.24662309023, 
			 "electric_quadrupole_moment_norm": 14.6078100734, 
			 "total_energy": -499.231487002, 
			 "HOMO_LUMO_gap": 0.24523, 
			 "cosmo_polarized_energy": -13.4, 
			 "cosmo_cavitation_energy": 27.97, 
			 "cosmo_dispersion_energy": -20.34, 
			 "cosmo_repulsion_energy": 1.67, 
			 "cosmo_total_nonelectrostatic_energy": 9.3, 
			 "SMD_solvation_energy": 2.5 
		},
		"coords": [
			{
				"x": 1.7549530259,
				"y": -2.6030027367,
				"z": 0.7025284832,
				"element": "C" 
			},
			{
				"x": 0.420616436,
				"y": -2.0599397033,
				"z": 0.5290565225,
				"element": "N" 
			},
			{
				"x": -0.137692371,
				"y": -1.1763827073,
				"z": 1.4154944142,
				"element": "C" 
			},
			{
				"x": 0.4373134587,
				"y": -0.8049779873,
				"z": 2.4332826216,
				"element": "O" 
			},
			{
				"x": -1.5162701908,
				"y": -0.6572933365,
				"z": 1.0185956383,
				"element": "C" 
			},
			{
				"x": -1.4484401597,
				"y": 0.5762873628,
				"z": 0.0916286632,
				"element": "C" 
			},
			{
				"x": -2.8564059469,
				"y": 1.0842176222,
				"z": -0.259388982,
				"element": "C" 
			},
			{
				"x": -2.8007763803,
				"y": 2.2152923145,
				"z": -1.3133286802,
				"element": "C" 
			},
			{
				"x": -1.493876671,
				"y": 2.8829834104,
				"z": -1.2736072836,
				"element": "N" 
			},
			{
				"x": -1.0277772362,
				"y": 3.0943346082,
				"z": 0.0974511953,
				"element": "C" 
			},
			{
				"x": -0.6213084435,
				"y": 1.7336593578,
				"z": 0.7053982449,
				"element": "C" 
			},
			{
				"x": 1.7376527013,
				"y": -3.6979954168,
				"z": 0.7445303155,
				"element": "H" 
			},
			{
				"x": 2.4249658803,
				"y": -2.2933022966,
				"z": -0.1082677278,
				"element": "H" 
			},
			{
				"x": 2.1380257848,
				"y": -2.215596956,
				"z": 1.647336943,
				"element": "H" 
			},
			{
				"x": -0.1041314822,
				"y": -2.3128734038,
				"z": -0.2940728549,
				"element": "H" 
			},
			{
				"x": -2.0320147304,
				"y": -0.3950002618,
				"z": 1.9474456133,
				"element": "H" 
			},
			{
				"x": -2.0968553447,
				"y": -1.449556353,
				"z": 0.5274060454,
				"element": "H" 
			},
			{
				"x": -0.9621502462,
				"y": 0.2738853933,
				"z": -0.8449598631,
				"element": "H" 
			},
			{
				"x": -3.3331169394,
				"y": 1.4489916837,
				"z": 0.6599025929,
				"element": "H" 
			},
			{
				"x": -3.4876866447,
				"y": 0.2670810452,
				"z": -0.6275508534,
				"element": "H" 
			},
			{
				"x": -3.6441576454,
				"y": 2.907206598,
				"z": -1.1342793826,
				"element": "H" 
			},
			{
				"x": -2.9392690636,
				"y": 1.8000721649,
				"z": -2.3197488639,
				"element": "H" 
			},
			{
				"x": -1.5389218293,
				"y": 3.7629061865,
				"z": -1.7777954624,
				"element": "H" 
			},
			{
				"x": -0.1677788682,
				"y": 3.7713278318,
				"z": 0.0748598227,
				"element": "H" 
			},
			{
				"x": -1.7914122357,
				"y": 3.5792606259,
				"z": 0.7358255376,
				"element": "H" 
			},
			{
				"x": 0.4429797102,
				"y": 1.5460311293,
				"z": 0.5339516549,
				"element": "H" 
			},
			{
				"x": -0.757464568,
				"y": 1.7552838245,
				"z": 1.7926056455,
				"element": "H" 
			}
		],
		 "valence_orbital": [ 
			{
				"type": "occ",
				"energy": -0.31095,
				"method": "rhf"
			},
			{
				"type": "occ",
				"energy": -0.30304,
				"method": "rhf"
			},
			{
				"type": "occ",
				"energy": -0.24436,
				"method": "rhf"
			},
			{
				"type": "occ",
				"energy": -0.2366,
				"method": "rhf"
			},
			{
				"type": "occ",
				"energy": -0.21053,
				"method": "rhf"
			},
			{
				"type": "unocc",
				"energy": 0.0347,
				"method": "rhf"
			},
			{
				"type": "unocc",
				"energy": 0.07213,
				"method": "rhf"
			},
			{
				"type": "unocc",
				"energy": 0.08428,
				"method": "rhf"
			},
			{
				"type": "unocc",
				"energy": 0.11721,
				"method": "rhf"
			},
			{
				"type": "unocc",
				"energy": 0.12123,
				"method": "rhf"
			}
		],
		"cosmo_sigma_profile": { 
			"-0.025": 0.0,
			"-0.024": 0.0,
			"-0.023": 0.0,
			"-0.022": 0.0,
			"-0.021": 0.0,
			"-0.02": 0.0,
			"-0.019": 0.0,
			"-0.018": 0.0,
			"-0.017": 0.0,
			"-0.016": 0.0,
			"-0.015": 0.0,
			"-0.014": 0.396235981625,
			"-0.013": 1.32009736394,
			"-0.012": 1.20722876963,
			"-0.011": 1.00408723919,
			"-0.01": 1.9377360733,
			"-0.009": 2.93665611506,
			"-0.008": 2.64037891375,
			"-0.007": 2.49206890318,
			"-0.006": 3.29433285192,
			"-0.005": 5.5649291362,
			"-0.004": 11.9159667418,
			"-0.003": 21.4514177311,
			"-0.002": 32.0979507617,
			"-0.001": 41.1452942611,
			"0.0": 26.5061606472,
			"0.001": 12.0758880769,
			"0.002": 5.9569020663,
			"0.003": 5.29910667025,
			"0.004": 4.33618597332,
			"0.005": 2.66663417337,
			"0.006": 2.57728498408,
			"0.007": 2.68190890431,
			"0.008": 2.17894868135,
			"0.009": 2.77313925982,
			"0.01": 2.01651710074,
			"0.011": 2.44163819404,
			"0.012": 2.58795160218,
			"0.013": 1.82729034617,
			"0.014": 5.08508612579,
			"0.015": 3.35071055085,
			"0.016": 0.794579068286,
			"0.017": 0.501970650135,
			"0.018": 0.373836867515,
			"0.019": 0.0,
			"0.02": 0.0,
			"0.021": 0.0,
			"0.022": 0.0,
			"0.023": 0.0,
			"0.024": 0.0,
			"0.025": 0.0
		}
	}
}
