{
	 "smiles": "CC1=NC(COC2=CC=C(C=O)C=C2)=NO1", 
	 "Tm": 331.15, 
	 "num_atms": 26, 
	 "gaussian": { 
		 "optdone": 1, 
		 "sigma_profile": "yes", 
		 "theory": "DFT", 
		 "functional": "B3LYP", 
		 "basiset": "6-31G**", 
		 "properties": { 
			 "R2extent": 5037.1932, 
			 "electric_dipole_moment_norm": 3.23672317939, 
			 "electric_quadrupole_moment_norm": 33.4205885123, 
			 "total_energy": -760.316145085, 
			 "HOMO_LUMO_gap": 0.1829, 
			 "cosmo_polarized_energy": -14.04, 
			 "cosmo_cavitation_energy": 31.78, 
			 "cosmo_dispersion_energy": -22.97, 
			 "cosmo_repulsion_energy": 1.8, 
			 "cosmo_total_nonelectrostatic_energy": 10.61, 
			 "SMD_solvation_energy": 5.63 
		},
		"coords": [
			{
				"x": 1.7275642069,
				"y": -1.6856683502,
				"z": 3.3730695006,
				"element": "C" 
			},
			{
				"x": 1.2273630566,
				"y": -2.1241382413,
				"z": 2.0432922712,
				"element": "C" 
			},
			{
				"x": 1.1446742956,
				"y": -1.4417712219,
				"z": 0.9369931284,
				"element": "N" 
			},
			{
				"x": 0.6103349032,
				"y": -2.3617253001,
				"z": 0.0608842242,
				"element": "C" 
			},
			{
				"x": 0.305604688,
				"y": -2.0799554048,
				"z": -1.3821157748,
				"element": "C" 
			},
			{
				"x": -0.9117016063,
				"y": -1.3550620052,
				"z": -1.5655770521,
				"element": "O" 
			},
			{
				"x": -0.9045034546,
				"y": 0.0084087036,
				"z": -1.6450871857,
				"element": "C" 
			},
			{
				"x": 0.1570180288,
				"y": 0.829895558,
				"z": -1.2313113901,
				"element": "C" 
			},
			{
				"x": 0.0435050974,
				"y": 2.2076786266,
				"z": -1.3766144019,
				"element": "C" 
			},
			{
				"x": -1.1136241252,
				"y": 2.7853191174,
				"z": -1.9186962921,
				"element": "C" 
			},
			{
				"x": -1.2235965462,
				"y": 4.2476459188,
				"z": -2.0647897596,
				"element": "C" 
			},
			{
				"x": -0.3603240939,
				"y": 5.047617373,
				"z": -1.74958044,
				"element": "O" 
			},
			{
				"x": -2.1724780717,
				"y": 1.9511570219,
				"z": -2.3116182325,
				"element": "C" 
			},
			{
				"x": -2.0732451486,
				"y": 0.5741033297,
				"z": -2.1802872797,
				"element": "C" 
			},
			{
				"x": 0.3808846685,
				"y": -3.542278164,
				"z": 0.5786112701,
				"element": "N" 
			},
			{
				"x": 0.7920593031,
				"y": -3.3911243138,
				"z": 1.911221211,
				"element": "O" 
			},
			{
				"x": 2.0556005241,
				"y": -0.6483975022,
				"z": 3.3079639878,
				"element": "H" 
			},
			{
				"x": 2.5638177361,
				"y": -2.3129741103,
				"z": 3.6960798077,
				"element": "H" 
			},
			{
				"x": 0.9380270901,
				"y": -1.7690047989,
				"z": 4.1261513358,
				"element": "H" 
			},
			{
				"x": 0.155574059,
				"y": -3.033883167,
				"z": -1.8915015358,
				"element": "H" 
			},
			{
				"x": 1.1460207725,
				"y": -1.554697756,
				"z": -1.8479584355,
				"element": "H" 
			},
			{
				"x": 1.0327737137,
				"y": 0.4049877885,
				"z": -0.7566024472,
				"element": "H" 
			},
			{
				"x": 0.8474954673,
				"y": 2.8651610321,
				"z": -1.0605737503,
				"element": "H" 
			},
			{
				"x": -2.1879639173,
				"y": 4.5952024633,
				"z": -2.5008460283,
				"element": "H" 
			},
			{
				"x": -3.0753365624,
				"y": 2.3905818915,
				"z": -2.7297782943,
				"element": "H" 
			},
			{
				"x": -2.875544085,
				"y": -0.0880784888,
				"z": -2.4876284371,
				"element": "H" 
			}
		],
		 "valence_orbital": [ 
			{
				"type": "occ",
				"energy": -0.31135,
				"method": "rhf"
			},
			{
				"type": "occ",
				"energy": -0.30008,
				"method": "rhf"
			},
			{
				"type": "occ",
				"energy": -0.26386,
				"method": "rhf"
			},
			{
				"type": "occ",
				"energy": -0.24635,
				"method": "rhf"
			},
			{
				"type": "occ",
				"energy": -0.23451,
				"method": "rhf"
			},
			{
				"type": "unocc",
				"energy": -0.05161,
				"method": "rhf"
			},
			{
				"type": "unocc",
				"energy": -0.03992,
				"method": "rhf"
			},
			{
				"type": "unocc",
				"energy": -0.01246,
				"method": "rhf"
			},
			{
				"type": "unocc",
				"energy": 0.01557,
				"method": "rhf"
			},
			{
				"type": "unocc",
				"energy": 0.05097,
				"method": "rhf"
			}
		],
		"cosmo_sigma_profile": { 
			"-0.025": 0.0,
			"-0.024": 0.0,
			"-0.023": 0.0,
			"-0.022": 0.0,
			"-0.021": 0.0,
			"-0.02": 0.0,
			"-0.019": 0.0,
			"-0.018": 0.0,
			"-0.017": 0.0,
			"-0.016": 0.0,
			"-0.015": 0.0,
			"-0.014": 0.0,
			"-0.013": 0.0,
			"-0.012": 0.0,
			"-0.011": 0.0,
			"-0.01": 0.0,
			"-0.009": 0.279995546516,
			"-0.008": 5.45954627082,
			"-0.007": 16.7525453256,
			"-0.006": 20.0004653662,
			"-0.005": 21.0439537264,
			"-0.004": 19.3081440371,
			"-0.003": 19.7214894128,
			"-0.002": 14.454835557,
			"-0.001": 12.5976461106,
			"0.0": 12.1161315132,
			"0.001": 15.0540570785,
			"0.002": 17.6039110641,
			"0.003": 20.6508831056,
			"0.004": 9.74758181842,
			"0.005": 7.49207715647,
			"0.006": 9.29350402449,
			"0.007": 6.85164856984,
			"0.008": 5.23190286431,
			"0.009": 5.51448280471,
			"0.01": 3.61505070167,
			"0.011": 4.91010454485,
			"0.012": 5.12660454653,
			"0.013": 1.99446086567,
			"0.014": 0.191167518678,
			"0.015": 0.0,
			"0.016": 0.0,
			"0.017": 0.0,
			"0.018": 0.0,
			"0.019": 0.0,
			"0.02": 0.0,
			"0.021": 0.0,
			"0.022": 0.0,
			"0.023": 0.0,
			"0.024": 0.0,
			"0.025": 0.0
		}
	}
}
