{
	 "smiles": "ClC1=CC2=C(C=CC=C2Cl)C=C1", 
	 "Tm": 336.65, 
	 "num_atms": 18, 
	 "gaussian": { 
		 "optdone": 1, 
		 "sigma_profile": "yes", 
		 "theory": "DFT", 
		 "functional": "B3LYP", 
		 "basiset": "6-31G**", 
		 "properties": { 
			 "R2extent": 4454.7515, 
			 "electric_dipole_moment_norm": 2.99141337832, 
			 "electric_quadrupole_moment_norm": 5.86506900386, 
			 "total_energy": -1305.07733529, 
			 "HOMO_LUMO_gap": 0.16915, 
			 "cosmo_polarized_energy": -4.88, 
			 "cosmo_cavitation_energy": 25.47, 
			 "cosmo_dispersion_energy": -19.32, 
			 "cosmo_repulsion_energy": 1.51, 
			 "cosmo_total_nonelectrostatic_energy": 7.66, 
			 "SMD_solvation_energy": 3.52 
		},
		"coords": [
			{
				"x": 0.6281557671,
				"y": 2.0304394682,
				"z": 4.4986886366,
				"element": "Cl" 
			},
			{
				"x": 0.8080497448,
				"y": 1.4629937919,
				"z": 2.8458817701,
				"element": "C" 
			},
			{
				"x": 0.5368510681,
				"y": 2.3142082743,
				"z": 1.800969523,
				"element": "C" 
			},
			{
				"x": 0.6814348124,
				"y": 1.8581620234,
				"z": 0.4642350227,
				"element": "C" 
			},
			{
				"x": 1.1107878824,
				"y": 0.508289744,
				"z": 0.2270420819,
				"element": "C" 
			},
			{
				"x": 1.2600693729,
				"y": 0.0374410442,
				"z": -1.1033669306,
				"element": "C" 
			},
			{
				"x": 0.9972957389,
				"y": 0.8621526793,
				"z": -2.1720207633,
				"element": "C" 
			},
			{
				"x": 0.5734677459,
				"y": 2.1945579514,
				"z": -1.9601807387,
				"element": "C" 
			},
			{
				"x": 0.4221248193,
				"y": 2.6717995922,
				"z": -0.6783593016,
				"element": "C" 
			},
			{
				"x": -0.1074999073,
				"y": 4.3364184636,
				"z": -0.4627805508,
				"element": "Cl" 
			},
			{
				"x": 1.3767870258,
				"y": -0.3265178338,
				"z": 1.3458845505,
				"element": "C" 
			},
			{
				"x": 1.2319366423,
				"y": 0.130312758,
				"z": 2.633912972,
				"element": "C" 
			},
			{
				"x": 0.2138670886,
				"y": 3.3295975993,
				"z": 1.99149426,
				"element": "H" 
			},
			{
				"x": 1.5857994073,
				"y": -0.98666987,
				"z": -1.262031494,
				"element": "H" 
			},
			{
				"x": 1.1121255543,
				"y": 0.4999261474,
				"z": -3.1888819044,
				"element": "H" 
			},
			{
				"x": 0.3663977893,
				"y": 2.8442516447,
				"z": -2.8031345949,
				"element": "H" 
			},
			{
				"x": 1.7016404326,
				"y": -1.3478475554,
				"z": 1.1673107073,
				"element": "H" 
			},
			{
				"x": 1.4361090153,
				"y": -0.5104159227,
				"z": 3.4842367541,
				"element": "H" 
			}
		],
		 "valence_orbital": [ 
			{
				"type": "occ",
				"energy": -0.31596,
				"method": "rhf"
			},
			{
				"type": "occ",
				"energy": -0.31564,
				"method": "rhf"
			},
			{
				"type": "occ",
				"energy": -0.28663,
				"method": "rhf"
			},
			{
				"type": "occ",
				"energy": -0.25521,
				"method": "rhf"
			},
			{
				"type": "occ",
				"energy": -0.22707,
				"method": "rhf"
			},
			{
				"type": "unocc",
				"energy": -0.05792,
				"method": "rhf"
			},
			{
				"type": "unocc",
				"energy": -0.02841,
				"method": "rhf"
			},
			{
				"type": "unocc",
				"energy": 0.01527,
				"method": "rhf"
			},
			{
				"type": "unocc",
				"energy": 0.02363,
				"method": "rhf"
			},
			{
				"type": "unocc",
				"energy": 0.03031,
				"method": "rhf"
			}
		],
		"cosmo_sigma_profile": { 
			"-0.025": 0.0,
			"-0.024": 0.0,
			"-0.023": 0.0,
			"-0.022": 0.0,
			"-0.021": 0.0,
			"-0.02": 0.0,
			"-0.019": 0.0,
			"-0.018": 0.0,
			"-0.017": 0.0,
			"-0.016": 0.0,
			"-0.015": 0.0,
			"-0.014": 0.0,
			"-0.013": 0.0,
			"-0.012": 0.0,
			"-0.011": 0.0,
			"-0.01": 0.0,
			"-0.009": 0.0,
			"-0.008": 1.4291565038,
			"-0.007": 10.0143866363,
			"-0.006": 10.5830287495,
			"-0.005": 11.145236911,
			"-0.004": 8.9582959037,
			"-0.003": 9.48522610355,
			"-0.002": 10.8050891455,
			"-0.001": 13.2525101514,
			"0.0": 16.0074905223,
			"0.001": 28.1180156837,
			"0.002": 37.2060079018,
			"0.003": 24.6059182014,
			"0.004": 20.6271868739,
			"0.005": 7.74154523034,
			"0.006": 0.0,
			"0.007": 0.0,
			"0.008": 0.0,
			"0.009": 0.0,
			"0.01": 0.0,
			"0.011": 0.0,
			"0.012": 0.0,
			"0.013": 0.0,
			"0.014": 0.0,
			"0.015": 0.0,
			"0.016": 0.0,
			"0.017": 0.0,
			"0.018": 0.0,
			"0.019": 0.0,
			"0.02": 0.0,
			"0.021": 0.0,
			"0.022": 0.0,
			"0.023": 0.0,
			"0.024": 0.0,
			"0.025": 0.0
		}
	}
}
