{
	 "smiles": "[O-][N+](=O)C=C1NCCS1", 
	 "Tm": 415.15, 
	 "num_atms": 15, 
	 "gaussian": { 
		 "optdone": 1, 
		 "sigma_profile": "yes", 
		 "theory": "DFT", 
		 "functional": "B3LYP", 
		 "basiset": "6-31G**", 
		 "properties": { 
			 "R2extent": 1794.1027, 
			 "electric_dipole_moment_norm": 6.99757132582, 
			 "electric_quadrupole_moment_norm": 17.6569314021, 
			 "total_energy": -814.071168294, 
			 "HOMO_LUMO_gap": 0.17258, 
			 "cosmo_polarized_energy": -15.15, 
			 "cosmo_cavitation_energy": 20.5, 
			 "cosmo_dispersion_energy": -16.28, 
			 "cosmo_repulsion_energy": 1.3, 
			 "cosmo_total_nonelectrostatic_energy": 5.52, 
			 "SMD_solvation_energy": 4.67 
		},
		"coords": [
			{
				"x": -3.5529147033,
				"y": 0.7671847783,
				"z": -1.8759874549,
				"element": "O" 
			},
			{
				"x": -2.7200161345,
				"y": -0.0055942819,
				"z": -1.3895789262,
				"element": "N" 
			},
			{
				"x": -2.9528823131,
				"y": -1.2277161294,
				"z": -1.2009605371,
				"element": "O" 
			},
			{
				"x": -1.4627998707,
				"y": 0.5240773121,
				"z": -1.0392790815,
				"element": "C" 
			},
			{
				"x": -0.4764800107,
				"y": -0.2414687019,
				"z": -0.4707270516,
				"element": "C" 
			},
			{
				"x": -0.5054282724,
				"y": -1.5723198133,
				"z": -0.2453822729,
				"element": "N" 
			},
			{
				"x": 0.5416717438,
				"y": -2.1044138921,
				"z": 0.6136248746,
				"element": "C" 
			},
			{
				"x": 1.7593857593,
				"y": -1.2079479779,
				"z": 0.365342991,
				"element": "C" 
			},
			{
				"x": 1.0519639866,
				"y": 0.4736632702,
				"z": 0.0797114067,
				"element": "S" 
			},
			{
				"x": -1.349535786,
				"y": 1.576246215,
				"z": -1.2444417132,
				"element": "H" 
			},
			{
				"x": -1.4097548739,
				"y": -2.01297693,
				"z": -0.4115620428,
				"element": "H" 
			},
			{
				"x": 0.7550243211,
				"y": -3.1442473253,
				"z": 0.3491336119,
				"element": "H" 
			},
			{
				"x": 0.2435963033,
				"y": -2.0692037216,
				"z": 1.6715074385,
				"element": "H" 
			},
			{
				"x": 2.43313973,
				"y": -1.1702020282,
				"z": 1.2218384181,
				"element": "H" 
			},
			{
				"x": 2.3128301206,
				"y": -1.5148807738,
				"z": -0.5250396606,
				"element": "H" 
			}
		],
		 "valence_orbital": [ 
			{
				"type": "occ",
				"energy": -0.28654,
				"method": "rhf"
			},
			{
				"type": "occ",
				"energy": -0.28376,
				"method": "rhf"
			},
			{
				"type": "occ",
				"energy": -0.26851,
				"method": "rhf"
			},
			{
				"type": "occ",
				"energy": -0.26489,
				"method": "rhf"
			},
			{
				"type": "occ",
				"energy": -0.23282,
				"method": "rhf"
			},
			{
				"type": "unocc",
				"energy": -0.06024,
				"method": "rhf"
			},
			{
				"type": "unocc",
				"energy": -0.01346,
				"method": "rhf"
			},
			{
				"type": "unocc",
				"energy": 0.04256,
				"method": "rhf"
			},
			{
				"type": "unocc",
				"energy": 0.04964,
				"method": "rhf"
			},
			{
				"type": "unocc",
				"energy": 0.07111,
				"method": "rhf"
			}
		],
		"cosmo_sigma_profile": { 
			"-0.025": 0.0,
			"-0.024": 0.0,
			"-0.023": 0.0,
			"-0.022": 0.0,
			"-0.021": 0.0,
			"-0.02": 0.0,
			"-0.019": 0.0,
			"-0.018": 0.0,
			"-0.017": 0.0,
			"-0.016": 0.0,
			"-0.015": 0.0,
			"-0.014": 0.0,
			"-0.013": 0.0112013896933,
			"-0.012": 0.387705147662,
			"-0.011": 0.794753701657,
			"-0.01": 0.593619114897,
			"-0.009": 2.1089681208,
			"-0.008": 6.31643444207,
			"-0.007": 12.6545770856,
			"-0.006": 14.9115885429,
			"-0.005": 13.9742546241,
			"-0.004": 11.2765919486,
			"-0.003": 5.53515519639,
			"-0.002": 7.09849175621,
			"-0.001": 9.91702683892,
			"0.0": 8.96011294339,
			"0.001": 11.3390703697,
			"0.002": 9.88307904891,
			"0.003": 5.82746922595,
			"0.004": 4.93452547095,
			"0.005": 4.35715042259,
			"0.006": 4.35990064571,
			"0.007": 2.66922652637,
			"0.008": 2.7208140417,
			"0.009": 4.006931353,
			"0.01": 8.40407164144,
			"0.011": 5.80119310933,
			"0.012": 4.05485530048,
			"0.013": 2.26835827048,
			"0.014": 0.0221788564995,
			"0.015": 0.0,
			"0.016": 0.0,
			"0.017": 0.0,
			"0.018": 0.0,
			"0.019": 0.0,
			"0.02": 0.0,
			"0.021": 0.0,
			"0.022": 0.0,
			"0.023": 0.0,
			"0.024": 0.0,
			"0.025": 0.0
		}
	}
}
