{
	 "smiles": "NCC1=CC2=C(OC=C2)C=C1", 
	 "Tm": 306.15, 
	 "num_atms": 20, 
	 "gaussian": { 
		 "optdone": 1, 
		 "sigma_profile": "yes", 
		 "theory": "DFT", 
		 "functional": "B3LYP", 
		 "basiset": "6-31G**", 
		 "properties": { 
			 "R2extent": 2098.723, 
			 "electric_dipole_moment_norm": 1.49010096638, 
			 "electric_quadrupole_moment_norm": 8.80688436849, 
			 "total_energy": -478.338327574, 
			 "HOMO_LUMO_gap": 0.20089, 
			 "cosmo_polarized_energy": -8.44, 
			 "cosmo_cavitation_energy": 23.79, 
			 "cosmo_dispersion_energy": -17.63, 
			 "cosmo_repulsion_energy": 1.41, 
			 "cosmo_total_nonelectrostatic_energy": 7.57, 
			 "SMD_solvation_energy": 3.29 
		},
		"coords": [
			{
				"x": -2.1086697326,
				"y": 0.6348077479,
				"z": 2.00250076,
				"element": "N" 
			},
			{
				"x": -1.3775926792,
				"y": -0.5943011588,
				"z": 1.6490011428,
				"element": "C" 
			},
			{
				"x": -0.285530056,
				"y": -0.4345836247,
				"z": 0.6033322487,
				"element": "C" 
			},
			{
				"x": 1.0431722498,
				"y": -0.2467038955,
				"z": 0.9891520885,
				"element": "C" 
			},
			{
				"x": 2.0232715385,
				"y": -0.0413947464,
				"z": 0.0060015011,
				"element": "C" 
			},
			{
				"x": 1.6358093317,
				"y": -0.0339301347,
				"z": -1.3467060003,
				"element": "C" 
			},
			{
				"x": 2.7233229465,
				"y": 0.1740466686,
				"z": -2.1529414011,
				"element": "O" 
			},
			{
				"x": 3.8002670462,
				"y": 0.2984110016,
				"z": -1.3099866298,
				"element": "C" 
			},
			{
				"x": 3.4505550404,
				"y": 0.1786862406,
				"z": -0.0052505886,
				"element": "C" 
			},
			{
				"x": 0.3248893515,
				"y": -0.2241676166,
				"z": -1.7682174731,
				"element": "C" 
			},
			{
				"x": -0.6248917143,
				"y": -0.4245570281,
				"z": -0.7695968274,
				"element": "C" 
			},
			{
				"x": -2.5390726232,
				"y": 1.0196841154,
				"z": 1.1634213755,
				"element": "H" 
			},
			{
				"x": -1.4404633186,
				"y": 1.3395943874,
				"z": 2.3097268762,
				"element": "H" 
			},
			{
				"x": -0.9445796019,
				"y": -0.99845663,
				"z": 2.5710280203,
				"element": "H" 
			},
			{
				"x": -2.1164571684,
				"y": -1.3270641401,
				"z": 1.3040670957,
				"element": "H" 
			},
			{
				"x": 1.3125686523,
				"y": -0.2646961109,
				"z": 2.0425922404,
				"element": "H" 
			},
			{
				"x": 4.7472001411,
				"y": 0.4696500776,
				"z": -1.7994284373,
				"element": "H" 
			},
			{
				"x": 4.1162308158,
				"y": 0.2387113301,
				"z": 0.8437602277,
				"element": "H" 
			},
			{
				"x": 0.0639664665,
				"y": -0.223459634,
				"z": -2.8210653228,
				"element": "H" 
			},
			{
				"x": -1.6620966861,
				"y": -0.5862768495,
				"z": -1.0539908966,
				"element": "H" 
			}
		],
		 "valence_orbital": [ 
			{
				"type": "occ",
				"energy": -0.33627,
				"method": "rhf"
			},
			{
				"type": "occ",
				"energy": -0.29362,
				"method": "rhf"
			},
			{
				"type": "occ",
				"energy": -0.24751,
				"method": "rhf"
			},
			{
				"type": "occ",
				"energy": -0.22419,
				"method": "rhf"
			},
			{
				"type": "occ",
				"energy": -0.22142,
				"method": "rhf"
			},
			{
				"type": "unocc",
				"energy": -0.02053,
				"method": "rhf"
			},
			{
				"type": "unocc",
				"energy": 0.0104,
				"method": "rhf"
			},
			{
				"type": "unocc",
				"energy": 0.05282,
				"method": "rhf"
			},
			{
				"type": "unocc",
				"energy": 0.08921,
				"method": "rhf"
			},
			{
				"type": "unocc",
				"energy": 0.1118,
				"method": "rhf"
			}
		],
		"cosmo_sigma_profile": { 
			"-0.025": 0.0,
			"-0.024": 0.0,
			"-0.023": 0.0,
			"-0.022": 0.0,
			"-0.021": 0.0,
			"-0.02": 0.0,
			"-0.019": 0.0,
			"-0.018": 0.0,
			"-0.017": 0.0,
			"-0.016": 0.0,
			"-0.015": 0.0,
			"-0.014": 0.0,
			"-0.013": 0.0,
			"-0.012": 0.0,
			"-0.011": 0.0,
			"-0.01": 0.21296470685,
			"-0.009": 3.78559845249,
			"-0.008": 3.99953918385,
			"-0.007": 7.29797021799,
			"-0.006": 10.4311900101,
			"-0.005": 14.3989453416,
			"-0.004": 16.6978980161,
			"-0.003": 13.807372305,
			"-0.002": 10.8970086518,
			"-0.001": 11.4495094606,
			"0.0": 10.281884842,
			"0.001": 10.7258465329,
			"0.002": 14.3248029269,
			"0.003": 14.5383398895,
			"0.004": 15.1317387511,
			"0.005": 12.8921798293,
			"0.006": 4.86799945576,
			"0.007": 2.55647470441,
			"0.008": 1.89524415271,
			"0.009": 2.05722141752,
			"0.01": 0.828360647161,
			"0.011": 0.220866868012,
			"0.012": 0.670749817436,
			"0.013": 0.94385378707,
			"0.014": 1.1284876267,
			"0.015": 0.130288017085,
			"0.016": 0.556661469745,
			"0.017": 0.866222502735,
			"0.018": 0.647048103458,
			"0.019": 0.6066413232,
			"0.02": 0.407995091335,
			"0.021": 0.0410188424426,
			"0.022": 0.0,
			"0.023": 0.0,
			"0.024": 0.0,
			"0.025": 0.0
		}
	}
}
