{
	 "smiles": "CC(C)C1=CN=C(S)N1C", 
	 "Tm": 398.15, 
	 "num_atms": 22, 
	 "gaussian": { 
		 "optdone": 1, 
		 "sigma_profile": "yes", 
		 "theory": "DFT", 
		 "functional": "B3LYP", 
		 "basiset": "6-31G**", 
		 "properties": { 
			 "R2extent": 2306.6735, 
			 "electric_dipole_moment_norm": 3.18682538116, 
			 "electric_quadrupole_moment_norm": 5.64548330172, 
			 "total_energy": -781.66730173, 
			 "HOMO_LUMO_gap": 0.21464, 
			 "cosmo_polarized_energy": -9.63, 
			 "cosmo_cavitation_energy": 25.86, 
			 "cosmo_dispersion_energy": -19.14, 
			 "cosmo_repulsion_energy": 1.5, 
			 "cosmo_total_nonelectrostatic_energy": 8.23, 
			 "SMD_solvation_energy": 2.52 
		},
		"coords": [
			{
				"x": 1.0358048422,
				"y": -2.6221723372,
				"z": 0.6690578407,
				"element": "C" 
			},
			{
				"x": 0.0840051929,
				"y": -1.4442677946,
				"z": 0.4044675426,
				"element": "C" 
			},
			{
				"x": -1.241627925,
				"y": -1.948815779,
				"z": -0.2075928463,
				"element": "C" 
			},
			{
				"x": 0.742207436,
				"y": -0.4030890907,
				"z": -0.4613248224,
				"element": "C" 
			},
			{
				"x": 1.7546742553,
				"y": -0.4828115707,
				"z": -1.3856621527,
				"element": "C" 
			},
			{
				"x": 2.0050166656,
				"y": 0.7407108941,
				"z": -1.9726166562,
				"element": "N" 
			},
			{
				"x": 1.1472075203,
				"y": 1.5591447767,
				"z": -1.4099763577,
				"element": "C" 
			},
			{
				"x": 1.0065426898,
				"y": 3.2987406397,
				"z": -1.7474288426,
				"element": "S" 
			},
			{
				"x": 0.3399836987,
				"y": 0.9365733927,
				"z": -0.4919989674,
				"element": "N" 
			},
			{
				"x": -0.6431294454,
				"y": 1.5823110482,
				"z": 0.3619546342,
				"element": "C" 
			},
			{
				"x": 1.2867332115,
				"y": -3.1404446098,
				"z": -0.2626120663,
				"element": "H" 
			},
			{
				"x": 1.9684359955,
				"y": -2.2851886355,
				"z": 1.1300575027,
				"element": "H" 
			},
			{
				"x": 0.5642336867,
				"y": -3.3516027969,
				"z": 1.3350654597,
				"element": "H" 
			},
			{
				"x": -0.1479198195,
				"y": -0.9869628062,
				"z": 1.3776236325,
				"element": "H" 
			},
			{
				"x": -1.0513685215,
				"y": -2.445350798,
				"z": -1.1646747577,
				"element": "H" 
			},
			{
				"x": -1.9453261416,
				"y": -1.1318780198,
				"z": -0.3970005692,
				"element": "H" 
			},
			{
				"x": -1.7300146496,
				"y": -2.6665707163,
				"z": 0.4607565809,
				"element": "H" 
			},
			{
				"x": 2.3244861302,
				"y": -1.356782401,
				"z": -1.6683131833,
				"element": "H" 
			},
			{
				"x": 1.8518682918,
				"y": 3.2321243112,
				"z": -2.7915732032,
				"element": "H" 
			},
			{
				"x": -1.0982886432,
				"y": 2.4181938388,
				"z": -0.1749471049,
				"element": "H" 
			},
			{
				"x": -1.4331956968,
				"y": 0.8767847497,
				"z": 0.6214429388,
				"element": "H" 
			},
			{
				"x": -0.1896287739,
				"y": 1.9611537047,
				"z": 1.284895398,
				"element": "H" 
			}
		],
		 "valence_orbital": [ 
			{
				"type": "occ",
				"energy": -0.34437,
				"method": "rhf"
			},
			{
				"type": "occ",
				"energy": -0.2844,
				"method": "rhf"
			},
			{
				"type": "occ",
				"energy": -0.26274,
				"method": "rhf"
			},
			{
				"type": "occ",
				"energy": -0.26226,
				"method": "rhf"
			},
			{
				"type": "occ",
				"energy": -0.1983,
				"method": "rhf"
			},
			{
				"type": "unocc",
				"energy": 0.01634,
				"method": "rhf"
			},
			{
				"type": "unocc",
				"energy": 0.03096,
				"method": "rhf"
			},
			{
				"type": "unocc",
				"energy": 0.06847,
				"method": "rhf"
			},
			{
				"type": "unocc",
				"energy": 0.07538,
				"method": "rhf"
			},
			{
				"type": "unocc",
				"energy": 0.08154,
				"method": "rhf"
			}
		],
		"cosmo_sigma_profile": { 
			"-0.025": 0.0,
			"-0.024": 0.0,
			"-0.023": 0.0,
			"-0.022": 0.0,
			"-0.021": 0.0,
			"-0.02": 0.0,
			"-0.019": 0.0,
			"-0.018": 0.0,
			"-0.017": 0.0,
			"-0.016": 0.0,
			"-0.015": 0.0,
			"-0.014": 0.0,
			"-0.013": 0.0,
			"-0.012": 0.0543603175904,
			"-0.011": 1.33509075875,
			"-0.01": 1.51488002221,
			"-0.009": 0.893232333755,
			"-0.008": 1.26889151814,
			"-0.007": 1.96202172416,
			"-0.006": 7.92063226691,
			"-0.005": 12.4880958159,
			"-0.004": 16.7980335149,
			"-0.003": 24.8833831301,
			"-0.002": 20.9285061001,
			"-0.001": 18.2895672386,
			"0.0": 18.4734500962,
			"0.001": 20.0174902997,
			"0.002": 9.45239327803,
			"0.003": 8.96965842745,
			"0.004": 8.44155426441,
			"0.005": 6.18625832872,
			"0.006": 6.19925455447,
			"0.007": 5.32529142671,
			"0.008": 2.99199382737,
			"0.009": 1.56875449454,
			"0.01": 2.10010163359,
			"0.011": 1.23381118024,
			"0.012": 0.90477262019,
			"0.013": 1.25378926366,
			"0.014": 1.07635138166,
			"0.015": 1.18080844565,
			"0.016": 0.834847566989,
			"0.017": 0.899842791326,
			"0.018": 0.277570304912,
			"0.019": 0.0,
			"0.02": 0.0,
			"0.021": 0.0,
			"0.022": 0.0,
			"0.023": 0.0,
			"0.024": 0.0,
			"0.025": 0.0
		}
	}
}
