{
	 "smiles": "CNS(=O)(=O)CC1CCCN1", 
	 "Tm": 365.15, 
	 "num_atms": 25, 
	 "gaussian": { 
		 "optdone": 1, 
		 "sigma_profile": "yes", 
		 "theory": "DFT", 
		 "functional": "B3LYP", 
		 "basiset": "6-31G**", 
		 "properties": { 
			 "R2extent": 2456.8816, 
			 "electric_dipole_moment_norm": 4.43156126664, 
			 "electric_quadrupole_moment_norm": 12.519174835, 
			 "total_energy": -895.141181939, 
			 "HOMO_LUMO_gap": 0.28055, 
			 "cosmo_polarized_energy": -14.65, 
			 "cosmo_cavitation_energy": 27.67, 
			 "cosmo_dispersion_energy": -20.67, 
			 "cosmo_repulsion_energy": 1.64, 
			 "cosmo_total_nonelectrostatic_energy": 8.64, 
			 "SMD_solvation_energy": 1.57 
		},
		"coords": [
			{
				"x": -0.5061478105,
				"y": -2.7523924591,
				"z": 2.3159102991,
				"element": "C" 
			},
			{
				"x": 0.1231608624,
				"y": -1.4231494638,
				"z": 2.3454519824,
				"element": "N" 
			},
			{
				"x": 1.2154956749,
				"y": -1.0453069406,
				"z": 1.0943250713,
				"element": "S" 
			},
			{
				"x": 2.4820486175,
				"y": -0.6547592269,
				"z": 1.727814486,
				"element": "O" 
			},
			{
				"x": 1.1616473177,
				"y": -2.1274652083,
				"z": 0.1018657235,
				"element": "O" 
			},
			{
				"x": 0.4926110739,
				"y": 0.4548778725,
				"z": 0.3813513163,
				"element": "C" 
			},
			{
				"x": -0.9059153418,
				"y": 0.3000846223,
				"z": -0.2418062364,
				"element": "C" 
			},
			{
				"x": -0.9205343408,
				"y": -0.4134128016,
				"z": -1.6201085853,
				"element": "C" 
			},
			{
				"x": -1.1108494312,
				"y": 0.7270152505,
				"z": -2.6354048971,
				"element": "C" 
			},
			{
				"x": -2.0009647881,
				"y": 1.7029282834,
				"z": -1.8624791401,
				"element": "C" 
			},
			{
				"x": -1.4177627685,
				"y": 1.6603778311,
				"z": -0.5166761455,
				"element": "N" 
			},
			{
				"x": -1.0120264033,
				"y": -2.8908110309,
				"z": 1.3601788948,
				"element": "H" 
			},
			{
				"x": 0.2004850738,
				"y": -3.5788069767,
				"z": 2.4525306756,
				"element": "H" 
			},
			{
				"x": -1.2535595749,
				"y": -2.7815634674,
				"z": 3.1133867534,
				"element": "H" 
			},
			{
				"x": 0.6078653788,
				"y": -1.235656129,
				"z": 3.2197813934,
				"element": "H" 
			},
			{
				"x": 1.2215877259,
				"y": 0.798669598,
				"z": -0.3587374501,
				"element": "H" 
			},
			{
				"x": 0.4740973649,
				"y": 1.1789524333,
				"z": 1.1997008864,
				"element": "H" 
			},
			{
				"x": -1.538719074,
				"y": -0.2385943586,
				"z": 0.4771060939,
				"element": "H" 
			},
			{
				"x": -0.0233145857,
				"y": -1.0123613481,
				"z": -1.7854470627,
				"element": "H" 
			},
			{
				"x": -1.7762882897,
				"y": -1.095678493,
				"z": -1.6656471628,
				"element": "H" 
			},
			{
				"x": -1.558581036,
				"y": 0.392584851,
				"z": -3.575145209,
				"element": "H" 
			},
			{
				"x": -0.1528197312,
				"y": 1.204799806,
				"z": -2.8686409821,
				"element": "H" 
			},
			{
				"x": -3.0505203537,
				"y": 1.3601067728,
				"z": -1.8976676973,
				"element": "H" 
			},
			{
				"x": -1.9716974616,
				"y": 2.7230650876,
				"z": -2.2617342488,
				"element": "H" 
			},
			{
				"x": -2.0548980988,
				"y": 1.9844954953,
				"z": 0.2023912413,
				"element": "H" 
			}
		],
		 "valence_orbital": [ 
			{
				"type": "occ",
				"energy": -0.3108,
				"method": "rhf"
			},
			{
				"type": "occ",
				"energy": -0.29894,
				"method": "rhf"
			},
			{
				"type": "occ",
				"energy": -0.2951,
				"method": "rhf"
			},
			{
				"type": "occ",
				"energy": -0.26908,
				"method": "rhf"
			},
			{
				"type": "occ",
				"energy": -0.22446,
				"method": "rhf"
			},
			{
				"type": "unocc",
				"energy": 0.05609,
				"method": "rhf"
			},
			{
				"type": "unocc",
				"energy": 0.07364,
				"method": "rhf"
			},
			{
				"type": "unocc",
				"energy": 0.07847,
				"method": "rhf"
			},
			{
				"type": "unocc",
				"energy": 0.08845,
				"method": "rhf"
			},
			{
				"type": "unocc",
				"energy": 0.09897,
				"method": "rhf"
			}
		],
		"cosmo_sigma_profile": { 
			"-0.025": 0.0,
			"-0.024": 0.0,
			"-0.023": 0.0,
			"-0.022": 0.0,
			"-0.021": 0.0,
			"-0.02": 0.0,
			"-0.019": 0.0,
			"-0.018": 0.0,
			"-0.017": 0.0,
			"-0.016": 0.0,
			"-0.015": 0.0151584592531,
			"-0.014": 0.793764163144,
			"-0.013": 0.787764495978,
			"-0.012": 1.29018541814,
			"-0.011": 1.18578338655,
			"-0.01": 1.96527550411,
			"-0.009": 2.2325387023,
			"-0.008": 3.4399318447,
			"-0.007": 6.48042188652,
			"-0.006": 8.16079171231,
			"-0.005": 11.8197170136,
			"-0.004": 14.8812628617,
			"-0.003": 22.5774471822,
			"-0.002": 30.2355293165,
			"-0.001": 23.5627135394,
			"0.0": 16.4956885028,
			"0.001": 10.4051959809,
			"0.002": 4.49573099155,
			"0.003": 4.22814988161,
			"0.004": 4.86952183449,
			"0.005": 3.34404971882,
			"0.006": 3.73232839449,
			"0.007": 3.28341814177,
			"0.008": 5.01163557263,
			"0.009": 4.937009074,
			"0.01": 4.74660680661,
			"0.011": 8.97391796286,
			"0.012": 8.56263438218,
			"0.013": 0.936332925374,
			"0.014": 0.460669270767,
			"0.015": 0.56418218011,
			"0.016": 0.403391613028,
			"0.017": 0.0632023317957,
			"0.018": 0.0,
			"0.019": 0.0,
			"0.02": 0.0,
			"0.021": 0.0,
			"0.022": 0.0,
			"0.023": 0.0,
			"0.024": 0.0,
			"0.025": 0.0
		}
	}
}
