{
	 "smiles": "CN(C)C1=CC=CC=C1C", 
	 "Tm": 213.15, 
	 "num_atms": 23, 
	 "gaussian": { 
		 "optdone": 1, 
		 "sigma_profile": "yes", 
		 "theory": "DFT", 
		 "functional": "B3LYP", 
		 "basiset": "6-31G**", 
		 "properties": { 
			 "R2extent": 1594.6395, 
			 "electric_dipole_moment_norm": 0.768701671652, 
			 "electric_quadrupole_moment_norm": 3.83406981288, 
			 "total_energy": -405.533306462, 
			 "HOMO_LUMO_gap": 0.20269, 
			 "cosmo_polarized_energy": -3.86, 
			 "cosmo_cavitation_energy": 24.82, 
			 "cosmo_dispersion_energy": -17.9, 
			 "cosmo_repulsion_energy": 1.44, 
			 "cosmo_total_nonelectrostatic_energy": 8.36, 
			 "SMD_solvation_energy": 3.92 
		},
		"coords": [
			{
				"x": -2.3675766972,
				"y": 0.9408007048,
				"z": 0.3779709773,
				"element": "C" 
			},
			{
				"x": -1.0075805344,
				"y": 0.565069293,
				"z": 0.7238095862,
				"element": "N" 
			},
			{
				"x": -0.8912773882,
				"y": -0.2086579974,
				"z": 1.9505863001,
				"element": "C" 
			},
			{
				"x": -0.0833432981,
				"y": 0.2402444475,
				"z": -0.3221344297,
				"element": "C" 
			},
			{
				"x": 1.1616111625,
				"y": 0.8871833171,
				"z": -0.2757492363,
				"element": "C" 
			},
			{
				"x": 2.1431997839,
				"y": 0.6521302235,
				"z": -1.2352213691,
				"element": "C" 
			},
			{
				"x": 1.8804331607,
				"y": -0.2335230561,
				"z": -2.2805405534,
				"element": "C" 
			},
			{
				"x": 0.6492750681,
				"y": -0.8842663475,
				"z": -2.3338957043,
				"element": "C" 
			},
			{
				"x": -0.3429680245,
				"y": -0.6802628541,
				"z": -1.3632381851,
				"element": "C" 
			},
			{
				"x": -1.6314896069,
				"y": -1.4674782055,
				"z": -1.4539877022,
				"element": "C" 
			},
			{
				"x": -2.3644634976,
				"y": 1.5127663007,
				"z": -0.5537049383,
				"element": "H" 
			},
			{
				"x": -2.7700990692,
				"y": 1.5897939613,
				"z": 1.1667044016,
				"element": "H" 
			},
			{
				"x": -3.0690138059,
				"y": 0.0970017892,
				"z": 0.26190035,
				"element": "H" 
			},
			{
				"x": 0.1629988728,
				"y": -0.3346358378,
				"z": 2.2102346926,
				"element": "H" 
			},
			{
				"x": -1.3824328978,
				"y": 0.3281692871,
				"z": 2.7714737862,
				"element": "H" 
			},
			{
				"x": -1.3480632085,
				"y": -1.2142863431,
				"z": 1.8908562964,
				"element": "H" 
			},
			{
				"x": 1.331486416,
				"y": 1.595234035,
				"z": 0.5300390885,
				"element": "H" 
			},
			{
				"x": 3.097125931,
				"y": 1.1685765086,
				"z": -1.1759289089,
				"element": "H" 
			},
			{
				"x": 2.6284997571,
				"y": -0.4223358232,
				"z": -3.0452509276,
				"element": "H" 
			},
			{
				"x": 0.4517602443,
				"y": -1.5888450426,
				"z": -3.1386768909,
				"element": "H" 
			},
			{
				"x": -1.5143527825,
				"y": -2.3112638608,
				"z": -2.1397542091,
				"element": "H" 
			},
			{
				"x": -1.9323123571,
				"y": -1.8673785265,
				"z": -0.4813591901,
				"element": "H" 
			},
			{
				"x": -2.4656172286,
				"y": -0.8600359732,
				"z": -1.8240332338,
				"element": "H" 
			}
		],
		 "valence_orbital": [ 
			{
				"type": "occ",
				"energy": -0.33766,
				"method": "rhf"
			},
			{
				"type": "occ",
				"energy": -0.3327,
				"method": "rhf"
			},
			{
				"type": "occ",
				"energy": -0.24456,
				"method": "rhf"
			},
			{
				"type": "occ",
				"energy": -0.2349,
				"method": "rhf"
			},
			{
				"type": "occ",
				"energy": -0.19704,
				"method": "rhf"
			},
			{
				"type": "unocc",
				"energy": 0.00565,
				"method": "rhf"
			},
			{
				"type": "unocc",
				"energy": 0.00772,
				"method": "rhf"
			},
			{
				"type": "unocc",
				"energy": 0.08604,
				"method": "rhf"
			},
			{
				"type": "unocc",
				"energy": 0.10353,
				"method": "rhf"
			},
			{
				"type": "unocc",
				"energy": 0.13116,
				"method": "rhf"
			}
		],
		"cosmo_sigma_profile": { 
			"-0.025": 0.0,
			"-0.024": 0.0,
			"-0.023": 0.0,
			"-0.022": 0.0,
			"-0.021": 0.0,
			"-0.02": 0.0,
			"-0.019": 0.0,
			"-0.018": 0.0,
			"-0.017": 0.0,
			"-0.016": 0.0,
			"-0.015": 0.0,
			"-0.014": 0.0,
			"-0.013": 0.0,
			"-0.012": 0.0,
			"-0.011": 0.0,
			"-0.01": 0.0,
			"-0.009": 0.0,
			"-0.008": 0.0,
			"-0.007": 0.0,
			"-0.006": 0.50300659876,
			"-0.005": 6.337468689,
			"-0.004": 14.1109566155,
			"-0.003": 24.6772020888,
			"-0.002": 29.3290402077,
			"-0.001": 26.7238738027,
			"0.0": 27.8535394661,
			"0.001": 14.7983454316,
			"0.002": 8.57071228376,
			"0.003": 8.28520967653,
			"0.004": 8.30549532464,
			"0.005": 8.65867261221,
			"0.006": 7.94493397956,
			"0.007": 5.68545015705,
			"0.008": 0.997049524373,
			"0.009": 0.684250700183,
			"0.01": 0.545599406246,
			"0.011": 0.373384458463,
			"0.012": 0.440922004221,
			"0.013": 0.00969035656038,
			"0.014": 0.0,
			"0.015": 0.0,
			"0.016": 0.0,
			"0.017": 0.0,
			"0.018": 0.0,
			"0.019": 0.0,
			"0.02": 0.0,
			"0.021": 0.0,
			"0.022": 0.0,
			"0.023": 0.0,
			"0.024": 0.0,
			"0.025": 0.0
		}
	}
}
