{
	 "smiles": "CS(=O)(=O)CC1=C(SC2=C1C=CC=C2)C(O)=O", 
	 "Tm": 550.15, 
	 "num_atms": 27, 
	 "gaussian": { 
		 "optdone": 1, 
		 "sigma_profile": "yes", 
		 "theory": "DFT", 
		 "functional": "B3LYP", 
		 "basiset": "6-31G**", 
		 "properties": { 
			 "R2extent": 4915.2001, 
			 "electric_dipole_moment_norm": 4.64277738751, 
			 "electric_quadrupole_moment_norm": 26.1709831038, 
			 "total_energy": -1522.4255049, 
			 "HOMO_LUMO_gap": 0.15486, 
			 "cosmo_polarized_energy": -23.26, 
			 "cosmo_cavitation_energy": 34.08, 
			 "cosmo_dispersion_energy": -24.87, 
			 "cosmo_repulsion_energy": 1.82, 
			 "cosmo_total_nonelectrostatic_energy": 11.03, 
			 "SMD_solvation_energy": 6.09 
		},
		"coords": [
			{
				"x": -1.0694410497,
				"y": 2.8304993613,
				"z": 1.8702247786,
				"element": "C" 
			},
			{
				"x": 0.1037169792,
				"y": 1.475544847,
				"z": 1.6203862979,
				"element": "S" 
			},
			{
				"x": 0.2092578601,
				"y": 0.738225843,
				"z": 2.8915588708,
				"element": "O" 
			},
			{
				"x": 1.2999721506,
				"y": 2.0269129386,
				"z": 0.9712838548,
				"element": "O" 
			},
			{
				"x": -0.7899108405,
				"y": 0.4017153889,
				"z": 0.4087326103,
				"element": "C" 
			},
			{
				"x": 0.1334395611,
				"y": -0.5365045596,
				"z": -0.30098985,
				"element": "C" 
			},
			{
				"x": 0.6666981907,
				"y": -0.3357842397,
				"z": -1.5559094536,
				"element": "C" 
			},
			{
				"x": 1.6898812808,
				"y": -1.6566870152,
				"z": -2.0940128341,
				"element": "S" 
			},
			{
				"x": 1.4128761881,
				"y": -2.5140021297,
				"z": -0.5981257239,
				"element": "C" 
			},
			{
				"x": 0.570140639,
				"y": -1.7848274094,
				"z": 0.2779312588,
				"element": "C" 
			},
			{
				"x": 0.2678050809,
				"y": -2.3265459098,
				"z": 1.5449316666,
				"element": "C" 
			},
			{
				"x": 0.785073556,
				"y": -3.5631160378,
				"z": 1.8954897223,
				"element": "C" 
			},
			{
				"x": 1.6099345588,
				"y": -4.2801460426,
				"z": 1.0064807276,
				"element": "C" 
			},
			{
				"x": 1.9343148566,
				"y": -3.7636113253,
				"z": -0.2407598447,
				"element": "C" 
			},
			{
				"x": 0.5359829103,
				"y": 0.7728606153,
				"z": -2.5145296717,
				"element": "C" 
			},
			{
				"x": -0.2939913758,
				"y": 1.7725877816,
				"z": -2.1152971172,
				"element": "O" 
			},
			{
				"x": 1.1079029447,
				"y": 0.8056720779,
				"z": -3.5865216841,
				"element": "O" 
			},
			{
				"x": -2.0180906293,
				"y": 2.4301965449,
				"z": 2.2321118724,
				"element": "H" 
			},
			{
				"x": -0.6229277787,
				"y": 3.4769601488,
				"z": 2.6279973519,
				"element": "H" 
			},
			{
				"x": -1.1955258842,
				"y": 3.3744862896,
				"z": 0.9332560177,
				"element": "H" 
			},
			{
				"x": -1.5372573609,
				"y": -0.1362078529,
				"z": 0.9973400345,
				"element": "H" 
			},
			{
				"x": -1.279918895,
				"y": 1.0790791548,
				"z": -0.2884810822,
				"element": "H" 
			},
			{
				"x": -0.3300852841,
				"y": -1.7607577389,
				"z": 2.2513463027,
				"element": "H" 
			},
			{
				"x": 0.5610406646,
				"y": -3.981537146,
				"z": 2.8717807126,
				"element": "H" 
			},
			{
				"x": 2.0051545096,
				"y": -5.2470240887,
				"z": 1.3035071771,
				"element": "H" 
			},
			{
				"x": 2.5785985721,
				"y": -4.3120784899,
				"z": -0.9206857009,
				"element": "H" 
			},
			{
				"x": -0.2657414052,
				"y": 2.429088994,
				"z": -2.8314462946,
				"element": "H" 
			}
		],
		 "valence_orbital": [ 
			{
				"type": "occ",
				"energy": -0.2968,
				"method": "rhf"
			},
			{
				"type": "occ",
				"energy": -0.29094,
				"method": "rhf"
			},
			{
				"type": "occ",
				"energy": -0.28421,
				"method": "rhf"
			},
			{
				"type": "occ",
				"energy": -0.24763,
				"method": "rhf"
			},
			{
				"type": "occ",
				"energy": -0.22863,
				"method": "rhf"
			},
			{
				"type": "unocc",
				"energy": -0.07377,
				"method": "rhf"
			},
			{
				"type": "unocc",
				"energy": -0.01145,
				"method": "rhf"
			},
			{
				"type": "unocc",
				"energy": 0.00522,
				"method": "rhf"
			},
			{
				"type": "unocc",
				"energy": 0.01571,
				"method": "rhf"
			},
			{
				"type": "unocc",
				"energy": 0.04924,
				"method": "rhf"
			}
		],
		"cosmo_sigma_profile": { 
			"-0.025": 0.0,
			"-0.024": 0.0,
			"-0.023": 0.0,
			"-0.022": 0.0,
			"-0.021": 0.0,
			"-0.02": 0.0,
			"-0.019": 0.429738738854,
			"-0.018": 0.768695550036,
			"-0.017": 1.07586055362,
			"-0.016": 1.01090383033,
			"-0.015": 0.883026925517,
			"-0.014": 0.203995884635,
			"-0.013": 0.307869468672,
			"-0.012": 1.25493475669,
			"-0.011": 0.998781752364,
			"-0.01": 2.26321258957,
			"-0.009": 6.23418782923,
			"-0.008": 11.2427435637,
			"-0.007": 14.2074836963,
			"-0.006": 16.7279780841,
			"-0.005": 16.5585623189,
			"-0.004": 16.8689812703,
			"-0.003": 13.7882348952,
			"-0.002": 12.9997414189,
			"-0.001": 11.0549319441,
			"0.0": 15.1527085064,
			"0.001": 16.9124226676,
			"0.002": 19.2504050167,
			"0.003": 19.6000470939,
			"0.004": 17.8039704848,
			"0.005": 6.23251112735,
			"0.006": 6.03853835682,
			"0.007": 4.77490733634,
			"0.008": 5.07550335385,
			"0.009": 5.83587387291,
			"0.01": 7.20434851969,
			"0.011": 13.386702418,
			"0.012": 7.89013977705,
			"0.013": 0.644959902429,
			"0.014": 0.0,
			"0.015": 0.0,
			"0.016": 0.0,
			"0.017": 0.0,
			"0.018": 0.0,
			"0.019": 0.0,
			"0.02": 0.0,
			"0.021": 0.0,
			"0.022": 0.0,
			"0.023": 0.0,
			"0.024": 0.0,
			"0.025": 0.0
		}
	}
}
