{
	 "smiles": "OS(=O)(=O)C1=CC2=C(NC(=N2)C2=CC=CC=C2)C=C1", 
	 "Tm": 573.15, 
	 "num_atms": 29, 
	 "gaussian": { 
		 "optdone": 1, 
		 "sigma_profile": "yes", 
		 "theory": "DFT", 
		 "functional": "B3LYP", 
		 "basiset": "6-31G**", 
		 "properties": { 
			 "R2extent": 8738.5251, 
			 "electric_dipole_moment_norm": 7.57395738369, 
			 "electric_quadrupole_moment_norm": 22.5258454054, 
			 "total_energy": -1234.72570101, 
			 "HOMO_LUMO_gap": 0.16946, 
			 "cosmo_polarized_energy": -23.43, 
			 "cosmo_cavitation_energy": 35.5, 
			 "cosmo_dispersion_energy": -27.05, 
			 "cosmo_repulsion_energy": 1.99, 
			 "cosmo_total_nonelectrostatic_energy": 10.45, 
			 "SMD_solvation_energy": 2.91 
		},
		"coords": [
			{
				"x": 3.74782257,
				"y": -3.0351720361,
				"z": 2.9199614127,
				"element": "O" 
			},
			{
				"x": 3.080360095,
				"y": -1.6450797347,
				"z": 3.5061229896,
				"element": "S" 
			},
			{
				"x": 1.8637727766,
				"y": -2.0476538178,
				"z": 4.2143155453,
				"element": "O" 
			},
			{
				"x": 4.1525989042,
				"y": -0.9168276327,
				"z": 4.1696998818,
				"element": "O" 
			},
			{
				"x": 2.6448409242,
				"y": -0.7858047099,
				"z": 2.0079203884,
				"element": "C" 
			},
			{
				"x": 1.3449345959,
				"y": -0.9084631857,
				"z": 1.5248487803,
				"element": "C" 
			},
			{
				"x": 1.0442672788,
				"y": -0.2300116735,
				"z": 0.3397478632,
				"element": "C" 
			},
			{
				"x": 2.0476216867,
				"y": 0.5356958592,
				"z": -0.310062419,
				"element": "C" 
			},
			{
				"x": 1.4176474948,
				"y": 1.0527250089,
				"z": -1.4203128605,
				"element": "N" 
			},
			{
				"x": 0.1037620096,
				"y": 0.6059265353,
				"z": -1.4014073731,
				"element": "C" 
			},
			{
				"x": -0.1433832455,
				"y": -0.1630519186,
				"z": -0.3607501335,
				"element": "N" 
			},
			{
				"x": -0.8786876355,
				"y": 0.9619502977,
				"z": -2.4301380519,
				"element": "C" 
			},
			{
				"x": -2.2219247191,
				"y": 0.5992285194,
				"z": -2.2317778419,
				"element": "C" 
			},
			{
				"x": -3.1842126096,
				"y": 0.9220302503,
				"z": -3.183323212,
				"element": "C" 
			},
			{
				"x": -2.8244462477,
				"y": 1.6101024669,
				"z": -4.3457400798,
				"element": "C" 
			},
			{
				"x": -1.4918094647,
				"y": 1.9700869634,
				"z": -4.5528448639,
				"element": "C" 
			},
			{
				"x": -0.5240645934,
				"y": 1.6474779354,
				"z": -3.6030909578,
				"element": "C" 
			},
			{
				"x": 3.3474683115,
				"y": 0.6583711903,
				"z": 0.1870525149,
				"element": "C" 
			},
			{
				"x": 3.6376645646,
				"y": -0.0166853309,
				"z": 1.3666496278,
				"element": "C" 
			},
			{
				"x": 3.1703306257,
				"y": -3.7571400303,
				"z": 3.2194000518,
				"element": "H" 
			},
			{
				"x": 0.5968229943,
				"y": -1.4892689014,
				"z": 2.0513065311,
				"element": "H" 
			},
			{
				"x": 1.821134757,
				"y": 1.6906913111,
				"z": -2.0875557191,
				"element": "H" 
			},
			{
				"x": -2.4847177439,
				"y": 0.0668706074,
				"z": -1.3244533924,
				"element": "H" 
			},
			{
				"x": -4.2192366624,
				"y": 0.6379996774,
				"z": -3.0179627341,
				"element": "H" 
			},
			{
				"x": -3.5774857458,
				"y": 1.8619449982,
				"z": -5.0865096324,
				"element": "H" 
			},
			{
				"x": -1.2030769502,
				"y": 2.4985852457,
				"z": -5.4564183866,
				"element": "H" 
			},
			{
				"x": 0.5096711521,
				"y": 1.9214949739,
				"z": -3.7967379129,
				"element": "H" 
			},
			{
				"x": 4.1027018168,
				"y": 1.2563905909,
				"z": -0.3127989005,
				"element": "H" 
			},
			{
				"x": 4.62292306,
				"y": 0.0529865404,
				"z": 1.8126588844,
				"element": "H" 
			}
		],
		 "valence_orbital": [ 
			{
				"type": "occ",
				"energy": -0.28876,
				"method": "rhf"
			},
			{
				"type": "occ",
				"energy": -0.28516,
				"method": "rhf"
			},
			{
				"type": "occ",
				"energy": -0.26911,
				"method": "rhf"
			},
			{
				"type": "occ",
				"energy": -0.25204,
				"method": "rhf"
			},
			{
				"type": "occ",
				"energy": -0.2313,
				"method": "rhf"
			},
			{
				"type": "unocc",
				"energy": -0.06184,
				"method": "rhf"
			},
			{
				"type": "unocc",
				"energy": -0.02704,
				"method": "rhf"
			},
			{
				"type": "unocc",
				"energy": -0.01753,
				"method": "rhf"
			},
			{
				"type": "unocc",
				"energy": -0.00432,
				"method": "rhf"
			},
			{
				"type": "unocc",
				"energy": 0.04613,
				"method": "rhf"
			}
		],
		"cosmo_sigma_profile": { 
			"-0.025": 0.0,
			"-0.024": 0.0,
			"-0.023": 0.0,
			"-0.022": 0.0,
			"-0.021": 0.0,
			"-0.02": 0.292675372674,
			"-0.019": 0.926953971014,
			"-0.018": 0.624447721384,
			"-0.017": 2.15654447776,
			"-0.016": 2.49362686561,
			"-0.015": 2.3786772149,
			"-0.014": 2.01724484782,
			"-0.013": 1.67684926333,
			"-0.012": 2.22545082098,
			"-0.011": 2.44857231906,
			"-0.01": 1.66956256613,
			"-0.009": 3.59241374171,
			"-0.008": 4.80672531406,
			"-0.007": 7.18543165115,
			"-0.006": 13.8967748233,
			"-0.005": 15.7860169216,
			"-0.004": 16.0793221316,
			"-0.003": 13.2225189126,
			"-0.002": 12.8919532154,
			"-0.001": 16.3202879719,
			"0.0": 18.9331708682,
			"0.001": 21.2934975871,
			"0.002": 26.3594412031,
			"0.003": 19.9169137703,
			"0.004": 18.5355192077,
			"0.005": 9.62294302283,
			"0.006": 5.42356092707,
			"0.007": 6.42079936739,
			"0.008": 6.56819857152,
			"0.009": 9.66902572485,
			"0.01": 12.0546665545,
			"0.011": 5.41515561868,
			"0.012": 1.1968105165,
			"0.013": 0.716352246822,
			"0.014": 0.998270994642,
			"0.015": 0.157137263929,
			"0.016": 0.0,
			"0.017": 0.0,
			"0.018": 0.0,
			"0.019": 0.0,
			"0.02": 0.0,
			"0.021": 0.0,
			"0.022": 0.0,
			"0.023": 0.0,
			"0.024": 0.0,
			"0.025": 0.0
		}
	}
}
