{
	 "smiles": "CC1=NC(N)=NC(Cl)=C1CC1=CC=CC=C1", 
	 "Tm": 468.15, 
	 "num_atms": 28, 
	 "gaussian": { 
		 "optdone": 1, 
		 "sigma_profile": "yes", 
		 "theory": "DFT", 
		 "functional": "B3LYP", 
		 "basiset": "6-31G**", 
		 "properties": { 
			 "R2extent": 4510.0148, 
			 "electric_dipole_moment_norm": 2.14122922173, 
			 "electric_quadrupole_moment_norm": 10.8356119684, 
			 "total_energy": -1088.98545894, 
			 "HOMO_LUMO_gap": 0.19382, 
			 "cosmo_polarized_energy": -11.05, 
			 "cosmo_cavitation_energy": 33.4, 
			 "cosmo_dispersion_energy": -23.82, 
			 "cosmo_repulsion_energy": 1.87, 
			 "cosmo_total_nonelectrostatic_energy": 11.46, 
			 "SMD_solvation_energy": 2.43 
		},
		"coords": [
			{
				"x": -0.5230296611,
				"y": 2.5542918061,
				"z": -1.4974210651,
				"element": "C" 
			},
			{
				"x": -1.4219471672,
				"y": 1.3780076409,
				"z": -1.216731152,
				"element": "C" 
			},
			{
				"x": -2.2440417718,
				"y": 1.01953724,
				"z": -2.2068725182,
				"element": "N" 
			},
			{
				"x": -3.0617506062,
				"y": -0.0205195805,
				"z": -1.9689067306,
				"element": "C" 
			},
			{
				"x": -3.931137901,
				"y": -0.3681058952,
				"z": -2.9587253834,
				"element": "N" 
			},
			{
				"x": -3.1168857236,
				"y": -0.7362033156,
				"z": -0.8314142762,
				"element": "N" 
			},
			{
				"x": -2.2903247255,
				"y": -0.3533374354,
				"z": 0.1212609994,
				"element": "C" 
			},
			{
				"x": -2.383773978,
				"y": -1.317041425,
				"z": 1.6053132622,
				"element": "Cl" 
			},
			{
				"x": -1.3865757904,
				"y": 0.7118700789,
				"z": 0.0322832975,
				"element": "C" 
			},
			{
				"x": -0.4518423164,
				"y": 1.1396926819,
				"z": 1.1424900679,
				"element": "C" 
			},
			{
				"x": 1.0064149634,
				"y": 0.7295910715,
				"z": 0.9624637902,
				"element": "C" 
			},
			{
				"x": 2.0341813547,
				"y": 1.6423181016,
				"z": 1.2323422347,
				"element": "C" 
			},
			{
				"x": 3.3750875969,
				"y": 1.2703356681,
				"z": 1.1143737593,
				"element": "C" 
			},
			{
				"x": 3.7087951665,
				"y": -0.0257007652,
				"z": 0.7206355709,
				"element": "C" 
			},
			{
				"x": 2.6925235432,
				"y": -0.9441234618,
				"z": 0.4474463728,
				"element": "C" 
			},
			{
				"x": 1.354197137,
				"y": -0.5693578474,
				"z": 0.5662451627,
				"element": "C" 
			},
			{
				"x": 0.5269358217,
				"y": 2.3046057117,
				"z": -1.3170615074,
				"element": "H" 
			},
			{
				"x": -0.7699812014,
				"y": 3.3986464562,
				"z": -0.8423602115,
				"element": "H" 
			},
			{
				"x": -0.6519578814,
				"y": 2.8680736795,
				"z": -2.5335961599,
				"element": "H" 
			},
			{
				"x": -4.4083909882,
				"y": -1.2509435354,
				"z": -2.8760968762,
				"element": "H" 
			},
			{
				"x": -3.7739554092,
				"y": 0.0222593072,
				"z": -3.8734374892,
				"element": "H" 
			},
			{
				"x": -0.4958964472,
				"y": 2.2292805691,
				"z": 1.2512053848,
				"element": "H" 
			},
			{
				"x": -0.8201166786,
				"y": 0.72803789,
				"z": 2.0872182504,
				"element": "H" 
			},
			{
				"x": 1.7819690894,
				"y": 2.6544994335,
				"z": 1.5405433967,
				"element": "H" 
			},
			{
				"x": 4.1563324714,
				"y": 1.9949670629,
				"z": 1.3266440155,
				"element": "H" 
			},
			{
				"x": 4.7505965478,
				"y": -0.3179997012,
				"z": 0.6256493717,
				"element": "H" 
			},
			{
				"x": 2.941948499,
				"y": -1.9561435126,
				"z": 0.140716362,
				"element": "H" 
			},
			{
				"x": 0.5723260564,
				"y": -1.2918379237,
				"z": 0.3509920709,
				"element": "H" 
			}
		],
		 "valence_orbital": [ 
			{
				"type": "occ",
				"energy": -0.28888,
				"method": "rhf"
			},
			{
				"type": "occ",
				"energy": -0.25391,
				"method": "rhf"
			},
			{
				"type": "occ",
				"energy": -0.24952,
				"method": "rhf"
			},
			{
				"type": "occ",
				"energy": -0.24328,
				"method": "rhf"
			},
			{
				"type": "occ",
				"energy": -0.22544,
				"method": "rhf"
			},
			{
				"type": "unocc",
				"energy": -0.03162,
				"method": "rhf"
			},
			{
				"type": "unocc",
				"energy": -0.00823,
				"method": "rhf"
			},
			{
				"type": "unocc",
				"energy": -0.002,
				"method": "rhf"
			},
			{
				"type": "unocc",
				"energy": 0.00355,
				"method": "rhf"
			},
			{
				"type": "unocc",
				"energy": 0.03551,
				"method": "rhf"
			}
		],
		"cosmo_sigma_profile": { 
			"-0.025": 0.0,
			"-0.024": 0.0,
			"-0.023": 0.0,
			"-0.022": 0.0,
			"-0.021": 0.0,
			"-0.02": 0.0,
			"-0.019": 0.0,
			"-0.018": 0.0,
			"-0.017": 0.0,
			"-0.016": 0.0,
			"-0.015": 0.0,
			"-0.014": 1.27632944272,
			"-0.013": 2.27471002738,
			"-0.012": 1.79192211555,
			"-0.011": 1.9964609438,
			"-0.01": 2.26795806624,
			"-0.009": 1.9311815018,
			"-0.008": 1.96390487781,
			"-0.007": 1.1188133831,
			"-0.006": 6.49982388404,
			"-0.005": 16.4249245805,
			"-0.004": 16.7398950654,
			"-0.003": 22.2540909919,
			"-0.002": 22.955382656,
			"-0.001": 29.917949556,
			"0.0": 25.4331200423,
			"0.001": 19.7446357987,
			"0.002": 16.2973829179,
			"0.003": 15.781887787,
			"0.004": 16.6299769702,
			"0.005": 15.0701293213,
			"0.006": 11.4394540458,
			"0.007": 5.52609346387,
			"0.008": 2.69725754163,
			"0.009": 2.66590118626,
			"0.01": 2.27438536702,
			"0.011": 2.05436019794,
			"0.012": 1.40244537392,
			"0.013": 1.62128940505,
			"0.014": 0.349510302799,
			"0.015": 0.0,
			"0.016": 0.0,
			"0.017": 0.0,
			"0.018": 0.0,
			"0.019": 0.0,
			"0.02": 0.0,
			"0.021": 0.0,
			"0.022": 0.0,
			"0.023": 0.0,
			"0.024": 0.0,
			"0.025": 0.0
		}
	}
}
