{
	 "smiles": "NC1=CC=C(SCC(O)=O)C=C1", 
	 "Tm": 471.15, 
	 "num_atms": 21, 
	 "gaussian": { 
		 "optdone": 1, 
		 "sigma_profile": "yes", 
		 "theory": "DFT", 
		 "functional": "B3LYP", 
		 "basiset": "6-31G**", 
		 "properties": { 
			 "R2extent": 3011.8915, 
			 "electric_dipole_moment_norm": 4.73113083417, 
			 "electric_quadrupole_moment_norm": 17.6990351683, 
			 "total_energy": -913.672725362, 
			 "HOMO_LUMO_gap": 0.19858, 
			 "cosmo_polarized_energy": -16.36, 
			 "cosmo_cavitation_energy": 26.83, 
			 "cosmo_dispersion_energy": -19.93, 
			 "cosmo_repulsion_energy": 1.57, 
			 "cosmo_total_nonelectrostatic_energy": 8.47, 
			 "SMD_solvation_energy": 5.4 
		},
		"coords": [
			{
				"x": -1.0493511395,
				"y": -3.4896062478,
				"z": -0.1016916919,
				"element": "N" 
			},
			{
				"x": -0.3490574334,
				"y": -2.2921991162,
				"z": -0.0633791016,
				"element": "C" 
			},
			{
				"x": -0.7839614057,
				"y": -1.2307473136,
				"z": 0.7530729615,
				"element": "C" 
			},
			{
				"x": -0.0515216516,
				"y": -0.0530220315,
				"z": 0.8369045134,
				"element": "C" 
			},
			{
				"x": 1.1284492189,
				"y": 0.1100133138,
				"z": 0.0959757052,
				"element": "C" 
			},
			{
				"x": 2.1170541911,
				"y": 1.6028898529,
				"z": 0.2023082786,
				"element": "S" 
			},
			{
				"x": 1.1584862931,
				"y": 2.7796953781,
				"z": -0.8394233184,
				"element": "C" 
			},
			{
				"x": -0.0776600945,
				"y": 3.4081791831,
				"z": -0.1827790264,
				"element": "C" 
			},
			{
				"x": -0.0943994893,
				"y": 3.4234750427,
				"z": 1.1655750571,
				"element": "O" 
			},
			{
				"x": -0.9635540287,
				"y": 3.8978451437,
				"z": -0.838352614,
				"element": "O" 
			},
			{
				"x": 1.5655222375,
				"y": -0.9453851502,
				"z": -0.7164454801,
				"element": "C" 
			},
			{
				"x": 0.8419295607,
				"y": -2.1298780577,
				"z": -0.7952285062,
				"element": "C" 
			},
			{
				"x": -2.0216927013,
				"y": -3.4477334252,
				"z": 0.1674332926,
				"element": "H" 
			},
			{
				"x": -0.8888354927,
				"y": -4.076368451,
				"z": -0.9076080904,
				"element": "H" 
			},
			{
				"x": -1.6983598592,
				"y": -1.3385058901,
				"z": 1.3307677973,
				"element": "H" 
			},
			{
				"x": -0.4104363123,
				"y": 0.7505584504,
				"z": 1.471826533,
				"element": "H" 
			},
			{
				"x": 1.8525506361,
				"y": 3.591094739,
				"z": -1.086639841,
				"element": "H" 
			},
			{
				"x": 0.8522700323,
				"y": 2.3071704298,
				"z": -1.7734840951,
				"element": "H" 
			},
			{
				"x": 0.697904155,
				"y": 2.9456215566,
				"z": 1.483414527,
				"element": "H" 
			},
			{
				"x": 2.4801070941,
				"y": -0.8353999978,
				"z": -1.2909427915,
				"element": "H" 
			},
			{
				"x": 1.1980561895,
				"y": -2.939797409,
				"z": -1.426804109,
				"element": "H" 
			}
		],
		 "valence_orbital": [ 
			{
				"type": "occ",
				"energy": -0.30992,
				"method": "rhf"
			},
			{
				"type": "occ",
				"energy": -0.2797,
				"method": "rhf"
			},
			{
				"type": "occ",
				"energy": -0.26306,
				"method": "rhf"
			},
			{
				"type": "occ",
				"energy": -0.24559,
				"method": "rhf"
			},
			{
				"type": "occ",
				"energy": -0.21648,
				"method": "rhf"
			},
			{
				"type": "unocc",
				"energy": -0.0179,
				"method": "rhf"
			},
			{
				"type": "unocc",
				"energy": -0.01248,
				"method": "rhf"
			},
			{
				"type": "unocc",
				"energy": 0.0128,
				"method": "rhf"
			},
			{
				"type": "unocc",
				"energy": 0.03998,
				"method": "rhf"
			},
			{
				"type": "unocc",
				"energy": 0.05872,
				"method": "rhf"
			}
		],
		"cosmo_sigma_profile": { 
			"-0.025": 0.0,
			"-0.024": 0.0,
			"-0.023": 0.0,
			"-0.022": 0.0,
			"-0.021": 0.0,
			"-0.02": 0.0,
			"-0.019": 0.0,
			"-0.018": 0.0,
			"-0.017": 0.0,
			"-0.016": 0.0,
			"-0.015": 0.0,
			"-0.014": 0.00040123746627,
			"-0.013": 1.546739516,
			"-0.012": 3.70387793181,
			"-0.011": 3.2935309227,
			"-0.01": 5.65028979454,
			"-0.009": 7.64773474386,
			"-0.008": 7.43232031681,
			"-0.007": 7.74199359164,
			"-0.006": 9.95966548738,
			"-0.005": 11.5030238808,
			"-0.004": 12.1705490701,
			"-0.003": 11.2598633007,
			"-0.002": 10.4201620209,
			"-0.001": 10.2846652992,
			"0.0": 9.90531947375,
			"0.001": 11.2891371258,
			"0.002": 10.7804038651,
			"0.003": 11.2364415648,
			"0.004": 12.8371948371,
			"0.005": 17.2929327595,
			"0.006": 7.45675081004,
			"0.007": 4.06754075498,
			"0.008": 3.14313010795,
			"0.009": 5.39702531274,
			"0.01": 5.41388003445,
			"0.011": 5.38171841168,
			"0.012": 6.16041646073,
			"0.013": 1.93580103082,
			"0.014": 0.0990615834419,
			"0.015": 0.0,
			"0.016": 0.0,
			"0.017": 0.0,
			"0.018": 0.0,
			"0.019": 0.0,
			"0.02": 0.0,
			"0.021": 0.0,
			"0.022": 0.0,
			"0.023": 0.0,
			"0.024": 0.0,
			"0.025": 0.0
		}
	}
}
