{
	 "smiles": "[O-][N+](=O)C1=CC=C(C=C1)C1=NC(=C(N1)C1=CC=CC=C1)C1=CC=CC=C1", 
	 "Tm": 517.15, 
	 "num_atms": 41, 
	 "gaussian": { 
		 "optdone": 1, 
		 "sigma_profile": "yes", 
		 "theory": "DFT", 
		 "functional": "B3LYP", 
		 "basiset": "6-31G**", 
		 "properties": { 
			 "R2extent": 13745.4895, 
			 "electric_dipole_moment_norm": 6.97573005068, 
			 "electric_quadrupole_moment_norm": 31.626024613, 
			 "total_energy": -1123.90380495, 
			 "HOMO_LUMO_gap": 0.11485, 
			 "cosmo_polarized_energy": -19.07, 
			 "cosmo_cavitation_energy": 46.69, 
			 "cosmo_dispersion_energy": -33.0, 
			 "cosmo_repulsion_energy": 2.46, 
			 "cosmo_total_nonelectrostatic_energy": 16.15, 
			 "SMD_solvation_energy": 8.32 
		},
		"coords": [
			{
				"x": 0.7790620275,
				"y": 5.7034765505,
				"z": 4.5292791666,
				"element": "O" 
			},
			{
				"x": 1.6258139223,
				"y": 5.2516218679,
				"z": 3.7574454461,
				"element": "N" 
			},
			{
				"x": 2.8130198037,
				"y": 5.5821883448,
				"z": 3.7489705744,
				"element": "O" 
			},
			{
				"x": 1.1907290216,
				"y": 4.2494034434,
				"z": 2.7800660027,
				"element": "C" 
			},
			{
				"x": 2.1259409087,
				"y": 3.7198006961,
				"z": 1.8921333893,
				"element": "C" 
			},
			{
				"x": 1.7101274001,
				"y": 2.77011446,
				"z": 0.9676690897,
				"element": "C" 
			},
			{
				"x": 0.3693503774,
				"y": 2.3425032871,
				"z": 0.9252165367,
				"element": "C" 
			},
			{
				"x": -0.5519156681,
				"y": 2.9005780816,
				"z": 1.8337483902,
				"element": "C" 
			},
			{
				"x": -0.1474698202,
				"y": 3.8509976023,
				"z": 2.7593249435,
				"element": "C" 
			},
			{
				"x": -0.1036408189,
				"y": 1.3425244941,
				"z": -0.0263110366,
				"element": "C" 
			},
			{
				"x": -1.3651526258,
				"y": 0.9695920561,
				"z": -0.1755823724,
				"element": "N" 
			},
			{
				"x": -1.3880819394,
				"y": 0.0166409564,
				"z": -1.1634070737,
				"element": "C" 
			},
			{
				"x": -0.0884955916,
				"y": -0.2144857751,
				"z": -1.6281307826,
				"element": "C" 
			},
			{
				"x": 0.6989305237,
				"y": 0.6579362734,
				"z": -0.9025778491,
				"element": "N" 
			},
			{
				"x": 0.5188103671,
				"y": -1.1392549011,
				"z": -2.5935817945,
				"element": "C" 
			},
			{
				"x": 0.0892064661,
				"y": -2.4754193938,
				"z": -2.6876233058,
				"element": "C" 
			},
			{
				"x": 0.7018355944,
				"y": -3.3543721684,
				"z": -3.5774650869,
				"element": "C" 
			},
			{
				"x": 1.7602388268,
				"y": -2.9239682341,
				"z": -4.3821877869,
				"element": "C" 
			},
			{
				"x": 2.1987651639,
				"y": -1.6018728771,
				"z": -4.2950195172,
				"element": "C" 
			},
			{
				"x": 1.5822171684,
				"y": -0.7159819899,
				"z": -3.4122309422,
				"element": "C" 
			},
			{
				"x": -2.6715606169,
				"y": -0.5650463224,
				"z": -1.5965634254,
				"element": "C" 
			},
			{
				"x": -2.8925312556,
				"y": -0.9967186784,
				"z": -2.9152608165,
				"element": "C" 
			},
			{
				"x": -4.1271287163,
				"y": -1.5237516333,
				"z": -3.291980901,
				"element": "C" 
			},
			{
				"x": -5.1655233756,
				"y": -1.6207995187,
				"z": -2.363556407,
				"element": "C" 
			},
			{
				"x": -4.9612511462,
				"y": -1.1789762003,
				"z": -1.0543002413,
				"element": "C" 
			},
			{
				"x": -3.7281477524,
				"y": -0.6538342198,
				"z": -0.6741085265,
				"element": "C" 
			},
			{
				"x": 3.1528897285,
				"y": 4.0595765796,
				"z": 1.9371367784,
				"element": "H" 
			},
			{
				"x": 2.4417373503,
				"y": 2.373341085,
				"z": 0.2699727315,
				"element": "H" 
			},
			{
				"x": -1.583216628,
				"y": 2.5701444905,
				"z": 1.7905730731,
				"element": "H" 
			},
			{
				"x": -0.8424785308,
				"y": 4.2890240278,
				"z": 3.4646739217,
				"element": "H" 
			},
			{
				"x": 1.7070678559,
				"y": 0.6667644746,
				"z": -0.9346692132,
				"element": "H" 
			},
			{
				"x": -0.7203644265,
				"y": -2.8196266699,
				"z": -2.0530495351,
				"element": "H" 
			},
			{
				"x": 0.358862866,
				"y": -4.3833286568,
				"z": -3.6345871826,
				"element": "H" 
			},
			{
				"x": 2.2376832512,
				"y": -3.6134752455,
				"z": -5.071949077,
				"element": "H" 
			},
			{
				"x": 3.0147841853,
				"y": -1.2549634797,
				"z": -4.9223216005,
				"element": "H" 
			},
			{
				"x": 1.9082097393,
				"y": 0.3203961016,
				"z": -3.3769278921,
				"element": "H" 
			},
			{
				"x": -2.1016517212,
				"y": -0.9047289015,
				"z": -3.6520333185,
				"element": "H" 
			},
			{
				"x": -4.2810020592,
				"y": -1.8482069304,
				"z": -4.3173432164,
				"element": "H" 
			},
			{
				"x": -6.1271538823,
				"y": -2.0301352408,
				"z": -2.6594869877,
				"element": "H" 
			},
			{
				"x": -5.7652359894,
				"y": -1.243617707,
				"z": -0.326438505,
				"element": "H" 
			},
			{
				"x": -3.5665799835,
				"y": -0.3008601288,
				"z": 0.3387843496,
				"element": "H" 
			}
		],
		 "valence_orbital": [ 
			{
				"type": "occ",
				"energy": -0.27144,
				"method": "rhf"
			},
			{
				"type": "occ",
				"energy": -0.2682,
				"method": "rhf"
			},
			{
				"type": "occ",
				"energy": -0.25196,
				"method": "rhf"
			},
			{
				"type": "occ",
				"energy": -0.24821,
				"method": "rhf"
			},
			{
				"type": "occ",
				"energy": -0.20672,
				"method": "rhf"
			},
			{
				"type": "unocc",
				"energy": -0.09187,
				"method": "rhf"
			},
			{
				"type": "unocc",
				"energy": -0.04404,
				"method": "rhf"
			},
			{
				"type": "unocc",
				"energy": -0.02617,
				"method": "rhf"
			},
			{
				"type": "unocc",
				"energy": -0.02326,
				"method": "rhf"
			},
			{
				"type": "unocc",
				"energy": -0.02011,
				"method": "rhf"
			}
		],
		"cosmo_sigma_profile": { 
			"-0.025": 0.0,
			"-0.024": 0.0,
			"-0.023": 0.0,
			"-0.022": 0.0,
			"-0.021": 0.0,
			"-0.02": 0.0,
			"-0.019": 0.0,
			"-0.018": 0.0,
			"-0.017": 0.466269532336,
			"-0.016": 1.16570388979,
			"-0.015": 1.49251502892,
			"-0.014": 1.30797577375,
			"-0.013": 1.12263348704,
			"-0.012": 1.66471212289,
			"-0.011": 1.95038770132,
			"-0.01": 1.09024535907,
			"-0.009": 2.18812744116,
			"-0.008": 3.11478510443,
			"-0.007": 6.3754681152,
			"-0.006": 17.3964156749,
			"-0.005": 25.471743894,
			"-0.004": 28.2809094439,
			"-0.003": 25.1288641967,
			"-0.002": 23.6242540743,
			"-0.001": 26.1436485569,
			"0.0": 30.1092304099,
			"0.001": 35.9738918469,
			"0.002": 31.0857755644,
			"0.003": 20.5643235771,
			"0.004": 23.0345408762,
			"0.005": 22.3103577045,
			"0.006": 12.5737937143,
			"0.007": 8.14024407998,
			"0.008": 11.3420740582,
			"0.009": 5.77044905806,
			"0.01": 4.87806602616,
			"0.011": 1.08094263723,
			"0.012": 0.817794535947,
			"0.013": 0.592791098473,
			"0.014": 0.0,
			"0.015": 0.0,
			"0.016": 0.0,
			"0.017": 0.0,
			"0.018": 0.0,
			"0.019": 0.0,
			"0.02": 0.0,
			"0.021": 0.0,
			"0.022": 0.0,
			"0.023": 0.0,
			"0.024": 0.0,
			"0.025": 0.0
		}
	}
}
