{
	 "smiles": "CCCNC(=O)NNC(=O)OCC", 
	 "Tm": 368.15, 
	 "num_atms": 28, 
	 "gaussian": { 
		 "optdone": 1, 
		 "sigma_profile": "yes", 
		 "theory": "DFT", 
		 "functional": "B3LYP", 
		 "basiset": "6-31G**", 
		 "properties": { 
			 "R2extent": 3360.5852, 
			 "electric_dipole_moment_norm": 2.20456911436, 
			 "electric_quadrupole_moment_norm": 15.5835338913, 
			 "total_energy": -665.72725671, 
			 "HOMO_LUMO_gap": 0.28142, 
			 "cosmo_polarized_energy": -16.95, 
			 "cosmo_cavitation_energy": 31.4, 
			 "cosmo_dispersion_energy": -21.68, 
			 "cosmo_repulsion_energy": 1.8, 
			 "cosmo_total_nonelectrostatic_energy": 11.52, 
			 "SMD_solvation_energy": 7.85 
		},
		"coords": [
			{
				"x": -2.5496415288,
				"y": -1.4942638746,
				"z": -1.6443256731,
				"element": "C" 
			},
			{
				"x": -1.6457002134,
				"y": -1.0624060103,
				"z": -0.4859797367,
				"element": "C" 
			},
			{
				"x": -0.2584522297,
				"y": -1.7171695477,
				"z": -0.5142581243,
				"element": "C" 
			},
			{
				"x": 0.5102379266,
				"y": -1.421559658,
				"z": -1.7302270781,
				"element": "N" 
			},
			{
				"x": 1.74546878,
				"y": -0.8287655325,
				"z": -1.8078506414,
				"element": "C" 
			},
			{
				"x": 2.552378809,
				"y": -1.0752385873,
				"z": -2.6951048014,
				"element": "O" 
			},
			{
				"x": 2.0845199963,
				"y": 0.1044229955,
				"z": -0.8089299408,
				"element": "N" 
			},
			{
				"x": 1.134614417,
				"y": 0.9722035888,
				"z": -0.2965124031,
				"element": "N" 
			},
			{
				"x": 0.9372011888,
				"y": 1.1889095563,
				"z": 1.0516772334,
				"element": "C" 
			},
			{
				"x": 0.2237675144,
				"y": 2.0864773704,
				"z": 1.4603711357,
				"element": "O" 
			},
			{
				"x": 1.5852727475,
				"y": 0.2852547498,
				"z": 1.8128404626,
				"element": "O" 
			},
			{
				"x": 1.4224818585,
				"y": 0.4470467709,
				"z": 3.2440173382,
				"element": "C" 
			},
			{
				"x": 2.4114190046,
				"y": 1.4577794484,
				"z": 3.8023904025,
				"element": "C" 
			},
			{
				"x": -2.7098116958,
				"y": -2.5793538617,
				"z": -1.6433620551,
				"element": "H" 
			},
			{
				"x": -2.1115645115,
				"y": -1.2194034751,
				"z": -2.6096408149,
				"element": "H" 
			},
			{
				"x": -3.5313940329,
				"y": -1.0152549317,
				"z": -1.5794597873,
				"element": "H" 
			},
			{
				"x": -2.1190139841,
				"y": -1.3226117366,
				"z": 0.4698484088,
				"element": "H" 
			},
			{
				"x": -1.5259916198,
				"y": 0.0265099464,
				"z": -0.4899616778,
				"element": "H" 
			},
			{
				"x": 0.3296676701,
				"y": -1.4114291222,
				"z": 0.3522397845,
				"element": "H" 
			},
			{
				"x": -0.3714512433,
				"y": -2.8080382632,
				"z": -0.4476290334,
				"element": "H" 
			},
			{
				"x": 0.3997979326,
				"y": -2.0725535272,
				"z": -2.4954944957,
				"element": "H" 
			},
			{
				"x": 2.9801122173,
				"y": 0.5286659676,
				"z": -1.030307115,
				"element": "H" 
			},
			{
				"x": 0.7655738278,
				"y": 1.7060936784,
				"z": -0.8903056423,
				"element": "H" 
			},
			{
				"x": 1.5998528621,
				"y": -0.5529740076,
				"z": 3.6461568831,
				"element": "H" 
			},
			{
				"x": 0.3923591208,
				"y": 0.746260642,
				"z": 3.4502228923,
				"element": "H" 
			},
			{
				"x": 2.3191794561,
				"y": 1.5029574518,
				"z": 4.8926722258,
				"element": "H" 
			},
			{
				"x": 2.2084695015,
				"y": 2.4534396548,
				"z": 3.4004845354,
				"element": "H" 
			},
			{
				"x": 3.4391462283,
				"y": 1.1752003146,
				"z": 3.556027718,
				"element": "H" 
			}
		],
		 "valence_orbital": [ 
			{
				"type": "occ",
				"energy": -0.29344,
				"method": "rhf"
			},
			{
				"type": "occ",
				"energy": -0.28623,
				"method": "rhf"
			},
			{
				"type": "occ",
				"energy": -0.26994,
				"method": "rhf"
			},
			{
				"type": "occ",
				"energy": -0.26029,
				"method": "rhf"
			},
			{
				"type": "occ",
				"energy": -0.24492,
				"method": "rhf"
			},
			{
				"type": "unocc",
				"energy": 0.0365,
				"method": "rhf"
			},
			{
				"type": "unocc",
				"energy": 0.03962,
				"method": "rhf"
			},
			{
				"type": "unocc",
				"energy": 0.06996,
				"method": "rhf"
			},
			{
				"type": "unocc",
				"energy": 0.09136,
				"method": "rhf"
			},
			{
				"type": "unocc",
				"energy": 0.10462,
				"method": "rhf"
			}
		],
		"cosmo_sigma_profile": { 
			"-0.025": 0.0,
			"-0.024": 0.0,
			"-0.023": 0.0,
			"-0.022": 0.0,
			"-0.021": 0.0,
			"-0.02": 0.0,
			"-0.019": 0.0,
			"-0.018": 0.0,
			"-0.017": 0.0,
			"-0.016": 0.0,
			"-0.015": 0.628194089832,
			"-0.014": 1.78662494008,
			"-0.013": 2.76520912735,
			"-0.012": 2.71734523004,
			"-0.011": 3.8048072953,
			"-0.01": 3.16302842628,
			"-0.009": 3.18211376987,
			"-0.008": 2.59290448705,
			"-0.007": 1.99188051664,
			"-0.006": 5.63591050408,
			"-0.005": 8.57466827088,
			"-0.004": 15.826638744,
			"-0.003": 25.1473380529,
			"-0.002": 30.2669135062,
			"-0.001": 26.2734535109,
			"0.0": 24.8455815791,
			"0.001": 19.2586047541,
			"0.002": 9.38827480584,
			"0.003": 6.00014289299,
			"0.004": 5.31316253311,
			"0.005": 4.71614236686,
			"0.006": 3.41462765162,
			"0.007": 3.38885362579,
			"0.008": 3.67089385582,
			"0.009": 2.80556816183,
			"0.01": 3.20664262635,
			"0.011": 3.28869888463,
			"0.012": 6.42445107734,
			"0.013": 7.52155623804,
			"0.014": 6.42169626821,
			"0.015": 0.736491968027,
			"0.016": 0.0,
			"0.017": 0.0,
			"0.018": 0.0,
			"0.019": 0.0,
			"0.02": 0.0,
			"0.021": 0.0,
			"0.022": 0.0,
			"0.023": 0.0,
			"0.024": 0.0,
			"0.025": 0.0
		}
	}
}
