{
	 "smiles": "CC(Cl)C(=O)NC1=CC(=CC=C1)[N+]([O-])=O", 
	 "Tm": 389.15, 
	 "num_atms": 24, 
	 "gaussian": { 
		 "optdone": 1, 
		 "sigma_profile": "yes", 
		 "theory": "DFT", 
		 "functional": "B3LYP", 
		 "basiset": "6-31G**", 
		 "properties": { 
			 "R2extent": 5150.9922, 
			 "electric_dipole_moment_norm": 5.63830666247, 
			 "electric_quadrupole_moment_norm": 16.2158480716, 
			 "total_energy": -1143.67447905, 
			 "HOMO_LUMO_gap": 0.16232, 
			 "cosmo_polarized_energy": -14.85, 
			 "cosmo_cavitation_energy": 30.86, 
			 "cosmo_dispersion_energy": -22.4, 
			 "cosmo_repulsion_energy": 1.75, 
			 "cosmo_total_nonelectrostatic_energy": 10.21, 
			 "SMD_solvation_energy": 7.69 
		},
		"coords": [
			{
				"x": -0.9085501452,
				"y": -2.1472355551,
				"z": -3.4012137653,
				"element": "C" 
			},
			{
				"x": -0.1573595207,
				"y": -2.7810216593,
				"z": -2.2339290064,
				"element": "C" 
			},
			{
				"x": 1.5516614015,
				"y": -3.2172087118,
				"z": -2.750867956,
				"element": "Cl" 
			},
			{
				"x": -0.2360300439,
				"y": -1.8892866719,
				"z": -0.9795141689,
				"element": "C" 
			},
			{
				"x": -1.3508522008,
				"y": -1.6569737519,
				"z": -0.5340623577,
				"element": "O" 
			},
			{
				"x": 0.9377006798,
				"y": -1.4151549487,
				"z": -0.4675990849,
				"element": "N" 
			},
			{
				"x": 1.1239726378,
				"y": -0.5854852141,
				"z": 0.6548686975,
				"element": "C" 
			},
			{
				"x": 0.0627511366,
				"y": -0.0925507994,
				"z": 1.4255741431,
				"element": "C" 
			},
			{
				"x": 0.3694252712,
				"y": 0.7212592247,
				"z": 2.5123097332,
				"element": "C" 
			},
			{
				"x": 1.6688256673,
				"y": 1.0684261961,
				"z": 2.8704145311,
				"element": "C" 
			},
			{
				"x": 2.7108734066,
				"y": 0.5685686897,
				"z": 2.0915078543,
				"element": "C" 
			},
			{
				"x": 2.4452331769,
				"y": -0.2488355974,
				"z": 0.9963150046,
				"element": "C" 
			},
			{
				"x": -0.7477888599,
				"y": 1.2427506057,
				"z": 3.3263675634,
				"element": "N" 
			},
			{
				"x": -0.4633471365,
				"y": 1.9589387821,
				"z": 4.2860181092,
				"element": "O" 
			},
			{
				"x": -1.89010086,
				"y": 0.9317079047,
				"z": 2.9976426242,
				"element": "O" 
			},
			{
				"x": -1.9233110307,
				"y": -1.9141787125,
				"z": -3.0692169188,
				"element": "H" 
			},
			{
				"x": -0.4215581892,
				"y": -1.2234248589,
				"z": -3.7248009907,
				"element": "H" 
			},
			{
				"x": -0.9547803849,
				"y": -2.8361922572,
				"z": -4.2468557604,
				"element": "H" 
			},
			{
				"x": -0.6104253975,
				"y": -3.7352497571,
				"z": -1.9593343626,
				"element": "H" 
			},
			{
				"x": 1.7777208719,
				"y": -1.7138153687,
				"z": -0.9467806832,
				"element": "H" 
			},
			{
				"x": -0.9623652411,
				"y": -0.3341251613,
				"z": 1.1890771295,
				"element": "H" 
			},
			{
				"x": 1.8398295226,
				"y": 1.7055951148,
				"z": 3.7279172025,
				"element": "H" 
			},
			{
				"x": 3.7380448543,
				"y": 0.81661394,
				"z": 2.3384161177,
				"element": "H" 
			},
			{
				"x": 3.2677303837,
				"y": -0.6320214325,
				"z": 0.3975463447,
				"element": "H" 
			}
		],
		 "valence_orbital": [ 
			{
				"type": "occ",
				"energy": -0.30557,
				"method": "rhf"
			},
			{
				"type": "occ",
				"energy": -0.28948,
				"method": "rhf"
			},
			{
				"type": "occ",
				"energy": -0.28505,
				"method": "rhf"
			},
			{
				"type": "occ",
				"energy": -0.27733,
				"method": "rhf"
			},
			{
				"type": "occ",
				"energy": -0.25068,
				"method": "rhf"
			},
			{
				"type": "unocc",
				"energy": -0.08836,
				"method": "rhf"
			},
			{
				"type": "unocc",
				"energy": -0.04066,
				"method": "rhf"
			},
			{
				"type": "unocc",
				"energy": -0.00796,
				"method": "rhf"
			},
			{
				"type": "unocc",
				"energy": -0.00333,
				"method": "rhf"
			},
			{
				"type": "unocc",
				"energy": 0.02398,
				"method": "rhf"
			}
		],
		"cosmo_sigma_profile": { 
			"-0.025": 0.0,
			"-0.024": 0.0,
			"-0.023": 0.0,
			"-0.022": 0.0,
			"-0.021": 0.0,
			"-0.02": 0.0,
			"-0.019": 0.0,
			"-0.018": 0.0,
			"-0.017": 0.0,
			"-0.016": 0.0,
			"-0.015": 0.0543678658185,
			"-0.014": 0.784974876906,
			"-0.013": 0.804401043139,
			"-0.012": 1.31930493491,
			"-0.011": 1.2208567431,
			"-0.01": 1.3702734246,
			"-0.009": 3.31841861908,
			"-0.008": 5.62990462704,
			"-0.007": 8.68011266572,
			"-0.006": 12.4712252061,
			"-0.005": 15.8470553444,
			"-0.004": 13.6146662288,
			"-0.003": 14.8975484375,
			"-0.002": 16.217198911,
			"-0.001": 22.9938550125,
			"0.0": 21.7844319154,
			"0.001": 22.242374288,
			"0.002": 15.9858061124,
			"0.003": 8.87202679526,
			"0.004": 9.63463660771,
			"0.005": 11.1601308054,
			"0.006": 6.93759610748,
			"0.007": 9.40744074612,
			"0.008": 8.79418775507,
			"0.009": 5.24715719784,
			"0.01": 4.88296938697,
			"0.011": 2.37688318028,
			"0.012": 2.02175574607,
			"0.013": 0.335809296296,
			"0.014": 0.0,
			"0.015": 0.0,
			"0.016": 0.0,
			"0.017": 0.0,
			"0.018": 0.0,
			"0.019": 0.0,
			"0.02": 0.0,
			"0.021": 0.0,
			"0.022": 0.0,
			"0.023": 0.0,
			"0.024": 0.0,
			"0.025": 0.0
		}
	}
}
