{
	 "smiles": "NC(CN1C=NC2=C1C=CC=C2)C1=CC=C(F)C=C1", 
	 "Tm": 360.15, 
	 "num_atms": 33, 
	 "gaussian": { 
		 "optdone": 1, 
		 "sigma_profile": "yes", 
		 "theory": "DFT", 
		 "functional": "B3LYP", 
		 "basiset": "6-31G**", 
		 "properties": { 
			 "R2extent": 5154.7782, 
			 "electric_dipole_moment_norm": 4.0944391887, 
			 "electric_quadrupole_moment_norm": 15.8305382619, 
			 "total_energy": -844.128063734, 
			 "HOMO_LUMO_gap": 0.20123, 
			 "cosmo_polarized_energy": -16.22, 
			 "cosmo_cavitation_energy": 36.95, 
			 "cosmo_dispersion_energy": -24.77, 
			 "cosmo_repulsion_energy": 1.89, 
			 "cosmo_total_nonelectrostatic_energy": 14.06, 
			 "SMD_solvation_energy": 4.01 
		},
		"coords": [
			{
				"x": -2.7771242392,
				"y": 0.4495413135,
				"z": -2.9100850177,
				"element": "N" 
			},
			{
				"x": -1.6537437888,
				"y": -0.1774127426,
				"z": -2.2044761828,
				"element": "C" 
			},
			{
				"x": -2.0448126949,
				"y": -0.2193175851,
				"z": -0.7034299559,
				"element": "C" 
			},
			{
				"x": -1.1267576346,
				"y": -0.9709851206,
				"z": 0.1340200725,
				"element": "N" 
			},
			{
				"x": -1.1396125644,
				"y": -2.3381487555,
				"z": 0.3237684979,
				"element": "C" 
			},
			{
				"x": -0.2112246976,
				"y": -2.7827435215,
				"z": 1.1302011892,
				"element": "N" 
			},
			{
				"x": 0.4804945212,
				"y": -1.6428287883,
				"z": 1.5200792361,
				"element": "C" 
			},
			{
				"x": -0.0739163746,
				"y": -0.4928183098,
				"z": 0.905800307,
				"element": "C" 
			},
			{
				"x": 0.4292294724,
				"y": 0.7912272499,
				"z": 1.1330851176,
				"element": "C" 
			},
			{
				"x": 1.5103570403,
				"y": 0.8960639815,
				"z": 2.0037244321,
				"element": "C" 
			},
			{
				"x": 2.0739181701,
				"y": -0.2383050523,
				"z": 2.6237115798,
				"element": "C" 
			},
			{
				"x": 1.5707521855,
				"y": -1.5132854718,
				"z": 2.3906712395,
				"element": "C" 
			},
			{
				"x": -0.3762093367,
				"y": 0.6069279533,
				"z": -2.4509123525,
				"element": "C" 
			},
			{
				"x": 0.8503045304,
				"y": -0.0547635742,
				"z": -2.5860084456,
				"element": "C" 
			},
			{
				"x": 2.0354025663,
				"y": 0.6554800852,
				"z": -2.7782667193,
				"element": "C" 
			},
			{
				"x": 1.9769136128,
				"y": 2.0422883032,
				"z": -2.8405628651,
				"element": "C" 
			},
			{
				"x": 3.1164200122,
				"y": 2.7391348726,
				"z": -3.0322406929,
				"element": "F" 
			},
			{
				"x": 0.776060608,
				"y": 2.7336325506,
				"z": -2.7189030845,
				"element": "C" 
			},
			{
				"x": -0.3983194199,
				"y": 2.0080279107,
				"z": -2.5226778638,
				"element": "C" 
			},
			{
				"x": -3.6039847445,
				"y": -0.1405300607,
				"z": -2.8558873269,
				"element": "H" 
			},
			{
				"x": -2.5509670258,
				"y": 0.5551327851,
				"z": -3.8954436623,
				"element": "H" 
			},
			{
				"x": -1.4687450865,
				"y": -1.2209491292,
				"z": -2.5142070068,
				"element": "H" 
			},
			{
				"x": -2.1254284524,
				"y": 0.8008049243,
				"z": -0.3205788191,
				"element": "H" 
			},
			{
				"x": -3.0370522592,
				"y": -0.677275278,
				"z": -0.6110133478,
				"element": "H" 
			},
			{
				"x": -1.8842131526,
				"y": -2.9548502631,
				"z": -0.1661552491,
				"element": "H" 
			},
			{
				"x": 0.0145056369,
				"y": 1.6671503929,
				"z": 0.6452127087,
				"element": "H" 
			},
			{
				"x": 1.9330204898,
				"y": 1.8759130395,
				"z": 2.2057747731,
				"element": "H" 
			},
			{
				"x": 2.9184182677,
				"y": -0.1086712337,
				"z": 3.2941783918,
				"element": "H" 
			},
			{
				"x": 1.9972853026,
				"y": -2.3922338581,
				"z": 2.8632788491,
				"element": "H" 
			},
			{
				"x": 0.8843061819,
				"y": -1.1397008024,
				"z": -2.5368950273,
				"element": "H" 
			},
			{
				"x": 2.9907277763,
				"y": 0.1525951388,
				"z": -2.8806932017,
				"element": "H" 
			},
			{
				"x": 0.7733485386,
				"y": 3.8166763258,
				"z": -2.781314479,
				"element": "H" 
			},
			{
				"x": -1.3484534412,
				"y": 2.5257227202,
				"z": -2.4367550943,
				"element": "H" 
			}
		],
		 "valence_orbital": [ 
			{
				"type": "occ",
				"energy": -0.26303,
				"method": "rhf"
			},
			{
				"type": "occ",
				"energy": -0.25969,
				"method": "rhf"
			},
			{
				"type": "occ",
				"energy": -0.24405,
				"method": "rhf"
			},
			{
				"type": "occ",
				"energy": -0.22088,
				"method": "rhf"
			},
			{
				"type": "occ",
				"energy": -0.21658,
				"method": "rhf"
			},
			{
				"type": "unocc",
				"energy": -0.01535,
				"method": "rhf"
			},
			{
				"type": "unocc",
				"energy": -0.01046,
				"method": "rhf"
			},
			{
				"type": "unocc",
				"energy": -0.00596,
				"method": "rhf"
			},
			{
				"type": "unocc",
				"energy": 0.02668,
				"method": "rhf"
			},
			{
				"type": "unocc",
				"energy": 0.05389,
				"method": "rhf"
			}
		],
		"cosmo_sigma_profile": { 
			"-0.025": 0.0,
			"-0.024": 0.0,
			"-0.023": 0.0,
			"-0.022": 0.0,
			"-0.021": 0.0,
			"-0.02": 0.0,
			"-0.019": 0.0,
			"-0.018": 0.0,
			"-0.017": 0.0,
			"-0.016": 0.0,
			"-0.015": 0.0,
			"-0.014": 0.0,
			"-0.013": 0.0,
			"-0.012": 0.0,
			"-0.011": 0.496353158611,
			"-0.01": 3.22200235591,
			"-0.009": 5.94457882233,
			"-0.008": 6.96551437028,
			"-0.007": 9.80422043747,
			"-0.006": 13.8689789556,
			"-0.005": 21.8049671278,
			"-0.004": 25.2102813315,
			"-0.003": 21.6978500003,
			"-0.002": 17.6903182992,
			"-0.001": 16.0632464824,
			"0.0": 14.3361927989,
			"0.001": 20.5186174625,
			"0.002": 18.5224395469,
			"0.003": 20.1616521976,
			"0.004": 24.9890166946,
			"0.005": 20.9303385677,
			"0.006": 11.0145712943,
			"0.007": 3.9064199299,
			"0.008": 2.01879019091,
			"0.009": 1.82625099659,
			"0.01": 1.80051606253,
			"0.011": 1.92486095752,
			"0.012": 1.97349538711,
			"0.013": 1.43336258349,
			"0.014": 1.83451109382,
			"0.015": 0.913018226583,
			"0.016": 2.03326159429,
			"0.017": 0.968509954954,
			"0.018": 0.349176917281,
			"0.019": 0.0,
			"0.02": 0.0,
			"0.021": 0.0,
			"0.022": 0.0,
			"0.023": 0.0,
			"0.024": 0.0,
			"0.025": 0.0
		}
	}
}
