{
	 "smiles": "OC1=CC=C(C=C1)C(=O)NC1=CC=CC=C1", 
	 "Tm": 469.15, 
	 "num_atms": 27, 
	 "gaussian": { 
		 "optdone": 1, 
		 "sigma_profile": "yes", 
		 "theory": "DFT", 
		 "functional": "B3LYP", 
		 "basiset": "6-31G**", 
		 "properties": { 
			 "R2extent": 5343.8526, 
			 "electric_dipole_moment_norm": 2.97503752413, 
			 "electric_quadrupole_moment_norm": 18.0294289324, 
			 "total_energy": -707.230417754, 
			 "HOMO_LUMO_gap": 0.17834, 
			 "cosmo_polarized_energy": -17.16, 
			 "cosmo_cavitation_energy": 31.6, 
			 "cosmo_dispersion_energy": -23.44, 
			 "cosmo_repulsion_energy": 1.79, 
			 "cosmo_total_nonelectrostatic_energy": 9.95, 
			 "SMD_solvation_energy": 6.09 
		},
		"coords": [
			{
				"x": 1.1058154764,
				"y": 4.054039908,
				"z": -3.2221193187,
				"element": "O" 
			},
			{
				"x": 0.9409051482,
				"y": 2.870902952,
				"z": -2.5687679391,
				"element": "C" 
			},
			{
				"x": 1.2367775189,
				"y": 1.6330739368,
				"z": -3.1546310561,
				"element": "C" 
			},
			{
				"x": 1.046693604,
				"y": 0.4616919983,
				"z": -2.4313569208,
				"element": "C" 
			},
			{
				"x": 0.5459825337,
				"y": 0.4938564323,
				"z": -1.1226031089,
				"element": "C" 
			},
			{
				"x": 0.2696673986,
				"y": 1.7435531326,
				"z": -0.5435058514,
				"element": "C" 
			},
			{
				"x": 0.4622201435,
				"y": 2.922946209,
				"z": -1.2538147976,
				"element": "C" 
			},
			{
				"x": 0.3791143621,
				"y": -0.8224522285,
				"z": -0.4232279878,
				"element": "C" 
			},
			{
				"x": 0.9809839873,
				"y": -1.8250543776,
				"z": -0.7971334694,
				"element": "O" 
			},
			{
				"x": -0.5016977312,
				"y": -0.813707546,
				"z": 0.6391724364,
				"element": "N" 
			},
			{
				"x": -0.8533079003,
				"y": -1.8669664838,
				"z": 1.5084993947,
				"element": "C" 
			},
			{
				"x": -1.8415241424,
				"y": -1.5996010112,
				"z": 2.4707386206,
				"element": "C" 
			},
			{
				"x": -2.2362257106,
				"y": -2.5840128385,
				"z": 3.3719592744,
				"element": "C" 
			},
			{
				"x": -1.6510934199,
				"y": -3.8510620859,
				"z": 3.3303977549,
				"element": "C" 
			},
			{
				"x": -0.6692783481,
				"y": -4.1145020605,
				"z": 2.3743808557,
				"element": "C" 
			},
			{
				"x": -0.2627968555,
				"y": -3.1400688667,
				"z": 1.4623864552,
				"element": "C" 
			},
			{
				"x": 1.451850163,
				"y": 3.8848025487,
				"z": -4.1083326607,
				"element": "H" 
			},
			{
				"x": 1.6170274571,
				"y": 1.5907580728,
				"z": -4.1732027505,
				"element": "H" 
			},
			{
				"x": 1.2842590378,
				"y": -0.5034591188,
				"z": -2.8653167123,
				"element": "H" 
			},
			{
				"x": -0.062539658,
				"y": 1.8156059924,
				"z": 0.4887635528,
				"element": "H" 
			},
			{
				"x": 0.2613420836,
				"y": 3.8905294328,
				"z": -0.8065848633,
				"element": "H" 
			},
			{
				"x": -1.0375335649,
				"y": 0.0320577727,
				"z": 0.7637249684,
				"element": "H" 
			},
			{
				"x": -2.3007446118,
				"y": -0.6138084037,
				"z": 2.5107124368,
				"element": "H" 
			},
			{
				"x": -3.0025149311,
				"y": -2.3573811275,
				"z": 4.1077672063,
				"element": "H" 
			},
			{
				"x": -1.9571613303,
				"y": -4.6206723805,
				"z": 4.0323865884,
				"element": "H" 
			},
			{
				"x": -0.206729663,
				"y": -5.0966106131,
				"z": 2.3302318723,
				"element": "H" 
			},
			{
				"x": 0.491608953,
				"y": -3.3471592458,
				"z": 0.7173760198,
				"element": "H" 
			}
		],
		 "valence_orbital": [ 
			{
				"type": "occ",
				"energy": -0.2661,
				"method": "rhf"
			},
			{
				"type": "occ",
				"energy": -0.25399,
				"method": "rhf"
			},
			{
				"type": "occ",
				"energy": -0.24721,
				"method": "rhf"
			},
			{
				"type": "occ",
				"energy": -0.23475,
				"method": "rhf"
			},
			{
				"type": "occ",
				"energy": -0.21461,
				"method": "rhf"
			},
			{
				"type": "unocc",
				"energy": -0.03627,
				"method": "rhf"
			},
			{
				"type": "unocc",
				"energy": -0.01564,
				"method": "rhf"
			},
			{
				"type": "unocc",
				"energy": 0.00258,
				"method": "rhf"
			},
			{
				"type": "unocc",
				"energy": 0.01368,
				"method": "rhf"
			},
			{
				"type": "unocc",
				"energy": 0.05969,
				"method": "rhf"
			}
		],
		"cosmo_sigma_profile": { 
			"-0.025": 0.0,
			"-0.024": 0.0,
			"-0.023": 0.0,
			"-0.022": 0.0,
			"-0.021": 0.0,
			"-0.02": 0.0,
			"-0.019": 0.193061179335,
			"-0.018": 0.762001133298,
			"-0.017": 0.983238433183,
			"-0.016": 1.25108088772,
			"-0.015": 1.35170860062,
			"-0.014": 2.29438960295,
			"-0.013": 1.82491795352,
			"-0.012": 1.97902474553,
			"-0.011": 3.21321945035,
			"-0.01": 3.43061012929,
			"-0.009": 2.62553796329,
			"-0.008": 2.39578190096,
			"-0.007": 5.53085026614,
			"-0.006": 10.4792483994,
			"-0.005": 15.2111023467,
			"-0.004": 15.1934439518,
			"-0.003": 14.4376144615,
			"-0.002": 13.0662191391,
			"-0.001": 13.7475378348,
			"0.0": 13.6603148616,
			"0.001": 15.5985581844,
			"0.002": 18.030295479,
			"0.003": 22.9691159561,
			"0.004": 25.4655576717,
			"0.005": 14.582948287,
			"0.006": 10.5470511001,
			"0.007": 3.51315101585,
			"0.008": 3.2260577458,
			"0.009": 3.47542888664,
			"0.01": 3.28117121617,
			"0.011": 3.26859427824,
			"0.012": 2.33136693269,
			"0.013": 2.95449104729,
			"0.014": 0.593581835977,
			"0.015": 0.0,
			"0.016": 0.0,
			"0.017": 0.0,
			"0.018": 0.0,
			"0.019": 0.0,
			"0.02": 0.0,
			"0.021": 0.0,
			"0.022": 0.0,
			"0.023": 0.0,
			"0.024": 0.0,
			"0.025": 0.0
		}
	}
}
