{
	 "smiles": "NC1=NC=CC(=N1)C1=CC=NC=C1", 
	 "Tm": 354.5, 
	 "num_atms": 21, 
	 "gaussian": { 
		 "optdone": 1, 
		 "sigma_profile": "yes", 
		 "theory": "DFT", 
		 "functional": "B3LYP", 
		 "basiset": "6-31G**", 
		 "properties": { 
			 "R2extent": 3232.617, 
			 "electric_dipole_moment_norm": 2.25792142467, 
			 "electric_quadrupole_moment_norm": 12.6329591561, 
			 "total_energy": -566.795604302, 
			 "HOMO_LUMO_gap": 0.16678, 
			 "cosmo_polarized_energy": -12.1, 
			 "cosmo_cavitation_energy": 25.64, 
			 "cosmo_dispersion_energy": -19.32, 
			 "cosmo_repulsion_energy": 1.51, 
			 "cosmo_total_nonelectrostatic_energy": 7.83, 
			 "SMD_solvation_energy": 0.53 
		},
		"coords": [
			{
				"x": -2.5920966835,
				"y": 1.4309935119,
				"z": -2.0996160563,
				"element": "N" 
			},
			{
				"x": -1.4253212558,
				"y": 0.7947909176,
				"z": -2.4048381278,
				"element": "C" 
			},
			{
				"x": -1.0715485223,
				"y": 0.7740969856,
				"z": -3.7076406995,
				"element": "N" 
			},
			{
				"x": 0.0958991681,
				"y": 0.1873985828,
				"z": -3.9671803352,
				"element": "C" 
			},
			{
				"x": 0.9073028525,
				"y": -0.3812116217,
				"z": -2.9872475825,
				"element": "C" 
			},
			{
				"x": 0.4330650834,
				"y": -0.3234049722,
				"z": -1.6694267256,
				"element": "C" 
			},
			{
				"x": -0.7337038701,
				"y": 0.269937958,
				"z": -1.3784980691,
				"element": "N" 
			},
			{
				"x": 1.1876705067,
				"y": -0.8978476126,
				"z": -0.5219493343,
				"element": "C" 
			},
			{
				"x": 2.2372109625,
				"y": -1.8112509155,
				"z": -0.6902512314,
				"element": "C" 
			},
			{
				"x": 2.8979023719,
				"y": -2.3008099984,
				"z": 0.4358311519,
				"element": "C" 
			},
			{
				"x": 2.5946450885,
				"y": -1.9514729512,
				"z": 1.6919259487,
				"element": "N" 
			},
			{
				"x": 1.5866088813,
				"y": -1.0819636518,
				"z": 1.8469221789,
				"element": "C" 
			},
			{
				"x": 0.8594478359,
				"y": -0.536205055,
				"z": 0.7916513482,
				"element": "C" 
			},
			{
				"x": -2.9776185681,
				"y": 1.2864566031,
				"z": -1.1807439374,
				"element": "H" 
			},
			{
				"x": -3.2119729669,
				"y": 1.6537174728,
				"z": -2.8613927628,
				"element": "H" 
			},
			{
				"x": 0.4002570337,
				"y": 0.170415921,
				"z": -5.0129071758,
				"element": "H" 
			},
			{
				"x": 1.8584974307,
				"y": -0.8281517778,
				"z": -3.2448372887,
				"element": "H" 
			},
			{
				"x": 2.5325123982,
				"y": -2.1596700081,
				"z": -1.6741180833,
				"element": "H" 
			},
			{
				"x": 3.7122041427,
				"y": -3.0140548271,
				"z": 0.3195984904,
				"element": "H" 
			},
			{
				"x": 1.3471898846,
				"y": -0.8062102271,
				"z": 2.8725283801,
				"element": "H" 
			},
			{
				"x": 0.048548226,
				"y": 0.1603456657,
				"z": 0.9678899115,
				"element": "H" 
			}
		],
		 "valence_orbital": [ 
			{
				"type": "occ",
				"energy": -0.27294,
				"method": "rhf"
			},
			{
				"type": "occ",
				"energy": -0.26293,
				"method": "rhf"
			},
			{
				"type": "occ",
				"energy": -0.25504,
				"method": "rhf"
			},
			{
				"type": "occ",
				"energy": -0.25206,
				"method": "rhf"
			},
			{
				"type": "occ",
				"energy": -0.23158,
				"method": "rhf"
			},
			{
				"type": "unocc",
				"energy": -0.0648,
				"method": "rhf"
			},
			{
				"type": "unocc",
				"energy": -0.01772,
				"method": "rhf"
			},
			{
				"type": "unocc",
				"energy": -0.00482,
				"method": "rhf"
			},
			{
				"type": "unocc",
				"energy": 0.02083,
				"method": "rhf"
			},
			{
				"type": "unocc",
				"energy": 0.08676,
				"method": "rhf"
			}
		],
		"cosmo_sigma_profile": { 
			"-0.025": 0.0,
			"-0.024": 0.0,
			"-0.023": 0.0,
			"-0.022": 0.0,
			"-0.021": 0.0,
			"-0.02": 0.0,
			"-0.019": 0.0,
			"-0.018": 0.0,
			"-0.017": 0.0,
			"-0.016": 0.0,
			"-0.015": 0.0,
			"-0.014": 0.84215364997,
			"-0.013": 2.1909988225,
			"-0.012": 1.70931202085,
			"-0.011": 2.0545989165,
			"-0.01": 2.15893881738,
			"-0.009": 2.8829559334,
			"-0.008": 4.03655807069,
			"-0.007": 7.558795844,
			"-0.006": 12.9231285059,
			"-0.005": 12.2161637778,
			"-0.004": 10.5785656251,
			"-0.003": 7.96956941119,
			"-0.002": 8.3993257193,
			"-0.001": 12.5635459434,
			"0.0": 18.3394949294,
			"0.001": 22.7832426069,
			"0.002": 24.2054989141,
			"0.003": 8.39640237285,
			"0.004": 7.01706993445,
			"0.005": 6.21811870131,
			"0.006": 5.11945097189,
			"0.007": 5.55995369402,
			"0.008": 4.91162043375,
			"0.009": 3.81880796316,
			"0.01": 2.15244689936,
			"0.011": 1.62103229611,
			"0.012": 1.83321590848,
			"0.013": 1.9570314727,
			"0.014": 1.64023833794,
			"0.015": 1.49455011672,
			"0.016": 0.824996547817,
			"0.017": 0.296415759038,
			"0.018": 0.0,
			"0.019": 0.0,
			"0.02": 0.0,
			"0.021": 0.0,
			"0.022": 0.0,
			"0.023": 0.0,
			"0.024": 0.0,
			"0.025": 0.0
		}
	}
}
