{
	 "smiles": "COC1=CC2=C(C=C1)N(CC1=CC=CC=C1)C(C)=C2C(O)=O", 
	 "Tm": 483.15, 
	 "num_atms": 39, 
	 "gaussian": { 
		 "optdone": 1, 
		 "sigma_profile": "yes", 
		 "theory": "DFT", 
		 "functional": "B3LYP", 
		 "basiset": "6-31G**", 
		 "properties": { 
			 "R2extent": 8443.8989, 
			 "electric_dipole_moment_norm": 5.87853897325, 
			 "electric_quadrupole_moment_norm": 21.5026888202, 
			 "total_energy": -976.597473955, 
			 "HOMO_LUMO_gap": 0.17463, 
			 "cosmo_polarized_energy": -20.79, 
			 "cosmo_cavitation_energy": 42.02, 
			 "cosmo_dispersion_energy": -29.31, 
			 "cosmo_repulsion_energy": 2.22, 
			 "cosmo_total_nonelectrostatic_energy": 14.93, 
			 "SMD_solvation_energy": 8.34 
		},
		"coords": [
			{
				"x": -0.6534038527,
				"y": -4.931219957,
				"z": -4.2574261699,
				"element": "C" 
			},
			{
				"x": -1.2565820237,
				"y": -3.6520079007,
				"z": -4.1473725069,
				"element": "O" 
			},
			{
				"x": -1.0422117494,
				"y": -2.942813367,
				"z": -2.9972827715,
				"element": "C" 
			},
			{
				"x": -0.2742729277,
				"y": -3.3938522055,
				"z": -1.9273991696,
				"element": "C" 
			},
			{
				"x": -0.137569797,
				"y": -2.5511202987,
				"z": -0.8103466442,
				"element": "C" 
			},
			{
				"x": -0.7639660904,
				"y": -1.2869037621,
				"z": -0.7910985593,
				"element": "C" 
			},
			{
				"x": -1.5335033464,
				"y": -0.8332020228,
				"z": -1.8700936495,
				"element": "C" 
			},
			{
				"x": -1.6665611978,
				"y": -1.6724615764,
				"z": -2.9647199747,
				"element": "C" 
			},
			{
				"x": -0.4553400534,
				"y": -0.6747530616,
				"z": 0.4250640098,
				"element": "N" 
			},
			{
				"x": -0.8632307466,
				"y": 0.6689683499,
				"z": 0.8096570343,
				"element": "C" 
			},
			{
				"x": 0.17511871,
				"y": 1.7564378289,
				"z": 0.5654423152,
				"element": "C" 
			},
			{
				"x": 1.1092400027,
				"y": 1.6620621254,
				"z": -0.4727888596,
				"element": "C" 
			},
			{
				"x": 2.0202615331,
				"y": 2.695811658,
				"z": -0.6967730891,
				"element": "C" 
			},
			{
				"x": 2.0070760679,
				"y": 3.8348350017,
				"z": 0.1101162598,
				"element": "C" 
			},
			{
				"x": 1.078941926,
				"y": 3.9347430039,
				"z": 1.1481683619,
				"element": "C" 
			},
			{
				"x": 0.1718163161,
				"y": 2.8992163342,
				"z": 1.3753809976,
				"element": "C" 
			},
			{
				"x": 0.3448629877,
				"y": -1.5172609151,
				"z": 1.1681084941,
				"element": "C" 
			},
			{
				"x": 0.8862672839,
				"y": -1.0737110515,
				"z": 2.4942881204,
				"element": "C" 
			},
			{
				"x": 0.5477776678,
				"y": -2.6958058532,
				"z": 0.4520076485,
				"element": "C" 
			},
			{
				"x": 1.3225766379,
				"y": -3.8915975843,
				"z": 0.8153906361,
				"element": "C" 
			},
			{
				"x": 1.5408303094,
				"y": -4.1184859315,
				"z": 2.1514247075,
				"element": "O" 
			},
			{
				"x": 1.763514806,
				"y": -4.6835056936,
				"z": 0.009802747,
				"element": "O" 
			},
			{
				"x": -1.0086499059,
				"y": -5.61518895,
				"z": -3.4757744161,
				"element": "H" 
			},
			{
				"x": 0.4409956667,
				"y": -4.8692515882,
				"z": -4.2019924468,
				"element": "H" 
			},
			{
				"x": -0.9440109981,
				"y": -5.3192458161,
				"z": -5.2351797777,
				"element": "H" 
			},
			{
				"x": 0.2315343895,
				"y": -4.3495171868,
				"z": -1.9293804796,
				"element": "H" 
			},
			{
				"x": -2.0091587793,
				"y": 0.1426036768,
				"z": -1.8694341552,
				"element": "H" 
			},
			{
				"x": -2.2479569646,
				"y": -1.3709211913,
				"z": -3.8293940234,
				"element": "H" 
			},
			{
				"x": -1.7806439667,
				"y": 0.8932994992,
				"z": 0.2549384852,
				"element": "H" 
			},
			{
				"x": -1.1464129077,
				"y": 0.6629188832,
				"z": 1.8670304454,
				"element": "H" 
			},
			{
				"x": 1.1265617828,
				"y": 0.7790978829,
				"z": -1.1041711068,
				"element": "H" 
			},
			{
				"x": 2.741925592,
				"y": 2.6087395938,
				"z": -1.5038476481,
				"element": "H" 
			},
			{
				"x": 2.7178512395,
				"y": 4.636959917,
				"z": -0.0655695045,
				"element": "H" 
			},
			{
				"x": 1.06564441,
				"y": 4.8137016313,
				"z": 1.7862775377,
				"element": "H" 
			},
			{
				"x": -0.5448730762,
				"y": 2.979815202,
				"z": 2.1899623001,
				"element": "H" 
			},
			{
				"x": 1.2554132199,
				"y": -0.0448284058,
				"z": 2.4424815309,
				"element": "H" 
			},
			{
				"x": 1.7247303637,
				"y": -1.7032341597,
				"z": 2.7967060986,
				"element": "H" 
			},
			{
				"x": 0.1266999429,
				"y": -1.1058929942,
				"z": 3.2875778417,
				"element": "H" 
			},
			{
				"x": 0.939007528,
				"y": -3.5704291152,
				"z": 2.6718193808,
				"element": "H" 
			}
		],
		 "valence_orbital": [ 
			{
				"type": "occ",
				"energy": -0.26184,
				"method": "rhf"
			},
			{
				"type": "occ",
				"energy": -0.25842,
				"method": "rhf"
			},
			{
				"type": "occ",
				"energy": -0.25591,
				"method": "rhf"
			},
			{
				"type": "occ",
				"energy": -0.2121,
				"method": "rhf"
			},
			{
				"type": "occ",
				"energy": -0.20058,
				"method": "rhf"
			},
			{
				"type": "unocc",
				"energy": -0.02595,
				"method": "rhf"
			},
			{
				"type": "unocc",
				"energy": -0.0159,
				"method": "rhf"
			},
			{
				"type": "unocc",
				"energy": -0.01397,
				"method": "rhf"
			},
			{
				"type": "unocc",
				"energy": 0.00555,
				"method": "rhf"
			},
			{
				"type": "unocc",
				"energy": 0.03315,
				"method": "rhf"
			}
		],
		"cosmo_sigma_profile": { 
			"-0.025": 0.0,
			"-0.024": 0.0,
			"-0.023": 0.0,
			"-0.022": 0.0,
			"-0.021": 0.0,
			"-0.02": 0.0,
			"-0.019": 0.0,
			"-0.018": 0.0,
			"-0.017": 0.245700084963,
			"-0.016": 0.992811115858,
			"-0.015": 0.622652112867,
			"-0.014": 0.890111848215,
			"-0.013": 0.643061436322,
			"-0.012": 0.708436312604,
			"-0.011": 1.50264599437,
			"-0.01": 1.59488940235,
			"-0.009": 0.536520899491,
			"-0.008": 3.2174534555,
			"-0.007": 9.25065069442,
			"-0.006": 19.203330293,
			"-0.005": 27.2580439323,
			"-0.004": 34.3830228196,
			"-0.003": 29.2636723154,
			"-0.002": 25.2334400562,
			"-0.001": 19.9156369081,
			"0.0": 16.4427679725,
			"0.001": 17.3004829282,
			"0.002": 17.5165839899,
			"0.003": 17.5351555994,
			"0.004": 20.7203546535,
			"0.005": 23.3548230829,
			"0.006": 13.1271434618,
			"0.007": 3.79511791962,
			"0.008": 4.32708982692,
			"0.009": 4.66362545048,
			"0.01": 4.96668025903,
			"0.011": 5.55703298641,
			"0.012": 5.2474737103,
			"0.013": 3.6365013366,
			"0.014": 1.42185393472,
			"0.015": 0.054304969182,
			"0.016": 0.0,
			"0.017": 0.0,
			"0.018": 0.0,
			"0.019": 0.0,
			"0.02": 0.0,
			"0.021": 0.0,
			"0.022": 0.0,
			"0.023": 0.0,
			"0.024": 0.0,
			"0.025": 0.0
		}
	}
}
