{
	 "smiles": "COC1=C(C=CC=C1)C1(C)CCC2=C(C3=C1C=C(C)O3)C1=C(O2)C=CC(Cl)=C1", 
	 "Tm": 471.15, 
	 "num_atms": 49, 
	 "gaussian": { 
		 "optdone": 1, 
		 "sigma_profile": "yes", 
		 "theory": "DFT", 
		 "functional": "B3LYP", 
		 "basiset": "6-31G**", 
		 "properties": { 
			 "R2extent": 13076.3653, 
			 "electric_dipole_moment_norm": 4.03127917912, 
			 "electric_quadrupole_moment_norm": 17.8225280777, 
			 "total_energy": -1613.06009656, 
			 "HOMO_LUMO_gap": 0.15882, 
			 "cosmo_polarized_energy": -10.21, 
			 "cosmo_cavitation_energy": 51.5, 
			 "cosmo_dispersion_energy": -35.25, 
			 "cosmo_repulsion_energy": 2.65, 
			 "cosmo_total_nonelectrostatic_energy": 18.91, 
			 "SMD_solvation_energy": 9.21 
		},
		"coords": [
			{
				"x": 1.7206575291,
				"y": -1.6574745137,
				"z": 2.5832712703,
				"element": "C" 
			},
			{
				"x": 0.6694157986,
				"y": -1.581924175,
				"z": 1.6348147375,
				"element": "O" 
			},
			{
				"x": -0.5229698946,
				"y": -2.1909882955,
				"z": 1.9115119764,
				"element": "C" 
			},
			{
				"x": -1.5692724285,
				"y": -1.9924091338,
				"z": 0.9723164354,
				"element": "C" 
			},
			{
				"x": -2.7875406759,
				"y": -2.6228711408,
				"z": 1.2419766084,
				"element": "C" 
			},
			{
				"x": -2.9924641082,
				"y": -3.4116459596,
				"z": 2.3789160513,
				"element": "C" 
			},
			{
				"x": -1.9552288675,
				"y": -3.5838623682,
				"z": 3.286248181,
				"element": "C" 
			},
			{
				"x": -0.7208402035,
				"y": -2.9734826255,
				"z": 3.0541171014,
				"element": "C" 
			},
			{
				"x": -1.3511469334,
				"y": -1.1387940916,
				"z": -0.2996318884,
				"element": "C" 
			},
			{
				"x": -2.6661453535,
				"y": -0.9698288348,
				"z": -1.1006346922,
				"element": "C" 
			},
			{
				"x": -0.310802082,
				"y": -1.9041017097,
				"z": -1.1843937758,
				"element": "C" 
			},
			{
				"x": -0.0498393102,
				"y": -1.4022391133,
				"z": -2.6174149002,
				"element": "C" 
			},
			{
				"x": 0.6066033935,
				"y": -0.0684349477,
				"z": -2.7052484264,
				"element": "C" 
			},
			{
				"x": 0.6128123793,
				"y": 1.016325669,
				"z": -1.8681763177,
				"element": "C" 
			},
			{
				"x": -0.0889203291,
				"y": 1.1196639613,
				"z": -0.6105165663,
				"element": "C" 
			},
			{
				"x": -0.8954329308,
				"y": 0.2607142143,
				"z": 0.0954374254,
				"element": "C" 
			},
			{
				"x": -1.318452301,
				"y": 0.9964492974,
				"z": 1.254293639,
				"element": "C" 
			},
			{
				"x": -0.7440503903,
				"y": 2.2301927681,
				"z": 1.1907235455,
				"element": "C" 
			},
			{
				"x": -0.7772702177,
				"y": 3.4299030652,
				"z": 2.0700646914,
				"element": "C" 
			},
			{
				"x": 0.0129888066,
				"y": 2.3206052009,
				"z": 0.0544298445,
				"element": "O" 
			},
			{
				"x": 1.436844729,
				"y": 2.0184731204,
				"z": -2.5217138921,
				"element": "C" 
			},
			{
				"x": 1.8616988734,
				"y": 1.4281600166,
				"z": -3.7247893734,
				"element": "C" 
			},
			{
				"x": 1.359959498,
				"y": 0.1612790165,
				"z": -3.8378592882,
				"element": "O" 
			},
			{
				"x": 2.6795013972,
				"y": 2.0672674262,
				"z": -4.6468642949,
				"element": "C" 
			},
			{
				"x": 3.0860552946,
				"y": 3.3647613555,
				"z": -4.3386949041,
				"element": "C" 
			},
			{
				"x": 2.668014568,
				"y": 3.9667093156,
				"z": -3.1399926146,
				"element": "C" 
			},
			{
				"x": 3.2091779936,
				"y": 5.6104438785,
				"z": -2.7957692686,
				"element": "Cl" 
			},
			{
				"x": 1.8490630951,
				"y": 3.3240195641,
				"z": -2.217743834,
				"element": "C" 
			},
			{
				"x": 2.0651435834,
				"y": -2.6895058761,
				"z": 2.7291533001,
				"element": "H" 
			},
			{
				"x": 2.5368989482,
				"y": -1.0621672489,
				"z": 2.1714085128,
				"element": "H" 
			},
			{
				"x": 1.4210173282,
				"y": -1.2387717098,
				"z": 3.5521791854,
				"element": "H" 
			},
			{
				"x": -3.6128305546,
				"y": -2.4993040874,
				"z": 0.5512838641,
				"element": "H" 
			},
			{
				"x": -3.9578712261,
				"y": -3.8795617938,
				"z": 2.5451906658,
				"element": "H" 
			},
			{
				"x": -2.0926382301,
				"y": -4.1903583691,
				"z": 4.1768843752,
				"element": "H" 
			},
			{
				"x": 0.0843711013,
				"y": -3.1148846372,
				"z": 3.7647566972,
				"element": "H" 
			},
			{
				"x": -3.0265411553,
				"y": -1.9251774954,
				"z": -1.4995683813,
				"element": "H" 
			},
			{
				"x": -3.4535940194,
				"y": -0.5293106556,
				"z": -0.4831052304,
				"element": "H" 
			},
			{
				"x": -2.5022808827,
				"y": -0.2922337363,
				"z": -1.9413581234,
				"element": "H" 
			},
			{
				"x": -0.6749813785,
				"y": -2.9338719947,
				"z": -1.2708628114,
				"element": "H" 
			},
			{
				"x": 0.6377811462,
				"y": -1.9479515726,
				"z": -0.6466399695,
				"element": "H" 
			},
			{
				"x": 0.607088369,
				"y": -2.1261707022,
				"z": -3.1149475923,
				"element": "H" 
			},
			{
				"x": -0.9780982502,
				"y": -1.4012859945,
				"z": -3.2056487357,
				"element": "H" 
			},
			{
				"x": -1.9623583202,
				"y": 0.6341440812,
				"z": 2.0430187611,
				"element": "H" 
			},
			{
				"x": -1.174187413,
				"y": 4.3053772288,
				"z": 1.5425110087,
				"element": "H" 
			},
			{
				"x": -1.413333631,
				"y": 3.2366011617,
				"z": 2.9369861987,
				"element": "H" 
			},
			{
				"x": 0.223994047,
				"y": 3.6929734293,
				"z": 2.4317033334,
				"element": "H" 
			},
			{
				"x": 2.9866871945,
				"y": 1.5783055469,
				"z": -5.5646913307,
				"element": "H" 
			},
			{
				"x": 3.7246221776,
				"y": 3.9157038454,
				"z": -5.01938559,
				"element": "H" 
			},
			{
				"x": 1.5412938358,
				"y": 3.8124396199,
				"z": -1.3028456083,
				"element": "H" 
			}
		],
		 "valence_orbital": [ 
			{
				"type": "occ",
				"energy": -0.24714,
				"method": "rhf"
			},
			{
				"type": "occ",
				"energy": -0.24141,
				"method": "rhf"
			},
			{
				"type": "occ",
				"energy": -0.22579,
				"method": "rhf"
			},
			{
				"type": "occ",
				"energy": -0.21909,
				"method": "rhf"
			},
			{
				"type": "occ",
				"energy": -0.18354,
				"method": "rhf"
			},
			{
				"type": "unocc",
				"energy": -0.02472,
				"method": "rhf"
			},
			{
				"type": "unocc",
				"energy": -0.00324,
				"method": "rhf"
			},
			{
				"type": "unocc",
				"energy": 0.0052,
				"method": "rhf"
			},
			{
				"type": "unocc",
				"energy": 0.00986,
				"method": "rhf"
			},
			{
				"type": "unocc",
				"energy": 0.01017,
				"method": "rhf"
			}
		],
		"cosmo_sigma_profile": { 
			"-0.025": 0.0,
			"-0.024": 0.0,
			"-0.023": 0.0,
			"-0.022": 0.0,
			"-0.021": 0.0,
			"-0.02": 0.0,
			"-0.019": 0.0,
			"-0.018": 0.0,
			"-0.017": 0.0,
			"-0.016": 0.0,
			"-0.015": 0.0,
			"-0.014": 0.0,
			"-0.013": 0.0,
			"-0.012": 0.0,
			"-0.011": 0.0,
			"-0.01": 0.0,
			"-0.009": 0.0,
			"-0.008": 0.894994893121,
			"-0.007": 3.17601557086,
			"-0.006": 9.77531304553,
			"-0.005": 28.9985270785,
			"-0.004": 34.4574030821,
			"-0.003": 46.2998210819,
			"-0.002": 36.0920758668,
			"-0.001": 32.0771250699,
			"0.0": 33.1123205667,
			"0.001": 31.7121873859,
			"0.002": 37.1815925675,
			"0.003": 43.425833207,
			"0.004": 29.9541241206,
			"0.005": 23.4421580051,
			"0.006": 12.9982275307,
			"0.007": 4.22910651512,
			"0.008": 2.58060131521,
			"0.009": 1.29160731459,
			"0.01": 0.16601405381,
			"0.011": 0.0,
			"0.012": 0.0,
			"0.013": 0.0,
			"0.014": 0.0,
			"0.015": 0.0,
			"0.016": 0.0,
			"0.017": 0.0,
			"0.018": 0.0,
			"0.019": 0.0,
			"0.02": 0.0,
			"0.021": 0.0,
			"0.022": 0.0,
			"0.023": 0.0,
			"0.024": 0.0,
			"0.025": 0.0
		}
	}
}
