{
	 "smiles": "O=CC1=C2C=CNC2=NC=C1", 
	 "Tm": 443.15, 
	 "num_atms": 17, 
	 "gaussian": { 
		 "optdone": 1, 
		 "sigma_profile": "yes", 
		 "theory": "DFT", 
		 "functional": "B3LYP", 
		 "basiset": "6-31G**", 
		 "properties": { 
			 "R2extent": 1798.2902, 
			 "electric_dipole_moment_norm": 2.36322467404, 
			 "electric_quadrupole_moment_norm": 15.828149557, 
			 "total_energy": -493.185860936, 
			 "HOMO_LUMO_gap": 0.15057, 
			 "cosmo_polarized_energy": -11.73, 
			 "cosmo_cavitation_energy": 21.64, 
			 "cosmo_dispersion_energy": -16.25, 
			 "cosmo_repulsion_energy": 1.28, 
			 "cosmo_total_nonelectrostatic_energy": 6.66, 
			 "SMD_solvation_energy": 3.19 
		},
		"coords": [
			{
				"x": -0.8098953113,
				"y": 2.1001207285,
				"z": 2.44539466,
				"element": "O" 
			},
			{
				"x": -0.2773577735,
				"y": 1.0448726306,
				"z": 2.1536766788,
				"element": "C" 
			},
			{
				"x": -0.2443605403,
				"y": 0.4664543236,
				"z": 0.7948580618,
				"element": "C" 
			},
			{
				"x": -0.841264653,
				"y": 1.1002367675,
				"z": -0.3139664847,
				"element": "C" 
			},
			{
				"x": -1.5721454529,
				"y": 2.302777962,
				"z": -0.5568944962,
				"element": "C" 
			},
			{
				"x": -1.8694085125,
				"y": 2.316209173,
				"z": -1.8992774127,
				"element": "C" 
			},
			{
				"x": -1.3635388365,
				"y": 1.1859989758,
				"z": -2.5094984666,
				"element": "N" 
			},
			{
				"x": -0.725734282,
				"y": 0.4176182591,
				"z": -1.5629395755,
				"element": "C" 
			},
			{
				"x": -0.1213712704,
				"y": -0.7427884608,
				"z": -1.7961313086,
				"element": "N" 
			},
			{
				"x": 0.4335102285,
				"y": -1.314283165,
				"z": -0.7192761928,
				"element": "C" 
			},
			{
				"x": 0.3966230463,
				"y": -0.7563475407,
				"z": 0.5682214214,
				"element": "C" 
			},
			{
				"x": 0.2354454311,
				"y": 0.431090158,
				"z": 2.9274095603,
				"element": "H" 
			},
			{
				"x": -1.8369156936,
				"y": 3.0511852662,
				"z": 0.1727366883,
				"element": "H" 
			},
			{
				"x": -2.4096060337,
				"y": 3.0528426964,
				"z": -2.476699149,
				"element": "H" 
			},
			{
				"x": -1.4361886693,
				"y": 0.9418389535,
				"z": -3.4844705363,
				"element": "H" 
			},
			{
				"x": 0.9337726376,
				"y": -2.265065092,
				"z": -0.8868800277,
				"element": "H" 
			},
			{
				"x": 0.8707356855,
				"y": -1.2810616357,
				"z": 1.3932365797,
				"element": "H" 
			}
		],
		 "valence_orbital": [ 
			{
				"type": "occ",
				"energy": -0.30603,
				"method": "rhf"
			},
			{
				"type": "occ",
				"energy": -0.27548,
				"method": "rhf"
			},
			{
				"type": "occ",
				"energy": -0.25388,
				"method": "rhf"
			},
			{
				"type": "occ",
				"energy": -0.24651,
				"method": "rhf"
			},
			{
				"type": "occ",
				"energy": -0.22617,
				"method": "rhf"
			},
			{
				"type": "unocc",
				"energy": -0.0756,
				"method": "rhf"
			},
			{
				"type": "unocc",
				"energy": 0.00177,
				"method": "rhf"
			},
			{
				"type": "unocc",
				"energy": 0.03136,
				"method": "rhf"
			},
			{
				"type": "unocc",
				"energy": 0.05894,
				"method": "rhf"
			},
			{
				"type": "unocc",
				"energy": 0.07803,
				"method": "rhf"
			}
		],
		"cosmo_sigma_profile": { 
			"-0.025": 0.0,
			"-0.024": 0.0,
			"-0.023": 0.0,
			"-0.022": 0.0,
			"-0.021": 0.0,
			"-0.02": 0.0,
			"-0.019": 0.0,
			"-0.018": 0.0,
			"-0.017": 0.284677864683,
			"-0.016": 1.19528332299,
			"-0.015": 1.27024660709,
			"-0.014": 1.17488512299,
			"-0.013": 0.578879256393,
			"-0.012": 1.45553654395,
			"-0.011": 1.26916767295,
			"-0.01": 1.15291610486,
			"-0.009": 2.61949477108,
			"-0.008": 3.9964192074,
			"-0.007": 8.44315821459,
			"-0.006": 10.5824438962,
			"-0.005": 9.11297648155,
			"-0.004": 8.24860934052,
			"-0.003": 8.93521927169,
			"-0.002": 7.11068891018,
			"-0.001": 9.13628143278,
			"0.0": 8.52257812102,
			"0.001": 14.5700291203,
			"0.002": 18.8403622767,
			"0.003": 12.6957186086,
			"0.004": 9.48357990498,
			"0.005": 7.41733837537,
			"0.006": 3.61377992672,
			"0.007": 2.96976502647,
			"0.008": 4.18505237512,
			"0.009": 2.46930530216,
			"0.01": 3.95601652355,
			"0.011": 3.5336969273,
			"0.012": 2.77885346279,
			"0.013": 1.34155304113,
			"0.014": 0.833904947039,
			"0.015": 0.660119155172,
			"0.016": 0.0733979976629,
			"0.017": 0.0,
			"0.018": 0.0,
			"0.019": 0.0,
			"0.02": 0.0,
			"0.021": 0.0,
			"0.022": 0.0,
			"0.023": 0.0,
			"0.024": 0.0,
			"0.025": 0.0
		}
	}
}
