{
	 "smiles": "OC(=O)C1=CC=C(C=C1)S(=O)(=O)NCCC#N", 
	 "Tm": 514.15, 
	 "num_atms": 27, 
	 "gaussian": { 
		 "optdone": 1, 
		 "sigma_profile": "yes", 
		 "theory": "DFT", 
		 "functional": "B3LYP", 
		 "basiset": "6-31G**", 
		 "properties": { 
			 "R2extent": 6100.1227, 
			 "electric_dipole_moment_norm": 4.4755517928, 
			 "electric_quadrupole_moment_norm": 26.3200727974, 
			 "total_energy": -1195.60338719, 
			 "HOMO_LUMO_gap": 0.19832, 
			 "cosmo_polarized_energy": -25.46, 
			 "cosmo_cavitation_energy": 35.16, 
			 "cosmo_dispersion_energy": -24.62, 
			 "cosmo_repulsion_energy": 1.9, 
			 "cosmo_total_nonelectrostatic_energy": 12.44, 
			 "SMD_solvation_energy": 7.36 
		},
		"coords": [
			{
				"x": 4.8575821971,
				"y": 1.3772314992,
				"z": -0.2031804081,
				"element": "O" 
			},
			{
				"x": 3.8649120502,
				"y": 1.3148165865,
				"z": -1.1216274746,
				"element": "C" 
			},
			{
				"x": 3.9909814669,
				"y": 1.7417246229,
				"z": -2.2507144179,
				"element": "O" 
			},
			{
				"x": 2.6248722884,
				"y": 0.6750481017,
				"z": -0.5935355274,
				"element": "C" 
			},
			{
				"x": 1.5348264143,
				"y": 0.5541801735,
				"z": -1.4632106403,
				"element": "C" 
			},
			{
				"x": 0.3512713689,
				"y": -0.0353173699,
				"z": -1.0236942633,
				"element": "C" 
			},
			{
				"x": 0.2758374819,
				"y": -0.49295083,
				"z": 0.2927816761,
				"element": "C" 
			},
			{
				"x": 1.3576769915,
				"y": -0.3894832789,
				"z": 1.1713912586,
				"element": "C" 
			},
			{
				"x": 2.5361790223,
				"y": 0.1989371313,
				"z": 0.7234286766,
				"element": "C" 
			},
			{
				"x": -1.2402139444,
				"y": -1.2674480729,
				"z": 0.8649668202,
				"element": "S" 
			},
			{
				"x": -2.1041717556,
				"y": -1.4583890377,
				"z": -0.3042953056,
				"element": "O" 
			},
			{
				"x": -0.9060741715,
				"y": -2.3726934669,
				"z": 1.7657220662,
				"element": "O" 
			},
			{
				"x": -1.8813141582,
				"y": -0.0715365579,
				"z": 1.8886834791,
				"element": "N" 
			},
			{
				"x": -2.7502052311,
				"y": 0.9426775387,
				"z": 1.2786209203,
				"element": "C" 
			},
			{
				"x": -2.9928374059,
				"y": 2.0626961031,
				"z": 2.3080071901,
				"element": "C" 
			},
			{
				"x": -3.8306918992,
				"y": 3.1331085577,
				"z": 1.7634128969,
				"element": "C" 
			},
			{
				"x": -4.4930943049,
				"y": 3.9745324829,
				"z": 1.3167442987,
				"element": "N" 
			},
			{
				"x": 5.6087590663,
				"y": 1.8045236571,
				"z": -0.6470506234,
				"element": "H" 
			},
			{
				"x": 1.6340531857,
				"y": 0.922496492,
				"z": -2.4783686654,
				"element": "H" 
			},
			{
				"x": -0.4989269746,
				"y": -0.1567072131,
				"z": -1.6854240419,
				"element": "H" 
			},
			{
				"x": 1.276461093,
				"y": -0.7745660031,
				"z": 2.1818187029,
				"element": "H" 
			},
			{
				"x": 3.3893271206,
				"y": 0.2882290265,
				"z": 1.3855864264,
				"element": "H" 
			},
			{
				"x": -2.3063754392,
				"y": -0.5646544662,
				"z": 2.6727358223,
				"element": "H" 
			},
			{
				"x": -2.2317630049,
				"y": 1.3575418419,
				"z": 0.4102098178,
				"element": "H" 
			},
			{
				"x": -3.7021239615,
				"y": 0.5299717401,
				"z": 0.9254304856,
				"element": "H" 
			},
			{
				"x": -3.4844403565,
				"y": 1.6596009535,
				"z": 3.2020726662,
				"element": "H" 
			},
			{
				"x": -2.0337071395,
				"y": 2.4822297879,
				"z": 2.6294881639,
				"element": "H" 
			}
		],
		 "valence_orbital": [ 
			{
				"type": "occ",
				"energy": -0.31696,
				"method": "rhf"
			},
			{
				"type": "occ",
				"energy": -0.3052,
				"method": "rhf"
			},
			{
				"type": "occ",
				"energy": -0.29591,
				"method": "rhf"
			},
			{
				"type": "occ",
				"energy": -0.28899,
				"method": "rhf"
			},
			{
				"type": "occ",
				"energy": -0.28075,
				"method": "rhf"
			},
			{
				"type": "unocc",
				"energy": -0.08243,
				"method": "rhf"
			},
			{
				"type": "unocc",
				"energy": -0.03748,
				"method": "rhf"
			},
			{
				"type": "unocc",
				"energy": 0.015,
				"method": "rhf"
			},
			{
				"type": "unocc",
				"energy": 0.01612,
				"method": "rhf"
			},
			{
				"type": "unocc",
				"energy": 0.02582,
				"method": "rhf"
			}
		],
		"cosmo_sigma_profile": { 
			"-0.025": 0.0,
			"-0.024": 0.0,
			"-0.023": 0.0,
			"-0.022": 0.0,
			"-0.021": 0.0,
			"-0.02": 0.0,
			"-0.019": 0.333107264192,
			"-0.018": 1.01211012997,
			"-0.017": 1.03669339351,
			"-0.016": 0.615461464052,
			"-0.015": 2.05232123399,
			"-0.014": 2.49826730453,
			"-0.013": 1.61318807866,
			"-0.012": 2.69819777262,
			"-0.011": 2.02002206466,
			"-0.01": 2.67512729681,
			"-0.009": 4.64080118494,
			"-0.008": 9.70737541738,
			"-0.007": 17.7740245323,
			"-0.006": 17.5167798518,
			"-0.005": 13.5152232986,
			"-0.004": 13.819845975,
			"-0.003": 13.012455852,
			"-0.002": 14.1483706525,
			"-0.001": 16.5978327234,
			"0.0": 19.3127325579,
			"0.001": 21.0536538718,
			"0.002": 10.1715012872,
			"0.003": 8.87728304382,
			"0.004": 7.01605185007,
			"0.005": 7.04752667424,
			"0.006": 9.32969978064,
			"0.007": 8.63804043029,
			"0.008": 8.52642489137,
			"0.009": 9.18537052034,
			"0.01": 14.8729625098,
			"0.011": 14.2523135989,
			"0.012": 4.16041471556,
			"0.013": 1.62588370288,
			"0.014": 0.0929372470891,
			"0.015": 0.0,
			"0.016": 0.0,
			"0.017": 0.0,
			"0.018": 0.0,
			"0.019": 0.0,
			"0.02": 0.0,
			"0.021": 0.0,
			"0.022": 0.0,
			"0.023": 0.0,
			"0.024": 0.0,
			"0.025": 0.0
		}
	}
}
