{
	 "smiles": "OC1=C2CCCCC2=NC=N1", 
	 "Tm": 323.15, 
	 "num_atms": 21, 
	 "gaussian": { 
		 "optdone": 1, 
		 "sigma_profile": "yes", 
		 "theory": "DFT", 
		 "functional": "B3LYP", 
		 "basiset": "6-31G**", 
		 "properties": { 
			 "R2extent": 1681.2964, 
			 "electric_dipole_moment_norm": 1.73702477242, 
			 "electric_quadrupole_moment_norm": 5.0750061734, 
			 "total_energy": -495.630290756, 
			 "HOMO_LUMO_gap": 0.22801, 
			 "cosmo_polarized_energy": -8.05, 
			 "cosmo_cavitation_energy": 23.2, 
			 "cosmo_dispersion_energy": -17.91, 
			 "cosmo_repulsion_energy": 1.44, 
			 "cosmo_total_nonelectrostatic_energy": 6.73, 
			 "SMD_solvation_energy": 0.93 
		},
		"coords": [
			{
				"x": -1.1466445126,
				"y": 0.7549290073,
				"z": -2.4262564142,
				"element": "O" 
			},
			{
				"x": -0.2621635266,
				"y": 0.6865508237,
				"z": -1.4097233563,
				"element": "C" 
			},
			{
				"x": -0.3688969981,
				"y": -0.374765134,
				"z": -0.4931020776,
				"element": "C" 
			},
			{
				"x": -1.441083423,
				"y": -1.4332374328,
				"z": -0.6208188497,
				"element": "C" 
			},
			{
				"x": -1.1563112644,
				"y": -2.6595681111,
				"z": 0.2585751213,
				"element": "C" 
			},
			{
				"x": -0.7139657526,
				"y": -2.2336715317,
				"z": 1.6643887929,
				"element": "C" 
			},
			{
				"x": 0.5918070691,
				"y": -1.4305132517,
				"z": 1.6002169553,
				"element": "C" 
			},
			{
				"x": 0.5760367003,
				"y": -0.3576767714,
				"z": 0.5348164174,
				"element": "C" 
			},
			{
				"x": 1.5278986178,
				"y": 0.598456705,
				"z": 0.6294756258,
				"element": "N" 
			},
			{
				"x": 1.5197321598,
				"y": 1.5346105159,
				"z": -0.3110292228,
				"element": "C" 
			},
			{
				"x": 0.6657155522,
				"y": 1.636506512,
				"z": -1.3390401991,
				"element": "N" 
			},
			{
				"x": -0.9018358225,
				"y": 1.5414717615,
				"z": -2.9407140087,
				"element": "H" 
			},
			{
				"x": -2.409513133,
				"y": -0.9932893174,
				"z": -0.342162953,
				"element": "H" 
			},
			{
				"x": -1.5441002964,
				"y": -1.7230584486,
				"z": -1.672455469,
				"element": "H" 
			},
			{
				"x": -2.047786974,
				"y": -3.2943001333,
				"z": 0.3064687247,
				"element": "H" 
			},
			{
				"x": -0.3629969344,
				"y": -3.2645392005,
				"z": -0.2006751355,
				"element": "H" 
			},
			{
				"x": -1.5019026565,
				"y": -1.6204148973,
				"z": 2.1221564847,
				"element": "H" 
			},
			{
				"x": -0.5815598093,
				"y": -3.107659139,
				"z": 2.3113157427,
				"element": "H" 
			},
			{
				"x": 0.8265492187,
				"y": -0.9567887883,
				"z": 2.5589897655,
				"element": "H" 
			},
			{
				"x": 1.4350806514,
				"y": -2.102708045,
				"z": 1.385942702,
				"element": "H" 
			},
			{
				"x": 2.283741134,
				"y": 2.3072648768,
				"z": -0.2447686465,
				"element": "H" 
			}
		],
		 "valence_orbital": [ 
			{
				"type": "occ",
				"energy": -0.33039,
				"method": "rhf"
			},
			{
				"type": "occ",
				"energy": -0.29434,
				"method": "rhf"
			},
			{
				"type": "occ",
				"energy": -0.28131,
				"method": "rhf"
			},
			{
				"type": "occ",
				"energy": -0.24988,
				"method": "rhf"
			},
			{
				"type": "occ",
				"energy": -0.24841,
				"method": "rhf"
			},
			{
				"type": "unocc",
				"energy": -0.0204,
				"method": "rhf"
			},
			{
				"type": "unocc",
				"energy": -0.01036,
				"method": "rhf"
			},
			{
				"type": "unocc",
				"energy": 0.081,
				"method": "rhf"
			},
			{
				"type": "unocc",
				"energy": 0.09142,
				"method": "rhf"
			},
			{
				"type": "unocc",
				"energy": 0.12242,
				"method": "rhf"
			}
		],
		"cosmo_sigma_profile": { 
			"-0.025": 0.0,
			"-0.024": 0.0,
			"-0.023": 0.0,
			"-0.022": 0.0,
			"-0.021": 0.0,
			"-0.02": 0.0,
			"-0.019": 0.0,
			"-0.018": 0.0196908672672,
			"-0.017": 1.00972926851,
			"-0.016": 0.507748823687,
			"-0.015": 1.01874752332,
			"-0.014": 0.533044287071,
			"-0.013": 1.04533584546,
			"-0.012": 0.349484089687,
			"-0.011": 0.173399085392,
			"-0.01": 0.739542065828,
			"-0.009": 0.772885162496,
			"-0.008": 0.321741498434,
			"-0.007": 2.341317414,
			"-0.006": 2.96288525465,
			"-0.005": 3.5230396586,
			"-0.004": 8.82973832273,
			"-0.003": 21.5817638255,
			"-0.002": 25.7064376846,
			"-0.001": 27.643541278,
			"0.0": 26.027238494,
			"0.001": 11.7800707998,
			"0.002": 6.29102799301,
			"0.003": 6.26908559701,
			"0.004": 4.17662722168,
			"0.005": 3.89611407132,
			"0.006": 3.48815107539,
			"0.007": 3.56767455177,
			"0.008": 4.88542178449,
			"0.009": 3.26250709576,
			"0.01": 1.98891437229,
			"0.011": 1.87330106196,
			"0.012": 1.6519809595,
			"0.013": 1.65276737435,
			"0.014": 1.09335426251,
			"0.015": 0.737180265845,
			"0.016": 0.705971715527,
			"0.017": 0.101958593622,
			"0.018": 0.0,
			"0.019": 0.0,
			"0.02": 0.0,
			"0.021": 0.0,
			"0.022": 0.0,
			"0.023": 0.0,
			"0.024": 0.0,
			"0.025": 0.0
		}
	}
}
