{
	 "smiles": "C1C(C2=NCCN2)C1(C1=CC=CC=C1)C1=CC=CC=C1", 
	 "Tm": 377.15, 
	 "num_atms": 38, 
	 "gaussian": { 
		 "optdone": 1, 
		 "sigma_profile": "yes", 
		 "theory": "DFT", 
		 "functional": "B3LYP", 
		 "basiset": "6-31G**", 
		 "properties": { 
			 "R2extent": 5638.1686, 
			 "electric_dipole_moment_norm": 2.86039551636, 
			 "electric_quadrupole_moment_norm": 10.6693295478, 
			 "total_energy": -806.233276523, 
			 "HOMO_LUMO_gap": 0.1878, 
			 "cosmo_polarized_energy": -12.09, 
			 "cosmo_cavitation_energy": 40.21, 
			 "cosmo_dispersion_energy": -27.13, 
			 "cosmo_repulsion_energy": 2.1, 
			 "cosmo_total_nonelectrostatic_energy": 15.18, 
			 "SMD_solvation_energy": 1.49 
		},
		"coords": [
			{
				"x": -1.5231121985,
				"y": 1.1904105422,
				"z": -1.2253445108,
				"element": "C" 
			},
			{
				"x": -0.702102478,
				"y": 0.0334371305,
				"z": -1.7530546284,
				"element": "C" 
			},
			{
				"x": -1.0764082656,
				"y": -1.3801366172,
				"z": -1.5077416078,
				"element": "C" 
			},
			{
				"x": -0.7426603637,
				"y": -2.3138387121,
				"z": -2.3281896502,
				"element": "N" 
			},
			{
				"x": -1.3328860648,
				"y": -3.555972217,
				"z": -1.8025981328,
				"element": "C" 
			},
			{
				"x": -1.7795089938,
				"y": -3.228258286,
				"z": -0.3540291661,
				"element": "C" 
			},
			{
				"x": -1.8700750882,
				"y": -1.7611407792,
				"z": -0.4194947328,
				"element": "N" 
			},
			{
				"x": -0.1341925181,
				"y": 0.9706620531,
				"z": -0.6774331482,
				"element": "C" 
			},
			{
				"x": 0.9596129287,
				"y": 1.9194299727,
				"z": -1.1218647056,
				"element": "C" 
			},
			{
				"x": 0.9387590297,
				"y": 3.2555061721,
				"z": -0.696125441,
				"element": "C" 
			},
			{
				"x": 1.9530111038,
				"y": 4.1381252882,
				"z": -1.0649592484,
				"element": "C" 
			},
			{
				"x": 3.0098950259,
				"y": 3.6968009916,
				"z": -1.865143925,
				"element": "C" 
			},
			{
				"x": 3.0425239952,
				"y": 2.3690955825,
				"z": -2.2919865249,
				"element": "C" 
			},
			{
				"x": 2.0244730131,
				"y": 1.4870803055,
				"z": -1.9221854494,
				"element": "C" 
			},
			{
				"x": 0.0366999219,
				"y": 0.4833382172,
				"z": 0.7443601276,
				"element": "C" 
			},
			{
				"x": 1.0779233295,
				"y": -0.4039664849,
				"z": 1.0631596347,
				"element": "C" 
			},
			{
				"x": 1.2719476528,
				"y": -0.8358322667,
				"z": 2.3739702827,
				"element": "C" 
			},
			{
				"x": 0.430889965,
				"y": -0.3848997486,
				"z": 3.3955713181,
				"element": "C" 
			},
			{
				"x": -0.6029302096,
				"y": 0.5012012239,
				"z": 3.0940492791,
				"element": "C" 
			},
			{
				"x": -0.7964977671,
				"y": 0.9328336454,
				"z": 1.7784646147,
				"element": "C" 
			},
			{
				"x": -2.37236594,
				"y": 0.9413669407,
				"z": -0.5964190633,
				"element": "H" 
			},
			{
				"x": -1.6848327505,
				"y": 2.0337009482,
				"z": -1.8893696084,
				"element": "H" 
			},
			{
				"x": -0.2706317683,
				"y": 0.1538864611,
				"z": -2.7404947003,
				"element": "H" 
			},
			{
				"x": -0.6159304588,
				"y": -4.3818741893,
				"z": -1.8501306891,
				"element": "H" 
			},
			{
				"x": -2.1925876112,
				"y": -3.8361946306,
				"z": -2.4274948313,
				"element": "H" 
			},
			{
				"x": -1.0264920069,
				"y": -3.5474079156,
				"z": 0.3816141959,
				"element": "H" 
			},
			{
				"x": -2.7387875079,
				"y": -3.6783655296,
				"z": -0.0822184838,
				"element": "H" 
			},
			{
				"x": -1.7252850262,
				"y": -1.2575005626,
				"z": 0.4471849907,
				"element": "H" 
			},
			{
				"x": 0.1192948024,
				"y": 3.6022090939,
				"z": -0.0720095399,
				"element": "H" 
			},
			{
				"x": 1.918049844,
				"y": 5.171026517,
				"z": -0.7297149309,
				"element": "H" 
			},
			{
				"x": 3.7996598269,
				"y": 4.3840087101,
				"z": -2.1548106956,
				"element": "H" 
			},
			{
				"x": 3.8590914241,
				"y": 2.0168100802,
				"z": -2.9160439887,
				"element": "H" 
			},
			{
				"x": 2.053231128,
				"y": 0.4559465245,
				"z": -2.2632721701,
				"element": "H" 
			},
			{
				"x": 1.735518629,
				"y": -0.7561326024,
				"z": 0.2736526674,
				"element": "H" 
			},
			{
				"x": 2.0801960701,
				"y": -1.5258492309,
				"z": 2.5995202371,
				"element": "H" 
			},
			{
				"x": 0.5821986383,
				"y": -0.7219109324,
				"z": 4.4169322265,
				"element": "H" 
			},
			{
				"x": -1.2595689006,
				"y": 0.8618875257,
				"z": 3.8808595783,
				"element": "H" 
			},
			{
				"x": -1.6003204103,
				"y": 1.6277167786,
				"z": 1.5524904202,
				"element": "H" 
			}
		],
		 "valence_orbital": [ 
			{
				"type": "occ",
				"energy": -0.25486,
				"method": "rhf"
			},
			{
				"type": "occ",
				"energy": -0.249,
				"method": "rhf"
			},
			{
				"type": "occ",
				"energy": -0.2467,
				"method": "rhf"
			},
			{
				"type": "occ",
				"energy": -0.23755,
				"method": "rhf"
			},
			{
				"type": "occ",
				"energy": -0.20604,
				"method": "rhf"
			},
			{
				"type": "unocc",
				"energy": -0.01824,
				"method": "rhf"
			},
			{
				"type": "unocc",
				"energy": -0.0126,
				"method": "rhf"
			},
			{
				"type": "unocc",
				"energy": -0.00012,
				"method": "rhf"
			},
			{
				"type": "unocc",
				"energy": 0.00662,
				"method": "rhf"
			},
			{
				"type": "unocc",
				"energy": 0.0339,
				"method": "rhf"
			}
		],
		"cosmo_sigma_profile": { 
			"-0.025": 0.0,
			"-0.024": 0.0,
			"-0.023": 0.0,
			"-0.022": 0.0,
			"-0.021": 0.0,
			"-0.02": 0.0,
			"-0.019": 0.0,
			"-0.018": 0.0,
			"-0.017": 0.0,
			"-0.016": 0.0,
			"-0.015": 0.0,
			"-0.014": 0.0,
			"-0.013": 0.0,
			"-0.012": 0.0,
			"-0.011": 0.0,
			"-0.01": 0.0,
			"-0.009": 0.0,
			"-0.008": 0.311950739715,
			"-0.007": 1.23791260299,
			"-0.006": 8.91539189885,
			"-0.005": 26.4584347828,
			"-0.004": 34.844227596,
			"-0.003": 41.7437310052,
			"-0.002": 34.3833803116,
			"-0.001": 29.9556993227,
			"0.0": 19.841122719,
			"0.001": 18.2208259667,
			"0.002": 18.3172803774,
			"0.003": 18.2635615262,
			"0.004": 18.8899362213,
			"0.005": 17.5237413443,
			"0.006": 12.1883015918,
			"0.007": 2.16357102636,
			"0.008": 2.29434743319,
			"0.009": 2.0027715998,
			"0.01": 1.5047969083,
			"0.011": 1.2234967783,
			"0.012": 1.69358117513,
			"0.013": 1.37151081172,
			"0.014": 1.24599068642,
			"0.015": 1.00122455316,
			"0.016": 0.576097890819,
			"0.017": 1.04391913404,
			"0.018": 1.24383573226,
			"0.019": 0.640884564989,
			"0.02": 0.0,
			"0.021": 0.0,
			"0.022": 0.0,
			"0.023": 0.0,
			"0.024": 0.0,
			"0.025": 0.0
		}
	}
}
