{
	 "smiles": "CC(=O)C1=CC2=C(C=C1)C=C(O)C=C2", 
	 "Tm": 444.15, 
	 "num_atms": 24, 
	 "gaussian": { 
		 "optdone": 1, 
		 "sigma_profile": "yes", 
		 "theory": "DFT", 
		 "functional": "B3LYP", 
		 "basiset": "6-31G**", 
		 "properties": { 
			 "R2extent": 3764.7903, 
			 "electric_dipole_moment_norm": 4.08490891943, 
			 "electric_quadrupole_moment_norm": 5.74668105692, 
			 "total_energy": -613.764869249, 
			 "HOMO_LUMO_gap": 0.15898, 
			 "cosmo_polarized_energy": -13.7, 
			 "cosmo_cavitation_energy": 28.21, 
			 "cosmo_dispersion_energy": -20.78, 
			 "cosmo_repulsion_energy": 1.6, 
			 "cosmo_total_nonelectrostatic_energy": 9.02, 
			 "SMD_solvation_energy": 5.58 
		},
		"coords": [
			{
				"x": 1.5347732007,
				"y": 1.9880822797,
				"z": -2.8928575345,
				"element": "C" 
			},
			{
				"x": 1.8334698207,
				"y": 0.7272300042,
				"z": -2.0971542745,
				"element": "C" 
			},
			{
				"x": 2.9481887912,
				"y": 0.2250533104,
				"z": -2.1311475293,
				"element": "O" 
			},
			{
				"x": 0.7405123308,
				"y": 0.118727288,
				"z": -1.2756369788,
				"element": "C" 
			},
			{
				"x": 1.0253197042,
				"y": -1.0303622601,
				"z": -0.5541319259,
				"element": "C" 
			},
			{
				"x": 0.0482367189,
				"y": -1.6633727258,
				"z": 0.243990391,
				"element": "C" 
			},
			{
				"x": -1.2715009824,
				"y": -1.104615676,
				"z": 0.3105080498,
				"element": "C" 
			},
			{
				"x": -1.5443150723,
				"y": 0.0740604347,
				"z": -0.4364043555,
				"element": "C" 
			},
			{
				"x": -0.5705716163,
				"y": 0.6677130661,
				"z": -1.2051743681,
				"element": "C" 
			},
			{
				"x": -2.2527565452,
				"y": -1.7404412998,
				"z": 1.1121169727,
				"element": "C" 
			},
			{
				"x": -1.9431076628,
				"y": -2.8841933195,
				"z": 1.8210682508,
				"element": "C" 
			},
			{
				"x": -2.8372282556,
				"y": -3.5442761293,
				"z": 2.6092557287,
				"element": "O" 
			},
			{
				"x": -0.637557942,
				"y": -3.4432737842,
				"z": 1.7598169703,
				"element": "C" 
			},
			{
				"x": 0.3267890374,
				"y": -2.8443188231,
				"z": 0.9905259537,
				"element": "C" 
			},
			{
				"x": 0.727476244,
				"y": 1.8168808784,
				"z": -3.6138358678,
				"element": "H" 
			},
			{
				"x": 1.2144837982,
				"y": 2.8030835067,
				"z": -2.2340391849,
				"element": "H" 
			},
			{
				"x": 2.4381553407,
				"y": 2.2867016552,
				"z": -3.4251497021,
				"element": "H" 
			},
			{
				"x": 2.0292775851,
				"y": -1.4402676065,
				"z": -0.6155930357,
				"element": "H" 
			},
			{
				"x": -2.5418632518,
				"y": 0.5034404052,
				"z": -0.3911457623,
				"element": "H" 
			},
			{
				"x": -0.8111110975,
				"y": 1.5666684819,
				"z": -1.7633178987,
				"element": "H" 
			},
			{
				"x": -3.2540277429,
				"y": -1.3164644491,
				"z": 1.1625308367,
				"element": "H" 
			},
			{
				"x": -3.6873720813,
				"y": -3.0853779566,
				"z": 2.5811599117,
				"element": "H" 
			},
			{
				"x": -0.4363731876,
				"y": -4.3425891359,
				"z": 2.3321780657,
				"element": "H" 
			},
			{
				"x": 1.3258028656,
				"y": -3.2687881446,
				"z": 0.9412372868,
				"element": "H" 
			}
		],
		 "valence_orbital": [ 
			{
				"type": "occ",
				"energy": -0.31151,
				"method": "rhf"
			},
			{
				"type": "occ",
				"energy": -0.28618,
				"method": "rhf"
			},
			{
				"type": "occ",
				"energy": -0.2425,
				"method": "rhf"
			},
			{
				"type": "occ",
				"energy": -0.2407,
				"method": "rhf"
			},
			{
				"type": "occ",
				"energy": -0.2156,
				"method": "rhf"
			},
			{
				"type": "unocc",
				"energy": -0.05662,
				"method": "rhf"
			},
			{
				"type": "unocc",
				"energy": -0.03376,
				"method": "rhf"
			},
			{
				"type": "unocc",
				"energy": 0.02239,
				"method": "rhf"
			},
			{
				"type": "unocc",
				"energy": 0.03441,
				"method": "rhf"
			},
			{
				"type": "unocc",
				"energy": 0.06223,
				"method": "rhf"
			}
		],
		"cosmo_sigma_profile": { 
			"-0.025": 0.0,
			"-0.024": 0.0,
			"-0.023": 0.0,
			"-0.022": 0.0,
			"-0.021": 0.0,
			"-0.02": 0.0,
			"-0.019": 0.018136578885,
			"-0.018": 0.672319274869,
			"-0.017": 1.13638146064,
			"-0.016": 1.43591745385,
			"-0.015": 0.818716895295,
			"-0.014": 0.965703518107,
			"-0.013": 0.629331372765,
			"-0.012": 0.674764504859,
			"-0.011": 1.29413553041,
			"-0.01": 1.66345406955,
			"-0.009": 0.749037043916,
			"-0.008": 1.06356480716,
			"-0.007": 3.87331178677,
			"-0.006": 17.9142437653,
			"-0.005": 16.6599722423,
			"-0.004": 15.4345077301,
			"-0.003": 12.5331880992,
			"-0.002": 13.4177699718,
			"-0.001": 13.3579134445,
			"0.0": 11.9646528138,
			"0.001": 10.6450023827,
			"0.002": 16.7246529186,
			"0.003": 29.9667268742,
			"0.004": 19.8419801222,
			"0.005": 4.85679601743,
			"0.006": 3.44047267761,
			"0.007": 2.74609695934,
			"0.008": 2.35533068091,
			"0.009": 3.56251825354,
			"0.01": 4.01628002734,
			"0.011": 3.87299620686,
			"0.012": 4.11910389787,
			"0.013": 2.39344571829,
			"0.014": 0.409784316119,
			"0.015": 0.0,
			"0.016": 0.0,
			"0.017": 0.0,
			"0.018": 0.0,
			"0.019": 0.0,
			"0.02": 0.0,
			"0.021": 0.0,
			"0.022": 0.0,
			"0.023": 0.0,
			"0.024": 0.0,
			"0.025": 0.0
		}
	}
}
