{
	 "smiles": "CC1=CC2=C(C=CC=C2)C2=C1C1=C(C=CC=C1)C=C2", 
	 "Tm": 391.15, 
	 "num_atms": 33, 
	 "gaussian": { 
		 "optdone": 1, 
		 "sigma_profile": "yes", 
		 "theory": "DFT", 
		 "functional": "B3LYP", 
		 "basiset": "6-31G**", 
		 "properties": { 
			 "R2extent": 5154.7701, 
			 "electric_dipole_moment_norm": 0.266452284659, 
			 "electric_quadrupole_moment_norm": 12.9447528698, 
			 "total_energy": -732.493496138, 
			 "HOMO_LUMO_gap": 0.15209, 
			 "cosmo_polarized_energy": -7.08, 
			 "cosmo_cavitation_energy": 34.56, 
			 "cosmo_dispersion_energy": -25.98, 
			 "cosmo_repulsion_energy": 1.89, 
			 "cosmo_total_nonelectrostatic_energy": 10.47, 
			 "SMD_solvation_energy": 4.94 
		},
		"coords": [
			{
				"x": 1.9765732335,
				"y": 2.4498937162,
				"z": -0.1481067209,
				"element": "C" 
			},
			{
				"x": 1.4984497993,
				"y": 1.0161299134,
				"z": -0.2747815647,
				"element": "C" 
			},
			{
				"x": 2.3733042627,
				"y": 0.1487565542,
				"z": -0.8802242726,
				"element": "C" 
			},
			{
				"x": 2.0721469689,
				"y": -1.2105949811,
				"z": -1.1608554727,
				"element": "C" 
			},
			{
				"x": 0.7624974027,
				"y": -1.6878065309,
				"z": -0.8801270618,
				"element": "C" 
			},
			{
				"x": 0.4775053469,
				"y": -3.0444526066,
				"z": -1.1854167658,
				"element": "C" 
			},
			{
				"x": 1.4330526756,
				"y": -3.8722027984,
				"z": -1.7415100183,
				"element": "C" 
			},
			{
				"x": 2.7256505046,
				"y": -3.3852697732,
				"z": -2.027693378,
				"element": "C" 
			},
			{
				"x": 3.0356008943,
				"y": -2.0737503711,
				"z": -1.7398366392,
				"element": "C" 
			},
			{
				"x": -0.1990723584,
				"y": -0.776246209,
				"z": -0.2877179703,
				"element": "C" 
			},
			{
				"x": 0.1790814796,
				"y": 0.5402067885,
				"z": 0.111707893,
				"element": "C" 
			},
			{
				"x": -0.7986051052,
				"y": 1.3420100806,
				"z": 0.8487123359,
				"element": "C" 
			},
			{
				"x": -2.1520346256,
				"y": 0.8819093098,
				"z": 0.9535648706,
				"element": "C" 
			},
			{
				"x": -3.1287943665,
				"y": 1.6596708186,
				"z": 1.6215799052,
				"element": "C" 
			},
			{
				"x": -2.8001379486,
				"y": 2.8503065729,
				"z": 2.2320728833,
				"element": "C" 
			},
			{
				"x": -1.4607963758,
				"y": 3.2793996746,
				"z": 2.2057150212,
				"element": "C" 
			},
			{
				"x": -0.4956239137,
				"y": 2.5480946841,
				"z": 1.5379419531,
				"element": "C" 
			},
			{
				"x": -2.5042337843,
				"y": -0.390139904,
				"z": 0.4193179835,
				"element": "C" 
			},
			{
				"x": -1.5581402615,
				"y": -1.1964922618,
				"z": -0.1327506022,
				"element": "C" 
			},
			{
				"x": 2.3189861481,
				"y": 2.6988154341,
				"z": 0.8632430854,
				"element": "H" 
			},
			{
				"x": 1.2027958928,
				"y": 3.1714905611,
				"z": -0.4232055546,
				"element": "H" 
			},
			{
				"x": 2.828324158,
				"y": 2.6059612613,
				"z": -0.8153002024,
				"element": "H" 
			},
			{
				"x": 3.3511927744,
				"y": 0.5179027438,
				"z": -1.1808166543,
				"element": "H" 
			},
			{
				"x": -0.4973237892,
				"y": -3.4622019595,
				"z": -0.9637693555,
				"element": "H" 
			},
			{
				"x": 1.186626866,
				"y": -4.9081284816,
				"z": -1.9558943833,
				"element": "H" 
			},
			{
				"x": 3.4698654401,
				"y": -4.0426727275,
				"z": -2.4676516732,
				"element": "H" 
			},
			{
				"x": 4.0271336269,
				"y": -1.6807463344,
				"z": -1.9499888078,
				"element": "H" 
			},
			{
				"x": -4.1475330577,
				"y": 1.2822584109,
				"z": 1.6601282869,
				"element": "H" 
			},
			{
				"x": -3.5558483594,
				"y": 3.4355964345,
				"z": 2.74756446,
				"element": "H" 
			},
			{
				"x": -1.1730641822,
				"y": 4.1899491249,
				"z": 2.7236200985,
				"element": "H" 
			},
			{
				"x": 0.5195406596,
				"y": 2.9037119265,
				"z": 1.5896182835,
				"element": "H" 
			},
			{
				"x": -3.5369631241,
				"y": -0.7206616785,
				"z": 0.492347756,
				"element": "H" 
			},
			{
				"x": -1.8556568819,
				"y": -2.1703973924,
				"z": -0.5004877185,
				"element": "H" 
			}
		],
		 "valence_orbital": [ 
			{
				"type": "occ",
				"energy": -0.27617,
				"method": "rhf"
			},
			{
				"type": "occ",
				"energy": -0.26731,
				"method": "rhf"
			},
			{
				"type": "occ",
				"energy": -0.23507,
				"method": "rhf"
			},
			{
				"type": "occ",
				"energy": -0.21923,
				"method": "rhf"
			},
			{
				"type": "occ",
				"energy": -0.19932,
				"method": "rhf"
			},
			{
				"type": "unocc",
				"energy": -0.04723,
				"method": "rhf"
			},
			{
				"type": "unocc",
				"energy": -0.03052,
				"method": "rhf"
			},
			{
				"type": "unocc",
				"energy": -0.0128,
				"method": "rhf"
			},
			{
				"type": "unocc",
				"energy": 0.02335,
				"method": "rhf"
			},
			{
				"type": "unocc",
				"energy": 0.02885,
				"method": "rhf"
			}
		],
		"cosmo_sigma_profile": { 
			"-0.025": 0.0,
			"-0.024": 0.0,
			"-0.023": 0.0,
			"-0.022": 0.0,
			"-0.021": 0.0,
			"-0.02": 0.0,
			"-0.019": 0.0,
			"-0.018": 0.0,
			"-0.017": 0.0,
			"-0.016": 0.0,
			"-0.015": 0.0,
			"-0.014": 0.0,
			"-0.013": 0.0,
			"-0.012": 0.0,
			"-0.011": 0.0,
			"-0.01": 0.0,
			"-0.009": 0.117534797503,
			"-0.008": 1.13610914726,
			"-0.007": 2.03879906032,
			"-0.006": 14.1762363377,
			"-0.005": 23.740723468,
			"-0.004": 25.0621547028,
			"-0.003": 23.0657719838,
			"-0.002": 18.8161258631,
			"-0.001": 19.1993121729,
			"0.0": 18.2435496225,
			"0.001": 16.6914601937,
			"0.002": 16.8253942793,
			"0.003": 28.2261186763,
			"0.004": 40.868636144,
			"0.005": 24.5313123271,
			"0.006": 5.04747610669,
			"0.007": 0.0,
			"0.008": 0.0,
			"0.009": 0.0,
			"0.01": 0.0,
			"0.011": 0.0,
			"0.012": 0.0,
			"0.013": 0.0,
			"0.014": 0.0,
			"0.015": 0.0,
			"0.016": 0.0,
			"0.017": 0.0,
			"0.018": 0.0,
			"0.019": 0.0,
			"0.02": 0.0,
			"0.021": 0.0,
			"0.022": 0.0,
			"0.023": 0.0,
			"0.024": 0.0,
			"0.025": 0.0
		}
	}
}
