{
	 "smiles": "NNC(=O)C1=CC2=C(O1)C=CC=C2", 
	 "Tm": 445.15, 
	 "num_atms": 21, 
	 "gaussian": { 
		 "optdone": 1, 
		 "sigma_profile": "yes", 
		 "theory": "DFT", 
		 "functional": "B3LYP", 
		 "basiset": "6-31G**", 
		 "properties": { 
			 "R2extent": 2949.0342, 
			 "electric_dipole_moment_norm": 4.74949505211, 
			 "electric_quadrupole_moment_norm": 24.3964674314, 
			 "total_energy": -607.691059101, 
			 "HOMO_LUMO_gap": 0.17841, 
			 "cosmo_polarized_energy": -17.32, 
			 "cosmo_cavitation_energy": 25.79, 
			 "cosmo_dispersion_energy": -19.46, 
			 "cosmo_repulsion_energy": 1.56, 
			 "cosmo_total_nonelectrostatic_energy": 7.9, 
			 "SMD_solvation_energy": 6.24 
		},
		"coords": [
			{
				"x": -1.8526949557,
				"y": 3.3712224767,
				"z": 2.185502257,
				"element": "N" 
			},
			{
				"x": -0.7356280062,
				"y": 2.8935704519,
				"z": 2.8751581675,
				"element": "N" 
			},
			{
				"x": 0.1300920677,
				"y": 1.91787906,
				"z": 2.4287599817,
				"element": "C" 
			},
			{
				"x": 1.069530507,
				"y": 1.5813790724,
				"z": 3.1388698705,
				"element": "O" 
			},
			{
				"x": -0.0956779225,
				"y": 1.3006185091,
				"z": 1.0987505623,
				"element": "C" 
			},
			{
				"x": -1.0064574686,
				"y": 1.4359545614,
				"z": 0.087303431,
				"element": "C" 
			},
			{
				"x": -0.6215515911,
				"y": 0.505258055,
				"z": -0.9366522007,
				"element": "C" 
			},
			{
				"x": 0.5300735138,
				"y": -0.1367620892,
				"z": -0.4397977157,
				"element": "C" 
			},
			{
				"x": 0.8501484744,
				"y": 0.3424813768,
				"z": 0.7909489524,
				"element": "O" 
			},
			{
				"x": 1.2219501656,
				"y": -1.122647231,
				"z": -1.1383868837,
				"element": "C" 
			},
			{
				"x": 0.7167899141,
				"y": -1.4633401814,
				"z": -2.3903286765,
				"element": "C" 
			},
			{
				"x": -0.4341767954,
				"y": -0.8390755283,
				"z": -2.9158700971,
				"element": "C" 
			},
			{
				"x": -1.1117073122,
				"y": 0.1431779918,
				"z": -2.2037560343,
				"element": "C" 
			},
			{
				"x": -2.6989969725,
				"y": 3.1993804055,
				"z": 2.7231181094,
				"element": "H" 
			},
			{
				"x": -1.7634937758,
				"y": 4.371086919,
				"z": 2.0214603979,
				"element": "H" 
			},
			{
				"x": -0.4957654455,
				"y": 3.2463712847,
				"z": 3.7962539818,
				"element": "H" 
			},
			{
				"x": -1.8395061125,
				"y": 2.1186502361,
				"z": 0.0914592728,
				"element": "H" 
			},
			{
				"x": 2.105244095,
				"y": -1.5933761433,
				"z": -0.7212009731,
				"element": "H" 
			},
			{
				"x": 1.2200276567,
				"y": -2.2269922264,
				"z": -2.9758333444,
				"element": "H" 
			},
			{
				"x": -0.7939889259,
				"y": -1.135356065,
				"z": -3.8967091303,
				"element": "H" 
			},
			{
				"x": -1.9970111104,
				"y": 0.6192190642,
				"z": -2.6148499286,
				"element": "H" 
			}
		],
		 "valence_orbital": [ 
			{
				"type": "occ",
				"energy": -0.28954,
				"method": "rhf"
			},
			{
				"type": "occ",
				"energy": -0.25858,
				"method": "rhf"
			},
			{
				"type": "occ",
				"energy": -0.2527,
				"method": "rhf"
			},
			{
				"type": "occ",
				"energy": -0.23577,
				"method": "rhf"
			},
			{
				"type": "occ",
				"energy": -0.22162,
				"method": "rhf"
			},
			{
				"type": "unocc",
				"energy": -0.04321,
				"method": "rhf"
			},
			{
				"type": "unocc",
				"energy": 0.01222,
				"method": "rhf"
			},
			{
				"type": "unocc",
				"energy": 0.02955,
				"method": "rhf"
			},
			{
				"type": "unocc",
				"energy": 0.05775,
				"method": "rhf"
			},
			{
				"type": "unocc",
				"energy": 0.0984,
				"method": "rhf"
			}
		],
		"cosmo_sigma_profile": { 
			"-0.025": 0.0,
			"-0.024": 0.0,
			"-0.023": 0.0,
			"-0.022": 0.0,
			"-0.021": 0.0,
			"-0.02": 0.0,
			"-0.019": 0.0,
			"-0.018": 0.0,
			"-0.017": 0.0,
			"-0.016": 0.0,
			"-0.015": 0.0,
			"-0.014": 0.399601717316,
			"-0.013": 1.51249292452,
			"-0.012": 4.85129156723,
			"-0.011": 4.50758574285,
			"-0.01": 5.57106490555,
			"-0.009": 4.36601297096,
			"-0.008": 2.30188565207,
			"-0.007": 4.98283821875,
			"-0.006": 9.60349311708,
			"-0.005": 10.7132580573,
			"-0.004": 12.9201411649,
			"-0.003": 9.0184799032,
			"-0.002": 8.50892457815,
			"-0.001": 10.737951169,
			"0.0": 14.4422346409,
			"0.001": 16.1722187026,
			"0.002": 17.4844423761,
			"0.003": 18.4298900612,
			"0.004": 15.4478281752,
			"0.005": 8.34061413564,
			"0.006": 2.13490734647,
			"0.007": 2.52330596343,
			"0.008": 1.22865760928,
			"0.009": 1.3087190782,
			"0.01": 2.22636082086,
			"0.011": 2.09434722408,
			"0.012": 2.32971574956,
			"0.013": 4.71568286703,
			"0.014": 5.35842915239,
			"0.015": 1.78325802185,
			"0.016": 0.179021644433,
			"0.017": 0.0,
			"0.018": 0.0,
			"0.019": 0.0,
			"0.02": 0.0,
			"0.021": 0.0,
			"0.022": 0.0,
			"0.023": 0.0,
			"0.024": 0.0,
			"0.025": 0.0
		}
	}
}
