{
	 "smiles": "CC(=O)NC1=NN(C(C)=O)C2=C1C=CC=N2", 
	 "Tm": 491.15, 
	 "num_atms": 26, 
	 "gaussian": { 
		 "optdone": 1, 
		 "sigma_profile": "yes", 
		 "theory": "DFT", 
		 "functional": "B3LYP", 
		 "basiset": "6-31G**", 
		 "properties": { 
			 "R2extent": 4076.4576, 
			 "electric_dipole_moment_norm": 1.96527247475, 
			 "electric_quadrupole_moment_norm": 34.6392118047, 
			 "total_energy": -756.552753857, 
			 "HOMO_LUMO_gap": 0.16948, 
			 "cosmo_polarized_energy": -20.51, 
			 "cosmo_cavitation_energy": 31.3, 
			 "cosmo_dispersion_energy": -22.3, 
			 "cosmo_repulsion_energy": 1.72, 
			 "cosmo_total_nonelectrostatic_energy": 10.72, 
			 "SMD_solvation_energy": 5.55 
		},
		"coords": [
			{
				"x": 1.7680274711,
				"y": 1.9219806877,
				"z": 2.9454512123,
				"element": "C" 
			},
			{
				"x": 0.5501948131,
				"y": 1.234698284,
				"z": 3.5114737496,
				"element": "C" 
			},
			{
				"x": 0.3254307306,
				"y": 1.1326603498,
				"z": 4.7055338806,
				"element": "O" 
			},
			{
				"x": -0.3750824756,
				"y": 0.6819791077,
				"z": 2.6185892131,
				"element": "N" 
			},
			{
				"x": -0.4176616714,
				"y": 0.6258476326,
				"z": 1.2350756827,
				"element": "C" 
			},
			{
				"x": 0.4964723271,
				"y": 1.1336540686,
				"z": 0.4391929324,
				"element": "N" 
			},
			{
				"x": 0.0882181461,
				"y": 0.8691367143,
				"z": -0.8588027677,
				"element": "N" 
			},
			{
				"x": 0.8815013513,
				"y": 1.3008332944,
				"z": -1.9534009442,
				"element": "C" 
			},
			{
				"x": 2.1459842613,
				"y": 2.0371357308,
				"z": -1.5711231459,
				"element": "C" 
			},
			{
				"x": 0.5381571096,
				"y": 1.076974654,
				"z": -3.0918640135,
				"element": "O" 
			},
			{
				"x": -1.116982379,
				"y": 0.175525772,
				"z": -0.8653044379,
				"element": "C" 
			},
			{
				"x": -1.4791103852,
				"y": -0.0019246645,
				"z": 0.4890426677,
				"element": "C" 
			},
			{
				"x": -2.6681431985,
				"y": -0.6794847399,
				"z": 0.7752857982,
				"element": "C" 
			},
			{
				"x": -3.4083385967,
				"y": -1.1300816305,
				"z": -0.3102506081,
				"element": "C" 
			},
			{
				"x": -2.9400029351,
				"y": -0.8904711412,
				"z": -1.6183196273,
				"element": "C" 
			},
			{
				"x": -1.8105723324,
				"y": -0.2476054157,
				"z": -1.9213514538,
				"element": "N" 
			},
			{
				"x": 2.3632632242,
				"y": 2.2831099294,
				"z": 3.7836931659,
				"element": "H" 
			},
			{
				"x": 2.3537979285,
				"y": 1.2346916838,
				"z": 2.3292003989,
				"element": "H" 
			},
			{
				"x": 1.4812768443,
				"y": 2.7525311371,
				"z": 2.294895758,
				"element": "H" 
			},
			{
				"x": -1.1473876396,
				"y": 0.2488554617,
				"z": 3.1081536963,
				"element": "H" 
			},
			{
				"x": 2.7920373881,
				"y": 1.4090795617,
				"z": -0.9520264211,
				"element": "H" 
			},
			{
				"x": 2.6580957187,
				"y": 2.3107801066,
				"z": -2.4932362626,
				"element": "H" 
			},
			{
				"x": 1.9157479708,
				"y": 2.931919265,
				"z": -0.9867681546,
				"element": "H" 
			},
			{
				"x": -3.0057766296,
				"y": -0.8505043033,
				"z": 1.7939772169,
				"element": "H" 
			},
			{
				"x": -4.3414538042,
				"y": -1.6636357501,
				"z": -0.1657344139,
				"element": "H" 
			},
			{
				"x": -3.5214932376,
				"y": -1.244385796,
				"z": -2.4672831221,
				"element": "H" 
			}
		],
		 "valence_orbital": [ 
			{
				"type": "occ",
				"energy": -0.29126,
				"method": "rhf"
			},
			{
				"type": "occ",
				"energy": -0.27186,
				"method": "rhf"
			},
			{
				"type": "occ",
				"energy": -0.26866,
				"method": "rhf"
			},
			{
				"type": "occ",
				"energy": -0.2569,
				"method": "rhf"
			},
			{
				"type": "occ",
				"energy": -0.23572,
				"method": "rhf"
			},
			{
				"type": "unocc",
				"energy": -0.06624,
				"method": "rhf"
			},
			{
				"type": "unocc",
				"energy": -0.0379,
				"method": "rhf"
			},
			{
				"type": "unocc",
				"energy": -0.00383,
				"method": "rhf"
			},
			{
				"type": "unocc",
				"energy": 0.02513,
				"method": "rhf"
			},
			{
				"type": "unocc",
				"energy": 0.05939,
				"method": "rhf"
			}
		],
		"cosmo_sigma_profile": { 
			"-0.025": 0.0,
			"-0.024": 0.0,
			"-0.023": 0.0,
			"-0.022": 0.0,
			"-0.021": 0.0,
			"-0.02": 0.0,
			"-0.019": 0.0,
			"-0.018": 0.0,
			"-0.017": 0.0,
			"-0.016": 2.69403709867e-05,
			"-0.015": 1.61302229689,
			"-0.014": 1.52165280983,
			"-0.013": 1.32861750743,
			"-0.012": 1.78230698716,
			"-0.011": 0.76551268895,
			"-0.01": 1.38974134112,
			"-0.009": 2.07097857033,
			"-0.008": 3.1586520901,
			"-0.007": 7.92952582314,
			"-0.006": 12.7215279052,
			"-0.005": 17.8413426612,
			"-0.004": 17.4149357204,
			"-0.003": 19.9177421256,
			"-0.002": 25.141292527,
			"-0.001": 29.8553619361,
			"0.0": 18.8327383417,
			"0.001": 14.893571364,
			"0.002": 10.6849376021,
			"0.003": 6.57091552736,
			"0.004": 6.41371825826,
			"0.005": 4.36159575076,
			"0.006": 4.17590720551,
			"0.007": 3.17051162337,
			"0.008": 2.19754784593,
			"0.009": 3.30800972731,
			"0.01": 4.94653226797,
			"0.011": 5.74409565921,
			"0.012": 9.14443231001,
			"0.013": 5.71587618611,
			"0.014": 2.04850668168,
			"0.015": 1.07272753716,
			"0.016": 1.037908197,
			"0.017": 0.886392833308,
			"0.018": 0.702115685302,
			"0.019": 0.0218138930725,
			"0.02": 0.0,
			"0.021": 0.0,
			"0.022": 0.0,
			"0.023": 0.0,
			"0.024": 0.0,
			"0.025": 0.0
		}
	}
}
