{
	 "smiles": "CNCC1=CN(C)C(=O)N(C)C1=O", 
	 "Tm": 402.15, 
	 "num_atms": 26, 
	 "gaussian": { 
		 "optdone": 1, 
		 "sigma_profile": "yes", 
		 "theory": "DFT", 
		 "functional": "B3LYP", 
		 "basiset": "6-31G**", 
		 "properties": { 
			 "R2extent": 2929.6435, 
			 "electric_dipole_moment_norm": 4.02753503523, 
			 "electric_quadrupole_moment_norm": 11.8483807067, 
			 "total_energy": -627.412071721, 
			 "HOMO_LUMO_gap": 0.19023, 
			 "cosmo_polarized_energy": -15.8, 
			 "cosmo_cavitation_energy": 28.68, 
			 "cosmo_dispersion_energy": -20.84, 
			 "cosmo_repulsion_energy": 1.65, 
			 "cosmo_total_nonelectrostatic_energy": 9.49, 
			 "SMD_solvation_energy": 4.56 
		},
		"coords": [
			{
				"x": 1.9639890738,
				"y": -0.7867481131,
				"z": -3.2885605703,
				"element": "C" 
			},
			{
				"x": 2.2449179349,
				"y": -1.835255069,
				"z": -2.3154893099,
				"element": "N" 
			},
			{
				"x": 1.0924686563,
				"y": -2.3785141123,
				"z": -1.616450665,
				"element": "C" 
			},
			{
				"x": 0.3659895019,
				"y": -1.474546125,
				"z": -0.629153641,
				"element": "C" 
			},
			{
				"x": 0.8742621438,
				"y": -0.3279585459,
				"z": -0.1304131386,
				"element": "C" 
			},
			{
				"x": 0.2161290564,
				"y": 0.4623681757,
				"z": 0.7867084114,
				"element": "N" 
			},
			{
				"x": 0.8299284487,
				"y": 1.7042050901,
				"z": 1.2573565714,
				"element": "C" 
			},
			{
				"x": -1.0469351748,
				"y": 0.1203270752,
				"z": 1.2752369577,
				"element": "C" 
			},
			{
				"x": -1.6483006052,
				"y": 0.8093262247,
				"z": 2.0881805862,
				"element": "O" 
			},
			{
				"x": -1.5769518711,
				"y": -1.0638044777,
				"z": 0.7716140559,
				"element": "N" 
			},
			{
				"x": -2.9013734639,
				"y": -1.4347126578,
				"z": 1.2807707571,
				"element": "C" 
			},
			{
				"x": -0.9520721815,
				"y": -1.9112464215,
				"z": -0.1732204264,
				"element": "C" 
			},
			{
				"x": -1.4989974562,
				"y": -2.9374075517,
				"z": -0.5630496796,
				"element": "O" 
			},
			{
				"x": 1.321135271,
				"y": -1.1951461547,
				"z": -4.0763436981,
				"element": "H" 
			},
			{
				"x": 1.4616001446,
				"y": 0.1110819878,
				"z": -2.8896100708,
				"element": "H" 
			},
			{
				"x": 2.9004132547,
				"y": -0.471333874,
				"z": -3.7588300593,
				"element": "H" 
			},
			{
				"x": 2.9796711943,
				"y": -1.5603725003,
				"z": -1.671260503,
				"element": "H" 
			},
			{
				"x": 1.4029966524,
				"y": -3.2899548773,
				"z": -1.0887110189,
				"element": "H" 
			},
			{
				"x": 0.3612336493,
				"y": -2.715871046,
				"z": -2.3596321157,
				"element": "H" 
			},
			{
				"x": 1.8492178388,
				"y": 0.0421795292,
				"z": -0.4312726083,
				"element": "H" 
			},
			{
				"x": 0.1679693048,
				"y": 2.1373590909,
				"z": 2.0043622482,
				"element": "H" 
			},
			{
				"x": 1.8059138185,
				"y": 1.4979278797,
				"z": 1.7070113938,
				"element": "H" 
			},
			{
				"x": 0.955203176,
				"y": 2.4088399932,
				"z": 0.4290301047,
				"element": "H" 
			},
			{
				"x": -3.1809627383,
				"y": -2.3694688817,
				"z": 0.8004315702,
				"element": "H" 
			},
			{
				"x": -2.8633085171,
				"y": -1.5544354839,
				"z": 2.3656437886,
				"element": "H" 
			},
			{
				"x": -3.6235371121,
				"y": -0.6494391544,
				"z": 1.0473510597,
				"element": "H" 
			}
		],
		 "valence_orbital": [ 
			{
				"type": "occ",
				"energy": -0.28658,
				"method": "rhf"
			},
			{
				"type": "occ",
				"energy": -0.26788,
				"method": "rhf"
			},
			{
				"type": "occ",
				"energy": -0.26033,
				"method": "rhf"
			},
			{
				"type": "occ",
				"energy": -0.23238,
				"method": "rhf"
			},
			{
				"type": "occ",
				"energy": -0.22529,
				"method": "rhf"
			},
			{
				"type": "unocc",
				"energy": -0.03506,
				"method": "rhf"
			},
			{
				"type": "unocc",
				"energy": 0.01634,
				"method": "rhf"
			},
			{
				"type": "unocc",
				"energy": 0.06875,
				"method": "rhf"
			},
			{
				"type": "unocc",
				"energy": 0.09479,
				"method": "rhf"
			},
			{
				"type": "unocc",
				"energy": 0.10303,
				"method": "rhf"
			}
		],
		"cosmo_sigma_profile": { 
			"-0.025": 0.0,
			"-0.024": 0.0,
			"-0.023": 0.0,
			"-0.022": 0.0,
			"-0.021": 0.0,
			"-0.02": 0.0,
			"-0.019": 0.0,
			"-0.018": 0.0,
			"-0.017": 0.0,
			"-0.016": 0.0,
			"-0.015": 0.0,
			"-0.014": 0.0,
			"-0.013": 0.0,
			"-0.012": 0.0,
			"-0.011": 1.10635218758,
			"-0.01": 2.84051276375,
			"-0.009": 2.57832218824,
			"-0.008": 3.66531271598,
			"-0.007": 4.73561126658,
			"-0.006": 9.49910997652,
			"-0.005": 11.805581301,
			"-0.004": 21.5770106909,
			"-0.003": 30.1984420454,
			"-0.002": 28.3346822285,
			"-0.001": 21.5304633042,
			"0.0": 19.3470696218,
			"0.001": 9.34098271956,
			"0.002": 5.84904708875,
			"0.003": 4.955116088,
			"0.004": 4.07948049344,
			"0.005": 3.0465938385,
			"0.006": 4.57002593729,
			"0.007": 4.36079224739,
			"0.008": 2.37075601835,
			"0.009": 3.51952348702,
			"0.01": 4.17710951619,
			"0.011": 4.32839402736,
			"0.012": 5.68847091246,
			"0.013": 8.97887355864,
			"0.014": 1.70863734408,
			"0.015": 0.523659118212,
			"0.016": 0.534705312911,
			"0.017": 0.34918341817,
			"0.018": 0.070441122131,
			"0.019": 0.0,
			"0.02": 0.0,
			"0.021": 0.0,
			"0.022": 0.0,
			"0.023": 0.0,
			"0.024": 0.0,
			"0.025": 0.0
		}
	}
}
