{
	 "smiles": "CC(C)OC(=O)C(C)N(C(=O)C1=CC=CC=C1)C1=CC=C(F)C(Cl)=C1", 
	 "Tm": 357.15, 
	 "num_atms": 44, 
	 "gaussian": { 
		 "optdone": 1, 
		 "sigma_profile": "yes", 
		 "theory": "DFT", 
		 "functional": "B3LYP", 
		 "basiset": "6-31G**", 
		 "properties": { 
			 "R2extent": 12379.6536, 
			 "electric_dipole_moment_norm": 2.56931300935, 
			 "electric_quadrupole_moment_norm": 22.1354646224, 
			 "total_energy": -1575.95508357, 
			 "HOMO_LUMO_gap": 0.19585, 
			 "cosmo_polarized_energy": -13.5, 
			 "cosmo_cavitation_energy": 49.86, 
			 "cosmo_dispersion_energy": -32.18, 
			 "cosmo_repulsion_energy": 2.5, 
			 "cosmo_total_nonelectrostatic_energy": 20.18, 
			 "SMD_solvation_energy": 10.15 
		},
		"coords": [
			{
				"x": 2.2657243624,
				"y": 3.836018138,
				"z": -2.2986444584,
				"element": "C" 
			},
			{
				"x": 1.4165792851,
				"y": 3.6109947464,
				"z": -1.0563016305,
				"element": "C" 
			},
			{
				"x": 1.6787176967,
				"y": 4.6180695407,
				"z": 0.0579723063,
				"element": "C" 
			},
			{
				"x": 1.7504118338,
				"y": 2.2680885843,
				"z": -0.5824455917,
				"element": "O" 
			},
			{
				"x": 0.8095269651,
				"y": 1.5986894516,
				"z": 0.105913711,
				"element": "C" 
			},
			{
				"x": -0.29324388,
				"y": 2.0359300864,
				"z": 0.3658779688,
				"element": "O" 
			},
			{
				"x": 1.342053398,
				"y": 0.2139756846,
				"z": 0.5010243152,
				"element": "C" 
			},
			{
				"x": 2.4998270958,
				"y": 0.3237422442,
				"z": 1.5037957016,
				"element": "C" 
			},
			{
				"x": 0.2493191538,
				"y": -0.6676840975,
				"z": 0.9418339187,
				"element": "N" 
			},
			{
				"x": -0.3037882499,
				"y": -1.490099552,
				"z": -0.0392187977,
				"element": "C" 
			},
			{
				"x": 0.1957885355,
				"y": -1.5634618822,
				"z": -1.1583467472,
				"element": "O" 
			},
			{
				"x": -1.5444516029,
				"y": -2.2756399094,
				"z": 0.2778710449,
				"element": "C" 
			},
			{
				"x": -2.64375701,
				"y": -1.7280198004,
				"z": 0.9533199917,
				"element": "C" 
			},
			{
				"x": -3.8079143758,
				"y": -2.4782837295,
				"z": 1.1184054632,
				"element": "C" 
			},
			{
				"x": -3.8798993134,
				"y": -3.782008229,
				"z": 0.6240143454,
				"element": "C" 
			},
			{
				"x": -2.7912388272,
				"y": -4.3277460117,
				"z": -0.0607229907,
				"element": "C" 
			},
			{
				"x": -1.6361916285,
				"y": -3.5719519676,
				"z": -0.2485428547,
				"element": "C" 
			},
			{
				"x": -0.0721716507,
				"y": -0.7689783581,
				"z": 2.332702463,
				"element": "C" 
			},
			{
				"x": -0.5661241709,
				"y": 0.3370889788,
				"z": 3.0374038296,
				"element": "C" 
			},
			{
				"x": -0.8394100957,
				"y": 0.2310483477,
				"z": 4.3996804335,
				"element": "C" 
			},
			{
				"x": -0.6352212349,
				"y": -0.9776083643,
				"z": 5.0551515646,
				"element": "C" 
			},
			{
				"x": -0.9111343126,
				"y": -1.0750490566,
				"z": 6.3640931787,
				"element": "F" 
			},
			{
				"x": -0.1456437663,
				"y": -2.0868709119,
				"z": 4.3631573544,
				"element": "C" 
			},
			{
				"x": 0.1131196149,
				"y": -3.5909598534,
				"z": 5.2104934718,
				"element": "Cl" 
			},
			{
				"x": 0.1495309718,
				"y": -1.9770890359,
				"z": 3.0061148,
				"element": "C" 
			},
			{
				"x": 2.0587669567,
				"y": 3.0732523572,
				"z": -3.0540146465,
				"element": "H" 
			},
			{
				"x": 3.3319420551,
				"y": 3.7999022422,
				"z": -2.0534097272,
				"element": "H" 
			},
			{
				"x": 2.0449182524,
				"y": 4.8176870962,
				"z": -2.7289967004,
				"element": "H" 
			},
			{
				"x": 0.352485681,
				"y": 3.6075617564,
				"z": -1.3082948142,
				"element": "H" 
			},
			{
				"x": 1.452911938,
				"y": 5.6307578406,
				"z": -0.2912507165,
				"element": "H" 
			},
			{
				"x": 1.0459934152,
				"y": 4.4081201318,
				"z": 0.9236526509,
				"element": "H" 
			},
			{
				"x": 2.728548889,
				"y": 4.5875825474,
				"z": 0.3672296096,
				"element": "H" 
			},
			{
				"x": 1.7197466411,
				"y": -0.2364521819,
				"z": -0.4201428753,
				"element": "H" 
			},
			{
				"x": 3.3010119559,
				"y": 0.9153345996,
				"z": 1.0563378799,
				"element": "H" 
			},
			{
				"x": 2.1967434462,
				"y": 0.802343987,
				"z": 2.4384606267,
				"element": "H" 
			},
			{
				"x": 2.8895458152,
				"y": -0.670432464,
				"z": 1.7375838859,
				"element": "H" 
			},
			{
				"x": -2.5969673756,
				"y": -0.7128681377,
				"z": 1.3311625327,
				"element": "H" 
			},
			{
				"x": -4.6597209691,
				"y": -2.0427881351,
				"z": 1.6325602283,
				"element": "H" 
			},
			{
				"x": -4.7841749736,
				"y": -4.3674310638,
				"z": 0.7637834246,
				"element": "H" 
			},
			{
				"x": -2.8470753108,
				"y": -5.3372935159,
				"z": -0.4573568048,
				"element": "H" 
			},
			{
				"x": -0.7966708401,
				"y": -3.9693523898,
				"z": -0.8094780768,
				"element": "H" 
			},
			{
				"x": -0.7459772087,
				"y": 1.2624514776,
				"z": 2.5025808714,
				"element": "H" 
			},
			{
				"x": -1.225134244,
				"y": 1.0716789907,
				"z": 4.9664414615,
				"element": "H" 
			},
			{
				"x": 0.544797082,
				"y": -2.8346501816,
				"z": 2.4744483987,
				"element": "H" 
			}
		],
		 "valence_orbital": [ 
			{
				"type": "occ",
				"energy": -0.2689,
				"method": "rhf"
			},
			{
				"type": "occ",
				"energy": -0.26032,
				"method": "rhf"
			},
			{
				"type": "occ",
				"energy": -0.25444,
				"method": "rhf"
			},
			{
				"type": "occ",
				"energy": -0.24755,
				"method": "rhf"
			},
			{
				"type": "occ",
				"energy": -0.23373,
				"method": "rhf"
			},
			{
				"type": "unocc",
				"energy": -0.03788,
				"method": "rhf"
			},
			{
				"type": "unocc",
				"energy": -0.02606,
				"method": "rhf"
			},
			{
				"type": "unocc",
				"energy": -0.01666,
				"method": "rhf"
			},
			{
				"type": "unocc",
				"energy": -0.0026,
				"method": "rhf"
			},
			{
				"type": "unocc",
				"energy": 0.0035,
				"method": "rhf"
			}
		],
		"cosmo_sigma_profile": { 
			"-0.025": 0.0,
			"-0.024": 0.0,
			"-0.023": 0.0,
			"-0.022": 0.0,
			"-0.021": 0.0,
			"-0.02": 0.0,
			"-0.019": 0.0,
			"-0.018": 0.0,
			"-0.017": 0.0,
			"-0.016": 0.0,
			"-0.015": 0.0,
			"-0.014": 0.0,
			"-0.013": 0.0,
			"-0.012": 0.0,
			"-0.011": 0.0,
			"-0.01": 0.0,
			"-0.009": 0.258701951968,
			"-0.008": 3.10073252842,
			"-0.007": 3.52706384967,
			"-0.006": 11.9342753527,
			"-0.005": 21.2211182197,
			"-0.004": 38.2270487705,
			"-0.003": 37.8657329774,
			"-0.002": 40.0806651258,
			"-0.001": 42.4504990477,
			"0.0": 44.7438824531,
			"0.001": 32.0501047273,
			"0.002": 23.3373510925,
			"0.003": 26.9158577122,
			"0.004": 31.5336105217,
			"0.005": 12.3086252197,
			"0.006": 4.5914528068,
			"0.007": 3.75287807786,
			"0.008": 2.59317619139,
			"0.009": 2.80276330395,
			"0.01": 3.17233227386,
			"0.011": 4.61746943405,
			"0.012": 3.72674727978,
			"0.013": 3.04239169517,
			"0.014": 0.592775790552,
			"0.015": 0.0,
			"0.016": 0.0,
			"0.017": 0.0,
			"0.018": 0.0,
			"0.019": 0.0,
			"0.02": 0.0,
			"0.021": 0.0,
			"0.022": 0.0,
			"0.023": 0.0,
			"0.024": 0.0,
			"0.025": 0.0
		}
	}
}
