{
	 "smiles": "OC(=O)C1=CC(OCC2=CC=CC=C2)=CC=C1", 
	 "Tm": 387.15, 
	 "num_atms": 29, 
	 "gaussian": { 
		 "optdone": 1, 
		 "sigma_profile": "yes", 
		 "theory": "DFT", 
		 "functional": "B3LYP", 
		 "basiset": "6-31G**", 
		 "properties": { 
			 "R2extent": 4465.2707, 
			 "electric_dipole_moment_norm": 5.23637428857, 
			 "electric_quadrupole_moment_norm": 24.9773023351, 
			 "total_energy": -766.389934178, 
			 "HOMO_LUMO_gap": 0.20424, 
			 "cosmo_polarized_energy": -15.02, 
			 "cosmo_cavitation_energy": 33.73, 
			 "cosmo_dispersion_energy": -22.92, 
			 "cosmo_repulsion_energy": 1.77, 
			 "cosmo_total_nonelectrostatic_energy": 12.59, 
			 "SMD_solvation_energy": 6.73 
		},
		"coords": [
			{
				"x": 1.8248850993,
				"y": 2.6914100716,
				"z": -1.3040336497,
				"element": "O" 
			},
			{
				"x": 0.9667729609,
				"y": 3.0599396615,
				"z": -0.3150228586,
				"element": "C" 
			},
			{
				"x": 0.8973693527,
				"y": 4.2176276185,
				"z": 0.0257577238,
				"element": "O" 
			},
			{
				"x": 0.1513267466,
				"y": 1.9651921163,
				"z": 0.3067010955,
				"element": "C" 
			},
			{
				"x": -0.1076014079,
				"y": 0.7608686119,
				"z": -0.3597638914,
				"element": "C" 
			},
			{
				"x": -0.8521152484,
				"y": -0.2403409129,
				"z": 0.2699246913,
				"element": "C" 
			},
			{
				"x": -1.1436844198,
				"y": -1.4197145034,
				"z": -0.3833882052,
				"element": "O" 
			},
			{
				"x": -0.0991926648,
				"y": -2.4177022724,
				"z": -0.367392146,
				"element": "C" 
			},
			{
				"x": 1.0743746945,
				"y": -2.073055567,
				"z": -1.2567057659,
				"element": "C" 
			},
			{
				"x": 2.3262940099,
				"y": -1.7645840825,
				"z": -0.7130939269,
				"element": "C" 
			},
			{
				"x": 3.3913963689,
				"y": -1.3951438949,
				"z": -1.5399359533,
				"element": "C" 
			},
			{
				"x": 3.2096261697,
				"y": -1.3272223339,
				"z": -2.922251647,
				"element": "C" 
			},
			{
				"x": 1.9629092414,
				"y": -1.6377469009,
				"z": -3.4754274694,
				"element": "C" 
			},
			{
				"x": 0.9046087043,
				"y": -2.009284831,
				"z": -2.6477302974,
				"element": "C" 
			},
			{
				"x": -1.3561164175,
				"y": -0.0319488146,
				"z": 1.5566272847,
				"element": "C" 
			},
			{
				"x": -1.1225537159,
				"y": 1.1823152998,
				"z": 2.2067946464,
				"element": "C" 
			},
			{
				"x": -0.3735792018,
				"y": 2.1803870873,
				"z": 1.5878632707,
				"element": "C" 
			},
			{
				"x": 1.8933819205,
				"y": 1.7267154364,
				"z": -1.3500400537,
				"element": "H" 
			},
			{
				"x": 0.2211081646,
				"y": 0.5922421487,
				"z": -1.3794673143,
				"element": "H" 
			},
			{
				"x": 0.2362581559,
				"y": -2.583833834,
				"z": 0.6645270687,
				"element": "H" 
			},
			{
				"x": -0.5970907523,
				"y": -3.3265825469,
				"z": -0.7167799788,
				"element": "H" 
			},
			{
				"x": 2.4676185478,
				"y": -1.8080646204,
				"z": 0.3639625703,
				"element": "H" 
			},
			{
				"x": 4.3585578784,
				"y": -1.160301574,
				"z": -1.104794453,
				"element": "H" 
			},
			{
				"x": 4.0345413615,
				"y": -1.0383041548,
				"z": -3.5669233729,
				"element": "H" 
			},
			{
				"x": 1.8189546038,
				"y": -1.5909399076,
				"z": -4.5509919337,
				"element": "H" 
			},
			{
				"x": -0.066857983,
				"y": -2.2403287885,
				"z": -3.0770536559,
				"element": "H" 
			},
			{
				"x": -1.9409635275,
				"y": -0.8183520027,
				"z": 2.0233430003,
				"element": "H" 
			},
			{
				"x": -1.5269019979,
				"y": 1.3462419221,
				"z": 3.2012177574,
				"element": "H" 
			},
			{
				"x": -0.1825266441,
				"y": 3.1303115681,
				"z": 2.0745774641,
				"element": "H" 
			}
		],
		 "valence_orbital": [ 
			{
				"type": "occ",
				"energy": -0.27443,
				"method": "rhf"
			},
			{
				"type": "occ",
				"energy": -0.26819,
				"method": "rhf"
			},
			{
				"type": "occ",
				"energy": -0.26605,
				"method": "rhf"
			},
			{
				"type": "occ",
				"energy": -0.25911,
				"method": "rhf"
			},
			{
				"type": "occ",
				"energy": -0.25171,
				"method": "rhf"
			},
			{
				"type": "unocc",
				"energy": -0.04747,
				"method": "rhf"
			},
			{
				"type": "unocc",
				"energy": -0.02793,
				"method": "rhf"
			},
			{
				"type": "unocc",
				"energy": -0.01789,
				"method": "rhf"
			},
			{
				"type": "unocc",
				"energy": -0.01337,
				"method": "rhf"
			},
			{
				"type": "unocc",
				"energy": 0.0515,
				"method": "rhf"
			}
		],
		"cosmo_sigma_profile": { 
			"-0.025": 0.0,
			"-0.024": 0.0,
			"-0.023": 0.0,
			"-0.022": 0.0,
			"-0.021": 0.0,
			"-0.02": 0.0,
			"-0.019": 0.0,
			"-0.018": 0.0,
			"-0.017": 0.0,
			"-0.016": 0.0,
			"-0.015": 0.0,
			"-0.014": 0.0,
			"-0.013": 0.0,
			"-0.012": 0.113445351518,
			"-0.011": 0.640609419963,
			"-0.01": 1.22927901506,
			"-0.009": 1.94440394244,
			"-0.008": 3.0248874069,
			"-0.007": 5.0364592646,
			"-0.006": 18.1862196643,
			"-0.005": 25.4294552882,
			"-0.004": 25.2396458869,
			"-0.003": 21.8623603484,
			"-0.002": 19.2102851992,
			"-0.001": 17.4389572623,
			"0.0": 16.8640837383,
			"0.001": 18.0434735897,
			"0.002": 19.1087597384,
			"0.003": 19.8322693257,
			"0.004": 11.480357354,
			"0.005": 8.80472525134,
			"0.006": 4.50734084297,
			"0.007": 3.78245253341,
			"0.008": 3.82319761098,
			"0.009": 4.20339397972,
			"0.01": 6.41572423273,
			"0.011": 6.55857393667,
			"0.012": 5.26557744124,
			"0.013": 1.5619361129,
			"0.014": 0.0506071329739,
			"0.015": 0.0,
			"0.016": 0.0,
			"0.017": 0.0,
			"0.018": 0.0,
			"0.019": 0.0,
			"0.02": 0.0,
			"0.021": 0.0,
			"0.022": 0.0,
			"0.023": 0.0,
			"0.024": 0.0,
			"0.025": 0.0
		}
	}
}
