{
	 "smiles": "CN1C(CCl)NC2=CC(Cl)=C(C=C2S1(=O)=O)S(N)(=O)=O", 
	 "Tm": 498.15, 
	 "num_atms": 31, 
	 "gaussian": { 
		 "optdone": 1, 
		 "sigma_profile": "yes", 
		 "theory": "DFT", 
		 "functional": "B3LYP", 
		 "basiset": "6-31G**", 
		 "properties": { 
			 "R2extent": 8978.6566, 
			 "electric_dipole_moment_norm": 9.20321767916, 
			 "electric_quadrupole_moment_norm": 16.2302633614, 
			 "total_energy": -2531.34327926, 
			 "HOMO_LUMO_gap": 0.18561, 
			 "cosmo_polarized_energy": -31.09, 
			 "cosmo_cavitation_energy": 39.57, 
			 "cosmo_dispersion_energy": -29.59, 
			 "cosmo_repulsion_energy": 2.18, 
			 "cosmo_total_nonelectrostatic_energy": 12.16, 
			 "SMD_solvation_energy": 3.25 
		},
		"coords": [
			{
				"x": -1.0436685221,
				"y": -3.2581272318,
				"z": -1.000139042,
				"element": "C" 
			},
			{
				"x": 0.101905156,
				"y": -3.1927919568,
				"z": -0.071179641,
				"element": "N" 
			},
			{
				"x": -0.2467066128,
				"y": -2.8199233529,
				"z": 1.3003081411,
				"element": "C" 
			},
			{
				"x": 0.7431456331,
				"y": -3.3774462849,
				"z": 2.338099571,
				"element": "C" 
			},
			{
				"x": 0.0318767597,
				"y": -3.1606836558,
				"z": 3.9976080358,
				"element": "Cl" 
			},
			{
				"x": -0.4707557469,
				"y": -1.3761994676,
				"z": 1.4344207378,
				"element": "N" 
			},
			{
				"x": 0.1379952755,
				"y": -0.4028000477,
				"z": 0.6864919089,
				"element": "C" 
			},
			{
				"x": -0.1507921616,
				"y": 0.9563837361,
				"z": 0.9363860391,
				"element": "C" 
			},
			{
				"x": 0.4126970868,
				"y": 1.9564651659,
				"z": 0.1604347824,
				"element": "C" 
			},
			{
				"x": -0.0226847676,
				"y": 3.6082212245,
				"z": 0.5553261211,
				"element": "Cl" 
			},
			{
				"x": 1.265755639,
				"y": 1.6590040067,
				"z": -0.9192145275,
				"element": "C" 
			},
			{
				"x": 1.5518103235,
				"y": 0.3195921882,
				"z": -1.1764702588,
				"element": "C" 
			},
			{
				"x": 1.0120381287,
				"y": -0.691990672,
				"z": -0.3889074697,
				"element": "C" 
			},
			{
				"x": 1.4769248768,
				"y": -2.3839863408,
				"z": -0.6814251867,
				"element": "S" 
			},
			{
				"x": 2.5935276884,
				"y": -2.734911124,
				"z": 0.1967751655,
				"element": "O" 
			},
			{
				"x": 1.5462450701,
				"y": -2.6366324925,
				"z": -2.1179655762,
				"element": "O" 
			},
			{
				"x": 2.0885166737,
				"y": 2.8904703111,
				"z": -1.9562843966,
				"element": "S" 
			},
			{
				"x": 0.8920269219,
				"y": 3.7785740117,
				"z": -2.7135692429,
				"element": "N" 
			},
			{
				"x": 2.751735324,
				"y": 2.1316529507,
				"z": -3.0141994003,
				"element": "O" 
			},
			{
				"x": 2.8034028207,
				"y": 3.8134822746,
				"z": -1.0832770821,
				"element": "O" 
			},
			{
				"x": -0.6772832969,
				"y": -3.5525083435,
				"z": -1.9819431714,
				"element": "H" 
			},
			{
				"x": -1.7276399285,
				"y": -4.0280590598,
				"z": -0.6340529515,
				"element": "H" 
			},
			{
				"x": -1.5835040794,
				"y": -2.3057936257,
				"z": -1.0829865214,
				"element": "H" 
			},
			{
				"x": -1.2073798392,
				"y": -3.3064525841,
				"z": 1.4980401335,
				"element": "H" 
			},
			{
				"x": 0.8838507799,
				"y": -4.4461474743,
				"z": 2.1804132309,
				"element": "H" 
			},
			{
				"x": 1.7023635033,
				"y": -2.8683636018,
				"z": 2.325207394,
				"element": "H" 
			},
			{
				"x": -0.9583404105,
				"y": -1.0830055475,
				"z": 2.2686312038,
				"element": "H" 
			},
			{
				"x": -0.8235300589,
				"y": 1.223622904,
				"z": 1.7443106599,
				"element": "H" 
			},
			{
				"x": 2.2070209821,
				"y": 0.0736147104,
				"z": -2.0056935783,
				"element": "H" 
			},
			{
				"x": 0.3481605045,
				"y": 3.2336598173,
				"z": -3.3743787034,
				"element": "H" 
			},
			{
				"x": 0.3346862767,
				"y": 4.3347795624,
				"z": -2.0733663749,
				"element": "H" 
			}
		],
		 "valence_orbital": [ 
			{
				"type": "occ",
				"energy": -0.31251,
				"method": "rhf"
			},
			{
				"type": "occ",
				"energy": -0.30799,
				"method": "rhf"
			},
			{
				"type": "occ",
				"energy": -0.29555,
				"method": "rhf"
			},
			{
				"type": "occ",
				"energy": -0.28407,
				"method": "rhf"
			},
			{
				"type": "occ",
				"energy": -0.24913,
				"method": "rhf"
			},
			{
				"type": "unocc",
				"energy": -0.06352,
				"method": "rhf"
			},
			{
				"type": "unocc",
				"energy": -0.04864,
				"method": "rhf"
			},
			{
				"type": "unocc",
				"energy": -0.01006,
				"method": "rhf"
			},
			{
				"type": "unocc",
				"energy": -0.00192,
				"method": "rhf"
			},
			{
				"type": "unocc",
				"energy": 0.0366,
				"method": "rhf"
			}
		],
		"cosmo_sigma_profile": { 
			"-0.025": 0.0,
			"-0.024": 0.0,
			"-0.023": 0.0,
			"-0.022": 0.0,
			"-0.021": 0.0,
			"-0.02": 0.0,
			"-0.019": 0.0,
			"-0.018": 0.0,
			"-0.017": 0.0,
			"-0.016": 0.55399163597,
			"-0.015": 2.84849715404,
			"-0.014": 2.90862959714,
			"-0.013": 3.71704237145,
			"-0.012": 3.86520975859,
			"-0.011": 3.78196445973,
			"-0.01": 4.97158932838,
			"-0.009": 7.25304563755,
			"-0.008": 9.8899474838,
			"-0.007": 10.1671938247,
			"-0.006": 12.0752323275,
			"-0.005": 15.1268555898,
			"-0.004": 17.9150031871,
			"-0.003": 21.4776851675,
			"-0.002": 17.9113688714,
			"-0.001": 21.9456990494,
			"0.0": 22.1403253724,
			"0.001": 14.1729026985,
			"0.002": 14.7212674825,
			"0.003": 14.7576292654,
			"0.004": 11.8270981795,
			"0.005": 14.1008734261,
			"0.006": 11.80760491,
			"0.007": 8.32352099971,
			"0.008": 8.95502843521,
			"0.009": 10.9859802281,
			"0.01": 16.7378649029,
			"0.011": 13.1626881697,
			"0.012": 1.2325927327,
			"0.013": 0.0,
			"0.014": 0.0,
			"0.015": 0.0,
			"0.016": 0.0,
			"0.017": 0.0,
			"0.018": 0.0,
			"0.019": 0.0,
			"0.02": 0.0,
			"0.021": 0.0,
			"0.022": 0.0,
			"0.023": 0.0,
			"0.024": 0.0,
			"0.025": 0.0
		}
	}
}
