{
	 "smiles": "FC1=CC=C(C=C1)N1C(S)=NN=C1C1=CC=NC=C1", 
	 "Tm": 443.15, 
	 "num_atms": 28, 
	 "gaussian": { 
		 "optdone": 1, 
		 "sigma_profile": "yes", 
		 "theory": "DFT", 
		 "functional": "B3LYP", 
		 "basiset": "6-31G**", 
		 "properties": { 
			 "R2extent": 6043.6281, 
			 "electric_dipole_moment_norm": 5.24958804574, 
			 "electric_quadrupole_moment_norm": 23.1127343149, 
			 "total_energy": -1217.79621058, 
			 "HOMO_LUMO_gap": 0.18073, 
			 "cosmo_polarized_energy": -18.96, 
			 "cosmo_cavitation_energy": 35.51, 
			 "cosmo_dispersion_energy": -24.8, 
			 "cosmo_repulsion_energy": 1.84, 
			 "cosmo_total_nonelectrostatic_energy": 12.55, 
			 "SMD_solvation_energy": 2.79 
		},
		"coords": [
			{
				"x": 3.5787829877,
				"y": 2.1319341036,
				"z": 2.3508422619,
				"element": "F" 
			},
			{
				"x": 2.3831139227,
				"y": 1.61925275,
				"z": 2.0131644336,
				"element": "C" 
			},
			{
				"x": 2.042646131,
				"y": 1.5355217638,
				"z": 0.6664655728,
				"element": "C" 
			},
			{
				"x": 0.8006742753,
				"y": 1.0059892695,
				"z": 0.320792467,
				"element": "C" 
			},
			{
				"x": -0.070846772,
				"y": 0.5613179693,
				"z": 1.3205214339,
				"element": "C" 
			},
			{
				"x": 0.2879526973,
				"y": 0.6560147204,
				"z": 2.6695553386,
				"element": "C" 
			},
			{
				"x": 1.5253086125,
				"y": 1.1908980662,
				"z": 3.0224833998,
				"element": "C" 
			},
			{
				"x": -1.3471227764,
				"y": 0.0200127092,
				"z": 0.9616235451,
				"element": "N" 
			},
			{
				"x": -2.5650046149,
				"y": 0.6737164052,
				"z": 1.0391580839,
				"element": "C" 
			},
			{
				"x": -2.8529549429,
				"y": 2.2397200774,
				"z": 1.801124293,
				"element": "S" 
			},
			{
				"x": -3.524090588,
				"y": -0.0698218697,
				"z": 0.5397081233,
				"element": "N" 
			},
			{
				"x": -2.9535896979,
				"y": -1.2398837683,
				"z": 0.1132915419,
				"element": "N" 
			},
			{
				"x": -1.6572345477,
				"y": -1.1866857511,
				"z": 0.347667387,
				"element": "C" 
			},
			{
				"x": -0.7324026507,
				"y": -2.2694877092,
				"z": -0.0150075531,
				"element": "C" 
			},
			{
				"x": -1.1316902662,
				"y": -3.1729576116,
				"z": -1.0134838398,
				"element": "C" 
			},
			{
				"x": -0.2831613539,
				"y": -4.2227842097,
				"z": -1.3510255325,
				"element": "C" 
			},
			{
				"x": 0.9125991101,
				"y": -4.4342211428,
				"z": -0.7816569753,
				"element": "N" 
			},
			{
				"x": 1.2811960674,
				"y": -3.5751965373,
				"z": 0.1747306196,
				"element": "C" 
			},
			{
				"x": 0.5100426729,
				"y": -2.4912200641,
				"z": 0.5959665754,
				"element": "C" 
			},
			{
				"x": 2.7411019938,
				"y": 1.8824622294,
				"z": -0.0866684475,
				"element": "H" 
			},
			{
				"x": 0.5069235604,
				"y": 0.9292395859,
				"z": -0.7208625571,
				"element": "H" 
			},
			{
				"x": -0.401098443,
				"y": 0.3113764924,
				"z": 3.4330196312,
				"element": "H" 
			},
			{
				"x": 1.8310707231,
				"y": 1.2770966634,
				"z": 4.0590770096,
				"element": "H" 
			},
			{
				"x": -1.7456991619,
				"y": 2.8445897961,
				"z": 1.3232498494,
				"element": "H" 
			},
			{
				"x": -2.0905379927,
				"y": -3.045764741,
				"z": -1.5023071179,
				"element": "H" 
			},
			{
				"x": -0.5773151735,
				"y": -4.930495587,
				"z": -2.1238057738,
				"element": "H" 
			},
			{
				"x": 2.2482442004,
				"y": -3.7603552674,
				"z": 0.6393626815,
				"element": "H" 
			},
			{
				"x": 0.8749920272,
				"y": -1.8544683427,
				"z": 1.3920135487,
				"element": "H" 
			}
		],
		 "valence_orbital": [ 
			{
				"type": "occ",
				"energy": -0.28008,
				"method": "rhf"
			},
			{
				"type": "occ",
				"energy": -0.26899,
				"method": "rhf"
			},
			{
				"type": "occ",
				"energy": -0.26037,
				"method": "rhf"
			},
			{
				"type": "occ",
				"energy": -0.2583,
				"method": "rhf"
			},
			{
				"type": "occ",
				"energy": -0.23946,
				"method": "rhf"
			},
			{
				"type": "unocc",
				"energy": -0.05873,
				"method": "rhf"
			},
			{
				"type": "unocc",
				"energy": -0.04795,
				"method": "rhf"
			},
			{
				"type": "unocc",
				"energy": -0.04054,
				"method": "rhf"
			},
			{
				"type": "unocc",
				"energy": -0.0169,
				"method": "rhf"
			},
			{
				"type": "unocc",
				"energy": 0.00047,
				"method": "rhf"
			}
		],
		"cosmo_sigma_profile": { 
			"-0.025": 0.0,
			"-0.024": 0.0,
			"-0.023": 0.0,
			"-0.022": 0.0,
			"-0.021": 0.0,
			"-0.02": 0.0,
			"-0.019": 0.0,
			"-0.018": 0.0,
			"-0.017": 0.0,
			"-0.016": 0.0,
			"-0.015": 0.0,
			"-0.014": 0.0,
			"-0.013": 0.0875365092315,
			"-0.012": 0.839363582499,
			"-0.011": 1.25681504555,
			"-0.01": 2.07528575406,
			"-0.009": 2.28501648906,
			"-0.008": 8.74574725772,
			"-0.007": 14.4830415719,
			"-0.006": 21.4044056897,
			"-0.005": 16.8623081487,
			"-0.004": 17.0711502898,
			"-0.003": 15.2891958861,
			"-0.002": 14.2592023769,
			"-0.001": 21.8482266702,
			"0.0": 25.8766421786,
			"0.001": 30.9600747406,
			"0.002": 21.8974965038,
			"0.003": 12.6741159331,
			"0.004": 15.8782124167,
			"0.005": 6.16178813451,
			"0.006": 5.04806171953,
			"0.007": 5.41908723308,
			"0.008": 4.11056731511,
			"0.009": 3.40226107791,
			"0.01": 3.17879426484,
			"0.011": 3.06214753274,
			"0.012": 3.8823757964,
			"0.013": 4.77670399667,
			"0.014": 2.85489091204,
			"0.015": 2.4715810553,
			"0.016": 1.32990718036,
			"0.017": 0.139799075113,
			"0.018": 0.0,
			"0.019": 0.0,
			"0.02": 0.0,
			"0.021": 0.0,
			"0.022": 0.0,
			"0.023": 0.0,
			"0.024": 0.0,
			"0.025": 0.0
		}
	}
}
