{
	 "smiles": "CCOC(=O)C1=CNN=C1", 
	 "Tm": 350.15, 
	 "num_atms": 18, 
	 "gaussian": { 
		 "optdone": 1, 
		 "sigma_profile": "yes", 
		 "theory": "DFT", 
		 "functional": "B3LYP", 
		 "basiset": "6-31G**", 
		 "properties": { 
			 "R2extent": 2871.5039, 
			 "electric_dipole_moment_norm": 0.826569156211, 
			 "electric_quadrupole_moment_norm": 18.9641015632, 
			 "total_energy": -493.403076536, 
			 "HOMO_LUMO_gap": 0.23734, 
			 "cosmo_polarized_energy": -12.71, 
			 "cosmo_cavitation_energy": 22.69, 
			 "cosmo_dispersion_energy": -16.69, 
			 "cosmo_repulsion_energy": 1.38, 
			 "cosmo_total_nonelectrostatic_energy": 7.38, 
			 "SMD_solvation_energy": 4.68 
		},
		"coords": [
			{
				"x": 0.2378916499,
				"y": -2.5151112696,
				"z": 0.8336976385,
				"element": "C" 
			},
			{
				"x": -1.2688242091,
				"y": -2.3461089098,
				"z": 0.7040051736,
				"element": "C" 
			},
			{
				"x": -1.6057134667,
				"y": -1.0893252276,
				"z": 0.0724691053,
				"element": "O" 
			},
			{
				"x": -1.6194137485,
				"y": -1.0811695424,
				"z": -1.2826270645,
				"element": "C" 
			},
			{
				"x": -1.3751493689,
				"y": -2.0535482031,
				"z": -1.9739877034,
				"element": "O" 
			},
			{
				"x": -1.9697431935,
				"y": 0.2434053471,
				"z": -1.8062287636,
				"element": "C" 
			},
			{
				"x": -2.0670095474,
				"y": 0.5661591218,
				"z": -3.1521421922,
				"element": "C" 
			},
			{
				"x": -2.4081258237,
				"y": 1.8708654386,
				"z": -3.1981127828,
				"element": "N" 
			},
			{
				"x": -2.5432686022,
				"y": 2.4403728687,
				"z": -1.9726168179,
				"element": "N" 
			},
			{
				"x": -2.2777179077,
				"y": 1.452323143,
				"z": -1.1272240604,
				"element": "C" 
			},
			{
				"x": 0.4632355882,
				"y": -3.4357233161,
				"z": 1.3825360875,
				"element": "H" 
			},
			{
				"x": 0.6792860682,
				"y": -1.6742717469,
				"z": 1.3768813231,
				"element": "H" 
			},
			{
				"x": 0.7016728985,
				"y": -2.5820801675,
				"z": -0.1534049994,
				"element": "H" 
			},
			{
				"x": -1.7518872319,
				"y": -2.2963719295,
				"z": 1.6829636667,
				"element": "H" 
			},
			{
				"x": -1.7071141045,
				"y": -3.1613626154,
				"z": 0.12349075,
				"element": "H" 
			},
			{
				"x": -1.9182081006,
				"y": -0.0398159236,
				"z": -4.0331248235,
				"element": "H" 
			},
			{
				"x": -2.5649602707,
				"y": 2.4384602519,
				"z": -4.016825429,
				"element": "H" 
			},
			{
				"x": -2.3113506295,
				"y": 1.6234026803,
				"z": -0.060749108,
				"element": "H" 
			}
		],
		 "valence_orbital": [ 
			{
				"type": "occ",
				"energy": -0.30515,
				"method": "rhf"
			},
			{
				"type": "occ",
				"energy": -0.29341,
				"method": "rhf"
			},
			{
				"type": "occ",
				"energy": -0.27166,
				"method": "rhf"
			},
			{
				"type": "occ",
				"energy": -0.26627,
				"method": "rhf"
			},
			{
				"type": "occ",
				"energy": -0.25772,
				"method": "rhf"
			},
			{
				"type": "unocc",
				"energy": -0.02038,
				"method": "rhf"
			},
			{
				"type": "unocc",
				"energy": 0.01565,
				"method": "rhf"
			},
			{
				"type": "unocc",
				"energy": 0.07086,
				"method": "rhf"
			},
			{
				"type": "unocc",
				"energy": 0.11118,
				"method": "rhf"
			},
			{
				"type": "unocc",
				"energy": 0.12621,
				"method": "rhf"
			}
		],
		"cosmo_sigma_profile": { 
			"-0.025": 0.0,
			"-0.024": 0.0,
			"-0.023": 0.0,
			"-0.022": 0.0,
			"-0.021": 0.0,
			"-0.02": 0.0,
			"-0.019": 0.0,
			"-0.018": 0.31479652786,
			"-0.017": 1.72343792926,
			"-0.016": 1.6162618864,
			"-0.015": 1.10116971526,
			"-0.014": 0.873046691857,
			"-0.013": 1.03240090165,
			"-0.012": 1.35943094919,
			"-0.011": 1.11228897311,
			"-0.01": 2.80268708835,
			"-0.009": 2.69810572362,
			"-0.008": 2.39363876095,
			"-0.007": 2.87980117894,
			"-0.006": 3.33583831022,
			"-0.005": 7.78870857377,
			"-0.004": 12.0284030768,
			"-0.003": 15.1703310566,
			"-0.002": 14.050646263,
			"-0.001": 13.5769187389,
			"0.0": 16.3880543436,
			"0.001": 13.8198047651,
			"0.002": 13.2569262947,
			"0.003": 8.9704417931,
			"0.004": 6.6942031187,
			"0.005": 4.41045274186,
			"0.006": 4.2450801431,
			"0.007": 4.6693270114,
			"0.008": 3.18789560012,
			"0.009": 2.5447329794,
			"0.01": 2.60081974343,
			"0.011": 3.31118925645,
			"0.012": 5.66182810232,
			"0.013": 2.53907816496,
			"0.014": 1.27208253779,
			"0.015": 0.739905571572,
			"0.016": 0.13808100268,
			"0.017": 0.0,
			"0.018": 0.0,
			"0.019": 0.0,
			"0.02": 0.0,
			"0.021": 0.0,
			"0.022": 0.0,
			"0.023": 0.0,
			"0.024": 0.0,
			"0.025": 0.0
		}
	}
}
