{
	 "smiles": "CC1=CC=CC2=CC3=CC=CC=C3C(=O)N12", 
	 "Tm": 351.15, 
	 "num_atms": 27, 
	 "gaussian": { 
		 "optdone": 1, 
		 "sigma_profile": "yes", 
		 "theory": "DFT", 
		 "functional": "B3LYP", 
		 "basiset": "6-31G**", 
		 "properties": { 
			 "R2extent": 3551.9162, 
			 "electric_dipole_moment_norm": 2.73819501314, 
			 "electric_quadrupole_moment_norm": 10.9301714479, 
			 "total_energy": -670.10789903, 
			 "HOMO_LUMO_gap": 0.12708, 
			 "cosmo_polarized_energy": -8.73, 
			 "cosmo_cavitation_energy": 29.81, 
			 "cosmo_dispersion_energy": -22.48, 
			 "cosmo_repulsion_energy": 1.67, 
			 "cosmo_total_nonelectrostatic_energy": 8.99, 
			 "SMD_solvation_energy": 5.23 
		},
		"coords": [
			{
				"x": 1.1448945487,
				"y": -3.0784057979,
				"z": -1.9587109333,
				"element": "C" 
			},
			{
				"x": 1.503514499,
				"y": -1.648000482,
				"z": -1.6385692704,
				"element": "C" 
			},
			{
				"x": 2.5715809028,
				"y": -1.089725423,
				"z": -2.2784062044,
				"element": "C" 
			},
			{
				"x": 2.9863544242,
				"y": 0.2534031717,
				"z": -2.0423774402,
				"element": "C" 
			},
			{
				"x": 2.2948561736,
				"y": 1.0025426432,
				"z": -1.1504549964,
				"element": "C" 
			},
			{
				"x": 1.1629004589,
				"y": 0.4738271707,
				"z": -0.4452332817,
				"element": "C" 
			},
			{
				"x": 0.4784137493,
				"y": 1.2564856369,
				"z": 0.4552503283,
				"element": "C" 
			},
			{
				"x": -0.6429941022,
				"y": 0.7708783153,
				"z": 1.1704196841,
				"element": "C" 
			},
			{
				"x": -1.3686691525,
				"y": 1.552741675,
				"z": 2.1044859522,
				"element": "C" 
			},
			{
				"x": -2.4548546172,
				"y": 1.0197147135,
				"z": 2.770329376,
				"element": "C" 
			},
			{
				"x": -2.8616914637,
				"y": -0.3107466143,
				"z": 2.5336292429,
				"element": "C" 
			},
			{
				"x": -2.1676035727,
				"y": -1.0903828513,
				"z": 1.6265366239,
				"element": "C" 
			},
			{
				"x": -1.0563353375,
				"y": -0.5634737836,
				"z": 0.9373315531,
				"element": "C" 
			},
			{
				"x": -0.3620841379,
				"y": -1.435613427,
				"z": -0.00975944,
				"element": "C" 
			},
			{
				"x": -0.7167526428,
				"y": -2.5922930908,
				"z": -0.2147101332,
				"element": "O" 
			},
			{
				"x": 0.7718948628,
				"y": -0.8718723756,
				"z": -0.7017882205,
				"element": "N" 
			},
			{
				"x": 1.1878352672,
				"y": -3.7235326756,
				"z": -1.0803150443,
				"element": "H" 
			},
			{
				"x": 0.1344920126,
				"y": -3.1732880996,
				"z": -2.3583220073,
				"element": "H" 
			},
			{
				"x": 1.8596596397,
				"y": -3.4391647247,
				"z": -2.7031388053,
				"element": "H" 
			},
			{
				"x": 3.113174516,
				"y": -1.703109697,
				"z": -2.9885697041,
				"element": "H" 
			},
			{
				"x": 3.8418037316,
				"y": 0.6594816419,
				"z": -2.5725277111,
				"element": "H" 
			},
			{
				"x": 2.5659560826,
				"y": 2.029767402,
				"z": -0.9320046072,
				"element": "H" 
			},
			{
				"x": 0.8243364627,
				"y": 2.2727885786,
				"z": 0.6072633946,
				"element": "H" 
			},
			{
				"x": -1.0565964132,
				"y": 2.57736437,
				"z": 2.2878245238,
				"element": "H" 
			},
			{
				"x": -3.0018169067,
				"y": 1.6304457381,
				"z": 3.4835730738,
				"element": "H" 
			},
			{
				"x": -3.7171470986,
				"y": -0.7184998585,
				"z": 3.0632692271,
				"element": "H" 
			},
			{
				"x": -2.4536218868,
				"y": -2.1159321561,
				"z": 1.4213748195,
				"element": "H" 
			}
		],
		 "valence_orbital": [ 
			{
				"type": "occ",
				"energy": -0.29799,
				"method": "rhf"
			},
			{
				"type": "occ",
				"energy": -0.25633,
				"method": "rhf"
			},
			{
				"type": "occ",
				"energy": -0.25274,
				"method": "rhf"
			},
			{
				"type": "occ",
				"energy": -0.25148,
				"method": "rhf"
			},
			{
				"type": "occ",
				"energy": -0.17987,
				"method": "rhf"
			},
			{
				"type": "unocc",
				"energy": -0.05279,
				"method": "rhf"
			},
			{
				"type": "unocc",
				"energy": -0.03743,
				"method": "rhf"
			},
			{
				"type": "unocc",
				"energy": -0.00517,
				"method": "rhf"
			},
			{
				"type": "unocc",
				"energy": 0.0473,
				"method": "rhf"
			},
			{
				"type": "unocc",
				"energy": 0.06367,
				"method": "rhf"
			}
		],
		"cosmo_sigma_profile": { 
			"-0.025": 0.0,
			"-0.024": 0.0,
			"-0.023": 0.0,
			"-0.022": 0.0,
			"-0.021": 0.0,
			"-0.02": 0.0,
			"-0.019": 0.0,
			"-0.018": 0.0,
			"-0.017": 0.0,
			"-0.016": 0.0,
			"-0.015": 0.0,
			"-0.014": 0.0,
			"-0.013": 0.0,
			"-0.012": 0.0,
			"-0.011": 0.0,
			"-0.01": 0.0,
			"-0.009": 0.0,
			"-0.008": 0.404953664174,
			"-0.007": 6.17708113829,
			"-0.006": 15.5885786542,
			"-0.005": 16.5323528308,
			"-0.004": 17.6156975962,
			"-0.003": 16.2251017767,
			"-0.002": 18.8653725112,
			"-0.001": 21.2522933285,
			"0.0": 20.837207976,
			"0.001": 18.2666758533,
			"0.002": 19.4958065114,
			"0.003": 24.097665702,
			"0.004": 19.5656738194,
			"0.005": 9.38946512097,
			"0.006": 2.14904792038,
			"0.007": 1.77119331873,
			"0.008": 1.44202899502,
			"0.009": 1.37416962654,
			"0.01": 1.48906721196,
			"0.011": 1.82066193859,
			"0.012": 1.96129446697,
			"0.013": 2.38613413366,
			"0.014": 0.504262728976,
			"0.015": 0.0,
			"0.016": 0.0,
			"0.017": 0.0,
			"0.018": 0.0,
			"0.019": 0.0,
			"0.02": 0.0,
			"0.021": 0.0,
			"0.022": 0.0,
			"0.023": 0.0,
			"0.024": 0.0,
			"0.025": 0.0
		}
	}
}
