{
	 "smiles": "NC(=O)C1=CC=CC=C1C(F)(F)F", 
	 "Tm": 436.15, 
	 "num_atms": 19, 
	 "gaussian": { 
		 "optdone": 1, 
		 "sigma_profile": "yes", 
		 "theory": "DFT", 
		 "functional": "B3LYP", 
		 "basiset": "6-31G**", 
		 "properties": { 
			 "R2extent": 2498.9381, 
			 "electric_dipole_moment_norm": 5.11914498818, 
			 "electric_quadrupole_moment_norm": 14.5061618887, 
			 "total_energy": -737.981513931, 
			 "HOMO_LUMO_gap": 0.20832, 
			 "cosmo_polarized_energy": -14.4, 
			 "cosmo_cavitation_energy": 24.65, 
			 "cosmo_dispersion_energy": -17.61, 
			 "cosmo_repulsion_energy": 1.35, 
			 "cosmo_total_nonelectrostatic_energy": 8.4, 
			 "SMD_solvation_energy": 5.98 
		},
		"coords": [
			{
				"x": 2.0273696467,
				"y": -1.8279715997,
				"z": -2.2728923458,
				"element": "N" 
			},
			{
				"x": 1.9452191164,
				"y": -0.5225383049,
				"z": -1.8562510681,
				"element": "C" 
			},
			{
				"x": 2.9178434401,
				"y": 0.2098516599,
				"z": -1.782681029,
				"element": "O" 
			},
			{
				"x": 0.5372049121,
				"y": -0.0422906859,
				"z": -1.5833616036,
				"element": "C" 
			},
			{
				"x": -0.4501954983,
				"y": -0.2728796999,
				"z": -2.5492820259,
				"element": "C" 
			},
			{
				"x": -1.7447015319,
				"y": 0.2224302078,
				"z": -2.3880312049,
				"element": "C" 
			},
			{
				"x": -2.0696755399,
				"y": 0.9460470584,
				"z": -1.2431828338,
				"element": "C" 
			},
			{
				"x": -1.0999030725,
				"y": 1.1688136157,
				"z": -0.2649570163,
				"element": "C" 
			},
			{
				"x": 0.2007299874,
				"y": 0.6872894062,
				"z": -0.4264766752,
				"element": "C" 
			},
			{
				"x": 1.2073554668,
				"y": 0.9497079253,
				"z": 0.6747600151,
				"element": "C" 
			},
			{
				"x": 1.9401262348,
				"y": -0.1512888644,
				"z": 0.9533045262,
				"element": "F" 
			},
			{
				"x": 2.055364903,
				"y": 1.9460388749,
				"z": 0.3725495143,
				"element": "F" 
			},
			{
				"x": 0.5832151682,
				"y": 1.3022230617,
				"z": 1.8266679131,
				"element": "F" 
			},
			{
				"x": 2.9592523972,
				"y": -2.2018142615,
				"z": -2.3846985961,
				"element": "H" 
			},
			{
				"x": 1.2833233181,
				"y": -2.4775224032,
				"z": -2.0702538545,
				"element": "H" 
			},
			{
				"x": -0.1880121888,
				"y": -0.8261017879,
				"z": -3.4457660533,
				"element": "H" 
			},
			{
				"x": -2.4918582495,
				"y": 0.0439101496,
				"z": -3.1555793789,
				"element": "H" 
			},
			{
				"x": -3.0744128412,
				"y": 1.332996431,
				"z": -1.1040010535,
				"element": "H" 
			},
			{
				"x": -1.3531456686,
				"y": 1.711799217,
				"z": 0.6378327704,
				"element": "H" 
			}
		],
		 "valence_orbital": [ 
			{
				"type": "occ",
				"energy": -0.35794,
				"method": "rhf"
			},
			{
				"type": "occ",
				"energy": -0.27868,
				"method": "rhf"
			},
			{
				"type": "occ",
				"energy": -0.27607,
				"method": "rhf"
			},
			{
				"type": "occ",
				"energy": -0.27424,
				"method": "rhf"
			},
			{
				"type": "occ",
				"energy": -0.25188,
				"method": "rhf"
			},
			{
				"type": "unocc",
				"energy": -0.04356,
				"method": "rhf"
			},
			{
				"type": "unocc",
				"energy": -0.02777,
				"method": "rhf"
			},
			{
				"type": "unocc",
				"energy": 0.03526,
				"method": "rhf"
			},
			{
				"type": "unocc",
				"energy": 0.07763,
				"method": "rhf"
			},
			{
				"type": "unocc",
				"energy": 0.0915,
				"method": "rhf"
			}
		],
		"cosmo_sigma_profile": { 
			"-0.025": 0.0,
			"-0.024": 0.0,
			"-0.023": 0.0,
			"-0.022": 0.0,
			"-0.021": 0.0,
			"-0.02": 0.0,
			"-0.019": 0.0,
			"-0.018": 0.0,
			"-0.017": 0.0,
			"-0.016": 0.0,
			"-0.015": 0.364066134212,
			"-0.014": 1.99979791305,
			"-0.013": 2.54144906542,
			"-0.012": 1.64800931317,
			"-0.011": 2.66106662209,
			"-0.01": 2.40045588487,
			"-0.009": 2.17150932031,
			"-0.008": 1.83373380568,
			"-0.007": 8.0555246902,
			"-0.006": 10.3274184714,
			"-0.005": 10.5488963316,
			"-0.004": 8.63437994934,
			"-0.003": 8.78913302649,
			"-0.002": 9.05475950017,
			"-0.001": 10.6025980227,
			"0.0": 12.1774741067,
			"0.001": 14.054711861,
			"0.002": 25.7166867222,
			"0.003": 31.9796618823,
			"0.004": 5.48978109303,
			"0.005": 3.11448893213,
			"0.006": 2.82123755892,
			"0.007": 2.43105417113,
			"0.008": 1.61757191879,
			"0.009": 2.05286840968,
			"0.01": 2.57651660874,
			"0.011": 2.03236035584,
			"0.012": 3.27202520914,
			"0.013": 5.09424068532,
			"0.014": 1.16726258636,
			"0.015": 0.0,
			"0.016": 0.0,
			"0.017": 0.0,
			"0.018": 0.0,
			"0.019": 0.0,
			"0.02": 0.0,
			"0.021": 0.0,
			"0.022": 0.0,
			"0.023": 0.0,
			"0.024": 0.0,
			"0.025": 0.0
		}
	}
}
