{
	 "smiles": "CC(C)C1=NC(S)=CC(C)=N1", 
	 "Tm": 435.15, 
	 "num_atms": 23, 
	 "gaussian": { 
		 "optdone": 1, 
		 "sigma_profile": "yes", 
		 "theory": "DFT", 
		 "functional": "B3LYP", 
		 "basiset": "6-31G**", 
		 "properties": { 
			 "R2extent": 2918.6276, 
			 "electric_dipole_moment_norm": 0.975986623884, 
			 "electric_quadrupole_moment_norm": 5.19344325472, 
			 "total_energy": -819.79570809, 
			 "HOMO_LUMO_gap": 0.2115, 
			 "cosmo_polarized_energy": -6.7, 
			 "cosmo_cavitation_energy": 27.86, 
			 "cosmo_dispersion_energy": -20.42, 
			 "cosmo_repulsion_energy": 1.65, 
			 "cosmo_total_nonelectrostatic_energy": 9.09, 
			 "SMD_solvation_energy": 2.25 
		},
		"coords": [
			{
				"x": 0.8734687348,
				"y": -3.0416241509,
				"z": 0.1810147689,
				"element": "C" 
			},
			{
				"x": 1.8020899449,
				"y": -1.9936319462,
				"z": -0.4584545852,
				"element": "C" 
			},
			{
				"x": 1.8406760834,
				"y": -2.146192939,
				"z": -1.9897296953,
				"element": "C" 
			},
			{
				"x": 1.3731396462,
				"y": -0.5907190984,
				"z": -0.0709726914,
				"element": "C" 
			},
			{
				"x": 2.2500687302,
				"y": 0.1489033126,
				"z": 0.6240650473,
				"element": "N" 
			},
			{
				"x": 1.856726322,
				"y": 1.3837897875,
				"z": 0.9579196382,
				"element": "C" 
			},
			{
				"x": 2.9933969051,
				"y": 2.3963757999,
				"z": 1.8810402618,
				"element": "S" 
			},
			{
				"x": 0.6043010107,
				"y": 1.8906917665,
				"z": 0.6095052475,
				"element": "C" 
			},
			{
				"x": -0.2367146831,
				"y": 1.0413878789,
				"z": -0.1147081284,
				"element": "C" 
			},
			{
				"x": -1.6121874908,
				"y": 1.4807823254,
				"z": -0.5456419505,
				"element": "C" 
			},
			{
				"x": 0.1488184035,
				"y": -0.1981173448,
				"z": -0.4539696959,
				"element": "N" 
			},
			{
				"x": 1.1957449238,
				"y": -4.0522251704,
				"z": -0.0909459724,
				"element": "H" 
			},
			{
				"x": -0.1550659677,
				"y": -2.9007459735,
				"z": -0.1639089209,
				"element": "H" 
			},
			{
				"x": 0.8800343453,
				"y": -2.967049973,
				"z": 1.2734125595,
				"element": "H" 
			},
			{
				"x": 2.8140710951,
				"y": -2.1236691795,
				"z": -0.061225708,
				"element": "H" 
			},
			{
				"x": 2.1639971046,
				"y": -3.1559388527,
				"z": -2.263615228,
				"element": "H" 
			},
			{
				"x": 2.5364186945,
				"y": -1.4333327433,
				"z": -2.4443866662,
				"element": "H" 
			},
			{
				"x": 0.8480688564,
				"y": -1.9721990367,
				"z": -2.4153702547,
				"element": "H" 
			},
			{
				"x": 3.9563203647,
				"y": 1.4556048702,
				"z": 1.9233211229,
				"element": "H" 
			},
			{
				"x": 0.2956432769,
				"y": 2.8934213831,
				"z": 0.8854491384,
				"element": "H" 
			},
			{
				"x": -1.5571727223,
				"y": 2.3673127601,
				"z": -1.1870574944,
				"element": "H" 
			},
			{
				"x": -2.228154846,
				"y": 1.7457513731,
				"z": 0.3208166666,
				"element": "H" 
			},
			{
				"x": -2.1001887322,
				"y": 0.674725151,
				"z": -1.0950574596,
				"element": "H" 
			}
		],
		 "valence_orbital": [ 
			{
				"type": "occ",
				"energy": -0.32183,
				"method": "rhf"
			},
			{
				"type": "occ",
				"energy": -0.29431,
				"method": "rhf"
			},
			{
				"type": "occ",
				"energy": -0.2804,
				"method": "rhf"
			},
			{
				"type": "occ",
				"energy": -0.24964,
				"method": "rhf"
			},
			{
				"type": "occ",
				"energy": -0.24256,
				"method": "rhf"
			},
			{
				"type": "unocc",
				"energy": -0.03106,
				"method": "rhf"
			},
			{
				"type": "unocc",
				"energy": -0.02487,
				"method": "rhf"
			},
			{
				"type": "unocc",
				"energy": 0.01306,
				"method": "rhf"
			},
			{
				"type": "unocc",
				"energy": 0.07596,
				"method": "rhf"
			},
			{
				"type": "unocc",
				"energy": 0.10536,
				"method": "rhf"
			}
		],
		"cosmo_sigma_profile": { 
			"-0.025": 0.0,
			"-0.024": 0.0,
			"-0.023": 0.0,
			"-0.022": 0.0,
			"-0.021": 0.0,
			"-0.02": 0.0,
			"-0.019": 0.0,
			"-0.018": 0.0,
			"-0.017": 0.0,
			"-0.016": 0.0,
			"-0.015": 0.0,
			"-0.014": 0.0,
			"-0.013": 0.0,
			"-0.012": 0.0,
			"-0.011": 0.754269821009,
			"-0.01": 1.45690851221,
			"-0.009": 1.14119945191,
			"-0.008": 2.34654679115,
			"-0.007": 3.53457511269,
			"-0.006": 4.74069205463,
			"-0.005": 8.85132615089,
			"-0.004": 10.6414790589,
			"-0.003": 18.319671613,
			"-0.002": 22.9359568603,
			"-0.001": 30.2928828708,
			"0.0": 28.0561689692,
			"0.001": 29.9214474743,
			"0.002": 13.6124755239,
			"0.003": 8.76851000869,
			"0.004": 7.56585341045,
			"0.005": 6.95055162243,
			"0.006": 5.90219189263,
			"0.007": 6.27422055874,
			"0.008": 3.19087417797,
			"0.009": 2.0143970637,
			"0.01": 1.57340714086,
			"0.011": 1.33696463754,
			"0.012": 1.5454038607,
			"0.013": 0.26671985736,
			"0.014": 0.0,
			"0.015": 0.0,
			"0.016": 0.0,
			"0.017": 0.0,
			"0.018": 0.0,
			"0.019": 0.0,
			"0.02": 0.0,
			"0.021": 0.0,
			"0.022": 0.0,
			"0.023": 0.0,
			"0.024": 0.0,
			"0.025": 0.0
		}
	}
}
