{
	 "smiles": "CC(=O)NC1=CC=C(Cl)C=C1Cl", 
	 "Tm": 420.15, 
	 "num_atms": 19, 
	 "gaussian": { 
		 "optdone": 1, 
		 "sigma_profile": "yes", 
		 "theory": "DFT", 
		 "functional": "B3LYP", 
		 "basiset": "6-31G**", 
		 "properties": { 
			 "R2extent": 3433.2601, 
			 "electric_dipole_moment_norm": 2.44339594827, 
			 "electric_quadrupole_moment_norm": 17.1689678213, 
			 "total_energy": -1359.44389304, 
			 "HOMO_LUMO_gap": 0.19587, 
			 "cosmo_polarized_energy": -10.19, 
			 "cosmo_cavitation_energy": 26.76, 
			 "cosmo_dispersion_energy": -20.02, 
			 "cosmo_repulsion_energy": 1.59, 
			 "cosmo_total_nonelectrostatic_energy": 8.34, 
			 "SMD_solvation_energy": 4.84 
		},
		"coords": [
			{
				"x": 1.8527541298,
				"y": -2.5321709478,
				"z": -1.2000303141,
				"element": "C" 
			},
			{
				"x": 2.2858149635,
				"y": -1.131418674,
				"z": -1.5744206212,
				"element": "C" 
			},
			{
				"x": 3.2497989991,
				"y": -0.931012664,
				"z": -2.2964367218,
				"element": "O" 
			},
			{
				"x": 1.5880902448,
				"y": -0.0220748403,
				"z": -1.0994798117,
				"element": "N" 
			},
			{
				"x": 0.4750367838,
				"y": 0.1891209835,
				"z": -0.2823708925,
				"element": "C" 
			},
			{
				"x": -0.2932976001,
				"y": -0.8199169103,
				"z": 0.3259266658,
				"element": "C" 
			},
			{
				"x": -1.3916424524,
				"y": -0.5232219662,
				"z": 1.1288457257,
				"element": "C" 
			},
			{
				"x": -1.7555442618,
				"y": 0.8016511408,
				"z": 1.3478529051,
				"element": "C" 
			},
			{
				"x": -3.1374744525,
				"y": 1.1826870922,
				"z": 2.3576844256,
				"element": "Cl" 
			},
			{
				"x": -1.0239828065,
				"y": 1.8337122191,
				"z": 0.7659703501,
				"element": "C" 
			},
			{
				"x": 0.0701808033,
				"y": 1.5225338374,
				"z": -0.0332833649,
				"element": "C" 
			},
			{
				"x": 0.9641478196,
				"y": 2.8606857934,
				"z": -0.7472793536,
				"element": "Cl" 
			},
			{
				"x": 2.5429936561,
				"y": -3.2213443284,
				"z": -1.6854920834,
				"element": "H" 
			},
			{
				"x": 0.8352315122,
				"y": -2.7436053402,
				"z": -1.5433402119,
				"element": "H" 
			},
			{
				"x": 1.8921888305,
				"y": -2.6893462556,
				"z": -0.1175937783,
				"element": "H" 
			},
			{
				"x": 2.019799125,
				"y": 0.8253333307,
				"z": -1.4518423415,
				"element": "H" 
			},
			{
				"x": -0.0413107963,
				"y": -1.8585608877,
				"z": 0.178935461,
				"element": "H" 
			},
			{
				"x": -1.9607910019,
				"y": -1.3270872166,
				"z": 1.5816085705,
				"element": "H" 
			},
			{
				"x": -1.2968934963,
				"y": 2.8690356341,
				"z": 0.9286453911,
				"element": "H" 
			}
		],
		 "valence_orbital": [ 
			{
				"type": "occ",
				"energy": -0.32371,
				"method": "rhf"
			},
			{
				"type": "occ",
				"energy": -0.30759,
				"method": "rhf"
			},
			{
				"type": "occ",
				"energy": -0.27295,
				"method": "rhf"
			},
			{
				"type": "occ",
				"energy": -0.26851,
				"method": "rhf"
			},
			{
				"type": "occ",
				"energy": -0.23141,
				"method": "rhf"
			},
			{
				"type": "unocc",
				"energy": -0.03554,
				"method": "rhf"
			},
			{
				"type": "unocc",
				"energy": -0.03504,
				"method": "rhf"
			},
			{
				"type": "unocc",
				"energy": -0.00373,
				"method": "rhf"
			},
			{
				"type": "unocc",
				"energy": 0.02288,
				"method": "rhf"
			},
			{
				"type": "unocc",
				"energy": 0.0399,
				"method": "rhf"
			}
		],
		"cosmo_sigma_profile": { 
			"-0.025": 0.0,
			"-0.024": 0.0,
			"-0.023": 0.0,
			"-0.022": 0.0,
			"-0.021": 0.0,
			"-0.02": 0.0,
			"-0.019": 0.0,
			"-0.018": 0.0,
			"-0.017": 0.0,
			"-0.016": 0.0,
			"-0.015": 0.0,
			"-0.014": 0.0,
			"-0.013": 0.0,
			"-0.012": 0.0,
			"-0.011": 0.0,
			"-0.01": 0.0,
			"-0.009": 1.27223842063,
			"-0.008": 6.64192310025,
			"-0.007": 11.9666439868,
			"-0.006": 11.4608751058,
			"-0.005": 10.7114336384,
			"-0.004": 9.88537429021,
			"-0.003": 13.4488487021,
			"-0.002": 17.2830113806,
			"-0.001": 16.6037997927,
			"0.0": 20.3911947975,
			"0.001": 23.2831505236,
			"0.002": 22.6492906731,
			"0.003": 15.193788136,
			"0.004": 15.5948381486,
			"0.005": 4.29904881563,
			"0.006": 1.4576227986,
			"0.007": 1.19659015973,
			"0.008": 0.909950156995,
			"0.009": 1.71127085523,
			"0.01": 1.60451369507,
			"0.011": 2.15588155104,
			"0.012": 3.41463362908,
			"0.013": 5.05096875182,
			"0.014": 0.896288020441,
			"0.015": 0.0,
			"0.016": 0.0,
			"0.017": 0.0,
			"0.018": 0.0,
			"0.019": 0.0,
			"0.02": 0.0,
			"0.021": 0.0,
			"0.022": 0.0,
			"0.023": 0.0,
			"0.024": 0.0,
			"0.025": 0.0
		}
	}
}
