{
	 "smiles": "OC(=O)C1=C(SCC(=O)N2CCCC2)C=CC=C1", 
	 "Tm": 389.15, 
	 "num_atms": 33, 
	 "gaussian": { 
		 "optdone": 1, 
		 "sigma_profile": "yes", 
		 "theory": "DFT", 
		 "functional": "B3LYP", 
		 "basiset": "6-31G**", 
		 "properties": { 
			 "R2extent": 6548.2718, 
			 "electric_dipole_moment_norm": 10.6889576054, 
			 "electric_quadrupole_moment_norm": 22.2339339382, 
			 "total_energy": -1183.0628131, 
			 "HOMO_LUMO_gap": 0.20007, 
			 "cosmo_polarized_energy": -22.17, 
			 "cosmo_cavitation_energy": 36.81, 
			 "cosmo_dispersion_energy": -26.87, 
			 "cosmo_repulsion_energy": 2.05, 
			 "cosmo_total_nonelectrostatic_energy": 11.98, 
			 "SMD_solvation_energy": 6.01 
		},
		"coords": [
			{
				"x": 0.866333024,
				"y": -0.4721377859,
				"z": 2.5320200349,
				"element": "O" 
			},
			{
				"x": 0.649257632,
				"y": -1.7795299725,
				"z": 2.4045905112,
				"element": "C" 
			},
			{
				"x": 0.4548092186,
				"y": -2.4873769647,
				"z": 3.3720058024,
				"element": "O" 
			},
			{
				"x": 0.5851413644,
				"y": -2.3717957738,
				"z": 1.0082527844,
				"element": "C" 
			},
			{
				"x": 1.4769226062,
				"y": -2.1140167508,
				"z": -0.0512145757,
				"element": "C" 
			},
			{
				"x": 2.9268433686,
				"y": -1.062750098,
				"z": 0.1563668192,
				"element": "S" 
			},
			{
				"x": 2.5938745386,
				"y": 0.2557072948,
				"z": -1.060462634,
				"element": "C" 
			},
			{
				"x": 1.4733551128,
				"y": 1.2255668295,
				"z": -0.6717710249,
				"element": "C" 
			},
			{
				"x": 0.7657465154,
				"y": 1.0776595882,
				"z": 0.3304997532,
				"element": "O" 
			},
			{
				"x": 1.2799143122,
				"y": 2.272687584,
				"z": -1.5068075592,
				"element": "N" 
			},
			{
				"x": 2.0468465243,
				"y": 2.5894933311,
				"z": -2.7228067771,
				"element": "C" 
			},
			{
				"x": 1.2328695921,
				"y": 3.7222291854,
				"z": -3.3685663165,
				"element": "C" 
			},
			{
				"x": 0.5990045708,
				"y": 4.4368098297,
				"z": -2.1630254233,
				"element": "C" 
			},
			{
				"x": 0.2486338876,
				"y": 3.2858338601,
				"z": -1.2110980533,
				"element": "C" 
			},
			{
				"x": 1.3111374314,
				"y": -2.7833228682,
				"z": -1.2735317384,
				"element": "C" 
			},
			{
				"x": 0.2521077269,
				"y": -3.6651053396,
				"z": -1.4697733453,
				"element": "C" 
			},
			{
				"x": -0.62938751,
				"y": -3.9309102382,
				"z": -0.4192693406,
				"element": "C" 
			},
			{
				"x": -0.4441555203,
				"y": -3.3066826629,
				"z": 0.8091595847,
				"element": "C" 
			},
			{
				"x": 0.9128398814,
				"y": 0.0012195103,
				"z": 1.6654312392,
				"element": "H" 
			},
			{
				"x": 3.5388075102,
				"y": 0.7998279548,
				"z": -1.1666801677,
				"element": "H" 
			},
			{
				"x": 2.3740347829,
				"y": -0.1841056732,
				"z": -2.0388849825,
				"element": "H" 
			},
			{
				"x": 3.0608947949,
				"y": 2.9269359011,
				"z": -2.4664688979,
				"element": "H" 
			},
			{
				"x": 2.1395982992,
				"y": 1.7168920147,
				"z": -3.3768353312,
				"element": "H" 
			},
			{
				"x": 0.4519299865,
				"y": 3.2979577216,
				"z": -4.0092654586,
				"element": "H" 
			},
			{
				"x": 1.8543089767,
				"y": 4.3758364218,
				"z": -3.9857515713,
				"element": "H" 
			},
			{
				"x": -0.2753072817,
				"y": 5.0348539204,
				"z": -2.4312304699,
				"element": "H" 
			},
			{
				"x": 1.3298041654,
				"y": 5.1044824501,
				"z": -1.6930332712,
				"element": "H" 
			},
			{
				"x": -0.7472936487,
				"y": 2.8724955346,
				"z": -1.4127131015,
				"element": "H" 
			},
			{
				"x": 0.2837465446,
				"y": 3.554889701,
				"z": -0.1531973764,
				"element": "H" 
			},
			{
				"x": 2.0347915271,
				"y": -2.6230152352,
				"z": -2.0675772403,
				"element": "H" 
			},
			{
				"x": 0.1340207973,
				"y": -4.1639789186,
				"z": -2.427436297,
				"element": "H" 
			},
			{
				"x": -1.4454939075,
				"y": -4.6347379647,
				"z": -0.5527982079,
				"element": "H" 
			},
			{
				"x": -1.0953368238,
				"y": -3.526712387,
				"z": 1.6481726322,
				"element": "H" 
			}
		],
		 "valence_orbital": [ 
			{
				"type": "occ",
				"energy": -0.26612,
				"method": "rhf"
			},
			{
				"type": "occ",
				"energy": -0.26386,
				"method": "rhf"
			},
			{
				"type": "occ",
				"energy": -0.26162,
				"method": "rhf"
			},
			{
				"type": "occ",
				"energy": -0.23736,
				"method": "rhf"
			},
			{
				"type": "occ",
				"energy": -0.2311,
				"method": "rhf"
			},
			{
				"type": "unocc",
				"energy": -0.03103,
				"method": "rhf"
			},
			{
				"type": "unocc",
				"energy": -0.01912,
				"method": "rhf"
			},
			{
				"type": "unocc",
				"energy": 0.00042,
				"method": "rhf"
			},
			{
				"type": "unocc",
				"energy": 0.03389,
				"method": "rhf"
			},
			{
				"type": "unocc",
				"energy": 0.05526,
				"method": "rhf"
			}
		],
		"cosmo_sigma_profile": { 
			"-0.025": 0.0,
			"-0.024": 0.0,
			"-0.023": 0.0,
			"-0.022": 0.0,
			"-0.021": 0.0,
			"-0.02": 0.0,
			"-0.019": 0.0,
			"-0.018": 0.0,
			"-0.017": 0.0,
			"-0.016": 0.0,
			"-0.015": 0.0,
			"-0.014": 0.0,
			"-0.013": 0.0,
			"-0.012": 0.0,
			"-0.011": 0.0,
			"-0.01": 0.0,
			"-0.009": 1.39555360666,
			"-0.008": 7.26375687404,
			"-0.007": 9.79796082097,
			"-0.006": 15.5802150691,
			"-0.005": 19.2585243745,
			"-0.004": 30.2440928889,
			"-0.003": 35.2019135043,
			"-0.002": 25.2022221457,
			"-0.001": 20.7387282793,
			"0.0": 16.9695832365,
			"0.001": 10.4896738517,
			"0.002": 14.6592809372,
			"0.003": 20.4002434138,
			"0.004": 12.3491009619,
			"0.005": 7.3584084876,
			"0.006": 7.0479849782,
			"0.007": 5.84227403285,
			"0.008": 5.85960108049,
			"0.009": 4.46547641387,
			"0.01": 5.30211894393,
			"0.011": 5.51545131737,
			"0.012": 7.18510350296,
			"0.013": 4.13622864472,
			"0.014": 1.00965584732,
			"0.015": 0.0,
			"0.016": 0.0,
			"0.017": 0.0,
			"0.018": 0.0,
			"0.019": 0.0,
			"0.02": 0.0,
			"0.021": 0.0,
			"0.022": 0.0,
			"0.023": 0.0,
			"0.024": 0.0,
			"0.025": 0.0
		}
	}
}
