{
	 "smiles": "OCCSSCCO", 
	 "Tm": 298.65, 
	 "num_atms": 18, 
	 "gaussian": { 
		 "optdone": 1, 
		 "sigma_profile": "yes", 
		 "theory": "DFT", 
		 "functional": "B3LYP", 
		 "basiset": "6-31G**", 
		 "properties": { 
			 "R2extent": 2576.6554, 
			 "electric_dipole_moment_norm": 4.21034426146, 
			 "electric_quadrupole_moment_norm": 11.4956342217, 
			 "total_energy": -1105.25577134, 
			 "HOMO_LUMO_gap": 0.21066, 
			 "cosmo_polarized_energy": -12.13, 
			 "cosmo_cavitation_energy": 23.81, 
			 "cosmo_dispersion_energy": -18.4, 
			 "cosmo_repulsion_energy": 1.48, 
			 "cosmo_total_nonelectrostatic_energy": 6.88, 
			 "SMD_solvation_energy": 3.15 
		},
		"coords": [
			{
				"x": 4.6192953121,
				"y": -1.1528527464,
				"z": 0.1860471816,
				"element": "O" 
			},
			{
				"x": 3.3285044978,
				"y": -1.7004853544,
				"z": -0.0001734135,
				"element": "C" 
			},
			{
				"x": 2.2054520646,
				"y": -0.7287291782,
				"z": 0.3649195814,
				"element": "C" 
			},
			{
				"x": 2.1684513743,
				"y": 0.637557609,
				"z": -0.8861423458,
				"element": "S" 
			},
			{
				"x": 1.4054591362,
				"y": 2.2848789844,
				"z": 0.1239358943,
				"element": "S" 
			},
			{
				"x": -0.4279810622,
				"y": 2.1635245287,
				"z": -0.0733511553,
				"element": "C" 
			},
			{
				"x": -1.1564713899,
				"y": 1.4356184642,
				"z": 1.0452944533,
				"element": "C" 
			},
			{
				"x": -0.8587239436,
				"y": 0.049073472,
				"z": 0.9710483532,
				"element": "O" 
			},
			{
				"x": 4.6615670845,
				"y": -0.3354189269,
				"z": -0.33048978,
				"element": "H" 
			},
			{
				"x": 3.264254931,
				"y": -2.5687348834,
				"z": 0.6654237726,
				"element": "H" 
			},
			{
				"x": 3.1861827338,
				"y": -2.0744602473,
				"z": -1.0281725425,
				"element": "H" 
			},
			{
				"x": 2.4018267603,
				"y": -0.2813144489,
				"z": 1.3418416587,
				"element": "H" 
			},
			{
				"x": 1.2256874564,
				"y": -1.2095819114,
				"z": 0.3782848818,
				"element": "H" 
			},
			{
				"x": -0.6376971975,
				"y": 1.6972641387,
				"z": -1.0394218378,
				"element": "H" 
			},
			{
				"x": -0.7714624171,
				"y": 3.2030211115,
				"z": -0.1129419547,
				"element": "H" 
			},
			{
				"x": -2.2381205991,
				"y": 1.6128477334,
				"z": 0.9185000345,
				"element": "H" 
			},
			{
				"x": -0.8607289175,
				"y": 1.8620105194,
				"z": 2.0154523142,
				"element": "H" 
			},
			{
				"x": -1.2310958244,
				"y": -0.3811188646,
				"z": 1.750144904,
				"element": "H" 
			}
		],
		 "valence_orbital": [ 
			{
				"type": "occ",
				"energy": -0.3186,
				"method": "rhf"
			},
			{
				"type": "occ",
				"energy": -0.28421,
				"method": "rhf"
			},
			{
				"type": "occ",
				"energy": -0.26482,
				"method": "rhf"
			},
			{
				"type": "occ",
				"energy": -0.23994,
				"method": "rhf"
			},
			{
				"type": "occ",
				"energy": -0.23803,
				"method": "rhf"
			},
			{
				"type": "unocc",
				"energy": -0.02737,
				"method": "rhf"
			},
			{
				"type": "unocc",
				"energy": 0.0425,
				"method": "rhf"
			},
			{
				"type": "unocc",
				"energy": 0.04928,
				"method": "rhf"
			},
			{
				"type": "unocc",
				"energy": 0.06049,
				"method": "rhf"
			},
			{
				"type": "unocc",
				"energy": 0.10308,
				"method": "rhf"
			}
		],
		"cosmo_sigma_profile": { 
			"-0.025": 0.0,
			"-0.024": 0.0,
			"-0.023": 0.0,
			"-0.022": 0.0,
			"-0.021": 0.0,
			"-0.02": 0.0,
			"-0.019": 0.0,
			"-0.018": 0.0,
			"-0.017": 0.0,
			"-0.016": 0.800401102854,
			"-0.015": 0.928604896679,
			"-0.014": 0.961689307615,
			"-0.013": 0.984470923047,
			"-0.012": 1.7625802473,
			"-0.011": 1.7683468826,
			"-0.01": 1.03125240221,
			"-0.009": 0.852722724522,
			"-0.008": 2.44977688391,
			"-0.007": 3.63560736533,
			"-0.006": 6.6219845525,
			"-0.005": 14.2636704266,
			"-0.004": 24.6695943155,
			"-0.003": 17.7072003739,
			"-0.002": 13.5039188287,
			"-0.001": 8.78214521854,
			"0.0": 7.86901385934,
			"0.001": 7.40434850709,
			"0.002": 8.87728345463,
			"0.003": 8.05312902578,
			"0.004": 10.6829921568,
			"0.005": 10.0849054299,
			"0.006": 9.30367883006,
			"0.007": 6.26260693159,
			"0.008": 5.49278954552,
			"0.009": 3.49233429319,
			"0.01": 1.68458410713,
			"0.011": 1.99426964241,
			"0.012": 1.44075099029,
			"0.013": 2.80413461521,
			"0.014": 2.68460339802,
			"0.015": 0.382529097153,
			"0.016": 0.0,
			"0.017": 0.0,
			"0.018": 0.0,
			"0.019": 0.0,
			"0.02": 0.0,
			"0.021": 0.0,
			"0.022": 0.0,
			"0.023": 0.0,
			"0.024": 0.0,
			"0.025": 0.0
		}
	}
}
