{
	 "smiles": "CC(=O)N1CC2=C(CC1C(O)=O)C=CC=C2", 
	 "Tm": 447.15, 
	 "num_atms": 29, 
	 "gaussian": { 
		 "optdone": 1, 
		 "sigma_profile": "yes", 
		 "theory": "DFT", 
		 "functional": "B3LYP", 
		 "basiset": "6-31G**", 
		 "properties": { 
			 "R2extent": 4083.8959, 
			 "electric_dipole_moment_norm": 2.94936917153, 
			 "electric_quadrupole_moment_norm": 19.9098103326, 
			 "total_energy": -745.562113905, 
			 "HOMO_LUMO_gap": 0.23564, 
			 "cosmo_polarized_energy": -17.6, 
			 "cosmo_cavitation_energy": 31.58, 
			 "cosmo_dispersion_energy": -22.33, 
			 "cosmo_repulsion_energy": 1.72, 
			 "cosmo_total_nonelectrostatic_energy": 10.96, 
			 "SMD_solvation_energy": 6.97 
		},
		"coords": [
			{
				"x": 1.0367333645,
				"y": -1.0625286567,
				"z": -2.4831184499,
				"element": "C" 
			},
			{
				"x": 0.1498946751,
				"y": -0.9404768252,
				"z": -1.2552125529,
				"element": "C" 
			},
			{
				"x": -0.8714150255,
				"y": -1.5998950085,
				"z": -1.1400771967,
				"element": "O" 
			},
			{
				"x": 0.5770239471,
				"y": -0.0724170821,
				"z": -0.2387633812,
				"element": "N" 
			},
			{
				"x": -0.4062719352,
				"y": 0.2157351375,
				"z": 0.8358349283,
				"element": "C" 
			},
			{
				"x": -0.9599487184,
				"y": 1.6111675103,
				"z": 0.6807546991,
				"element": "C" 
			},
			{
				"x": -0.0186173675,
				"y": 2.6261751232,
				"z": 0.4468593934,
				"element": "C" 
			},
			{
				"x": 1.4244210995,
				"y": 2.1953048214,
				"z": 0.4144975985,
				"element": "C" 
			},
			{
				"x": 1.6223541731,
				"y": 0.9418402808,
				"z": -0.4813580554,
				"element": "C" 
			},
			{
				"x": 3.0493721272,
				"y": 0.4058329584,
				"z": -0.2496918022,
				"element": "C" 
			},
			{
				"x": 3.1286722012,
				"y": -0.8089583024,
				"z": 0.3266087919,
				"element": "O" 
			},
			{
				"x": 4.026571612,
				"y": 1.051516322,
				"z": -0.5397523741,
				"element": "O" 
			},
			{
				"x": -0.44684644,
				"y": 3.9424566667,
				"z": 0.2688839125,
				"element": "C" 
			},
			{
				"x": -1.8084527314,
				"y": 4.2486537705,
				"z": 0.3387854065,
				"element": "C" 
			},
			{
				"x": -2.7430158858,
				"y": 3.2387462768,
				"z": 0.5748104558,
				"element": "C" 
			},
			{
				"x": -2.3196009701,
				"y": 1.9172816619,
				"z": 0.7392287464,
				"element": "C" 
			},
			{
				"x": 2.0886867607,
				"y": -1.2195559179,
				"z": -2.2292596107,
				"element": "H" 
			},
			{
				"x": 0.973023838,
				"y": -0.162608923,
				"z": -3.1047680074,
				"element": "H" 
			},
			{
				"x": 0.6736704099,
				"y": -1.9100547756,
				"z": -3.0634395015,
				"element": "H" 
			},
			{
				"x": 0.0956303166,
				"y": 0.1034945649,
				"z": 1.8062786796,
				"element": "H" 
			},
			{
				"x": -1.1809867489,
				"y": -0.5459210888,
				"z": 0.763226899,
				"element": "H" 
			},
			{
				"x": 1.7602892937,
				"y": 1.9552157314,
				"z": 1.4332584058,
				"element": "H" 
			},
			{
				"x": 2.0892732758,
				"y": 2.9782805368,
				"z": 0.0449193366,
				"element": "H" 
			},
			{
				"x": 1.5849714964,
				"y": 1.2758531545,
				"z": -1.5216906107,
				"element": "H" 
			},
			{
				"x": 2.213254648,
				"y": -1.1244104092,
				"z": 0.4517801174,
				"element": "H" 
			},
			{
				"x": 0.2810442758,
				"y": 4.7276423575,
				"z": 0.0807044842,
				"element": "H" 
			},
			{
				"x": -2.1389519717,
				"y": 5.2743604023,
				"z": 0.2034526405,
				"element": "H" 
			},
			{
				"x": -3.8015190087,
				"y": 3.4772637102,
				"z": 0.6211947182,
				"element": "H" 
			},
			{
				"x": -3.0456607115,
				"y": 1.1263060022,
				"z": 0.9076523294,
				"element": "H" 
			}
		],
		 "valence_orbital": [ 
			{
				"type": "occ",
				"energy": -0.29397,
				"method": "rhf"
			},
			{
				"type": "occ",
				"energy": -0.26893,
				"method": "rhf"
			},
			{
				"type": "occ",
				"energy": -0.25973,
				"method": "rhf"
			},
			{
				"type": "occ",
				"energy": -0.25651,
				"method": "rhf"
			},
			{
				"type": "occ",
				"energy": -0.25223,
				"method": "rhf"
			},
			{
				"type": "unocc",
				"energy": -0.01659,
				"method": "rhf"
			},
			{
				"type": "unocc",
				"energy": -0.01377,
				"method": "rhf"
			},
			{
				"type": "unocc",
				"energy": 0.00045,
				"method": "rhf"
			},
			{
				"type": "unocc",
				"energy": 0.0042,
				"method": "rhf"
			},
			{
				"type": "unocc",
				"energy": 0.06028,
				"method": "rhf"
			}
		],
		"cosmo_sigma_profile": { 
			"-0.025": 0.0,
			"-0.024": 0.0,
			"-0.023": 0.0,
			"-0.022": 0.0,
			"-0.021": 0.0,
			"-0.02": 0.0,
			"-0.019": 0.0,
			"-0.018": 0.0,
			"-0.017": 0.0,
			"-0.016": 0.0,
			"-0.015": 0.105148017835,
			"-0.014": 1.07328443688,
			"-0.013": 0.689603640719,
			"-0.012": 1.46597964621,
			"-0.011": 2.19377804247,
			"-0.01": 1.78128836246,
			"-0.009": 3.80535765899,
			"-0.008": 5.34130137752,
			"-0.007": 7.09646968707,
			"-0.006": 18.809927231,
			"-0.005": 22.1868887246,
			"-0.004": 21.0646466334,
			"-0.003": 20.8996402881,
			"-0.002": 18.0011934461,
			"-0.001": 15.1657866164,
			"0.0": 9.83281595044,
			"0.001": 8.35375639548,
			"0.002": 10.4073408547,
			"0.003": 11.5877216712,
			"0.004": 10.7106827462,
			"0.005": 11.2035788468,
			"0.006": 8.44615318262,
			"0.007": 3.22833555295,
			"0.008": 4.59106875914,
			"0.009": 5.38176930171,
			"0.01": 5.84598964655,
			"0.011": 6.69137554894,
			"0.012": 7.98177965712,
			"0.013": 5.1559598035,
			"0.014": 0.935056673616,
			"0.015": 0.0,
			"0.016": 0.0,
			"0.017": 0.0,
			"0.018": 0.0,
			"0.019": 0.0,
			"0.02": 0.0,
			"0.021": 0.0,
			"0.022": 0.0,
			"0.023": 0.0,
			"0.024": 0.0,
			"0.025": 0.0
		}
	}
}
