{
	 "smiles": "CC(=O)C1=CC(=CC=C1)N1C=NN=N1", 
	 "Tm": 429.15, 
	 "num_atms": 22, 
	 "gaussian": { 
		 "optdone": 1, 
		 "sigma_profile": "yes", 
		 "theory": "DFT", 
		 "functional": "B3LYP", 
		 "basiset": "6-31G**", 
		 "properties": { 
			 "R2extent": 3395.1044, 
			 "electric_dipole_moment_norm": 3.59893117745, 
			 "electric_quadrupole_moment_norm": 25.5101538684, 
			 "total_energy": -641.948928051, 
			 "HOMO_LUMO_gap": 0.18618, 
			 "cosmo_polarized_energy": -17.76, 
			 "cosmo_cavitation_energy": 27.32, 
			 "cosmo_dispersion_energy": -19.85, 
			 "cosmo_repulsion_energy": 1.52, 
			 "cosmo_total_nonelectrostatic_energy": 8.99, 
			 "SMD_solvation_energy": 4.14 
		},
		"coords": [
			{
				"x": 3.618283355,
				"y": -1.8080899458,
				"z": 1.4685598692,
				"element": "C" 
			},
			{
				"x": 3.6268548934,
				"y": -0.5070533142,
				"z": 0.6893325349,
				"element": "C" 
			},
			{
				"x": 4.6637912694,
				"y": 0.107914399,
				"z": 0.5001229654,
				"element": "O" 
			},
			{
				"x": 2.3269838203,
				"y": 0.0261924133,
				"z": 0.1461053493,
				"element": "C" 
			},
			{
				"x": 1.1119068799,
				"y": -0.6398222577,
				"z": 0.335823641,
				"element": "C" 
			},
			{
				"x": -0.0630812668,
				"y": -0.0971175625,
				"z": -0.1916495955,
				"element": "C" 
			},
			{
				"x": -0.0358886282,
				"y": 1.1035046063,
				"z": -0.9060694159,
				"element": "C" 
			},
			{
				"x": 1.1809312329,
				"y": 1.7622507069,
				"z": -1.0910981582,
				"element": "C" 
			},
			{
				"x": 2.3563890315,
				"y": 1.2315586009,
				"z": -0.5708474258,
				"element": "C" 
			},
			{
				"x": -1.2938977085,
				"y": -0.7869996893,
				"z": 0.0094457022,
				"element": "N" 
			},
			{
				"x": -2.558357551,
				"y": -0.4969383276,
				"z": -0.3817799988,
				"element": "C" 
			},
			{
				"x": -3.3701392448,
				"y": -1.4400938704,
				"z": 0.0429960941,
				"element": "N" 
			},
			{
				"x": -2.5824768253,
				"y": -2.3297594148,
				"z": 0.7109534709,
				"element": "N" 
			},
			{
				"x": -1.3473240237,
				"y": -1.9586005627,
				"z": 0.7013276191,
				"element": "N" 
			},
			{
				"x": 3.2339499764,
				"y": -2.6310014696,
				"z": 0.8557743325,
				"element": "H" 
			},
			{
				"x": 2.9752380656,
				"y": -1.7329083881,
				"z": 2.3524387895,
				"element": "H" 
			},
			{
				"x": 4.6378519397,
				"y": -2.034594836,
				"z": 1.7807074901,
				"element": "H" 
			},
			{
				"x": 1.0533411662,
				"y": -1.5711456876,
				"z": 0.8836277095,
				"element": "H" 
			},
			{
				"x": -0.9444747275,
				"y": 1.5291517055,
				"z": -1.3174663381,
				"element": "H" 
			},
			{
				"x": 1.2009675294,
				"y": 2.6948426022,
				"z": -1.6462138257,
				"element": "H" 
			},
			{
				"x": 3.3116765376,
				"y": 1.7273323969,
				"z": -0.7033502365,
				"element": "H" 
			},
			{
				"x": -2.8463257216,
				"y": 0.3716778953,
				"z": -0.9511405731,
				"element": "H" 
			}
		],
		 "valence_orbital": [ 
			{
				"type": "occ",
				"energy": -0.30733,
				"method": "rhf"
			},
			{
				"type": "occ",
				"energy": -0.29491,
				"method": "rhf"
			},
			{
				"type": "occ",
				"energy": -0.28713,
				"method": "rhf"
			},
			{
				"type": "occ",
				"energy": -0.26728,
				"method": "rhf"
			},
			{
				"type": "occ",
				"energy": -0.26359,
				"method": "rhf"
			},
			{
				"type": "unocc",
				"energy": -0.07741,
				"method": "rhf"
			},
			{
				"type": "unocc",
				"energy": -0.05941,
				"method": "rhf"
			},
			{
				"type": "unocc",
				"energy": -0.00535,
				"method": "rhf"
			},
			{
				"type": "unocc",
				"energy": 0.00801,
				"method": "rhf"
			},
			{
				"type": "unocc",
				"energy": 0.03441,
				"method": "rhf"
			}
		],
		"cosmo_sigma_profile": { 
			"-0.025": 0.0,
			"-0.024": 0.0,
			"-0.023": 0.0,
			"-0.022": 0.0,
			"-0.021": 0.0,
			"-0.02": 0.0,
			"-0.019": 0.0,
			"-0.018": 0.0,
			"-0.017": 0.0,
			"-0.016": 0.0,
			"-0.015": 0.0,
			"-0.014": 0.709927077065,
			"-0.013": 2.73153081872,
			"-0.012": 2.03055073613,
			"-0.011": 1.9234881853,
			"-0.01": 2.51650061704,
			"-0.009": 1.5330431103,
			"-0.008": 3.45331949089,
			"-0.007": 10.9919787062,
			"-0.006": 14.1819195391,
			"-0.005": 16.2781781872,
			"-0.004": 13.6249663429,
			"-0.003": 13.7932825398,
			"-0.002": 16.7421148853,
			"-0.001": 15.8048929686,
			"0.0": 12.9667376224,
			"0.001": 16.6570424875,
			"0.002": 13.1870661424,
			"0.003": 5.4867242598,
			"0.004": 4.40641812277,
			"0.005": 4.56111915211,
			"0.006": 4.90652674477,
			"0.007": 6.4751754155,
			"0.008": 6.33936806945,
			"0.009": 5.90381646947,
			"0.01": 6.63921422479,
			"0.011": 6.53854898257,
			"0.012": 5.1037217374,
			"0.013": 3.45361216094,
			"0.014": 1.18112207636,
			"0.015": 0.222510300303,
			"0.016": 0.0,
			"0.017": 0.0,
			"0.018": 0.0,
			"0.019": 0.0,
			"0.02": 0.0,
			"0.021": 0.0,
			"0.022": 0.0,
			"0.023": 0.0,
			"0.024": 0.0,
			"0.025": 0.0
		}
	}
}
