{
	 "smiles": "O=C(NC1=C(C=CC2=CC=CC=C2)C=C2CC(N(C(=O)C3=CC=CC=C3)C2=C1)C1=CC=CC=C1)C1=CC=CC=C1", 
	 "Tm": 523.15, 
	 "num_atms": 68, 
	 "gaussian": { 
		 "optdone": 1, 
		 "sigma_profile": "yes", 
		 "theory": "DFT", 
		 "functional": "B3LYP", 
		 "basiset": "6-31G**", 
		 "properties": { 
			 "R2extent": 25853.5433, 
			 "electric_dipole_moment_norm": 6.81851381241, 
			 "electric_quadrupole_moment_norm": 27.5531115221, 
			 "total_energy": -1648.68525227, 
			 "HOMO_LUMO_gap": 0.13845, 
			 "cosmo_polarized_energy": -24.45, 
			 "cosmo_cavitation_energy": 72.24, 
			 "cosmo_dispersion_energy": -45.5, 
			 "cosmo_repulsion_energy": 3.39, 
			 "cosmo_total_nonelectrostatic_energy": 30.14, 
			 "SMD_solvation_energy": 12.38 
		},
		"coords": [
			{
				"x": 2.8043961968,
				"y": 2.4834342522,
				"z": 2.7007581662,
				"element": "O" 
			},
			{
				"x": 2.2580936733,
				"y": 1.6493165216,
				"z": 1.9875423685,
				"element": "C" 
			},
			{
				"x": 1.2576968594,
				"y": 2.0467359313,
				"z": 1.1109670247,
				"element": "N" 
			},
			{
				"x": 0.1687176472,
				"y": 1.3005138744,
				"z": 0.5814679541,
				"element": "C" 
			},
			{
				"x": -0.2709340423,
				"y": 1.5888608861,
				"z": -0.735101692,
				"element": "C" 
			},
			{
				"x": 0.4372973104,
				"y": 2.5778059548,
				"z": -1.5500262531,
				"element": "C" 
			},
			{
				"x": -0.0801710517,
				"y": 3.2568285089,
				"z": -2.5962335315,
				"element": "C" 
			},
			{
				"x": 0.6190689404,
				"y": 4.2168060039,
				"z": -3.4550960973,
				"element": "C" 
			},
			{
				"x": 2.0127622603,
				"y": 4.4227252743,
				"z": -3.413408129,
				"element": "C" 
			},
			{
				"x": 2.6218302239,
				"y": 5.3584868051,
				"z": -4.2435089654,
				"element": "C" 
			},
			{
				"x": 1.8603476399,
				"y": 6.1098382335,
				"z": -5.1444229006,
				"element": "C" 
			},
			{
				"x": 0.4803213998,
				"y": 5.9119680321,
				"z": -5.2071940554,
				"element": "C" 
			},
			{
				"x": -0.1297273285,
				"y": 4.9761847594,
				"z": -4.3741765348,
				"element": "C" 
			},
			{
				"x": -1.3808780911,
				"y": 0.8693771389,
				"z": -1.2302300068,
				"element": "C" 
			},
			{
				"x": -2.0087353379,
				"y": -0.084645858,
				"z": -0.4536330152,
				"element": "C" 
			},
			{
				"x": -3.2078503468,
				"y": -0.9471554506,
				"z": -0.7576960568,
				"element": "C" 
			},
			{
				"x": -3.1923785404,
				"y": -2.0015865663,
				"z": 0.3896518415,
				"element": "C" 
			},
			{
				"x": -2.3637125695,
				"y": -1.3466510942,
				"z": 1.4437057024,
				"element": "N" 
			},
			{
				"x": -2.1784549538,
				"y": -1.8463202037,
				"z": 2.7240755464,
				"element": "C" 
			},
			{
				"x": -1.2155318843,
				"y": -1.53054248,
				"z": 3.4152953343,
				"element": "O" 
			},
			{
				"x": -3.2278077119,
				"y": -2.7747228089,
				"z": 3.2699951763,
				"element": "C" 
			},
			{
				"x": -4.5911810615,
				"y": -2.4490981497,
				"z": 3.2637968334,
				"element": "C" 
			},
			{
				"x": -5.5182049607,
				"y": -3.2917107241,
				"z": 3.8785375381,
				"element": "C" 
			},
			{
				"x": -5.09139261,
				"y": -4.4690743339,
				"z": 4.4954271493,
				"element": "C" 
			},
			{
				"x": -3.7318802749,
				"y": -4.7908183183,
				"z": 4.5164378581,
				"element": "C" 
			},
			{
				"x": -2.8027495792,
				"y": -3.9402897918,
				"z": 3.9207824485,
				"element": "C" 
			},
			{
				"x": -1.5538525699,
				"y": -0.3499537422,
				"z": 0.8482073993,
				"element": "C" 
			},
			{
				"x": -0.4723147252,
				"y": 0.3452382026,
				"z": 1.3843265407,
				"element": "C" 
			},
			{
				"x": -2.6243163793,
				"y": -3.3450916791,
				"z": -0.0526996434,
				"element": "C" 
			},
			{
				"x": -3.5002207319,
				"y": -4.3108529548,
				"z": -0.5655725657,
				"element": "C" 
			},
			{
				"x": -3.0207001531,
				"y": -5.5342583707,
				"z": -1.033069781,
				"element": "C" 
			},
			{
				"x": -1.6529145001,
				"y": -5.8108646078,
				"z": -0.9890435782,
				"element": "C" 
			},
			{
				"x": -0.7739929304,
				"y": -4.8573157024,
				"z": -0.4734919986,
				"element": "C" 
			},
			{
				"x": -1.2539823642,
				"y": -3.6315807536,
				"z": -0.0078566507,
				"element": "C" 
			},
			{
				"x": 2.7084726512,
				"y": 0.2186980968,
				"z": 1.9796584614,
				"element": "C" 
			},
			{
				"x": 2.6870519373,
				"y": -0.5857179882,
				"z": 0.8311939768,
				"element": "C" 
			},
			{
				"x": 3.2057913454,
				"y": -1.8795865732,
				"z": 0.8732439094,
				"element": "C" 
			},
			{
				"x": 3.7375644934,
				"y": -2.3842053948,
				"z": 2.0621412066,
				"element": "C" 
			},
			{
				"x": 3.7677895961,
				"y": -1.5840789764,
				"z": 3.2067738384,
				"element": "C" 
			},
			{
				"x": 3.2685110077,
				"y": -0.2844532043,
				"z": 3.1617746402,
				"element": "C" 
			},
			{
				"x": 1.1482811851,
				"y": 3.0547729716,
				"z": 1.1207009683,
				"element": "H" 
			},
			{
				"x": 1.4662281124,
				"y": 2.7676938471,
				"z": -1.2536046936,
				"element": "H" 
			},
			{
				"x": -1.1332384191,
				"y": 3.1167541023,
				"z": -2.8375334447,
				"element": "H" 
			},
			{
				"x": 2.6258915235,
				"y": 3.837931008,
				"z": -2.7346491781,
				"element": "H" 
			},
			{
				"x": 3.6979536619,
				"y": 5.4991523958,
				"z": -4.1934859489,
				"element": "H" 
			},
			{
				"x": 2.3403442767,
				"y": 6.8368801477,
				"z": -5.7928791984,
				"element": "H" 
			},
			{
				"x": -0.1221969065,
				"y": 6.4862429922,
				"z": -5.905360923,
				"element": "H" 
			},
			{
				"x": -1.2058052358,
				"y": 4.8290371678,
				"z": -4.426521297,
				"element": "H" 
			},
			{
				"x": -1.7170379201,
				"y": 1.0466774149,
				"z": -2.2473341158,
				"element": "H" 
			},
			{
				"x": -4.1320390693,
				"y": -0.3557156727,
				"z": -0.7236584135,
				"element": "H" 
			},
			{
				"x": -3.1620597576,
				"y": -1.4300019152,
				"z": -1.7373617578,
				"element": "H" 
			},
			{
				"x": -4.2021019506,
				"y": -2.1646474222,
				"z": 0.7645340035,
				"element": "H" 
			},
			{
				"x": -4.9235651746,
				"y": -1.5206771262,
				"z": 2.8078657528,
				"element": "H" 
			},
			{
				"x": -6.5710749146,
				"y": -3.024787206,
				"z": 3.8819465134,
				"element": "H" 
			},
			{
				"x": -5.8141486162,
				"y": -5.1282056093,
				"z": 4.9676534754,
				"element": "H" 
			},
			{
				"x": -3.3953856407,
				"y": -5.7004511133,
				"z": 5.0051784465,
				"element": "H" 
			},
			{
				"x": -1.741974899,
				"y": -4.1658783988,
				"z": 3.954886438,
				"element": "H" 
			},
			{
				"x": -0.1377865502,
				"y": 0.1478986565,
				"z": 2.3913384018,
				"element": "H" 
			},
			{
				"x": -4.5681740561,
				"y": -4.105861733,
				"z": -0.59251511,
				"element": "H" 
			},
			{
				"x": -3.7153067586,
				"y": -6.2735919883,
				"z": -1.421678236,
				"element": "H" 
			},
			{
				"x": -1.2765004098,
				"y": -6.7646667836,
				"z": -1.34719281,
				"element": "H" 
			},
			{
				"x": 0.2910396474,
				"y": -5.0666599977,
				"z": -0.429209218,
				"element": "H" 
			},
			{
				"x": -0.5582424241,
				"y": -2.9035928841,
				"z": 0.3974165763,
				"element": "H" 
			},
			{
				"x": 2.2820965177,
				"y": -0.1977482644,
				"z": -0.0971325474,
				"element": "H" 
			},
			{
				"x": 3.1996337285,
				"y": -2.4915810772,
				"z": -0.0242915619,
				"element": "H" 
			},
			{
				"x": 4.134090278,
				"y": -3.3951883325,
				"z": 2.0942791374,
				"element": "H" 
			},
			{
				"x": 4.1866718344,
				"y": -1.970757782,
				"z": 4.1311738372,
				"element": "H" 
			},
			{
				"x": 3.3072794534,
				"y": 0.3613298537,
				"z": 4.0324354445,
				"element": "H" 
			}
		],
		 "valence_orbital": [ 
			{
				"type": "occ",
				"energy": -0.24675,
				"method": "rhf"
			},
			{
				"type": "occ",
				"energy": -0.24029,
				"method": "rhf"
			},
			{
				"type": "occ",
				"energy": -0.23861,
				"method": "rhf"
			},
			{
				"type": "occ",
				"energy": -0.23051,
				"method": "rhf"
			},
			{
				"type": "occ",
				"energy": -0.19505,
				"method": "rhf"
			},
			{
				"type": "unocc",
				"energy": -0.0566,
				"method": "rhf"
			},
			{
				"type": "unocc",
				"energy": -0.03463,
				"method": "rhf"
			},
			{
				"type": "unocc",
				"energy": -0.02933,
				"method": "rhf"
			},
			{
				"type": "unocc",
				"energy": -0.01428,
				"method": "rhf"
			},
			{
				"type": "unocc",
				"energy": -0.01102,
				"method": "rhf"
			}
		],
		"cosmo_sigma_profile": { 
			"-0.025": 0.0,
			"-0.024": 0.0,
			"-0.023": 0.0,
			"-0.022": 0.0,
			"-0.021": 0.0,
			"-0.02": 0.0,
			"-0.019": 0.0,
			"-0.018": 0.0,
			"-0.017": 0.0,
			"-0.016": 0.0,
			"-0.015": 0.0,
			"-0.014": 0.358398200668,
			"-0.013": 0.526024195257,
			"-0.012": 1.00491324962,
			"-0.011": 0.887173240529,
			"-0.01": 0.890501068996,
			"-0.009": 1.38608224878,
			"-0.008": 0.833416003463,
			"-0.007": 7.246681786,
			"-0.006": 35.8504905642,
			"-0.005": 52.6893458854,
			"-0.004": 55.7108287511,
			"-0.003": 46.8150730487,
			"-0.002": 42.6107663426,
			"-0.001": 39.2675988916,
			"0.0": 35.1948476006,
			"0.001": 36.9776847124,
			"0.002": 40.5607319482,
			"0.003": 45.0106459422,
			"0.004": 53.2221892906,
			"0.005": 35.3526541168,
			"0.006": 14.800642541,
			"0.007": 3.64186779764,
			"0.008": 3.10881223358,
			"0.009": 3.61893918623,
			"0.01": 3.03913467058,
			"0.011": 3.82043269971,
			"0.012": 5.09321764046,
			"0.013": 7.49869755585,
			"0.014": 2.06909782335,
			"0.015": 0.0,
			"0.016": 0.0,
			"0.017": 0.0,
			"0.018": 0.0,
			"0.019": 0.0,
			"0.02": 0.0,
			"0.021": 0.0,
			"0.022": 0.0,
			"0.023": 0.0,
			"0.024": 0.0,
			"0.025": 0.0
		}
	}
}
