{
	 "smiles": "CC1=CC(=O)C(=NN1C1=CC(Cl)=CC=C1)C(O)=O", 
	 "Tm": 497.15, 
	 "num_atms": 27, 
	 "gaussian": { 
		 "optdone": 1, 
		 "sigma_profile": "yes", 
		 "theory": "DFT", 
		 "functional": "B3LYP", 
		 "basiset": "6-31G**", 
		 "properties": { 
			 "R2extent": 6663.8434, 
			 "electric_dipole_moment_norm": 5.80410913319, 
			 "electric_quadrupole_moment_norm": 17.5293375933, 
			 "total_energy": -1258.03663542, 
			 "HOMO_LUMO_gap": 0.17139, 
			 "cosmo_polarized_energy": -22.87, 
			 "cosmo_cavitation_energy": 34.85, 
			 "cosmo_dispersion_energy": -24.48, 
			 "cosmo_repulsion_energy": 1.92, 
			 "cosmo_total_nonelectrostatic_energy": 12.29, 
			 "SMD_solvation_energy": 7.11 
		},
		"coords": [
			{
				"x": -0.8191559038,
				"y": -2.3062084271,
				"z": 1.3765275347,
				"element": "C" 
			},
			{
				"x": -0.8005008217,
				"y": -2.3230854767,
				"z": -0.1286024376,
				"element": "C" 
			},
			{
				"x": -1.1082763717,
				"y": -3.4358510852,
				"z": -0.8531280974,
				"element": "C" 
			},
			{
				"x": -1.1297104273,
				"y": -3.4354638028,
				"z": -2.3051758467,
				"element": "C" 
			},
			{
				"x": -1.3062650034,
				"y": -4.4307048978,
				"z": -3.0050380504,
				"element": "O" 
			},
			{
				"x": -0.9035991418,
				"y": -2.0754697378,
				"z": -2.8562835872,
				"element": "C" 
			},
			{
				"x": -0.5847030855,
				"y": -1.0323268036,
				"z": -2.1456043375,
				"element": "N" 
			},
			{
				"x": -0.4978535681,
				"y": -1.1495482653,
				"z": -0.8063105834,
				"element": "N" 
			},
			{
				"x": -0.1311771716,
				"y": 0.0775871014,
				"z": -0.146741951,
				"element": "C" 
			},
			{
				"x": 1.0512688186,
				"y": 0.1392968411,
				"z": 0.5926778178,
				"element": "C" 
			},
			{
				"x": 1.390515479,
				"y": 1.3414683657,
				"z": 1.2122121681,
				"element": "C" 
			},
			{
				"x": 2.8702401295,
				"y": 1.4272195079,
				"z": 2.1505752653,
				"element": "Cl" 
			},
			{
				"x": 0.5873173155,
				"y": 2.4745027303,
				"z": 1.087316916,
				"element": "C" 
			},
			{
				"x": -0.5778618773,
				"y": 2.3955232226,
				"z": 0.3225702557,
				"element": "C" 
			},
			{
				"x": -0.9459187001,
				"y": 1.2015096381,
				"z": -0.2949372245,
				"element": "C" 
			},
			{
				"x": -0.9622081304,
				"y": -1.8122206649,
				"z": -4.3389719598,
				"element": "C" 
			},
			{
				"x": -2.0600641368,
				"y": -2.3559793477,
				"z": -4.8964045073,
				"element": "O" 
			},
			{
				"x": -0.1401240032,
				"y": -1.1727687917,
				"z": -4.9546914606,
				"element": "O" 
			},
			{
				"x": -1.4033072413,
				"y": -1.4636637889,
				"z": 1.7587088857,
				"element": "H" 
			},
			{
				"x": 0.1844982739,
				"y": -2.2270523128,
				"z": 1.8041129196,
				"element": "H" 
			},
			{
				"x": -1.2679500095,
				"y": -3.233306577,
				"z": 1.7366489265,
				"element": "H" 
			},
			{
				"x": -1.3539915517,
				"y": -4.3609523872,
				"z": -0.3438959432,
				"element": "H" 
			},
			{
				"x": 1.7066625146,
				"y": -0.7203666689,
				"z": 0.6650442567,
				"element": "H" 
			},
			{
				"x": 0.87450713,
				"y": 3.3996708678,
				"z": 1.5738046025,
				"element": "H" 
			},
			{
				"x": -1.2050690346,
				"y": 3.2744089892,
				"z": 0.2122064443,
				"element": "H" 
			},
			{
				"x": -1.8453848652,
				"y": 1.1336262005,
				"z": -0.8960643132,
				"element": "H" 
			},
			{
				"x": -2.0031886161,
				"y": -2.1657444292,
				"z": -5.848255693,
				"element": "H" 
			}
		],
		 "valence_orbital": [ 
			{
				"type": "occ",
				"energy": -0.28969,
				"method": "rhf"
			},
			{
				"type": "occ",
				"energy": -0.27638,
				"method": "rhf"
			},
			{
				"type": "occ",
				"energy": -0.27026,
				"method": "rhf"
			},
			{
				"type": "occ",
				"energy": -0.23878,
				"method": "rhf"
			},
			{
				"type": "occ",
				"energy": -0.23292,
				"method": "rhf"
			},
			{
				"type": "unocc",
				"energy": -0.06153,
				"method": "rhf"
			},
			{
				"type": "unocc",
				"energy": -0.04962,
				"method": "rhf"
			},
			{
				"type": "unocc",
				"energy": -0.03729,
				"method": "rhf"
			},
			{
				"type": "unocc",
				"energy": -0.02694,
				"method": "rhf"
			},
			{
				"type": "unocc",
				"energy": 0.00955,
				"method": "rhf"
			}
		],
		"cosmo_sigma_profile": { 
			"-0.025": 0.0,
			"-0.024": 0.0,
			"-0.023": 0.0,
			"-0.022": 0.0,
			"-0.021": 0.0,
			"-0.02": 0.0157338005044,
			"-0.019": 0.542479258196,
			"-0.018": 0.853335151931,
			"-0.017": 1.17634067481,
			"-0.016": 0.61755615908,
			"-0.015": 0.556055305088,
			"-0.014": 1.0193416727,
			"-0.013": 0.484397742471,
			"-0.012": 0.708374977625,
			"-0.011": 1.02743532981,
			"-0.01": 0.783471579272,
			"-0.009": 3.31926253864,
			"-0.008": 8.40699461139,
			"-0.007": 14.3988197946,
			"-0.006": 16.1654945009,
			"-0.005": 18.0614974825,
			"-0.004": 15.9573432265,
			"-0.003": 20.20298544,
			"-0.002": 22.4214042818,
			"-0.001": 15.9046905751,
			"0.0": 18.6760393052,
			"0.001": 22.3106929053,
			"0.002": 17.6867998434,
			"0.003": 12.0255141846,
			"0.004": 13.8808297099,
			"0.005": 6.73206853806,
			"0.006": 4.39863923885,
			"0.007": 3.88366592159,
			"0.008": 3.51630700811,
			"0.009": 4.97453301473,
			"0.01": 5.99642504862,
			"0.011": 8.00815092785,
			"0.012": 5.69831120744,
			"0.013": 4.69079739652,
			"0.014": 5.18880641925,
			"0.015": 1.49512485473,
			"0.016": 0.0,
			"0.017": 0.0,
			"0.018": 0.0,
			"0.019": 0.0,
			"0.02": 0.0,
			"0.021": 0.0,
			"0.022": 0.0,
			"0.023": 0.0,
			"0.024": 0.0,
			"0.025": 0.0
		}
	}
}
