{
	 "smiles": "CC(C)CNC(=O)C1=C(Cl)C=CC(N)=C1", 
	 "Tm": 383.15, 
	 "num_atms": 30, 
	 "gaussian": { 
		 "optdone": 1, 
		 "sigma_profile": "yes", 
		 "theory": "DFT", 
		 "functional": "B3LYP", 
		 "basiset": "6-31G**", 
		 "properties": { 
			 "R2extent": 4431.159, 
			 "electric_dipole_moment_norm": 3.98010923217, 
			 "electric_quadrupole_moment_norm": 28.3677588353, 
			 "total_energy": -1073.1562132, 
			 "HOMO_LUMO_gap": 0.19063, 
			 "cosmo_polarized_energy": -16.75, 
			 "cosmo_cavitation_energy": 34.89, 
			 "cosmo_dispersion_energy": -23.67, 
			 "cosmo_repulsion_energy": 1.91, 
			 "cosmo_total_nonelectrostatic_energy": 13.13, 
			 "SMD_solvation_energy": 5.85 
		},
		"coords": [
			{
				"x": -1.6363721281,
				"y": 0.6030133005,
				"z": -2.4332420914,
				"element": "C" 
			},
			{
				"x": -0.1159973047,
				"y": 0.5530903733,
				"z": -2.2283773413,
				"element": "C" 
			},
			{
				"x": 0.6311160352,
				"y": 0.9650852748,
				"z": -3.5037704248,
				"element": "C" 
			},
			{
				"x": 0.2964346769,
				"y": -0.8523262978,
				"z": -1.7422751821,
				"element": "C" 
			},
			{
				"x": 1.7134992943,
				"y": -0.9937779385,
				"z": -1.4323746333,
				"element": "N" 
			},
			{
				"x": 2.3435228982,
				"y": -0.8158048139,
				"z": -0.2332680571,
				"element": "C" 
			},
			{
				"x": 3.563982057,
				"y": -0.7366575448,
				"z": -0.1478681146,
				"element": "O" 
			},
			{
				"x": 1.4843511584,
				"y": -0.6850297483,
				"z": 1.0069870284,
				"element": "C" 
			},
			{
				"x": 0.7381389998,
				"y": -1.7299304848,
				"z": 1.5662184006,
				"element": "C" 
			},
			{
				"x": 0.6835839908,
				"y": -3.3214615143,
				"z": 0.8088076887,
				"element": "Cl" 
			},
			{
				"x": 0.045910321,
				"y": -1.540831348,
				"z": 2.7630296996,
				"element": "C" 
			},
			{
				"x": 0.0885261538,
				"y": -0.3124801146,
				"z": 3.4122306591,
				"element": "C" 
			},
			{
				"x": 0.8423194045,
				"y": 0.7497327616,
				"z": 2.8830308046,
				"element": "C" 
			},
			{
				"x": 0.8569735308,
				"y": 1.9971259454,
				"z": 3.5047803048,
				"element": "N" 
			},
			{
				"x": 1.5392590173,
				"y": 0.5368462055,
				"z": 1.6846383785,
				"element": "C" 
			},
			{
				"x": -2.1745467589,
				"y": 0.3458682895,
				"z": -1.5144007016,
				"element": "H" 
			},
			{
				"x": -1.9587897909,
				"y": 1.6028480414,
				"z": -2.7411546132,
				"element": "H" 
			},
			{
				"x": -1.9519421967,
				"y": -0.1005825909,
				"z": -3.213496225,
				"element": "H" 
			},
			{
				"x": 0.149522911,
				"y": 1.2595292513,
				"z": -1.4291599285,
				"element": "H" 
			},
			{
				"x": 1.7156761245,
				"y": 0.9744444655,
				"z": -3.3541948258,
				"element": "H" 
			},
			{
				"x": 0.336387699,
				"y": 1.9701453629,
				"z": -3.8227324685,
				"element": "H" 
			},
			{
				"x": 0.4074296293,
				"y": 0.2776850359,
				"z": -4.3296159117,
				"element": "H" 
			},
			{
				"x": -0.2776822837,
				"y": -1.1130286688,
				"z": -0.8513802202,
				"element": "H" 
			},
			{
				"x": 0.0407438415,
				"y": -1.5958352589,
				"z": -2.508356499,
				"element": "H" 
			},
			{
				"x": 2.3653883128,
				"y": -1.0530571697,
				"z": -2.2043613374,
				"element": "H" 
			},
			{
				"x": -0.519828339,
				"y": -2.3626548941,
				"z": 3.188401169,
				"element": "H" 
			},
			{
				"x": -0.4606309595,
				"y": -0.1763505073,
				"z": 4.340155186,
				"element": "H" 
			},
			{
				"x": 0.6599878803,
				"y": 1.9880083618,
				"z": 4.4959717246,
				"element": "H" 
			},
			{
				"x": 1.6530344902,
				"y": 2.5793564684,
				"z": 3.2835842488,
				"element": "H" 
			},
			{
				"x": 2.1519013348,
				"y": 1.331429757,
				"z": 1.2677932828,
				"element": "H" 
			}
		],
		 "valence_orbital": [ 
			{
				"type": "occ",
				"energy": -0.29699,
				"method": "rhf"
			},
			{
				"type": "occ",
				"energy": -0.26841,
				"method": "rhf"
			},
			{
				"type": "occ",
				"energy": -0.24364,
				"method": "rhf"
			},
			{
				"type": "occ",
				"energy": -0.23802,
				"method": "rhf"
			},
			{
				"type": "occ",
				"energy": -0.20977,
				"method": "rhf"
			},
			{
				"type": "unocc",
				"energy": -0.01914,
				"method": "rhf"
			},
			{
				"type": "unocc",
				"energy": -0.00062,
				"method": "rhf"
			},
			{
				"type": "unocc",
				"energy": 0.03131,
				"method": "rhf"
			},
			{
				"type": "unocc",
				"energy": 0.03838,
				"method": "rhf"
			},
			{
				"type": "unocc",
				"energy": 0.07701,
				"method": "rhf"
			}
		],
		"cosmo_sigma_profile": { 
			"-0.025": 0.0,
			"-0.024": 0.0,
			"-0.023": 0.0,
			"-0.022": 0.0,
			"-0.021": 0.0,
			"-0.02": 0.0,
			"-0.019": 0.0,
			"-0.018": 0.0,
			"-0.017": 0.0,
			"-0.016": 0.0,
			"-0.015": 0.0,
			"-0.014": 0.0222787479796,
			"-0.013": 1.99442005323,
			"-0.012": 4.06074196039,
			"-0.011": 3.67229308205,
			"-0.01": 4.34572335248,
			"-0.009": 3.98951868909,
			"-0.008": 5.33145135502,
			"-0.007": 6.67353653359,
			"-0.006": 8.08828470724,
			"-0.005": 8.48209088771,
			"-0.004": 10.5836520476,
			"-0.003": 21.7386037434,
			"-0.002": 26.0187918407,
			"-0.001": 27.5443937349,
			"0.0": 23.7996542407,
			"0.001": 25.1247115112,
			"0.002": 17.860255502,
			"0.003": 14.7512956872,
			"0.004": 20.1481234839,
			"0.005": 12.2469082391,
			"0.006": 4.18154842592,
			"0.007": 2.07654461267,
			"0.008": 2.5929387351,
			"0.009": 1.88695639654,
			"0.01": 2.41066914826,
			"0.011": 1.96991995521,
			"0.012": 3.08647804377,
			"0.013": 4.75312432108,
			"0.014": 5.41282911877,
			"0.015": 0.99075709129,
			"0.016": 0.0,
			"0.017": 0.0,
			"0.018": 0.0,
			"0.019": 0.0,
			"0.02": 0.0,
			"0.021": 0.0,
			"0.022": 0.0,
			"0.023": 0.0,
			"0.024": 0.0,
			"0.025": 0.0
		}
	}
}
