{
	 "smiles": "OC(=O)C1=CC=C(NC(=O)C2=C(I)C=CC=C2)C=C1", 
	 "Tm": 549.15, 
	 "num_atms": 29, 
	 "gaussian": { 
		 "optdone": 1, 
		 "sigma_profile": "yes", 
		 "theory": "DFT", 
		 "functional": "B3LYP", 
		 "basiset": "6-31G**", 
		 "properties": { 
			 "R2extent": 6066.5207, 
			 "electric_dipole_moment_norm": 1.99345811594, 
			 "electric_quadrupole_moment_norm": 46.0315451057, 
			 "total_energy": -831.339802308, 
			 "HOMO_LUMO_gap": 0.18271, 
			 "cosmo_polarized_energy": -23.06, 
			 "cosmo_cavitation_energy": 37.38, 
			 "cosmo_dispersion_energy": -26.76, 
			 "cosmo_repulsion_energy": 2.04, 
			 "cosmo_total_nonelectrostatic_energy": 12.65, 
			 "SMD_solvation_energy": 7.19 
		},
		"coords": [
			{
				"x": -4.7289599374,
				"y": 1.4232782188,
				"z": -1.9394617479,
				"element": "O" 
			},
			{
				"x": -4.1940987659,
				"y": 1.4085562917,
				"z": -0.6873761451,
				"element": "C" 
			},
			{
				"x": -4.7505611175,
				"y": 1.9956216495,
				"z": 0.2112582868,
				"element": "O" 
			},
			{
				"x": -2.9201801783,
				"y": 0.64581588,
				"z": -0.5066264314,
				"element": "C" 
			},
			{
				"x": -2.1480901508,
				"y": 0.9191555915,
				"z": 0.6305446767,
				"element": "C" 
			},
			{
				"x": -0.959554681,
				"y": 0.2438789072,
				"z": 0.8757065207,
				"element": "C" 
			},
			{
				"x": -0.5074423629,
				"y": -0.7315796872,
				"z": -0.0290806846,
				"element": "C" 
			},
			{
				"x": 0.6708370283,
				"y": -1.4756277434,
				"z": 0.15868987,
				"element": "N" 
			},
			{
				"x": 1.8566627459,
				"y": -1.2214070154,
				"z": 0.825280225,
				"element": "C" 
			},
			{
				"x": 2.6815094042,
				"y": -2.1136631578,
				"z": 0.9547776879,
				"element": "O" 
			},
			{
				"x": 2.1148936272,
				"y": 0.1479430329,
				"z": 1.3986901133,
				"element": "C" 
			},
			{
				"x": 2.3578633948,
				"y": 1.2982315344,
				"z": 0.6348048575,
				"element": "C" 
			},
			{
				"x": 2.3775931887,
				"y": 1.2558075875,
				"z": -1.4895754935,
				"element": "I" 
			},
			{
				"x": 2.6591226423,
				"y": 2.5145450247,
				"z": 1.2544808441,
				"element": "C" 
			},
			{
				"x": 2.7227633819,
				"y": 2.5890336986,
				"z": 2.6457582801,
				"element": "C" 
			},
			{
				"x": 2.5124360265,
				"y": 1.4466763462,
				"z": 3.419474588,
				"element": "C" 
			},
			{
				"x": 2.22575388,
				"y": 0.2358427695,
				"z": 2.7957191594,
				"element": "C" 
			},
			{
				"x": -1.2945891755,
				"y": -1.0349338068,
				"z": -1.1523914841,
				"element": "C" 
			},
			{
				"x": -2.4851770177,
				"y": -0.357334432,
				"z": -1.3846386131,
				"element": "C" 
			},
			{
				"x": -4.094033952,
				"y": 1.0718402922,
				"z": -2.5784843609,
				"element": "H" 
			},
			{
				"x": -2.5103075884,
				"y": 1.664988947,
				"z": 1.3298108884,
				"element": "H" 
			},
			{
				"x": -0.3948366169,
				"y": 0.4615616458,
				"z": 1.7725478838,
				"element": "H" 
			},
			{
				"x": 0.6991182509,
				"y": -2.3847672699,
				"z": -0.2886024174,
				"element": "H" 
			},
			{
				"x": 2.8499705267,
				"y": 3.3959393622,
				"z": 0.6529325775,
				"element": "H" 
			},
			{
				"x": 2.9509279122,
				"y": 3.53939011,
				"z": 3.1188207483,
				"element": "H" 
			},
			{
				"x": 2.5808000061,
				"y": 1.4958628203,
				"z": 4.5016398195,
				"element": "H" 
			},
			{
				"x": 2.0811055683,
				"y": -0.6651922083,
				"z": 3.3838895954,
				"element": "H" 
			},
			{
				"x": -0.9648713028,
				"y": -1.804931746,
				"z": -1.8442589539,
				"element": "H" 
			},
			{
				"x": -3.0836547372,
				"y": -0.6459326433,
				"z": -2.2453302907,
				"element": "H" 
			}
		],
		 "valence_orbital": [ 
			{
				"type": "occ",
				"energy": -0.27731,
				"method": "rhf"
			},
			{
				"type": "occ",
				"energy": -0.27288,
				"method": "rhf"
			},
			{
				"type": "occ",
				"energy": -0.26559,
				"method": "rhf"
			},
			{
				"type": "occ",
				"energy": -0.25212,
				"method": "rhf"
			},
			{
				"type": "occ",
				"energy": -0.24261,
				"method": "rhf"
			},
			{
				"type": "unocc",
				"energy": -0.0599,
				"method": "rhf"
			},
			{
				"type": "unocc",
				"energy": -0.05046,
				"method": "rhf"
			},
			{
				"type": "unocc",
				"energy": -0.03866,
				"method": "rhf"
			},
			{
				"type": "unocc",
				"energy": -0.03602,
				"method": "rhf"
			},
			{
				"type": "unocc",
				"energy": -0.02476,
				"method": "rhf"
			}
		],
		"cosmo_sigma_profile": { 
			"-0.025": 0.0,
			"-0.024": 0.0,
			"-0.023": 0.0,
			"-0.022": 0.0,
			"-0.021": 0.0,
			"-0.02": 0.0,
			"-0.019": 0.198305495127,
			"-0.018": 0.764758185296,
			"-0.017": 0.820589980837,
			"-0.016": 0.835063389975,
			"-0.015": 2.16117885316,
			"-0.014": 2.51773288083,
			"-0.013": 2.17660024254,
			"-0.012": 1.93665110053,
			"-0.011": 3.08426319293,
			"-0.01": 2.45002318509,
			"-0.009": 1.87324584165,
			"-0.008": 4.65501338095,
			"-0.007": 14.665722907,
			"-0.006": 17.2238247565,
			"-0.005": 19.42925342,
			"-0.004": 14.787974713,
			"-0.003": 14.5590720916,
			"-0.002": 14.1924189987,
			"-0.001": 16.913978464,
			"0.0": 19.0210652454,
			"0.001": 23.7526902146,
			"0.002": 29.6089476388,
			"0.003": 32.1391840023,
			"0.004": 14.6093704299,
			"0.005": 4.40223661383,
			"0.006": 4.62033336196,
			"0.007": 3.75701727139,
			"0.008": 2.91893886273,
			"0.009": 5.14687053378,
			"0.01": 6.11332523588,
			"0.011": 7.68882836643,
			"0.012": 10.7010476531,
			"0.013": 4.70628954105,
			"0.014": 0.364347375243,
			"0.015": 0.0,
			"0.016": 0.0,
			"0.017": 0.0,
			"0.018": 0.0,
			"0.019": 0.0,
			"0.02": 0.0,
			"0.021": 0.0,
			"0.022": 0.0,
			"0.023": 0.0,
			"0.024": 0.0,
			"0.025": 0.0
		}
	}
}
