{
	 "smiles": "CCN(CC)C(=O)C(Cl)=C(/C)OP(=O)(OC)OC", 
	 "Tm": 228.15, 
	 "num_atms": 37, 
	 "gaussian": { 
		 "optdone": 1, 
		 "sigma_profile": "yes", 
		 "theory": "DFT", 
		 "functional": "B3LYP", 
		 "basiset": "6-31G**", 
		 "properties": { 
			 "R2extent": 6705.9619, 
			 "electric_dipole_moment_norm": 3.43954291295, 
			 "electric_quadrupole_moment_norm": 21.634841534, 
			 "total_energy": -1624.99565501, 
			 "HOMO_LUMO_gap": 0.22, 
			 "cosmo_polarized_energy": -16.19, 
			 "cosmo_cavitation_energy": 43.44, 
			 "cosmo_dispersion_energy": -28.1, 
			 "cosmo_repulsion_energy": 2.18, 
			 "cosmo_total_nonelectrostatic_energy": 17.52, 
			 "SMD_solvation_energy": 10.81 
		},
		"coords": [
			{
				"x": -3.0168356531,
				"y": 1.4575396889,
				"z": 1.7537647609,
				"element": "C" 
			},
			{
				"x": -2.617576794,
				"y": 0.4707566437,
				"z": 0.6527945159,
				"element": "C" 
			},
			{
				"x": -2.8673797644,
				"y": -0.9352618014,
				"z": 0.9966007419,
				"element": "N" 
			},
			{
				"x": -4.2563127457,
				"y": -1.4118445966,
				"z": 0.9492437238,
				"element": "C" 
			},
			{
				"x": -4.6796534289,
				"y": -1.9004202675,
				"z": -0.4394349917,
				"element": "C" 
			},
			{
				"x": -1.8948186477,
				"y": -1.8830227802,
				"z": 1.1442433233,
				"element": "C" 
			},
			{
				"x": -2.141194071,
				"y": -3.0864915725,
				"z": 1.2096188521,
				"element": "O" 
			},
			{
				"x": -0.4646296064,
				"y": -1.395468224,
				"z": 1.2296938362,
				"element": "C" 
			},
			{
				"x": -0.051054618,
				"y": -0.4710475729,
				"z": 2.6667955545,
				"element": "Cl" 
			},
			{
				"x": 0.4664072439,
				"y": -1.7030074775,
				"z": 0.3163962269,
				"element": "C" 
			},
			{
				"x": 0.2442995441,
				"y": -2.5308259162,
				"z": -0.911333288,
				"element": "C" 
			},
			{
				"x": 1.778385189,
				"y": -1.2783948627,
				"z": 0.5036042241,
				"element": "O" 
			},
			{
				"x": 2.3484187386,
				"y": 0.0081186196,
				"z": -0.308098309,
				"element": "P" 
			},
			{
				"x": 1.3553728262,
				"y": 1.0660983277,
				"z": -0.6010369379,
				"element": "O" 
			},
			{
				"x": 3.0438761459,
				"y": -0.7049891753,
				"z": -1.5645533057,
				"element": "O" 
			},
			{
				"x": 3.6255772141,
				"y": 0.1232154298,
				"z": -2.5919534835,
				"element": "C" 
			},
			{
				"x": 3.6205500457,
				"y": 0.4228416989,
				"z": 0.5718852316,
				"element": "O" 
			},
			{
				"x": 3.4280467523,
				"y": 1.2254562157,
				"z": 1.7563326847,
				"element": "C" 
			},
			{
				"x": -2.8162896775,
				"y": 2.4808879969,
				"z": 1.4204004029,
				"element": "H" 
			},
			{
				"x": -2.4454621053,
				"y": 1.273908599,
				"z": 2.6664662777,
				"element": "H" 
			},
			{
				"x": -4.0824551281,
				"y": 1.3904617346,
				"z": 1.9951743676,
				"element": "H" 
			},
			{
				"x": -1.5606852388,
				"y": 0.5879856392,
				"z": 0.4057866181,
				"element": "H" 
			},
			{
				"x": -3.1760660693,
				"y": 0.6945699014,
				"z": -0.2658241776,
				"element": "H" 
			},
			{
				"x": -4.8992765359,
				"y": -0.5909198997,
				"z": 1.2806224479,
				"element": "H" 
			},
			{
				"x": -4.3503120782,
				"y": -2.2256566103,
				"z": 1.6711395282,
				"element": "H" 
			},
			{
				"x": -4.5708235372,
				"y": -1.1149307738,
				"z": -1.1948323864,
				"element": "H" 
			},
			{
				"x": -5.7300834158,
				"y": -2.2096235743,
				"z": -0.4266466959,
				"element": "H" 
			},
			{
				"x": -4.0730566524,
				"y": -2.7593620428,
				"z": -0.7357661037,
				"element": "H" 
			},
			{
				"x": -0.7471707175,
				"y": -2.9813645671,
				"z": -0.9106241511,
				"element": "H" 
			},
			{
				"x": 0.9920115077,
				"y": -3.3300667664,
				"z": -0.9413358765,
				"element": "H" 
			},
			{
				"x": 0.3751472514,
				"y": -1.9250131783,
				"z": -1.8152426639,
				"element": "H" 
			},
			{
				"x": 2.9157532114,
				"y": 0.8889255184,
				"z": -2.9161550985,
				"element": "H" 
			},
			{
				"x": 3.8638482755,
				"y": -0.5411384236,
				"z": -3.4231175352,
				"element": "H" 
			},
			{
				"x": 4.5410836037,
				"y": 0.5937269788,
				"z": -2.2219706032,
				"element": "H" 
			},
			{
				"x": 2.9759057316,
				"y": 0.6209113663,
				"z": 2.5466037243,
				"element": "H" 
			},
			{
				"x": 4.4200968595,
				"y": 1.5581085101,
				"z": 2.0633039811,
				"element": "H" 
			},
			{
				"x": 2.7930563444,
				"y": 2.0871372138,
				"z": 1.5358545843,
				"element": "H" 
			}
		],
		 "valence_orbital": [ 
			{
				"type": "occ",
				"energy": -0.29887,
				"method": "rhf"
			},
			{
				"type": "occ",
				"energy": -0.29443,
				"method": "rhf"
			},
			{
				"type": "occ",
				"energy": -0.26445,
				"method": "rhf"
			},
			{
				"type": "occ",
				"energy": -0.23972,
				"method": "rhf"
			},
			{
				"type": "occ",
				"energy": -0.23549,
				"method": "rhf"
			},
			{
				"type": "unocc",
				"energy": -0.01549,
				"method": "rhf"
			},
			{
				"type": "unocc",
				"energy": 0.00351,
				"method": "rhf"
			},
			{
				"type": "unocc",
				"energy": 0.05188,
				"method": "rhf"
			},
			{
				"type": "unocc",
				"energy": 0.06818,
				"method": "rhf"
			},
			{
				"type": "unocc",
				"energy": 0.0836,
				"method": "rhf"
			}
		],
		"cosmo_sigma_profile": { 
			"-0.025": 0.0,
			"-0.024": 0.0,
			"-0.023": 0.0,
			"-0.022": 0.0,
			"-0.021": 0.0,
			"-0.02": 0.0,
			"-0.019": 0.0,
			"-0.018": 0.0,
			"-0.017": 0.0,
			"-0.016": 0.0,
			"-0.015": 0.0,
			"-0.014": 0.0,
			"-0.013": 0.0,
			"-0.012": 0.0,
			"-0.011": 0.0,
			"-0.01": 0.0,
			"-0.009": 0.0,
			"-0.008": 0.0906840817964,
			"-0.007": 4.30766391099,
			"-0.006": 12.9893648983,
			"-0.005": 25.6216064697,
			"-0.004": 38.6742388849,
			"-0.003": 34.5577444822,
			"-0.002": 39.5996945103,
			"-0.001": 30.8737739083,
			"0.0": 32.5143402711,
			"0.001": 24.8103061945,
			"0.002": 15.943737229,
			"0.003": 14.9823819572,
			"0.004": 13.9174919895,
			"0.005": 8.38056273077,
			"0.006": 7.46090491049,
			"0.007": 6.3628593963,
			"0.008": 5.7094009112,
			"0.009": 3.53325186105,
			"0.01": 3.14730886751,
			"0.011": 2.14984816898,
			"0.012": 4.14605080896,
			"0.013": 7.16887081107,
			"0.014": 3.24954859885,
			"0.015": 0.0709349848317,
			"0.016": 0.0,
			"0.017": 0.0,
			"0.018": 0.0,
			"0.019": 0.0,
			"0.02": 0.0,
			"0.021": 0.0,
			"0.022": 0.0,
			"0.023": 0.0,
			"0.024": 0.0,
			"0.025": 0.0
		}
	}
}
