{
	 "smiles": "OC(=O)CCC(=O)C1=CC=C(Br)C=C1", 
	 "Tm": 419.15, 
	 "num_atms": 23, 
	 "gaussian": { 
		 "optdone": 1, 
		 "sigma_profile": "yes", 
		 "theory": "DFT", 
		 "functional": "B3LYP", 
		 "basiset": "6-31G**", 
		 "properties": { 
			 "R2extent": 7476.3356, 
			 "electric_dipole_moment_norm": 3.39353672737, 
			 "electric_quadrupole_moment_norm": 15.2890657746, 
			 "total_energy": -3183.58354813, 
			 "HOMO_LUMO_gap": 0.18665, 
			 "cosmo_polarized_energy": -15.33, 
			 "cosmo_cavitation_energy": 30.39, 
			 "cosmo_dispersion_energy": -22.26, 
			 "cosmo_repulsion_energy": 1.77, 
			 "cosmo_total_nonelectrostatic_energy": 9.9, 
			 "SMD_solvation_energy": 5.43 
		},
		"coords": [
			{
				"x": 0.3648977645,
				"y": -1.1088456764,
				"z": 3.9761535435,
				"element": "O" 
			},
			{
				"x": -0.9590081384,
				"y": -1.3569287498,
				"z": 3.8022361601,
				"element": "C" 
			},
			{
				"x": -1.5684174518,
				"y": -2.1416709604,
				"z": 4.4910378512,
				"element": "O" 
			},
			{
				"x": -1.5735144625,
				"y": -0.4927532599,
				"z": 2.7184891301,
				"element": "C" 
			},
			{
				"x": -0.6191691899,
				"y": -0.0431483236,
				"z": 1.6116032992,
				"element": "C" 
			},
			{
				"x": -0.0687066419,
				"y": -1.2162906962,
				"z": 0.8071625079,
				"element": "C" 
			},
			{
				"x": -0.3867707699,
				"y": -2.3624979977,
				"z": 1.0883939902,
				"element": "O" 
			},
			{
				"x": 0.8627493851,
				"y": -0.9416123659,
				"z": -0.3329896541,
				"element": "C" 
			},
			{
				"x": 1.347489599,
				"y": -2.0359007744,
				"z": -1.0668452763,
				"element": "C" 
			},
			{
				"x": 2.2148692135,
				"y": -1.8508470547,
				"z": -2.1374255571,
				"element": "C" 
			},
			{
				"x": 2.6031890733,
				"y": -0.5531762517,
				"z": -2.4779002162,
				"element": "C" 
			},
			{
				"x": 3.7930881727,
				"y": -0.2865254193,
				"z": -3.9444697836,
				"element": "Br" 
			},
			{
				"x": 2.1381755209,
				"y": 0.5520974049,
				"z": -1.7660576092,
				"element": "C" 
			},
			{
				"x": 1.2684819151,
				"y": 0.351417539,
				"z": -0.6954758013,
				"element": "C" 
			},
			{
				"x": 0.6526093908,
				"y": -1.6988036514,
				"z": 4.6927894336,
				"element": "H" 
			},
			{
				"x": -1.9885752092,
				"y": 0.3913478158,
				"z": 3.2185675404,
				"element": "H" 
			},
			{
				"x": -2.4147012843,
				"y": -1.0577988583,
				"z": 2.312905264,
				"element": "H" 
			},
			{
				"x": -1.139489282,
				"y": 0.6410259705,
				"z": 0.9291213761,
				"element": "H" 
			},
			{
				"x": 0.2204038767,
				"y": 0.5211940283,
				"z": 2.0329652536,
				"element": "H" 
			},
			{
				"x": 1.027538481,
				"y": -3.0310854653,
				"z": -0.7768402345,
				"element": "H" 
			},
			{
				"x": 2.5878589738,
				"y": -2.6969772629,
				"z": -2.7030762654,
				"element": "H" 
			},
			{
				"x": 2.4517649358,
				"y": 1.5513912259,
				"z": -2.0449419172,
				"element": "H" 
			},
			{
				"x": 0.9130361278,
				"y": 1.2166887834,
				"z": -0.1459030348,
				"element": "H" 
			}
		],
		 "valence_orbital": [ 
			{
				"type": "occ",
				"energy": -0.29813,
				"method": "rhf"
			},
			{
				"type": "occ",
				"energy": -0.2779,
				"method": "rhf"
			},
			{
				"type": "occ",
				"energy": -0.26945,
				"method": "rhf"
			},
			{
				"type": "occ",
				"energy": -0.26253,
				"method": "rhf"
			},
			{
				"type": "occ",
				"energy": -0.25625,
				"method": "rhf"
			},
			{
				"type": "unocc",
				"energy": -0.0696,
				"method": "rhf"
			},
			{
				"type": "unocc",
				"energy": -0.02696,
				"method": "rhf"
			},
			{
				"type": "unocc",
				"energy": -0.00307,
				"method": "rhf"
			},
			{
				"type": "unocc",
				"energy": 0.01593,
				"method": "rhf"
			},
			{
				"type": "unocc",
				"energy": 0.02386,
				"method": "rhf"
			}
		],
		"cosmo_sigma_profile": { 
			"-0.025": 0.0,
			"-0.024": 0.0,
			"-0.023": 0.0,
			"-0.022": 0.0,
			"-0.021": 0.0,
			"-0.02": 0.0,
			"-0.019": 0.0,
			"-0.018": 0.505432182753,
			"-0.017": 1.00297476313,
			"-0.016": 0.802710494795,
			"-0.015": 0.885589552326,
			"-0.014": 0.615483015055,
			"-0.013": 0.745603112753,
			"-0.012": 0.315232199638,
			"-0.011": 0.959287233242,
			"-0.01": 0.881191301161,
			"-0.009": 0.524221718626,
			"-0.008": 3.10082196905,
			"-0.007": 13.3394652462,
			"-0.006": 17.1032547323,
			"-0.005": 18.0739356438,
			"-0.004": 13.9985660243,
			"-0.003": 14.530179821,
			"-0.002": 12.1501144919,
			"-0.001": 12.179483441,
			"0.0": 15.875537845,
			"0.001": 20.0588979292,
			"0.002": 25.6676538942,
			"0.003": 14.8150070363,
			"0.004": 15.236788601,
			"0.005": 5.6232433002,
			"0.006": 5.26699294193,
			"0.007": 4.56329377762,
			"0.008": 4.23814379009,
			"0.009": 3.9207995135,
			"0.01": 4.32650235315,
			"0.011": 6.24863152355,
			"0.012": 6.18536387025,
			"0.013": 1.5670276364,
			"0.014": 0.0343925104725,
			"0.015": 0.0,
			"0.016": 0.0,
			"0.017": 0.0,
			"0.018": 0.0,
			"0.019": 0.0,
			"0.02": 0.0,
			"0.021": 0.0,
			"0.022": 0.0,
			"0.023": 0.0,
			"0.024": 0.0,
			"0.025": 0.0
		}
	}
}
