{
	 "smiles": "NC1=NNC(=C1)C1=CC=CC=C1", 
	 "Tm": 399.15, 
	 "num_atms": 21, 
	 "gaussian": { 
		 "optdone": 1, 
		 "sigma_profile": "yes", 
		 "theory": "DFT", 
		 "functional": "B3LYP", 
		 "basiset": "6-31G**", 
		 "properties": { 
			 "R2extent": 2546.4541, 
			 "electric_dipole_moment_norm": 2.03573394381, 
			 "electric_quadrupole_moment_norm": 14.1076549859, 
			 "total_energy": -512.621959185, 
			 "HOMO_LUMO_gap": 0.17278, 
			 "cosmo_polarized_energy": -13.36, 
			 "cosmo_cavitation_energy": 25.28, 
			 "cosmo_dispersion_energy": -18.9, 
			 "cosmo_repulsion_energy": 1.51, 
			 "cosmo_total_nonelectrostatic_energy": 7.88, 
			 "SMD_solvation_energy": 3.12 
		},
		"coords": [
			{
				"x": -2.327906036,
				"y": -3.0167887139,
				"z": -1.6433256321,
				"element": "N" 
			},
			{
				"x": -1.5078182381,
				"y": -1.9104096478,
				"z": -1.4146049441,
				"element": "C" 
			},
			{
				"x": -0.7607712666,
				"y": -1.4031712582,
				"z": -2.3957183023,
				"element": "N" 
			},
			{
				"x": -0.203779758,
				"y": -0.2909301036,
				"z": -1.8445918811,
				"element": "N" 
			},
			{
				"x": -0.5319297833,
				"y": -0.1130068796,
				"z": -0.5333509073,
				"element": "C" 
			},
			{
				"x": -1.3990034918,
				"y": -1.152101556,
				"z": -0.2209063044,
				"element": "C" 
			},
			{
				"x": -0.0265384197,
				"y": 1.0056447919,
				"z": 0.2674890065,
				"element": "C" 
			},
			{
				"x": 0.3414861493,
				"y": 2.2232812629,
				"z": -0.3317529733,
				"element": "C" 
			},
			{
				"x": 0.8329159981,
				"y": 3.275718151,
				"z": 0.4386887536,
				"element": "C" 
			},
			{
				"x": 0.9536608021,
				"y": 3.1381486997,
				"z": 1.8227866722,
				"element": "C" 
			},
			{
				"x": 0.5808212253,
				"y": 1.9365906517,
				"z": 2.4303538575,
				"element": "C" 
			},
			{
				"x": 0.1006257577,
				"y": 0.8790168771,
				"z": 1.6616006986,
				"element": "C" 
			},
			{
				"x": -2.3463625583,
				"y": -3.6707330408,
				"z": -0.8710399727,
				"element": "H" 
			},
			{
				"x": -2.0859119059,
				"y": -3.4855916063,
				"z": -2.508296344,
				"element": "H" 
			},
			{
				"x": 0.5132460276,
				"y": 0.1937092001,
				"z": -2.3596061402,
				"element": "H" 
			},
			{
				"x": -1.9275712732,
				"y": -1.3019182306,
				"z": 0.7084629492,
				"element": "H" 
			},
			{
				"x": 0.2125468782,
				"y": 2.3572988771,
				"z": -1.4023019594,
				"element": "H" 
			},
			{
				"x": 1.1092803516,
				"y": 4.2097089668,
				"z": -0.0422306432,
				"element": "H" 
			},
			{
				"x": 1.3319348224,
				"y": 3.9603322856,
				"z": 2.4229820655,
				"element": "H" 
			},
			{
				"x": 0.6734263438,
				"y": 1.8194417078,
				"z": 3.5063447992,
				"element": "H" 
			},
			{
				"x": -0.1633516254,
				"y": -0.0617404348,
				"z": 2.1349172017,
				"element": "H" 
			}
		],
		 "valence_orbital": [ 
			{
				"type": "occ",
				"energy": -0.28294,
				"method": "rhf"
			},
			{
				"type": "occ",
				"energy": -0.2727,
				"method": "rhf"
			},
			{
				"type": "occ",
				"energy": -0.25643,
				"method": "rhf"
			},
			{
				"type": "occ",
				"energy": -0.22031,
				"method": "rhf"
			},
			{
				"type": "occ",
				"energy": -0.19909,
				"method": "rhf"
			},
			{
				"type": "unocc",
				"energy": -0.02631,
				"method": "rhf"
			},
			{
				"type": "unocc",
				"energy": -0.00723,
				"method": "rhf"
			},
			{
				"type": "unocc",
				"energy": 0.05509,
				"method": "rhf"
			},
			{
				"type": "unocc",
				"energy": 0.08077,
				"method": "rhf"
			},
			{
				"type": "unocc",
				"energy": 0.08562,
				"method": "rhf"
			}
		],
		"cosmo_sigma_profile": { 
			"-0.025": 0.0,
			"-0.024": 0.0,
			"-0.023": 0.0,
			"-0.022": 0.0,
			"-0.021": 0.0,
			"-0.02": 0.0,
			"-0.019": 0.0,
			"-0.018": 0.0,
			"-0.017": 0.0,
			"-0.016": 0.194889398478,
			"-0.015": 1.08664148935,
			"-0.014": 1.11142639482,
			"-0.013": 1.1836028999,
			"-0.012": 2.3153426609,
			"-0.011": 3.55935907605,
			"-0.01": 3.76228720427,
			"-0.009": 4.2607665551,
			"-0.008": 3.34540767151,
			"-0.007": 3.97264375995,
			"-0.006": 10.4063489644,
			"-0.005": 14.8684988597,
			"-0.004": 15.0067417477,
			"-0.003": 12.3071440117,
			"-0.002": 9.2516557005,
			"-0.001": 8.9614696754,
			"0.0": 9.26749817232,
			"0.001": 10.75283323,
			"0.002": 12.068036838,
			"0.003": 12.2543647869,
			"0.004": 14.4869266386,
			"0.005": 16.4411538535,
			"0.006": 8.21921649607,
			"0.007": 4.33534866375,
			"0.008": 2.79573019359,
			"0.009": 2.37704954878,
			"0.01": 2.04336177459,
			"0.011": 1.86198878403,
			"0.012": 2.50279771151,
			"0.013": 1.51136061055,
			"0.014": 1.52219149863,
			"0.015": 2.08029441606,
			"0.016": 1.34753280696,
			"0.017": 0.276728978528,
			"0.018": 0.0,
			"0.019": 0.0,
			"0.02": 0.0,
			"0.021": 0.0,
			"0.022": 0.0,
			"0.023": 0.0,
			"0.024": 0.0,
			"0.025": 0.0
		}
	}
}
