{
	 "smiles": "O=C(NCC1CCCCN1)C1=CC=CC=C1", 
	 "Tm": 383.15, 
	 "num_atms": 34, 
	 "gaussian": { 
		 "optdone": 1, 
		 "sigma_profile": "yes", 
		 "theory": "DFT", 
		 "functional": "B3LYP", 
		 "basiset": "6-31G**", 
		 "properties": { 
			 "R2extent": 6121.5296, 
			 "electric_dipole_moment_norm": 4.05783815596, 
			 "electric_quadrupole_moment_norm": 18.4680098806, 
			 "total_energy": -690.989087091, 
			 "HOMO_LUMO_gap": 0.20297, 
			 "cosmo_polarized_energy": -12.48, 
			 "cosmo_cavitation_energy": 35.43, 
			 "cosmo_dispersion_energy": -25.81, 
			 "cosmo_repulsion_energy": 2.03, 
			 "cosmo_total_nonelectrostatic_energy": 11.65, 
			 "SMD_solvation_energy": 3.75 
		},
		"coords": [
			{
				"x": 0.5016159955,
				"y": -0.9793467883,
				"z": 3.5934292479,
				"element": "O" 
			},
			{
				"x": -0.2704180695,
				"y": -0.81621962,
				"z": 2.6491845655,
				"element": "C" 
			},
			{
				"x": 0.0538961808,
				"y": -0.0623378435,
				"z": 1.5570573683,
				"element": "N" 
			},
			{
				"x": 1.3699582062,
				"y": 0.5268790893,
				"z": 1.3873242047,
				"element": "C" 
			},
			{
				"x": 1.895881459,
				"y": 0.2681583666,
				"z": -0.0274138477,
				"element": "C" 
			},
			{
				"x": 3.2853091038,
				"y": 0.8830168317,
				"z": -0.2675614837,
				"element": "C" 
			},
			{
				"x": 3.7444236101,
				"y": 0.6433558531,
				"z": -1.7160455322,
				"element": "C" 
			},
			{
				"x": 2.6809929515,
				"y": 1.1118913465,
				"z": -2.7221764219,
				"element": "C" 
			},
			{
				"x": 1.3082844714,
				"y": 0.502888359,
				"z": -2.3908991344,
				"element": "C" 
			},
			{
				"x": 0.8874770125,
				"y": 0.7314363142,
				"z": -1.0007766664,
				"element": "N" 
			},
			{
				"x": -1.6378143838,
				"y": -1.4473053459,
				"z": 2.6384267342,
				"element": "C" 
			},
			{
				"x": -2.6880779561,
				"y": -1.0141048351,
				"z": 1.8167753409,
				"element": "C" 
			},
			{
				"x": -3.9303535081,
				"y": -1.6473685879,
				"z": 1.8675543257,
				"element": "C" 
			},
			{
				"x": -4.1352216527,
				"y": -2.7186217926,
				"z": 2.7390474325,
				"element": "C" 
			},
			{
				"x": -3.0963416925,
				"y": -3.1472592225,
				"z": 3.5694907433,
				"element": "C" 
			},
			{
				"x": -1.8582081553,
				"y": -2.5107326746,
				"z": 3.5238453015,
				"element": "C" 
			},
			{
				"x": -0.5062700565,
				"y": -0.0995367491,
				"z": 0.7156641321,
				"element": "H" 
			},
			{
				"x": 2.031202723,
				"y": 0.0942575932,
				"z": 2.141972628,
				"element": "H" 
			},
			{
				"x": 1.3328609383,
				"y": 1.6129811932,
				"z": 1.5703756855,
				"element": "H" 
			},
			{
				"x": 1.9711604155,
				"y": -0.8211547907,
				"z": -0.1628395593,
				"element": "H" 
			},
			{
				"x": 3.236581806,
				"y": 1.963819219,
				"z": -0.0677860504,
				"element": "H" 
			},
			{
				"x": 4.0115833085,
				"y": 0.4636682405,
				"z": 0.4397831813,
				"element": "H" 
			},
			{
				"x": 3.9278430998,
				"y": -0.4307339064,
				"z": -1.8600041215,
				"element": "H" 
			},
			{
				"x": 4.6988283822,
				"y": 1.1488220871,
				"z": -1.902395877,
				"element": "H" 
			},
			{
				"x": 2.6024502294,
				"y": 2.2082311328,
				"z": -2.6893530971,
				"element": "H" 
			},
			{
				"x": 2.9746234894,
				"y": 0.848625957,
				"z": -3.7458938923,
				"element": "H" 
			},
			{
				"x": 0.5336145454,
				"y": 0.8999148847,
				"z": -3.0563604702,
				"element": "H" 
			},
			{
				"x": 1.3379804092,
				"y": -0.5832524841,
				"z": -2.5521851019,
				"element": "H" 
			},
			{
				"x": 0.7564340049,
				"y": 1.7354412323,
				"z": -0.8659894627,
				"element": "H" 
			},
			{
				"x": -2.5563833256,
				"y": -0.1617844256,
				"z": 1.1564143008,
				"element": "H" 
			},
			{
				"x": -4.7396520443,
				"y": -1.2990656281,
				"z": 1.2321812287,
				"element": "H" 
			},
			{
				"x": -5.10244239,
				"y": -3.2118903805,
				"z": 2.7763452214,
				"element": "H" 
			},
			{
				"x": -3.2539744459,
				"y": -3.9755715744,
				"z": 4.2544164652,
				"element": "H" 
			},
			{
				"x": -1.0402446622,
				"y": -2.8152010508,
				"z": 4.1678926113,
				"element": "H" 
			}
		],
		 "valence_orbital": [ 
			{
				"type": "occ",
				"energy": -0.25265,
				"method": "rhf"
			},
			{
				"type": "occ",
				"energy": -0.25034,
				"method": "rhf"
			},
			{
				"type": "occ",
				"energy": -0.24134,
				"method": "rhf"
			},
			{
				"type": "occ",
				"energy": -0.23862,
				"method": "rhf"
			},
			{
				"type": "occ",
				"energy": -0.22933,
				"method": "rhf"
			},
			{
				"type": "unocc",
				"energy": -0.02636,
				"method": "rhf"
			},
			{
				"type": "unocc",
				"energy": -0.00113,
				"method": "rhf"
			},
			{
				"type": "unocc",
				"energy": 0.0696,
				"method": "rhf"
			},
			{
				"type": "unocc",
				"energy": 0.07701,
				"method": "rhf"
			},
			{
				"type": "unocc",
				"energy": 0.0921,
				"method": "rhf"
			}
		],
		"cosmo_sigma_profile": { 
			"-0.025": 0.0,
			"-0.024": 0.0,
			"-0.023": 0.0,
			"-0.022": 0.0,
			"-0.021": 0.0,
			"-0.02": 0.0,
			"-0.019": 0.0,
			"-0.018": 0.0,
			"-0.017": 0.0,
			"-0.016": 0.0,
			"-0.015": 0.0,
			"-0.014": 0.0,
			"-0.013": 0.0,
			"-0.012": 0.0,
			"-0.011": 0.0,
			"-0.01": 0.620256445822,
			"-0.009": 2.33797488584,
			"-0.008": 2.71286323975,
			"-0.007": 4.15346263889,
			"-0.006": 9.12568287879,
			"-0.005": 13.507528768,
			"-0.004": 17.3308536587,
			"-0.003": 29.7036115473,
			"-0.002": 35.4386783625,
			"-0.001": 32.5246221609,
			"0.0": 31.3196043896,
			"0.001": 22.4999342389,
			"0.002": 12.9906691449,
			"0.003": 12.5854273329,
			"0.004": 14.5967473782,
			"0.005": 11.5753084904,
			"0.006": 2.54319541075,
			"0.007": 2.45217093848,
			"0.008": 2.37410936244,
			"0.009": 2.27126199252,
			"0.01": 2.14669614486,
			"0.011": 1.67171743422,
			"0.012": 2.235214366,
			"0.013": 2.73031834024,
			"0.014": 5.20487247997,
			"0.015": 0.834660834274,
			"0.016": 0.0,
			"0.017": 0.0,
			"0.018": 0.0,
			"0.019": 0.0,
			"0.02": 0.0,
			"0.021": 0.0,
			"0.022": 0.0,
			"0.023": 0.0,
			"0.024": 0.0,
			"0.025": 0.0
		}
	}
}
