{
	 "smiles": "CCN1C2=C(C=CC=C2)N=C1C(C)=O", 
	 "Tm": 350.15, 
	 "num_atms": 26, 
	 "gaussian": { 
		 "optdone": 1, 
		 "sigma_profile": "yes", 
		 "theory": "DFT", 
		 "functional": "B3LYP", 
		 "basiset": "6-31G**", 
		 "properties": { 
			 "R2extent": 3128.886, 
			 "electric_dipole_moment_norm": 1.98002930534, 
			 "electric_quadrupole_moment_norm": 4.51410538534, 
			 "total_energy": -611.15305918, 
			 "HOMO_LUMO_gap": 0.16406, 
			 "cosmo_polarized_energy": -9.03, 
			 "cosmo_cavitation_energy": 29.36, 
			 "cosmo_dispersion_energy": -21.14, 
			 "cosmo_repulsion_energy": 1.65, 
			 "cosmo_total_nonelectrostatic_energy": 9.87, 
			 "SMD_solvation_energy": 3.93 
		},
		"coords": [
			{
				"x": -1.6158442482,
				"y": 1.7512138515,
				"z": -0.3858698142,
				"element": "C" 
			},
			{
				"x": -0.0978768206,
				"y": 1.9225267084,
				"z": -0.317730987,
				"element": "C" 
			},
			{
				"x": 0.6178487329,
				"y": 0.6413164974,
				"z": -0.3074627248,
				"element": "N" 
			},
			{
				"x": 0.9902902908,
				"y": -0.0498212423,
				"z": 0.8272866806,
				"element": "C" 
			},
			{
				"x": 1.6345127188,
				"y": -1.227198235,
				"z": 0.3655171759,
				"element": "C" 
			},
			{
				"x": 2.1481292772,
				"y": -2.1574632893,
				"z": 1.2855011461,
				"element": "C" 
			},
			{
				"x": 2.0017049616,
				"y": -1.8831971648,
				"z": 2.6366097124,
				"element": "C" 
			},
			{
				"x": 1.3561708131,
				"y": -0.7058652636,
				"z": 3.0820489904,
				"element": "C" 
			},
			{
				"x": 0.8401336465,
				"y": 0.2283251376,
				"z": 2.192955261,
				"element": "C" 
			},
			{
				"x": 1.6455294859,
				"y": -1.2503824999,
				"z": -1.0080273597,
				"element": "N" 
			},
			{
				"x": 1.0332180882,
				"y": -0.1376014143,
				"z": -1.3789080749,
				"element": "C" 
			},
			{
				"x": 0.819992856,
				"y": 0.2196425808,
				"z": -2.8028472676,
				"element": "C" 
			},
			{
				"x": 1.4342582318,
				"y": -0.7133734768,
				"z": -3.822469185,
				"element": "C" 
			},
			{
				"x": 0.1820798983,
				"y": 1.2144404998,
				"z": -3.1273904245,
				"element": "O" 
			},
			{
				"x": -1.985517816,
				"y": 1.1423344684,
				"z": 0.4447865726,
				"element": "H" 
			},
			{
				"x": -2.1020956683,
				"y": 2.7308171881,
				"z": -0.3382331099,
				"element": "H" 
			},
			{
				"x": -1.899029297,
				"y": 1.2761902289,
				"z": -1.3279703335,
				"element": "H" 
			},
			{
				"x": 0.2537727157,
				"y": 2.4950935244,
				"z": -1.1745990039,
				"element": "H" 
			},
			{
				"x": 0.1949210893,
				"y": 2.4525910517,
				"z": 0.5937085319,
				"element": "H" 
			},
			{
				"x": 2.6416626957,
				"y": -3.0570984827,
				"z": 0.9325757607,
				"element": "H" 
			},
			{
				"x": 2.3872959535,
				"y": -2.5820881081,
				"z": 3.3727179765,
				"element": "H" 
			},
			{
				"x": 1.2594729931,
				"y": -0.5294308112,
				"z": 4.1492991949,
				"element": "H" 
			},
			{
				"x": 0.3420341227,
				"y": 1.1246535815,
				"z": 2.5483377496,
				"element": "H" 
			},
			{
				"x": 1.113414266,
				"y": -1.7432833057,
				"z": -3.644853188,
				"element": "H" 
			},
			{
				"x": 1.1447876994,
				"y": -0.3841907916,
				"z": -4.8210512971,
				"element": "H" 
			},
			{
				"x": 2.5249333138,
				"y": -0.709451233,
				"z": -3.7271319825,
				"element": "H" 
			}
		],
		 "valence_orbital": [ 
			{
				"type": "occ",
				"energy": -0.30285,
				"method": "rhf"
			},
			{
				"type": "occ",
				"energy": -0.28271,
				"method": "rhf"
			},
			{
				"type": "occ",
				"energy": -0.2554,
				"method": "rhf"
			},
			{
				"type": "occ",
				"energy": -0.23382,
				"method": "rhf"
			},
			{
				"type": "occ",
				"energy": -0.22918,
				"method": "rhf"
			},
			{
				"type": "unocc",
				"energy": -0.06512,
				"method": "rhf"
			},
			{
				"type": "unocc",
				"energy": 0.00552,
				"method": "rhf"
			},
			{
				"type": "unocc",
				"energy": 0.01836,
				"method": "rhf"
			},
			{
				"type": "unocc",
				"energy": 0.07952,
				"method": "rhf"
			},
			{
				"type": "unocc",
				"energy": 0.0894,
				"method": "rhf"
			}
		],
		"cosmo_sigma_profile": { 
			"-0.025": 0.0,
			"-0.024": 0.0,
			"-0.023": 0.0,
			"-0.022": 0.0,
			"-0.021": 0.0,
			"-0.02": 0.0,
			"-0.019": 0.0,
			"-0.018": 0.0,
			"-0.017": 0.0,
			"-0.016": 0.0,
			"-0.015": 0.0,
			"-0.014": 0.0,
			"-0.013": 0.0,
			"-0.012": 0.0,
			"-0.011": 0.0,
			"-0.01": 0.0,
			"-0.009": 0.0,
			"-0.008": 0.498435762126,
			"-0.007": 3.37853098898,
			"-0.006": 10.4444006514,
			"-0.005": 15.6846318243,
			"-0.004": 23.7769267939,
			"-0.003": 27.3788096063,
			"-0.002": 22.9373008431,
			"-0.001": 23.370617856,
			"0.0": 19.8045724636,
			"0.001": 12.3339957582,
			"0.002": 11.4058142934,
			"0.003": 12.6742969604,
			"0.004": 13.1200264254,
			"0.005": 12.1533014498,
			"0.006": 4.3975058444,
			"0.007": 3.03587182026,
			"0.008": 3.25156241877,
			"0.009": 2.48442936841,
			"0.01": 2.52008812069,
			"0.011": 3.58424739251,
			"0.012": 2.9138604194,
			"0.013": 1.0199626833,
			"0.014": 1.14599310051,
			"0.015": 0.246785467983,
			"0.016": 0.0511301468346,
			"0.017": 0.0,
			"0.018": 0.0,
			"0.019": 0.0,
			"0.02": 0.0,
			"0.021": 0.0,
			"0.022": 0.0,
			"0.023": 0.0,
			"0.024": 0.0,
			"0.025": 0.0
		}
	}
}
