{
	 "smiles": "OC1=CC(F)=C(F)C(F)=C1", 
	 "Tm": 327.15, 
	 "num_atms": 13, 
	 "gaussian": { 
		 "optdone": 1, 
		 "sigma_profile": "yes", 
		 "theory": "DFT", 
		 "functional": "B3LYP", 
		 "basiset": "6-31G**", 
		 "properties": { 
			 "R2extent": 1460.3294, 
			 "electric_dipole_moment_norm": 3.08021650862, 
			 "electric_quadrupole_moment_norm": 9.55226185728, 
			 "total_energy": -605.149322871, 
			 "HOMO_LUMO_gap": 0.21953, 
			 "cosmo_polarized_energy": -8.04, 
			 "cosmo_cavitation_energy": 19.35, 
			 "cosmo_dispersion_energy": -14.04, 
			 "cosmo_repulsion_energy": 1.08, 
			 "cosmo_total_nonelectrostatic_energy": 6.39, 
			 "SMD_solvation_energy": 5.32 
		},
		"coords": [
			{
				"x": 2.751040831,
				"y": 1.9802497669,
				"z": -1.3373417774,
				"element": "O" 
			},
			{
				"x": 1.7926842961,
				"y": 1.1987223079,
				"z": -0.7652307892,
				"element": "C" 
			},
			{
				"x": 2.034553739,
				"y": 0.4256849663,
				"z": 0.3760882531,
				"element": "C" 
			},
			{
				"x": 1.0015447399,
				"y": -0.3451344786,
				"z": 0.8979445591,
				"element": "C" 
			},
			{
				"x": 1.2154628431,
				"y": -1.0925230531,
				"z": 1.9917624556,
				"element": "F" 
			},
			{
				"x": -0.2613581092,
				"y": -0.3660192963,
				"z": 0.3148685294,
				"element": "C" 
			},
			{
				"x": -1.2472897016,
				"y": -1.115423954,
				"z": 0.8311110597,
				"element": "F" 
			},
			{
				"x": -0.4740937488,
				"y": 0.4139668993,
				"z": -0.8215984414,
				"element": "C" 
			},
			{
				"x": -1.6913122592,
				"y": 0.3948070488,
				"z": -1.3848747825,
				"element": "F" 
			},
			{
				"x": 0.5310749086,
				"y": 1.1956985874,
				"z": -1.3713642712,
				"element": "C" 
			},
			{
				"x": 3.5730192593,
				"y": 1.9021968173,
				"z": -0.8364611487,
				"element": "H" 
			},
			{
				"x": 3.0022324609,
				"y": 0.4083142823,
				"z": 0.867050027,
				"element": "H" 
			},
			{
				"x": 0.3389407408,
				"y": 1.7920601057,
				"z": -2.2545536735,
				"element": "H" 
			}
		],
		 "valence_orbital": [ 
			{
				"type": "occ",
				"energy": -0.38104,
				"method": "rhf"
			},
			{
				"type": "occ",
				"energy": -0.36859,
				"method": "rhf"
			},
			{
				"type": "occ",
				"energy": -0.32897,
				"method": "rhf"
			},
			{
				"type": "occ",
				"energy": -0.26103,
				"method": "rhf"
			},
			{
				"type": "occ",
				"energy": -0.23389,
				"method": "rhf"
			},
			{
				"type": "unocc",
				"energy": -0.01436,
				"method": "rhf"
			},
			{
				"type": "unocc",
				"energy": 0.00019,
				"method": "rhf"
			},
			{
				"type": "unocc",
				"energy": 0.04522,
				"method": "rhf"
			},
			{
				"type": "unocc",
				"energy": 0.05754,
				"method": "rhf"
			},
			{
				"type": "unocc",
				"energy": 0.12303,
				"method": "rhf"
			}
		],
		"cosmo_sigma_profile": { 
			"-0.025": 0.0,
			"-0.024": 0.0,
			"-0.023": 0.0,
			"-0.022": 0.0,
			"-0.021": 0.0,
			"-0.02": 0.0,
			"-0.019": 0.239678245952,
			"-0.018": 1.14234869376,
			"-0.017": 1.50326763918,
			"-0.016": 1.03139317622,
			"-0.015": 0.830415550312,
			"-0.014": 1.3834177406,
			"-0.013": 0.731373572916,
			"-0.012": 0.700213865693,
			"-0.011": 1.20472188188,
			"-0.01": 1.81696938996,
			"-0.009": 1.3237373201,
			"-0.008": 3.414563072,
			"-0.007": 2.61569348898,
			"-0.006": 2.89751848919,
			"-0.005": 3.4922350226,
			"-0.004": 2.56766305417,
			"-0.003": 3.03422326626,
			"-0.002": 6.47635210894,
			"-0.001": 14.7911120451,
			"0.0": 15.8917662763,
			"0.001": 15.3716805897,
			"0.002": 17.0013998163,
			"0.003": 28.7005046515,
			"0.004": 18.3921654289,
			"0.005": 1.11006143994,
			"0.006": 1.41529651326,
			"0.007": 1.39562611216,
			"0.008": 1.31917954938,
			"0.009": 1.47728315553,
			"0.01": 1.84958391235,
			"0.011": 0.923570654888,
			"0.012": 0.0,
			"0.013": 0.0,
			"0.014": 0.0,
			"0.015": 0.0,
			"0.016": 0.0,
			"0.017": 0.0,
			"0.018": 0.0,
			"0.019": 0.0,
			"0.02": 0.0,
			"0.021": 0.0,
			"0.022": 0.0,
			"0.023": 0.0,
			"0.024": 0.0,
			"0.025": 0.0
		}
	}
}
