{
	 "smiles": "BrC1=CN=CC(=C1)C#N", 
	 "Tm": 378.15, 
	 "num_atms": 12, 
	 "gaussian": { 
		 "optdone": 1, 
		 "sigma_profile": "yes", 
		 "theory": "DFT", 
		 "functional": "B3LYP", 
		 "basiset": "6-31G**", 
		 "properties": { 
			 "R2extent": 2556.6291, 
			 "electric_dipole_moment_norm": 2.55959052585, 
			 "electric_quadrupole_moment_norm": 12.2792993253, 
			 "total_energy": -2911.32210958, 
			 "HOMO_LUMO_gap": 0.1975, 
			 "cosmo_polarized_energy": -8.83, 
			 "cosmo_cavitation_energy": 20.44, 
			 "cosmo_dispersion_energy": -14.99, 
			 "cosmo_repulsion_energy": 1.23, 
			 "cosmo_total_nonelectrostatic_energy": 6.68, 
			 "SMD_solvation_energy": 2.54 
		},
		"coords": [
			{
				"x": -0.9705513656,
				"y": -2.3898543621,
				"z": -1.6117381767,
				"element": "Br" 
			},
			{
				"x": -0.8788990821,
				"y": -0.8782422657,
				"z": -0.4628002494,
				"element": "C" 
			},
			{
				"x": 0.2116086733,
				"y": -0.7234484798,
				"z": 0.3988482008,
				"element": "C" 
			},
			{
				"x": 0.3312510563,
				"y": 0.3170034082,
				"z": 1.2289732587,
				"element": "N" 
			},
			{
				"x": -0.6300676684,
				"y": 1.2405301182,
				"z": 1.2312087001,
				"element": "C" 
			},
			{
				"x": -1.7616763777,
				"y": 1.167637349,
				"z": 0.40001283,
				"element": "C" 
			},
			{
				"x": -1.8885715536,
				"y": 0.0757423643,
				"z": -0.4720666418,
				"element": "C" 
			},
			{
				"x": -2.76365477,
				"y": 2.1904677249,
				"z": 0.4456627288,
				"element": "C" 
			},
			{
				"x": -3.5727011009,
				"y": 3.0246063004,
				"z": 0.4885165496,
				"element": "N" 
			},
			{
				"x": 1.0073005071,
				"y": -1.463401888,
				"z": 0.4145939028,
				"element": "H" 
			},
			{
				"x": -0.5099656497,
				"y": 2.0768148969,
				"z": 1.9150060608,
				"element": "H" 
			},
			{
				"x": -2.7459726686,
				"y": -0.0162551664,
				"z": -1.1282171638,
				"element": "H" 
			}
		],
		 "valence_orbital": [ 
			{
				"type": "occ",
				"energy": -0.35455,
				"method": "rhf"
			},
			{
				"type": "occ",
				"energy": -0.31703,
				"method": "rhf"
			},
			{
				"type": "occ",
				"energy": -0.30626,
				"method": "rhf"
			},
			{
				"type": "occ",
				"energy": -0.29005,
				"method": "rhf"
			},
			{
				"type": "occ",
				"energy": -0.27731,
				"method": "rhf"
			},
			{
				"type": "unocc",
				"energy": -0.07981,
				"method": "rhf"
			},
			{
				"type": "unocc",
				"energy": -0.05941,
				"method": "rhf"
			},
			{
				"type": "unocc",
				"energy": -0.02085,
				"method": "rhf"
			},
			{
				"type": "unocc",
				"energy": 0.0184,
				"method": "rhf"
			},
			{
				"type": "unocc",
				"energy": 0.04894,
				"method": "rhf"
			}
		],
		"cosmo_sigma_profile": { 
			"-0.025": 0.0,
			"-0.024": 0.0,
			"-0.023": 0.0,
			"-0.022": 0.0,
			"-0.021": 0.0,
			"-0.02": 0.0,
			"-0.019": 0.0,
			"-0.018": 0.0,
			"-0.017": 0.0,
			"-0.016": 0.0,
			"-0.015": 0.0,
			"-0.014": 0.0,
			"-0.013": 0.0,
			"-0.012": 0.0,
			"-0.011": 0.284630094704,
			"-0.01": 2.16996762517,
			"-0.009": 4.80861741124,
			"-0.008": 6.18815664677,
			"-0.007": 5.34017663553,
			"-0.006": 6.19191042389,
			"-0.005": 7.9150269251,
			"-0.004": 9.82034887558,
			"-0.003": 16.4989611005,
			"-0.002": 19.5812460934,
			"-0.001": 11.7921122116,
			"0.0": 8.66541352672,
			"0.001": 9.1123827298,
			"0.002": 9.79461057363,
			"0.003": 13.4009005136,
			"0.004": 6.8713576799,
			"0.005": 4.84122250122,
			"0.006": 2.33386214391,
			"0.007": 3.91352305045,
			"0.008": 4.74848547225,
			"0.009": 4.46883526963,
			"0.01": 3.49257561352,
			"0.011": 3.07847397713,
			"0.012": 3.0852380142,
			"0.013": 0.893382386497,
			"0.014": 0.728037944668,
			"0.015": 0.0120299303856,
			"0.016": 0.0,
			"0.017": 0.0,
			"0.018": 0.0,
			"0.019": 0.0,
			"0.02": 0.0,
			"0.021": 0.0,
			"0.022": 0.0,
			"0.023": 0.0,
			"0.024": 0.0,
			"0.025": 0.0
		}
	}
}
