{
	 "smiles": "CC1=C(C(NC(=O)N1)C1=CC2=C(OCO2)C=C1)C(=O)OCC1=CC=CC=C1", 
	 "Tm": 432.15, 
	 "num_atms": 45, 
	 "gaussian": { 
		 "optdone": 1, 
		 "sigma_profile": "yes", 
		 "theory": "DFT", 
		 "functional": "B3LYP", 
		 "basiset": "6-31G**", 
		 "properties": { 
			 "R2extent": 11838.9986, 
			 "electric_dipole_moment_norm": 2.21684428411, 
			 "electric_quadrupole_moment_norm": 24.7781298871, 
			 "total_energy": -1258.60824306, 
			 "HOMO_LUMO_gap": 0.16751, 
			 "cosmo_polarized_energy": -20.71, 
			 "cosmo_cavitation_energy": 49.09, 
			 "cosmo_dispersion_energy": -33.82, 
			 "cosmo_repulsion_energy": 2.58, 
			 "cosmo_total_nonelectrostatic_energy": 17.86, 
			 "SMD_solvation_energy": 9.79 
		},
		"coords": [
			{
				"x": 0.2360880208,
				"y": -3.5313092317,
				"z": -1.0589656407,
				"element": "C" 
			},
			{
				"x": -0.1633040144,
				"y": -2.0880720233,
				"z": -1.1973473125,
				"element": "C" 
			},
			{
				"x": 0.2522322365,
				"y": -1.0351276249,
				"z": -0.4359013534,
				"element": "C" 
			},
			{
				"x": -0.305582785,
				"y": 0.3603786919,
				"z": -0.69717902,
				"element": "C" 
			},
			{
				"x": -0.8358355908,
				"y": 0.4323192767,
				"z": -2.0693597986,
				"element": "N" 
			},
			{
				"x": -1.3825434672,
				"y": -0.6089119481,
				"z": -2.7599998098,
				"element": "C" 
			},
			{
				"x": -2.0607162275,
				"y": -0.5036216783,
				"z": -3.7710328636,
				"element": "O" 
			},
			{
				"x": -1.0546734273,
				"y": -1.8646818773,
				"z": -2.2326521646,
				"element": "N" 
			},
			{
				"x": -1.3447101459,
				"y": 0.8117566123,
				"z": 0.3351680039,
				"element": "C" 
			},
			{
				"x": -1.2029265528,
				"y": 2.0810544131,
				"z": 0.9338124946,
				"element": "C" 
			},
			{
				"x": -2.1826233851,
				"y": 2.4811238095,
				"z": 1.8204640999,
				"element": "C" 
			},
			{
				"x": -3.2755398567,
				"y": 1.6744820829,
				"z": 2.1245985813,
				"element": "C" 
			},
			{
				"x": -4.0739703344,
				"y": 2.3044483373,
				"z": 3.0491059993,
				"element": "O" 
			},
			{
				"x": -3.5270197654,
				"y": 3.6197313834,
				"z": 3.1995490974,
				"element": "C" 
			},
			{
				"x": -2.253303409,
				"y": 3.6484738449,
				"z": 2.5444420996,
				"element": "O" 
			},
			{
				"x": -3.4358996031,
				"y": 0.4256877786,
				"z": 1.5554092641,
				"element": "C" 
			},
			{
				"x": -2.4454078955,
				"y": 0.0078785034,
				"z": 0.6503914099,
				"element": "C" 
			},
			{
				"x": 1.2179728005,
				"y": -1.186782589,
				"z": 0.6665945472,
				"element": "C" 
			},
			{
				"x": 1.7227821255,
				"y": -2.2236953954,
				"z": 1.075035806,
				"element": "O" 
			},
			{
				"x": 1.5056838396,
				"y": 0.0231741676,
				"z": 1.2180998879,
				"element": "O" 
			},
			{
				"x": 2.4276039111,
				"y": 0.0365779993,
				"z": 2.3398517987,
				"element": "C" 
			},
			{
				"x": 3.8457642201,
				"y": 0.3032194495,
				"z": 1.8974667393,
				"element": "C" 
			},
			{
				"x": 4.3630812024,
				"y": 1.6039385762,
				"z": 1.9252718419,
				"element": "C" 
			},
			{
				"x": 5.671444726,
				"y": 1.858840721,
				"z": 1.5113320435,
				"element": "C" 
			},
			{
				"x": 6.4765901904,
				"y": 0.8106447078,
				"z": 1.062696591,
				"element": "C" 
			},
			{
				"x": 5.9688873066,
				"y": -0.4906097548,
				"z": 1.0310131595,
				"element": "C" 
			},
			{
				"x": 4.6619101053,
				"y": -0.7443799877,
				"z": 1.4465116876,
				"element": "C" 
			},
			{
				"x": 0.7666937978,
				"y": -3.8549059527,
				"z": -1.9628425509,
				"element": "H" 
			},
			{
				"x": 0.8739064635,
				"y": -3.683060624,
				"z": -0.1937247573,
				"element": "H" 
			},
			{
				"x": -0.6628269961,
				"y": -4.1529815178,
				"z": -0.9667487257,
				"element": "H" 
			},
			{
				"x": 0.5248663797,
				"y": 1.0696116016,
				"z": -0.6472079977,
				"element": "H" 
			},
			{
				"x": -1.1639239684,
				"y": 1.3337788618,
				"z": -2.3877974542,
				"element": "H" 
			},
			{
				"x": -1.3488506463,
				"y": -2.6371382259,
				"z": -2.8130132357,
				"element": "H" 
			},
			{
				"x": -0.3499936741,
				"y": 2.7155571438,
				"z": 0.7162763854,
				"element": "H" 
			},
			{
				"x": -3.3950307692,
				"y": 3.8402149857,
				"z": 4.2633547807,
				"element": "H" 
			},
			{
				"x": -4.1985630523,
				"y": 4.352553322,
				"z": 2.7292346099,
				"element": "H" 
			},
			{
				"x": -4.2859991892,
				"y": -0.200798152,
				"z": 1.8007409064,
				"element": "H" 
			},
			{
				"x": -2.5418489155,
				"y": -0.9685097769,
				"z": 0.1862606417,
				"element": "H" 
			},
			{
				"x": 2.0610525093,
				"y": 0.8419168295,
				"z": 2.9802337182,
				"element": "H" 
			},
			{
				"x": 2.3468950776,
				"y": -0.9172109667,
				"z": 2.8638046299,
				"element": "H" 
			},
			{
				"x": 3.7379559914,
				"y": 2.4212683828,
				"z": 2.2772335354,
				"element": "H" 
			},
			{
				"x": 6.0615131296,
				"y": 2.8722992343,
				"z": 1.5413080192,
				"element": "H" 
			},
			{
				"x": 7.4959952717,
				"y": 1.0058572015,
				"z": 0.7418848575,
				"element": "H" 
			},
			{
				"x": 6.593711996,
				"y": -1.3094309535,
				"z": 0.6854432635,
				"element": "H" 
			},
			{
				"x": 4.25876237,
				"y": -1.7519596385,
				"z": 1.4180821841,
				"element": "H" 
			}
		],
		 "valence_orbital": [ 
			{
				"type": "occ",
				"energy": -0.25095,
				"method": "rhf"
			},
			{
				"type": "occ",
				"energy": -0.24933,
				"method": "rhf"
			},
			{
				"type": "occ",
				"energy": -0.24734,
				"method": "rhf"
			},
			{
				"type": "occ",
				"energy": -0.22835,
				"method": "rhf"
			},
			{
				"type": "occ",
				"energy": -0.20732,
				"method": "rhf"
			},
			{
				"type": "unocc",
				"energy": -0.03981,
				"method": "rhf"
			},
			{
				"type": "unocc",
				"energy": -0.00982,
				"method": "rhf"
			},
			{
				"type": "unocc",
				"energy": -0.00229,
				"method": "rhf"
			},
			{
				"type": "unocc",
				"energy": -0.00194,
				"method": "rhf"
			},
			{
				"type": "unocc",
				"energy": 0.00291,
				"method": "rhf"
			}
		],
		"cosmo_sigma_profile": { 
			"-0.025": 0.0,
			"-0.024": 0.0,
			"-0.023": 0.0,
			"-0.022": 0.0,
			"-0.021": 0.0,
			"-0.02": 0.0,
			"-0.019": 0.0,
			"-0.018": 0.0,
			"-0.017": 0.0,
			"-0.016": 0.023068701765,
			"-0.015": 0.863933843578,
			"-0.014": 1.84704550789,
			"-0.013": 1.78857864538,
			"-0.012": 1.82230153427,
			"-0.011": 2.2564429239,
			"-0.01": 2.41534592259,
			"-0.009": 1.9131904284,
			"-0.008": 4.58231750052,
			"-0.007": 14.2016609078,
			"-0.006": 24.3582127211,
			"-0.005": 26.6584292076,
			"-0.004": 27.4454324548,
			"-0.003": 28.1851703745,
			"-0.002": 24.151179591,
			"-0.001": 28.2554775148,
			"0.0": 23.9951966336,
			"0.001": 25.4728002092,
			"0.002": 27.4864600484,
			"0.003": 27.8533813537,
			"0.004": 22.8874455428,
			"0.005": 22.489540072,
			"0.006": 12.6745873502,
			"0.007": 4.81465276991,
			"0.008": 6.05739259427,
			"0.009": 5.52206966714,
			"0.01": 5.44922659686,
			"0.011": 2.75666358261,
			"0.012": 3.31722750253,
			"0.013": 5.13077852185,
			"0.014": 4.71984771619,
			"0.015": 0.161621757802,
			"0.016": 0.0,
			"0.017": 0.0,
			"0.018": 0.0,
			"0.019": 0.0,
			"0.02": 0.0,
			"0.021": 0.0,
			"0.022": 0.0,
			"0.023": 0.0,
			"0.024": 0.0,
			"0.025": 0.0
		}
	}
}
