{
	 "smiles": "CC1=NNC=C1Br", 
	 "Tm": 348.95, 
	 "num_atms": 12, 
	 "gaussian": { 
		 "optdone": 1, 
		 "sigma_profile": "yes", 
		 "theory": "DFT", 
		 "functional": "B3LYP", 
		 "basiset": "6-31G**", 
		 "properties": { 
			 "R2extent": 1899.9631, 
			 "electric_dipole_moment_norm": 2.08219518297, 
			 "electric_quadrupole_moment_norm": 11.3819816833, 
			 "total_energy": -2836.32366334, 
			 "HOMO_LUMO_gap": 0.2467, 
			 "cosmo_polarized_energy": -8.77, 
			 "cosmo_cavitation_energy": 18.29, 
			 "cosmo_dispersion_energy": -14.19, 
			 "cosmo_repulsion_energy": 1.21, 
			 "cosmo_total_nonelectrostatic_energy": 5.31, 
			 "SMD_solvation_energy": 1.61 
		},
		"coords": [
			{
				"x": 0.52373334,
				"y": 1.6717507903,
				"z": -0.2253616044,
				"element": "C" 
			},
			{
				"x": 0.2413519079,
				"y": 0.3072918494,
				"z": 0.3160098037,
				"element": "C" 
			},
			{
				"x": 0.5638526334,
				"y": -0.7932579275,
				"z": -0.3658140626,
				"element": "N" 
			},
			{
				"x": 0.1672237835,
				"y": -1.8228130476,
				"z": 0.4154197921,
				"element": "N" 
			},
			{
				"x": -0.4014874858,
				"y": -1.4261447518,
				"z": 1.5811728014,
				"element": "C" 
			},
			{
				"x": -0.3683212325,
				"y": -0.0474708723,
				"z": 1.5468544902,
				"element": "C" 
			},
			{
				"x": -1.0085030871,
				"y": 1.1260906621,
				"z": 2.8758560458,
				"element": "Br" 
			},
			{
				"x": -0.3979042133,
				"y": 2.253282046,
				"z": -0.3349583759,
				"element": "H" 
			},
			{
				"x": 1.0032570747,
				"y": 1.586947528,
				"z": -1.2024110706,
				"element": "H" 
			},
			{
				"x": 1.1840525868,
				"y": 2.2345729785,
				"z": 0.4430780417,
				"element": "H" 
			},
			{
				"x": 0.3152097331,
				"y": -2.7656688111,
				"z": 0.0918230766,
				"element": "H" 
			},
			{
				"x": -0.7744650407,
				"y": -2.1156804441,
				"z": 2.322731062,
				"element": "H" 
			}
		],
		 "valence_orbital": [ 
			{
				"type": "occ",
				"energy": -0.32364,
				"method": "rhf"
			},
			{
				"type": "occ",
				"energy": -0.30572,
				"method": "rhf"
			},
			{
				"type": "occ",
				"energy": -0.27853,
				"method": "rhf"
			},
			{
				"type": "occ",
				"energy": -0.25519,
				"method": "rhf"
			},
			{
				"type": "occ",
				"energy": -0.23415,
				"method": "rhf"
			},
			{
				"type": "unocc",
				"energy": 0.01255,
				"method": "rhf"
			},
			{
				"type": "unocc",
				"energy": 0.01766,
				"method": "rhf"
			},
			{
				"type": "unocc",
				"energy": 0.0588,
				"method": "rhf"
			},
			{
				"type": "unocc",
				"energy": 0.0835,
				"method": "rhf"
			},
			{
				"type": "unocc",
				"energy": 0.12571,
				"method": "rhf"
			}
		],
		"cosmo_sigma_profile": { 
			"-0.025": 0.0,
			"-0.024": 0.0,
			"-0.023": 0.0,
			"-0.022": 0.0,
			"-0.021": 0.0,
			"-0.02": 0.0,
			"-0.019": 0.0,
			"-0.018": 0.017911053516,
			"-0.017": 1.11681672768,
			"-0.016": 1.82566616373,
			"-0.015": 0.943233264762,
			"-0.014": 1.29500717926,
			"-0.013": 0.855596496681,
			"-0.012": 0.881904026283,
			"-0.011": 1.03309266202,
			"-0.01": 2.70128889668,
			"-0.009": 3.2282453315,
			"-0.008": 1.72646581165,
			"-0.007": 2.69024784335,
			"-0.006": 1.34893627755,
			"-0.005": 4.03232397146,
			"-0.004": 8.89298713446,
			"-0.003": 7.72016383603,
			"-0.002": 9.45452069827,
			"-0.001": 12.3174745892,
			"0.0": 12.2255825901,
			"0.001": 9.97280779698,
			"0.002": 10.6840205777,
			"0.003": 16.3037865093,
			"0.004": 16.5875375995,
			"0.005": 8.71139430274,
			"0.006": 1.60585642778,
			"0.007": 1.85306289724,
			"0.008": 1.12747898545,
			"0.009": 1.21310209993,
			"0.01": 0.967288856486,
			"0.011": 1.03407834084,
			"0.012": 1.41907714602,
			"0.013": 1.15787129925,
			"0.014": 1.00311298699,
			"0.015": 0.726475367641,
			"0.016": 0.510430437955,
			"0.017": 0.0,
			"0.018": 0.0,
			"0.019": 0.0,
			"0.02": 0.0,
			"0.021": 0.0,
			"0.022": 0.0,
			"0.023": 0.0,
			"0.024": 0.0,
			"0.025": 0.0
		}
	}
}
