{
	 "smiles": "COC1=C(N)C=C(C=C1)C(=O)NC1=NC=C(C)S1", 
	 "Tm": 499.15, 
	 "num_atms": 31, 
	 "gaussian": { 
		 "optdone": 1, 
		 "sigma_profile": "yes", 
		 "theory": "DFT", 
		 "functional": "B3LYP", 
		 "basiset": "6-31G**", 
		 "properties": { 
			 "R2extent": 6123.6452, 
			 "electric_dipole_moment_norm": 5.8962706137, 
			 "electric_quadrupole_moment_norm": 5.4984619695, 
			 "total_energy": -1177.99920425, 
			 "HOMO_LUMO_gap": 0.15856, 
			 "cosmo_polarized_energy": -17.27, 
			 "cosmo_cavitation_energy": 36.88, 
			 "cosmo_dispersion_energy": -26.78, 
			 "cosmo_repulsion_energy": 2.07, 
			 "cosmo_total_nonelectrostatic_energy": 12.17, 
			 "SMD_solvation_energy": 5.87 
		},
		"coords": [
			{
				"x": -2.0103798996,
				"y": 2.7961771924,
				"z": -3.2021166602,
				"element": "C" 
			},
			{
				"x": -1.8603891056,
				"y": 2.879005148,
				"z": -1.7928376753,
				"element": "O" 
			},
			{
				"x": -1.4832404464,
				"y": 1.7541975938,
				"z": -1.11199789,
				"element": "C" 
			},
			{
				"x": -1.3614258207,
				"y": 1.9363999582,
				"z": 0.2912658641,
				"element": "C" 
			},
			{
				"x": -1.692538165,
				"y": 3.1682961864,
				"z": 0.84304395,
				"element": "N" 
			},
			{
				"x": -0.9715240797,
				"y": 0.8460999239,
				"z": 1.0654399209,
				"element": "C" 
			},
			{
				"x": -0.678266708,
				"y": -0.3959856476,
				"z": 0.4792912617,
				"element": "C" 
			},
			{
				"x": -0.8205198819,
				"y": -0.5632880923,
				"z": -0.9009589656,
				"element": "C" 
			},
			{
				"x": -1.2268464021,
				"y": 0.5145341014,
				"z": -1.6929039411,
				"element": "C" 
			},
			{
				"x": -0.3623241586,
				"y": -1.5307896238,
				"z": 1.3888902235,
				"element": "C" 
			},
			{
				"x": -0.8834488185,
				"y": -1.6537732923,
				"z": 2.4889862014,
				"element": "O" 
			},
			{
				"x": 0.5089836191,
				"y": -2.5345078871,
				"z": 0.9467690076,
				"element": "N" 
			},
			{
				"x": 1.6580553156,
				"y": -2.5043078416,
				"z": 0.1631711812,
				"element": "C" 
			},
			{
				"x": 2.3591068804,
				"y": -3.589102276,
				"z": -0.0074783291,
				"element": "N" 
			},
			{
				"x": 3.5012894201,
				"y": -3.3212360311,
				"z": -0.7297007819,
				"element": "C" 
			},
			{
				"x": 3.7076245519,
				"y": -2.0333780983,
				"z": -1.1216743372,
				"element": "C" 
			},
			{
				"x": 4.8284390011,
				"y": -1.457411066,
				"z": -1.9296411789,
				"element": "C" 
			},
			{
				"x": 2.3627708117,
				"y": -1.0509769459,
				"z": -0.551961699,
				"element": "S" 
			},
			{
				"x": -2.7887691107,
				"y": 2.0749139315,
				"z": -3.4799295525,
				"element": "H" 
			},
			{
				"x": -1.0686614942,
				"y": 2.5162491032,
				"z": -3.6909086999,
				"element": "H" 
			},
			{
				"x": -2.3076282824,
				"y": 3.7919867657,
				"z": -3.5340289435,
				"element": "H" 
			},
			{
				"x": -1.2686472061,
				"y": 3.3726543394,
				"z": 1.736221157,
				"element": "H" 
			},
			{
				"x": -1.6638415199,
				"y": 3.9410479352,
				"z": 0.1934389663,
				"element": "H" 
			},
			{
				"x": -0.9017112707,
				"y": 0.9440895746,
				"z": 2.1444187121,
				"element": "H" 
			},
			{
				"x": -0.6413743526,
				"y": -1.5286600647,
				"z": -1.3603834193,
				"element": "H" 
			},
			{
				"x": -1.3413530378,
				"y": 0.3762897946,
				"z": -2.7614044718,
				"element": "H" 
			},
			{
				"x": 0.4964053749,
				"y": -3.3419514839,
				"z": 1.5617860377,
				"element": "H" 
			},
			{
				"x": 4.1766480335,
				"y": -4.1390525961,
				"z": -0.9578334816,
				"element": "H" 
			},
			{
				"x": 5.541035912,
				"y": -2.2489603047,
				"z": -2.1791550081,
				"element": "H" 
			},
			{
				"x": 4.4752571011,
				"y": -1.016744726,
				"z": -2.8693118038,
				"element": "H" 
			},
			{
				"x": 5.372673739,
				"y": -0.6773155707,
				"z": -1.3848956446,
				"element": "H" 
			}
		],
		 "valence_orbital": [ 
			{
				"type": "occ",
				"energy": -0.27278,
				"method": "rhf"
			},
			{
				"type": "occ",
				"energy": -0.26027,
				"method": "rhf"
			},
			{
				"type": "occ",
				"energy": -0.23702,
				"method": "rhf"
			},
			{
				"type": "occ",
				"energy": -0.21193,
				"method": "rhf"
			},
			{
				"type": "occ",
				"energy": -0.1988,
				"method": "rhf"
			},
			{
				"type": "unocc",
				"energy": -0.04024,
				"method": "rhf"
			},
			{
				"type": "unocc",
				"energy": -0.00351,
				"method": "rhf"
			},
			{
				"type": "unocc",
				"energy": 0.0071,
				"method": "rhf"
			},
			{
				"type": "unocc",
				"energy": 0.0248,
				"method": "rhf"
			},
			{
				"type": "unocc",
				"energy": 0.05405,
				"method": "rhf"
			}
		],
		"cosmo_sigma_profile": { 
			"-0.025": 0.0,
			"-0.024": 0.0,
			"-0.023": 0.0,
			"-0.022": 0.0,
			"-0.021": 0.0,
			"-0.02": 0.0,
			"-0.019": 0.0,
			"-0.018": 0.0,
			"-0.017": 0.0,
			"-0.016": 0.0,
			"-0.015": 0.0746116212338,
			"-0.014": 0.586260760729,
			"-0.013": 1.4587005522,
			"-0.012": 2.21149334593,
			"-0.011": 2.83541702939,
			"-0.01": 2.55093644111,
			"-0.009": 3.34375112767,
			"-0.008": 3.07911554226,
			"-0.007": 6.13026571937,
			"-0.006": 14.6348391739,
			"-0.005": 23.8527916151,
			"-0.004": 24.8205307376,
			"-0.003": 24.1319160851,
			"-0.002": 19.3484102962,
			"-0.001": 19.912841909,
			"0.0": 17.9828429257,
			"0.001": 14.6660520856,
			"0.002": 19.6923398804,
			"0.003": 21.0815561297,
			"0.004": 21.9560056375,
			"0.005": 12.3416067032,
			"0.006": 5.82177783082,
			"0.007": 4.04861030338,
			"0.008": 3.73853344334,
			"0.009": 4.01775075552,
			"0.01": 3.81577970102,
			"0.011": 3.6131381233,
			"0.012": 6.1066324919,
			"0.013": 5.48482159025,
			"0.014": 1.17854915169,
			"0.015": 0.506702338974,
			"0.016": 0.0170651439619,
			"0.017": 0.0,
			"0.018": 0.0,
			"0.019": 0.0,
			"0.02": 0.0,
			"0.021": 0.0,
			"0.022": 0.0,
			"0.023": 0.0,
			"0.024": 0.0,
			"0.025": 0.0
		}
	}
}
