{
	 "smiles": "COC1=CC=C(C=C1)C1(CCCC1)C(O)=O", 
	 "Tm": 427.15, 
	 "num_atms": 32, 
	 "gaussian": { 
		 "optdone": 1, 
		 "sigma_profile": "yes", 
		 "theory": "DFT", 
		 "functional": "B3LYP", 
		 "basiset": "6-31G**", 
		 "properties": { 
			 "R2extent": 4548.8506, 
			 "electric_dipole_moment_norm": 4.50215754278, 
			 "electric_quadrupole_moment_norm": 20.3448955844, 
			 "total_energy": -730.701262615, 
			 "HOMO_LUMO_gap": 0.20649, 
			 "cosmo_polarized_energy": -13.28, 
			 "cosmo_cavitation_energy": 33.31, 
			 "cosmo_dispersion_energy": -24.0, 
			 "cosmo_repulsion_energy": 1.86, 
			 "cosmo_total_nonelectrostatic_energy": 11.17, 
			 "SMD_solvation_energy": 6.75 
		},
		"coords": [
			{
				"x": 3.7203719459,
				"y": 4.4035858855,
				"z": -1.0838651918,
				"element": "C" 
			},
			{
				"x": 3.3588473953,
				"y": 3.6703789543,
				"z": 0.0771652553,
				"element": "O" 
			},
			{
				"x": 2.4046340127,
				"y": 2.7047231348,
				"z": -0.0386508736,
				"element": "C" 
			},
			{
				"x": 1.7448037979,
				"y": 2.3706259788,
				"z": -1.2291398401,
				"element": "C" 
			},
			{
				"x": 0.7819849186,
				"y": 1.361539801,
				"z": -1.2263291522,
				"element": "C" 
			},
			{
				"x": 0.4506250173,
				"y": 0.6527822577,
				"z": -0.0620525873,
				"element": "C" 
			},
			{
				"x": 1.1221573583,
				"y": 1.0091677707,
				"z": 1.121539706,
				"element": "C" 
			},
			{
				"x": 2.0830249557,
				"y": 2.016155498,
				"z": 1.1378177045,
				"element": "C" 
			},
			{
				"x": -0.6318403454,
				"y": -0.4249329256,
				"z": -0.1055204658,
				"element": "C" 
			},
			{
				"x": -0.4528628449,
				"y": -1.4432931945,
				"z": -1.265976835,
				"element": "C" 
			},
			{
				"x": -1.1498083423,
				"y": -2.7568457863,
				"z": -0.8202676828,
				"element": "C" 
			},
			{
				"x": -1.4967320052,
				"y": -2.5759097947,
				"z": 0.6809998348,
				"element": "C" 
			},
			{
				"x": -0.6722931601,
				"y": -1.361868636,
				"z": 1.1392106271,
				"element": "C" 
			},
			{
				"x": -2.0258806538,
				"y": 0.2379698812,
				"z": -0.2181257675,
				"element": "C" 
			},
			{
				"x": -2.2276163935,
				"y": 1.3228634327,
				"z": 0.5702821837,
				"element": "O" 
			},
			{
				"x": -2.9245749604,
				"y": -0.1839147814,
				"z": -0.9071379533,
				"element": "O" 
			},
			{
				"x": 2.8665543491,
				"y": 4.9565877231,
				"z": -1.4956944254,
				"element": "H" 
			},
			{
				"x": 4.1346799764,
				"y": 3.7504691939,
				"z": -1.8624973258,
				"element": "H" 
			},
			{
				"x": 4.4863336307,
				"y": 5.1120438073,
				"z": -0.7654514324,
				"element": "H" 
			},
			{
				"x": 1.9685986028,
				"y": 2.8865124947,
				"z": -2.1553299261,
				"element": "H" 
			},
			{
				"x": 0.277906929,
				"y": 1.1235826085,
				"z": -2.1587455117,
				"element": "H" 
			},
			{
				"x": 0.9055342237,
				"y": 0.4875739691,
				"z": 2.0485526069,
				"element": "H" 
			},
			{
				"x": 2.6014893501,
				"y": 2.2822433365,
				"z": 2.0531546905,
				"element": "H" 
			},
			{
				"x": 0.6196027426,
				"y": -1.6053949579,
				"z": -1.4128521102,
				"element": "H" 
			},
			{
				"x": -0.8650301421,
				"y": -1.0597937332,
				"z": -2.2016349681,
				"element": "H" 
			},
			{
				"x": -2.053389468,
				"y": -2.9392803814,
				"z": -1.4055929926,
				"element": "H" 
			},
			{
				"x": -0.4838510349,
				"y": -3.6120983343,
				"z": -0.9733355457,
				"element": "H" 
			},
			{
				"x": -2.563943069,
				"y": -2.3650688137,
				"z": 0.7950119099,
				"element": "H" 
			},
			{
				"x": -1.2762114243,
				"y": -3.4649839551,
				"z": 1.2793353893,
				"element": "H" 
			},
			{
				"x": 0.3563431593,
				"y": -1.6641557174,
				"z": 1.3696862324,
				"element": "H" 
			},
			{
				"x": -1.0828347099,
				"y": -0.8784134864,
				"z": 2.0320847526,
				"element": "H" 
			},
			{
				"x": -1.3810238116,
				"y": 1.59534877,
				"z": 0.9599596944,
				"element": "H" 
			}
		],
		 "valence_orbital": [ 
			{
				"type": "occ",
				"energy": -0.31446,
				"method": "rhf"
			},
			{
				"type": "occ",
				"energy": -0.30481,
				"method": "rhf"
			},
			{
				"type": "occ",
				"energy": -0.26479,
				"method": "rhf"
			},
			{
				"type": "occ",
				"energy": -0.26227,
				"method": "rhf"
			},
			{
				"type": "occ",
				"energy": -0.22542,
				"method": "rhf"
			},
			{
				"type": "unocc",
				"energy": -0.01893,
				"method": "rhf"
			},
			{
				"type": "unocc",
				"energy": -0.00459,
				"method": "rhf"
			},
			{
				"type": "unocc",
				"energy": 0.0197,
				"method": "rhf"
			},
			{
				"type": "unocc",
				"energy": 0.0758,
				"method": "rhf"
			},
			{
				"type": "unocc",
				"energy": 0.0873,
				"method": "rhf"
			}
		],
		"cosmo_sigma_profile": { 
			"-0.025": 0.0,
			"-0.024": 0.0,
			"-0.023": 0.0,
			"-0.022": 0.0,
			"-0.021": 0.0,
			"-0.02": 0.0,
			"-0.019": 0.0,
			"-0.018": 0.0,
			"-0.017": 0.0,
			"-0.016": 0.0,
			"-0.015": 0.0,
			"-0.014": 0.256714313285,
			"-0.013": 0.644776155247,
			"-0.012": 0.596403367179,
			"-0.011": 1.42806355424,
			"-0.01": 1.21887309163,
			"-0.009": 1.04401418712,
			"-0.008": 0.973527890668,
			"-0.007": 1.77402185875,
			"-0.006": 13.005968925,
			"-0.005": 19.8762369768,
			"-0.004": 20.8728268911,
			"-0.003": 27.8798905572,
			"-0.002": 25.8326826543,
			"-0.001": 25.9216564627,
			"0.0": 23.0032703399,
			"0.001": 18.811863508,
			"0.002": 11.0049181463,
			"0.003": 11.8608249555,
			"0.004": 11.2257382712,
			"0.005": 8.2010918724,
			"0.006": 5.30762563818,
			"0.007": 4.00551741659,
			"0.008": 4.16282850638,
			"0.009": 4.57802598238,
			"0.01": 5.78219918794,
			"0.011": 4.88271250438,
			"0.012": 5.07956361381,
			"0.013": 1.99623352094,
			"0.014": 0.16422300884,
			"0.015": 0.0,
			"0.016": 0.0,
			"0.017": 0.0,
			"0.018": 0.0,
			"0.019": 0.0,
			"0.02": 0.0,
			"0.021": 0.0,
			"0.022": 0.0,
			"0.023": 0.0,
			"0.024": 0.0,
			"0.025": 0.0
		}
	}
}
