{
	 "smiles": "OC(=O)CC1=C(F)C=C(F)C=C1", 
	 "Tm": 391.15, 
	 "num_atms": 18, 
	 "gaussian": { 
		 "optdone": 1, 
		 "sigma_profile": "yes", 
		 "theory": "DFT", 
		 "functional": "B3LYP", 
		 "basiset": "6-31G**", 
		 "properties": { 
			 "R2extent": 2697.9711, 
			 "electric_dipole_moment_norm": 2.32595397418, 
			 "electric_quadrupole_moment_norm": 7.8566224677, 
			 "total_energy": -658.599422707, 
			 "HOMO_LUMO_gap": 0.2298, 
			 "cosmo_polarized_energy": -10.88, 
			 "cosmo_cavitation_energy": 24.05, 
			 "cosmo_dispersion_energy": -17.05, 
			 "cosmo_repulsion_energy": 1.33, 
			 "cosmo_total_nonelectrostatic_energy": 8.34, 
			 "SMD_solvation_energy": 6.23 
		},
		"coords": [
			{
				"x": 3.258339352,
				"y": -2.1826347714,
				"z": -2.1087082036,
				"element": "O" 
			},
			{
				"x": 2.8086062838,
				"y": -1.4618450568,
				"z": -1.0521903734,
				"element": "C" 
			},
			{
				"x": 3.5445740572,
				"y": -0.863398289,
				"z": -0.303886781,
				"element": "O" 
			},
			{
				"x": 1.2900481169,
				"y": -1.534659492,
				"z": -0.967427963,
				"element": "C" 
			},
			{
				"x": 0.7122098215,
				"y": -0.742335245,
				"z": 0.1738629612,
				"element": "C" 
			},
			{
				"x": 0.7062551592,
				"y": 0.6535757918,
				"z": 0.1265016478,
				"element": "C" 
			},
			{
				"x": 1.2186694135,
				"y": 1.2570505848,
				"z": -0.9665224929,
				"element": "F" 
			},
			{
				"x": 0.188503695,
				"y": 1.4479583167,
				"z": 1.1395823051,
				"element": "C" 
			},
			{
				"x": -0.3440889791,
				"y": 0.8001809255,
				"z": 2.2493655368,
				"element": "C" 
			},
			{
				"x": -0.8537570496,
				"y": 1.5472093753,
				"z": 3.2477918349,
				"element": "F" 
			},
			{
				"x": -0.3690377034,
				"y": -0.5851265537,
				"z": 2.3566518638,
				"element": "C" 
			},
			{
				"x": 0.1632413313,
				"y": -1.3417901404,
				"z": 1.3113726723,
				"element": "C" 
			},
			{
				"x": 4.2260885627,
				"y": -2.0927682207,
				"z": -2.104492962,
				"element": "H" 
			},
			{
				"x": 0.8990983875,
				"y": -1.1899930001,
				"z": -1.9317645164,
				"element": "H" 
			},
			{
				"x": 1.0125784321,
				"y": -2.591144637,
				"z": -0.8881986012,
				"element": "H" 
			},
			{
				"x": 0.2016575279,
				"y": 2.5284454052,
				"z": 1.0674423438,
				"element": "H" 
			},
			{
				"x": -0.7949585064,
				"y": -1.0493595546,
				"z": 3.2385431885,
				"element": "H" 
			},
			{
				"x": 0.1520720978,
				"y": -2.4258654388,
				"z": 1.3815775393,
				"element": "H" 
			}
		],
		 "valence_orbital": [ 
			{
				"type": "occ",
				"energy": -0.3528,
				"method": "rhf"
			},
			{
				"type": "occ",
				"energy": -0.32312,
				"method": "rhf"
			},
			{
				"type": "occ",
				"energy": -0.28115,
				"method": "rhf"
			},
			{
				"type": "occ",
				"energy": -0.26175,
				"method": "rhf"
			},
			{
				"type": "occ",
				"energy": -0.24522,
				"method": "rhf"
			},
			{
				"type": "unocc",
				"energy": -0.01542,
				"method": "rhf"
			},
			{
				"type": "unocc",
				"energy": -0.00504,
				"method": "rhf"
			},
			{
				"type": "unocc",
				"energy": 0.00753,
				"method": "rhf"
			},
			{
				"type": "unocc",
				"energy": 0.07255,
				"method": "rhf"
			},
			{
				"type": "unocc",
				"energy": 0.08223,
				"method": "rhf"
			}
		],
		"cosmo_sigma_profile": { 
			"-0.025": 0.0,
			"-0.024": 0.0,
			"-0.023": 0.0,
			"-0.022": 0.0,
			"-0.021": 0.0,
			"-0.02": 0.0,
			"-0.019": 0.0727254595632,
			"-0.018": 0.828183014539,
			"-0.017": 0.584236580686,
			"-0.016": 1.18100838231,
			"-0.015": 1.05497449634,
			"-0.014": 0.515632604142,
			"-0.013": 0.648869001447,
			"-0.012": 0.339929262991,
			"-0.011": 0.826163680669,
			"-0.01": 0.885738850856,
			"-0.009": 1.09393106234,
			"-0.008": 5.26611019732,
			"-0.007": 9.81738282719,
			"-0.006": 10.2503340473,
			"-0.005": 9.44568485088,
			"-0.004": 8.61666253004,
			"-0.003": 10.5157705967,
			"-0.002": 8.92205754877,
			"-0.001": 9.66355182298,
			"0.0": 13.779115717,
			"0.001": 16.9112633657,
			"0.002": 15.444833771,
			"0.003": 16.3604266248,
			"0.004": 20.4033875026,
			"0.005": 5.37245251487,
			"0.006": 2.5400423141,
			"0.007": 3.46358263904,
			"0.008": 3.44774491362,
			"0.009": 4.09150621156,
			"0.01": 2.48586313295,
			"0.011": 4.65509881431,
			"0.012": 2.84834125007,
			"0.013": 0.0138083502573,
			"0.014": 0.0,
			"0.015": 0.0,
			"0.016": 0.0,
			"0.017": 0.0,
			"0.018": 0.0,
			"0.019": 0.0,
			"0.02": 0.0,
			"0.021": 0.0,
			"0.022": 0.0,
			"0.023": 0.0,
			"0.024": 0.0,
			"0.025": 0.0
		}
	}
}
