{
	 "smiles": "COC1=CC(CC(O)=O)=CC=C1O", 
	 "Tm": 416.15, 
	 "num_atms": 23, 
	 "gaussian": { 
		 "optdone": 1, 
		 "sigma_profile": "yes", 
		 "theory": "DFT", 
		 "functional": "B3LYP", 
		 "basiset": "6-31G**", 
		 "properties": { 
			 "R2extent": 2815.6929, 
			 "electric_dipole_moment_norm": 3.83573952844, 
			 "electric_quadrupole_moment_norm": 8.91168822109, 
			 "total_energy": -649.881378893, 
			 "HOMO_LUMO_gap": 0.20139, 
			 "cosmo_polarized_energy": -13.69, 
			 "cosmo_cavitation_energy": 27.6, 
			 "cosmo_dispersion_energy": -19.82, 
			 "cosmo_repulsion_energy": 1.6, 
			 "cosmo_total_nonelectrostatic_energy": 9.38, 
			 "SMD_solvation_energy": 6.95 
		},
		"coords": [
			{
				"x": 1.3643446206,
				"y": 0.8440745588,
				"z": 3.0959387189,
				"element": "C" 
			},
			{
				"x": 0.30292654,
				"y": 1.5322995766,
				"z": 2.4521382006,
				"element": "O" 
			},
			{
				"x": 0.0466809289,
				"y": 1.2428339727,
				"z": 1.1326871294,
				"element": "C" 
			},
			{
				"x": 0.7460100405,
				"y": 0.3364750854,
				"z": 0.3447074748,
				"element": "C" 
			},
			{
				"x": 0.3788371679,
				"y": 0.139472296,
				"z": -0.9985712589,
				"element": "C" 
			},
			{
				"x": 1.1332595877,
				"y": -0.8620475516,
				"z": -1.8586817483,
				"element": "C" 
			},
			{
				"x": 0.6985607444,
				"y": -2.2898928043,
				"z": -1.5769828588,
				"element": "C" 
			},
			{
				"x": 1.2598738792,
				"y": -2.7688455351,
				"z": -0.4360574303,
				"element": "O" 
			},
			{
				"x": -0.0638896969,
				"y": -2.9454597142,
				"z": -2.2496304627,
				"element": "O" 
			},
			{
				"x": -0.6955576261,
				"y": 0.8597702641,
				"z": -1.5212380262,
				"element": "C" 
			},
			{
				"x": -1.3997635423,
				"y": 1.7734404668,
				"z": -0.7305134858,
				"element": "C" 
			},
			{
				"x": -1.0358564549,
				"y": 1.9717385163,
				"z": 0.5956050059,
				"element": "C" 
			},
			{
				"x": -1.7131273893,
				"y": 2.8615692311,
				"z": 1.3717595844,
				"element": "O" 
			},
			{
				"x": 1.1917665144,
				"y": -0.2392874228,
				"z": 3.1024245576,
				"element": "H" 
			},
			{
				"x": 1.38921177,
				"y": 1.2130065896,
				"z": 4.1223450693,
				"element": "H" 
			},
			{
				"x": 2.3267441473,
				"y": 1.0521316461,
				"z": 2.6118985261,
				"element": "H" 
			},
			{
				"x": 1.5701020222,
				"y": -0.2327644499,
				"z": 0.7591761192,
				"element": "H" 
			},
			{
				"x": 0.9415640893,
				"y": -0.6735383287,
				"z": -2.9164471617,
				"element": "H" 
			},
			{
				"x": 2.2109390373,
				"y": -0.7850286076,
				"z": -1.6791733487,
				"element": "H" 
			},
			{
				"x": 0.893644406,
				"y": -3.6608632518,
				"z": -0.3125527637,
				"element": "H" 
			},
			{
				"x": -0.9909003935,
				"y": 0.7116501999,
				"z": -2.5558042332,
				"element": "H" 
			},
			{
				"x": -2.2335493443,
				"y": 2.3404595047,
				"z": -1.1310171888,
				"element": "H" 
			},
			{
				"x": -1.3021210487,
				"y": 2.8415057576,
				"z": 2.249689581,
				"element": "H" 
			}
		],
		 "valence_orbital": [ 
			{
				"type": "occ",
				"energy": -0.32055,
				"method": "rhf"
			},
			{
				"type": "occ",
				"energy": -0.31715,
				"method": "rhf"
			},
			{
				"type": "occ",
				"energy": -0.27427,
				"method": "rhf"
			},
			{
				"type": "occ",
				"energy": -0.23817,
				"method": "rhf"
			},
			{
				"type": "occ",
				"energy": -0.20597,
				"method": "rhf"
			},
			{
				"type": "unocc",
				"energy": -0.00458,
				"method": "rhf"
			},
			{
				"type": "unocc",
				"energy": 0.00744,
				"method": "rhf"
			},
			{
				"type": "unocc",
				"energy": 0.02735,
				"method": "rhf"
			},
			{
				"type": "unocc",
				"energy": 0.07352,
				"method": "rhf"
			},
			{
				"type": "unocc",
				"energy": 0.08062,
				"method": "rhf"
			}
		],
		"cosmo_sigma_profile": { 
			"-0.025": 0.0,
			"-0.024": 0.0,
			"-0.023": 0.0,
			"-0.022": 0.0,
			"-0.021": 0.0,
			"-0.02": 0.0,
			"-0.019": 0.00660173980615,
			"-0.018": 0.533033852869,
			"-0.017": 1.28581290391,
			"-0.016": 0.463650222162,
			"-0.015": 0.919291661865,
			"-0.014": 1.12308103588,
			"-0.013": 1.22083255319,
			"-0.012": 0.895192532007,
			"-0.011": 1.44881162638,
			"-0.01": 1.79590647961,
			"-0.009": 0.848297604084,
			"-0.008": 1.28159009644,
			"-0.007": 2.41060763371,
			"-0.006": 14.1514334432,
			"-0.005": 19.8840766125,
			"-0.004": 20.0988598148,
			"-0.003": 18.7980854078,
			"-0.002": 11.6053420368,
			"-0.001": 10.4163592055,
			"0.0": 9.31673262998,
			"0.001": 11.5151438635,
			"0.002": 13.2538211219,
			"0.003": 12.7003339304,
			"0.004": 14.2660580157,
			"0.005": 14.2565990119,
			"0.006": 7.27464305321,
			"0.007": 2.94331907614,
			"0.008": 3.68048862008,
			"0.009": 4.01088669244,
			"0.01": 3.73797577809,
			"0.011": 6.05002594014,
			"0.012": 5.34000489429,
			"0.013": 1.00246077972,
			"0.014": 0.0,
			"0.015": 0.0,
			"0.016": 0.0,
			"0.017": 0.0,
			"0.018": 0.0,
			"0.019": 0.0,
			"0.02": 0.0,
			"0.021": 0.0,
			"0.022": 0.0,
			"0.023": 0.0,
			"0.024": 0.0,
			"0.025": 0.0
		}
	}
}
