{
	 "smiles": "CON=C(C(=O)OC)C1=C(COC2=CC=CC=C2C)C=CC=C1", 
	 "Tm": 375.15, 
	 "num_atms": 42, 
	 "gaussian": { 
		 "optdone": 1, 
		 "sigma_profile": "yes", 
		 "theory": "DFT", 
		 "functional": "B3LYP", 
		 "basiset": "6-31G**", 
		 "properties": { 
			 "R2extent": 8512.0767, 
			 "electric_dipole_moment_norm": 1.30697545884, 
			 "electric_quadrupole_moment_norm": 9.24363830967, 
			 "total_energy": -1052.9439045, 
			 "HOMO_LUMO_gap": 0.15333, 
			 "cosmo_polarized_energy": -14.59, 
			 "cosmo_cavitation_energy": 46.81, 
			 "cosmo_dispersion_energy": -30.62, 
			 "cosmo_repulsion_energy": 2.39, 
			 "cosmo_total_nonelectrostatic_energy": 18.58, 
			 "SMD_solvation_energy": 10.08 
		},
		"coords": [
			{
				"x": -0.3231045003,
				"y": -2.833154313,
				"z": 0.6508175743,
				"element": "C" 
			},
			{
				"x": 0.5692288772,
				"y": -1.7314480375,
				"z": 0.4560521774,
				"element": "O" 
			},
			{
				"x": 0.9631771054,
				"y": -1.2377448105,
				"z": 1.6771584061,
				"element": "N" 
			},
			{
				"x": 1.7572102975,
				"y": -0.224883594,
				"z": 1.5746513588,
				"element": "C" 
			},
			{
				"x": 2.2621419008,
				"y": 0.3413814501,
				"z": 2.8738801969,
				"element": "C" 
			},
			{
				"x": 3.087428807,
				"y": 1.2315702051,
				"z": 2.9309035023,
				"element": "O" 
			},
			{
				"x": 1.7080986018,
				"y": -0.2345900876,
				"z": 3.9554605078,
				"element": "O" 
			},
			{
				"x": 2.1710546192,
				"y": 0.2756331552,
				"z": 5.2158199412,
				"element": "C" 
			},
			{
				"x": 2.2540169369,
				"y": 0.3876690854,
				"z": 0.3076080167,
				"element": "C" 
			},
			{
				"x": 1.3912874687,
				"y": 0.9563376049,
				"z": -0.6487531557,
				"element": "C" 
			},
			{
				"x": -0.1000613717,
				"y": 1.0740098088,
				"z": -0.4365917845,
				"element": "C" 
			},
			{
				"x": -0.7594436151,
				"y": 0.4342469448,
				"z": -1.5308294825,
				"element": "O" 
			},
			{
				"x": -2.1277751804,
				"y": 0.4228006872,
				"z": -1.5520730599,
				"element": "C" 
			},
			{
				"x": -2.9359296448,
				"y": 0.9936763394,
				"z": -0.5638527152,
				"element": "C" 
			},
			{
				"x": -4.3284351448,
				"y": 0.924223059,
				"z": -0.6804911108,
				"element": "C" 
			},
			{
				"x": -4.9122210785,
				"y": 0.2901907247,
				"z": -1.7722064662,
				"element": "C" 
			},
			{
				"x": -4.0920537012,
				"y": -0.2772378195,
				"z": -2.753581717,
				"element": "C" 
			},
			{
				"x": -2.7011600347,
				"y": -0.2250457998,
				"z": -2.6687062896,
				"element": "C" 
			},
			{
				"x": -1.8113925084,
				"y": -0.8312547457,
				"z": -3.7236719495,
				"element": "C" 
			},
			{
				"x": 1.9358035947,
				"y": 1.4825245149,
				"z": -1.8267244343,
				"element": "C" 
			},
			{
				"x": 3.3066725734,
				"y": 1.4493296994,
				"z": -2.0663969663,
				"element": "C" 
			},
			{
				"x": 4.162924444,
				"y": 0.9009045719,
				"z": -1.1096844085,
				"element": "C" 
			},
			{
				"x": 3.637998518,
				"y": 0.383467638,
				"z": 0.0703382557,
				"element": "C" 
			},
			{
				"x": 0.1662471545,
				"y": -3.6338824415,
				"z": 1.2137284091,
				"element": "H" 
			},
			{
				"x": -1.2287866099,
				"y": -2.5132260323,
				"z": 1.1747716008,
				"element": "H" 
			},
			{
				"x": -0.5752075968,
				"y": -3.1770543647,
				"z": -0.3533314658,
				"element": "H" 
			},
			{
				"x": 1.9589162317,
				"y": 1.3443960318,
				"z": 5.3019881736,
				"element": "H" 
			},
			{
				"x": 1.6265400082,
				"y": -0.2860877988,
				"z": 5.9744908561,
				"element": "H" 
			},
			{
				"x": 3.2479333017,
				"y": 0.1219810548,
				"z": 5.3229998583,
				"element": "H" 
			},
			{
				"x": -0.4075821076,
				"y": 0.620327092,
				"z": 0.5092343129,
				"element": "H" 
			},
			{
				"x": -0.38863856,
				"y": 2.1355499385,
				"z": -0.4115963293,
				"element": "H" 
			},
			{
				"x": -2.4971810913,
				"y": 1.4910070068,
				"z": 0.292930743,
				"element": "H" 
			},
			{
				"x": -4.9483076678,
				"y": 1.3711320601,
				"z": 0.0916812237,
				"element": "H" 
			},
			{
				"x": -5.9925354629,
				"y": 0.2345256736,
				"z": -1.8650323618,
				"element": "H" 
			},
			{
				"x": -4.5416988607,
				"y": -0.7743314868,
				"z": -3.6098891594,
				"element": "H" 
			},
			{
				"x": -1.1280947904,
				"y": -1.5712143558,
				"z": -3.2928307406,
				"element": "H" 
			},
			{
				"x": -2.405524995,
				"y": -1.3182839088,
				"z": -4.5015583719,
				"element": "H" 
			},
			{
				"x": -1.1800776088,
				"y": -0.0712388841,
				"z": -4.1977701133,
				"element": "H" 
			},
			{
				"x": 1.2645727301,
				"y": 1.9146813597,
				"z": -2.5630289349,
				"element": "H" 
			},
			{
				"x": 3.7064742105,
				"y": 1.8583466617,
				"z": -2.9897804268,
				"element": "H" 
			},
			{
				"x": 5.2354568849,
				"y": 0.8812156307,
				"z": -1.2785140373,
				"element": "H" 
			},
			{
				"x": 4.3010278647,
				"y": -0.032149518,
				"z": 0.8211803664,
				"element": "H" 
			}
		],
		 "valence_orbital": [ 
			{
				"type": "occ",
				"energy": -0.26964,
				"method": "rhf"
			},
			{
				"type": "occ",
				"energy": -0.24777,
				"method": "rhf"
			},
			{
				"type": "occ",
				"energy": -0.24255,
				"method": "rhf"
			},
			{
				"type": "occ",
				"energy": -0.23894,
				"method": "rhf"
			},
			{
				"type": "occ",
				"energy": -0.21082,
				"method": "rhf"
			},
			{
				"type": "unocc",
				"energy": -0.05749,
				"method": "rhf"
			},
			{
				"type": "unocc",
				"energy": -0.00922,
				"method": "rhf"
			},
			{
				"type": "unocc",
				"energy": -0.00485,
				"method": "rhf"
			},
			{
				"type": "unocc",
				"energy": 0.00741,
				"method": "rhf"
			},
			{
				"type": "unocc",
				"energy": 0.01833,
				"method": "rhf"
			}
		],
		"cosmo_sigma_profile": { 
			"-0.025": 0.0,
			"-0.024": 0.0,
			"-0.023": 0.0,
			"-0.022": 0.0,
			"-0.021": 0.0,
			"-0.02": 0.0,
			"-0.019": 0.0,
			"-0.018": 0.0,
			"-0.017": 0.0,
			"-0.016": 0.0,
			"-0.015": 0.0,
			"-0.014": 0.0,
			"-0.013": 0.0,
			"-0.012": 0.0,
			"-0.011": 0.0,
			"-0.01": 0.0,
			"-0.009": 0.0,
			"-0.008": 0.0,
			"-0.007": 2.80790088737,
			"-0.006": 23.9409320098,
			"-0.005": 36.5630521187,
			"-0.004": 43.118032847,
			"-0.003": 38.5955850198,
			"-0.002": 28.1188690484,
			"-0.001": 22.1944285355,
			"0.0": 23.9571031195,
			"0.001": 22.5728672268,
			"0.002": 19.8901641131,
			"0.003": 20.3927099079,
			"0.004": 21.8741302142,
			"0.005": 18.3690297499,
			"0.006": 13.4945307237,
			"0.007": 10.6713609281,
			"0.008": 5.66361353672,
			"0.009": 4.94529129176,
			"0.01": 4.59082292897,
			"0.011": 5.58605768995,
			"0.012": 3.08113514998,
			"0.013": 1.08185133708,
			"0.014": 0.612554131685,
			"0.015": 0.0176565480719,
			"0.016": 0.0,
			"0.017": 0.0,
			"0.018": 0.0,
			"0.019": 0.0,
			"0.02": 0.0,
			"0.021": 0.0,
			"0.022": 0.0,
			"0.023": 0.0,
			"0.024": 0.0,
			"0.025": 0.0
		}
	}
}
