{
	 "smiles": "OC(=O)CCC1=C(NC2=C1C=C(F)C=C2)C1=CC=CC=C1", 
	 "Tm": 435.15, 
	 "num_atms": 35, 
	 "gaussian": { 
		 "optdone": 1, 
		 "sigma_profile": "yes", 
		 "theory": "DFT", 
		 "functional": "B3LYP", 
		 "basiset": "6-31G**", 
		 "properties": { 
			 "R2extent": 7569.2209, 
			 "electric_dipole_moment_norm": 5.77568074776, 
			 "electric_quadrupole_moment_norm": 12.3996178119, 
			 "total_energy": -961.307538909, 
			 "HOMO_LUMO_gap": 0.16535, 
			 "cosmo_polarized_energy": -20.69, 
			 "cosmo_cavitation_energy": 40.18, 
			 "cosmo_dispersion_energy": -27.78, 
			 "cosmo_repulsion_energy": 2.12, 
			 "cosmo_total_nonelectrostatic_energy": 14.52, 
			 "SMD_solvation_energy": 7.65 
		},
		"coords": [
			{
				"x": -3.9049443247,
				"y": -2.4158310897,
				"z": 1.9255811221,
				"element": "O" 
			},
			{
				"x": -3.4818121168,
				"y": -1.463746786,
				"z": 1.0474990887,
				"element": "C" 
			},
			{
				"x": -4.1960924801,
				"y": -1.1255481949,
				"z": 0.1372381585,
				"element": "O" 
			},
			{
				"x": -2.0911200442,
				"y": -0.9046655967,
				"z": 1.315278366,
				"element": "C" 
			},
			{
				"x": -1.6791078535,
				"y": 0.1742176969,
				"z": 0.2980144793,
				"element": "C" 
			},
			{
				"x": -0.3189250645,
				"y": 0.7472524136,
				"z": 0.582023491,
				"element": "C" 
			},
			{
				"x": 0.8702109052,
				"y": 0.494872347,
				"z": -0.0841499024,
				"element": "C" 
			},
			{
				"x": 1.9131578811,
				"y": 1.1105801967,
				"z": 0.6011845256,
				"element": "N" 
			},
			{
				"x": 1.411864859,
				"y": 1.8118077828,
				"z": 1.6785233744,
				"element": "C" 
			},
			{
				"x": 0.0084807538,
				"y": 1.5877254882,
				"z": 1.7055627616,
				"element": "C" 
			},
			{
				"x": -0.759090908,
				"y": 2.1774228971,
				"z": 2.7282788552,
				"element": "C" 
			},
			{
				"x": -0.0978279927,
				"y": 2.9621010474,
				"z": 3.6549779194,
				"element": "C" 
			},
			{
				"x": -0.8126648285,
				"y": 3.5462098181,
				"z": 4.6465330487,
				"element": "F" 
			},
			{
				"x": 1.2866742628,
				"y": 3.1916268107,
				"z": 3.623884272,
				"element": "C" 
			},
			{
				"x": 2.0598640188,
				"y": 2.6119407667,
				"z": 2.623996803,
				"element": "C" 
			},
			{
				"x": 1.166954973,
				"y": -0.2945445004,
				"z": -1.2897534373,
				"element": "C" 
			},
			{
				"x": 2.2956129641,
				"y": -1.1344649251,
				"z": -1.3260915824,
				"element": "C" 
			},
			{
				"x": 2.5994827915,
				"y": -1.8723289624,
				"z": -2.4690398312,
				"element": "C" 
			},
			{
				"x": 1.7796195236,
				"y": -1.7908433333,
				"z": -3.5963560934,
				"element": "C" 
			},
			{
				"x": 0.6587812376,
				"y": -0.9580058738,
				"z": -3.5746524993,
				"element": "C" 
			},
			{
				"x": 0.358277473,
				"y": -0.2105542586,
				"z": -2.4371027673,
				"element": "C" 
			},
			{
				"x": -3.2257613491,
				"y": -2.5752020514,
				"z": 2.5964862909,
				"element": "H" 
			},
			{
				"x": -2.0625396649,
				"y": -0.5065417133,
				"z": 2.3382475446,
				"element": "H" 
			},
			{
				"x": -1.3712762119,
				"y": -1.7342918729,
				"z": 1.2951485688,
				"element": "H" 
			},
			{
				"x": -2.4373277161,
				"y": 0.9658045077,
				"z": 0.3053228995,
				"element": "H" 
			},
			{
				"x": -1.7189899259,
				"y": -0.2675445314,
				"z": -0.699110456,
				"element": "H" 
			},
			{
				"x": 2.8371730637,
				"y": 1.2246065899,
				"z": 0.2152638875,
				"element": "H" 
			},
			{
				"x": -1.8342847395,
				"y": 2.0513360431,
				"z": 2.7983568785,
				"element": "H" 
			},
			{
				"x": 1.7299866869,
				"y": 3.8222892297,
				"z": 4.3863206164,
				"element": "H" 
			},
			{
				"x": 3.1323301815,
				"y": 2.7787316337,
				"z": 2.5865457696,
				"element": "H" 
			},
			{
				"x": 2.9207863741,
				"y": -1.2258017267,
				"z": -0.4420503782,
				"element": "H" 
			},
			{
				"x": 3.4719867642,
				"y": -2.5194664211,
				"z": -2.4752943003,
				"element": "H" 
			},
			{
				"x": 2.0137641946,
				"y": -2.3689159507,
				"z": -4.4853554935,
				"element": "H" 
			},
			{
				"x": 0.0225631254,
				"y": -0.8785516519,
				"z": -4.451340059,
				"element": "H" 
			},
			{
				"x": -0.4908068135,
				"y": 0.4648241708,
				"z": -2.443371921,
				"element": "H" 
			}
		],
		 "valence_orbital": [ 
			{
				"type": "occ",
				"energy": -0.26936,
				"method": "rhf"
			},
			{
				"type": "occ",
				"energy": -0.26658,
				"method": "rhf"
			},
			{
				"type": "occ",
				"energy": -0.26196,
				"method": "rhf"
			},
			{
				"type": "occ",
				"energy": -0.21725,
				"method": "rhf"
			},
			{
				"type": "occ",
				"energy": -0.20487,
				"method": "rhf"
			},
			{
				"type": "unocc",
				"energy": -0.03952,
				"method": "rhf"
			},
			{
				"type": "unocc",
				"energy": -0.01401,
				"method": "rhf"
			},
			{
				"type": "unocc",
				"energy": 0.00093,
				"method": "rhf"
			},
			{
				"type": "unocc",
				"energy": 0.01273,
				"method": "rhf"
			},
			{
				"type": "unocc",
				"energy": 0.02642,
				"method": "rhf"
			}
		],
		"cosmo_sigma_profile": { 
			"-0.025": 0.0,
			"-0.024": 0.0,
			"-0.023": 0.0,
			"-0.022": 0.0,
			"-0.021": 0.0,
			"-0.02": 0.0,
			"-0.019": 0.442667324529,
			"-0.018": 1.05424068562,
			"-0.017": 1.13549691497,
			"-0.016": 1.06648593165,
			"-0.015": 1.993413655,
			"-0.014": 1.85386645506,
			"-0.013": 2.32931295897,
			"-0.012": 2.49767195552,
			"-0.011": 1.88394534637,
			"-0.01": 2.68211832835,
			"-0.009": 2.91756346139,
			"-0.008": 3.72074852432,
			"-0.007": 6.05457138877,
			"-0.006": 18.2330610298,
			"-0.005": 21.5099877589,
			"-0.004": 22.5035116,
			"-0.003": 19.9090145625,
			"-0.002": 17.9593503796,
			"-0.001": 15.1566405223,
			"0.0": 15.6790192851,
			"0.001": 16.8926632708,
			"0.002": 22.0228348696,
			"0.003": 22.6007561457,
			"0.004": 29.7615912561,
			"0.005": 35.1943858798,
			"0.006": 7.4847113364,
			"0.007": 1.96654208592,
			"0.008": 3.20482450748,
			"0.009": 2.89471681643,
			"0.01": 4.45531554993,
			"0.011": 5.59374348288,
			"0.012": 5.65696777827,
			"0.013": 2.27844698972,
			"0.014": 0.123700131189,
			"0.015": 0.0,
			"0.016": 0.0,
			"0.017": 0.0,
			"0.018": 0.0,
			"0.019": 0.0,
			"0.02": 0.0,
			"0.021": 0.0,
			"0.022": 0.0,
			"0.023": 0.0,
			"0.024": 0.0,
			"0.025": 0.0
		}
	}
}
