{
	 "smiles": "COC1=C(OC)C=C2C(=O)N(CCC(O)=O)C=NC2=C1", 
	 "Tm": 369.15, 
	 "num_atms": 34, 
	 "gaussian": { 
		 "optdone": 1, 
		 "sigma_profile": "yes", 
		 "theory": "DFT", 
		 "functional": "B3LYP", 
		 "basiset": "6-31G**", 
		 "properties": { 
			 "R2extent": 8558.8782, 
			 "electric_dipole_moment_norm": 2.37083051693, 
			 "electric_quadrupole_moment_norm": 30.0107588091, 
			 "total_energy": -989.45184612, 
			 "HOMO_LUMO_gap": 0.18357, 
			 "cosmo_polarized_energy": -19.94, 
			 "cosmo_cavitation_energy": 38.76, 
			 "cosmo_dispersion_energy": -27.55, 
			 "cosmo_repulsion_energy": 2.12, 
			 "cosmo_total_nonelectrostatic_energy": 13.33, 
			 "SMD_solvation_energy": 8.27 
		},
		"coords": [
			{
				"x": 0.4894058657,
				"y": -0.8548220585,
				"z": -4.6060784446,
				"element": "C" 
			},
			{
				"x": 1.1669772523,
				"y": -0.0618994478,
				"z": -3.6198851626,
				"element": "O" 
			},
			{
				"x": 0.6025728706,
				"y": -0.0700489215,
				"z": -2.3695945897,
				"element": "C" 
			},
			{
				"x": -0.6623162993,
				"y": 0.5357295333,
				"z": -2.1312953089,
				"element": "C" 
			},
			{
				"x": -1.3798057054,
				"y": 1.1002043816,
				"z": -3.1598599661,
				"element": "O" 
			},
			{
				"x": -0.8424180662,
				"y": 2.3316389405,
				"z": -3.6616033004,
				"element": "C" 
			},
			{
				"x": -1.1960125179,
				"y": 0.5246780309,
				"z": -0.8539600299,
				"element": "C" 
			},
			{
				"x": -0.4889560424,
				"y": -0.0651786187,
				"z": 0.206299212,
				"element": "C" 
			},
			{
				"x": -1.0585706849,
				"y": -0.0622479972,
				"z": 1.5541667125,
				"element": "C" 
			},
			{
				"x": -2.1408169239,
				"y": 0.4166030016,
				"z": 1.8783106638,
				"element": "O" 
			},
			{
				"x": -0.231863803,
				"y": -0.6804615559,
				"z": 2.5167382621,
				"element": "N" 
			},
			{
				"x": -0.7150347194,
				"y": -0.7307159331,
				"z": 3.9018037723,
				"element": "C" 
			},
			{
				"x": -0.5386298224,
				"y": 0.6163821895,
				"z": 4.6187922206,
				"element": "C" 
			},
			{
				"x": -0.9684204307,
				"y": 0.6092877025,
				"z": 6.0716939715,
				"element": "C" 
			},
			{
				"x": -0.721173844,
				"y": -0.5830662116,
				"z": 6.6743913762,
				"element": "O" 
			},
			{
				"x": -1.4485852358,
				"y": 1.5479713517,
				"z": 6.6629228305,
				"element": "O" 
			},
			{
				"x": 0.9909352539,
				"y": -1.2191732269,
				"z": 2.1795638724,
				"element": "C" 
			},
			{
				"x": 1.519260225,
				"y": -1.229034573,
				"z": 1.0029434931,
				"element": "N" 
			},
			{
				"x": 0.7827693146,
				"y": -0.642112795,
				"z": -0.0178888146,
				"element": "C" 
			},
			{
				"x": 1.3109987435,
				"y": -0.6387476361,
				"z": -1.3219861448,
				"element": "C" 
			},
			{
				"x": 1.0492294903,
				"y": -0.7250383302,
				"z": -5.5339800395,
				"element": "H" 
			},
			{
				"x": 0.5017880499,
				"y": -1.9136858349,
				"z": -4.3204423726,
				"element": "H" 
			},
			{
				"x": -0.5434907131,
				"y": -0.5234502022,
				"z": -4.7441341794,
				"element": "H" 
			},
			{
				"x": 0.1722195542,
				"y": 2.1952190195,
				"z": -4.0487420737,
				"element": "H" 
			},
			{
				"x": -0.8355603222,
				"y": 3.0978027448,
				"z": -2.8766926132,
				"element": "H" 
			},
			{
				"x": -1.5063983349,
				"y": 2.6474135623,
				"z": -4.4685021536,
				"element": "H" 
			},
			{
				"x": -2.1633026031,
				"y": 0.9771973721,
				"z": -0.6659323582,
				"element": "H" 
			},
			{
				"x": -0.1704165069,
				"y": -1.5197891498,
				"z": 4.4228343745,
				"element": "H" 
			},
			{
				"x": -1.7725737727,
				"y": -1.000179267,
				"z": 3.871025773,
				"element": "H" 
			},
			{
				"x": -1.1085571464,
				"y": 1.3949198384,
				"z": 4.1099716444,
				"element": "H" 
			},
			{
				"x": 0.5195285086,
				"y": 0.9090477949,
				"z": 4.5974460885,
				"element": "H" 
			},
			{
				"x": -1.0104520085,
				"y": -0.4832652976,
				"z": 7.5972807259,
				"element": "H" 
			},
			{
				"x": 1.5310945153,
				"y": -1.6743531634,
				"z": 3.0081584357,
				"element": "H" 
			},
			{
				"x": 2.2785758594,
				"y": -1.0909252437,
				"z": -1.5078658771,
				"element": "H" 
			}
		],
		 "valence_orbital": [ 
			{
				"type": "occ",
				"energy": -0.27588,
				"method": "rhf"
			},
			{
				"type": "occ",
				"energy": -0.27064,
				"method": "rhf"
			},
			{
				"type": "occ",
				"energy": -0.26597,
				"method": "rhf"
			},
			{
				"type": "occ",
				"energy": -0.24937,
				"method": "rhf"
			},
			{
				"type": "occ",
				"energy": -0.22574,
				"method": "rhf"
			},
			{
				"type": "unocc",
				"energy": -0.04217,
				"method": "rhf"
			},
			{
				"type": "unocc",
				"energy": -0.03734,
				"method": "rhf"
			},
			{
				"type": "unocc",
				"energy": -0.00019,
				"method": "rhf"
			},
			{
				"type": "unocc",
				"energy": 0.02496,
				"method": "rhf"
			},
			{
				"type": "unocc",
				"energy": 0.06553,
				"method": "rhf"
			}
		],
		"cosmo_sigma_profile": { 
			"-0.025": 0.0,
			"-0.024": 0.0,
			"-0.023": 0.0,
			"-0.022": 0.0,
			"-0.021": 0.0,
			"-0.02": 0.0,
			"-0.019": 0.204813311755,
			"-0.018": 0.759750049484,
			"-0.017": 0.762051070572,
			"-0.016": 1.2032418895,
			"-0.015": 0.590300018498,
			"-0.014": 0.371538102407,
			"-0.013": 0.400726040532,
			"-0.012": 1.24273422505,
			"-0.011": 1.2751893268,
			"-0.01": 3.29613531926,
			"-0.009": 3.43775190522,
			"-0.008": 5.23333512873,
			"-0.007": 8.3348547211,
			"-0.006": 12.5201971792,
			"-0.005": 18.3050337104,
			"-0.004": 27.0759941477,
			"-0.003": 33.1313676763,
			"-0.002": 27.3457078028,
			"-0.001": 20.2120676498,
			"0.0": 16.4015864523,
			"0.001": 20.6145408998,
			"0.002": 20.2108205966,
			"0.003": 10.9309417932,
			"0.004": 9.90881232777,
			"0.005": 8.34602189456,
			"0.006": 8.31883983282,
			"0.007": 6.26245946201,
			"0.008": 4.98762974641,
			"0.009": 7.01086337832,
			"0.01": 6.06598681969,
			"0.011": 9.48091569755,
			"0.012": 7.74886224332,
			"0.013": 4.46808318649,
			"0.014": 0.864647482568,
			"0.015": 0.618353377631,
			"0.016": 0.0655919687912,
			"0.017": 0.0,
			"0.018": 0.0,
			"0.019": 0.0,
			"0.02": 0.0,
			"0.021": 0.0,
			"0.022": 0.0,
			"0.023": 0.0,
			"0.024": 0.0,
			"0.025": 0.0
		}
	}
}
