{
	 "smiles": "OC1=CC(=CC(=C1)[N+]([O-])=O)C(F)(F)F", 
	 "Tm": 363.65, 
	 "num_atms": 18, 
	 "gaussian": { 
		 "optdone": 1, 
		 "sigma_profile": "yes", 
		 "theory": "DFT", 
		 "functional": "B3LYP", 
		 "basiset": "6-31G**", 
		 "properties": { 
			 "R2extent": 3657.7791, 
			 "electric_dipole_moment_norm": 4.66981608739, 
			 "electric_quadrupole_moment_norm": 10.3369434747, 
			 "total_energy": -848.998294782, 
			 "HOMO_LUMO_gap": 0.16442, 
			 "cosmo_polarized_energy": -12.49, 
			 "cosmo_cavitation_energy": 25.34, 
			 "cosmo_dispersion_energy": -18.05, 
			 "cosmo_repulsion_energy": 1.36, 
			 "cosmo_total_nonelectrostatic_energy": 8.65, 
			 "SMD_solvation_energy": 8.25 
		},
		"coords": [
			{
				"x": 1.2815352449,
				"y": -1.6670793451,
				"z": -0.6219623435,
				"element": "O" 
			},
			{
				"x": 0.5798472724,
				"y": -0.5045043153,
				"z": -0.6048552093,
				"element": "C" 
			},
			{
				"x": -0.307318706,
				"y": -0.1651810273,
				"z": 0.422277379,
				"element": "C" 
			},
			{
				"x": -1.0006883658,
				"y": 1.0471095044,
				"z": 0.3740128967,
				"element": "C" 
			},
			{
				"x": -0.827211435,
				"y": 1.9323787005,
				"z": -0.686738241,
				"element": "C" 
			},
			{
				"x": 0.0630992419,
				"y": 1.5641781451,
				"z": -1.6925429833,
				"element": "C" 
			},
			{
				"x": 0.7712328335,
				"y": 0.3701970374,
				"z": -1.680036436,
				"element": "C" 
			},
			{
				"x": 0.261320134,
				"y": 2.4840741305,
				"z": -2.831494559,
				"element": "N" 
			},
			{
				"x": 1.0523300477,
				"y": 2.1417185487,
				"z": -3.7074511493,
				"element": "O" 
			},
			{
				"x": -0.37812412,
				"y": 3.533692377,
				"z": -2.8283993527,
				"element": "O" 
			},
			{
				"x": -1.9056532897,
				"y": 1.4208251668,
				"z": 1.5218383695,
				"element": "C" 
			},
			{
				"x": -2.4945825623,
				"y": 0.3308755773,
				"z": 2.0624787917,
				"element": "F" 
			},
			{
				"x": -2.8801209307,
				"y": 2.26699691,
				"z": 1.1364220088,
				"element": "F" 
			},
			{
				"x": -1.2146341588,
				"y": 2.027119933,
				"z": 2.5120070357,
				"element": "F" 
			},
			{
				"x": 1.0755482536,
				"y": -2.188720313,
				"z": 0.164950103,
				"element": "H" 
			},
			{
				"x": -0.4691786817,
				"y": -0.8442428697,
				"z": 1.254361045,
				"element": "H" 
			},
			{
				"x": -1.360738984,
				"y": 2.8707572645,
				"z": -0.7465064465,
				"element": "H" 
			},
			{
				"x": 1.4515382058,
				"y": 0.1212045753,
				"z": -2.4837609088,
				"element": "H" 
			}
		],
		 "valence_orbital": [ 
			{
				"type": "occ",
				"energy": -0.31926,
				"method": "rhf"
			},
			{
				"type": "occ",
				"energy": -0.31696,
				"method": "rhf"
			},
			{
				"type": "occ",
				"energy": -0.30097,
				"method": "rhf"
			},
			{
				"type": "occ",
				"energy": -0.30069,
				"method": "rhf"
			},
			{
				"type": "occ",
				"energy": -0.26478,
				"method": "rhf"
			},
			{
				"type": "unocc",
				"energy": -0.10036,
				"method": "rhf"
			},
			{
				"type": "unocc",
				"energy": -0.0457,
				"method": "rhf"
			},
			{
				"type": "unocc",
				"energy": -0.00893,
				"method": "rhf"
			},
			{
				"type": "unocc",
				"energy": 0.04192,
				"method": "rhf"
			},
			{
				"type": "unocc",
				"energy": 0.0799,
				"method": "rhf"
			}
		],
		"cosmo_sigma_profile": { 
			"-0.025": 0.0,
			"-0.024": 0.0,
			"-0.023": 0.0,
			"-0.022": 0.0,
			"-0.021": 0.0,
			"-0.02": 0.0634703381166,
			"-0.019": 1.14699139041,
			"-0.018": 1.34304337246,
			"-0.017": 1.19401447273,
			"-0.016": 1.24919022705,
			"-0.015": 1.38762057599,
			"-0.014": 0.55849605645,
			"-0.013": 0.630003883152,
			"-0.012": 1.31722907085,
			"-0.011": 1.6146295785,
			"-0.01": 0.996100574518,
			"-0.009": 1.5598321429,
			"-0.008": 1.95885329876,
			"-0.007": 4.83561063858,
			"-0.006": 6.59704090897,
			"-0.005": 6.26086304578,
			"-0.004": 7.31066035987,
			"-0.003": 9.14527381709,
			"-0.002": 13.0094564117,
			"-0.001": 20.9492592119,
			"0.0": 21.5698827039,
			"0.001": 13.0466460171,
			"0.002": 27.0765117135,
			"0.003": 18.9908512012,
			"0.004": 4.09720207852,
			"0.005": 4.54925521165,
			"0.006": 5.47051562233,
			"0.007": 11.2136313928,
			"0.008": 6.74737679799,
			"0.009": 5.29542161779,
			"0.01": 2.5285589248,
			"0.011": 0.0596698176642,
			"0.012": 0.0,
			"0.013": 0.0,
			"0.014": 0.0,
			"0.015": 0.0,
			"0.016": 0.0,
			"0.017": 0.0,
			"0.018": 0.0,
			"0.019": 0.0,
			"0.02": 0.0,
			"0.021": 0.0,
			"0.022": 0.0,
			"0.023": 0.0,
			"0.024": 0.0,
			"0.025": 0.0
		}
	}
}
