{
	 "smiles": "ClC1=NC(=NC(Cl)=N1)N1CCOCC1", 
	 "Tm": 413.15, 
	 "num_atms": 22, 
	 "gaussian": { 
		 "optdone": 1, 
		 "sigma_profile": "yes", 
		 "theory": "DFT", 
		 "functional": "B3LYP", 
		 "basiset": "6-31G**", 
		 "properties": { 
			 "R2extent": 4798.3343, 
			 "electric_dipole_moment_norm": 3.63432668867, 
			 "electric_quadrupole_moment_norm": 12.0513939787, 
			 "total_energy": -1486.17005209, 
			 "HOMO_LUMO_gap": 0.19894, 
			 "cosmo_polarized_energy": -10.44, 
			 "cosmo_cavitation_energy": 29.18, 
			 "cosmo_dispersion_energy": -22.37, 
			 "cosmo_repulsion_energy": 1.81, 
			 "cosmo_total_nonelectrostatic_energy": 8.61, 
			 "SMD_solvation_energy": 0.04 
		},
		"coords": [
			{
				"x": -3.2636585664,
				"y": -1.2441388018,
				"z": 2.7126462196,
				"element": "Cl" 
			},
			{
				"x": -1.6548393865,
				"y": -1.3467507875,
				"z": 2.0385030342,
				"element": "C" 
			},
			{
				"x": -1.1928122729,
				"y": -0.2555576779,
				"z": 1.4657422342,
				"element": "N" 
			},
			{
				"x": 0.0557963133,
				"y": -0.3919697407,
				"z": 0.949335145,
				"element": "C" 
			},
			{
				"x": 0.7828923989,
				"y": -1.5372683593,
				"z": 1.0118062232,
				"element": "N" 
			},
			{
				"x": 0.1707157982,
				"y": -2.5241295152,
				"z": 1.6311372665,
				"element": "C" 
			},
			{
				"x": 1.0570277457,
				"y": -4.0246234137,
				"z": 1.7590804858,
				"element": "Cl" 
			},
			{
				"x": -1.0471757847,
				"y": -2.5257000567,
				"z": 2.1734016406,
				"element": "N" 
			},
			{
				"x": 0.6066230651,
				"y": 0.6736913206,
				"z": 0.3380717635,
				"element": "N" 
			},
			{
				"x": -0.1216794404,
				"y": 1.9426951861,
				"z": 0.1985077304,
				"element": "C" 
			},
			{
				"x": 0.3957465612,
				"y": 2.6816193002,
				"z": -1.0314548971,
				"element": "C" 
			},
			{
				"x": 1.7907667981,
				"y": 2.9639868885,
				"z": -0.9729694812,
				"element": "O" 
			},
			{
				"x": 2.5571663146,
				"y": 2.0289631774,
				"z": -0.2195077212,
				"element": "C" 
			},
			{
				"x": 1.9647802714,
				"y": 0.623369402,
				"z": -0.2214782753,
				"element": "C" 
			},
			{
				"x": -1.188237137,
				"y": 1.733848697,
				"z": 0.0998138396,
				"element": "H" 
			},
			{
				"x": 0.0104777521,
				"y": 2.5571710451,
				"z": 1.0986589595,
				"element": "H" 
			},
			{
				"x": -0.1209421467,
				"y": 3.6420999692,
				"z": -1.1232614147,
				"element": "H" 
			},
			{
				"x": 0.1658967276,
				"y": 2.0912861723,
				"z": -1.9319136472,
				"element": "H" 
			},
			{
				"x": 2.6627408916,
				"y": 2.3759256712,
				"z": 0.8200149521,
				"element": "H" 
			},
			{
				"x": 3.5569515539,
				"y": 2.0032346025,
				"z": -0.6641682188,
				"element": "H" 
			},
			{
				"x": 2.5752325709,
				"y": -0.0506700637,
				"z": 0.3817488826,
				"element": "H" 
			},
			{
				"x": 1.9401299718,
				"y": 0.2191169844,
				"z": -1.2419147213,
				"element": "H" 
			}
		],
		 "valence_orbital": [ 
			{
				"type": "occ",
				"energy": -0.30466,
				"method": "rhf"
			},
			{
				"type": "occ",
				"energy": -0.29183,
				"method": "rhf"
			},
			{
				"type": "occ",
				"energy": -0.2913,
				"method": "rhf"
			},
			{
				"type": "occ",
				"energy": -0.26919,
				"method": "rhf"
			},
			{
				"type": "occ",
				"energy": -0.25608,
				"method": "rhf"
			},
			{
				"type": "unocc",
				"energy": -0.05714,
				"method": "rhf"
			},
			{
				"type": "unocc",
				"energy": -0.03776,
				"method": "rhf"
			},
			{
				"type": "unocc",
				"energy": 0.01462,
				"method": "rhf"
			},
			{
				"type": "unocc",
				"energy": 0.04457,
				"method": "rhf"
			},
			{
				"type": "unocc",
				"energy": 0.06957,
				"method": "rhf"
			}
		],
		"cosmo_sigma_profile": { 
			"-0.025": 0.0,
			"-0.024": 0.0,
			"-0.023": 0.0,
			"-0.022": 0.0,
			"-0.021": 0.0,
			"-0.02": 0.0,
			"-0.019": 0.0,
			"-0.018": 0.0,
			"-0.017": 0.0,
			"-0.016": 0.0,
			"-0.015": 0.0,
			"-0.014": 0.0,
			"-0.013": 0.0,
			"-0.012": 0.0,
			"-0.011": 0.0,
			"-0.01": 0.0,
			"-0.009": 0.0,
			"-0.008": 0.10197137023,
			"-0.007": 2.23214147799,
			"-0.006": 17.6567692971,
			"-0.005": 28.1731423087,
			"-0.004": 23.7696418432,
			"-0.003": 20.6455177808,
			"-0.002": 16.7387183655,
			"-0.001": 12.18976027,
			"0.0": 12.697130142,
			"0.001": 12.6489984058,
			"0.002": 15.6110649272,
			"0.003": 22.4161655543,
			"0.004": 13.9068382702,
			"0.005": 8.12971019881,
			"0.006": 6.62399005657,
			"0.007": 5.60884283875,
			"0.008": 5.25780008712,
			"0.009": 3.94245620167,
			"0.01": 2.11364210188,
			"0.011": 2.12775829046,
			"0.012": 2.4553197452,
			"0.013": 2.01598959459,
			"0.014": 0.134814992841,
			"0.015": 0.0,
			"0.016": 0.0,
			"0.017": 0.0,
			"0.018": 0.0,
			"0.019": 0.0,
			"0.02": 0.0,
			"0.021": 0.0,
			"0.022": 0.0,
			"0.023": 0.0,
			"0.024": 0.0,
			"0.025": 0.0
		}
	}
}
