{
	 "smiles": "CCC(=O)N1CSCC1C(O)=O", 
	 "Tm": 348.15, 
	 "num_atms": 23, 
	 "gaussian": { 
		 "optdone": 1, 
		 "sigma_profile": "yes", 
		 "theory": "DFT", 
		 "functional": "B3LYP", 
		 "basiset": "6-31G**", 
		 "properties": { 
			 "R2extent": 2581.0748, 
			 "electric_dipole_moment_norm": 1.66876548682, 
			 "electric_quadrupole_moment_norm": 15.1331784652, 
			 "total_energy": -951.988627279, 
			 "HOMO_LUMO_gap": 0.21571, 
			 "cosmo_polarized_energy": -17.34, 
			 "cosmo_cavitation_energy": 26.79, 
			 "cosmo_dispersion_energy": -19.68, 
			 "cosmo_repulsion_energy": 1.52, 
			 "cosmo_total_nonelectrostatic_energy": 8.63, 
			 "SMD_solvation_energy": 4.82 
		},
		"coords": [
			{
				"x": -1.5133890309,
				"y": 1.6323272629,
				"z": -2.5644977804,
				"element": "C" 
			},
			{
				"x": -0.5108755403,
				"y": 1.1620711932,
				"z": -1.4964656816,
				"element": "C" 
			},
			{
				"x": -1.2134455085,
				"y": 0.5532598728,
				"z": -0.2887574763,
				"element": "C" 
			},
			{
				"x": -1.886870905,
				"y": 1.2638299896,
				"z": 0.4373601898,
				"element": "O" 
			},
			{
				"x": -1.1396869868,
				"y": -0.8392566763,
				"z": -0.0198160038,
				"element": "N" 
			},
			{
				"x": -1.2972105091,
				"y": -1.1951705367,
				"z": 1.3842899276,
				"element": "C" 
			},
			{
				"x": 0.4511263537,
				"y": -1.4631793475,
				"z": 2.0341610607,
				"element": "S" 
			},
			{
				"x": 1.1416695893,
				"y": -1.5894140653,
				"z": 0.3223523663,
				"element": "C" 
			},
			{
				"x": -0.1076670718,
				"y": -1.7523641753,
				"z": -0.5469783535,
				"element": "C" 
			},
			{
				"x": 0.0876566802,
				"y": -1.7475027966,
				"z": -2.0605229,
				"element": "C" 
			},
			{
				"x": -1.0684460557,
				"y": -1.7352609101,
				"z": -2.7660088355,
				"element": "O" 
			},
			{
				"x": 1.1599668076,
				"y": -1.8427541967,
				"z": -2.6000909349,
				"element": "O" 
			},
			{
				"x": -0.9987459318,
				"y": 2.2175961421,
				"z": -3.3311765334,
				"element": "H" 
			},
			{
				"x": -1.9939509731,
				"y": 0.7853963557,
				"z": -3.0622353173,
				"element": "H" 
			},
			{
				"x": -2.2835392154,
				"y": 2.2579601153,
				"z": -2.1067093958,
				"element": "H" 
			},
			{
				"x": 0.0064347663,
				"y": 2.0363426775,
				"z": -1.0875722488,
				"element": "H" 
			},
			{
				"x": 0.2545241963,
				"y": 0.5238289112,
				"z": -1.9380551764,
				"element": "H" 
			},
			{
				"x": -1.7805926645,
				"y": -0.3822340824,
				"z": 1.9195275669,
				"element": "H" 
			},
			{
				"x": -1.863694671,
				"y": -2.1226457266,
				"z": 1.4879336437,
				"element": "H" 
			},
			{
				"x": 1.6993942085,
				"y": -0.6871647654,
				"z": 0.0611331902,
				"element": "H" 
			},
			{
				"x": 1.8035707018,
				"y": -2.4524814458,
				"z": 0.2447750096,
				"element": "H" 
			},
			{
				"x": -0.5021077928,
				"y": -2.7609937759,
				"z": -0.3487460323,
				"element": "H" 
			},
			{
				"x": -1.8148204468,
				"y": -1.6194900198,
				"z": -2.1546002848,
				"element": "H" 
			}
		],
		 "valence_orbital": [ 
			{
				"type": "occ",
				"energy": -0.33698,
				"method": "rhf"
			},
			{
				"type": "occ",
				"energy": -0.2957,
				"method": "rhf"
			},
			{
				"type": "occ",
				"energy": -0.28258,
				"method": "rhf"
			},
			{
				"type": "occ",
				"energy": -0.27115,
				"method": "rhf"
			},
			{
				"type": "occ",
				"energy": -0.23841,
				"method": "rhf"
			},
			{
				"type": "unocc",
				"energy": -0.0227,
				"method": "rhf"
			},
			{
				"type": "unocc",
				"energy": -0.01829,
				"method": "rhf"
			},
			{
				"type": "unocc",
				"energy": 0.01257,
				"method": "rhf"
			},
			{
				"type": "unocc",
				"energy": 0.03738,
				"method": "rhf"
			},
			{
				"type": "unocc",
				"energy": 0.05923,
				"method": "rhf"
			}
		],
		"cosmo_sigma_profile": { 
			"-0.025": 0.0,
			"-0.024": 0.0,
			"-0.023": 0.0,
			"-0.022": 0.0,
			"-0.021": 0.0,
			"-0.02": 0.0,
			"-0.019": 0.0,
			"-0.018": 0.111636124616,
			"-0.017": 0.510944979911,
			"-0.016": 0.890393397464,
			"-0.015": 1.02157535456,
			"-0.014": 0.734903891711,
			"-0.013": 1.92030372834,
			"-0.012": 1.62122690425,
			"-0.011": 2.55922390381,
			"-0.01": 4.04364544719,
			"-0.009": 2.87704572036,
			"-0.008": 3.53778604514,
			"-0.007": 8.78025012384,
			"-0.006": 11.1423390191,
			"-0.005": 11.8150793364,
			"-0.004": 16.1355330562,
			"-0.003": 17.3776714497,
			"-0.002": 13.7434611048,
			"-0.001": 12.7494368187,
			"0.0": 13.641569231,
			"0.001": 9.68033871593,
			"0.002": 7.38457242547,
			"0.003": 5.98288361138,
			"0.004": 7.62280338501,
			"0.005": 7.89623477204,
			"0.006": 6.36707098946,
			"0.007": 6.33905578165,
			"0.008": 5.74994304296,
			"0.009": 8.18385568712,
			"0.01": 7.84575765862,
			"0.011": 7.68282540666,
			"0.012": 4.96136092778,
			"0.013": 1.71122909643,
			"0.014": 0.0884774874209,
			"0.015": 0.0,
			"0.016": 0.0,
			"0.017": 0.0,
			"0.018": 0.0,
			"0.019": 0.0,
			"0.02": 0.0,
			"0.021": 0.0,
			"0.022": 0.0,
			"0.023": 0.0,
			"0.024": 0.0,
			"0.025": 0.0
		}
	}
}
