{
	 "smiles": "CN(C)C1=CC(O)=C(C=C1)[N+]([O-])=O", 
	 "Tm": 414.15, 
	 "num_atms": 23, 
	 "gaussian": { 
		 "optdone": 1, 
		 "sigma_profile": "yes", 
		 "theory": "DFT", 
		 "functional": "B3LYP", 
		 "basiset": "6-31G**", 
		 "properties": { 
			 "R2extent": 3812.7256, 
			 "electric_dipole_moment_norm": 7.35354354104, 
			 "electric_quadrupole_moment_norm": 16.6012842335, 
			 "total_energy": -645.957919704, 
			 "HOMO_LUMO_gap": 0.14059, 
			 "cosmo_polarized_energy": -12.42, 
			 "cosmo_cavitation_energy": 26.44, 
			 "cosmo_dispersion_energy": -19.95, 
			 "cosmo_repulsion_energy": 1.55, 
			 "cosmo_total_nonelectrostatic_energy": 8.04, 
			 "SMD_solvation_energy": 6.85 
		},
		"coords": [
			{
				"x": 0.1706077507,
				"y": -2.1609981948,
				"z": 1.6143895865,
				"element": "C" 
			},
			{
				"x": -0.0763141772,
				"y": -1.3927107126,
				"z": 0.4025304179,
				"element": "N" 
			},
			{
				"x": -0.0234703231,
				"y": -2.0594986224,
				"z": -0.8914159845,
				"element": "C" 
			},
			{
				"x": -0.353987548,
				"y": -0.0521111987,
				"z": 0.4846039143,
				"element": "C" 
			},
			{
				"x": -0.4073799304,
				"y": 0.6035453346,
				"z": 1.7306392887,
				"element": "C" 
			},
			{
				"x": -0.6887403863,
				"y": 1.966531263,
				"z": 1.8311190626,
				"element": "C" 
			},
			{
				"x": -0.721450878,
				"y": 2.5155063578,
				"z": 3.049382176,
				"element": "O" 
			},
			{
				"x": -0.926989732,
				"y": 2.7082642658,
				"z": 0.6403892795,
				"element": "C" 
			},
			{
				"x": -0.8747449702,
				"y": 2.0589140413,
				"z": -0.6054396559,
				"element": "C" 
			},
			{
				"x": -0.597022111,
				"y": 0.7160431643,
				"z": -0.6962636266,
				"element": "C" 
			},
			{
				"x": -1.2191908294,
				"y": 4.1033000597,
				"z": 0.6802780216,
				"element": "N" 
			},
			{
				"x": -1.2631235747,
				"y": 4.6741144818,
				"z": 1.8044673148,
				"element": "O" 
			},
			{
				"x": -1.4201346364,
				"y": 4.71520608,
				"z": -0.3681625247,
				"element": "O" 
			},
			{
				"x": -0.6962704426,
				"y": -2.1444925144,
				"z": 2.2871962444,
				"element": "H" 
			},
			{
				"x": 1.0377572111,
				"y": -1.7771479333,
				"z": 2.1667961902,
				"element": "H" 
			},
			{
				"x": 0.3717995387,
				"y": -3.198394859,
				"z": 1.3473568862,
				"element": "H" 
			},
			{
				"x": -0.9823472641,
				"y": -1.9977063868,
				"z": -1.421353108,
				"element": "H" 
			},
			{
				"x": 0.2077087489,
				"y": -3.1137598119,
				"z": -0.7394914572,
				"element": "H" 
			},
			{
				"x": 0.7538938213,
				"y": -1.6336423677,
				"z": -1.5383706316,
				"element": "H" 
			},
			{
				"x": -0.2330690903,
				"y": 0.0799307648,
				"z": 2.6604821251,
				"element": "H" 
			},
			{
				"x": -0.933909846,
				"y": 3.4732094671,
				"z": 2.9031818614,
				"element": "H" 
			},
			{
				"x": -1.0604286023,
				"y": 2.6508916518,
				"z": -1.493264054,
				"element": "H" 
			},
			{
				"x": -0.5652927288,
				"y": 0.2516056697,
				"z": -1.6724513267,
				"element": "H" 
			}
		],
		 "valence_orbital": [ 
			{
				"type": "occ",
				"energy": -0.29989,
				"method": "rhf"
			},
			{
				"type": "occ",
				"energy": -0.29817,
				"method": "rhf"
			},
			{
				"type": "occ",
				"energy": -0.28357,
				"method": "rhf"
			},
			{
				"type": "occ",
				"energy": -0.23814,
				"method": "rhf"
			},
			{
				"type": "occ",
				"energy": -0.21771,
				"method": "rhf"
			},
			{
				"type": "unocc",
				"energy": -0.07712,
				"method": "rhf"
			},
			{
				"type": "unocc",
				"energy": -0.00336,
				"method": "rhf"
			},
			{
				"type": "unocc",
				"energy": 0.02321,
				"method": "rhf"
			},
			{
				"type": "unocc",
				"energy": 0.06956,
				"method": "rhf"
			},
			{
				"type": "unocc",
				"energy": 0.08849,
				"method": "rhf"
			}
		],
		"cosmo_sigma_profile": { 
			"-0.025": 0.0,
			"-0.024": 0.0,
			"-0.023": 0.0,
			"-0.022": 0.0,
			"-0.021": 0.0,
			"-0.02": 0.0,
			"-0.019": 0.0,
			"-0.018": 0.0,
			"-0.017": 0.0,
			"-0.016": 0.0,
			"-0.015": 0.0,
			"-0.014": 0.0,
			"-0.013": 0.0,
			"-0.012": 0.0,
			"-0.011": 0.0,
			"-0.01": 0.0,
			"-0.009": 0.0027583951219,
			"-0.008": 1.85305961895,
			"-0.007": 5.71544912073,
			"-0.006": 12.1872982022,
			"-0.005": 21.0199101277,
			"-0.004": 19.9556800976,
			"-0.003": 21.6564323671,
			"-0.002": 19.4353749418,
			"-0.001": 12.3438577892,
			"0.0": 11.7864990151,
			"0.001": 12.8060252918,
			"0.002": 12.5717761186,
			"0.003": 13.1657268741,
			"0.004": 7.06479466285,
			"0.005": 4.58317947292,
			"0.006": 3.53006492684,
			"0.007": 5.04534141055,
			"0.008": 6.6606734389,
			"0.009": 7.92013480611,
			"0.01": 5.57740760148,
			"0.011": 4.8790415863,
			"0.012": 0.457073822952,
			"0.013": 0.0,
			"0.014": 0.0,
			"0.015": 0.0,
			"0.016": 0.0,
			"0.017": 0.0,
			"0.018": 0.0,
			"0.019": 0.0,
			"0.02": 0.0,
			"0.021": 0.0,
			"0.022": 0.0,
			"0.023": 0.0,
			"0.024": 0.0,
			"0.025": 0.0
		}
	}
}
