{
	 "smiles": "NC(=N)NCCCC(NC(=O)C1=CC=CC=C1)C(O)=O", 
	 "Tm": 558.15, 
	 "num_atms": 38, 
	 "gaussian": { 
		 "optdone": 1, 
		 "sigma_profile": "yes", 
		 "theory": "DFT", 
		 "functional": "B3LYP", 
		 "basiset": "6-31G**", 
		 "properties": { 
			 "R2extent": 9281.075, 
			 "electric_dipole_moment_norm": 3.89689334984, 
			 "electric_quadrupole_moment_norm": 26.4116632023, 
			 "total_energy": -950.94568443, 
			 "HOMO_LUMO_gap": 0.17561, 
			 "cosmo_polarized_energy": -30.3, 
			 "cosmo_cavitation_energy": 42.47, 
			 "cosmo_dispersion_energy": -29.42, 
			 "cosmo_repulsion_energy": 2.33, 
			 "cosmo_total_nonelectrostatic_energy": 15.38, 
			 "SMD_solvation_energy": 7.08 
		},
		"coords": [
			{
				"x": -4.6879367097,
				"y": 4.4100465266,
				"z": 1.1423857387,
				"element": "N" 
			},
			{
				"x": -3.8429004761,
				"y": 3.5053069866,
				"z": 1.8067561058,
				"element": "C" 
			},
			{
				"x": -3.8410028892,
				"y": 3.2271211552,
				"z": 3.0598384927,
				"element": "N" 
			},
			{
				"x": -2.96860389,
				"y": 2.8828015818,
				"z": 0.9233464545,
				"element": "N" 
			},
			{
				"x": -2.14577811,
				"y": 1.7655223416,
				"z": 1.3798172675,
				"element": "C" 
			},
			{
				"x": -0.804666964,
				"y": 1.6989873126,
				"z": 0.6418232068,
				"element": "C" 
			},
			{
				"x": -0.9442915504,
				"y": 1.4859679958,
				"z": -0.869249142,
				"element": "C" 
			},
			{
				"x": 0.4077536942,
				"y": 1.3432491131,
				"z": -1.5859252959,
				"element": "C" 
			},
			{
				"x": 1.149264223,
				"y": 0.1517035922,
				"z": -1.1845329993,
				"element": "N" 
			},
			{
				"x": 0.7596336007,
				"y": -1.0921788144,
				"z": -1.6187431685,
				"element": "C" 
			},
			{
				"x": -0.2498846401,
				"y": -1.2445158281,
				"z": -2.3024582207,
				"element": "O" 
			},
			{
				"x": 1.6284555497,
				"y": -2.245675133,
				"z": -1.2113564597,
				"element": "C" 
			},
			{
				"x": 2.5073283426,
				"y": -2.2005643151,
				"z": -0.1194398685,
				"element": "C" 
			},
			{
				"x": 3.2830509458,
				"y": -3.3135973819,
				"z": 0.2050656105,
				"element": "C" 
			},
			{
				"x": 3.1865990796,
				"y": -4.4793531436,
				"z": -0.5572584988,
				"element": "C" 
			},
			{
				"x": 2.3025782869,
				"y": -4.5343864339,
				"z": -1.6382387934,
				"element": "C" 
			},
			{
				"x": 1.5228680793,
				"y": -3.4260022085,
				"z": -1.9593993728,
				"element": "C" 
			},
			{
				"x": 0.2407150416,
				"y": 1.4510388565,
				"z": -3.1094010828,
				"element": "C" 
			},
			{
				"x": 1.327555451,
				"y": 0.9965607921,
				"z": -3.7733772582,
				"element": "O" 
			},
			{
				"x": -0.701331194,
				"y": 1.967098728,
				"z": -3.6656722074,
				"element": "O" 
			},
			{
				"x": -4.2336122831,
				"y": 4.9296478657,
				"z": 0.4002841391,
				"element": "H" 
			},
			{
				"x": -5.1972421468,
				"y": 5.0219062529,
				"z": 1.7655883084,
				"element": "H" 
			},
			{
				"x": -4.4641330501,
				"y": 3.8509135952,
				"z": 3.5720255064,
				"element": "H" 
			},
			{
				"x": -3.3594743109,
				"y": 2.76798144,
				"z": -0.00292594,
				"element": "H" 
			},
			{
				"x": -2.6813266104,
				"y": 0.8098057349,
				"z": 1.2676858885,
				"element": "H" 
			},
			{
				"x": -1.9893841924,
				"y": 1.9128164114,
				"z": 2.4495002871,
				"element": "H" 
			},
			{
				"x": -0.2491085371,
				"y": 2.626677194,
				"z": 0.8360943247,
				"element": "H" 
			},
			{
				"x": -0.2205168594,
				"y": 0.8769825256,
				"z": 1.0739445114,
				"element": "H" 
			},
			{
				"x": -1.5385203574,
				"y": 0.5918160309,
				"z": -1.0832061622,
				"element": "H" 
			},
			{
				"x": -1.4611087981,
				"y": 2.3329187861,
				"z": -1.330302901,
				"element": "H" 
			},
			{
				"x": 1.0400135575,
				"y": 2.1976152114,
				"z": -1.3077687477,
				"element": "H" 
			},
			{
				"x": 2.1081960566,
				"y": 0.2702621813,
				"z": -0.8970080291,
				"element": "H" 
			},
			{
				"x": 2.5641568726,
				"y": -1.3129200634,
				"z": 0.5042743213,
				"element": "H" 
			},
			{
				"x": 3.9544459996,
				"y": -3.2735860854,
				"z": 1.0577857438,
				"element": "H" 
			},
			{
				"x": 3.7920835732,
				"y": -5.3449756736,
				"z": -0.3043274844,
				"element": "H" 
			},
			{
				"x": 2.2201462624,
				"y": -5.4428371809,
				"z": -2.2277358466,
				"element": "H" 
			},
			{
				"x": 0.8209202803,
				"y": -3.4487380841,
				"z": -2.7860386136,
				"element": "H" 
			},
			{
				"x": 1.1313586726,
				"y": 1.1181821346,
				"z": -4.7172498146,
				"element": "H" 
			}
		],
		 "valence_orbital": [ 
			{
				"type": "occ",
				"energy": -0.25602,
				"method": "rhf"
			},
			{
				"type": "occ",
				"energy": -0.25445,
				"method": "rhf"
			},
			{
				"type": "occ",
				"energy": -0.25252,
				"method": "rhf"
			},
			{
				"type": "occ",
				"energy": -0.24469,
				"method": "rhf"
			},
			{
				"type": "occ",
				"energy": -0.21689,
				"method": "rhf"
			},
			{
				"type": "unocc",
				"energy": -0.04128,
				"method": "rhf"
			},
			{
				"type": "unocc",
				"energy": -0.01257,
				"method": "rhf"
			},
			{
				"type": "unocc",
				"energy": 0.00968,
				"method": "rhf"
			},
			{
				"type": "unocc",
				"energy": 0.05362,
				"method": "rhf"
			},
			{
				"type": "unocc",
				"energy": 0.06124,
				"method": "rhf"
			}
		],
		"cosmo_sigma_profile": { 
			"-0.025": 0.0,
			"-0.024": 0.0,
			"-0.023": 0.0,
			"-0.022": 0.0,
			"-0.021": 0.0,
			"-0.02": 0.0,
			"-0.019": 0.0454507678242,
			"-0.018": 0.694358945711,
			"-0.017": 1.27081604504,
			"-0.016": 0.350847531804,
			"-0.015": 1.36656933037,
			"-0.014": 2.44351813434,
			"-0.013": 2.77044126434,
			"-0.012": 6.77251843468,
			"-0.011": 6.09390891184,
			"-0.01": 7.12033572734,
			"-0.009": 7.50040290284,
			"-0.008": 8.93622175952,
			"-0.007": 8.5478375497,
			"-0.006": 14.5788923927,
			"-0.005": 16.2147509658,
			"-0.004": 16.2262216836,
			"-0.003": 20.0535041141,
			"-0.002": 23.8484000813,
			"-0.001": 21.2595358725,
			"0.0": 20.8467076646,
			"0.001": 16.9214435257,
			"0.002": 14.2879133353,
			"0.003": 17.8631180867,
			"0.004": 18.7447266487,
			"0.005": 11.8661011035,
			"0.006": 7.05799563289,
			"0.007": 8.5190138739,
			"0.008": 8.71097135896,
			"0.009": 7.18989246421,
			"0.01": 6.5828377026,
			"0.011": 9.00947307708,
			"0.012": 6.85484313157,
			"0.013": 5.51768143791,
			"0.014": 2.3528553518,
			"0.015": 1.63435039422,
			"0.016": 1.29530605272,
			"0.017": 1.21631042186,
			"0.018": 1.08408799721,
			"0.019": 0.15133091423,
			"0.02": 0.0,
			"0.021": 0.0,
			"0.022": 0.0,
			"0.023": 0.0,
			"0.024": 0.0,
			"0.025": 0.0
		}
	}
}
