{
	 "smiles": "CNS(=O)(=O)C1=C(C)C=CC(N)=C1", 
	 "Tm": 408.15, 
	 "num_atms": 25, 
	 "gaussian": { 
		 "optdone": 1, 
		 "sigma_profile": "yes", 
		 "theory": "DFT", 
		 "functional": "B3LYP", 
		 "basiset": "6-31G**", 
		 "properties": { 
			 "R2extent": 3458.9754, 
			 "electric_dipole_moment_norm": 3.78836321912, 
			 "electric_quadrupole_moment_norm": 21.8371485922, 
			 "total_energy": -970.158393389, 
			 "HOMO_LUMO_gap": 0.1816, 
			 "cosmo_polarized_energy": -17.53, 
			 "cosmo_cavitation_energy": 29.11, 
			 "cosmo_dispersion_energy": -21.62, 
			 "cosmo_repulsion_energy": 1.66, 
			 "cosmo_total_nonelectrostatic_energy": 9.16, 
			 "SMD_solvation_energy": 4.55 
		},
		"coords": [
			{
				"x": 1.989458148,
				"y": 1.4015778929,
				"z": 3.816378523,
				"element": "C" 
			},
			{
				"x": 1.5631139392,
				"y": 0.8168813139,
				"z": 2.5329280364,
				"element": "N" 
			},
			{
				"x": 0.4403660384,
				"y": -0.4574030938,
				"z": 2.6520738392,
				"element": "S" 
			},
			{
				"x": -0.5474749714,
				"y": -0.034009225,
				"z": 3.6508691702,
				"element": "O" 
			},
			{
				"x": 1.1391936039,
				"y": -1.7412945834,
				"z": 2.8213639212,
				"element": "O" 
			},
			{
				"x": -0.2785189894,
				"y": -0.437307557,
				"z": 1.002231739,
				"element": "C" 
			},
			{
				"x": -1.0520233025,
				"y": 0.6475456575,
				"z": 0.5436529038,
				"element": "C" 
			},
			{
				"x": -1.3225644723,
				"y": 1.8962429759,
				"z": 1.3463882804,
				"element": "C" 
			},
			{
				"x": -1.5782825555,
				"y": 0.5087734676,
				"z": -0.7474458785,
				"element": "C" 
			},
			{
				"x": -1.3660070174,
				"y": -0.6216239303,
				"z": -1.5316185883,
				"element": "C" 
			},
			{
				"x": -0.5995051822,
				"y": -1.693463284,
				"z": -1.0498563943,
				"element": "C" 
			},
			{
				"x": -0.33347889,
				"y": -2.8100404271,
				"z": -1.8422617521,
				"element": "N" 
			},
			{
				"x": -0.0560763498,
				"y": -1.5829250308,
				"z": 0.2388798093,
				"element": "C" 
			},
			{
				"x": 2.6224791399,
				"y": 2.264010388,
				"z": 3.5930032275,
				"element": "H" 
			},
			{
				"x": 2.5445066059,
				"y": 0.703516209,
				"z": 4.4552690632,
				"element": "H" 
			},
			{
				"x": 1.1040735925,
				"y": 1.7438209109,
				"z": 4.3527576584,
				"element": "H" 
			},
			{
				"x": 2.3528759082,
				"y": 0.4802124505,
				"z": 1.984751691,
				"element": "H" 
			},
			{
				"x": -0.3892916791,
				"y": 2.404609701,
				"z": 1.6087420138,
				"element": "H" 
			},
			{
				"x": -1.9431329111,
				"y": 2.5874412498,
				"z": 0.7701048639,
				"element": "H" 
			},
			{
				"x": -1.833141239,
				"y": 1.664790391,
				"z": 2.2848860069,
				"element": "H" 
			},
			{
				"x": -2.1819072229,
				"y": 1.3181754072,
				"z": -1.1496918031,
				"element": "H" 
			},
			{
				"x": -1.7975759636,
				"y": -0.6746083325,
				"z": -2.5281466991,
				"element": "H" 
			},
			{
				"x": -1.0130703302,
				"y": -2.9958817772,
				"z": -2.5668528872,
				"element": "H" 
			},
			{
				"x": -0.0842018341,
				"y": -3.6479239622,
				"z": -1.3348790658,
				"element": "H" 
			},
			{
				"x": 0.5404859345,
				"y": -2.3857168119,
				"z": 0.6590723212,
				"element": "H" 
			}
		],
		 "valence_orbital": [ 
			{
				"type": "occ",
				"energy": -0.29793,
				"method": "rhf"
			},
			{
				"type": "occ",
				"energy": -0.29465,
				"method": "rhf"
			},
			{
				"type": "occ",
				"energy": -0.27177,
				"method": "rhf"
			},
			{
				"type": "occ",
				"energy": -0.25447,
				"method": "rhf"
			},
			{
				"type": "occ",
				"energy": -0.21027,
				"method": "rhf"
			},
			{
				"type": "unocc",
				"energy": -0.02867,
				"method": "rhf"
			},
			{
				"type": "unocc",
				"energy": 0.00394,
				"method": "rhf"
			},
			{
				"type": "unocc",
				"energy": 0.06698,
				"method": "rhf"
			},
			{
				"type": "unocc",
				"energy": 0.07303,
				"method": "rhf"
			},
			{
				"type": "unocc",
				"energy": 0.08253,
				"method": "rhf"
			}
		],
		"cosmo_sigma_profile": { 
			"-0.025": 0.0,
			"-0.024": 0.0,
			"-0.023": 0.0,
			"-0.022": 0.0,
			"-0.021": 0.0,
			"-0.02": 0.0,
			"-0.019": 0.0,
			"-0.018": 0.0,
			"-0.017": 0.0,
			"-0.016": 0.0,
			"-0.015": 0.403233256246,
			"-0.014": 1.15230318777,
			"-0.013": 2.54492843842,
			"-0.012": 4.27542266691,
			"-0.011": 3.29458446557,
			"-0.01": 4.39918274993,
			"-0.009": 5.09458697682,
			"-0.008": 3.96251401641,
			"-0.007": 5.07694028331,
			"-0.006": 9.05119366363,
			"-0.005": 12.5843558257,
			"-0.004": 14.599172668,
			"-0.003": 14.5150016776,
			"-0.002": 16.662816727,
			"-0.001": 13.5522113791,
			"0.0": 15.7757285691,
			"0.001": 14.6870183772,
			"0.002": 10.5937112449,
			"0.003": 12.69655776,
			"0.004": 16.0405193614,
			"0.005": 9.64412136962,
			"0.006": 4.66127287638,
			"0.007": 3.94821272313,
			"0.008": 3.87291870561,
			"0.009": 4.33826111677,
			"0.01": 5.53468062035,
			"0.011": 9.10053791528,
			"0.012": 6.41450701988,
			"0.013": 0.887541003183,
			"0.014": 0.449669109262,
			"0.015": 0.0472832345513,
			"0.016": 0.0,
			"0.017": 0.0,
			"0.018": 0.0,
			"0.019": 0.0,
			"0.02": 0.0,
			"0.021": 0.0,
			"0.022": 0.0,
			"0.023": 0.0,
			"0.024": 0.0,
			"0.025": 0.0
		}
	}
}
