{
	 "smiles": "NS(=O)(=O)C1=C(C=CC=C1)S(Cl)(=O)=O", 
	 "Tm": 453.15, 
	 "num_atms": 20, 
	 "gaussian": { 
		 "optdone": 1, 
		 "sigma_profile": "yes", 
		 "theory": "DFT", 
		 "functional": "B3LYP", 
		 "basiset": "6-31G**", 
		 "properties": { 
			 "R2extent": 3699.9966, 
			 "electric_dipole_moment_norm": 4.50164275904, 
			 "electric_quadrupole_moment_norm": 17.0874901372, 
			 "total_energy": -1844.31466891, 
			 "HOMO_LUMO_gap": 0.18631, 
			 "cosmo_polarized_energy": -17.25, 
			 "cosmo_cavitation_energy": 28.37, 
			 "cosmo_dispersion_energy": -21.97, 
			 "cosmo_repulsion_energy": 1.63, 
			 "cosmo_total_nonelectrostatic_energy": 8.02, 
			 "SMD_solvation_energy": 3.32 
		},
		"coords": [
			{
				"x": 1.3766643675,
				"y": -0.0182715492,
				"z": -2.0777619061,
				"element": "N" 
			},
			{
				"x": -0.1620951692,
				"y": -0.307673302,
				"z": -1.4920789189,
				"element": "S" 
			},
			{
				"x": -1.0725271575,
				"y": 0.1813341092,
				"z": -2.5311830923,
				"element": "O" 
			},
			{
				"x": -0.2978093829,
				"y": -1.6550115897,
				"z": -0.9461685749,
				"element": "O" 
			},
			{
				"x": -0.3267145188,
				"y": 0.8587531189,
				"z": -0.0982652589,
				"element": "C" 
			},
			{
				"x": 0.5146246612,
				"y": 0.9971034804,
				"z": 1.0217302967,
				"element": "C" 
			},
			{
				"x": 0.1780067147,
				"y": 1.8610315831,
				"z": 2.0677592863,
				"element": "C" 
			},
			{
				"x": -1.0058288036,
				"y": 2.5942011528,
				"z": 2.0144151121,
				"element": "C" 
			},
			{
				"x": -1.8433203815,
				"y": 2.4703226747,
				"z": 0.9096006747,
				"element": "C" 
			},
			{
				"x": -1.5056586236,
				"y": 1.6074755551,
				"z": -0.1337865066,
				"element": "C" 
			},
			{
				"x": 2.1051106096,
				"y": 0.1733534843,
				"z": 1.2520243865,
				"element": "S" 
			},
			{
				"x": 3.434571028,
				"y": 1.6203181074,
				"z": 0.4337280048,
				"element": "Cl" 
			},
			{
				"x": 2.2241880247,
				"y": -1.015263979,
				"z": 0.4173552593,
				"element": "O" 
			},
			{
				"x": 2.3912544272,
				"y": 0.1258892992,
				"z": 2.6788963427,
				"element": "O" 
			},
			{
				"x": 1.3385195946,
				"y": 0.077700013,
				"z": -3.0879703722,
				"element": "H" 
			},
			{
				"x": 2.0457579624,
				"y": -0.7059476488,
				"z": -1.7431423486,
				"element": "H" 
			},
			{
				"x": 0.8438241419,
				"y": 1.9485807715,
				"z": 2.9182250742,
				"element": "H" 
			},
			{
				"x": -1.2628627789,
				"y": 3.2576132345,
				"z": 2.8336389211,
				"element": "H" 
			},
			{
				"x": -2.7642613509,
				"y": 3.0418604858,
				"z": 0.8521287998,
				"element": "H" 
			},
			{
				"x": -2.1520433649,
				"y": 1.5016309988,
				"z": -0.9972451798,
				"element": "H" 
			}
		],
		 "valence_orbital": [ 
			{
				"type": "occ",
				"energy": -0.32573,
				"method": "rhf"
			},
			{
				"type": "occ",
				"energy": -0.32299,
				"method": "rhf"
			},
			{
				"type": "occ",
				"energy": -0.3049,
				"method": "rhf"
			},
			{
				"type": "occ",
				"energy": -0.30207,
				"method": "rhf"
			},
			{
				"type": "occ",
				"energy": -0.29229,
				"method": "rhf"
			},
			{
				"type": "unocc",
				"energy": -0.10598,
				"method": "rhf"
			},
			{
				"type": "unocc",
				"energy": -0.06379,
				"method": "rhf"
			},
			{
				"type": "unocc",
				"energy": -0.05259,
				"method": "rhf"
			},
			{
				"type": "unocc",
				"energy": 0.01748,
				"method": "rhf"
			},
			{
				"type": "unocc",
				"energy": 0.04939,
				"method": "rhf"
			}
		],
		"cosmo_sigma_profile": { 
			"-0.025": 0.0,
			"-0.024": 0.0,
			"-0.023": 0.0,
			"-0.022": 0.0,
			"-0.021": 0.0,
			"-0.02": 0.0,
			"-0.019": 0.0,
			"-0.018": 0.0,
			"-0.017": 0.00285473075767,
			"-0.016": 0.737399652305,
			"-0.015": 1.03096221596,
			"-0.014": 1.09041189058,
			"-0.013": 2.43605722241,
			"-0.012": 2.54640835045,
			"-0.011": 1.37453740676,
			"-0.01": 1.46919506199,
			"-0.009": 5.00309810622,
			"-0.008": 10.7876365219,
			"-0.007": 10.7822167593,
			"-0.006": 8.45332409949,
			"-0.005": 7.46764096131,
			"-0.004": 9.1411153384,
			"-0.003": 9.7361324318,
			"-0.002": 15.386748945,
			"-0.001": 21.7069632413,
			"0.0": 20.1739422677,
			"0.001": 12.5141571419,
			"0.002": 12.3308098068,
			"0.003": 14.1508565916,
			"0.004": 6.71027360842,
			"0.005": 6.27706572754,
			"0.006": 6.79046454157,
			"0.007": 9.66564826442,
			"0.008": 10.2291908794,
			"0.009": 6.26090249376,
			"0.01": 11.0059361653,
			"0.011": 5.24258866349,
			"0.012": 0.0254120881534,
			"0.013": 0.0,
			"0.014": 0.0,
			"0.015": 0.0,
			"0.016": 0.0,
			"0.017": 0.0,
			"0.018": 0.0,
			"0.019": 0.0,
			"0.02": 0.0,
			"0.021": 0.0,
			"0.022": 0.0,
			"0.023": 0.0,
			"0.024": 0.0,
			"0.025": 0.0
		}
	}
}
