{
	 "smiles": "CC(C)(C)C1=CC=C(C=C1)C1=NN=C(S)N1N", 
	 "Tm": 379.15, 
	 "num_atms": 33, 
	 "gaussian": { 
		 "optdone": 1, 
		 "sigma_profile": "yes", 
		 "theory": "DFT", 
		 "functional": "B3LYP", 
		 "basiset": "6-31G**", 
		 "properties": { 
			 "R2extent": 7769.7418, 
			 "electric_dipole_moment_norm": 7.15385831283, 
			 "electric_quadrupole_moment_norm": 35.5320901285, 
			 "total_energy": -1084.06714608, 
			 "HOMO_LUMO_gap": 0.17888, 
			 "cosmo_polarized_energy": -22.0, 
			 "cosmo_cavitation_energy": 36.96, 
			 "cosmo_dispersion_energy": -26.96, 
			 "cosmo_repulsion_energy": 2.02, 
			 "cosmo_total_nonelectrostatic_energy": 12.02, 
			 "SMD_solvation_energy": 4.25 
		},
		"coords": [
			{
				"x": 0.5649429961,
				"y": -1.3980598061,
				"z": 3.480158668,
				"element": "C" 
			},
			{
				"x": 1.3167451525,
				"y": -1.8371474013,
				"z": 2.2007184362,
				"element": "C" 
			},
			{
				"x": 1.318058286,
				"y": -3.3822903725,
				"z": 2.1116632357,
				"element": "C" 
			},
			{
				"x": 2.777260157,
				"y": -1.3606030065,
				"z": 2.3134347528,
				"element": "C" 
			},
			{
				"x": 0.6067660714,
				"y": -1.2552549138,
				"z": 0.9656113599,
				"element": "C" 
			},
			{
				"x": 1.2384022569,
				"y": -0.3968948544,
				"z": 0.0524445292,
				"element": "C" 
			},
			{
				"x": 0.5672082026,
				"y": 0.1193960121,
				"z": -1.0525959541,
				"element": "C" 
			},
			{
				"x": -0.7756193999,
				"y": -0.2071347712,
				"z": -1.2985500933,
				"element": "C" 
			},
			{
				"x": -1.413778818,
				"y": -1.0776053604,
				"z": -0.3991817834,
				"element": "C" 
			},
			{
				"x": -0.7342739602,
				"y": -1.5821889206,
				"z": 0.7059318176,
				"element": "C" 
			},
			{
				"x": -1.4154408582,
				"y": 0.3536998549,
				"z": -2.493514371,
				"element": "C" 
			},
			{
				"x": -0.7693866532,
				"y": 0.7497339834,
				"z": -3.5683451091,
				"element": "N" 
			},
			{
				"x": -1.6768583978,
				"y": 1.2838020444,
				"z": -4.463491792,
				"element": "N" 
			},
			{
				"x": -2.8599757501,
				"y": 1.2066472673,
				"z": -3.9077408825,
				"element": "C" 
			},
			{
				"x": -4.3634016503,
				"y": 1.7480510152,
				"z": -4.6447024763,
				"element": "S" 
			},
			{
				"x": -2.7713411328,
				"y": 0.614763306,
				"z": -2.665778729,
				"element": "N" 
			},
			{
				"x": -3.8556570783,
				"y": 0.4914506796,
				"z": -1.7910350627,
				"element": "N" 
			},
			{
				"x": 0.5534941121,
				"y": -0.3071359873,
				"z": 3.5734889011,
				"element": "H" 
			},
			{
				"x": 1.0553906885,
				"y": -1.809645324,
				"z": 4.3693301078,
				"element": "H" 
			},
			{
				"x": -0.4727604831,
				"y": -1.7450098771,
				"z": 3.4831681951,
				"element": "H" 
			},
			{
				"x": 1.847909924,
				"y": -3.7227548947,
				"z": 1.2161707288,
				"element": "H" 
			},
			{
				"x": 1.8177084657,
				"y": -3.8126888608,
				"z": 2.9867244857,
				"element": "H" 
			},
			{
				"x": 0.3035064838,
				"y": -3.7902225965,
				"z": 2.074729469,
				"element": "H" 
			},
			{
				"x": 3.2386481293,
				"y": -1.7973597524,
				"z": 3.2048768459,
				"element": "H" 
			},
			{
				"x": 3.3748895365,
				"y": -1.6684545444,
				"z": 1.4493000501,
				"element": "H" 
			},
			{
				"x": 2.8454238066,
				"y": -0.2718231549,
				"z": 2.4072095816,
				"element": "H" 
			},
			{
				"x": 2.2741054476,
				"y": -0.1132751663,
				"z": 0.1985324521,
				"element": "H" 
			},
			{
				"x": 1.0750425656,
				"y": 0.7811373175,
				"z": -1.7457032916,
				"element": "H" 
			},
			{
				"x": -2.4372926992,
				"y": -1.3956675807,
				"z": -0.5665386655,
				"element": "H" 
			},
			{
				"x": -1.2646781427,
				"y": -2.2560692112,
				"z": 1.3721238209,
				"element": "H" 
			},
			{
				"x": -5.0820071869,
				"y": 1.539403497,
				"z": -3.5203922136,
				"element": "H" 
			},
			{
				"x": -4.085400644,
				"y": -0.4910101527,
				"z": -1.6646938259,
				"element": "H" 
			},
			{
				"x": -3.6061294274,
				"y": 0.890311532,
				"z": -0.8891531873,
				"element": "H" 
			}
		],
		 "valence_orbital": [ 
			{
				"type": "occ",
				"energy": -0.29422,
				"method": "rhf"
			},
			{
				"type": "occ",
				"energy": -0.26275,
				"method": "rhf"
			},
			{
				"type": "occ",
				"energy": -0.26018,
				"method": "rhf"
			},
			{
				"type": "occ",
				"energy": -0.24729,
				"method": "rhf"
			},
			{
				"type": "occ",
				"energy": -0.21559,
				"method": "rhf"
			},
			{
				"type": "unocc",
				"energy": -0.03671,
				"method": "rhf"
			},
			{
				"type": "unocc",
				"energy": -0.01358,
				"method": "rhf"
			},
			{
				"type": "unocc",
				"energy": 0.0209,
				"method": "rhf"
			},
			{
				"type": "unocc",
				"energy": 0.03237,
				"method": "rhf"
			},
			{
				"type": "unocc",
				"energy": 0.03794,
				"method": "rhf"
			}
		],
		"cosmo_sigma_profile": { 
			"-0.025": 0.0,
			"-0.024": 0.0,
			"-0.023": 0.0,
			"-0.022": 0.0,
			"-0.021": 0.0,
			"-0.02": 0.0,
			"-0.019": 0.0,
			"-0.018": 0.0,
			"-0.017": 0.0,
			"-0.016": 0.0,
			"-0.015": 0.479437160127,
			"-0.014": 2.8896153983,
			"-0.013": 3.87840525522,
			"-0.012": 3.56732755718,
			"-0.011": 3.61206066345,
			"-0.01": 3.42487979299,
			"-0.009": 3.52189514085,
			"-0.008": 3.0476846801,
			"-0.007": 3.42941185242,
			"-0.006": 5.59150622415,
			"-0.005": 10.7014502007,
			"-0.004": 12.542932356,
			"-0.003": 26.3292835089,
			"-0.002": 29.5891868566,
			"-0.001": 25.5363207786,
			"0.0": 25.97854904,
			"0.001": 32.436864398,
			"0.002": 20.1469534979,
			"0.003": 15.6263659462,
			"0.004": 15.2498573084,
			"0.005": 14.3376152312,
			"0.006": 5.8107315195,
			"0.007": 3.96572877513,
			"0.008": 2.05692733022,
			"0.009": 2.46642693189,
			"0.01": 2.44656091316,
			"0.011": 1.71528890967,
			"0.012": 2.47098997379,
			"0.013": 3.29597990624,
			"0.014": 3.10241343471,
			"0.015": 2.86504738353,
			"0.016": 1.85128980822,
			"0.017": 0.436256965543,
			"0.018": 0.0,
			"0.019": 0.0,
			"0.02": 0.0,
			"0.021": 0.0,
			"0.022": 0.0,
			"0.023": 0.0,
			"0.024": 0.0,
			"0.025": 0.0
		}
	}
}
