{
	 "smiles": "IC1=NC=CN1", 
	 "Tm": 464.15, 
	 "num_atms": 9, 
	 "gaussian": { 
		 "optdone": 1, 
		 "sigma_profile": "no", 
		 "theory": "DFT", 
		 "functional": "B3LYP", 
		 "basiset": "6-31G**", 
		 "properties": { 
			 "R2extent": 837.5453, 
			 "electric_dipole_moment_norm": 3.71434564627, 
			 "electric_quadrupole_moment_norm": 8.95019501799, 
			 "total_energy": -236.998651643, 
			 "HOMO_LUMO_gap": 0.18695, 
			 "cosmo_polarized_energy": -104485.42, 
			 "cosmo_cavitation_energy": 16.45, 
			 "cosmo_dispersion_energy": -14.09, 
			 "cosmo_repulsion_energy": 1.17, 
			 "cosmo_total_nonelectrostatic_energy": 3.53, 
			 "SMD_solvation_energy": 0.56 
		},
		"coords": [
			{
				"x": -1.2327286683,
				"y": -1.5080789463,
				"z": -0.9175577728,
				"element": "I" 
			},
			{
				"x": -1.1804007471,
				"y": 0.2601295235,
				"z": 0.1917727193,
				"element": "C" 
			},
			{
				"x": -2.216197472,
				"y": 0.9068301027,
				"z": 0.6610172252,
				"element": "N" 
			},
			{
				"x": -1.6846831293,
				"y": 1.9992570761,
				"z": 1.3162323374,
				"element": "C" 
			},
			{
				"x": -0.3154895154,
				"y": 1.9996994533,
				"z": 1.2338096479,
				"element": "C" 
			},
			{
				"x": 0.0024934074,
				"y": 0.8701287384,
				"z": 0.5040973949,
				"element": "N" 
			},
			{
				"x": -2.3239528258,
				"y": 2.7189399077,
				"z": 1.8075394653,
				"element": "H" 
			},
			{
				"x": 0.4415290982,
				"y": 2.6701502979,
				"z": 1.6098357621,
				"element": "H" 
			},
			{
				"x": 0.9239298522,
				"y": 0.5505438466,
				"z": 0.2474532205,
				"element": "H" 
			}
		],
		 "valence_orbital": [ 
			{
				"type": "occ",
				"energy": -0.30154,
				"method": "rhf"
			},
			{
				"type": "occ",
				"energy": -0.28878,
				"method": "rhf"
			},
			{
				"type": "occ",
				"energy": -0.28524,
				"method": "rhf"
			},
			{
				"type": "occ",
				"energy": -0.27651,
				"method": "rhf"
			},
			{
				"type": "occ",
				"energy": -0.22956,
				"method": "rhf"
			},
			{
				"type": "unocc",
				"energy": -0.04261,
				"method": "rhf"
			},
			{
				"type": "unocc",
				"energy": 0.01158,
				"method": "rhf"
			},
			{
				"type": "unocc",
				"energy": 0.03503,
				"method": "rhf"
			},
			{
				"type": "unocc",
				"energy": 0.04833,
				"method": "rhf"
			},
			{
				"type": "unocc",
				"energy": 0.05736,
				"method": "rhf"
			}
		],
		"cosmo_sigma_profile": { 
			"0.0": 0.0,
			"0.0": 0.0,
			"0.0": 0.0,
			"0.0": 0.0,
			"0.0": 0.0,
			"0.0": 0.0,
			"0.0": 0.0,
			"0.0": 0.0,
			"0.0": 0.0,
			"0.0": 0.0,
			"0.0": 0.0,
			"0.0": 0.0,
			"0.0": 0.0,
			"0.0": 0.0,
			"0.0": 0.0,
			"0.0": 0.0,
			"0.0": 0.0,
			"0.0": 0.0,
			"0.0": 0.0,
			"0.0": 0.0,
			"0.0": 0.0,
			"0.0": 0.0,
			"0.0": 0.0,
			"0.0": 0.0,
			"0.0": 0.0,
			"0.0": 0.0,
			"0.0": 0.0,
			"0.0": 0.0,
			"0.0": 0.0,
			"0.0": 0.0,
			"0.0": 0.0,
			"0.0": 0.0,
			"0.0": 0.0,
			"0.0": 0.0,
			"0.0": 0.0,
			"0.0": 0.0,
			"0.0": 0.0,
			"0.0": 0.0,
			"0.0": 0.0,
			"0.0": 0.0,
			"0.0": 0.0,
			"0.0": 0.0,
			"0.0": 0.0,
			"0.0": 0.0,
			"0.0": 0.0,
			"0.0": 0.0,
			"0.0": 0.0,
			"0.0": 0.0,
			"0.0": 0.0,
			"0.0": 0.0,
			"0.0": 0.0
		}
	}
}
