{
	 "smiles": "CC(=O)N1C=CN=C1", 
	 "Tm": 375.15, 
	 "num_atms": 14, 
	 "gaussian": { 
		 "optdone": 1, 
		 "sigma_profile": "yes", 
		 "theory": "DFT", 
		 "functional": "B3LYP", 
		 "basiset": "6-31G**", 
		 "properties": { 
			 "R2extent": 1195.4703, 
			 "electric_dipole_moment_norm": 2.02832778909, 
			 "electric_quadrupole_moment_norm": 12.2398495383, 
			 "total_energy": -378.869387877, 
			 "HOMO_LUMO_gap": 0.19561, 
			 "cosmo_polarized_energy": -11.03, 
			 "cosmo_cavitation_energy": 18.39, 
			 "cosmo_dispersion_energy": -13.52, 
			 "cosmo_repulsion_energy": 1.1, 
			 "cosmo_total_nonelectrostatic_energy": 5.97, 
			 "SMD_solvation_energy": 3.45 
		},
		"coords": [
			{
				"x": -0.2651289822,
				"y": -1.4955314413,
				"z": 1.4816386379,
				"element": "C" 
			},
			{
				"x": -0.9635029146,
				"y": -0.1583440656,
				"z": 1.5920960064,
				"element": "C" 
			},
			{
				"x": -1.4922322415,
				"y": 0.2461450313,
				"z": 2.604749826,
				"element": "O" 
			},
			{
				"x": -0.9755996732,
				"y": 0.6355767465,
				"z": 0.419065871,
				"element": "N" 
			},
			{
				"x": -1.5666490013,
				"y": 1.8941190991,
				"z": 0.320187099,
				"element": "C" 
			},
			{
				"x": -1.3499601331,
				"y": 2.2982919996,
				"z": -0.9630872228,
				"element": "C" 
			},
			{
				"x": -0.6426120704,
				"y": 1.3377561328,
				"z": -1.6764788629,
				"element": "N" 
			},
			{
				"x": -0.4354376406,
				"y": 0.3655205292,
				"z": -0.8321274279,
				"element": "C" 
			},
			{
				"x": 0.7877026358,
				"y": -1.3673048193,
				"z": 1.2110742765,
				"element": "H" 
			},
			{
				"x": -0.332705671,
				"y": -1.992610083,
				"z": 2.4485993445,
				"element": "H" 
			},
			{
				"x": -0.7351840831,
				"y": -2.1217554227,
				"z": 0.7167908342,
				"element": "H" 
			},
			{
				"x": -2.0615752874,
				"y": 2.3372542504,
				"z": 1.1682801342,
				"element": "H" 
			},
			{
				"x": -1.6568805669,
				"y": 3.2238993264,
				"z": -1.4292782756,
				"element": "H" 
			},
			{
				"x": 0.0896656294,
				"y": -0.5539172834,
				"z": -1.0470102406,
				"element": "H" 
			}
		],
		 "valence_orbital": [ 
			{
				"type": "occ",
				"energy": -0.38099,
				"method": "rhf"
			},
			{
				"type": "occ",
				"energy": -0.29918,
				"method": "rhf"
			},
			{
				"type": "occ",
				"energy": -0.29265,
				"method": "rhf"
			},
			{
				"type": "occ",
				"energy": -0.27166,
				"method": "rhf"
			},
			{
				"type": "occ",
				"energy": -0.24444,
				"method": "rhf"
			},
			{
				"type": "unocc",
				"energy": -0.04883,
				"method": "rhf"
			},
			{
				"type": "unocc",
				"energy": 0.04915,
				"method": "rhf"
			},
			{
				"type": "unocc",
				"energy": 0.05781,
				"method": "rhf"
			},
			{
				"type": "unocc",
				"energy": 0.08419,
				"method": "rhf"
			},
			{
				"type": "unocc",
				"energy": 0.12763,
				"method": "rhf"
			}
		],
		"cosmo_sigma_profile": { 
			"-0.025": 0.0,
			"-0.024": 0.0,
			"-0.023": 0.0,
			"-0.022": 0.0,
			"-0.021": 0.0,
			"-0.02": 0.0,
			"-0.019": 0.0,
			"-0.018": 0.0,
			"-0.017": 0.0,
			"-0.016": 0.0,
			"-0.015": 0.0,
			"-0.014": 0.0,
			"-0.013": 0.0,
			"-0.012": 0.0,
			"-0.011": 0.0,
			"-0.01": 1.22312949073,
			"-0.009": 3.73597980715,
			"-0.008": 8.42723939593,
			"-0.007": 9.55698119073,
			"-0.006": 9.13598175294,
			"-0.005": 9.37642526344,
			"-0.004": 9.80113244235,
			"-0.003": 11.3062416221,
			"-0.002": 10.5364696793,
			"-0.001": 7.04357262869,
			"0.0": 6.80912053665,
			"0.001": 6.76900833426,
			"0.002": 6.72628626571,
			"0.003": 6.38483453563,
			"0.004": 7.5297464752,
			"0.005": 4.44720853344,
			"0.006": 2.09618552349,
			"0.007": 2.85069588343,
			"0.008": 4.12180337754,
			"0.009": 3.18879506757,
			"0.01": 4.31787948958,
			"0.011": 4.85464250635,
			"0.012": 2.11216411614,
			"0.013": 1.01948603261,
			"0.014": 1.43083780056,
			"0.015": 0.855947797313,
			"0.016": 1.04495032215,
			"0.017": 0.648012400053,
			"0.018": 0.0,
			"0.019": 0.0,
			"0.02": 0.0,
			"0.021": 0.0,
			"0.022": 0.0,
			"0.023": 0.0,
			"0.024": 0.0,
			"0.025": 0.0
		}
	}
}
