{
	 "smiles": "C[C@@H](CCC(O)=O)C1CCC2[C@H](C(CC[C@]12C)[C@@]1(C)CCCC[C@H]1C(O)=O)C(O)=O", 
	 "Tm": 539.15, 
	 "num_atms": 68, 
	 "gaussian": { 
		 "optdone": 1, 
		 "sigma_profile": "yes", 
		 "theory": "DFT", 
		 "functional": "B3LYP", 
		 "basiset": "6-31G**", 
		 "properties": { 
			 "R2extent": 14297.4031, 
			 "electric_dipole_moment_norm": 4.39424557461, 
			 "electric_quadrupole_moment_norm": 28.9169140892, 
			 "total_energy": -1388.85776178, 
			 "HOMO_LUMO_gap": 0.26585, 
			 "cosmo_polarized_energy": -27.91, 
			 "cosmo_cavitation_energy": 58.17, 
			 "cosmo_dispersion_energy": -38.23, 
			 "cosmo_repulsion_energy": 2.82, 
			 "cosmo_total_nonelectrostatic_energy": 22.76, 
			 "SMD_solvation_energy": 10.89 
		},
		"coords": [
			{
				"x": 1.1802061161,
				"y": -3.6362137111,
				"z": 3.2446750129,
				"element": "C" 
			},
			{
				"x": 0.6202692995,
				"y": -2.7419474405,
				"z": 2.1215055842,
				"element": "C" 
			},
			{
				"x": -0.2589220138,
				"y": -1.6049156442,
				"z": 2.6866535247,
				"element": "C" 
			},
			{
				"x": -1.4625705978,
				"y": -2.0745473575,
				"z": 3.5355894473,
				"element": "C" 
			},
			{
				"x": -2.3658062609,
				"y": -3.0347487586,
				"z": 2.7952491805,
				"element": "C" 
			},
			{
				"x": -2.9646147084,
				"y": -2.4429909971,
				"z": 1.7272791182,
				"element": "O" 
			},
			{
				"x": -2.5501728053,
				"y": -4.1990857011,
				"z": 3.074098952,
				"element": "O" 
			},
			{
				"x": 1.7733767781,
				"y": -2.27555153,
				"z": 1.1886230607,
				"element": "C" 
			},
			{
				"x": 2.8113378109,
				"y": -1.3299916314,
				"z": 1.889835636,
				"element": "C" 
			},
			{
				"x": 3.0067938129,
				"y": -0.0964725642,
				"z": 0.9752592511,
				"element": "C" 
			},
			{
				"x": 1.7005834988,
				"y": -0.0604301248,
				"z": 0.1719918737,
				"element": "C" 
			},
			{
				"x": 1.5318780894,
				"y": 0.9587700773,
				"z": -0.9940736863,
				"element": "C" 
			},
			{
				"x": 0.2571060314,
				"y": 0.6398563525,
				"z": -1.8454566876,
				"element": "C" 
			},
			{
				"x": -0.6798231687,
				"y": -0.3173281819,
				"z": -1.0722710811,
				"element": "C" 
			},
			{
				"x": -0.0267606442,
				"y": -1.6766813469,
				"z": -0.742468718,
				"element": "C" 
			},
			{
				"x": 1.4200126729,
				"y": -1.5487520653,
				"z": -0.1742108062,
				"element": "C" 
			},
			{
				"x": 2.4025786418,
				"y": -2.1068513212,
				"z": -1.2327064422,
				"element": "C" 
			},
			{
				"x": -0.471923796,
				"y": 1.9307938203,
				"z": -2.390007183,
				"element": "C" 
			},
			{
				"x": -1.1244075154,
				"y": 2.709739322,
				"z": -1.2244125952,
				"element": "C" 
			},
			{
				"x": 0.5414721616,
				"y": 2.8407235659,
				"z": -3.1402698771,
				"element": "C" 
			},
			{
				"x": -0.0905483932,
				"y": 4.047987111,
				"z": -3.8541560508,
				"element": "C" 
			},
			{
				"x": -1.1846798093,
				"y": 3.6153192161,
				"z": -4.8370300197,
				"element": "C" 
			},
			{
				"x": -2.2303420957,
				"y": 2.7358825522,
				"z": -4.1409220375,
				"element": "C" 
			},
			{
				"x": -1.6216247822,
				"y": 1.5186091375,
				"z": -3.3906660664,
				"element": "C" 
			},
			{
				"x": -1.1692494365,
				"y": 0.4836715208,
				"z": -4.408869187,
				"element": "C" 
			},
			{
				"x": -1.8067656036,
				"y": -0.7064414779,
				"z": -4.2427069523,
				"element": "O" 
			},
			{
				"x": -0.36154005,
				"y": 0.6461869816,
				"z": -5.2999330131,
				"element": "O" 
			},
			{
				"x": 2.7882309977,
				"y": 1.0845179634,
				"z": -1.8664170193,
				"element": "C" 
			},
			{
				"x": 3.7855627427,
				"y": 1.8487343678,
				"z": -1.3382972286,
				"element": "O" 
			},
			{
				"x": 2.9545496823,
				"y": 0.5707527032,
				"z": -2.9458482124,
				"element": "O" 
			},
			{
				"x": 0.3787877512,
				"y": -4.1396725918,
				"z": 3.7922783168,
				"element": "H" 
			},
			{
				"x": 1.8293392141,
				"y": -4.4153636307,
				"z": 2.8315478007,
				"element": "H" 
			},
			{
				"x": 1.7725272385,
				"y": -3.0595274635,
				"z": 3.9648216157,
				"element": "H" 
			},
			{
				"x": -0.0287204827,
				"y": -3.3846445019,
				"z": 1.5102060873,
				"element": "H" 
			},
			{
				"x": 0.3438351835,
				"y": -0.9413370214,
				"z": 3.3180112023,
				"element": "H" 
			},
			{
				"x": -0.6466859012,
				"y": -0.9921193728,
				"z": 1.868609935,
				"element": "H" 
			},
			{
				"x": -1.1406450188,
				"y": -2.5758295313,
				"z": 4.4495372885,
				"element": "H" 
			},
			{
				"x": -2.0556677779,
				"y": -1.1980608214,
				"z": 3.8206688579,
				"element": "H" 
			},
			{
				"x": -3.5020601067,
				"y": -3.1336682086,
				"z": 1.3039258984,
				"element": "H" 
			},
			{
				"x": 2.2869779065,
				"y": -3.2055075284,
				"z": 0.9201605258,
				"element": "H" 
			},
			{
				"x": 2.4367128538,
				"y": -1.0050603917,
				"z": 2.865513891,
				"element": "H" 
			},
			{
				"x": 3.7585932302,
				"y": -1.8409616875,
				"z": 2.0837392152,
				"element": "H" 
			},
			{
				"x": 3.1757137535,
				"y": 0.8185518716,
				"z": 1.5577975671,
				"element": "H" 
			},
			{
				"x": 3.8753428819,
				"y": -0.2250021255,
				"z": 0.3227249741,
				"element": "H" 
			},
			{
				"x": 0.9232430875,
				"y": 0.2262949697,
				"z": 0.891064823,
				"element": "H" 
			},
			{
				"x": 1.4037665853,
				"y": 1.937550824,
				"z": -0.5121311038,
				"element": "H" 
			},
			{
				"x": 0.6293720012,
				"y": 0.0998291698,
				"z": -2.724068295,
				"element": "H" 
			},
			{
				"x": -1.0238058056,
				"y": 0.1612486296,
				"z": -0.147688221,
				"element": "H" 
			},
			{
				"x": -1.5788100164,
				"y": -0.5162728084,
				"z": -1.6599719176,
				"element": "H" 
			},
			{
				"x": 0.0046433236,
				"y": -2.2714197019,
				"z": -1.6628213314,
				"element": "H" 
			},
			{
				"x": -0.6925162178,
				"y": -2.2172353148,
				"z": -0.0644176533,
				"element": "H" 
			},
			{
				"x": 2.1851640739,
				"y": -3.1691849961,
				"z": -1.3925558225,
				"element": "H" 
			},
			{
				"x": 3.448053025,
				"y": -2.037739113,
				"z": -0.9149427758,
				"element": "H" 
			},
			{
				"x": 2.316084994,
				"y": -1.5971877478,
				"z": -2.1937210042,
				"element": "H" 
			},
			{
				"x": -0.3834140908,
				"y": 2.9841333746,
				"z": -0.4659423629,
				"element": "H" 
			},
			{
				"x": -1.5844005536,
				"y": 3.6408013891,
				"z": -1.5610586293,
				"element": "H" 
			},
			{
				"x": -1.90355496,
				"y": 2.1226223341,
				"z": -0.7295291019,
				"element": "H" 
			},
			{
				"x": 1.0735719281,
				"y": 2.2350646974,
				"z": -3.8794115493,
				"element": "H" 
			},
			{
				"x": 1.2939204319,
				"y": 3.2098658678,
				"z": -2.432832653,
				"element": "H" 
			},
			{
				"x": 0.6965518985,
				"y": 4.5954759285,
				"z": -4.3857000576,
				"element": "H" 
			},
			{
				"x": -0.5074842777,
				"y": 4.7523808398,
				"z": -3.1218861479,
				"element": "H" 
			},
			{
				"x": -0.7314712719,
				"y": 3.0551936431,
				"z": -5.6605271333,
				"element": "H" 
			},
			{
				"x": -1.6776240367,
				"y": 4.4927545537,
				"z": -5.2729723156,
				"element": "H" 
			},
			{
				"x": -2.970109418,
				"y": 2.3730047545,
				"z": -4.8648060655,
				"element": "H" 
			},
			{
				"x": -2.7914510855,
				"y": 3.3342844064,
				"z": -3.413416884,
				"element": "H" 
			},
			{
				"x": -2.4259494433,
				"y": 1.0547873255,
				"z": -2.8141273997,
				"element": "H" 
			},
			{
				"x": -1.4582769817,
				"y": -1.2918236189,
				"z": -4.9375103195,
				"element": "H" 
			},
			{
				"x": 3.5214394292,
				"y": 2.1809787608,
				"z": -0.4689070326,
				"element": "H" 
			}
		],
		 "valence_orbital": [ 
			{
				"type": "occ",
				"energy": -0.28947,
				"method": "rhf"
			},
			{
				"type": "occ",
				"energy": -0.27982,
				"method": "rhf"
			},
			{
				"type": "occ",
				"energy": -0.2755,
				"method": "rhf"
			},
			{
				"type": "occ",
				"energy": -0.26586,
				"method": "rhf"
			},
			{
				"type": "occ",
				"energy": -0.26338,
				"method": "rhf"
			},
			{
				"type": "unocc",
				"energy": 0.00247,
				"method": "rhf"
			},
			{
				"type": "unocc",
				"energy": 0.00567,
				"method": "rhf"
			},
			{
				"type": "unocc",
				"energy": 0.00841,
				"method": "rhf"
			},
			{
				"type": "unocc",
				"energy": 0.04853,
				"method": "rhf"
			},
			{
				"type": "unocc",
				"energy": 0.06185,
				"method": "rhf"
			}
		],
		"cosmo_sigma_profile": { 
			"-0.025": 0.0,
			"-0.024": 0.0,
			"-0.023": 0.0,
			"-0.022": 0.0,
			"-0.021": 0.0,
			"-0.02": 0.0,
			"-0.019": 0.0,
			"-0.018": 0.51551470741,
			"-0.017": 2.81723860188,
			"-0.016": 2.92216270641,
			"-0.015": 2.23697210702,
			"-0.014": 2.66059764701,
			"-0.013": 2.40888829039,
			"-0.012": 2.72284121419,
			"-0.011": 2.60075677498,
			"-0.01": 2.17164625751,
			"-0.009": 2.50212724034,
			"-0.008": 2.7775885611,
			"-0.007": 3.34202986196,
			"-0.006": 5.98067657254,
			"-0.005": 8.63027990672,
			"-0.004": 22.5137979737,
			"-0.003": 43.8474886429,
			"-0.002": 57.7967185418,
			"-0.001": 58.7567881919,
			"0.0": 54.9118949496,
			"0.001": 44.9106190587,
			"0.002": 24.0838227715,
			"0.003": 12.7016592748,
			"0.004": 8.05024666767,
			"0.005": 9.51822371223,
			"0.006": 8.96046079798,
			"0.007": 7.90682180164,
			"0.008": 7.60179980191,
			"0.009": 7.15162084261,
			"0.01": 9.03505432461,
			"0.011": 10.4524278458,
			"0.012": 11.7874668053,
			"0.013": 3.14880236971,
			"0.014": 0.100250747213,
			"0.015": 0.0,
			"0.016": 0.0,
			"0.017": 0.0,
			"0.018": 0.0,
			"0.019": 0.0,
			"0.02": 0.0,
			"0.021": 0.0,
			"0.022": 0.0,
			"0.023": 0.0,
			"0.024": 0.0,
			"0.025": 0.0
		}
	}
}
