{
	 "smiles": "CC1SC(C)SC(C)S1", 
	 "Tm": 374.15, 
	 "num_atms": 21, 
	 "gaussian": { 
		 "optdone": 1, 
		 "sigma_profile": "yes", 
		 "theory": "DFT", 
		 "functional": "B3LYP", 
		 "basiset": "6-31G**", 
		 "properties": { 
			 "R2extent": 2054.8838, 
			 "electric_dipole_moment_norm": 0.979724165263, 
			 "electric_quadrupole_moment_norm": 6.31727166346, 
			 "total_energy": -1430.43033577, 
			 "HOMO_LUMO_gap": 0.21508, 
			 "cosmo_polarized_energy": -6.54, 
			 "cosmo_cavitation_energy": 25.79, 
			 "cosmo_dispersion_energy": -20.32, 
			 "cosmo_repulsion_energy": 1.51, 
			 "cosmo_total_nonelectrostatic_energy": 6.98, 
			 "SMD_solvation_energy": 2.87 
		},
		"coords": [
			{
				"x": -1.6726133612,
				"y": 1.3244554578,
				"z": 1.5596814543,
				"element": "C" 
			},
			{
				"x": -1.3190560418,
				"y": 0.6001176634,
				"z": 0.2588897692,
				"element": "C" 
			},
			{
				"x": -0.3096870872,
				"y": -0.9337385425,
				"z": 0.5114600535,
				"element": "S" 
			},
			{
				"x": 1.4368041957,
				"y": -0.4130707568,
				"z": 0.2894048613,
				"element": "C" 
			},
			{
				"x": 1.9522557494,
				"y": 0.6131505224,
				"z": 1.3012336322,
				"element": "C" 
			},
			{
				"x": 1.8661783138,
				"y": 0.0498241022,
				"z": -1.4645820845,
				"element": "S" 
			},
			{
				"x": 0.2718298749,
				"y": 0.7245508275,
				"z": -2.1018335949,
				"element": "C" 
			},
			{
				"x": 0.5613386225,
				"y": 1.4937698472,
				"z": -3.3909341784,
				"element": "C" 
			},
			{
				"x": -0.5944509213,
				"y": 1.8279697043,
				"z": -0.9167072337,
				"element": "S" 
			},
			{
				"x": -0.7810215675,
				"y": 1.7072444103,
				"z": 2.0605522743,
				"element": "H" 
			},
			{
				"x": -2.1836172918,
				"y": 0.6376173566,
				"z": 2.2402234846,
				"element": "H" 
			},
			{
				"x": -2.3444223607,
				"y": 2.1664218642,
				"z": 1.3554957038,
				"element": "H" 
			},
			{
				"x": -2.2346678605,
				"y": 0.2064890403,
				"z": -0.1928278877,
				"element": "H" 
			},
			{
				"x": 1.9615956889,
				"y": -1.3611497418,
				"z": 0.4404664784,
				"element": "H" 
			},
			{
				"x": 3.0319409207,
				"y": 0.7426863998,
				"z": 1.1734126456,
				"element": "H" 
			},
			{
				"x": 1.7594734739,
				"y": 0.2669142303,
				"z": 2.3219907022,
				"element": "H" 
			},
			{
				"x": 1.4805444537,
				"y": 1.5859922441,
				"z": 1.1543688159,
				"element": "H" 
			},
			{
				"x": -0.3934374784,
				"y": -0.1177279188,
				"z": -2.3052904579,
				"element": "H" 
			},
			{
				"x": 1.1687294565,
				"y": 2.3816607236,
				"z": -3.1950199345,
				"element": "H" 
			},
			{
				"x": -0.3760235614,
				"y": 1.8051551316,
				"z": -3.8606213958,
				"element": "H" 
			},
			{
				"x": 1.1065067821,
				"y": 0.8568674341,
				"z": -4.0947631079,
				"element": "H" 
			}
		],
		 "valence_orbital": [ 
			{
				"type": "occ",
				"energy": -0.31776,
				"method": "rhf"
			},
			{
				"type": "occ",
				"energy": -0.30186,
				"method": "rhf"
			},
			{
				"type": "occ",
				"energy": -0.23823,
				"method": "rhf"
			},
			{
				"type": "occ",
				"energy": -0.23517,
				"method": "rhf"
			},
			{
				"type": "occ",
				"energy": -0.21717,
				"method": "rhf"
			},
			{
				"type": "unocc",
				"energy": -0.00209,
				"method": "rhf"
			},
			{
				"type": "unocc",
				"energy": 0.00209,
				"method": "rhf"
			},
			{
				"type": "unocc",
				"energy": 0.05217,
				"method": "rhf"
			},
			{
				"type": "unocc",
				"energy": 0.06789,
				"method": "rhf"
			},
			{
				"type": "unocc",
				"energy": 0.07487,
				"method": "rhf"
			}
		],
		"cosmo_sigma_profile": { 
			"-0.025": 0.0,
			"-0.024": 0.0,
			"-0.023": 0.0,
			"-0.022": 0.0,
			"-0.021": 0.0,
			"-0.02": 0.0,
			"-0.019": 0.0,
			"-0.018": 0.0,
			"-0.017": 0.0,
			"-0.016": 0.0,
			"-0.015": 0.0,
			"-0.014": 0.0,
			"-0.013": 0.0,
			"-0.012": 0.0,
			"-0.011": 0.0,
			"-0.01": 0.0,
			"-0.009": 0.0,
			"-0.008": 1.34995658786,
			"-0.007": 3.58056858841,
			"-0.006": 6.49552360097,
			"-0.005": 11.5432756571,
			"-0.004": 22.5104005643,
			"-0.003": 21.6187809818,
			"-0.002": 23.0809216565,
			"-0.001": 23.2266253511,
			"0.0": 20.0492512253,
			"0.001": 9.5286239983,
			"0.002": 8.0926096708,
			"0.003": 6.83227476851,
			"0.004": 9.00018680429,
			"0.005": 10.5787399076,
			"0.006": 8.20994633098,
			"0.007": 8.59984025358,
			"0.008": 6.02626972269,
			"0.009": 3.72472625648,
			"0.01": 2.14286605963,
			"0.011": 0.470002609949,
			"0.012": 0.0,
			"0.013": 0.0,
			"0.014": 0.0,
			"0.015": 0.0,
			"0.016": 0.0,
			"0.017": 0.0,
			"0.018": 0.0,
			"0.019": 0.0,
			"0.02": 0.0,
			"0.021": 0.0,
			"0.022": 0.0,
			"0.023": 0.0,
			"0.024": 0.0,
			"0.025": 0.0
		}
	}
}
