{
	 "smiles": "FC(F)(F)OC1=CC=C(NC(=O)CCl)C=C1", 
	 "Tm": 345.65, 
	 "num_atms": 23, 
	 "gaussian": { 
		 "optdone": 1, 
		 "sigma_profile": "yes", 
		 "theory": "DFT", 
		 "functional": "B3LYP", 
		 "basiset": "6-31G**", 
		 "properties": { 
			 "R2extent": 6643.7595, 
			 "electric_dipole_moment_norm": 2.43524182577, 
			 "electric_quadrupole_moment_norm": 17.8940561246, 
			 "total_energy": -1312.09793964, 
			 "HOMO_LUMO_gap": 0.19956, 
			 "cosmo_polarized_energy": -12.28, 
			 "cosmo_cavitation_energy": 31.12, 
			 "cosmo_dispersion_energy": -22.29, 
			 "cosmo_repulsion_energy": 1.69, 
			 "cosmo_total_nonelectrostatic_energy": 10.52, 
			 "SMD_solvation_energy": 7.31 
		},
		"coords": [
			{
				"x": -1.2366694942,
				"y": -3.5595406503,
				"z": 3.5482743628,
				"element": "F" 
			},
			{
				"x": -1.8611584922,
				"y": -3.679246829,
				"z": 2.3598551743,
				"element": "C" 
			},
			{
				"x": -1.2011015251,
				"y": -4.6207022452,
				"z": 1.6565813382,
				"element": "F" 
			},
			{
				"x": -3.1039109096,
				"y": -4.1031202545,
				"z": 2.5740214307,
				"element": "F" 
			},
			{
				"x": -1.9444363916,
				"y": -2.4995285175,
				"z": 1.6967695709,
				"element": "O" 
			},
			{
				"x": -0.7995081511,
				"y": -1.792457811,
				"z": 1.3283116577,
				"element": "C" 
			},
			{
				"x": -1.0537576798,
				"y": -0.5974481834,
				"z": 0.657576872,
				"element": "C" 
			},
			{
				"x": 0.0029704659,
				"y": 0.1964514529,
				"z": 0.221930585,
				"element": "C" 
			},
			{
				"x": 1.3255544902,
				"y": -0.1837444903,
				"z": 0.4899709534,
				"element": "C" 
			},
			{
				"x": 2.437642083,
				"y": 0.5806269142,
				"z": 0.0534222107,
				"element": "N" 
			},
			{
				"x": 2.7142583324,
				"y": 1.9291432789,
				"z": 0.1388434046,
				"element": "C" 
			},
			{
				"x": 3.7649824949,
				"y": 2.3790700241,
				"z": -0.2877096548,
				"element": "O" 
			},
			{
				"x": 1.6950089024,
				"y": 2.8349212848,
				"z": 0.8250114319,
				"element": "C" 
			},
			{
				"x": 0.6574692277,
				"y": 3.6888219648,
				"z": -0.3942820431,
				"element": "Cl" 
			},
			{
				"x": 1.5617629639,
				"y": -1.3893229059,
				"z": 1.1627280093,
				"element": "C" 
			},
			{
				"x": 0.5101803639,
				"y": -2.2048725396,
				"z": 1.5766585849,
				"element": "C" 
			},
			{
				"x": -2.0814585949,
				"y": -0.3119914863,
				"z": 0.4614824332,
				"element": "H" 
			},
			{
				"x": -0.2017272242,
				"y": 1.1004824162,
				"z": -0.3402271819,
				"element": "H" 
			},
			{
				"x": 3.2294962305,
				"y": 0.0657182548,
				"z": -0.3138098268,
				"element": "H" 
			},
			{
				"x": 1.0264267937,
				"y": 2.3089269785,
				"z": 1.5051919383,
				"element": "H" 
			},
			{
				"x": 2.2521437794,
				"y": 3.608384177,
				"z": 1.350655307,
				"element": "H" 
			},
			{
				"x": 2.5831431176,
				"y": -1.6927731103,
				"z": 1.3733741244,
				"element": "H" 
			},
			{
				"x": 0.7226892171,
				"y": -3.131897723,
				"z": 2.0916693176,
				"element": "H" 
			}
		],
		 "valence_orbital": [ 
			{
				"type": "occ",
				"energy": -0.31343,
				"method": "rhf"
			},
			{
				"type": "occ",
				"energy": -0.30141,
				"method": "rhf"
			},
			{
				"type": "occ",
				"energy": -0.2817,
				"method": "rhf"
			},
			{
				"type": "occ",
				"energy": -0.26986,
				"method": "rhf"
			},
			{
				"type": "occ",
				"energy": -0.24062,
				"method": "rhf"
			},
			{
				"type": "unocc",
				"energy": -0.04106,
				"method": "rhf"
			},
			{
				"type": "unocc",
				"energy": -0.03266,
				"method": "rhf"
			},
			{
				"type": "unocc",
				"energy": -0.01388,
				"method": "rhf"
			},
			{
				"type": "unocc",
				"energy": 0.0512,
				"method": "rhf"
			},
			{
				"type": "unocc",
				"energy": 0.07167,
				"method": "rhf"
			}
		],
		"cosmo_sigma_profile": { 
			"-0.025": 0.0,
			"-0.024": 0.0,
			"-0.023": 0.0,
			"-0.022": 0.0,
			"-0.021": 0.0,
			"-0.02": 0.0,
			"-0.019": 0.0,
			"-0.018": 0.0,
			"-0.017": 0.0,
			"-0.016": 0.0,
			"-0.015": 0.603533552916,
			"-0.014": 1.23477561535,
			"-0.013": 0.94285298719,
			"-0.012": 1.19994090317,
			"-0.011": 1.18683491896,
			"-0.01": 1.26343845381,
			"-0.009": 1.91691147166,
			"-0.008": 7.36131656521,
			"-0.007": 10.8006027723,
			"-0.006": 11.4735376082,
			"-0.005": 10.8442671787,
			"-0.004": 9.16400112802,
			"-0.003": 10.1564269626,
			"-0.002": 12.4277404182,
			"-0.001": 17.9399713958,
			"0.0": 22.6792251323,
			"0.001": 34.8847419251,
			"0.002": 40.9183494136,
			"0.003": 14.7286471772,
			"0.004": 8.87606676303,
			"0.005": 10.190189574,
			"0.006": 4.34214221155,
			"0.007": 1.25912234542,
			"0.008": 1.19558124105,
			"0.009": 1.2704064738,
			"0.01": 1.65518968205,
			"0.011": 2.25294399682,
			"0.012": 4.2434791464,
			"0.013": 4.40795270307,
			"0.014": 0.384240362353,
			"0.015": 0.0,
			"0.016": 0.0,
			"0.017": 0.0,
			"0.018": 0.0,
			"0.019": 0.0,
			"0.02": 0.0,
			"0.021": 0.0,
			"0.022": 0.0,
			"0.023": 0.0,
			"0.024": 0.0,
			"0.0": 0.0
		}
	}
}
