{
	 "smiles": "ClC(=O)C(Cl)(Cl)Cl", 
	 "Tm": 241.35, 
	 "num_atms": 7, 
	 "gaussian": { 
		 "optdone": 1, 
		 "sigma_profile": "yes", 
		 "theory": "DFT", 
		 "functional": "B3LYP", 
		 "basiset": "6-31G**", 
		 "properties": { 
			 "R2extent": 2385.1757, 
			 "electric_dipole_moment_norm": 0.922302867826, 
			 "electric_quadrupole_moment_norm": 2.51521567664, 
			 "total_energy": -1992.17016638, 
			 "HOMO_LUMO_gap": 0.22912, 
			 "cosmo_polarized_energy": -2.6, 
			 "cosmo_cavitation_energy": 18.89, 
			 "cosmo_dispersion_energy": -14.3, 
			 "cosmo_repulsion_energy": 1.21, 
			 "cosmo_total_nonelectrostatic_energy": 5.8, 
			 "SMD_solvation_energy": 3.02 
		},
		"coords": [
			{
				"x": 3.2542421111,
				"y": -1.388899953,
				"z": 0.1602753938,
				"element": "Cl" 
			},
			{
				"x": 1.7012418642,
				"y": -0.6005974087,
				"z": -0.1983092616,
				"element": "C" 
			},
			{
				"x": 1.5993438183,
				"y": 0.5748477033,
				"z": -0.316440642,
				"element": "O" 
			},
			{
				"x": 0.5029435718,
				"y": -1.6017180189,
				"z": -0.3394823793,
				"element": "C" 
			},
			{
				"x": -0.9802167003,
				"y": -0.6825190566,
				"z": -0.6951925151,
				"element": "Cl" 
			},
			{
				"x": 0.8529655188,
				"y": -2.7359472074,
				"z": -1.6846382224,
				"element": "Cl" 
			},
			{
				"x": 0.3100798161,
				"y": -2.4936660587,
				"z": 1.2050876265,
				"element": "Cl" 
			}
		],
		 "valence_orbital": [ 
			{
				"type": "occ",
				"energy": -0.35373,
				"method": "rhf"
			},
			{
				"type": "occ",
				"energy": -0.34197,
				"method": "rhf"
			},
			{
				"type": "occ",
				"energy": -0.33888,
				"method": "rhf"
			},
			{
				"type": "occ",
				"energy": -0.32794,
				"method": "rhf"
			},
			{
				"type": "occ",
				"energy": -0.32032,
				"method": "rhf"
			},
			{
				"type": "unocc",
				"energy": -0.0912,
				"method": "rhf"
			},
			{
				"type": "unocc",
				"energy": -0.06292,
				"method": "rhf"
			},
			{
				"type": "unocc",
				"energy": -0.03336,
				"method": "rhf"
			},
			{
				"type": "unocc",
				"energy": 0.00594,
				"method": "rhf"
			},
			{
				"type": "unocc",
				"energy": 0.00858,
				"method": "rhf"
			}
		],
		"cosmo_sigma_profile": { 
			"-0.025": 0.0,
			"-0.024": 0.0,
			"-0.023": 0.0,
			"-0.022": 0.0,
			"-0.021": 0.0,
			"-0.02": 0.0,
			"-0.019": 0.0,
			"-0.018": 0.0,
			"-0.017": 0.0,
			"-0.016": 0.0,
			"-0.015": 0.0,
			"-0.014": 0.0,
			"-0.013": 0.0,
			"-0.012": 0.0,
			"-0.011": 0.0,
			"-0.01": 0.0,
			"-0.009": 0.0317875741055,
			"-0.008": 1.07354711595,
			"-0.007": 2.27424699925,
			"-0.006": 3.42698036079,
			"-0.005": 6.47578449102,
			"-0.004": 8.83490080773,
			"-0.003": 10.1873976998,
			"-0.002": 11.3931553034,
			"-0.001": 14.1137018853,
			"0.0": 20.7091256429,
			"0.001": 34.5286818921,
			"0.002": 30.8378142126,
			"0.003": 3.68897855725,
			"0.004": 2.58033329682,
			"0.005": 3.39832037125,
			"0.006": 4.73875081565,
			"0.007": 2.56702789284,
			"0.008": 0.00969771016466,
			"0.009": 0.0,
			"0.01": 0.0,
			"0.011": 0.0,
			"0.012": 0.0,
			"0.013": 0.0,
			"0.014": 0.0,
			"0.015": 0.0,
			"0.016": 0.0,
			"0.017": 0.0,
			"0.018": 0.0,
			"0.019": 0.0,
			"0.02": 0.0,
			"0.021": 0.0,
			"0.022": 0.0,
			"0.023": 0.0,
			"0.024": 0.0,
			"0.025": 0.0
		}
	}
}
