{
	 "smiles": "O=C1C2=CC=CC=C2C(C2=C1C=CC=C2)=C1C2=CC=CC=C2C(=O)C2=C1C=CC=C2", 
	 "Tm": 573.15, 
	 "num_atms": 46, 
	 "gaussian": { 
		 "optdone": 1, 
		 "sigma_profile": "yes", 
		 "theory": "DFT", 
		 "functional": "B3LYP", 
		 "basiset": "6-31G**", 
		 "properties": { 
			 "R2extent": 10612.4909, 
			 "electric_dipole_moment_norm": 0.0009, 
			 "electric_quadrupole_moment_norm": 37.6048005813, 
			 "total_energy": -1227.07211611, 
			 "HOMO_LUMO_gap": 0.06662, 
			 "cosmo_polarized_energy": -14.97, 
			 "cosmo_cavitation_energy": 48.11, 
			 "cosmo_dispersion_energy": -33.57, 
			 "cosmo_repulsion_energy": 2.43, 
			 "cosmo_total_nonelectrostatic_energy": 16.97, 
			 "SMD_solvation_energy": 8.12 
		},
		"coords": [
			{
				"x": -4.7299528723,
				"y": 1.9518321024,
				"z": 0.0049218984,
				"element": "O" 
			},
			{
				"x": -3.5472676649,
				"y": 1.6091293834,
				"z": -0.0500732701,
				"element": "C" 
			},
			{
				"x": -2.5850733395,
				"y": 2.2857893234,
				"z": -0.9470495233,
				"element": "C" 
			},
			{
				"x": -3.0478115685,
				"y": 3.3923300924,
				"z": -1.6767477519,
				"element": "C" 
			},
			{
				"x": -2.1819794319,
				"y": 4.142958233,
				"z": -2.4557792722,
				"element": "C" 
			},
			{
				"x": -0.8178097505,
				"y": 3.8121027972,
				"z": -2.4713325401,
				"element": "C" 
			},
			{
				"x": -0.3469328297,
				"y": 2.7305764758,
				"z": -1.7460296088,
				"element": "C" 
			},
			{
				"x": -1.2213366759,
				"y": 1.8946774861,
				"z": -1.0048464329,
				"element": "C" 
			},
			{
				"x": -0.7167783808,
				"y": 0.7886955364,
				"z": -0.1819111079,
				"element": "C" 
			},
			{
				"x": -1.6609718207,
				"y": 0.1025601182,
				"z": 0.7083871696,
				"element": "C" 
			},
			{
				"x": -3.0219872664,
				"y": 0.5012384017,
				"z": 0.777531144,
				"element": "C" 
			},
			{
				"x": -3.9393162172,
				"y": -0.2053568048,
				"z": 1.5714154388,
				"element": "C" 
			},
			{
				"x": -3.5447379952,
				"y": -1.3214824489,
				"z": 2.2915394565,
				"element": "C" 
			},
			{
				"x": -2.2191450237,
				"y": -1.7702798924,
				"z": 2.1817599811,
				"element": "C" 
			},
			{
				"x": -1.3079130572,
				"y": -1.0892193296,
				"z": 1.3922571524,
				"element": "C" 
			},
			{
				"x": 0.6512967335,
				"y": 0.3922282367,
				"z": -0.2454503274,
				"element": "C" 
			},
			{
				"x": 1.477545504,
				"y": 0.3344813647,
				"z": 0.9665415064,
				"element": "C" 
			},
			{
				"x": 1.0163521319,
				"y": 0.8448824143,
				"z": 2.2072856826,
				"element": "C" 
			},
			{
				"x": 1.8199806269,
				"y": 0.8475094028,
				"z": 3.3349665883,
				"element": "C" 
			},
			{
				"x": 3.1431835638,
				"y": 0.3831968187,
				"z": 3.2700395516,
				"element": "C" 
			},
			{
				"x": 3.6465986907,
				"y": -0.0470487472,
				"z": 2.0528855735,
				"element": "C" 
			},
			{
				"x": 2.838217089,
				"y": -0.0666491245,
				"z": 0.9052073001,
				"element": "C" 
			},
			{
				"x": 3.4819420615,
				"y": -0.4278017648,
				"z": -0.3767740472,
				"element": "C" 
			},
			{
				"x": 4.6646597552,
				"y": -0.7704142152,
				"z": -0.4316173061,
				"element": "O" 
			},
			{
				"x": 2.6380380486,
				"y": -0.3581652742,
				"z": -1.5897275196,
				"element": "C" 
			},
			{
				"x": 1.2738257382,
				"y": 0.0301536359,
				"z": -1.5246305248,
				"element": "C" 
			},
			{
				"x": 0.5074010016,
				"y": -0.1246908265,
				"z": -2.7083670127,
				"element": "C" 
			},
			{
				"x": 1.0857983195,
				"y": -0.5279472898,
				"z": -3.9001424141,
				"element": "C" 
			},
			{
				"x": 2.4524690406,
				"y": -0.8430397164,
				"z": -3.9600241709,
				"element": "C" 
			},
			{
				"x": 3.2096741359,
				"y": -0.7778200016,
				"z": -2.8014013618,
				"element": "C" 
			},
			{
				"x": -4.0999011895,
				"y": 3.6412363098,
				"z": -1.5884818698,
				"element": "H" 
			},
			{
				"x": -2.5468291124,
				"y": 4.9957233361,
				"z": -3.0202346162,
				"element": "H" 
			},
			{
				"x": -0.1169349709,
				"y": 4.4190177908,
				"z": -3.0372335875,
				"element": "H" 
			},
			{
				"x": 0.7161441018,
				"y": 2.5263454576,
				"z": -1.7425114938,
				"element": "H" 
			},
			{
				"x": -4.9648337942,
				"y": 0.1480261244,
				"z": 1.5800114849,
				"element": "H" 
			},
			{
				"x": -4.2584206721,
				"y": -1.861696717,
				"z": 2.9061607384,
				"element": "H" 
			},
			{
				"x": -1.9049037085,
				"y": -2.6715213711,
				"z": 2.7002491953,
				"element": "H" 
			},
			{
				"x": -0.3048530862,
				"y": -1.4839243383,
				"z": 1.2925276766,
				"element": "H" 
			},
			{
				"x": 0.0148004429,
				"y": 1.2495050969,
				"z": 2.2781107272,
				"element": "H" 
			},
			{
				"x": 1.4240899161,
				"y": 1.2342693418,
				"z": 4.269580657,
				"element": "H" 
			},
			{
				"x": 3.7727306257,
				"y": 0.3929047255,
				"z": 4.1546351251,
				"element": "H" 
			},
			{
				"x": 4.6780601653,
				"y": -0.3631847933,
				"z": 1.9398270393,
				"element": "H" 
			},
			{
				"x": -0.5572618391,
				"y": 0.0694570789,
				"z": -2.6832692995,
				"element": "H" 
			},
			{
				"x": 0.4664236439,
				"y": -0.6206852826,
				"z": -4.7876061215,
				"element": "H" 
			},
			{
				"x": 2.9013906635,
				"y": -1.165424355,
				"z": -4.8946207799,
				"element": "H" 
			},
			{
				"x": 4.2559302673,
				"y": -1.0636747919,
				"z": -2.7847791271,
				"element": "H" 
			}
		],
		 "valence_orbital": [ 
			{
				"type": "occ",
				"energy": -0.25801,
				"method": "rhf"
			},
			{
				"type": "occ",
				"energy": -0.25615,
				"method": "rhf"
			},
			{
				"type": "occ",
				"energy": -0.24946,
				"method": "rhf"
			},
			{
				"type": "occ",
				"energy": -0.24922,
				"method": "rhf"
			},
			{
				"type": "occ",
				"energy": -0.19452,
				"method": "rhf"
			},
			{
				"type": "unocc",
				"energy": -0.1279,
				"method": "rhf"
			},
			{
				"type": "unocc",
				"energy": -0.06113,
				"method": "rhf"
			},
			{
				"type": "unocc",
				"energy": -0.05696,
				"method": "rhf"
			},
			{
				"type": "unocc",
				"energy": -0.02495,
				"method": "rhf"
			},
			{
				"type": "unocc",
				"energy": -0.02205,
				"method": "rhf"
			}
		],
		"cosmo_sigma_profile": { 
			"-0.025": 0.0,
			"-0.024": 0.0,
			"-0.023": 0.0,
			"-0.022": 0.0,
			"-0.021": 0.0,
			"-0.02": 0.0,
			"-0.019": 0.0,
			"-0.018": 0.0,
			"-0.017": 0.0,
			"-0.016": 0.0,
			"-0.015": 0.0,
			"-0.014": 0.0,
			"-0.013": 0.0,
			"-0.012": 0.0,
			"-0.011": 0.0,
			"-0.01": 0.0,
			"-0.009": 0.0,
			"-0.008": 0.0,
			"-0.007": 7.7571404402,
			"-0.006": 25.542891766,
			"-0.005": 35.3425620903,
			"-0.004": 30.1888622211,
			"-0.003": 28.8188688556,
			"-0.002": 26.2772220911,
			"-0.001": 27.5885849159,
			"0.0": 29.7082518877,
			"0.001": 34.5495535681,
			"0.002": 44.7668834263,
			"0.003": 45.2536294459,
			"0.004": 16.5995838901,
			"0.005": 3.16127842052,
			"0.006": 4.04240158813,
			"0.007": 4.11300643191,
			"0.008": 2.58495826039,
			"0.009": 2.48127829059,
			"0.01": 4.09802615969,
			"0.011": 4.81579623038,
			"0.012": 7.57742863555,
			"0.013": 3.95709087551,
			"0.014": 0.0,
			"0.015": 0.0,
			"0.016": 0.0,
			"0.017": 0.0,
			"0.018": 0.0,
			"0.019": 0.0,
			"0.02": 0.0,
			"0.021": 0.0,
			"0.022": 0.0,
			"0.023": 0.0,
			"0.024": 0.0,
			"0.025": 0.0
		}
	}
}
