{
	 "smiles": "CC(=NO)C1=CC=CS1", 
	 "Tm": 387.15, 
	 "num_atms": 16, 
	 "gaussian": { 
		 "optdone": 1, 
		 "sigma_profile": "yes", 
		 "theory": "DFT", 
		 "functional": "B3LYP", 
		 "basiset": "6-31G**", 
		 "properties": { 
			 "R2extent": 2131.2419, 
			 "electric_dipole_moment_norm": 0.693757998152, 
			 "electric_quadrupole_moment_norm": 6.98958908306, 
			 "total_energy": -760.949294923, 
			 "HOMO_LUMO_gap": 0.1747, 
			 "cosmo_polarized_energy": -7.54, 
			 "cosmo_cavitation_energy": 21.27, 
			 "cosmo_dispersion_energy": -16.59, 
			 "cosmo_repulsion_energy": 1.31, 
			 "cosmo_total_nonelectrostatic_energy": 5.99, 
			 "SMD_solvation_energy": 3.94 
		},
		"coords": [
			{
				"x": 1.1161387601,
				"y": 1.7208136574,
				"z": 1.4898013449,
				"element": "C" 
			},
			{
				"x": 1.5680318992,
				"y": 0.6651442036,
				"z": 0.5057910267,
				"element": "C" 
			},
			{
				"x": 2.1755215031,
				"y": 1.1522533044,
				"z": -0.5268240412,
				"element": "N" 
			},
			{
				"x": 2.5997678905,
				"y": 0.1833732924,
				"z": -1.4469275015,
				"element": "O" 
			},
			{
				"x": 1.290844383,
				"y": -0.7417851744,
				"z": 0.7968163865,
				"element": "C" 
			},
			{
				"x": 1.582790999,
				"y": -1.8961265536,
				"z": 0.0922134892,
				"element": "C" 
			},
			{
				"x": 1.1315804075,
				"y": -3.0819344936,
				"z": 0.7329420795,
				"element": "C" 
			},
			{
				"x": 0.4968289975,
				"y": -2.8405909107,
				"z": 1.9223089266,
				"element": "C" 
			},
			{
				"x": 0.4384324412,
				"y": -1.1537230039,
				"z": 2.2836485654,
				"element": "S" 
			},
			{
				"x": 1.5748456133,
				"y": 1.5681116692,
				"z": 2.4732228638,
				"element": "H" 
			},
			{
				"x": 1.4023267705,
				"y": 2.7055351745,
				"z": 1.1184901286,
				"element": "H" 
			},
			{
				"x": 0.0288758449,
				"y": 1.6975278928,
				"z": 1.6245761355,
				"element": "H" 
			},
			{
				"x": 3.0182180377,
				"y": 0.7269144935,
				"z": -2.1269178098,
				"element": "H" 
			},
			{
				"x": 2.1039703426,
				"y": -1.8790806735,
				"z": -0.8520530726,
				"element": "H" 
			},
			{
				"x": 1.2739272973,
				"y": -4.075870193,
				"z": 0.324107894,
				"element": "H" 
			},
			{
				"x": 0.0605988126,
				"y": -3.554962685,
				"z": 2.6069035845,
				"element": "H" 
			}
		],
		 "valence_orbital": [ 
			{
				"type": "occ",
				"energy": -0.34157,
				"method": "rhf"
			},
			{
				"type": "occ",
				"energy": -0.27564,
				"method": "rhf"
			},
			{
				"type": "occ",
				"energy": -0.27011,
				"method": "rhf"
			},
			{
				"type": "occ",
				"energy": -0.25247,
				"method": "rhf"
			},
			{
				"type": "occ",
				"energy": -0.21822,
				"method": "rhf"
			},
			{
				"type": "unocc",
				"energy": -0.04352,
				"method": "rhf"
			},
			{
				"type": "unocc",
				"energy": 0.02968,
				"method": "rhf"
			},
			{
				"type": "unocc",
				"energy": 0.03852,
				"method": "rhf"
			},
			{
				"type": "unocc",
				"energy": 0.07446,
				"method": "rhf"
			},
			{
				"type": "unocc",
				"energy": 0.09339,
				"method": "rhf"
			}
		],
		"cosmo_sigma_profile": { 
			"-0.025": 0.0,
			"-0.024": 0.0,
			"-0.023": 0.0,
			"-0.022": 0.0,
			"-0.021": 0.0,
			"-0.02": 0.0,
			"-0.019": 0.0,
			"-0.018": 0.0549964287261,
			"-0.017": 1.04190638796,
			"-0.016": 0.784671540245,
			"-0.015": 1.1479783029,
			"-0.014": 0.773931288482,
			"-0.013": 0.246773657441,
			"-0.012": 0.477773356463,
			"-0.011": 0.767011056497,
			"-0.01": 0.958983659895,
			"-0.009": 1.81321201453,
			"-0.008": 2.68256850998,
			"-0.007": 3.26931493835,
			"-0.006": 5.18826351073,
			"-0.005": 8.52784451157,
			"-0.004": 11.7469260065,
			"-0.003": 12.0264792317,
			"-0.002": 12.3830561626,
			"-0.001": 14.2698646978,
			"0.0": 10.7907451877,
			"0.001": 9.70820663397,
			"0.002": 12.63479131,
			"0.003": 14.9089385446,
			"0.004": 18.1841174111,
			"0.005": 9.49743405212,
			"0.006": 5.55489876145,
			"0.007": 3.45871886848,
			"0.008": 2.65019838023,
			"0.009": 2.47809983965,
			"0.01": 0.677220977059,
			"0.011": 1.28713483864,
			"0.012": 0.821542672672,
			"0.013": 0.586497547115,
			"0.014": 0.126316316795,
			"0.015": 0.0,
			"0.016": 0.0,
			"0.017": 0.0,
			"0.018": 0.0,
			"0.019": 0.0,
			"0.02": 0.0,
			"0.021": 0.0,
			"0.022": 0.0,
			"0.023": 0.0,
			"0.024": 0.0,
			"0.025": 0.0
		}
	}
}
