{
	 "smiles": "CCC1(CCC(C)C)C(=O)NC(=O)NC1=O", 
	 "Tm": 429.15, 
	 "num_atms": 34, 
	 "gaussian": { 
		 "optdone": 1, 
		 "sigma_profile": "yes", 
		 "theory": "DFT", 
		 "functional": "B3LYP", 
		 "basiset": "6-31G**", 
		 "properties": { 
			 "R2extent": 4441.3373, 
			 "electric_dipole_moment_norm": 1.23211699526, 
			 "electric_quadrupole_moment_norm": 6.2439456676, 
			 "total_energy": -765.270809584, 
			 "HOMO_LUMO_gap": 0.219, 
			 "cosmo_polarized_energy": -15.15, 
			 "cosmo_cavitation_energy": 35.6, 
			 "cosmo_dispersion_energy": -24.43, 
			 "cosmo_repulsion_energy": 1.94, 
			 "cosmo_total_nonelectrostatic_energy": 13.11, 
			 "SMD_solvation_energy": 7.77 
		},
		"coords": [
			{
				"x": 3.5550471662,
				"y": 1.7017203441,
				"z": 0.3159194981,
				"element": "C" 
			},
			{
				"x": 2.2477243312,
				"y": 1.083376679,
				"z": 0.823243463,
				"element": "C" 
			},
			{
				"x": 1.4203049854,
				"y": 0.3567244173,
				"z": -0.2628357105,
				"element": "C" 
			},
			{
				"x": 0.1485608709,
				"y": -0.3427082755,
				"z": 0.3552907569,
				"element": "C" 
			},
			{
				"x": -0.8063677248,
				"y": 0.5620982389,
				"z": 1.146555231,
				"element": "C" 
			},
			{
				"x": -2.1238391948,
				"y": -0.1371940829,
				"z": 1.5449986838,
				"element": "C" 
			},
			{
				"x": -1.9005702337,
				"y": -1.3379689536,
				"z": 2.4774177886,
				"element": "C" 
			},
			{
				"x": -3.0836462472,
				"y": 0.87481759,
				"z": 2.1883140556,
				"element": "C" 
			},
			{
				"x": 2.2420714349,
				"y": -0.7992293058,
				"z": -0.8458564694,
				"element": "C" 
			},
			{
				"x": 2.917528655,
				"y": -1.5393743883,
				"z": -0.1564317101,
				"element": "O" 
			},
			{
				"x": 2.1226653772,
				"y": -1.0291070072,
				"z": -2.2123685328,
				"element": "N" 
			},
			{
				"x": 1.4943968804,
				"y": -0.2284420493,
				"z": -3.1587600241,
				"element": "C" 
			},
			{
				"x": 1.4700802873,
				"y": -0.4988105005,
				"z": -4.3418597011,
				"element": "O" 
			},
			{
				"x": 0.9084629048,
				"y": 0.9167361716,
				"z": -2.6320047099,
				"element": "N" 
			},
			{
				"x": 0.9404809959,
				"y": 1.3603818375,
				"z": -1.3126475899,
				"element": "C" 
			},
			{
				"x": 0.5397499075,
				"y": 2.4762196802,
				"z": -1.0365634245,
				"element": "O" 
			},
			{
				"x": 4.0777831762,
				"y": 2.2023732589,
				"z": 1.1364128498,
				"element": "H" 
			},
			{
				"x": 3.369417301,
				"y": 2.4530852581,
				"z": -0.458573958,
				"element": "H" 
			},
			{
				"x": 4.2313796988,
				"y": 0.9416884084,
				"z": -0.087358665,
				"element": "H" 
			},
			{
				"x": 1.617895303,
				"y": 1.866570323,
				"z": 1.2498425844,
				"element": "H" 
			},
			{
				"x": 2.4628915549,
				"y": 0.3551351456,
				"z": 1.6104861483,
				"element": "H" 
			},
			{
				"x": 0.5336371356,
				"y": -1.1439165776,
				"z": 0.9935991144,
				"element": "H" 
			},
			{
				"x": -0.4051998908,
				"y": -0.829291984,
				"z": -0.4593871114,
				"element": "H" 
			},
			{
				"x": -1.0427941434,
				"y": 1.4534237337,
				"z": 0.5561155107,
				"element": "H" 
			},
			{
				"x": -0.3094603141,
				"y": 0.9188861884,
				"z": 2.0577037788,
				"element": "H" 
			},
			{
				"x": -2.5963578653,
				"y": -0.5078820153,
				"z": 0.622372835,
				"element": "H" 
			},
			{
				"x": -1.2874090732,
				"y": -2.1172241511,
				"z": 2.014030315,
				"element": "H" 
			},
			{
				"x": -1.4000576063,
				"y": -1.024860981,
				"z": 3.4021819229,
				"element": "H" 
			},
			{
				"x": -2.8549166133,
				"y": -1.7964382959,
				"z": 2.7575682588,
				"element": "H" 
			},
			{
				"x": -4.0424200051,
				"y": 0.4074445362,
				"z": 2.4370372227,
				"element": "H" 
			},
			{
				"x": -2.6615738022,
				"y": 1.2790982701,
				"z": 3.1164632277,
				"element": "H" 
			},
			{
				"x": -3.2836525518,
				"y": 1.7184265527,
				"z": 1.519070358,
				"element": "H" 
			},
			{
				"x": 2.60932165,
				"y": -1.837895824,
				"z": -2.5812722358,
				"element": "H" 
			},
			{
				"x": 0.5227656497,
				"y": 1.5584377581,
				"z": -3.3151037608,
				"element": "H" 
			}
		],
		 "valence_orbital": [ 
			{
				"type": "occ",
				"energy": -0.31304,
				"method": "rhf"
			},
			{
				"type": "occ",
				"energy": -0.30345,
				"method": "rhf"
			},
			{
				"type": "occ",
				"energy": -0.30138,
				"method": "rhf"
			},
			{
				"type": "occ",
				"energy": -0.29108,
				"method": "rhf"
			},
			{
				"type": "occ",
				"energy": -0.26629,
				"method": "rhf"
			},
			{
				"type": "unocc",
				"energy": -0.04729,
				"method": "rhf"
			},
			{
				"type": "unocc",
				"energy": -0.00703,
				"method": "rhf"
			},
			{
				"type": "unocc",
				"energy": 0.05167,
				"method": "rhf"
			},
			{
				"type": "unocc",
				"energy": 0.07298,
				"method": "rhf"
			},
			{
				"type": "unocc",
				"energy": 0.0811,
				"method": "rhf"
			}
		],
		"cosmo_sigma_profile": { 
			"-0.025": 0.0,
			"-0.024": 0.0,
			"-0.023": 0.0,
			"-0.022": 0.0,
			"-0.021": 0.0,
			"-0.02": 0.0,
			"-0.019": 0.0,
			"-0.018": 0.0,
			"-0.017": 0.199596617138,
			"-0.016": 2.00705820139,
			"-0.015": 1.7029575023,
			"-0.014": 1.85111321722,
			"-0.013": 0.940160804527,
			"-0.012": 1.6579173375,
			"-0.011": 2.16620381096,
			"-0.01": 1.60752482845,
			"-0.009": 1.8089730759,
			"-0.008": 3.21033272732,
			"-0.007": 3.32878492665,
			"-0.006": 4.82645180831,
			"-0.005": 6.58725138946,
			"-0.004": 12.918226324,
			"-0.003": 29.2811711662,
			"-0.002": 40.7330890917,
			"-0.001": 34.6261697062,
			"0.0": 28.4582415616,
			"0.001": 27.1103923202,
			"0.002": 13.9104363384,
			"0.003": 5.22482001664,
			"0.004": 4.37965853587,
			"0.005": 4.14667252378,
			"0.006": 3.57746279352,
			"0.007": 4.16542796162,
			"0.008": 3.55692313518,
			"0.009": 4.8368637243,
			"0.01": 5.51193568612,
			"0.011": 13.0105291719,
			"0.012": 9.09475827702,
			"0.013": 0.109718851596,
			"0.014": 0.0,
			"0.015": 0.0,
			"0.016": 0.0,
			"0.017": 0.0,
			"0.018": 0.0,
			"0.019": 0.0,
			"0.02": 0.0,
			"0.021": 0.0,
			"0.022": 0.0,
			"0.023": 0.0,
			"0.024": 0.0,
			"0.025": 0.0
		}
	}
}
