{
	 "smiles": "NC(CO)C(O)C1=CC=C(C=C1)[N+]([O-])=O", 
	 "Tm": 436.15, 
	 "num_atms": 27, 
	 "gaussian": { 
		 "optdone": 1, 
		 "sigma_profile": "yes", 
		 "theory": "DFT", 
		 "functional": "B3LYP", 
		 "basiset": "6-31G**", 
		 "properties": { 
			 "R2extent": 4338.2621, 
			 "electric_dipole_moment_norm": 6.23734616163, 
			 "electric_quadrupole_moment_norm": 19.9021624491, 
			 "total_energy": -760.474615548, 
			 "HOMO_LUMO_gap": 0.17229, 
			 "cosmo_polarized_energy": -17.48, 
			 "cosmo_cavitation_energy": 30.76, 
			 "cosmo_dispersion_energy": -22.15, 
			 "cosmo_repulsion_energy": 1.75, 
			 "cosmo_total_nonelectrostatic_energy": 10.36, 
			 "SMD_solvation_energy": 6.9 
		},
		"coords": [
			{
				"x": -0.0334845161,
				"y": 3.7039735046,
				"z": -0.7924608272,
				"element": "N" 
			},
			{
				"x": 0.2395991191,
				"y": 2.3409681544,
				"z": -0.3254462774,
				"element": "C" 
			},
			{
				"x": -0.2651947671,
				"y": 2.2327120368,
				"z": 1.1206614297,
				"element": "C" 
			},
			{
				"x": 0.2879184545,
				"y": 3.2543399951,
				"z": 1.9479225127,
				"element": "O" 
			},
			{
				"x": -0.5149405436,
				"y": 1.3785214036,
				"z": -1.2938633396,
				"element": "C" 
			},
			{
				"x": -1.8512222891,
				"y": 1.8100880302,
				"z": -1.4162871091,
				"element": "O" 
			},
			{
				"x": -0.4656511844,
				"y": -0.0721709266,
				"z": -0.8598713635,
				"element": "C" 
			},
			{
				"x": -1.6087816955,
				"y": -0.7177148117,
				"z": -0.3703020156,
				"element": "C" 
			},
			{
				"x": -1.5512360503,
				"y": -2.0471481963,
				"z": 0.0409056302,
				"element": "C" 
			},
			{
				"x": -0.3368320138,
				"y": -2.7250189084,
				"z": -0.0419080697,
				"element": "C" 
			},
			{
				"x": 0.8158156202,
				"y": -2.1126722285,
				"z": -0.5331823753,
				"element": "C" 
			},
			{
				"x": 0.7399309426,
				"y": -0.78659932,
				"z": -0.9447370947,
				"element": "C" 
			},
			{
				"x": -0.2676264349,
				"y": -4.1272215484,
				"z": 0.3928640022,
				"element": "N" 
			},
			{
				"x": 0.8201359965,
				"y": -4.6986656847,
				"z": 0.3093455529,
				"element": "O" 
			},
			{
				"x": -1.2997955851,
				"y": -4.6467678627,
				"z": 0.8167509981,
				"element": "O" 
			},
			{
				"x": 0.1325263652,
				"y": 4.3513819957,
				"z": -0.0253135752,
				"element": "H" 
			},
			{
				"x": 0.5756672148,
				"y": 3.9637660668,
				"z": -1.5632045244,
				"element": "H" 
			},
			{
				"x": 1.3127751894,
				"y": 2.0815005845,
				"z": -0.3418400547,
				"element": "H" 
			},
			{
				"x": -0.0578755405,
				"y": 1.2330473945,
				"z": 1.5204271764,
				"element": "H" 
			},
			{
				"x": -1.3472752756,
				"y": 2.3859790277,
				"z": 1.1339856962,
				"element": "H" 
			},
			{
				"x": 1.2144747984,
				"y": 3.0358551146,
				"z": 2.1135839376,
				"element": "H" 
			},
			{
				"x": 0.002076997,
				"y": 1.4498598056,
				"z": -2.2693221528,
				"element": "H" 
			},
			{
				"x": -1.7790508448,
				"y": 2.7841984855,
				"z": -1.3777072597,
				"element": "H" 
			},
			{
				"x": -2.5406525817,
				"y": -0.1668448057,
				"z": -0.3286652788,
				"element": "H" 
			},
			{
				"x": -2.4239034926,
				"y": -2.5644684874,
				"z": 0.419772022,
				"element": "H" 
			},
			{
				"x": 1.7365782588,
				"y": -2.6793255261,
				"z": -0.5912185975,
				"element": "H" 
			},
			{
				"x": 1.6272238587,
				"y": -0.3044732933,
				"z": -1.3469890426,
				"element": "H" 
			}
		],
		 "valence_orbital": [ 
			{
				"type": "occ",
				"energy": -0.28675,
				"method": "rhf"
			},
			{
				"type": "occ",
				"energy": -0.2857,
				"method": "rhf"
			},
			{
				"type": "occ",
				"energy": -0.27548,
				"method": "rhf"
			},
			{
				"type": "occ",
				"energy": -0.27029,
				"method": "rhf"
			},
			{
				"type": "occ",
				"energy": -0.25761,
				"method": "rhf"
			},
			{
				"type": "unocc",
				"energy": -0.08532,
				"method": "rhf"
			},
			{
				"type": "unocc",
				"energy": -0.02569,
				"method": "rhf"
			},
			{
				"type": "unocc",
				"energy": 0.00283,
				"method": "rhf"
			},
			{
				"type": "unocc",
				"energy": 0.05077,
				"method": "rhf"
			},
			{
				"type": "unocc",
				"energy": 0.07247,
				"method": "rhf"
			}
		],
		"cosmo_sigma_profile": { 
			"-0.025": 0.0,
			"-0.024": 0.0,
			"-0.023": 0.0,
			"-0.022": 0.0,
			"-0.021": 0.0,
			"-0.02": 0.0,
			"-0.019": 0.0,
			"-0.018": 0.0,
			"-0.017": 0.00420960729998,
			"-0.016": 0.797841955644,
			"-0.015": 0.901756031833,
			"-0.014": 1.07070035915,
			"-0.013": 1.03344360687,
			"-0.012": 0.39861763124,
			"-0.011": 2.6116382839,
			"-0.01": 1.91400562762,
			"-0.009": 2.55695323648,
			"-0.008": 4.31076899944,
			"-0.007": 10.532807771,
			"-0.006": 13.9954079116,
			"-0.005": 15.6162650005,
			"-0.004": 17.5014909082,
			"-0.003": 14.582175076,
			"-0.002": 14.9282753392,
			"-0.001": 18.6771996257,
			"0.0": 16.9866261176,
			"0.001": 16.9204158453,
			"0.002": 16.4806578807,
			"0.003": 7.60745740832,
			"0.004": 6.43804207297,
			"0.005": 5.96795433488,
			"0.006": 6.49725211204,
			"0.007": 9.40611060406,
			"0.008": 12.3953972869,
			"0.009": 7.29165179298,
			"0.01": 5.4880215513,
			"0.011": 2.43663891579,
			"0.012": 2.49990520649,
			"0.013": 2.28889597472,
			"0.014": 1.72875623246,
			"0.015": 0.0950257798023,
			"0.016": 0.0,
			"0.017": 0.0,
			"0.018": 0.0,
			"0.019": 0.0,
			"0.02": 0.0,
			"0.021": 0.0,
			"0.022": 0.0,
			"0.023": 0.0,
			"0.024": 0.0,
			"0.025": 0.0
		}
	}
}
