{
	 "smiles": "CCCN1C(=O)NC2=C1C=CC=C2", 
	 "Tm": 371.15, 
	 "num_atms": 25, 
	 "gaussian": { 
		 "optdone": 1, 
		 "sigma_profile": "yes", 
		 "theory": "DFT", 
		 "functional": "B3LYP", 
		 "basiset": "6-31G**", 
		 "properties": { 
			 "R2extent": 3509.8519, 
			 "electric_dipole_moment_norm": 2.33144483315, 
			 "electric_quadrupole_moment_norm": 12.7993597043, 
			 "total_energy": -573.069589165, 
			 "HOMO_LUMO_gap": 0.19868, 
			 "cosmo_polarized_energy": -11.75, 
			 "cosmo_cavitation_energy": 28.27, 
			 "cosmo_dispersion_energy": -20.45, 
			 "cosmo_repulsion_energy": 1.63, 
			 "cosmo_total_nonelectrostatic_energy": 9.45, 
			 "SMD_solvation_energy": 5.1 
		},
		"coords": [
			{
				"x": -1.8390813317,
				"y": 1.1729707259,
				"z": 1.5116568542,
				"element": "C" 
			},
			{
				"x": -0.6571264453,
				"y": 0.2452414529,
				"z": 1.2160749852,
				"element": "C" 
			},
			{
				"x": 0.4017035753,
				"y": 0.9256760442,
				"z": 0.3375096214,
				"element": "C" 
			},
			{
				"x": 1.5330406784,
				"y": 0.0674858211,
				"z": 0.0247824733,
				"element": "N" 
			},
			{
				"x": 2.7363935201,
				"y": 0.1326543188,
				"z": 0.7341426193,
				"element": "C" 
			},
			{
				"x": 3.013945479,
				"y": 0.8901478399,
				"z": 1.6497814692,
				"element": "O" 
			},
			{
				"x": 3.5447661953,
				"y": -0.8493833944,
				"z": 0.1639894263,
				"element": "N" 
			},
			{
				"x": 2.8810426392,
				"y": -1.5127549486,
				"z": -0.861343861,
				"element": "C" 
			},
			{
				"x": 1.5968858006,
				"y": -0.9304754733,
				"z": -0.9448314001,
				"element": "C" 
			},
			{
				"x": 0.672853156,
				"y": -1.3705420863,
				"z": -1.8857953823,
				"element": "C" 
			},
			{
				"x": 1.060183489,
				"y": -2.4085446372,
				"z": -2.744389668,
				"element": "C" 
			},
			{
				"x": 2.3312043759,
				"y": -2.9839403084,
				"z": -2.6587585902,
				"element": "C" 
			},
			{
				"x": 3.264326516,
				"y": -2.5413943146,
				"z": -1.7108909286,
				"element": "C" 
			},
			{
				"x": -2.5807024161,
				"y": 0.6765678924,
				"z": 2.1445510228,
				"element": "H" 
			},
			{
				"x": -2.3444453261,
				"y": 1.4837253865,
				"z": 0.5898670134,
				"element": "H" 
			},
			{
				"x": -1.5115091268,
				"y": 2.0797437064,
				"z": 2.032177538,
				"element": "H" 
			},
			{
				"x": -0.1798785457,
				"y": -0.068596776,
				"z": 2.1515229061,
				"element": "H" 
			},
			{
				"x": -1.0097164362,
				"y": -0.6677498673,
				"z": 0.7207503973,
				"element": "H" 
			},
			{
				"x": 0.8137960418,
				"y": 1.7979439726,
				"z": 0.852672189,
				"element": "H" 
			},
			{
				"x": -0.0417857636,
				"y": 1.2705811957,
				"z": -0.6046778228,
				"element": "H" 
			},
			{
				"x": 4.4841288695,
				"y": -1.0120140926,
				"z": 0.4880498177,
				"element": "H" 
			},
			{
				"x": -0.3155602842,
				"y": -0.9282857125,
				"z": -1.9549310505,
				"element": "H" 
			},
			{
				"x": 0.3565067732,
				"y": -2.7705807005,
				"z": -3.4875666508,
				"element": "H" 
			},
			{
				"x": 2.6040929244,
				"y": -3.7874653048,
				"z": -3.3356920993,
				"element": "H" 
			},
			{
				"x": 4.2521356418,
				"y": -2.9869107398,
				"z": -1.6450508796,
				"element": "H" 
			}
		],
		 "valence_orbital": [ 
			{
				"type": "occ",
				"energy": -0.31312,
				"method": "rhf"
			},
			{
				"type": "occ",
				"energy": -0.29706,
				"method": "rhf"
			},
			{
				"type": "occ",
				"energy": -0.26521,
				"method": "rhf"
			},
			{
				"type": "occ",
				"energy": -0.23451,
				"method": "rhf"
			},
			{
				"type": "occ",
				"energy": -0.20316,
				"method": "rhf"
			},
			{
				"type": "unocc",
				"energy": -0.00448,
				"method": "rhf"
			},
			{
				"type": "unocc",
				"energy": 0.01454,
				"method": "rhf"
			},
			{
				"type": "unocc",
				"energy": 0.06863,
				"method": "rhf"
			},
			{
				"type": "unocc",
				"energy": 0.08146,
				"method": "rhf"
			},
			{
				"type": "unocc",
				"energy": 0.09041,
				"method": "rhf"
			}
		],
		"cosmo_sigma_profile": { 
			"-0.025": 0.0,
			"-0.024": 0.0,
			"-0.023": 0.0,
			"-0.022": 0.0,
			"-0.021": 0.0,
			"-0.02": 0.0,
			"-0.019": 0.0,
			"-0.018": 0.0,
			"-0.017": 0.0,
			"-0.016": 0.942669430225,
			"-0.015": 1.214868646,
			"-0.014": 1.17760588397,
			"-0.013": 1.18159856467,
			"-0.012": 1.21621030588,
			"-0.011": 0.825854664318,
			"-0.01": 0.711723119453,
			"-0.009": 1.4939627284,
			"-0.008": 0.85360234599,
			"-0.007": 2.4269017482,
			"-0.006": 6.92367868766,
			"-0.005": 11.4937703434,
			"-0.004": 14.6117742313,
			"-0.003": 23.6080071745,
			"-0.002": 21.4329680144,
			"-0.001": 22.9535914213,
			"0.0": 24.3935257703,
			"0.001": 20.1555305422,
			"0.002": 11.7337852044,
			"0.003": 8.71847849592,
			"0.004": 8.81546541002,
			"0.005": 8.9698104127,
			"0.006": 8.52624400237,
			"0.007": 2.23513997718,
			"0.008": 1.44094812661,
			"0.009": 1.31859335704,
			"0.01": 0.885313637028,
			"0.011": 1.28406025831,
			"0.012": 1.881809013,
			"0.013": 3.11729730235,
			"0.014": 6.37082242542,
			"0.015": 0.676516310568,
			"0.016": 0.0,
			"0.017": 0.0,
			"0.018": 0.0,
			"0.019": 0.0,
			"0.02": 0.0,
			"0.021": 0.0,
			"0.022": 0.0,
			"0.023": 0.0,
			"0.024": 0.0,
			"0.025": 0.0
		}
	}
}
