{
	 "smiles": "OCC1=CC=CC2=C1OCCCO2", 
	 "Tm": 320.65, 
	 "num_atms": 25, 
	 "gaussian": { 
		 "optdone": 1, 
		 "sigma_profile": "yes", 
		 "theory": "DFT", 
		 "functional": "B3LYP", 
		 "basiset": "6-31G**", 
		 "properties": { 
			 "R2extent": 2445.0435, 
			 "electric_dipole_moment_norm": 2.88758810428, 
			 "electric_quadrupole_moment_norm": 11.6483345479, 
			 "total_energy": -613.934908647, 
			 "HOMO_LUMO_gap": 0.21573, 
			 "cosmo_polarized_energy": -9.76, 
			 "cosmo_cavitation_energy": 26.71, 
			 "cosmo_dispersion_energy": -20.2, 
			 "cosmo_repulsion_energy": 1.6, 
			 "cosmo_total_nonelectrostatic_energy": 8.11, 
			 "SMD_solvation_energy": 4.39 
		},
		"coords": [
			{
				"x": 2.1982357031,
				"y": 2.8951771881,
				"z": 0.5231619651,
				"element": "O" 
			},
			{
				"x": 2.6842124146,
				"y": 1.5977526737,
				"z": 0.8331186674,
				"element": "C" 
			},
			{
				"x": 2.1349875138,
				"y": 0.499204627,
				"z": -0.0601913435,
				"element": "C" 
			},
			{
				"x": 2.988106465,
				"y": -0.3470395419,
				"z": -0.7719261406,
				"element": "C" 
			},
			{
				"x": 2.4800709404,
				"y": -1.3652002772,
				"z": -1.5804730625,
				"element": "C" 
			},
			{
				"x": 1.1056233724,
				"y": -1.5637485317,
				"z": -1.6595333068,
				"element": "C" 
			},
			{
				"x": 0.2285701278,
				"y": -0.740087008,
				"z": -0.9475064712,
				"element": "C" 
			},
			{
				"x": 0.7456109077,
				"y": 0.3124450995,
				"z": -0.1683833545,
				"element": "C" 
			},
			{
				"x": -0.0567973493,
				"y": 1.19126544,
				"z": 0.5462809326,
				"element": "O" 
			},
			{
				"x": -1.3054559777,
				"y": 1.5658299572,
				"z": -0.0647730429,
				"element": "C" 
			},
			{
				"x": -2.415528937,
				"y": 0.5710587378,
				"z": 0.2691961951,
				"element": "C" 
			},
			{
				"x": -1.9103799426,
				"y": -0.8644885339,
				"z": 0.1085336872,
				"element": "C" 
			},
			{
				"x": -1.1161288833,
				"y": -1.0119268933,
				"z": -1.0754716968,
				"element": "O" 
			},
			{
				"x": 1.2405024832,
				"y": 2.8406993086,
				"z": 0.6471564436,
				"element": "H" 
			},
			{
				"x": 2.4781626396,
				"y": 1.3434190398,
				"z": 1.8861882127,
				"element": "H" 
			},
			{
				"x": 3.7716415991,
				"y": 1.639321171,
				"z": 0.7205423474,
				"element": "H" 
			},
			{
				"x": 4.0612361666,
				"y": -0.1936631751,
				"z": -0.6986288335,
				"element": "H" 
			},
			{
				"x": 3.1530641618,
				"y": -2.0105551963,
				"z": -2.1365863532,
				"element": "H" 
			},
			{
				"x": 0.6761419433,
				"y": -2.3603510522,
				"z": -2.2582406634,
				"element": "H" 
			},
			{
				"x": -1.5400471057,
				"y": 2.5613327468,
				"z": 0.3229002938,
				"element": "H" 
			},
			{
				"x": -1.1668231645,
				"y": 1.6432204502,
				"z": -1.14827814,
				"element": "H" 
			},
			{
				"x": -2.7679025018,
				"y": 0.7115041783,
				"z": 1.29774649,
				"element": "H" 
			},
			{
				"x": -3.2644705048,
				"y": 0.7623042428,
				"z": -0.3977677376,
				"element": "H" 
			},
			{
				"x": -1.3221512767,
				"y": -1.166056284,
				"z": 0.9828212392,
				"element": "H" 
			},
			{
				"x": -2.7430807952,
				"y": -1.565318367,
				"z": 0.0008136725,
				"element": "H" 
			}
		],
		 "valence_orbital": [ 
			{
				"type": "occ",
				"energy": -0.30736,
				"method": "rhf"
			},
			{
				"type": "occ",
				"energy": -0.29212,
				"method": "rhf"
			},
			{
				"type": "occ",
				"energy": -0.25374,
				"method": "rhf"
			},
			{
				"type": "occ",
				"energy": -0.23438,
				"method": "rhf"
			},
			{
				"type": "occ",
				"energy": -0.21703,
				"method": "rhf"
			},
			{
				"type": "unocc",
				"energy": -0.0013,
				"method": "rhf"
			},
			{
				"type": "unocc",
				"energy": 0.00903,
				"method": "rhf"
			},
			{
				"type": "unocc",
				"energy": 0.06304,
				"method": "rhf"
			},
			{
				"type": "unocc",
				"energy": 0.09959,
				"method": "rhf"
			},
			{
				"type": "unocc",
				"energy": 0.11034,
				"method": "rhf"
			}
		],
		"cosmo_sigma_profile": { 
			"-0.025": 0.0,
			"-0.024": 0.0,
			"-0.023": 0.0,
			"-0.022": 0.0,
			"-0.021": 0.0,
			"-0.02": 0.0,
			"-0.019": 0.0,
			"-0.018": 0.0,
			"-0.017": 0.0,
			"-0.016": 0.0,
			"-0.015": 0.0,
			"-0.014": 0.0,
			"-0.013": 0.0,
			"-0.012": 0.0,
			"-0.011": 0.0,
			"-0.01": 0.174893991544,
			"-0.009": 0.884369024814,
			"-0.008": 0.72613429891,
			"-0.007": 1.72583670756,
			"-0.006": 9.67634121756,
			"-0.005": 20.8518117561,
			"-0.004": 28.0049069115,
			"-0.003": 27.5943838705,
			"-0.002": 16.8789439645,
			"-0.001": 13.7174079694,
			"0.0": 9.6859305025,
			"0.001": 9.07683307938,
			"0.002": 10.1277563445,
			"0.003": 10.8079875268,
			"0.004": 10.2250810668,
			"0.005": 11.506587108,
			"0.006": 7.7941364519,
			"0.007": 2.34235094548,
			"0.008": 3.05354775343,
			"0.009": 3.35453055762,
			"0.01": 2.44751390006,
			"0.011": 2.62917582924,
			"0.012": 1.60860616499,
			"0.013": 1.19519004111,
			"0.014": 2.70899501562,
			"0.015": 1.59438790624,
			"0.016": 0.0,
			"0.017": 0.0,
			"0.018": 0.0,
			"0.019": 0.0,
			"0.02": 0.0,
			"0.021": 0.0,
			"0.022": 0.0,
			"0.023": 0.0,
			"0.024": 0.0,
			"0.025": 0.0
		}
	}
}
