{
	 "smiles": "CC1=NN(C(N2CCCC2)=C1C=O)C1=CC=CC=C1", 
	 "Tm": 345.15, 
	 "num_atms": 36, 
	 "gaussian": { 
		 "optdone": 1, 
		 "sigma_profile": "yes", 
		 "theory": "DFT", 
		 "functional": "B3LYP", 
		 "basiset": "6-31G**", 
		 "properties": { 
			 "R2extent": 6346.1584, 
			 "electric_dipole_moment_norm": 2.73136061332, 
			 "electric_quadrupole_moment_norm": 16.9067011634, 
			 "total_energy": -821.297233625, 
			 "HOMO_LUMO_gap": 0.16581, 
			 "cosmo_polarized_energy": -10.47, 
			 "cosmo_cavitation_energy": 37.75, 
			 "cosmo_dispersion_energy": -26.43, 
			 "cosmo_repulsion_energy": 2.03, 
			 "cosmo_total_nonelectrostatic_energy": 13.35, 
			 "SMD_solvation_energy": 6.24 
		},
		"coords": [
			{
				"x": -1.3826760859,
				"y": -3.3122522411,
				"z": -0.8761886234,
				"element": "C" 
			},
			{
				"x": -0.7814117155,
				"y": -1.9598000713,
				"z": -1.1129890524,
				"element": "C" 
			},
			{
				"x": -0.8063622789,
				"y": -1.0570452892,
				"z": -0.1536538087,
				"element": "N" 
			},
			{
				"x": -0.1664519119,
				"y": 0.0500577468,
				"z": -0.6701805859,
				"element": "N" 
			},
			{
				"x": 0.2303208788,
				"y": -0.1358538887,
				"z": -1.9729335144,
				"element": "C" 
			},
			{
				"x": 0.8271633989,
				"y": 0.8641048145,
				"z": -2.698794843,
				"element": "N" 
			},
			{
				"x": 1.8777186944,
				"y": 0.6062127598,
				"z": -3.7050231786,
				"element": "C" 
			},
			{
				"x": 1.5763560018,
				"y": 1.6211882147,
				"z": -4.8110488558,
				"element": "C" 
			},
			{
				"x": 0.9757495882,
				"y": 2.8093485281,
				"z": -4.0436268917,
				"element": "C" 
			},
			{
				"x": 0.1214718028,
				"y": 2.1396942528,
				"z": -2.9575404092,
				"element": "C" 
			},
			{
				"x": -0.1554176834,
				"y": -1.4581326068,
				"z": -2.3003298505,
				"element": "C" 
			},
			{
				"x": -0.1412440394,
				"y": -2.1542479655,
				"z": -3.5680441752,
				"element": "C" 
			},
			{
				"x": 0.298817685,
				"y": -1.7498434944,
				"z": -4.6412581261,
				"element": "O" 
			},
			{
				"x": 0.0401380033,
				"y": 1.1565634473,
				"z": 0.2028890057,
				"element": "C" 
			},
			{
				"x": 1.2317391198,
				"y": 1.8910849117,
				"z": 0.1725085723,
				"element": "C" 
			},
			{
				"x": 1.4091955715,
				"y": 2.9486763131,
				"z": 1.0645052687,
				"element": "C" 
			},
			{
				"x": 0.4176523121,
				"y": 3.2681636735,
				"z": 1.9938212283,
				"element": "C" 
			},
			{
				"x": -0.7607194284,
				"y": 2.5195290915,
				"z": 2.0281755803,
				"element": "C" 
			},
			{
				"x": -0.9557750322,
				"y": 1.467177985,
				"z": 1.135816718,
				"element": "C" 
			},
			{
				"x": -2.1951332661,
				"y": -3.5234560415,
				"z": -1.5801036486,
				"element": "H" 
			},
			{
				"x": -1.7850221284,
				"y": -3.3539511785,
				"z": 0.1381474699,
				"element": "H" 
			},
			{
				"x": -0.6379169476,
				"y": -4.1075745323,
				"z": -0.9878304872,
				"element": "H" 
			},
			{
				"x": 2.8659816376,
				"y": 0.7874480476,
				"z": -3.2561800423,
				"element": "H" 
			},
			{
				"x": 1.8293608135,
				"y": -0.4191209982,
				"z": -4.0708107582,
				"element": "H" 
			},
			{
				"x": 0.834735083,
				"y": 1.1929033144,
				"z": -5.4941438722,
				"element": "H" 
			},
			{
				"x": 2.463873801,
				"y": 1.8869547279,
				"z": -5.3919253786,
				"element": "H" 
			},
			{
				"x": 1.7724648315,
				"y": 3.4028863067,
				"z": -3.5800039784,
				"element": "H" 
			},
			{
				"x": 0.3828766952,
				"y": 3.4800080342,
				"z": -4.6715181769,
				"element": "H" 
			},
			{
				"x": 0.0449159584,
				"y": 2.7526284965,
				"z": -2.0541203138,
				"element": "H" 
			},
			{
				"x": -0.8969390321,
				"y": 1.938140751,
				"z": -3.3185851828,
				"element": "H" 
			},
			{
				"x": -0.6089485633,
				"y": -3.161235915,
				"z": -3.5189663544,
				"element": "H" 
			},
			{
				"x": 2.0059433308,
				"y": 1.6317702929,
				"z": -0.5394245433,
				"element": "H" 
			},
			{
				"x": 2.3351051574,
				"y": 3.5158329098,
				"z": 1.0385490564,
				"element": "H" 
			},
			{
				"x": 0.5641753259,
				"y": 4.0900198968,
				"z": 2.6881422993,
				"element": "H" 
			},
			{
				"x": -1.536023756,
				"y": 2.7558795934,
				"z": 2.751049034,
				"element": "H" 
			},
			{
				"x": -1.8591138218,
				"y": 0.8695401127,
				"z": 1.1580204185,
				"element": "H" 
			}
		],
		 "valence_orbital": [ 
			{
				"type": "occ",
				"energy": -0.26929,
				"method": "rhf"
			},
			{
				"type": "occ",
				"energy": -0.25841,
				"method": "rhf"
			},
			{
				"type": "occ",
				"energy": -0.2387,
				"method": "rhf"
			},
			{
				"type": "occ",
				"energy": -0.23013,
				"method": "rhf"
			},
			{
				"type": "occ",
				"energy": -0.20673,
				"method": "rhf"
			},
			{
				"type": "unocc",
				"energy": -0.04092,
				"method": "rhf"
			},
			{
				"type": "unocc",
				"energy": -0.0104,
				"method": "rhf"
			},
			{
				"type": "unocc",
				"energy": -0.00854,
				"method": "rhf"
			},
			{
				"type": "unocc",
				"energy": 0.03299,
				"method": "rhf"
			},
			{
				"type": "unocc",
				"energy": 0.07946,
				"method": "rhf"
			}
		],
		"cosmo_sigma_profile": { 
			"-0.025": 0.0,
			"-0.024": 0.0,
			"-0.023": 0.0,
			"-0.022": 0.0,
			"-0.021": 0.0,
			"-0.02": 0.0,
			"-0.019": 0.0,
			"-0.018": 0.0,
			"-0.017": 0.0,
			"-0.016": 0.0,
			"-0.015": 0.0,
			"-0.014": 0.0,
			"-0.013": 0.0,
			"-0.012": 0.0,
			"-0.011": 0.0,
			"-0.01": 0.0,
			"-0.009": 0.0,
			"-0.008": 0.0,
			"-0.007": 0.353322071821,
			"-0.006": 7.40256774301,
			"-0.005": 19.3691303073,
			"-0.004": 27.0181693539,
			"-0.003": 33.7119234737,
			"-0.002": 40.2985038964,
			"-0.001": 38.9814888449,
			"0.0": 30.5618887151,
			"0.001": 18.7950283054,
			"0.002": 15.1555492835,
			"0.003": 13.3295100452,
			"0.004": 14.7658330808,
			"0.005": 11.2258005645,
			"0.006": 4.38143237015,
			"0.007": 3.73145475719,
			"0.008": 3.9274037726,
			"0.009": 2.87614053573,
			"0.01": 2.99172669061,
			"0.011": 2.94443246771,
			"0.012": 2.57166913937,
			"0.013": 3.01930951096,
			"0.014": 1.81234651888,
			"0.015": 0.122211945242,
			"0.016": 0.0,
			"0.017": 0.0,
			"0.018": 0.0,
			"0.019": 0.0,
			"0.02": 0.0,
			"0.021": 0.0,
			"0.022": 0.0,
			"0.023": 0.0,
			"0.024": 0.0,
			"0.0": 0.0
		}
	}
}
