{
	 "smiles": "BrC1=C(C=CC=C1)C(=O)C1=CC=CC=C1", 
	 "Tm": 346.15, 
	 "num_atms": 24, 
	 "gaussian": { 
		 "optdone": 1, 
		 "sigma_profile": "yes", 
		 "theory": "DFT", 
		 "functional": "B3LYP", 
		 "basiset": "6-31G**", 
		 "properties": { 
			 "R2extent": 4280.0576, 
			 "electric_dipole_moment_norm": 3.02027750546, 
			 "electric_quadrupole_moment_norm": 17.0436272272, 
			 "total_energy": -3147.43062427, 
			 "HOMO_LUMO_gap": 0.18296, 
			 "cosmo_polarized_energy": -9.15, 
			 "cosmo_cavitation_energy": 30.68, 
			 "cosmo_dispersion_energy": -22.0, 
			 "cosmo_repulsion_energy": 1.72, 
			 "cosmo_total_nonelectrostatic_energy": 10.39, 
			 "SMD_solvation_energy": 4.65 
		},
		"coords": [
			{
				"x": 2.8853758661,
				"y": -0.6335425303,
				"z": 0.4836075179,
				"element": "Br" 
			},
			{
				"x": 1.3762500227,
				"y": -1.7494712679,
				"z": 0.8677606206,
				"element": "C" 
			},
			{
				"x": 0.1386953056,
				"y": -1.1925505925,
				"z": 1.2112845434,
				"element": "C" 
			},
			{
				"x": -0.9013203427,
				"y": -2.0671978748,
				"z": 1.5627211305,
				"element": "C" 
			},
			{
				"x": -0.7261484291,
				"y": -3.4480554282,
				"z": 1.5306615487,
				"element": "C" 
			},
			{
				"x": 0.5122018605,
				"y": -3.9802428938,
				"z": 1.1671704479,
				"element": "C" 
			},
			{
				"x": 1.5702203177,
				"y": -3.1310720732,
				"z": 0.8457416487,
				"element": "C" 
			},
			{
				"x": -0.1466301366,
				"y": 0.2918149,
				"z": 1.3098185768,
				"element": "C" 
			},
			{
				"x": -0.474139958,
				"y": 0.7536021655,
				"z": 2.3934772045,
				"element": "O" 
			},
			{
				"x": -0.1154908461,
				"y": 1.139876128,
				"z": 0.0810180551,
				"element": "C" 
			},
			{
				"x": -0.0357294498,
				"y": 0.5939364525,
				"z": -1.2085703892,
				"element": "C" 
			},
			{
				"x": -0.064013955,
				"y": 1.4277589367,
				"z": -2.3254995449,
				"element": "C" 
			},
			{
				"x": -0.1645150081,
				"y": 2.8109845347,
				"z": -2.1624468218,
				"element": "C" 
			},
			{
				"x": -0.2459809395,
				"y": 3.3619418277,
				"z": -0.8792897502,
				"element": "C" 
			},
			{
				"x": -0.2284434367,
				"y": 2.5309280651,
				"z": 0.2360806229,
				"element": "C" 
			},
			{
				"x": -1.853101942,
				"y": -1.641013614,
				"z": 1.8643948439,
				"element": "H" 
			},
			{
				"x": -1.5487151261,
				"y": -4.1049928634,
				"z": 1.7957904723,
				"element": "H" 
			},
			{
				"x": 0.6637256362,
				"y": -5.0552610133,
				"z": 1.1438678066,
				"element": "H" 
			},
			{
				"x": 2.5441057356,
				"y": -3.5313084968,
				"z": 0.5878224303,
				"element": "H" 
			},
			{
				"x": 0.0409645642,
				"y": -0.480678053,
				"z": -1.3374842269,
				"element": "H" 
			},
			{
				"x": -0.0065765061,
				"y": 0.9993309794,
				"z": -3.3217169472,
				"element": "H" 
			},
			{
				"x": -0.1814013405,
				"y": 3.4597549293,
				"z": -3.0336993213,
				"element": "H" 
			},
			{
				"x": -0.3257502334,
				"y": 4.4377799265,
				"z": -0.7535272448,
				"element": "H" 
			},
			{
				"x": -0.3015816589,
				"y": 2.9326778558,
				"z": 1.2411167765,
				"element": "H" 
			}
		],
		 "valence_orbital": [ 
			{
				"type": "occ",
				"energy": -0.27255,
				"method": "rhf"
			},
			{
				"type": "occ",
				"energy": -0.25952,
				"method": "rhf"
			},
			{
				"type": "occ",
				"energy": -0.25757,
				"method": "rhf"
			},
			{
				"type": "occ",
				"energy": -0.25168,
				"method": "rhf"
			},
			{
				"type": "occ",
				"energy": -0.24676,
				"method": "rhf"
			},
			{
				"type": "unocc",
				"energy": -0.0638,
				"method": "rhf"
			},
			{
				"type": "unocc",
				"energy": -0.02163,
				"method": "rhf"
			},
			{
				"type": "unocc",
				"energy": -0.02058,
				"method": "rhf"
			},
			{
				"type": "unocc",
				"energy": -0.00792,
				"method": "rhf"
			},
			{
				"type": "unocc",
				"energy": 0.00408,
				"method": "rhf"
			}
		],
		"cosmo_sigma_profile": { 
			"-0.025": 0.0,
			"-0.024": 0.0,
			"-0.023": 0.0,
			"-0.022": 0.0,
			"-0.021": 0.0,
			"-0.02": 0.0,
			"-0.019": 0.0,
			"-0.018": 0.0,
			"-0.017": 0.0,
			"-0.016": 0.0,
			"-0.015": 0.0,
			"-0.014": 0.0,
			"-0.013": 0.0,
			"-0.012": 0.0,
			"-0.011": 0.0,
			"-0.01": 0.0,
			"-0.009": 0.0,
			"-0.008": 0.404690383357,
			"-0.007": 8.33968124959,
			"-0.006": 17.4460937192,
			"-0.005": 20.8095972151,
			"-0.004": 18.5531079916,
			"-0.003": 15.7024469891,
			"-0.002": 16.0793638987,
			"-0.001": 13.3910390106,
			"0.0": 19.1261131095,
			"0.001": 21.4083550513,
			"0.002": 23.5842887434,
			"0.003": 28.2914945995,
			"0.004": 24.3396423385,
			"0.005": 6.06197767093,
			"0.006": 1.66523637712,
			"0.007": 1.6949929274,
			"0.008": 1.87130259291,
			"0.009": 2.14184560982,
			"0.01": 2.56949353543,
			"0.011": 3.96599979268,
			"0.012": 2.27497052076,
			"0.013": 0.219987400453,
			"0.014": 0.0,
			"0.015": 0.0,
			"0.016": 0.0,
			"0.017": 0.0,
			"0.018": 0.0,
			"0.019": 0.0,
			"0.02": 0.0,
			"0.021": 0.0,
			"0.022": 0.0,
			"0.023": 0.0,
			"0.024": 0.0,
			"0.0": 0.0
		}
	}
}
