{
	 "smiles": "OC1=C(Cl)C=C(Cl)C(Cl)=C1", 
	 "Tm": 340.35, 
	 "num_atms": 13, 
	 "gaussian": { 
		 "optdone": 1, 
		 "sigma_profile": "yes", 
		 "theory": "DFT", 
		 "functional": "B3LYP", 
		 "basiset": "6-31G**", 
		 "properties": { 
			 "R2extent": 4599.89, 
			 "electric_dipole_moment_norm": 2.04960929204, 
			 "electric_quadrupole_moment_norm": 6.46447925436, 
			 "total_energy": -1686.23902657, 
			 "HOMO_LUMO_gap": 0.20257, 
			 "cosmo_polarized_energy": -5.88, 
			 "cosmo_cavitation_energy": 22.81, 
			 "cosmo_dispersion_energy": -17.61, 
			 "cosmo_repulsion_energy": 1.43, 
			 "cosmo_total_nonelectrostatic_energy": 6.63, 
			 "SMD_solvation_energy": 3.51 
		},
		"coords": [
			{
				"x": -3.0149295309,
				"y": 1.5119126876,
				"z": 0.7358988097,
				"element": "O" 
			},
			{
				"x": -2.0713959304,
				"y": 0.8656222606,
				"z": 1.4568399409,
				"element": "C" 
			},
			{
				"x": -2.1094724249,
				"y": 0.7441098134,
				"z": 2.8549460032,
				"element": "C" 
			},
			{
				"x": -3.4531819052,
				"y": 1.4681499054,
				"z": 3.7268312725,
				"element": "Cl" 
			},
			{
				"x": -1.1116644932,
				"y": 0.0679580137,
				"z": 3.5468436776,
				"element": "C" 
			},
			{
				"x": -0.0467272187,
				"y": -0.5055313791,
				"z": 2.8526437909,
				"element": "C" 
			},
			{
				"x": 1.1881024607,
				"y": -1.3471040985,
				"z": 3.7552815899,
				"element": "Cl" 
			},
			{
				"x": 0.0036976725,
				"y": -0.3915346856,
				"z": 1.4548738803,
				"element": "C" 
			},
			{
				"x": 1.3116094507,
				"y": -1.088909165,
				"z": 0.5353817389,
				"element": "Cl" 
			},
			{
				"x": -1.0003085353,
				"y": 0.2876798928,
				"z": 0.7696489645,
				"element": "C" 
			},
			{
				"x": -3.691662977,
				"y": 1.8598878042,
				"z": 1.336783816,
				"element": "H" 
			},
			{
				"x": -1.1591404938,
				"y": -0.0148618123,
				"z": 4.6258689526,
				"element": "H" 
			},
			{
				"x": -0.9652260743,
				"y": 0.3780207628,
				"z": -0.3093424371,
				"element": "H" 
			}
		],
		 "valence_orbital": [ 
			{
				"type": "occ",
				"energy": -0.33474,
				"method": "rhf"
			},
			{
				"type": "occ",
				"energy": -0.31649,
				"method": "rhf"
			},
			{
				"type": "occ",
				"energy": -0.31639,
				"method": "rhf"
			},
			{
				"type": "occ",
				"energy": -0.26703,
				"method": "rhf"
			},
			{
				"type": "occ",
				"energy": -0.24057,
				"method": "rhf"
			},
			{
				"type": "unocc",
				"energy": -0.038,
				"method": "rhf"
			},
			{
				"type": "unocc",
				"energy": -0.02216,
				"method": "rhf"
			},
			{
				"type": "unocc",
				"energy": -0.01583,
				"method": "rhf"
			},
			{
				"type": "unocc",
				"energy": 0.01939,
				"method": "rhf"
			},
			{
				"type": "unocc",
				"energy": 0.05517,
				"method": "rhf"
			}
		],
		"cosmo_sigma_profile": { 
			"-0.025": 0.0,
			"-0.024": 0.0,
			"-0.023": 0.0,
			"-0.022": 0.0,
			"-0.021": 0.0,
			"-0.02": 0.0,
			"-0.019": 0.0,
			"-0.018": 0.0,
			"-0.017": 0.0200774485957,
			"-0.016": 0.362099205811,
			"-0.015": 0.76012480219,
			"-0.014": 0.569809734846,
			"-0.013": 0.218148722284,
			"-0.012": 1.17128794587,
			"-0.011": 1.27501971506,
			"-0.01": 0.853332611597,
			"-0.009": 2.50290538434,
			"-0.008": 4.22061688261,
			"-0.007": 4.0106305406,
			"-0.006": 3.60361821492,
			"-0.005": 3.91352905207,
			"-0.004": 5.83478174688,
			"-0.003": 9.97187411509,
			"-0.002": 10.8655819473,
			"-0.001": 16.3625360129,
			"0.0": 29.809912927,
			"0.001": 25.4668954509,
			"0.002": 16.3459552838,
			"0.003": 21.624658294,
			"0.004": 18.366468254,
			"0.005": 5.52319022911,
			"0.006": 1.21045573179,
			"0.007": 1.47947034058,
			"0.008": 1.55362419075,
			"0.009": 1.61124924302,
			"0.01": 0.959254061026,
			"0.011": 0.0,
			"0.012": 0.0,
			"0.013": 0.0,
			"0.014": 0.0,
			"0.015": 0.0,
			"0.016": 0.0,
			"0.017": 0.0,
			"0.018": 0.0,
			"0.019": 0.0,
			"0.02": 0.0,
			"0.021": 0.0,
			"0.022": 0.0,
			"0.023": 0.0,
			"0.024": 0.0,
			"0.025": 0.0
		}
	}
}
