{
	 "smiles": "CN(C(Cl)=S)C1=CC=C(C)C=C1", 
	 "Tm": 330.65, 
	 "num_atms": 22, 
	 "gaussian": { 
		 "optdone": 1, 
		 "sigma_profile": "yes", 
		 "theory": "DFT", 
		 "functional": "B3LYP", 
		 "basiset": "6-31G**", 
		 "properties": { 
			 "R2extent": 3767.9725, 
			 "electric_dipole_moment_norm": 5.37684522559, 
			 "electric_quadrupole_moment_norm": 16.3972309806, 
			 "total_energy": -1262.11263104, 
			 "HOMO_LUMO_gap": 0.17637, 
			 "cosmo_polarized_energy": -11.03, 
			 "cosmo_cavitation_energy": 29.28, 
			 "cosmo_dispersion_energy": -20.94, 
			 "cosmo_repulsion_energy": 1.65, 
			 "cosmo_total_nonelectrostatic_energy": 10.0, 
			 "SMD_solvation_energy": 4.44 
		},
		"coords": [
			{
				"x": 2.6030759756,
				"y": -0.8671114856,
				"z": -0.6000767693,
				"element": "C" 
			},
			{
				"x": 1.613631654,
				"y": -1.0242219484,
				"z": 0.4812312809,
				"element": "N" 
			},
			{
				"x": 1.6695691931,
				"y": -1.9788365856,
				"z": 1.4368444303,
				"element": "C" 
			},
			{
				"x": 3.10736219,
				"y": -3.0488182811,
				"z": 1.2328965868,
				"element": "Cl" 
			},
			{
				"x": 0.6228599292,
				"y": -2.2327647932,
				"z": 2.6753477599,
				"element": "S" 
			},
			{
				"x": 0.519192015,
				"y": -0.0775041327,
				"z": 0.4949257149,
				"element": "C" 
			},
			{
				"x": -0.6440935403,
				"y": -0.3506886597,
				"z": -0.2251732969,
				"element": "C" 
			},
			{
				"x": -1.6697223197,
				"y": 0.5922371693,
				"z": -0.2593721876,
				"element": "C" 
			},
			{
				"x": -1.5537247465,
				"y": 1.8160096154,
				"z": 0.414270709,
				"element": "C" 
			},
			{
				"x": -2.6580011866,
				"y": 2.8444150836,
				"z": 0.3493070059,
				"element": "C" 
			},
			{
				"x": -0.3763712363,
				"y": 2.0675589636,
				"z": 1.1317623692,
				"element": "C" 
			},
			{
				"x": 0.6569646072,
				"y": 1.1331015193,
				"z": 1.1741336127,
				"element": "C" 
			},
			{
				"x": 2.291376062,
				"y": -0.0169940719,
				"z": -1.2052580388,
				"element": "H" 
			},
			{
				"x": 3.6006325277,
				"y": -0.6752750293,
				"z": -0.1965685872,
				"element": "H" 
			},
			{
				"x": 2.6450689254,
				"y": -1.7603405966,
				"z": -1.2287205584,
				"element": "H" 
			},
			{
				"x": -0.7473721692,
				"y": -1.3005902372,
				"z": -0.7402076777,
				"element": "H" 
			},
			{
				"x": -2.5771649955,
				"y": 0.3711058119,
				"z": -0.8151960632,
				"element": "H" 
			},
			{
				"x": -2.6717710106,
				"y": 3.473383954,
				"z": 1.2441044169,
				"element": "H" 
			},
			{
				"x": -2.5296039321,
				"y": 3.5086535799,
				"z": -0.5145967839,
				"element": "H" 
			},
			{
				"x": -3.6395665596,
				"y": 2.3713247945,
				"z": 0.2521093413,
				"element": "H" 
			},
			{
				"x": -0.2672724224,
				"y": 3.00587609,
				"z": 1.6692520768,
				"element": "H" 
			},
			{
				"x": 1.5604310394,
				"y": 1.3316792398,
				"z": 1.7420846582,
				"element": "H" 
			}
		],
		 "valence_orbital": [ 
			{
				"type": "occ",
				"energy": -0.30716,
				"method": "rhf"
			},
			{
				"type": "occ",
				"energy": -0.26404,
				"method": "rhf"
			},
			{
				"type": "occ",
				"energy": -0.25751,
				"method": "rhf"
			},
			{
				"type": "occ",
				"energy": -0.23347,
				"method": "rhf"
			},
			{
				"type": "occ",
				"energy": -0.21453,
				"method": "rhf"
			},
			{
				"type": "unocc",
				"energy": -0.03816,
				"method": "rhf"
			},
			{
				"type": "unocc",
				"energy": -0.02135,
				"method": "rhf"
			},
			{
				"type": "unocc",
				"energy": -0.01486,
				"method": "rhf"
			},
			{
				"type": "unocc",
				"energy": 0.01388,
				"method": "rhf"
			},
			{
				"type": "unocc",
				"energy": 0.08133,
				"method": "rhf"
			}
		],
		"cosmo_sigma_profile": { 
			"-0.025": 0.0,
			"-0.024": 0.0,
			"-0.023": 0.0,
			"-0.022": 0.0,
			"-0.021": 0.0,
			"-0.02": 0.0,
			"-0.019": 0.0,
			"-0.018": 0.0,
			"-0.017": 0.0,
			"-0.016": 0.0,
			"-0.015": 0.0,
			"-0.014": 0.0,
			"-0.013": 0.0,
			"-0.012": 0.0,
			"-0.011": 0.0,
			"-0.01": 0.0,
			"-0.009": 0.0,
			"-0.008": 0.0563499173686,
			"-0.007": 4.35492234975,
			"-0.006": 14.214854817,
			"-0.005": 20.6156001556,
			"-0.004": 27.4221062996,
			"-0.003": 20.7797234569,
			"-0.002": 16.3867055116,
			"-0.001": 16.7473014764,
			"0.0": 17.2214548421,
			"0.001": 13.7799694549,
			"0.002": 13.6968371808,
			"0.003": 14.1867029929,
			"0.004": 16.1114169707,
			"0.005": 9.57576594602,
			"0.006": 8.64457602866,
			"0.007": 9.30170197725,
			"0.008": 6.80165432209,
			"0.009": 5.10048414288,
			"0.01": 2.6011270808,
			"0.011": 0.1979989696,
			"0.012": 0.0,
			"0.013": 0.0,
			"0.014": 0.0,
			"0.015": 0.0,
			"0.016": 0.0,
			"0.017": 0.0,
			"0.018": 0.0,
			"0.019": 0.0,
			"0.02": 0.0,
			"0.021": 0.0,
			"0.022": 0.0,
			"0.023": 0.0,
			"0.024": 0.0,
			"0.025": 0.0
		}
	}
}
