{
	 "smiles": "CCCCCCCCCCCCCCCC(O)=O", 
	 "Tm": 334.95, 
	 "num_atms": 50, 
	 "gaussian": { 
		 "optdone": 1, 
		 "sigma_profile": "yes", 
		 "theory": "DFT", 
		 "functional": "B3LYP", 
		 "basiset": "6-31G**", 
		 "properties": { 
			 "R2extent": 7684.1814, 
			 "electric_dipole_moment_norm": 1.32811881246, 
			 "electric_quadrupole_moment_norm": 12.4982788383, 
			 "total_energy": -779.498915806, 
			 "HOMO_LUMO_gap": 0.28524, 
			 "cosmo_polarized_energy": -8.27, 
			 "cosmo_cavitation_energy": 49.55, 
			 "cosmo_dispersion_energy": -30.92, 
			 "cosmo_repulsion_energy": 2.46, 
			 "cosmo_total_nonelectrostatic_energy": 21.08, 
			 "SMD_solvation_energy": 7.6 
		},
		"coords": [
			{
				"x": -2.611357791,
				"y": 0.3281247723,
				"z": -0.0565315556,
				"element": "C" 
			},
			{
				"x": -2.7867249695,
				"y": 0.2762712775,
				"z": -1.578906535,
				"element": "C" 
			},
			{
				"x": -2.5164626619,
				"y": 1.6133528241,
				"z": -2.2908273898,
				"element": "C" 
			},
			{
				"x": -1.0719607304,
				"y": 2.1389871223,
				"z": -2.2156042518,
				"element": "C" 
			},
			{
				"x": -0.0415355878,
				"y": 1.2754219506,
				"z": -2.9607892328,
				"element": "C" 
			},
			{
				"x": 1.3546842224,
				"y": 1.9177306499,
				"z": -3.058457469,
				"element": "C" 
			},
			{
				"x": 2.1694599098,
				"y": 1.9631252334,
				"z": -1.7521825526,
				"element": "C" 
			},
			{
				"x": 2.7788502394,
				"y": 0.6125482319,
				"z": -1.3418811518,
				"element": "C" 
			},
			{
				"x": 3.6605327193,
				"y": 0.6906286723,
				"z": -0.080454533,
				"element": "C" 
			},
			{
				"x": 2.8964622027,
				"y": 0.7363058671,
				"z": 1.2566779825,
				"element": "C" 
			},
			{
				"x": 2.3929175784,
				"y": -0.6361018553,
				"z": 1.7286621002,
				"element": "C" 
			},
			{
				"x": 1.6249057651,
				"y": -0.5765676552,
				"z": 3.0572963801,
				"element": "C" 
			},
			{
				"x": 1.3430004404,
				"y": -1.9487724138,
				"z": 3.6960585648,
				"element": "C" 
			},
			{
				"x": 0.4844375527,
				"y": -2.9200747492,
				"z": 2.8697300015,
				"element": "C" 
			},
			{
				"x": -0.9477489025,
				"y": -2.4325732325,
				"z": 2.6405662064,
				"element": "C" 
			},
			{
				"x": -1.7948259002,
				"y": -3.4258418184,
				"z": 1.8773642785,
				"element": "C" 
			},
			{
				"x": -3.0692688338,
				"y": -2.9778086928,
				"z": 1.7220610025,
				"element": "O" 
			},
			{
				"x": -1.4297851247,
				"y": -4.4936730228,
				"z": 1.4379261225,
				"element": "O" 
			},
			{
				"x": -1.5759088378,
				"y": 0.5499032296,
				"z": 0.2256838782,
				"element": "H" 
			},
			{
				"x": -2.8861665923,
				"y": -0.6246705594,
				"z": 0.4069426824,
				"element": "H" 
			},
			{
				"x": -3.2440330744,
				"y": 1.1069905281,
				"z": 0.3857179139,
				"element": "H" 
			},
			{
				"x": -3.8152930348,
				"y": -0.0322421563,
				"z": -1.8065250156,
				"element": "H" 
			},
			{
				"x": -2.1416826059,
				"y": -0.5073851782,
				"z": -1.9968055665,
				"element": "H" 
			},
			{
				"x": -3.1895936474,
				"y": 2.3729789901,
				"z": -1.8696125245,
				"element": "H" 
			},
			{
				"x": -2.7967362003,
				"y": 1.5141151699,
				"z": -3.3486938291,
				"element": "H" 
			},
			{
				"x": -1.0527536416,
				"y": 3.1489597566,
				"z": -2.6481114741,
				"element": "H" 
			},
			{
				"x": -0.7753796322,
				"y": 2.260808881,
				"z": -1.1661097448,
				"element": "H" 
			},
			{
				"x": -0.4131451743,
				"y": 1.0957476247,
				"z": -3.9791476814,
				"element": "H" 
			},
			{
				"x": 0.0352798358,
				"y": 0.285589246,
				"z": -2.492687807,
				"element": "H" 
			},
			{
				"x": 1.9440886248,
				"y": 1.3820946772,
				"z": -3.8152442066,
				"element": "H" 
			},
			{
				"x": 1.2356353242,
				"y": 2.9409053222,
				"z": -3.4403375705,
				"element": "H" 
			},
			{
				"x": 2.9918399786,
				"y": 2.6802711407,
				"z": -1.8796006613,
				"element": "H" 
			},
			{
				"x": 1.5504662916,
				"y": 2.36358858,
				"z": -0.9387086639,
				"element": "H" 
			},
			{
				"x": 1.9879957407,
				"y": -0.1357288142,
				"z": -1.1985420416,
				"element": "H" 
			},
			{
				"x": 3.3882082404,
				"y": 0.2451372588,
				"z": -2.1786397898,
				"element": "H" 
			},
			{
				"x": 4.3425210898,
				"y": -0.1700397032,
				"z": -0.0595619507,
				"element": "H" 
			},
			{
				"x": 4.3023772675,
				"y": 1.5780510178,
				"z": -0.1625334817,
				"element": "H" 
			},
			{
				"x": 2.0519781451,
				"y": 1.4356772253,
				"z": 1.183293264,
				"element": "H" 
			},
			{
				"x": 3.5562012455,
				"y": 1.1467525381,
				"z": 2.0328008422,
				"element": "H" 
			},
			{
				"x": 3.2572422129,
				"y": -1.3066610897,
				"z": 1.8424421915,
				"element": "H" 
			},
			{
				"x": 1.7624578219,
				"y": -1.08779776,
				"z": 0.951790623,
				"element": "H" 
			},
			{
				"x": 2.2077325642,
				"y": 0.0164931564,
				"z": 3.7751453439,
				"element": "H" 
			},
			{
				"x": 0.6867790314,
				"y": -0.0230329791,
				"z": 2.9125495688,
				"element": "H" 
			},
			{
				"x": 0.8642692679,
				"y": -1.7924363861,
				"z": 4.6727303954,
				"element": "H" 
			},
			{
				"x": 2.3037201796,
				"y": -2.4369791633,
				"z": 3.9067771548,
				"element": "H" 
			},
			{
				"x": 0.4459134243,
				"y": -3.8883053442,
				"z": 3.380900989,
				"element": "H" 
			},
			{
				"x": 0.9544680304,
				"y": -3.1194888726,
				"z": 1.9006973708,
				"element": "H" 
			},
			{
				"x": -0.9745962916,
				"y": -1.4881655571,
				"z": 2.0834064802,
				"element": "H" 
			},
			{
				"x": -1.4554172477,
				"y": -2.2225535768,
				"z": 3.5912392398,
				"element": "H" 
			},
			{
				"x": -3.5352484648,
				"y": -3.6649603642,
				"z": 1.2165361031,
				"element": "H" 
			}
		],
		 "valence_orbital": [ 
			{
				"type": "occ",
				"energy": -0.30721,
				"method": "rhf"
			},
			{
				"type": "occ",
				"energy": -0.30168,
				"method": "rhf"
			},
			{
				"type": "occ",
				"energy": -0.30072,
				"method": "rhf"
			},
			{
				"type": "occ",
				"energy": -0.29758,
				"method": "rhf"
			},
			{
				"type": "occ",
				"energy": -0.27447,
				"method": "rhf"
			},
			{
				"type": "unocc",
				"energy": 0.01077,
				"method": "rhf"
			},
			{
				"type": "unocc",
				"energy": 0.05698,
				"method": "rhf"
			},
			{
				"type": "unocc",
				"energy": 0.07772,
				"method": "rhf"
			},
			{
				"type": "unocc",
				"energy": 0.08832,
				"method": "rhf"
			},
			{
				"type": "unocc",
				"energy": 0.09752,
				"method": "rhf"
			}
		],
		"cosmo_sigma_profile": { 
			"-0.025": 0.0,
			"-0.024": 0.0,
			"-0.023": 0.0,
			"-0.022": 0.0,
			"-0.021": 0.0,
			"-0.02": 0.0,
			"-0.019": 0.0,
			"-0.018": 0.274635415377,
			"-0.017": 0.911810943242,
			"-0.016": 1.10094163015,
			"-0.015": 0.869011014309,
			"-0.014": 0.530888537274,
			"-0.013": 0.82416437535,
			"-0.012": 0.334230163007,
			"-0.011": 0.41828189835,
			"-0.01": 1.22981684512,
			"-0.009": 0.840882293196,
			"-0.008": 0.544506201567,
			"-0.007": 0.50740754866,
			"-0.006": 1.25427327455,
			"-0.005": 3.92557052776,
			"-0.004": 4.54125544177,
			"-0.003": 14.0634286566,
			"-0.002": 55.3698157737,
			"-0.001": 80.2642918311,
			"0.0": 78.1027869326,
			"0.001": 68.3263375718,
			"0.002": 33.1138367857,
			"0.003": 4.38318996432,
			"0.004": 3.513527588,
			"0.005": 2.99964493781,
			"0.006": 1.86354633514,
			"0.007": 2.57980185963,
			"0.008": 2.71993047522,
			"0.009": 2.53131118117,
			"0.01": 2.52067466992,
			"0.011": 3.03642646901,
			"0.012": 5.06212556588,
			"0.013": 0.967112587644,
			"0.014": 0.0,
			"0.015": 0.0,
			"0.016": 0.0,
			"0.017": 0.0,
			"0.018": 0.0,
			"0.019": 0.0,
			"0.02": 0.0,
			"0.021": 0.0,
			"0.022": 0.0,
			"0.023": 0.0,
			"0.024": 0.0,
			"0.025": 0.0
		}
	}
}
