{
	 "smiles": "NC(=O)NN=CC[N+]([O-])=O", 
	 "Tm": 633.15, 
	 "num_atms": 16, 
	 "gaussian": { 
		 "optdone": 1, 
		 "sigma_profile": "yes", 
		 "theory": "DFT", 
		 "functional": "B3LYP", 
		 "basiset": "6-31G**", 
		 "properties": { 
			 "R2extent": 2389.9292, 
			 "electric_dipole_moment_norm": 6.16748491202, 
			 "electric_quadrupole_moment_norm": 17.9232611157, 
			 "total_energy": -562.478250464, 
			 "HOMO_LUMO_gap": 0.19431, 
			 "cosmo_polarized_energy": -21.44, 
			 "cosmo_cavitation_energy": 21.49, 
			 "cosmo_dispersion_energy": -15.56, 
			 "cosmo_repulsion_energy": 1.3, 
			 "cosmo_total_nonelectrostatic_energy": 7.23, 
			 "SMD_solvation_energy": 6.13 
		},
		"coords": [
			{
				"x": 1.1962304806,
				"y": 1.380999651,
				"z": 1.7379335632,
				"element": "N" 
			},
			{
				"x": 0.3818308514,
				"y": 0.3353562406,
				"z": 1.3507415928,
				"element": "C" 
			},
			{
				"x": -0.5134879421,
				"y": -0.1140999396,
				"z": 2.043193096,
				"element": "O" 
			},
			{
				"x": 0.6895463485,
				"y": -0.1344585194,
				"z": 0.0553370735,
				"element": "N" 
			},
			{
				"x": -0.2550232998,
				"y": -0.8358123222,
				"z": -0.6975661216,
				"element": "N" 
			},
			{
				"x": -0.7443137876,
				"y": -1.9270186123,
				"z": -0.2440887539,
				"element": "C" 
			},
			{
				"x": -0.3747411716,
				"y": -2.7080894912,
				"z": 0.9831397605,
				"element": "C" 
			},
			{
				"x": -1.5189089863,
				"y": -2.8177387856,
				"z": 1.9731825568,
				"element": "N" 
			},
			{
				"x": -1.2150634532,
				"y": -3.1334562224,
				"z": 3.1144382508,
				"element": "O" 
			},
			{
				"x": -2.6539322321,
				"y": -2.6471219509,
				"z": 1.5457164859,
				"element": "O" 
			},
			{
				"x": 1.1234494037,
				"y": 1.6055576783,
				"z": 2.7197132075,
				"element": "H" 
			},
			{
				"x": 2.124026737,
				"y": 1.454054079,
				"z": 1.3452427425,
				"element": "H" 
			},
			{
				"x": 1.0751610328,
				"y": 0.5912153393,
				"z": -0.5376048269,
				"element": "H" 
			},
			{
				"x": -1.4873568625,
				"y": -2.3824859076,
				"z": -0.8952891875,
				"element": "H" 
			},
			{
				"x": 0.4687225115,
				"y": -2.3080408645,
				"z": 1.5355461532,
				"element": "H" 
			},
			{
				"x": -0.1662396305,
				"y": -3.7472603724,
				"z": 0.7024644073,
				"element": "H" 
			}
		],
		 "valence_orbital": [ 
			{
				"type": "occ",
				"energy": -0.29954,
				"method": "rhf"
			},
			{
				"type": "occ",
				"energy": -0.29568,
				"method": "rhf"
			},
			{
				"type": "occ",
				"energy": -0.28963,
				"method": "rhf"
			},
			{
				"type": "occ",
				"energy": -0.27953,
				"method": "rhf"
			},
			{
				"type": "occ",
				"energy": -0.25032,
				"method": "rhf"
			},
			{
				"type": "unocc",
				"energy": -0.05601,
				"method": "rhf"
			},
			{
				"type": "unocc",
				"energy": -0.03224,
				"method": "rhf"
			},
			{
				"type": "unocc",
				"energy": 0.02919,
				"method": "rhf"
			},
			{
				"type": "unocc",
				"energy": 0.04894,
				"method": "rhf"
			},
			{
				"type": "unocc",
				"energy": 0.09981,
				"method": "rhf"
			}
		],
		"cosmo_sigma_profile": { 
			"-0.025": 0.0,
			"-0.024": 0.0,
			"-0.023": 0.0,
			"-0.022": 0.0,
			"-0.021": 0.0,
			"-0.02": 0.0,
			"-0.019": 0.0,
			"-0.018": 0.0,
			"-0.017": 0.00400489318647,
			"-0.016": 0.965666437485,
			"-0.015": 3.1883372128,
			"-0.014": 3.12340171001,
			"-0.013": 3.64054560698,
			"-0.012": 2.92734538456,
			"-0.011": 4.83003207915,
			"-0.01": 6.67881019981,
			"-0.009": 4.20886178874,
			"-0.008": 6.78319969836,
			"-0.007": 6.78716573042,
			"-0.006": 7.21117211058,
			"-0.005": 5.85366165135,
			"-0.004": 5.07945564296,
			"-0.003": 5.34551478493,
			"-0.002": 6.07712740519,
			"-0.001": 5.22203320594,
			"0.0": 4.07842980999,
			"0.001": 4.11314052871,
			"0.002": 5.89482396642,
			"0.003": 6.49604585069,
			"0.004": 6.27218544189,
			"0.005": 8.54235975491,
			"0.006": 9.59963787995,
			"0.007": 15.5746046989,
			"0.008": 11.9845247893,
			"0.009": 7.32533134254,
			"0.01": 4.45081087884,
			"0.011": 2.17302698428,
			"0.012": 2.94209303665,
			"0.013": 2.38811184689,
			"0.014": 0.245159573604,
			"0.015": 0.0,
			"0.016": 0.0,
			"0.017": 0.0,
			"0.018": 0.0,
			"0.019": 0.0,
			"0.02": 0.0,
			"0.021": 0.0,
			"0.022": 0.0,
			"0.023": 0.0,
			"0.024": 0.0,
			"0.025": 0.0
		}
	}
}
