{
	 "smiles": "COC(=O)CCC(C)C1CCC2C3C=CC4CCCCC4(C)C3CCC12C", 
	 "Tm": 333.15, 
	 "num_atms": 67, 
	 "gaussian": { 
		 "optdone": 1, 
		 "sigma_profile": "yes", 
		 "theory": "DFT", 
		 "functional": "B3LYP", 
		 "basiset": "6-31G**", 
		 "properties": { 
			 "R2extent": 13223.3542, 
			 "electric_dipole_moment_norm": 2.01049269832, 
			 "electric_quadrupole_moment_norm": 9.40928280848, 
			 "total_energy": -1127.22900608, 
			 "HOMO_LUMO_gap": 0.23872, 
			 "cosmo_polarized_energy": -7.2, 
			 "cosmo_cavitation_energy": 56.69, 
			 "cosmo_dispersion_energy": -38.47, 
			 "cosmo_repulsion_energy": 2.86, 
			 "cosmo_total_nonelectrostatic_energy": 21.08, 
			 "SMD_solvation_energy": 9.22 
		},
		"coords": [
			{
				"x": 5.409392574,
				"y": -4.041534086,
				"z": -2.6705175987,
				"element": "C" 
			},
			{
				"x": 4.3923027828,
				"y": -4.5509191616,
				"z": -1.7922792158,
				"element": "O" 
			},
			{
				"x": 3.4272687354,
				"y": -3.6685474539,
				"z": -1.4481569027,
				"element": "C" 
			},
			{
				"x": 3.4016160434,
				"y": -2.5255610895,
				"z": -1.8569945585,
				"element": "O" 
			},
			{
				"x": 2.4417316124,
				"y": -4.2944425702,
				"z": -0.4802096598,
				"element": "C" 
			},
			{
				"x": 1.140590135,
				"y": -3.4977973611,
				"z": -0.3132542001,
				"element": "C" 
			},
			{
				"x": 0.2195949814,
				"y": -3.4751927105,
				"z": -1.5536910358,
				"element": "C" 
			},
			{
				"x": -0.3272934517,
				"y": -4.8845564384,
				"z": -1.8553677778,
				"element": "C" 
			},
			{
				"x": -0.9625873768,
				"y": -2.4696256487,
				"z": -1.4482022844,
				"element": "C" 
			},
			{
				"x": -1.6663810277,
				"y": -2.3276535467,
				"z": -0.0872409595,
				"element": "C" 
			},
			{
				"x": -2.6863071723,
				"y": -1.2080536404,
				"z": -0.3519361355,
				"element": "C" 
			},
			{
				"x": -2.0027874173,
				"y": -0.2312831165,
				"z": -1.3595183143,
				"element": "C" 
			},
			{
				"x": -1.63704012,
				"y": 1.1426856099,
				"z": -0.7554539507,
				"element": "C" 
			},
			{
				"x": -2.8475179775,
				"y": 1.9360463494,
				"z": -0.3252124921,
				"element": "C" 
			},
			{
				"x": -2.6548410536,
				"y": 3.0804643268,
				"z": 0.3362527946,
				"element": "C" 
			},
			{
				"x": -1.2355424999,
				"y": 3.5034158085,
				"z": 0.6108669053,
				"element": "C" 
			},
			{
				"x": -1.1059865995,
				"y": 4.8304780647,
				"z": 1.375570388,
				"element": "C" 
			},
			{
				"x": 0.3632853192,
				"y": 5.2597711635,
				"z": 1.4905093115,
				"element": "C" 
			},
			{
				"x": 1.2348927377,
				"y": 4.1454469712,
				"z": 2.0878390729,
				"element": "C" 
			},
			{
				"x": 1.0557994798,
				"y": 2.8067850926,
				"z": 1.3465849034,
				"element": "C" 
			},
			{
				"x": -0.4175671525,
				"y": 2.3292305393,
				"z": 1.2672993421,
				"element": "C" 
			},
			{
				"x": -0.9375061327,
				"y": 2.0353045042,
				"z": 2.6944880876,
				"element": "C" 
			},
			{
				"x": -0.6270552475,
				"y": 0.990557027,
				"z": 0.4232607989,
				"element": "C" 
			},
			{
				"x": 0.649385039,
				"y": 0.2380827038,
				"z": -0.0654179159,
				"element": "C" 
			},
			{
				"x": 0.5635849704,
				"y": -0.3011083517,
				"z": -1.5087993929,
				"element": "C" 
			},
			{
				"x": -0.7540141245,
				"y": -0.9944162593,
				"z": -1.9497607282,
				"element": "C" 
			},
			{
				"x": -0.7840441796,
				"y": -0.9686338104,
				"z": -3.4906739437,
				"element": "C" 
			},
			{
				"x": 4.9710851292,
				"y": -3.7039097132,
				"z": -3.6130262961,
				"element": "H" 
			},
			{
				"x": 6.0933246395,
				"y": -4.8725919398,
				"z": -2.8426804961,
				"element": "H" 
			},
			{
				"x": 5.9347852056,
				"y": -3.2022335065,
				"z": -2.2076753619,
				"element": "H" 
			},
			{
				"x": 2.9612919025,
				"y": -4.3634057179,
				"z": 0.4852701924,
				"element": "H" 
			},
			{
				"x": 2.2677047844,
				"y": -5.3296081525,
				"z": -0.7886252197,
				"element": "H" 
			},
			{
				"x": 1.4093683964,
				"y": -2.4787415668,
				"z": -0.0281493152,
				"element": "H" 
			},
			{
				"x": 0.5915300509,
				"y": -3.9259166329,
				"z": 0.5345464161,
				"element": "H" 
			},
			{
				"x": 0.8316118611,
				"y": -3.1685980565,
				"z": -2.412136651,
				"element": "H" 
			},
			{
				"x": -0.9827293636,
				"y": -5.2341728425,
				"z": -1.0483869927,
				"element": "H" 
			},
			{
				"x": -0.9124773214,
				"y": -4.8864129481,
				"z": -2.7808035059,
				"element": "H" 
			},
			{
				"x": 0.4696338535,
				"y": -5.6253142338,
				"z": -1.9759633895,
				"element": "H" 
			},
			{
				"x": -1.7355774398,
				"y": -2.8663279034,
				"z": -2.1238689935,
				"element": "H" 
			},
			{
				"x": -2.1423446073,
				"y": -3.2570355422,
				"z": 0.2459688603,
				"element": "H" 
			},
			{
				"x": -0.9606182386,
				"y": -2.0299371854,
				"z": 0.695538992,
				"element": "H" 
			},
			{
				"x": -3.0179370696,
				"y": -0.7067827459,
				"z": 0.5631223049,
				"element": "H" 
			},
			{
				"x": -3.5828973081,
				"y": -1.6399187663,
				"z": -0.8116101244,
				"element": "H" 
			},
			{
				"x": -2.7054276999,
				"y": -0.0308938697,
				"z": -2.1780143421,
				"element": "H" 
			},
			{
				"x": -1.1392919585,
				"y": 1.7237969244,
				"z": -1.5502109142,
				"element": "H" 
			},
			{
				"x": -3.8435411871,
				"y": 1.5732987554,
				"z": -0.5718090109,
				"element": "H" 
			},
			{
				"x": -3.4817436609,
				"y": 3.7069970779,
				"z": 0.6661444259,
				"element": "H" 
			},
			{
				"x": -0.7561585563,
				"y": 3.669781648,
				"z": -0.3701181113,
				"element": "H" 
			},
			{
				"x": -1.6831936387,
				"y": 5.6034670243,
				"z": 0.8520951706,
				"element": "H" 
			},
			{
				"x": -1.5537976328,
				"y": 4.740282794,
				"z": 2.3736291474,
				"element": "H" 
			},
			{
				"x": 0.4517287097,
				"y": 6.175108501,
				"z": 2.088221085,
				"element": "H" 
			},
			{
				"x": 0.7374830872,
				"y": 5.5070647767,
				"z": 0.4866020482,
				"element": "H" 
			},
			{
				"x": 2.2917717631,
				"y": 4.437110896,
				"z": 2.0503539726,
				"element": "H" 
			},
			{
				"x": 0.9946531447,
				"y": 4.0219890192,
				"z": 3.1510298846,
				"element": "H" 
			},
			{
				"x": 1.449341247,
				"y": 2.9292706126,
				"z": 0.3284128687,
				"element": "H" 
			},
			{
				"x": 1.6767690842,
				"y": 2.042496688,
				"z": 1.8295218132,
				"element": "H" 
			},
			{
				"x": -1.9934659698,
				"y": 1.7498404706,
				"z": 2.6681355039,
				"element": "H" 
			},
			{
				"x": -0.3772049855,
				"y": 1.2012476949,
				"z": 3.1332453499,
				"element": "H" 
			},
			{
				"x": -0.8413649208,
				"y": 2.8848050175,
				"z": 3.375055029,
				"element": "H" 
			},
			{
				"x": -1.1298130163,
				"y": 0.309888333,
				"z": 1.1161942432,
				"element": "H" 
			},
			{
				"x": 1.5314572151,
				"y": 0.880319833,
				"z": -0.0319772446,
				"element": "H" 
			},
			{
				"x": 0.8644969451,
				"y": -0.5772332932,
				"z": 0.6343987542,
				"element": "H" 
			},
			{
				"x": 1.4201420975,
				"y": -0.9549970548,
				"z": -1.7014058032,
				"element": "H" 
			},
			{
				"x": 0.7060577825,
				"y": 0.5551814589,
				"z": -2.1805501435,
				"element": "H" 
			},
			{
				"x": -1.6925986942,
				"y": -1.4426937668,
				"z": -3.879650549,
				"element": "H" 
			},
			{
				"x": -0.7570030085,
				"y": 0.0601424357,
				"z": -3.8678922588,
				"element": "H" 
			},
			{
				"x": 0.0789765009,
				"y": -1.493207439,
				"z": -3.9178158764,
				"element": "H" 
			}
		],
		 "valence_orbital": [ 
			{
				"type": "occ",
				"energy": -0.27347,
				"method": "rhf"
			},
			{
				"type": "occ",
				"energy": -0.27236,
				"method": "rhf"
			},
			{
				"type": "occ",
				"energy": -0.26594,
				"method": "rhf"
			},
			{
				"type": "occ",
				"energy": -0.26225,
				"method": "rhf"
			},
			{
				"type": "occ",
				"energy": -0.22734,
				"method": "rhf"
			},
			{
				"type": "unocc",
				"energy": 0.01138,
				"method": "rhf"
			},
			{
				"type": "unocc",
				"energy": 0.02771,
				"method": "rhf"
			},
			{
				"type": "unocc",
				"energy": 0.07368,
				"method": "rhf"
			},
			{
				"type": "unocc",
				"energy": 0.08367,
				"method": "rhf"
			},
			{
				"type": "unocc",
				"energy": 0.09218,
				"method": "rhf"
			}
		],
		"cosmo_sigma_profile": { 
			"-0.025": 0.0,
			"-0.024": 0.0,
			"-0.023": 0.0,
			"-0.022": 0.0,
			"-0.021": 0.0,
			"-0.02": 0.0,
			"-0.019": 0.0,
			"-0.018": 0.0,
			"-0.017": 0.0,
			"-0.016": 0.0,
			"-0.015": 0.0,
			"-0.014": 0.0,
			"-0.013": 0.0,
			"-0.012": 0.0,
			"-0.011": 0.0,
			"-0.01": 0.0,
			"-0.009": 0.0,
			"-0.008": 0.0,
			"-0.007": 0.377281567448,
			"-0.006": 5.67763668692,
			"-0.005": 10.8052650433,
			"-0.004": 13.9338654414,
			"-0.003": 22.9510277806,
			"-0.002": 62.0068194057,
			"-0.001": 91.7848098702,
			"0.0": 77.9997040911,
			"0.001": 60.7604931966,
			"0.002": 39.4472190442,
			"0.003": 11.8123125704,
			"0.004": 8.01623897027,
			"0.005": 6.65901079216,
			"0.006": 4.98287987225,
			"0.007": 4.27229669533,
			"0.008": 3.51499238427,
			"0.009": 2.95791508766,
			"0.01": 2.44311950735,
			"0.011": 1.87776978035,
			"0.012": 2.22334889922,
			"0.013": 0.356865851301,
			"0.014": 0.0,
			"0.015": 0.0,
			"0.016": 0.0,
			"0.017": 0.0,
			"0.018": 0.0,
			"0.019": 0.0,
			"0.02": 0.0,
			"0.021": 0.0,
			"0.022": 0.0,
			"0.023": 0.0,
			"0.024": 0.0,
			"0.025": 0.0
		}
	}
}
