{
	 "smiles": "CCC1=CC2=C(S1)N=CN=C2Cl", 
	 "Tm": 329.15, 
	 "num_atms": 19, 
	 "gaussian": { 
		 "optdone": 1, 
		 "sigma_profile": "yes", 
		 "theory": "DFT", 
		 "functional": "B3LYP", 
		 "basiset": "6-31G**", 
		 "properties": { 
			 "R2extent": 2994.2679, 
			 "electric_dipole_moment_norm": 3.60922954244, 
			 "electric_quadrupole_moment_norm": 6.06941195422, 
			 "total_energy": -1276.95770743, 
			 "HOMO_LUMO_gap": 0.18658, 
			 "cosmo_polarized_energy": -6.73, 
			 "cosmo_cavitation_energy": 26.5, 
			 "cosmo_dispersion_energy": -20.22, 
			 "cosmo_repulsion_energy": 1.56, 
			 "cosmo_total_nonelectrostatic_energy": 7.85, 
			 "SMD_solvation_energy": 0.8 
		},
		"coords": [
			{
				"x": -2.815417295,
				"y": -3.1041232311,
				"z": 1.1836842905,
				"element": "C" 
			},
			{
				"x": -1.5364315661,
				"y": -2.5973711717,
				"z": 1.8743866258,
				"element": "C" 
			},
			{
				"x": -0.6320394212,
				"y": -1.8005385826,
				"z": 0.9773006314,
				"element": "C" 
			},
			{
				"x": -0.328279711,
				"y": -0.4750110257,
				"z": 1.0695314622,
				"element": "C" 
			},
			{
				"x": 0.5636384164,
				"y": -0.0313069782,
				"z": 0.0395591515,
				"element": "C" 
			},
			{
				"x": 0.9342139642,
				"y": -1.0704530161,
				"z": -0.8497741733,
				"element": "C" 
			},
			{
				"x": 0.1695977962,
				"y": -2.5816853131,
				"z": -0.3950538641,
				"element": "S" 
			},
			{
				"x": 1.7512748621,
				"y": -0.9319047426,
				"z": -1.8921391073,
				"element": "N" 
			},
			{
				"x": 2.2235802627,
				"y": 0.3025625848,
				"z": -2.0580785724,
				"element": "C" 
			},
			{
				"x": 1.9577405199,
				"y": 1.3805666678,
				"z": -1.2953543161,
				"element": "N" 
			},
			{
				"x": 1.1462012969,
				"y": 1.2059882565,
				"z": -0.2740534012,
				"element": "C" 
			},
			{
				"x": 0.7923149303,
				"y": 2.6063364974,
				"z": 0.7271487208,
				"element": "Cl" 
			},
			{
				"x": -2.5811527815,
				"y": -3.7732794258,
				"z": 0.350019308,
				"element": "H" 
			},
			{
				"x": -3.4033300769,
				"y": -2.2700170209,
				"z": 0.789491541,
				"element": "H" 
			},
			{
				"x": -3.4372800675,
				"y": -3.6573038552,
				"z": 1.8939637248,
				"element": "H" 
			},
			{
				"x": -1.8030251928,
				"y": -1.9599414856,
				"z": 2.7246682254,
				"element": "H" 
			},
			{
				"x": -0.9839929775,
				"y": -3.451074934,
				"z": 2.2876924728,
				"element": "H" 
			},
			{
				"x": -0.7198675807,
				"y": 0.172354983,
				"z": 1.8448416018,
				"element": "H" 
			},
			{
				"x": 2.8954546215,
				"y": 0.464001793,
				"z": -2.8966343219,
				"element": "H" 
			}
		],
		 "valence_orbital": [ 
			{
				"type": "occ",
				"energy": -0.31641,
				"method": "rhf"
			},
			{
				"type": "occ",
				"energy": -0.30788,
				"method": "rhf"
			},
			{
				"type": "occ",
				"energy": -0.27428,
				"method": "rhf"
			},
			{
				"type": "occ",
				"energy": -0.27159,
				"method": "rhf"
			},
			{
				"type": "occ",
				"energy": -0.24393,
				"method": "rhf"
			},
			{
				"type": "unocc",
				"energy": -0.05735,
				"method": "rhf"
			},
			{
				"type": "unocc",
				"energy": -0.04095,
				"method": "rhf"
			},
			{
				"type": "unocc",
				"energy": -0.00106,
				"method": "rhf"
			},
			{
				"type": "unocc",
				"energy": 0.02007,
				"method": "rhf"
			},
			{
				"type": "unocc",
				"energy": 0.03655,
				"method": "rhf"
			}
		],
		"cosmo_sigma_profile": { 
			"-0.025": 0.0,
			"-0.024": 0.0,
			"-0.023": 0.0,
			"-0.022": 0.0,
			"-0.021": 0.0,
			"-0.02": 0.0,
			"-0.019": 0.0,
			"-0.018": 0.0,
			"-0.017": 0.0,
			"-0.016": 0.0,
			"-0.015": 0.0,
			"-0.014": 0.0,
			"-0.013": 0.0,
			"-0.012": 0.0,
			"-0.011": 0.0,
			"-0.01": 0.0,
			"-0.009": 0.298663240363,
			"-0.008": 2.38463524742,
			"-0.007": 3.26871794218,
			"-0.006": 5.00034113225,
			"-0.005": 9.79118206869,
			"-0.004": 13.2048914575,
			"-0.003": 18.6124461956,
			"-0.002": 26.5653094795,
			"-0.001": 27.2981484805,
			"0.0": 26.1894840338,
			"0.001": 23.9512560825,
			"0.002": 17.082836653,
			"0.003": 13.9981244506,
			"0.004": 7.7495971115,
			"0.005": 4.31319786271,
			"0.006": 3.45103747239,
			"0.007": 2.38138265804,
			"0.008": 2.0697031404,
			"0.009": 1.78289262081,
			"0.01": 2.1467203033,
			"0.011": 1.53639641625,
			"0.012": 1.82211965024,
			"0.013": 1.50966565823,
			"0.014": 0.474861257342,
			"0.015": 0.0,
			"0.016": 0.0,
			"0.017": 0.0,
			"0.018": 0.0,
			"0.019": 0.0,
			"0.02": 0.0,
			"0.021": 0.0,
			"0.022": 0.0,
			"0.023": 0.0,
			"0.024": 0.0,
			"0.025": 0.0
		}
	}
}
