{
	 "smiles": "ClCC(=O)NCCC1=NC2=C(S1)C=CC=C2", 
	 "Tm": 364.15, 
	 "num_atms": 27, 
	 "gaussian": { 
		 "optdone": 1, 
		 "sigma_profile": "yes", 
		 "theory": "DFT", 
		 "functional": "B3LYP", 
		 "basiset": "6-31G**", 
		 "properties": { 
			 "R2extent": 6973.9991, 
			 "electric_dipole_moment_norm": 4.49222433768, 
			 "electric_quadrupole_moment_norm": 9.56412446071, 
			 "total_energy": -1468.92899467, 
			 "HOMO_LUMO_gap": 0.20032, 
			 "cosmo_polarized_energy": -16.33, 
			 "cosmo_cavitation_energy": 35.01, 
			 "cosmo_dispersion_energy": -25.57, 
			 "cosmo_repulsion_energy": 1.98, 
			 "cosmo_total_nonelectrostatic_energy": 11.43, 
			 "SMD_solvation_energy": 3.75 
		},
		"coords": [
			{
				"x": 2.4803222007,
				"y": 2.4916559336,
				"z": -2.4184799616,
				"element": "Cl" 
			},
			{
				"x": 2.8547751835,
				"y": 2.5238630092,
				"z": -0.6415911476,
				"element": "C" 
			},
			{
				"x": 3.4651709606,
				"y": 1.2078186694,
				"z": -0.1536753432,
				"element": "C" 
			},
			{
				"x": 4.6526397545,
				"y": 1.1536555962,
				"z": 0.134326776,
				"element": "O" 
			},
			{
				"x": 2.6422364545,
				"y": 0.1222265434,
				"z": -0.0484601916,
				"element": "N" 
			},
			{
				"x": 1.2008528968,
				"y": 0.0368200129,
				"z": -0.2342510942,
				"element": "C" 
			},
			{
				"x": 0.4378495784,
				"y": 0.1068141923,
				"z": 1.1015392553,
				"element": "C" 
			},
			{
				"x": -1.0494069312,
				"y": -0.0087509811,
				"z": 0.9197604764,
				"element": "C" 
			},
			{
				"x": -1.6396185924,
				"y": -0.0475747342,
				"z": -0.2292910685,
				"element": "N" 
			},
			{
				"x": -3.0182455983,
				"y": -0.1463712917,
				"z": -0.0931810655,
				"element": "C" 
			},
			{
				"x": -3.4925614659,
				"y": -0.1843220032,
				"z": 1.2402459717,
				"element": "C" 
			},
			{
				"x": -2.1285577996,
				"y": -0.0922308655,
				"z": 2.3390369072,
				"element": "S" 
			},
			{
				"x": -4.8564590872,
				"y": -0.2823879181,
				"z": 1.52501485,
				"element": "C" 
			},
			{
				"x": -5.7460683749,
				"y": -0.3422875193,
				"z": 0.4546943129,
				"element": "C" 
			},
			{
				"x": -5.2872796685,
				"y": -0.3052467438,
				"z": -0.873267133,
				"element": "C" 
			},
			{
				"x": -3.9298943837,
				"y": -0.207818108,
				"z": -1.1561944682,
				"element": "C" 
			},
			{
				"x": 1.9275910898,
				"y": 2.7837615195,
				"z": -0.1275143254,
				"element": "H" 
			},
			{
				"x": 3.6012744133,
				"y": 3.2993157751,
				"z": -0.4872276005,
				"element": "H" 
			},
			{
				"x": 3.1281227649,
				"y": -0.7023239652,
				"z": 0.2816510783,
				"element": "H" 
			},
			{
				"x": 0.8665999855,
				"y": 0.8279207496,
				"z": -0.9050642319,
				"element": "H" 
			},
			{
				"x": 0.9653773273,
				"y": -0.9021257977,
				"z": -0.7432055575,
				"element": "H" 
			},
			{
				"x": 0.7884575864,
				"y": -0.6884112487,
				"z": 1.7721447497,
				"element": "H" 
			},
			{
				"x": 0.6724346301,
				"y": 1.0507310491,
				"z": 1.6115601724,
				"element": "H" 
			},
			{
				"x": -5.216492092,
				"y": -0.3112853971,
				"z": 2.5483177877,
				"element": "H" 
			},
			{
				"x": -6.8110568934,
				"y": -0.4186750916,
				"z": 0.6523954844,
				"element": "H" 
			},
			{
				"x": -6.0038391263,
				"y": -0.3532021646,
				"z": -1.68751063,
				"element": "H" 
			},
			{
				"x": -3.5596248127,
				"y": -0.1774692205,
				"z": -2.1755740032,
				"element": "H" 
			}
		],
		 "valence_orbital": [ 
			{
				"type": "occ",
				"energy": -0.28824,
				"method": "rhf"
			},
			{
				"type": "occ",
				"energy": -0.26081,
				"method": "rhf"
			},
			{
				"type": "occ",
				"energy": -0.25662,
				"method": "rhf"
			},
			{
				"type": "occ",
				"energy": -0.24539,
				"method": "rhf"
			},
			{
				"type": "occ",
				"energy": -0.24244,
				"method": "rhf"
			},
			{
				"type": "unocc",
				"energy": -0.04212,
				"method": "rhf"
			},
			{
				"type": "unocc",
				"energy": -0.0209,
				"method": "rhf"
			},
			{
				"type": "unocc",
				"energy": -0.01294,
				"method": "rhf"
			},
			{
				"type": "unocc",
				"energy": 0.00054,
				"method": "rhf"
			},
			{
				"type": "unocc",
				"energy": 0.02681,
				"method": "rhf"
			}
		],
		"cosmo_sigma_profile": { 
			"-0.025": 0.0,
			"-0.024": 0.0,
			"-0.023": 0.0,
			"-0.022": 0.0,
			"-0.021": 0.0,
			"-0.02": 0.0,
			"-0.019": 0.0,
			"-0.018": 0.0,
			"-0.017": 0.0,
			"-0.016": 0.0,
			"-0.015": 0.0497204726012,
			"-0.014": 1.02630118802,
			"-0.013": 0.953161686477,
			"-0.012": 1.28720149072,
			"-0.011": 1.15418699121,
			"-0.01": 1.00603073032,
			"-0.009": 4.74745960995,
			"-0.008": 6.98959139653,
			"-0.007": 10.8141109498,
			"-0.006": 21.0037015762,
			"-0.005": 20.0181173565,
			"-0.004": 17.7046961958,
			"-0.003": 13.7982219628,
			"-0.002": 13.7578948518,
			"-0.001": 14.6202542788,
			"0.0": 16.3258023403,
			"0.001": 19.4249264436,
			"0.002": 23.4777924712,
			"0.003": 24.8541851489,
			"0.004": 22.1948291531,
			"0.005": 18.0224049947,
			"0.006": 7.32436932724,
			"0.007": 2.73569770207,
			"0.008": 1.61050871826,
			"0.009": 1.78580487979,
			"0.01": 2.15183656284,
			"0.011": 2.87474753025,
			"0.012": 3.44653606127,
			"0.013": 5.84749720891,
			"0.014": 2.3727543569,
			"0.015": 0.0350500591995,
			"0.016": 0.0,
			"0.017": 0.0,
			"0.018": 0.0,
			"0.019": 0.0,
			"0.02": 0.0,
			"0.021": 0.0,
			"0.022": 0.0,
			"0.023": 0.0,
			"0.024": 0.0,
			"0.025": 0.0
		}
	}
}
