{
	 "smiles": "CN1CCC(CC1)=C1C2=C(SC=C2)C(=O)CC2=CC=CC=C12", 
	 "Tm": 425.65, 
	 "num_atms": 41, 
	 "gaussian": { 
		 "optdone": 1, 
		 "sigma_profile": "yes", 
		 "theory": "DFT", 
		 "functional": "B3LYP", 
		 "basiset": "6-31G**", 
		 "properties": { 
			 "R2extent": 7238.4078, 
			 "electric_dipole_moment_norm": 4.06005503534, 
			 "electric_quadrupole_moment_norm": 18.2295506664, 
			 "total_energy": -1263.61711558, 
			 "HOMO_LUMO_gap": 0.1536, 
			 "cosmo_polarized_energy": -11.86, 
			 "cosmo_cavitation_energy": 42.9, 
			 "cosmo_dispersion_energy": -30.12, 
			 "cosmo_repulsion_energy": 2.25, 
			 "cosmo_total_nonelectrostatic_energy": 15.03, 
			 "SMD_solvation_energy": 4.28 
		},
		"coords": [
			{
				"x": 2.3252013371,
				"y": 3.217953967,
				"z": -4.0252828203,
				"element": "C" 
			},
			{
				"x": 2.3185180222,
				"y": 2.2042720635,
				"z": -2.9806605174,
				"element": "N" 
			},
			{
				"x": 1.5807648182,
				"y": 1.0113619817,
				"z": -3.3848704015,
				"element": "C" 
			},
			{
				"x": 1.698430266,
				"y": -0.0997120805,
				"z": -2.3271012389,
				"element": "C" 
			},
			{
				"x": 1.2593290496,
				"y": 0.3901809793,
				"z": -0.9645071227,
				"element": "C" 
			},
			{
				"x": 1.9370074657,
				"y": 1.6901113178,
				"z": -0.5891045034,
				"element": "C" 
			},
			{
				"x": 1.8060565123,
				"y": 2.7279904662,
				"z": -1.7185734365,
				"element": "C" 
			},
			{
				"x": 0.3138379847,
				"y": -0.2258457386,
				"z": -0.2129168973,
				"element": "C" 
			},
			{
				"x": -0.1080737334,
				"y": 0.2700568117,
				"z": 1.1260705428,
				"element": "C" 
			},
			{
				"x": -1.4303494087,
				"y": 0.444045714,
				"z": 1.5224279358,
				"element": "C" 
			},
			{
				"x": -1.5528584152,
				"y": 0.9568840331,
				"z": 3.187723489,
				"element": "S" 
			},
			{
				"x": 0.1624482044,
				"y": 0.9250437094,
				"z": 3.3553741762,
				"element": "C" 
			},
			{
				"x": 0.7959205803,
				"y": 0.5465173913,
				"z": 2.2010611213,
				"element": "C" 
			},
			{
				"x": -2.673111289,
				"y": 0.2883394166,
				"z": 0.7585986701,
				"element": "C" 
			},
			{
				"x": -3.7650998018,
				"y": 0.5180420095,
				"z": 1.2628815404,
				"element": "O" 
			},
			{
				"x": -2.5516775741,
				"y": -0.1578755819,
				"z": -0.7008914471,
				"element": "C" 
			},
			{
				"x": -1.7813101273,
				"y": -1.4499288775,
				"z": -0.8756836715,
				"element": "C" 
			},
			{
				"x": -2.438324739,
				"y": -2.6264290731,
				"z": -1.2494140723,
				"element": "C" 
			},
			{
				"x": -1.7359706504,
				"y": -3.8222889637,
				"z": -1.4071103995,
				"element": "C" 
			},
			{
				"x": -0.3595737196,
				"y": -3.8498705483,
				"z": -1.1860142518,
				"element": "C" 
			},
			{
				"x": 0.3051886476,
				"y": -2.6817240263,
				"z": -0.8092800367,
				"element": "C" 
			},
			{
				"x": -0.3895227566,
				"y": -1.4747884989,
				"z": -0.6560079692,
				"element": "C" 
			},
			{
				"x": 2.7674115721,
				"y": 2.8055823356,
				"z": -4.9380478735,
				"element": "H" 
			},
			{
				"x": 2.93427864,
				"y": 4.0711949084,
				"z": -3.709396109,
				"element": "H" 
			},
			{
				"x": 1.3150470016,
				"y": 3.5953135438,
				"z": -4.2768183065,
				"element": "H" 
			},
			{
				"x": 1.990876837,
				"y": 0.6528982086,
				"z": -4.3359297589,
				"element": "H" 
			},
			{
				"x": 0.5076808974,
				"y": 1.2348934077,
				"z": -3.5582951998,
				"element": "H" 
			},
			{
				"x": 2.7549162572,
				"y": -0.3980244874,
				"z": -2.2724592065,
				"element": "H" 
			},
			{
				"x": 1.1252226978,
				"y": -0.9704011681,
				"z": -2.6492074948,
				"element": "H" 
			},
			{
				"x": 1.5309296624,
				"y": 2.11333875,
				"z": 0.331152399,
				"element": "H" 
			},
			{
				"x": 3.0082768953,
				"y": 1.5039119376,
				"z": -0.4284566445,
				"element": "H" 
			},
			{
				"x": 2.3779702384,
				"y": 3.6248949346,
				"z": -1.454706422,
				"element": "H" 
			},
			{
				"x": 0.7432003451,
				"y": 3.0348697302,
				"z": -1.8051729751,
				"element": "H" 
			},
			{
				"x": 0.6201199149,
				"y": 1.1749122455,
				"z": 4.3033851517,
				"element": "H" 
			},
			{
				"x": 1.8704786515,
				"y": 0.4369999363,
				"z": 2.1155002343,
				"element": "H" 
			},
			{
				"x": -2.0455196837,
				"y": 0.647367862,
				"z": -1.2521511555,
				"element": "H" 
			},
			{
				"x": -3.5695663955,
				"y": -0.246796381,
				"z": -1.0855023153,
				"element": "H" 
			},
			{
				"x": -3.5113515352,
				"y": -2.6020667109,
				"z": -1.4206076161,
				"element": "H" 
			},
			{
				"x": -2.2635209523,
				"y": -4.7264005625,
				"z": -1.6967671188,
				"element": "H" 
			},
			{
				"x": 0.1959019209,
				"y": -4.7765445198,
				"z": -1.2978663408,
				"element": "H" 
			},
			{
				"x": 1.3747163619,
				"y": -2.7022804428,
				"z": -0.6205719378,
				"element": "H" 
			}
		],
		 "valence_orbital": [ 
			{
				"type": "occ",
				"energy": -0.24948,
				"method": "rhf"
			},
			{
				"type": "occ",
				"energy": -0.24404,
				"method": "rhf"
			},
			{
				"type": "occ",
				"energy": -0.23158,
				"method": "rhf"
			},
			{
				"type": "occ",
				"energy": -0.22855,
				"method": "rhf"
			},
			{
				"type": "occ",
				"energy": -0.21741,
				"method": "rhf"
			},
			{
				"type": "unocc",
				"energy": -0.06381,
				"method": "rhf"
			},
			{
				"type": "unocc",
				"energy": -0.01399,
				"method": "rhf"
			},
			{
				"type": "unocc",
				"energy": -0.00307,
				"method": "rhf"
			},
			{
				"type": "unocc",
				"energy": 0.01175,
				"method": "rhf"
			},
			{
				"type": "unocc",
				"energy": 0.02861,
				"method": "rhf"
			}
		],
		"cosmo_sigma_profile": { 
			"-0.025": 0.0,
			"-0.024": 0.0,
			"-0.023": 0.0,
			"-0.022": 0.0,
			"-0.021": 0.0,
			"-0.02": 0.0,
			"-0.019": 0.0,
			"-0.018": 0.0,
			"-0.017": 0.0,
			"-0.016": 0.0,
			"-0.015": 0.0,
			"-0.014": 0.0,
			"-0.013": 0.0,
			"-0.012": 0.0,
			"-0.011": 0.0,
			"-0.01": 0.170927458583,
			"-0.009": 1.82295475099,
			"-0.008": 2.07856274826,
			"-0.007": 3.13234922286,
			"-0.006": 8.72905170224,
			"-0.005": 15.7393061632,
			"-0.004": 26.0998089058,
			"-0.003": 34.1486922402,
			"-0.002": 38.2916702558,
			"-0.001": 50.4600433077,
			"0.0": 37.7943044858,
			"0.001": 22.2237412436,
			"0.002": 24.341948728,
			"0.003": 22.6302401969,
			"0.004": 14.5388676308,
			"0.005": 10.1366798158,
			"0.006": 6.88207512567,
			"0.007": 2.31524539316,
			"0.008": 2.17049122694,
			"0.009": 2.43343219859,
			"0.01": 2.45260809214,
			"0.011": 3.56438502149,
			"0.012": 5.14715573285,
			"0.013": 2.10069887636,
			"0.014": 0.895595885833,
			"0.015": 0.407614348724,
			"0.016": 0.30296493776,
			"0.017": 0.0,
			"0.018": 0.0,
			"0.019": 0.0,
			"0.02": 0.0,
			"0.021": 0.0,
			"0.022": 0.0,
			"0.023": 0.0,
			"0.024": 0.0,
			"0.025": 0.0
		}
	}
}
