{
	 "smiles": "OC(=O)CCOC1CCOCC1", 
	 "Tm": 328.15, 
	 "num_atms": 26, 
	 "gaussian": { 
		 "optdone": 1, 
		 "sigma_profile": "yes", 
		 "theory": "DFT", 
		 "functional": "B3LYP", 
		 "basiset": "6-31G**", 
		 "properties": { 
			 "R2extent": 3621.7067, 
			 "electric_dipole_moment_norm": 3.51135982064, 
			 "electric_quadrupole_moment_norm": 20.8206493114, 
			 "total_energy": -614.164415378, 
			 "HOMO_LUMO_gap": 0.24965, 
			 "cosmo_polarized_energy": -18.0, 
			 "cosmo_cavitation_energy": 28.26, 
			 "cosmo_dispersion_energy": -20.47, 
			 "cosmo_repulsion_energy": 1.69, 
			 "cosmo_total_nonelectrostatic_energy": 9.48, 
			 "SMD_solvation_energy": 5.52 
		},
		"coords": [
			{
				"x": -1.6251189049,
				"y": 0.9021635663,
				"z": -4.3160396269,
				"element": "O" 
			},
			{
				"x": -1.0350211242,
				"y": 1.5466193819,
				"z": -3.2771801864,
				"element": "C" 
			},
			{
				"x": -0.1792726892,
				"y": 2.3702777843,
				"z": -3.4811000864,
				"element": "O" 
			},
			{
				"x": -1.563347668,
				"y": 1.205828697,
				"z": -1.8836978,
				"element": "C" 
			},
			{
				"x": -0.4478183582,
				"y": 1.2389078328,
				"z": -0.8483432095,
				"element": "C" 
			},
			{
				"x": 0.3828888144,
				"y": 0.119482957,
				"z": -1.0975149419,
				"element": "O" 
			},
			{
				"x": 1.6403510543,
				"y": 0.1296366517,
				"z": -0.4188548988,
				"element": "C" 
			},
			{
				"x": 1.5176300085,
				"y": -0.3136389608,
				"z": 1.0587703402,
				"element": "C" 
			},
			{
				"x": 1.698593996,
				"y": -1.8243317212,
				"z": 1.1878551026,
				"element": "C" 
			},
			{
				"x": 2.9976899548,
				"y": -2.2509751125,
				"z": 0.7782194609,
				"element": "O" 
			},
			{
				"x": 3.5893863612,
				"y": -1.4760089596,
				"z": -0.265631367,
				"element": "C" 
			},
			{
				"x": 2.5529573603,
				"y": -0.8404294978,
				"z": -1.1897870517,
				"element": "C" 
			},
			{
				"x": -2.2565853617,
				"y": 0.247798916,
				"z": -3.9868584636,
				"element": "H" 
			},
			{
				"x": -2.0480680592,
				"y": 0.2229622073,
				"z": -1.8608005023,
				"element": "H" 
			},
			{
				"x": -2.3252618561,
				"y": 1.9541522916,
				"z": -1.6310808212,
				"element": "H" 
			},
			{
				"x": 0.1162360016,
				"y": 2.1756047493,
				"z": -0.9595610346,
				"element": "H" 
			},
			{
				"x": -0.876211468,
				"y": 1.2102059754,
				"z": 0.1654065343,
				"element": "H" 
			},
			{
				"x": 2.0529305447,
				"y": 1.1493087128,
				"z": -0.4570543776,
				"element": "H" 
			},
			{
				"x": 2.2839827448,
				"y": 0.1905421427,
				"z": 1.6597696275,
				"element": "H" 
			},
			{
				"x": 0.5467895762,
				"y": -0.0127113971,
				"z": 1.4670686107,
				"element": "H" 
			},
			{
				"x": 0.9231380176,
				"y": -2.3360708534,
				"z": 0.5955361832,
				"element": "H" 
			},
			{
				"x": 1.5844852775,
				"y": -2.1494558335,
				"z": 2.227304781,
				"element": "H" 
			},
			{
				"x": 4.2355198076,
				"y": -0.6938855914,
				"z": 0.1674417051,
				"element": "H" 
			},
			{
				"x": 4.2403458176,
				"y": -2.1563881039,
				"z": -0.8246600615,
				"element": "H" 
			},
			{
				"x": 3.0417683201,
				"y": -0.3317553864,
				"z": -2.0264579225,
				"element": "H" 
			},
			{
				"x": 1.9203118323,
				"y": -1.6264404484,
				"z": -1.6168499936,
				"element": "H" 
			}
		],
		 "valence_orbital": [ 
			{
				"type": "occ",
				"energy": -0.31522,
				"method": "rhf"
			},
			{
				"type": "occ",
				"energy": -0.29011,
				"method": "rhf"
			},
			{
				"type": "occ",
				"energy": -0.27279,
				"method": "rhf"
			},
			{
				"type": "occ",
				"energy": -0.26093,
				"method": "rhf"
			},
			{
				"type": "occ",
				"energy": -0.24038,
				"method": "rhf"
			},
			{
				"type": "unocc",
				"energy": 0.00927,
				"method": "rhf"
			},
			{
				"type": "unocc",
				"energy": 0.05274,
				"method": "rhf"
			},
			{
				"type": "unocc",
				"energy": 0.07689,
				"method": "rhf"
			},
			{
				"type": "unocc",
				"energy": 0.09404,
				"method": "rhf"
			},
			{
				"type": "unocc",
				"energy": 0.10727,
				"method": "rhf"
			}
		],
		"cosmo_sigma_profile": { 
			"-0.025": 0.0,
			"-0.024": 0.0,
			"-0.023": 0.0,
			"-0.022": 0.0,
			"-0.021": 0.0,
			"-0.02": 0.0,
			"-0.019": 0.420511291563,
			"-0.018": 1.35353834608,
			"-0.017": 1.30588401941,
			"-0.016": 0.614809744635,
			"-0.015": 1.35529835608,
			"-0.014": 0.95221586774,
			"-0.013": 1.33127854799,
			"-0.012": 1.01493917569,
			"-0.011": 0.911305105249,
			"-0.01": 0.971226690084,
			"-0.009": 1.21463285058,
			"-0.008": 1.39899590695,
			"-0.007": 5.11683527585,
			"-0.006": 4.46983024807,
			"-0.005": 8.98790702201,
			"-0.004": 26.6980337439,
			"-0.003": 34.0048424511,
			"-0.002": 25.1791328219,
			"-0.001": 16.2314158072,
			"0.0": 10.3528205788,
			"0.001": 6.0328651477,
			"0.002": 4.60885836659,
			"0.003": 5.41728849603,
			"0.004": 5.63499221778,
			"0.005": 5.01919305279,
			"0.006": 5.51464611488,
			"0.007": 6.41102014018,
			"0.008": 5.14533036463,
			"0.009": 5.41007874467,
			"0.01": 6.70575702292,
			"0.011": 6.51996222868,
			"0.012": 7.34654136278,
			"0.013": 3.547658306,
			"0.014": 1.96404975507,
			"0.015": 0.197613763341,
			"0.016": 0.0,
			"0.017": 0.0,
			"0.018": 0.0,
			"0.019": 0.0,
			"0.02": 0.0,
			"0.021": 0.0,
			"0.022": 0.0,
			"0.023": 0.0,
			"0.024": 0.0,
			"0.025": 0.0
		}
	}
}
