{
	 "smiles": "CCC1=CC=C(C=CC2=NC3=C(C=C(Br)C=C3)C(=C2)C(O)=O)C=C1", 
	 "Tm": 560.15, 
	 "num_atms": 40, 
	 "gaussian": { 
		 "optdone": 1, 
		 "sigma_profile": "yes", 
		 "theory": "DFT", 
		 "functional": "B3LYP", 
		 "basiset": "6-31G**", 
		 "properties": { 
			 "R2extent": 20163.7382, 
			 "electric_dipole_moment_norm": 5.41727877444, 
			 "electric_quadrupole_moment_norm": 29.0613277792, 
			 "total_energy": -3548.38820324, 
			 "HOMO_LUMO_gap": 0.14064, 
			 "cosmo_polarized_energy": -14.96, 
			 "cosmo_cavitation_energy": 46.58, 
			 "cosmo_dispersion_energy": -32.44, 
			 "cosmo_repulsion_energy": 2.45, 
			 "cosmo_total_nonelectrostatic_energy": 16.6, 
			 "SMD_solvation_energy": 5.63 
		},
		"coords": [
			{
				"x": 1.3092861144,
				"y": 1.2427668183,
				"z": 4.6085022031,
				"element": "C" 
			},
			{
				"x": 0.1002247407,
				"y": 0.6985555019,
				"z": 3.8252768035,
				"element": "C" 
			},
			{
				"x": 0.4552082213,
				"y": 0.2789527537,
				"z": 2.4154874806,
				"element": "C" 
			},
			{
				"x": 0.9013126549,
				"y": -1.0197399873,
				"z": 2.1366194853,
				"element": "C" 
			},
			{
				"x": 1.2700085216,
				"y": -1.3955854651,
				"z": 0.8461265677,
				"element": "C" 
			},
			{
				"x": 1.1841276029,
				"y": -0.4907335039,
				"z": -0.2252658599,
				"element": "C" 
			},
			{
				"x": 1.5735726148,
				"y": -0.9187660856,
				"z": -1.5841409369,
				"element": "C" 
			},
			{
				"x": 0.9820360734,
				"y": -0.6516406955,
				"z": -2.7669643809,
				"element": "C" 
			},
			{
				"x": -0.2954727925,
				"y": 0.0312010109,
				"z": -3.0395050753,
				"element": "C" 
			},
			{
				"x": -0.4081919513,
				"y": 0.6090361416,
				"z": -4.2275224816,
				"element": "N" 
			},
			{
				"x": -1.5690614827,
				"y": 1.2468912089,
				"z": -4.5416077565,
				"element": "C" 
			},
			{
				"x": -2.6958705496,
				"y": 1.3252418687,
				"z": -3.6568203094,
				"element": "C" 
			},
			{
				"x": -3.857553702,
				"y": 2.0242639514,
				"z": -4.0741246116,
				"element": "C" 
			},
			{
				"x": -3.8809759589,
				"y": 2.6140137501,
				"z": -5.3179732203,
				"element": "C" 
			},
			{
				"x": -5.4418205975,
				"y": 3.5568003702,
				"z": -5.8832932853,
				"element": "Br" 
			},
			{
				"x": -2.781549403,
				"y": 2.54420426,
				"z": -6.20385733,
				"element": "C" 
			},
			{
				"x": -1.6488562384,
				"y": 1.8685934308,
				"z": -5.8163848175,
				"element": "C" 
			},
			{
				"x": -2.5527899438,
				"y": 0.6774405947,
				"z": -2.3856451839,
				"element": "C" 
			},
			{
				"x": -1.3736553396,
				"y": 0.0237428448,
				"z": -2.1070595561,
				"element": "C" 
			},
			{
				"x": -3.6629485763,
				"y": 0.6618727077,
				"z": -1.3682056625,
				"element": "C" 
			},
			{
				"x": -3.2708527239,
				"y": 0.6260418661,
				"z": -0.0695249634,
				"element": "O" 
			},
			{
				"x": -4.8403041563,
				"y": 0.6680661377,
				"z": -1.6421135306,
				"element": "O" 
			},
			{
				"x": 0.7631497215,
				"y": 0.8222052303,
				"z": 0.0584058495,
				"element": "C" 
			},
			{
				"x": 0.401300541,
				"y": 1.1942650798,
				"z": 1.3518604922,
				"element": "C" 
			},
			{
				"x": 1.0165589301,
				"y": 1.5357329241,
				"z": 5.6218745727,
				"element": "H" 
			},
			{
				"x": 1.7373338253,
				"y": 2.1193443074,
				"z": 4.1116306839,
				"element": "H" 
			},
			{
				"x": 2.0981995267,
				"y": 0.4878736895,
				"z": 4.6872111225,
				"element": "H" 
			},
			{
				"x": -0.6829857397,
				"y": 1.4650356057,
				"z": 3.7920884433,
				"element": "H" 
			},
			{
				"x": -0.3236944951,
				"y": -0.1569535869,
				"z": 4.3640381356,
				"element": "H" 
			},
			{
				"x": 0.9597455344,
				"y": -1.7480759344,
				"z": 2.9418691899,
				"element": "H" 
			},
			{
				"x": 1.6099783951,
				"y": -2.410960323,
				"z": 0.6589066084,
				"element": "H" 
			},
			{
				"x": 2.4770700449,
				"y": -1.5265338617,
				"z": -1.6263678321,
				"element": "H" 
			},
			{
				"x": 1.4917162842,
				"y": -0.9719532094,
				"z": -3.6722748625,
				"element": "H" 
			},
			{
				"x": -4.718709001,
				"y": 2.0674191198,
				"z": -3.4220306012,
				"element": "H" 
			},
			{
				"x": -2.8423546094,
				"y": 3.0215818341,
				"z": -7.1751141412,
				"element": "H" 
			},
			{
				"x": -0.7832115502,
				"y": 1.7938184963,
				"z": -6.4657539276,
				"element": "H" 
			},
			{
				"x": -1.2579268265,
				"y": -0.5351094241,
				"z": -1.186864594,
				"element": "H" 
			},
			{
				"x": -2.312672607,
				"y": 0.7518131842,
				"z": 0.0089681734,
				"element": "H" 
			},
			{
				"x": 0.7374668304,
				"y": 1.5565755473,
				"z": -0.7408197288,
				"element": "H" 
			},
			{
				"x": 0.0902620671,
				"y": 2.2186018406,
				"z": 1.5457688375,
				"element": "H" 
			}
		],
		 "valence_orbital": [ 
			{
				"type": "occ",
				"energy": -0.27064,
				"method": "rhf"
			},
			{
				"type": "occ",
				"energy": -0.26622,
				"method": "rhf"
			},
			{
				"type": "occ",
				"energy": -0.26214,
				"method": "rhf"
			},
			{
				"type": "occ",
				"energy": -0.24727,
				"method": "rhf"
			},
			{
				"type": "occ",
				"energy": -0.22631,
				"method": "rhf"
			},
			{
				"type": "unocc",
				"energy": -0.08567,
				"method": "rhf"
			},
			{
				"type": "unocc",
				"energy": -0.06115,
				"method": "rhf"
			},
			{
				"type": "unocc",
				"energy": -0.02198,
				"method": "rhf"
			},
			{
				"type": "unocc",
				"energy": -0.01854,
				"method": "rhf"
			},
			{
				"type": "unocc",
				"energy": -0.01425,
				"method": "rhf"
			}
		],
		"cosmo_sigma_profile": { 
			"-0.025": 0.0,
			"-0.024": 0.0,
			"-0.023": 0.0,
			"-0.022": 0.0,
			"-0.021": 0.0,
			"-0.02": 0.0,
			"-0.019": 0.0,
			"-0.018": 0.0,
			"-0.017": 0.0,
			"-0.016": 0.0,
			"-0.015": 0.0,
			"-0.014": 0.0,
			"-0.013": 0.0369894557064,
			"-0.012": 0.767573483446,
			"-0.011": 1.82956355722,
			"-0.01": 0.959541316037,
			"-0.009": 1.72100385145,
			"-0.008": 3.72510195898,
			"-0.007": 6.78923739286,
			"-0.006": 14.8584415161,
			"-0.005": 21.7400855599,
			"-0.004": 27.8853670689,
			"-0.003": 29.2648237893,
			"-0.002": 31.9270608986,
			"-0.001": 34.0306998595,
			"0.0": 39.4303904119,
			"0.001": 38.5900498651,
			"0.002": 32.8851783212,
			"0.003": 22.2230961138,
			"0.004": 22.2716557244,
			"0.005": 12.2349488368,
			"0.006": 5.00349075279,
			"0.007": 3.45278531062,
			"0.008": 4.84882524996,
			"0.009": 5.04468811156,
			"0.01": 5.5221371048,
			"0.011": 4.65707381048,
			"0.012": 2.95994899571,
			"0.013": 0.768420560568,
			"0.014": 0.585780534002,
			"0.015": 0.0111339803387,
			"0.016": 0.0,
			"0.017": 0.0,
			"0.018": 0.0,
			"0.019": 0.0,
			"0.02": 0.0,
			"0.021": 0.0,
			"0.022": 0.0,
			"0.023": 0.0,
			"0.024": 0.0,
			"0.025": 0.0
		}
	}
}
