{
	 "smiles": "CCOC1=CC=C(N)C=C1", 
	 "Tm": 276.35, 
	 "num_atms": 21, 
	 "gaussian": { 
		 "optdone": 1, 
		 "sigma_profile": "yes", 
		 "theory": "DFT", 
		 "functional": "B3LYP", 
		 "basiset": "6-31G**", 
		 "properties": { 
			 "R2extent": 2408.9848, 
			 "electric_dipole_moment_norm": 1.66127010447, 
			 "electric_quadrupole_moment_norm": 10.1523530356, 
			 "total_energy": -441.452070061, 
			 "HOMO_LUMO_gap": 0.18757, 
			 "cosmo_polarized_energy": -9.62, 
			 "cosmo_cavitation_energy": 24.22, 
			 "cosmo_dispersion_energy": -18.16, 
			 "cosmo_repulsion_energy": 1.5, 
			 "cosmo_total_nonelectrostatic_energy": 7.56, 
			 "SMD_solvation_energy": 4.44 
		},
		"coords": [
			{
				"x": -3.7362522284,
				"y": -1.5333943671,
				"z": -3.4522877941,
				"element": "C" 
			},
			{
				"x": -2.9690555404,
				"y": -1.6080379334,
				"z": -2.1429812029,
				"element": "C" 
			},
			{
				"x": -1.908895784,
				"y": -0.6621986301,
				"z": -2.2101802131,
				"element": "O" 
			},
			{
				"x": -1.0731409298,
				"y": -0.5427622251,
				"z": -1.1288749894,
				"element": "C" 
			},
			{
				"x": -1.1717821077,
				"y": -1.2889465879,
				"z": 0.0490713986,
				"element": "C" 
			},
			{
				"x": -0.2586039748,
				"y": -1.0839247603,
				"z": 1.0878285073,
				"element": "C" 
			},
			{
				"x": 0.7664460733,
				"y": -0.1370082176,
				"z": 0.9802576739,
				"element": "C" 
			},
			{
				"x": 1.6442691556,
				"y": 0.1122108918,
				"z": 2.0501653573,
				"element": "N" 
			},
			{
				"x": 0.8535303637,
				"y": 0.6075295362,
				"z": -0.2099510293,
				"element": "C" 
			},
			{
				"x": -0.0493968441,
				"y": 0.4073593585,
				"z": -1.2457673898,
				"element": "C" 
			},
			{
				"x": -4.1432794696,
				"y": -0.5295190803,
				"z": -3.6028473505,
				"element": "H" 
			},
			{
				"x": -4.5654129114,
				"y": -2.2477363112,
				"z": -3.446244872,
				"element": "H" 
			},
			{
				"x": -3.0811683044,
				"y": -1.7682485311,
				"z": -4.2960140701,
				"element": "H" 
			},
			{
				"x": -2.5648242581,
				"y": -2.6193593619,
				"z": -1.9858922733,
				"element": "H" 
			},
			{
				"x": -3.6277302473,
				"y": -1.3784386763,
				"z": -1.2920590672,
				"element": "H" 
			},
			{
				"x": -1.9485235328,
				"y": -2.0340588963,
				"z": 0.17516923,
				"element": "H" 
			},
			{
				"x": -0.3527870747,
				"y": -1.6708074391,
				"z": 1.9985778935,
				"element": "H" 
			},
			{
				"x": 2.5440836132,
				"y": 0.477174133,
				"z": 1.765368201,
				"element": "H" 
			},
			{
				"x": 1.7634028385,
				"y": -0.6749731436,
				"z": 2.6747146997,
				"element": "H" 
			},
			{
				"x": 1.6366321961,
				"y": 1.3542141936,
				"z": -0.318950937,
				"element": "H" 
			},
			{
				"x": 0.021788967,
				"y": 0.9815260483,
				"z": -2.1641017726,
				"element": "H" 
			}
		],
		 "valence_orbital": [ 
			{
				"type": "occ",
				"energy": -0.32595,
				"method": "rhf"
			},
			{
				"type": "occ",
				"energy": -0.31398,
				"method": "rhf"
			},
			{
				"type": "occ",
				"energy": -0.26909,
				"method": "rhf"
			},
			{
				"type": "occ",
				"energy": -0.24103,
				"method": "rhf"
			},
			{
				"type": "occ",
				"energy": -0.18052,
				"method": "rhf"
			},
			{
				"type": "unocc",
				"energy": 0.00705,
				"method": "rhf"
			},
			{
				"type": "unocc",
				"energy": 0.0359,
				"method": "rhf"
			},
			{
				"type": "unocc",
				"energy": 0.08639,
				"method": "rhf"
			},
			{
				"type": "unocc",
				"energy": 0.10262,
				"method": "rhf"
			},
			{
				"type": "unocc",
				"energy": 0.10902,
				"method": "rhf"
			}
		],
		"cosmo_sigma_profile": { 
			"-0.025": 0.0,
			"-0.024": 0.0,
			"-0.023": 0.0,
			"-0.022": 0.0,
			"-0.021": 0.0,
			"-0.02": 0.0,
			"-0.019": 0.0,
			"-0.018": 0.0,
			"-0.017": 0.0,
			"-0.016": 0.0,
			"-0.015": 0.0,
			"-0.014": 0.0,
			"-0.013": 0.0,
			"-0.012": 1.19889589859,
			"-0.011": 2.89065197659,
			"-0.01": 2.37701906718,
			"-0.009": 2.95814266089,
			"-0.008": 3.0217930522,
			"-0.007": 3.65110914823,
			"-0.006": 5.31286814799,
			"-0.005": 9.9593350968,
			"-0.004": 17.3236197721,
			"-0.003": 21.5463964903,
			"-0.002": 15.6575973068,
			"-0.001": 13.2464413238,
			"0.0": 14.2275870356,
			"0.001": 9.6666918943,
			"0.002": 7.10213581906,
			"0.003": 6.75753064877,
			"0.004": 9.03708266749,
			"0.005": 10.50698672,
			"0.006": 12.247616155,
			"0.007": 9.8181586843,
			"0.008": 1.69801020005,
			"0.009": 3.06674348326,
			"0.01": 2.41451577563,
			"0.011": 1.87876704751,
			"0.012": 0.751597575927,
			"0.013": 0.493023611546,
			"0.014": 0.743726547352,
			"0.015": 0.674673228201,
			"0.016": 0.431757438479,
			"0.017": 0.0,
			"0.018": 0.0,
			"0.019": 0.0,
			"0.02": 0.0,
			"0.021": 0.0,
			"0.022": 0.0,
			"0.023": 0.0,
			"0.024": 0.0,
			"0.025": 0.0
		}
	}
}
