{
	 "smiles": "O=C(CC#N)NC1=CC=NC=C1", 
	 "Tm": 455.15, 
	 "num_atms": 19, 
	 "gaussian": { 
		 "optdone": 1, 
		 "sigma_profile": "yes", 
		 "theory": "DFT", 
		 "functional": "B3LYP", 
		 "basiset": "6-31G**", 
		 "properties": { 
			 "R2extent": 2558.3457, 
			 "electric_dipole_moment_norm": 2.07707782714, 
			 "electric_quadrupole_moment_norm": 12.2008208699, 
			 "total_energy": -548.538833395, 
			 "HOMO_LUMO_gap": 0.21344, 
			 "cosmo_polarized_energy": -16.61, 
			 "cosmo_cavitation_energy": 24.84, 
			 "cosmo_dispersion_energy": -17.72, 
			 "cosmo_repulsion_energy": 1.4, 
			 "cosmo_total_nonelectrostatic_energy": 8.52, 
			 "SMD_solvation_energy": 4.82 
		},
		"coords": [
			{
				"x": -1.9385792741,
				"y": -1.8449758707,
				"z": 0.8919720279,
				"element": "O" 
			},
			{
				"x": -0.7354196761,
				"y": -1.6679367364,
				"z": 0.8253859705,
				"element": "C" 
			},
			{
				"x": 0.2035324666,
				"y": -2.8712960302,
				"z": 1.0953832968,
				"element": "C" 
			},
			{
				"x": 1.6360961402,
				"y": -2.605872052,
				"z": 1.0036523679,
				"element": "C" 
			},
			{
				"x": 2.7595210566,
				"y": -2.3248154982,
				"z": 0.9141536859,
				"element": "N" 
			},
			{
				"x": -0.1114714742,
				"y": -0.4864373123,
				"z": 0.529284684,
				"element": "N" 
			},
			{
				"x": -0.7042302004,
				"y": 0.7581704381,
				"z": 0.2423564689,
				"element": "C" 
			},
			{
				"x": 0.1466291706,
				"y": 1.8379553924,
				"z": -0.0334493569,
				"element": "C" 
			},
			{
				"x": -0.4168699172,
				"y": 3.0772178933,
				"z": -0.3197275824,
				"element": "C" 
			},
			{
				"x": -1.7351155604,
				"y": 3.312174351,
				"z": -0.3501730629,
				"element": "N" 
			},
			{
				"x": -2.5305937112,
				"y": 2.2689120103,
				"z": -0.0841798294,
				"element": "C" 
			},
			{
				"x": -2.0869118301,
				"y": 0.9808825809,
				"z": 0.2161101299,
				"element": "C" 
			},
			{
				"x": -0.0412102964,
				"y": -3.2478308169,
				"z": 2.0940467211,
				"element": "H" 
			},
			{
				"x": -0.074811962,
				"y": -3.6572389529,
				"z": 0.3855575421,
				"element": "H" 
			},
			{
				"x": 0.9010126712,
				"y": -0.4982342758,
				"z": 0.5118195027,
				"element": "H" 
			},
			{
				"x": 1.2266046459,
				"y": 1.7156645331,
				"z": -0.0252816829,
				"element": "H" 
			},
			{
				"x": 0.2298279782,
				"y": 3.9256341518,
				"z": -0.535998924,
				"element": "H" 
			},
			{
				"x": -3.6008056223,
				"y": 2.4663232047,
				"z": -0.1105053502,
				"element": "H" 
			},
			{
				"x": -2.781804605,
				"y": 0.1800029898,
				"z": 0.421993391,
				"element": "H" 
			}
		],
		 "valence_orbital": [ 
			{
				"type": "occ",
				"energy": -0.34113,
				"method": "rhf"
			},
			{
				"type": "occ",
				"energy": -0.28983,
				"method": "rhf"
			},
			{
				"type": "occ",
				"energy": -0.26979,
				"method": "rhf"
			},
			{
				"type": "occ",
				"energy": -0.25935,
				"method": "rhf"
			},
			{
				"type": "occ",
				"energy": -0.25793,
				"method": "rhf"
			},
			{
				"type": "unocc",
				"energy": -0.04449,
				"method": "rhf"
			},
			{
				"type": "unocc",
				"energy": -0.01788,
				"method": "rhf"
			},
			{
				"type": "unocc",
				"energy": -0.00085,
				"method": "rhf"
			},
			{
				"type": "unocc",
				"energy": 0.01054,
				"method": "rhf"
			},
			{
				"type": "unocc",
				"energy": 0.01791,
				"method": "rhf"
			}
		],
		"cosmo_sigma_profile": { 
			"-0.025": 0.0,
			"-0.024": 0.0,
			"-0.023": 0.0,
			"-0.022": 0.0,
			"-0.021": 0.0,
			"-0.02": 0.0,
			"-0.019": 0.0,
			"-0.018": 0.0,
			"-0.017": 0.0,
			"-0.016": 0.0,
			"-0.015": 0.124190848899,
			"-0.014": 0.928307839666,
			"-0.013": 1.10865345356,
			"-0.012": 1.11535258277,
			"-0.011": 3.5117197869,
			"-0.01": 7.55634470467,
			"-0.009": 6.8786606648,
			"-0.008": 8.54893664805,
			"-0.007": 8.62924418464,
			"-0.006": 10.3850101979,
			"-0.005": 11.0115705705,
			"-0.004": 8.47496455433,
			"-0.003": 8.20897388434,
			"-0.002": 9.15522390719,
			"-0.001": 9.3701533087,
			"0.0": 10.6905833277,
			"0.001": 12.4846896058,
			"0.002": 18.2952023881,
			"0.003": 10.0120716055,
			"0.004": 5.41207859968,
			"0.005": 5.90736755628,
			"0.006": 4.80586034803,
			"0.007": 5.18218648177,
			"0.008": 5.45851637994,
			"0.009": 6.2642195387,
			"0.01": 5.34770911396,
			"0.011": 6.23825446258,
			"0.012": 4.84005900117,
			"0.013": 1.67331632484,
			"0.014": 0.906768832492,
			"0.015": 0.800756256564,
			"0.016": 1.03546464019,
			"0.017": 0.440885998782,
			"0.018": 0.0,
			"0.019": 0.0,
			"0.02": 0.0,
			"0.021": 0.0,
			"0.022": 0.0,
			"0.023": 0.0,
			"0.024": 0.0,
			"0.025": 0.0
		}
	}
}
