{
	 "smiles": "OC(=O)C1CC(C1)C1=CC=C(Cl)C=C1", 
	 "Tm": 393.15, 
	 "num_atms": 25, 
	 "gaussian": { 
		 "optdone": 1, 
		 "sigma_profile": "yes", 
		 "theory": "DFT", 
		 "functional": "B3LYP", 
		 "basiset": "6-31G**", 
		 "properties": { 
			 "R2extent": 5008.0606, 
			 "electric_dipole_moment_norm": 1.99255615981, 
			 "electric_quadrupole_moment_norm": 27.9363233075, 
			 "total_energy": -1036.42448756, 
			 "HOMO_LUMO_gap": 0.22409, 
			 "cosmo_polarized_energy": -15.66, 
			 "cosmo_cavitation_energy": 30.37, 
			 "cosmo_dispersion_energy": -22.15, 
			 "cosmo_repulsion_energy": 1.76, 
			 "cosmo_total_nonelectrostatic_energy": 9.97, 
			 "SMD_solvation_energy": 5.59 
		},
		"coords": [
			{
				"x": -4.8565575372,
				"y": 0.8073731057,
				"z": -0.6761916878,
				"element": "O" 
			},
			{
				"x": -3.8442373676,
				"y": -0.0031451148,
				"z": -1.0832392747,
				"element": "C" 
			},
			{
				"x": -4.0635554079,
				"y": -0.8963457669,
				"z": -1.8658205856,
				"element": "O" 
			},
			{
				"x": -2.4650633938,
				"y": 0.2738250198,
				"z": -0.5133116382,
				"element": "C" 
			},
			{
				"x": -1.7191863939,
				"y": -0.9521336113,
				"z": 0.0886585627,
				"element": "C" 
			},
			{
				"x": -0.4184216105,
				"y": -0.5143593568,
				"z": -0.6514573248,
				"element": "C" 
			},
			{
				"x": -1.3117252516,
				"y": 0.3932540926,
				"z": -1.551452712,
				"element": "C" 
			},
			{
				"x": 0.6325798579,
				"y": 0.1912928394,
				"z": 0.1874526823,
				"element": "C" 
			},
			{
				"x": 1.3889018293,
				"y": 1.2482174941,
				"z": -0.3389808191,
				"element": "C" 
			},
			{
				"x": 2.3948641905,
				"y": 1.8677129957,
				"z": 0.4025624977,
				"element": "C" 
			},
			{
				"x": 2.6568679598,
				"y": 1.4221861957,
				"z": 1.6966161301,
				"element": "C" 
			},
			{
				"x": 3.9168984546,
				"y": 2.1999574762,
				"z": 2.6454849771,
				"element": "Cl" 
			},
			{
				"x": 1.9338484474,
				"y": 0.3653790873,
				"z": 2.2461764046,
				"element": "C" 
			},
			{
				"x": 0.9321480353,
				"y": -0.2402526319,
				"z": 1.4875055529,
				"element": "C" 
			},
			{
				"x": -4.5222011035,
				"y": 1.4681839744,
				"z": -0.0542646632,
				"element": "H" 
			},
			{
				"x": -2.4607598514,
				"y": 1.1206229127,
				"z": 0.1823147202,
				"element": "H" 
			},
			{
				"x": -1.6965085416,
				"y": -1.0214098325,
				"z": 1.178656151,
				"element": "H" 
			},
			{
				"x": -2.1230632692,
				"y": -1.8784098467,
				"z": -0.3260173211,
				"element": "H" 
			},
			{
				"x": 0.0695995362,
				"y": -1.3297260156,
				"z": -1.1990640763,
				"element": "H" 
			},
			{
				"x": -0.9618895536,
				"y": 1.403331171,
				"z": -1.7768317578,
				"element": "H" 
			},
			{
				"x": -1.5878525111,
				"y": -0.1114519976,
				"z": -2.4799494402,
				"element": "H" 
			},
			{
				"x": 1.2005923753,
				"y": 1.5969488444,
				"z": -1.3500469058,
				"element": "H" 
			},
			{
				"x": 2.9689455052,
				"y": 2.6860355011,
				"z": -0.0181359303,
				"element": "H" 
			},
			{
				"x": 2.1513436586,
				"y": 0.0216702971,
				"z": 3.2515479071,
				"element": "H" 
			},
			{
				"x": 0.3825319426,
				"y": -1.069756833,
				"z": 1.9223885511,
				"element": "H" 
			}
		],
		 "valence_orbital": [ 
			{
				"type": "occ",
				"energy": -0.31518,
				"method": "rhf"
			},
			{
				"type": "occ",
				"energy": -0.31322,
				"method": "rhf"
			},
			{
				"type": "occ",
				"energy": -0.27366,
				"method": "rhf"
			},
			{
				"type": "occ",
				"energy": -0.26768,
				"method": "rhf"
			},
			{
				"type": "occ",
				"energy": -0.24395,
				"method": "rhf"
			},
			{
				"type": "unocc",
				"energy": -0.01986,
				"method": "rhf"
			},
			{
				"type": "unocc",
				"energy": -0.01822,
				"method": "rhf"
			},
			{
				"type": "unocc",
				"energy": -0.0011,
				"method": "rhf"
			},
			{
				"type": "unocc",
				"energy": 0.02683,
				"method": "rhf"
			},
			{
				"type": "unocc",
				"energy": 0.04531,
				"method": "rhf"
			}
		],
		"cosmo_sigma_profile": { 
			"-0.025": 0.0,
			"-0.024": 0.0,
			"-0.023": 0.0,
			"-0.022": 0.0,
			"-0.021": 0.0,
			"-0.02": 0.0,
			"-0.019": 0.473601838581,
			"-0.018": 1.07030872831,
			"-0.017": 1.06055704268,
			"-0.016": 0.880260717482,
			"-0.015": 1.23118962858,
			"-0.014": 1.10347119443,
			"-0.013": 1.40753861549,
			"-0.012": 1.37969093338,
			"-0.011": 0.729315833122,
			"-0.01": 0.658499326983,
			"-0.009": 1.07713365012,
			"-0.008": 1.34718459939,
			"-0.007": 4.17974221548,
			"-0.006": 11.2807463509,
			"-0.005": 14.1741129599,
			"-0.004": 16.6793984557,
			"-0.003": 22.0956398356,
			"-0.002": 21.0230402902,
			"-0.001": 20.2338787881,
			"0.0": 13.8229965578,
			"0.001": 12.8020605825,
			"0.002": 15.3666268365,
			"0.003": 16.4989427103,
			"0.004": 21.3936617621,
			"0.005": 13.0703762231,
			"0.006": 2.95695171799,
			"0.007": 2.42799019805,
			"0.008": 2.41416912154,
			"0.009": 3.20207177744,
			"0.01": 3.88272485899,
			"0.011": 4.94272540826,
			"0.012": 5.0125595072,
			"0.013": 2.99402765673,
			"0.014": 0.324773951001,
			"0.015": 0.0,
			"0.016": 0.0,
			"0.017": 0.0,
			"0.018": 0.0,
			"0.019": 0.0,
			"0.02": 0.0,
			"0.021": 0.0,
			"0.022": 0.0,
			"0.023": 0.0,
			"0.024": 0.0,
			"0.025": 0.0
		}
	}
}
