{
	 "smiles": "COC1=CC=CC(N)=C1C(O)=O", 
	 "Tm": 358.15, 
	 "num_atms": 21, 
	 "gaussian": { 
		 "optdone": 1, 
		 "sigma_profile": "yes", 
		 "theory": "DFT", 
		 "functional": "B3LYP", 
		 "basiset": "6-31G**", 
		 "properties": { 
			 "R2extent": 2079.603, 
			 "electric_dipole_moment_norm": 5.11688033962, 
			 "electric_quadrupole_moment_norm": 15.5527912887, 
			 "total_energy": -590.711728829, 
			 "HOMO_LUMO_gap": 0.17057, 
			 "cosmo_polarized_energy": -14.14, 
			 "cosmo_cavitation_energy": 24.18, 
			 "cosmo_dispersion_energy": -18.61, 
			 "cosmo_repulsion_energy": 1.46, 
			 "cosmo_total_nonelectrostatic_energy": 7.04, 
			 "SMD_solvation_energy": 5.85 
		},
		"coords": [
			{
				"x": -2.3715007701,
				"y": 1.6594871839,
				"z": -0.1705614128,
				"element": "C" 
			},
			{
				"x": -1.028239967,
				"y": 1.1898080402,
				"z": -0.1100344057,
				"element": "O" 
			},
			{
				"x": -0.7755073305,
				"y": -0.1467919416,
				"z": 0.1154826382,
				"element": "C" 
			},
			{
				"x": -1.8132828449,
				"y": -1.0549272553,
				"z": 0.285910014,
				"element": "C" 
			},
			{
				"x": -1.4966350696,
				"y": -2.4015853173,
				"z": 0.5121064859,
				"element": "C" 
			},
			{
				"x": -0.1887793133,
				"y": -2.8301123846,
				"z": 0.5667490369,
				"element": "C" 
			},
			{
				"x": 0.8820872042,
				"y": -1.9168109681,
				"z": 0.3948976976,
				"element": "C" 
			},
			{
				"x": 2.1545217721,
				"y": -2.3800098164,
				"z": 0.4555260083,
				"element": "N" 
			},
			{
				"x": 0.5954623054,
				"y": -0.5309790048,
				"z": 0.1617423367,
				"element": "C" 
			},
			{
				"x": 1.734237027,
				"y": 0.4177360159,
				"z": -0.0167006875,
				"element": "C" 
			},
			{
				"x": 1.4726600193,
				"y": 1.7168269861,
				"z": -0.2357758492,
				"element": "O" 
			},
			{
				"x": 2.9092101865,
				"y": 0.0680243634,
				"z": 0.0267657919,
				"element": "O" 
			},
			{
				"x": -2.302887892,
				"y": 2.7320000242,
				"z": -0.3551117444,
				"element": "H" 
			},
			{
				"x": -2.9194902947,
				"y": 1.1808115378,
				"z": -0.9892475025,
				"element": "H" 
			},
			{
				"x": -2.8935147382,
				"y": 1.4828701643,
				"z": 0.7759921349,
				"element": "H" 
			},
			{
				"x": -2.8475189777,
				"y": -0.7420697905,
				"z": 0.2470631017,
				"element": "H" 
			},
			{
				"x": -2.301807,
				"y": -3.1184632907,
				"z": 0.6464421534,
				"element": "H" 
			},
			{
				"x": 0.0427947241,
				"y": -3.8767224244,
				"z": 0.7425808547,
				"element": "H" 
			},
			{
				"x": 2.3232112107,
				"y": -3.3570458874,
				"z": 0.6219596768,
				"element": "H" 
			},
			{
				"x": 2.9072532552,
				"y": -1.7103241885,
				"z": 0.3309487001,
				"element": "H" 
			},
			{
				"x": 0.5060264935,
				"y": 1.8561779538,
				"z": -0.2461350292,
				"element": "H" 
			}
		],
		 "valence_orbital": [ 
			{
				"type": "occ",
				"energy": -0.30444,
				"method": "rhf"
			},
			{
				"type": "occ",
				"energy": -0.29186,
				"method": "rhf"
			},
			{
				"type": "occ",
				"energy": -0.25917,
				"method": "rhf"
			},
			{
				"type": "occ",
				"energy": -0.24179,
				"method": "rhf"
			},
			{
				"type": "occ",
				"energy": -0.20309,
				"method": "rhf"
			},
			{
				"type": "unocc",
				"energy": -0.03252,
				"method": "rhf"
			},
			{
				"type": "unocc",
				"energy": 0.01783,
				"method": "rhf"
			},
			{
				"type": "unocc",
				"energy": 0.06551,
				"method": "rhf"
			},
			{
				"type": "unocc",
				"energy": 0.07934,
				"method": "rhf"
			},
			{
				"type": "unocc",
				"energy": 0.08292,
				"method": "rhf"
			}
		],
		"cosmo_sigma_profile": { 
			"-0.025": 0.0,
			"-0.024": 0.0,
			"-0.023": 0.0,
			"-0.022": 0.0,
			"-0.021": 0.0,
			"-0.02": 0.0,
			"-0.019": 0.0,
			"-0.018": 0.0,
			"-0.017": 0.0,
			"-0.016": 0.0,
			"-0.015": 0.0,
			"-0.014": 0.240040402085,
			"-0.013": 1.17170188242,
			"-0.012": 1.42026138292,
			"-0.011": 1.27113119705,
			"-0.01": 1.37497478278,
			"-0.009": 1.97956934251,
			"-0.008": 2.53506505435,
			"-0.007": 7.14144871497,
			"-0.006": 17.1487454168,
			"-0.005": 15.0618331878,
			"-0.004": 16.6729369873,
			"-0.003": 12.2779956488,
			"-0.002": 9.25359345175,
			"-0.001": 9.35379634365,
			"0.0": 10.0486587158,
			"0.001": 9.45075950034,
			"0.002": 9.48400949047,
			"0.003": 13.8644412799,
			"0.004": 13.5345662531,
			"0.005": 11.0210982079,
			"0.006": 5.15289905804,
			"0.007": 2.41407732776,
			"0.008": 2.57742768145,
			"0.009": 2.6747480264,
			"0.01": 3.03205834737,
			"0.011": 3.34815272004,
			"0.012": 4.0685561417,
			"0.013": 3.16679485111,
			"0.014": 1.82595735633,
			"0.015": 0.223426646188,
			"0.016": 0.0,
			"0.017": 0.0,
			"0.018": 0.0,
			"0.019": 0.0,
			"0.02": 0.0,
			"0.021": 0.0,
			"0.022": 0.0,
			"0.023": 0.0,
			"0.024": 0.0,
			"0.025": 0.0
		}
	}
}
