{
	 "smiles": "COC1=CC=C(Cl)C(=C1)C(O)=O", 
	 "Tm": 445.15, 
	 "num_atms": 19, 
	 "gaussian": { 
		 "optdone": 1, 
		 "sigma_profile": "yes", 
		 "theory": "DFT", 
		 "functional": "B3LYP", 
		 "basiset": "6-31G**", 
		 "properties": { 
			 "R2extent": 3808.3958, 
			 "electric_dipole_moment_norm": 3.84876152678, 
			 "electric_quadrupole_moment_norm": 9.83956867297, 
			 "total_energy": -994.928147469, 
			 "HOMO_LUMO_gap": 0.18098, 
			 "cosmo_polarized_energy": -10.94, 
			 "cosmo_cavitation_energy": 24.99, 
			 "cosmo_dispersion_energy": -18.84, 
			 "cosmo_repulsion_energy": 1.49, 
			 "cosmo_total_nonelectrostatic_energy": 7.64, 
			 "SMD_solvation_energy": 6.06 
		},
		"coords": [
			{
				"x": -3.1393683415,
				"y": -0.5434030261,
				"z": 2.3969275785,
				"element": "C" 
			},
			{
				"x": -2.1790164461,
				"y": 0.0489446261,
				"z": 3.2651969141,
				"element": "O" 
			},
			{
				"x": -0.8823142351,
				"y": 0.0807710786,
				"z": 2.8635397981,
				"element": "C" 
			},
			{
				"x": 0.0231636514,
				"y": 0.6738101663,
				"z": 3.7571795703,
				"element": "C" 
			},
			{
				"x": 1.3668668536,
				"y": 0.7491276339,
				"z": 3.4280896395,
				"element": "C" 
			},
			{
				"x": 1.8266097775,
				"y": 0.2379879659,
				"z": 2.2107616301,
				"element": "C" 
			},
			{
				"x": 3.5712008579,
				"y": 0.4039622775,
				"z": 1.9250609111,
				"element": "Cl" 
			},
			{
				"x": 0.9461307175,
				"y": -0.3603102971,
				"z": 1.2968547423,
				"element": "C" 
			},
			{
				"x": -0.4140128975,
				"y": -0.4256200037,
				"z": 1.6528693727,
				"element": "C" 
			},
			{
				"x": 1.2450729365,
				"y": -0.9689058338,
				"z": -0.0636942156,
				"element": "C" 
			},
			{
				"x": 2.5045314496,
				"y": -0.9692440837,
				"z": -0.5288453863,
				"element": "O" 
			},
			{
				"x": 0.3584055909,
				"y": -1.453155676,
				"z": -0.7324951539,
				"element": "O" 
			},
			{
				"x": -3.1951903855,
				"y": -0.0129067185,
				"z": 1.4387882093,
				"element": "H" 
			},
			{
				"x": -2.9143878655,
				"y": -1.6005056937,
				"z": 2.2112967144,
				"element": "H" 
			},
			{
				"x": -4.0968507379,
				"y": -0.4619024236,
				"z": 2.9123910531,
				"element": "H" 
			},
			{
				"x": -0.3449684919,
				"y": 1.0669723495,
				"z": 4.6987016137,
				"element": "H" 
			},
			{
				"x": 2.0720922597,
				"y": 1.2056300587,
				"z": 4.1134714601,
				"element": "H" 
			},
			{
				"x": -1.0706193268,
				"y": -0.8918355421,
				"z": 0.9304298219,
				"element": "H" 
			},
			{
				"x": 3.1211546332,
				"y": -0.554516858,
				"z": 0.0975757264,
				"element": "H" 
			}
		],
		 "valence_orbital": [ 
			{
				"type": "occ",
				"energy": -0.32919,
				"method": "rhf"
			},
			{
				"type": "occ",
				"energy": -0.31131,
				"method": "rhf"
			},
			{
				"type": "occ",
				"energy": -0.2778,
				"method": "rhf"
			},
			{
				"type": "occ",
				"energy": -0.27726,
				"method": "rhf"
			},
			{
				"type": "occ",
				"energy": -0.24066,
				"method": "rhf"
			},
			{
				"type": "unocc",
				"energy": -0.05968,
				"method": "rhf"
			},
			{
				"type": "unocc",
				"energy": -0.01858,
				"method": "rhf"
			},
			{
				"type": "unocc",
				"energy": 0.00127,
				"method": "rhf"
			},
			{
				"type": "unocc",
				"energy": 0.0511,
				"method": "rhf"
			},
			{
				"type": "unocc",
				"energy": 0.09521,
				"method": "rhf"
			}
		],
		"cosmo_sigma_profile": { 
			"-0.025": 0.0,
			"-0.024": 0.0,
			"-0.023": 0.0,
			"-0.022": 0.0,
			"-0.021": 0.0,
			"-0.02": 0.0,
			"-0.019": 0.0,
			"-0.018": 0.0,
			"-0.017": 0.0,
			"-0.016": 0.0,
			"-0.015": 0.0,
			"-0.014": 0.0,
			"-0.013": 0.0,
			"-0.012": 0.0689309559407,
			"-0.011": 0.581189202359,
			"-0.01": 1.07367409934,
			"-0.009": 1.50469255201,
			"-0.008": 4.58124011166,
			"-0.007": 7.72526173626,
			"-0.006": 14.4248321609,
			"-0.005": 13.0076769669,
			"-0.004": 17.0949294557,
			"-0.003": 14.0296244517,
			"-0.002": 11.5672051442,
			"-0.001": 12.9039754586,
			"0.0": 13.6135488736,
			"0.001": 22.6746128966,
			"0.002": 18.9850416156,
			"0.003": 9.40105145754,
			"0.004": 4.09201250721,
			"0.005": 4.08213014805,
			"0.006": 3.92683671742,
			"0.007": 2.65862943962,
			"0.008": 4.28671541903,
			"0.009": 5.13779165549,
			"0.01": 5.00443618431,
			"0.011": 5.10129081062,
			"0.012": 3.76523386749,
			"0.013": 1.27671795959,
			"0.014": 0.0143921002248,
			"0.015": 0.0,
			"0.016": 0.0,
			"0.017": 0.0,
			"0.018": 0.0,
			"0.019": 0.0,
			"0.02": 0.0,
			"0.021": 0.0,
			"0.022": 0.0,
			"0.023": 0.0,
			"0.024": 0.0,
			"0.025": 0.0
		}
	}
}
