{
	 "smiles": "ClC1=CC2=CC=CC=C2OC1=O", 
	 "Tm": 396.15, 
	 "num_atms": 17, 
	 "gaussian": { 
		 "optdone": 1, 
		 "sigma_profile": "yes", 
		 "theory": "DFT", 
		 "functional": "B3LYP", 
		 "basiset": "6-31G**", 
		 "properties": { 
			 "R2extent": 4235.6203, 
			 "electric_dipole_moment_norm": 5.4681278533, 
			 "electric_quadrupole_moment_norm": 16.3800519416, 
			 "total_energy": -956.609009246, 
			 "HOMO_LUMO_gap": 0.16378, 
			 "cosmo_polarized_energy": -11.04, 
			 "cosmo_cavitation_energy": 23.67, 
			 "cosmo_dispersion_energy": -17.97, 
			 "cosmo_repulsion_energy": 1.41, 
			 "cosmo_total_nonelectrostatic_energy": 7.11, 
			 "SMD_solvation_energy": 4.93 
		},
		"coords": [
			{
				"x": 2.6533729828,
				"y": 2.5301560386,
				"z": -3.8833772425,
				"element": "Cl" 
			},
			{
				"x": 1.4659575317,
				"y": 2.0046199745,
				"z": -2.7298402192,
				"element": "C" 
			},
			{
				"x": 0.3250800677,
				"y": 1.3857882908,
				"z": -3.111994656,
				"element": "C" 
			},
			{
				"x": -0.6383627142,
				"y": 0.962979543,
				"z": -2.1297341962,
				"element": "C" 
			},
			{
				"x": -1.8474051628,
				"y": 0.3138838729,
				"z": -2.4461568004,
				"element": "C" 
			},
			{
				"x": -2.726255572,
				"y": -0.0634310337,
				"z": -1.4409283324,
				"element": "C" 
			},
			{
				"x": -2.4116475075,
				"y": 0.2018507704,
				"z": -0.0988173634,
				"element": "C" 
			},
			{
				"x": -1.2239162134,
				"y": 0.8416812404,
				"z": 0.2402457186,
				"element": "C" 
			},
			{
				"x": -0.3457951875,
				"y": 1.2176837886,
				"z": -0.7772535993,
				"element": "C" 
			},
			{
				"x": 0.8118168988,
				"y": 1.8439328937,
				"z": -0.4123306804,
				"element": "O" 
			},
			{
				"x": 1.7775103018,
				"y": 2.2737503859,
				"z": -1.314593512,
				"element": "C" 
			},
			{
				"x": 2.7635400994,
				"y": 2.8162647133,
				"z": -0.8869396007,
				"element": "O" 
			},
			{
				"x": 0.1285658851,
				"y": 1.2037676539,
				"z": -4.1643319132,
				"element": "H" 
			},
			{
				"x": -2.0798313808,
				"y": 0.1140289965,
				"z": -3.48841127,
				"element": "H" 
			},
			{
				"x": -3.6562847064,
				"y": -0.5632875209,
				"z": -1.6915040475,
				"element": "H" 
			},
			{
				"x": -3.1005266224,
				"y": -0.0941494287,
				"z": 0.6863438557,
				"element": "H" 
			},
			{
				"x": -0.9603187002,
				"y": 1.056679821,
				"z": 1.2699238589,
				"element": "H" 
			}
		],
		 "valence_orbital": [ 
			{
				"type": "occ",
				"energy": -0.32171,
				"method": "rhf"
			},
			{
				"type": "occ",
				"energy": -0.31598,
				"method": "rhf"
			},
			{
				"type": "occ",
				"energy": -0.2879,
				"method": "rhf"
			},
			{
				"type": "occ",
				"energy": -0.26344,
				"method": "rhf"
			},
			{
				"type": "occ",
				"energy": -0.24262,
				"method": "rhf"
			},
			{
				"type": "unocc",
				"energy": -0.07884,
				"method": "rhf"
			},
			{
				"type": "unocc",
				"energy": -0.02242,
				"method": "rhf"
			},
			{
				"type": "unocc",
				"energy": -0.00891,
				"method": "rhf"
			},
			{
				"type": "unocc",
				"energy": 0.02215,
				"method": "rhf"
			},
			{
				"type": "unocc",
				"energy": 0.07315,
				"method": "rhf"
			}
		],
		"cosmo_sigma_profile": { 
			"-0.025": 0.0,
			"-0.024": 0.0,
			"-0.023": 0.0,
			"-0.022": 0.0,
			"-0.021": 0.0,
			"-0.02": 0.0,
			"-0.019": 0.0,
			"-0.018": 0.0,
			"-0.017": 0.0,
			"-0.016": 0.0,
			"-0.015": 0.0,
			"-0.014": 0.0,
			"-0.013": 0.0,
			"-0.012": 0.0,
			"-0.011": 0.0,
			"-0.01": 1.51397311137,
			"-0.009": 2.72556427995,
			"-0.008": 4.00953563223,
			"-0.007": 8.96842526284,
			"-0.006": 11.0080177593,
			"-0.005": 12.5961955411,
			"-0.004": 10.7843439905,
			"-0.003": 11.6085835116,
			"-0.002": 12.8794280211,
			"-0.001": 16.9645934007,
			"0.0": 15.0389655784,
			"0.001": 15.9316920536,
			"0.002": 14.9873810252,
			"0.003": 17.3583755787,
			"0.004": 9.73348907635,
			"0.005": 2.56403982396,
			"0.006": 3.2251372071,
			"0.007": 2.58770537851,
			"0.008": 3.33425395324,
			"0.009": 2.61898510831,
			"0.01": 3.67494821771,
			"0.011": 6.26518302408,
			"0.012": 3.26512649241,
			"0.013": 0.118939214926,
			"0.014": 0.0,
			"0.015": 0.0,
			"0.016": 0.0,
			"0.017": 0.0,
			"0.018": 0.0,
			"0.019": 0.0,
			"0.02": 0.0,
			"0.021": 0.0,
			"0.022": 0.0,
			"0.023": 0.0,
			"0.024": 0.0,
			"0.025": 0.0
		}
	}
}
