{
	 "smiles": "CCC1=C2CN3C(=CC4=C(COC(=O)[C@]4(O)CC)C3=O)C2=NC2=C1C=C(OC(=O)N1CCC(CC1)N1CCCCC1)C=C2", 
	 "Tm": 495.65, 
	 "num_atms": 81, 
	 "gaussian": { 
		 "optdone": 1, 
		 "sigma_profile": "yes", 
		 "theory": "DFT", 
		 "functional": "B3LYP", 
		 "basiset": "6-31G**", 
		 "properties": { 
			 "R2extent": 54870.101, 
			 "electric_dipole_moment_norm": 12.6580826648, 
			 "electric_quadrupole_moment_norm": 68.6773384411, 
			 "total_energy": -1950.81063312, 
			 "HOMO_LUMO_gap": 0.13219, 
			 "cosmo_polarized_energy": -28.78, 
			 "cosmo_cavitation_energy": 78.02, 
			 "cosmo_dispersion_energy": -54.55, 
			 "cosmo_repulsion_energy": 3.98, 
			 "cosmo_total_nonelectrostatic_energy": 27.45, 
			 "SMD_solvation_energy": 9.44 
		},
		"coords": [
			{
				"x": -1.4262487137,
				"y": 2.1525440796,
				"z": -2.813674598,
				"element": "C" 
			},
			{
				"x": -0.342388969,
				"y": 1.094147875,
				"z": -3.1037606968,
				"element": "C" 
			},
			{
				"x": 0.7275737233,
				"y": 1.0298130272,
				"z": -2.0373302523,
				"element": "C" 
			},
			{
				"x": 1.9569908483,
				"y": 1.6251437521,
				"z": -2.2068584244,
				"element": "C" 
			},
			{
				"x": 2.5300799219,
				"y": 2.3878669479,
				"z": -3.3745224016,
				"element": "C" 
			},
			{
				"x": 3.8748108272,
				"y": 2.7344767026,
				"z": -2.8902054705,
				"element": "N" 
			},
			{
				"x": 4.12884849,
				"y": 2.2741542396,
				"z": -1.6204771429,
				"element": "C" 
			},
			{
				"x": 5.3339830721,
				"y": 2.5012874985,
				"z": -1.0099559751,
				"element": "C" 
			},
			{
				"x": 6.3132036619,
				"y": 3.2332713388,
				"z": -1.7377107208,
				"element": "C" 
			},
			{
				"x": 6.0591502629,
				"y": 3.6626539066,
				"z": -3.022833163,
				"element": "C" 
			},
			{
				"x": 7.1496088287,
				"y": 4.3362270744,
				"z": -3.7987095984,
				"element": "C" 
			},
			{
				"x": 8.4410388787,
				"y": 3.7472793826,
				"z": -3.524736191,
				"element": "O" 
			},
			{
				"x": 8.7380371281,
				"y": 3.3164890727,
				"z": -2.2826715593,
				"element": "C" 
			},
			{
				"x": 9.777949443,
				"y": 2.7404953664,
				"z": -2.0718308747,
				"element": "O" 
			},
			{
				"x": 7.6866949703,
				"y": 3.6243281644,
				"z": -1.1798394327,
				"element": "C" 
			},
			{
				"x": 7.7592830765,
				"y": 5.0600164018,
				"z": -1.0676630358,
				"element": "O" 
			},
			{
				"x": 8.0900747827,
				"y": 2.946275504,
				"z": 0.1401256083,
				"element": "C" 
			},
			{
				"x": 7.4797568145,
				"y": 3.5822032619,
				"z": 1.3959147635,
				"element": "C" 
			},
			{
				"x": 4.7858259527,
				"y": 3.4399865463,
				"z": -3.6855402508,
				"element": "C" 
			},
			{
				"x": 4.4760186996,
				"y": 3.8037111456,
				"z": -4.8221296847,
				"element": "O" 
			},
			{
				"x": 2.9265970924,
				"y": 1.5716929603,
				"z": -1.1660988619,
				"element": "C" 
			},
			{
				"x": 2.7731185435,
				"y": 0.9938146955,
				"z": 0.0039506937,
				"element": "N" 
			},
			{
				"x": 1.5651334106,
				"y": 0.3940293604,
				"z": 0.2074241951,
				"element": "C" 
			},
			{
				"x": 0.5128290888,
				"y": 0.3769132748,
				"z": -0.7748431166,
				"element": "C" 
			},
			{
				"x": -0.7051822339,
				"y": -0.2824877592,
				"z": -0.4663095728,
				"element": "C" 
			},
			{
				"x": -0.8791829149,
				"y": -0.8668699501,
				"z": 0.7697291435,
				"element": "C" 
			},
			{
				"x": -2.0122320357,
				"y": -1.5661121951,
				"z": 1.150404831,
				"element": "O" 
			},
			{
				"x": -3.2738585296,
				"y": -1.1953098564,
				"z": 0.7142164158,
				"element": "C" 
			},
			{
				"x": -3.5022879464,
				"y": -0.2176724793,
				"z": 0.0236922936,
				"element": "O" 
			},
			{
				"x": -4.2073054149,
				"y": -2.0666214018,
				"z": 1.1747166787,
				"element": "N" 
			},
			{
				"x": -5.6185519432,
				"y": -1.7637731092,
				"z": 0.8827310211,
				"element": "C" 
			},
			{
				"x": -6.5182180851,
				"y": -2.3326344142,
				"z": 1.9796958185,
				"element": "C" 
			},
			{
				"x": -6.4178564909,
				"y": -3.869660066,
				"z": 2.0594954304,
				"element": "C" 
			},
			{
				"x": -4.9489093267,
				"y": -4.333342511,
				"z": 1.7815036759,
				"element": "C" 
			},
			{
				"x": -3.9045447635,
				"y": -3.236444261,
				"z": 2.0141257301,
				"element": "C" 
			},
			{
				"x": -7.0380305177,
				"y": -4.3753177452,
				"z": 3.2870034799,
				"element": "N" 
			},
			{
				"x": -7.4958196795,
				"y": -5.7655702555,
				"z": 3.1641432554,
				"element": "C" 
			},
			{
				"x": -7.9963951297,
				"y": -6.31573744,
				"z": 4.5184394584,
				"element": "C" 
			},
			{
				"x": -8.4846892972,
				"y": -5.1757339067,
				"z": 5.4179777194,
				"element": "C" 
			},
			{
				"x": -7.3175311725,
				"y": -4.2122176633,
				"z": 5.7236717183,
				"element": "C" 
			},
			{
				"x": -6.3200681375,
				"y": -4.1577957194,
				"z": 4.5432818033,
				"element": "C" 
			},
			{
				"x": 0.1501321751,
				"y": -0.8522168902,
				"z": 1.7411246052,
				"element": "C" 
			},
			{
				"x": 1.3463908878,
				"y": -0.240484675,
				"z": 1.4596295393,
				"element": "C" 
			},
			{
				"x": -2.1551537118,
				"y": 2.1811321088,
				"z": -3.6292540458,
				"element": "H" 
			},
			{
				"x": -1.963377581,
				"y": 1.9326066556,
				"z": -1.8871380652,
				"element": "H" 
			},
			{
				"x": -0.9845061542,
				"y": 3.1496160599,
				"z": -2.7195628474,
				"element": "H" 
			},
			{
				"x": 0.1278539522,
				"y": 1.3150226619,
				"z": -4.0678644864,
				"element": "H" 
			},
			{
				"x": -0.8136731799,
				"y": 0.1112188129,
				"z": -3.2154582214,
				"element": "H" 
			},
			{
				"x": 2.6120491832,
				"y": 1.8019738192,
				"z": -4.2974887858,
				"element": "H" 
			},
			{
				"x": 1.9818716064,
				"y": 3.3030595748,
				"z": -3.6255292358,
				"element": "H" 
			},
			{
				"x": 5.5008138566,
				"y": 2.1120407098,
				"z": -0.0159985288,
				"element": "H" 
			},
			{
				"x": 6.9833769556,
				"y": 4.2077009887,
				"z": -4.8691690865,
				"element": "H" 
			},
			{
				"x": 7.205267849,
				"y": 5.4064558947,
				"z": -3.5739775665,
				"element": "H" 
			},
			{
				"x": 6.9894880968,
				"y": 5.3513866999,
				"z": -0.5606302095,
				"element": "H" 
			},
			{
				"x": 9.1792973309,
				"y": 2.9967393766,
				"z": 0.2025446767,
				"element": "H" 
			},
			{
				"x": 7.8416642327,
				"y": 1.8805298855,
				"z": 0.0813609622,
				"element": "H" 
			},
			{
				"x": 7.7946201924,
				"y": 3.0298215807,
				"z": 2.2860691182,
				"element": "H" 
			},
			{
				"x": 6.3843959358,
				"y": 3.590409181,
				"z": 1.388497482,
				"element": "H" 
			},
			{
				"x": 7.8248536136,
				"y": 4.6137364452,
				"z": 1.5124874359,
				"element": "H" 
			},
			{
				"x": -1.5125125927,
				"y": -0.3058013479,
				"z": -1.1815704755,
				"element": "H" 
			},
			{
				"x": -5.7200344025,
				"y": -0.6799352795,
				"z": 0.8056372373,
				"element": "H" 
			},
			{
				"x": -5.8973808377,
				"y": -2.1807896093,
				"z": -0.0960404414,
				"element": "H" 
			},
			{
				"x": -6.2355852316,
				"y": -1.8790151579,
				"z": 2.9362617769,
				"element": "H" 
			},
			{
				"x": -7.5566325899,
				"y": -2.0434695143,
				"z": 1.7937550736,
				"element": "H" 
			},
			{
				"x": -7.0355471684,
				"y": -4.2694931348,
				"z": 1.245696155,
				"element": "H" 
			},
			{
				"x": -4.8603759605,
				"y": -4.6711408168,
				"z": 0.7426083613,
				"element": "H" 
			},
			{
				"x": -4.6972619607,
				"y": -5.1960994071,
				"z": 2.4072584195,
				"element": "H" 
			},
			{
				"x": -2.9098769378,
				"y": -3.6010333559,
				"z": 1.7572928317,
				"element": "H" 
			},
			{
				"x": -3.8763452723,
				"y": -2.9464571327,
				"z": 3.0736767924,
				"element": "H" 
			},
			{
				"x": -6.7038766889,
				"y": -6.4344230324,
				"z": 2.7750317925,
				"element": "H" 
			},
			{
				"x": -8.3093502892,
				"y": -5.7808839995,
				"z": 2.4267864285,
				"element": "H" 
			},
			{
				"x": -7.1857427728,
				"y": -6.8519034434,
				"z": 5.0277975467,
				"element": "H" 
			},
			{
				"x": -8.7875476239,
				"y": -7.0522714187,
				"z": 4.3423425873,
				"element": "H" 
			},
			{
				"x": -8.9106931104,
				"y": -5.5692667371,
				"z": 6.3472777913,
				"element": "H" 
			},
			{
				"x": -9.2860695868,
				"y": -4.6327977872,
				"z": 4.9051803461,
				"element": "H" 
			},
			{
				"x": -6.7828507727,
				"y": -4.5317567573,
				"z": 6.6264730476,
				"element": "H" 
			},
			{
				"x": -7.7106666493,
				"y": -3.2099773009,
				"z": 5.9252635743,
				"element": "H" 
			},
			{
				"x": -5.8300020973,
				"y": -3.1807302447,
				"z": 4.5200193143,
				"element": "H" 
			},
			{
				"x": -5.5143850684,
				"y": -4.9019367528,
				"z": 4.6948083522,
				"element": "H" 
			},
			{
				"x": -0.0310565188,
				"y": -1.3326577362,
				"z": 2.696823087,
				"element": "H" 
			},
			{
				"x": 2.1552226752,
				"y": -0.2164297692,
				"z": 2.1819349511,
				"element": "H" 
			}
		],
		 "valence_orbital": [ 
			{
				"type": "occ",
				"energy": -0.25367,
				"method": "rhf"
			},
			{
				"type": "occ",
				"energy": -0.25153,
				"method": "rhf"
			},
			{
				"type": "occ",
				"energy": -0.23682,
				"method": "rhf"
			},
			{
				"type": "occ",
				"energy": -0.21361,
				"method": "rhf"
			},
			{
				"type": "occ",
				"energy": -0.21229,
				"method": "rhf"
			},
			{
				"type": "unocc",
				"energy": -0.0801,
				"method": "rhf"
			},
			{
				"type": "unocc",
				"energy": -0.05115,
				"method": "rhf"
			},
			{
				"type": "unocc",
				"energy": -0.02568,
				"method": "rhf"
			},
			{
				"type": "unocc",
				"energy": 0.00054,
				"method": "rhf"
			},
			{
				"type": "unocc",
				"energy": 0.01709,
				"method": "rhf"
			}
		],
		"cosmo_sigma_profile": { 
			"-0.025": 0.0,
			"-0.024": 0.0,
			"-0.023": 0.0,
			"-0.022": 0.0,
			"-0.021": 0.0,
			"-0.02": 0.0,
			"-0.019": 0.0,
			"-0.018": 0.0,
			"-0.017": 0.0,
			"-0.016": 0.505098345984,
			"-0.015": 0.667658943166,
			"-0.014": 0.88769257582,
			"-0.013": 0.718939240236,
			"-0.012": 1.05192190361,
			"-0.011": 0.886047179714,
			"-0.01": 0.730238955291,
			"-0.009": 1.24062137798,
			"-0.008": 2.73058285535,
			"-0.007": 10.1753421384,
			"-0.006": 19.6675540853,
			"-0.005": 26.0516922631,
			"-0.004": 41.4427277693,
			"-0.003": 64.524995707,
			"-0.002": 81.1679037456,
			"-0.001": 81.2266979165,
			"0.0": 72.7706553724,
			"0.001": 53.0801439271,
			"0.002": 33.8036471916,
			"0.003": 21.0222595698,
			"0.004": 12.5220915007,
			"0.005": 8.54804485212,
			"0.006": 9.56137120286,
			"0.007": 9.52079136116,
			"0.008": 8.28324702369,
			"0.009": 8.34908851606,
			"0.01": 8.70456253218,
			"0.011": 12.1928986749,
			"0.012": 8.75615129882,
			"0.013": 6.68527145843,
			"0.014": 5.04736504739,
			"0.015": 0.19699910551,
			"0.016": 0.0,
			"0.017": 0.0,
			"0.018": 0.0,
			"0.019": 0.0,
			"0.02": 0.0,
			"0.021": 0.0,
			"0.022": 0.0,
			"0.023": 0.0,
			"0.024": 0.0,
			"0.025": 0.0
		}
	}
}
