{
	 "smiles": "O=C1CC2(CCSC2)C(=O)O1", 
	 "Tm": 357.15, 
	 "num_atms": 19, 
	 "gaussian": { 
		 "optdone": 1, 
		 "sigma_profile": "yes", 
		 "theory": "DFT", 
		 "functional": "B3LYP", 
		 "basiset": "6-31G**", 
		 "properties": { 
			 "R2extent": 2453.0687, 
			 "electric_dipole_moment_norm": 3.45443276241, 
			 "electric_quadrupole_moment_norm": 17.7050375682, 
			 "total_energy": -895.44076311, 
			 "HOMO_LUMO_gap": 0.19029, 
			 "cosmo_polarized_energy": -15.76, 
			 "cosmo_cavitation_energy": 23.47, 
			 "cosmo_dispersion_energy": -17.92, 
			 "cosmo_repulsion_energy": 1.38, 
			 "cosmo_total_nonelectrostatic_energy": 6.93, 
			 "SMD_solvation_energy": 5.02 
		},
		"coords": [
			{
				"x": 2.4416684755,
				"y": 0.1578404369,
				"z": 0.025374892,
				"element": "O" 
			},
			{
				"x": 1.2733504296,
				"y": 0.411582477,
				"z": 0.0116736727,
				"element": "C" 
			},
			{
				"x": 0.1272241418,
				"y": -0.3435925712,
				"z": -0.6347363427,
				"element": "C" 
			},
			{
				"x": -1.1431004188,
				"y": 0.2627588311,
				"z": -0.0152840173,
				"element": "C" 
			},
			{
				"x": -1.7070944117,
				"y": -0.5769705186,
				"z": 1.1662192542,
				"element": "C" 
			},
			{
				"x": -3.070641615,
				"y": 0.0044200227,
				"z": 1.5319498968,
				"element": "C" 
			},
			{
				"x": -3.9062613495,
				"y": 0.3416865255,
				"z": -0.0749056672,
				"element": "S" 
			},
			{
				"x": -2.3138715619,
				"y": 0.4818319659,
				"z": -1.0026357113,
				"element": "C" 
			},
			{
				"x": -0.6218048117,
				"y": 1.5894198312,
				"z": 0.54858717,
				"element": "C" 
			},
			{
				"x": -1.2415962894,
				"y": 2.5412211956,
				"z": 0.9287534595,
				"element": "O" 
			},
			{
				"x": 0.7658435091,
				"y": 1.5546928155,
				"z": 0.621764704,
				"element": "O" 
			},
			{
				"x": 0.2432801679,
				"y": -1.4182604922,
				"z": -0.4769905919,
				"element": "H" 
			},
			{
				"x": 0.1822936458,
				"y": -0.1622761452,
				"z": -1.7147898961,
				"element": "H" 
			},
			{
				"x": -1.0230556365,
				"y": -0.5827278947,
				"z": 2.0234625781,
				"element": "H" 
			},
			{
				"x": -1.8194591494,
				"y": -1.6106551603,
				"z": 0.8214230086,
				"element": "H" 
			},
			{
				"x": -3.6783823595,
				"y": -0.7003658359,
				"z": 2.1034288147,
				"element": "H" 
			},
			{
				"x": -2.9727134601,
				"y": 0.9349592051,
				"z": 2.0951365478,
				"element": "H" 
			},
			{
				"x": -2.251864306,
				"y": 1.4613215653,
				"z": -1.4828263263,
				"element": "H" 
			},
			{
				"x": -2.2955150001,
				"y": -0.2883862537,
				"z": -1.7779054455,
				"element": "H" 
			}
		],
		 "valence_orbital": [ 
			{
				"type": "occ",
				"energy": -0.34023,
				"method": "rhf"
			},
			{
				"type": "occ",
				"energy": -0.32608,
				"method": "rhf"
			},
			{
				"type": "occ",
				"energy": -0.31028,
				"method": "rhf"
			},
			{
				"type": "occ",
				"energy": -0.2882,
				"method": "rhf"
			},
			{
				"type": "occ",
				"energy": -0.23019,
				"method": "rhf"
			},
			{
				"type": "unocc",
				"energy": -0.0399,
				"method": "rhf"
			},
			{
				"type": "unocc",
				"energy": -0.0136,
				"method": "rhf"
			},
			{
				"type": "unocc",
				"energy": 0.01925,
				"method": "rhf"
			},
			{
				"type": "unocc",
				"energy": 0.04932,
				"method": "rhf"
			},
			{
				"type": "unocc",
				"energy": 0.07508,
				"method": "rhf"
			}
		],
		"cosmo_sigma_profile": { 
			"-0.025": 0.0,
			"-0.024": 0.0,
			"-0.023": 0.0,
			"-0.022": 0.0,
			"-0.021": 0.0,
			"-0.02": 0.0,
			"-0.019": 0.0,
			"-0.018": 0.0,
			"-0.017": 0.0,
			"-0.016": 0.0,
			"-0.015": 0.0,
			"-0.014": 0.0,
			"-0.013": 0.0,
			"-0.012": 0.572177419302,
			"-0.011": 1.63989354124,
			"-0.01": 2.23899150371,
			"-0.009": 5.3911207425,
			"-0.008": 7.98991060184,
			"-0.007": 12.7085802326,
			"-0.006": 15.0331572556,
			"-0.005": 14.6279700923,
			"-0.004": 12.7068370261,
			"-0.003": 13.839308969,
			"-0.002": 9.69443136824,
			"-0.001": 5.20998397873,
			"0.0": 5.41912933057,
			"0.001": 4.96532079544,
			"0.002": 4.68910487921,
			"0.003": 5.83079080766,
			"0.004": 6.03276707584,
			"0.005": 6.99114912603,
			"0.006": 8.70648319708,
			"0.007": 9.21302601494,
			"0.008": 8.38710681023,
			"0.009": 9.41254931688,
			"0.01": 12.397794043,
			"0.011": 3.88307088211,
			"0.012": 0.0,
			"0.013": 0.0,
			"0.014": 0.0,
			"0.015": 0.0,
			"0.016": 0.0,
			"0.017": 0.0,
			"0.018": 0.0,
			"0.019": 0.0,
			"0.02": 0.0,
			"0.021": 0.0,
			"0.022": 0.0,
			"0.023": 0.0,
			"0.024": 0.0,
			"0.025": 0.0
		}
	}
}
