{
	 "smiles": "OC(=O)C1=NC2=C3C(N1)=CC=CC3=CC=C2", 
	 "Tm": 484.15, 
	 "num_atms": 24, 
	 "gaussian": { 
		 "optdone": 1, 
		 "sigma_profile": "yes", 
		 "theory": "DFT", 
		 "functional": "B3LYP", 
		 "basiset": "6-31G**", 
		 "properties": { 
			 "R2extent": 4434.1358, 
			 "electric_dipole_moment_norm": 3.28734690898, 
			 "electric_quadrupole_moment_norm": 17.482149085, 
			 "total_energy": -722.090424017, 
			 "HOMO_LUMO_gap": 0.12121, 
			 "cosmo_polarized_energy": -11.3, 
			 "cosmo_cavitation_energy": 28.24, 
			 "cosmo_dispersion_energy": -21.52, 
			 "cosmo_repulsion_energy": 1.62, 
			 "cosmo_total_nonelectrostatic_energy": 8.34, 
			 "SMD_solvation_energy": 4.58 
		},
		"coords": [
			{
				"x": 2.9926523473,
				"y": -3.685585241,
				"z": 2.2181015247,
				"element": "O" 
			},
			{
				"x": 1.7282373141,
				"y": -3.6541537196,
				"z": 1.8015471139,
				"element": "C" 
			},
			{
				"x": 0.8724444177,
				"y": -4.4495575061,
				"z": 2.123457158,
				"element": "O" 
			},
			{
				"x": 1.4383885427,
				"y": -2.5067969766,
				"z": 0.8631391659,
				"element": "C" 
			},
			{
				"x": 2.4055830393,
				"y": -1.699445629,
				"z": 0.5665577131,
				"element": "N" 
			},
			{
				"x": 2.1177577087,
				"y": -0.6400293176,
				"z": -0.3061420066,
				"element": "C" 
			},
			{
				"x": 0.7933744733,
				"y": -0.4883845276,
				"z": -0.8294905705,
				"element": "C" 
			},
			{
				"x": -0.2293322547,
				"y": -1.411204687,
				"z": -0.4647492087,
				"element": "C" 
			},
			{
				"x": 0.1619743035,
				"y": -2.4307442218,
				"z": 0.4105354516,
				"element": "N" 
			},
			{
				"x": -1.5146102368,
				"y": -1.2862797192,
				"z": -0.9561819067,
				"element": "C" 
			},
			{
				"x": -1.8088789061,
				"y": -0.2199657028,
				"z": -1.8359561154,
				"element": "C" 
			},
			{
				"x": -0.8459361903,
				"y": 0.6916300468,
				"z": -2.2109711415,
				"element": "C" 
			},
			{
				"x": 0.4847827401,
				"y": 0.5831946301,
				"z": -1.7175996442,
				"element": "C" 
			},
			{
				"x": 1.5297172977,
				"y": 1.4850427279,
				"z": -2.0599609156,
				"element": "C" 
			},
			{
				"x": 2.7998781053,
				"y": 1.3221631465,
				"z": -1.5451613641,
				"element": "C" 
			},
			{
				"x": 3.1056970446,
				"y": 0.2619858956,
				"z": -0.6663294415,
				"element": "C" 
			},
			{
				"x": 3.4345127948,
				"y": -2.9192194403,
				"z": 1.7890206252,
				"element": "H" 
			},
			{
				"x": -0.4811545292,
				"y": -3.142387608,
				"z": 0.7369797237,
				"element": "H" 
			},
			{
				"x": -2.2844612638,
				"y": -1.9965093042,
				"z": -0.6700972823,
				"element": "H" 
			},
			{
				"x": -2.8201768362,
				"y": -0.1248541238,
				"z": -2.2203007484,
				"element": "H" 
			},
			{
				"x": -1.0911364346,
				"y": 1.5044188633,
				"z": -2.8880798669,
				"element": "H" 
			},
			{
				"x": 1.3115771699,
				"y": 2.30712713,
				"z": -2.7355599908,
				"element": "H" 
			},
			{
				"x": 3.5838381695,
				"y": 2.0222331907,
				"z": -1.8193788758,
				"element": "H" 
			},
			{
				"x": 4.1046711831,
				"y": 0.1361220936,
				"z": -0.2630793971,
				"element": "H" 
			}
		],
		 "valence_orbital": [ 
			{
				"type": "occ",
				"energy": -0.30249,
				"method": "rhf"
			},
			{
				"type": "occ",
				"energy": -0.2859,
				"method": "rhf"
			},
			{
				"type": "occ",
				"energy": -0.28483,
				"method": "rhf"
			},
			{
				"type": "occ",
				"energy": -0.25679,
				"method": "rhf"
			},
			{
				"type": "occ",
				"energy": -0.1944,
				"method": "rhf"
			},
			{
				"type": "unocc",
				"energy": -0.07319,
				"method": "rhf"
			},
			{
				"type": "unocc",
				"energy": -0.03326,
				"method": "rhf"
			},
			{
				"type": "unocc",
				"energy": -0.02024,
				"method": "rhf"
			},
			{
				"type": "unocc",
				"energy": 0.03093,
				"method": "rhf"
			},
			{
				"type": "unocc",
				"energy": 0.07801,
				"method": "rhf"
			}
		],
		"cosmo_sigma_profile": { 
			"-0.025": 0.0,
			"-0.024": 0.0,
			"-0.023": 0.0,
			"-0.022": 0.0,
			"-0.021": 0.0,
			"-0.02": 0.0,
			"-0.019": 0.0,
			"-0.018": 0.0,
			"-0.017": 0.0,
			"-0.016": 0.0744671958352,
			"-0.015": 0.783185648384,
			"-0.014": 1.03282670915,
			"-0.013": 1.33809260822,
			"-0.012": 2.00066503859,
			"-0.011": 1.84099425144,
			"-0.01": 1.30876675664,
			"-0.009": 2.05329412907,
			"-0.008": 1.66581625414,
			"-0.007": 3.07778910812,
			"-0.006": 13.89594253,
			"-0.005": 17.6457603324,
			"-0.004": 17.2146334874,
			"-0.003": 16.0160805209,
			"-0.002": 13.3649964804,
			"-0.001": 12.7787553725,
			"0.0": 11.1285753367,
			"0.001": 13.7827289925,
			"0.002": 15.669777206,
			"0.003": 18.5270324643,
			"0.004": 21.2042418417,
			"0.005": 15.9556710985,
			"0.006": 4.93333109688,
			"0.007": 3.17264972238,
			"0.008": 4.34307323266,
			"0.009": 4.66326426903,
			"0.01": 4.11326571482,
			"0.011": 2.9446572694,
			"0.012": 1.19711250999,
			"0.013": 0.0,
			"0.014": 0.0,
			"0.015": 0.0,
			"0.016": 0.0,
			"0.017": 0.0,
			"0.018": 0.0,
			"0.019": 0.0,
			"0.02": 0.0,
			"0.021": 0.0,
			"0.022": 0.0,
			"0.023": 0.0,
			"0.024": 0.0,
			"0.0": 0.0
		}
	}
}
