{
	 "smiles": "CN(C1=CC=CC=C1)S(=O)(=O)C1=C(Br)C=CC(=C1)C(O)=O", 
	 "Tm": 478.15, 
	 "num_atms": 33, 
	 "gaussian": { 
		 "optdone": 1, 
		 "sigma_profile": "yes", 
		 "theory": "DFT", 
		 "functional": "B3LYP", 
		 "basiset": "6-31G**", 
		 "properties": { 
			 "R2extent": 8681.0761, 
			 "electric_dipole_moment_norm": 5.31355151476, 
			 "electric_quadrupole_moment_norm": 14.8991357511, 
			 "total_energy": -3865.87902088, 
			 "HOMO_LUMO_gap": 0.1815, 
			 "cosmo_polarized_energy": -22.64, 
			 "cosmo_cavitation_energy": 40.83, 
			 "cosmo_dispersion_energy": -28.65, 
			 "cosmo_repulsion_energy": 2.13, 
			 "cosmo_total_nonelectrostatic_energy": 14.31, 
			 "SMD_solvation_energy": 6.73 
		},
		"coords": [
			{
				"x": -1.0532433661,
				"y": -0.1032473896,
				"z": 2.0018683646,
				"element": "C" 
			},
			{
				"x": -0.2754542628,
				"y": -0.9791213764,
				"z": 1.1068862256,
				"element": "N" 
			},
			{
				"x": 0.3766481931,
				"y": -2.0975156691,
				"z": 1.7581526953,
				"element": "C" 
			},
			{
				"x": -0.3457084483,
				"y": -3.2204496176,
				"z": 2.1767472092,
				"element": "C" 
			},
			{
				"x": 0.311753864,
				"y": -4.255106648,
				"z": 2.8419231606,
				"element": "C" 
			},
			{
				"x": 1.6810413558,
				"y": -4.1640095459,
				"z": 3.1013102624,
				"element": "C" 
			},
			{
				"x": 2.3967282541,
				"y": -3.0390418899,
				"z": 2.6866231521,
				"element": "C" 
			},
			{
				"x": 1.7472420418,
				"y": -2.0067238495,
				"z": 2.0089297695,
				"element": "C" 
			},
			{
				"x": -1.042370596,
				"y": -1.339956764,
				"z": -0.3653109719,
				"element": "S" 
			},
			{
				"x": -2.4864510525,
				"y": -1.5356681019,
				"z": -0.1536866042,
				"element": "O" 
			},
			{
				"x": -0.2526933264,
				"y": -2.3618935321,
				"z": -1.0441631149,
				"element": "O" 
			},
			{
				"x": -0.8950406054,
				"y": 0.2373275064,
				"z": -1.2502305032,
				"element": "C" 
			},
			{
				"x": 0.3154658432,
				"y": 0.8071404457,
				"z": -1.6706383277,
				"element": "C" 
			},
			{
				"x": 2.0115049679,
				"y": 0.0385480471,
				"z": -1.3077376926,
				"element": "Br" 
			},
			{
				"x": 0.2997172953,
				"y": 1.9988166566,
				"z": -2.4029023223,
				"element": "C" 
			},
			{
				"x": -0.9045768517,
				"y": 2.6146054016,
				"z": -2.7191581443,
				"element": "C" 
			},
			{
				"x": -2.1206625375,
				"y": 2.0574075586,
				"z": -2.3035552582,
				"element": "C" 
			},
			{
				"x": -2.1010562146,
				"y": 0.8627871597,
				"z": -1.5794884483,
				"element": "C" 
			},
			{
				"x": -3.3800472222,
				"y": 2.7783831824,
				"z": -2.6955986514,
				"element": "C" 
			},
			{
				"x": -4.5390880384,
				"y": 2.3786340541,
				"z": -2.1197022506,
				"element": "O" 
			},
			{
				"x": -3.381815955,
				"y": 3.6877208778,
				"z": -3.4917141622,
				"element": "O" 
			},
			{
				"x": -1.3779950082,
				"y": 0.7868564536,
				"z": 1.4570131804,
				"element": "H" 
			},
			{
				"x": -1.9307773004,
				"y": -0.6034079596,
				"z": 2.4274991047,
				"element": "H" 
			},
			{
				"x": -0.3894916717,
				"y": 0.2143333836,
				"z": 2.808356938,
				"element": "H" 
			},
			{
				"x": -1.4103435631,
				"y": -3.2837744117,
				"z": 1.9723042359,
				"element": "H" 
			},
			{
				"x": -0.2463000908,
				"y": -5.1312974834,
				"z": 3.1582311553,
				"element": "H" 
			},
			{
				"x": 2.1895392199,
				"y": -4.9697086896,
				"z": 3.6226195546,
				"element": "H" 
			},
			{
				"x": 3.4624528516,
				"y": -2.9678906466,
				"z": 2.8830335309,
				"element": "H" 
			},
			{
				"x": 2.2866031124,
				"y": -1.130692129,
				"z": 1.6654886708,
				"element": "H" 
			},
			{
				"x": 1.2396565072,
				"y": 2.4317957828,
				"z": -2.7249531531,
				"element": "H" 
			},
			{
				"x": -0.9259851054,
				"y": 3.5331891102,
				"z": -3.2951399643,
				"element": "H" 
			},
			{
				"x": -3.007062291,
				"y": 0.3520286021,
				"z": -1.2672585388,
				"element": "H" 
			},
			{
				"x": -4.3841899988,
				"y": 1.7142314814,
				"z": -1.434749102,
				"element": "H" 
			}
		],
		 "valence_orbital": [ 
			{
				"type": "occ",
				"energy": -0.28697,
				"method": "rhf"
			},
			{
				"type": "occ",
				"energy": -0.27303,
				"method": "rhf"
			},
			{
				"type": "occ",
				"energy": -0.26843,
				"method": "rhf"
			},
			{
				"type": "occ",
				"energy": -0.26252,
				"method": "rhf"
			},
			{
				"type": "occ",
				"energy": -0.25964,
				"method": "rhf"
			},
			{
				"type": "unocc",
				"energy": -0.07814,
				"method": "rhf"
			},
			{
				"type": "unocc",
				"energy": -0.05798,
				"method": "rhf"
			},
			{
				"type": "unocc",
				"energy": -0.02451,
				"method": "rhf"
			},
			{
				"type": "unocc",
				"energy": -0.01627,
				"method": "rhf"
			},
			{
				"type": "unocc",
				"energy": -0.01404,
				"method": "rhf"
			}
		],
		"cosmo_sigma_profile": { 
			"-0.025": 0.0,
			"-0.024": 0.0,
			"-0.023": 0.0,
			"-0.022": 0.0,
			"-0.021": 0.0,
			"-0.02": 0.419765358843,
			"-0.019": 1.00102230925,
			"-0.018": 0.845808900474,
			"-0.017": 1.2799498129,
			"-0.016": 0.83347463721,
			"-0.015": 1.07465373448,
			"-0.014": 0.908995235072,
			"-0.013": 0.753812972631,
			"-0.012": 1.16128506948,
			"-0.011": 0.783338324098,
			"-0.01": 0.834736955637,
			"-0.009": 1.80763549031,
			"-0.008": 4.98724436604,
			"-0.007": 6.87204978081,
			"-0.006": 16.3319516236,
			"-0.005": 25.1231876723,
			"-0.004": 27.4283916633,
			"-0.003": 26.8944437343,
			"-0.002": 26.7057969543,
			"-0.001": 27.6212208232,
			"0.0": 21.9170655526,
			"0.001": 16.0331705344,
			"0.002": 16.3134421814,
			"0.003": 17.1001925426,
			"0.004": 16.2459266548,
			"0.005": 10.7594716421,
			"0.006": 6.12829354476,
			"0.007": 6.98539713998,
			"0.008": 7.82458739512,
			"0.009": 9.48665789726,
			"0.01": 14.8813666315,
			"0.011": 9.54844172027,
			"0.012": 2.97789680616,
			"0.013": 0.453440286724,
			"0.014": 0.0,
			"0.015": 0.0,
			"0.016": 0.0,
			"0.017": 0.0,
			"0.018": 0.0,
			"0.019": 0.0,
			"0.02": 0.0,
			"0.021": 0.0,
			"0.022": 0.0,
			"0.023": 0.0,
			"0.024": 0.0,
			"0.025": 0.0
		}
	}
}
