{
	 "smiles": "CCOC1=C(OC(F)F)C(C=O)=CC=C1", 
	 "Tm": 315.15, 
	 "num_atms": 25, 
	 "gaussian": { 
		 "optdone": 1, 
		 "sigma_profile": "yes", 
		 "theory": "DFT", 
		 "functional": "B3LYP", 
		 "basiset": "6-31G**", 
		 "properties": { 
			 "R2extent": 3548.42, 
			 "electric_dipole_moment_norm": 6.3807418017, 
			 "electric_quadrupole_moment_norm": 4.26963764622, 
			 "total_energy": -812.414052538, 
			 "HOMO_LUMO_gap": 0.17329, 
			 "cosmo_polarized_energy": -10.87, 
			 "cosmo_cavitation_energy": 30.16, 
			 "cosmo_dispersion_energy": -20.97, 
			 "cosmo_repulsion_energy": 1.62, 
			 "cosmo_total_nonelectrostatic_energy": 10.81, 
			 "SMD_solvation_energy": 7.83 
		},
		"coords": [
			{
				"x": 1.3865509532,
				"y": -2.845472604,
				"z": -1.5847456709,
				"element": "C" 
			},
			{
				"x": 0.8896450237,
				"y": -2.8756172635,
				"z": -0.1439734502,
				"element": "C" 
			},
			{
				"x": -0.0878698611,
				"y": -1.8600029549,
				"z": 0.1228123941,
				"element": "O" 
			},
			{
				"x": 0.3115433732,
				"y": -0.593797296,
				"z": 0.4305439138,
				"element": "C" 
			},
			{
				"x": -0.7253859064,
				"y": 0.3114199352,
				"z": 0.7405482748,
				"element": "C" 
			},
			{
				"x": -2.0350021239,
				"y": -0.1468454632,
				"z": 0.8016713294,
				"element": "O" 
			},
			{
				"x": -2.6531015468,
				"y": -0.4133823053,
				"z": -0.4038215313,
				"element": "C" 
			},
			{
				"x": -3.7912752944,
				"y": -1.0648374767,
				"z": -0.1125451475,
				"element": "F" 
			},
			{
				"x": -2.9852940969,
				"y": 0.7576925767,
				"z": -1.0186788706,
				"element": "F" 
			},
			{
				"x": -0.4433159167,
				"y": 1.6375880811,
				"z": 1.0824747835,
				"element": "C" 
			},
			{
				"x": -1.5333405812,
				"y": 2.6014892568,
				"z": 1.3958954656,
				"element": "C" 
			},
			{
				"x": -1.3209044329,
				"y": 3.7551599295,
				"z": 1.7217807609,
				"element": "O" 
			},
			{
				"x": 0.8915269898,
				"y": 2.0716320608,
				"z": 1.1265103505,
				"element": "C" 
			},
			{
				"x": 1.9151289905,
				"y": 1.1878354196,
				"z": 0.821382754,
				"element": "C" 
			},
			{
				"x": 1.6330969632,
				"y": -0.1385202438,
				"z": 0.4698937287,
				"element": "C" 
			},
			{
				"x": 0.5482135022,
				"y": -2.9533842893,
				"z": -2.278926232,
				"element": "H" 
			},
			{
				"x": 2.0806368872,
				"y": -3.6749455848,
				"z": -1.7556351141,
				"element": "H" 
			},
			{
				"x": 1.9061985644,
				"y": -1.9126154046,
				"z": -1.8194784474,
				"element": "H" 
			},
			{
				"x": 0.3645401246,
				"y": -3.8126789666,
				"z": 0.0587341908,
				"element": "H" 
			},
			{
				"x": 1.7142685004,
				"y": -2.7979711142,
				"z": 0.5746219161,
				"element": "H" 
			},
			{
				"x": -2.0366751727,
				"y": -1.0061063108,
				"z": -1.0845413186,
				"element": "H" 
			},
			{
				"x": -2.5610900923,
				"y": 2.209047886,
				"z": 1.3065242608,
				"element": "H" 
			},
			{
				"x": 1.0821551719,
				"y": 3.1044358888,
				"z": 1.3966440438,
				"element": "H" 
			},
			{
				"x": 2.9492924078,
				"y": 1.5173051083,
				"z": 0.8487361584,
				"element": "H" 
			},
			{
				"x": 2.4497575733,
				"y": -0.809628865,
				"z": 0.2325714573,
				"element": "H" 
			}
		],
		 "valence_orbital": [ 
			{
				"type": "occ",
				"energy": -0.3338,
				"method": "rhf"
			},
			{
				"type": "occ",
				"energy": -0.32726,
				"method": "rhf"
			},
			{
				"type": "occ",
				"energy": -0.26657,
				"method": "rhf"
			},
			{
				"type": "occ",
				"energy": -0.25171,
				"method": "rhf"
			},
			{
				"type": "occ",
				"energy": -0.23838,
				"method": "rhf"
			},
			{
				"type": "unocc",
				"energy": -0.06509,
				"method": "rhf"
			},
			{
				"type": "unocc",
				"energy": -0.01196,
				"method": "rhf"
			},
			{
				"type": "unocc",
				"energy": 0.03743,
				"method": "rhf"
			},
			{
				"type": "unocc",
				"energy": 0.06802,
				"method": "rhf"
			},
			{
				"type": "unocc",
				"energy": 0.07979,
				"method": "rhf"
			}
		],
		"cosmo_sigma_profile": { 
			"-0.025": 0.0,
			"-0.024": 0.0,
			"-0.023": 0.0,
			"-0.022": 0.0,
			"-0.021": 0.0,
			"-0.02": 0.0,
			"-0.019": 0.0,
			"-0.018": 0.0,
			"-0.017": 0.0,
			"-0.016": 0.0,
			"-0.015": 0.0,
			"-0.014": 0.0,
			"-0.013": 0.0,
			"-0.012": 0.0,
			"-0.011": 0.0,
			"-0.01": 0.354001441687,
			"-0.009": 1.47690379523,
			"-0.008": 3.28079822991,
			"-0.007": 5.98537905369,
			"-0.006": 11.8345489756,
			"-0.005": 14.8597919823,
			"-0.004": 20.8669216227,
			"-0.003": 18.4131429474,
			"-0.002": 19.635930877,
			"-0.001": 18.108979753,
			"0.0": 21.8307602969,
			"0.001": 17.2821015409,
			"0.002": 16.6233790309,
			"0.003": 24.045553264,
			"0.004": 18.0421249102,
			"0.005": 4.21744813726,
			"0.006": 3.68078457353,
			"0.007": 4.95910617191,
			"0.008": 3.10936969683,
			"0.009": 2.20456142483,
			"0.01": 2.86600491884,
			"0.011": 4.4690444582,
			"0.012": 2.03633692504,
			"0.013": 0.449798162193,
			"0.014": 0.0,
			"0.015": 0.0,
			"0.016": 0.0,
			"0.017": 0.0,
			"0.018": 0.0,
			"0.019": 0.0,
			"0.02": 0.0,
			"0.021": 0.0,
			"0.022": 0.0,
			"0.023": 0.0,
			"0.024": 0.0,
			"0.025": 0.0
		}
	}
}
