{
	 "smiles": "CC1CC(CCC1=O)C(O)=O", 
	 "Tm": 343.15, 
	 "num_atms": 23, 
	 "gaussian": { 
		 "optdone": 1, 
		 "sigma_profile": "yes", 
		 "theory": "DFT", 
		 "functional": "B3LYP", 
		 "basiset": "6-31G**", 
		 "properties": { 
			 "R2extent": 2144.2497, 
			 "electric_dipole_moment_norm": 1.37923080375, 
			 "electric_quadrupole_moment_norm": 14.2469279734, 
			 "total_energy": -537.777008845, 
			 "HOMO_LUMO_gap": 0.22447, 
			 "cosmo_polarized_energy": -13.34, 
			 "cosmo_cavitation_energy": 25.21, 
			 "cosmo_dispersion_energy": -18.23, 
			 "cosmo_repulsion_energy": 1.49, 
			 "cosmo_total_nonelectrostatic_energy": 8.47, 
			 "SMD_solvation_energy": 5.69 
		},
		"coords": [
			{
				"x": 1.9424149846,
				"y": -1.4820537945,
				"z": -0.669609873,
				"element": "C" 
			},
			{
				"x": 0.9508515016,
				"y": -0.3827779588,
				"z": -0.2842513244,
				"element": "C" 
			},
			{
				"x": 0.9885073203,
				"y": 0.8270258284,
				"z": -1.2399141126,
				"element": "C" 
			},
			{
				"x": -0.0921580954,
				"y": 1.9086447698,
				"z": -0.9376284166,
				"element": "C" 
			},
			{
				"x": -0.5746614151,
				"y": 1.8495998084,
				"z": 0.5393661639,
				"element": "C" 
			},
			{
				"x": 0.5652637914,
				"y": 1.4622549963,
				"z": 1.487789755,
				"element": "C" 
			},
			{
				"x": 1.1570134761,
				"y": 0.0932246166,
				"z": 1.1561499945,
				"element": "C" 
			},
			{
				"x": 1.7567853954,
				"y": -0.5606764761,
				"z": 1.9876053804,
				"element": "O" 
			},
			{
				"x": -1.2831032546,
				"y": 1.8105373014,
				"z": -1.8720546863,
				"element": "C" 
			},
			{
				"x": -1.8258985096,
				"y": 0.5628879055,
				"z": -1.878607897,
				"element": "O" 
			},
			{
				"x": -1.737014391,
				"y": 2.7129882118,
				"z": -2.539343308,
				"element": "O" 
			},
			{
				"x": 1.6993553844,
				"y": -1.8963816235,
				"z": -1.6528787569,
				"element": "H" 
			},
			{
				"x": 1.9279805096,
				"y": -2.2875254226,
				"z": 0.0672497026,
				"element": "H" 
			},
			{
				"x": 2.9648088776,
				"y": -1.0904601378,
				"z": -0.7070809992,
				"element": "H" 
			},
			{
				"x": -0.0680044315,
				"y": -0.799347716,
				"z": -0.3194098956,
				"element": "H" 
			},
			{
				"x": 0.8955321111,
				"y": 0.4748337534,
				"z": -2.272045914,
				"element": "H" 
			},
			{
				"x": 1.9776990079,
				"y": 1.2957453202,
				"z": -1.169865989,
				"element": "H" 
			},
			{
				"x": 0.3334236641,
				"y": 2.8971066098,
				"z": -1.1293580694,
				"element": "H" 
			},
			{
				"x": -1.0031318881,
				"y": 2.8156670678,
				"z": 0.8236787968,
				"element": "H" 
			},
			{
				"x": -1.379893434,
				"y": 1.1124600931,
				"z": 0.6300633698,
				"element": "H" 
			},
			{
				"x": 1.3833868177,
				"y": 2.1945041219,
				"z": 1.4201316215,
				"element": "H" 
			},
			{
				"x": 0.2465771608,
				"y": 1.4543043992,
				"z": 2.5344108359,
				"element": "H" 
			},
			{
				"x": -2.5791345832,
				"y": 0.5989383258,
				"z": -2.4918963781,
				"element": "H" 
			}
		],
		 "valence_orbital": [ 
			{
				"type": "occ",
				"energy": -0.33608,
				"method": "rhf"
			},
			{
				"type": "occ",
				"energy": -0.32671,
				"method": "rhf"
			},
			{
				"type": "occ",
				"energy": -0.31984,
				"method": "rhf"
			},
			{
				"type": "occ",
				"energy": -0.27603,
				"method": "rhf"
			},
			{
				"type": "occ",
				"energy": -0.24082,
				"method": "rhf"
			},
			{
				"type": "unocc",
				"energy": -0.01635,
				"method": "rhf"
			},
			{
				"type": "unocc",
				"energy": 0.00219,
				"method": "rhf"
			},
			{
				"type": "unocc",
				"energy": 0.05818,
				"method": "rhf"
			},
			{
				"type": "unocc",
				"energy": 0.08752,
				"method": "rhf"
			},
			{
				"type": "unocc",
				"energy": 0.1023,
				"method": "rhf"
			}
		],
		"cosmo_sigma_profile": { 
			"-0.025": 0.0,
			"-0.024": 0.0,
			"-0.023": 0.0,
			"-0.022": 0.0,
			"-0.021": 0.0,
			"-0.02": 0.0,
			"-0.019": 0.0015404893251,
			"-0.018": 0.62204364504,
			"-0.017": 0.838995708371,
			"-0.016": 1.21048738898,
			"-0.015": 0.560843876035,
			"-0.014": 0.628731410682,
			"-0.013": 0.52360252314,
			"-0.012": 0.395317812649,
			"-0.011": 0.784781317784,
			"-0.01": 1.1097561476,
			"-0.009": 0.667205481966,
			"-0.008": 0.559217300744,
			"-0.007": 1.46032104816,
			"-0.006": 7.25479927066,
			"-0.005": 15.5236816211,
			"-0.004": 21.0179223743,
			"-0.003": 24.4695751606,
			"-0.002": 22.7530805789,
			"-0.001": 16.6717484206,
			"0.0": 11.2008447892,
			"0.001": 10.0342494936,
			"0.002": 5.9747587815,
			"0.003": 4.74681531389,
			"0.004": 3.61235237445,
			"0.005": 5.07293403108,
			"0.006": 4.58258525673,
			"0.007": 3.5006393001,
			"0.008": 3.3221813102,
			"0.009": 3.11920281289,
			"0.01": 4.27685470522,
			"0.011": 6.53867936882,
			"0.012": 8.9986831672,
			"0.013": 3.65063663647,
			"0.014": 0.252488015024,
			"0.015": 0.0,
			"0.016": 0.0,
			"0.017": 0.0,
			"0.018": 0.0,
			"0.019": 0.0,
			"0.02": 0.0,
			"0.021": 0.0,
			"0.022": 0.0,
			"0.023": 0.0,
			"0.024": 0.0,
			"0.025": 0.0
		}
	}
}
