{
	 "smiles": "CNS(=O)(=O)C1=CC=C(CN)C=C1", 
	 "Tm": 385.15, 
	 "num_atms": 25, 
	 "gaussian": { 
		 "optdone": 1, 
		 "sigma_profile": "yes", 
		 "theory": "DFT", 
		 "functional": "B3LYP", 
		 "basiset": "6-31G**", 
		 "properties": { 
			 "R2extent": 3790.7568, 
			 "electric_dipole_moment_norm": 5.2409256711, 
			 "electric_quadrupole_moment_norm": 28.9378179855, 
			 "total_energy": -970.145593562, 
			 "HOMO_LUMO_gap": 0.20309, 
			 "cosmo_polarized_energy": -19.94, 
			 "cosmo_cavitation_energy": 29.91, 
			 "cosmo_dispersion_energy": -21.77, 
			 "cosmo_repulsion_energy": 1.7, 
			 "cosmo_total_nonelectrostatic_energy": 9.84, 
			 "SMD_solvation_energy": 2.58 
		},
		"coords": [
			{
				"x": 2.5695611038,
				"y": -2.8030154488,
				"z": -1.5472748747,
				"element": "C" 
			},
			{
				"x": 2.6301680156,
				"y": -1.6462009245,
				"z": -2.4404738611,
				"element": "N" 
			},
			{
				"x": 2.6851670958,
				"y": -0.1016803468,
				"z": -1.7812065131,
				"element": "S" 
			},
			{
				"x": 2.7194408594,
				"y": 0.8022428274,
				"z": -2.9314741303,
				"element": "O" 
			},
			{
				"x": 3.7311894673,
				"y": -0.1306186205,
				"z": -0.7581818756,
				"element": "O" 
			},
			{
				"x": 1.1205661264,
				"y": 0.1625531922,
				"z": -0.9350988119,
				"element": "C" 
			},
			{
				"x": 0.0388168633,
				"y": 0.6941838578,
				"z": -1.642845997,
				"element": "C" 
			},
			{
				"x": -1.1776425263,
				"y": 0.8754409745,
				"z": -0.9886487617,
				"element": "C" 
			},
			{
				"x": -1.332855567,
				"y": 0.5321884635,
				"z": 0.3631041302,
				"element": "C" 
			},
			{
				"x": -2.6804525467,
				"y": 0.6770371225,
				"z": 1.0505227593,
				"element": "C" 
			},
			{
				"x": -3.5635221659,
				"y": -0.4951692598,
				"z": 0.9517422239,
				"element": "N" 
			},
			{
				"x": -0.2279609463,
				"y": 0.0141128285,
				"z": 1.0534225511,
				"element": "C" 
			},
			{
				"x": 0.997904179,
				"y": -0.1727740883,
				"z": 0.4156114333,
				"element": "C" 
			},
			{
				"x": 1.6191568446,
				"y": -2.8925705662,
				"z": -1.0021630459,
				"element": "H" 
			},
			{
				"x": 2.719438106,
				"y": -3.7040828624,
				"z": -2.147070409,
				"element": "H" 
			},
			{
				"x": 3.3883385266,
				"y": -2.7288020345,
				"z": -0.8299882552,
				"element": "H" 
			},
			{
				"x": 1.9973052682,
				"y": -1.66912681,
				"z": -3.2340854287,
				"element": "H" 
			},
			{
				"x": 0.1664856179,
				"y": 0.988796979,
				"z": -2.6792590179,
				"element": "H" 
			},
			{
				"x": -2.0164962056,
				"y": 1.3055119842,
				"z": -1.5310521023,
				"element": "H" 
			},
			{
				"x": -3.2173967662,
				"y": 1.5344446956,
				"z": 0.6298804945,
				"element": "H" 
			},
			{
				"x": -2.5291506406,
				"y": 0.8911443943,
				"z": 2.1142767371,
				"element": "H" 
			},
			{
				"x": -3.7311963177,
				"y": -0.7139556509,
				"z": -0.0282919702,
				"element": "H" 
			},
			{
				"x": -3.0934396133,
				"y": -1.3095486302,
				"z": 1.3419615888,
				"element": "H" 
			},
			{
				"x": -0.3231383089,
				"y": -0.231366972,
				"z": 2.108623719,
				"element": "H" 
			},
			{
				"x": 1.8616135305,
				"y": -0.5408451045,
				"z": 0.9586694173,
				"element": "H" 
			}
		],
		 "valence_orbital": [ 
			{
				"type": "occ",
				"energy": -0.3019,
				"method": "rhf"
			},
			{
				"type": "occ",
				"energy": -0.28879,
				"method": "rhf"
			},
			{
				"type": "occ",
				"energy": -0.27454,
				"method": "rhf"
			},
			{
				"type": "occ",
				"energy": -0.26669,
				"method": "rhf"
			},
			{
				"type": "occ",
				"energy": -0.24464,
				"method": "rhf"
			},
			{
				"type": "unocc",
				"energy": -0.04155,
				"method": "rhf"
			},
			{
				"type": "unocc",
				"energy": -0.0264,
				"method": "rhf"
			},
			{
				"type": "unocc",
				"energy": 0.05745,
				"method": "rhf"
			},
			{
				"type": "unocc",
				"energy": 0.07303,
				"method": "rhf"
			},
			{
				"type": "unocc",
				"energy": 0.08168,
				"method": "rhf"
			}
		],
		"cosmo_sigma_profile": { 
			"-0.025": 0.0,
			"-0.024": 0.0,
			"-0.023": 0.0,
			"-0.022": 0.0,
			"-0.021": 0.0,
			"-0.02": 0.0,
			"-0.019": 0.0,
			"-0.018": 0.0,
			"-0.017": 0.0,
			"-0.016": 0.0,
			"-0.015": 0.59395097884,
			"-0.014": 1.42521400728,
			"-0.013": 0.706869246459,
			"-0.012": 1.50644187147,
			"-0.011": 1.35315316872,
			"-0.01": 1.97375038572,
			"-0.009": 3.93778535685,
			"-0.008": 3.76584656805,
			"-0.007": 8.65666918051,
			"-0.006": 17.8915942308,
			"-0.005": 19.6052136967,
			"-0.004": 18.9584286962,
			"-0.003": 20.0903168727,
			"-0.002": 18.723169141,
			"-0.001": 11.5840773354,
			"0.0": 10.2270166078,
			"0.001": 9.8888882783,
			"0.002": 12.193201541,
			"0.003": 13.2681297014,
			"0.004": 7.62789441002,
			"0.005": 4.3849734355,
			"0.006": 3.60439977768,
			"0.007": 5.65284944536,
			"0.008": 5.68934376576,
			"0.009": 4.34431402519,
			"0.01": 7.57392487894,
			"0.011": 9.76414627809,
			"0.012": 6.04663031966,
			"0.013": 1.07341622572,
			"0.014": 0.794407193618,
			"0.015": 0.236752915337,
			"0.016": 0.660384026314,
			"0.017": 0.877931369348,
			"0.018": 0.525117231631,
			"0.019": 0.558524697402,
			"0.02": 0.181337689152,
			"0.021": 0.0,
			"0.022": 0.0,
			"0.023": 0.0,
			"0.024": 0.0,
			"0.025": 0.0
		}
	}
}
