{
	 "smiles": "[O-][N+](=O)C1=CC2=C(C3=CC=C(C=C3C2=O)N(=O)=O)C(=C1)N(=O)=O", 
	 "Tm": 449.15, 
	 "num_atms": 28, 
	 "gaussian": { 
		 "optdone": 1, 
		 "sigma_profile": "yes", 
		 "theory": "DFT", 
		 "functional": "B3LYP", 
		 "basiset": "6-31G**", 
		 "properties": { 
			 "R2extent": 8731.8534, 
			 "electric_dipole_moment_norm": 1.14170555311, 
			 "electric_quadrupole_moment_norm": 24.0878068462, 
			 "total_energy": -1188.9053743, 
			 "HOMO_LUMO_gap": 0.14462, 
			 "cosmo_polarized_energy": -18.05, 
			 "cosmo_cavitation_energy": 36.44, 
			 "cosmo_dispersion_energy": -26.15, 
			 "cosmo_repulsion_energy": 1.91, 
			 "cosmo_total_nonelectrostatic_energy": 12.2, 
			 "SMD_solvation_energy": 12.95 
		},
		"coords": [
			{
				"x": -4.7025235785,
				"y": -0.5842521947,
				"z": -2.1492911907,
				"element": "O" 
			},
			{
				"x": -3.9443297666,
				"y": -1.5335204972,
				"z": -1.9698430603,
				"element": "N" 
			},
			{
				"x": -4.1030881457,
				"y": -2.6690802689,
				"z": -2.4097955668,
				"element": "O" 
			},
			{
				"x": -2.74072429,
				"y": -1.2829464431,
				"z": -1.1549389246,
				"element": "C" 
			},
			{
				"x": -2.5231871591,
				"y": -0.0089115748,
				"z": -0.6273904969,
				"element": "C" 
			},
			{
				"x": -1.3753819155,
				"y": 0.1729097433,
				"z": 0.1203665423,
				"element": "C" 
			},
			{
				"x": -0.4364707185,
				"y": -0.8525556348,
				"z": 0.3921728697,
				"element": "C" 
			},
			{
				"x": 0.6841802924,
				"y": -0.2526813865,
				"z": 1.1796956322,
				"element": "C" 
			},
			{
				"x": 1.8870884038,
				"y": -0.7696268512,
				"z": 1.6643662819,
				"element": "C" 
			},
			{
				"x": 2.7594070591,
				"y": 0.0817998619,
				"z": 2.3514928462,
				"element": "C" 
			},
			{
				"x": 2.4251802135,
				"y": 1.4198984483,
				"z": 2.550754399,
				"element": "C" 
			},
			{
				"x": 1.2336730903,
				"y": 1.9684531764,
				"z": 2.0746652559,
				"element": "C" 
			},
			{
				"x": 0.386186024,
				"y": 1.1147289864,
				"z": 1.3905718684,
				"element": "C" 
			},
			{
				"x": -0.9169405135,
				"y": 1.4520115914,
				"z": 0.7531806353,
				"element": "C" 
			},
			{
				"x": -1.4917919584,
				"y": 2.5217002545,
				"z": 0.7339608757,
				"element": "O" 
			},
			{
				"x": 3.3656199487,
				"y": 2.2872514046,
				"z": 3.2860853819,
				"element": "N" 
			},
			{
				"x": 3.0404442755,
				"y": 3.4616566812,
				"z": 3.4436988321,
				"element": "O" 
			},
			{
				"x": 4.408788592,
				"y": 1.7786630927,
				"z": 3.6903476311,
				"element": "O" 
			},
			{
				"x": -0.7162233757,
				"y": -2.1141412473,
				"z": -0.1514295315,
				"element": "C" 
			},
			{
				"x": -1.8537159,
				"y": -2.3270866321,
				"z": -0.9374178754,
				"element": "C" 
			},
			{
				"x": 0.1267474786,
				"y": -3.3029392057,
				"z": 0.0717006661,
				"element": "N" 
			},
			{
				"x": 0.7441939078,
				"y": -3.3697962411,
				"z": 1.1333794777,
				"element": "O" 
			},
			{
				"x": 0.1281449918,
				"y": -4.1627507529,
				"z": -0.8025658658,
				"element": "O" 
			},
			{
				"x": -3.2198025521,
				"y": 0.8019970222,
				"z": -0.8047889849,
				"element": "H" 
			},
			{
				"x": 2.1517068687,
				"y": -1.8078070341,
				"z": 1.528582644,
				"element": "H" 
			},
			{
				"x": 3.7010449185,
				"y": -0.2846701146,
				"z": 2.7413956245,
				"element": "H" 
			},
			{
				"x": 0.9923571473,
				"y": 3.0129662432,
				"z": 2.2306939073,
				"element": "H" 
			},
			{
				"x": -2.0420833386,
				"y": -3.3017704273,
				"z": -1.3676498745,
				"element": "H" 
			}
		],
		 "valence_orbital": [ 
			{
				"type": "occ",
				"energy": -0.31787,
				"method": "rhf"
			},
			{
				"type": "occ",
				"energy": -0.3128,
				"method": "rhf"
			},
			{
				"type": "occ",
				"energy": -0.30964,
				"method": "rhf"
			},
			{
				"type": "occ",
				"energy": -0.29741,
				"method": "rhf"
			},
			{
				"type": "occ",
				"energy": -0.29201,
				"method": "rhf"
			},
			{
				"type": "unocc",
				"energy": -0.14739,
				"method": "rhf"
			},
			{
				"type": "unocc",
				"energy": -0.12908,
				"method": "rhf"
			},
			{
				"type": "unocc",
				"energy": -0.1096,
				"method": "rhf"
			},
			{
				"type": "unocc",
				"energy": -0.103,
				"method": "rhf"
			},
			{
				"type": "unocc",
				"energy": -0.05364,
				"method": "rhf"
			}
		],
		"cosmo_sigma_profile": { 
			"-0.025": 0.0,
			"-0.024": 0.0,
			"-0.023": 0.0,
			"-0.022": 0.0,
			"-0.021": 0.0,
			"-0.02": 0.0,
			"-0.019": 0.0,
			"-0.018": 0.0,
			"-0.017": 0.0,
			"-0.016": 0.0,
			"-0.015": 0.0,
			"-0.014": 0.0,
			"-0.013": 0.0,
			"-0.012": 0.221206852769,
			"-0.011": 0.661260537946,
			"-0.01": 1.11953484489,
			"-0.009": 4.17524865985,
			"-0.008": 10.4718387435,
			"-0.007": 13.5572574185,
			"-0.006": 16.5028009268,
			"-0.005": 24.4011914641,
			"-0.004": 26.3550770779,
			"-0.003": 27.2846730674,
			"-0.002": 22.7637075045,
			"-0.001": 15.2522499794,
			"0.0": 10.4831747147,
			"0.001": 7.6093389165,
			"0.002": 9.079994191,
			"0.003": 9.30101004537,
			"0.004": 10.7416603966,
			"0.005": 11.7514472129,
			"0.006": 21.4716941469,
			"0.007": 23.104026946,
			"0.008": 15.0758523739,
			"0.009": 10.0616753994,
			"0.01": 4.4465784144,
			"0.011": 0.356846178756,
			"0.012": 0.0,
			"0.013": 0.0,
			"0.014": 0.0,
			"0.015": 0.0,
			"0.016": 0.0,
			"0.017": 0.0,
			"0.018": 0.0,
			"0.019": 0.0,
			"0.02": 0.0,
			"0.021": 0.0,
			"0.022": 0.0,
			"0.023": 0.0,
			"0.024": 0.0,
			"0.025": 0.0
		}
	}
}
