{
	 "smiles": "CC1=C(C)C=C(C=C1)N(C1CS(=O)(=O)C=C1)C(=O)CCCl", 
	 "Tm": 396.15, 
	 "num_atms": 39, 
	 "gaussian": { 
		 "optdone": 1, 
		 "sigma_profile": "yes", 
		 "theory": "DFT", 
		 "functional": "B3LYP", 
		 "basiset": "6-31G**", 
		 "properties": { 
			 "R2extent": 9302.612, 
			 "electric_dipole_moment_norm": 6.5944633671, 
			 "electric_quadrupole_moment_norm": 24.8456680516, 
			 "total_energy": -1721.17347576, 
			 "HOMO_LUMO_gap": 0.19473, 
			 "cosmo_polarized_energy": -26.23, 
			 "cosmo_cavitation_energy": 44.88, 
			 "cosmo_dispersion_energy": -30.81, 
			 "cosmo_repulsion_energy": 2.36, 
			 "cosmo_total_nonelectrostatic_energy": 16.43, 
			 "SMD_solvation_energy": 6.98 
		},
		"coords": [
			{
				"x": 0.4060471281,
				"y": -2.3465122728,
				"z": -5.0352521047,
				"element": "C" 
			},
			{
				"x": 0.1766425823,
				"y": -1.7274923722,
				"z": -3.6776435431,
				"element": "C" 
			},
			{
				"x": -0.9118481443,
				"y": -0.8569474235,
				"z": -3.4532587505,
				"element": "C" 
			},
			{
				"x": -1.8805748117,
				"y": -0.5243185215,
				"z": -4.5627180502,
				"element": "C" 
			},
			{
				"x": -1.091427791,
				"y": -0.3096724531,
				"z": -2.1788971144,
				"element": "C" 
			},
			{
				"x": -0.2132953816,
				"y": -0.5975054253,
				"z": -1.1318249634,
				"element": "C" 
			},
			{
				"x": 0.8607875591,
				"y": -1.4579830473,
				"z": -1.3507143457,
				"element": "C" 
			},
			{
				"x": 1.0415970431,
				"y": -2.0145969149,
				"z": -2.6154830102,
				"element": "C" 
			},
			{
				"x": -0.4082042571,
				"y": 0.0370084276,
				"z": 0.1536401423,
				"element": "N" 
			},
			{
				"x": -0.0244674273,
				"y": 1.4552787048,
				"z": 0.2275354571,
				"element": "C" 
			},
			{
				"x": 1.3804354538,
				"y": 1.7105364343,
				"z": 0.8346314399,
				"element": "C" 
			},
			{
				"x": 1.2668697753,
				"y": 3.259327002,
				"z": 1.8166574894,
				"element": "S" 
			},
			{
				"x": 1.6694148273,
				"y": 3.0052114943,
				"z": 3.2070029308,
				"element": "O" 
			},
			{
				"x": 1.8589653247,
				"y": 4.3780883372,
				"z": 1.0691420029,
				"element": "O" 
			},
			{
				"x": -0.5132653178,
				"y": 3.3325800668,
				"z": 1.7007546592,
				"element": "C" 
			},
			{
				"x": -1.0126121409,
				"y": 2.3712463007,
				"z": 0.9292512569,
				"element": "C" 
			},
			{
				"x": -0.766224964,
				"y": -0.7799845449,
				"z": 1.2230004954,
				"element": "C" 
			},
			{
				"x": -0.9631141655,
				"y": -1.9756294207,
				"z": 1.0573306232,
				"element": "O" 
			},
			{
				"x": -0.9442983425,
				"y": -0.1549029455,
				"z": 2.6082864121,
				"element": "C" 
			},
			{
				"x": -1.175988347,
				"y": -1.2551958105,
				"z": 3.639649271,
				"element": "C" 
			},
			{
				"x": -1.4865408957,
				"y": -0.5321986807,
				"z": 5.2756547841,
				"element": "Cl" 
			},
			{
				"x": 1.2923022836,
				"y": -2.9859292592,
				"z": -5.032435845,
				"element": "H" 
			},
			{
				"x": -0.4473033638,
				"y": -2.9601320049,
				"z": -5.3482955111,
				"element": "H" 
			},
			{
				"x": 0.5461473316,
				"y": -1.5834584406,
				"z": -5.8104525568,
				"element": "H" 
			},
			{
				"x": -1.3750665551,
				"y": -0.0487979127,
				"z": -5.4118867542,
				"element": "H" 
			},
			{
				"x": -2.3710091666,
				"y": -1.4243109753,
				"z": -4.9523464954,
				"element": "H" 
			},
			{
				"x": -2.6621039785,
				"y": 0.1565270355,
				"z": -4.2158195033,
				"element": "H" 
			},
			{
				"x": -1.9383517218,
				"y": 0.3463605775,
				"z": -1.9933416852,
				"element": "H" 
			},
			{
				"x": 1.5384481068,
				"y": -1.699508663,
				"z": -0.5387525491,
				"element": "H" 
			},
			{
				"x": 1.8778368414,
				"y": -2.6881975846,
				"z": -2.7831762243,
				"element": "H" 
			},
			{
				"x": -0.0041843545,
				"y": 1.7812049419,
				"z": -0.8170597439,
				"element": "H" 
			},
			{
				"x": 2.1552092688,
				"y": 1.8554093337,
				"z": 0.0811089245,
				"element": "H" 
			},
			{
				"x": 1.6786833952,
				"y": 0.9201582429,
				"z": 1.5234460414,
				"element": "H" 
			},
			{
				"x": -1.0410266254,
				"y": 4.1174788111,
				"z": 2.2282866242,
				"element": "H" 
			},
			{
				"x": -2.0733930666,
				"y": 2.2567265235,
				"z": 0.7244394003,
				"element": "H" 
			},
			{
				"x": -0.0855876706,
				"y": 0.4563387556,
				"z": 2.9019792905,
				"element": "H" 
			},
			{
				"x": -1.8061049718,
				"y": 0.5203327812,
				"z": 2.5996281321,
				"element": "H" 
			},
			{
				"x": -2.041034671,
				"y": -1.8641408754,
				"z": 3.3859936832,
				"element": "H" 
			},
			{
				"x": -0.3081587889,
				"y": -1.905898222,
				"z": 3.7395396903,
				"element": "H" 
			}
		],
		 "valence_orbital": [ 
			{
				"type": "occ",
				"energy": -0.29143,
				"method": "rhf"
			},
			{
				"type": "occ",
				"energy": -0.27439,
				"method": "rhf"
			},
			{
				"type": "occ",
				"energy": -0.26841,
				"method": "rhf"
			},
			{
				"type": "occ",
				"energy": -0.25857,
				"method": "rhf"
			},
			{
				"type": "occ",
				"energy": -0.24321,
				"method": "rhf"
			},
			{
				"type": "unocc",
				"energy": -0.04848,
				"method": "rhf"
			},
			{
				"type": "unocc",
				"energy": -0.02037,
				"method": "rhf"
			},
			{
				"type": "unocc",
				"energy": -0.01403,
				"method": "rhf"
			},
			{
				"type": "unocc",
				"energy": 7e-05,
				"method": "rhf"
			},
			{
				"type": "unocc",
				"energy": 0.02825,
				"method": "rhf"
			}
		],
		"cosmo_sigma_profile": { 
			"-0.025": 0.0,
			"-0.024": 0.0,
			"-0.023": 0.0,
			"-0.022": 0.0,
			"-0.021": 0.0,
			"-0.02": 0.0,
			"-0.019": 0.0,
			"-0.018": 0.0,
			"-0.017": 0.0,
			"-0.016": 0.0,
			"-0.015": 0.0,
			"-0.014": 0.0,
			"-0.013": 0.0,
			"-0.012": 0.0,
			"-0.011": 1.13805599294,
			"-0.01": 5.00543146901,
			"-0.009": 10.9582269792,
			"-0.008": 11.0287425034,
			"-0.007": 16.6192825595,
			"-0.006": 20.748492818,
			"-0.005": 20.691916465,
			"-0.004": 28.1448881374,
			"-0.003": 27.1274659886,
			"-0.002": 23.1525428518,
			"-0.001": 24.1142402884,
			"0.0": 26.8391695619,
			"0.001": 19.5088449753,
			"0.002": 11.9721080351,
			"0.003": 12.2390494166,
			"0.004": 14.0133959579,
			"0.005": 14.736945896,
			"0.006": 15.241532122,
			"0.007": 7.42238637676,
			"0.008": 4.43404493506,
			"0.009": 4.22274693015,
			"0.01": 8.1793263263,
			"0.011": 13.9348951602,
			"0.012": 10.6877198911,
			"0.013": 4.34906996691,
			"0.014": 0.582845925464,
			"0.015": 0.0,
			"0.016": 0.0,
			"0.017": 0.0,
			"0.018": 0.0,
			"0.019": 0.0,
			"0.02": 0.0,
			"0.021": 0.0,
			"0.022": 0.0,
			"0.023": 0.0,
			"0.024": 0.0,
			"0.025": 0.0
		}
	}
}
