{
	 "smiles": "OC(=O)C1=C(F)C=C(C=C1)C1=CC=C(F)C=C1", 
	 "Tm": 511.15, 
	 "num_atms": 25, 
	 "gaussian": { 
		 "optdone": 1, 
		 "sigma_profile": "yes", 
		 "theory": "DFT", 
		 "functional": "B3LYP", 
		 "basiset": "6-31G**", 
		 "properties": { 
			 "R2extent": 7783.8985, 
			 "electric_dipole_moment_norm": 5.07342532221, 
			 "electric_quadrupole_moment_norm": 28.1844082638, 
			 "total_energy": -850.330964824, 
			 "HOMO_LUMO_gap": 0.17767, 
			 "cosmo_polarized_energy": -16.61, 
			 "cosmo_cavitation_energy": 31.36, 
			 "cosmo_dispersion_energy": -22.53, 
			 "cosmo_repulsion_energy": 1.67, 
			 "cosmo_total_nonelectrostatic_energy": 10.51, 
			 "SMD_solvation_energy": 7.23 
		},
		"coords": [
			{
				"x": 3.056241338,
				"y": 0.297575323,
				"z": -3.187865568,
				"element": "O" 
			},
			{
				"x": 3.4123804638,
				"y": 1.2128304729,
				"z": -2.2411386756,
				"element": "C" 
			},
			{
				"x": 4.4443942749,
				"y": 1.8258977214,
				"z": -2.346179097,
				"element": "O" 
			},
			{
				"x": 2.4576684122,
				"y": 1.3482672654,
				"z": -1.0942137454,
				"element": "C" 
			},
			{
				"x": 2.2786808602,
				"y": 2.5749571458,
				"z": -0.441084568,
				"element": "C" 
			},
			{
				"x": 2.9024619353,
				"y": 3.6698605794,
				"z": -0.8955932004,
				"element": "F" 
			},
			{
				"x": 1.4298702431,
				"y": 2.7156460214,
				"z": 0.6478618581,
				"element": "C" 
			},
			{
				"x": 0.7330511401,
				"y": 1.6069353235,
				"z": 1.1533280148,
				"element": "C" 
			},
			{
				"x": 0.9134438843,
				"y": 0.3647117991,
				"z": 0.5184449369,
				"element": "C" 
			},
			{
				"x": 1.752869342,
				"y": 0.2458741202,
				"z": -0.5833208798,
				"element": "C" 
			},
			{
				"x": -0.164806004,
				"y": 1.7462657747,
				"z": 2.3256451072,
				"element": "C" 
			},
			{
				"x": 0.1582044315,
				"y": 2.6128349692,
				"z": 3.3845363043,
				"element": "C" 
			},
			{
				"x": -0.6792528217,
				"y": 2.7470090896,
				"z": 4.4892403729,
				"element": "C" 
			},
			{
				"x": -1.8543803001,
				"y": 2.0047342116,
				"z": 4.5317377777,
				"element": "C" 
			},
			{
				"x": -2.6700215284,
				"y": 2.1294259882,
				"z": 5.5964465096,
				"element": "F" 
			},
			{
				"x": -2.2107694609,
				"y": 1.1371832951,
				"z": 3.505099749,
				"element": "C" 
			},
			{
				"x": -1.3616824909,
				"y": 1.0133857459,
				"z": 2.4080427837,
				"element": "C" 
			},
			{
				"x": 2.1394219901,
				"y": 0.0207505885,
				"z": -3.0503955094,
				"element": "H" 
			},
			{
				"x": 1.3020056313,
				"y": 3.7043727482,
				"z": 1.0740247466,
				"element": "H" 
			},
			{
				"x": 0.4214743956,
				"y": -0.5177792554,
				"z": 0.9132485661,
				"element": "H" 
			},
			{
				"x": 1.9054866538,
				"y": -0.7338664098,
				"z": -1.0283735324,
				"element": "H" 
			},
			{
				"x": 1.0896636019,
				"y": 3.1695964081,
				"z": 3.3577949747,
				"element": "H" 
			},
			{
				"x": -0.4305047603,
				"y": 3.4055790775,
				"z": 5.3141929231,
				"element": "H" 
			},
			{
				"x": -3.1408626729,
				"y": 0.5831802505,
				"z": 3.5696511352,
				"element": "H" 
			},
			{
				"x": -1.6471385588,
				"y": 0.3578717463,
				"z": 1.5912690162,
				"element": "H" 
			}
		],
		 "valence_orbital": [ 
			{
				"type": "occ",
				"energy": -0.29482,
				"method": "rhf"
			},
			{
				"type": "occ",
				"energy": -0.27667,
				"method": "rhf"
			},
			{
				"type": "occ",
				"energy": -0.27413,
				"method": "rhf"
			},
			{
				"type": "occ",
				"energy": -0.26823,
				"method": "rhf"
			},
			{
				"type": "occ",
				"energy": -0.24266,
				"method": "rhf"
			},
			{
				"type": "unocc",
				"energy": -0.06499,
				"method": "rhf"
			},
			{
				"type": "unocc",
				"energy": -0.02952,
				"method": "rhf"
			},
			{
				"type": "unocc",
				"energy": -0.02512,
				"method": "rhf"
			},
			{
				"type": "unocc",
				"energy": -0.00606,
				"method": "rhf"
			},
			{
				"type": "unocc",
				"energy": 0.04237,
				"method": "rhf"
			}
		],
		"cosmo_sigma_profile": { 
			"-0.025": 0.0,
			"-0.024": 0.0,
			"-0.023": 0.0,
			"-0.022": 0.0,
			"-0.021": 0.0,
			"-0.02": 0.0,
			"-0.019": 0.118456468211,
			"-0.018": 0.897073166766,
			"-0.017": 1.04753308305,
			"-0.016": 0.909574108899,
			"-0.015": 0.530218994793,
			"-0.014": 1.01285383151,
			"-0.013": 1.32463396172,
			"-0.012": 1.15072214692,
			"-0.011": 0.883965721741,
			"-0.01": 1.23014165831,
			"-0.009": 1.45869079766,
			"-0.008": 4.03173050107,
			"-0.007": 13.3779063153,
			"-0.006": 14.6840372765,
			"-0.005": 14.5044410458,
			"-0.004": 10.996361122,
			"-0.003": 11.6309213471,
			"-0.002": 9.9680093415,
			"-0.001": 14.5030980286,
			"0.0": 21.5478480518,
			"0.001": 25.1039370842,
			"0.002": 23.0703511253,
			"0.003": 24.0331321439,
			"0.004": 19.7164569732,
			"0.005": 4.92941903091,
			"0.006": 2.77725937462,
			"0.007": 3.20878437659,
			"0.008": 3.24256121013,
			"0.009": 3.84669337903,
			"0.01": 5.95794588243,
			"0.011": 5.8260705259,
			"0.012": 4.43675882729,
			"0.013": 0.886948924988,
			"0.014": 0.0,
			"0.015": 0.0,
			"0.016": 0.0,
			"0.017": 0.0,
			"0.018": 0.0,
			"0.019": 0.0,
			"0.02": 0.0,
			"0.021": 0.0,
			"0.022": 0.0,
			"0.023": 0.0,
			"0.024": 0.0,
			"0.025": 0.0
		}
	}
}
