{
	 "smiles": "ClCC1=CC=C(OCC#N)C=C1", 
	 "Tm": 337.15, 
	 "num_atms": 20, 
	 "gaussian": { 
		 "optdone": 1, 
		 "sigma_profile": "yes", 
		 "theory": "DFT", 
		 "functional": "B3LYP", 
		 "basiset": "6-31G**", 
		 "properties": { 
			 "R2extent": 4264.4605, 
			 "electric_dipole_moment_norm": 1.60824648608, 
			 "electric_quadrupole_moment_norm": 22.7673389097, 
			 "total_energy": -937.912509878, 
			 "HOMO_LUMO_gap": 0.21145, 
			 "cosmo_polarized_energy": -13.42, 
			 "cosmo_cavitation_energy": 27.21, 
			 "cosmo_dispersion_energy": -19.24, 
			 "cosmo_repulsion_energy": 1.56, 
			 "cosmo_total_nonelectrostatic_energy": 9.53, 
			 "SMD_solvation_energy": 5.98 
		},
		"coords": [
			{
				"x": 1.5321988885,
				"y": 4.4759369876,
				"z": 2.6859172161,
				"element": "Cl" 
			},
			{
				"x": 0.1912738283,
				"y": 3.5991112777,
				"z": 1.7754476961,
				"element": "C" 
			},
			{
				"x": 0.6066685207,
				"y": 2.2394455562,
				"z": 1.3085975771,
				"element": "C" 
			},
			{
				"x": 0.4528526154,
				"y": 1.1164869675,
				"z": 2.1370968111,
				"element": "C" 
			},
			{
				"x": 0.8363318964,
				"y": -0.1465360382,
				"z": 1.7082320495,
				"element": "C" 
			},
			{
				"x": 1.3878979453,
				"y": -0.3096830981,
				"z": 0.4310405655,
				"element": "C" 
			},
			{
				"x": 1.739257528,
				"y": -1.6019650801,
				"z": 0.1111271247,
				"element": "O" 
			},
			{
				"x": 2.4364209855,
				"y": -1.8437560409,
				"z": -1.0939127207,
				"element": "C" 
			},
			{
				"x": 1.5731016958,
				"y": -1.7924427225,
				"z": -2.2911777289,
				"element": "C" 
			},
			{
				"x": 0.9020240535,
				"y": -1.7582297377,
				"z": -3.2368116691,
				"element": "N" 
			},
			{
				"x": 1.5448405203,
				"y": 0.7924143283,
				"z": -0.4135772812,
				"element": "C" 
			},
			{
				"x": 1.1546620339,
				"y": 2.0554673667,
				"z": 0.0365321597,
				"element": "C" 
			},
			{
				"x": -0.0661772084,
				"y": 4.2570209813,
				"z": 0.9455385605,
				"element": "H" 
			},
			{
				"x": -0.6434287409,
				"y": 3.556480176,
				"z": 2.475196936,
				"element": "H" 
			},
			{
				"x": 0.0314022954,
				"y": 1.2362711149,
				"z": 3.1315251237,
				"element": "H" 
			},
			{
				"x": 0.7205016133,
				"y": -1.0193924243,
				"z": 2.3417392152,
				"element": "H" 
			},
			{
				"x": 3.2737944723,
				"y": -1.1460695292,
				"z": -1.2266936337,
				"element": "H" 
			},
			{
				"x": 2.8452275898,
				"y": -2.8539411036,
				"z": -1.0044894083,
				"element": "H" 
			},
			{
				"x": 1.9398811564,
				"y": 0.6883583201,
				"z": -1.4171103671,
				"element": "H" 
			},
			{
				"x": 1.2788683104,
				"y": 2.9096226983,
				"z": -0.6236182263,
				"element": "H" 
			}
		],
		 "valence_orbital": [ 
			{
				"type": "occ",
				"energy": -0.33964,
				"method": "rhf"
			},
			{
				"type": "occ",
				"energy": -0.2959,
				"method": "rhf"
			},
			{
				"type": "occ",
				"energy": -0.29403,
				"method": "rhf"
			},
			{
				"type": "occ",
				"energy": -0.2691,
				"method": "rhf"
			},
			{
				"type": "occ",
				"energy": -0.2412,
				"method": "rhf"
			},
			{
				"type": "unocc",
				"energy": -0.02975,
				"method": "rhf"
			},
			{
				"type": "unocc",
				"energy": -0.02103,
				"method": "rhf"
			},
			{
				"type": "unocc",
				"energy": -0.00338,
				"method": "rhf"
			},
			{
				"type": "unocc",
				"energy": 0.02113,
				"method": "rhf"
			},
			{
				"type": "unocc",
				"energy": 0.04167,
				"method": "rhf"
			}
		],
		"cosmo_sigma_profile": { 
			"-0.025": 0.0,
			"-0.024": 0.0,
			"-0.023": 0.0,
			"-0.022": 0.0,
			"-0.021": 0.0,
			"-0.02": 0.0,
			"-0.019": 0.0,
			"-0.018": 0.0,
			"-0.017": 0.0,
			"-0.016": 0.0,
			"-0.015": 0.0,
			"-0.014": 0.0,
			"-0.013": 0.0,
			"-0.012": 0.0240325171213,
			"-0.011": 2.53133560954,
			"-0.01": 6.10021762234,
			"-0.009": 5.38322417934,
			"-0.008": 6.91222398186,
			"-0.007": 13.8501653722,
			"-0.006": 14.8476829672,
			"-0.005": 10.4832191609,
			"-0.004": 12.4974967927,
			"-0.003": 8.99367735846,
			"-0.002": 7.28272671918,
			"-0.001": 9.12790425838,
			"0.0": 11.1251448513,
			"0.001": 12.0990876783,
			"0.002": 14.8516863496,
			"0.003": 15.4306926296,
			"0.004": 16.9689209927,
			"0.005": 11.4024879422,
			"0.006": 11.6940822682,
			"0.007": 13.9478087061,
			"0.008": 4.57330949161,
			"0.009": 3.27809650372,
			"0.01": 2.68248468583,
			"0.011": 2.61118295193,
			"0.012": 1.71874302832,
			"0.013": 0.32722931254,
			"0.014": 0.0,
			"0.015": 0.0,
			"0.016": 0.0,
			"0.017": 0.0,
			"0.018": 0.0,
			"0.019": 0.0,
			"0.02": 0.0,
			"0.021": 0.0,
			"0.022": 0.0,
			"0.023": 0.0,
			"0.024": 0.0,
			"0.025": 0.0
		}
	}
}
