{
	 "smiles": "C[Si](C)(C)C#CC1(O)CC2=CC=CC=C12", 
	 "Tm": 320.15, 
	 "num_atms": 31, 
	 "gaussian": { 
		 "optdone": 1, 
		 "sigma_profile": "yes", 
		 "theory": "DFT", 
		 "functional": "B3LYP", 
		 "basiset": "6-31G**", 
		 "properties": { 
			 "R2extent": 5315.2937, 
			 "electric_dipole_moment_norm": 1.47346272773, 
			 "electric_quadrupole_moment_norm": 8.51422980545, 
			 "total_energy": -869.691130812, 
			 "HOMO_LUMO_gap": 0.22397, 
			 "cosmo_polarized_energy": -9.04, 
			 "cosmo_cavitation_energy": 37.09, 
			 "cosmo_dispersion_energy": -23.3, 
			 "cosmo_repulsion_energy": 2.04, 
			 "cosmo_total_nonelectrostatic_energy": 15.83, 
			 "SMD_solvation_energy": 8.42 
		},
		"coords": [
			{
				"x": 1.8234783197,
				"y": -0.9967142731,
				"z": 2.7436572568,
				"element": "C" 
			},
			{
				"x": 2.2964028801,
				"y": 0.2093719066,
				"z": 1.3687370978,
				"element": "Si" 
			},
			{
				"x": 3.1781995243,
				"y": 1.7145266034,
				"z": 2.0952395062,
				"element": "C" 
			},
			{
				"x": 3.4023576269,
				"y": -0.6464152375,
				"z": 0.0993857851,
				"element": "C" 
			},
			{
				"x": 0.7589748587,
				"y": 0.7788939306,
				"z": 0.5284091055,
				"element": "C" 
			},
			{
				"x": -0.2560544312,
				"y": 1.1415975276,
				"z": -0.0420452561,
				"element": "C" 
			},
			{
				"x": -1.4733968805,
				"y": 1.6179794209,
				"z": -0.7021933894,
				"element": "C" 
			},
			{
				"x": -1.3434221309,
				"y": 2.9669786665,
				"z": -1.1242271078,
				"element": "O" 
			},
			{
				"x": -2.8255257901,
				"y": 1.2766966255,
				"z": 0.0927675497,
				"element": "C" 
			},
			{
				"x": -3.1876604242,
				"y": 0.4091751915,
				"z": -1.1010651452,
				"element": "C" 
			},
			{
				"x": -4.1488607732,
				"y": -0.4526177995,
				"z": -1.6128459765,
				"element": "C" 
			},
			{
				"x": -3.8880311288,
				"y": -0.9735045577,
				"z": -2.8898355587,
				"element": "C" 
			},
			{
				"x": -2.7234317167,
				"y": -0.6456586766,
				"z": -3.6023347031,
				"element": "C" 
			},
			{
				"x": -1.7539969244,
				"y": 0.2173876245,
				"z": -3.0704698712,
				"element": "C" 
			},
			{
				"x": -2.0315699499,
				"y": 0.7209239458,
				"z": -1.8082972753,
				"element": "C" 
			},
			{
				"x": 1.1747090365,
				"y": -0.5201530289,
				"z": 3.4857394207,
				"element": "H" 
			},
			{
				"x": 2.7166101183,
				"y": -1.3611836611,
				"z": 3.2640791446,
				"element": "H" 
			},
			{
				"x": 1.2913764895,
				"y": -1.8658225552,
				"z": 2.3434784529,
				"element": "H" 
			},
			{
				"x": 2.5479361849,
				"y": 2.2315144702,
				"z": 2.8262107882,
				"element": "H" 
			},
			{
				"x": 3.4458660187,
				"y": 2.4342804898,
				"z": 1.3148120332,
				"element": "H" 
			},
			{
				"x": 4.1015646421,
				"y": 1.4139212025,
				"z": 2.6035111498,
				"element": "H" 
			},
			{
				"x": 2.8994465794,
				"y": -1.5111951726,
				"z": -0.3453575805,
				"element": "H" 
			},
			{
				"x": 3.675362677,
				"y": 0.0350625708,
				"z": -0.712791459,
				"element": "H" 
			},
			{
				"x": 4.3286124151,
				"y": -1.0002955077,
				"z": 0.5665156937,
				"element": "H" 
			},
			{
				"x": -0.8974202133,
				"y": 3.4513044138,
				"z": -0.4155350843,
				"element": "H" 
			},
			{
				"x": -3.4396663189,
				"y": 2.1724613368,
				"z": 0.2277822355,
				"element": "H" 
			},
			{
				"x": -2.6923338917,
				"y": 0.768407716,
				"z": 1.0528877922,
				"element": "H" 
			},
			{
				"x": -5.0569361884,
				"y": -0.7157838358,
				"z": -1.0777306293,
				"element": "H" 
			},
			{
				"x": -4.6072168626,
				"y": -1.6489847408,
				"z": -3.345454956,
				"element": "H" 
			},
			{
				"x": -2.5730341912,
				"y": -1.0753252195,
				"z": -4.588907626,
				"element": "H" 
			},
			{
				"x": -0.8524395553,
				"y": 0.4642706229,
				"z": -3.6226213933,
				"element": "H" 
			}
		],
		 "valence_orbital": [ 
			{
				"type": "occ",
				"energy": -0.28084,
				"method": "rhf"
			},
			{
				"type": "occ",
				"energy": -0.26219,
				"method": "rhf"
			},
			{
				"type": "occ",
				"energy": -0.25313,
				"method": "rhf"
			},
			{
				"type": "occ",
				"energy": -0.24826,
				"method": "rhf"
			},
			{
				"type": "occ",
				"energy": -0.23817,
				"method": "rhf"
			},
			{
				"type": "unocc",
				"energy": -0.0142,
				"method": "rhf"
			},
			{
				"type": "unocc",
				"energy": 0.00112,
				"method": "rhf"
			},
			{
				"type": "unocc",
				"energy": 0.0206,
				"method": "rhf"
			},
			{
				"type": "unocc",
				"energy": 0.02739,
				"method": "rhf"
			},
			{
				"type": "unocc",
				"energy": 0.07731,
				"method": "rhf"
			}
		],
		"cosmo_sigma_profile": { 
			"-0.025": 0.0,
			"-0.024": 0.0,
			"-0.023": 0.0,
			"-0.022": 0.0,
			"-0.021": 0.0,
			"-0.02": 0.0,
			"-0.019": 0.0,
			"-0.018": 0.0,
			"-0.017": 0.0,
			"-0.016": 0.627894587666,
			"-0.015": 0.658839968967,
			"-0.014": 0.972478279335,
			"-0.013": 0.955751456396,
			"-0.012": 0.353837838901,
			"-0.011": 0.609969962209,
			"-0.01": 1.17502456167,
			"-0.009": 0.322048258928,
			"-0.008": 1.09817627998,
			"-0.007": 1.5455560157,
			"-0.006": 6.39936032248,
			"-0.005": 10.4391651692,
			"-0.004": 22.8507341739,
			"-0.003": 31.3406102221,
			"-0.002": 29.8485745756,
			"-0.001": 31.9684755824,
			"0.0": 25.548672585,
			"0.001": 30.7607023736,
			"0.002": 20.5798219169,
			"0.003": 15.2493152772,
			"0.004": 15.1184468404,
			"0.005": 17.0411663492,
			"0.006": 11.2598645133,
			"0.007": 4.79476774122,
			"0.008": 1.34832303776,
			"0.009": 1.22514061182,
			"0.01": 1.2442500361,
			"0.011": 1.46111276357,
			"0.012": 1.81720484086,
			"0.013": 1.71262735062,
			"0.014": 0.00896405695646,
			"0.015": 0.0,
			"0.016": 0.0,
			"0.017": 0.0,
			"0.018": 0.0,
			"0.019": 0.0,
			"0.02": 0.0,
			"0.021": 0.0,
			"0.022": 0.0,
			"0.023": 0.0,
			"0.024": 0.0,
			"0.025": 0.0
		}
	}
}
