{
	 "smiles": "OC(=O)C1CCN(CC1)C(=O)C1CC1", 
	 "Tm": 485.15, 
	 "num_atms": 29, 
	 "gaussian": { 
		 "optdone": 1, 
		 "sigma_profile": "yes", 
		 "theory": "DFT", 
		 "functional": "B3LYP", 
		 "basiset": "6-31G**", 
		 "properties": { 
			 "R2extent": 3771.4923, 
			 "electric_dipole_moment_norm": 3.18157175151, 
			 "electric_quadrupole_moment_norm": 22.166655104, 
			 "total_energy": -670.526313793, 
			 "HOMO_LUMO_gap": 0.23269, 
			 "cosmo_polarized_energy": -19.71, 
			 "cosmo_cavitation_energy": 30.34, 
			 "cosmo_dispersion_energy": -21.99, 
			 "cosmo_repulsion_energy": 1.72, 
			 "cosmo_total_nonelectrostatic_energy": 10.07, 
			 "SMD_solvation_energy": 5.39 
		},
		"coords": [
			{
				"x": -2.3779034742,
				"y": -3.6781840256,
				"z": 1.6825717049,
				"element": "O" 
			},
			{
				"x": -1.9020554872,
				"y": -2.8277409336,
				"z": 0.732652149,
				"element": "C" 
			},
			{
				"x": -2.6484854276,
				"y": -2.4120716391,
				"z": -0.1201750009,
				"element": "O" 
			},
			{
				"x": -0.4152023026,
				"y": -2.4758995764,
				"z": 0.8489170642,
				"element": "C" 
			},
			{
				"x": -0.1106133669,
				"y": -1.7057477369,
				"z": 2.1613768218,
				"element": "C" 
			},
			{
				"x": -0.6156250008,
				"y": -0.2580528782,
				"z": 2.0992143769,
				"element": "C" 
			},
			{
				"x": -0.0662618142,
				"y": 0.432633498,
				"z": 0.9325585321,
				"element": "N" 
			},
			{
				"x": -0.4114801429,
				"y": -0.2066740974,
				"z": -0.3375239788,
				"element": "C" 
			},
			{
				"x": 0.0702322691,
				"y": -1.6681259661,
				"z": -0.3688909905,
				"element": "C" 
			},
			{
				"x": 0.8257043131,
				"y": 1.4623343182,
				"z": 1.141603114,
				"element": "C" 
			},
			{
				"x": 1.152576479,
				"y": 1.8018228795,
				"z": 2.2811443466,
				"element": "O" 
			},
			{
				"x": 1.3894583953,
				"y": 2.1920232113,
				"z": -0.0421287955,
				"element": "C" 
			},
			{
				"x": 2.8431961714,
				"y": 2.6292819035,
				"z": 0.0661988059,
				"element": "C" 
			},
			{
				"x": 1.7581901178,
				"y": 3.6482230585,
				"z": 0.1872049581,
				"element": "C" 
			},
			{
				"x": -1.6667407345,
				"y": -3.9478356305,
				"z": 2.2809259717,
				"element": "H" 
			},
			{
				"x": 0.1256569184,
				"y": -3.4333048862,
				"z": 0.8763522372,
				"element": "H" 
			},
			{
				"x": -0.5506655334,
				"y": -2.2083144946,
				"z": 3.0317726002,
				"element": "H" 
			},
			{
				"x": 0.9739409056,
				"y": -1.6941135983,
				"z": 2.3161483184,
				"element": "H" 
			},
			{
				"x": -1.712680099,
				"y": -0.2414145004,
				"z": 2.0340629532,
				"element": "H" 
			},
			{
				"x": -0.3101034871,
				"y": 0.2984382045,
				"z": 2.9843471629,
				"element": "H" 
			},
			{
				"x": -1.4994400913,
				"y": -0.1840271176,
				"z": -0.4649161315,
				"element": "H" 
			},
			{
				"x": 0.0286711511,
				"y": 0.3386296268,
				"z": -1.1700238804,
				"element": "H" 
			},
			{
				"x": -0.2784921681,
				"y": -2.1407715543,
				"z": -1.2917875444,
				"element": "H" 
			},
			{
				"x": 1.1665342093,
				"y": -1.6809370244,
				"z": -0.3773669138,
				"element": "H" 
			},
			{
				"x": 1.0344666354,
				"y": 1.9445975315,
				"z": -1.0342124215,
				"element": "H" 
			},
			{
				"x": 3.4411164778,
				"y": 2.5984651791,
				"z": -0.8394538614,
				"element": "H" 
			},
			{
				"x": 3.3553605817,
				"y": 2.3417117751,
				"z": 0.9780811924,
				"element": "H" 
			},
			{
				"x": 1.588472364,
				"y": 4.3353116725,
				"z": -0.6358632758,
				"element": "H" 
			},
			{
				"x": 1.5489721408,
				"y": 4.0340428009,
				"z": 1.1786104851,
				"element": "H" 
			}
		],
		 "valence_orbital": [ 
			{
				"type": "occ",
				"energy": -0.30234,
				"method": "rhf"
			},
			{
				"type": "occ",
				"energy": -0.28587,
				"method": "rhf"
			},
			{
				"type": "occ",
				"energy": -0.27709,
				"method": "rhf"
			},
			{
				"type": "occ",
				"energy": -0.24668,
				"method": "rhf"
			},
			{
				"type": "occ",
				"energy": -0.23426,
				"method": "rhf"
			},
			{
				"type": "unocc",
				"energy": -0.00157,
				"method": "rhf"
			},
			{
				"type": "unocc",
				"energy": 0.02511,
				"method": "rhf"
			},
			{
				"type": "unocc",
				"energy": 0.0432,
				"method": "rhf"
			},
			{
				"type": "unocc",
				"energy": 0.08176,
				"method": "rhf"
			},
			{
				"type": "unocc",
				"energy": 0.09719,
				"method": "rhf"
			}
		],
		"cosmo_sigma_profile": { 
			"-0.025": 0.0,
			"-0.024": 0.0,
			"-0.023": 0.0,
			"-0.022": 0.0,
			"-0.021": 0.0,
			"-0.02": 0.0,
			"-0.019": 0.273155002542,
			"-0.018": 1.17744900637,
			"-0.017": 0.700738253941,
			"-0.016": 1.49139667948,
			"-0.015": 1.06502959244,
			"-0.014": 0.981807910968,
			"-0.013": 0.99387998724,
			"-0.012": 0.681452566101,
			"-0.011": 1.22551004363,
			"-0.01": 1.68674721226,
			"-0.009": 1.3698185489,
			"-0.008": 2.87927574275,
			"-0.007": 4.51957437341,
			"-0.006": 6.43848415267,
			"-0.005": 14.0083958708,
			"-0.004": 27.0761877587,
			"-0.003": 26.4433749734,
			"-0.002": 22.5685646185,
			"-0.001": 19.4814038842,
			"0.0": 13.34958176,
			"0.001": 10.6903723894,
			"0.002": 12.647733727,
			"0.003": 9.73901564508,
			"0.004": 6.46499124333,
			"0.005": 5.66079239344,
			"0.006": 3.93066359319,
			"0.007": 3.69378990566,
			"0.008": 4.44773366071,
			"0.009": 4.6402298941,
			"0.01": 5.54242973605,
			"0.011": 6.00433423075,
			"0.012": 6.42105894796,
			"0.013": 3.48967621109,
			"0.014": 3.9045301229,
			"0.015": 1.62481718598,
			"0.016": 0.0,
			"0.017": 0.0,
			"0.018": 0.0,
			"0.019": 0.0,
			"0.02": 0.0,
			"0.021": 0.0,
			"0.022": 0.0,
			"0.023": 0.0,
			"0.024": 0.0,
			"0.025": 0.0
		}
	}
}
