{
	 "smiles": "CC(OC1=CC=C(Cl)C=C1)C(O)=O", 
	 "Tm": 385.15, 
	 "num_atms": 22, 
	 "gaussian": { 
		 "optdone": 1, 
		 "sigma_profile": "yes", 
		 "theory": "DFT", 
		 "functional": "B3LYP", 
		 "basiset": "6-31G**", 
		 "properties": { 
			 "R2extent": 4568.4029, 
			 "electric_dipole_moment_norm": 1.42150861411, 
			 "electric_quadrupole_moment_norm": 14.761790617, 
			 "total_energy": -1034.24865874, 
			 "HOMO_LUMO_gap": 0.20615, 
			 "cosmo_polarized_energy": -12.3, 
			 "cosmo_cavitation_energy": 28.49, 
			 "cosmo_dispersion_energy": -20.68, 
			 "cosmo_repulsion_energy": 1.66, 
			 "cosmo_total_nonelectrostatic_energy": 9.46, 
			 "SMD_solvation_energy": 6.22 
		},
		"coords": [
			{
				"x": 0.9094720017,
				"y": 0.1286000934,
				"z": -1.6884752473,
				"element": "C" 
			},
			{
				"x": 1.0104961462,
				"y": 0.4609520917,
				"z": -0.2020404845,
				"element": "C" 
			},
			{
				"x": -0.2328523798,
				"y": 0.9008852162,
				"z": 0.3335016588,
				"element": "O" 
			},
			{
				"x": -1.1413322706,
				"y": -0.0082116895,
				"z": 0.8007575816,
				"element": "C" 
			},
			{
				"x": -2.28392556,
				"y": 0.545999259,
				"z": 1.3964574388,
				"element": "C" 
			},
			{
				"x": -3.2789837951,
				"y": -0.2743565379,
				"z": 1.9133297739,
				"element": "C" 
			},
			{
				"x": -3.1350914786,
				"y": -1.6619512218,
				"z": 1.8377075829,
				"element": "C" 
			},
			{
				"x": -4.3921817429,
				"y": -2.704669219,
				"z": 2.4919440795,
				"element": "Cl" 
			},
			{
				"x": -2.0090083395,
				"y": -2.224639395,
				"z": 1.2470680801,
				"element": "C" 
			},
			{
				"x": -1.0094205735,
				"y": -1.3993678968,
				"z": 0.7230891753,
				"element": "C" 
			},
			{
				"x": 2.0506962972,
				"y": 1.556503294,
				"z": 0.0487754808,
				"element": "C" 
			},
			{
				"x": 1.8334819151,
				"y": 2.2356803219,
				"z": 1.1895248489,
				"element": "O" 
			},
			{
				"x": 3.0031484267,
				"y": 1.7512799773,
				"z": -0.67347474,
				"element": "O" 
			},
			{
				"x": 0.5498526887,
				"y": 1.0000999981,
				"z": -2.2415031422,
				"element": "H" 
			},
			{
				"x": 1.8910542912,
				"y": -0.146408098,
				"z": -2.0786645884,
				"element": "H" 
			},
			{
				"x": 0.2123641839,
				"y": -0.6968119776,
				"z": -1.8495599361,
				"element": "H" 
			},
			{
				"x": 1.3717075453,
				"y": -0.4107767526,
				"z": 0.3641951106,
				"element": "H" 
			},
			{
				"x": -2.3680714085,
				"y": 1.626154618,
				"z": 1.4488559207,
				"element": "H" 
			},
			{
				"x": -4.159886347,
				"y": 0.1569482463,
				"z": 2.375828539,
				"element": "H" 
			},
			{
				"x": -1.9076878444,
				"y": -3.3026662616,
				"z": 1.1871560573,
				"element": "H" 
			},
			{
				"x": -0.148413655,
				"y": -1.8611072661,
				"z": 0.2547999018,
				"element": "H" 
			},
			{
				"x": 2.5673818989,
				"y": 2.8691631998,
				"z": 1.2660269083,
				"element": "H" 
			}
		],
		 "valence_orbital": [ 
			{
				"type": "occ",
				"energy": -0.31073,
				"method": "rhf"
			},
			{
				"type": "occ",
				"energy": -0.3088,
				"method": "rhf"
			},
			{
				"type": "occ",
				"energy": -0.28638,
				"method": "rhf"
			},
			{
				"type": "occ",
				"energy": -0.26684,
				"method": "rhf"
			},
			{
				"type": "occ",
				"energy": -0.22488,
				"method": "rhf"
			},
			{
				"type": "unocc",
				"energy": -0.01873,
				"method": "rhf"
			},
			{
				"type": "unocc",
				"energy": -0.00683,
				"method": "rhf"
			},
			{
				"type": "unocc",
				"energy": -0.00244,
				"method": "rhf"
			},
			{
				"type": "unocc",
				"energy": 0.03076,
				"method": "rhf"
			},
			{
				"type": "unocc",
				"energy": 0.06828,
				"method": "rhf"
			}
		],
		"cosmo_sigma_profile": { 
			"-0.025": 0.0,
			"-0.024": 0.0,
			"-0.023": 0.0,
			"-0.022": 0.0,
			"-0.021": 0.0,
			"-0.02": 0.0,
			"-0.019": 0.429751152419,
			"-0.018": 0.829351305558,
			"-0.017": 1.30832725435,
			"-0.016": 0.529790587475,
			"-0.015": 0.651615989718,
			"-0.014": 0.424250234594,
			"-0.013": 0.387157594,
			"-0.012": 1.13782249048,
			"-0.011": 0.907138010302,
			"-0.01": 1.06062254295,
			"-0.009": 3.90749275632,
			"-0.008": 4.67087027621,
			"-0.007": 8.51991875898,
			"-0.006": 9.83125997831,
			"-0.005": 12.207103409,
			"-0.004": 14.1865975185,
			"-0.003": 12.7758059374,
			"-0.002": 13.1244140698,
			"-0.001": 15.8872025048,
			"0.0": 13.616507805,
			"0.001": 14.2409005024,
			"0.002": 17.8965090881,
			"0.003": 21.4694399905,
			"0.004": 20.0040085396,
			"0.005": 12.3888632755,
			"0.006": 3.64068488244,
			"0.007": 3.9075757931,
			"0.008": 3.11690845654,
			"0.009": 3.94088394467,
			"0.01": 3.69889901787,
			"0.011": 6.24427612749,
			"0.012": 2.10920058356,
			"0.013": 0.0,
			"0.014": 0.0,
			"0.015": 0.0,
			"0.016": 0.0,
			"0.017": 0.0,
			"0.018": 0.0,
			"0.019": 0.0,
			"0.02": 0.0,
			"0.021": 0.0,
			"0.022": 0.0,
			"0.023": 0.0,
			"0.024": 0.0,
			"0.025": 0.0
		}
	}
}
