{
	 "smiles": "CS(=O)(=O)C1=CC=C(NC(N)=O)C=C1", 
	 "Tm": 498.15, 
	 "num_atms": 24, 
	 "gaussian": { 
		 "optdone": 1, 
		 "sigma_profile": "yes", 
		 "theory": "DFT", 
		 "functional": "B3LYP", 
		 "basiset": "6-31G**", 
		 "properties": { 
			 "R2extent": 4755.7427, 
			 "electric_dipole_moment_norm": 5.27498182082, 
			 "electric_quadrupole_moment_norm": 24.1754758017, 
			 "total_energy": -1044.20348298, 
			 "HOMO_LUMO_gap": 0.19818, 
			 "cosmo_polarized_energy": -25.38, 
			 "cosmo_cavitation_energy": 29.88, 
			 "cosmo_dispersion_energy": -22.27, 
			 "cosmo_repulsion_energy": 1.72, 
			 "cosmo_total_nonelectrostatic_energy": 9.32, 
			 "SMD_solvation_energy": 5.91 
		},
		"coords": [
			{
				"x": -2.2249362003,
				"y": 0.1207206755,
				"z": -2.9650738627,
				"element": "C" 
			},
			{
				"x": -1.8155990841,
				"y": -1.3513828951,
				"z": -1.9950411104,
				"element": "S" 
			},
			{
				"x": -3.083658611,
				"y": -2.012621513,
				"z": -1.649074673,
				"element": "O" 
			},
			{
				"x": -0.7510494415,
				"y": -2.0667005772,
				"z": -2.7161888927,
				"element": "O" 
			},
			{
				"x": -1.1082285764,
				"y": -0.6906440169,
				"z": -0.4847437159,
				"element": "C" 
			},
			{
				"x": -1.9322922146,
				"y": -0.4323123366,
				"z": 0.6111556658,
				"element": "C" 
			},
			{
				"x": -1.3884855268,
				"y": 0.0740414546,
				"z": 1.7887861274,
				"element": "C" 
			},
			{
				"x": -0.0085884368,
				"y": 0.3415876963,
				"z": 1.8714239265,
				"element": "C" 
			},
			{
				"x": 0.607933982,
				"y": 0.835798238,
				"z": 3.0264928302,
				"element": "N" 
			},
			{
				"x": 0.1317568767,
				"y": 1.5840976251,
				"z": 4.1067022845,
				"element": "C" 
			},
			{
				"x": -1.1451582836,
				"y": 2.0953095274,
				"z": 3.9930959582,
				"element": "N" 
			},
			{
				"x": 0.8350255889,
				"y": 1.7532005242,
				"z": 5.0899647547,
				"element": "O" 
			},
			{
				"x": 0.8113519662,
				"y": 0.0515039983,
				"z": 0.7629076282,
				"element": "C" 
			},
			{
				"x": 0.2693851959,
				"y": -0.4682914324,
				"z": -0.4047744283,
				"element": "C" 
			},
			{
				"x": -2.6582623065,
				"y": -0.2407962523,
				"z": -3.8999792727,
				"element": "H" 
			},
			{
				"x": -1.3135109596,
				"y": 0.686384602,
				"z": -3.1633113759,
				"element": "H" 
			},
			{
				"x": -2.9520504093,
				"y": 0.7219081267,
				"z": -2.4175411126,
				"element": "H" 
			},
			{
				"x": -2.990179614,
				"y": -0.6667784927,
				"z": 0.5530866691,
				"element": "H" 
			},
			{
				"x": -2.0218751588,
				"y": 0.2180641627,
				"z": 2.6554893749,
				"element": "H" 
			},
			{
				"x": 1.591054264,
				"y": 0.6314215928,
				"z": 3.1430186467,
				"element": "H" 
			},
			{
				"x": -1.504050225,
				"y": 2.3133808003,
				"z": 3.0741795509,
				"element": "H" 
			},
			{
				"x": -1.3532610285,
				"y": 2.7718311889,
				"z": 4.7137689354,
				"element": "H" 
			},
			{
				"x": 1.8798328619,
				"y": 0.2376932161,
				"z": 0.8280599714,
				"element": "H" 
			},
			{
				"x": 0.9050453412,
				"y": -0.7132159126,
				"z": -1.2492038795,
				"element": "H" 
			}
		],
		 "valence_orbital": [ 
			{
				"type": "occ",
				"energy": -0.29171,
				"method": "rhf"
			},
			{
				"type": "occ",
				"energy": -0.28803,
				"method": "rhf"
			},
			{
				"type": "occ",
				"energy": -0.28269,
				"method": "rhf"
			},
			{
				"type": "occ",
				"energy": -0.27364,
				"method": "rhf"
			},
			{
				"type": "occ",
				"energy": -0.24378,
				"method": "rhf"
			},
			{
				"type": "unocc",
				"energy": -0.0456,
				"method": "rhf"
			},
			{
				"type": "unocc",
				"energy": -0.03408,
				"method": "rhf"
			},
			{
				"type": "unocc",
				"energy": 0.03978,
				"method": "rhf"
			},
			{
				"type": "unocc",
				"energy": 0.06038,
				"method": "rhf"
			},
			{
				"type": "unocc",
				"energy": 0.07247,
				"method": "rhf"
			}
		],
		"cosmo_sigma_profile": { 
			"-0.025": 0.0,
			"-0.024": 0.0,
			"-0.023": 0.0,
			"-0.022": 0.0,
			"-0.021": 0.0,
			"-0.02": 0.0,
			"-0.019": 0.0,
			"-0.018": 0.0,
			"-0.017": 0.0,
			"-0.016": 0.0354243531818,
			"-0.015": 0.654897744911,
			"-0.014": 1.96638445254,
			"-0.013": 3.40605552972,
			"-0.012": 3.69619939049,
			"-0.011": 3.28287106582,
			"-0.01": 3.84296256774,
			"-0.009": 4.16383968052,
			"-0.008": 10.606716234,
			"-0.007": 12.4552512649,
			"-0.006": 16.4358458087,
			"-0.005": 13.4899682084,
			"-0.004": 13.6467187946,
			"-0.003": 13.8754232774,
			"-0.002": 9.40522590818,
			"-0.001": 10.7598530563,
			"0.0": 11.0284481905,
			"0.001": 13.8232967216,
			"0.002": 16.5163823411,
			"0.003": 10.9347634045,
			"0.004": 3.92600399314,
			"0.005": 5.27606761885,
			"0.006": 3.75395276933,
			"0.007": 3.03650634602,
			"0.008": 4.86428496589,
			"0.009": 4.89644849315,
			"0.01": 5.23313514232,
			"0.011": 10.0944081584,
			"0.012": 11.1094043036,
			"0.013": 6.81635777702,
			"0.014": 4.57364360783,
			"0.015": 0.128684485323,
			"0.016": 0.0,
			"0.017": 0.0,
			"0.018": 0.0,
			"0.019": 0.0,
			"0.02": 0.0,
			"0.021": 0.0,
			"0.022": 0.0,
			"0.023": 0.0,
			"0.024": 0.0,
			"0.025": 0.0
		}
	}
}
