{
	 "smiles": "OCC1=CC=C(C=C1)C(O)=O", 
	 "Tm": 455.15, 
	 "num_atms": 19, 
	 "gaussian": { 
		 "optdone": 1, 
		 "sigma_profile": "yes", 
		 "theory": "DFT", 
		 "functional": "B3LYP", 
		 "basiset": "6-31G**", 
		 "properties": { 
			 "R2extent": 2391.1163, 
			 "electric_dipole_moment_norm": 4.23154284275, 
			 "electric_quadrupole_moment_norm": 19.7253446163, 
			 "total_energy": -535.342670226, 
			 "HOMO_LUMO_gap": 0.20778, 
			 "cosmo_polarized_energy": -17.46, 
			 "cosmo_cavitation_energy": 23.46, 
			 "cosmo_dispersion_energy": -17.4, 
			 "cosmo_repulsion_energy": 1.4, 
			 "cosmo_total_nonelectrostatic_energy": 7.46, 
			 "SMD_solvation_energy": 5.24 
		},
		"coords": [
			{
				"x": -3.0733669678,
				"y": -1.6462048101,
				"z": 1.3701091431,
				"element": "O" 
			},
			{
				"x": -3.0242878557,
				"y": -0.2315823113,
				"z": 1.2833533791,
				"element": "C" 
			},
			{
				"x": -1.6924868498,
				"y": 0.3089168398,
				"z": 0.7956561861,
				"element": "C" 
			},
			{
				"x": -0.8626929779,
				"y": -0.4762626059,
				"z": -0.0123629878,
				"element": "C" 
			},
			{
				"x": 0.3493772826,
				"y": 0.0271947668,
				"z": -0.480987071,
				"element": "C" 
			},
			{
				"x": 0.7539703016,
				"y": 1.3290485215,
				"z": -0.1536048732,
				"element": "C" 
			},
			{
				"x": -0.0875961871,
				"y": 2.1229509785,
				"z": 0.6383461794,
				"element": "C" 
			},
			{
				"x": -1.2894083424,
				"y": 1.6126174052,
				"z": 1.1165006752,
				"element": "C" 
			},
			{
				"x": 2.0362957271,
				"y": 1.9391734247,
				"z": -0.6327379528,
				"element": "C" 
			},
			{
				"x": 3.0053813454,
				"y": 1.081524107,
				"z": -1.0536501045,
				"element": "O" 
			},
			{
				"x": 2.2360883142,
				"y": 3.1311158059,
				"z": -0.6565732577,
				"element": "O" 
			},
			{
				"x": -2.4216679077,
				"y": -1.9233820339,
				"z": 2.0279721775,
				"element": "H" 
			},
			{
				"x": -3.2861533475,
				"y": 0.2453604451,
				"z": 2.2407508336,
				"element": "H" 
			},
			{
				"x": -3.8128495942,
				"y": 0.0414748455,
				"z": 0.5716072412,
				"element": "H" 
			},
			{
				"x": -1.1805005582,
				"y": -1.4808547385,
				"z": -0.2717444483,
				"element": "H" 
			},
			{
				"x": 0.9522470907,
				"y": -0.5954591045,
				"z": -1.1385950796,
				"element": "H" 
			},
			{
				"x": 0.2277299715,
				"y": 3.1339858963,
				"z": 0.8726988788,
				"element": "H" 
			},
			{
				"x": -1.9233612413,
				"y": 2.2320912635,
				"z": 1.746570775,
				"element": "H" 
			},
			{
				"x": 2.7664817966,
				"y": 0.1717913044,
				"z": -0.8293096939,
				"element": "H" 
			}
		],
		 "valence_orbital": [ 
			{
				"type": "occ",
				"energy": -0.31556,
				"method": "rhf"
			},
			{
				"type": "occ",
				"energy": -0.29369,
				"method": "rhf"
			},
			{
				"type": "occ",
				"energy": -0.27488,
				"method": "rhf"
			},
			{
				"type": "occ",
				"energy": -0.27237,
				"method": "rhf"
			},
			{
				"type": "occ",
				"energy": -0.26058,
				"method": "rhf"
			},
			{
				"type": "unocc",
				"energy": -0.0528,
				"method": "rhf"
			},
			{
				"type": "unocc",
				"energy": -0.02406,
				"method": "rhf"
			},
			{
				"type": "unocc",
				"energy": 0.04419,
				"method": "rhf"
			},
			{
				"type": "unocc",
				"energy": 0.06035,
				"method": "rhf"
			},
			{
				"type": "unocc",
				"energy": 0.07135,
				"method": "rhf"
			}
		],
		"cosmo_sigma_profile": { 
			"-0.025": 0.0,
			"-0.024": 0.0,
			"-0.023": 0.0,
			"-0.022": 0.0,
			"-0.021": 0.0,
			"-0.02": 0.0,
			"-0.019": 0.11986801546,
			"-0.018": 0.930677895855,
			"-0.017": 1.01196554839,
			"-0.016": 0.986934184901,
			"-0.015": 2.58533805741,
			"-0.014": 1.4249633535,
			"-0.013": 1.54742140034,
			"-0.012": 2.27424710056,
			"-0.011": 2.29176353717,
			"-0.01": 1.949312835,
			"-0.009": 1.98835459938,
			"-0.008": 2.72495648525,
			"-0.007": 3.78276990789,
			"-0.006": 9.71580878129,
			"-0.005": 14.2851870745,
			"-0.004": 12.2838436267,
			"-0.003": 12.7158046128,
			"-0.002": 9.25551765577,
			"-0.001": 9.83547345342,
			"0.0": 10.9338696279,
			"0.001": 9.23188614425,
			"0.002": 8.75291921651,
			"0.003": 14.3186378471,
			"0.004": 9.10499130043,
			"0.005": 3.67306891271,
			"0.006": 3.79780166939,
			"0.007": 3.02484093986,
			"0.008": 3.97183245405,
			"0.009": 4.36926151085,
			"0.01": 5.39885635692,
			"0.011": 6.49935501868,
			"0.012": 6.58923671111,
			"0.013": 3.60310692079,
			"0.014": 1.46743863493,
			"0.015": 0.0,
			"0.016": 0.0,
			"0.017": 0.0,
			"0.018": 0.0,
			"0.019": 0.0,
			"0.02": 0.0,
			"0.021": 0.0,
			"0.022": 0.0,
			"0.023": 0.0,
			"0.024": 0.0,
			"0.025": 0.0
		}
	}
}
