{
	 "smiles": "OC(=O)C1=C(SCC2=NN=NN2C2=CC=CC=C2)C=CC=C1", 
	 "Tm": 445.15, 
	 "num_atms": 34, 
	 "gaussian": { 
		 "optdone": 1, 
		 "sigma_profile": "yes", 
		 "theory": "DFT", 
		 "functional": "B3LYP", 
		 "basiset": "6-31G**", 
		 "properties": { 
			 "R2extent": 7731.0578, 
			 "electric_dipole_moment_norm": 4.12764641049, 
			 "electric_quadrupole_moment_norm": 40.7795766397, 
			 "total_energy": -1346.42013943, 
			 "HOMO_LUMO_gap": 0.19087, 
			 "cosmo_polarized_energy": -21.17, 
			 "cosmo_cavitation_energy": 40.34, 
			 "cosmo_dispersion_energy": -28.13, 
			 "cosmo_repulsion_energy": 2.07, 
			 "cosmo_total_nonelectrostatic_energy": 14.28, 
			 "SMD_solvation_energy": 5.4 
		},
		"coords": [
			{
				"x": -0.5068068641,
				"y": 1.0802162317,
				"z": 1.3391065118,
				"element": "O" 
			},
			{
				"x": 0.713936741,
				"y": 1.1453319626,
				"z": 1.9034655239,
				"element": "C" 
			},
			{
				"x": 1.1250475742,
				"y": 2.2004390192,
				"z": 2.3334590733,
				"element": "O" 
			},
			{
				"x": 1.5468744528,
				"y": -0.1188997082,
				"z": 1.9969853752,
				"element": "C" 
			},
			{
				"x": 1.3404237485,
				"y": -1.3398690422,
				"z": 1.3126207491,
				"element": "C" 
			},
			{
				"x": -0.0335137917,
				"y": -1.6564817356,
				"z": 0.1862430148,
				"element": "S" 
			},
			{
				"x": 0.5394289075,
				"y": -0.7152933743,
				"z": -1.319344355,
				"element": "C" 
			},
			{
				"x": -0.2662461883,
				"y": -1.0794371773,
				"z": -2.5171848253,
				"element": "C" 
			},
			{
				"x": 0.2089197971,
				"y": -1.776843183,
				"z": -3.5345913174,
				"element": "N" 
			},
			{
				"x": -0.8210014788,
				"y": -1.9371096232,
				"z": -4.4016521609,
				"element": "N" 
			},
			{
				"x": -1.8965035778,
				"y": -1.3771999176,
				"z": -3.9589124761,
				"element": "N" 
			},
			{
				"x": -1.5787687393,
				"y": -0.8149640075,
				"z": -2.7596184871,
				"element": "N" 
			},
			{
				"x": -2.5796516653,
				"y": -0.1475207286,
				"z": -1.9864585334,
				"element": "C" 
			},
			{
				"x": -2.3183488073,
				"y": 1.1022421175,
				"z": -1.4215806616,
				"element": "C" 
			},
			{
				"x": -3.3061970366,
				"y": 1.7231453981,
				"z": -0.6565199817,
				"element": "C" 
			},
			{
				"x": -4.5494653511,
				"y": 1.1129457742,
				"z": -0.4853119667,
				"element": "C" 
			},
			{
				"x": -4.8073284183,
				"y": -0.1261267925,
				"z": -1.0774523429,
				"element": "C" 
			},
			{
				"x": -3.8221481603,
				"y": -0.7673936914,
				"z": -1.8253536605,
				"element": "C" 
			},
			{
				"x": 2.2186070103,
				"y": -2.4123584504,
				"z": 1.5197683435,
				"element": "C" 
			},
			{
				"x": 3.2961274676,
				"y": -2.2955317521,
				"z": 2.3962518542,
				"element": "C" 
			},
			{
				"x": 3.5139781154,
				"y": -1.0912766776,
				"z": 3.0650823905,
				"element": "C" 
			},
			{
				"x": 2.6516515735,
				"y": -0.0193132365,
				"z": 2.8573705767,
				"element": "C" 
			},
			{
				"x": -0.7266041391,
				"y": 0.1600315701,
				"z": 1.072517804,
				"element": "H" 
			},
			{
				"x": 0.4970493433,
				"y": 0.3516434241,
				"z": -1.0945329961,
				"element": "H" 
			},
			{
				"x": 1.5698850406,
				"y": -1.0055420832,
				"z": -1.5245310072,
				"element": "H" 
			},
			{
				"x": -1.3664659838,
				"y": 1.5944231457,
				"z": -1.5852089079,
				"element": "H" 
			},
			{
				"x": -3.0987799591,
				"y": 2.6859389137,
				"z": -0.2016066416,
				"element": "H" 
			},
			{
				"x": -5.3168588147,
				"y": 1.6026313309,
				"z": 0.1061570691,
				"element": "H" 
			},
			{
				"x": -5.7751991868,
				"y": -0.6010382921,
				"z": -0.950412495,
				"element": "H" 
			},
			{
				"x": -4.0009532406,
				"y": -1.7319769189,
				"z": -2.2864672928,
				"element": "H" 
			},
			{
				"x": 2.0473059717,
				"y": -3.3398589071,
				"z": 0.9835115115,
				"element": "H" 
			},
			{
				"x": 3.962385266,
				"y": -3.1395636023,
				"z": 2.5469536057,
				"element": "H" 
			},
			{
				"x": 4.3536564213,
				"y": -0.9850976656,
				"z": 3.7450307509,
				"element": "H" 
			},
			{
				"x": 2.8069639721,
				"y": 0.9295076794,
				"z": 3.3581159547,
				"element": "H" 
			}
		],
		 "valence_orbital": [ 
			{
				"type": "occ",
				"energy": -0.2836,
				"method": "rhf"
			},
			{
				"type": "occ",
				"energy": -0.2779,
				"method": "rhf"
			},
			{
				"type": "occ",
				"energy": -0.27433,
				"method": "rhf"
			},
			{
				"type": "occ",
				"energy": -0.27008,
				"method": "rhf"
			},
			{
				"type": "occ",
				"energy": -0.2633,
				"method": "rhf"
			},
			{
				"type": "unocc",
				"energy": -0.07243,
				"method": "rhf"
			},
			{
				"type": "unocc",
				"energy": -0.05144,
				"method": "rhf"
			},
			{
				"type": "unocc",
				"energy": -0.03751,
				"method": "rhf"
			},
			{
				"type": "unocc",
				"energy": -0.02745,
				"method": "rhf"
			},
			{
				"type": "unocc",
				"energy": -0.00921,
				"method": "rhf"
			}
		],
		"cosmo_sigma_profile": { 
			"-0.025": 0.0,
			"-0.024": 0.0,
			"-0.023": 0.0,
			"-0.022": 0.0,
			"-0.021": 0.0,
			"-0.02": 0.0,
			"-0.019": 0.0,
			"-0.018": 0.0,
			"-0.017": 0.0,
			"-0.016": 0.0,
			"-0.015": 0.0141252338464,
			"-0.014": 0.0685194388016,
			"-0.013": 0.0661195008294,
			"-0.012": 0.351103155287,
			"-0.011": 1.15393402403,
			"-0.01": 2.066204308,
			"-0.009": 3.52433505169,
			"-0.008": 6.54304572249,
			"-0.007": 18.396033858,
			"-0.006": 26.8826506617,
			"-0.005": 26.662684546,
			"-0.004": 20.1386701045,
			"-0.003": 19.1065563502,
			"-0.002": 18.4763209112,
			"-0.001": 19.0751288098,
			"0.0": 19.9256095736,
			"0.001": 22.9948538244,
			"0.002": 29.0928633704,
			"0.003": 20.3688455394,
			"0.004": 9.27884366082,
			"0.005": 6.1969903873,
			"0.006": 6.80643744226,
			"0.007": 6.45143464655,
			"0.008": 7.43567767487,
			"0.009": 7.867858752,
			"0.01": 6.92374224564,
			"0.011": 9.14229678234,
			"0.012": 6.57180874477,
			"0.013": 3.81932366256,
			"0.014": 1.15955575461,
			"0.015": 0.149377978241,
			"0.016": 0.0,
			"0.017": 0.0,
			"0.018": 0.0,
			"0.019": 0.0,
			"0.02": 0.0,
			"0.021": 0.0,
			"0.022": 0.0,
			"0.023": 0.0,
			"0.024": 0.0,
			"0.025": 0.0
		}
	}
}
