{
	 "smiles": "COC1=CC(C=O)=CC(OC)=C1OC", 
	 "Tm": 348.15, 
	 "num_atms": 26, 
	 "gaussian": { 
		 "optdone": 1, 
		 "sigma_profile": "yes", 
		 "theory": "DFT", 
		 "functional": "B3LYP", 
		 "basiset": "6-31G**", 
		 "properties": { 
			 "R2extent": 3256.9747, 
			 "electric_dipole_moment_norm": 4.28712199383, 
			 "electric_quadrupole_moment_norm": 18.4117673478, 
			 "total_energy": -689.13053809, 
			 "HOMO_LUMO_gap": 0.17977, 
			 "cosmo_polarized_energy": -10.21, 
			 "cosmo_cavitation_energy": 30.21, 
			 "cosmo_dispersion_energy": -21.0, 
			 "cosmo_repulsion_energy": 1.68, 
			 "cosmo_total_nonelectrostatic_energy": 10.89, 
			 "SMD_solvation_energy": 8.66 
		},
		"coords": [
			{
				"x": -2.3486589656,
				"y": -1.5295470898,
				"z": -1.3014707876,
				"element": "C" 
			},
			{
				"x": -2.2755233972,
				"y": -0.7506753824,
				"z": -0.1015600108,
				"element": "O" 
			},
			{
				"x": -1.3582272808,
				"y": 0.2677868411,
				"z": -0.0967299848,
				"element": "C" 
			},
			{
				"x": -1.8129046283,
				"y": 1.580951202,
				"z": 0.0292998677,
				"element": "C" 
			},
			{
				"x": -0.9020494821,
				"y": 2.6386073569,
				"z": 0.1261346377,
				"element": "C" 
			},
			{
				"x": -1.402669302,
				"y": 4.0230157567,
				"z": 0.2717352488,
				"element": "C" 
			},
			{
				"x": -0.6967460835,
				"y": 5.0110107601,
				"z": 0.3474074242,
				"element": "O" 
			},
			{
				"x": 0.4768344958,
				"y": 2.3915323293,
				"z": 0.0685359388,
				"element": "C" 
			},
			{
				"x": 0.9394800491,
				"y": 1.0882116493,
				"z": -0.0647306313,
				"element": "C" 
			},
			{
				"x": 2.293247837,
				"y": 0.847356142,
				"z": -0.0608818422,
				"element": "O" 
			},
			{
				"x": 2.8373805047,
				"y": 0.4158139722,
				"z": -1.3147471388,
				"element": "C" 
			},
			{
				"x": 0.0258752935,
				"y": 0.0134375257,
				"z": -0.1338537314,
				"element": "C" 
			},
			{
				"x": 0.4719192049,
				"y": -1.2792946633,
				"z": -0.2545106292,
				"element": "O" 
			},
			{
				"x": 1.0163394012,
				"y": -1.8357594276,
				"z": 0.9538706111,
				"element": "C" 
			},
			{
				"x": -1.4040412083,
				"y": -2.0410660553,
				"z": -1.5038659399,
				"element": "H" 
			},
			{
				"x": -3.1382525036,
				"y": -2.2648630576,
				"z": -1.1349784494,
				"element": "H" 
			},
			{
				"x": -2.6187896775,
				"y": -0.8987686991,
				"z": -2.1580315624,
				"element": "H" 
			},
			{
				"x": -2.8838274603,
				"y": 1.7583785731,
				"z": 0.0716168367,
				"element": "H" 
			},
			{
				"x": -2.5117404496,
				"y": 4.1095464856,
				"z": 0.3087812501,
				"element": "H" 
			},
			{
				"x": 1.1781468761,
				"y": 3.2158938486,
				"z": 0.1362973071,
				"element": "H" 
			},
			{
				"x": 3.9067665433,
				"y": 0.2725573729,
				"z": -1.1487226732,
				"element": "H" 
			},
			{
				"x": 2.3852225437,
				"y": -0.5252467309,
				"z": -1.6425932589,
				"element": "H" 
			},
			{
				"x": 2.6906671412,
				"y": 1.1830970591,
				"z": -2.0848920439,
				"element": "H" 
			},
			{
				"x": 1.873615481,
				"y": -1.2509669368,
				"z": 1.2998927954,
				"element": "H" 
			},
			{
				"x": 1.3356778781,
				"y": -2.8491340806,
				"z": 0.7039325625,
				"element": "H" 
			},
			{
				"x": 0.250157189,
				"y": -1.8763747513,
				"z": 1.7360642036,
				"element": "H" 
			}
		],
		 "valence_orbital": [ 
			{
				"type": "occ",
				"energy": -0.29113,
				"method": "rhf"
			},
			{
				"type": "occ",
				"energy": -0.27159,
				"method": "rhf"
			},
			{
				"type": "occ",
				"energy": -0.25212,
				"method": "rhf"
			},
			{
				"type": "occ",
				"energy": -0.24554,
				"method": "rhf"
			},
			{
				"type": "occ",
				"energy": -0.23954,
				"method": "rhf"
			},
			{
				"type": "unocc",
				"energy": -0.05977,
				"method": "rhf"
			},
			{
				"type": "unocc",
				"energy": -0.00663,
				"method": "rhf"
			},
			{
				"type": "unocc",
				"energy": 0.04081,
				"method": "rhf"
			},
			{
				"type": "unocc",
				"energy": 0.06896,
				"method": "rhf"
			},
			{
				"type": "unocc",
				"energy": 0.11076,
				"method": "rhf"
			}
		],
		"cosmo_sigma_profile": { 
			"-0.025": 0.0,
			"-0.024": 0.0,
			"-0.023": 0.0,
			"-0.022": 0.0,
			"-0.021": 0.0,
			"-0.02": 0.0,
			"-0.019": 0.0,
			"-0.018": 0.0,
			"-0.017": 0.0,
			"-0.016": 0.0,
			"-0.015": 0.0,
			"-0.014": 0.0,
			"-0.013": 0.0,
			"-0.012": 0.0,
			"-0.011": 0.0,
			"-0.01": 0.0,
			"-0.009": 0.0,
			"-0.008": 1.48136274583,
			"-0.007": 3.93402018422,
			"-0.006": 9.65688211913,
			"-0.005": 17.0837446573,
			"-0.004": 22.8938775921,
			"-0.003": 33.2961636065,
			"-0.002": 26.4795429903,
			"-0.001": 17.386673956,
			"0.0": 16.2038850524,
			"0.001": 16.4293259429,
			"0.002": 18.2971560045,
			"0.003": 9.98168762037,
			"0.004": 7.56401874356,
			"0.005": 5.82193928329,
			"0.006": 4.90755704034,
			"0.007": 4.48905538063,
			"0.008": 4.37360761138,
			"0.009": 3.83748706872,
			"0.01": 4.93308535564,
			"0.011": 6.55506707603,
			"0.012": 3.38562964267,
			"0.013": 0.832243329238,
			"0.014": 0.0,
			"0.015": 0.0,
			"0.016": 0.0,
			"0.017": 0.0,
			"0.018": 0.0,
			"0.019": 0.0,
			"0.02": 0.0,
			"0.021": 0.0,
			"0.022": 0.0,
			"0.023": 0.0,
			"0.024": 0.0,
			"0.025": 0.0
		}
	}
}
