{
	 "smiles": "CC1=CC=CC(NC(=O)C(C(F)(F)F)C(F)(F)F)=N1", 
	 "Tm": 380.15, 
	 "num_atms": 27, 
	 "gaussian": { 
		 "optdone": 1, 
		 "sigma_profile": "yes", 
		 "theory": "DFT", 
		 "functional": "B3LYP", 
		 "basiset": "6-31G**", 
		 "properties": { 
			 "R2extent": 4375.8609, 
			 "electric_dipole_moment_norm": 4.31989339105, 
			 "electric_quadrupole_moment_norm": 9.18561173575, 
			 "total_energy": -1169.67426539, 
			 "HOMO_LUMO_gap": 0.19983, 
			 "cosmo_polarized_energy": -10.73, 
			 "cosmo_cavitation_energy": 33.07, 
			 "cosmo_dispersion_energy": -22.21, 
			 "cosmo_repulsion_energy": 1.59, 
			 "cosmo_total_nonelectrostatic_energy": 12.46, 
			 "SMD_solvation_energy": 8.13 
		},
		"coords": [
			{
				"x": -0.9793104347,
				"y": -2.1967162012,
				"z": -1.534132029,
				"element": "C" 
			},
			{
				"x": -1.5701231089,
				"y": -0.95731446,
				"z": -0.9145429999,
				"element": "C" 
			},
			{
				"x": -2.9470468692,
				"y": -0.8074813747,
				"z": -0.7229136144,
				"element": "C" 
			},
			{
				"x": -3.4205514832,
				"y": 0.360895454,
				"z": -0.1226448894,
				"element": "C" 
			},
			{
				"x": -2.5188485556,
				"y": 1.339157958,
				"z": 0.2745719786,
				"element": "C" 
			},
			{
				"x": -1.157758871,
				"y": 1.0994961432,
				"z": 0.0268931289,
				"element": "C" 
			},
			{
				"x": -0.229207503,
				"y": 2.0961742005,
				"z": 0.3827349181,
				"element": "N" 
			},
			{
				"x": 1.1457539319,
				"y": 2.1272119254,
				"z": 0.4884675785,
				"element": "C" 
			},
			{
				"x": 1.711149525,
				"y": 3.2093269381,
				"z": 0.513396474,
				"element": "O" 
			},
			{
				"x": 2.0176033685,
				"y": 0.8693720397,
				"z": 0.7153866628,
				"element": "C" 
			},
			{
				"x": 1.6489087211,
				"y": 0.0395859384,
				"z": 1.9473945298,
				"element": "C" 
			},
			{
				"x": 2.6324955668,
				"y": -0.8448186456,
				"z": 2.2115980819,
				"element": "F" 
			},
			{
				"x": 1.5422524111,
				"y": 0.8666578861,
				"z": 3.0109997388,
				"element": "F" 
			},
			{
				"x": 0.5008024349,
				"y": -0.6456952373,
				"z": 1.8584945882,
				"element": "F" 
			},
			{
				"x": 2.3749780503,
				"y": 0.032325367,
				"z": -0.5320912907,
				"element": "C" 
			},
			{
				"x": 1.8759108895,
				"y": -1.2147467496,
				"z": -0.5162754317,
				"element": "F" 
			},
			{
				"x": 1.9775148173,
				"y": 0.6432978018,
				"z": -1.6610487363,
				"element": "F" 
			},
			{
				"x": 3.7199263175,
				"y": -0.0964632957,
				"z": -0.602498254,
				"element": "F" 
			},
			{
				"x": -0.697913582,
				"y": 0.0010459624,
				"z": -0.5566981675,
				"element": "N" 
			},
			{
				"x": -0.3042767139,
				"y": -1.9284354927,
				"z": -2.3516137617,
				"element": "H" 
			},
			{
				"x": -0.3813878186,
				"y": -2.7384527561,
				"z": -0.7939748765,
				"element": "H" 
			},
			{
				"x": -1.7545602718,
				"y": -2.8659639072,
				"z": -1.9146104783,
				"element": "H" 
			},
			{
				"x": -3.6306775693,
				"y": -1.5882831426,
				"z": -1.0385752177,
				"element": "H" 
			},
			{
				"x": -4.4846964737,
				"y": 0.5026851524,
				"z": 0.0418284921,
				"element": "H" 
			},
			{
				"x": -2.8468093451,
				"y": 2.2504537972,
				"z": 0.7645224346,
				"element": "H" 
			},
			{
				"x": -0.5948669189,
				"y": 3.0402108644,
				"z": 0.4238524055,
				"element": "H" 
			},
			{
				"x": 2.9644394851,
				"y": 1.3337738342,
				"z": 0.9976787352,
				"element": "H" 
			}
		],
		 "valence_orbital": [ 
			{
				"type": "occ",
				"energy": -0.32084,
				"method": "rhf"
			},
			{
				"type": "occ",
				"energy": -0.29094,
				"method": "rhf"
			},
			{
				"type": "occ",
				"energy": -0.28395,
				"method": "rhf"
			},
			{
				"type": "occ",
				"energy": -0.26886,
				"method": "rhf"
			},
			{
				"type": "occ",
				"energy": -0.24223,
				"method": "rhf"
			},
			{
				"type": "unocc",
				"energy": -0.0424,
				"method": "rhf"
			},
			{
				"type": "unocc",
				"energy": -0.02872,
				"method": "rhf"
			},
			{
				"type": "unocc",
				"energy": 0.0119,
				"method": "rhf"
			},
			{
				"type": "unocc",
				"energy": 0.06989,
				"method": "rhf"
			},
			{
				"type": "unocc",
				"energy": 0.08439,
				"method": "rhf"
			}
		],
		"cosmo_sigma_profile": { 
			"-0.025": 0.0,
			"-0.024": 0.0,
			"-0.023": 0.0,
			"-0.022": 0.0,
			"-0.021": 0.0,
			"-0.02": 0.0,
			"-0.019": 0.0,
			"-0.018": 0.0,
			"-0.017": 0.0,
			"-0.016": 0.257081568521,
			"-0.015": 0.850547434666,
			"-0.014": 1.57215545652,
			"-0.013": 0.960806031415,
			"-0.012": 1.09893572456,
			"-0.011": 1.47299013466,
			"-0.01": 2.16307782875,
			"-0.009": 2.4727761351,
			"-0.008": 2.8329323877,
			"-0.007": 6.68943032361,
			"-0.006": 8.87087221205,
			"-0.005": 11.736296623,
			"-0.004": 10.9957171555,
			"-0.003": 10.4281348218,
			"-0.002": 14.4977261579,
			"-0.001": 18.6925111868,
			"0.0": 25.8378446266,
			"0.001": 31.6395980959,
			"0.002": 62.0264706509,
			"0.003": 23.9398198146,
			"0.004": 4.63750971344,
			"0.005": 2.29577790296,
			"0.006": 2.8813026792,
			"0.007": 2.24520577745,
			"0.008": 1.53592687091,
			"0.009": 1.27065678961,
			"0.01": 2.05290142529,
			"0.011": 4.34206501749,
			"0.012": 3.42952507098,
			"0.013": 0.0745163911009,
			"0.014": 0.0,
			"0.015": 0.0,
			"0.016": 0.0,
			"0.017": 0.0,
			"0.018": 0.0,
			"0.019": 0.0,
			"0.02": 0.0,
			"0.021": 0.0,
			"0.022": 0.0,
			"0.023": 0.0,
			"0.024": 0.0,
			"0.025": 0.0
		}
	}
}
