{
	 "smiles": "OC(=O)CCCCCCC=C", 
	 "Tm": 278.15, 
	 "num_atms": 27, 
	 "gaussian": { 
		 "optdone": 1, 
		 "sigma_profile": "yes", 
		 "theory": "DFT", 
		 "functional": "B3LYP", 
		 "basiset": "6-31G**", 
		 "properties": { 
			 "R2extent": 3231.4526, 
			 "electric_dipole_moment_norm": 1.26449812179, 
			 "electric_quadrupole_moment_norm": 11.5655706867, 
			 "total_energy": -503.05674394, 
			 "HOMO_LUMO_gap": 0.26292, 
			 "cosmo_polarized_energy": -8.85, 
			 "cosmo_cavitation_energy": 29.78, 
			 "cosmo_dispersion_energy": -20.36, 
			 "cosmo_repulsion_energy": 1.7, 
			 "cosmo_total_nonelectrostatic_energy": 11.12, 
			 "SMD_solvation_energy": 6.21 
		},
		"coords": [
			{
				"x": 2.5212224248,
				"y": -3.4967729758,
				"z": 0.7669117181,
				"element": "O" 
			},
			{
				"x": 1.2307801064,
				"y": -3.6116555385,
				"z": 0.3646115734,
				"element": "C" 
			},
			{
				"x": 0.8571663235,
				"y": -4.5102699093,
				"z": -0.3581994751,
				"element": "O" 
			},
			{
				"x": 0.3657431413,
				"y": -2.51727349,
				"z": 0.954434564,
				"element": "C" 
			},
			{
				"x": -1.0288793222,
				"y": -2.432496803,
				"z": 0.3228434532,
				"element": "C" 
			},
			{
				"x": -1.0500849414,
				"y": -1.9387965836,
				"z": -1.1355915895,
				"element": "C" 
			},
			{
				"x": -0.5601310209,
				"y": -0.498973927,
				"z": -1.3683601826,
				"element": "C" 
			},
			{
				"x": -1.4349567908,
				"y": 0.5861688484,
				"z": -0.7260974521,
				"element": "C" 
			},
			{
				"x": -0.9569184481,
				"y": 2.0229826212,
				"z": -1.0256341222,
				"element": "C" 
			},
			{
				"x": 0.3700937157,
				"y": 2.3579963003,
				"z": -0.3992499181,
				"element": "C" 
			},
			{
				"x": 1.4658837845,
				"y": 2.7381755731,
				"z": -1.0575090581,
				"element": "C" 
			},
			{
				"x": 2.9937113761,
				"y": -4.2470756186,
				"z": 0.3684500777,
				"element": "H" 
			},
			{
				"x": 0.9148780837,
				"y": -1.5721488017,
				"z": 0.8856442249,
				"element": "H" 
			},
			{
				"x": 0.2876584528,
				"y": -2.730385758,
				"z": 2.0290230045,
				"element": "H" 
			},
			{
				"x": -1.4818318685,
				"y": -3.4288689245,
				"z": 0.3588701655,
				"element": "H" 
			},
			{
				"x": -1.6512252334,
				"y": -1.7836163018,
				"z": 0.9499066843,
				"element": "H" 
			},
			{
				"x": -2.0792036909,
				"y": -2.0260790579,
				"z": -1.509377118,
				"element": "H" 
			},
			{
				"x": -0.4500748923,
				"y": -2.6266171971,
				"z": -1.7419210754,
				"element": "H" 
			},
			{
				"x": -0.5236580457,
				"y": -0.3200308996,
				"z": -2.4517035022,
				"element": "H" 
			},
			{
				"x": 0.4744430528,
				"y": -0.3842544385,
				"z": -1.0208075389,
				"element": "H" 
			},
			{
				"x": -1.4742836513,
				"y": 0.447805807,
				"z": 0.3628380098,
				"element": "H" 
			},
			{
				"x": -2.46766364,
				"y": 0.4759530623,
				"z": -1.0833174971,
				"element": "H" 
			},
			{
				"x": -0.9016010952,
				"y": 2.1761696435,
				"z": -2.1110694541,
				"element": "H" 
			},
			{
				"x": -1.714771299,
				"y": 2.7246388707,
				"z": -0.6482355456,
				"element": "H" 
			},
			{
				"x": 0.4121125199,
				"y": 2.2727649691,
				"z": 0.6886495312,
				"element": "H" 
			},
			{
				"x": 1.4738157796,
				"y": 2.8369805671,
				"z": -2.1407329543,
				"element": "H" 
			},
			{
				"x": 2.3927751784,
				"y": 2.9705799623,
				"z": -0.5410765232,
				"element": "H" 
			}
		],
		 "valence_orbital": [ 
			{
				"type": "occ",
				"energy": -0.3163,
				"method": "rhf"
			},
			{
				"type": "occ",
				"energy": -0.31467,
				"method": "rhf"
			},
			{
				"type": "occ",
				"energy": -0.31071,
				"method": "rhf"
			},
			{
				"type": "occ",
				"energy": -0.27266,
				"method": "rhf"
			},
			{
				"type": "occ",
				"energy": -0.2517,
				"method": "rhf"
			},
			{
				"type": "unocc",
				"energy": 0.01122,
				"method": "rhf"
			},
			{
				"type": "unocc",
				"energy": 0.02163,
				"method": "rhf"
			},
			{
				"type": "unocc",
				"energy": 0.07972,
				"method": "rhf"
			},
			{
				"type": "unocc",
				"energy": 0.08656,
				"method": "rhf"
			},
			{
				"type": "unocc",
				"energy": 0.11013,
				"method": "rhf"
			}
		],
		"cosmo_sigma_profile": { 
			"-0.025": 0.0,
			"-0.024": 0.0,
			"-0.023": 0.0,
			"-0.022": 0.0,
			"-0.021": 0.0,
			"-0.02": 0.0,
			"-0.019": 0.0,
			"-0.018": 0.394311223814,
			"-0.017": 1.0090466794,
			"-0.016": 0.835491061776,
			"-0.015": 0.849125047777,
			"-0.014": 0.459721773965,
			"-0.013": 0.618427408778,
			"-0.012": 1.3882944964,
			"-0.011": 0.532419815214,
			"-0.01": 0.503104160002,
			"-0.009": 0.519878999161,
			"-0.008": 0.544781309889,
			"-0.007": 0.929423057783,
			"-0.006": 3.23828030271,
			"-0.005": 5.20160217934,
			"-0.004": 12.241989596,
			"-0.003": 20.8309371829,
			"-0.002": 36.6723135566,
			"-0.001": 34.263762488,
			"0.0": 31.0264745048,
			"0.001": 18.4301900991,
			"0.002": 11.2046832926,
			"0.003": 7.98049860624,
			"0.004": 6.4025591608,
			"0.005": 7.74509046003,
			"0.006": 5.87182061012,
			"0.007": 3.6589638691,
			"0.008": 3.58941220562,
			"0.009": 3.02793687084,
			"0.01": 2.88545493511,
			"0.011": 2.89843918057,
			"0.012": 4.58351772345,
			"0.013": 0.803221628983,
			"0.014": 0.0,
			"0.015": 0.0,
			"0.016": 0.0,
			"0.017": 0.0,
			"0.018": 0.0,
			"0.019": 0.0,
			"0.02": 0.0,
			"0.021": 0.0,
			"0.022": 0.0,
			"0.023": 0.0,
			"0.024": 0.0,
			"0.025": 0.0
		}
	}
}
