{
	 "smiles": "ON=CC1=CC=C(O1)[N+]([O-])=O", 
	 "Tm": 436.15, 
	 "num_atms": 15, 
	 "gaussian": { 
		 "optdone": 1, 
		 "sigma_profile": "yes", 
		 "theory": "DFT", 
		 "functional": "B3LYP", 
		 "basiset": "6-31G**", 
		 "properties": { 
			 "R2extent": 2987.9678, 
			 "electric_dipole_moment_norm": 5.47094127916, 
			 "electric_quadrupole_moment_norm": 15.8115081241, 
			 "total_energy": -603.140075513, 
			 "HOMO_LUMO_gap": 0.14529, 
			 "cosmo_polarized_energy": -13.04, 
			 "cosmo_cavitation_energy": 22.09, 
			 "cosmo_dispersion_energy": -16.1, 
			 "cosmo_repulsion_energy": 1.32, 
			 "cosmo_total_nonelectrostatic_energy": 7.31, 
			 "SMD_solvation_energy": 7.53 
		},
		"coords": [
			{
				"x": 0.5366445805,
				"y": 2.5550613583,
				"z": -2.244283912,
				"element": "O" 
			},
			{
				"x": -0.3057955182,
				"y": 1.6295726722,
				"z": -1.6454563756,
				"element": "N" 
			},
			{
				"x": 0.2824108893,
				"y": 0.4953118208,
				"z": -1.5093753172,
				"element": "C" 
			},
			{
				"x": -0.4316171124,
				"y": -0.6054702578,
				"z": -0.9033208339,
				"element": "C" 
			},
			{
				"x": -1.7020234513,
				"y": -0.7594226159,
				"z": -0.3867131242,
				"element": "C" 
			},
			{
				"x": -1.7940884817,
				"y": -2.0989776376,
				"z": 0.0642565404,
				"element": "C" 
			},
			{
				"x": -0.5744911904,
				"y": -2.6594980107,
				"z": -0.2112039051,
				"element": "C" 
			},
			{
				"x": 0.2638836156,
				"y": -1.7744271453,
				"z": -0.7960227538,
				"element": "O" 
			},
			{
				"x": -0.0867497049,
				"y": -3.9800527493,
				"z": 0.019906389,
				"element": "N" 
			},
			{
				"x": -0.8825927125,
				"y": -4.758760629,
				"z": 0.5558055593,
				"element": "O" 
			},
			{
				"x": 1.0654814509,
				"y": -4.2398539456,
				"z": -0.3242880308,
				"element": "O" 
			},
			{
				"x": -0.0116346867,
				"y": 3.3507574227,
				"z": -2.2896711085,
				"element": "H" 
			},
			{
				"x": 1.309507795,
				"y": 0.3271035768,
				"z": -1.8358892991,
				"element": "H" 
			},
			{
				"x": -2.4602538759,
				"y": 0.0078233953,
				"z": -0.3458279523,
				"element": "H" 
			},
			{
				"x": -2.6287815973,
				"y": -2.600667255,
				"z": 0.5283841237,
				"element": "H" 
			}
		],
		 "valence_orbital": [ 
			{
				"type": "occ",
				"energy": -0.31118,
				"method": "rhf"
			},
			{
				"type": "occ",
				"energy": -0.308,
				"method": "rhf"
			},
			{
				"type": "occ",
				"energy": -0.3072,
				"method": "rhf"
			},
			{
				"type": "occ",
				"energy": -0.29403,
				"method": "rhf"
			},
			{
				"type": "occ",
				"energy": -0.24564,
				"method": "rhf"
			},
			{
				"type": "unocc",
				"energy": -0.10035,
				"method": "rhf"
			},
			{
				"type": "unocc",
				"energy": -0.04911,
				"method": "rhf"
			},
			{
				"type": "unocc",
				"energy": 0.03736,
				"method": "rhf"
			},
			{
				"type": "unocc",
				"energy": 0.05395,
				"method": "rhf"
			},
			{
				"type": "unocc",
				"energy": 0.07545,
				"method": "rhf"
			}
		],
		"cosmo_sigma_profile": { 
			"-0.025": 0.0,
			"-0.024": 0.0,
			"-0.023": 0.0,
			"-0.022": 0.0,
			"-0.021": 0.0,
			"-0.02": 0.0,
			"-0.019": 0.244036345859,
			"-0.018": 0.943878608366,
			"-0.017": 1.25476793246,
			"-0.016": 0.952698092758,
			"-0.015": 0.681034952442,
			"-0.014": 0.80114821639,
			"-0.013": 0.263739185719,
			"-0.012": 0.816010916342,
			"-0.011": 0.993889332566,
			"-0.01": 2.47724834198,
			"-0.009": 5.4844739493,
			"-0.008": 4.53803144819,
			"-0.007": 6.01456244781,
			"-0.006": 7.39857107316,
			"-0.005": 7.35399223607,
			"-0.004": 9.21836914096,
			"-0.003": 12.6178763313,
			"-0.002": 11.8978108332,
			"-0.001": 12.9438978637,
			"0.0": 12.0174988999,
			"0.001": 8.72722169901,
			"0.002": 8.0701032624,
			"0.003": 6.10202225709,
			"0.004": 5.79362395375,
			"0.005": 5.83879368318,
			"0.006": 6.27305251703,
			"0.007": 9.62828247226,
			"0.008": 14.276504478,
			"0.009": 9.65440556749,
			"0.01": 4.22251342085,
			"0.011": 0.227160964578,
			"0.012": 0.0,
			"0.013": 0.0,
			"0.014": 0.0,
			"0.015": 0.0,
			"0.016": 0.0,
			"0.017": 0.0,
			"0.018": 0.0,
			"0.019": 0.0,
			"0.02": 0.0,
			"0.021": 0.0,
			"0.022": 0.0,
			"0.023": 0.0,
			"0.024": 0.0,
			"0.025": 0.0
		}
	}
}
