{
	 "smiles": "[O-][N+](=O)C1=CC(=CC(=C1)C(=O)NCC1=NC=CC=C1)[N+]([O-])=O", 
	 "Tm": 393.15, 
	 "num_atms": 32, 
	 "gaussian": { 
		 "optdone": 1, 
		 "sigma_profile": "yes", 
		 "theory": "DFT", 
		 "functional": "B3LYP", 
		 "basiset": "6-31G**", 
		 "properties": { 
			 "R2extent": 9144.3081, 
			 "electric_dipole_moment_norm": 5.52839974495, 
			 "electric_quadrupole_moment_norm": 19.5854577442, 
			 "total_energy": -1096.33496704, 
			 "HOMO_LUMO_gap": 0.15113, 
			 "cosmo_polarized_energy": -20.56, 
			 "cosmo_cavitation_energy": 39.63, 
			 "cosmo_dispersion_energy": -27.46, 
			 "cosmo_repulsion_energy": 2.1, 
			 "cosmo_total_nonelectrostatic_energy": 14.27, 
			 "SMD_solvation_energy": 9.94 
		},
		"coords": [
			{
				"x": -2.3054483261,
				"y": -4.3674035923,
				"z": -2.9610635479,
				"element": "O" 
			},
			{
				"x": -1.6697567656,
				"y": -3.8827402323,
				"z": -2.0294436272,
				"element": "N" 
			},
			{
				"x": -1.6419173174,
				"y": -4.3218578597,
				"z": -0.8818663998,
				"element": "O" 
			},
			{
				"x": -0.8743445001,
				"y": -2.6697885025,
				"z": -2.308588706,
				"element": "C" 
			},
			{
				"x": -0.8800790544,
				"y": -2.151644719,
				"z": -3.5972179211,
				"element": "C" 
			},
			{
				"x": -0.1032179041,
				"y": -1.019879627,
				"z": -3.8243225535,
				"element": "C" 
			},
			{
				"x": 0.6558177013,
				"y": -0.4212362822,
				"z": -2.8250588898,
				"element": "C" 
			},
			{
				"x": 0.6173882646,
				"y": -0.9476227757,
				"z": -1.5280513028,
				"element": "C" 
			},
			{
				"x": -0.1462464589,
				"y": -2.0906058903,
				"z": -1.2702018136,
				"element": "C" 
			},
			{
				"x": 1.5267327587,
				"y": -0.3199451284,
				"z": -0.4996304495,
				"element": "C" 
			},
			{
				"x": 2.6353763935,
				"y": 0.0786060961,
				"z": -0.8375557211,
				"element": "O" 
			},
			{
				"x": 1.1043144613,
				"y": -0.2687207846,
				"z": 0.8056128904,
				"element": "N" 
			},
			{
				"x": -0.2585348552,
				"y": -0.1263447771,
				"z": 1.3070617226,
				"element": "C" 
			},
			{
				"x": -0.6272299058,
				"y": 1.2939015825,
				"z": 1.7182547964,
				"element": "C" 
			},
			{
				"x": -1.6560350499,
				"y": 1.3708769705,
				"z": 2.5754636998,
				"element": "N" 
			},
			{
				"x": -2.0615708235,
				"y": 2.5853622973,
				"z": 2.9599504188,
				"element": "C" 
			},
			{
				"x": -1.4674331573,
				"y": 3.7716472989,
				"z": 2.5247386277,
				"element": "C" 
			},
			{
				"x": -0.3966147237,
				"y": 3.6827091944,
				"z": 1.6380732099,
				"element": "C" 
			},
			{
				"x": 0.0345410726,
				"y": 2.4222459566,
				"z": 1.222888018,
				"element": "C" 
			},
			{
				"x": -0.0791817944,
				"y": -0.4427369113,
				"z": -5.1848328431,
				"element": "N" 
			},
			{
				"x": -0.7423564858,
				"y": -1.0108173549,
				"z": -6.0484155631,
				"element": "O" 
			},
			{
				"x": 0.5996795619,
				"y": 0.5659131628,
				"z": -5.3564967714,
				"element": "O" 
			},
			{
				"x": -1.4559164189,
				"y": -2.6106357038,
				"z": -4.3891649301,
				"element": "H" 
			},
			{
				"x": 1.2777331674,
				"y": 0.4359113327,
				"z": -3.0502675661,
				"element": "H" 
			},
			{
				"x": -0.1684103846,
				"y": -2.5543760425,
				"z": -0.2920264707,
				"element": "H" 
			},
			{
				"x": 1.8293423939,
				"y": 0.112680364,
				"z": 1.4041432763,
				"element": "H" 
			},
			{
				"x": -0.9563348214,
				"y": -0.4594668362,
				"z": 0.5348127885,
				"element": "H" 
			},
			{
				"x": -0.4161331232,
				"y": -0.779881426,
				"z": 2.1710018338,
				"element": "H" 
			},
			{
				"x": -2.8992598214,
				"y": 2.6110329398,
				"z": 3.6546627468,
				"element": "H" 
			},
			{
				"x": -1.8341922424,
				"y": 4.7309699792,
				"z": 2.8750191441,
				"element": "H" 
			},
			{
				"x": 0.0978562825,
				"y": 4.5782290266,
				"z": 1.2730197902,
				"element": "H" 
			},
			{
				"x": 0.8654318767,
				"y": 2.3206182446,
				"z": 0.5325021134,
				"element": "H" 
			}
		],
		 "valence_orbital": [ 
			{
				"type": "occ",
				"energy": -0.30306,
				"method": "rhf"
			},
			{
				"type": "occ",
				"energy": -0.29397,
				"method": "rhf"
			},
			{
				"type": "occ",
				"energy": -0.27771,
				"method": "rhf"
			},
			{
				"type": "occ",
				"energy": -0.27304,
				"method": "rhf"
			},
			{
				"type": "occ",
				"energy": -0.26849,
				"method": "rhf"
			},
			{
				"type": "unocc",
				"energy": -0.11736,
				"method": "rhf"
			},
			{
				"type": "unocc",
				"energy": -0.10833,
				"method": "rhf"
			},
			{
				"type": "unocc",
				"energy": -0.06432,
				"method": "rhf"
			},
			{
				"type": "unocc",
				"energy": -0.04296,
				"method": "rhf"
			},
			{
				"type": "unocc",
				"energy": -0.02909,
				"method": "rhf"
			}
		],
		"cosmo_sigma_profile": { 
			"-0.025": 0.0,
			"-0.024": 0.0,
			"-0.023": 0.0,
			"-0.022": 0.0,
			"-0.021": 0.0,
			"-0.02": 0.0,
			"-0.019": 0.0,
			"-0.018": 0.0,
			"-0.017": 0.0,
			"-0.016": 0.0,
			"-0.015": 0.0962547124929,
			"-0.014": 0.755312105716,
			"-0.013": 1.14336849041,
			"-0.012": 0.970781628801,
			"-0.011": 0.611941255064,
			"-0.01": 0.927340162961,
			"-0.009": 2.22070247715,
			"-0.008": 7.12176295525,
			"-0.007": 16.2520838142,
			"-0.006": 24.0089821639,
			"-0.005": 29.8154418622,
			"-0.004": 28.5837318239,
			"-0.003": 25.6672289931,
			"-0.002": 15.0531915848,
			"-0.001": 13.7081774343,
			"0.0": 13.2266305355,
			"0.001": 14.4104728859,
			"0.002": 19.2069324649,
			"0.003": 16.4039856185,
			"0.004": 8.92171483018,
			"0.005": 9.88817299378,
			"0.006": 15.5880356849,
			"0.007": 18.4877521648,
			"0.008": 12.2752988161,
			"0.009": 7.12905128893,
			"0.01": 1.62734020933,
			"0.011": 3.49400998914,
			"0.012": 5.20441873893,
			"0.013": 4.06191926222,
			"0.014": 1.01464224786,
			"0.015": 0.524641255626,
			"0.016": 0.354714250291,
			"0.017": 0.0,
			"0.018": 0.0,
			"0.019": 0.0,
			"0.02": 0.0,
			"0.021": 0.0,
			"0.022": 0.0,
			"0.023": 0.0,
			"0.024": 0.0,
			"0.025": 0.0
		}
	}
}
