{
	 "smiles": "O=C1C2=C(C=CC=C2)C(=O)C1=C1NC2=C(C=CC=C2)C=C1", 
	 "Tm": 513.15, 
	 "num_atms": 32, 
	 "gaussian": { 
		 "optdone": 1, 
		 "sigma_profile": "yes", 
		 "theory": "DFT", 
		 "functional": "B3LYP", 
		 "basiset": "6-31G**", 
		 "properties": { 
			 "R2extent": 7916.9074, 
			 "electric_dipole_moment_norm": 3.37898330567, 
			 "electric_quadrupole_moment_norm": 20.9992954082, 
			 "total_energy": -897.781405355, 
			 "HOMO_LUMO_gap": 0.12745, 
			 "cosmo_polarized_energy": -13.77, 
			 "cosmo_cavitation_energy": 36.59, 
			 "cosmo_dispersion_energy": -27.02, 
			 "cosmo_repulsion_energy": 1.97, 
			 "cosmo_total_nonelectrostatic_energy": 11.54, 
			 "SMD_solvation_energy": 6.2 
		},
		"coords": [
			{
				"x": -0.7978325221,
				"y": 0.253600221,
				"z": -2.2770016575,
				"element": "O" 
			},
			{
				"x": 0.3310377934,
				"y": 0.3644191445,
				"z": -1.8027484981,
				"element": "C" 
			},
			{
				"x": 1.4635280534,
				"y": 1.1312175248,
				"z": -2.4343920002,
				"element": "C" 
			},
			{
				"x": 2.5993523097,
				"y": 1.0413823094,
				"z": -1.6174035687,
				"element": "C" 
			},
			{
				"x": 3.7907939624,
				"y": 1.6622798654,
				"z": -1.967732217,
				"element": "C" 
			},
			{
				"x": 3.8235831775,
				"y": 2.3846724654,
				"z": -3.1683518047,
				"element": "C" 
			},
			{
				"x": 2.6892324757,
				"y": 2.4746462576,
				"z": -3.9848443568,
				"element": "C" 
			},
			{
				"x": 1.4898460829,
				"y": 1.8448124621,
				"z": -3.6239274873,
				"element": "C" 
			},
			{
				"x": 2.2616643713,
				"y": 0.2136841794,
				"z": -0.4179383674,
				"element": "C" 
			},
			{
				"x": 3.0375962698,
				"y": -0.0672929522,
				"z": 0.5128024846,
				"element": "O" 
			},
			{
				"x": 0.8730020261,
				"y": -0.1850907704,
				"z": -0.5574449422,
				"element": "C" 
			},
			{
				"x": 0.2027312906,
				"y": -0.9755398157,
				"z": 0.3847189361,
				"element": "C" 
			},
			{
				"x": 0.892787793,
				"y": -1.3905299416,
				"z": 1.4890178379,
				"element": "N" 
			},
			{
				"x": 0.3657050375,
				"y": -2.1684873067,
				"z": 2.4934936731,
				"element": "C" 
			},
			{
				"x": -0.9891055663,
				"y": -2.580702328,
				"z": 2.3961279329,
				"element": "C" 
			},
			{
				"x": -1.5294972824,
				"y": -3.3783798629,
				"z": 3.4258909075,
				"element": "C" 
			},
			{
				"x": -0.7554807541,
				"y": -3.7529620135,
				"z": 4.5110503006,
				"element": "C" 
			},
			{
				"x": 0.5866096521,
				"y": -3.335621816,
				"z": 4.5923731516,
				"element": "C" 
			},
			{
				"x": 1.1488204002,
				"y": -2.5514237229,
				"z": 3.5980933901,
				"element": "C" 
			},
			{
				"x": -1.734047925,
				"y": -2.1566567667,
				"z": 1.2445446694,
				"element": "C" 
			},
			{
				"x": -1.1701742368,
				"y": -1.385714848,
				"z": 0.2735007023,
				"element": "C" 
			},
			{
				"x": 4.6633964202,
				"y": 1.5851916047,
				"z": -1.3264483897,
				"element": "H" 
			},
			{
				"x": 4.7401267923,
				"y": 2.8824732178,
				"z": -3.472035237,
				"element": "H" 
			},
			{
				"x": 2.7425272555,
				"y": 3.0412023137,
				"z": -4.9102532811,
				"element": "H" 
			},
			{
				"x": 0.6031662408,
				"y": 1.9065249225,
				"z": -4.247407007,
				"element": "H" 
			},
			{
				"x": 1.8722037535,
				"y": -1.0671035807,
				"z": 1.5157000306,
				"element": "H" 
			},
			{
				"x": -2.5665295397,
				"y": -3.6942482905,
				"z": 3.3519219218,
				"element": "H" 
			},
			{
				"x": -1.1799974872,
				"y": -4.3669896383,
				"z": 5.2987258264,
				"element": "H" 
			},
			{
				"x": 1.191605552,
				"y": -3.6306703699,
				"z": 5.4443665038,
				"element": "H" 
			},
			{
				"x": 2.1839759901,
				"y": -2.2285356365,
				"z": 3.6590505881,
				"element": "H" 
			},
			{
				"x": -2.7725785381,
				"y": -2.4657783437,
				"z": 1.1584681195,
				"element": "H" 
			},
			{
				"x": -1.7101488484,
				"y": -1.0527784843,
				"z": -0.6043181618,
				"element": "H" 
			}
		],
		 "valence_orbital": [ 
			{
				"type": "occ",
				"energy": -0.25756,
				"method": "rhf"
			},
			{
				"type": "occ",
				"energy": -0.25651,
				"method": "rhf"
			},
			{
				"type": "occ",
				"energy": -0.25507,
				"method": "rhf"
			},
			{
				"type": "occ",
				"energy": -0.2319,
				"method": "rhf"
			},
			{
				"type": "occ",
				"energy": -0.20507,
				"method": "rhf"
			},
			{
				"type": "unocc",
				"energy": -0.07762,
				"method": "rhf"
			},
			{
				"type": "unocc",
				"energy": -0.05977,
				"method": "rhf"
			},
			{
				"type": "unocc",
				"energy": -0.03723,
				"method": "rhf"
			},
			{
				"type": "unocc",
				"energy": -0.0103,
				"method": "rhf"
			},
			{
				"type": "unocc",
				"energy": 0.00423,
				"method": "rhf"
			}
		],
		"cosmo_sigma_profile": { 
			"-0.025": 0.0,
			"-0.024": 0.0,
			"-0.023": 0.0,
			"-0.022": 0.0,
			"-0.021": 0.0,
			"-0.02": 0.0,
			"-0.019": 0.0,
			"-0.018": 0.0,
			"-0.017": 0.0,
			"-0.016": 0.0,
			"-0.015": 0.0,
			"-0.014": 0.0,
			"-0.013": 0.0,
			"-0.012": 0.0259055608873,
			"-0.011": 0.59457757196,
			"-0.01": 1.13411328701,
			"-0.009": 1.29006147491,
			"-0.008": 4.67259521696,
			"-0.007": 11.2973110581,
			"-0.006": 19.4758666913,
			"-0.005": 20.5413968878,
			"-0.004": 18.7930794486,
			"-0.003": 14.2842794095,
			"-0.002": 16.7546262028,
			"-0.001": 24.694670868,
			"0.0": 27.6599818117,
			"0.001": 33.4632136895,
			"0.002": 28.361493388,
			"0.003": 25.5702571815,
			"0.004": 14.2024098951,
			"0.005": 3.42941173969,
			"0.006": 3.1038705529,
			"0.007": 2.47158244476,
			"0.008": 3.37229296559,
			"0.009": 3.35318529221,
			"0.01": 3.80355300306,
			"0.011": 3.45420364807,
			"0.012": 5.74230438025,
			"0.013": 4.010081915,
			"0.014": 0.66605272484,
			"0.015": 0.0,
			"0.016": 0.0,
			"0.017": 0.0,
			"0.018": 0.0,
			"0.019": 0.0,
			"0.02": 0.0,
			"0.021": 0.0,
			"0.022": 0.0,
			"0.023": 0.0,
			"0.024": 0.0,
			"0.025": 0.0
		}
	}
}
