{
	 "smiles": "COC1=CC=CC(=C1C)[N+]([O-])=O", 
	 "Tm": 327.15, 
	 "num_atms": 21, 
	 "gaussian": { 
		 "optdone": 1, 
		 "sigma_profile": "yes", 
		 "theory": "DFT", 
		 "functional": "B3LYP", 
		 "basiset": "6-31G**", 
		 "properties": { 
			 "R2extent": 4097.4247, 
			 "electric_dipole_moment_norm": 5.78097778321, 
			 "electric_quadrupole_moment_norm": 18.321845654, 
			 "total_energy": -590.587533601, 
			 "HOMO_LUMO_gap": 0.15832, 
			 "cosmo_polarized_energy": -9.19, 
			 "cosmo_cavitation_energy": 24.92, 
			 "cosmo_dispersion_energy": -18.46, 
			 "cosmo_repulsion_energy": 1.46, 
			 "cosmo_total_nonelectrostatic_energy": 7.92, 
			 "SMD_solvation_energy": 7.29 
		},
		"coords": [
			{
				"x": -2.2106936247,
				"y": -1.591103528,
				"z": -0.848638101,
				"element": "C" 
			},
			{
				"x": -1.1130309686,
				"y": -2.1300734007,
				"z": -0.1276421529,
				"element": "O" 
			},
			{
				"x": 0.1515447869,
				"y": -1.7528886352,
				"z": -0.4743535512,
				"element": "C" 
			},
			{
				"x": 0.4242768162,
				"y": -0.8287925057,
				"z": -1.487425826,
				"element": "C" 
			},
			{
				"x": 1.7450059393,
				"y": -0.4930055382,
				"z": -1.7933675354,
				"element": "C" 
			},
			{
				"x": 2.7910980171,
				"y": -1.0727413054,
				"z": -1.0942273799,
				"element": "C" 
			},
			{
				"x": 2.4946713882,
				"y": -1.9812284499,
				"z": -0.0724476378,
				"element": "C" 
			},
			{
				"x": 1.1906742312,
				"y": -2.3663970115,
				"z": 0.2705027624,
				"element": "C" 
			},
			{
				"x": 0.8322900278,
				"y": -3.3822215512,
				"z": 1.3276684126,
				"element": "C" 
			},
			{
				"x": 3.658635078,
				"y": -2.5227132174,
				"z": 0.6541290662,
				"element": "N" 
			},
			{
				"x": 4.734564123,
				"y": -2.5542176983,
				"z": 0.0560659006,
				"element": "O" 
			},
			{
				"x": 3.5020269176,
				"y": -2.8900354737,
				"z": 1.8189161686,
				"element": "O" 
			},
			{
				"x": -3.1031321366,
				"y": -2.0441070469,
				"z": -0.4149910899,
				"element": "H" 
			},
			{
				"x": -2.2705352454,
				"y": -0.5009554601,
				"z": -0.7389189466,
				"element": "H" 
			},
			{
				"x": -2.1580629436,
				"y": -1.8444014378,
				"z": -1.9150479458,
				"element": "H" 
			},
			{
				"x": -0.3838822217,
				"y": -0.3679211785,
				"z": -2.0418068577,
				"element": "H" 
			},
			{
				"x": 1.9487666243,
				"y": 0.225828111,
				"z": -2.5804945761,
				"element": "H" 
			},
			{
				"x": 3.8258829147,
				"y": -0.8414516687,
				"z": -1.3088294082,
				"element": "H" 
			},
			{
				"x": 1.5649857273,
				"y": -4.1876309851,
				"z": 1.3783307039,
				"element": "H" 
			},
			{
				"x": 0.8077996321,
				"y": -2.919554883,
				"z": 2.3196826686,
				"element": "H" 
			},
			{
				"x": -0.1542850832,
				"y": -3.7963871356,
				"z": 1.1204953256,
				"element": "H" 
			}
		],
		 "valence_orbital": [ 
			{
				"type": "occ",
				"energy": -0.30207,
				"method": "rhf"
			},
			{
				"type": "occ",
				"energy": -0.29873,
				"method": "rhf"
			},
			{
				"type": "occ",
				"energy": -0.28739,
				"method": "rhf"
			},
			{
				"type": "occ",
				"energy": -0.26629,
				"method": "rhf"
			},
			{
				"type": "occ",
				"energy": -0.23666,
				"method": "rhf"
			},
			{
				"type": "unocc",
				"energy": -0.07834,
				"method": "rhf"
			},
			{
				"type": "unocc",
				"energy": -0.01372,
				"method": "rhf"
			},
			{
				"type": "unocc",
				"energy": 0.00643,
				"method": "rhf"
			},
			{
				"type": "unocc",
				"energy": 0.0771,
				"method": "rhf"
			},
			{
				"type": "unocc",
				"energy": 0.09123,
				"method": "rhf"
			}
		],
		"cosmo_sigma_profile": { 
			"-0.025": 0.0,
			"-0.024": 0.0,
			"-0.023": 0.0,
			"-0.022": 0.0,
			"-0.021": 0.0,
			"-0.02": 0.0,
			"-0.019": 0.0,
			"-0.018": 0.0,
			"-0.017": 0.0,
			"-0.016": 0.0,
			"-0.015": 0.0,
			"-0.014": 0.0,
			"-0.013": 0.0,
			"-0.012": 0.0,
			"-0.011": 0.0,
			"-0.01": 0.0,
			"-0.009": 0.0,
			"-0.008": 0.601458554173,
			"-0.007": 6.57951837833,
			"-0.006": 13.9620084384,
			"-0.005": 16.5248868243,
			"-0.004": 16.7926427217,
			"-0.003": 14.7704221061,
			"-0.002": 14.2137458673,
			"-0.001": 13.8928237679,
			"0.0": 15.8201960655,
			"0.001": 17.2720533921,
			"0.002": 13.3387865413,
			"0.003": 11.9478540541,
			"0.004": 7.38794993472,
			"0.005": 4.87344078523,
			"0.006": 5.96174947499,
			"0.007": 6.38592563473,
			"0.008": 9.60189131506,
			"0.009": 4.88061161621,
			"0.01": 3.22592415303,
			"0.011": 0.371283356845,
			"0.012": 0.0,
			"0.013": 0.0,
			"0.014": 0.0,
			"0.015": 0.0,
			"0.016": 0.0,
			"0.017": 0.0,
			"0.018": 0.0,
			"0.019": 0.0,
			"0.02": 0.0,
			"0.021": 0.0,
			"0.022": 0.0,
			"0.023": 0.0,
			"0.024": 0.0,
			"0.025": 0.0
		}
	}
}
