{
	 "smiles": "CC1(CCCC2(C)C1CCC1=CC=C(O)C=C21)C(O)=O", 
	 "Tm": 467.15, 
	 "num_atms": 42, 
	 "gaussian": { 
		 "optdone": 1, 
		 "sigma_profile": "yes", 
		 "theory": "DFT", 
		 "functional": "B3LYP", 
		 "basiset": "6-31G**", 
		 "properties": { 
			 "R2extent": 6190.0238, 
			 "electric_dipole_moment_norm": 1.93327999524, 
			 "electric_quadrupole_moment_norm": 13.6454035569, 
			 "total_energy": -886.762934464, 
			 "HOMO_LUMO_gap": 0.20979, 
			 "cosmo_polarized_energy": -14.18, 
			 "cosmo_cavitation_energy": 38.7, 
			 "cosmo_dispersion_energy": -27.9, 
			 "cosmo_repulsion_energy": 2.08, 
			 "cosmo_total_nonelectrostatic_energy": 12.87, 
			 "SMD_solvation_energy": 6.9 
		},
		"coords": [
			{
				"x": -1.9771842269,
				"y": 0.2860724151,
				"z": -1.7532236995,
				"element": "C" 
			},
			{
				"x": -1.772956531,
				"y": 0.0332460089,
				"z": -0.2395313744,
				"element": "C" 
			},
			{
				"x": -2.2840654102,
				"y": 1.2539340092,
				"z": 0.5730763965,
				"element": "C" 
			},
			{
				"x": -1.6197716793,
				"y": 1.3565412373,
				"z": 1.9446555082,
				"element": "C" 
			},
			{
				"x": -0.0969229508,
				"y": 1.5697577879,
				"z": 1.8444437964,
				"element": "C" 
			},
			{
				"x": 0.5880383673,
				"y": 0.9136375446,
				"z": 0.5888309841,
				"element": "C" 
			},
			{
				"x": 0.7211479223,
				"y": 1.9570913952,
				"z": -0.5505358167,
				"element": "C" 
			},
			{
				"x": -0.2429549129,
				"y": -0.3137440847,
				"z": 0.0718193189,
				"element": "C" 
			},
			{
				"x": -0.0250931289,
				"y": -1.5232017088,
				"z": 1.005918919,
				"element": "C" 
			},
			{
				"x": 1.4274226472,
				"y": -1.9872965124,
				"z": 0.9105714226,
				"element": "C" 
			},
			{
				"x": 2.4007952212,
				"y": -0.8592705536,
				"z": 1.1617796102,
				"element": "C" 
			},
			{
				"x": 3.7068066381,
				"y": -1.1550372704,
				"z": 1.5725130561,
				"element": "C" 
			},
			{
				"x": 4.6385569615,
				"y": -0.1601990065,
				"z": 1.847524779,
				"element": "C" 
			},
			{
				"x": 4.2499835797,
				"y": 1.1761346198,
				"z": 1.7229253467,
				"element": "C" 
			},
			{
				"x": 5.0920044851,
				"y": 2.2224674599,
				"z": 1.9917887212,
				"element": "O" 
			},
			{
				"x": 2.9545486625,
				"y": 1.486610462,
				"z": 1.311372904,
				"element": "C" 
			},
			{
				"x": 2.0160798808,
				"y": 0.4873767858,
				"z": 1.0102199579,
				"element": "C" 
			},
			{
				"x": -2.644395431,
				"y": -1.170242051,
				"z": 0.1477885618,
				"element": "C" 
			},
			{
				"x": -2.5896712793,
				"y": -2.1809847502,
				"z": -0.7612770569,
				"element": "O" 
			},
			{
				"x": -3.3295691088,
				"y": -1.2668020188,
				"z": 1.1440156459,
				"element": "O" 
			},
			{
				"x": -1.686651321,
				"y": -0.5844109052,
				"z": -2.3447531323,
				"element": "H" 
			},
			{
				"x": -3.0291409749,
				"y": 0.5039912265,
				"z": -1.9695891039,
				"element": "H" 
			},
			{
				"x": -1.3864182882,
				"y": 1.1408587688,
				"z": -2.0862457155,
				"element": "H" 
			},
			{
				"x": -2.1002863875,
				"y": 2.1702225505,
				"z": 0.0015649586,
				"element": "H" 
			},
			{
				"x": -3.3684458855,
				"y": 1.1732131563,
				"z": 0.6882484548,
				"element": "H" 
			},
			{
				"x": -1.8446835362,
				"y": 0.4409244032,
				"z": 2.5008282584,
				"element": "H" 
			},
			{
				"x": -2.066498491,
				"y": 2.1769647108,
				"z": 2.5180960356,
				"element": "H" 
			},
			{
				"x": 0.1253176415,
				"y": 2.6434279279,
				"z": 1.8221330845,
				"element": "H" 
			},
			{
				"x": 0.3754818763,
				"y": 1.1894406688,
				"z": 2.7549687337,
				"element": "H" 
			},
			{
				"x": 1.3413053609,
				"y": 2.8027111641,
				"z": -0.2461302499,
				"element": "H" 
			},
			{
				"x": 1.1847989056,
				"y": 1.5103020441,
				"z": -1.4365066521,
				"element": "H" 
			},
			{
				"x": -0.2449672976,
				"y": 2.3697721269,
				"z": -0.8429500722,
				"element": "H" 
			},
			{
				"x": 0.1907311818,
				"y": -0.6042695618,
				"z": -0.8945041699,
				"element": "H" 
			},
			{
				"x": -0.6711954652,
				"y": -2.3571247705,
				"z": 0.7235329316,
				"element": "H" 
			},
			{
				"x": -0.2696708664,
				"y": -1.2634935604,
				"z": 2.0424414739,
				"element": "H" 
			},
			{
				"x": 1.5954332929,
				"y": -2.4164739435,
				"z": -0.0890828806,
				"element": "H" 
			},
			{
				"x": 1.6134205244,
				"y": -2.800727869,
				"z": 1.6222386229,
				"element": "H" 
			},
			{
				"x": 3.9967241585,
				"y": -2.1971767232,
				"z": 1.6868523189,
				"element": "H" 
			},
			{
				"x": 5.6462942153,
				"y": -0.417311371,
				"z": 2.167393946,
				"element": "H" 
			},
			{
				"x": 5.947599749,
				"y": 1.8717755297,
				"z": 2.2702847228,
				"element": "H" 
			},
			{
				"x": 2.7001442261,
				"y": 2.5380758069,
				"z": 1.2430879309,
				"element": "H" 
			},
			{
				"x": -3.1625923254,
				"y": -2.8810831494,
				"z": -0.4049864772,
				"element": "H" 
			}
		],
		 "valence_orbital": [ 
			{
				"type": "occ",
				"energy": -0.29222,
				"method": "rhf"
			},
			{
				"type": "occ",
				"energy": -0.28576,
				"method": "rhf"
			},
			{
				"type": "occ",
				"energy": -0.26574,
				"method": "rhf"
			},
			{
				"type": "occ",
				"energy": -0.2376,
				"method": "rhf"
			},
			{
				"type": "occ",
				"energy": -0.20939,
				"method": "rhf"
			},
			{
				"type": "unocc",
				"energy": 0.0004,
				"method": "rhf"
			},
			{
				"type": "unocc",
				"energy": 0.00992,
				"method": "rhf"
			},
			{
				"type": "unocc",
				"energy": 0.01911,
				"method": "rhf"
			},
			{
				"type": "unocc",
				"energy": 0.07281,
				"method": "rhf"
			},
			{
				"type": "unocc",
				"energy": 0.07476,
				"method": "rhf"
			}
		],
		"cosmo_sigma_profile": { 
			"-0.025": 0.0,
			"-0.024": 0.0,
			"-0.023": 0.0,
			"-0.022": 0.0,
			"-0.021": 0.0,
			"-0.02": 0.0,
			"-0.019": 0.0,
			"-0.018": 0.327049922779,
			"-0.017": 1.98506102232,
			"-0.016": 1.52640235158,
			"-0.015": 2.06391232832,
			"-0.014": 1.64161608175,
			"-0.013": 1.87680053171,
			"-0.012": 1.37247551056,
			"-0.011": 1.37574884133,
			"-0.01": 2.46818199285,
			"-0.009": 1.64090782236,
			"-0.008": 1.69785506463,
			"-0.007": 1.67911248977,
			"-0.006": 3.40813499286,
			"-0.005": 8.00523575434,
			"-0.004": 12.4864948308,
			"-0.003": 28.6898796832,
			"-0.002": 37.2474189237,
			"-0.001": 39.3145366154,
			"0.0": 35.1305264594,
			"0.001": 26.3041498611,
			"0.002": 14.1131490183,
			"0.003": 10.8125892529,
			"0.004": 11.1129319969,
			"0.005": 12.1599502984,
			"0.006": 12.3426317577,
			"0.007": 8.00196107745,
			"0.008": 4.3517035457,
			"0.009": 3.21225024025,
			"0.01": 3.2173699304,
			"0.011": 4.73547323353,
			"0.012": 5.98014192927,
			"0.013": 0.384008681461,
			"0.014": 0.0,
			"0.015": 0.0,
			"0.016": 0.0,
			"0.017": 0.0,
			"0.018": 0.0,
			"0.019": 0.0,
			"0.02": 0.0,
			"0.021": 0.0,
			"0.022": 0.0,
			"0.023": 0.0,
			"0.024": 0.0,
			"0.025": 0.0
		}
	}
}
