{
	 "smiles": "CN(C)C1=CC=C(C=C1)C(=O)C1=CC=C(C=C1)N(C)C", 
	 "Tm": 450.15, 
	 "num_atms": 40, 
	 "gaussian": { 
		 "optdone": 1, 
		 "sigma_profile": "yes", 
		 "theory": "DFT", 
		 "functional": "B3LYP", 
		 "basiset": "6-31G**", 
		 "properties": { 
			 "R2extent": 9773.1684, 
			 "electric_dipole_moment_norm": 4.97185247368, 
			 "electric_quadrupole_moment_norm": 37.5884077928, 
			 "total_energy": -844.584220442, 
			 "HOMO_LUMO_gap": 0.15498, 
			 "cosmo_polarized_energy": -16.32, 
			 "cosmo_cavitation_energy": 41.82, 
			 "cosmo_dispersion_energy": -30.36, 
			 "cosmo_repulsion_energy": 2.29, 
			 "cosmo_total_nonelectrostatic_energy": 13.74, 
			 "SMD_solvation_energy": 6.83 
		},
		"coords": [
			{
				"x": 2.387629472,
				"y": 3.4826124751,
				"z": 2.6138673133,
				"element": "C" 
			},
			{
				"x": 1.1911786108,
				"y": 2.8055925624,
				"z": 3.0843772204,
				"element": "N" 
			},
			{
				"x": 0.7105817129,
				"y": 3.092742073,
				"z": 4.4259618655,
				"element": "C" 
			},
			{
				"x": 0.7245635146,
				"y": 1.6895071876,
				"z": 2.4115904408,
				"element": "C" 
			},
			{
				"x": 1.2952747535,
				"y": 1.2756939384,
				"z": 1.184613088,
				"element": "C" 
			},
			{
				"x": 0.7931191457,
				"y": 0.1779220495,
				"z": 0.4958980439,
				"element": "C" 
			},
			{
				"x": -0.2830348972,
				"y": -0.5736623917,
				"z": 0.9938223069,
				"element": "C" 
			},
			{
				"x": -0.8197181231,
				"y": -0.1887898524,
				"z": 2.2343227692,
				"element": "C" 
			},
			{
				"x": -0.3452457823,
				"y": 0.9136499446,
				"z": 2.9253905997,
				"element": "C" 
			},
			{
				"x": -0.8210432408,
				"y": -1.805917789,
				"z": 0.3457681684,
				"element": "C" 
			},
			{
				"x": -1.3654915066,
				"y": -2.6695744877,
				"z": 1.0364458406,
				"element": "O" 
			},
			{
				"x": -0.7074815607,
				"y": -2.003894546,
				"z": -1.1292767603,
				"element": "C" 
			},
			{
				"x": -0.6505815786,
				"y": -0.9602845468,
				"z": -2.066616593,
				"element": "C" 
			},
			{
				"x": -0.6193482205,
				"y": -1.2098601526,
				"z": -3.4334771401,
				"element": "C" 
			},
			{
				"x": -0.6255905276,
				"y": -2.533909864,
				"z": -3.9327911859,
				"element": "C" 
			},
			{
				"x": -0.7087534954,
				"y": -3.5856005933,
				"z": -2.9854349754,
				"element": "C" 
			},
			{
				"x": -0.7583541496,
				"y": -3.3169084234,
				"z": -1.6277177033,
				"element": "C" 
			},
			{
				"x": -0.5545355659,
				"y": -2.7933026728,
				"z": -5.2905227351,
				"element": "N" 
			},
			{
				"x": -0.7514689363,
				"y": -4.1487614511,
				"z": -5.777605296,
				"element": "C" 
			},
			{
				"x": -0.6274436064,
				"y": -1.6948799916,
				"z": -6.2388199223,
				"element": "C" 
			},
			{
				"x": 2.2623131908,
				"y": 3.8343262682,
				"z": 1.5832192595,
				"element": "H" 
			},
			{
				"x": 2.5737875343,
				"y": 4.3569363428,
				"z": 3.2392846705,
				"element": "H" 
			},
			{
				"x": 3.2816644456,
				"y": 2.8411781999,
				"z": 2.6463385017,
				"element": "H" 
			},
			{
				"x": 1.1686960666,
				"y": 4.0176298468,
				"z": 4.7793257216,
				"element": "H" 
			},
			{
				"x": 0.9513015415,
				"y": 2.2944992691,
				"z": 5.1442034116,
				"element": "H" 
			},
			{
				"x": -0.3758507693,
				"y": 3.2381417972,
				"z": 4.434752497,
				"element": "H" 
			},
			{
				"x": 2.1435319761,
				"y": 1.8052115831,
				"z": 0.7688579392,
				"element": "H" 
			},
			{
				"x": 1.2752670787,
				"y": -0.1180293771,
				"z": -0.4300050392,
				"element": "H" 
			},
			{
				"x": -1.6250554876,
				"y": -0.7867141994,
				"z": 2.6487019285,
				"element": "H" 
			},
			{
				"x": -0.8013929906,
				"y": 1.1711497687,
				"z": 3.8733702423,
				"element": "H" 
			},
			{
				"x": -0.66746016,
				"y": 0.0705203215,
				"z": -1.7282210914,
				"element": "H" 
			},
			{
				"x": -0.6018872778,
				"y": -0.3677730226,
				"z": -4.1142199855,
				"element": "H" 
			},
			{
				"x": -0.7421725786,
				"y": -4.6168169845,
				"z": -3.3148681515,
				"element": "H" 
			},
			{
				"x": -0.8433067585,
				"y": -4.1299322122,
				"z": -0.9138816321,
				"element": "H" 
			},
			{
				"x": -0.0026925926,
				"y": -4.8323852787,
				"z": -5.3608827883,
				"element": "H" 
			},
			{
				"x": -1.7474864,
				"y": -4.5478416026,
				"z": -5.5334690663,
				"element": "H" 
			},
			{
				"x": -0.6378000495,
				"y": -4.1587015607,
				"z": -6.8625563003,
				"element": "H" 
			},
			{
				"x": -1.583203731,
				"y": -1.1509732525,
				"z": -6.1891789398,
				"element": "H" 
			},
			{
				"x": -0.5116251763,
				"y": -2.0867082325,
				"z": -7.2503907731,
				"element": "H" 
			},
			{
				"x": 0.1802161195,
				"y": -0.973291143,
				"z": -6.0694757495,
				"element": "H" 
			}
		],
		 "valence_orbital": [ 
			{
				"type": "occ",
				"energy": -0.24336,
				"method": "rhf"
			},
			{
				"type": "occ",
				"energy": -0.24143,
				"method": "rhf"
			},
			{
				"type": "occ",
				"energy": -0.22254,
				"method": "rhf"
			},
			{
				"type": "occ",
				"energy": -0.19145,
				"method": "rhf"
			},
			{
				"type": "occ",
				"energy": -0.18851,
				"method": "rhf"
			},
			{
				"type": "unocc",
				"energy": -0.03353,
				"method": "rhf"
			},
			{
				"type": "unocc",
				"energy": 0.00507,
				"method": "rhf"
			},
			{
				"type": "unocc",
				"energy": 0.01186,
				"method": "rhf"
			},
			{
				"type": "unocc",
				"energy": 0.0197,
				"method": "rhf"
			},
			{
				"type": "unocc",
				"energy": 0.08407,
				"method": "rhf"
			}
		],
		"cosmo_sigma_profile": { 
			"-0.025": 0.0,
			"-0.024": 0.0,
			"-0.023": 0.0,
			"-0.022": 0.0,
			"-0.021": 0.0,
			"-0.02": 0.0,
			"-0.019": 0.0,
			"-0.018": 0.0,
			"-0.017": 0.0,
			"-0.016": 0.0,
			"-0.015": 0.0,
			"-0.014": 0.0,
			"-0.013": 0.0,
			"-0.012": 0.0,
			"-0.011": 0.0,
			"-0.01": 0.0,
			"-0.009": 0.0,
			"-0.008": 0.0605939385988,
			"-0.007": 3.17363579364,
			"-0.006": 10.1020280071,
			"-0.005": 25.4689858393,
			"-0.004": 37.2655179064,
			"-0.003": 41.1047228847,
			"-0.002": 43.0456424432,
			"-0.001": 29.4632089736,
			"0.0": 18.2747058911,
			"0.001": 16.6154533362,
			"0.002": 15.1310970305,
			"0.003": 14.8939206952,
			"0.004": 17.04691436,
			"0.005": 23.3410844112,
			"0.006": 16.7971444901,
			"0.007": 2.26151916951,
			"0.008": 1.90592568055,
			"0.009": 1.68640388782,
			"0.01": 1.65015486479,
			"0.011": 2.08317654998,
			"0.012": 2.10598675236,
			"0.013": 3.69940451861,
			"0.014": 3.8107729042,
			"0.015": 0.296182662545,
			"0.016": 0.0,
			"0.017": 0.0,
			"0.018": 0.0,
			"0.019": 0.0,
			"0.02": 0.0,
			"0.021": 0.0,
			"0.022": 0.0,
			"0.023": 0.0,
			"0.024": 0.0,
			"0.025": 0.0
		}
	}
}
