{
	 "smiles": "OS(=O)(=O)C1=CC2=CC(=CC=C2C=C1)S(O)(=O)=O", 
	 "Tm": 472.15, 
	 "num_atms": 26, 
	 "gaussian": { 
		 "optdone": 1, 
		 "sigma_profile": "yes", 
		 "theory": "DFT", 
		 "functional": "B3LYP", 
		 "basiset": "6-31G**", 
		 "properties": { 
			 "R2extent": 7575.5974, 
			 "electric_dipole_moment_norm": 5.27408199216, 
			 "electric_quadrupole_moment_norm": 19.452891317, 
			 "total_energy": -1633.47204009, 
			 "HOMO_LUMO_gap": 0.17403, 
			 "cosmo_polarized_energy": -24.32, 
			 "cosmo_cavitation_energy": 34.24, 
			 "cosmo_dispersion_energy": -26.31, 
			 "cosmo_repulsion_energy": 1.91, 
			 "cosmo_total_nonelectrostatic_energy": 9.85, 
			 "SMD_solvation_energy": 3.7 
		},
		"coords": [
			{
				"x": -1.3239315399,
				"y": 3.9217751473,
				"z": 2.7312521588,
				"element": "O" 
			},
			{
				"x": -1.4833876131,
				"y": 4.0974435894,
				"z": 1.1017693304,
				"element": "S" 
			},
			{
				"x": -2.8409891324,
				"y": 4.5891822031,
				"z": 0.8663693868,
				"element": "O" 
			},
			{
				"x": -0.3213466331,
				"y": 4.8135980497,
				"z": 0.5928255182,
				"element": "O" 
			},
			{
				"x": -1.365061406,
				"y": 2.3830978204,
				"z": 0.6206919476,
				"element": "C" 
			},
			{
				"x": -0.1653836952,
				"y": 1.9086406184,
				"z": 0.1443709296,
				"element": "C" 
			},
			{
				"x": -0.0581528541,
				"y": 0.5466978826,
				"z": -0.2405025239,
				"element": "C" 
			},
			{
				"x": 1.1610824964,
				"y": 0.0101552333,
				"z": -0.7314047206,
				"element": "C" 
			},
			{
				"x": 1.2197953996,
				"y": -1.3157665719,
				"z": -1.0917186346,
				"element": "C" 
			},
			{
				"x": 0.0929677431,
				"y": -2.1706356844,
				"z": -1.0026298057,
				"element": "C" 
			},
			{
				"x": -1.0935041765,
				"y": -1.6665707518,
				"z": -0.5261167849,
				"element": "C" 
			},
			{
				"x": -1.2057713563,
				"y": -0.3052505261,
				"z": -0.1312638266,
				"element": "C" 
			},
			{
				"x": -2.4250970235,
				"y": 0.2390816974,
				"z": 0.3572811961,
				"element": "C" 
			},
			{
				"x": -2.5126254283,
				"y": 1.5595164896,
				"z": 0.728406384,
				"element": "C" 
			},
			{
				"x": 2.7589385137,
				"y": -1.9783527179,
				"z": -1.7112656312,
				"element": "S" 
			},
			{
				"x": 3.2983942354,
				"y": -2.8258261113,
				"z": -0.408757729,
				"element": "O" 
			},
			{
				"x": 3.7062901636,
				"y": -0.8839689361,
				"z": -1.9212438517,
				"element": "O" 
			},
			{
				"x": 2.4533190082,
				"y": -2.9550062076,
				"z": -2.7443576268,
				"element": "O" 
			},
			{
				"x": -1.9297112039,
				"y": 4.565045208,
				"z": 3.1388241708,
				"element": "H" 
			},
			{
				"x": 0.6889757625,
				"y": 2.5718889649,
				"z": 0.0588745774,
				"element": "H" 
			},
			{
				"x": 2.036544112,
				"y": 0.6435041589,
				"z": -0.8304631957,
				"element": "H" 
			},
			{
				"x": 0.1765487105,
				"y": -3.203312838,
				"z": -1.3221606419,
				"element": "H" 
			},
			{
				"x": -1.9666674676,
				"y": -2.3082915326,
				"z": -0.4529949898,
				"element": "H" 
			},
			{
				"x": -3.2963991872,
				"y": -0.4053668208,
				"z": 0.4285050811,
				"element": "H" 
			},
			{
				"x": -3.4449957332,
				"y": 1.9826615838,
				"z": 1.0849639955,
				"element": "H" 
			},
			{
				"x": 4.0973683053,
				"y": -2.3709399485,
				"z": -0.0928547138,
				"element": "H" 
			}
		],
		 "valence_orbital": [ 
			{
				"type": "occ",
				"energy": -0.32468,
				"method": "rhf"
			},
			{
				"type": "occ",
				"energy": -0.31964,
				"method": "rhf"
			},
			{
				"type": "occ",
				"energy": -0.31242,
				"method": "rhf"
			},
			{
				"type": "occ",
				"energy": -0.28593,
				"method": "rhf"
			},
			{
				"type": "occ",
				"energy": -0.25962,
				"method": "rhf"
			},
			{
				"type": "unocc",
				"energy": -0.08559,
				"method": "rhf"
			},
			{
				"type": "unocc",
				"energy": -0.06792,
				"method": "rhf"
			},
			{
				"type": "unocc",
				"energy": -0.01104,
				"method": "rhf"
			},
			{
				"type": "unocc",
				"energy": 0.01461,
				"method": "rhf"
			},
			{
				"type": "unocc",
				"energy": 0.02643,
				"method": "rhf"
			}
		],
		"cosmo_sigma_profile": { 
			"-0.025": 0.0,
			"-0.024": 0.0,
			"-0.023": 0.0,
			"-0.022": 0.0,
			"-0.021": 0.0,
			"-0.02": 1.34939078189,
			"-0.019": 1.84543288839,
			"-0.018": 2.15890470367,
			"-0.017": 1.61242137467,
			"-0.016": 1.68861999364,
			"-0.015": 1.12944060221,
			"-0.014": 1.38425184245,
			"-0.013": 1.63766811877,
			"-0.012": 1.83553187887,
			"-0.011": 1.44685985659,
			"-0.01": 2.66584012442,
			"-0.009": 4.27380664556,
			"-0.008": 11.0411905562,
			"-0.007": 13.3249246694,
			"-0.006": 10.1319726816,
			"-0.005": 9.7905330808,
			"-0.004": 11.7921662036,
			"-0.003": 11.9010337565,
			"-0.002": 12.3023275222,
			"-0.001": 20.3562391319,
			"0.0": 28.2632314654,
			"0.001": 19.5294968018,
			"0.002": 12.3591656,
			"0.003": 7.70909816512,
			"0.004": 6.07355307156,
			"0.005": 6.99264885261,
			"0.006": 8.35808036414,
			"0.007": 10.0155433709,
			"0.008": 11.237764436,
			"0.009": 19.121701431,
			"0.01": 18.4615848018,
			"0.011": 3.39302785437,
			"0.012": 0.0,
			"0.013": 0.0,
			"0.014": 0.0,
			"0.015": 0.0,
			"0.016": 0.0,
			"0.017": 0.0,
			"0.018": 0.0,
			"0.019": 0.0,
			"0.02": 0.0,
			"0.021": 0.0,
			"0.022": 0.0,
			"0.023": 0.0,
			"0.024": 0.0,
			"0.025": 0.0
		}
	}
}
