{
	 "smiles": "FC(F)(F)C1=CC=C(C=C1)C1=NN=C(S)O1", 
	 "Tm": 429.15, 
	 "num_atms": 21, 
	 "gaussian": { 
		 "optdone": 1, 
		 "sigma_profile": "yes", 
		 "theory": "DFT", 
		 "functional": "B3LYP", 
		 "basiset": "6-31G**", 
		 "properties": { 
			 "R2extent": 6120.6305, 
			 "electric_dipole_moment_norm": 3.37212104468, 
			 "electric_quadrupole_moment_norm": 19.3328670722, 
			 "total_energy": -1228.3743615, 
			 "HOMO_LUMO_gap": 0.17374, 
			 "cosmo_polarized_energy": -11.92, 
			 "cosmo_cavitation_energy": 30.19, 
			 "cosmo_dispersion_energy": -22.26, 
			 "cosmo_repulsion_energy": 1.61, 
			 "cosmo_total_nonelectrostatic_energy": 9.54, 
			 "SMD_solvation_energy": 4.34 
		},
		"coords": [
			{
				"x": 1.2319205071,
				"y": 3.7036637586,
				"z": 1.7936871425,
				"element": "F" 
			},
			{
				"x": 0.7421674378,
				"y": 2.6056949684,
				"z": 2.4138934677,
				"element": "C" 
			},
			{
				"x": 1.7248123551,
				"y": 2.1310004953,
				"z": 3.2099538081,
				"element": "F" 
			},
			{
				"x": -0.2659076563,
				"y": 3.0209421684,
				"z": 3.2109729694,
				"element": "F" 
			},
			{
				"x": 0.2783924426,
				"y": 1.5732594706,
				"z": 1.4204177482,
				"element": "C" 
			},
			{
				"x": -1.0217864774,
				"y": 1.6376044887,
				"z": 0.9068125347,
				"element": "C" 
			},
			{
				"x": -1.4384456932,
				"y": 0.7202104328,
				"z": -0.0493825146,
				"element": "C" 
			},
			{
				"x": -0.5534554431,
				"y": -0.2728215345,
				"z": -0.5023831231,
				"element": "C" 
			},
			{
				"x": 0.7483844354,
				"y": -0.334746578,
				"z": 0.0165061466,
				"element": "C" 
			},
			{
				"x": 1.161018428,
				"y": 0.5868990751,
				"z": 0.9743025471,
				"element": "C" 
			},
			{
				"x": -1.0140548965,
				"y": -1.224832687,
				"z": -1.5049620671,
				"element": "C" 
			},
			{
				"x": -2.1774839586,
				"y": -1.302921239,
				"z": -2.0767567143,
				"element": "N" 
			},
			{
				"x": -2.1280271173,
				"y": -2.3781604502,
				"z": -2.9614308379,
				"element": "N" 
			},
			{
				"x": -0.9326595377,
				"y": -2.867654116,
				"z": -2.8545970086,
				"element": "C" 
			},
			{
				"x": -0.2852364327,
				"y": -4.2414165671,
				"z": -3.7335187068,
				"element": "S" 
			},
			{
				"x": -0.1559857868,
				"y": -2.2019127835,
				"z": -1.9556635439,
				"element": "O" 
			},
			{
				"x": -1.7055233214,
				"y": 2.3999804222,
				"z": 1.2636927093,
				"element": "H" 
			},
			{
				"x": -2.4440097806,
				"y": 0.7558954004,
				"z": -0.4535952742,
				"element": "H" 
			},
			{
				"x": 1.4317586221,
				"y": -1.1031074664,
				"z": -0.3276698153,
				"element": "H" 
			},
			{
				"x": 2.1644429337,
				"y": 0.5364438791,
				"z": 1.3820586098,
				"element": "H" 
			},
			{
				"x": 0.9249789398,
				"y": -4.184021138,
				"z": -3.1453380775,
				"element": "H" 
			}
		],
		 "valence_orbital": [ 
			{
				"type": "occ",
				"energy": -0.33684,
				"method": "rhf"
			},
			{
				"type": "occ",
				"energy": -0.29496,
				"method": "rhf"
			},
			{
				"type": "occ",
				"energy": -0.29148,
				"method": "rhf"
			},
			{
				"type": "occ",
				"energy": -0.28241,
				"method": "rhf"
			},
			{
				"type": "occ",
				"energy": -0.2459,
				"method": "rhf"
			},
			{
				"type": "unocc",
				"energy": -0.07216,
				"method": "rhf"
			},
			{
				"type": "unocc",
				"energy": -0.03127,
				"method": "rhf"
			},
			{
				"type": "unocc",
				"energy": -0.01306,
				"method": "rhf"
			},
			{
				"type": "unocc",
				"energy": -0.00164,
				"method": "rhf"
			},
			{
				"type": "unocc",
				"energy": 0.03577,
				"method": "rhf"
			}
		],
		"cosmo_sigma_profile": { 
			"-0.025": 0.0,
			"-0.024": 0.0,
			"-0.023": 0.0,
			"-0.022": 0.0,
			"-0.021": 0.0,
			"-0.02": 0.0,
			"-0.019": 0.0,
			"-0.018": 0.0,
			"-0.017": 0.0,
			"-0.016": 0.0,
			"-0.015": 0.0,
			"-0.014": 0.551026107486,
			"-0.013": 1.82936665096,
			"-0.012": 1.67333415779,
			"-0.011": 1.27221802349,
			"-0.01": 2.0287975542,
			"-0.009": 0.908747302118,
			"-0.008": 4.01615582546,
			"-0.007": 8.20429987276,
			"-0.006": 10.0689890418,
			"-0.005": 9.55489854181,
			"-0.004": 13.1233409423,
			"-0.003": 13.8448782229,
			"-0.002": 15.176817235,
			"-0.001": 18.6110672859,
			"0.0": 23.4525961532,
			"0.001": 30.7171096003,
			"0.002": 32.9848573695,
			"0.003": 28.0014403659,
			"0.004": 6.27239474685,
			"0.005": 4.09504317615,
			"0.006": 1.77124320822,
			"0.007": 1.66497431951,
			"0.008": 2.88325516413,
			"0.009": 2.04992668636,
			"0.01": 2.67487051484,
			"0.011": 3.80320355606,
			"0.012": 2.22403895708,
			"0.013": 2.36723248276,
			"0.014": 0.945145952865,
			"0.015": 0.170339099422,
			"0.016": 0.0,
			"0.017": 0.0,
			"0.018": 0.0,
			"0.019": 0.0,
			"0.02": 0.0,
			"0.021": 0.0,
			"0.022": 0.0,
			"0.023": 0.0,
			"0.024": 0.0,
			"0.025": 0.0
		}
	}
}
