{
	 "smiles": "CNC(=O)C1=CC(=CC=C1)C#N", 
	 "Tm": 414.15, 
	 "num_atms": 20, 
	 "gaussian": { 
		 "optdone": 1, 
		 "sigma_profile": "yes", 
		 "theory": "DFT", 
		 "functional": "B3LYP", 
		 "basiset": "6-31G**", 
		 "properties": { 
			 "R2extent": 2694.7733, 
			 "electric_dipole_moment_norm": 6.9695891823, 
			 "electric_quadrupole_moment_norm": 12.4782171824, 
			 "total_energy": -532.498288941, 
			 "HOMO_LUMO_gap": 0.19313, 
			 "cosmo_polarized_energy": -16.56, 
			 "cosmo_cavitation_energy": 25.6, 
			 "cosmo_dispersion_energy": -18.0, 
			 "cosmo_repulsion_energy": 1.45, 
			 "cosmo_total_nonelectrostatic_energy": 9.05, 
			 "SMD_solvation_energy": 6.18 
		},
		"coords": [
			{
				"x": 2.5188385028,
				"y": 1.9824176901,
				"z": 0.2016187558,
				"element": "C" 
			},
			{
				"x": 1.695331594,
				"y": 1.4806222723,
				"z": -0.8903741299,
				"element": "N" 
			},
			{
				"x": 0.5281881119,
				"y": 0.7623441125,
				"z": -0.8310922156,
				"element": "C" 
			},
			{
				"x": 0.1447358497,
				"y": 0.09538099,
				"z": -1.786833981,
				"element": "O" 
			},
			{
				"x": -0.3018437399,
				"y": 0.8336749593,
				"z": 0.4249252938,
				"element": "C" 
			},
			{
				"x": -1.0035423806,
				"y": -0.31985425,
				"z": 0.7885759333,
				"element": "C" 
			},
			{
				"x": -1.8446333148,
				"y": -0.3077077713,
				"z": 1.9089753656,
				"element": "C" 
			},
			{
				"x": -2.0123452243,
				"y": 0.8741903357,
				"z": 2.6531986848,
				"element": "C" 
			},
			{
				"x": -1.3383789225,
				"y": 2.0288906238,
				"z": 2.2683526917,
				"element": "C" 
			},
			{
				"x": -0.4829879255,
				"y": 2.0103750182,
				"z": 1.1642474514,
				"element": "C" 
			},
			{
				"x": -2.5435414773,
				"y": -1.4999898361,
				"z": 2.296399897,
				"element": "C" 
			},
			{
				"x": -3.1096850142,
				"y": -2.4631318617,
				"z": 2.6196574297,
				"element": "N" 
			},
			{
				"x": 2.1672994413,
				"y": 1.5882769052,
				"z": 1.1557663596,
				"element": "H" 
			},
			{
				"x": 2.5139988003,
				"y": 3.0782342126,
				"z": 0.2560424654,
				"element": "H" 
			},
			{
				"x": 3.5538514862,
				"y": 1.6537434701,
				"z": 0.0647180167,
				"element": "H" 
			},
			{
				"x": 2.1438309495,
				"y": 1.3772386777,
				"z": -1.7918287252,
				"element": "H" 
			},
			{
				"x": -0.8955043439,
				"y": -1.2154095917,
				"z": 0.1873740777,
				"element": "H" 
			},
			{
				"x": -2.6718859306,
				"y": 0.8767704122,
				"z": 3.514438643,
				"element": "H" 
			},
			{
				"x": -1.4816770327,
				"y": 2.9485203665,
				"z": 2.8269827797,
				"element": "H" 
			},
			{
				"x": 0.0224505705,
				"y": 2.9223132648,
				"z": 0.8635552067,
				"element": "H" 
			}
		],
		 "valence_orbital": [ 
			{
				"type": "occ",
				"energy": -0.33285,
				"method": "rhf"
			},
			{
				"type": "occ",
				"energy": -0.28479,
				"method": "rhf"
			},
			{
				"type": "occ",
				"energy": -0.27265,
				"method": "rhf"
			},
			{
				"type": "occ",
				"energy": -0.26656,
				"method": "rhf"
			},
			{
				"type": "occ",
				"energy": -0.25434,
				"method": "rhf"
			},
			{
				"type": "unocc",
				"energy": -0.06121,
				"method": "rhf"
			},
			{
				"type": "unocc",
				"energy": -0.04502,
				"method": "rhf"
			},
			{
				"type": "unocc",
				"energy": 0.02803,
				"method": "rhf"
			},
			{
				"type": "unocc",
				"energy": 0.03567,
				"method": "rhf"
			},
			{
				"type": "unocc",
				"energy": 0.06591,
				"method": "rhf"
			}
		],
		"cosmo_sigma_profile": { 
			"-0.025": 0.0,
			"-0.024": 0.0,
			"-0.023": 0.0,
			"-0.022": 0.0,
			"-0.021": 0.0,
			"-0.02": 0.0,
			"-0.019": 0.0,
			"-0.018": 0.0,
			"-0.017": 0.0,
			"-0.016": 0.0,
			"-0.015": 0.0,
			"-0.014": 0.331472721769,
			"-0.013": 1.14104206941,
			"-0.012": 1.03850962504,
			"-0.011": 1.31375233511,
			"-0.01": 0.968298813383,
			"-0.009": 1.33626688629,
			"-0.008": 4.59473987709,
			"-0.007": 10.6376044244,
			"-0.006": 13.2094744275,
			"-0.005": 14.7932936684,
			"-0.004": 14.6377653271,
			"-0.003": 19.328509446,
			"-0.002": 17.8561489252,
			"-0.001": 13.59075802,
			"0.0": 12.8819499077,
			"0.001": 14.6592607334,
			"0.002": 9.662782822,
			"0.003": 5.06929677972,
			"0.004": 4.36483818984,
			"0.005": 4.07607457694,
			"0.006": 3.99097912915,
			"0.007": 3.61376746283,
			"0.008": 5.11912342787,
			"0.009": 4.13615409875,
			"0.01": 4.74020584511,
			"0.011": 4.35410247519,
			"0.012": 4.28948779051,
			"0.013": 5.65352289619,
			"0.014": 4.07730439169,
			"0.015": 0.243859134387,
			"0.016": 0.0,
			"0.017": 0.0,
			"0.018": 0.0,
			"0.019": 0.0,
			"0.02": 0.0,
			"0.021": 0.0,
			"0.022": 0.0,
			"0.023": 0.0,
			"0.024": 0.0,
			"0.025": 0.0
		}
	}
}
