{
	 "smiles": "ClCC1=NN=C(O1)C1=CC=CO1", 
	 "Tm": 355.15, 
	 "num_atms": 17, 
	 "gaussian": { 
		 "optdone": 1, 
		 "sigma_profile": "yes", 
		 "theory": "DFT", 
		 "functional": "B3LYP", 
		 "basiset": "6-31G**", 
		 "properties": { 
			 "R2extent": 3716.7671, 
			 "electric_dipole_moment_norm": 4.09528917416, 
			 "electric_quadrupole_moment_norm": 14.368719277, 
			 "total_energy": -989.838557703, 
			 "HOMO_LUMO_gap": 0.17485, 
			 "cosmo_polarized_energy": -13.15, 
			 "cosmo_cavitation_energy": 24.92, 
			 "cosmo_dispersion_energy": -18.46, 
			 "cosmo_repulsion_energy": 1.49, 
			 "cosmo_total_nonelectrostatic_energy": 7.94, 
			 "SMD_solvation_energy": 3.4 
		},
		"coords": [
			{
				"x": -1.5757942148,
				"y": -3.1737886043,
				"z": 2.6832163742,
				"element": "Cl" 
			},
			{
				"x": -1.3105924712,
				"y": -1.549435374,
				"z": 3.466439329,
				"element": "C" 
			},
			{
				"x": -0.7978187986,
				"y": -0.5435260344,
				"z": 2.5128944751,
				"element": "C" 
			},
			{
				"x": -1.4138827091,
				"y": 0.4983356257,
				"z": 2.0501226664,
				"element": "N" 
			},
			{
				"x": -0.5229783483,
				"y": 1.1467345764,
				"z": 1.2010506876,
				"element": "N" 
			},
			{
				"x": 0.5695945386,
				"y": 0.4343250709,
				"z": 1.2149724812,
				"element": "C" 
			},
			{
				"x": 0.4747768811,
				"y": -0.6561414098,
				"z": 2.0311939253,
				"element": "O" 
			},
			{
				"x": 1.8086423463,
				"y": 0.6383110642,
				"z": 0.5133227272,
				"element": "C" 
			},
			{
				"x": 2.9745959407,
				"y": -0.083014946,
				"z": 0.4740894968,
				"element": "C" 
			},
			{
				"x": 3.8458551052,
				"y": 0.6241641909,
				"z": -0.4067796468,
				"element": "C" 
			},
			{
				"x": 3.1470451628,
				"y": 1.7159245217,
				"z": -0.8346233007,
				"element": "C" 
			},
			{
				"x": 1.90592588,
				"y": 1.7407400831,
				"z": -0.2848396092,
				"element": "O" 
			},
			{
				"x": -0.6123182681,
				"y": -1.7186881159,
				"z": 4.2867076967,
				"element": "H" 
			},
			{
				"x": -2.271405609,
				"y": -1.2096925511,
				"z": 3.8485405794,
				"element": "H" 
			},
			{
				"x": 3.1742503504,
				"y": -1.0009951212,
				"z": 1.0067513017,
				"element": "H" 
			},
			{
				"x": 4.8544593877,
				"y": 0.3553419361,
				"z": -0.6842625175,
				"element": "H" 
			},
			{
				"x": 3.3793448262,
				"y": 2.5331050876,
				"z": -1.4995966664,
				"element": "H" 
			}
		],
		 "valence_orbital": [ 
			{
				"type": "occ",
				"energy": -0.31148,
				"method": "rhf"
			},
			{
				"type": "occ",
				"energy": -0.30987,
				"method": "rhf"
			},
			{
				"type": "occ",
				"energy": -0.2989,
				"method": "rhf"
			},
			{
				"type": "occ",
				"energy": -0.28583,
				"method": "rhf"
			},
			{
				"type": "occ",
				"energy": -0.23622,
				"method": "rhf"
			},
			{
				"type": "unocc",
				"energy": -0.06137,
				"method": "rhf"
			},
			{
				"type": "unocc",
				"energy": -0.02345,
				"method": "rhf"
			},
			{
				"type": "unocc",
				"energy": 0.03084,
				"method": "rhf"
			},
			{
				"type": "unocc",
				"energy": 0.04391,
				"method": "rhf"
			},
			{
				"type": "unocc",
				"energy": 0.09147,
				"method": "rhf"
			}
		],
		"cosmo_sigma_profile": { 
			"-0.025": 0.0,
			"-0.024": 0.0,
			"-0.023": 0.0,
			"-0.022": 0.0,
			"-0.021": 0.0,
			"-0.02": 0.0,
			"-0.019": 0.0,
			"-0.018": 0.0,
			"-0.017": 0.0,
			"-0.016": 0.0,
			"-0.015": 0.0,
			"-0.014": 0.0,
			"-0.013": 0.0,
			"-0.012": 0.0,
			"-0.011": 0.36626441984,
			"-0.01": 5.15929979573,
			"-0.009": 6.88473182371,
			"-0.008": 8.53736830721,
			"-0.007": 9.7031373747,
			"-0.006": 9.19794951023,
			"-0.005": 9.54161722572,
			"-0.004": 10.2456076697,
			"-0.003": 9.82927065865,
			"-0.002": 11.5471850933,
			"-0.001": 13.0830399216,
			"0.0": 15.6079762171,
			"0.001": 14.3216395223,
			"0.002": 14.5825662157,
			"0.003": 14.0602204971,
			"0.004": 9.91114532767,
			"0.005": 12.6504723813,
			"0.006": 5.13277594876,
			"0.007": 3.34727777309,
			"0.008": 3.01061754595,
			"0.009": 3.11792864314,
			"0.01": 3.00607048411,
			"0.011": 3.69162111257,
			"0.012": 2.64686483363,
			"0.013": 2.46739838394,
			"0.014": 1.83146626119,
			"0.015": 0.363690794168,
			"0.016": 0.0,
			"0.017": 0.0,
			"0.018": 0.0,
			"0.019": 0.0,
			"0.02": 0.0,
			"0.021": 0.0,
			"0.022": 0.0,
			"0.023": 0.0,
			"0.024": 0.0,
			"0.025": 0.0
		}
	}
}
