{
	 "smiles": "OC(=O)C=CC1=CC(F)=C(C=C1)N1C=C(Br)C=N1", 
	 "Tm": 478.15, 
	 "num_atms": 26, 
	 "gaussian": { 
		 "optdone": 1, 
		 "sigma_profile": "yes", 
		 "theory": "DFT", 
		 "functional": "B3LYP", 
		 "basiset": "6-31G**", 
		 "properties": { 
			 "R2extent": 11581.454, 
			 "electric_dipole_moment_norm": 3.44532576399, 
			 "electric_quadrupole_moment_norm": 36.582783564, 
			 "total_energy": -3393.24932018, 
			 "HOMO_LUMO_gap": 0.14723, 
			 "cosmo_polarized_energy": -18.27, 
			 "cosmo_cavitation_energy": 35.1, 
			 "cosmo_dispersion_energy": -26.0, 
			 "cosmo_repulsion_energy": 1.96, 
			 "cosmo_total_nonelectrostatic_energy": 11.06, 
			 "SMD_solvation_energy": 6.33 
		},
		"coords": [
			{
				"x": 5.3398815261,
				"y": -4.7678394367,
				"z": 1.364828738,
				"element": "O" 
			},
			{
				"x": 4.0048566324,
				"y": -4.8630369996,
				"z": 1.1120515359,
				"element": "C" 
			},
			{
				"x": 3.468630074,
				"y": -5.9481217159,
				"z": 1.114508151,
				"element": "O" 
			},
			{
				"x": 3.304142965,
				"y": -3.5793704863,
				"z": 0.8466903406,
				"element": "C" 
			},
			{
				"x": 1.9835906903,
				"y": -3.5870684817,
				"z": 0.5877338018,
				"element": "C" 
			},
			{
				"x": 1.1172011957,
				"y": -2.446656285,
				"z": 0.3041073636,
				"element": "C" 
			},
			{
				"x": -0.2443806909,
				"y": -2.6835010903,
				"z": 0.0573998761,
				"element": "C" 
			},
			{
				"x": -1.1070146748,
				"y": -1.6358201378,
				"z": -0.2169706837,
				"element": "C" 
			},
			{
				"x": -2.4071871956,
				"y": -1.9354977177,
				"z": -0.4469543844,
				"element": "F" 
			},
			{
				"x": -0.668730495,
				"y": -0.3061046638,
				"z": -0.2599449075,
				"element": "C" 
			},
			{
				"x": 0.6947626907,
				"y": -0.0682048578,
				"z": -0.0127613598,
				"element": "C" 
			},
			{
				"x": 1.56418761,
				"y": -1.1109690925,
				"z": 0.261600089,
				"element": "C" 
			},
			{
				"x": -1.5273183025,
				"y": 0.7813982684,
				"z": -0.5375339183,
				"element": "N" 
			},
			{
				"x": -2.8781373083,
				"y": 0.7932999849,
				"z": -0.7834858861,
				"element": "C" 
			},
			{
				"x": -3.2147738283,
				"y": 2.1106489788,
				"z": -0.9891926455,
				"element": "C" 
			},
			{
				"x": -4.9260208197,
				"y": 2.7882494913,
				"z": -1.3743585595,
				"element": "Br" 
			},
			{
				"x": -2.012199708,
				"y": 2.8405587162,
				"z": -0.8516087745,
				"element": "C" 
			},
			{
				"x": -0.9957994216,
				"y": 2.0371963014,
				"z": -0.5788648502,
				"element": "N" 
			},
			{
				"x": 5.6268750693,
				"y": -3.8449928714,
				"z": 1.3293148053,
				"element": "H" 
			},
			{
				"x": 3.8771681867,
				"y": -2.6546818195,
				"z": 0.8672757249,
				"element": "H" 
			},
			{
				"x": 1.5076766662,
				"y": -4.5664780934,
				"z": 0.5912547843,
				"element": "H" 
			},
			{
				"x": -0.6513182578,
				"y": -3.68916444,
				"z": 0.0749636581,
				"element": "H" 
			},
			{
				"x": 1.0412630204,
				"y": 0.9564394813,
				"z": -0.0447865326,
				"element": "H" 
			},
			{
				"x": 2.6077207567,
				"y": -0.8796504862,
				"z": 0.4461289094,
				"element": "H" 
			},
			{
				"x": -3.475966662,
				"y": -0.0994318396,
				"z": -0.7932277544,
				"element": "H" 
			},
			{
				"x": -1.8609097188,
				"y": 3.9068992928,
				"z": -0.9418675213,
				"element": "H" 
			}
		],
		 "valence_orbital": [ 
			{
				"type": "occ",
				"energy": -0.2884,
				"method": "rhf"
			},
			{
				"type": "occ",
				"energy": -0.27795,
				"method": "rhf"
			},
			{
				"type": "occ",
				"energy": -0.27507,
				"method": "rhf"
			},
			{
				"type": "occ",
				"energy": -0.25943,
				"method": "rhf"
			},
			{
				"type": "occ",
				"energy": -0.23337,
				"method": "rhf"
			},
			{
				"type": "unocc",
				"energy": -0.08614,
				"method": "rhf"
			},
			{
				"type": "unocc",
				"energy": -0.03096,
				"method": "rhf"
			},
			{
				"type": "unocc",
				"energy": -0.02088,
				"method": "rhf"
			},
			{
				"type": "unocc",
				"energy": 0.00613,
				"method": "rhf"
			},
			{
				"type": "unocc",
				"energy": 0.02783,
				"method": "rhf"
			}
		],
		"cosmo_sigma_profile": { 
			"-0.025": 0.0,
			"-0.024": 0.0,
			"-0.023": 0.0,
			"-0.022": 0.0,
			"-0.021": 0.0,
			"-0.02": 0.0600840380674,
			"-0.019": 0.738608337173,
			"-0.018": 1.19599123095,
			"-0.017": 1.46485832273,
			"-0.016": 1.16775269682,
			"-0.015": 0.560174429767,
			"-0.014": 1.00142083376,
			"-0.013": 1.35450613834,
			"-0.012": 1.00654937699,
			"-0.011": 1.08900757269,
			"-0.01": 1.76639171597,
			"-0.009": 5.96618242349,
			"-0.008": 8.22478514022,
			"-0.007": 8.51463574034,
			"-0.006": 9.89905446149,
			"-0.005": 9.92754891956,
			"-0.004": 14.1572611242,
			"-0.003": 13.1103240739,
			"-0.002": 16.1736670657,
			"-0.001": 21.1055275415,
			"0.0": 26.8970397257,
			"0.001": 32.9012067774,
			"0.002": 30.1850361487,
			"0.003": 20.9343219904,
			"0.004": 17.0364549493,
			"0.005": 4.60926421742,
			"0.006": 3.44656348373,
			"0.007": 4.52873459483,
			"0.008": 4.07455138295,
			"0.009": 4.0914371215,
			"0.01": 5.38906011472,
			"0.011": 5.60778029117,
			"0.012": 5.52514180793,
			"0.013": 2.73833056201,
			"0.014": 0.538868325478,
			"0.015": 0.0,
			"0.016": 0.0,
			"0.017": 0.0,
			"0.018": 0.0,
			"0.019": 0.0,
			"0.02": 0.0,
			"0.021": 0.0,
			"0.022": 0.0,
			"0.023": 0.0,
			"0.024": 0.0,
			"0.025": 0.0
		}
	}
}
