{
	 "smiles": "CN(CC(N)=S)C(=O)OC(C)(C)C", 
	 "Tm": 423.15, 
	 "num_atms": 29, 
	 "gaussian": { 
		 "optdone": 1, 
		 "sigma_profile": "yes", 
		 "theory": "DFT", 
		 "functional": "B3LYP", 
		 "basiset": "6-31G**", 
		 "properties": { 
			 "R2extent": 3904.565, 
			 "electric_dipole_moment_norm": 3.80723476292, 
			 "electric_quadrupole_moment_norm": 19.0182766619, 
			 "total_energy": -972.67098789, 
			 "HOMO_LUMO_gap": 0.17759, 
			 "cosmo_polarized_energy": -20.05, 
			 "cosmo_cavitation_energy": 32.78, 
			 "cosmo_dispersion_energy": -22.76, 
			 "cosmo_repulsion_energy": 1.79, 
			 "cosmo_total_nonelectrostatic_energy": 11.81, 
			 "SMD_solvation_energy": 5.81 
		},
		"coords": [
			{
				"x": -1.6449810512,
				"y": 2.0716612954,
				"z": 1.1975290834,
				"element": "C" 
			},
			{
				"x": -0.5815487259,
				"y": 1.2332040148,
				"z": 0.6539729664,
				"element": "N" 
			},
			{
				"x": 0.5714739038,
				"y": 0.9658974226,
				"z": 1.4720614978,
				"element": "C" 
			},
			{
				"x": 0.3589291453,
				"y": 0.0103414583,
				"z": 2.6541119335,
				"element": "C" 
			},
			{
				"x": 1.3806673792,
				"y": 0.0460973446,
				"z": 3.5332880423,
				"element": "N" 
			},
			{
				"x": -0.9480520627,
				"y": -0.9929699584,
				"z": 2.8383354617,
				"element": "S" 
			},
			{
				"x": -0.7056094363,
				"y": 0.5069566841,
				"z": -0.5117761846,
				"element": "C" 
			},
			{
				"x": 0.1738119102,
				"y": -0.2262845655,
				"z": -0.9426716443,
				"element": "O" 
			},
			{
				"x": -1.8929910055,
				"y": 0.7487640378,
				"z": -1.1065025359,
				"element": "O" 
			},
			{
				"x": -2.2503991783,
				"y": 0.0908512796,
				"z": -2.3743945167,
				"element": "C" 
			},
			{
				"x": -3.6526071683,
				"y": 0.6419580578,
				"z": -2.6470646736,
				"element": "C" 
			},
			{
				"x": -2.2921865068,
				"y": -1.4285230841,
				"z": -2.1817974473,
				"element": "C" 
			},
			{
				"x": -1.2762352624,
				"y": 0.5129649614,
				"z": -3.4793709314,
				"element": "C" 
			},
			{
				"x": -2.2899889527,
				"y": 1.5134215192,
				"z": 1.8841991416,
				"element": "H" 
			},
			{
				"x": -1.1907364327,
				"y": 2.907263069,
				"z": 1.7411055272,
				"element": "H" 
			},
			{
				"x": -2.2471450328,
				"y": 2.4703185312,
				"z": 0.3836350756,
				"element": "H" 
			},
			{
				"x": 1.3323502634,
				"y": 0.5169907965,
				"z": 0.825110093,
				"element": "H" 
			},
			{
				"x": 0.9682987008,
				"y": 1.9154263203,
				"z": 1.8604681118,
				"element": "H" 
			},
			{
				"x": 1.3816767611,
				"y": -0.5980211709,
				"z": 4.3105511301,
				"element": "H" 
			},
			{
				"x": 2.1953159968,
				"y": 0.6244796935,
				"z": 3.3831891503,
				"element": "H" 
			},
			{
				"x": -4.3346642369,
				"y": 0.3802436162,
				"z": -1.833045651,
				"element": "H" 
			},
			{
				"x": -4.0460862837,
				"y": 0.2226622449,
				"z": -3.5778314808,
				"element": "H" 
			},
			{
				"x": -3.628933575,
				"y": 1.7317594217,
				"z": -2.7416618893,
				"element": "H" 
			},
			{
				"x": -2.676118053,
				"y": -1.9020241244,
				"z": -3.0914367184,
				"element": "H" 
			},
			{
				"x": -2.9592671111,
				"y": -1.6870802127,
				"z": -1.3538283181,
				"element": "H" 
			},
			{
				"x": -1.2987598003,
				"y": -1.8232126074,
				"z": -1.9690831667,
				"element": "H" 
			},
			{
				"x": -1.2415303826,
				"y": 1.6043578564,
				"z": -3.559170569,
				"element": "H" 
			},
			{
				"x": -1.6165873594,
				"y": 0.1135508767,
				"z": -4.4404027017,
				"element": "H" 
			},
			{
				"x": -0.272196443,
				"y": 0.139945221,
				"z": -3.2771187859,
				"element": "H" 
			}
		],
		 "valence_orbital": [ 
			{
				"type": "occ",
				"energy": -0.28314,
				"method": "rhf"
			},
			{
				"type": "occ",
				"energy": -0.25782,
				"method": "rhf"
			},
			{
				"type": "occ",
				"energy": -0.23985,
				"method": "rhf"
			},
			{
				"type": "occ",
				"energy": -0.23358,
				"method": "rhf"
			},
			{
				"type": "occ",
				"energy": -0.20947,
				"method": "rhf"
			},
			{
				"type": "unocc",
				"energy": -0.03188,
				"method": "rhf"
			},
			{
				"type": "unocc",
				"energy": 0.05654,
				"method": "rhf"
			},
			{
				"type": "unocc",
				"energy": 0.06033,
				"method": "rhf"
			},
			{
				"type": "unocc",
				"energy": 0.08655,
				"method": "rhf"
			},
			{
				"type": "unocc",
				"energy": 0.09099,
				"method": "rhf"
			}
		],
		"cosmo_sigma_profile": { 
			"-0.025": 0.0,
			"-0.024": 0.0,
			"-0.023": 0.0,
			"-0.022": 0.0,
			"-0.021": 0.0,
			"-0.02": 0.0,
			"-0.019": 0.0,
			"-0.018": 0.0,
			"-0.017": 0.0,
			"-0.016": 0.783389831485,
			"-0.015": 2.53759970622,
			"-0.014": 2.83947288266,
			"-0.013": 2.77206920686,
			"-0.012": 2.9103124697,
			"-0.011": 2.21312699125,
			"-0.01": 2.4497362597,
			"-0.009": 2.01013545354,
			"-0.008": 3.84430598657,
			"-0.007": 5.38709023201,
			"-0.006": 4.39659103433,
			"-0.005": 6.47110561001,
			"-0.004": 16.6891220076,
			"-0.003": 21.3513807508,
			"-0.002": 23.5381846325,
			"-0.001": 22.882596232,
			"0.0": 28.2819000432,
			"0.001": 23.699308796,
			"0.002": 10.5367580429,
			"0.003": 8.81428812743,
			"0.004": 8.38941059808,
			"0.005": 8.1613573962,
			"0.006": 7.7903577757,
			"0.007": 8.82911120232,
			"0.008": 8.15243776745,
			"0.009": 8.12546086217,
			"0.01": 5.12709328986,
			"0.011": 3.45462854047,
			"0.012": 2.64145132574,
			"0.013": 2.77726428911,
			"0.014": 0.4400998772,
			"0.015": 0.0,
			"0.016": 0.0,
			"0.017": 0.0,
			"0.018": 0.0,
			"0.019": 0.0,
			"0.02": 0.0,
			"0.021": 0.0,
			"0.022": 0.0,
			"0.023": 0.0,
			"0.024": 0.0,
			"0.025": 0.0
		}
	}
}
