{
	 "smiles": "CC1=CC(C)=C(C#N)C(C)=C1", 
	 "Tm": 326.15, 
	 "num_atms": 22, 
	 "gaussian": { 
		 "optdone": 1, 
		 "sigma_profile": "yes", 
		 "theory": "DFT", 
		 "functional": "B3LYP", 
		 "basiset": "6-31G**", 
		 "properties": { 
			 "R2extent": 2907.9491, 
			 "electric_dipole_moment_norm": 4.4641929181, 
			 "electric_quadrupole_moment_norm": 18.7767970133, 
			 "total_energy": -442.454768579, 
			 "HOMO_LUMO_gap": 0.20244, 
			 "cosmo_polarized_energy": -8.19, 
			 "cosmo_cavitation_energy": 25.98, 
			 "cosmo_dispersion_energy": -18.16, 
			 "cosmo_repulsion_energy": 1.46, 
			 "cosmo_total_nonelectrostatic_energy": 9.28, 
			 "SMD_solvation_energy": 5.65 
		},
		"coords": [
			{
				"x": -0.9494509466,
				"y": -0.307008817,
				"z": -1.3282485069,
				"element": "C" 
			},
			{
				"x": 0.034333404,
				"y": 0.2822422115,
				"z": -0.3465404271,
				"element": "C" 
			},
			{
				"x": 1.3836414005,
				"y": -0.0899024627,
				"z": -0.3760589918,
				"element": "C" 
			},
			{
				"x": 2.3198385183,
				"y": 0.4611166675,
				"z": 0.4994631416,
				"element": "C" 
			},
			{
				"x": 3.7693751292,
				"y": 0.0461672725,
				"z": 0.4519908035,
				"element": "C" 
			},
			{
				"x": 1.8711457287,
				"y": 1.4188896272,
				"z": 1.4368319888,
				"element": "C" 
			},
			{
				"x": 2.8105722156,
				"y": 1.9989420914,
				"z": 2.3506799553,
				"element": "C" 
			},
			{
				"x": 3.5738724608,
				"y": 2.4702466292,
				"z": 3.0931491924,
				"element": "N" 
			},
			{
				"x": 0.5154160004,
				"y": 1.813661451,
				"z": 1.4959013942,
				"element": "C" 
			},
			{
				"x": 0.0507074773,
				"y": 2.8335591417,
				"z": 2.5055667677,
				"element": "C" 
			},
			{
				"x": -0.3782493157,
				"y": 1.2307845386,
				"z": 0.5968754001,
				"element": "C" 
			},
			{
				"x": -0.6613184625,
				"y": -1.319613882,
				"z": -1.6251687119,
				"element": "H" 
			},
			{
				"x": -1.9587612545,
				"y": -0.34753008,
				"z": -0.9084765076,
				"element": "H" 
			},
			{
				"x": -1.0006702888,
				"y": 0.2983262562,
				"z": -2.2420075255,
				"element": "H" 
			},
			{
				"x": 1.715495213,
				"y": -0.8304755581,
				"z": -1.0996774515,
				"element": "H" 
			},
			{
				"x": 4.0946269668,
				"y": -0.3756170066,
				"z": 1.4092552994,
				"element": "H" 
			},
			{
				"x": 3.936552275,
				"y": -0.7026124128,
				"z": -0.3258925215,
				"element": "H" 
			},
			{
				"x": 4.4217908215,
				"y": 0.9024649735,
				"z": 0.2488058622,
				"element": "H" 
			},
			{
				"x": 0.255652248,
				"y": 2.502546794,
				"z": 3.5295147772,
				"element": "H" 
			},
			{
				"x": -1.0228390845,
				"y": 3.0143321341,
				"z": 2.4131576975,
				"element": "H" 
			},
			{
				"x": 0.5712274395,
				"y": 3.7886012161,
				"z": 2.3746897123,
				"element": "H" 
			},
			{
				"x": -1.4247579462,
				"y": 1.5233792147,
				"z": 0.6343886518,
				"element": "H" 
			}
		],
		 "valence_orbital": [ 
			{
				"type": "occ",
				"energy": -0.34576,
				"method": "rhf"
			},
			{
				"type": "occ",
				"energy": -0.33119,
				"method": "rhf"
			},
			{
				"type": "occ",
				"energy": -0.32038,
				"method": "rhf"
			},
			{
				"type": "occ",
				"energy": -0.25278,
				"method": "rhf"
			},
			{
				"type": "occ",
				"energy": -0.24598,
				"method": "rhf"
			},
			{
				"type": "unocc",
				"energy": -0.04354,
				"method": "rhf"
			},
			{
				"type": "unocc",
				"energy": -0.00992,
				"method": "rhf"
			},
			{
				"type": "unocc",
				"energy": 0.04275,
				"method": "rhf"
			},
			{
				"type": "unocc",
				"energy": 0.07911,
				"method": "rhf"
			},
			{
				"type": "unocc",
				"energy": 0.0895,
				"method": "rhf"
			}
		],
		"cosmo_sigma_profile": { 
			"-0.025": 0.0,
			"-0.024": 0.0,
			"-0.023": 0.0,
			"-0.022": 0.0,
			"-0.021": 0.0,
			"-0.02": 0.0,
			"-0.019": 0.0,
			"-0.018": 0.0,
			"-0.017": 0.0,
			"-0.016": 0.0,
			"-0.015": 0.0,
			"-0.014": 0.0,
			"-0.013": 0.0,
			"-0.012": 0.0,
			"-0.011": 0.0,
			"-0.01": 0.0,
			"-0.009": 0.0,
			"-0.008": 0.0,
			"-0.007": 0.0,
			"-0.006": 3.23617565727,
			"-0.005": 17.4185142583,
			"-0.004": 23.1650544024,
			"-0.003": 19.8988240558,
			"-0.002": 22.5446465262,
			"-0.001": 29.5044447862,
			"0.0": 24.3439431579,
			"0.001": 10.844601987,
			"0.002": 10.8504342064,
			"0.003": 10.6019961521,
			"0.004": 9.35453894916,
			"0.005": 2.04213993755,
			"0.006": 2.24337924415,
			"0.007": 2.02455616222,
			"0.008": 2.7676901748,
			"0.009": 3.26643517024,
			"0.01": 3.40486917541,
			"0.011": 3.16553472252,
			"0.012": 2.68794366244,
			"0.013": 2.16112641055,
			"0.014": 0.678180719392,
			"0.015": 0.0,
			"0.016": 0.0,
			"0.017": 0.0,
			"0.018": 0.0,
			"0.019": 0.0,
			"0.02": 0.0,
			"0.021": 0.0,
			"0.022": 0.0,
			"0.023": 0.0,
			"0.024": 0.0,
			"0.025": 0.0
		}
	}
}
