{
	 "smiles": "N[C@H]1CC[C@H](O)CC1", 
	 "Tm": 384.65, 
	 "num_atms": 21, 
	 "gaussian": { 
		 "optdone": 1, 
		 "sigma_profile": "yes", 
		 "theory": "DFT", 
		 "functional": "B3LYP", 
		 "basiset": "6-31G**", 
		 "properties": { 
			 "R2extent": 1161.5313, 
			 "electric_dipole_moment_norm": 2.01383915197, 
			 "electric_quadrupole_moment_norm": 8.55774333513, 
			 "total_energy": -366.439849947, 
			 "HOMO_LUMO_gap": 0.29318, 
			 "cosmo_polarized_energy": -9.94, 
			 "cosmo_cavitation_energy": 21.27, 
			 "cosmo_dispersion_energy": -16.22, 
			 "cosmo_repulsion_energy": 1.35, 
			 "cosmo_total_nonelectrostatic_energy": 6.41, 
			 "SMD_solvation_energy": 1.83 
		},
		"coords": [
			{
				"x": 0.0948712195,
				"y": -2.6084913707,
				"z": -1.5641837087,
				"element": "N" 
			},
			{
				"x": -0.9971374885,
				"y": -1.8672835907,
				"z": -0.9064500758,
				"element": "C" 
			},
			{
				"x": -0.876824627,
				"y": -2.016600867,
				"z": 0.6374025134,
				"element": "C" 
			},
			{
				"x": -0.3787733581,
				"y": -0.7425092474,
				"z": 1.3512589586,
				"element": "C" 
			},
			{
				"x": 0.706087817,
				"y": -0.0427569322,
				"z": 0.5394885055,
				"element": "C" 
			},
			{
				"x": 1.2041548522,
				"y": 1.0410333719,
				"z": 1.3211767423,
				"element": "O" 
			},
			{
				"x": 0.1470498597,
				"y": 0.4343977267,
				"z": -0.8246536946,
				"element": "C" 
			},
			{
				"x": -1.0851174665,
				"y": -0.375758511,
				"z": -1.2901869826,
				"element": "C" 
			},
			{
				"x": 0.0309163565,
				"y": -2.4896313791,
				"z": -2.5739313329,
				"element": "H" 
			},
			{
				"x": 0.9965351125,
				"y": -2.2219147259,
				"z": -1.2916238558,
				"element": "H" 
			},
			{
				"x": -1.9236541664,
				"y": -2.354683863,
				"z": -1.2338419466,
				"element": "H" 
			},
			{
				"x": -1.8459688185,
				"y": -2.3032972692,
				"z": 1.0591205813,
				"element": "H" 
			},
			{
				"x": -0.1976273229,
				"y": -2.8531528758,
				"z": 0.8352717744,
				"element": "H" 
			},
			{
				"x": 0.0110641549,
				"y": -0.9858699202,
				"z": 2.3447972363,
				"element": "H" 
			},
			{
				"x": -1.2017691544,
				"y": -0.0329193046,
				"z": 1.5041385216,
				"element": "H" 
			},
			{
				"x": 1.5210891917,
				"y": -0.76867847,
				"z": 0.3665850046,
				"element": "H" 
			},
			{
				"x": 1.8811265696,
				"y": 1.4948354265,
				"z": 0.8023837084,
				"element": "H" 
			},
			{
				"x": -0.1358901102,
				"y": 1.4868982749,
				"z": -0.7100239379,
				"element": "H" 
			},
			{
				"x": 0.9381674356,
				"y": 0.4000125214,
				"z": -1.5841792487,
				"element": "H" 
			},
			{
				"x": -1.9898710668,
				"y": 0.0457258247,
				"z": -0.8334722617,
				"element": "H" 
			},
			{
				"x": -1.2173289899,
				"y": -0.2732548192,
				"z": -2.3744765012,
				"element": "H" 
			}
		],
		 "valence_orbital": [ 
			{
				"type": "occ",
				"energy": -0.32114,
				"method": "rhf"
			},
			{
				"type": "occ",
				"energy": -0.31241,
				"method": "rhf"
			},
			{
				"type": "occ",
				"energy": -0.2974,
				"method": "rhf"
			},
			{
				"type": "occ",
				"energy": -0.26129,
				"method": "rhf"
			},
			{
				"type": "occ",
				"energy": -0.22901,
				"method": "rhf"
			},
			{
				"type": "unocc",
				"energy": 0.06417,
				"method": "rhf"
			},
			{
				"type": "unocc",
				"energy": 0.07775,
				"method": "rhf"
			},
			{
				"type": "unocc",
				"energy": 0.10234,
				"method": "rhf"
			},
			{
				"type": "unocc",
				"energy": 0.12271,
				"method": "rhf"
			},
			{
				"type": "unocc",
				"energy": 0.13048,
				"method": "rhf"
			}
		],
		"cosmo_sigma_profile": { 
			"-0.025": 0.0,
			"-0.024": 0.0,
			"-0.023": 0.0,
			"-0.022": 0.0,
			"-0.021": 0.0,
			"-0.02": 0.0,
			"-0.019": 0.0,
			"-0.018": 0.0,
			"-0.017": 0.0,
			"-0.016": 0.0,
			"-0.015": 0.652402950929,
			"-0.014": 0.813956492987,
			"-0.013": 1.07925890219,
			"-0.012": 1.26740581669,
			"-0.011": 0.235737716659,
			"-0.01": 0.815998841988,
			"-0.009": 1.81009206712,
			"-0.008": 3.31984446949,
			"-0.007": 4.11388604227,
			"-0.006": 4.2942478034,
			"-0.005": 5.86633400385,
			"-0.004": 5.30403702981,
			"-0.003": 14.0066993616,
			"-0.002": 24.5222880463,
			"-0.001": 26.3799037871,
			"0.0": 17.6068770354,
			"0.001": 13.7748660501,
			"0.002": 4.30433133412,
			"0.003": 3.05513415223,
			"0.004": 3.07111650342,
			"0.005": 2.98772136128,
			"0.006": 1.99285413673,
			"0.007": 1.77932647892,
			"0.008": 1.53133091863,
			"0.009": 2.32144374267,
			"0.01": 2.13897773547,
			"0.011": 1.75749465178,
			"0.012": 2.09782165519,
			"0.013": 2.01046508888,
			"0.014": 2.45263060908,
			"0.015": 2.12850653203,
			"0.016": 0.5899849162,
			"0.017": 0.638064778472,
			"0.018": 0.442046438743,
			"0.019": 0.631024398236,
			"0.02": 0.526713232572,
			"0.021": 0.0584725654625,
			"0.022": 0.0,
			"0.023": 0.0,
			"0.024": 0.0,
			"0.025": 0.0
		}
	}
}
