{
	 "smiles": "CN1N(C(=O)C(N=C=S)=C1C)C1=CC=CC=C1", 
	 "Tm": 419.15, 
	 "num_atms": 28, 
	 "gaussian": { 
		 "optdone": 1, 
		 "sigma_profile": "yes", 
		 "theory": "DFT", 
		 "functional": "B3LYP", 
		 "basiset": "6-31G**", 
		 "properties": { 
			 "R2extent": 5861.0614, 
			 "electric_dipole_moment_norm": 7.11013483838, 
			 "electric_quadrupole_moment_norm": 17.0650325391, 
			 "total_energy": -1101.54293995, 
			 "HOMO_LUMO_gap": 0.16999, 
			 "cosmo_polarized_energy": -15.15, 
			 "cosmo_cavitation_energy": 34.99, 
			 "cosmo_dispersion_energy": -24.97, 
			 "cosmo_repulsion_energy": 1.91, 
			 "cosmo_total_nonelectrostatic_energy": 11.93, 
			 "SMD_solvation_energy": 6.71 
		},
		"coords": [
			{
				"x": -2.4655105755,
				"y": -1.8782467457,
				"z": -0.8839246791,
				"element": "C" 
			},
			{
				"x": -1.6813120082,
				"y": -0.6367817393,
				"z": -0.9744686786,
				"element": "N" 
			},
			{
				"x": -0.3362922193,
				"y": -0.7818065343,
				"z": -0.5552467866,
				"element": "N" 
			},
			{
				"x": 0.5259401178,
				"y": -0.0857254411,
				"z": -1.4310459167,
				"element": "C" 
			},
			{
				"x": 1.7280248414,
				"y": 0.067664178,
				"z": -1.2909711638,
				"element": "O" 
			},
			{
				"x": -0.3697691585,
				"y": 0.4117354934,
				"z": -2.4805239291,
				"element": "C" 
			},
			{
				"x": 0.0503784502,
				"y": 1.1671328481,
				"z": -3.5406710384,
				"element": "N" 
			},
			{
				"x": 1.0312772601,
				"y": 1.6414349968,
				"z": -4.0589518726,
				"element": "C" 
			},
			{
				"x": 2.2051882163,
				"y": 2.3252491149,
				"z": -4.8702520125,
				"element": "S" 
			},
			{
				"x": -1.6493958828,
				"y": 0.0376291509,
				"z": -2.1926079507,
				"element": "C" 
			},
			{
				"x": -2.8867949897,
				"y": 0.2604473953,
				"z": -2.995185043,
				"element": "C" 
			},
			{
				"x": -0.0594653054,
				"y": -1.0053375136,
				"z": 0.8209424039,
				"element": "C" 
			},
			{
				"x": -1.0000273018,
				"y": -0.6813179325,
				"z": 1.8076473846,
				"element": "C" 
			},
			{
				"x": -0.7051689655,
				"y": -0.9273038373,
				"z": 3.148666894,
				"element": "C" 
			},
			{
				"x": 0.5263371906,
				"y": -1.4721524085,
				"z": 3.5141684714,
				"element": "C" 
			},
			{
				"x": 1.4652763729,
				"y": -1.774168088,
				"z": 2.5252662832,
				"element": "C" 
			},
			{
				"x": 1.1787062198,
				"y": -1.5553063744,
				"z": 1.1791159918,
				"element": "C" 
			},
			{
				"x": -3.4994514071,
				"y": -1.6528113455,
				"z": -1.1489134455,
				"element": "H" 
			},
			{
				"x": -2.4425674932,
				"y": -2.2373981763,
				"z": 0.1450747802,
				"element": "H" 
			},
			{
				"x": -2.0720293135,
				"y": -2.6569166275,
				"z": -1.5496171163,
				"element": "H" 
			},
			{
				"x": -3.2465212514,
				"y": -0.6663811826,
				"z": -3.4577600273,
				"element": "H" 
			},
			{
				"x": -3.6948431847,
				"y": 0.6625709578,
				"z": -2.3756397268,
				"element": "H" 
			},
			{
				"x": -2.6712268179,
				"y": 0.9718247629,
				"z": -3.7945980237,
				"element": "H" 
			},
			{
				"x": -1.9406953839,
				"y": -0.2229634734,
				"z": 1.5228505521,
				"element": "H" 
			},
			{
				"x": -1.4389978959,
				"y": -0.6764697479,
				"z": 3.909187334,
				"element": "H" 
			},
			{
				"x": 0.7542693134,
				"y": -1.655977336,
				"z": 4.5596453255,
				"element": "H" 
			},
			{
				"x": 2.4290050863,
				"y": -2.1928828901,
				"z": 2.7996491502,
				"element": "H" 
			},
			{
				"x": 1.9040660854,
				"y": -1.7834415041,
				"z": 0.4089628398,
				"element": "H" 
			}
		],
		 "valence_orbital": [ 
			{
				"type": "occ",
				"energy": -0.27246,
				"method": "rhf"
			},
			{
				"type": "occ",
				"energy": -0.25862,
				"method": "rhf"
			},
			{
				"type": "occ",
				"energy": -0.24806,
				"method": "rhf"
			},
			{
				"type": "occ",
				"energy": -0.22955,
				"method": "rhf"
			},
			{
				"type": "occ",
				"energy": -0.21169,
				"method": "rhf"
			},
			{
				"type": "unocc",
				"energy": -0.0417,
				"method": "rhf"
			},
			{
				"type": "unocc",
				"energy": -0.02187,
				"method": "rhf"
			},
			{
				"type": "unocc",
				"energy": -0.01104,
				"method": "rhf"
			},
			{
				"type": "unocc",
				"energy": -0.00798,
				"method": "rhf"
			},
			{
				"type": "unocc",
				"energy": 0.01718,
				"method": "rhf"
			}
		],
		"cosmo_sigma_profile": { 
			"-0.025": 0.0,
			"-0.024": 0.0,
			"-0.023": 0.0,
			"-0.022": 0.0,
			"-0.021": 0.0,
			"-0.02": 0.0,
			"-0.019": 0.0,
			"-0.018": 0.0,
			"-0.017": 0.0,
			"-0.016": 0.0,
			"-0.015": 0.0,
			"-0.014": 0.0,
			"-0.013": 0.0,
			"-0.012": 0.0,
			"-0.011": 0.0,
			"-0.01": 0.0,
			"-0.009": 0.0,
			"-0.008": 0.254808449007,
			"-0.007": 5.2565114142,
			"-0.006": 20.9499662611,
			"-0.005": 21.9606030899,
			"-0.004": 24.9958015922,
			"-0.003": 24.0051300753,
			"-0.002": 21.6116703213,
			"-0.001": 21.6789249969,
			"0.0": 21.7963126401,
			"0.001": 22.3995606169,
			"0.002": 17.5360576644,
			"0.003": 16.4082476298,
			"0.004": 20.7973756155,
			"0.005": 22.1004779005,
			"0.006": 5.41731727986,
			"0.007": 2.09722823597,
			"0.008": 2.19149776501,
			"0.009": 1.31247820086,
			"0.01": 1.85657669396,
			"0.011": 2.01811722797,
			"0.012": 3.09370097412,
			"0.013": 4.34721319705,
			"0.014": 0.0544917952821,
			"0.015": 0.0,
			"0.016": 0.0,
			"0.017": 0.0,
			"0.018": 0.0,
			"0.019": 0.0,
			"0.02": 0.0,
			"0.021": 0.0,
			"0.022": 0.0,
			"0.023": 0.0,
			"0.024": 0.0,
			"0.0": 0.0
		}
	}
}
