{
	 "smiles": "O=CC1=CC=CC(=C1)C#N", 
	 "Tm": 349.95, 
	 "num_atms": 15, 
	 "gaussian": { 
		 "optdone": 1, 
		 "sigma_profile": "yes", 
		 "theory": "DFT", 
		 "functional": "B3LYP", 
		 "basiset": "6-31G**", 
		 "properties": { 
			 "R2extent": 2457.5438, 
			 "electric_dipole_moment_norm": 2.19166167781, 
			 "electric_quadrupole_moment_norm": 22.1964202913, 
			 "total_energy": -437.811877627, 
			 "HOMO_LUMO_gap": 0.18658, 
			 "cosmo_polarized_energy": -11.83, 
			 "cosmo_cavitation_energy": 21.31, 
			 "cosmo_dispersion_energy": -14.88, 
			 "cosmo_repulsion_energy": 1.2, 
			 "cosmo_total_nonelectrostatic_energy": 7.63, 
			 "SMD_solvation_energy": 6.24 
		},
		"coords": [
			{
				"x": 1.4766425248,
				"y": 0.5912268926,
				"z": 2.5155346752,
				"element": "O" 
			},
			{
				"x": 0.9003691728,
				"y": 0.2975178434,
				"z": 1.4875535461,
				"element": "C" 
			},
			{
				"x": -0.0710064986,
				"y": -0.8198017963,
				"z": 1.3681187263,
				"element": "C" 
			},
			{
				"x": -0.372818939,
				"y": -1.6124439118,
				"z": 2.4862764591,
				"element": "C" 
			},
			{
				"x": -1.2831025594,
				"y": -2.6591505359,
				"z": 2.3735826832,
				"element": "C" 
			},
			{
				"x": -1.8987769419,
				"y": -2.924368454,
				"z": 1.1492344028,
				"element": "C" 
			},
			{
				"x": -1.6004511524,
				"y": -2.1339169811,
				"z": 0.0258399516,
				"element": "C" 
			},
			{
				"x": -0.6826600016,
				"y": -1.0786990442,
				"z": 0.139862909,
				"element": "C" 
			},
			{
				"x": -2.2325884529,
				"y": -2.4054749667,
				"z": -1.2332583088,
				"element": "C" 
			},
			{
				"x": -2.7446321046,
				"y": -2.6251050679,
				"z": -2.2540765713,
				"element": "N" 
			},
			{
				"x": 1.0730040723,
				"y": 0.8666331037,
				"z": 0.5480738629,
				"element": "H" 
			},
			{
				"x": 0.1194136882,
				"y": -1.385579901,
				"z": 3.4266273904,
				"element": "H" 
			},
			{
				"x": -1.5185376519,
				"y": -3.2738800138,
				"z": 3.2365939425,
				"element": "H" 
			},
			{
				"x": -2.609448909,
				"y": -3.7385808522,
				"z": 1.0535505758,
				"element": "H" 
			},
			{
				"x": -0.4512062468,
				"y": -0.4669763149,
				"z": -0.7276142448,
				"element": "H" 
			}
		],
		 "valence_orbital": [ 
			{
				"type": "occ",
				"energy": -0.35645,
				"method": "rhf"
			},
			{
				"type": "occ",
				"energy": -0.34332,
				"method": "rhf"
			},
			{
				"type": "occ",
				"energy": -0.29308,
				"method": "rhf"
			},
			{
				"type": "occ",
				"energy": -0.28123,
				"method": "rhf"
			},
			{
				"type": "occ",
				"energy": -0.27433,
				"method": "rhf"
			},
			{
				"type": "unocc",
				"energy": -0.08775,
				"method": "rhf"
			},
			{
				"type": "unocc",
				"energy": -0.06071,
				"method": "rhf"
			},
			{
				"type": "unocc",
				"energy": 0.00324,
				"method": "rhf"
			},
			{
				"type": "unocc",
				"energy": 0.02449,
				"method": "rhf"
			},
			{
				"type": "unocc",
				"energy": 0.07331,
				"method": "rhf"
			}
		],
		"cosmo_sigma_profile": { 
			"-0.025": 0.0,
			"-0.024": 0.0,
			"-0.023": 0.0,
			"-0.022": 0.0,
			"-0.021": 0.0,
			"-0.02": 0.0,
			"-0.019": 0.0,
			"-0.018": 0.0,
			"-0.017": 0.0,
			"-0.016": 0.0,
			"-0.015": 0.0,
			"-0.014": 0.0,
			"-0.013": 0.0,
			"-0.012": 0.0,
			"-0.011": 0.0,
			"-0.01": 0.547592179856,
			"-0.009": 4.874645341,
			"-0.008": 7.66926046847,
			"-0.007": 12.0895530821,
			"-0.006": 10.1864087755,
			"-0.005": 9.79107482073,
			"-0.004": 8.63053008571,
			"-0.003": 10.4819867947,
			"-0.002": 13.0740481278,
			"-0.001": 13.4607214313,
			"0.0": 17.3889780671,
			"0.001": 11.4596008117,
			"0.002": 4.95908369233,
			"0.003": 4.21279576707,
			"0.004": 3.17541715237,
			"0.005": 3.97525046272,
			"0.006": 3.87163777078,
			"0.007": 4.6165450959,
			"0.008": 5.45202303129,
			"0.009": 5.52570165228,
			"0.01": 6.26833589527,
			"0.011": 6.46879144795,
			"0.012": 3.87794001075,
			"0.013": 1.0224655582,
			"0.014": 0.0,
			"0.015": 0.0,
			"0.016": 0.0,
			"0.017": 0.0,
			"0.018": 0.0,
			"0.019": 0.0,
			"0.02": 0.0,
			"0.021": 0.0,
			"0.022": 0.0,
			"0.023": 0.0,
			"0.024": 0.0,
			"0.025": 0.0
		}
	}
}
