{
	 "smiles": "O=C1CN(CC2=CC=CC=C2)CCN1", 
	 "Tm": 424.15, 
	 "num_atms": 28, 
	 "gaussian": { 
		 "optdone": 1, 
		 "sigma_profile": "yes", 
		 "theory": "DFT", 
		 "functional": "B3LYP", 
		 "basiset": "6-31G**", 
		 "properties": { 
			 "R2extent": 3463.042, 
			 "electric_dipole_moment_norm": 4.13376795309, 
			 "electric_quadrupole_moment_norm": 13.4834857422, 
			 "total_energy": -612.330370542, 
			 "HOMO_LUMO_gap": 0.19704, 
			 "cosmo_polarized_energy": -13.88, 
			 "cosmo_cavitation_energy": 30.05, 
			 "cosmo_dispersion_energy": -21.76, 
			 "cosmo_repulsion_energy": 1.72, 
			 "cosmo_total_nonelectrostatic_energy": 10.01, 
			 "SMD_solvation_energy": 2.63 
		},
		"coords": [
			{
				"x": -1.2421209302,
				"y": 2.3929959781,
				"z": 2.2257447595,
				"element": "O" 
			},
			{
				"x": -1.1710364895,
				"y": 1.5882984925,
				"z": 1.3093462329,
				"element": "C" 
			},
			{
				"x": 0.1464296887,
				"y": 1.0186889879,
				"z": 0.7832259299,
				"element": "C" 
			},
			{
				"x": 0.1045284906,
				"y": 0.8895860125,
				"z": -0.6680702743,
				"element": "N" 
			},
			{
				"x": 1.3970122057,
				"y": 0.7163457989,
				"z": -1.3344592589,
				"element": "C" 
			},
			{
				"x": 2.0887020184,
				"y": -0.6245169222,
				"z": -1.1250420302,
				"element": "C" 
			},
			{
				"x": 2.8638674553,
				"y": -0.8619648638,
				"z": 0.0201471154,
				"element": "C" 
			},
			{
				"x": 3.4609009882,
				"y": -2.1042082938,
				"z": 0.2376180073,
				"element": "C" 
			},
			{
				"x": 3.2959745369,
				"y": -3.1334296133,
				"z": -0.6920735497,
				"element": "C" 
			},
			{
				"x": 2.5378241622,
				"y": -2.9090201371,
				"z": -1.8420507786,
				"element": "C" 
			},
			{
				"x": 1.9423342815,
				"y": -1.6639189441,
				"z": -2.0548048514,
				"element": "C" 
			},
			{
				"x": -0.9802111255,
				"y": 0.0684123762,
				"z": -1.206299845,
				"element": "C" 
			},
			{
				"x": -2.1303518487,
				"y": -0.0871360015,
				"z": -0.1946157543,
				"element": "C" 
			},
			{
				"x": -2.2602387837,
				"y": 1.1012993184,
				"z": 0.6375694114,
				"element": "N" 
			},
			{
				"x": 0.3601182276,
				"y": 0.0751963824,
				"z": 1.3246682857,
				"element": "H" 
			},
			{
				"x": 0.9303513965,
				"y": 1.7283046852,
				"z": 1.059594379,
				"element": "H" 
			},
			{
				"x": 1.2342096246,
				"y": 0.8755073983,
				"z": -2.4081318657,
				"element": "H" 
			},
			{
				"x": 2.0517499053,
				"y": 1.5252485131,
				"z": -0.9884666524,
				"element": "H" 
			},
			{
				"x": 3.0130044119,
				"y": -0.0617189239,
				"z": 0.740906477,
				"element": "H" 
			},
			{
				"x": 4.0615277025,
				"y": -2.2665139572,
				"z": 1.1283143594,
				"element": "H" 
			},
			{
				"x": 3.7633506859,
				"y": -4.0997205709,
				"z": -0.525557817,
				"element": "H" 
			},
			{
				"x": 2.4155643702,
				"y": -3.6998063389,
				"z": -2.5770739786,
				"element": "H" 
			},
			{
				"x": 1.3694830067,
				"y": -1.490252495,
				"z": -2.9630169484,
				"element": "H" 
			},
			{
				"x": -0.6489063909,
				"y": -0.9468761499,
				"z": -1.4782889864,
				"element": "H" 
			},
			{
				"x": -1.3489295476,
				"y": 0.5465462345,
				"z": -2.1247843994,
				"element": "H" 
			},
			{
				"x": -1.957266729,
				"y": -0.9787090964,
				"z": 0.4261360884,
				"element": "H" 
			},
			{
				"x": -3.069185291,
				"y": -0.2495162348,
				"z": -0.7299142908,
				"element": "H" 
			},
			{
				"x": -3.1616860227,
				"y": 1.3572783649,
				"z": 1.0179802351,
				"element": "H" 
			}
		],
		 "valence_orbital": [ 
			{
				"type": "occ",
				"energy": -0.25422,
				"method": "rhf"
			},
			{
				"type": "occ",
				"energy": -0.25089,
				"method": "rhf"
			},
			{
				"type": "occ",
				"energy": -0.24973,
				"method": "rhf"
			},
			{
				"type": "occ",
				"energy": -0.24418,
				"method": "rhf"
			},
			{
				"type": "occ",
				"energy": -0.20485,
				"method": "rhf"
			},
			{
				"type": "unocc",
				"energy": -0.00781,
				"method": "rhf"
			},
			{
				"type": "unocc",
				"energy": -0.00663,
				"method": "rhf"
			},
			{
				"type": "unocc",
				"energy": 0.03395,
				"method": "rhf"
			},
			{
				"type": "unocc",
				"energy": 0.07268,
				"method": "rhf"
			},
			{
				"type": "unocc",
				"energy": 0.08894,
				"method": "rhf"
			}
		],
		"cosmo_sigma_profile": { 
			"-0.025": 0.0,
			"-0.024": 0.0,
			"-0.023": 0.0,
			"-0.022": 0.0,
			"-0.021": 0.0,
			"-0.02": 0.0,
			"-0.019": 0.0,
			"-0.018": 0.0,
			"-0.017": 0.0,
			"-0.016": 0.0,
			"-0.015": 0.0,
			"-0.014": 0.368900828112,
			"-0.013": 1.11339202593,
			"-0.012": 1.40751415067,
			"-0.011": 0.858311642726,
			"-0.01": 1.26040493418,
			"-0.009": 0.951525989362,
			"-0.008": 0.978762658055,
			"-0.007": 1.84857345702,
			"-0.006": 7.28312002608,
			"-0.005": 24.0279513833,
			"-0.004": 27.8746532727,
			"-0.003": 29.6693516648,
			"-0.002": 23.4335056217,
			"-0.001": 16.5889625657,
			"0.0": 10.1860156231,
			"0.001": 11.1245718312,
			"0.002": 9.4519045869,
			"0.003": 11.1627936926,
			"0.004": 9.62167534599,
			"0.005": 10.0285722251,
			"0.006": 10.7815305689,
			"0.007": 3.31877666229,
			"0.008": 2.87322362722,
			"0.009": 2.93413455738,
			"0.01": 0.864001793985,
			"0.011": 1.50791293383,
			"0.012": 3.09320032451,
			"0.013": 3.31222538577,
			"0.014": 6.09249356654,
			"0.015": 2.26995508379,
			"0.016": 0.0344657486358,
			"0.017": 0.0,
			"0.018": 0.0,
			"0.019": 0.0,
			"0.02": 0.0,
			"0.021": 0.0,
			"0.022": 0.0,
			"0.023": 0.0,
			"0.024": 0.0,
			"0.025": 0.0
		}
	}
}
