{
	 "smiles": "COC1=CC=C(OCC(=O)NN)C=C1", 
	 "Tm": 416.15, 
	 "num_atms": 26, 
	 "gaussian": { 
		 "optdone": 1, 
		 "sigma_profile": "yes", 
		 "theory": "DFT", 
		 "functional": "B3LYP", 
		 "basiset": "6-31G**", 
		 "properties": { 
			 "R2extent": 4732.0942, 
			 "electric_dipole_moment_norm": 1.38051791006, 
			 "electric_quadrupole_moment_norm": 11.4497840477, 
			 "total_energy": -685.318097305, 
			 "HOMO_LUMO_gap": 0.1974, 
			 "cosmo_polarized_energy": -14.6, 
			 "cosmo_cavitation_energy": 30.29, 
			 "cosmo_dispersion_energy": -21.82, 
			 "cosmo_repulsion_energy": 1.75, 
			 "cosmo_total_nonelectrostatic_energy": 10.22, 
			 "SMD_solvation_energy": 7.21 
		},
		"coords": [
			{
				"x": 1.0985522965,
				"y": -0.6503707792,
				"z": 4.407031446,
				"element": "C" 
			},
			{
				"x": 1.9796264636,
				"y": -1.4490449273,
				"z": 3.6362067292,
				"element": "O" 
			},
			{
				"x": 2.0901791601,
				"y": -1.1769353385,
				"z": 2.3003709667,
				"element": "C" 
			},
			{
				"x": 1.3967543991,
				"y": -0.1688969221,
				"z": 1.6285738146,
				"element": "C" 
			},
			{
				"x": 1.5844159594,
				"y": 0.0236822348,
				"z": 0.252143383,
				"element": "C" 
			},
			{
				"x": 2.4710917196,
				"y": -0.7896383078,
				"z": -0.4515319348,
				"element": "C" 
			},
			{
				"x": 2.7291409646,
				"y": -0.691725416,
				"z": -1.8059564094,
				"element": "O" 
			},
			{
				"x": 2.2235921142,
				"y": 0.4382331771,
				"z": -2.5023500594,
				"element": "C" 
			},
			{
				"x": 0.7512727046,
				"y": 0.3236124761,
				"z": -2.9120237997,
				"element": "C" 
			},
			{
				"x": 0.083045163,
				"y": 1.3127651891,
				"z": -3.1889200346,
				"element": "O" 
			},
			{
				"x": 0.2818271513,
				"y": -0.9483211072,
				"z": -2.9959126147,
				"element": "N" 
			},
			{
				"x": -1.043007605,
				"y": -1.2384815821,
				"z": -3.3698011799,
				"element": "N" 
			},
			{
				"x": 3.1669892809,
				"y": -1.8031581956,
				"z": 0.2234155908,
				"element": "C" 
			},
			{
				"x": 2.9774805585,
				"y": -1.9958103392,
				"z": 1.5825779918,
				"element": "C" 
			},
			{
				"x": 1.392937912,
				"y": 0.4075302723,
				"z": 4.3946710512,
				"element": "H" 
			},
			{
				"x": 1.163006705,
				"y": -1.0276448512,
				"z": 5.4288936819,
				"element": "H" 
			},
			{
				"x": 0.0611378662,
				"y": -0.7354355907,
				"z": 4.0569570108,
				"element": "H" 
			},
			{
				"x": 0.702179028,
				"y": 0.4766736221,
				"z": 2.1525980866,
				"element": "H" 
			},
			{
				"x": 1.0208447295,
				"y": 0.8055817638,
				"z": -0.2442031734,
				"element": "H" 
			},
			{
				"x": 2.3487606623,
				"y": 1.3652230844,
				"z": -1.933491248,
				"element": "H" 
			},
			{
				"x": 2.8234320526,
				"y": 0.5182851692,
				"z": -3.4146958057,
				"element": "H" 
			},
			{
				"x": 0.8557728378,
				"y": -1.7304344807,
				"z": -2.7180130856,
				"element": "H" 
			},
			{
				"x": -1.1987544654,
				"y": -0.8138523939,
				"z": -4.2838245672,
				"element": "H" 
			},
			{
				"x": -1.6597544509,
				"y": -0.7343484745,
				"z": -2.7320289509,
				"element": "H" 
			},
			{
				"x": 3.8563528375,
				"y": -2.4259009961,
				"z": -0.3375415278,
				"element": "H" 
			},
			{
				"x": 3.5117239551,
				"y": -2.7748872868,
				"z": 2.1163546385,
				"element": "H" 
			}
		],
		 "valence_orbital": [ 
			{
				"type": "occ",
				"energy": -0.27995,
				"method": "rhf"
			},
			{
				"type": "occ",
				"energy": -0.26454,
				"method": "rhf"
			},
			{
				"type": "occ",
				"energy": -0.25667,
				"method": "rhf"
			},
			{
				"type": "occ",
				"energy": -0.25265,
				"method": "rhf"
			},
			{
				"type": "occ",
				"energy": -0.20585,
				"method": "rhf"
			},
			{
				"type": "unocc",
				"energy": -0.00845,
				"method": "rhf"
			},
			{
				"type": "unocc",
				"energy": 0.01854,
				"method": "rhf"
			},
			{
				"type": "unocc",
				"energy": 0.02096,
				"method": "rhf"
			},
			{
				"type": "unocc",
				"energy": 0.07907,
				"method": "rhf"
			},
			{
				"type": "unocc",
				"energy": 0.09111,
				"method": "rhf"
			}
		],
		"cosmo_sigma_profile": { 
			"-0.025": 0.0,
			"-0.024": 0.0,
			"-0.023": 0.0,
			"-0.022": 0.0,
			"-0.021": 0.0,
			"-0.02": 0.0,
			"-0.019": 0.0,
			"-0.018": 0.0,
			"-0.017": 0.0,
			"-0.016": 0.0,
			"-0.015": 0.0,
			"-0.014": 0.0,
			"-0.013": 0.357088974278,
			"-0.012": 1.20068375094,
			"-0.011": 2.66943979178,
			"-0.01": 3.39780713809,
			"-0.009": 3.76689743325,
			"-0.008": 4.49688409777,
			"-0.007": 6.64875384671,
			"-0.006": 15.4506253551,
			"-0.005": 22.3130914348,
			"-0.004": 20.9293990633,
			"-0.003": 19.5940210232,
			"-0.002": 14.783211099,
			"-0.001": 10.784822926,
			"0.0": 12.17787842,
			"0.001": 10.0371180601,
			"0.002": 9.84585740771,
			"0.003": 13.426598982,
			"0.004": 16.1354197958,
			"0.005": 14.9583400934,
			"0.006": 4.65012197665,
			"0.007": 3.16352577891,
			"0.008": 4.61072962123,
			"0.009": 4.50001924808,
			"0.01": 3.25211534893,
			"0.011": 2.14003619177,
			"0.012": 2.99978288574,
			"0.013": 5.52820987893,
			"0.014": 4.0757574429,
			"0.015": 0.550102596241,
			"0.016": 0.940456747313,
			"0.017": 0.0530304750178,
			"0.018": 0.0,
			"0.019": 0.0,
			"0.02": 0.0,
			"0.021": 0.0,
			"0.022": 0.0,
			"0.023": 0.0,
			"0.024": 0.0,
			"0.025": 0.0
		}
	}
}
