{
	 "smiles": "ClCC(=O)NC1=NN=C(O1)C1=CC=CC=C1", 
	 "Tm": 493.15, 
	 "num_atms": 24, 
	 "gaussian": { 
		 "optdone": 1, 
		 "sigma_profile": "yes", 
		 "theory": "DFT", 
		 "functional": "B3LYP", 
		 "basiset": "6-31G**", 
		 "properties": { 
			 "R2extent": 7588.8589, 
			 "electric_dipole_moment_norm": 5.98942914976, 
			 "electric_quadrupole_moment_norm": 18.349386344, 
			 "total_energy": -1160.76194822, 
			 "HOMO_LUMO_gap": 0.17957, 
			 "cosmo_polarized_energy": -17.23, 
			 "cosmo_cavitation_energy": 31.78, 
			 "cosmo_dispersion_energy": -23.69, 
			 "cosmo_repulsion_energy": 1.85, 
			 "cosmo_total_nonelectrostatic_energy": 9.94, 
			 "SMD_solvation_energy": 4.73 
		},
		"coords": [
			{
				"x": -6.6534548541,
				"y": 0.3717744115,
				"z": -0.2382715734,
				"element": "Cl" 
			},
			{
				"x": -4.8788024445,
				"y": 0.3680476905,
				"z": -0.4515305985,
				"element": "C" 
			},
			{
				"x": -4.2617772995,
				"y": 1.7084970405,
				"z": -0.0716619572,
				"element": "C" 
			},
			{
				"x": -4.8692617023,
				"y": 2.6759196511,
				"z": 0.3282404985,
				"element": "O" 
			},
			{
				"x": -2.8662760947,
				"y": 1.7960182432,
				"z": -0.2085647389,
				"element": "N" 
			},
			{
				"x": -1.9611020071,
				"y": 0.857234079,
				"z": -0.6342596664,
				"element": "C" 
			},
			{
				"x": -2.1434210275,
				"y": -0.3674204681,
				"z": -1.0268395641,
				"element": "N" 
			},
			{
				"x": -0.8712138298,
				"y": -0.8502189313,
				"z": -1.342135022,
				"element": "N" 
			},
			{
				"x": -0.027480589,
				"y": 0.108604896,
				"z": -1.1184784812,
				"element": "C" 
			},
			{
				"x": -0.6632035937,
				"y": 1.2479369371,
				"z": -0.657058188,
				"element": "O" 
			},
			{
				"x": 1.4191041922,
				"y": 0.120844656,
				"z": -1.287310243,
				"element": "C" 
			},
			{
				"x": 2.1761818259,
				"y": 1.2645782758,
				"z": -0.9904996965,
				"element": "C" 
			},
			{
				"x": 3.5589833399,
				"y": 1.2456167676,
				"z": -1.1624649335,
				"element": "C" 
			},
			{
				"x": 4.193611474,
				"y": 0.0928248311,
				"z": -1.6289637484,
				"element": "C" 
			},
			{
				"x": 3.4400641042,
				"y": -1.0473452794,
				"z": -1.9249648894,
				"element": "C" 
			},
			{
				"x": 2.0592472199,
				"y": -1.0388762602,
				"z": -1.756781066,
				"element": "C" 
			},
			{
				"x": -4.4525807784,
				"y": -0.4316546046,
				"z": 0.1566652864,
				"element": "H" 
			},
			{
				"x": -4.6493743964,
				"y": 0.125763954,
				"z": -1.4906452348,
				"element": "H" 
			},
			{
				"x": -2.4946404189,
				"y": 2.7010102624,
				"z": 0.0532840384,
				"element": "H" 
			},
			{
				"x": 1.6826533929,
				"y": 2.1600289588,
				"z": -0.6281142782,
				"element": "H" 
			},
			{
				"x": 4.1408800764,
				"y": 2.1327619184,
				"z": -0.9316051653,
				"element": "H" 
			},
			{
				"x": 5.2713378078,
				"y": 0.0817279065,
				"z": -1.761766027,
				"element": "H" 
			},
			{
				"x": 3.9311245424,
				"y": -1.9451394707,
				"z": -2.2879030084,
				"element": "H" 
			},
			{
				"x": 1.4626010603,
				"y": -1.9161354653,
				"z": -1.9825717429,
				"element": "H" 
			}
		],
		 "valence_orbital": [ 
			{
				"type": "occ",
				"energy": -0.29421,
				"method": "rhf"
			},
			{
				"type": "occ",
				"energy": -0.29403,
				"method": "rhf"
			},
			{
				"type": "occ",
				"energy": -0.29126,
				"method": "rhf"
			},
			{
				"type": "occ",
				"energy": -0.27181,
				"method": "rhf"
			},
			{
				"type": "occ",
				"energy": -0.24109,
				"method": "rhf"
			},
			{
				"type": "unocc",
				"energy": -0.06152,
				"method": "rhf"
			},
			{
				"type": "unocc",
				"energy": -0.02655,
				"method": "rhf"
			},
			{
				"type": "unocc",
				"energy": -0.01978,
				"method": "rhf"
			},
			{
				"type": "unocc",
				"energy": 0.01973,
				"method": "rhf"
			},
			{
				"type": "unocc",
				"energy": 0.03321,
				"method": "rhf"
			}
		],
		"cosmo_sigma_profile": { 
			"-0.025": 0.0,
			"-0.024": 0.0,
			"-0.023": 0.0,
			"-0.022": 0.0,
			"-0.021": 0.0,
			"-0.02": 0.0,
			"-0.019": 0.0,
			"-0.018": 0.0626085144691,
			"-0.017": 0.943738083365,
			"-0.016": 0.908182898033,
			"-0.015": 0.78780664568,
			"-0.014": 1.05549103154,
			"-0.013": 0.777739943615,
			"-0.012": 0.965090980341,
			"-0.011": 0.971896863414,
			"-0.01": 3.13199511825,
			"-0.009": 4.757294745,
			"-0.008": 3.79062541878,
			"-0.007": 7.64538346352,
			"-0.006": 14.2833615416,
			"-0.005": 19.6121568139,
			"-0.004": 19.4505397216,
			"-0.003": 14.7247639362,
			"-0.002": 14.7349224051,
			"-0.001": 16.0532405468,
			"0.0": 14.289119668,
			"0.001": 17.320254174,
			"0.002": 15.6004629687,
			"0.003": 16.667586022,
			"0.004": 18.6899522401,
			"0.005": 10.5136989805,
			"0.006": 6.98399618786,
			"0.007": 3.74905910551,
			"0.008": 4.44348707616,
			"0.009": 4.73102739498,
			"0.01": 5.72983209844,
			"0.011": 8.31513838932,
			"0.012": 4.17545883247,
			"0.013": 1.66035759816,
			"0.014": 0.442774746447,
			"0.015": 0.0,
			"0.016": 0.0,
			"0.017": 0.0,
			"0.018": 0.0,
			"0.019": 0.0,
			"0.02": 0.0,
			"0.021": 0.0,
			"0.022": 0.0,
			"0.023": 0.0,
			"0.024": 0.0,
			"0.025": 0.0
		}
	}
}
