{
	 "smiles": "CC1=CC=C(C=C1)C(=O)NC=C(Cl)Cl", 
	 "Tm": 370.15, 
	 "num_atms": 23, 
	 "gaussian": { 
		 "optdone": 1, 
		 "sigma_profile": "yes", 
		 "theory": "DFT", 
		 "functional": "B3LYP", 
		 "basiset": "6-31G**", 
		 "properties": { 
			 "R2extent": 5112.0872, 
			 "electric_dipole_moment_norm": 3.54244806031, 
			 "electric_quadrupole_moment_norm": 11.8062163422, 
			 "total_energy": -1436.84396338, 
			 "HOMO_LUMO_gap": 0.1795, 
			 "cosmo_polarized_energy": -10.0, 
			 "cosmo_cavitation_energy": 31.53, 
			 "cosmo_dispersion_energy": -22.83, 
			 "cosmo_repulsion_energy": 1.83, 
			 "cosmo_total_nonelectrostatic_energy": 10.53, 
			 "SMD_solvation_energy": 5.83 
		},
		"coords": [
			{
				"x": 4.3764884075,
				"y": -1.6473929354,
				"z": 1.1560594134,
				"element": "C" 
			},
			{
				"x": 3.1022978611,
				"y": -1.3946804684,
				"z": 0.3874618153,
				"element": "C" 
			},
			{
				"x": 2.4674030365,
				"y": -2.4332794588,
				"z": -0.3121194647,
				"element": "C" 
			},
			{
				"x": 1.2841834776,
				"y": -2.2122862004,
				"z": -1.0070993282,
				"element": "C" 
			},
			{
				"x": 0.681820815,
				"y": -0.9451975105,
				"z": -1.0009542453,
				"element": "C" 
			},
			{
				"x": 1.3177896393,
				"y": 0.1027612885,
				"z": -0.3201887575,
				"element": "C" 
			},
			{
				"x": 2.5143975873,
				"y": -0.1238493817,
				"z": 0.3591981362,
				"element": "C" 
			},
			{
				"x": -0.5524374169,
				"y": -0.7671823596,
				"z": -1.8258646226,
				"element": "C" 
			},
			{
				"x": -0.7189215342,
				"y": -1.3592358359,
				"z": -2.8828606894,
				"element": "O" 
			},
			{
				"x": -1.5366454984,
				"y": 0.1187703089,
				"z": -1.3856381032,
				"element": "N" 
			},
			{
				"x": -1.7618196077,
				"y": 0.5868950148,
				"z": -0.1016791792,
				"element": "C" 
			},
			{
				"x": -2.7634243153,
				"y": 1.4099034852,
				"z": 0.2458856826,
				"element": "C" 
			},
			{
				"x": -2.9987739332,
				"y": 1.9171682654,
				"z": 1.8931342318,
				"element": "Cl" 
			},
			{
				"x": -3.9187879157,
				"y": 2.0173420164,
				"z": -0.9103621257,
				"element": "Cl" 
			},
			{
				"x": 4.9276545639,
				"y": -0.720155429,
				"z": 1.3353295642,
				"element": "H" 
			},
			{
				"x": 5.0353545371,
				"y": -2.3382485831,
				"z": 0.6209541562,
				"element": "H" 
			},
			{
				"x": 4.162371218,
				"y": -2.0968877991,
				"z": 2.1337190216,
				"element": "H" 
			},
			{
				"x": 2.9146573555,
				"y": -3.4240541416,
				"z": -0.318363042,
				"element": "H" 
			},
			{
				"x": 0.8120959602,
				"y": -3.0106154452,
				"z": -1.5700145785,
				"element": "H" 
			},
			{
				"x": 0.9025270842,
				"y": 1.1054485048,
				"z": -0.3466233109,
				"element": "H" 
			},
			{
				"x": 3.0026569989,
				"y": 0.7027547272,
				"z": 0.8686324026,
				"element": "H" 
			},
			{
				"x": -2.2784758181,
				"y": 0.2422274424,
				"z": -2.0663419486,
				"element": "H" 
			},
			{
				"x": -1.0805125024,
				"y": 0.2392944953,
				"z": 0.6635349719,
				"element": "H" 
			}
		],
		 "valence_orbital": [ 
			{
				"type": "occ",
				"energy": -0.32344,
				"method": "rhf"
			},
			{
				"type": "occ",
				"energy": -0.27518,
				"method": "rhf"
			},
			{
				"type": "occ",
				"energy": -0.26603,
				"method": "rhf"
			},
			{
				"type": "occ",
				"energy": -0.25348,
				"method": "rhf"
			},
			{
				"type": "occ",
				"energy": -0.22782,
				"method": "rhf"
			},
			{
				"type": "unocc",
				"energy": -0.04832,
				"method": "rhf"
			},
			{
				"type": "unocc",
				"energy": -0.01949,
				"method": "rhf"
			},
			{
				"type": "unocc",
				"energy": -0.00487,
				"method": "rhf"
			},
			{
				"type": "unocc",
				"energy": -0.00353,
				"method": "rhf"
			},
			{
				"type": "unocc",
				"energy": 0.03506,
				"method": "rhf"
			}
		],
		"cosmo_sigma_profile": { 
			"-0.025": 0.0,
			"-0.024": 0.0,
			"-0.023": 0.0,
			"-0.022": 0.0,
			"-0.021": 0.0,
			"-0.02": 0.0,
			"-0.019": 0.0,
			"-0.018": 0.0,
			"-0.017": 0.0,
			"-0.016": 0.0,
			"-0.015": 0.0,
			"-0.014": 0.0,
			"-0.013": 0.229104221505,
			"-0.012": 0.823638666094,
			"-0.011": 1.0324544266,
			"-0.01": 1.20787728559,
			"-0.009": 1.26675301028,
			"-0.008": 1.96037531208,
			"-0.007": 3.88132828482,
			"-0.006": 9.87472665488,
			"-0.005": 16.7309716998,
			"-0.004": 19.6701063907,
			"-0.003": 19.7014537362,
			"-0.002": 19.9118542827,
			"-0.001": 22.5772247023,
			"0.0": 26.8954050401,
			"0.001": 21.2001484423,
			"0.002": 21.2205641829,
			"0.003": 27.1907845452,
			"0.004": 20.9110498282,
			"0.005": 2.2976746919,
			"0.006": 1.23538142781,
			"0.007": 2.28953200065,
			"0.008": 1.34047767255,
			"0.009": 1.18874557215,
			"0.01": 1.35701884111,
			"0.011": 2.63835982712,
			"0.012": 4.46875145702,
			"0.013": 3.43922175361,
			"0.014": 0.16247557884,
			"0.015": 0.0,
			"0.016": 0.0,
			"0.017": 0.0,
			"0.018": 0.0,
			"0.019": 0.0,
			"0.02": 0.0,
			"0.021": 0.0,
			"0.022": 0.0,
			"0.023": 0.0,
			"0.024": 0.0,
			"0.025": 0.0
		}
	}
}
