{
	 "smiles": "CC(=O)NC1=C(N)C=CC(Cl)=C1", 
	 "Tm": 411.15, 
	 "num_atms": 21, 
	 "gaussian": { 
		 "optdone": 1, 
		 "sigma_profile": "yes", 
		 "theory": "DFT", 
		 "functional": "B3LYP", 
		 "basiset": "6-31G**", 
		 "properties": { 
			 "R2extent": 3027.754, 
			 "electric_dipole_moment_norm": 3.78867909831, 
			 "electric_quadrupole_moment_norm": 13.9307880201, 
			 "total_energy": -955.215721679, 
			 "HOMO_LUMO_gap": 0.19019, 
			 "cosmo_polarized_energy": -14.94, 
			 "cosmo_cavitation_energy": 27.11, 
			 "cosmo_dispersion_energy": -19.45, 
			 "cosmo_repulsion_energy": 1.58, 
			 "cosmo_total_nonelectrostatic_energy": 9.25, 
			 "SMD_solvation_energy": 5.46 
		},
		"coords": [
			{
				"x": -2.7433480401,
				"y": 0.2207270932,
				"z": 1.1257036686,
				"element": "C" 
			},
			{
				"x": -2.0425466523,
				"y": 1.136976162,
				"z": 0.1390415659,
				"element": "C" 
			},
			{
				"x": -2.6104638376,
				"y": 2.0730408749,
				"z": -0.402729134,
				"element": "O" 
			},
			{
				"x": -0.7027263239,
				"y": 0.8952501587,
				"z": -0.1242427437,
				"element": "N" 
			},
			{
				"x": 0.1242893967,
				"y": -0.1841487608,
				"z": 0.2864829787,
				"element": "C" 
			},
			{
				"x": 1.3572916248,
				"y": 0.1215975056,
				"z": 0.9102097468,
				"element": "C" 
			},
			{
				"x": 1.7290887306,
				"y": 1.4509472934,
				"z": 1.0876750755,
				"element": "N" 
			},
			{
				"x": 2.198692179,
				"y": -0.9383092312,
				"z": 1.2816016713,
				"element": "C" 
			},
			{
				"x": 1.832931068,
				"y": -2.2634635999,
				"z": 1.0614489224,
				"element": "C" 
			},
			{
				"x": 0.6121586107,
				"y": -2.5447538378,
				"z": 0.4506678974,
				"element": "C" 
			},
			{
				"x": 0.1401821486,
				"y": -4.2150181574,
				"z": 0.1613772339,
				"element": "Cl" 
			},
			{
				"x": -0.2318609316,
				"y": -1.5136730985,
				"z": 0.0462974139,
				"element": "C" 
			},
			{
				"x": -3.5514114463,
				"y": 0.7906180598,
				"z": 1.5859671554,
				"element": "H" 
			},
			{
				"x": -2.0743701532,
				"y": -0.176914418,
				"z": 1.8917679128,
				"element": "H" 
			},
			{
				"x": -3.1911246393,
				"y": -0.6273142783,
				"z": 0.5970888314,
				"element": "H" 
			},
			{
				"x": -0.3097147364,
				"y": 1.5617405822,
				"z": -0.7813797476,
				"element": "H" 
			},
			{
				"x": 0.9538169807,
				"y": 2.089992646,
				"z": 1.2100551555,
				"element": "H" 
			},
			{
				"x": 2.4679770754,
				"y": 1.6045166662,
				"z": 1.7596842959,
				"element": "H" 
			},
			{
				"x": 3.1492194942,
				"y": -0.7189226915,
				"z": 1.7606043809,
				"element": "H" 
			},
			{
				"x": 2.4893846696,
				"y": -3.0710379006,
				"z": 1.3655858838,
				"element": "H" 
			},
			{
				"x": -1.1605652176,
				"y": -1.7355510679,
				"z": -0.4660081646,
				"element": "H" 
			}
		],
		 "valence_orbital": [ 
			{
				"type": "occ",
				"energy": -0.30567,
				"method": "rhf"
			},
			{
				"type": "occ",
				"energy": -0.29035,
				"method": "rhf"
			},
			{
				"type": "occ",
				"energy": -0.25444,
				"method": "rhf"
			},
			{
				"type": "occ",
				"energy": -0.25002,
				"method": "rhf"
			},
			{
				"type": "occ",
				"energy": -0.21388,
				"method": "rhf"
			},
			{
				"type": "unocc",
				"energy": -0.02369,
				"method": "rhf"
			},
			{
				"type": "unocc",
				"energy": -0.00629,
				"method": "rhf"
			},
			{
				"type": "unocc",
				"energy": 0.02306,
				"method": "rhf"
			},
			{
				"type": "unocc",
				"energy": 0.03039,
				"method": "rhf"
			},
			{
				"type": "unocc",
				"energy": 0.06796,
				"method": "rhf"
			}
		],
		"cosmo_sigma_profile": { 
			"-0.025": 0.0,
			"-0.024": 0.0,
			"-0.023": 0.0,
			"-0.022": 0.0,
			"-0.021": 0.0,
			"-0.02": 0.0,
			"-0.019": 0.0,
			"-0.018": 0.0,
			"-0.017": 0.0,
			"-0.016": 0.0,
			"-0.015": 0.0,
			"-0.014": 0.111648070151,
			"-0.013": 1.99421139204,
			"-0.012": 2.58293846712,
			"-0.011": 3.54164050233,
			"-0.01": 3.69000625964,
			"-0.009": 4.12494741128,
			"-0.008": 4.71815967453,
			"-0.007": 8.3877461313,
			"-0.006": 10.3030764435,
			"-0.005": 12.0883097449,
			"-0.004": 12.0436791907,
			"-0.003": 13.4204720664,
			"-0.002": 13.1016215534,
			"-0.001": 14.954174571,
			"0.0": 12.1890406671,
			"0.001": 11.7428606173,
			"0.002": 13.9376304504,
			"0.003": 16.5121336179,
			"0.004": 17.8885603798,
			"0.005": 13.5820878701,
			"0.006": 3.41545543867,
			"0.007": 1.47489240697,
			"0.008": 2.66539448743,
			"0.009": 1.684456481,
			"0.01": 1.16484064532,
			"0.011": 2.57980557652,
			"0.012": 3.02765354013,
			"0.013": 4.83162144455,
			"0.014": 4.75610682018,
			"0.015": 0.862529348472,
			"0.016": 0.0,
			"0.017": 0.0,
			"0.018": 0.0,
			"0.019": 0.0,
			"0.02": 0.0,
			"0.021": 0.0,
			"0.022": 0.0,
			"0.023": 0.0,
			"0.024": 0.0,
			"0.025": 0.0
		}
	}
}
