{
	 "smiles": "OCC1=CC2=NSN=C2C=C1", 
	 "Tm": 333.65, 
	 "num_atms": 17, 
	 "gaussian": { 
		 "optdone": 1, 
		 "sigma_profile": "yes", 
		 "theory": "DFT", 
		 "functional": "B3LYP", 
		 "basiset": "6-31G**", 
		 "properties": { 
			 "R2extent": 3240.9836, 
			 "electric_dipole_moment_norm": 1.16203854497, 
			 "electric_quadrupole_moment_norm": 6.02872614157, 
			 "total_energy": -853.239872352, 
			 "HOMO_LUMO_gap": 0.15701, 
			 "cosmo_polarized_energy": -9.52, 
			 "cosmo_cavitation_energy": 22.99, 
			 "cosmo_dispersion_energy": -17.98, 
			 "cosmo_repulsion_energy": 1.38, 
			 "cosmo_total_nonelectrostatic_energy": 6.39, 
			 "SMD_solvation_energy": 0.61 
		},
		"coords": [
			{
				"x": -0.0438042426,
				"y": 0.1220511185,
				"z": -3.0923624438,
				"element": "O" 
			},
			{
				"x": 0.2827860265,
				"y": 0.4445331082,
				"z": -1.7468498626,
				"element": "C" 
			},
			{
				"x": -0.2553730673,
				"y": -0.5578816102,
				"z": -0.7456718994,
				"element": "C" 
			},
			{
				"x": 0.5133721205,
				"y": -0.9929379571,
				"z": 0.3055355288,
				"element": "C" 
			},
			{
				"x": -0.0530990699,
				"y": -1.9106363572,
				"z": 1.2375569034,
				"element": "C" 
			},
			{
				"x": 0.5570143403,
				"y": -2.4256222098,
				"z": 2.3124931067,
				"element": "N" 
			},
			{
				"x": -0.5396619654,
				"y": -3.4217103442,
				"z": 3.0279720258,
				"element": "S" 
			},
			{
				"x": -1.8154635692,
				"y": -3.2379043568,
				"z": 2.0058106313,
				"element": "N" 
			},
			{
				"x": -1.4150913436,
				"y": -2.3783092835,
				"z": 1.0613123625,
				"element": "C" 
			},
			{
				"x": -2.1847880238,
				"y": -1.9167758002,
				"z": -0.0476959419,
				"element": "C" 
			},
			{
				"x": -1.604141409,
				"y": -1.0333020658,
				"z": -0.9166048916,
				"element": "C" 
			},
			{
				"x": 0.3402240493,
				"y": -0.7431379412,
				"z": -3.2881848267,
				"element": "H" 
			},
			{
				"x": 1.3673527843,
				"y": 0.5647656969,
				"z": -1.6052702185,
				"element": "H" 
			},
			{
				"x": -0.1743458505,
				"y": 1.4258080742,
				"z": -1.5718909472,
				"element": "H" 
			},
			{
				"x": 1.5358171136,
				"y": -0.6554738382,
				"z": 0.4450016006,
				"element": "H" 
			},
			{
				"x": -3.2012262795,
				"y": -2.2715349413,
				"z": -0.1792365281,
				"element": "H" 
			},
			{
				"x": -2.1554716139,
				"y": -0.6729312923,
				"z": -1.7795145993,
				"element": "H" 
			}
		],
		 "valence_orbital": [ 
			{
				"type": "occ",
				"energy": -0.32133,
				"method": "rhf"
			},
			{
				"type": "occ",
				"energy": -0.30102,
				"method": "rhf"
			},
			{
				"type": "occ",
				"energy": -0.28806,
				"method": "rhf"
			},
			{
				"type": "occ",
				"energy": -0.26125,
				"method": "rhf"
			},
			{
				"type": "occ",
				"energy": -0.24408,
				"method": "rhf"
			},
			{
				"type": "unocc",
				"energy": -0.08707,
				"method": "rhf"
			},
			{
				"type": "unocc",
				"energy": 0.00014,
				"method": "rhf"
			},
			{
				"type": "unocc",
				"energy": 0.00515,
				"method": "rhf"
			},
			{
				"type": "unocc",
				"energy": 0.01116,
				"method": "rhf"
			},
			{
				"type": "unocc",
				"energy": 0.07088,
				"method": "rhf"
			}
		],
		"cosmo_sigma_profile": { 
			"-0.025": 0.0,
			"-0.024": 0.0,
			"-0.023": 0.0,
			"-0.022": 0.0,
			"-0.021": 0.0,
			"-0.02": 0.0,
			"-0.019": 0.0,
			"-0.018": 0.0,
			"-0.017": 0.0,
			"-0.016": 0.484348758394,
			"-0.015": 1.18481234443,
			"-0.014": 0.853910170006,
			"-0.013": 0.467488034011,
			"-0.012": 1.11869924847,
			"-0.011": 1.03041299494,
			"-0.01": 0.882827828939,
			"-0.009": 0.709830843695,
			"-0.008": 0.864139363044,
			"-0.007": 4.29738393955,
			"-0.006": 9.43672249435,
			"-0.005": 10.8385523826,
			"-0.004": 13.523424736,
			"-0.003": 15.3151096814,
			"-0.002": 15.8711318053,
			"-0.001": 18.9268753772,
			"0.0": 16.8833833158,
			"0.001": 14.9632055592,
			"0.002": 12.8936804971,
			"0.003": 9.50203017197,
			"0.004": 5.84835440984,
			"0.005": 3.40264247623,
			"0.006": 2.53747648735,
			"0.007": 3.04082487658,
			"0.008": 4.48963161942,
			"0.009": 2.06517595471,
			"0.01": 3.43136903795,
			"0.011": 3.63291615998,
			"0.012": 3.04206888491,
			"0.013": 3.60182645684,
			"0.014": 1.5543730779,
			"0.015": 0.0,
			"0.016": 0.0,
			"0.017": 0.0,
			"0.018": 0.0,
			"0.019": 0.0,
			"0.02": 0.0,
			"0.021": 0.0,
			"0.022": 0.0,
			"0.023": 0.0,
			"0.024": 0.0,
			"0.025": 0.0
		}
	}
}
