{
	 "smiles": "CC(NC(N)=S)C1=C(Cl)C=C(Cl)C=C1", 
	 "Tm": 438.15, 
	 "num_atms": 24, 
	 "gaussian": { 
		 "optdone": 1, 
		 "sigma_profile": "yes", 
		 "theory": "DFT", 
		 "functional": "B3LYP", 
		 "basiset": "6-31G**", 
		 "properties": { 
			 "R2extent": 5704.4586, 
			 "electric_dipole_moment_norm": 3.53773339159, 
			 "electric_quadrupole_moment_norm": 17.8301824511, 
			 "total_energy": -1777.08172619, 
			 "HOMO_LUMO_gap": 0.17293, 
			 "cosmo_polarized_energy": -18.16, 
			 "cosmo_cavitation_energy": 32.88, 
			 "cosmo_dispersion_energy": -23.59, 
			 "cosmo_repulsion_energy": 1.85, 
			 "cosmo_total_nonelectrostatic_energy": 11.13, 
			 "SMD_solvation_energy": 4.04 
		},
		"coords": [
			{
				"x": 1.2579845577,
				"y": 1.6970760865,
				"z": 1.0118434711,
				"element": "C" 
			},
			{
				"x": 0.0823567466,
				"y": 1.2152944392,
				"z": 0.1475001734,
				"element": "C" 
			},
			{
				"x": 0.4881317032,
				"y": 0.1076554076,
				"z": -0.7133129492,
				"element": "N" 
			},
			{
				"x": 0.201043183,
				"y": 0.0095384802,
				"z": -2.0380409081,
				"element": "C" 
			},
			{
				"x": 0.6322986573,
				"y": -1.1478960302,
				"z": -2.6229481387,
				"element": "N" 
			},
			{
				"x": -0.5681828257,
				"y": 1.20190957,
				"z": -2.9481911487,
				"element": "S" 
			},
			{
				"x": -1.1795346979,
				"y": 0.9048573465,
				"z": 0.9537748578,
				"element": "C" 
			},
			{
				"x": -1.3280476771,
				"y": -0.159879404,
				"z": 1.8545554624,
				"element": "C" 
			},
			{
				"x": -0.0220268114,
				"y": -1.3261914218,
				"z": 2.1287232777,
				"element": "Cl" 
			},
			{
				"x": -2.5007390251,
				"y": -0.376471324,
				"z": 2.576607769,
				"element": "C" 
			},
			{
				"x": -3.5684791396,
				"y": 0.4999157197,
				"z": 2.3966645058,
				"element": "C" 
			},
			{
				"x": -5.0481771215,
				"y": 0.2394636811,
				"z": 3.3016599527,
				"element": "Cl" 
			},
			{
				"x": -3.4750691792,
				"y": 1.5683392022,
				"z": 1.5086906942,
				"element": "C" 
			},
			{
				"x": -2.2885515646,
				"y": 1.7506417441,
				"z": 0.8021308859,
				"element": "C" 
			},
			{
				"x": 2.0862891504,
				"y": 2.0036029672,
				"z": 0.3666666043,
				"element": "H" 
			},
			{
				"x": 1.6157731193,
				"y": 0.9225114216,
				"z": 1.6950813327,
				"element": "H" 
			},
			{
				"x": 0.9498299979,
				"y": 2.5577122389,
				"z": 1.6124100198,
				"element": "H" 
			},
			{
				"x": -0.1825980793,
				"y": 2.0156419314,
				"z": -0.5473072038,
				"element": "H" 
			},
			{
				"x": 0.9574191921,
				"y": -0.6662033022,
				"z": -0.262442226,
				"element": "H" 
			},
			{
				"x": 0.3261688244,
				"y": -1.2984409292,
				"z": -3.5713732655,
				"element": "H" 
			},
			{
				"x": 0.818958222,
				"y": -1.9704187226,
				"z": -2.0655654684,
				"element": "H" 
			},
			{
				"x": -2.577002224,
				"y": -1.210467594,
				"z": 3.2631380364,
				"element": "H" 
			},
			{
				"x": -4.3148459221,
				"y": 2.2386956683,
				"z": 1.3666766079,
				"element": "H" 
			},
			{
				"x": -2.2169990864,
				"y": 2.5716128235,
				"z": 0.0951576571,
				"element": "H" 
			}
		],
		 "valence_orbital": [ 
			{
				"type": "occ",
				"energy": -0.27405,
				"method": "rhf"
			},
			{
				"type": "occ",
				"energy": -0.26955,
				"method": "rhf"
			},
			{
				"type": "occ",
				"energy": -0.2552,
				"method": "rhf"
			},
			{
				"type": "occ",
				"energy": -0.21478,
				"method": "rhf"
			},
			{
				"type": "occ",
				"energy": -0.20539,
				"method": "rhf"
			},
			{
				"type": "unocc",
				"energy": -0.03246,
				"method": "rhf"
			},
			{
				"type": "unocc",
				"energy": -0.02951,
				"method": "rhf"
			},
			{
				"type": "unocc",
				"energy": -0.0068,
				"method": "rhf"
			},
			{
				"type": "unocc",
				"energy": 0.00457,
				"method": "rhf"
			},
			{
				"type": "unocc",
				"energy": 0.03992,
				"method": "rhf"
			}
		],
		"cosmo_sigma_profile": { 
			"-0.025": 0.0,
			"-0.024": 0.0,
			"-0.023": 0.0,
			"-0.022": 0.0,
			"-0.021": 0.0,
			"-0.02": 0.0,
			"-0.019": 0.0,
			"-0.018": 0.109671980332,
			"-0.017": 0.558988460883,
			"-0.016": 1.45590973023,
			"-0.015": 1.92151659555,
			"-0.014": 1.91165149959,
			"-0.013": 3.01468960119,
			"-0.012": 2.06446168412,
			"-0.011": 3.31359709606,
			"-0.01": 2.31731800403,
			"-0.009": 2.90308056407,
			"-0.008": 4.09417689288,
			"-0.007": 8.23548027276,
			"-0.006": 8.00587726941,
			"-0.005": 7.82807884522,
			"-0.004": 12.3362157673,
			"-0.003": 13.6895445814,
			"-0.002": 19.4098669255,
			"-0.001": 22.3524542938,
			"0.0": 23.7274948655,
			"0.001": 26.2419708859,
			"0.002": 21.9108557202,
			"0.003": 18.671556289,
			"0.004": 19.1775649052,
			"0.005": 7.86300710975,
			"0.006": 5.0700082945,
			"0.007": 4.63845275372,
			"0.008": 4.55162904797,
			"0.009": 5.20679642472,
			"0.01": 4.79004080167,
			"0.011": 5.90446051724,
			"0.012": 4.73028613263,
			"0.013": 0.624976387711,
			"0.014": 0.0,
			"0.015": 0.0,
			"0.016": 0.0,
			"0.017": 0.0,
			"0.018": 0.0,
			"0.019": 0.0,
			"0.02": 0.0,
			"0.021": 0.0,
			"0.022": 0.0,
			"0.023": 0.0,
			"0.024": 0.0,
			"0.025": 0.0
		}
	}
}
