{
	 "smiles": "CC1=CC=C(S1)C(=O)CC#N", 
	 "Tm": 379.15, 
	 "num_atms": 18, 
	 "gaussian": { 
		 "optdone": 1, 
		 "sigma_profile": "yes", 
		 "theory": "DFT", 
		 "functional": "B3LYP", 
		 "basiset": "6-31G**", 
		 "properties": { 
			 "R2extent": 2622.9309, 
			 "electric_dipole_moment_norm": 4.72461312702, 
			 "electric_quadrupole_moment_norm": 12.7894941511, 
			 "total_energy": -837.201129156, 
			 "HOMO_LUMO_gap": 0.17203, 
			 "cosmo_polarized_energy": -13.0, 
			 "cosmo_cavitation_energy": 25.21, 
			 "cosmo_dispersion_energy": -17.97, 
			 "cosmo_repulsion_energy": 1.41, 
			 "cosmo_total_nonelectrostatic_energy": 8.65, 
			 "SMD_solvation_energy": 6.2 
		},
		"coords": [
			{
				"x": -0.0087218072,
				"y": -2.489714822,
				"z": -0.7672593656,
				"element": "C" 
			},
			{
				"x": 0.3412476086,
				"y": -1.0640501927,
				"z": -1.0710895652,
				"element": "C" 
			},
			{
				"x": 0.7692213714,
				"y": -0.5321355782,
				"z": -2.2679934547,
				"element": "C" 
			},
			{
				"x": 1.0080130223,
				"y": 0.8612314593,
				"z": -2.2136890486,
				"element": "C" 
			},
			{
				"x": 0.761063264,
				"y": 1.4092582299,
				"z": -0.9713890296,
				"element": "C" 
			},
			{
				"x": 0.2204480326,
				"y": 0.1713133354,
				"z": 0.1465440316,
				"element": "S" 
			},
			{
				"x": 0.9520418328,
				"y": 2.8230376514,
				"z": -0.6329506777,
				"element": "C" 
			},
			{
				"x": 1.3722037578,
				"y": 3.6282339929,
				"z": -1.4470568891,
				"element": "O" 
			},
			{
				"x": 0.6470975856,
				"y": 3.3005883426,
				"z": 0.8100886259,
				"element": "C" 
			},
			{
				"x": -0.7713374132,
				"y": 3.2267364966,
				"z": 1.160034205,
				"element": "C" 
			},
			{
				"x": -1.8998816563,
				"y": 3.1699300787,
				"z": 1.4259883333,
				"element": "N" 
			},
			{
				"x": -1.0523226344,
				"y": -2.5912745765,
				"z": -0.4501347562,
				"element": "H" 
			},
			{
				"x": 0.134333637,
				"y": -3.1039339536,
				"z": -1.6599448657,
				"element": "H" 
			},
			{
				"x": 0.6191852058,
				"y": -2.9007850536,
				"z": 0.0307823157,
				"element": "H" 
			},
			{
				"x": 0.905116288,
				"y": -1.1363886496,
				"z": -3.1582091896,
				"element": "H" 
			},
			{
				"x": 1.3523054456,
				"y": 1.4684996813,
				"z": -3.0421037273,
				"element": "H" 
			},
			{
				"x": 0.9852658697,
				"y": 4.3380726721,
				"z": 0.8743174989,
				"element": "H" 
			},
			{
				"x": 1.2214205898,
				"y": 2.7051808859,
				"z": 1.5307655587,
				"element": "H" 
			}
		],
		 "valence_orbital": [ 
			{
				"type": "occ",
				"energy": -0.33824,
				"method": "rhf"
			},
			{
				"type": "occ",
				"energy": -0.32935,
				"method": "rhf"
			},
			{
				"type": "occ",
				"energy": -0.27148,
				"method": "rhf"
			},
			{
				"type": "occ",
				"energy": -0.26902,
				"method": "rhf"
			},
			{
				"type": "occ",
				"energy": -0.24945,
				"method": "rhf"
			},
			{
				"type": "unocc",
				"energy": -0.07742,
				"method": "rhf"
			},
			{
				"type": "unocc",
				"energy": 0.00016,
				"method": "rhf"
			},
			{
				"type": "unocc",
				"energy": 0.01033,
				"method": "rhf"
			},
			{
				"type": "unocc",
				"energy": 0.03207,
				"method": "rhf"
			},
			{
				"type": "unocc",
				"energy": 0.04165,
				"method": "rhf"
			}
		],
		"cosmo_sigma_profile": { 
			"-0.025": 0.0,
			"-0.024": 0.0,
			"-0.023": 0.0,
			"-0.022": 0.0,
			"-0.021": 0.0,
			"-0.02": 0.0,
			"-0.019": 0.0,
			"-0.018": 0.0,
			"-0.017": 0.0,
			"-0.016": 0.0,
			"-0.015": 0.0,
			"-0.014": 0.0,
			"-0.013": 0.0,
			"-0.012": 0.0,
			"-0.011": 0.0202409438202,
			"-0.01": 3.15010679277,
			"-0.009": 5.30183210146,
			"-0.008": 5.26558211347,
			"-0.007": 8.05955949799,
			"-0.006": 12.6074183232,
			"-0.005": 15.1584392184,
			"-0.004": 14.2380266828,
			"-0.003": 12.8609487968,
			"-0.002": 13.9189404157,
			"-0.001": 13.4102511899,
			"0.0": 10.6795331143,
			"0.001": 13.6633931596,
			"0.002": 17.4610159351,
			"0.003": 12.7685646702,
			"0.004": 5.85229564849,
			"0.005": 4.29849193271,
			"0.006": 3.90903096375,
			"0.007": 3.46775210056,
			"0.008": 5.63868810756,
			"0.009": 4.61377173732,
			"0.01": 6.21268802115,
			"0.011": 6.83170967397,
			"0.012": 3.8569007532,
			"0.013": 1.08132090272,
			"0.014": 0.0,
			"0.015": 0.0,
			"0.016": 0.0,
			"0.017": 0.0,
			"0.018": 0.0,
			"0.019": 0.0,
			"0.02": 0.0,
			"0.021": 0.0,
			"0.022": 0.0,
			"0.023": 0.0,
			"0.024": 0.0,
			"0.025": 0.0
		}
	}
}
