{
	 "smiles": "COC1=C(OC)C=C(C(N)=C1)[N+]([O-])=O", 
	 "Tm": 448.15, 
	 "num_atms": 24, 
	 "gaussian": { 
		 "optdone": 1, 
		 "sigma_profile": "yes", 
		 "theory": "DFT", 
		 "functional": "B3LYP", 
		 "basiset": "6-31G**", 
		 "properties": { 
			 "R2extent": 3602.2387, 
			 "electric_dipole_moment_norm": 5.07165086634, 
			 "electric_quadrupole_moment_norm": 19.5503347529, 
			 "total_energy": -721.150273289, 
			 "HOMO_LUMO_gap": 0.13943, 
			 "cosmo_polarized_energy": -13.09, 
			 "cosmo_cavitation_energy": 28.2, 
			 "cosmo_dispersion_energy": -20.66, 
			 "cosmo_repulsion_energy": 1.64, 
			 "cosmo_total_nonelectrostatic_energy": 9.18, 
			 "SMD_solvation_energy": 8.35 
		},
		"coords": [
			{
				"x": -0.3819241662,
				"y": 2.9840162415,
				"z": -0.2925355105,
				"element": "C" 
			},
			{
				"x": 0.7490671342,
				"y": 2.3877879865,
				"z": -0.9488864322,
				"element": "O" 
			},
			{
				"x": 0.8769828637,
				"y": 1.0330286312,
				"z": -0.8180416681,
				"element": "C" 
			},
			{
				"x": 1.077935078,
				"y": 0.4165197105,
				"z": 0.4468775975,
				"element": "C" 
			},
			{
				"x": 1.1055821117,
				"y": 1.1595538394,
				"z": 1.608004459,
				"element": "O" 
			},
			{
				"x": 2.32705379,
				"y": 1.8803514448,
				"z": 1.8134097878,
				"element": "C" 
			},
			{
				"x": 1.225692472,
				"y": -0.952404364,
				"z": 0.4990645537,
				"element": "C" 
			},
			{
				"x": 1.1948595107,
				"y": -1.7379065105,
				"z": -0.6673137524,
				"element": "C" 
			},
			{
				"x": 1.0323883099,
				"y": -1.1386869714,
				"z": -1.9491594231,
				"element": "C" 
			},
			{
				"x": 1.0273356254,
				"y": -1.8345235054,
				"z": -3.1144042465,
				"element": "N" 
			},
			{
				"x": 0.8647470185,
				"y": 0.2665819755,
				"z": -1.9706378081,
				"element": "C" 
			},
			{
				"x": 1.3463290001,
				"y": -3.1633616325,
				"z": -0.5004205842,
				"element": "N" 
			},
			{
				"x": 1.4871575296,
				"y": -3.6133641413,
				"z": 0.6387148923,
				"element": "O" 
			},
			{
				"x": 1.3293217341,
				"y": -3.8945598605,
				"z": -1.5117617997,
				"element": "O" 
			},
			{
				"x": -1.3151901177,
				"y": 2.611595917,
				"z": -0.7317674103,
				"element": "H" 
			},
			{
				"x": -0.3737058537,
				"y": 2.7821527041,
				"z": 0.780929417,
				"element": "H" 
			},
			{
				"x": -0.3005722752,
				"y": 4.0568888288,
				"z": -0.4743026168,
				"element": "H" 
			},
			{
				"x": 2.2125095365,
				"y": 2.4173795962,
				"z": 2.7571649373,
				"element": "H" 
			},
			{
				"x": 3.1773355064,
				"y": 1.1913252129,
				"z": 1.8879145681,
				"element": "H" 
			},
			{
				"x": 2.5087564989,
				"y": 2.5950769593,
				"z": 1.003101553,
				"element": "H" 
			},
			{
				"x": 1.3718607452,
				"y": -1.4445641107,
				"z": 1.4517095773,
				"element": "H" 
			},
			{
				"x": 0.8302788813,
				"y": -1.3583153926,
				"z": -3.978080284,
				"element": "H" 
			},
			{
				"x": 1.0811999086,
				"y": -2.8418132422,
				"z": -3.0663264204,
				"element": "H" 
			},
			{
				"x": 0.7183991582,
				"y": 0.7740406833,
				"z": -2.9189533866,
				"element": "H" 
			}
		],
		 "valence_orbital": [ 
			{
				"type": "occ",
				"energy": -0.29369,
				"method": "rhf"
			},
			{
				"type": "occ",
				"energy": -0.28071,
				"method": "rhf"
			},
			{
				"type": "occ",
				"energy": -0.27397,
				"method": "rhf"
			},
			{
				"type": "occ",
				"energy": -0.25595,
				"method": "rhf"
			},
			{
				"type": "occ",
				"energy": -0.21567,
				"method": "rhf"
			},
			{
				"type": "unocc",
				"energy": -0.07624,
				"method": "rhf"
			},
			{
				"type": "unocc",
				"energy": -0.00306,
				"method": "rhf"
			},
			{
				"type": "unocc",
				"energy": 0.01546,
				"method": "rhf"
			},
			{
				"type": "unocc",
				"energy": 0.07357,
				"method": "rhf"
			},
			{
				"type": "unocc",
				"energy": 0.08562,
				"method": "rhf"
			}
		],
		"cosmo_sigma_profile": { 
			"-0.025": 0.0,
			"-0.024": 0.0,
			"-0.023": 0.0,
			"-0.022": 0.0,
			"-0.021": 0.0,
			"-0.02": 0.0,
			"-0.019": 0.0,
			"-0.018": 0.0,
			"-0.017": 0.0,
			"-0.016": 0.0,
			"-0.015": 0.470997100309,
			"-0.014": 1.56599958706,
			"-0.013": 1.43042119654,
			"-0.012": 1.45836080029,
			"-0.011": 1.52345951489,
			"-0.01": 2.02928103686,
			"-0.009": 2.64417847152,
			"-0.008": 2.83077009876,
			"-0.007": 2.34573078119,
			"-0.006": 5.83926907508,
			"-0.005": 11.6770591347,
			"-0.004": 18.1768041582,
			"-0.003": 24.0364629971,
			"-0.002": 20.5113253709,
			"-0.001": 18.4547274543,
			"0.0": 14.9755741305,
			"0.001": 19.1607855644,
			"0.002": 15.4804300372,
			"0.003": 10.4324140663,
			"0.004": 4.96120677879,
			"0.005": 5.23490585373,
			"0.006": 6.11791168241,
			"0.007": 5.41675342136,
			"0.008": 6.85242073691,
			"0.009": 8.43806911339,
			"0.01": 5.48314979126,
			"0.011": 5.45515783107,
			"0.012": 1.0612979569,
			"0.013": 0.0,
			"0.014": 0.0,
			"0.015": 0.0,
			"0.016": 0.0,
			"0.017": 0.0,
			"0.018": 0.0,
			"0.019": 0.0,
			"0.02": 0.0,
			"0.021": 0.0,
			"0.022": 0.0,
			"0.023": 0.0,
			"0.024": 0.0,
			"0.025": 0.0
		}
	}
}
