{
	 "smiles": "O=C(CC(C(=O)C1=CC=CC=C1)C1=CC=CC=C1)C1=CC=CC=C1", 
	 "Tm": 401.15, 
	 "num_atms": 42, 
	 "gaussian": { 
		 "optdone": 1, 
		 "sigma_profile": "yes", 
		 "theory": "DFT", 
		 "functional": "B3LYP", 
		 "basiset": "6-31G**", 
		 "properties": { 
			 "R2extent": 8840.2758, 
			 "electric_dipole_moment_norm": 4.60097969024, 
			 "electric_quadrupole_moment_norm": 11.5114951857, 
			 "total_energy": -999.641064411, 
			 "HOMO_LUMO_gap": 0.17337, 
			 "cosmo_polarized_energy": -16.2, 
			 "cosmo_cavitation_energy": 46.14, 
			 "cosmo_dispersion_energy": -30.45, 
			 "cosmo_repulsion_energy": 2.33, 
			 "cosmo_total_nonelectrostatic_energy": 18.02, 
			 "SMD_solvation_energy": 8.39 
		},
		"coords": [
			{
				"x": -0.6505414206,
				"y": -0.6156611444,
				"z": 2.9905378847,
				"element": "O" 
			},
			{
				"x": -1.3162361334,
				"y": 0.0119789478,
				"z": 2.1804560605,
				"element": "C" 
			},
			{
				"x": -0.7317066461,
				"y": 1.2392556979,
				"z": 1.4929067929,
				"element": "C" 
			},
			{
				"x": -0.3063464477,
				"y": 0.9529544661,
				"z": 0.0273894118,
				"element": "C" 
			},
			{
				"x": 0.1048303245,
				"y": 2.2702395769,
				"z": -0.6575034641,
				"element": "C" 
			},
			{
				"x": 0.4385612932,
				"y": 3.2327465942,
				"z": 0.0191965046,
				"element": "O" 
			},
			{
				"x": 0.0937610527,
				"y": 2.3627165804,
				"z": -2.1542305433,
				"element": "C" 
			},
			{
				"x": -0.2085846983,
				"y": 1.2800331904,
				"z": -2.9949298522,
				"element": "C" 
			},
			{
				"x": -0.211681366,
				"y": 1.4438151761,
				"z": -4.3799495091,
				"element": "C" 
			},
			{
				"x": 0.0827930262,
				"y": 2.6885016463,
				"z": -4.939404781,
				"element": "C" 
			},
			{
				"x": 0.3873922495,
				"y": 3.7722452886,
				"z": -4.1100411547,
				"element": "C" 
			},
			{
				"x": 0.3950028948,
				"y": 3.6092959642,
				"z": -2.72857804,
				"element": "C" 
			},
			{
				"x": 0.827878103,
				"y": -0.0671453852,
				"z": -0.0563560586,
				"element": "C" 
			},
			{
				"x": 2.1382180391,
				"y": 0.291309789,
				"z": 0.2897996378,
				"element": "C" 
			},
			{
				"x": 3.1681927957,
				"y": -0.647220936,
				"z": 0.2334601931,
				"element": "C" 
			},
			{
				"x": 2.9046525142,
				"y": -1.9582438746,
				"z": -0.1685264881,
				"element": "C" 
			},
			{
				"x": 1.6030416782,
				"y": -2.3256413879,
				"z": -0.5115199038,
				"element": "C" 
			},
			{
				"x": 0.5732729177,
				"y": -1.3850785412,
				"z": -0.4565037691,
				"element": "C" 
			},
			{
				"x": -2.7110819924,
				"y": -0.4357559319,
				"z": 1.8410436755,
				"element": "C" 
			},
			{
				"x": -3.1491301823,
				"y": -1.662757905,
				"z": 2.3663495522,
				"element": "C" 
			},
			{
				"x": -4.4295750352,
				"y": -2.1334836488,
				"z": 2.0936750305,
				"element": "C" 
			},
			{
				"x": -5.2956938643,
				"y": -1.3813439445,
				"z": 1.2935417938,
				"element": "C" 
			},
			{
				"x": -4.8742866082,
				"y": -0.1580562539,
				"z": 0.7698400498,
				"element": "C" 
			},
			{
				"x": -3.5886934747,
				"y": 0.3124313326,
				"z": 1.0404414335,
				"element": "C" 
			},
			{
				"x": -1.4467929187,
				"y": 2.0682969929,
				"z": 1.4998781762,
				"element": "H" 
			},
			{
				"x": 0.1380067758,
				"y": 1.5542880924,
				"z": 2.0701896348,
				"element": "H" 
			},
			{
				"x": -1.1659240193,
				"y": 0.5432523985,
				"z": -0.5140730175,
				"element": "H" 
			},
			{
				"x": -0.4205271313,
				"y": 0.3021404664,
				"z": -2.578179013,
				"element": "H" 
			},
			{
				"x": -0.4414519735,
				"y": 0.5986231932,
				"z": -5.0219959359,
				"element": "H" 
			},
			{
				"x": 0.0773880182,
				"y": 2.813727311,
				"z": -6.0185130848,
				"element": "H" 
			},
			{
				"x": 0.6185602406,
				"y": 4.7410853327,
				"z": -4.5431534934,
				"element": "H" 
			},
			{
				"x": 0.6296172888,
				"y": 4.4344983325,
				"z": -2.0648155245,
				"element": "H" 
			},
			{
				"x": 2.3508082935,
				"y": 1.3094523087,
				"z": 0.6036871509,
				"element": "H" 
			},
			{
				"x": 4.1783487728,
				"y": -0.3533034898,
				"z": 0.5039353911,
				"element": "H" 
			},
			{
				"x": 3.7076401544,
				"y": -2.6883150712,
				"z": -0.2115494257,
				"element": "H" 
			},
			{
				"x": 1.3863390359,
				"y": -3.3445615006,
				"z": -0.819628693,
				"element": "H" 
			},
			{
				"x": -0.440627888,
				"y": -1.681016589,
				"z": -0.7160230634,
				"element": "H" 
			},
			{
				"x": -2.4602710799,
				"y": -2.2241401401,
				"z": 2.9886296151,
				"element": "H" 
			},
			{
				"x": -4.756810823,
				"y": -3.0845878938,
				"z": 2.5038312044,
				"element": "H" 
			},
			{
				"x": -6.2965201199,
				"y": -1.7468931946,
				"z": 1.0816005739,
				"element": "H" 
			},
			{
				"x": -5.5465578141,
				"y": 0.4316755859,
				"z": 0.1534965647,
				"element": "H" 
			},
			{
				"x": -3.281363832,
				"y": 1.2703425679,
				"z": 0.6335884835,
				"element": "H" 
			}
		],
		 "valence_orbital": [ 
			{
				"type": "occ",
				"energy": -0.25843,
				"method": "rhf"
			},
			{
				"type": "occ",
				"energy": -0.25794,
				"method": "rhf"
			},
			{
				"type": "occ",
				"energy": -0.25039,
				"method": "rhf"
			},
			{
				"type": "occ",
				"energy": -0.24665,
				"method": "rhf"
			},
			{
				"type": "occ",
				"energy": -0.23576,
				"method": "rhf"
			},
			{
				"type": "unocc",
				"energy": -0.06239,
				"method": "rhf"
			},
			{
				"type": "unocc",
				"energy": -0.05407,
				"method": "rhf"
			},
			{
				"type": "unocc",
				"energy": -0.01265,
				"method": "rhf"
			},
			{
				"type": "unocc",
				"energy": -0.01105,
				"method": "rhf"
			},
			{
				"type": "unocc",
				"energy": -0.00374,
				"method": "rhf"
			}
		],
		"cosmo_sigma_profile": { 
			"-0.025": 0.0,
			"-0.024": 0.0,
			"-0.023": 0.0,
			"-0.022": 0.0,
			"-0.021": 0.0,
			"-0.02": 0.0,
			"-0.019": 0.0,
			"-0.018": 0.0,
			"-0.017": 0.0,
			"-0.016": 0.0,
			"-0.015": 0.0,
			"-0.014": 0.0,
			"-0.013": 0.0,
			"-0.012": 0.0,
			"-0.011": 0.0,
			"-0.01": 0.0,
			"-0.009": 0.783471745431,
			"-0.008": 3.57295888887,
			"-0.007": 7.21629084192,
			"-0.006": 25.0044654775,
			"-0.005": 34.0135411802,
			"-0.004": 36.210838901,
			"-0.003": 26.2345568192,
			"-0.002": 26.3613331345,
			"-0.001": 21.1961979238,
			"0.0": 22.6675983298,
			"0.001": 23.8017318769,
			"0.002": 28.7933346454,
			"0.003": 30.0063814421,
			"0.004": 33.3779714128,
			"0.005": 13.8430842168,
			"0.006": 7.10000722528,
			"0.007": 5.38542408625,
			"0.008": 3.16565887489,
			"0.009": 3.54909201778,
			"0.01": 3.76295643498,
			"0.011": 6.11601273625,
			"0.012": 5.95794138478,
			"0.013": 1.18436303411,
			"0.014": 0.086174080434,
			"0.015": 0.0,
			"0.016": 0.0,
			"0.017": 0.0,
			"0.018": 0.0,
			"0.019": 0.0,
			"0.02": 0.0,
			"0.021": 0.0,
			"0.022": 0.0,
			"0.023": 0.0,
			"0.024": 0.0,
			"0.025": 0.0
		}
	}
}
