{
	 "smiles": "CC(C)(N)CCS(C)(=O)=O", 
	 "Tm": 315.15, 
	 "num_atms": 25, 
	 "gaussian": { 
		 "optdone": 1, 
		 "sigma_profile": "yes", 
		 "theory": "DFT", 
		 "functional": "B3LYP", 
		 "basiset": "6-31G**", 
		 "properties": { 
			 "R2extent": 2654.3131, 
			 "electric_dipole_moment_norm": 4.24339476009, 
			 "electric_quadrupole_moment_norm": 21.0897828128, 
			 "total_energy": -841.01447326, 
			 "HOMO_LUMO_gap": 0.28997, 
			 "cosmo_polarized_energy": -19.86, 
			 "cosmo_cavitation_energy": 27.89, 
			 "cosmo_dispersion_energy": -20.02, 
			 "cosmo_repulsion_energy": 1.58, 
			 "cosmo_total_nonelectrostatic_energy": 9.45, 
			 "SMD_solvation_energy": 3.57 
		},
		"coords": [
			{
				"x": -0.5974762046,
				"y": -1.084983011,
				"z": 1.7858724525,
				"element": "C" 
			},
			{
				"x": -1.3628632989,
				"y": 0.0559300796,
				"z": 1.0958012121,
				"element": "C" 
			},
			{
				"x": -2.7426584186,
				"y": -0.4511159013,
				"z": 0.6434999957,
				"element": "C" 
			},
			{
				"x": -1.5948968195,
				"y": 1.106041329,
				"z": 2.1016413858,
				"element": "N" 
			},
			{
				"x": -0.6016142779,
				"y": 0.5577270338,
				"z": -0.1713688404,
				"element": "C" 
			},
			{
				"x": 0.779985731,
				"y": 1.1469462966,
				"z": 0.1053236555,
				"element": "C" 
			},
			{
				"x": 1.6964218518,
				"y": 1.6516105335,
				"z": -1.3850092289,
				"element": "S" 
			},
			{
				"x": 0.7823412595,
				"y": 3.0749646111,
				"z": -2.0284251659,
				"element": "C" 
			},
			{
				"x": 3.0111571873,
				"y": 2.1380240499,
				"z": -0.9374286829,
				"element": "O" 
			},
			{
				"x": 1.5952403017,
				"y": 0.5695973902,
				"z": -2.3779295432,
				"element": "O" 
			},
			{
				"x": -1.1854278849,
				"y": -1.4718494481,
				"z": 2.622290909,
				"element": "H" 
			},
			{
				"x": 0.3633197039,
				"y": -0.7464471245,
				"z": 2.1896856289,
				"element": "H" 
			},
			{
				"x": -0.3979184219,
				"y": -1.9043845738,
				"z": 1.0882287092,
				"element": "H" 
			},
			{
				"x": -2.6470053289,
				"y": -1.2668025823,
				"z": -0.0801155064,
				"element": "H" 
			},
			{
				"x": -3.3192384603,
				"y": 0.351567686,
				"z": 0.1681097606,
				"element": "H" 
			},
			{
				"x": -3.3111229394,
				"y": -0.8087320829,
				"z": 1.5059296881,
				"element": "H" 
			},
			{
				"x": -2.0723331122,
				"y": 1.9026835736,
				"z": 1.6847373457,
				"element": "H" 
			},
			{
				"x": -0.7170002576,
				"y": 1.4491169301,
				"z": 2.4838813867,
				"element": "H" 
			},
			{
				"x": -1.2317437833,
				"y": 1.314436375,
				"z": -0.6580316889,
				"element": "H" 
			},
			{
				"x": -0.4911064508,
				"y": -0.2653075448,
				"z": -0.8854218665,
				"element": "H" 
			},
			{
				"x": 1.4594472389,
				"y": 0.4179784071,
				"z": 0.5574285628,
				"element": "H" 
			},
			{
				"x": 0.7505764036,
				"y": 2.0258158807,
				"z": 0.7569575974,
				"element": "H" 
			},
			{
				"x": -0.2287807836,
				"y": 2.7749507833,
				"z": -2.3060168168,
				"element": "H" 
			},
			{
				"x": 1.3313946347,
				"y": 3.3995294663,
				"z": -2.9142417961,
				"element": "H" 
			},
			{
				"x": 0.77380213,
				"y": 3.8708018429,
				"z": -1.2819991539,
				"element": "H" 
			}
		],
		 "valence_orbital": [ 
			{
				"type": "occ",
				"energy": -0.32017,
				"method": "rhf"
			},
			{
				"type": "occ",
				"energy": -0.30858,
				"method": "rhf"
			},
			{
				"type": "occ",
				"energy": -0.29246,
				"method": "rhf"
			},
			{
				"type": "occ",
				"energy": -0.28358,
				"method": "rhf"
			},
			{
				"type": "occ",
				"energy": -0.24563,
				"method": "rhf"
			},
			{
				"type": "unocc",
				"energy": 0.04434,
				"method": "rhf"
			},
			{
				"type": "unocc",
				"energy": 0.06164,
				"method": "rhf"
			},
			{
				"type": "unocc",
				"energy": 0.07698,
				"method": "rhf"
			},
			{
				"type": "unocc",
				"energy": 0.08062,
				"method": "rhf"
			},
			{
				"type": "unocc",
				"energy": 0.08606,
				"method": "rhf"
			}
		],
		"cosmo_sigma_profile": { 
			"-0.025": 0.0,
			"-0.024": 0.0,
			"-0.023": 0.0,
			"-0.022": 0.0,
			"-0.021": 0.0,
			"-0.02": 0.0,
			"-0.019": 0.0,
			"-0.018": 0.0,
			"-0.017": 0.0,
			"-0.016": 0.0,
			"-0.015": 0.0,
			"-0.014": 0.0,
			"-0.013": 0.0,
			"-0.012": 0.0,
			"-0.011": 0.0160339996738,
			"-0.01": 1.41237360511,
			"-0.009": 6.17148301155,
			"-0.008": 10.8277097817,
			"-0.007": 14.3258533632,
			"-0.006": 15.0219815833,
			"-0.005": 13.5240870748,
			"-0.004": 13.8788392844,
			"-0.003": 19.7213410633,
			"-0.002": 14.8612993255,
			"-0.001": 14.0731249278,
			"0.0": 13.4200285609,
			"0.001": 15.4042851166,
			"0.002": 6.81880623472,
			"0.003": 4.05265916229,
			"0.004": 3.52469532746,
			"0.005": 2.12717456633,
			"0.006": 2.90715072315,
			"0.007": 3.12935921759,
			"0.008": 3.19945402318,
			"0.009": 3.94925756875,
			"0.01": 4.12464682276,
			"0.011": 7.16568800625,
			"0.012": 12.6256553818,
			"0.013": 6.17747222877,
			"0.014": 0.172534529486,
			"0.015": 0.957994602101,
			"0.016": 0.685280550551,
			"0.017": 0.436168652795,
			"0.018": 0.416133949082,
			"0.019": 0.393470871943,
			"0.02": 0.141206624042,
			"0.021": 0.0,
			"0.022": 0.0,
			"0.023": 0.0,
			"0.024": 0.0,
			"0.025": 0.0
		}
	}
}
