{
	 "smiles": "CC(O)C1=C(C)N=C(S1)C1=CC=C(F)C=C1", 
	 "Tm": 387.15, 
	 "num_atms": 28, 
	 "gaussian": { 
		 "optdone": 1, 
		 "sigma_profile": "yes", 
		 "theory": "DFT", 
		 "functional": "B3LYP", 
		 "basiset": "6-31G**", 
		 "properties": { 
			 "R2extent": 6129.0807, 
			 "electric_dipole_moment_norm": 1.40752346339, 
			 "electric_quadrupole_moment_norm": 9.01351423808, 
			 "total_energy": -1092.50927693, 
			 "HOMO_LUMO_gap": 0.1617, 
			 "cosmo_polarized_energy": -9.37, 
			 "cosmo_cavitation_energy": 33.55, 
			 "cosmo_dispersion_energy": -24.62, 
			 "cosmo_repulsion_energy": 1.85, 
			 "cosmo_total_nonelectrostatic_energy": 10.78, 
			 "SMD_solvation_energy": 4.73 
		},
		"coords": [
			{
				"x": -1.5463151282,
				"y": 1.4425448242,
				"z": 3.310828886,
				"element": "C" 
			},
			{
				"x": -0.2473747831,
				"y": 1.5479592994,
				"z": 2.508230887,
				"element": "C" 
			},
			{
				"x": 0.8779882992,
				"y": 1.1756634955,
				"z": 3.314193896,
				"element": "O" 
			},
			{
				"x": -0.2579592994,
				"y": 0.7874679909,
				"z": 1.1974142329,
				"element": "C" 
			},
			{
				"x": 0.7408111968,
				"y": 0.7340481942,
				"z": 0.2502954277,
				"element": "C" 
			},
			{
				"x": 2.055924237,
				"y": 1.457460699,
				"z": 0.3210167881,
				"element": "C" 
			},
			{
				"x": 0.4752856881,
				"y": -0.0469946353,
				"z": -0.8493837239,
				"element": "N" 
			},
			{
				"x": -0.7044352531,
				"y": -0.6082511195,
				"z": -0.7910397241,
				"element": "C" 
			},
			{
				"x": -1.6006991947,
				"y": -0.2032279112,
				"z": 0.6699577554,
				"element": "S" 
			},
			{
				"x": -1.2411823526,
				"y": -1.4925098063,
				"z": -1.8333780079,
				"element": "C" 
			},
			{
				"x": -0.4527531527,
				"y": -1.7628745765,
				"z": -2.9674085045,
				"element": "C" 
			},
			{
				"x": -0.9208867104,
				"y": -2.5938096217,
				"z": -3.9792258996,
				"element": "C" 
			},
			{
				"x": -2.1873429549,
				"y": -3.1573068553,
				"z": -3.8535558153,
				"element": "C" 
			},
			{
				"x": -2.6459212994,
				"y": -3.9636600698,
				"z": -4.8315390361,
				"element": "F" 
			},
			{
				"x": -2.9939177973,
				"y": -2.9124978202,
				"z": -2.747478121,
				"element": "C" 
			},
			{
				"x": -2.514320361,
				"y": -2.0788947458,
				"z": -1.7406980783,
				"element": "C" 
			},
			{
				"x": -2.3994229925,
				"y": 1.8402157056,
				"z": 2.7518572322,
				"element": "H" 
			},
			{
				"x": -1.7638682512,
				"y": 0.4011449012,
				"z": 3.5744860379,
				"element": "H" 
			},
			{
				"x": -1.4412718037,
				"y": 2.0118087988,
				"z": 4.23753917,
				"element": "H" 
			},
			{
				"x": -0.0670874026,
				"y": 2.6066429098,
				"z": 2.284351443,
				"element": "H" 
			},
			{
				"x": 0.8717048718,
				"y": 0.2111149495,
				"z": 3.3887276594,
				"element": "H" 
			},
			{
				"x": 2.0553674555,
				"y": 2.330394146,
				"z": -0.3428794582,
				"element": "H" 
			},
			{
				"x": 2.860340673,
				"y": 0.7974694655,
				"z": -0.0166861023,
				"element": "H" 
			},
			{
				"x": 2.2709725804,
				"y": 1.7842579155,
				"z": 1.3390252107,
				"element": "H" 
			},
			{
				"x": 0.5290717717,
				"y": -1.3084029442,
				"z": -3.0352002964,
				"element": "H" 
			},
			{
				"x": -0.3233804233,
				"y": -2.8101656308,
				"z": -4.8582113507,
				"element": "H" 
			},
			{
				"x": -3.975022857,
				"y": -3.37036826,
				"z": -2.6867200998,
				"element": "H" 
			},
			{
				"x": -3.1432047561,
				"y": -1.8864292984,
				"z": -0.8762204081,
				"element": "H" 
			}
		],
		 "valence_orbital": [ 
			{
				"type": "occ",
				"energy": -0.27891,
				"method": "rhf"
			},
			{
				"type": "occ",
				"energy": -0.26994,
				"method": "rhf"
			},
			{
				"type": "occ",
				"energy": -0.26817,
				"method": "rhf"
			},
			{
				"type": "occ",
				"energy": -0.26486,
				"method": "rhf"
			},
			{
				"type": "occ",
				"energy": -0.21468,
				"method": "rhf"
			},
			{
				"type": "unocc",
				"energy": -0.05298,
				"method": "rhf"
			},
			{
				"type": "unocc",
				"energy": -0.0159,
				"method": "rhf"
			},
			{
				"type": "unocc",
				"energy": 0.01565,
				"method": "rhf"
			},
			{
				"type": "unocc",
				"energy": 0.01957,
				"method": "rhf"
			},
			{
				"type": "unocc",
				"energy": 0.05814,
				"method": "rhf"
			}
		],
		"cosmo_sigma_profile": { 
			"-0.025": 0.0,
			"-0.024": 0.0,
			"-0.023": 0.0,
			"-0.022": 0.0,
			"-0.021": 0.0,
			"-0.02": 0.0,
			"-0.019": 0.0,
			"-0.018": 0.0,
			"-0.017": 0.0,
			"-0.016": 0.0410817046626,
			"-0.015": 0.748434676174,
			"-0.014": 0.734104839045,
			"-0.013": 0.798701217584,
			"-0.012": 0.99873637808,
			"-0.011": 1.04297998534,
			"-0.01": 0.668175092155,
			"-0.009": 0.87659484072,
			"-0.008": 2.61565444683,
			"-0.007": 6.37547865449,
			"-0.006": 8.15272599582,
			"-0.005": 12.1303852754,
			"-0.004": 17.6860268321,
			"-0.003": 19.0225867729,
			"-0.002": 21.5600836,
			"-0.001": 23.9478290365,
			"0.0": 28.2708147191,
			"0.001": 27.7374899473,
			"0.002": 26.0545080742,
			"0.003": 26.5199368031,
			"0.004": 17.7692041468,
			"0.005": 5.25192318485,
			"0.006": 3.59315481197,
			"0.007": 2.82155119797,
			"0.008": 2.24339041202,
			"0.009": 2.30630358211,
			"0.01": 2.23144410885,
			"0.011": 2.44707361356,
			"0.012": 1.88826739335,
			"0.013": 1.23312538119,
			"0.014": 1.04686997284,
			"0.015": 0.0,
			"0.016": 0.0,
			"0.017": 0.0,
			"0.018": 0.0,
			"0.019": 0.0,
			"0.02": 0.0,
			"0.021": 0.0,
			"0.022": 0.0,
			"0.023": 0.0,
			"0.024": 0.0,
			"0.025": 0.0
		}
	}
}
