{
	 "smiles": "OC(CNCC1=CC=CC=C1)C1=CC=CO1", 
	 "Tm": 342.15, 
	 "num_atms": 31, 
	 "gaussian": { 
		 "optdone": 1, 
		 "sigma_profile": "yes", 
		 "theory": "DFT", 
		 "functional": "B3LYP", 
		 "basiset": "6-31G**", 
		 "properties": { 
			 "R2extent": 4809.4586, 
			 "electric_dipole_moment_norm": 0.765814220291, 
			 "electric_quadrupole_moment_norm": 7.41496770863, 
			 "total_energy": -709.581016749, 
			 "HOMO_LUMO_gap": 0.21555, 
			 "cosmo_polarized_energy": -9.65, 
			 "cosmo_cavitation_energy": 34.59, 
			 "cosmo_dispersion_energy": -24.07, 
			 "cosmo_repulsion_energy": 1.89, 
			 "cosmo_total_nonelectrostatic_energy": 12.41, 
			 "SMD_solvation_energy": 5.73 
		},
		"coords": [
			{
				"x": 2.0408105472,
				"y": 2.0250380089,
				"z": -0.5818750449,
				"element": "O" 
			},
			{
				"x": 1.841727215,
				"y": 0.6005921567,
				"z": -0.5648461695,
				"element": "C" 
			},
			{
				"x": 0.8252343555,
				"y": 0.3224766043,
				"z": 0.5410122349,
				"element": "C" 
			},
			{
				"x": -0.4371466375,
				"y": 1.0106947201,
				"z": 0.2895855991,
				"element": "N" 
			},
			{
				"x": -1.3407454086,
				"y": 1.0093870934,
				"z": 1.4400503335,
				"element": "C" 
			},
			{
				"x": -2.0033017756,
				"y": -0.3391241607,
				"z": 1.6621350123,
				"element": "C" 
			},
			{
				"x": -1.9544659803,
				"y": -0.9712891978,
				"z": 2.9087558937,
				"element": "C" 
			},
			{
				"x": -2.5881584403,
				"y": -2.1997518997,
				"z": 3.1149601604,
				"element": "C" 
			},
			{
				"x": -3.2771512125,
				"y": -2.8139432986,
				"z": 2.0695093356,
				"element": "C" 
			},
			{
				"x": -3.3295848331,
				"y": -2.192653122,
				"z": 0.8181236825,
				"element": "C" 
			},
			{
				"x": -2.6980106873,
				"y": -0.9663419409,
				"z": 0.6178497105,
				"element": "C" 
			},
			{
				"x": 1.4470594596,
				"y": 0.0827978024,
				"z": -1.9135038129,
				"element": "C" 
			},
			{
				"x": 0.3087364615,
				"y": -0.401002483,
				"z": -2.486538125,
				"element": "C" 
			},
			{
				"x": 0.6318008523,
				"y": -0.7027766036,
				"z": -3.8512368034,
				"element": "C" 
			},
			{
				"x": 1.940945377,
				"y": -0.3712175543,
				"z": -4.0150850604,
				"element": "C" 
			},
			{
				"x": 2.4595281794,
				"y": 0.1062875246,
				"z": -2.8467090523,
				"element": "O" 
			},
			{
				"x": 2.5511965601,
				"y": 2.2360764592,
				"z": -1.3745889313,
				"element": "H" 
			},
			{
				"x": 2.7862886294,
				"y": 0.1085378518,
				"z": -0.2824870078,
				"element": "H" 
			},
			{
				"x": 0.6501823049,
				"y": -0.7570048892,
				"z": 0.607543843,
				"element": "H" 
			},
			{
				"x": 1.2898329388,
				"y": 0.6357815652,
				"z": 1.4943999979,
				"element": "H" 
			},
			{
				"x": -0.2145682712,
				"y": 1.9683231497,
				"z": 0.0297546968,
				"element": "H" 
			},
			{
				"x": -0.8365818296,
				"y": 1.3141163898,
				"z": 2.3764176575,
				"element": "H" 
			},
			{
				"x": -2.1158529845,
				"y": 1.7609996563,
				"z": 1.2428698002,
				"element": "H" 
			},
			{
				"x": -1.414489475,
				"y": -0.4981678898,
				"z": 3.725778871,
				"element": "H" 
			},
			{
				"x": -2.5382704781,
				"y": -2.6765768996,
				"z": 4.0900261912,
				"element": "H" 
			},
			{
				"x": -3.7692214092,
				"y": -3.7697948049,
				"z": 2.2258033378,
				"element": "H" 
			},
			{
				"x": -3.8657473223,
				"y": -2.6649855078,
				"z": -0.0006273367,
				"element": "H" 
			},
			{
				"x": -2.7363756725,
				"y": -0.4809936217,
				"z": -0.3532610923,
				"element": "H" 
			},
			{
				"x": -0.6413233573,
				"y": -0.5069300161,
				"z": -1.9867679414,
				"element": "H" 
			},
			{
				"x": -0.0270951587,
				"y": -1.1090804228,
				"z": -4.6053198134,
				"element": "H" 
			},
			{
				"x": 2.6227480528,
				"y": -0.41367467,
				"z": -4.8504301665,
				"element": "H" 
			}
		],
		 "valence_orbital": [ 
			{
				"type": "occ",
				"energy": -0.27322,
				"method": "rhf"
			},
			{
				"type": "occ",
				"energy": -0.24517,
				"method": "rhf"
			},
			{
				"type": "occ",
				"energy": -0.23991,
				"method": "rhf"
			},
			{
				"type": "occ",
				"energy": -0.22735,
				"method": "rhf"
			},
			{
				"type": "occ",
				"energy": -0.21538,
				"method": "rhf"
			},
			{
				"type": "unocc",
				"energy": 0.00017,
				"method": "rhf"
			},
			{
				"type": "unocc",
				"energy": 0.00481,
				"method": "rhf"
			},
			{
				"type": "unocc",
				"energy": 0.01145,
				"method": "rhf"
			},
			{
				"type": "unocc",
				"energy": 0.06831,
				"method": "rhf"
			},
			{
				"type": "unocc",
				"energy": 0.09126,
				"method": "rhf"
			}
		],
		"cosmo_sigma_profile": { 
			"-0.025": 0.0,
			"-0.024": 0.0,
			"-0.023": 0.0,
			"-0.022": 0.0,
			"-0.021": 0.0,
			"-0.02": 0.0,
			"-0.019": 0.0,
			"-0.018": 0.0,
			"-0.017": 0.0,
			"-0.016": 0.0,
			"-0.015": 0.233138174773,
			"-0.014": 0.807930251913,
			"-0.013": 0.688332942182,
			"-0.012": 0.7495950732,
			"-0.011": 0.701836149822,
			"-0.01": 0.589672253678,
			"-0.009": 1.38769021632,
			"-0.008": 3.08013005297,
			"-0.007": 4.41631340179,
			"-0.006": 7.53798131333,
			"-0.005": 16.8663450793,
			"-0.004": 24.1742337334,
			"-0.003": 28.072349912,
			"-0.002": 25.9709708921,
			"-0.001": 22.6426306113,
			"0.0": 17.6692286593,
			"0.001": 16.3437782984,
			"0.002": 17.3085659338,
			"0.003": 17.9165722358,
			"0.004": 17.6440160477,
			"0.005": 16.8704909325,
			"0.006": 16.4807523008,
			"0.007": 5.75357827052,
			"0.008": 2.90450433126,
			"0.009": 1.93996005423,
			"0.01": 1.55429879227,
			"0.011": 0.865622271405,
			"0.012": 0.963808888674,
			"0.013": 1.14238183481,
			"0.014": 0.300611386546,
			"0.015": 0.0,
			"0.016": 0.0,
			"0.017": 0.0,
			"0.018": 0.0,
			"0.019": 0.0,
			"0.02": 0.0,
			"0.021": 0.0,
			"0.022": 0.0,
			"0.023": 0.0,
			"0.024": 0.0,
			"0.025": 0.0
		}
	}
}
