{
	 "smiles": "C[P+]([O-])(CCCCN1C(=O)C2=CC=CC=C2C1=O)OCCCCN1C(=O)C2=CC=CC=C2C1=O", 
	 "Tm": 387.15, 
	 "num_atms": 61, 
	 "gaussian": { 
		 "optdone": 1, 
		 "sigma_profile": "yes", 
		 "theory": "DFT", 
		 "functional": "B3LYP", 
		 "basiset": "6-31G**", 
		 "properties": { 
			 "R2extent": 19598.191, 
			 "electric_dipole_moment_norm": 3.31838860443, 
			 "electric_quadrupole_moment_norm": 24.2923495377, 
			 "total_energy": -1871.27247866, 
			 "HOMO_LUMO_gap": 0.17297, 
			 "cosmo_polarized_energy": -26.96, 
			 "cosmo_cavitation_energy": 66.31, 
			 "cosmo_dispersion_energy": -41.32, 
			 "cosmo_repulsion_energy": 3.01, 
			 "cosmo_total_nonelectrostatic_energy": 27.99, 
			 "SMD_solvation_energy": 13.22 
		},
		"coords": [
			{
				"x": 1.0570435421,
				"y": -5.0590217339,
				"z": -1.3336412824,
				"element": "C" 
			},
			{
				"x": 0.4149914044,
				"y": -3.38216823,
				"z": -1.6522528069,
				"element": "P" 
			},
			{
				"x": -0.0056065544,
				"y": -2.6312829679,
				"z": -0.4277981084,
				"element": "O" 
			},
			{
				"x": 1.6648257564,
				"y": -2.5505746605,
				"z": -2.7030323666,
				"element": "C" 
			},
			{
				"x": 1.4446946058,
				"y": -1.0292682544,
				"z": -2.8342924528,
				"element": "C" 
			},
			{
				"x": 2.0294936271,
				"y": -0.2350355504,
				"z": -1.6584562463,
				"element": "C" 
			},
			{
				"x": 1.7252296575,
				"y": 1.2644248306,
				"z": -1.7875651889,
				"element": "C" 
			},
			{
				"x": 2.5269081056,
				"y": 2.0873137247,
				"z": -0.8832127611,
				"element": "N" 
			},
			{
				"x": 2.1659020727,
				"y": 2.4385228152,
				"z": 0.4214875104,
				"element": "C" 
			},
			{
				"x": 1.1343095365,
				"y": 2.1259347674,
				"z": 0.9879855947,
				"element": "O" 
			},
			{
				"x": 3.2934525619,
				"y": 3.2642117315,
				"z": 0.950839037,
				"element": "C" 
			},
			{
				"x": 3.4538170801,
				"y": 3.8748562768,
				"z": 2.185786609,
				"element": "C" 
			},
			{
				"x": 4.6362662658,
				"y": 4.5967010108,
				"z": 2.398832826,
				"element": "C" 
			},
			{
				"x": 5.6135292094,
				"y": 4.6948060235,
				"z": 1.4000502805,
				"element": "C" 
			},
			{
				"x": 5.4405302869,
				"y": 4.0743254004,
				"z": 0.155202785,
				"element": "C" 
			},
			{
				"x": 4.2671160263,
				"y": 3.3621863667,
				"z": -0.0444029624,
				"element": "C" 
			},
			{
				"x": 3.7877200944,
				"y": 2.6017181778,
				"z": -1.2369030995,
				"element": "C" 
			},
			{
				"x": 4.3349805326,
				"y": 2.4384465178,
				"z": -2.3096102513,
				"element": "O" 
			},
			{
				"x": -0.7855739519,
				"y": -3.6688082796,
				"z": -2.7296912596,
				"element": "O" 
			},
			{
				"x": -2.1476933473,
				"y": -3.2644775351,
				"z": -2.4736446086,
				"element": "C" 
			},
			{
				"x": -2.6661591151,
				"y": -2.4874160825,
				"z": -3.6815971289,
				"element": "C" 
			},
			{
				"x": -4.1221496652,
				"y": -2.0039138451,
				"z": -3.5277688168,
				"element": "C" 
			},
			{
				"x": -4.2854112182,
				"y": -0.6199184868,
				"z": -2.8799929426,
				"element": "C" 
			},
			{
				"x": -3.8280266491,
				"y": -0.5337072717,
				"z": -1.4983403779,
				"element": "N" 
			},
			{
				"x": -4.6128433766,
				"y": -0.9290921397,
				"z": -0.3998178535,
				"element": "C" 
			},
			{
				"x": -5.7189404325,
				"y": -1.4286323338,
				"z": -0.4820506436,
				"element": "O" 
			},
			{
				"x": -3.8086136893,
				"y": -0.5968627685,
				"z": 0.8094404937,
				"element": "C" 
			},
			{
				"x": -4.0981283561,
				"y": -0.7854164158,
				"z": 2.1524338467,
				"element": "C" 
			},
			{
				"x": -3.1375185395,
				"y": -0.3641178801,
				"z": 3.0818616576,
				"element": "C" 
			},
			{
				"x": -1.937315605,
				"y": 0.2227141735,
				"z": 2.6629715174,
				"element": "C" 
			},
			{
				"x": -1.6502207199,
				"y": 0.4100251669,
				"z": 1.3033273589,
				"element": "C" 
			},
			{
				"x": -2.6090728228,
				"y": -0.010908227,
				"z": 0.3934751363,
				"element": "C" 
			},
			{
				"x": -2.6125384892,
				"y": 0.0481667699,
				"z": -1.0966374587,
				"element": "C" 
			},
			{
				"x": -1.7759275114,
				"y": 0.5000310359,
				"z": -1.8595691429,
				"element": "O" 
			},
			{
				"x": 1.9536112709,
				"y": -5.0001896581,
				"z": -0.7106845505,
				"element": "H" 
			},
			{
				"x": 0.2947038604,
				"y": -5.6296060346,
				"z": -0.7970725105,
				"element": "H" 
			},
			{
				"x": 1.295888959,
				"y": -5.5734240199,
				"z": -2.2684912329,
				"element": "H" 
			},
			{
				"x": 2.6576695128,
				"y": -2.7570201901,
				"z": -2.2836753035,
				"element": "H" 
			},
			{
				"x": 1.6237246028,
				"y": -3.0404022266,
				"z": -3.6823483913,
				"element": "H" 
			},
			{
				"x": 0.3751677334,
				"y": -0.8083717798,
				"z": -2.930439285,
				"element": "H" 
			},
			{
				"x": 1.916145039,
				"y": -0.6885767356,
				"z": -3.7647327419,
				"element": "H" 
			},
			{
				"x": 3.1178841335,
				"y": -0.3763583806,
				"z": -1.6363448214,
				"element": "H" 
			},
			{
				"x": 1.6216721661,
				"y": -0.6145399128,
				"z": -0.7164174204,
				"element": "H" 
			},
			{
				"x": 1.9562823811,
				"y": 1.6118298838,
				"z": -2.7990417151,
				"element": "H" 
			},
			{
				"x": 0.6695993749,
				"y": 1.4584191429,
				"z": -1.5826527762,
				"element": "H" 
			},
			{
				"x": 2.6895152123,
				"y": 3.7930059934,
				"z": 2.9518390916,
				"element": "H" 
			},
			{
				"x": 4.7994713855,
				"y": 5.0890431533,
				"z": 3.3529150075,
				"element": "H" 
			},
			{
				"x": 6.5190029722,
				"y": 5.261522004,
				"z": 1.595615629,
				"element": "H" 
			},
			{
				"x": 6.1901156507,
				"y": 4.1440652091,
				"z": -0.6264590304,
				"element": "H" 
			},
			{
				"x": -2.1819941507,
				"y": -2.6782352853,
				"z": -1.5533258424,
				"element": "H" 
			},
			{
				"x": -2.7422915193,
				"y": -4.1739583708,
				"z": -2.3217394178,
				"element": "H" 
			},
			{
				"x": -2.5841211526,
				"y": -3.1405063926,
				"z": -4.5579175582,
				"element": "H" 
			},
			{
				"x": -2.005471618,
				"y": -1.6320458041,
				"z": -3.8634431793,
				"element": "H" 
			},
			{
				"x": -4.7170892342,
				"y": -2.7339728013,
				"z": -2.9652521786,
				"element": "H" 
			},
			{
				"x": -4.5845990136,
				"y": -1.9366442608,
				"z": -4.5198096364,
				"element": "H" 
			},
			{
				"x": -5.3427885581,
				"y": -0.3385959139,
				"z": -2.888412847,
				"element": "H" 
			},
			{
				"x": -3.7187151613,
				"y": 0.1297787433,
				"z": -3.439301283,
				"element": "H" 
			},
			{
				"x": -5.0329091166,
				"y": -1.2412562071,
				"z": 2.4625733915,
				"element": "H" 
			},
			{
				"x": -3.3256985182,
				"y": -0.4947816696,
				"z": 4.1435923729,
				"element": "H" 
			},
			{
				"x": -1.2105827812,
				"y": 0.5394717326,
				"z": 3.4049873349,
				"element": "H" 
			},
			{
				"x": -0.7211637529,
				"y": 0.8687876547,
				"z": 0.9831220007,
				"element": "H" 
			}
		],
		 "valence_orbital": [ 
			{
				"type": "occ",
				"energy": -0.26233,
				"method": "rhf"
			},
			{
				"type": "occ",
				"energy": -0.26032,
				"method": "rhf"
			},
			{
				"type": "occ",
				"energy": -0.25921,
				"method": "rhf"
			},
			{
				"type": "occ",
				"energy": -0.25612,
				"method": "rhf"
			},
			{
				"type": "occ",
				"energy": -0.25262,
				"method": "rhf"
			},
			{
				"type": "unocc",
				"energy": -0.07965,
				"method": "rhf"
			},
			{
				"type": "unocc",
				"energy": -0.07093,
				"method": "rhf"
			},
			{
				"type": "unocc",
				"energy": -0.03883,
				"method": "rhf"
			},
			{
				"type": "unocc",
				"energy": -0.02497,
				"method": "rhf"
			},
			{
				"type": "unocc",
				"energy": 0.02961,
				"method": "rhf"
			}
		],
		"cosmo_sigma_profile": { 
			"-0.025": 0.0,
			"-0.024": 0.0,
			"-0.023": 0.0,
			"-0.022": 0.0,
			"-0.021": 0.0,
			"-0.02": 0.0,
			"-0.019": 0.0,
			"-0.018": 0.0,
			"-0.017": 0.0,
			"-0.016": 0.0,
			"-0.015": 0.0,
			"-0.014": 0.0,
			"-0.013": 0.0,
			"-0.012": 0.0,
			"-0.011": 0.0,
			"-0.01": 0.0,
			"-0.009": 0.00016503539704,
			"-0.008": 2.83569747691,
			"-0.007": 16.526496458,
			"-0.006": 27.0764923232,
			"-0.005": 37.0711229643,
			"-0.004": 47.7855443907,
			"-0.003": 55.5497578804,
			"-0.002": 50.9968793295,
			"-0.001": 42.6146566814,
			"0.0": 40.591966542,
			"0.001": 37.1524264675,
			"0.002": 39.6774321114,
			"0.003": 23.7713881939,
			"0.004": 16.6360508263,
			"0.005": 12.0081415508,
			"0.006": 11.106182132,
			"0.007": 12.575197415,
			"0.008": 9.74145337717,
			"0.009": 8.81384993801,
			"0.01": 8.85334024851,
			"0.011": 11.693666161,
			"0.012": 5.69377151266,
			"0.013": 1.09060855591,
			"0.014": 1.05512847914,
			"0.015": 1.50693856457,
			"0.016": 1.7970531599,
			"0.017": 0.121921547519,
			"0.018": 0.0,
			"0.019": 0.0,
			"0.02": 0.0,
			"0.021": 0.0,
			"0.022": 0.0,
			"0.023": 0.0,
			"0.024": 0.0,
			"0.025": 0.0
		}
	}
}
