{
	 "smiles": "OCC1=CC(NC(=O)C2=CC=CC=C2)=CC=C1", 
	 "Tm": 388.15, 
	 "num_atms": 30, 
	 "gaussian": { 
		 "optdone": 1, 
		 "sigma_profile": "yes", 
		 "theory": "DFT", 
		 "functional": "B3LYP", 
		 "basiset": "6-31G**", 
		 "properties": { 
			 "R2extent": 4497.2642, 
			 "electric_dipole_moment_norm": 2.56805150065, 
			 "electric_quadrupole_moment_norm": 23.5776755426, 
			 "total_energy": -746.528133167, 
			 "HOMO_LUMO_gap": 0.18523, 
			 "cosmo_polarized_energy": -15.36, 
			 "cosmo_cavitation_energy": 34.24, 
			 "cosmo_dispersion_energy": -23.73, 
			 "cosmo_repulsion_energy": 1.87, 
			 "cosmo_total_nonelectrostatic_energy": 12.38, 
			 "SMD_solvation_energy": 6.39 
		},
		"coords": [
			{
				"x": -1.4314674549,
				"y": -3.731187732,
				"z": -0.6643904595,
				"element": "O" 
			},
			{
				"x": -0.3069798908,
				"y": -2.896266414,
				"z": -0.4323682993,
				"element": "C" 
			},
			{
				"x": -0.3388561108,
				"y": -1.5959855524,
				"z": -1.2166195616,
				"element": "C" 
			},
			{
				"x": 0.3218497555,
				"y": -0.4665379058,
				"z": -0.7255511269,
				"element": "C" 
			},
			{
				"x": 0.3234094672,
				"y": 0.7311521936,
				"z": -1.4524031189,
				"element": "C" 
			},
			{
				"x": 1.0036758529,
				"y": 1.8904991495,
				"z": -0.9996290164,
				"element": "N" 
			},
			{
				"x": 1.299291517,
				"y": 2.3319139826,
				"z": 0.2809993487,
				"element": "C" 
			},
			{
				"x": 2.2516857398,
				"y": 3.0841755782,
				"z": 0.4557886522,
				"element": "O" 
			},
			{
				"x": 0.3998674909,
				"y": 1.9477683146,
				"z": 1.418435936,
				"element": "C" 
			},
			{
				"x": -0.9838228117,
				"y": 1.772516798,
				"z": 1.272825216,
				"element": "C" 
			},
			{
				"x": -1.7770102099,
				"y": 1.5111876002,
				"z": 2.3897819593,
				"element": "C" 
			},
			{
				"x": -1.1956538731,
				"y": 1.410797991,
				"z": 3.6558308209,
				"element": "C" 
			},
			{
				"x": 0.1813433048,
				"y": 1.5929441156,
				"z": 3.8070936148,
				"element": "C" 
			},
			{
				"x": 0.9728817087,
				"y": 1.8748140581,
				"z": 2.6957300001,
				"element": "C" 
			},
			{
				"x": -0.3273864302,
				"y": 0.7844170725,
				"z": -2.6931372537,
				"element": "C" 
			},
			{
				"x": -0.9718335219,
				"y": -0.3472168632,
				"z": -3.1896094776,
				"element": "C" 
			},
			{
				"x": -0.9874420434,
				"y": -1.5332519365,
				"z": -2.4555959162,
				"element": "C" 
			},
			{
				"x": -2.2200274583,
				"y": -3.233570256,
				"z": -0.4096822191,
				"element": "H" 
			},
			{
				"x": -0.1783660733,
				"y": -2.677209307,
				"z": 0.6391626555,
				"element": "H" 
			},
			{
				"x": 0.5602745692,
				"y": -3.4937363698,
				"z": -0.7384077119,
				"element": "H" 
			},
			{
				"x": 0.8408072489,
				"y": -0.5164724453,
				"z": 0.2264396931,
				"element": "H" 
			},
			{
				"x": 1.5859462647,
				"y": 2.3578979858,
				"z": -1.6848572014,
				"element": "H" 
			},
			{
				"x": -1.4412882377,
				"y": 1.8559501574,
				"z": 0.2929168124,
				"element": "H" 
			},
			{
				"x": -2.8499997047,
				"y": 1.3899834297,
				"z": 2.2722149186,
				"element": "H" 
			},
			{
				"x": -1.8151858407,
				"y": 1.2001992803,
				"z": 4.522996506,
				"element": "H" 
			},
			{
				"x": 0.6350165852,
				"y": 1.5259909038,
				"z": 4.791619885,
				"element": "H" 
			},
			{
				"x": 2.0385083998,
				"y": 2.0514647811,
				"z": 2.7968762375,
				"element": "H" 
			},
			{
				"x": -0.3326977643,
				"y": 1.7150832347,
				"z": -3.2535739065,
				"element": "H" 
			},
			{
				"x": -1.4722672762,
				"y": -0.2984032585,
				"z": -4.152555118,
				"element": "H" 
			},
			{
				"x": -1.4949732028,
				"y": -2.415718586,
				"z": -2.830831869,
				"element": "H" 
			}
		],
		 "valence_orbital": [ 
			{
				"type": "occ",
				"energy": -0.26676,
				"method": "rhf"
			},
			{
				"type": "occ",
				"energy": -0.26209,
				"method": "rhf"
			},
			{
				"type": "occ",
				"energy": -0.25112,
				"method": "rhf"
			},
			{
				"type": "occ",
				"energy": -0.24802,
				"method": "rhf"
			},
			{
				"type": "occ",
				"energy": -0.22744,
				"method": "rhf"
			},
			{
				"type": "unocc",
				"energy": -0.04221,
				"method": "rhf"
			},
			{
				"type": "unocc",
				"energy": -0.01772,
				"method": "rhf"
			},
			{
				"type": "unocc",
				"energy": -0.00729,
				"method": "rhf"
			},
			{
				"type": "unocc",
				"energy": -0.00368,
				"method": "rhf"
			},
			{
				"type": "unocc",
				"energy": 0.05345,
				"method": "rhf"
			}
		],
		"cosmo_sigma_profile": { 
			"-0.025": 0.0,
			"-0.024": 0.0,
			"-0.023": 0.0,
			"-0.022": 0.0,
			"-0.021": 0.0,
			"-0.02": 0.0,
			"-0.019": 0.0,
			"-0.018": 0.0,
			"-0.017": 0.0,
			"-0.016": 0.0840192006255,
			"-0.015": 1.02836455847,
			"-0.014": 1.78223711473,
			"-0.013": 1.55376485856,
			"-0.012": 1.95743633831,
			"-0.011": 1.91095246488,
			"-0.01": 1.80132516618,
			"-0.009": 1.96873932117,
			"-0.008": 1.60137592024,
			"-0.007": 3.69843584063,
			"-0.006": 14.414237135,
			"-0.005": 21.7987916348,
			"-0.004": 25.7023469849,
			"-0.003": 21.0370512105,
			"-0.002": 18.0390368222,
			"-0.001": 17.7559865831,
			"0.0": 17.4085419179,
			"0.001": 16.8284909144,
			"0.002": 17.5521315622,
			"0.003": 18.848428169,
			"0.004": 19.4483789663,
			"0.005": 14.1190941616,
			"0.006": 4.53288809207,
			"0.007": 2.56432481661,
			"0.008": 1.99177700256,
			"0.009": 2.6148828022,
			"0.01": 2.61422562971,
			"0.011": 3.17080197751,
			"0.012": 4.09665189116,
			"0.013": 6.8583666723,
			"0.014": 3.72980001138,
			"0.015": 0.0690567616884,
			"0.016": 0.0,
			"0.017": 0.0,
			"0.018": 0.0,
			"0.019": 0.0,
			"0.02": 0.0,
			"0.021": 0.0,
			"0.022": 0.0,
			"0.023": 0.0,
			"0.024": 0.0,
			"0.025": 0.0
		}
	}
}
