{
	 "smiles": "OC(=O)CNC(=O)C1=CC=C(F)C=C1", 
	 "Tm": 443.15, 
	 "num_atms": 22, 
	 "gaussian": { 
		 "optdone": 1, 
		 "sigma_profile": "yes", 
		 "theory": "DFT", 
		 "functional": "B3LYP", 
		 "basiset": "6-31G**", 
		 "properties": { 
			 "R2extent": 3381.489, 
			 "electric_dipole_moment_norm": 4.20940957855, 
			 "electric_quadrupole_moment_norm": 11.83470647, 
			 "total_energy": -728.058171311, 
			 "HOMO_LUMO_gap": 0.21019, 
			 "cosmo_polarized_energy": -17.67, 
			 "cosmo_cavitation_energy": 27.72, 
			 "cosmo_dispersion_energy": -19.72, 
			 "cosmo_repulsion_energy": 1.55, 
			 "cosmo_total_nonelectrostatic_energy": 9.56, 
			 "SMD_solvation_energy": 6.87 
		},
		"coords": [
			{
				"x": 1.4134047831,
				"y": 3.0824034097,
				"z": -1.6494069328,
				"element": "O" 
			},
			{
				"x": 0.9193055531,
				"y": 2.5028736752,
				"z": -0.532180362,
				"element": "C" 
			},
			{
				"x": 1.5877151425,
				"y": 2.2669083885,
				"z": 0.4472476546,
				"element": "O" 
			},
			{
				"x": -0.5594339744,
				"y": 2.1708620646,
				"z": -0.7164433518,
				"element": "C" 
			},
			{
				"x": -1.2713368175,
				"y": 1.9711196773,
				"z": 0.5230673757,
				"element": "N" 
			},
			{
				"x": -1.8997068825,
				"y": 0.8242378435,
				"z": 0.9698381511,
				"element": "C" 
			},
			{
				"x": -2.8240725534,
				"y": 0.8998976916,
				"z": 1.7706879258,
				"element": "O" 
			},
			{
				"x": -1.403270029,
				"y": -0.5019543072,
				"z": 0.4756453485,
				"element": "C" 
			},
			{
				"x": -2.3515364836,
				"y": -1.5161010604,
				"z": 0.2738774726,
				"element": "C" 
			},
			{
				"x": -1.9563462104,
				"y": -2.7893657839,
				"z": -0.1236555901,
				"element": "C" 
			},
			{
				"x": -0.5970828386,
				"y": -3.0435372028,
				"z": -0.286907984,
				"element": "C" 
			},
			{
				"x": -0.2064616894,
				"y": -4.2762921964,
				"z": -0.6653018386,
				"element": "F" 
			},
			{
				"x": 0.3703379532,
				"y": -2.0705964488,
				"z": -0.062198095,
				"element": "C" 
			},
			{
				"x": -0.0395057709,
				"y": -0.792823996,
				"z": 0.3187705565,
				"element": "C" 
			},
			{
				"x": 2.361552448,
				"y": 3.2280069318,
				"z": -1.4909219766,
				"element": "H" 
			},
			{
				"x": -0.6127052195,
				"y": 1.2650552277,
				"z": -1.3284280923,
				"element": "H" 
			},
			{
				"x": -1.0190071796,
				"y": 2.9700354909,
				"z": -1.3091052601,
				"element": "H" 
			},
			{
				"x": -1.6516175648,
				"y": 2.7973180681,
				"z": 0.9671367821,
				"element": "H" 
			},
			{
				"x": -3.3995469923,
				"y": -1.2913289937,
				"z": 0.440936412,
				"element": "H" 
			},
			{
				"x": -2.6744783879,
				"y": -3.5833942938,
				"z": -0.2969487351,
				"element": "H" 
			},
			{
				"x": 1.4194012689,
				"y": -2.3219826059,
				"z": -0.1742993411,
				"element": "H" 
			},
			{
				"x": 0.7044914451,
				"y": -0.0316415801,
				"z": 0.5314898807,
				"element": "H" 
			}
		],
		 "valence_orbital": [ 
			{
				"type": "occ",
				"energy": -0.29815,
				"method": "rhf"
			},
			{
				"type": "occ",
				"energy": -0.2703,
				"method": "rhf"
			},
			{
				"type": "occ",
				"energy": -0.26619,
				"method": "rhf"
			},
			{
				"type": "occ",
				"energy": -0.26026,
				"method": "rhf"
			},
			{
				"type": "occ",
				"energy": -0.24391,
				"method": "rhf"
			},
			{
				"type": "unocc",
				"energy": -0.03372,
				"method": "rhf"
			},
			{
				"type": "unocc",
				"energy": -0.01893,
				"method": "rhf"
			},
			{
				"type": "unocc",
				"energy": -0.00933,
				"method": "rhf"
			},
			{
				"type": "unocc",
				"energy": 0.0489,
				"method": "rhf"
			},
			{
				"type": "unocc",
				"energy": 0.06193,
				"method": "rhf"
			}
		],
		"cosmo_sigma_profile": { 
			"-0.025": 0.0,
			"-0.024": 0.0,
			"-0.023": 0.0,
			"-0.022": 0.0,
			"-0.021": 0.0,
			"-0.02": 0.0,
			"-0.019": 0.350693299897,
			"-0.018": 0.822209617462,
			"-0.017": 0.915821214572,
			"-0.016": 0.822555716572,
			"-0.015": 1.15354659199,
			"-0.014": 1.71032618881,
			"-0.013": 1.88649960825,
			"-0.012": 2.06978717354,
			"-0.011": 2.0105454317,
			"-0.01": 1.81027600476,
			"-0.009": 2.450390116,
			"-0.008": 6.70938599477,
			"-0.007": 10.4419574955,
			"-0.006": 11.1883868269,
			"-0.005": 12.9878524712,
			"-0.004": 9.41212265057,
			"-0.003": 11.2057729696,
			"-0.002": 10.129319084,
			"-0.001": 13.2819540529,
			"0.0": 14.564354291,
			"0.001": 16.9637570274,
			"0.002": 15.2213587637,
			"0.003": 14.8558725796,
			"0.004": 14.2635462472,
			"0.005": 5.59599088626,
			"0.006": 3.52530318322,
			"0.007": 4.28459082318,
			"0.008": 4.69975777747,
			"0.009": 3.66373959477,
			"0.01": 3.85448134139,
			"0.011": 6.48978150135,
			"0.012": 4.12557336429,
			"0.013": 5.0753538383,
			"0.014": 2.87298621688,
			"0.015": 0.0298986891678,
			"0.016": 0.0,
			"0.017": 0.0,
			"0.018": 0.0,
			"0.019": 0.0,
			"0.02": 0.0,
			"0.021": 0.0,
			"0.022": 0.0,
			"0.023": 0.0,
			"0.024": 0.0,
			"0.0": 0.0
		}
	}
}
