{
	 "smiles": "CC(=O)C(CN1C(=O)C2=C(C=CC=C2)C1=O)C(C)=O", 
	 "Tm": 443.15, 
	 "num_atms": 32, 
	 "gaussian": { 
		 "optdone": 1, 
		 "sigma_profile": "yes", 
		 "theory": "DFT", 
		 "functional": "B3LYP", 
		 "basiset": "6-31G**", 
		 "properties": { 
			 "R2extent": 5090.6609, 
			 "electric_dipole_moment_norm": 3.08757576263, 
			 "electric_quadrupole_moment_norm": 19.2951793397, 
			 "total_energy": -896.998504328, 
			 "HOMO_LUMO_gap": 0.16174, 
			 "cosmo_polarized_energy": -17.95, 
			 "cosmo_cavitation_energy": 36.44, 
			 "cosmo_dispersion_energy": -24.44, 
			 "cosmo_repulsion_energy": 1.86, 
			 "cosmo_total_nonelectrostatic_energy": 13.85, 
			 "SMD_solvation_energy": 8.14 
		},
		"coords": [
			{
				"x": -2.8062653355,
				"y": -0.5184659694,
				"z": -2.81165716,
				"element": "C" 
			},
			{
				"x": -1.7111502149,
				"y": -0.9741322647,
				"z": -1.8705471938,
				"element": "C" 
			},
			{
				"x": -1.7485646001,
				"y": -0.7362934925,
				"z": -0.6751580395,
				"element": "O" 
			},
			{
				"x": -0.5127339361,
				"y": -1.6873017391,
				"z": -2.4918761952,
				"element": "C" 
			},
			{
				"x": 0.6874362804,
				"y": -0.6984052955,
				"z": -2.6599358935,
				"element": "C" 
			},
			{
				"x": 0.9135496568,
				"y": 0.1881605489,
				"z": -1.5365100942,
				"element": "N" 
			},
			{
				"x": 1.4718301637,
				"y": -0.1965036364,
				"z": -0.3062613297,
				"element": "C" 
			},
			{
				"x": 1.8722698292,
				"y": -1.31181422,
				"z": -0.0386040164,
				"element": "O" 
			},
			{
				"x": 1.451048866,
				"y": 1.0295601507,
				"z": 0.5442816243,
				"element": "C" 
			},
			{
				"x": 0.8497765133,
				"y": 2.059084113,
				"z": -0.1835445459,
				"element": "C" 
			},
			{
				"x": 0.6814952903,
				"y": 3.3265639114,
				"z": 0.3545033418,
				"element": "C" 
			},
			{
				"x": 1.1416649217,
				"y": 3.5375996809,
				"z": 1.6611189551,
				"element": "C" 
			},
			{
				"x": 1.7448784504,
				"y": 2.5052566167,
				"z": 2.3910386742,
				"element": "C" 
			},
			{
				"x": 1.9079740026,
				"y": 1.2276706685,
				"z": 1.8387108669,
				"element": "C" 
			},
			{
				"x": 0.4676541559,
				"y": 1.5220751514,
				"z": -1.5204280042,
				"element": "C" 
			},
			{
				"x": -0.1093440331,
				"y": 2.0729891894,
				"z": -2.4386815241,
				"element": "O" 
			},
			{
				"x": -0.0276195762,
				"y": -3.0003915202,
				"z": -1.8107775444,
				"element": "C" 
			},
			{
				"x": -0.6945866894,
				"y": -3.5138186909,
				"z": -0.5589482654,
				"element": "C" 
			},
			{
				"x": 0.872535262,
				"y": -3.6023447359,
				"z": -2.3610207945,
				"element": "O" 
			},
			{
				"x": -2.3939492102,
				"y": 0.2090913005,
				"z": -3.5215079591,
				"element": "H" 
			},
			{
				"x": -3.1965418599,
				"y": -1.3589397721,
				"z": -3.3968019209,
				"element": "H" 
			},
			{
				"x": -3.6117717585,
				"y": -0.0503469555,
				"z": -2.2444752923,
				"element": "H" 
			},
			{
				"x": -0.7625214306,
				"y": -1.9995664668,
				"z": -3.5131050284,
				"element": "H" 
			},
			{
				"x": 0.5094123694,
				"y": -0.0500956579,
				"z": -3.5198516825,
				"element": "H" 
			},
			{
				"x": 1.5804895939,
				"y": -1.3017903992,
				"z": -2.839644382,
				"element": "H" 
			},
			{
				"x": 0.2100803499,
				"y": 4.1179595584,
				"z": -0.2190577693,
				"element": "H" 
			},
			{
				"x": 1.0282891683,
				"y": 4.5161895821,
				"z": 2.1178879065,
				"element": "H" 
			},
			{
				"x": 2.0896899575,
				"y": 2.700011224,
				"z": 3.402149684,
				"element": "H" 
			},
			{
				"x": 2.3712407382,
				"y": 0.4199566878,
				"z": 2.3959461143,
				"element": "H" 
			},
			{
				"x": -0.2352715042,
				"y": -4.4627975606,
				"z": -0.2808438542,
				"element": "H" 
			},
			{
				"x": -1.7702438087,
				"y": -3.6508006407,
				"z": -0.7196780578,
				"element": "H" 
			},
			{
				"x": -0.587051612,
				"y": -2.7827593662,
				"z": 0.2454793802,
				"element": "H" 
			}
		],
		 "valence_orbital": [ 
			{
				"type": "occ",
				"energy": -0.27838,
				"method": "rhf"
			},
			{
				"type": "occ",
				"energy": -0.27286,
				"method": "rhf"
			},
			{
				"type": "occ",
				"energy": -0.27056,
				"method": "rhf"
			},
			{
				"type": "occ",
				"energy": -0.25699,
				"method": "rhf"
			},
			{
				"type": "occ",
				"energy": -0.24487,
				"method": "rhf"
			},
			{
				"type": "unocc",
				"energy": -0.08313,
				"method": "rhf"
			},
			{
				"type": "unocc",
				"energy": -0.04222,
				"method": "rhf"
			},
			{
				"type": "unocc",
				"energy": -0.03025,
				"method": "rhf"
			},
			{
				"type": "unocc",
				"energy": -0.01645,
				"method": "rhf"
			},
			{
				"type": "unocc",
				"energy": 0.02737,
				"method": "rhf"
			}
		],
		"cosmo_sigma_profile": { 
			"-0.025": 0.0,
			"-0.024": 0.0,
			"-0.023": 0.0,
			"-0.022": 0.0,
			"-0.021": 0.0,
			"-0.02": 0.0,
			"-0.019": 0.0,
			"-0.018": 0.0,
			"-0.017": 0.0,
			"-0.016": 0.0,
			"-0.015": 0.0,
			"-0.014": 0.0,
			"-0.013": 0.0,
			"-0.012": 0.0,
			"-0.011": 0.0,
			"-0.01": 0.0480605380666,
			"-0.009": 1.30704737289,
			"-0.008": 9.10625701469,
			"-0.007": 16.5106086059,
			"-0.006": 18.9829451697,
			"-0.005": 20.5171492971,
			"-0.004": 21.032701649,
			"-0.003": 21.9100186551,
			"-0.002": 20.8932199056,
			"-0.001": 23.1573637659,
			"0.0": 19.1646021341,
			"0.001": 25.2445229357,
			"0.002": 18.8354840442,
			"0.003": 9.20235739239,
			"0.004": 6.02628736336,
			"0.005": 6.00864666685,
			"0.006": 4.83485411628,
			"0.007": 6.00060996209,
			"0.008": 5.39396869581,
			"0.009": 7.91205342499,
			"0.01": 8.52517713612,
			"0.011": 12.1048075123,
			"0.012": 6.14250668736,
			"0.013": 1.0115122685,
			"0.014": 0.0,
			"0.015": 0.0,
			"0.016": 0.0,
			"0.017": 0.0,
			"0.018": 0.0,
			"0.019": 0.0,
			"0.02": 0.0,
			"0.021": 0.0,
			"0.022": 0.0,
			"0.023": 0.0,
			"0.024": 0.0,
			"0.025": 0.0
		}
	}
}
