{
	 "smiles": "CCOC(=O)C1=C(Cl)C2=C(C=C(C=N2)S(Cl)(=O)=O)N1C", 
	 "Tm": 415.15, 
	 "num_atms": 30, 
	 "gaussian": { 
		 "optdone": 1, 
		 "sigma_profile": "yes", 
		 "theory": "DFT", 
		 "functional": "B3LYP", 
		 "basiset": "6-31G**", 
		 "properties": { 
			 "R2extent": 12015.0556, 
			 "electric_dipole_moment_norm": 6.52589474478, 
			 "electric_quadrupole_moment_norm": 19.2189559945, 
			 "total_energy": -2154.10433141, 
			 "HOMO_LUMO_gap": 0.14462, 
			 "cosmo_polarized_energy": -15.71, 
			 "cosmo_cavitation_energy": 40.27, 
			 "cosmo_dispersion_energy": -29.23, 
			 "cosmo_repulsion_energy": 2.2, 
			 "cosmo_total_nonelectrostatic_energy": 13.24, 
			 "SMD_solvation_energy": 4.7 
		},
		"coords": [
			{
				"x": 2.9258756178,
				"y": 1.8795625112,
				"z": 4.3743179514,
				"element": "C" 
			},
			{
				"x": 1.5602910582,
				"y": 1.6730366837,
				"z": 3.749799574,
				"element": "C" 
			},
			{
				"x": 1.7688254985,
				"y": 1.0959217721,
				"z": 2.4348226106,
				"element": "O" 
			},
			{
				"x": 0.663547946,
				"y": 0.8411069421,
				"z": 1.7258316561,
				"element": "C" 
			},
			{
				"x": -0.4683909239,
				"y": 1.0631976289,
				"z": 2.1211476804,
				"element": "O" 
			},
			{
				"x": 0.9706885308,
				"y": 0.2563914532,
				"z": 0.4009688504,
				"element": "C" 
			},
			{
				"x": 2.1890582518,
				"y": -0.0476702216,
				"z": -0.2011841887,
				"element": "C" 
			},
			{
				"x": 3.7836697987,
				"y": 0.1560515847,
				"z": 0.4108529575,
				"element": "Cl" 
			},
			{
				"x": 1.9076155566,
				"y": -0.5894508148,
				"z": -1.4859057391,
				"element": "C" 
			},
			{
				"x": 0.4863517395,
				"y": -0.5914820762,
				"z": -1.6175429907,
				"element": "C" 
			},
			{
				"x": -0.0903276636,
				"y": -1.0734642073,
				"z": -2.7937082834,
				"element": "C" 
			},
			{
				"x": 0.8125254669,
				"y": -1.5214935986,
				"z": -3.7490552259,
				"element": "C" 
			},
			{
				"x": 2.214372635,
				"y": -1.4921908578,
				"z": -3.5439549475,
				"element": "C" 
			},
			{
				"x": 2.7591765728,
				"y": -1.0334743097,
				"z": -2.4287543204,
				"element": "N" 
			},
			{
				"x": 0.1699724866,
				"y": -2.1682697787,
				"z": -5.2778540139,
				"element": "S" 
			},
			{
				"x": 0.2142064221,
				"y": -0.4365551086,
				"z": -6.5245246112,
				"element": "Cl" 
			},
			{
				"x": 1.129957962,
				"y": -3.1028297072,
				"z": -5.849320944,
				"element": "O" 
			},
			{
				"x": -1.2387191931,
				"y": -2.5023362289,
				"z": -5.101496035,
				"element": "O" 
			},
			{
				"x": -0.0665495158,
				"y": -0.0813952643,
				"z": -0.4715291349,
				"element": "N" 
			},
			{
				"x": -1.504296886,
				"y": 0.0702532184,
				"z": -0.2419393274,
				"element": "C" 
			},
			{
				"x": 3.5343293828,
				"y": 2.5574445393,
				"z": 3.7696317588,
				"element": "H" 
			},
			{
				"x": 3.4593932216,
				"y": 0.930198512,
				"z": 4.4715829812,
				"element": "H" 
			},
			{
				"x": 2.8105831451,
				"y": 2.3150661845,
				"z": 5.3715945588,
				"element": "H" 
			},
			{
				"x": 1.0094822958,
				"y": 2.6114163984,
				"z": 3.63419077,
				"element": "H" 
			},
			{
				"x": 0.9347579256,
				"y": 0.9909069387,
				"z": 4.3335131284,
				"element": "H" 
			},
			{
				"x": -1.1578986621,
				"y": -1.1163730332,
				"z": -2.9757617926,
				"element": "H" 
			},
			{
				"x": 2.8814056942,
				"y": -1.8661772367,
				"z": -4.3152090409,
				"element": "H" 
			},
			{
				"x": -2.0268380376,
				"y": -0.3038940912,
				"z": -1.1221390849,
				"element": "H" 
			},
			{
				"x": -1.8169942918,
				"y": -0.4967718391,
				"z": 0.6348539009,
				"element": "H" 
			},
			{
				"x": -1.7625720345,
				"y": 1.1173740069,
				"z": -0.0826286978,
				"element": "H" 
			}
		],
		 "valence_orbital": [ 
			{
				"type": "occ",
				"energy": -0.31672,
				"method": "rhf"
			},
			{
				"type": "occ",
				"energy": -0.30078,
				"method": "rhf"
			},
			{
				"type": "occ",
				"energy": -0.28718,
				"method": "rhf"
			},
			{
				"type": "occ",
				"energy": -0.27261,
				"method": "rhf"
			},
			{
				"type": "occ",
				"energy": -0.24787,
				"method": "rhf"
			},
			{
				"type": "unocc",
				"energy": -0.10325,
				"method": "rhf"
			},
			{
				"type": "unocc",
				"energy": -0.07793,
				"method": "rhf"
			},
			{
				"type": "unocc",
				"energy": -0.03304,
				"method": "rhf"
			},
			{
				"type": "unocc",
				"energy": -0.02263,
				"method": "rhf"
			},
			{
				"type": "unocc",
				"energy": 0.02536,
				"method": "rhf"
			}
		],
		"cosmo_sigma_profile": { 
			"-0.025": 0.0,
			"-0.024": 0.0,
			"-0.023": 0.0,
			"-0.022": 0.0,
			"-0.021": 0.0,
			"-0.02": 0.0,
			"-0.019": 0.0,
			"-0.018": 0.0,
			"-0.017": 0.0,
			"-0.016": 0.0,
			"-0.015": 0.0,
			"-0.014": 0.0,
			"-0.013": 0.0,
			"-0.012": 0.574461278658,
			"-0.011": 1.62088188004,
			"-0.01": 1.87776328193,
			"-0.009": 1.96537547096,
			"-0.008": 4.30021761876,
			"-0.007": 5.40213845236,
			"-0.006": 12.2660834994,
			"-0.005": 20.6869029773,
			"-0.004": 32.6873281757,
			"-0.003": 34.4638116321,
			"-0.002": 29.8622525679,
			"-0.001": 24.5524826701,
			"0.0": 22.6770734587,
			"0.001": 17.110546258,
			"0.002": 18.3800534314,
			"0.003": 24.3634660921,
			"0.004": 17.654635661,
			"0.005": 9.61245733696,
			"0.006": 8.81392097044,
			"0.007": 11.7177864026,
			"0.008": 11.6684480332,
			"0.009": 5.75754329723,
			"0.01": 3.08632638521,
			"0.011": 3.53566830903,
			"0.012": 1.59530669874,
			"0.013": 0.824294137824,
			"0.014": 0.373944508392,
			"0.015": 0.0,
			"0.016": 0.0,
			"0.017": 0.0,
			"0.018": 0.0,
			"0.019": 0.0,
			"0.02": 0.0,
			"0.021": 0.0,
			"0.022": 0.0,
			"0.023": 0.0,
			"0.024": 0.0,
			"0.025": 0.0
		}
	}
}
