{
	 "smiles": "OC(=O)CN1C(=O)NC2=C(C=CC=C2)C1=O", 
	 "Tm": 569.15, 
	 "num_atms": 24, 
	 "gaussian": { 
		 "optdone": 1, 
		 "sigma_profile": "yes", 
		 "theory": "DFT", 
		 "functional": "B3LYP", 
		 "basiset": "6-31G**", 
		 "properties": { 
			 "R2extent": 3759.833, 
			 "electric_dipole_moment_norm": 2.95888027808, 
			 "electric_quadrupole_moment_norm": 16.7671199727, 
			 "total_energy": -796.352494916, 
			 "HOMO_LUMO_gap": 0.1843, 
			 "cosmo_polarized_energy": -19.78, 
			 "cosmo_cavitation_energy": 29.29, 
			 "cosmo_dispersion_energy": -21.29, 
			 "cosmo_repulsion_energy": 1.64, 
			 "cosmo_total_nonelectrostatic_energy": 9.64, 
			 "SMD_solvation_energy": 7.18 
		},
		"coords": [
			{
				"x": 3.635382024,
				"y": -1.96520003,
				"z": -2.303296619,
				"element": "O" 
			},
			{
				"x": 2.6153341866,
				"y": -1.7830881872,
				"z": -1.4370874571,
				"element": "C" 
			},
			{
				"x": 2.6067339686,
				"y": -2.208559728,
				"z": -0.307113243,
				"element": "O" 
			},
			{
				"x": 1.507219846,
				"y": -0.9703206311,
				"z": -2.0924168091,
				"element": "C" 
			},
			{
				"x": 0.3804733864,
				"y": -0.7972958507,
				"z": -1.1923052094,
				"element": "N" 
			},
			{
				"x": -0.5394215441,
				"y": -1.852271711,
				"z": -1.1399727964,
				"element": "C" 
			},
			{
				"x": -0.462451254,
				"y": -2.8315904763,
				"z": -1.863147312,
				"element": "O" 
			},
			{
				"x": -1.5584043758,
				"y": -1.6908588003,
				"z": -0.2231787064,
				"element": "N" 
			},
			{
				"x": -1.6947476558,
				"y": -0.6206320041,
				"z": 0.6485014578,
				"element": "C" 
			},
			{
				"x": -0.7379258306,
				"y": 0.4068454111,
				"z": 0.6036524885,
				"element": "C" 
			},
			{
				"x": -0.8492691134,
				"y": 1.5001332638,
				"z": 1.4729574536,
				"element": "C" 
			},
			{
				"x": -1.90211778,
				"y": 1.5742687846,
				"z": 2.3749348141,
				"element": "C" 
			},
			{
				"x": -2.8534299466,
				"y": 0.5441519018,
				"z": 2.4128329519,
				"element": "C" 
			},
			{
				"x": -2.7583252553,
				"y": -0.549308695,
				"z": 1.5598621332,
				"element": "C" 
			},
			{
				"x": 0.385742745,
				"y": 0.328224417,
				"z": -0.3456523592,
				"element": "C" 
			},
			{
				"x": 1.2690541651,
				"y": 1.1687890398,
				"z": -0.432105073,
				"element": "O" 
			},
			{
				"x": 4.3088674649,
				"y": -2.4827291075,
				"z": -1.8309901416,
				"element": "H" 
			},
			{
				"x": 1.8975748171,
				"y": 0.0153337102,
				"z": -2.3498873124,
				"element": "H" 
			},
			{
				"x": 1.1750764777,
				"y": -1.4850484627,
				"z": -2.9947466619,
				"element": "H" 
			},
			{
				"x": -2.2118472314,
				"y": -2.4608907812,
				"z": -0.1941398448,
				"element": "H" 
			},
			{
				"x": -0.0901306088,
				"y": 2.2726012052,
				"z": 1.4132473433,
				"element": "H" 
			},
			{
				"x": -1.9889956852,
				"y": 2.4211925309,
				"z": 3.0474677274,
				"element": "H" 
			},
			{
				"x": -3.678455706,
				"y": 0.5956021965,
				"z": 3.1172777165,
				"element": "H" 
			},
			{
				"x": -3.4968370942,
				"y": -1.3453479957,
				"z": 1.5937054592,
				"element": "H" 
			}
		],
		 "valence_orbital": [ 
			{
				"type": "occ",
				"energy": -0.28829,
				"method": "rhf"
			},
			{
				"type": "occ",
				"energy": -0.27511,
				"method": "rhf"
			},
			{
				"type": "occ",
				"energy": -0.27247,
				"method": "rhf"
			},
			{
				"type": "occ",
				"energy": -0.2688,
				"method": "rhf"
			},
			{
				"type": "occ",
				"energy": -0.23845,
				"method": "rhf"
			},
			{
				"type": "unocc",
				"energy": -0.05415,
				"method": "rhf"
			},
			{
				"type": "unocc",
				"energy": -0.02047,
				"method": "rhf"
			},
			{
				"type": "unocc",
				"energy": 0.00912,
				"method": "rhf"
			},
			{
				"type": "unocc",
				"energy": 0.02036,
				"method": "rhf"
			},
			{
				"type": "unocc",
				"energy": 0.06582,
				"method": "rhf"
			}
		],
		"cosmo_sigma_profile": { 
			"-0.025": 0.0,
			"-0.024": 0.0,
			"-0.023": 0.0,
			"-0.022": 0.0,
			"-0.021": 0.0,
			"-0.02": 0.0,
			"-0.019": 0.406618953918,
			"-0.018": 1.09641857893,
			"-0.017": 1.26108345444,
			"-0.016": 1.73614198936,
			"-0.015": 2.07039212929,
			"-0.014": 1.49094191746,
			"-0.013": 2.32655396979,
			"-0.012": 2.08162531545,
			"-0.011": 2.1949229465,
			"-0.01": 1.28429826009,
			"-0.009": 1.56845790459,
			"-0.008": 4.26528602173,
			"-0.007": 9.06344091522,
			"-0.006": 12.7332177156,
			"-0.005": 13.9476751745,
			"-0.004": 14.3138000111,
			"-0.003": 14.1600041862,
			"-0.002": 13.7241092205,
			"-0.001": 13.5067812855,
			"0.0": 12.1159559145,
			"0.001": 14.0875187544,
			"0.002": 14.8987847836,
			"0.003": 16.1536600266,
			"0.004": 9.6595371385,
			"0.005": 6.51247407586,
			"0.006": 5.77034904328,
			"0.007": 5.30788520868,
			"0.008": 5.59197390582,
			"0.009": 5.27248262336,
			"0.01": 6.07373317376,
			"0.011": 9.21920327797,
			"0.012": 9.06776341105,
			"0.013": 1.44622137819,
			"0.014": 0.0,
			"0.015": 0.0,
			"0.016": 0.0,
			"0.017": 0.0,
			"0.018": 0.0,
			"0.019": 0.0,
			"0.02": 0.0,
			"0.021": 0.0,
			"0.022": 0.0,
			"0.023": 0.0,
			"0.024": 0.0,
			"0.025": 0.0
		}
	}
}
