{
	 "smiles": "CCN1C2=C(C=CC=C2)C2=C1C=CC(N)=C2", 
	 "Tm": 372.15, 
	 "num_atms": 30, 
	 "gaussian": { 
		 "optdone": 1, 
		 "sigma_profile": "yes", 
		 "theory": "DFT", 
		 "functional": "B3LYP", 
		 "basiset": "6-31G**", 
		 "properties": { 
			 "R2extent": 3869.636, 
			 "electric_dipole_moment_norm": 1.82682207399, 
			 "electric_quadrupole_moment_norm": 14.4977051639, 
			 "total_energy": -651.459554197, 
			 "HOMO_LUMO_gap": 0.15275, 
			 "cosmo_polarized_energy": -11.49, 
			 "cosmo_cavitation_energy": 32.74, 
			 "cosmo_dispersion_energy": -23.6, 
			 "cosmo_repulsion_energy": 1.81, 
			 "cosmo_total_nonelectrostatic_energy": 10.94, 
			 "SMD_solvation_energy": 4.75 
		},
		"coords": [
			{
				"x": 2.241354874,
				"y": -2.9568822714,
				"z": 0.049764726,
				"element": "C" 
			},
			{
				"x": 0.8498067049,
				"y": -2.8200894842,
				"z": -0.579897942,
				"element": "C" 
			},
			{
				"x": 0.0915274626,
				"y": -1.6891482029,
				"z": -0.075346971,
				"element": "N" 
			},
			{
				"x": -0.732927862,
				"y": -1.695177707,
				"z": 1.0412525813,
				"element": "C" 
			},
			{
				"x": -1.2276172685,
				"y": -0.379614584,
				"z": 1.2640159786,
				"element": "C" 
			},
			{
				"x": -2.0988993494,
				"y": -0.1421879151,
				"z": 2.3334138882,
				"element": "C" 
			},
			{
				"x": -2.4622000532,
				"y": -1.1993815322,
				"z": 3.1634387077,
				"element": "C" 
			},
			{
				"x": -1.9606424554,
				"y": -2.4927480003,
				"z": 2.9336926886,
				"element": "C" 
			},
			{
				"x": -1.0919741964,
				"y": -2.7587959686,
				"z": 1.8772990464,
				"element": "C" 
			},
			{
				"x": -0.6529257585,
				"y": 0.4601840624,
				"z": 0.2339885225,
				"element": "C" 
			},
			{
				"x": 0.1613439858,
				"y": -0.3825688562,
				"z": -0.5640684511,
				"element": "C" 
			},
			{
				"x": 0.8681746264,
				"y": 0.1301025911,
				"z": -1.6539679117,
				"element": "C" 
			},
			{
				"x": 0.7473253934,
				"y": 1.4869285977,
				"z": -1.9405494037,
				"element": "C" 
			},
			{
				"x": -0.0640467181,
				"y": 2.3443276212,
				"z": -1.1633318576,
				"element": "C" 
			},
			{
				"x": -0.1047489186,
				"y": 3.7208949082,
				"z": -1.4550708773,
				"element": "N" 
			},
			{
				"x": -0.7653754184,
				"y": 1.820830427,
				"z": -0.0721193089,
				"element": "C" 
			},
			{
				"x": 2.7678366897,
				"y": -3.8206238978,
				"z": -0.3700252327,
				"element": "H" 
			},
			{
				"x": 2.1662767848,
				"y": -3.0926549806,
				"z": 1.1326292702,
				"element": "H" 
			},
			{
				"x": 2.8428910275,
				"y": -2.0627400522,
				"z": -0.1381256142,
				"element": "H" 
			},
			{
				"x": 0.9315653674,
				"y": -2.7124900093,
				"z": -1.6669221421,
				"element": "H" 
			},
			{
				"x": 0.2605039818,
				"y": -3.7261871157,
				"z": -0.404727383,
				"element": "H" 
			},
			{
				"x": -2.4853409282,
				"y": 0.8571723112,
				"z": 2.5148545895,
				"element": "H" 
			},
			{
				"x": -3.1360855032,
				"y": -1.0261277817,
				"z": 3.9970242823,
				"element": "H" 
			},
			{
				"x": -2.252760433,
				"y": -3.3037403503,
				"z": 3.5949215292,
				"element": "H" 
			},
			{
				"x": -0.7081638133,
				"y": -3.7616494936,
				"z": 1.7175689158,
				"element": "H" 
			},
			{
				"x": 1.5020098508,
				"y": -0.4997639027,
				"z": -2.2705425172,
				"element": "H" 
			},
			{
				"x": 1.2986350272,
				"y": 1.9039121659,
				"z": -2.7797325401,
				"element": "H" 
			},
			{
				"x": 0.0437919653,
				"y": 3.9361740182,
				"z": -2.4326676322,
				"element": "H" 
			},
			{
				"x": -0.9375730459,
				"y": 4.1845522892,
				"z": -1.1152446788,
				"element": "H" 
			},
			{
				"x": -1.3887620194,
				"y": 2.4724931138,
				"z": 0.5355757374,
				"element": "H" 
			}
		],
		 "valence_orbital": [ 
			{
				"type": "occ",
				"energy": -0.28122,
				"method": "rhf"
			},
			{
				"type": "occ",
				"energy": -0.26689,
				"method": "rhf"
			},
			{
				"type": "occ",
				"energy": -0.2276,
				"method": "rhf"
			},
			{
				"type": "occ",
				"energy": -0.20162,
				"method": "rhf"
			},
			{
				"type": "occ",
				"energy": -0.17351,
				"method": "rhf"
			},
			{
				"type": "unocc",
				"energy": -0.02076,
				"method": "rhf"
			},
			{
				"type": "unocc",
				"energy": 0.01899,
				"method": "rhf"
			},
			{
				"type": "unocc",
				"energy": 0.04167,
				"method": "rhf"
			},
			{
				"type": "unocc",
				"energy": 0.05286,
				"method": "rhf"
			},
			{
				"type": "unocc",
				"energy": 0.0835,
				"method": "rhf"
			}
		],
		"cosmo_sigma_profile": { 
			"-0.025": 0.0,
			"-0.024": 0.0,
			"-0.023": 0.0,
			"-0.022": 0.0,
			"-0.021": 0.0,
			"-0.02": 0.0,
			"-0.019": 0.0,
			"-0.018": 0.0,
			"-0.017": 0.0,
			"-0.016": 0.0,
			"-0.015": 0.0,
			"-0.014": 0.0,
			"-0.013": 0.0,
			"-0.012": 0.947425844788,
			"-0.011": 2.62736586381,
			"-0.01": 2.52610960866,
			"-0.009": 3.3158373412,
			"-0.008": 3.24672957992,
			"-0.007": 2.99525185315,
			"-0.006": 10.7627183806,
			"-0.005": 18.8562468683,
			"-0.004": 20.6868720333,
			"-0.003": 25.27970165,
			"-0.002": 22.9888537631,
			"-0.001": 17.4733484146,
			"0.0": 16.9480039815,
			"0.001": 13.9755468477,
			"0.002": 11.8082557015,
			"0.003": 12.5729140376,
			"0.004": 14.320961068,
			"0.005": 18.0661822829,
			"0.006": 18.7732090802,
			"0.007": 14.7450717092,
			"0.008": 1.40525711115,
			"0.009": 0.72730574933,
			"0.01": 1.22399924928,
			"0.011": 0.496416148596,
			"0.012": 0.335044624283,
			"0.013": 0.630922423889,
			"0.014": 1.21854198546,
			"0.015": 0.514534606897,
			"0.016": 0.423558340034,
			"0.017": 0.0483342730753,
			"0.018": 0.0,
			"0.019": 0.0,
			"0.02": 0.0,
			"0.021": 0.0,
			"0.022": 0.0,
			"0.023": 0.0,
			"0.024": 0.0,
			"0.025": 0.0
		}
	}
}
