{
	 "smiles": "OC1=CC=C(C=C1)C1=COC2=C(C(O)=CC(O)=C2)C1=O", 
	 "Tm": 574.15, 
	 "num_atms": 30, 
	 "gaussian": { 
		 "optdone": 1, 
		 "sigma_profile": "yes", 
		 "theory": "DFT", 
		 "functional": "B3LYP", 
		 "basiset": "6-31G**", 
		 "properties": { 
			 "R2extent": 8321.5402, 
			 "electric_dipole_moment_norm": 3.07629515652, 
			 "electric_quadrupole_moment_norm": 23.5870370941, 
			 "total_energy": -953.74326006, 
			 "HOMO_LUMO_gap": 0.15474, 
			 "cosmo_polarized_energy": -19.06, 
			 "cosmo_cavitation_energy": 34.74, 
			 "cosmo_dispersion_energy": -26.22, 
			 "cosmo_repulsion_energy": 1.95, 
			 "cosmo_total_nonelectrostatic_energy": 10.47, 
			 "SMD_solvation_energy": 7.72 
		},
		"coords": [
			{
				"x": -0.0370825489,
				"y": 5.0153045539,
				"z": -0.1526846911,
				"element": "O" 
			},
			{
				"x": -0.2172331817,
				"y": 3.6667630007,
				"z": -0.0436179937,
				"element": "C" 
			},
			{
				"x": -1.3341300421,
				"y": 3.0063104657,
				"z": -0.564649459,
				"element": "C" 
			},
			{
				"x": -1.456944867,
				"y": 1.6268240435,
				"z": -0.4120633771,
				"element": "C" 
			},
			{
				"x": -0.4722526299,
				"y": 0.8731785786,
				"z": 0.2456792395,
				"element": "C" 
			},
			{
				"x": 0.6375590918,
				"y": 1.5592492112,
				"z": 0.7751581644,
				"element": "C" 
			},
			{
				"x": 0.7666192069,
				"y": 2.9349063095,
				"z": 0.6320034021,
				"element": "C" 
			},
			{
				"x": -0.5972919771,
				"y": -0.5987322342,
				"z": 0.3528240209,
				"element": "C" 
			},
			{
				"x": -1.0838727007,
				"y": -1.3227107595,
				"z": -0.6883551185,
				"element": "C" 
			},
			{
				"x": -1.2973879538,
				"y": -2.6571350102,
				"z": -0.6965645169,
				"element": "O" 
			},
			{
				"x": -0.9971300537,
				"y": -3.394388406,
				"z": 0.4180021571,
				"element": "C" 
			},
			{
				"x": -0.4538955984,
				"y": -2.7607085621,
				"z": 1.5512281163,
				"element": "C" 
			},
			{
				"x": -0.1494405727,
				"y": -3.5718135087,
				"z": 2.685337085,
				"element": "C" 
			},
			{
				"x": 0.3683115486,
				"y": -3.0260687549,
				"z": 3.7891176714,
				"element": "O" 
			},
			{
				"x": -0.3942279746,
				"y": -4.943995714,
				"z": 2.6441374535,
				"element": "C" 
			},
			{
				"x": -0.9370720892,
				"y": -5.5228273448,
				"z": 1.489067174,
				"element": "C" 
			},
			{
				"x": -1.1890815236,
				"y": -6.8552510591,
				"z": 1.4099077991,
				"element": "O" 
			},
			{
				"x": -1.2458398383,
				"y": -4.7581738857,
				"z": 0.3582972622,
				"element": "C" 
			},
			{
				"x": -0.2165086192,
				"y": -1.328508659,
				"z": 1.5728370021,
				"element": "C" 
			},
			{
				"x": 0.2788793276,
				"y": -0.7625346233,
				"z": 2.5742761282,
				"element": "O" 
			},
			{
				"x": -0.7859773956,
				"y": 5.3986107216,
				"z": -0.6274627462,
				"element": "H" 
			},
			{
				"x": -2.1148318269,
				"y": 3.5691931118,
				"z": -1.0722011766,
				"element": "H" 
			},
			{
				"x": -2.3478899576,
				"y": 1.1341216472,
				"z": -0.7911620344,
				"element": "H" 
			},
			{
				"x": 1.3988929439,
				"y": 1.0050407137,
				"z": 1.3094434214,
				"element": "H" 
			},
			{
				"x": 1.6237958027,
				"y": 3.4616891664,
				"z": 1.0380401357,
				"element": "H" 
			},
			{
				"x": -1.3493009819,
				"y": -0.8876382896,
				"z": -1.6446390736,
				"element": "H" 
			},
			{
				"x": 0.4593370475,
				"y": -2.0492357337,
				"z": 3.5966883248,
				"element": "H" 
			},
			{
				"x": -0.1555254489,
				"y": -5.5435650238,
				"z": 3.517487341,
				"element": "H" 
			},
			{
				"x": -0.9375519046,
				"y": -7.2782415407,
				"z": 2.2415906493,
				"element": "H" 
			},
			{
				"x": -1.6618252829,
				"y": -5.2167624146,
				"z": -0.5293223608,
				"element": "H" 
			}
		],
		 "valence_orbital": [ 
			{
				"type": "occ",
				"energy": -0.26175,
				"method": "rhf"
			},
			{
				"type": "occ",
				"energy": -0.25209,
				"method": "rhf"
			},
			{
				"type": "occ",
				"energy": -0.2428,
				"method": "rhf"
			},
			{
				"type": "occ",
				"energy": -0.23031,
				"method": "rhf"
			},
			{
				"type": "occ",
				"energy": -0.20973,
				"method": "rhf"
			},
			{
				"type": "unocc",
				"energy": -0.05499,
				"method": "rhf"
			},
			{
				"type": "unocc",
				"energy": -0.02762,
				"method": "rhf"
			},
			{
				"type": "unocc",
				"energy": -0.00455,
				"method": "rhf"
			},
			{
				"type": "unocc",
				"energy": 0.00737,
				"method": "rhf"
			},
			{
				"type": "unocc",
				"energy": 0.02327,
				"method": "rhf"
			}
		],
		"cosmo_sigma_profile": { 
			"-0.025": 0.0,
			"-0.024": 0.0,
			"-0.023": 0.0,
			"-0.022": 0.0,
			"-0.021": 0.0,
			"-0.02": 0.0,
			"-0.019": 0.309360862727,
			"-0.018": 1.57575016621,
			"-0.017": 2.13299359432,
			"-0.016": 2.16472231942,
			"-0.015": 2.48694184574,
			"-0.014": 2.31612766001,
			"-0.013": 1.12322375976,
			"-0.012": 1.63244729116,
			"-0.011": 2.42505144543,
			"-0.01": 3.15414234168,
			"-0.009": 3.64795821883,
			"-0.008": 5.12208482798,
			"-0.007": 7.18982046725,
			"-0.006": 9.78305149602,
			"-0.005": 10.554360921,
			"-0.004": 12.5937707447,
			"-0.003": 13.4189686756,
			"-0.002": 18.203029425,
			"-0.001": 19.2529091492,
			"0.0": 18.1403419376,
			"0.001": 22.5288264321,
			"0.002": 21.6087566166,
			"0.003": 22.430856664,
			"0.004": 17.2045877666,
			"0.005": 16.5724970352,
			"0.006": 8.13638791145,
			"0.007": 5.94747240067,
			"0.008": 5.081676766,
			"0.009": 7.72760607172,
			"0.01": 6.40195779397,
			"0.011": 5.97557205974,
			"0.012": 2.16566864024,
			"0.013": 0.18017851297,
			"0.014": 0.0,
			"0.015": 0.0,
			"0.016": 0.0,
			"0.017": 0.0,
			"0.018": 0.0,
			"0.019": 0.0,
			"0.02": 0.0,
			"0.021": 0.0,
			"0.022": 0.0,
			"0.023": 0.0,
			"0.024": 0.0,
			"0.025": 0.0
		}
	}
}
