{
	 "smiles": "CC(C)(C(O)=O)C(F)(F)F", 
	 "Tm": 343.15, 
	 "num_atms": 17, 
	 "gaussian": { 
		 "optdone": 1, 
		 "sigma_profile": "yes", 
		 "theory": "DFT", 
		 "functional": "B3LYP", 
		 "basiset": "6-31G**", 
		 "properties": { 
			 "R2extent": 1682.6381, 
			 "electric_dipole_moment_norm": 1.73824263266, 
			 "electric_quadrupole_moment_norm": 8.47395060642, 
			 "total_energy": -644.749314435, 
			 "HOMO_LUMO_gap": 0.27964, 
			 "cosmo_polarized_energy": -8.11, 
			 "cosmo_cavitation_energy": 21.41, 
			 "cosmo_dispersion_energy": -15.02, 
			 "cosmo_repulsion_energy": 1.17, 
			 "cosmo_total_nonelectrostatic_energy": 7.56, 
			 "SMD_solvation_energy": 6.19 
		},
		"coords": [
			{
				"x": 0.2905692611,
				"y": -1.7153717255,
				"z": 0.5119556393,
				"element": "C" 
			},
			{
				"x": 0.3347033696,
				"y": -1.0469592538,
				"z": -0.8797431346,
				"element": "C" 
			},
			{
				"x": 1.7599254488,
				"y": -1.0556293085,
				"z": -1.4563724716,
				"element": "C" 
			},
			{
				"x": -0.5945951436,
				"y": -1.8033603558,
				"z": -1.844647315,
				"element": "C" 
			},
			{
				"x": -1.8775101672,
				"y": -1.8227835474,
				"z": -1.4219086868,
				"element": "O" 
			},
			{
				"x": -0.2328189849,
				"y": -2.3578748826,
				"z": -2.8569276736,
				"element": "O" 
			},
			{
				"x": -0.1426990096,
				"y": 0.4104367233,
				"z": -0.7533037364,
				"element": "C" 
			},
			{
				"x": 0.7547294641,
				"y": 1.1478136614,
				"z": -0.0592826413,
				"element": "F" 
			},
			{
				"x": -1.3214919601,
				"y": 0.5278546856,
				"z": -0.1146420403,
				"element": "F" 
			},
			{
				"x": -0.2807342147,
				"y": 0.9837992957,
				"z": -1.9705322328,
				"element": "F" 
			},
			{
				"x": 0.6527452575,
				"y": -2.7445586143,
				"z": 0.4413630014,
				"element": "H" 
			},
			{
				"x": 0.9399927747,
				"y": -1.1713461742,
				"z": 1.20289006,
				"element": "H" 
			},
			{
				"x": -0.7228221049,
				"y": -1.7263406995,
				"z": 0.915249662,
				"element": "H" 
			},
			{
				"x": 2.4452191341,
				"y": -0.5526255163,
				"z": -0.7713758054,
				"element": "H" 
			},
			{
				"x": 1.7940777354,
				"y": -0.5538563941,
				"z": -2.425164286,
				"element": "H" 
			},
			{
				"x": 2.0914159667,
				"y": -2.0850205118,
				"z": -1.601833324,
				"element": "H" 
			},
			{
				"x": -2.374406827,
				"y": -2.324577382,
				"z": -2.0903250149,
				"element": "H" 
			}
		],
		 "valence_orbital": [ 
			{
				"type": "occ",
				"energy": -0.37614,
				"method": "rhf"
			},
			{
				"type": "occ",
				"energy": -0.36299,
				"method": "rhf"
			},
			{
				"type": "occ",
				"energy": -0.35572,
				"method": "rhf"
			},
			{
				"type": "occ",
				"energy": -0.33091,
				"method": "rhf"
			},
			{
				"type": "occ",
				"energy": -0.28735,
				"method": "rhf"
			},
			{
				"type": "unocc",
				"energy": -0.00771,
				"method": "rhf"
			},
			{
				"type": "unocc",
				"energy": 0.06644,
				"method": "rhf"
			},
			{
				"type": "unocc",
				"energy": 0.09987,
				"method": "rhf"
			},
			{
				"type": "unocc",
				"energy": 0.12383,
				"method": "rhf"
			},
			{
				"type": "unocc",
				"energy": 0.12553,
				"method": "rhf"
			}
		],
		"cosmo_sigma_profile": { 
			"-0.025": 0.0,
			"-0.024": 0.0,
			"-0.023": 0.0,
			"-0.022": 0.0,
			"-0.021": 0.0,
			"-0.02": 0.0,
			"-0.019": 0.285597593934,
			"-0.018": 0.971103550639,
			"-0.017": 1.22502223252,
			"-0.016": 0.78760755178,
			"-0.015": 0.728485725082,
			"-0.014": 0.332588977125,
			"-0.013": 0.693241613903,
			"-0.012": 0.919162473054,
			"-0.011": 1.08086446479,
			"-0.01": 0.371663172444,
			"-0.009": 0.802236556305,
			"-0.008": 0.783900224649,
			"-0.007": 0.851445644945,
			"-0.006": 3.21619485043,
			"-0.005": 7.47876395894,
			"-0.004": 11.7990539398,
			"-0.003": 11.6648167753,
			"-0.002": 15.3665954723,
			"-0.001": 17.8079678242,
			"0.0": 13.0551308395,
			"0.001": 9.56421587164,
			"0.002": 20.61926224,
			"0.003": 22.3181808604,
			"0.004": 3.4587105684,
			"0.005": 2.98704444515,
			"0.006": 3.21402079286,
			"0.007": 3.13630222498,
			"0.008": 2.35223794303,
			"0.009": 1.74036082505,
			"0.01": 2.95009053129,
			"0.011": 4.75649166469,
			"0.012": 0.851063882874,
			"0.013": 0.0,
			"0.014": 0.0,
			"0.015": 0.0,
			"0.016": 0.0,
			"0.017": 0.0,
			"0.018": 0.0,
			"0.019": 0.0,
			"0.02": 0.0,
			"0.021": 0.0,
			"0.022": 0.0,
			"0.023": 0.0,
			"0.024": 0.0,
			"0.025": 0.0
		}
	}
}
