{
	 "smiles": "CC(CC1=CC=CC=C1)C1=CC=CC=C1", 
	 "Tm": 325.15, 
	 "num_atms": 31, 
	 "gaussian": { 
		 "optdone": 1, 
		 "sigma_profile": "yes", 
		 "theory": "DFT", 
		 "functional": "B3LYP", 
		 "basiset": "6-31G**", 
		 "properties": { 
			 "R2extent": 4653.1023, 
			 "electric_dipole_moment_norm": 0.0740616634974, 
			 "electric_quadrupole_moment_norm": 7.028036903, 
			 "total_energy": -581.254518188, 
			 "HOMO_LUMO_gap": 0.22932, 
			 "cosmo_polarized_energy": -5.55, 
			 "cosmo_cavitation_energy": 33.55, 
			 "cosmo_dispersion_energy": -23.44, 
			 "cosmo_repulsion_energy": 1.83, 
			 "cosmo_total_nonelectrostatic_energy": 11.94, 
			 "SMD_solvation_energy": 5.42 
		},
		"coords": [
			{
				"x": -1.6327584046,
				"y": 0.0203677527,
				"z": 1.0582627798,
				"element": "C" 
			},
			{
				"x": -0.4785133591,
				"y": 0.1585443391,
				"z": 0.050302327,
				"element": "C" 
			},
			{
				"x": -0.447874352,
				"y": -1.0185719749,
				"z": -0.9686848486,
				"element": "C" 
			},
			{
				"x": -1.6710768983,
				"y": -1.1002744819,
				"z": -1.8575179086,
				"element": "C" 
			},
			{
				"x": -2.6777536518,
				"y": -2.0482201927,
				"z": -1.6298993072,
				"element": "C" 
			},
			{
				"x": -3.8096535677,
				"y": -2.1069880515,
				"z": -2.4458382947,
				"element": "C" 
			},
			{
				"x": -3.9539897827,
				"y": -1.2146248191,
				"z": -3.508678818,
				"element": "C" 
			},
			{
				"x": -2.9574444351,
				"y": -0.2660184918,
				"z": -3.7502273624,
				"element": "C" 
			},
			{
				"x": -1.8287857311,
				"y": -0.212540774,
				"z": -2.9326610118,
				"element": "C" 
			},
			{
				"x": 0.8689950967,
				"y": 0.3110990943,
				"z": 0.7424407002,
				"element": "C" 
			},
			{
				"x": 1.6509757687,
				"y": 1.4546324542,
				"z": 0.5335088958,
				"element": "C" 
			},
			{
				"x": 2.8926937168,
				"y": 1.6053172739,
				"z": 1.1544471668,
				"element": "C" 
			},
			{
				"x": 3.3779918693,
				"y": 0.6069842471,
				"z": 1.9993040586,
				"element": "C" 
			},
			{
				"x": 2.6110950009,
				"y": -0.5398585445,
				"z": 2.2170324704,
				"element": "C" 
			},
			{
				"x": 1.3708166343,
				"y": -0.6841650306,
				"z": 1.5953093383,
				"element": "C" 
			},
			{
				"x": -1.5259754773,
				"y": -0.8858076974,
				"z": 1.6650917702,
				"element": "H" 
			},
			{
				"x": -2.5962466495,
				"y": -0.0346936274,
				"z": 0.5433671508,
				"element": "H" 
			},
			{
				"x": -1.6558761008,
				"y": 0.8752798135,
				"z": 1.7409240657,
				"element": "H" 
			},
			{
				"x": -0.6524943078,
				"y": 1.0755376631,
				"z": -0.5278622701,
				"element": "H" 
			},
			{
				"x": 0.4476630155,
				"y": -0.9043851504,
				"z": -1.5909026048,
				"element": "H" 
			},
			{
				"x": -0.326537203,
				"y": -1.9607630113,
				"z": -0.4209123094,
				"element": "H" 
			},
			{
				"x": -2.5706248403,
				"y": -2.7509362489,
				"z": -0.8070497311,
				"element": "H" 
			},
			{
				"x": -4.5761227182,
				"y": -2.8524013534,
				"z": -2.2520656396,
				"element": "H" 
			},
			{
				"x": -4.8320903702,
				"y": -1.2600899122,
				"z": -4.1464962639,
				"element": "H" 
			},
			{
				"x": -3.0568418463,
				"y": 0.4286807079,
				"z": -4.5798223432,
				"element": "H" 
			},
			{
				"x": -1.0534884517,
				"y": 0.5234037233,
				"z": -3.1342586018,
				"element": "H" 
			},
			{
				"x": 1.2805803223,
				"y": 2.2385726748,
				"z": -0.1231887555,
				"element": "H" 
			},
			{
				"x": 3.4789068377,
				"y": 2.5029729147,
				"z": 0.9775047902,
				"element": "H" 
			},
			{
				"x": 4.343369733,
				"y": 0.7202726108,
				"z": 2.4842578461,
				"element": "H" 
			},
			{
				"x": 2.9791977624,
				"y": -1.3237342683,
				"z": 2.8734376327,
				"element": "H" 
			},
			{
				"x": 0.7871623901,
				"y": -1.5825916389,
				"z": 1.7787750781,
				"element": "H" 
			}
		],
		 "valence_orbital": [ 
			{
				"type": "occ",
				"energy": -0.31414,
				"method": "rhf"
			},
			{
				"type": "occ",
				"energy": -0.24648,
				"method": "rhf"
			},
			{
				"type": "occ",
				"energy": -0.24573,
				"method": "rhf"
			},
			{
				"type": "occ",
				"energy": -0.24397,
				"method": "rhf"
			},
			{
				"type": "occ",
				"energy": -0.23228,
				"method": "rhf"
			},
			{
				"type": "unocc",
				"energy": -0.00296,
				"method": "rhf"
			},
			{
				"type": "unocc",
				"energy": 0.00181,
				"method": "rhf"
			},
			{
				"type": "unocc",
				"energy": 0.00285,
				"method": "rhf"
			},
			{
				"type": "unocc",
				"energy": 0.0086,
				"method": "rhf"
			},
			{
				"type": "unocc",
				"energy": 0.08819,
				"method": "rhf"
			}
		],
		"cosmo_sigma_profile": { 
			"-0.025": 0.0,
			"-0.024": 0.0,
			"-0.023": 0.0,
			"-0.022": 0.0,
			"-0.021": 0.0,
			"-0.02": 0.0,
			"-0.019": 0.0,
			"-0.018": 0.0,
			"-0.017": 0.0,
			"-0.016": 0.0,
			"-0.015": 0.0,
			"-0.014": 0.0,
			"-0.013": 0.0,
			"-0.012": 0.0,
			"-0.011": 0.0,
			"-0.01": 0.0,
			"-0.009": 0.0,
			"-0.008": 0.0,
			"-0.007": 0.0,
			"-0.006": 2.24997084045,
			"-0.005": 19.4860293439,
			"-0.004": 26.5718737799,
			"-0.003": 34.4302162683,
			"-0.002": 24.2979904384,
			"-0.001": 25.2262407057,
			"0.0": 20.5938378547,
			"0.001": 23.6258861374,
			"0.002": 19.011079512,
			"0.003": 15.6950686386,
			"0.004": 15.3848883001,
			"0.005": 16.1600853014,
			"0.006": 16.1461531165,
			"0.007": 6.59217227575,
			"0.008": 0.0,
			"0.009": 0.0,
			"0.01": 0.0,
			"0.011": 0.0,
			"0.012": 0.0,
			"0.013": 0.0,
			"0.014": 0.0,
			"0.015": 0.0,
			"0.016": 0.0,
			"0.017": 0.0,
			"0.018": 0.0,
			"0.019": 0.0,
			"0.02": 0.0,
			"0.021": 0.0,
			"0.022": 0.0,
			"0.023": 0.0,
			"0.024": 0.0,
			"0.025": 0.0
		}
	}
}
