{
	 "smiles": "N#CC=CC#N", 
	 "Tm": 370.05, 
	 "num_atms": 8, 
	 "gaussian": { 
		 "optdone": 1, 
		 "sigma_profile": "yes", 
		 "theory": "DFT", 
		 "functional": "B3LYP", 
		 "basiset": "6-31G**", 
		 "properties": { 
			 "R2extent": 983.5224, 
			 "electric_dipole_moment_norm": 0.00184661853126, 
			 "electric_quadrupole_moment_norm": 15.2382084104, 
			 "total_energy": -263.065806511, 
			 "HOMO_LUMO_gap": 0.19431, 
			 "cosmo_polarized_energy": -11.59, 
			 "cosmo_cavitation_energy": 15.2, 
			 "cosmo_dispersion_energy": -9.79, 
			 "cosmo_repulsion_energy": 0.87, 
			 "cosmo_total_nonelectrostatic_energy": 6.29, 
			 "SMD_solvation_energy": 6.12 
		},
		"coords": [
			{
				"x": 2.4678314495,
				"y": -0.1844582864,
				"z": -0.7352168266,
				"element": "N" 
			},
			{
				"x": 1.7396132413,
				"y": -0.3663843399,
				"z": 0.1537834165,
				"element": "C" 
			},
			{
				"x": 0.8719754209,
				"y": -0.5954648953,
				"z": 1.2614546366,
				"element": "C" 
			},
			{
				"x": -0.4676400902,
				"y": -0.4867920345,
				"z": 1.1582088382,
				"element": "C" 
			},
			{
				"x": -1.3350348231,
				"y": -0.7159339495,
				"z": 2.2660554418,
				"element": "C" 
			},
			{
				"x": -2.0645312008,
				"y": -0.8975133757,
				"z": 3.154075261,
				"element": "N" 
			},
			{
				"x": 1.3413793086,
				"y": -0.8645146778,
				"z": 2.203530089,
				"element": "H" 
			},
			{
				"x": -0.9369933062,
				"y": -0.217738441,
				"z": 0.2161091435,
				"element": "H" 
			}
		],
		 "valence_orbital": [ 
			{
				"type": "occ",
				"energy": -0.38667,
				"method": "rhf"
			},
			{
				"type": "occ",
				"energy": -0.38269,
				"method": "rhf"
			},
			{
				"type": "occ",
				"energy": -0.36521,
				"method": "rhf"
			},
			{
				"type": "occ",
				"energy": -0.35892,
				"method": "rhf"
			},
			{
				"type": "occ",
				"energy": -0.30714,
				"method": "rhf"
			},
			{
				"type": "unocc",
				"energy": -0.11283,
				"method": "rhf"
			},
			{
				"type": "unocc",
				"energy": -0.00366,
				"method": "rhf"
			},
			{
				"type": "unocc",
				"energy": 0.00272,
				"method": "rhf"
			},
			{
				"type": "unocc",
				"energy": 0.05722,
				"method": "rhf"
			},
			{
				"type": "unocc",
				"energy": 0.09062,
				"method": "rhf"
			}
		],
		"cosmo_sigma_profile": { 
			"-0.025": 0.0,
			"-0.024": 0.0,
			"-0.023": 0.0,
			"-0.022": 0.0,
			"-0.021": 0.0,
			"-0.02": 0.0,
			"-0.019": 0.0,
			"-0.018": 0.0,
			"-0.017": 0.0,
			"-0.016": 0.0,
			"-0.015": 0.0,
			"-0.014": 0.0,
			"-0.013": 0.0547182531361,
			"-0.012": 4.73595141807,
			"-0.011": 4.50826629225,
			"-0.01": 4.86881773138,
			"-0.009": 3.14688348694,
			"-0.008": 3.63378905943,
			"-0.007": 4.48708315586,
			"-0.006": 4.39123212024,
			"-0.005": 5.08605294962,
			"-0.004": 10.011498869,
			"-0.003": 10.6796214291,
			"-0.002": 4.50732374219,
			"-0.001": 3.1615474548,
			"0.0": 3.01019517229,
			"0.001": 4.10421875601,
			"0.002": 5.01128160441,
			"0.003": 3.35337048021,
			"0.004": 6.24149729797,
			"0.005": 3.91551622304,
			"0.006": 6.48385188121,
			"0.007": 6.12940912104,
			"0.008": 6.21264942212,
			"0.009": 5.80368278767,
			"0.01": 4.96088580605,
			"0.011": 4.66644377412,
			"0.012": 2.06316140894,
			"0.013": 0.0,
			"0.014": 0.0,
			"0.015": 0.0,
			"0.016": 0.0,
			"0.017": 0.0,
			"0.018": 0.0,
			"0.019": 0.0,
			"0.02": 0.0,
			"0.021": 0.0,
			"0.022": 0.0,
			"0.023": 0.0,
			"0.024": 0.0,
			"0.025": 0.0
		}
	}
}
