{
	 "smiles": "NC1=CC(Cl)=NC(C(O)=O)=C1Cl", 
	 "Tm": 437.15, 
	 "num_atms": 16, 
	 "gaussian": { 
		 "optdone": 1, 
		 "sigma_profile": "yes", 
		 "theory": "DFT", 
		 "functional": "B3LYP", 
		 "basiset": "6-31G**", 
		 "properties": { 
			 "R2extent": 3045.8515, 
			 "electric_dipole_moment_norm": 7.0278787333, 
			 "electric_quadrupole_moment_norm": 14.7694186263, 
			 "total_energy": -1411.398628, 
			 "HOMO_LUMO_gap": 0.18574, 
			 "cosmo_polarized_energy": -16.88, 
			 "cosmo_cavitation_energy": 24.47, 
			 "cosmo_dispersion_energy": -18.83, 
			 "cosmo_repulsion_energy": 1.51, 
			 "cosmo_total_nonelectrostatic_energy": 7.15, 
			 "SMD_solvation_energy": 4.26 
		},
		"coords": [
			{
				"x": 1.9481900178,
				"y": 0.5346847245,
				"z": 1.1813443267,
				"element": "N" 
			},
			{
				"x": 0.9023779389,
				"y": 0.3832181477,
				"z": 0.3288454998,
				"element": "C" 
			},
			{
				"x": -0.0623570918,
				"y": 1.3935333022,
				"z": 0.1691856128,
				"element": "C" 
			},
			{
				"x": -1.1206772209,
				"y": 1.163713129,
				"z": -0.6978336391,
				"element": "C" 
			},
			{
				"x": -2.3315784066,
				"y": 2.4173793749,
				"z": -0.904415292,
				"element": "Cl" 
			},
			{
				"x": -1.2896280937,
				"y": 0.0546958793,
				"z": -1.3928468533,
				"element": "N" 
			},
			{
				"x": -0.3776625449,
				"y": -0.9324513993,
				"z": -1.2624913894,
				"element": "C" 
			},
			{
				"x": -0.6939317048,
				"y": -2.1484744299,
				"z": -2.1217247256,
				"element": "C" 
			},
			{
				"x": -1.8173592053,
				"y": -1.9962912071,
				"z": -2.8366219723,
				"element": "O" 
			},
			{
				"x": -0.0180687955,
				"y": -3.1483345085,
				"z": -2.166625823,
				"element": "O" 
			},
			{
				"x": 0.7255108801,
				"y": -0.8148749267,
				"z": -0.4218824644,
				"element": "C" 
			},
			{
				"x": 1.9284385175,
				"y": -2.0641271967,
				"z": -0.2300264491,
				"element": "Cl" 
			},
			{
				"x": 2.1319573632,
				"y": 1.4323170101,
				"z": 1.5973032755,
				"element": "H" 
			},
			{
				"x": 2.6851678261,
				"y": -0.1525038123,
				"z": 1.1866760996,
				"element": "H" 
			},
			{
				"x": 0.0174273752,
				"y": 2.3271307871,
				"z": 0.7135809486,
				"element": "H" 
			},
			{
				"x": -2.1686068554,
				"y": -1.1060148745,
				"z": -2.619667155,
				"element": "H" 
			}
		],
		 "valence_orbital": [ 
			{
				"type": "occ",
				"energy": -0.31701,
				"method": "rhf"
			},
			{
				"type": "occ",
				"energy": -0.30878,
				"method": "rhf"
			},
			{
				"type": "occ",
				"energy": -0.27595,
				"method": "rhf"
			},
			{
				"type": "occ",
				"energy": -0.2643,
				"method": "rhf"
			},
			{
				"type": "occ",
				"energy": -0.25675,
				"method": "rhf"
			},
			{
				"type": "unocc",
				"energy": -0.07101,
				"method": "rhf"
			},
			{
				"type": "unocc",
				"energy": -0.03992,
				"method": "rhf"
			},
			{
				"type": "unocc",
				"energy": 0.0109,
				"method": "rhf"
			},
			{
				"type": "unocc",
				"energy": 0.01756,
				"method": "rhf"
			},
			{
				"type": "unocc",
				"energy": 0.04495,
				"method": "rhf"
			}
		],
		"cosmo_sigma_profile": { 
			"-0.025": 0.0,
			"-0.024": 0.0,
			"-0.023": 0.0,
			"-0.022": 0.0,
			"-0.021": 0.0,
			"-0.02": 0.0,
			"-0.019": 0.0,
			"-0.018": 0.0,
			"-0.017": 0.0,
			"-0.016": 0.326270674387,
			"-0.015": 1.90051694451,
			"-0.014": 1.98899763126,
			"-0.013": 2.61249798105,
			"-0.012": 3.4670766187,
			"-0.011": 3.21507943417,
			"-0.01": 3.85440558907,
			"-0.009": 3.2501254741,
			"-0.008": 2.78723002426,
			"-0.007": 2.90483954975,
			"-0.006": 4.64907934877,
			"-0.005": 6.11495076826,
			"-0.004": 7.38136454206,
			"-0.003": 9.9986935841,
			"-0.002": 16.8917669931,
			"-0.001": 22.0078394096,
			"0.0": 16.818421095,
			"0.001": 12.4462876743,
			"0.002": 11.949091168,
			"0.003": 14.8029990894,
			"0.004": 15.397066883,
			"0.005": 6.73092519083,
			"0.006": 3.5865297458,
			"0.007": 2.90577175632,
			"0.008": 3.25655115363,
			"0.009": 4.01429650295,
			"0.01": 5.93031171163,
			"0.011": 5.64712424731,
			"0.012": 3.59453853896,
			"0.013": 0.765414775641,
			"0.014": 0.0,
			"0.015": 0.0,
			"0.016": 0.0,
			"0.017": 0.0,
			"0.018": 0.0,
			"0.019": 0.0,
			"0.02": 0.0,
			"0.021": 0.0,
			"0.022": 0.0,
			"0.023": 0.0,
			"0.024": 0.0,
			"0.025": 0.0
		}
	}
}
