{
	 "smiles": "CCC(=CC(O)=O)C1=CC=C(OC)C=C1", 
	 "Tm": 404.15, 
	 "num_atms": 29, 
	 "gaussian": { 
		 "optdone": 1, 
		 "sigma_profile": "yes", 
		 "theory": "DFT", 
		 "functional": "B3LYP", 
		 "basiset": "6-31G**", 
		 "properties": { 
			 "R2extent": 4951.437, 
			 "electric_dipole_moment_norm": 6.76291462389, 
			 "electric_quadrupole_moment_norm": 18.1945392698, 
			 "total_energy": -691.370488087, 
			 "HOMO_LUMO_gap": 0.1748, 
			 "cosmo_polarized_energy": -16.19, 
			 "cosmo_cavitation_energy": 32.6, 
			 "cosmo_dispersion_energy": -23.13, 
			 "cosmo_repulsion_energy": 1.84, 
			 "cosmo_total_nonelectrostatic_energy": 11.31, 
			 "SMD_solvation_energy": 7.61 
		},
		"coords": [
			{
				"x": 1.5298690553,
				"y": 0.5046515143,
				"z": 1.6990678311,
				"element": "C" 
			},
			{
				"x": 0.5758130314,
				"y": -0.6909204753,
				"z": 1.8792338093,
				"element": "C" 
			},
			{
				"x": 0.3721409959,
				"y": -1.47956353,
				"z": 0.5955514526,
				"element": "C" 
			},
			{
				"x": 0.7620556171,
				"y": -2.7646523939,
				"z": 0.4311939896,
				"element": "C" 
			},
			{
				"x": 1.4729825632,
				"y": -3.6545883085,
				"z": 1.3926572316,
				"element": "C" 
			},
			{
				"x": 0.9983427939,
				"y": -3.7101198362,
				"z": 2.6734476288,
				"element": "O" 
			},
			{
				"x": 2.4127332475,
				"y": -4.3430064826,
				"z": 1.0724220454,
				"element": "O" 
			},
			{
				"x": -0.2297731422,
				"y": -0.751855366,
				"z": -0.5552658282,
				"element": "C" 
			},
			{
				"x": 0.2192331229,
				"y": -0.9653805175,
				"z": -1.8749386802,
				"element": "C" 
			},
			{
				"x": -0.3605551948,
				"y": -0.3148382888,
				"z": -2.952979857,
				"element": "C" 
			},
			{
				"x": -1.4194836181,
				"y": 0.5840132068,
				"z": -2.7509604485,
				"element": "C" 
			},
			{
				"x": -1.9218381555,
				"y": 1.1714310747,
				"z": -3.871738171,
				"element": "O" 
			},
			{
				"x": -2.9864815933,
				"y": 2.0997781604,
				"z": -3.7277921984,
				"element": "C" 
			},
			{
				"x": -1.8752208845,
				"y": 0.8238645368,
				"z": -1.4491940577,
				"element": "C" 
			},
			{
				"x": -1.2753274368,
				"y": 0.1659725296,
				"z": -0.3742272868,
				"element": "C" 
			},
			{
				"x": 1.1521715401,
				"y": 1.2106621806,
				"z": 0.955003012,
				"element": "H" 
			},
			{
				"x": 2.5170490469,
				"y": 0.1645959026,
				"z": 1.3718808207,
				"element": "H" 
			},
			{
				"x": 1.6519679759,
				"y": 1.0381315318,
				"z": 2.6467399354,
				"element": "H" 
			},
			{
				"x": -0.3926612342,
				"y": -0.3216652165,
				"z": 2.2423350301,
				"element": "H" 
			},
			{
				"x": 0.9750379884,
				"y": -1.3380157848,
				"z": 2.662704971,
				"element": "H" 
			},
			{
				"x": 0.645415002,
				"y": -3.2293659092,
				"z": -0.543752732,
				"element": "H" 
			},
			{
				"x": 0.1575025013,
				"y": -3.2336754718,
				"z": 2.7170221263,
				"element": "H" 
			},
			{
				"x": 1.0569333035,
				"y": -1.6328431007,
				"z": -2.0509336551,
				"element": "H" 
			},
			{
				"x": -0.0026556302,
				"y": -0.4748089504,
				"z": -3.9647155961,
				"element": "H" 
			},
			{
				"x": -2.6918913572,
				"y": 2.9609429249,
				"z": -3.1145535287,
				"element": "H" 
			},
			{
				"x": -3.8748635725,
				"y": 1.6308958738,
				"z": -3.2858100002,
				"element": "H" 
			},
			{
				"x": -3.225479906,
				"y": 2.4419027182,
				"z": -4.7356391239,
				"element": "H" 
			},
			{
				"x": -2.6900079922,
				"y": 1.512570247,
				"z": -1.2601895006,
				"element": "H" 
			},
			{
				"x": -1.6561080679,
				"y": 0.3643872305,
				"z": 0.6229307806,
				"element": "H" 
			}
		],
		 "valence_orbital": [ 
			{
				"type": "occ",
				"energy": -0.30775,
				"method": "rhf"
			},
			{
				"type": "occ",
				"energy": -0.28025,
				"method": "rhf"
			},
			{
				"type": "occ",
				"energy": -0.26517,
				"method": "rhf"
			},
			{
				"type": "occ",
				"energy": -0.26109,
				"method": "rhf"
			},
			{
				"type": "occ",
				"energy": -0.21998,
				"method": "rhf"
			},
			{
				"type": "unocc",
				"energy": -0.04518,
				"method": "rhf"
			},
			{
				"type": "unocc",
				"energy": -0.01349,
				"method": "rhf"
			},
			{
				"type": "unocc",
				"energy": 0.01353,
				"method": "rhf"
			},
			{
				"type": "unocc",
				"energy": 0.05644,
				"method": "rhf"
			},
			{
				"type": "unocc",
				"energy": 0.07464,
				"method": "rhf"
			}
		],
		"cosmo_sigma_profile": { 
			"-0.025": 0.0,
			"-0.024": 0.0,
			"-0.023": 0.0,
			"-0.022": 0.0,
			"-0.021": 0.0,
			"-0.02": 0.0,
			"-0.019": 0.0,
			"-0.018": 0.059522248443,
			"-0.017": 0.781802255469,
			"-0.016": 0.636070367123,
			"-0.015": 0.837118888006,
			"-0.014": 1.06584257704,
			"-0.013": 0.77679268534,
			"-0.012": 0.552021814661,
			"-0.011": 1.55030677724,
			"-0.01": 0.874671893709,
			"-0.009": 0.818357646138,
			"-0.008": 0.76509315825,
			"-0.007": 4.55101545162,
			"-0.006": 15.512228734,
			"-0.005": 20.2061391771,
			"-0.004": 22.0037298515,
			"-0.003": 24.9937842246,
			"-0.002": 20.3902040749,
			"-0.001": 20.377536613,
			"0.0": 17.287376029,
			"0.001": 15.3604601676,
			"0.002": 13.1300982872,
			"0.003": 14.3199446118,
			"0.004": 14.1951529771,
			"0.005": 10.7034637081,
			"0.006": 3.50838592274,
			"0.007": 3.17668810863,
			"0.008": 4.68545338515,
			"0.009": 4.1505969346,
			"0.01": 5.87015012891,
			"0.011": 5.36341208582,
			"0.012": 6.15494452757,
			"0.013": 3.40492366467,
			"0.014": 0.250141522054,
			"0.015": 0.0,
			"0.016": 0.0,
			"0.017": 0.0,
			"0.018": 0.0,
			"0.019": 0.0,
			"0.02": 0.0,
			"0.021": 0.0,
			"0.022": 0.0,
			"0.023": 0.0,
			"0.024": 0.0,
			"0.025": 0.0
		}
	}
}
