{
	 "smiles": "CC1=NC2=C(N=NC3=C(Cl)C=CC(Cl)=C3)C(N)=NN2C(=C1)C(F)(F)F", 
	 "Tm": 488.15, 
	 "num_atms": 34, 
	 "gaussian": { 
		 "optdone": 1, 
		 "sigma_profile": "yes", 
		 "theory": "DFT", 
		 "functional": "B3LYP", 
		 "basiset": "6-31G**", 
		 "properties": { 
			 "R2extent": 10153.1832, 
			 "electric_dipole_moment_norm": 3.32631586293, 
			 "electric_quadrupole_moment_norm": 24.7883079469, 
			 "total_energy": -2087.24928881, 
			 "HOMO_LUMO_gap": 0.13415, 
			 "cosmo_polarized_energy": -16.26, 
			 "cosmo_cavitation_energy": 44.3, 
			 "cosmo_dispersion_energy": -29.59, 
			 "cosmo_repulsion_energy": 2.2, 
			 "cosmo_total_nonelectrostatic_energy": 16.92, 
			 "SMD_solvation_energy": 5.16 
		},
		"coords": [
			{
				"x": 0.8091069896,
				"y": -2.8403496281,
				"z": 0.4156166975,
				"element": "C" 
			},
			{
				"x": -0.0476108048,
				"y": -1.613725455,
				"z": 0.261208591,
				"element": "C" 
			},
			{
				"x": 0.56840904,
				"y": -0.4626428906,
				"z": 0.0093198114,
				"element": "N" 
			},
			{
				"x": -0.1653290685,
				"y": 0.6467776554,
				"z": -0.1179886698,
				"element": "C" 
			},
			{
				"x": 0.1400669587,
				"y": 2.0127696055,
				"z": -0.3463653341,
				"element": "C" 
			},
			{
				"x": 1.2450928126,
				"y": 2.8324196532,
				"z": -0.4706832744,
				"element": "N" 
			},
			{
				"x": 2.4448194559,
				"y": 2.5198102961,
				"z": -0.6896696605,
				"element": "N" 
			},
			{
				"x": 2.8889829126,
				"y": 1.1982212894,
				"z": -0.9819178756,
				"element": "C" 
			},
			{
				"x": 2.6391038865,
				"y": 0.5503294977,
				"z": -2.2019981589,
				"element": "C" 
			},
			{
				"x": 1.5747604141,
				"y": 1.27049924,
				"z": -3.3969723005,
				"element": "Cl" 
			},
			{
				"x": 3.2505676993,
				"y": -0.6669430193,
				"z": -2.4996175628,
				"element": "C" 
			},
			{
				"x": 4.1196118451,
				"y": -1.2625640193,
				"z": -1.5880395826,
				"element": "C" 
			},
			{
				"x": 4.3826365105,
				"y": -0.6058643395,
				"z": -0.3842311584,
				"element": "C" 
			},
			{
				"x": 5.4903642881,
				"y": -1.3352480703,
				"z": 0.7708622093,
				"element": "Cl" 
			},
			{
				"x": 3.7991777315,
				"y": 0.6179313308,
				"z": -0.0866890473,
				"element": "C" 
			},
			{
				"x": -1.1360661578,
				"y": 2.6712337965,
				"z": -0.2956926227,
				"element": "C" 
			},
			{
				"x": -1.3147786066,
				"y": 3.9977228139,
				"z": -0.4887502155,
				"element": "N" 
			},
			{
				"x": -2.1618008054,
				"y": 1.8406865904,
				"z": -0.0802233297,
				"element": "N" 
			},
			{
				"x": -1.5652800673,
				"y": 0.6211358398,
				"z": 0.0349424907,
				"element": "N" 
			},
			{
				"x": -2.2070725085,
				"y": -0.5436878092,
				"z": 0.2885537419,
				"element": "C" 
			},
			{
				"x": -1.4568300281,
				"y": -1.6916374976,
				"z": 0.4015971397,
				"element": "C" 
			},
			{
				"x": -3.7146600704,
				"y": -0.5206356147,
				"z": 0.4387816639,
				"element": "C" 
			},
			{
				"x": -4.1665580465,
				"y": -1.7698763316,
				"z": 0.6765870355,
				"element": "F" 
			},
			{
				"x": -4.0930309896,
				"y": 0.2542839771,
				"z": 1.4669556037,
				"element": "F" 
			},
			{
				"x": -4.3134264973,
				"y": -0.0726665994,
				"z": -0.6743444721,
				"element": "F" 
			},
			{
				"x": 1.777544877,
				"y": -2.6779777745,
				"z": -0.0595357458,
				"element": "H" 
			},
			{
				"x": 0.3275920052,
				"y": -3.7209522875,
				"z": -0.0200637155,
				"element": "H" 
			},
			{
				"x": 0.9834729201,
				"y": -3.0530358274,
				"z": 1.4776214182,
				"element": "H" 
			},
			{
				"x": 3.0447660167,
				"y": -1.1459914388,
				"z": -3.4507268835,
				"element": "H" 
			},
			{
				"x": 4.6009814401,
				"y": -2.2062224333,
				"z": -1.8175172417,
				"element": "H" 
			},
			{
				"x": 4.0287249484,
				"y": 1.1373942821,
				"z": 0.8363892965,
				"element": "H" 
			},
			{
				"x": -0.4761494824,
				"y": 4.5600207569,
				"z": -0.4565495066,
				"element": "H" 
			},
			{
				"x": -2.1891906438,
				"y": 4.4094821516,
				"z": -0.2035779164,
				"element": "H" 
			},
			{
				"x": -1.9517989747,
				"y": -2.6319977403,
				"z": 0.6018185752,
				"element": "H" 
			}
		],
		 "valence_orbital": [ 
			{
				"type": "occ",
				"energy": -0.2624,
				"method": "rhf"
			},
			{
				"type": "occ",
				"energy": -0.24748,
				"method": "rhf"
			},
			{
				"type": "occ",
				"energy": -0.24234,
				"method": "rhf"
			},
			{
				"type": "occ",
				"energy": -0.23241,
				"method": "rhf"
			},
			{
				"type": "occ",
				"energy": -0.21553,
				"method": "rhf"
			},
			{
				"type": "unocc",
				"energy": -0.08138,
				"method": "rhf"
			},
			{
				"type": "unocc",
				"energy": -0.06946,
				"method": "rhf"
			},
			{
				"type": "unocc",
				"energy": -0.02141,
				"method": "rhf"
			},
			{
				"type": "unocc",
				"energy": -0.01664,
				"method": "rhf"
			},
			{
				"type": "unocc",
				"energy": -0.00338,
				"method": "rhf"
			}
		],
		"cosmo_sigma_profile": { 
			"-0.025": 0.0,
			"-0.024": 0.0,
			"-0.023": 0.0,
			"-0.022": 0.0,
			"-0.021": 0.0,
			"-0.02": 0.0,
			"-0.019": 0.0,
			"-0.018": 0.0,
			"-0.017": 0.0,
			"-0.016": 0.0,
			"-0.015": 0.407361970471,
			"-0.014": 1.19305112156,
			"-0.013": 1.77866880654,
			"-0.012": 1.23166797062,
			"-0.011": 2.13613604427,
			"-0.01": 2.60545761525,
			"-0.009": 3.04882605196,
			"-0.008": 6.40264503553,
			"-0.007": 8.90473927631,
			"-0.006": 15.3510944661,
			"-0.005": 17.718339161,
			"-0.004": 19.0162601517,
			"-0.003": 20.8862506588,
			"-0.002": 25.9846085964,
			"-0.001": 28.1067103673,
			"0.0": 26.1087688455,
			"0.001": 36.0742188157,
			"0.002": 48.7041069507,
			"0.003": 25.0667406018,
			"0.004": 25.9664847347,
			"0.005": 14.4104587962,
			"0.006": 4.96166431511,
			"0.007": 4.95420832403,
			"0.008": 5.9472847638,
			"0.009": 3.77669837763,
			"0.01": 2.67401290408,
			"0.011": 3.24668655729,
			"0.012": 1.83077256579,
			"0.013": 1.15005628319,
			"0.014": 1.0013538408,
			"0.015": 0.228350435874,
			"0.016": 0.0,
			"0.017": 0.0,
			"0.018": 0.0,
			"0.019": 0.0,
			"0.02": 0.0,
			"0.021": 0.0,
			"0.022": 0.0,
			"0.023": 0.0,
			"0.024": 0.0,
			"0.025": 0.0
		}
	}
}
