{
	 "smiles": "CC1(C)CC2=C(C=C(N2CC2=CN=CC=C2)C2=CC=CC=C2)C(=O)C1", 
	 "Tm": 420.15, 
	 "num_atms": 47, 
	 "gaussian": { 
		 "optdone": 1, 
		 "sigma_profile": "yes", 
		 "theory": "DFT", 
		 "functional": "B3LYP", 
		 "basiset": "6-31G**", 
		 "properties": { 
			 "R2extent": 9278.028, 
			 "electric_dipole_moment_norm": 3.94279273232, 
			 "electric_quadrupole_moment_norm": 30.7056629378, 
			 "total_energy": -1036.34228278, 
			 "HOMO_LUMO_gap": 0.17217, 
			 "cosmo_polarized_energy": -18.01, 
			 "cosmo_cavitation_energy": 48.72, 
			 "cosmo_dispersion_energy": -32.14, 
			 "cosmo_repulsion_energy": 2.45, 
			 "cosmo_total_nonelectrostatic_energy": 19.03, 
			 "SMD_solvation_energy": 6.42 
		},
		"coords": [
			{
				"x": -2.7771356169,
				"y": 3.6999357278,
				"z": 0.6152523246,
				"element": "C" 
			},
			{
				"x": -2.532346931,
				"y": 2.464143433,
				"z": -0.2675913547,
				"element": "C" 
			},
			{
				"x": -2.326164276,
				"y": 2.9225727893,
				"z": -1.7257640061,
				"element": "C" 
			},
			{
				"x": -1.26366309,
				"y": 1.7218254901,
				"z": 0.2454075117,
				"element": "C" 
			},
			{
				"x": -1.1678870092,
				"y": 0.3560422484,
				"z": -0.3577363828,
				"element": "C" 
			},
			{
				"x": -2.2364356309,
				"y": -0.3729579626,
				"z": -0.8618576073,
				"element": "C" 
			},
			{
				"x": -1.7285972339,
				"y": -1.6207286732,
				"z": -1.3244271381,
				"element": "C" 
			},
			{
				"x": -0.3693866135,
				"y": -1.6278362143,
				"z": -1.0994808127,
				"element": "C" 
			},
			{
				"x": -0.0294460722,
				"y": -0.3963069086,
				"z": -0.5030193797,
				"element": "N" 
			},
			{
				"x": 1.2569133871,
				"y": -0.0592470146,
				"z": 0.1063407488,
				"element": "C" 
			},
			{
				"x": 1.2557812859,
				"y": -0.1288855099,
				"z": 1.6224254922,
				"element": "C" 
			},
			{
				"x": 1.8459852786,
				"y": 0.8883632388,
				"z": 2.3804070008,
				"element": "C" 
			},
			{
				"x": 1.9265159257,
				"y": 0.8864685786,
				"z": 3.7159162429,
				"element": "N" 
			},
			{
				"x": 1.3991639839,
				"y": -0.1615268065,
				"z": 4.3585396814,
				"element": "C" 
			},
			{
				"x": 0.7787137018,
				"y": -1.2299718545,
				"z": 3.7065466095,
				"element": "C" 
			},
			{
				"x": 0.7074239761,
				"y": -1.2133486778,
				"z": 2.3163244937,
				"element": "C" 
			},
			{
				"x": 0.6067573115,
				"y": -2.6742728764,
				"z": -1.4488450392,
				"element": "C" 
			},
			{
				"x": 1.7804093515,
				"y": -2.3952928674,
				"z": -2.1742585833,
				"element": "C" 
			},
			{
				"x": 2.6657129556,
				"y": -3.4158516803,
				"z": -2.5203764779,
				"element": "C" 
			},
			{
				"x": 2.3889816611,
				"y": -4.7378999324,
				"z": -2.1669820644,
				"element": "C" 
			},
			{
				"x": 1.2178163168,
				"y": -5.0322298969,
				"z": -1.4657581818,
				"element": "C" 
			},
			{
				"x": 0.3393439541,
				"y": -4.0116063276,
				"z": -1.105108113,
				"element": "C" 
			},
			{
				"x": -3.5966261769,
				"y": 0.1601905853,
				"z": -0.8742604511,
				"element": "C" 
			},
			{
				"x": -4.5551865836,
				"y": -0.4322781778,
				"z": -1.353571566,
				"element": "O" 
			},
			{
				"x": -3.7566323529,
				"y": 1.5168776049,
				"z": -0.178034141,
				"element": "C" 
			},
			{
				"x": -3.6578220661,
				"y": 4.2546240476,
				"z": 0.2741536344,
				"element": "H" 
			},
			{
				"x": -1.9203895972,
				"y": 4.3831019747,
				"z": 0.582570403,
				"element": "H" 
			},
			{
				"x": -2.9424682185,
				"y": 3.418166925,
				"z": 1.6611393851,
				"element": "H" 
			},
			{
				"x": -1.4867417215,
				"y": 3.6236212857,
				"z": -1.7979921597,
				"element": "H" 
			},
			{
				"x": -2.1215059875,
				"y": 2.0810809472,
				"z": -2.3938241774,
				"element": "H" 
			},
			{
				"x": -3.2202172264,
				"y": 3.4344407027,
				"z": -2.0973151235,
				"element": "H" 
			},
			{
				"x": -1.3070284789,
				"y": 1.6465942932,
				"z": 1.3421148918,
				"element": "H" 
			},
			{
				"x": -0.3731375044,
				"y": 2.3224443868,
				"z": 0.0193626145,
				"element": "H" 
			},
			{
				"x": -2.2956863339,
				"y": -2.3993693555,
				"z": -1.8132486158,
				"element": "H" 
			},
			{
				"x": 1.554078978,
				"y": 0.9442043905,
				"z": -0.2164638309,
				"element": "H" 
			},
			{
				"x": 1.9984925301,
				"y": -0.7535084419,
				"z": -0.2938520924,
				"element": "H" 
			},
			{
				"x": 2.2771039559,
				"y": 1.7553558342,
				"z": 1.8786703594,
				"element": "H" 
			},
			{
				"x": 1.4717961277,
				"y": -0.1457841639,
				"z": 5.4445422066,
				"element": "H" 
			},
			{
				"x": 0.3627330017,
				"y": -2.0539077508,
				"z": 4.2779049001,
				"element": "H" 
			},
			{
				"x": 0.2301686929,
				"y": -2.0250125264,
				"z": 1.7744648433,
				"element": "H" 
			},
			{
				"x": 1.9811445476,
				"y": -1.3783726125,
				"z": -2.499355344,
				"element": "H" 
			},
			{
				"x": 3.5645800691,
				"y": -3.1791603959,
				"z": -3.0826200156,
				"element": "H" 
			},
			{
				"x": 3.0769132522,
				"y": -5.532237145,
				"z": -2.4410940193,
				"element": "H" 
			},
			{
				"x": 0.9914030596,
				"y": -6.0583614799,
				"z": -1.1903597419,
				"element": "H" 
			},
			{
				"x": -0.5637941037,
				"y": -4.2401318505,
				"z": -0.5470806835,
				"element": "H" 
			},
			{
				"x": -3.9664794558,
				"y": 1.3010364027,
				"z": 0.8806970208,
				"element": "H" 
			},
			{
				"x": -4.6534550239,
				"y": 1.9970962168,
				"z": -0.5822032616,
				"element": "H" 
			}
		],
		 "valence_orbital": [ 
			{
				"type": "occ",
				"energy": -0.26228,
				"method": "rhf"
			},
			{
				"type": "occ",
				"energy": -0.25904,
				"method": "rhf"
			},
			{
				"type": "occ",
				"energy": -0.24378,
				"method": "rhf"
			},
			{
				"type": "occ",
				"energy": -0.22542,
				"method": "rhf"
			},
			{
				"type": "occ",
				"energy": -0.20776,
				"method": "rhf"
			},
			{
				"type": "unocc",
				"energy": -0.03559,
				"method": "rhf"
			},
			{
				"type": "unocc",
				"energy": -0.02523,
				"method": "rhf"
			},
			{
				"type": "unocc",
				"energy": -0.02112,
				"method": "rhf"
			},
			{
				"type": "unocc",
				"energy": -0.0201,
				"method": "rhf"
			},
			{
				"type": "unocc",
				"energy": -0.01105,
				"method": "rhf"
			}
		],
		"cosmo_sigma_profile": { 
			"-0.025": 0.0,
			"-0.024": 0.0,
			"-0.023": 0.0,
			"-0.022": 0.0,
			"-0.021": 0.0,
			"-0.02": 0.0,
			"-0.019": 0.0,
			"-0.018": 0.0,
			"-0.017": 0.0,
			"-0.016": 0.0,
			"-0.015": 0.0,
			"-0.014": 0.0,
			"-0.013": 0.0,
			"-0.012": 0.0,
			"-0.011": 0.0,
			"-0.01": 0.0,
			"-0.009": 0.0,
			"-0.008": 1.41759525145,
			"-0.007": 7.36302953805,
			"-0.006": 19.6824159494,
			"-0.005": 28.5207351633,
			"-0.004": 34.3671329178,
			"-0.003": 41.9183294927,
			"-0.002": 36.6459869501,
			"-0.001": 33.2223245936,
			"0.0": 33.3809563186,
			"0.001": 32.6170567743,
			"0.002": 25.3067893875,
			"0.003": 19.6733547287,
			"0.004": 16.0821515975,
			"0.005": 17.0577048728,
			"0.006": 6.97324931283,
			"0.007": 2.62123179739,
			"0.008": 4.31422694778,
			"0.009": 2.77279623093,
			"0.01": 2.50147679375,
			"0.011": 2.51520031304,
			"0.012": 3.60366899535,
			"0.013": 5.64211098667,
			"0.014": 4.88399077108,
			"0.015": 1.71621068634,
			"0.016": 0.740151399876,
			"0.017": 0.359666249131,
			"0.018": 0.0,
			"0.019": 0.0,
			"0.02": 0.0,
			"0.021": 0.0,
			"0.022": 0.0,
			"0.023": 0.0,
			"0.024": 0.0,
			"0.025": 0.0
		}
	}
}
