{
	 "smiles": "[O-][N+](=O)C1=CN=C2C=CC(Cl)=NN12", 
	 "Tm": 416.15, 
	 "num_atms": 16, 
	 "gaussian": { 
		 "optdone": 1, 
		 "sigma_profile": "yes", 
		 "theory": "DFT", 
		 "functional": "B3LYP", 
		 "basiset": "6-31G**", 
		 "properties": { 
			 "R2extent": 2932.067, 
			 "electric_dipole_moment_norm": 5.4751003525, 
			 "electric_quadrupole_moment_norm": 7.13810865566, 
			 "total_energy": -1059.93515439, 
			 "HOMO_LUMO_gap": 0.16964, 
			 "cosmo_polarized_energy": -14.33, 
			 "cosmo_cavitation_energy": 24.09, 
			 "cosmo_dispersion_energy": -18.07, 
			 "cosmo_repulsion_energy": 1.42, 
			 "cosmo_total_nonelectrostatic_energy": 7.44, 
			 "SMD_solvation_energy": 3.89 
		},
		"coords": [
			{
				"x": -1.5466137331,
				"y": 2.5162154624,
				"z": -1.164612211,
				"element": "O" 
			},
			{
				"x": -0.7185808578,
				"y": 2.0610241264,
				"z": -1.9512144203,
				"element": "N" 
			},
			{
				"x": -0.2692926384,
				"y": 2.6417621052,
				"z": -2.9453302603,
				"element": "O" 
			},
			{
				"x": -0.2070138281,
				"y": 0.7473215794,
				"z": -1.7301568414,
				"element": "C" 
			},
			{
				"x": 0.7275025049,
				"y": 0.0554171806,
				"z": -2.494642296,
				"element": "C" 
			},
			{
				"x": 0.9769783736,
				"y": -1.1675936636,
				"z": -1.9862965192,
				"element": "N" 
			},
			{
				"x": 0.2061325228,
				"y": -1.2631492451,
				"z": -0.8986784333,
				"element": "C" 
			},
			{
				"x": 0.0432075614,
				"y": -2.3069855435,
				"z": 0.0333638422,
				"element": "C" 
			},
			{
				"x": -0.8343589582,
				"y": -2.12299445,
				"z": 1.0706909774,
				"element": "C" 
			},
			{
				"x": -1.5329536925,
				"y": -0.8842766882,
				"z": 1.1469203958,
				"element": "C" 
			},
			{
				"x": -2.6508614271,
				"y": -0.640240149,
				"z": 2.4614469188,
				"element": "Cl" 
			},
			{
				"x": -1.4187039059,
				"y": 0.1136784641,
				"z": 0.3109361713,
				"element": "N" 
			},
			{
				"x": -0.5497369356,
				"y": -0.1003434872,
				"z": -0.6938564353,
				"element": "N" 
			},
			{
				"x": 1.2079737076,
				"y": 0.4283436501,
				"z": -3.3875095979,
				"element": "H" 
			},
			{
				"x": 0.6143444832,
				"y": -3.2185203876,
				"z": -0.0987031628,
				"element": "H" 
			},
			{
				"x": -1.007723177,
				"y": -2.8828589538,
				"z": 1.8219418719,
				"element": "H" 
			}
		],
		 "valence_orbital": [ 
			{
				"type": "occ",
				"energy": -0.30917,
				"method": "rhf"
			},
			{
				"type": "occ",
				"energy": -0.30591,
				"method": "rhf"
			},
			{
				"type": "occ",
				"energy": -0.2933,
				"method": "rhf"
			},
			{
				"type": "occ",
				"energy": -0.28978,
				"method": "rhf"
			},
			{
				"type": "occ",
				"energy": -0.27016,
				"method": "rhf"
			},
			{
				"type": "unocc",
				"energy": -0.10052,
				"method": "rhf"
			},
			{
				"type": "unocc",
				"energy": -0.08625,
				"method": "rhf"
			},
			{
				"type": "unocc",
				"energy": -0.02948,
				"method": "rhf"
			},
			{
				"type": "unocc",
				"energy": 0.0007,
				"method": "rhf"
			},
			{
				"type": "unocc",
				"energy": 0.04851,
				"method": "rhf"
			}
		],
		"cosmo_sigma_profile": { 
			"-0.025": 0.0,
			"-0.024": 0.0,
			"-0.023": 0.0,
			"-0.022": 0.0,
			"-0.021": 0.0,
			"-0.02": 0.0,
			"-0.019": 0.0,
			"-0.018": 0.0,
			"-0.017": 0.0,
			"-0.016": 0.0,
			"-0.015": 0.0,
			"-0.014": 0.0,
			"-0.013": 0.0,
			"-0.012": 0.0,
			"-0.011": 0.874069265095,
			"-0.01": 5.62825557217,
			"-0.009": 5.13866973667,
			"-0.008": 7.20998310963,
			"-0.007": 7.51234998943,
			"-0.006": 10.0156481869,
			"-0.005": 10.7051530389,
			"-0.004": 14.0873127966,
			"-0.003": 16.9245220037,
			"-0.002": 15.4512731585,
			"-0.001": 10.5933075541,
			"0.0": 7.98097316102,
			"0.001": 10.0982498225,
			"0.002": 12.6493428464,
			"0.003": 9.95524637605,
			"0.004": 4.90454861881,
			"0.005": 4.68116290926,
			"0.006": 6.20414342227,
			"0.007": 7.16452833632,
			"0.008": 11.5278224993,
			"0.009": 6.9071248596,
			"0.01": 4.62916485154,
			"0.011": 2.42231887501,
			"0.012": 2.16953603578,
			"0.013": 1.04497090202,
			"0.014": 1.29879853939,
			"0.015": 0.240923901137,
			"0.016": 0.0,
			"0.017": 0.0,
			"0.018": 0.0,
			"0.019": 0.0,
			"0.02": 0.0,
			"0.021": 0.0,
			"0.022": 0.0,
			"0.023": 0.0,
			"0.024": 0.0,
			"0.025": 0.0
		}
	}
}
