{
	 "smiles": "CNC(=O)COC(=O)C1=CC=CC=C1", 
	 "Tm": 385.15, 
	 "num_atms": 25, 
	 "gaussian": { 
		 "optdone": 1, 
		 "sigma_profile": "yes", 
		 "theory": "DFT", 
		 "functional": "B3LYP", 
		 "basiset": "6-31G**", 
		 "properties": { 
			 "R2extent": 4055.7103, 
			 "electric_dipole_moment_norm": 5.20891278963, 
			 "electric_quadrupole_moment_norm": 10.2071824251, 
			 "total_energy": -668.144075522, 
			 "HOMO_LUMO_gap": 0.19267, 
			 "cosmo_polarized_energy": -14.07, 
			 "cosmo_cavitation_energy": 29.98, 
			 "cosmo_dispersion_energy": -21.54, 
			 "cosmo_repulsion_energy": 1.73, 
			 "cosmo_total_nonelectrostatic_energy": 10.17, 
			 "SMD_solvation_energy": 6.7 
		},
		"coords": [
			{
				"x": 4.6063371754,
				"y": 1.9033584123,
				"z": -1.0031571052,
				"element": "C" 
			},
			{
				"x": 3.4912260785,
				"y": 1.323669457,
				"z": -0.2778220421,
				"element": "N" 
			},
			{
				"x": 3.3695628909,
				"y": 1.4256600551,
				"z": 1.070740842,
				"element": "C" 
			},
			{
				"x": 4.1610133874,
				"y": 2.0013579592,
				"z": 1.8070782641,
				"element": "O" 
			},
			{
				"x": 2.1304258382,
				"y": 0.7714207375,
				"z": 1.6806317087,
				"element": "C" 
			},
			{
				"x": 1.3719500987,
				"y": 0.0175554827,
				"z": 0.7163672919,
				"element": "O" 
			},
			{
				"x": 0.046607349,
				"y": 0.3194113836,
				"z": 0.581536159,
				"element": "C" 
			},
			{
				"x": -0.5102221822,
				"y": 1.1858071071,
				"z": 1.2221115088,
				"element": "O" 
			},
			{
				"x": -0.6186140377,
				"y": -0.5332737621,
				"z": -0.4416914151,
				"element": "C" 
			},
			{
				"x": 0.0435885179,
				"y": -1.5821229614,
				"z": -1.0963373947,
				"element": "C" 
			},
			{
				"x": -0.6343465647,
				"y": -2.3463554725,
				"z": -2.0446596785,
				"element": "C" 
			},
			{
				"x": -1.9705550605,
				"y": -2.0686872679,
				"z": -2.343494279,
				"element": "C" 
			},
			{
				"x": -2.6334410706,
				"y": -1.0259888663,
				"z": -1.6901260602,
				"element": "C" 
			},
			{
				"x": -1.9613676996,
				"y": -0.2611398737,
				"z": -0.7404709409,
				"element": "C" 
			},
			{
				"x": 5.1955231881,
				"y": 1.1314756051,
				"z": -1.5111113567,
				"element": "H" 
			},
			{
				"x": 5.2395753498,
				"y": 2.4128298104,
				"z": -0.2758773707,
				"element": "H" 
			},
			{
				"x": 4.2599598749,
				"y": 2.6286515812,
				"z": -1.7476020545,
				"element": "H" 
			},
			{
				"x": 2.7867947449,
				"y": 0.7956121189,
				"z": -0.7704760317,
				"element": "H" 
			},
			{
				"x": 1.4997080537,
				"y": 1.544619934,
				"z": 2.1235402156,
				"element": "H" 
			},
			{
				"x": 2.4581361323,
				"y": 0.0863428838,
				"z": 2.4667569339,
				"element": "H" 
			},
			{
				"x": 1.077591296,
				"y": -1.7985712566,
				"z": -0.8533386468,
				"element": "H" 
			},
			{
				"x": -0.1217782037,
				"y": -3.1602216785,
				"z": -2.5487964257,
				"element": "H" 
			},
			{
				"x": -2.4956405871,
				"y": -2.6660805242,
				"z": -3.0833592304,
				"element": "H" 
			},
			{
				"x": -3.6725744899,
				"y": -0.8117427174,
				"z": -1.9211565835,
				"element": "H" 
			},
			{
				"x": -2.4549600797,
				"y": 0.5513118529,
				"z": -0.2181863084,
				"element": "H" 
			}
		],
		 "valence_orbital": [ 
			{
				"type": "occ",
				"energy": -0.28862,
				"method": "rhf"
			},
			{
				"type": "occ",
				"energy": -0.27024,
				"method": "rhf"
			},
			{
				"type": "occ",
				"energy": -0.26784,
				"method": "rhf"
			},
			{
				"type": "occ",
				"energy": -0.25313,
				"method": "rhf"
			},
			{
				"type": "occ",
				"energy": -0.24931,
				"method": "rhf"
			},
			{
				"type": "unocc",
				"energy": -0.05664,
				"method": "rhf"
			},
			{
				"type": "unocc",
				"energy": -0.01767,
				"method": "rhf"
			},
			{
				"type": "unocc",
				"energy": 0.03135,
				"method": "rhf"
			},
			{
				"type": "unocc",
				"energy": 0.0473,
				"method": "rhf"
			},
			{
				"type": "unocc",
				"energy": 0.07728,
				"method": "rhf"
			}
		],
		"cosmo_sigma_profile": { 
			"-0.025": 0.0,
			"-0.024": 0.0,
			"-0.023": 0.0,
			"-0.022": 0.0,
			"-0.021": 0.0,
			"-0.02": 0.0,
			"-0.019": 0.0,
			"-0.018": 0.0,
			"-0.017": 0.0,
			"-0.016": 0.0,
			"-0.015": 0.0,
			"-0.014": 0.0,
			"-0.013": 0.0283484458046,
			"-0.012": 0.97725890572,
			"-0.011": 0.559135847493,
			"-0.01": 0.989171211734,
			"-0.009": 1.42206916138,
			"-0.008": 2.55279503423,
			"-0.007": 5.52892169203,
			"-0.006": 15.231022484,
			"-0.005": 20.6557945531,
			"-0.004": 24.0206799454,
			"-0.003": 19.4482339204,
			"-0.002": 20.5109642277,
			"-0.001": 16.2881728079,
			"0.0": 14.2442875921,
			"0.001": 16.6224091479,
			"0.002": 15.9183683651,
			"0.003": 14.0538789027,
			"0.004": 14.3721758214,
			"0.005": 3.63969424294,
			"0.006": 2.36654480804,
			"0.007": 3.07956056151,
			"0.008": 2.63544604545,
			"0.009": 3.21426605318,
			"0.01": 3.66140492226,
			"0.011": 5.0707163232,
			"0.012": 2.73684041861,
			"0.013": 3.48361857336,
			"0.014": 5.3257644726,
			"0.015": 0.585789848629,
			"0.016": 0.0,
			"0.017": 0.0,
			"0.018": 0.0,
			"0.019": 0.0,
			"0.02": 0.0,
			"0.021": 0.0,
			"0.022": 0.0,
			"0.023": 0.0,
			"0.024": 0.0,
			"0.025": 0.0
		}
	}
}
