{
	 "smiles": "CN(C)C1=CC=CC(=C1)C(O)=O", 
	 "Tm": 424.15, 
	 "num_atms": 23, 
	 "gaussian": { 
		 "optdone": 1, 
		 "sigma_profile": "yes", 
		 "theory": "DFT", 
		 "functional": "B3LYP", 
		 "basiset": "6-31G**", 
		 "properties": { 
			 "R2extent": 2900.5477, 
			 "electric_dipole_moment_norm": 6.68392867257, 
			 "electric_quadrupole_moment_norm": 17.7160182888, 
			 "total_energy": -554.787661439, 
			 "HOMO_LUMO_gap": 0.16504, 
			 "cosmo_polarized_energy": -15.15, 
			 "cosmo_cavitation_energy": 26.22, 
			 "cosmo_dispersion_energy": -19.28, 
			 "cosmo_repulsion_energy": 1.52, 
			 "cosmo_total_nonelectrostatic_energy": 8.47, 
			 "SMD_solvation_energy": 5.33 
		},
		"coords": [
			{
				"x": -2.5686700756,
				"y": 1.7141640122,
				"z": -0.3464673546,
				"element": "C" 
			},
			{
				"x": -1.521276658,
				"y": 1.0505183849,
				"z": 0.4126350719,
				"element": "N" 
			},
			{
				"x": -1.8821442025,
				"y": -0.082107584,
				"z": 1.2474916279,
				"element": "C" 
			},
			{
				"x": -0.1943448959,
				"y": 1.2404164848,
				"z": 0.0542030488,
				"element": "C" 
			},
			{
				"x": 0.1795924449,
				"y": 2.2205824859,
				"z": -0.8951103426,
				"element": "C" 
			},
			{
				"x": 1.5140029392,
				"y": 2.4059212633,
				"z": -1.2465877196,
				"element": "C" 
			},
			{
				"x": 2.5256352034,
				"y": 1.6345536719,
				"z": -0.6798647845,
				"element": "C" 
			},
			{
				"x": 2.1791232684,
				"y": 0.6692393356,
				"z": 0.270181044,
				"element": "C" 
			},
			{
				"x": 0.8396393602,
				"y": 0.4643922337,
				"z": 0.6243669653,
				"element": "C" 
			},
			{
				"x": 3.2833284997,
				"y": -0.1516529308,
				"z": 0.8671350241,
				"element": "C" 
			},
			{
				"x": 3.0350951328,
				"y": -0.702974436,
				"z": 2.0891431281,
				"element": "O" 
			},
			{
				"x": 4.3500267058,
				"y": -0.3345323349,
				"z": 0.329707873,
				"element": "O" 
			},
			{
				"x": -2.5726885894,
				"y": 1.4275058643,
				"z": -1.4092525162,
				"element": "H" 
			},
			{
				"x": -2.4685998901,
				"y": 2.8043439374,
				"z": -0.2902831609,
				"element": "H" 
			},
			{
				"x": -3.5382090732,
				"y": 1.4531950197,
				"z": 0.0798698169,
				"element": "H" 
			},
			{
				"x": -1.3695646876,
				"y": -0.0382462008,
				"z": 2.2161020115,
				"element": "H" 
			},
			{
				"x": -2.9543083512,
				"y": -0.0534268049,
				"z": 1.4459952049,
				"element": "H" 
			},
			{
				"x": -1.6457150965,
				"y": -1.0517338589,
				"z": 0.7820541626,
				"element": "H" 
			},
			{
				"x": -0.5748376857,
				"y": 2.8358523767,
				"z": -1.3691944431,
				"element": "H" 
			},
			{
				"x": 1.7617623532,
				"y": 3.1654643648,
				"z": -1.9827230201,
				"element": "H" 
			},
			{
				"x": 3.5666095898,
				"y": 1.7602312887,
				"z": -0.9529773617,
				"element": "H" 
			},
			{
				"x": 0.5877407801,
				"y": -0.34241226,
				"z": 1.3027071735,
				"element": "H" 
			},
			{
				"x": 2.225302928,
				"y": -0.3202943136,
				"z": 2.4550685508,
				"element": "H" 
			}
		],
		 "valence_orbital": [ 
			{
				"type": "occ",
				"energy": -0.30965,
				"method": "rhf"
			},
			{
				"type": "occ",
				"energy": -0.29462,
				"method": "rhf"
			},
			{
				"type": "occ",
				"energy": -0.26696,
				"method": "rhf"
			},
			{
				"type": "occ",
				"energy": -0.25757,
				"method": "rhf"
			},
			{
				"type": "occ",
				"energy": -0.20425,
				"method": "rhf"
			},
			{
				"type": "unocc",
				"energy": -0.03921,
				"method": "rhf"
			},
			{
				"type": "unocc",
				"energy": 0.00045,
				"method": "rhf"
			},
			{
				"type": "unocc",
				"energy": 0.05708,
				"method": "rhf"
			},
			{
				"type": "unocc",
				"energy": 0.06497,
				"method": "rhf"
			},
			{
				"type": "unocc",
				"energy": 0.08315,
				"method": "rhf"
			}
		],
		"cosmo_sigma_profile": { 
			"-0.025": 0.0,
			"-0.024": 0.0,
			"-0.023": 0.0,
			"-0.022": 0.0,
			"-0.021": 0.0,
			"-0.02": 0.0,
			"-0.019": 0.0,
			"-0.018": 0.0981378770903,
			"-0.017": 0.987495922968,
			"-0.016": 0.970037744003,
			"-0.015": 0.403827891649,
			"-0.014": 0.864082279595,
			"-0.013": 1.17400121864,
			"-0.012": 1.34941314935,
			"-0.011": 1.21742722792,
			"-0.01": 0.538565479927,
			"-0.009": 1.2940885892,
			"-0.008": 1.18078024777,
			"-0.007": 4.09727395773,
			"-0.006": 8.79876693426,
			"-0.005": 13.5386895033,
			"-0.004": 18.5103411748,
			"-0.003": 21.1327597823,
			"-0.002": 21.6319345854,
			"-0.001": 18.2382501909,
			"0.0": 8.51100324527,
			"0.001": 9.42324240198,
			"0.002": 8.17078842701,
			"0.003": 9.37418609309,
			"0.004": 13.376187459,
			"0.005": 11.7980340399,
			"0.006": 4.3420643044,
			"0.007": 3.00686560261,
			"0.008": 3.31605073536,
			"0.009": 2.4805499592,
			"0.01": 4.75216051957,
			"0.011": 5.30874414112,
			"0.012": 5.73751277475,
			"0.013": 2.15867602729,
			"0.014": 0.189194847736,
			"0.015": 0.0,
			"0.016": 0.0,
			"0.017": 0.0,
			"0.018": 0.0,
			"0.019": 0.0,
			"0.02": 0.0,
			"0.021": 0.0,
			"0.022": 0.0,
			"0.023": 0.0,
			"0.024": 0.0,
			"0.025": 0.0
		}
	}
}
