{
	 "smiles": "CC(=O)NC1=CC=C(OC(=O)C2=CC=CC=C2O)C=C1", 
	 "Tm": 460.15, 
	 "num_atms": 33, 
	 "gaussian": { 
		 "optdone": 1, 
		 "sigma_profile": "yes", 
		 "theory": "DFT", 
		 "functional": "B3LYP", 
		 "basiset": "6-31G**", 
		 "properties": { 
			 "R2extent": 9297.0676, 
			 "electric_dipole_moment_norm": 3.24989022738, 
			 "electric_quadrupole_moment_norm": 25.4937999786, 
			 "total_energy": -935.112149167, 
			 "HOMO_LUMO_gap": 0.17348, 
			 "cosmo_polarized_energy": -18.13, 
			 "cosmo_cavitation_energy": 38.33, 
			 "cosmo_dispersion_energy": -27.91, 
			 "cosmo_repulsion_energy": 2.11, 
			 "cosmo_total_nonelectrostatic_energy": 12.53, 
			 "SMD_solvation_energy": 8.41 
		},
		"coords": [
			{
				"x": -0.313029862,
				"y": 6.3329818545,
				"z": 1.6741661114,
				"element": "C" 
			},
			{
				"x": 0.1668424021,
				"y": 5.0576049173,
				"z": 0.9958236871,
				"element": "C" 
			},
			{
				"x": 1.0632886482,
				"y": 5.0739500501,
				"z": 0.1649945751,
				"element": "O" 
			},
			{
				"x": -0.4862301404,
				"y": 3.913035361,
				"z": 1.4044805285,
				"element": "N" 
			},
			{
				"x": -0.2774323737,
				"y": 2.5814042564,
				"z": 0.9900662878,
				"element": "C" 
			},
			{
				"x": 0.6938391262,
				"y": 2.2106941836,
				"z": 0.0470749653,
				"element": "C" 
			},
			{
				"x": 0.8359626601,
				"y": 0.8678776211,
				"z": -0.2993328954,
				"element": "C" 
			},
			{
				"x": 0.0183572051,
				"y": -0.0980948038,
				"z": 0.276896018,
				"element": "C" 
			},
			{
				"x": 0.162515356,
				"y": -1.4157512759,
				"z": -0.1820106812,
				"element": "O" 
			},
			{
				"x": 0.3636271731,
				"y": -2.4548344445,
				"z": 0.7228346145,
				"element": "C" 
			},
			{
				"x": 0.3995939194,
				"y": -2.2668877111,
				"z": 1.9160427795,
				"element": "O" 
			},
			{
				"x": 0.517460478,
				"y": -3.761005407,
				"z": 0.047194238,
				"element": "C" 
			},
			{
				"x": 0.7417891937,
				"y": -4.8674237277,
				"z": 0.8927403294,
				"element": "C" 
			},
			{
				"x": 0.904636611,
				"y": -6.1454772734,
				"z": 0.3860921572,
				"element": "C" 
			},
			{
				"x": 0.8434419607,
				"y": -6.3415559935,
				"z": -1.001780459,
				"element": "C" 
			},
			{
				"x": 0.62347031,
				"y": -5.2732901597,
				"z": -1.858075266,
				"element": "C" 
			},
			{
				"x": 0.4577846509,
				"y": -3.971969872,
				"z": -1.3543381926,
				"element": "C" 
			},
			{
				"x": 0.2481072885,
				"y": -3.0016222405,
				"z": -2.2680571664,
				"element": "O" 
			},
			{
				"x": -0.9550567687,
				"y": 0.2537841634,
				"z": 1.2091531287,
				"element": "C" 
			},
			{
				"x": -1.0936202599,
				"y": 1.5914796675,
				"z": 1.5620837252,
				"element": "C" 
			},
			{
				"x": 0.5175893803,
				"y": 6.7589544664,
				"z": 2.2442362621,
				"element": "H" 
			},
			{
				"x": -1.1662015926,
				"y": 6.1945043139,
				"z": 2.3440903912,
				"element": "H" 
			},
			{
				"x": -0.5815443193,
				"y": 7.0570455448,
				"z": 0.9008151059,
				"element": "H" 
			},
			{
				"x": -1.2091252775,
				"y": 4.0347858158,
				"z": 2.0982293504,
				"element": "H" 
			},
			{
				"x": 1.3213118823,
				"y": 2.9700270447,
				"z": -0.3963893738,
				"element": "H" 
			},
			{
				"x": 1.5867809897,
				"y": 0.5679424445,
				"z": -1.0233532778,
				"element": "H" 
			},
			{
				"x": 0.7828024918,
				"y": -4.677343671,
				"z": 1.9598118629,
				"element": "H" 
			},
			{
				"x": 1.0771583398,
				"y": -6.9826907638,
				"z": 1.0542483957,
				"element": "H" 
			},
			{
				"x": 0.9690063357,
				"y": -7.3381859173,
				"z": -1.4157944872,
				"element": "H" 
			},
			{
				"x": 0.5731358864,
				"y": -5.4077693034,
				"z": -2.9333139567,
				"element": "H" 
			},
			{
				"x": 0.1521150267,
				"y": -2.1537154731,
				"z": -1.7986434288,
				"element": "H" 
			},
			{
				"x": -1.5851388066,
				"y": -0.5029929407,
				"z": 1.6590154665,
				"element": "H" 
			},
			{
				"x": -1.8487379152,
				"y": 1.8704392737,
				"z": 2.2932992047,
				"element": "H" 
			}
		],
		 "valence_orbital": [ 
			{
				"type": "occ",
				"energy": -0.26229,
				"method": "rhf"
			},
			{
				"type": "occ",
				"energy": -0.26139,
				"method": "rhf"
			},
			{
				"type": "occ",
				"energy": -0.25865,
				"method": "rhf"
			},
			{
				"type": "occ",
				"energy": -0.22924,
				"method": "rhf"
			},
			{
				"type": "occ",
				"energy": -0.22414,
				"method": "rhf"
			},
			{
				"type": "unocc",
				"energy": -0.05066,
				"method": "rhf"
			},
			{
				"type": "unocc",
				"energy": -0.01761,
				"method": "rhf"
			},
			{
				"type": "unocc",
				"energy": -0.01293,
				"method": "rhf"
			},
			{
				"type": "unocc",
				"energy": 0.00415,
				"method": "rhf"
			},
			{
				"type": "unocc",
				"energy": 0.03788,
				"method": "rhf"
			}
		],
		"cosmo_sigma_profile": { 
			"-0.025": 0.0,
			"-0.024": 0.0,
			"-0.023": 0.0,
			"-0.022": 0.0,
			"-0.021": 0.0,
			"-0.02": 0.0,
			"-0.019": 0.0,
			"-0.018": 0.0,
			"-0.017": 0.0,
			"-0.016": 0.162510520849,
			"-0.015": 1.30438208251,
			"-0.014": 1.18325336813,
			"-0.013": 2.01523404256,
			"-0.012": 1.33105693041,
			"-0.011": 1.20434807433,
			"-0.01": 2.51392443361,
			"-0.009": 2.47034478244,
			"-0.008": 2.50966282428,
			"-0.007": 9.01324967038,
			"-0.006": 18.5268865034,
			"-0.005": 21.176313708,
			"-0.004": 23.624652978,
			"-0.003": 23.1158499145,
			"-0.002": 21.0628769435,
			"-0.001": 18.8932935018,
			"0.0": 16.1512614524,
			"0.001": 19.8902103232,
			"0.002": 24.1796154843,
			"0.003": 25.5441844797,
			"0.004": 23.6474489355,
			"0.005": 7.70286824763,
			"0.006": 4.41712805811,
			"0.007": 5.04770176081,
			"0.008": 4.50053725106,
			"0.009": 4.87857902651,
			"0.01": 5.99842116899,
			"0.011": 7.3457593571,
			"0.012": 3.21777198011,
			"0.013": 2.77878080801,
			"0.014": 1.78395058446,
			"0.015": 0.182988759324,
			"0.016": 0.0,
			"0.017": 0.0,
			"0.018": 0.0,
			"0.019": 0.0,
			"0.02": 0.0,
			"0.021": 0.0,
			"0.022": 0.0,
			"0.023": 0.0,
			"0.024": 0.0,
			"0.025": 0.0
		}
	}
}
