{
	 "smiles": "CC(=O)O[C@]12CC[C@H](C[C@H]1O[C@@H]2C1=C(F)C(F)=C(F)C(F)=C1F)C(C)(C)C", 
	 "Tm": 356.15, 
	 "num_atms": 48, 
	 "gaussian": { 
		 "optdone": 1, 
		 "sigma_profile": "yes", 
		 "theory": "DFT", 
		 "functional": "B3LYP", 
		 "basiset": "6-31G**", 
		 "properties": { 
			 "R2extent": 14566.0286, 
			 "electric_dipole_moment_norm": 4.24296202552, 
			 "electric_quadrupole_moment_norm": 10.6955607333, 
			 "total_energy": -1461.4772768, 
			 "HOMO_LUMO_gap": 0.22182, 
			 "cosmo_polarized_energy": -10.27, 
			 "cosmo_cavitation_energy": 49.84, 
			 "cosmo_dispersion_energy": -32.13, 
			 "cosmo_repulsion_energy": 2.31, 
			 "cosmo_total_nonelectrostatic_energy": 20.02, 
			 "SMD_solvation_energy": 10.89 
		},
		"coords": [
			{
				"x": -2.32546716,
				"y": -1.9994713069,
				"z": 1.6239874834,
				"element": "C" 
			},
			{
				"x": -1.2918638685,
				"y": -1.7489490283,
				"z": 0.5502673083,
				"element": "C" 
			},
			{
				"x": -1.5401501948,
				"y": -1.4310376693,
				"z": -0.5901785192,
				"element": "O" 
			},
			{
				"x": -0.0470730227,
				"y": -1.9333525682,
				"z": 1.0654369687,
				"element": "O" 
			},
			{
				"x": 1.1750842218,
				"y": -1.7737422707,
				"z": 0.3257616125,
				"element": "C" 
			},
			{
				"x": 2.2534078502,
				"y": -1.547584298,
				"z": 1.3804558034,
				"element": "C" 
			},
			{
				"x": 2.1919743703,
				"y": -0.1198389941,
				"z": 1.9649989908,
				"element": "C" 
			},
			{
				"x": 1.8577255412,
				"y": 0.9690934215,
				"z": 0.9002923683,
				"element": "C" 
			},
			{
				"x": 2.2308520014,
				"y": 0.4485451257,
				"z": -0.5085256457,
				"element": "C" 
			},
			{
				"x": 1.343088854,
				"y": -0.750563263,
				"z": -0.8307539221,
				"element": "C" 
			},
			{
				"x": 1.9902902514,
				"y": -1.7874013481,
				"z": -1.6307501819,
				"element": "O" 
			},
			{
				"x": 1.5723643773,
				"y": -2.8379384237,
				"z": -0.7445248467,
				"element": "C" 
			},
			{
				"x": 0.5071023982,
				"y": -3.7665806976,
				"z": -1.2845111569,
				"element": "C" 
			},
			{
				"x": -0.2846746821,
				"y": -3.523332389,
				"z": -2.4116041053,
				"element": "C" 
			},
			{
				"x": -0.1907127363,
				"y": -2.3875092821,
				"z": -3.1055296054,
				"element": "F" 
			},
			{
				"x": -1.2195348644,
				"y": -4.4591901152,
				"z": -2.855984676,
				"element": "C" 
			},
			{
				"x": -1.9632493949,
				"y": -4.2024749299,
				"z": -3.9378364444,
				"element": "F" 
			},
			{
				"x": -1.3886802868,
				"y": -5.6611035205,
				"z": -2.1748126179,
				"element": "C" 
			},
			{
				"x": -2.2878958195,
				"y": -6.5534366187,
				"z": -2.599409573,
				"element": "F" 
			},
			{
				"x": -0.6199284252,
				"y": -5.9273105723,
				"z": -1.0443803638,
				"element": "C" 
			},
			{
				"x": -0.7760251667,
				"y": -7.0784114839,
				"z": -0.3784518035,
				"element": "F" 
			},
			{
				"x": 0.3082602253,
				"y": -4.981942034,
				"z": -0.6230537174,
				"element": "C" 
			},
			{
				"x": 1.0484655977,
				"y": -5.2603921915,
				"z": 0.468162517,
				"element": "F" 
			},
			{
				"x": 2.4287139404,
				"y": 2.38554618,
				"z": 1.2454327063,
				"element": "C" 
			},
			{
				"x": 1.8176880499,
				"y": 3.4404252117,
				"z": 0.2979935997,
				"element": "C" 
			},
			{
				"x": 2.0269161518,
				"y": 2.7643486168,
				"z": 2.687357426,
				"element": "C" 
			},
			{
				"x": 3.9644924391,
				"y": 2.4336915889,
				"z": 1.1170128273,
				"element": "C" 
			},
			{
				"x": -2.2363534966,
				"y": -3.0244040086,
				"z": 1.9960554779,
				"element": "H" 
			},
			{
				"x": -3.3207147861,
				"y": -1.837950936,
				"z": 1.2113823011,
				"element": "H" 
			},
			{
				"x": -2.1574951737,
				"y": -1.3301605645,
				"z": 2.4726704154,
				"element": "H" 
			},
			{
				"x": 3.2237086972,
				"y": -1.7063853453,
				"z": 0.899220224,
				"element": "H" 
			},
			{
				"x": 2.1606090633,
				"y": -2.3014721792,
				"z": 2.1689175356,
				"element": "H" 
			},
			{
				"x": 3.1588101952,
				"y": 0.0892029093,
				"z": 2.435362619,
				"element": "H" 
			},
			{
				"x": 1.4472771015,
				"y": -0.0856967842,
				"z": 2.76554727,
				"element": "H" 
			},
			{
				"x": 0.7633920182,
				"y": 1.091221779,
				"z": 0.9020773098,
				"element": "H" 
			},
			{
				"x": 3.2795642095,
				"y": 0.1353557681,
				"z": -0.5457583094,
				"element": "H" 
			},
			{
				"x": 2.1000909898,
				"y": 1.220943532,
				"z": -1.2705817907,
				"element": "H" 
			},
			{
				"x": 0.401228533,
				"y": -0.4524704481,
				"z": -1.2919842924,
				"element": "H" 
			},
			{
				"x": 2.4247568622,
				"y": -3.4550408993,
				"z": -0.4357211272,
				"element": "H" 
			},
			{
				"x": 2.1116517204,
				"y": 3.285413328,
				"z": -0.7443251034,
				"element": "H" 
			},
			{
				"x": 2.1502600889,
				"y": 4.4448993663,
				"z": 0.5817806968,
				"element": "H" 
			},
			{
				"x": 0.7226095893,
				"y": 3.4283161484,
				"z": 0.344320065,
				"element": "H" 
			},
			{
				"x": 2.4832802377,
				"y": 2.1054484136,
				"z": 3.4319166637,
				"element": "H" 
			},
			{
				"x": 2.3463229195,
				"y": 3.7870239526,
				"z": 2.915738867,
				"element": "H" 
			},
			{
				"x": 0.9393569854,
				"y": 2.7198654697,
				"z": 2.8198269093,
				"element": "H" 
			},
			{
				"x": 4.2917472773,
				"y": 2.2357908769,
				"z": 0.0912442362,
				"element": "H" 
			},
			{
				"x": 4.4575451398,
				"y": 1.707905112,
				"z": 1.7724666162,
				"element": "H" 
			},
			{
				"x": 4.33668118,
				"y": 3.4261073697,
				"z": 1.394190984,
				"element": "H" 
			}
		],
		 "valence_orbital": [ 
			{
				"type": "occ",
				"energy": -0.29698,
				"method": "rhf"
			},
			{
				"type": "occ",
				"energy": -0.28383,
				"method": "rhf"
			},
			{
				"type": "occ",
				"energy": -0.25732,
				"method": "rhf"
			},
			{
				"type": "occ",
				"energy": -0.25264,
				"method": "rhf"
			},
			{
				"type": "occ",
				"energy": -0.24945,
				"method": "rhf"
			},
			{
				"type": "unocc",
				"energy": -0.02763,
				"method": "rhf"
			},
			{
				"type": "unocc",
				"energy": -0.01152,
				"method": "rhf"
			},
			{
				"type": "unocc",
				"energy": 0.00019,
				"method": "rhf"
			},
			{
				"type": "unocc",
				"energy": 0.01819,
				"method": "rhf"
			},
			{
				"type": "unocc",
				"energy": 0.06188,
				"method": "rhf"
			}
		],
		"cosmo_sigma_profile": { 
			"-0.025": 0.0,
			"-0.024": 0.0,
			"-0.023": 0.0,
			"-0.022": 0.0,
			"-0.021": 0.0,
			"-0.02": 0.0,
			"-0.019": 0.0,
			"-0.018": 0.0,
			"-0.017": 0.0,
			"-0.016": 0.0,
			"-0.015": 0.0,
			"-0.014": 0.0,
			"-0.013": 0.0,
			"-0.012": 0.0,
			"-0.011": 0.0,
			"-0.01": 0.0,
			"-0.009": 0.0,
			"-0.008": 0.0,
			"-0.007": 1.51706224898,
			"-0.006": 7.62469983265,
			"-0.005": 11.0345897987,
			"-0.004": 24.6703458778,
			"-0.003": 46.9094759278,
			"-0.002": 60.8595699041,
			"-0.001": 47.010221035,
			"0.0": 34.7854618595,
			"0.001": 33.8928730406,
			"0.002": 44.6991390633,
			"0.003": 41.1179027997,
			"0.004": 8.07081542409,
			"0.005": 5.02852005463,
			"0.006": 4.97241431613,
			"0.007": 2.69272328447,
			"0.008": 3.23973702287,
			"0.009": 3.06123418818,
			"0.01": 2.88532129822,
			"0.011": 3.01747900452,
			"0.012": 3.2368481748,
			"0.013": 1.23053797177,
			"0.014": 0.0,
			"0.015": 0.0,
			"0.016": 0.0,
			"0.017": 0.0,
			"0.018": 0.0,
			"0.019": 0.0,
			"0.02": 0.0,
			"0.021": 0.0,
			"0.022": 0.0,
			"0.023": 0.0,
			"0.024": 0.0,
			"0.025": 0.0
		}
	}
}
