{
	 "smiles": "CN1N=C(Br)C(C(=O)NCC(O)=O)=C1N", 
	 "Tm": 513.15, 
	 "num_atms": 24, 
	 "gaussian": { 
		 "optdone": 1, 
		 "sigma_profile": "yes", 
		 "theory": "DFT", 
		 "functional": "B3LYP", 
		 "basiset": "6-31G**", 
		 "properties": { 
			 "R2extent": 5428.38, 
			 "electric_dipole_moment_norm": 2.37464670635, 
			 "electric_quadrupole_moment_norm": 28.7521855404, 
			 "total_energy": -3288.26950811, 
			 "HOMO_LUMO_gap": 0.212, 
			 "cosmo_polarized_energy": -18.88, 
			 "cosmo_cavitation_energy": 31.29, 
			 "cosmo_dispersion_energy": -23.21, 
			 "cosmo_repulsion_energy": 1.83, 
			 "cosmo_total_nonelectrostatic_energy": 9.92, 
			 "SMD_solvation_energy": 4.11 
		},
		"coords": [
			{
				"x": 1.4849709718,
				"y": -5.1169991775,
				"z": -0.13019073,
				"element": "C" 
			},
			{
				"x": 0.9993855467,
				"y": -3.7750823479,
				"z": 0.1145687061,
				"element": "N" 
			},
			{
				"x": -0.2882900789,
				"y": -3.5803931308,
				"z": 0.5542578314,
				"element": "N" 
			},
			{
				"x": -0.3937622988,
				"y": -2.2737941742,
				"z": 0.6604367278,
				"element": "C" 
			},
			{
				"x": -2.0454864666,
				"y": -1.5459784022,
				"z": 1.2303457411,
				"element": "Br" 
			},
			{
				"x": 0.7950138805,
				"y": -1.5709551411,
				"z": 0.3161957182,
				"element": "C" 
			},
			{
				"x": 1.2201960537,
				"y": -0.166340239,
				"z": 0.3041262869,
				"element": "C" 
			},
			{
				"x": 2.3785999513,
				"y": 0.146517504,
				"z": -0.0301859246,
				"element": "O" 
			},
			{
				"x": 0.3285721403,
				"y": 0.7908610665,
				"z": 0.6720482659,
				"element": "N" 
			},
			{
				"x": 0.7137909581,
				"y": 2.1803476266,
				"z": 0.6677978093,
				"element": "C" 
			},
			{
				"x": -0.4681732559,
				"y": 3.0335909436,
				"z": 1.0698479909,
				"element": "C" 
			},
			{
				"x": -0.1471158552,
				"y": 4.3430925595,
				"z": 1.0744483643,
				"element": "O" 
			},
			{
				"x": -1.5682397366,
				"y": 2.6136047425,
				"z": 1.3557146735,
				"element": "O" 
			},
			{
				"x": 1.6771456495,
				"y": -2.6110785882,
				"z": -0.0292801207,
				"element": "C" 
			},
			{
				"x": 2.9610008219,
				"y": -2.527390684,
				"z": -0.5043099744,
				"element": "N" 
			},
			{
				"x": 2.0681436906,
				"y": -5.5001292996,
				"z": 0.7157210335,
				"element": "H" 
			},
			{
				"x": 0.6179159331,
				"y": -5.7593418411,
				"z": -0.281542691,
				"element": "H" 
			},
			{
				"x": 2.1051464294,
				"y": -5.1219074105,
				"z": -1.0311676917,
				"element": "H" 
			},
			{
				"x": -0.6233021476,
				"y": 0.5683741993,
				"z": 0.9394978914,
				"element": "H" 
			},
			{
				"x": 1.067650803,
				"y": 2.5002527936,
				"z": -0.3207084732,
				"element": "H" 
			},
			{
				"x": 1.5451317268,
				"y": 2.3766395817,
				"z": 1.3575476488,
				"element": "H" 
			},
			{
				"x": -0.9490355317,
				"y": 4.8236320287,
				"z": 1.3404406892,
				"element": "H" 
			},
			{
				"x": 3.6146396012,
				"y": -3.2206628366,
				"z": -0.1654398592,
				"element": "H" 
			},
			{
				"x": 3.2856012135,
				"y": -1.5614597733,
				"z": -0.4460699134,
				"element": "H" 
			}
		],
		 "valence_orbital": [ 
			{
				"type": "occ",
				"energy": -0.29155,
				"method": "rhf"
			},
			{
				"type": "occ",
				"energy": -0.2572,
				"method": "rhf"
			},
			{
				"type": "occ",
				"energy": -0.2557,
				"method": "rhf"
			},
			{
				"type": "occ",
				"energy": -0.24404,
				"method": "rhf"
			},
			{
				"type": "occ",
				"energy": -0.21705,
				"method": "rhf"
			},
			{
				"type": "unocc",
				"energy": -0.00505,
				"method": "rhf"
			},
			{
				"type": "unocc",
				"energy": -0.00044,
				"method": "rhf"
			},
			{
				"type": "unocc",
				"energy": 0.01261,
				"method": "rhf"
			},
			{
				"type": "unocc",
				"energy": 0.02018,
				"method": "rhf"
			},
			{
				"type": "unocc",
				"energy": 0.06722,
				"method": "rhf"
			}
		],
		"cosmo_sigma_profile": { 
			"-0.025": 0.0,
			"-0.024": 0.0,
			"-0.023": 0.0,
			"-0.022": 0.0,
			"-0.021": 0.0,
			"-0.02": 0.0,
			"-0.019": 0.267875095493,
			"-0.018": 1.3038480477,
			"-0.017": 0.766505758292,
			"-0.016": 0.731150607527,
			"-0.015": 0.76222836369,
			"-0.014": 1.65053480131,
			"-0.013": 2.27520112126,
			"-0.012": 2.13962858342,
			"-0.011": 2.41126104259,
			"-0.01": 2.15417901334,
			"-0.009": 2.51559722166,
			"-0.008": 4.79840928766,
			"-0.007": 11.5184535655,
			"-0.006": 13.2721918796,
			"-0.005": 13.072230609,
			"-0.004": 14.3944546985,
			"-0.003": 15.9756168474,
			"-0.002": 13.1778963729,
			"-0.001": 12.6997343955,
			"0.0": 16.5422674069,
			"0.001": 19.5944704811,
			"0.002": 18.4319676594,
			"0.003": 15.6317395474,
			"0.004": 13.1499389208,
			"0.005": 7.09845255907,
			"0.006": 5.61792354338,
			"0.007": 7.02017380646,
			"0.008": 6.39432677486,
			"0.009": 6.96031315821,
			"0.01": 5.24477503628,
			"0.011": 5.70265017532,
			"0.012": 4.09247045314,
			"0.013": 2.81475753477,
			"0.014": 2.01789521889,
			"0.015": 0.086779267631,
			"0.016": 0.0,
			"0.017": 0.0,
			"0.018": 0.0,
			"0.019": 0.0,
			"0.02": 0.0,
			"0.021": 0.0,
			"0.022": 0.0,
			"0.023": 0.0,
			"0.024": 0.0,
			"0.025": 0.0
		}
	}
}
