{
	 "smiles": "CP(O)(O)=O", 
	 "Tm": 380.15, 
	 "num_atms": 10, 
	 "gaussian": { 
		 "optdone": 1, 
		 "sigma_profile": "yes", 
		 "theory": "DFT", 
		 "functional": "B3LYP", 
		 "basiset": "6-31G**", 
		 "properties": { 
			 "R2extent": 569.6808, 
			 "electric_dipole_moment_norm": 1.26979205384, 
			 "electric_quadrupole_moment_norm": 9.27234604887, 
			 "total_energy": -608.220960887, 
			 "HOMO_LUMO_gap": 0.33309, 
			 "cosmo_polarized_energy": -14.95, 
			 "cosmo_cavitation_energy": 15.34, 
			 "cosmo_dispersion_energy": -12.05, 
			 "cosmo_repulsion_energy": 1.06, 
			 "cosmo_total_nonelectrostatic_energy": 4.35, 
			 "SMD_solvation_energy": 5.81 
		},
		"coords": [
			{
				"x": -0.6903164975,
				"y": -0.7281007916,
				"z": 0.0694698564,
				"element": "C" 
			},
			{
				"x": 0.5193646918,
				"y": 0.5024967359,
				"z": -0.4507778479,
				"element": "P" 
			},
			{
				"x": 0.5974569199,
				"y": 0.2273343393,
				"z": -2.0532129137,
				"element": "O" 
			},
			{
				"x": -0.3304919809,
				"y": 1.8815610043,
				"z": -0.2931858292,
				"element": "O" 
			},
			{
				"x": 1.8493309386,
				"y": 0.5424190685,
				"z": 0.2118434094,
				"element": "O" 
			},
			{
				"x": -1.6083814107,
				"y": -0.6237056868,
				"z": -0.5134114097,
				"element": "H" 
			},
			{
				"x": -0.276537543,
				"y": -1.7267949252,
				"z": -0.0834272599,
				"element": "H" 
			},
			{
				"x": -0.9160420589,
				"y": -0.5862362019,
				"z": 1.1281950158,
				"element": "H" 
			},
			{
				"x": 1.495444437,
				"y": 0.4014984543,
				"z": -2.3702268036,
				"element": "H" 
			},
			{
				"x": 0.2626725037,
				"y": 2.6032280032,
				"z": -0.0390662175,
				"element": "H" 
			}
		],
		 "valence_orbital": [ 
			{
				"type": "occ",
				"energy": -0.36076,
				"method": "rhf"
			},
			{
				"type": "occ",
				"energy": -0.35925,
				"method": "rhf"
			},
			{
				"type": "occ",
				"energy": -0.33649,
				"method": "rhf"
			},
			{
				"type": "occ",
				"energy": -0.2893,
				"method": "rhf"
			},
			{
				"type": "occ",
				"energy": -0.28714,
				"method": "rhf"
			},
			{
				"type": "unocc",
				"energy": 0.04595,
				"method": "rhf"
			},
			{
				"type": "unocc",
				"energy": 0.07739,
				"method": "rhf"
			},
			{
				"type": "unocc",
				"energy": 0.09125,
				"method": "rhf"
			},
			{
				"type": "unocc",
				"energy": 0.11905,
				"method": "rhf"
			},
			{
				"type": "unocc",
				"energy": 0.13327,
				"method": "rhf"
			}
		],
		"cosmo_sigma_profile": { 
			"-0.025": 0.0,
			"-0.024": 0.0,
			"-0.023": 0.0,
			"-0.022": 0.0,
			"-0.021": 0.0,
			"-0.02": 0.0,
			"-0.019": 0.385149801534,
			"-0.018": 1.99432892673,
			"-0.017": 1.56389331195,
			"-0.016": 1.67817495547,
			"-0.015": 1.85462971257,
			"-0.014": 1.76527850936,
			"-0.013": 0.989599587377,
			"-0.012": 1.24373483682,
			"-0.011": 0.984734839357,
			"-0.01": 2.75349203678,
			"-0.009": 1.79959098614,
			"-0.008": 1.54523499976,
			"-0.007": 5.92327637508,
			"-0.006": 7.20866613128,
			"-0.005": 5.55117705528,
			"-0.004": 6.84135946694,
			"-0.003": 7.37995250276,
			"-0.002": 8.7675182438,
			"-0.001": 4.63634646984,
			"0.0": 3.23509717888,
			"0.001": 2.86988199641,
			"0.002": 3.52621959084,
			"0.003": 3.5475439708,
			"0.004": 1.88449224961,
			"0.005": 1.7148178999,
			"0.006": 3.51872244132,
			"0.007": 3.78447045537,
			"0.008": 2.86066273106,
			"0.009": 4.0183221984,
			"0.01": 4.04665062181,
			"0.011": 3.9851223262,
			"0.012": 1.74159433729,
			"0.013": 1.05643682506,
			"0.014": 2.84413570656,
			"0.015": 7.3166659985,
			"0.016": 0.806299816184,
			"0.017": 0.0,
			"0.018": 0.0,
			"0.019": 0.0,
			"0.02": 0.0,
			"0.021": 0.0,
			"0.022": 0.0,
			"0.023": 0.0,
			"0.024": 0.0,
			"0.025": 0.0
		}
	}
}
