{
	 "smiles": "COC(=O)C1=NC=CC(=C1)C(O)=O", 
	 "Tm": 507.15, 
	 "num_atms": 20, 
	 "gaussian": { 
		 "optdone": 1, 
		 "sigma_profile": "yes", 
		 "theory": "DFT", 
		 "functional": "B3LYP", 
		 "basiset": "6-31G**", 
		 "properties": { 
			 "R2extent": 3205.9699, 
			 "electric_dipole_moment_norm": 3.2923767494, 
			 "electric_quadrupole_moment_norm": 10.3531901422, 
			 "total_energy": -664.721377346, 
			 "HOMO_LUMO_gap": 0.18963, 
			 "cosmo_polarized_energy": -17.61, 
			 "cosmo_cavitation_energy": 25.9, 
			 "cosmo_dispersion_energy": -19.02, 
			 "cosmo_repulsion_energy": 1.51, 
			 "cosmo_total_nonelectrostatic_energy": 8.38, 
			 "SMD_solvation_energy": 6.25 
		},
		"coords": [
			{
				"x": 1.8436826158,
				"y": 2.9875500786,
				"z": 1.9824295639,
				"element": "C" 
			},
			{
				"x": 0.6253196426,
				"y": 2.3978806807,
				"z": 1.4964648332,
				"element": "O" 
			},
			{
				"x": 0.7826735657,
				"y": 1.468331826,
				"z": 0.5486041113,
				"element": "C" 
			},
			{
				"x": 1.8594186161,
				"y": 1.1171072517,
				"z": 0.1020698391,
				"element": "O" 
			},
			{
				"x": -0.5195235015,
				"y": 0.8813112524,
				"z": 0.073321472,
				"element": "C" 
			},
			{
				"x": -1.6660358907,
				"y": 1.3025765438,
				"z": 0.6186896502,
				"element": "N" 
			},
			{
				"x": -2.7998972609,
				"y": 0.7626104982,
				"z": 0.1580839434,
				"element": "C" 
			},
			{
				"x": -2.8433360915,
				"y": -0.2053715582,
				"z": -0.8451680479,
				"element": "C" 
			},
			{
				"x": -1.6402084902,
				"y": -0.6551242227,
				"z": -1.3983001572,
				"element": "C" 
			},
			{
				"x": -0.4521813109,
				"y": -0.0900459018,
				"z": -0.9319444478,
				"element": "C" 
			},
			{
				"x": -1.7060824259,
				"y": -1.6966102882,
				"z": -2.4847426785,
				"element": "C" 
			},
			{
				"x": -0.5590681962,
				"y": -2.3512855168,
				"z": -2.7810381404,
				"element": "O" 
			},
			{
				"x": -2.7276420416,
				"y": -1.9505559023,
				"z": -3.0761433958,
				"element": "O" 
			},
			{
				"x": 2.4902305029,
				"y": 2.224218618,
				"z": 2.4223429619,
				"element": "H" 
			},
			{
				"x": 2.3818380994,
				"y": 3.4805951651,
				"z": 1.1691447769,
				"element": "H" 
			},
			{
				"x": 1.535601303,
				"y": 3.7119385441,
				"z": 2.735425706,
				"element": "H" 
			},
			{
				"x": -3.7202168684,
				"y": 1.1226056369,
				"z": 0.6127309445,
				"element": "H" 
			},
			{
				"x": -3.7817887238,
				"y": -0.6134607363,
				"z": -1.2030642232,
				"element": "H" 
			},
			{
				"x": 0.5294730164,
				"y": -0.339688161,
				"z": -1.3227569315,
				"element": "H" 
			},
			{
				"x": 0.1426434397,
				"y": -2.1243838079,
				"z": -2.1548497799,
				"element": "H" 
			}
		],
		 "valence_orbital": [ 
			{
				"type": "occ",
				"energy": -0.31081,
				"method": "rhf"
			},
			{
				"type": "occ",
				"energy": -0.30127,
				"method": "rhf"
			},
			{
				"type": "occ",
				"energy": -0.29215,
				"method": "rhf"
			},
			{
				"type": "occ",
				"energy": -0.2881,
				"method": "rhf"
			},
			{
				"type": "occ",
				"energy": -0.27421,
				"method": "rhf"
			},
			{
				"type": "unocc",
				"energy": -0.08458,
				"method": "rhf"
			},
			{
				"type": "unocc",
				"energy": -0.06244,
				"method": "rhf"
			},
			{
				"type": "unocc",
				"energy": 0.01074,
				"method": "rhf"
			},
			{
				"type": "unocc",
				"energy": 0.04773,
				"method": "rhf"
			},
			{
				"type": "unocc",
				"energy": 0.06155,
				"method": "rhf"
			}
		],
		"cosmo_sigma_profile": { 
			"-0.025": 0.0,
			"-0.024": 0.0,
			"-0.023": 0.0,
			"-0.022": 0.0,
			"-0.021": 0.0,
			"-0.02": 0.447645059058,
			"-0.019": 0.828990436986,
			"-0.018": 0.996548966501,
			"-0.017": 1.31634882698,
			"-0.016": 1.43043219225,
			"-0.015": 0.653902370275,
			"-0.014": 0.79955980648,
			"-0.013": 0.809071694776,
			"-0.012": 1.39456431737,
			"-0.011": 1.05811940725,
			"-0.01": 0.943189793794,
			"-0.009": 1.07465657321,
			"-0.008": 4.09940814719,
			"-0.007": 8.11568257209,
			"-0.006": 11.5454708231,
			"-0.005": 13.3776687487,
			"-0.004": 18.2519208108,
			"-0.003": 17.1542969341,
			"-0.002": 17.6171389293,
			"-0.001": 15.004284818,
			"0.0": 10.7766001634,
			"0.001": 7.79779513367,
			"0.002": 6.25120276059,
			"0.003": 4.95931017724,
			"0.004": 5.44596392237,
			"0.005": 5.42458278668,
			"0.006": 4.45774628766,
			"0.007": 6.24388597245,
			"0.008": 5.75294425897,
			"0.009": 7.3046617106,
			"0.01": 8.02209431308,
			"0.011": 10.5609052404,
			"0.012": 4.55370606397,
			"0.013": 0.729388804019,
			"0.014": 1.28308439308,
			"0.015": 1.1381590785,
			"0.016": 0.300219998178,
			"0.017": 0.0,
			"0.018": 0.0,
			"0.019": 0.0,
			"0.02": 0.0,
			"0.021": 0.0,
			"0.022": 0.0,
			"0.023": 0.0,
			"0.024": 0.0,
			"0.025": 0.0
		}
	}
}
