{
	 "smiles": "OC1=CC(O)=C(Br)C=C1", 
	 "Tm": 376.15, 
	 "num_atms": 14, 
	 "gaussian": { 
		 "optdone": 1, 
		 "sigma_profile": "yes", 
		 "theory": "DFT", 
		 "functional": "B3LYP", 
		 "basiset": "6-31G**", 
		 "properties": { 
			 "R2extent": 2093.4164, 
			 "electric_dipole_moment_norm": 2.98061909844, 
			 "electric_quadrupole_moment_norm": 10.4340698071, 
			 "total_energy": -2953.49088839, 
			 "HOMO_LUMO_gap": 0.20752, 
			 "cosmo_polarized_energy": -13.74, 
			 "cosmo_cavitation_energy": 20.66, 
			 "cosmo_dispersion_energy": -16.07, 
			 "cosmo_repulsion_energy": 1.32, 
			 "cosmo_total_nonelectrostatic_energy": 5.91, 
			 "SMD_solvation_energy": 3.24 
		},
		"coords": [
			{
				"x": -1.7707474749,
				"y": -0.7299068779,
				"z": -2.5042595061,
				"element": "O" 
			},
			{
				"x": -1.0277690211,
				"y": -0.375724748,
				"z": -1.415778335,
				"element": "C" 
			},
			{
				"x": -0.4958936187,
				"y": -1.4146618722,
				"z": -0.6479672723,
				"element": "C" 
			},
			{
				"x": 0.2761302494,
				"y": -1.1357617535,
				"z": 0.4824329777,
				"element": "C" 
			},
			{
				"x": 0.8097945438,
				"y": -2.1187349862,
				"z": 1.2534182554,
				"element": "O" 
			},
			{
				"x": 0.5130359768,
				"y": 0.2017378462,
				"z": 0.8404410258,
				"element": "C" 
			},
			{
				"x": 1.5627470096,
				"y": 0.6055447757,
				"z": 2.3781755941,
				"element": "Br" 
			},
			{
				"x": -0.0198071742,
				"y": 1.2304967469,
				"z": 0.0710460475,
				"element": "C" 
			},
			{
				"x": -0.7907771596,
				"y": 0.9550299652,
				"z": -1.0577969494,
				"element": "C" 
			},
			{
				"x": -2.0805030472,
				"y": 0.0692768704,
				"z": -2.9495243039,
				"element": "H" 
			},
			{
				"x": -0.69301738,
				"y": -2.4410276153,
				"z": -0.9450043223,
				"element": "H" 
			},
			{
				"x": 0.5628117582,
				"y": -2.9769525436,
				"z": 0.8850057789,
				"element": "H" 
			},
			{
				"x": 0.1715088242,
				"y": 2.2579274159,
				"z": 0.359716624,
				"element": "H" 
			},
			{
				"x": -1.2012134864,
				"y": 1.7685567765,
				"z": -1.6502056143,
				"element": "H" 
			}
		],
		 "valence_orbital": [ 
			{
				"type": "occ",
				"energy": -0.33672,
				"method": "rhf"
			},
			{
				"type": "occ",
				"energy": -0.28961,
				"method": "rhf"
			},
			{
				"type": "occ",
				"energy": -0.27629,
				"method": "rhf"
			},
			{
				"type": "occ",
				"energy": -0.24341,
				"method": "rhf"
			},
			{
				"type": "occ",
				"energy": -0.21499,
				"method": "rhf"
			},
			{
				"type": "unocc",
				"energy": -0.00747,
				"method": "rhf"
			},
			{
				"type": "unocc",
				"energy": 0.00933,
				"method": "rhf"
			},
			{
				"type": "unocc",
				"energy": 0.01454,
				"method": "rhf"
			},
			{
				"type": "unocc",
				"energy": 0.06345,
				"method": "rhf"
			},
			{
				"type": "unocc",
				"energy": 0.06565,
				"method": "rhf"
			}
		],
		"cosmo_sigma_profile": { 
			"-0.025": 0.0,
			"-0.024": 0.0,
			"-0.023": 0.0,
			"-0.022": 0.0,
			"-0.021": 0.0,
			"-0.02": 0.0,
			"-0.019": 0.256158019831,
			"-0.018": 1.7625480817,
			"-0.017": 2.21323755043,
			"-0.016": 1.87148675808,
			"-0.015": 2.91390298673,
			"-0.014": 1.66765792391,
			"-0.013": 1.293077711,
			"-0.012": 1.42735225358,
			"-0.011": 2.40105510986,
			"-0.01": 3.16233114806,
			"-0.009": 1.76753314563,
			"-0.008": 2.30680811193,
			"-0.007": 4.16130780268,
			"-0.006": 5.02598699772,
			"-0.005": 5.69064430136,
			"-0.004": 6.30453389309,
			"-0.003": 5.24048358071,
			"-0.002": 6.16478071484,
			"-0.001": 6.3452199457,
			"0.0": 7.04927601807,
			"0.001": 8.69219336411,
			"0.002": 12.3970483424,
			"0.003": 20.4406142786,
			"0.004": 20.3764573979,
			"0.005": 13.7294157658,
			"0.006": 5.16142452308,
			"0.007": 4.06051668973,
			"0.008": 3.0229775552,
			"0.009": 3.33333733426,
			"0.01": 4.00785985733,
			"0.011": 3.63612594289,
			"0.012": 0.261558050842,
			"0.013": 0.0,
			"0.014": 0.0,
			"0.015": 0.0,
			"0.016": 0.0,
			"0.017": 0.0,
			"0.018": 0.0,
			"0.019": 0.0,
			"0.02": 0.0,
			"0.021": 0.0,
			"0.022": 0.0,
			"0.023": 0.0,
			"0.024": 0.0,
			"0.025": 0.0
		}
	}
}
