{
	 "smiles": "CC1=CC=C(C=C1)S(=O)(=O)OCC1CC2=C(O1)C=CC=C2", 
	 "Tm": 345.65, 
	 "num_atms": 37, 
	 "gaussian": { 
		 "optdone": 1, 
		 "sigma_profile": "yes", 
		 "theory": "DFT", 
		 "functional": "B3LYP", 
		 "basiset": "6-31G**", 
		 "properties": { 
			 "R2extent": 6900.7286, 
			 "electric_dipole_moment_norm": 3.10183470546, 
			 "electric_quadrupole_moment_norm": 22.4128547876, 
			 "total_energy": -1318.35951563, 
			 "HOMO_LUMO_gap": 0.17051, 
			 "cosmo_polarized_energy": -14.74, 
			 "cosmo_cavitation_energy": 41.84, 
			 "cosmo_dispersion_energy": -28.79, 
			 "cosmo_repulsion_energy": 2.17, 
			 "cosmo_total_nonelectrostatic_energy": 15.22, 
			 "SMD_solvation_energy": 5.94 
		},
		"coords": [
			{
				"x": 4.9141714069,
				"y": 1.3462312697,
				"z": -0.9930834416,
				"element": "C" 
			},
			{
				"x": 3.6962794471,
				"y": 0.6882843652,
				"z": -0.3912164597,
				"element": "C" 
			},
			{
				"x": 3.8012687806,
				"y": -0.5054015039,
				"z": 0.332582748,
				"element": "C" 
			},
			{
				"x": 2.6741960473,
				"y": -1.1189860379,
				"z": 0.8804519553,
				"element": "C" 
			},
			{
				"x": 1.4297671831,
				"y": -0.5192494914,
				"z": 0.7011646235,
				"element": "C" 
			},
			{
				"x": 1.2902342732,
				"y": 0.6766023437,
				"z": -0.0102736491,
				"element": "C" 
			},
			{
				"x": 2.4254654718,
				"y": 1.2661301743,
				"z": -0.5540498696,
				"element": "C" 
			},
			{
				"x": -0.0000671475,
				"y": -1.2802313682,
				"z": 1.4348075482,
				"element": "S" 
			},
			{
				"x": 0.3853366875,
				"y": -2.5001981462,
				"z": 2.1429649226,
				"element": "O" 
			},
			{
				"x": -0.820220669,
				"y": -0.2797242246,
				"z": 2.1245826837,
				"element": "O" 
			},
			{
				"x": -0.7651469745,
				"y": -1.6830583753,
				"z": 0.0361359847,
				"element": "O" 
			},
			{
				"x": -2.048722152,
				"y": -2.3467903605,
				"z": 0.169531323,
				"element": "C" 
			},
			{
				"x": -3.0964035575,
				"y": -1.5961881022,
				"z": -0.6405397868,
				"element": "C" 
			},
			{
				"x": -3.2616291238,
				"y": -0.0981224663,
				"z": -0.2579528798,
				"element": "C" 
			},
			{
				"x": -2.7078643309,
				"y": 0.6016358857,
				"z": -1.4762168142,
				"element": "C" 
			},
			{
				"x": -2.4332693145,
				"y": -0.3635287765,
				"z": -2.4477032238,
				"element": "C" 
			},
			{
				"x": -2.7193806409,
				"y": -1.6380743048,
				"z": -2.0425987813,
				"element": "O" 
			},
			{
				"x": -1.9304536473,
				"y": -0.0362235075,
				"z": -3.7015633122,
				"element": "C" 
			},
			{
				"x": -1.6960086802,
				"y": 1.3184946277,
				"z": -3.9663541725,
				"element": "C" 
			},
			{
				"x": -1.9571140075,
				"y": 2.3003976489,
				"z": -3.0065782822,
				"element": "C" 
			},
			{
				"x": -2.4686642528,
				"y": 1.9430797692,
				"z": -1.7502955442,
				"element": "C" 
			},
			{
				"x": 5.0178638055,
				"y": 2.3800870424,
				"z": -0.6457026491,
				"element": "H" 
			},
			{
				"x": 5.8300637421,
				"y": 0.8094084651,
				"z": -0.7337274316,
				"element": "H" 
			},
			{
				"x": 4.8427266522,
				"y": 1.3804446415,
				"z": -2.0863319503,
				"element": "H" 
			},
			{
				"x": 4.7763432331,
				"y": -0.9642316336,
				"z": 0.4702474882,
				"element": "H" 
			},
			{
				"x": 2.7511137161,
				"y": -2.0448332321,
				"z": 1.439345794,
				"element": "H" 
			},
			{
				"x": 0.3136655867,
				"y": 1.1290506122,
				"z": -0.1435552097,
				"element": "H" 
			},
			{
				"x": 2.3259516643,
				"y": 2.1916121439,
				"z": -1.1149090995,
				"element": "H" 
			},
			{
				"x": -2.3591017179,
				"y": -2.3953300577,
				"z": 1.2183049101,
				"element": "H" 
			},
			{
				"x": -1.9229562791,
				"y": -3.3632283773,
				"z": -0.2123380934,
				"element": "H" 
			},
			{
				"x": -4.037558137,
				"y": -2.1505712171,
				"z": -0.5471156777,
				"element": "H" 
			},
			{
				"x": -2.7169548993,
				"y": 0.1436959628,
				"z": 0.6597029308,
				"element": "H" 
			},
			{
				"x": -4.3169259705,
				"y": 0.1491986438,
				"z": -0.09438357,
				"element": "H" 
			},
			{
				"x": -1.7266395253,
				"y": -0.8072359825,
				"z": -4.436566567,
				"element": "H" 
			},
			{
				"x": -1.3022860828,
				"y": 1.6070360303,
				"z": -4.936902686,
				"element": "H" 
			},
			{
				"x": -1.7679514853,
				"y": 3.3447814467,
				"z": -3.2354191239,
				"element": "H" 
			},
			{
				"x": -2.6804291015,
				"y": 2.7060360927,
				"z": -1.0056446367,
				"element": "H" 
			}
		],
		 "valence_orbital": [ 
			{
				"type": "occ",
				"energy": -0.28603,
				"method": "rhf"
			},
			{
				"type": "occ",
				"energy": -0.27017,
				"method": "rhf"
			},
			{
				"type": "occ",
				"energy": -0.26459,
				"method": "rhf"
			},
			{
				"type": "occ",
				"energy": -0.24508,
				"method": "rhf"
			},
			{
				"type": "occ",
				"energy": -0.21053,
				"method": "rhf"
			},
			{
				"type": "unocc",
				"energy": -0.04002,
				"method": "rhf"
			},
			{
				"type": "unocc",
				"energy": -0.02031,
				"method": "rhf"
			},
			{
				"type": "unocc",
				"energy": -0.00211,
				"method": "rhf"
			},
			{
				"type": "unocc",
				"energy": 0.01691,
				"method": "rhf"
			},
			{
				"type": "unocc",
				"energy": 0.04159,
				"method": "rhf"
			}
		],
		"cosmo_sigma_profile": { 
			"-0.025": 0.0,
			"-0.024": 0.0,
			"-0.023": 0.0,
			"-0.022": 0.0,
			"-0.021": 0.0,
			"-0.02": 0.0,
			"-0.019": 0.0,
			"-0.018": 0.0,
			"-0.017": 0.0,
			"-0.016": 0.0,
			"-0.015": 0.0,
			"-0.014": 0.0,
			"-0.013": 0.0,
			"-0.012": 0.0,
			"-0.011": 0.0,
			"-0.01": 0.0,
			"-0.009": 0.387311059679,
			"-0.008": 3.8125087467,
			"-0.007": 12.0149125013,
			"-0.006": 18.9828898684,
			"-0.005": 26.4771034989,
			"-0.004": 26.6129987371,
			"-0.003": 27.6755432023,
			"-0.002": 28.2078381959,
			"-0.001": 26.9073001833,
			"0.0": 24.7407320403,
			"0.001": 18.6445312591,
			"0.002": 22.3048071697,
			"0.003": 23.1831631708,
			"0.004": 15.0703707929,
			"0.005": 13.1602269796,
			"0.006": 11.1884263634,
			"0.007": 6.43725001291,
			"0.008": 5.63404630801,
			"0.009": 7.30470965621,
			"0.01": 9.83353863581,
			"0.011": 4.78227261044,
			"0.012": 0.078130584146,
			"0.013": 0.0,
			"0.014": 0.0,
			"0.015": 0.0,
			"0.016": 0.0,
			"0.017": 0.0,
			"0.018": 0.0,
			"0.019": 0.0,
			"0.02": 0.0,
			"0.021": 0.0,
			"0.022": 0.0,
			"0.023": 0.0,
			"0.024": 0.0,
			"0.025": 0.0
		}
	}
}
