{
	 "smiles": "OC(=O)C1=CN(N=C1)C1=C(C=C(C=C1)[N+]([O-])=O)[N+]([O-])=O", 
	 "Tm": 534.15, 
	 "num_atms": 26, 
	 "gaussian": { 
		 "optdone": 1, 
		 "sigma_profile": "yes", 
		 "theory": "DFT", 
		 "functional": "B3LYP", 
		 "basiset": "6-31G**", 
		 "properties": { 
			 "R2extent": 6815.5212, 
			 "electric_dipole_moment_norm": 5.0190586976, 
			 "electric_quadrupole_moment_norm": 28.1645532409, 
			 "total_energy": -1054.79000384, 
			 "HOMO_LUMO_gap": 0.1549, 
			 "cosmo_polarized_energy": -24.94, 
			 "cosmo_cavitation_energy": 34.02, 
			 "cosmo_dispersion_energy": -24.13, 
			 "cosmo_repulsion_energy": 1.82, 
			 "cosmo_total_nonelectrostatic_energy": 11.7, 
			 "SMD_solvation_energy": 11.23 
		},
		"coords": [
			{
				"x": 0.4332850648,
				"y": -0.302975915,
				"z": -5.3639469497,
				"element": "O" 
			},
			{
				"x": -0.3411278775,
				"y": -0.0399448743,
				"z": -4.2784975063,
				"element": "C" 
			},
			{
				"x": -1.4679735837,
				"y": 0.3729880008,
				"z": -4.417033383,
				"element": "O" 
			},
			{
				"x": 0.266229879,
				"y": -0.2962437552,
				"z": -2.9530370677,
				"element": "C" 
			},
			{
				"x": -0.3175236281,
				"y": 0.0801705436,
				"z": -1.7607503176,
				"element": "C" 
			},
			{
				"x": 0.5051047766,
				"y": -0.3456832069,
				"z": -0.7633992626,
				"element": "N" 
			},
			{
				"x": 1.6011823168,
				"y": -1.0106723774,
				"z": -1.250781666,
				"element": "N" 
			},
			{
				"x": 1.4602113226,
				"y": -0.9684386468,
				"z": -2.5631079265,
				"element": "C" 
			},
			{
				"x": 0.3235943852,
				"y": -0.2925216959,
				"z": 0.6364311308,
				"element": "C" 
			},
			{
				"x": -0.3015247217,
				"y": 0.7704176304,
				"z": 1.3197246379,
				"element": "C" 
			},
			{
				"x": -0.5361788772,
				"y": 0.7040593111,
				"z": 2.6901632311,
				"element": "C" 
			},
			{
				"x": -0.0939503249,
				"y": -0.4073140855,
				"z": 3.3914173731,
				"element": "C" 
			},
			{
				"x": 0.5679251333,
				"y": -1.4568313275,
				"z": 2.7571934678,
				"element": "C" 
			},
			{
				"x": 0.7591276063,
				"y": -1.397804007,
				"z": 1.3841061721,
				"element": "C" 
			},
			{
				"x": -0.3257765461,
				"y": -0.4705247875,
				"z": 4.8445963383,
				"element": "N" 
			},
			{
				"x": 0.0824169073,
				"y": -1.4684804129,
				"z": 5.4343134618,
				"element": "O" 
			},
			{
				"x": -0.910172129,
				"y": 0.4759597657,
				"z": 5.3654385392,
				"element": "O" 
			},
			{
				"x": -0.6685746275,
				"y": 2.0477524749,
				"z": 0.6732140012,
				"element": "N" 
			},
			{
				"x": -1.6360693923,
				"y": 2.6456924441,
				"z": 1.1344621126,
				"element": "O" 
			},
			{
				"x": 0.0419073757,
				"y": 2.441292153,
				"z": -0.2479787687,
				"element": "O" 
			},
			{
				"x": 1.3360877007,
				"y": -0.5283642525,
				"z": -5.1007309015,
				"element": "H" 
			},
			{
				"x": -1.2489189289,
				"y": 0.5955519813,
				"z": -1.5912729578,
				"element": "H" 
			},
			{
				"x": 2.2165937963,
				"y": -1.436101585,
				"z": -3.1818560894,
				"element": "H" 
			},
			{
				"x": -1.0352956345,
				"y": 1.5186615166,
				"z": 3.1977153841,
				"element": "H" 
			},
			{
				"x": 0.9021550109,
				"y": -2.3073220174,
				"z": 3.3379714876,
				"element": "H" 
			},
			{
				"x": 1.2451649959,
				"y": -2.2072228747,
				"z": 0.8547454591,
				"element": "H" 
			}
		],
		 "valence_orbital": [ 
			{
				"type": "occ",
				"energy": -0.31667,
				"method": "rhf"
			},
			{
				"type": "occ",
				"energy": -0.31162,
				"method": "rhf"
			},
			{
				"type": "occ",
				"energy": -0.29312,
				"method": "rhf"
			},
			{
				"type": "occ",
				"energy": -0.28584,
				"method": "rhf"
			},
			{
				"type": "occ",
				"energy": -0.28209,
				"method": "rhf"
			},
			{
				"type": "unocc",
				"energy": -0.12719,
				"method": "rhf"
			},
			{
				"type": "unocc",
				"energy": -0.11163,
				"method": "rhf"
			},
			{
				"type": "unocc",
				"energy": -0.05832,
				"method": "rhf"
			},
			{
				"type": "unocc",
				"energy": -0.04728,
				"method": "rhf"
			},
			{
				"type": "unocc",
				"energy": -0.03156,
				"method": "rhf"
			}
		],
		"cosmo_sigma_profile": { 
			"-0.025": 0.0,
			"-0.024": 0.0,
			"-0.023": 0.0,
			"-0.022": 0.0,
			"-0.021": 0.0,
			"-0.02": 0.154629932209,
			"-0.019": 0.830162953546,
			"-0.018": 1.51598808703,
			"-0.017": 0.891886682421,
			"-0.016": 1.29470451292,
			"-0.015": 1.32643559167,
			"-0.014": 1.68550762252,
			"-0.013": 2.21925427489,
			"-0.012": 2.6192245461,
			"-0.011": 2.52780512292,
			"-0.01": 3.91600519219,
			"-0.009": 7.021000664,
			"-0.008": 9.70977408903,
			"-0.007": 8.59495228886,
			"-0.006": 11.008309508,
			"-0.005": 13.0919146562,
			"-0.004": 19.3278843484,
			"-0.003": 18.1423633739,
			"-0.002": 16.7704800978,
			"-0.001": 14.4124862902,
			"0.0": 12.8787719365,
			"0.001": 10.3795458642,
			"0.002": 9.86887718324,
			"0.003": 9.4312397444,
			"0.004": 9.84525668373,
			"0.005": 11.0548994266,
			"0.006": 18.6771795961,
			"0.007": 16.9527747405,
			"0.008": 11.7314626849,
			"0.009": 8.96409030071,
			"0.01": 6.10599036577,
			"0.011": 6.0206748967,
			"0.012": 4.80585804296,
			"0.013": 1.20451317058,
			"0.014": 0.0184503291127,
			"0.015": 0.0,
			"0.016": 0.0,
			"0.017": 0.0,
			"0.018": 0.0,
			"0.019": 0.0,
			"0.02": 0.0,
			"0.021": 0.0,
			"0.022": 0.0,
			"0.023": 0.0,
			"0.024": 0.0,
			"0.025": 0.0
		}
	}
}
