{
	 "smiles": "OC(=O)C1=C(N(N=N1)C1=CC(F)=CC=C1)C(F)(F)F", 
	 "Tm": 404.15, 
	 "num_atms": 24, 
	 "gaussian": { 
		 "optdone": 1, 
		 "sigma_profile": "yes", 
		 "theory": "DFT", 
		 "functional": "B3LYP", 
		 "basiset": "6-31G**", 
		 "properties": { 
			 "R2extent": 5216.26, 
			 "electric_dipole_moment_norm": 6.27968257239, 
			 "electric_quadrupole_moment_norm": 18.2416161211, 
			 "total_energy": -1098.08435897, 
			 "HOMO_LUMO_gap": 0.19675, 
			 "cosmo_polarized_energy": -18.55, 
			 "cosmo_cavitation_energy": 31.71, 
			 "cosmo_dispersion_energy": -22.08, 
			 "cosmo_repulsion_energy": 1.61, 
			 "cosmo_total_nonelectrostatic_energy": 11.23, 
			 "SMD_solvation_energy": 6.68 
		},
		"coords": [
			{
				"x": 1.3385654293,
				"y": 2.170379201,
				"z": -3.241746183,
				"element": "O" 
			},
			{
				"x": 0.0340427836,
				"y": 2.0184680535,
				"z": -2.9084188163,
				"element": "C" 
			},
			{
				"x": -0.8393869172,
				"y": 2.5011503032,
				"z": -3.5787063842,
				"element": "O" 
			},
			{
				"x": -0.2517045326,
				"y": 1.2449615185,
				"z": -1.6552987693,
				"element": "C" 
			},
			{
				"x": 0.3004269171,
				"y": 0.091442699,
				"z": -1.1177058513,
				"element": "C" 
			},
			{
				"x": -0.4084628434,
				"y": -0.1267986576,
				"z": 0.0292743012,
				"element": "N" 
			},
			{
				"x": -1.3536286076,
				"y": 0.8426799192,
				"z": 0.1732890427,
				"element": "N" 
			},
			{
				"x": -1.2644894262,
				"y": 1.6500582937,
				"z": -0.8346117986,
				"element": "N" 
			},
			{
				"x": -0.3152776699,
				"y": -1.1503321367,
				"z": 1.0260766989,
				"element": "C" 
			},
			{
				"x": 0.9311275033,
				"y": -1.5174444561,
				"z": 1.5367327644,
				"element": "C" 
			},
			{
				"x": 0.9618888455,
				"y": -2.494969074,
				"z": 2.5235424403,
				"element": "C" 
			},
			{
				"x": 2.1554681215,
				"y": -2.8635748042,
				"z": 3.0214308102,
				"element": "F" 
			},
			{
				"x": -0.192837885,
				"y": -3.0893560423,
				"z": 3.021084208,
				"element": "C" 
			},
			{
				"x": -1.4245885897,
				"y": -2.6888473912,
				"z": 2.5025257696,
				"element": "C" 
			},
			{
				"x": -1.498125187,
				"y": -1.7215471428,
				"z": 1.5007577457,
				"element": "C" 
			},
			{
				"x": 1.3843899681,
				"y": -0.7997213425,
				"z": -1.6390932444,
				"element": "C" 
			},
			{
				"x": 2.5785103992,
				"y": -0.5088521651,
				"z": -1.0567009909,
				"element": "F" 
			},
			{
				"x": 1.1307409971,
				"y": -2.0981686641,
				"z": -1.4197809986,
				"element": "F" 
			},
			{
				"x": 1.5419764289,
				"y": -0.6187407288,
				"z": -2.9616420705,
				"element": "F" 
			},
			{
				"x": 1.9222301978,
				"y": 1.7923632155,
				"z": -2.5696344905,
				"element": "H" 
			},
			{
				"x": 1.8528872273,
				"y": -1.0662327138,
				"z": 1.1928710556,
				"element": "H" 
			},
			{
				"x": -0.1147517272,
				"y": -3.8435421825,
				"z": 3.796002194,
				"element": "H" 
			},
			{
				"x": -2.3371921735,
				"y": -3.1394879166,
				"z": 2.8785284854,
				"element": "H" 
			},
			{
				"x": -2.4489092594,
				"y": -1.403887785,
				"z": 1.0909240815,
				"element": "H" 
			}
		],
		 "valence_orbital": [ 
			{
				"type": "occ",
				"energy": -0.31155,
				"method": "rhf"
			},
			{
				"type": "occ",
				"energy": -0.30283,
				"method": "rhf"
			},
			{
				"type": "occ",
				"energy": -0.28933,
				"method": "rhf"
			},
			{
				"type": "occ",
				"energy": -0.28321,
				"method": "rhf"
			},
			{
				"type": "occ",
				"energy": -0.27389,
				"method": "rhf"
			},
			{
				"type": "unocc",
				"energy": -0.07714,
				"method": "rhf"
			},
			{
				"type": "unocc",
				"energy": -0.04055,
				"method": "rhf"
			},
			{
				"type": "unocc",
				"energy": -0.03355,
				"method": "rhf"
			},
			{
				"type": "unocc",
				"energy": -0.02247,
				"method": "rhf"
			},
			{
				"type": "unocc",
				"energy": 0.041,
				"method": "rhf"
			}
		],
		"cosmo_sigma_profile": { 
			"-0.025": 0.0,
			"-0.024": 0.0,
			"-0.023": 0.0,
			"-0.022": 0.0,
			"-0.021": 0.0,
			"-0.02": 0.0,
			"-0.019": 0.0,
			"-0.018": 0.616702574751,
			"-0.017": 1.30053826135,
			"-0.016": 1.10773014612,
			"-0.015": 1.23041814047,
			"-0.014": 1.18780608304,
			"-0.013": 1.00589607573,
			"-0.012": 0.97423114797,
			"-0.011": 0.666405093012,
			"-0.01": 0.498423919321,
			"-0.009": 2.16326291216,
			"-0.008": 6.90935224445,
			"-0.007": 12.3915684518,
			"-0.006": 15.2761648028,
			"-0.005": 12.6174258793,
			"-0.004": 9.22202632019,
			"-0.003": 11.768744897,
			"-0.002": 12.7775249047,
			"-0.001": 18.7293489858,
			"0.0": 26.2752666119,
			"0.001": 34.1139921381,
			"0.002": 17.1794227011,
			"0.003": 10.9959422524,
			"0.004": 10.5463960787,
			"0.005": 3.9380899816,
			"0.006": 4.95282639353,
			"0.007": 5.73123556344,
			"0.008": 6.16590350085,
			"0.009": 8.36914054848,
			"0.01": 7.90720406586,
			"0.011": 6.91086247841,
			"0.012": 2.33987917904,
			"0.013": 0.824439057978,
			"0.014": 0.0395779436795,
			"0.015": 0.0,
			"0.016": 0.0,
			"0.017": 0.0,
			"0.018": 0.0,
			"0.019": 0.0,
			"0.02": 0.0,
			"0.021": 0.0,
			"0.022": 0.0,
			"0.023": 0.0,
			"0.024": 0.0,
			"0.025": 0.0
		}
	}
}
