{
	 "smiles": "CC1=CC=C(C=C1)C(=O)CC1=NC=CC=C1", 
	 "Tm": 347.15, 
	 "num_atms": 29, 
	 "gaussian": { 
		 "optdone": 1, 
		 "sigma_profile": "yes", 
		 "theory": "DFT", 
		 "functional": "B3LYP", 
		 "basiset": "6-31G**", 
		 "properties": { 
			 "R2extent": 4399.7724, 
			 "electric_dipole_moment_norm": 2.34407798932, 
			 "electric_quadrupole_moment_norm": 14.652294579, 
			 "total_energy": -671.309863734, 
			 "HOMO_LUMO_gap": 0.18459, 
			 "cosmo_polarized_energy": -9.75, 
			 "cosmo_cavitation_energy": 33.09, 
			 "cosmo_dispersion_energy": -23.48, 
			 "cosmo_repulsion_energy": 1.82, 
			 "cosmo_total_nonelectrostatic_energy": 11.43, 
			 "SMD_solvation_energy": 5.15 
		},
		"coords": [
			{
				"x": -4.588819661,
				"y": -0.2073250158,
				"z": 2.2770705606,
				"element": "C" 
			},
			{
				"x": -3.3896156689,
				"y": -0.2256496112,
				"z": 1.3608133537,
				"element": "C" 
			},
			{
				"x": -3.3830153234,
				"y": -1.0253055058,
				"z": 0.2052776982,
				"element": "C" 
			},
			{
				"x": -2.2927646109,
				"y": -1.0282963073,
				"z": -0.6540172601,
				"element": "C" 
			},
			{
				"x": -1.1715690485,
				"y": -0.2227695068,
				"z": -0.3900393968,
				"element": "C" 
			},
			{
				"x": -1.1675091558,
				"y": 0.5742631465,
				"z": 0.7648800577,
				"element": "C" 
			},
			{
				"x": -2.2634131975,
				"y": 0.5633748596,
				"z": 1.6269254163,
				"element": "C" 
			},
			{
				"x": -0.0324108485,
				"y": -0.2663655213,
				"z": -1.3530924675,
				"element": "C" 
			},
			{
				"x": -0.0110397307,
				"y": -1.0685055167,
				"z": -2.2768824945,
				"element": "O" 
			},
			{
				"x": 1.1442801116,
				"y": 0.7046440068,
				"z": -1.1759637661,
				"element": "C" 
			},
			{
				"x": 2.1599978227,
				"y": 0.1839404342,
				"z": -0.1746548285,
				"element": "C" 
			},
			{
				"x": 2.2668229286,
				"y": 0.8480899675,
				"z": 0.9864062006,
				"element": "N" 
			},
			{
				"x": 3.1573969154,
				"y": 0.4052504673,
				"z": 1.8840267617,
				"element": "C" 
			},
			{
				"x": 3.9738419058,
				"y": -0.7058925367,
				"z": 1.6798430756,
				"element": "C" 
			},
			{
				"x": 3.8515604818,
				"y": -1.3989558101,
				"z": 0.4746010203,
				"element": "C" 
			},
			{
				"x": 2.9310306057,
				"y": -0.9499149443,
				"z": -0.4678280788,
				"element": "C" 
			},
			{
				"x": -5.3874845896,
				"y": 0.4228054296,
				"z": 1.8659043496,
				"element": "H" 
			},
			{
				"x": -4.3341804831,
				"y": 0.1882137959,
				"z": 3.2642273496,
				"element": "H" 
			},
			{
				"x": -5.0068151488,
				"y": -1.2105842575,
				"z": 2.4082956495,
				"element": "H" 
			},
			{
				"x": -4.2442121408,
				"y": -1.6516250441,
				"z": -0.0150262937,
				"element": "H" 
			},
			{
				"x": -2.2801291221,
				"y": -1.6489798964,
				"z": -1.5438847365,
				"element": "H" 
			},
			{
				"x": -0.3001959444,
				"y": 1.1776240918,
				"z": 1.0140954159,
				"element": "H" 
			},
			{
				"x": -2.24278732,
				"y": 1.1776252734,
				"z": 2.5235716175,
				"element": "H" 
			},
			{
				"x": 0.8090972922,
				"y": 1.6907154106,
				"z": -0.8494030778,
				"element": "H" 
			},
			{
				"x": 1.605933926,
				"y": 0.7947902935,
				"z": -2.1629995344,
				"element": "H" 
			},
			{
				"x": 3.2184757882,
				"y": 0.970770404,
				"z": 2.8123101759,
				"element": "H" 
			},
			{
				"x": 4.6796505478,
				"y": -1.0173203468,
				"z": 2.4432034816,
				"element": "H" 
			},
			{
				"x": 4.4632366373,
				"y": -2.2737440032,
				"z": 0.2728257029,
				"element": "H" 
			},
			{
				"x": 2.795837031,
				"y": -1.4614737569,
				"z": -1.4155859525,
				"element": "H" 
			}
		],
		 "valence_orbital": [ 
			{
				"type": "occ",
				"energy": -0.26579,
				"method": "rhf"
			},
			{
				"type": "occ",
				"energy": -0.25869,
				"method": "rhf"
			},
			{
				"type": "occ",
				"energy": -0.25299,
				"method": "rhf"
			},
			{
				"type": "occ",
				"energy": -0.24458,
				"method": "rhf"
			},
			{
				"type": "occ",
				"energy": -0.23826,
				"method": "rhf"
			},
			{
				"type": "unocc",
				"energy": -0.05367,
				"method": "rhf"
			},
			{
				"type": "unocc",
				"energy": -0.02403,
				"method": "rhf"
			},
			{
				"type": "unocc",
				"energy": -0.01326,
				"method": "rhf"
			},
			{
				"type": "unocc",
				"energy": -0.00262,
				"method": "rhf"
			},
			{
				"type": "unocc",
				"energy": 0.04456,
				"method": "rhf"
			}
		],
		"cosmo_sigma_profile": { 
			"-0.025": 0.0,
			"-0.024": 0.0,
			"-0.023": 0.0,
			"-0.022": 0.0,
			"-0.021": 0.0,
			"-0.02": 0.0,
			"-0.019": 0.0,
			"-0.018": 0.0,
			"-0.017": 0.0,
			"-0.016": 0.0,
			"-0.015": 0.0,
			"-0.014": 0.0,
			"-0.013": 0.0,
			"-0.012": 0.0,
			"-0.011": 0.0,
			"-0.01": 0.0,
			"-0.009": 0.0,
			"-0.008": 0.0865330493352,
			"-0.007": 3.84623535705,
			"-0.006": 11.806713456,
			"-0.005": 23.2588891995,
			"-0.004": 26.4671781161,
			"-0.003": 22.6530769518,
			"-0.002": 21.9410283079,
			"-0.001": 20.061026526,
			"0.0": 23.3113101881,
			"0.001": 18.6430329249,
			"0.002": 22.8134412829,
			"0.003": 23.151075642,
			"0.004": 16.8082329875,
			"0.005": 6.93499996203,
			"0.006": 3.33962433052,
			"0.007": 2.10584504857,
			"0.008": 2.2706524276,
			"0.009": 2.48765772018,
			"0.01": 2.43384374166,
			"0.011": 3.16643868099,
			"0.012": 4.77250377618,
			"0.013": 1.51523102565,
			"0.014": 0.354043139832,
			"0.015": 0.0819089287325,
			"0.016": 0.0,
			"0.017": 0.0,
			"0.018": 0.0,
			"0.019": 0.0,
			"0.02": 0.0,
			"0.021": 0.0,
			"0.022": 0.0,
			"0.023": 0.0,
			"0.024": 0.0,
			"0.025": 0.0
		}
	}
}
