{
	 "smiles": "BrCC(=O)NC1=C(C=CC=C1)C(=O)C1=CC=CC=C1", 
	 "Tm": 367.65, 
	 "num_atms": 31, 
	 "gaussian": { 
		 "optdone": 1, 
		 "sigma_profile": "yes", 
		 "theory": "DFT", 
		 "functional": "B3LYP", 
		 "basiset": "6-31G**", 
		 "properties": { 
			 "R2extent": 7745.0905, 
			 "electric_dipole_moment_norm": 2.25217105478, 
			 "electric_quadrupole_moment_norm": 10.1159333395, 
			 "total_energy": -3355.44669398, 
			 "HOMO_LUMO_gap": 0.18004, 
			 "cosmo_polarized_energy": -15.86, 
			 "cosmo_cavitation_energy": 37.73, 
			 "cosmo_dispersion_energy": -26.67, 
			 "cosmo_repulsion_energy": 2.08, 
			 "cosmo_total_nonelectrostatic_energy": 13.14, 
			 "SMD_solvation_energy": 6.07 
		},
		"coords": [
			{
				"x": 0.1349460822,
				"y": 2.2231399474,
				"z": 4.5051040756,
				"element": "Br" 
			},
			{
				"x": -1.0487688383,
				"y": 1.2619067993,
				"z": 3.2401471587,
				"element": "C" 
			},
			{
				"x": -0.6167615225,
				"y": 1.2312963035,
				"z": 1.7766349915,
				"element": "C" 
			},
			{
				"x": -1.4696984556,
				"y": 0.9564151681,
				"z": 0.9443199891,
				"element": "O" 
			},
			{
				"x": 0.6996031807,
				"y": 1.4499275734,
				"z": 1.5063998391,
				"element": "N" 
			},
			{
				"x": 1.2816583151,
				"y": 1.4243678867,
				"z": 0.215751795,
				"element": "C" 
			},
			{
				"x": 0.9889968595,
				"y": 0.4129420286,
				"z": -0.7215903553,
				"element": "C" 
			},
			{
				"x": 1.5876278508,
				"y": 0.4839585671,
				"z": -1.9871198428,
				"element": "C" 
			},
			{
				"x": 2.4846852943,
				"y": 1.5004551868,
				"z": -2.3140775052,
				"element": "C" 
			},
			{
				"x": 2.7844763283,
				"y": 2.4815277213,
				"z": -1.3698204273,
				"element": "C" 
			},
			{
				"x": 2.1720164264,
				"y": 2.4500785373,
				"z": -0.1182598989,
				"element": "C" 
			},
			{
				"x": 0.2191796176,
				"y": -0.8312877652,
				"z": -0.3466087905,
				"element": "C" 
			},
			{
				"x": 0.5181638256,
				"y": -1.4381648274,
				"z": 0.6731787562,
				"element": "O" 
			},
			{
				"x": -0.8278783712,
				"y": -1.3527134404,
				"z": -1.278336327,
				"element": "C" 
			},
			{
				"x": -1.4843350723,
				"y": -0.5328257721,
				"z": -2.2077342402,
				"element": "C" 
			},
			{
				"x": -2.4785025075,
				"y": -1.0625794981,
				"z": -3.0298176054,
				"element": "C" 
			},
			{
				"x": -2.8177011936,
				"y": -2.4139478562,
				"z": -2.9359107412,
				"element": "C" 
			},
			{
				"x": -2.1712313034,
				"y": -3.2353429985,
				"z": -2.0067771126,
				"element": "C" 
			},
			{
				"x": -1.1881269629,
				"y": -2.7054065571,
				"z": -1.1765276919,
				"element": "C" 
			},
			{
				"x": -1.108730206,
				"y": 0.2381728983,
				"z": 3.6113597061,
				"element": "H" 
			},
			{
				"x": -2.0255664688,
				"y": 1.7353028261,
				"z": 3.30383203,
				"element": "H" 
			},
			{
				"x": 1.2746813356,
				"y": 1.7770496365,
				"z": 2.2721153762,
				"element": "H" 
			},
			{
				"x": 1.3648973856,
				"y": -0.2920457996,
				"z": -2.7128576441,
				"element": "H" 
			},
			{
				"x": 2.9475884505,
				"y": 1.5214834557,
				"z": -3.29578679,
				"element": "H" 
			},
			{
				"x": 3.4799599442,
				"y": 3.2806638443,
				"z": -1.608021933,
				"element": "H" 
			},
			{
				"x": 2.3714615395,
				"y": 3.232886261,
				"z": 0.608546345,
				"element": "H" 
			},
			{
				"x": -1.234689991,
				"y": 0.5210508493,
				"z": -2.2645795063,
				"element": "H" 
			},
			{
				"x": -2.991896489,
				"y": -0.4204268614,
				"z": -3.7395373756,
				"element": "H" 
			},
			{
				"x": -3.5881837294,
				"y": -2.8262031433,
				"z": -3.581554026,
				"element": "H" 
			},
			{
				"x": -2.4384066908,
				"y": -4.2854374369,
				"z": -1.9305105476,
				"element": "H" 
			},
			{
				"x": -0.6825646335,
				"y": -3.3190435345,
				"z": -0.4381617015,
				"element": "H" 
			}
		],
		 "valence_orbital": [ 
			{
				"type": "occ",
				"energy": -0.26119,
				"method": "rhf"
			},
			{
				"type": "occ",
				"energy": -0.25379,
				"method": "rhf"
			},
			{
				"type": "occ",
				"energy": -0.25184,
				"method": "rhf"
			},
			{
				"type": "occ",
				"energy": -0.24263,
				"method": "rhf"
			},
			{
				"type": "occ",
				"energy": -0.23829,
				"method": "rhf"
			},
			{
				"type": "unocc",
				"energy": -0.05825,
				"method": "rhf"
			},
			{
				"type": "unocc",
				"energy": -0.02692,
				"method": "rhf"
			},
			{
				"type": "unocc",
				"energy": -0.01604,
				"method": "rhf"
			},
			{
				"type": "unocc",
				"energy": -0.00928,
				"method": "rhf"
			},
			{
				"type": "unocc",
				"energy": -0.00115,
				"method": "rhf"
			}
		],
		"cosmo_sigma_profile": { 
			"-0.025": 0.0,
			"-0.024": 0.0,
			"-0.023": 0.0,
			"-0.022": 0.0,
			"-0.021": 0.0,
			"-0.02": 0.0,
			"-0.019": 0.0,
			"-0.018": 0.0,
			"-0.017": 0.0,
			"-0.016": 0.0,
			"-0.015": 0.0,
			"-0.014": 0.04477623329,
			"-0.013": 0.575324506474,
			"-0.012": 0.853390535743,
			"-0.011": 1.24992759849,
			"-0.01": 1.23492235981,
			"-0.009": 4.64688328131,
			"-0.008": 5.36597668105,
			"-0.007": 8.6976708872,
			"-0.006": 19.6992782237,
			"-0.005": 25.2816824016,
			"-0.004": 24.0860548258,
			"-0.003": 19.4615138499,
			"-0.002": 17.8038769669,
			"-0.001": 18.6492294487,
			"0.0": 16.4840940971,
			"0.001": 19.5441553978,
			"0.002": 20.6915726492,
			"0.003": 25.1799213481,
			"0.004": 27.6378614079,
			"0.005": 12.8602681499,
			"0.006": 5.35106242202,
			"0.007": 4.48216103921,
			"0.008": 4.243159924,
			"0.009": 4.18707017818,
			"0.01": 4.69864341922,
			"0.011": 4.35623190233,
			"0.012": 5.93416316432,
			"0.013": 2.13507838448,
			"0.014": 0.134427646285,
			"0.015": 0.0,
			"0.016": 0.0,
			"0.017": 0.0,
			"0.018": 0.0,
			"0.019": 0.0,
			"0.02": 0.0,
			"0.021": 0.0,
			"0.022": 0.0,
			"0.023": 0.0,
			"0.024": 0.0,
			"0.025": 0.0
		}
	}
}
