{
	 "smiles": "CCN(CC)CC#CCOC(=O)C(O)(C1CCCCC1)C1=CC=CC=C1", 
	 "Tm": 402.65, 
	 "num_atms": 57, 
	 "gaussian": { 
		 "optdone": 1, 
		 "sigma_profile": "yes", 
		 "theory": "DFT", 
		 "functional": "B3LYP", 
		 "basiset": "6-31G**", 
		 "properties": { 
			 "R2extent": 12968.6513, 
			 "electric_dipole_moment_norm": 2.67534725223, 
			 "electric_quadrupole_moment_norm": 7.16825806385, 
			 "total_energy": -1137.39095019, 
			 "HOMO_LUMO_gap": 0.20652, 
			 "cosmo_polarized_energy": -11.06, 
			 "cosmo_cavitation_energy": 57.03, 
			 "cosmo_dispersion_energy": -36.82, 
			 "cosmo_repulsion_energy": 2.91, 
			 "cosmo_total_nonelectrostatic_energy": 23.12, 
			 "SMD_solvation_energy": 7.74 
		},
		"coords": [
			{
				"x": -3.2939795307,
				"y": -3.3640548859,
				"z": -0.6583153855,
				"element": "C" 
			},
			{
				"x": -2.0406529774,
				"y": -3.544811187,
				"z": -1.5166368253,
				"element": "C" 
			},
			{
				"x": -1.1513353914,
				"y": -4.6084183221,
				"z": -1.0294646201,
				"element": "N" 
			},
			{
				"x": -0.1656099641,
				"y": -5.0316536974,
				"z": -2.0351173145,
				"element": "C" 
			},
			{
				"x": -0.775412601,
				"y": -5.8938699504,
				"z": -3.1422185234,
				"element": "C" 
			},
			{
				"x": -0.5222891783,
				"y": -4.2842589975,
				"z": 0.2538855974,
				"element": "C" 
			},
			{
				"x": 0.3863210303,
				"y": -3.1183121073,
				"z": 0.2547706717,
				"element": "C" 
			},
			{
				"x": 1.118596794,
				"y": -2.1551436948,
				"z": 0.2183637527,
				"element": "C" 
			},
			{
				"x": 2.0373560128,
				"y": -1.0299232858,
				"z": 0.1841920942,
				"element": "C" 
			},
			{
				"x": 1.2897594594,
				"y": 0.1964203969,
				"z": 0.4316957029,
				"element": "O" 
			},
			{
				"x": 2.0223287372,
				"y": 1.3164463661,
				"z": 0.4516572336,
				"element": "C" 
			},
			{
				"x": 3.2324408902,
				"y": 1.3376782449,
				"z": 0.3161495402,
				"element": "O" 
			},
			{
				"x": 1.1963412814,
				"y": 2.6059506842,
				"z": 0.645536487,
				"element": "C" 
			},
			{
				"x": 2.1290205719,
				"y": 3.635502249,
				"z": 0.921104312,
				"element": "O" 
			},
			{
				"x": 0.2293829471,
				"y": 2.4814242903,
				"z": 1.8578108462,
				"element": "C" 
			},
			{
				"x": 0.9690473094,
				"y": 2.1404546164,
				"z": 3.163497021,
				"element": "C" 
			},
			{
				"x": -0.0281678586,
				"y": 1.8204222413,
				"z": 4.3019683462,
				"element": "C" 
			},
			{
				"x": -1.3354779616,
				"y": 2.6408467839,
				"z": 4.1886900356,
				"element": "C" 
			},
			{
				"x": -1.0743238251,
				"y": 3.9842648899,
				"z": 3.4973383711,
				"element": "C" 
			},
			{
				"x": -0.5981173272,
				"y": 3.7825267583,
				"z": 2.0397610799,
				"element": "C" 
			},
			{
				"x": 0.4411238198,
				"y": 2.890752666,
				"z": -0.6724763565,
				"element": "C" 
			},
			{
				"x": -0.5538907126,
				"y": 2.0261566242,
				"z": -1.1541845769,
				"element": "C" 
			},
			{
				"x": -1.2296612077,
				"y": 2.3152390464,
				"z": -2.3397684227,
				"element": "C" 
			},
			{
				"x": -0.9220026597,
				"y": 3.4687244956,
				"z": -3.0642905892,
				"element": "C" 
			},
			{
				"x": 0.0683436103,
				"y": 4.330042323,
				"z": -2.5925717324,
				"element": "C" 
			},
			{
				"x": 0.745803258,
				"y": 4.0426463501,
				"z": -1.405900824,
				"element": "C" 
			},
			{
				"x": -3.9736027939,
				"y": -2.6507000196,
				"z": -1.1355849735,
				"element": "H" 
			},
			{
				"x": -3.0664381472,
				"y": -2.9728451916,
				"z": 0.3382708881,
				"element": "H" 
			},
			{
				"x": -3.8190154954,
				"y": -4.3167937841,
				"z": -0.5404909249,
				"element": "H" 
			},
			{
				"x": -2.3538631426,
				"y": -3.8224748947,
				"z": -2.52678932,
				"element": "H" 
			},
			{
				"x": -1.5039665249,
				"y": -2.582670267,
				"z": -1.607620805,
				"element": "H" 
			},
			{
				"x": 0.5938651233,
				"y": -5.6261075784,
				"z": -1.5143265425,
				"element": "H" 
			},
			{
				"x": 0.3672609148,
				"y": -4.1696699875,
				"z": -2.4759168939,
				"element": "H" 
			},
			{
				"x": -1.2930149856,
				"y": -6.7564671882,
				"z": -2.7124082189,
				"element": "H" 
			},
			{
				"x": -1.4917675029,
				"y": -5.3413445889,
				"z": -3.7576651182,
				"element": "H" 
			},
			{
				"x": 0.0128349719,
				"y": -6.2571566936,
				"z": -3.8099340335,
				"element": "H" 
			},
			{
				"x": 0.035320796,
				"y": -5.1660861325,
				"z": 0.5925912458,
				"element": "H" 
			},
			{
				"x": -1.3055254694,
				"y": -4.1175867647,
				"z": 1.001398772,
				"element": "H" 
			},
			{
				"x": 2.5364752127,
				"y": -0.9414434805,
				"z": -0.786591364,
				"element": "H" 
			},
			{
				"x": 2.8189155543,
				"y": -1.1210119101,
				"z": 0.9457327712,
				"element": "H" 
			},
			{
				"x": 3.0021829224,
				"y": 3.2735427661,
				"z": 0.6905019418,
				"element": "H" 
			},
			{
				"x": -0.4534494123,
				"y": 1.6539772674,
				"z": 1.6329471879,
				"element": "H" 
			},
			{
				"x": 1.6015242596,
				"y": 2.9928736069,
				"z": 3.4321577371,
				"element": "H" 
			},
			{
				"x": 1.6468369321,
				"y": 1.2897657382,
				"z": 3.0242850875,
				"element": "H" 
			},
			{
				"x": 0.4564968485,
				"y": 2.0219442996,
				"z": 5.2647297022,
				"element": "H" 
			},
			{
				"x": -0.2668661769,
				"y": 0.7500649977,
				"z": 4.2971158698,
				"element": "H" 
			},
			{
				"x": -2.0795231476,
				"y": 2.0812063975,
				"z": 3.6063041747,
				"element": "H" 
			},
			{
				"x": -1.7759391732,
				"y": 2.7904901884,
				"z": 5.1809081194,
				"element": "H" 
			},
			{
				"x": -1.9738180752,
				"y": 4.6101407536,
				"z": 3.5094096684,
				"element": "H" 
			},
			{
				"x": -0.313220987,
				"y": 4.5341631229,
				"z": 4.0659958352,
				"element": "H" 
			},
			{
				"x": 0.0078350966,
				"y": 4.6410629887,
				"z": 1.7343480971,
				"element": "H" 
			},
			{
				"x": -1.4617477057,
				"y": 3.7518370742,
				"z": 1.3668658711,
				"element": "H" 
			},
			{
				"x": -0.7942163661,
				"y": 1.1177366391,
				"z": -0.6122209085,
				"element": "H" 
			},
			{
				"x": -1.9974956781,
				"y": 1.6351782192,
				"z": -2.6983744812,
				"element": "H" 
			},
			{
				"x": -1.4493560782,
				"y": 3.6919848641,
				"z": -3.9874417543,
				"element": "H" 
			},
			{
				"x": 0.3166136294,
				"y": 5.2309477316,
				"z": -3.1470281319,
				"element": "H" 
			},
			{
				"x": 1.5106200741,
				"y": 4.7111889276,
				"z": -1.02904542,
				"element": "H" 
			}
		],
		 "valence_orbital": [ 
			{
				"type": "occ",
				"energy": -0.27009,
				"method": "rhf"
			},
			{
				"type": "occ",
				"energy": -0.26635,
				"method": "rhf"
			},
			{
				"type": "occ",
				"energy": -0.2454,
				"method": "rhf"
			},
			{
				"type": "occ",
				"energy": -0.2392,
				"method": "rhf"
			},
			{
				"type": "occ",
				"energy": -0.22122,
				"method": "rhf"
			},
			{
				"type": "unocc",
				"energy": -0.0147,
				"method": "rhf"
			},
			{
				"type": "unocc",
				"energy": 0.00194,
				"method": "rhf"
			},
			{
				"type": "unocc",
				"energy": 0.01637,
				"method": "rhf"
			},
			{
				"type": "unocc",
				"energy": 0.0199,
				"method": "rhf"
			},
			{
				"type": "unocc",
				"energy": 0.03651,
				"method": "rhf"
			}
		],
		"cosmo_sigma_profile": { 
			"-0.025": 0.0,
			"-0.024": 0.0,
			"-0.023": 0.0,
			"-0.022": 0.0,
			"-0.021": 0.0,
			"-0.02": 0.0,
			"-0.019": 0.0,
			"-0.018": 0.0,
			"-0.017": 0.0,
			"-0.016": 0.0,
			"-0.015": 0.0,
			"-0.014": 0.0,
			"-0.013": 0.0,
			"-0.012": 0.0,
			"-0.011": 0.408218686688,
			"-0.01": 0.275175435754,
			"-0.009": 0.629185664127,
			"-0.008": 3.55927653243,
			"-0.007": 4.76141942275,
			"-0.006": 11.3737747217,
			"-0.005": 17.7368534314,
			"-0.004": 25.4632046767,
			"-0.003": 34.2230965568,
			"-0.002": 50.8054154581,
			"-0.001": 64.145924326,
			"0.0": 60.5744909431,
			"0.001": 54.3885681343,
			"0.002": 26.8976060026,
			"0.003": 20.2224150268,
			"0.004": 17.8929016669,
			"0.005": 18.0261285688,
			"0.006": 13.3554080469,
			"0.007": 4.16063737733,
			"0.008": 3.61054903991,
			"0.009": 3.18631097018,
			"0.01": 4.70429263919,
			"0.011": 2.73266164883,
			"0.012": 1.16776922438,
			"0.013": 0.400022342575,
			"0.014": 0.465349361005,
			"0.015": 0.212477284588,
			"0.016": 0.0624642251649,
			"0.017": 0.0,
			"0.018": 0.0,
			"0.019": 0.0,
			"0.02": 0.0,
			"0.021": 0.0,
			"0.022": 0.0,
			"0.023": 0.0,
			"0.024": 0.0,
			"0.025": 0.0
		}
	}
}
