{
	 "smiles": "COC1=CC=C(CO)C=C1O", 
	 "Tm": 409.15, 
	 "num_atms": 21, 
	 "gaussian": { 
		 "optdone": 1, 
		 "sigma_profile": "yes", 
		 "theory": "DFT", 
		 "functional": "B3LYP", 
		 "basiset": "6-31G**", 
		 "properties": { 
			 "R2extent": 2491.2494, 
			 "electric_dipole_moment_norm": 0.689576261192, 
			 "electric_quadrupole_moment_norm": 10.3003967511, 
			 "total_energy": -536.515625019, 
			 "HOMO_LUMO_gap": 0.21336, 
			 "cosmo_polarized_energy": -12.86, 
			 "cosmo_cavitation_energy": 24.63, 
			 "cosmo_dispersion_energy": -18.25, 
			 "cosmo_repulsion_energy": 1.49, 
			 "cosmo_total_nonelectrostatic_energy": 7.87, 
			 "SMD_solvation_energy": 5.44 
		},
		"coords": [
			{
				"x": 1.4015552374,
				"y": 0.714523561,
				"z": -1.7348205989,
				"element": "C" 
			},
			{
				"x": 0.4580158878,
				"y": 1.4661955596,
				"z": -0.9669458716,
				"element": "O" 
			},
			{
				"x": -0.3125938944,
				"y": 0.7499579096,
				"z": -0.0850909295,
				"element": "C" 
			},
			{
				"x": -1.6959252647,
				"y": 0.7372659632,
				"z": -0.2567187893,
				"element": "C" 
			},
			{
				"x": -2.5307647825,
				"y": 0.0880114427,
				"z": 0.6550228557,
				"element": "C" 
			},
			{
				"x": -1.9845628042,
				"y": -0.5843897969,
				"z": 1.7506242366,
				"element": "C" 
			},
			{
				"x": -2.8627449986,
				"y": -1.3391577824,
				"z": 2.7292278745,
				"element": "C" 
			},
			{
				"x": -2.3673726457,
				"y": -1.3327479314,
				"z": 4.0626534394,
				"element": "O" 
			},
			{
				"x": -0.5956950551,
				"y": -0.5723214995,
				"z": 1.9290795687,
				"element": "C" 
			},
			{
				"x": 0.2409079041,
				"y": 0.0927390606,
				"z": 1.0333040041,
				"element": "C" 
			},
			{
				"x": 1.5988458579,
				"y": 0.1480605267,
				"z": 1.1978458154,
				"element": "O" 
			},
			{
				"x": 1.8758175866,
				"y": 1.4277454901,
				"z": -2.4122424583,
				"element": "H" 
			},
			{
				"x": 0.8958597744,
				"y": -0.0609803408,
				"z": -2.3250946674,
				"element": "H" 
			},
			{
				"x": 2.162285657,
				"y": 0.2517009044,
				"z": -1.0998594292,
				"element": "H" 
			},
			{
				"x": -2.1019149544,
				"y": 1.2661355781,
				"z": -1.1133124349,
				"element": "H" 
			},
			{
				"x": -3.6073601689,
				"y": 0.1030442041,
				"z": 0.5069896499,
				"element": "H" 
			},
			{
				"x": -2.9142368474,
				"y": -2.3994131923,
				"z": 2.453048472,
				"element": "H" 
			},
			{
				"x": -3.8907156102,
				"y": -0.9476758921,
				"z": 2.6772608013,
				"element": "H" 
			},
			{
				"x": -2.2829098871,
				"y": -0.4081300803,
				"z": 4.3321410308,
				"element": "H" 
			},
			{
				"x": -0.1721593763,
				"y": -1.0771101791,
				"z": 2.7951121546,
				"element": "H" 
			},
			{
				"x": 1.8330683843,
				"y": -0.3426535053,
				"z": 1.9963752759,
				"element": "H" 
			}
		],
		 "valence_orbital": [ 
			{
				"type": "occ",
				"energy": -0.32195,
				"method": "rhf"
			},
			{
				"type": "occ",
				"energy": -0.27977,
				"method": "rhf"
			},
			{
				"type": "occ",
				"energy": -0.27106,
				"method": "rhf"
			},
			{
				"type": "occ",
				"energy": -0.23788,
				"method": "rhf"
			},
			{
				"type": "occ",
				"energy": -0.21423,
				"method": "rhf"
			},
			{
				"type": "unocc",
				"energy": -0.00087,
				"method": "rhf"
			},
			{
				"type": "unocc",
				"energy": 0.00986,
				"method": "rhf"
			},
			{
				"type": "unocc",
				"energy": 0.06594,
				"method": "rhf"
			},
			{
				"type": "unocc",
				"energy": 0.08646,
				"method": "rhf"
			},
			{
				"type": "unocc",
				"energy": 0.10361,
				"method": "rhf"
			}
		],
		"cosmo_sigma_profile": { 
			"-0.025": 0.0,
			"-0.024": 0.0,
			"-0.023": 0.0,
			"-0.022": 0.0,
			"-0.021": 0.0,
			"-0.02": 0.0,
			"-0.019": 0.0,
			"-0.018": 0.29383221824,
			"-0.017": 1.16013749146,
			"-0.016": 1.33525537078,
			"-0.015": 1.49039839238,
			"-0.014": 2.15583590006,
			"-0.013": 1.75232153671,
			"-0.012": 1.78949735871,
			"-0.011": 1.49425502185,
			"-0.01": 1.65728439287,
			"-0.009": 1.62408700909,
			"-0.008": 2.57729602525,
			"-0.007": 1.57019889937,
			"-0.006": 3.66126284134,
			"-0.005": 12.3362573239,
			"-0.004": 16.6989101797,
			"-0.003": 17.294695993,
			"-0.002": 17.0194604768,
			"-0.001": 11.6682323552,
			"0.0": 9.81259082133,
			"0.001": 9.6989474975,
			"0.002": 8.28283405943,
			"0.003": 12.0846861992,
			"0.004": 12.3887747764,
			"0.005": 11.3082784869,
			"0.006": 8.05195133919,
			"0.007": 3.78108325179,
			"0.008": 3.23405451267,
			"0.009": 3.45025935596,
			"0.01": 3.89859169796,
			"0.011": 4.10801214809,
			"0.012": 2.88838878351,
			"0.013": 1.53136804057,
			"0.014": 1.98866000883,
			"0.015": 0.127174662852,
			"0.016": 0.0,
			"0.017": 0.0,
			"0.018": 0.0,
			"0.019": 0.0,
			"0.02": 0.0,
			"0.021": 0.0,
			"0.022": 0.0,
			"0.023": 0.0,
			"0.024": 0.0,
			"0.025": 0.0
		}
	}
}
