{
	 "smiles": "NC1=NC(=NO1)C1=CC=C(C=C1)[N+]([O-])=O", 
	 "Tm": 568.15, 
	 "num_atms": 21, 
	 "gaussian": { 
		 "optdone": 1, 
		 "sigma_profile": "yes", 
		 "theory": "DFT", 
		 "functional": "B3LYP", 
		 "basiset": "6-31G**", 
		 "properties": { 
			 "R2extent": 4502.3905, 
			 "electric_dipole_moment_norm": 7.18505450084, 
			 "electric_quadrupole_moment_norm": 18.1550583907, 
			 "total_energy": -753.015919788, 
			 "HOMO_LUMO_gap": 0.15812, 
			 "cosmo_polarized_energy": -16.06, 
			 "cosmo_cavitation_energy": 27.53, 
			 "cosmo_dispersion_energy": -20.63, 
			 "cosmo_repulsion_energy": 1.6, 
			 "cosmo_total_nonelectrostatic_energy": 8.51, 
			 "SMD_solvation_energy": 5.6 
		},
		"coords": [
			{
				"x": -2.0874479534,
				"y": -4.4892191935,
				"z": -2.0325473963,
				"element": "N" 
			},
			{
				"x": -1.8548076743,
				"y": -3.1934552221,
				"z": -1.7183236505,
				"element": "C" 
			},
			{
				"x": -1.1397900338,
				"y": -2.7212206612,
				"z": -0.7300963621,
				"element": "N" 
			},
			{
				"x": -1.3164576915,
				"y": -1.3647788657,
				"z": -0.8862017739,
				"element": "C" 
			},
			{
				"x": -2.0786685434,
				"y": -1.0059592471,
				"z": -1.8954219221,
				"element": "N" 
			},
			{
				"x": -2.4499174421,
				"y": -2.2503664452,
				"z": -2.4681000792,
				"element": "O" 
			},
			{
				"x": -0.696874876,
				"y": -0.3756462896,
				"z": 0.0085188923,
				"element": "C" 
			},
			{
				"x": 0.1038718204,
				"y": -0.8145686277,
				"z": 1.0734869978,
				"element": "C" 
			},
			{
				"x": 0.6984691781,
				"y": 0.1062044355,
				"z": 1.9300952732,
				"element": "C" 
			},
			{
				"x": 0.481722806,
				"y": 1.4643698464,
				"z": 1.7074610841,
				"element": "C" 
			},
			{
				"x": -0.3104656697,
				"y": 1.9267776748,
				"z": 0.6559981714,
				"element": "C" 
			},
			{
				"x": -0.8999280304,
				"y": 1.0000245658,
				"z": -0.194253916,
				"element": "C" 
			},
			{
				"x": 1.1085539878,
				"y": 2.4429680484,
				"z": 2.6103058822,
				"element": "N" 
			},
			{
				"x": 0.9006837466,
				"y": 3.6360379479,
				"z": 2.3914427134,
				"element": "O" 
			},
			{
				"x": 1.8027686651,
				"y": 2.0089868317,
				"z": 3.5292343519,
				"element": "O" 
			},
			{
				"x": -1.4764599706,
				"y": -5.1688109903,
				"z": -1.6073547015,
				"element": "H" 
			},
			{
				"x": -2.4411060669,
				"y": -4.695854896,
				"z": -2.9537692946,
				"element": "H" 
			},
			{
				"x": 0.2508981103,
				"y": -1.8786999204,
				"z": 1.2178056296,
				"element": "H" 
			},
			{
				"x": 1.3207565488,
				"y": -0.205150501,
				"z": 2.7594533936,
				"element": "H" 
			},
			{
				"x": -0.4501085051,
				"y": 2.992021954,
				"z": 0.5230406036,
				"element": "H" 
			},
			{
				"x": -1.5204924059,
				"y": 1.3314395552,
				"z": -1.0193738968,
				"element": "H" 
			}
		],
		 "valence_orbital": [ 
			{
				"type": "occ",
				"energy": -0.30466,
				"method": "rhf"
			},
			{
				"type": "occ",
				"energy": -0.28975,
				"method": "rhf"
			},
			{
				"type": "occ",
				"energy": -0.28182,
				"method": "rhf"
			},
			{
				"type": "occ",
				"energy": -0.27818,
				"method": "rhf"
			},
			{
				"type": "occ",
				"energy": -0.25291,
				"method": "rhf"
			},
			{
				"type": "unocc",
				"energy": -0.09479,
				"method": "rhf"
			},
			{
				"type": "unocc",
				"energy": -0.03354,
				"method": "rhf"
			},
			{
				"type": "unocc",
				"energy": -0.02595,
				"method": "rhf"
			},
			{
				"type": "unocc",
				"energy": 0.01487,
				"method": "rhf"
			},
			{
				"type": "unocc",
				"energy": 0.04309,
				"method": "rhf"
			}
		],
		"cosmo_sigma_profile": { 
			"-0.025": 0.0,
			"-0.024": 0.0,
			"-0.023": 0.0,
			"-0.022": 0.0,
			"-0.021": 0.0,
			"-0.02": 0.0,
			"-0.019": 0.0,
			"-0.018": 0.0,
			"-0.017": 0.00241999728594,
			"-0.016": 1.56304657052,
			"-0.015": 2.77335900325,
			"-0.014": 2.62063801826,
			"-0.013": 2.1724858278,
			"-0.012": 2.41390412,
			"-0.011": 2.61089648615,
			"-0.01": 1.08445272033,
			"-0.009": 2.07215234087,
			"-0.008": 4.20893725574,
			"-0.007": 7.79709979334,
			"-0.006": 9.72297806009,
			"-0.005": 7.27458318809,
			"-0.004": 9.4631994094,
			"-0.003": 11.6635683778,
			"-0.002": 14.0434969984,
			"-0.001": 17.7959515845,
			"0.0": 23.2850250603,
			"0.001": 19.9468026373,
			"0.002": 8.72744145311,
			"0.003": 6.78146130452,
			"0.004": 6.75523323125,
			"0.005": 7.32616371848,
			"0.006": 9.51607429225,
			"0.007": 14.6782943063,
			"0.008": 10.0791836336,
			"0.009": 6.87032803313,
			"0.01": 3.72780951377,
			"0.011": 2.84982161861,
			"0.012": 1.96416502089,
			"0.013": 0.150533089721,
			"0.014": 0.0,
			"0.015": 0.0,
			"0.016": 0.0,
			"0.017": 0.0,
			"0.018": 0.0,
			"0.019": 0.0,
			"0.02": 0.0,
			"0.021": 0.0,
			"0.022": 0.0,
			"0.023": 0.0,
			"0.024": 0.0,
			"0.025": 0.0
		}
	}
}
