{
	 "smiles": "OCC1OC(SCCC2=CC=CC=C2)C(O)C(O)C1O", 
	 "Tm": 373.15, 
	 "num_atms": 40, 
	 "gaussian": { 
		 "optdone": 1, 
		 "sigma_profile": "yes", 
		 "theory": "DFT", 
		 "functional": "B3LYP", 
		 "basiset": "6-31G**", 
		 "properties": { 
			 "R2extent": 6054.5447, 
			 "electric_dipole_moment_norm": 4.78487582806, 
			 "electric_quadrupole_moment_norm": 10.5634931277, 
			 "total_energy": -1319.80437834, 
			 "HOMO_LUMO_gap": 0.20362, 
			 "cosmo_polarized_energy": -22.6, 
			 "cosmo_cavitation_energy": 41.4, 
			 "cosmo_dispersion_energy": -27.84, 
			 "cosmo_repulsion_energy": 2.11, 
			 "cosmo_total_nonelectrostatic_energy": 15.68, 
			 "SMD_solvation_energy": 5.35 
		},
		"coords": [
			{
				"x": 3.5313351162,
				"y": 2.7501878756,
				"z": -2.2345720814,
				"element": "O" 
			},
			{
				"x": 3.025343636,
				"y": 2.744104805,
				"z": -0.9080148123,
				"element": "C" 
			},
			{
				"x": 2.0280675008,
				"y": 1.6021957519,
				"z": -0.6752695602,
				"element": "C" 
			},
			{
				"x": 1.4724192882,
				"y": 1.8310656266,
				"z": 0.6188320735,
				"element": "O" 
			},
			{
				"x": 0.904689571,
				"y": 0.648194952,
				"z": 1.1866183696,
				"element": "C" 
			},
			{
				"x": -0.1844393045,
				"y": 1.1198282622,
				"z": 2.5757148516,
				"element": "S" 
			},
			{
				"x": -1.3535246582,
				"y": 2.2626561144,
				"z": 1.7347628683,
				"element": "C" 
			},
			{
				"x": -2.5312638424,
				"y": 1.6228619915,
				"z": 0.9696004581,
				"element": "C" 
			},
			{
				"x": -2.1721719464,
				"y": 0.9918011922,
				"z": -0.3604370805,
				"element": "C" 
			},
			{
				"x": -1.8903762436,
				"y": 1.7969001186,
				"z": -1.4754144604,
				"element": "C" 
			},
			{
				"x": -1.5470345274,
				"y": 1.2304826401,
				"z": -2.703846867,
				"element": "C" 
			},
			{
				"x": -1.4789095806,
				"y": -0.1599696815,
				"z": -2.840468976,
				"element": "C" 
			},
			{
				"x": -1.7607786593,
				"y": -0.9723006455,
				"z": -1.7401195428,
				"element": "C" 
			},
			{
				"x": -2.1082102174,
				"y": -0.3995628051,
				"z": -0.5141334637,
				"element": "C" 
			},
			{
				"x": 2.0472865728,
				"y": -0.2552629917,
				"z": 1.6627703101,
				"element": "C" 
			},
			{
				"x": 1.536633022,
				"y": -1.5380572874,
				"z": 1.9375699213,
				"element": "O" 
			},
			{
				"x": 3.1715384665,
				"y": -0.3049784541,
				"z": 0.5531504151,
				"element": "C" 
			},
			{
				"x": 3.6619979438,
				"y": -1.6336400129,
				"z": 0.4151405013,
				"element": "O" 
			},
			{
				"x": 2.6919912291,
				"y": 0.2169510168,
				"z": -0.8077389747,
				"element": "C" 
			},
			{
				"x": 1.801275191,
				"y": -0.7972195229,
				"z": -1.2872553766,
				"element": "O" 
			},
			{
				"x": 2.8266087272,
				"y": 3.051709141,
				"z": -2.8221525864,
				"element": "H" 
			},
			{
				"x": 2.5395961263,
				"y": 3.691777651,
				"z": -0.6391001309,
				"element": "H" 
			},
			{
				"x": 3.8895236805,
				"y": 2.6223337458,
				"z": -0.247613784,
				"element": "H" 
			},
			{
				"x": 1.2289768105,
				"y": 1.6705552146,
				"z": -1.4365702737,
				"element": "H" 
			},
			{
				"x": 0.324022115,
				"y": 0.1072782296,
				"z": 0.4367185684,
				"element": "H" 
			},
			{
				"x": -0.7636211129,
				"y": 2.9156452356,
				"z": 1.0863268464,
				"element": "H" 
			},
			{
				"x": -1.7472620907,
				"y": 2.877604596,
				"z": 2.5498319455,
				"element": "H" 
			},
			{
				"x": -3.0160005594,
				"y": 0.8829929866,
				"z": 1.6143825038,
				"element": "H" 
			},
			{
				"x": -3.2678431478,
				"y": 2.418989619,
				"z": 0.7923261525,
				"element": "H" 
			},
			{
				"x": -1.9520462168,
				"y": 2.8788652893,
				"z": -1.3814616166,
				"element": "H" 
			},
			{
				"x": -1.3507134327,
				"y": 1.8721709823,
				"z": -3.5589776196,
				"element": "H" 
			},
			{
				"x": -1.2310035648,
				"y": -0.6043886937,
				"z": -3.8008319479,
				"element": "H" 
			},
			{
				"x": -1.7157722133,
				"y": -2.0533995653,
				"z": -1.8346603681,
				"element": "H" 
			},
			{
				"x": -2.32207159,
				"y": -1.0390594583,
				"z": 0.3377812186,
				"element": "H" 
			},
			{
				"x": 2.4922080835,
				"y": 0.1921200582,
				"z": 2.5664887389,
				"element": "H" 
			},
			{
				"x": 2.2838328267,
				"y": -2.1408582139,
				"z": 1.7904392116,
				"element": "H" 
			},
			{
				"x": 4.0139191767,
				"y": 0.3095344739,
				"z": 0.8842280998,
				"element": "H" 
			},
			{
				"x": 3.0951346948,
				"y": -2.0408618768,
				"z": -0.2610171936,
				"element": "H" 
			},
			{
				"x": 3.5470404025,
				"y": 0.3090743579,
				"z": -1.4914018098,
				"element": "H" 
			},
			{
				"x": 1.3747027273,
				"y": -0.5009227186,
				"z": -2.1016245281,
				"element": "H" 
			}
		],
		 "valence_orbital": [ 
			{
				"type": "occ",
				"energy": -0.26348,
				"method": "rhf"
			},
			{
				"type": "occ",
				"energy": -0.25856,
				"method": "rhf"
			},
			{
				"type": "occ",
				"energy": -0.25322,
				"method": "rhf"
			},
			{
				"type": "occ",
				"energy": -0.24817,
				"method": "rhf"
			},
			{
				"type": "occ",
				"energy": -0.2172,
				"method": "rhf"
			},
			{
				"type": "unocc",
				"energy": -0.01358,
				"method": "rhf"
			},
			{
				"type": "unocc",
				"energy": -0.01126,
				"method": "rhf"
			},
			{
				"type": "unocc",
				"energy": 0.04091,
				"method": "rhf"
			},
			{
				"type": "unocc",
				"energy": 0.05653,
				"method": "rhf"
			},
			{
				"type": "unocc",
				"energy": 0.0648,
				"method": "rhf"
			}
		],
		"cosmo_sigma_profile": { 
			"-0.025": 0.0,
			"-0.024": 0.0,
			"-0.023": 0.0,
			"-0.022": 0.0,
			"-0.021": 0.0,
			"-0.02": 0.0,
			"-0.019": 0.0,
			"-0.018": 0.0,
			"-0.017": 0.0,
			"-0.016": 0.567573559626,
			"-0.015": 1.31806922348,
			"-0.014": 1.26188480319,
			"-0.013": 1.46770926302,
			"-0.012": 2.22818322867,
			"-0.011": 2.8628342653,
			"-0.01": 3.08334334216,
			"-0.009": 4.53969857104,
			"-0.008": 3.58716929841,
			"-0.007": 5.31300117156,
			"-0.006": 12.5124577828,
			"-0.005": 24.4088136561,
			"-0.004": 33.4986950313,
			"-0.003": 31.9306538572,
			"-0.002": 25.0162833098,
			"-0.001": 21.7949093302,
			"0.0": 18.1710151815,
			"0.001": 15.4612803966,
			"0.002": 14.9571928803,
			"0.003": 14.1664863556,
			"0.004": 12.01645608,
			"0.005": 13.8077337866,
			"0.006": 13.2661218421,
			"0.007": 6.91858833204,
			"0.008": 6.75615597581,
			"0.009": 7.41471870659,
			"0.01": 8.51233767195,
			"0.011": 5.2820871005,
			"0.012": 4.88605720292,
			"0.013": 4.98953106074,
			"0.014": 2.87258971144,
			"0.015": 0.0920858325601,
			"0.016": 0.0,
			"0.017": 0.0,
			"0.018": 0.0,
			"0.019": 0.0,
			"0.02": 0.0,
			"0.021": 0.0,
			"0.022": 0.0,
			"0.023": 0.0,
			"0.024": 0.0,
			"0.025": 0.0
		}
	}
}
