{
	 "smiles": "CC(C)(C)[N+]([O-])=O", 
	 "Tm": 299.35, 
	 "num_atms": 16, 
	 "gaussian": { 
		 "optdone": 1, 
		 "sigma_profile": "yes", 
		 "theory": "DFT", 
		 "functional": "B3LYP", 
		 "basiset": "6-31G**", 
		 "properties": { 
			 "R2extent": 808.9325, 
			 "electric_dipole_moment_norm": 3.67065830881, 
			 "electric_quadrupole_moment_norm": 4.16794921274, 
			 "total_energy": -362.967465092, 
			 "HOMO_LUMO_gap": 0.22656, 
			 "cosmo_polarized_energy": -7.09, 
			 "cosmo_cavitation_energy": 18.93, 
			 "cosmo_dispersion_energy": -13.49, 
			 "cosmo_repulsion_energy": 1.14, 
			 "cosmo_total_nonelectrostatic_energy": 6.58, 
			 "SMD_solvation_energy": 5.6 
		},
		"coords": [
			{
				"x": -0.3267928973,
				"y": -2.3640790614,
				"z": -0.1368884787,
				"element": "C" 
			},
			{
				"x": -0.5310996557,
				"y": -0.8604702109,
				"z": -0.3674859153,
				"element": "C" 
			},
			{
				"x": -0.949094668,
				"y": -0.5536913249,
				"z": -1.8033502229,
				"element": "C" 
			},
			{
				"x": -1.5071608373,
				"y": -0.2634791378,
				"z": 0.6555528315,
				"element": "C" 
			},
			{
				"x": 0.8399039557,
				"y": -0.1940993009,
				"z": -0.090085724,
				"element": "N" 
			},
			{
				"x": 1.3738160377,
				"y": 0.4461469022,
				"z": -0.9894278192,
				"element": "O" 
			},
			{
				"x": 1.3112632385,
				"y": -0.3538612,
				"z": 1.0330695618,
				"element": "O" 
			},
			{
				"x": -1.2795172291,
				"y": -2.8817960534,
				"z": -0.2810611525,
				"element": "H" 
			},
			{
				"x": 0.395722517,
				"y": -2.7760806826,
				"z": -0.8480533986,
				"element": "H" 
			},
			{
				"x": 0.0293664731,
				"y": -2.554393394,
				"z": 0.877003276,
				"element": "H" 
			},
			{
				"x": -1.9174692257,
				"y": -1.026795618,
				"z": -1.9931958428,
				"element": "H" 
			},
			{
				"x": -1.0485222551,
				"y": 0.5208700719,
				"z": -1.9695402237,
				"element": "H" 
			},
			{
				"x": -0.2250699811,
				"y": -0.9430808355,
				"z": -2.5219569181,
				"element": "H" 
			},
			{
				"x": -2.4881098832,
				"y": -0.7310233687,
				"z": 0.530539474,
				"element": "H" 
			},
			{
				"x": -1.6221318239,
				"y": 0.8145135813,
				"z": 0.50640429,
				"element": "H" 
			},
			{
				"x": -1.1570037655,
				"y": -0.4427803672,
				"z": 1.6735762624,
				"element": "H" 
			}
		],
		 "valence_orbital": [ 
			{
				"type": "occ",
				"energy": -0.35944,
				"method": "rhf"
			},
			{
				"type": "occ",
				"energy": -0.35933,
				"method": "rhf"
			},
			{
				"type": "occ",
				"energy": -0.30633,
				"method": "rhf"
			},
			{
				"type": "occ",
				"energy": -0.29241,
				"method": "rhf"
			},
			{
				"type": "occ",
				"energy": -0.28642,
				"method": "rhf"
			},
			{
				"type": "unocc",
				"energy": -0.05986,
				"method": "rhf"
			},
			{
				"type": "unocc",
				"energy": 0.0733,
				"method": "rhf"
			},
			{
				"type": "unocc",
				"energy": 0.08857,
				"method": "rhf"
			},
			{
				"type": "unocc",
				"energy": 0.13576,
				"method": "rhf"
			},
			{
				"type": "unocc",
				"energy": 0.13657,
				"method": "rhf"
			}
		],
		"cosmo_sigma_profile": { 
			"-0.025": 0.0,
			"-0.024": 0.0,
			"-0.023": 0.0,
			"-0.022": 0.0,
			"-0.021": 0.0,
			"-0.02": 0.0,
			"-0.019": 0.0,
			"-0.018": 0.0,
			"-0.017": 0.0,
			"-0.016": 0.0,
			"-0.015": 0.0,
			"-0.014": 0.0,
			"-0.013": 0.0,
			"-0.012": 0.0,
			"-0.011": 0.0,
			"-0.01": 0.0,
			"-0.009": 0.0,
			"-0.008": 0.0,
			"-0.007": 0.405874921145,
			"-0.006": 5.23069152008,
			"-0.005": 14.4588373468,
			"-0.004": 16.2158294613,
			"-0.003": 15.7540824536,
			"-0.002": 16.4330926203,
			"-0.001": 22.0405684646,
			"0.0": 12.7276770489,
			"0.001": 3.67130386376,
			"0.002": 2.61740305279,
			"0.003": 2.62823319689,
			"0.004": 3.43720734921,
			"0.005": 3.66858540819,
			"0.006": 2.40525423778,
			"0.007": 5.91261525173,
			"0.008": 10.7110300453,
			"0.009": 5.18401371292,
			"0.01": 3.1981198615,
			"0.011": 0.473766800277,
			"0.012": 0.0,
			"0.013": 0.0,
			"0.014": 0.0,
			"0.015": 0.0,
			"0.016": 0.0,
			"0.017": 0.0,
			"0.018": 0.0,
			"0.019": 0.0,
			"0.02": 0.0,
			"0.021": 0.0,
			"0.022": 0.0,
			"0.023": 0.0,
			"0.024": 0.0,
			"0.025": 0.0
		}
	}
}
