{
	 "smiles": "COC1=CC(=CC=C1)N1C(=O)NC(=O)C1=O", 
	 "Tm": 470.15, 
	 "num_atms": 24, 
	 "gaussian": { 
		 "optdone": 1, 
		 "sigma_profile": "yes", 
		 "theory": "DFT", 
		 "functional": "B3LYP", 
		 "basiset": "6-31G**", 
		 "properties": { 
			 "R2extent": 4195.6376, 
			 "electric_dipole_moment_norm": 3.24930844642, 
			 "electric_quadrupole_moment_norm": 18.2977057136, 
			 "total_energy": -796.30229, 
			 "HOMO_LUMO_gap": 0.13692, 
			 "cosmo_polarized_energy": -17.0, 
			 "cosmo_cavitation_energy": 29.73, 
			 "cosmo_dispersion_energy": -21.52, 
			 "cosmo_repulsion_energy": 1.67, 
			 "cosmo_total_nonelectrostatic_energy": 9.88, 
			 "SMD_solvation_energy": 8.45 
		},
		"coords": [
			{
				"x": -3.2992890504,
				"y": -0.2358242603,
				"z": -3.1292524634,
				"element": "C" 
			},
			{
				"x": -3.4594197017,
				"y": 0.453976759,
				"z": -1.8977307501,
				"element": "O" 
			},
			{
				"x": -2.4631181069,
				"y": 0.3696019327,
				"z": -0.9730932622,
				"element": "C" 
			},
			{
				"x": -1.2703094124,
				"y": -0.332381769,
				"z": -1.1695264503,
				"element": "C" 
			},
			{
				"x": -0.3226966773,
				"y": -0.3635180238,
				"z": -0.1381069137,
				"element": "C" 
			},
			{
				"x": -0.5372819506,
				"y": 0.3021819381,
				"z": 1.0682402559,
				"element": "C" 
			},
			{
				"x": -1.7287803877,
				"y": 1.0137632378,
				"z": 1.2347302231,
				"element": "C" 
			},
			{
				"x": -2.689460074,
				"y": 1.0503480189,
				"z": 0.2329324485,
				"element": "C" 
			},
			{
				"x": 0.9022153376,
				"y": -1.0840036123,
				"z": -0.336788226,
				"element": "N" 
			},
			{
				"x": 0.9864776809,
				"y": -2.3288007322,
				"z": -1.0017333766,
				"element": "C" 
			},
			{
				"x": 0.0860622058,
				"y": -2.9633836062,
				"z": -1.4959243334,
				"element": "O" 
			},
			{
				"x": 2.3355046501,
				"y": -2.6969537186,
				"z": -0.9879207454,
				"element": "N" 
			},
			{
				"x": 3.145161784,
				"y": -1.774501826,
				"z": -0.3491613702,
				"element": "C" 
			},
			{
				"x": 4.3376889492,
				"y": -1.8143876514,
				"z": -0.1796270046,
				"element": "O" 
			},
			{
				"x": 2.165680017,
				"y": -0.6656640976,
				"z": 0.103023555,
				"element": "C" 
			},
			{
				"x": 2.4523017029,
				"y": 0.3365272604,
				"z": 0.7087751664,
				"element": "O" 
			},
			{
				"x": -3.1768233212,
				"y": -1.315052783,
				"z": -2.9746270502,
				"element": "H" 
			},
			{
				"x": -4.2134672562,
				"y": -0.0535900333,
				"z": -3.6957859774,
				"element": "H" 
			},
			{
				"x": -2.4415465501,
				"y": 0.1461051705,
				"z": -3.6977250865,
				"element": "H" 
			},
			{
				"x": -1.0780881281,
				"y": -0.867405473,
				"z": -2.0875609393,
				"element": "H" 
			},
			{
				"x": 0.2101751269,
				"y": 0.2809261595,
				"z": 1.8498901074,
				"element": "H" 
			},
			{
				"x": -1.9062141951,
				"y": 1.5418552105,
				"z": 2.166512217,
				"element": "H" 
			},
			{
				"x": -3.62041422,
				"y": 1.5931686297,
				"z": 0.355893527,
				"element": "H" 
			},
			{
				"x": 2.6519415771,
				"y": -3.5613867303,
				"z": -1.4055335512,
				"element": "H" 
			}
		],
		 "valence_orbital": [ 
			{
				"type": "occ",
				"energy": -0.30982,
				"method": "rhf"
			},
			{
				"type": "occ",
				"energy": -0.305,
				"method": "rhf"
			},
			{
				"type": "occ",
				"energy": -0.28073,
				"method": "rhf"
			},
			{
				"type": "occ",
				"energy": -0.255,
				"method": "rhf"
			},
			{
				"type": "occ",
				"energy": -0.22912,
				"method": "rhf"
			},
			{
				"type": "unocc",
				"energy": -0.0922,
				"method": "rhf"
			},
			{
				"type": "unocc",
				"energy": -0.02305,
				"method": "rhf"
			},
			{
				"type": "unocc",
				"energy": -0.0001,
				"method": "rhf"
			},
			{
				"type": "unocc",
				"energy": 0.03539,
				"method": "rhf"
			},
			{
				"type": "unocc",
				"energy": 0.06589,
				"method": "rhf"
			}
		],
		"cosmo_sigma_profile": { 
			"-0.025": 0.0,
			"-0.024": 0.0,
			"-0.023": 0.0,
			"-0.022": 0.0,
			"-0.021": 0.0,
			"-0.02": 0.0,
			"-0.019": 0.0328410708425,
			"-0.018": 1.43996383956,
			"-0.017": 1.01694482657,
			"-0.016": 1.2417688003,
			"-0.015": 1.50174035933,
			"-0.014": 0.39976595194,
			"-0.013": 0.797674507321,
			"-0.012": 0.920231248777,
			"-0.011": 1.80070277242,
			"-0.01": 2.69972485843,
			"-0.009": 3.22644080646,
			"-0.008": 3.01743702726,
			"-0.007": 5.64300982787,
			"-0.006": 17.4436369399,
			"-0.005": 20.8753103172,
			"-0.004": 20.7373269539,
			"-0.003": 16.0057853222,
			"-0.002": 10.0618086478,
			"-0.001": 9.65597969781,
			"0.0": 9.42867062733,
			"0.001": 8.6845474469,
			"0.002": 12.577047651,
			"0.003": 15.6396331948,
			"0.004": 15.5787734869,
			"0.005": 7.08029566047,
			"0.006": 6.46364810712,
			"0.007": 6.4858072489,
			"0.008": 8.43521961527,
			"0.009": 12.1727155914,
			"0.01": 15.0464388639,
			"0.011": 2.80014501911,
			"0.012": 0.0,
			"0.013": 0.0,
			"0.014": 0.0,
			"0.015": 0.0,
			"0.016": 0.0,
			"0.017": 0.0,
			"0.018": 0.0,
			"0.019": 0.0,
			"0.02": 0.0,
			"0.021": 0.0,
			"0.022": 0.0,
			"0.023": 0.0,
			"0.024": 0.0,
			"0.025": 0.0
		}
	}
}
