{
	 "smiles": "COC(=O)CN1C=NC2=C(C=CC(F)=C2)C1=O", 
	 "Tm": 418.15, 
	 "num_atms": 26, 
	 "gaussian": { 
		 "optdone": 1, 
		 "sigma_profile": "yes", 
		 "theory": "DFT", 
		 "functional": "B3LYP", 
		 "basiset": "6-31G**", 
		 "properties": { 
			 "R2extent": 4721.4479, 
			 "electric_dipole_moment_norm": 1.7036075399, 
			 "electric_quadrupole_moment_norm": 16.624586689, 
			 "total_energy": -859.631198987, 
			 "HOMO_LUMO_gap": 0.19272, 
			 "cosmo_polarized_energy": -15.43, 
			 "cosmo_cavitation_energy": 31.86, 
			 "cosmo_dispersion_energy": -22.49, 
			 "cosmo_repulsion_energy": 1.71, 
			 "cosmo_total_nonelectrostatic_energy": 11.08, 
			 "SMD_solvation_energy": 6.74 
		},
		"coords": [
			{
				"x": 3.6683819176,
				"y": -0.559047932,
				"z": 1.8607222962,
				"element": "C" 
			},
			{
				"x": 2.248270999,
				"y": -0.3582958914,
				"z": 1.7256892428,
				"element": "O" 
			},
			{
				"x": 1.5089749297,
				"y": -0.7974068996,
				"z": 2.7558159666,
				"element": "C" 
			},
			{
				"x": 1.9508714182,
				"y": -1.2895745418,
				"z": 3.768004693,
				"element": "O" 
			},
			{
				"x": 0.0132246057,
				"y": -0.5626499695,
				"z": 2.5466358372,
				"element": "C" 
			},
			{
				"x": -0.3817844321,
				"y": -0.2543469893,
				"z": 1.1797186955,
				"element": "N" 
			},
			{
				"x": -0.634915692,
				"y": 1.0387145157,
				"z": 0.7840457693,
				"element": "C" 
			},
			{
				"x": -0.9607027802,
				"y": 1.4187904873,
				"z": -0.4044045829,
				"element": "N" 
			},
			{
				"x": -1.0523375376,
				"y": 0.4299400896,
				"z": -1.3750916864,
				"element": "C" 
			},
			{
				"x": -0.7955531922,
				"y": -0.933443657,
				"z": -1.0892901077,
				"element": "C" 
			},
			{
				"x": -0.8967773488,
				"y": -1.9020502429,
				"z": -2.1022382695,
				"element": "C" 
			},
			{
				"x": -1.2516260727,
				"y": -1.5334109431,
				"z": -3.3887151977,
				"element": "C" 
			},
			{
				"x": -1.5017685897,
				"y": -0.1792911162,
				"z": -3.6516231544,
				"element": "C" 
			},
			{
				"x": -1.844963713,
				"y": 0.1719677357,
				"z": -4.9045873716,
				"element": "F" 
			},
			{
				"x": -1.4106017985,
				"y": 0.8023381911,
				"z": -2.6834508001,
				"element": "C" 
			},
			{
				"x": -0.4141539933,
				"y": -1.3309064806,
				"z": 0.2655427059,
				"element": "C" 
			},
			{
				"x": -0.1418501884,
				"y": -2.4652733544,
				"z": 0.6393402038,
				"element": "O" 
			},
			{
				"x": 4.0457904664,
				"y": -0.0336289726,
				"z": 2.7410712729,
				"element": "H" 
			},
			{
				"x": 4.1087167601,
				"y": -0.1540587086,
				"z": 0.9503884295,
				"element": "H" 
			},
			{
				"x": 3.8916864267,
				"y": -1.623764328,
				"z": 1.9574901271,
				"element": "H" 
			},
			{
				"x": -0.293448692,
				"y": 0.2590909177,
				"z": 3.2001556269,
				"element": "H" 
			},
			{
				"x": -0.4954281191,
				"y": -1.4705305909,
				"z": 2.8732191049,
				"element": "H" 
			},
			{
				"x": -0.5511513971,
				"y": 1.783067737,
				"z": 1.5741189532,
				"element": "H" 
			},
			{
				"x": -0.6912427119,
				"y": -2.9363230344,
				"z": -1.8482746996,
				"element": "H" 
			},
			{
				"x": -1.3400347555,
				"y": -2.2566499015,
				"z": -4.191569705,
				"element": "H" 
			},
			{
				"x": -1.6089765092,
				"y": 1.8415438798,
				"z": -2.9164133499,
				"element": "H" 
			}
		],
		 "valence_orbital": [ 
			{
				"type": "occ",
				"energy": -0.28719,
				"method": "rhf"
			},
			{
				"type": "occ",
				"energy": -0.28072,
				"method": "rhf"
			},
			{
				"type": "occ",
				"energy": -0.27331,
				"method": "rhf"
			},
			{
				"type": "occ",
				"energy": -0.26079,
				"method": "rhf"
			},
			{
				"type": "occ",
				"energy": -0.24054,
				"method": "rhf"
			},
			{
				"type": "unocc",
				"energy": -0.04782,
				"method": "rhf"
			},
			{
				"type": "unocc",
				"energy": -0.0462,
				"method": "rhf"
			},
			{
				"type": "unocc",
				"energy": -0.00107,
				"method": "rhf"
			},
			{
				"type": "unocc",
				"energy": 0.01791,
				"method": "rhf"
			},
			{
				"type": "unocc",
				"energy": 0.06756,
				"method": "rhf"
			}
		],
		"cosmo_sigma_profile": { 
			"-0.025": 0.0,
			"-0.024": 0.0,
			"-0.023": 0.0,
			"-0.022": 0.0,
			"-0.021": 0.0,
			"-0.02": 0.0,
			"-0.019": 0.0,
			"-0.018": 0.0,
			"-0.017": 0.0,
			"-0.016": 0.0,
			"-0.015": 0.0,
			"-0.014": 0.0,
			"-0.013": 0.234154948645,
			"-0.012": 1.77498426971,
			"-0.011": 2.65638120165,
			"-0.01": 3.83831114424,
			"-0.009": 3.11333339744,
			"-0.008": 5.68773067734,
			"-0.007": 9.92544842561,
			"-0.006": 15.0029505527,
			"-0.005": 16.979211005,
			"-0.004": 19.0300052645,
			"-0.003": 15.3780954245,
			"-0.002": 11.599212386,
			"-0.001": 14.9417423894,
			"0.0": 22.0281143865,
			"0.001": 22.3984979102,
			"0.002": 16.264802889,
			"0.003": 15.7363130965,
			"0.004": 14.1861326071,
			"0.005": 5.89513146624,
			"0.006": 4.68136973639,
			"0.007": 3.99950586388,
			"0.008": 2.96194754579,
			"0.009": 4.38214055083,
			"0.01": 5.0791699635,
			"0.011": 7.08929490796,
			"0.012": 7.72070763408,
			"0.013": 2.00444052133,
			"0.014": 0.623535829025,
			"0.015": 0.413221455821,
			"0.016": 0.0,
			"0.017": 0.0,
			"0.018": 0.0,
			"0.019": 0.0,
			"0.02": 0.0,
			"0.021": 0.0,
			"0.022": 0.0,
			"0.023": 0.0,
			"0.024": 0.0,
			"0.025": 0.0
		}
	}
}
