{
	 "smiles": "OCC1CNC2=C(C1)C=CC=C2", 
	 "Tm": 353.15, 
	 "num_atms": 25, 
	 "gaussian": { 
		 "optdone": 1, 
		 "sigma_profile": "yes", 
		 "theory": "DFT", 
		 "functional": "B3LYP", 
		 "basiset": "6-31G**", 
		 "properties": { 
			 "R2extent": 2547.6622, 
			 "electric_dipole_moment_norm": 2.76614822632, 
			 "electric_quadrupole_moment_norm": 11.5054143398, 
			 "total_energy": -518.872245841, 
			 "HOMO_LUMO_gap": 0.19554, 
			 "cosmo_polarized_energy": -10.51, 
			 "cosmo_cavitation_energy": 26.49, 
			 "cosmo_dispersion_energy": -20.01, 
			 "cosmo_repulsion_energy": 1.6, 
			 "cosmo_total_nonelectrostatic_energy": 8.08, 
			 "SMD_solvation_energy": 3.08 
		},
		"coords": [
			{
				"x": 3.1769645087,
				"y": 1.4015795714,
				"z": 1.3050724366,
				"element": "O" 
			},
			{
				"x": 3.0150686513,
				"y": 0.4685918306,
				"z": 0.2408023521,
				"element": "C" 
			},
			{
				"x": 1.523420315,
				"y": 0.243202655,
				"z": 0.0009469793,
				"element": "C" 
			},
			{
				"x": 0.8213060231,
				"y": -0.3177636155,
				"z": 1.2451092828,
				"element": "C" 
			},
			{
				"x": -0.5678524094,
				"y": -0.6170864403,
				"z": 0.9190292512,
				"element": "N" 
			},
			{
				"x": -1.3293722782,
				"y": 0.338127718,
				"z": 0.241964399,
				"element": "C" 
			},
			{
				"x": -0.7016052566,
				"y": 1.3800734652,
				"z": -0.4757968235,
				"element": "C" 
			},
			{
				"x": 0.8084686949,
				"y": 1.5278083919,
				"z": -0.4520543787,
				"element": "C" 
			},
			{
				"x": -1.4999587721,
				"y": 2.2760027845,
				"z": -1.1925717149,
				"element": "C" 
			},
			{
				"x": -2.8911291663,
				"y": 2.1775087914,
				"z": -1.2074687065,
				"element": "C" 
			},
			{
				"x": -3.503800087,
				"y": 1.1475777858,
				"z": -0.4893855001,
				"element": "C" 
			},
			{
				"x": -2.7324804091,
				"y": 0.2371747786,
				"z": 0.2253398382,
				"element": "C" 
			},
			{
				"x": 4.1191734062,
				"y": 1.5756811769,
				"z": 1.4155740246,
				"element": "H" 
			},
			{
				"x": 3.4771409852,
				"y": 0.8418448177,
				"z": -0.687417072,
				"element": "H" 
			},
			{
				"x": 3.495898717,
				"y": -0.4932979267,
				"z": 0.4842668044,
				"element": "H" 
			},
			{
				"x": 1.4356255003,
				"y": -0.5116075537,
				"z": -0.79243694,
				"element": "H" 
			},
			{
				"x": 1.305773873,
				"y": -1.2477593534,
				"z": 1.5650162571,
				"element": "H" 
			},
			{
				"x": 0.9190366927,
				"y": 0.4062288927,
				"z": 2.0687084797,
				"element": "H" 
			},
			{
				"x": -1.0734497253,
				"y": -1.1079941526,
				"z": 1.6437990222,
				"element": "H" 
			},
			{
				"x": 1.0973640836,
				"y": 2.3390399949,
				"z": 0.2285782752,
				"element": "H" 
			},
			{
				"x": 1.1676522555,
				"y": 1.8197450647,
				"z": -1.4472382298,
				"element": "H" 
			},
			{
				"x": -1.0114452851,
				"y": 3.0739230728,
				"z": -1.7486036119,
				"element": "H" 
			},
			{
				"x": -3.4862303056,
				"y": 2.8896310382,
				"z": -1.7707843366,
				"element": "H" 
			},
			{
				"x": -4.5860901668,
				"y": 1.0501893699,
				"z": -0.4857145189,
				"element": "H" 
			},
			{
				"x": -3.2105798449,
				"y": -0.570022158,
				"z": 0.7764644302,
				"element": "H" 
			}
		],
		 "valence_orbital": [ 
			{
				"type": "occ",
				"energy": -0.3108,
				"method": "rhf"
			},
			{
				"type": "occ",
				"energy": -0.2806,
				"method": "rhf"
			},
			{
				"type": "occ",
				"energy": -0.27033,
				"method": "rhf"
			},
			{
				"type": "occ",
				"energy": -0.22666,
				"method": "rhf"
			},
			{
				"type": "occ",
				"energy": -0.18171,
				"method": "rhf"
			},
			{
				"type": "unocc",
				"energy": 0.01383,
				"method": "rhf"
			},
			{
				"type": "unocc",
				"energy": 0.03018,
				"method": "rhf"
			},
			{
				"type": "unocc",
				"energy": 0.06962,
				"method": "rhf"
			},
			{
				"type": "unocc",
				"energy": 0.09331,
				"method": "rhf"
			},
			{
				"type": "unocc",
				"energy": 0.1093,
				"method": "rhf"
			}
		],
		"cosmo_sigma_profile": { 
			"-0.025": 0.0,
			"-0.024": 0.0,
			"-0.023": 0.0,
			"-0.022": 0.0,
			"-0.021": 0.0,
			"-0.02": 0.0,
			"-0.019": 0.0,
			"-0.018": 0.0,
			"-0.017": 0.0,
			"-0.016": 0.360187411168,
			"-0.015": 0.996142137231,
			"-0.014": 1.30604608922,
			"-0.013": 0.68048368079,
			"-0.012": 1.75414106097,
			"-0.011": 2.35638642819,
			"-0.01": 1.92021096541,
			"-0.009": 2.24637980182,
			"-0.008": 2.05995063992,
			"-0.007": 2.38968398541,
			"-0.006": 3.42128921045,
			"-0.005": 5.88971422427,
			"-0.004": 15.3266236484,
			"-0.003": 27.5048959422,
			"-0.002": 25.4248858976,
			"-0.001": 16.8206907735,
			"0.0": 14.2907343126,
			"0.001": 10.1328769648,
			"0.002": 8.6161533016,
			"0.003": 8.64361107457,
			"0.004": 8.65487083075,
			"0.005": 8.87998322833,
			"0.006": 9.77708889994,
			"0.007": 10.1027581631,
			"0.008": 7.62173016391,
			"0.009": 2.90751043021,
			"0.01": 1.4491026678,
			"0.011": 2.90004753289,
			"0.012": 1.85225606128,
			"0.013": 0.844655741738,
			"0.014": 0.0,
			"0.015": 0.0,
			"0.016": 0.0,
			"0.017": 0.0,
			"0.018": 0.0,
			"0.019": 0.0,
			"0.02": 0.0,
			"0.021": 0.0,
			"0.022": 0.0,
			"0.023": 0.0,
			"0.024": 0.0,
			"0.025": 0.0
		}
	}
}
