{
	 "smiles": "CCCCCCCCCCCCCCCCCCCCCCCCCCCCCCO", 
	 "Tm": 361.15, 
	 "num_atms": 93, 
	 "gaussian": { 
		 "optdone": 1, 
		 "sigma_profile": "yes", 
		 "theory": "DFT", 
		 "functional": "B3LYP", 
		 "basiset": "6-31G**", 
		 "properties": { 
			 "R2extent": 25553.5625, 
			 "electric_dipole_moment_norm": 1.67113964108, 
			 "electric_quadrupole_moment_norm": 14.060002681, 
			 "total_energy": -1255.85219832, 
			 "HOMO_LUMO_gap": 0.32617, 
			 "cosmo_polarized_energy": -6.36, 
			 "cosmo_cavitation_energy": 85.35, 
			 "cosmo_dispersion_energy": -49.8, 
			 "cosmo_repulsion_energy": 3.93, 
			 "cosmo_total_nonelectrostatic_energy": 39.48, 
			 "SMD_solvation_energy": 10.32 
		},
		"coords": [
			{
				"x": -1.9961450919,
				"y": -2.4577890818,
				"z": -1.7767408148,
				"element": "C" 
			},
			{
				"x": -1.135849254,
				"y": -3.685300828,
				"z": -2.0928695869,
				"element": "C" 
			},
			{
				"x": -0.8960476819,
				"y": -4.5881622075,
				"z": -0.8756193124,
				"element": "C" 
			},
			{
				"x": -0.0336376297,
				"y": -5.8174890653,
				"z": -1.1926491317,
				"element": "C" 
			},
			{
				"x": 0.1453224425,
				"y": -6.7975906331,
				"z": -0.0194677457,
				"element": "C" 
			},
			{
				"x": 0.8861340448,
				"y": -6.2489172038,
				"z": 1.2134264558,
				"element": "C" 
			},
			{
				"x": 2.347737503,
				"y": -5.8555585903,
				"z": 0.950671609,
				"element": "C" 
			},
			{
				"x": 3.1456134687,
				"y": -5.4988756428,
				"z": 2.2176818341,
				"element": "C" 
			},
			{
				"x": 2.6523472262,
				"y": -4.2652945097,
				"z": 2.9979000141,
				"element": "C" 
			},
			{
				"x": 2.675906776,
				"y": -2.9287088382,
				"z": 2.2345895561,
				"element": "C" 
			},
			{
				"x": 4.0743851359,
				"y": -2.4814959871,
				"z": 1.7773835623,
				"element": "C" 
			},
			{
				"x": 4.1305846453,
				"y": -1.0848518112,
				"z": 1.1159903057,
				"element": "C" 
			},
			{
				"x": 4.4769822279,
				"y": 0.0861875378,
				"z": 2.0568727768,
				"element": "C" 
			},
			{
				"x": 3.4704648465,
				"y": 0.4170506454,
				"z": 3.1722010057,
				"element": "C" 
			},
			{
				"x": 2.1149400385,
				"y": 0.9425071108,
				"z": 2.6789349297,
				"element": "C" 
			},
			{
				"x": 1.1545675041,
				"y": 1.2885964031,
				"z": 3.8262694582,
				"element": "C" 
			},
			{
				"x": -0.2189105269,
				"y": 1.8208097716,
				"z": 3.3831039041,
				"element": "C" 
			},
			{
				"x": -0.1862007321,
				"y": 3.222370863,
				"z": 2.7533739723,
				"element": "C" 
			},
			{
				"x": -1.5777730015,
				"y": 3.7724810836,
				"z": 2.3849614088,
				"element": "C" 
			},
			{
				"x": -2.2698004776,
				"y": 3.1214581965,
				"z": 1.1633253986,
				"element": "C" 
			},
			{
				"x": -2.0767934937,
				"y": 3.8613132857,
				"z": -0.175506474,
				"element": "C" 
			},
			{
				"x": -0.6446767934,
				"y": 3.9289294342,
				"z": -0.7390383652,
				"element": "C" 
			},
			{
				"x": -0.0065083468,
				"y": 2.5750851006,
				"z": -1.1093522443,
				"element": "C" 
			},
			{
				"x": -0.6494100213,
				"y": 1.7961472992,
				"z": -2.279893478,
				"element": "C" 
			},
			{
				"x": -0.0903838999,
				"y": 2.1015468312,
				"z": -3.6842463214,
				"element": "C" 
			},
			{
				"x": -0.3619318243,
				"y": 3.5020414841,
				"z": -4.2666110291,
				"element": "C" 
			},
			{
				"x": -1.8425371591,
				"y": 3.9055950834,
				"z": -4.3697296052,
				"element": "C" 
			},
			{
				"x": -2.6812958644,
				"y": 3.0133531442,
				"z": -5.2984824015,
				"element": "C" 
			},
			{
				"x": -4.1745272348,
				"y": 3.3843055617,
				"z": -5.3640884641,
				"element": "C" 
			},
			{
				"x": -5.0248307816,
				"y": 2.8847898937,
				"z": -4.1991229379,
				"element": "C" 
			},
			{
				"x": -4.6293740749,
				"y": 3.5360683843,
				"z": -2.9927913295,
				"element": "O" 
			},
			{
				"x": -2.148784016,
				"y": -1.8348277373,
				"z": -2.6642988659,
				"element": "H" 
			},
			{
				"x": -1.5270159388,
				"y": -1.8316916885,
				"z": -1.0089229298,
				"element": "H" 
			},
			{
				"x": -2.9837927432,
				"y": -2.7515119429,
				"z": -1.4025108556,
				"element": "H" 
			},
			{
				"x": -1.6134644691,
				"y": -4.2722802751,
				"z": -2.8893615733,
				"element": "H" 
			},
			{
				"x": -0.1678766021,
				"y": -3.3591551156,
				"z": -2.4973829095,
				"element": "H" 
			},
			{
				"x": -0.4265474948,
				"y": -3.9939234142,
				"z": -0.0798728296,
				"element": "H" 
			},
			{
				"x": -1.8650613484,
				"y": -4.9190419658,
				"z": -0.4736978236,
				"element": "H" 
			},
			{
				"x": -0.4930045534,
				"y": -6.362561824,
				"z": -2.0287016481,
				"element": "H" 
			},
			{
				"x": 0.947977731,
				"y": -5.4871623082,
				"z": -1.5580822719,
				"element": "H" 
			},
			{
				"x": -0.8462029058,
				"y": -7.1514350957,
				"z": 0.295192615,
				"element": "H" 
			},
			{
				"x": 0.68117002,
				"y": -7.6851809885,
				"z": -0.3832699909,
				"element": "H" 
			},
			{
				"x": 0.8663726034,
				"y": -7.0194414236,
				"z": 1.9968368714,
				"element": "H" 
			},
			{
				"x": 0.3352866197,
				"y": -5.3937885555,
				"z": 1.6242604234,
				"element": "H" 
			},
			{
				"x": 2.3888587409,
				"y": -5.0193273779,
				"z": 0.2411292773,
				"element": "H" 
			},
			{
				"x": 2.8520767203,
				"y": -6.6943336454,
				"z": 0.4507383489,
				"element": "H" 
			},
			{
				"x": 4.1984603882,
				"y": -5.3577834685,
				"z": 1.9428296679,
				"element": "H" 
			},
			{
				"x": 3.1294512759,
				"y": -6.3626525362,
				"z": 2.8966172725,
				"element": "H" 
			},
			{
				"x": 3.2691773968,
				"y": -4.1625855051,
				"z": 3.9014466434,
				"element": "H" 
			},
			{
				"x": 1.6310083102,
				"y": -4.4471091918,
				"z": 3.355861508,
				"element": "H" 
			},
			{
				"x": 2.2355049118,
				"y": -2.1607090135,
				"z": 2.8811415025,
				"element": "H" 
			},
			{
				"x": 2.0183604403,
				"y": -2.986872509,
				"z": 1.3560939079,
				"element": "H" 
			},
			{
				"x": 4.4609182278,
				"y": -3.2219109023,
				"z": 1.0666683962,
				"element": "H" 
			},
			{
				"x": 4.7633100725,
				"y": -2.506649776,
				"z": 2.6344922848,
				"element": "H" 
			},
			{
				"x": 3.1833047264,
				"y": -0.8870234084,
				"z": 0.5967898022,
				"element": "H" 
			},
			{
				"x": 4.8959928255,
				"y": -1.0987818444,
				"z": 0.3300158552,
				"element": "H" 
			},
			{
				"x": 5.4511429718,
				"y": -0.1260040407,
				"z": 2.5186485758,
				"element": "H" 
			},
			{
				"x": 4.6255753234,
				"y": 0.9875512111,
				"z": 1.4457558795,
				"element": "H" 
			},
			{
				"x": 3.920998049,
				"y": 1.1775773507,
				"z": 3.8249439884,
				"element": "H" 
			},
			{
				"x": 3.3147565675,
				"y": -0.4626725304,
				"z": 3.8109222924,
				"element": "H" 
			},
			{
				"x": 2.2871475652,
				"y": 1.8269614164,
				"z": 2.051178343,
				"element": "H" 
			},
			{
				"x": 1.6358216961,
				"y": 0.1979669277,
				"z": 2.0287129508,
				"element": "H" 
			},
			{
				"x": 1.6307053711,
				"y": 2.026398969,
				"z": 4.4884605269,
				"element": "H" 
			},
			{
				"x": 1.0043163769,
				"y": 0.3888508327,
				"z": 4.4387702147,
				"element": "H" 
			},
			{
				"x": -0.8842738474,
				"y": 1.8509437327,
				"z": 4.2571113626,
				"element": "H" 
			},
			{
				"x": -0.6726998054,
				"y": 1.1037479287,
				"z": 2.6849130654,
				"element": "H" 
			},
			{
				"x": 0.4604411836,
				"y": 3.2212615985,
				"z": 1.8685809815,
				"element": "H" 
			},
			{
				"x": 0.2838729738,
				"y": 3.909901301,
				"z": 3.4705260861,
				"element": "H" 
			},
			{
				"x": -1.5014258279,
				"y": 4.8541882121,
				"z": 2.2102404077,
				"element": "H" 
			},
			{
				"x": -2.2243942415,
				"y": 3.661625836,
				"z": 3.2659869213,
				"element": "H" 
			},
			{
				"x": -3.3496831741,
				"y": 3.0801635116,
				"z": 1.3547592857,
				"element": "H" 
			},
			{
				"x": -1.9548198934,
				"y": 2.0746293808,
				"z": 1.0663151303,
				"element": "H" 
			},
			{
				"x": -2.7398893766,
				"y": 3.4117452594,
				"z": -0.9253715988,
				"element": "H" 
			},
			{
				"x": -2.4389035496,
				"y": 4.8911822752,
				"z": -0.0493536996,
				"element": "H" 
			},
			{
				"x": -0.6574324713,
				"y": 4.5832584085,
				"z": -1.618086853,
				"element": "H" 
			},
			{
				"x": 0.0050285556,
				"y": 4.4307523007,
				"z": -0.0101653624,
				"element": "H" 
			},
			{
				"x": -0.0155385955,
				"y": 1.9345552296,
				"z": -0.2186149713,
				"element": "H" 
			},
			{
				"x": 1.0560598658,
				"y": 2.7383153108,
				"z": -1.3374876333,
				"element": "H" 
			},
			{
				"x": -0.4913899689,
				"y": 0.7245164085,
				"z": -2.1025386762,
				"element": "H" 
			},
			{
				"x": -1.7376799559,
				"y": 1.9338116329,
				"z": -2.2733064629,
				"element": "H" 
			},
			{
				"x": 0.9967378417,
				"y": 1.941180147,
				"z": -3.6668089103,
				"element": "H" 
			},
			{
				"x": -0.4856272447,
				"y": 1.3470017233,
				"z": -4.3769575427,
				"element": "H" 
			},
			{
				"x": 0.0940785094,
				"y": 3.5473941377,
				"z": -5.266117417,
				"element": "H" 
			},
			{
				"x": 0.1665300511,
				"y": 4.2546352322,
				"z": -3.6679208009,
				"element": "H" 
			},
			{
				"x": -1.897037982,
				"y": 4.9384115652,
				"z": -4.7412112842,
				"element": "H" 
			},
			{
				"x": -2.3031547407,
				"y": 3.9212792299,
				"z": -3.3790049969,
				"element": "H" 
			},
			{
				"x": -2.2587572701,
				"y": 3.0642778631,
				"z": -6.3116594326,
				"element": "H" 
			},
			{
				"x": -2.597603604,
				"y": 1.9617162439,
				"z": -4.9926335601,
				"element": "H" 
			},
			{
				"x": -4.6131558072,
				"y": 2.9575457368,
				"z": -6.2757159261,
				"element": "H" 
			},
			{
				"x": -4.2910851634,
				"y": 4.4730777211,
				"z": -5.4433583394,
				"element": "H" 
			},
			{
				"x": -4.9123587549,
				"y": 1.7912558473,
				"z": -4.1095279889,
				"element": "H" 
			},
			{
				"x": -6.0860863439,
				"y": 3.0871422789,
				"z": -4.416147864,
				"element": "H" 
			},
			{
				"x": -5.1823481927,
				"y": 3.2029926082,
				"z": -2.27552632,
				"element": "H" 
			}
		],
		 "valence_orbital": [ 
			{
				"type": "occ",
				"energy": -0.29307,
				"method": "rhf"
			},
			{
				"type": "occ",
				"energy": -0.29031,
				"method": "rhf"
			},
			{
				"type": "occ",
				"energy": -0.28959,
				"method": "rhf"
			},
			{
				"type": "occ",
				"energy": -0.28704,
				"method": "rhf"
			},
			{
				"type": "occ",
				"energy": -0.26466,
				"method": "rhf"
			},
			{
				"type": "unocc",
				"energy": 0.06151,
				"method": "rhf"
			},
			{
				"type": "unocc",
				"energy": 0.06536,
				"method": "rhf"
			},
			{
				"type": "unocc",
				"energy": 0.07575,
				"method": "rhf"
			},
			{
				"type": "unocc",
				"energy": 0.08524,
				"method": "rhf"
			},
			{
				"type": "unocc",
				"energy": 0.09448,
				"method": "rhf"
			}
		],
		"cosmo_sigma_profile": { 
			"-0.025": 0.0,
			"-0.024": 0.0,
			"-0.023": 0.0,
			"-0.022": 0.0,
			"-0.021": 0.0,
			"-0.02": 0.0,
			"-0.019": 0.0,
			"-0.018": 0.0,
			"-0.017": 0.0,
			"-0.016": 0.0549900086997,
			"-0.015": 0.79461687203,
			"-0.014": 1.01333835464,
			"-0.013": 1.23923683685,
			"-0.012": 0.50313621038,
			"-0.011": 0.613319196303,
			"-0.01": 0.794470887508,
			"-0.009": 1.00042609597,
			"-0.008": 0.961695480475,
			"-0.007": 0.648666785135,
			"-0.006": 0.786756134811,
			"-0.005": 0.912705202909,
			"-0.004": 1.95140653415,
			"-0.003": 9.50616869054,
			"-0.002": 64.7717190779,
			"-0.001": 160.104241518,
			"0.0": 169.662111138,
			"0.001": 144.168751386,
			"0.002": 67.4580876938,
			"0.003": 5.7469482417,
			"0.004": 3.6899192144,
			"0.005": 2.99026815251,
			"0.006": 2.59109804032,
			"0.007": 1.45999390666,
			"0.008": 1.2028500847,
			"0.009": 0.813940133547,
			"0.01": 0.915844062929,
			"0.011": 1.37604582841,
			"0.012": 0.416383784826,
			"0.013": 0.883318687545,
			"0.014": 0.597527608218,
			"0.015": 0.306762856688,
			"0.016": 0.0,
			"0.017": 0.0,
			"0.018": 0.0,
			"0.019": 0.0,
			"0.02": 0.0,
			"0.021": 0.0,
			"0.022": 0.0,
			"0.023": 0.0,
			"0.024": 0.0,
			"0.025": 0.0
		}
	}
}
