{
	 "smiles": "CC1=C(SC(=N1)C(C)(C)C)C(O)=O", 
	 "Tm": 428.65, 
	 "num_atms": 26, 
	 "gaussian": { 
		 "optdone": 1, 
		 "sigma_profile": "yes", 
		 "theory": "DFT", 
		 "functional": "B3LYP", 
		 "basiset": "6-31G**", 
		 "properties": { 
			 "R2extent": 3551.5857, 
			 "electric_dipole_moment_norm": 4.83189596742, 
			 "electric_quadrupole_moment_norm": 16.1415988115, 
			 "total_energy": -954.201349358, 
			 "HOMO_LUMO_gap": 0.18605, 
			 "cosmo_polarized_energy": -12.66, 
			 "cosmo_cavitation_energy": 30.11, 
			 "cosmo_dispersion_energy": -21.86, 
			 "cosmo_repulsion_energy": 1.7, 
			 "cosmo_total_nonelectrostatic_energy": 9.95, 
			 "SMD_solvation_energy": 5.13 
		},
		"coords": [
			{
				"x": 0.7682564084,
				"y": 2.3035448341,
				"z": 2.7112407449,
				"element": "C" 
			},
			{
				"x": 0.8574435319,
				"y": 1.1823036015,
				"z": 1.7192555605,
				"element": "C" 
			},
			{
				"x": 2.0153705966,
				"y": 0.5904969122,
				"z": 1.2507776877,
				"element": "C" 
			},
			{
				"x": 1.607294215,
				"y": -0.67232522,
				"z": 0.1084749127,
				"element": "S" 
			},
			{
				"x": -0.1024856341,
				"y": -0.3048987099,
				"z": 0.3501514431,
				"element": "C" 
			},
			{
				"x": -0.3053736503,
				"y": 0.6618144752,
				"z": 1.1990393202,
				"element": "N" 
			},
			{
				"x": -1.1936273106,
				"y": -1.0692577357,
				"z": -0.3825623904,
				"element": "C" 
			},
			{
				"x": -2.5664618045,
				"y": -0.513164891,
				"z": 0.0395445724,
				"element": "C" 
			},
			{
				"x": -1.1085535999,
				"y": -2.5703171933,
				"z": -0.0187825006,
				"element": "C" 
			},
			{
				"x": -1.0118435913,
				"y": -0.8968148042,
				"z": -1.9089799622,
				"element": "C" 
			},
			{
				"x": 3.3905419401,
				"y": 0.9560483022,
				"z": 1.6437897341,
				"element": "C" 
			},
			{
				"x": 4.4169548596,
				"y": 0.2642559345,
				"z": 1.078439988,
				"element": "O" 
			},
			{
				"x": 3.6326868071,
				"y": 1.8368516967,
				"z": 2.4397495673,
				"element": "O" 
			},
			{
				"x": -0.2813810005,
				"y": 2.5500987206,
				"z": 2.8784199757,
				"element": "H" 
			},
			{
				"x": 1.2390468443,
				"y": 2.0278899111,
				"z": 3.6589351363,
				"element": "H" 
			},
			{
				"x": 1.3035739552,
				"y": 3.187620371,
				"z": 2.3540114075,
				"element": "H" 
			},
			{
				"x": -2.6560092755,
				"y": 0.5482940142,
				"z": -0.2036406707,
				"element": "H" 
			},
			{
				"x": -2.7234946387,
				"y": -0.6197101509,
				"z": 1.1155640283,
				"element": "H" 
			},
			{
				"x": -3.3564298709,
				"y": -1.0601863438,
				"z": -0.4852078446,
				"element": "H" 
			},
			{
				"x": -0.1528144154,
				"y": -3.0084265499,
				"z": -0.3240803987,
				"element": "H" 
			},
			{
				"x": -1.2226969707,
				"y": -2.7218342997,
				"z": 1.058950894,
				"element": "H" 
			},
			{
				"x": -1.9069143582,
				"y": -3.1206480739,
				"z": -0.5272951124,
				"element": "H" 
			},
			{
				"x": -0.0543464512,
				"y": -1.3018506143,
				"z": -2.2521168632,
				"element": "H" 
			},
			{
				"x": -1.0559067582,
				"y": 0.1586639639,
				"z": -2.1944906899,
				"element": "H" 
			},
			{
				"x": -1.809281327,
				"y": -1.4274504856,
				"z": -2.4393962859,
				"element": "H" 
			},
			{
				"x": 4.1010514988,
				"y": -0.410897665,
				"z": 0.461307746,
				"element": "H" 
			}
		],
		 "valence_orbital": [ 
			{
				"type": "occ",
				"energy": -0.31713,
				"method": "rhf"
			},
			{
				"type": "occ",
				"energy": -0.29653,
				"method": "rhf"
			},
			{
				"type": "occ",
				"energy": -0.28296,
				"method": "rhf"
			},
			{
				"type": "occ",
				"energy": -0.27528,
				"method": "rhf"
			},
			{
				"type": "occ",
				"energy": -0.24921,
				"method": "rhf"
			},
			{
				"type": "unocc",
				"energy": -0.06316,
				"method": "rhf"
			},
			{
				"type": "unocc",
				"energy": -0.01308,
				"method": "rhf"
			},
			{
				"type": "unocc",
				"energy": 0.01434,
				"method": "rhf"
			},
			{
				"type": "unocc",
				"energy": 0.05485,
				"method": "rhf"
			},
			{
				"type": "unocc",
				"energy": 0.08289,
				"method": "rhf"
			}
		],
		"cosmo_sigma_profile": { 
			"-0.025": 0.0,
			"-0.024": 0.0,
			"-0.023": 0.0,
			"-0.022": 0.0,
			"-0.021": 0.0,
			"-0.02": 0.0,
			"-0.019": 0.0,
			"-0.018": 0.336139817075,
			"-0.017": 0.71608023207,
			"-0.016": 0.771455934953,
			"-0.015": 1.06665248613,
			"-0.014": 1.04939101815,
			"-0.013": 0.82047269955,
			"-0.012": 1.13810408963,
			"-0.011": 1.0555550697,
			"-0.01": 0.728231643242,
			"-0.009": 0.614165584526,
			"-0.008": 1.23048156407,
			"-0.007": 2.03844122816,
			"-0.006": 1.73865100904,
			"-0.005": 4.46032723433,
			"-0.004": 18.1852642016,
			"-0.003": 26.4788829929,
			"-0.002": 26.8679940093,
			"-0.001": 32.8101767282,
			"0.0": 39.3621177176,
			"0.001": 21.6507464657,
			"0.002": 8.40527688064,
			"0.003": 4.71596434927,
			"0.004": 4.09824459593,
			"0.005": 4.51694688524,
			"0.006": 4.15276254397,
			"0.007": 4.31599454807,
			"0.008": 3.78638952698,
			"0.009": 3.98980736845,
			"0.01": 5.1653281241,
			"0.011": 5.47701968058,
			"0.012": 4.67080580146,
			"0.013": 1.81482153402,
			"0.014": 0.073432722369,
			"0.015": 0.0,
			"0.016": 0.0,
			"0.017": 0.0,
			"0.018": 0.0,
			"0.019": 0.0,
			"0.02": 0.0,
			"0.021": 0.0,
			"0.022": 0.0,
			"0.023": 0.0,
			"0.024": 0.0,
			"0.025": 0.0
		}
	}
}
