{
	 "smiles": "C1=CC2=C3C(=CC=CC3=C1)C1=C2N=CC=N1", 
	 "Tm": 419.15, 
	 "num_atms": 24, 
	 "gaussian": { 
		 "optdone": 1, 
		 "sigma_profile": "yes", 
		 "theory": "DFT", 
		 "functional": "B3LYP", 
		 "basiset": "6-31G**", 
		 "properties": { 
			 "R2extent": 3244.8362, 
			 "electric_dipole_moment_norm": 1.71221656341, 
			 "electric_quadrupole_moment_norm": 10.856942892, 
			 "total_energy": -647.819981283, 
			 "HOMO_LUMO_gap": 0.1528, 
			 "cosmo_polarized_energy": -8.19, 
			 "cosmo_cavitation_energy": 28.16, 
			 "cosmo_dispersion_energy": -21.2, 
			 "cosmo_repulsion_energy": 1.58, 
			 "cosmo_total_nonelectrostatic_energy": 8.53, 
			 "SMD_solvation_energy": 0.91 
		},
		"coords": [
			{
				"x": 2.5370679812,
				"y": -2.2722148794,
				"z": -0.7206850517,
				"element": "C" 
			},
			{
				"x": 1.2039822513,
				"y": -2.690003308,
				"z": -0.451895642,
				"element": "C" 
			},
			{
				"x": 0.2665083395,
				"y": -1.7288163146,
				"z": -0.1360624996,
				"element": "C" 
			},
			{
				"x": 0.6671347156,
				"y": -0.3686261457,
				"z": -0.0921380949,
				"element": "C" 
			},
			{
				"x": -0.4059383484,
				"y": 0.4956946865,
				"z": 0.2455183984,
				"element": "C" 
			},
			{
				"x": -0.1690639048,
				"y": 1.8520535485,
				"z": 0.3271930986,
				"element": "C" 
			},
			{
				"x": 1.1471126513,
				"y": 2.3257229225,
				"z": 0.0679116428,
				"element": "C" 
			},
			{
				"x": 2.1918218813,
				"y": 1.476331467,
				"z": -0.2615787555,
				"element": "C" 
			},
			{
				"x": 1.9750206937,
				"y": 0.0714725356,
				"z": -0.3528391255,
				"element": "C" 
			},
			{
				"x": 2.9227533476,
				"y": -0.9415280292,
				"z": -0.676238726,
				"element": "C" 
			},
			{
				"x": -1.5757803442,
				"y": -0.3778993072,
				"z": 0.4302562399,
				"element": "C" 
			},
			{
				"x": -1.166714656,
				"y": -1.7311191882,
				"z": 0.1981552869,
				"element": "C" 
			},
			{
				"x": -2.0043700495,
				"y": -2.7582046152,
				"z": 0.2899903857,
				"element": "N" 
			},
			{
				"x": -3.2655884928,
				"y": -2.4190246036,
				"z": 0.6186268716,
				"element": "C" 
			},
			{
				"x": -3.6645877965,
				"y": -1.0991043,
				"z": 0.8449979745,
				"element": "C" 
			},
			{
				"x": -2.8223778727,
				"y": -0.0521401692,
				"z": 0.754098926,
				"element": "N" 
			},
			{
				"x": 3.2771977231,
				"y": -3.0272215703,
				"z": -0.9695963237,
				"element": "H" 
			},
			{
				"x": 0.9405204505,
				"y": -3.7422586384,
				"z": -0.4967409034,
				"element": "H" 
			},
			{
				"x": -0.9613377953,
				"y": 2.5490660419,
				"z": 0.5824196695,
				"element": "H" 
			},
			{
				"x": 1.3362352365,
				"y": 3.3934130152,
				"z": 0.1315861644,
				"element": "H" 
			},
			{
				"x": 3.1815362736,
				"y": 1.8834294096,
				"z": -0.4513784056,
				"element": "H" 
			},
			{
				"x": 3.9531262057,
				"y": -0.6689005097,
				"z": -0.8890582195,
				"element": "H" 
			},
			{
				"x": -3.9842406269,
				"y": -3.2308178127,
				"z": 0.7044185257,
				"element": "H" 
			},
			{
				"x": -4.6960178638,
				"y": -0.8762042353,
				"z": 1.1082385634,
				"element": "H" 
			}
		],
		 "valence_orbital": [ 
			{
				"type": "occ",
				"energy": -0.30926,
				"method": "rhf"
			},
			{
				"type": "occ",
				"energy": -0.25509,
				"method": "rhf"
			},
			{
				"type": "occ",
				"energy": -0.24178,
				"method": "rhf"
			},
			{
				"type": "occ",
				"energy": -0.23451,
				"method": "rhf"
			},
			{
				"type": "occ",
				"energy": -0.23116,
				"method": "rhf"
			},
			{
				"type": "unocc",
				"energy": -0.07836,
				"method": "rhf"
			},
			{
				"type": "unocc",
				"energy": -0.05268,
				"method": "rhf"
			},
			{
				"type": "unocc",
				"energy": -0.01429,
				"method": "rhf"
			},
			{
				"type": "unocc",
				"energy": 0.01142,
				"method": "rhf"
			},
			{
				"type": "unocc",
				"energy": 0.0482,
				"method": "rhf"
			}
		],
		"cosmo_sigma_profile": { 
			"-0.025": 0.0,
			"-0.024": 0.0,
			"-0.023": 0.0,
			"-0.022": 0.0,
			"-0.021": 0.0,
			"-0.02": 0.0,
			"-0.019": 0.0,
			"-0.018": 0.0,
			"-0.017": 0.0,
			"-0.016": 0.0,
			"-0.015": 0.0,
			"-0.014": 0.0,
			"-0.013": 0.0,
			"-0.012": 0.0,
			"-0.011": 0.0,
			"-0.01": 0.0,
			"-0.009": 0.0,
			"-0.008": 0.534662200063,
			"-0.007": 10.2206948275,
			"-0.006": 17.9653282848,
			"-0.005": 16.5177453199,
			"-0.004": 14.8014743261,
			"-0.003": 10.3952103927,
			"-0.002": 12.555476232,
			"-0.001": 17.5114804132,
			"0.0": 18.4689540021,
			"0.001": 22.1394464694,
			"0.002": 26.8630803913,
			"0.003": 27.4925686158,
			"0.004": 11.3693972167,
			"0.005": 3.27558572449,
			"0.006": 3.00118945034,
			"0.007": 2.55237338391,
			"0.008": 2.07605226363,
			"0.009": 1.92967932834,
			"0.01": 1.60610605258,
			"0.011": 2.06517041868,
			"0.012": 1.52536557645,
			"0.013": 1.67457702208,
			"0.014": 1.50315016827,
			"0.015": 0.538719914493,
			"0.016": 0.0,
			"0.017": 0.0,
			"0.018": 0.0,
			"0.019": 0.0,
			"0.02": 0.0,
			"0.021": 0.0,
			"0.022": 0.0,
			"0.023": 0.0,
			"0.024": 0.0,
			"0.025": 0.0
		}
	}
}
