{
	 "smiles": "ClC(=O)C=CC(Cl)=O", 
	 "Tm": 271.15, 
	 "num_atms": 10, 
	 "gaussian": { 
		 "optdone": 1, 
		 "sigma_profile": "yes", 
		 "theory": "DFT", 
		 "functional": "B3LYP", 
		 "basiset": "6-31G**", 
		 "properties": { 
			 "R2extent": 2471.1885, 
			 "electric_dipole_moment_norm": 0.000509901951359, 
			 "electric_quadrupole_moment_norm": 8.59255305715, 
			 "total_energy": -1224.44338505, 
			 "HOMO_LUMO_gap": 0.17933, 
			 "cosmo_polarized_energy": -6.72, 
			 "cosmo_cavitation_energy": 20.11, 
			 "cosmo_dispersion_energy": -14.62, 
			 "cosmo_repulsion_energy": 1.25, 
			 "cosmo_total_nonelectrostatic_energy": 6.75, 
			 "SMD_solvation_energy": 5.06 
		},
		"coords": [
			{
				"x": -1.9768368978,
				"y": -0.5970344498,
				"z": 2.4697871362,
				"element": "Cl" 
			},
			{
				"x": -0.7947766232,
				"y": 0.7079638078,
				"z": 2.0675476897,
				"element": "C" 
			},
			{
				"x": -0.7846824153,
				"y": 1.7409726157,
				"z": 2.6664502452,
				"element": "O" 
			},
			{
				"x": 0.1040145658,
				"y": 0.3243571665,
				"z": 0.951482594,
				"element": "C" 
			},
			{
				"x": 1.0423867972,
				"y": 1.1856941348,
				"z": 0.5301583368,
				"element": "C" 
			},
			{
				"x": 1.9411641597,
				"y": 0.8020918656,
				"z": -0.5859137281,
				"element": "C" 
			},
			{
				"x": 3.1233597739,
				"y": 2.1070276779,
				"z": -0.9880198082,
				"element": "Cl" 
			},
			{
				"x": 1.9312664163,
				"y": -0.2310251192,
				"z": -1.1846297616,
				"element": "O" 
			},
			{
				"x": -0.0165161568,
				"y": -0.651615895,
				"z": 0.4954783093,
				"element": "H" 
			},
			{
				"x": 1.1629203803,
				"y": 2.1616681957,
				"z": 0.9861589868,
				"element": "H" 
			}
		],
		 "valence_orbital": [ 
			{
				"type": "occ",
				"energy": -0.34344,
				"method": "rhf"
			},
			{
				"type": "occ",
				"energy": -0.33847,
				"method": "rhf"
			},
			{
				"type": "occ",
				"energy": -0.33743,
				"method": "rhf"
			},
			{
				"type": "occ",
				"energy": -0.32274,
				"method": "rhf"
			},
			{
				"type": "occ",
				"energy": -0.31931,
				"method": "rhf"
			},
			{
				"type": "unocc",
				"energy": -0.13998,
				"method": "rhf"
			},
			{
				"type": "unocc",
				"energy": -0.03255,
				"method": "rhf"
			},
			{
				"type": "unocc",
				"energy": -0.01297,
				"method": "rhf"
			},
			{
				"type": "unocc",
				"energy": 0.01716,
				"method": "rhf"
			},
			{
				"type": "unocc",
				"energy": 0.04286,
				"method": "rhf"
			}
		],
		"cosmo_sigma_profile": { 
			"-0.025": 0.0,
			"-0.024": 0.0,
			"-0.023": 0.0,
			"-0.022": 0.0,
			"-0.021": 0.0,
			"-0.02": 0.0,
			"-0.019": 0.0,
			"-0.018": 0.0,
			"-0.017": 0.0,
			"-0.016": 0.0,
			"-0.015": 0.0,
			"-0.014": 0.0,
			"-0.013": 0.0,
			"-0.012": 0.0,
			"-0.011": 0.0,
			"-0.01": 1.04098215974,
			"-0.009": 2.89201073939,
			"-0.008": 3.13825215637,
			"-0.007": 5.62269007622,
			"-0.006": 10.7381558572,
			"-0.005": 10.805296552,
			"-0.004": 12.0835717477,
			"-0.003": 8.74655176694,
			"-0.002": 8.80831563018,
			"-0.001": 9.08719081602,
			"0.0": 10.1945730393,
			"0.001": 11.4944895853,
			"0.002": 15.4698633338,
			"0.003": 21.179006774,
			"0.004": 11.9579355958,
			"0.005": 4.3574893594,
			"0.006": 4.41005524488,
			"0.007": 7.30688805531,
			"0.008": 6.61788103506,
			"0.009": 1.2487537984,
			"0.01": 0.0,
			"0.011": 0.0,
			"0.012": 0.0,
			"0.013": 0.0,
			"0.014": 0.0,
			"0.015": 0.0,
			"0.016": 0.0,
			"0.017": 0.0,
			"0.018": 0.0,
			"0.019": 0.0,
			"0.02": 0.0,
			"0.021": 0.0,
			"0.022": 0.0,
			"0.023": 0.0,
			"0.024": 0.0,
			"0.025": 0.0
		}
	}
}
