{
	 "smiles": "CC1=NN=C2C=CC(=CN12)C(O)=O", 
	 "Tm": 581.15, 
	 "num_atms": 20, 
	 "gaussian": { 
		 "optdone": 1, 
		 "sigma_profile": "yes", 
		 "theory": "DFT", 
		 "functional": "B3LYP", 
		 "basiset": "6-31G**", 
		 "properties": { 
			 "R2extent": 3045.5581, 
			 "electric_dipole_moment_norm": 3.64103811982, 
			 "electric_quadrupole_moment_norm": 21.4271062122, 
			 "total_energy": -623.751980505, 
			 "HOMO_LUMO_gap": 0.16095, 
			 "cosmo_polarized_energy": -25.66, 
			 "cosmo_cavitation_energy": 25.12, 
			 "cosmo_dispersion_energy": -18.5, 
			 "cosmo_repulsion_energy": 1.44, 
			 "cosmo_total_nonelectrostatic_energy": 8.06, 
			 "SMD_solvation_energy": 3.71 
		},
		"coords": [
			{
				"x": 0.1128270621,
				"y": 0.3165892269,
				"z": 2.2912864833,
				"element": "C" 
			},
			{
				"x": 1.1426117232,
				"y": -0.1711401748,
				"z": 1.3336952598,
				"element": "C" 
			},
			{
				"x": 2.2353708821,
				"y": -0.843078223,
				"z": 1.6352998164,
				"element": "N" 
			},
			{
				"x": 2.9378326131,
				"y": -1.11620031,
				"z": 0.4918999478,
				"element": "N" 
			},
			{
				"x": 2.2568588373,
				"y": -0.6010652689,
				"z": -0.5169878081,
				"element": "C" 
			},
			{
				"x": 2.5104622464,
				"y": -0.5608112371,
				"z": -1.9141492169,
				"element": "C" 
			},
			{
				"x": 1.61625902,
				"y": 0.0641443838,
				"z": -2.7365449206,
				"element": "C" 
			},
			{
				"x": 0.4187833295,
				"y": 0.6567468498,
				"z": -2.2072603967,
				"element": "C" 
			},
			{
				"x": 0.1838222409,
				"y": 0.634108737,
				"z": -0.8571904384,
				"element": "C" 
			},
			{
				"x": 1.0902919373,
				"y": 0.0158530588,
				"z": -0.0339750848,
				"element": "N" 
			},
			{
				"x": -0.5004755651,
				"y": 1.3591675217,
				"z": -3.1570816838,
				"element": "C" 
			},
			{
				"x": -1.7944042799,
				"y": 1.5102580396,
				"z": -2.7625640287,
				"element": "O" 
			},
			{
				"x": -0.1326722941,
				"y": 1.7911903187,
				"z": -4.2220711624,
				"element": "O" 
			},
			{
				"x": 0.4191298675,
				"y": 0.0257719485,
				"z": 3.2970006312,
				"element": "H" 
			},
			{
				"x": -0.8733710907,
				"y": -0.1198244194,
				"z": 2.0914307913,
				"element": "H" 
			},
			{
				"x": 0.0110986078,
				"y": 1.4081512607,
				"z": 2.2632609706,
				"element": "H" 
			},
			{
				"x": 3.4173883492,
				"y": -1.0234549407,
				"z": -2.2850224492,
				"element": "H" 
			},
			{
				"x": 1.7806461078,
				"y": 0.134821132,
				"z": -3.805276862,
				"element": "H" 
			},
			{
				"x": -0.6576878031,
				"y": 1.1148033333,
				"z": -0.3713796382,
				"element": "H" 
			},
			{
				"x": -1.9927717915,
				"y": 0.915668763,
				"z": -2.0259702106,
				"element": "H" 
			}
		],
		 "valence_orbital": [ 
			{
				"type": "occ",
				"energy": -0.32351,
				"method": "rhf"
			},
			{
				"type": "occ",
				"energy": -0.29724,
				"method": "rhf"
			},
			{
				"type": "occ",
				"energy": -0.28497,
				"method": "rhf"
			},
			{
				"type": "occ",
				"energy": -0.26344,
				"method": "rhf"
			},
			{
				"type": "occ",
				"energy": -0.23948,
				"method": "rhf"
			},
			{
				"type": "unocc",
				"energy": -0.07853,
				"method": "rhf"
			},
			{
				"type": "unocc",
				"energy": -0.04458,
				"method": "rhf"
			},
			{
				"type": "unocc",
				"energy": 0.01855,
				"method": "rhf"
			},
			{
				"type": "unocc",
				"energy": 0.03993,
				"method": "rhf"
			},
			{
				"type": "unocc",
				"energy": 0.04851,
				"method": "rhf"
			}
		],
		"cosmo_sigma_profile": { 
			"-0.025": 0.0,
			"-0.024": 0.0,
			"-0.023": 0.0,
			"-0.022": 0.0,
			"-0.021": 0.0,
			"-0.02": 0.318163723036,
			"-0.019": 1.31385828493,
			"-0.018": 1.28305068365,
			"-0.017": 0.587184919261,
			"-0.016": 1.20864069873,
			"-0.015": 1.4700242795,
			"-0.014": 0.944352541724,
			"-0.013": 1.22078731951,
			"-0.012": 1.76005234042,
			"-0.011": 1.94000580286,
			"-0.01": 2.36104974211,
			"-0.009": 4.1832514165,
			"-0.008": 5.66508049862,
			"-0.007": 8.79017948667,
			"-0.006": 11.8766490612,
			"-0.005": 10.6275236151,
			"-0.004": 16.6361390373,
			"-0.003": 14.6831727793,
			"-0.002": 14.4266421747,
			"-0.001": 11.1549182167,
			"0.0": 10.1860975086,
			"0.001": 8.38946066612,
			"0.002": 7.01114971623,
			"0.003": 4.34039410631,
			"0.004": 4.12142762741,
			"0.005": 3.18310844369,
			"0.006": 3.83420195182,
			"0.007": 4.79247461063,
			"0.008": 4.56631748303,
			"0.009": 6.54888709016,
			"0.01": 7.15419408225,
			"0.011": 7.62539939346,
			"0.012": 5.87187356793,
			"0.013": 3.06048149802,
			"0.014": 2.98456780735,
			"0.015": 2.77173393884,
			"0.016": 2.25908052191,
			"0.017": 0.691331861345,
			"0.018": 0.0,
			"0.019": 0.0,
			"0.02": 0.0,
			"0.021": 0.0,
			"0.022": 0.0,
			"0.023": 0.0,
			"0.024": 0.0,
			"0.025": 0.0
		}
	}
}
