{
	 "smiles": "NC1=NNC=C1C#N", 
	 "Tm": 448.15, 
	 "num_atms": 12, 
	 "gaussian": { 
		 "optdone": 1, 
		 "sigma_profile": "yes", 
		 "theory": "DFT", 
		 "functional": "B3LYP", 
		 "basiset": "6-31G**", 
		 "properties": { 
			 "R2extent": 1509.6769, 
			 "electric_dipole_moment_norm": 4.21119153803, 
			 "electric_quadrupole_moment_norm": 27.1690042856, 
			 "total_energy": -373.803571791, 
			 "HOMO_LUMO_gap": 0.20723, 
			 "cosmo_polarized_energy": -17.4, 
			 "cosmo_cavitation_energy": 17.72, 
			 "cosmo_dispersion_energy": -12.85, 
			 "cosmo_repulsion_energy": 1.1, 
			 "cosmo_total_nonelectrostatic_energy": 5.97, 
			 "SMD_solvation_energy": 3.93 
		},
		"coords": [
			{
				"x": 1.1417392075,
				"y": 0.6835064296,
				"z": -1.6249705086,
				"element": "N" 
			},
			{
				"x": 0.034912719,
				"y": -0.0054967094,
				"z": -1.1767893561,
				"element": "C" 
			},
			{
				"x": -0.3545750709,
				"y": 0.0342545393,
				"z": 0.093688092,
				"element": "N" 
			},
			{
				"x": -1.5044484403,
				"y": -0.7005669211,
				"z": 0.1158032801,
				"element": "N" 
			},
			{
				"x": -1.8481116937,
				"y": -1.2061714139,
				"z": -1.0803283191,
				"element": "C" 
			},
			{
				"x": -0.8695391438,
				"y": -0.7829999912,
				"z": -1.9752558177,
				"element": "C" 
			},
			{
				"x": -0.7640064284,
				"y": -1.0556000513,
				"z": -3.3586649937,
				"element": "C" 
			},
			{
				"x": -0.6334603669,
				"y": -1.2636236474,
				"z": -4.4978910842,
				"element": "N" 
			},
			{
				"x": 1.5884022865,
				"y": 0.2982639344,
				"z": -2.4452701735,
				"element": "H" 
			},
			{
				"x": 1.7899866506,
				"y": 0.9438441807,
				"z": -0.894650899,
				"element": "H" 
			},
			{
				"x": -1.9915835137,
				"y": -0.8065809748,
				"z": 0.9912810775,
				"element": "H" 
			},
			{
				"x": -2.727216206,
				"y": -1.8142293749,
				"z": -1.2328512978,
				"element": "H" 
			}
		],
		 "valence_orbital": [ 
			{
				"type": "occ",
				"energy": -0.34488,
				"method": "rhf"
			},
			{
				"type": "occ",
				"energy": -0.33443,
				"method": "rhf"
			},
			{
				"type": "occ",
				"energy": -0.3035,
				"method": "rhf"
			},
			{
				"type": "occ",
				"energy": -0.2591,
				"method": "rhf"
			},
			{
				"type": "occ",
				"energy": -0.22525,
				"method": "rhf"
			},
			{
				"type": "unocc",
				"energy": -0.01802,
				"method": "rhf"
			},
			{
				"type": "unocc",
				"energy": 0.02812,
				"method": "rhf"
			},
			{
				"type": "unocc",
				"energy": 0.03193,
				"method": "rhf"
			},
			{
				"type": "unocc",
				"energy": 0.06274,
				"method": "rhf"
			},
			{
				"type": "unocc",
				"energy": 0.08408,
				"method": "rhf"
			}
		],
		"cosmo_sigma_profile": { 
			"-0.025": 0.0,
			"-0.024": 0.0,
			"-0.023": 0.0,
			"-0.022": 0.0,
			"-0.021": 0.0,
			"-0.02": 0.0,
			"-0.019": 0.0,
			"-0.018": 0.367277139613,
			"-0.017": 1.95819245915,
			"-0.016": 1.55760731701,
			"-0.015": 0.957613573737,
			"-0.014": 1.48348088879,
			"-0.013": 3.07335190928,
			"-0.012": 3.4095414165,
			"-0.011": 4.51544243734,
			"-0.01": 6.51339145334,
			"-0.009": 4.30142536859,
			"-0.008": 4.84203378334,
			"-0.007": 3.89177266182,
			"-0.006": 3.78963788606,
			"-0.005": 3.00591445547,
			"-0.004": 3.99157763464,
			"-0.003": 4.00684134535,
			"-0.002": 4.33409042426,
			"-0.001": 5.75395177559,
			"0.0": 7.81943234592,
			"0.001": 11.1373142371,
			"0.002": 8.46321917316,
			"0.003": 4.41379323967,
			"0.004": 3.95409223485,
			"0.005": 3.92807596141,
			"0.006": 5.17168160611,
			"0.007": 6.00875428742,
			"0.008": 3.9567105153,
			"0.009": 5.04836963997,
			"0.01": 5.43902782359,
			"0.011": 4.65439159259,
			"0.012": 4.44512134021,
			"0.013": 4.04945797987,
			"0.014": 1.54277744053,
			"0.015": 0.927642429774,
			"0.016": 0.108455311622,
			"0.017": 0.0,
			"0.018": 0.0,
			"0.019": 0.0,
			"0.02": 0.0,
			"0.021": 0.0,
			"0.022": 0.0,
			"0.023": 0.0,
			"0.024": 0.0,
			"0.025": 0.0
		}
	}
}
