{
	 "smiles": "CCCCCCCCCCCCCCCC(=O)OCC(NC(=O)C(Cl)Cl)C(O)C1=CC=C(C=C1)[N+]([O-])=O", 
	 "Tm": 363.15, 
	 "num_atms": 79, 
	 "gaussian": { 
		 "optdone": 1, 
		 "sigma_profile": "yes", 
		 "theory": "DFT", 
		 "functional": "B3LYP", 
		 "basiset": "6-31G**", 
		 "properties": { 
			 "R2extent": 40004.8093, 
			 "electric_dipole_moment_norm": 3.79948381363, 
			 "electric_quadrupole_moment_norm": 63.1551135595, 
			 "total_energy": -2535.37308766, 
			 "HOMO_LUMO_gap": 0.16877, 
			 "cosmo_polarized_energy": -25.65, 
			 "cosmo_cavitation_energy": 83.17, 
			 "cosmo_dispersion_energy": -52.32, 
			 "cosmo_repulsion_energy": 4.1, 
			 "cosmo_total_nonelectrostatic_energy": 34.96, 
			 "SMD_solvation_energy": 14.46 
		},
		"coords": [
			{
				"x": -1.1396922855,
				"y": -9.2194226738,
				"z": -3.6051683815,
				"element": "C" 
			},
			{
				"x": -0.3844053107,
				"y": -8.3331828803,
				"z": -2.6090355414,
				"element": "C" 
			},
			{
				"x": 1.0408897441,
				"y": -7.9968599087,
				"z": -3.0706586324,
				"element": "C" 
			},
			{
				"x": 1.869094688,
				"y": -7.1681065536,
				"z": -2.0737612728,
				"element": "C" 
			},
			{
				"x": 1.357977371,
				"y": -5.7355545366,
				"z": -1.8557018501,
				"element": "C" 
			},
			{
				"x": 2.1858749785,
				"y": -4.9033938248,
				"z": -0.8598749739,
				"element": "C" 
			},
			{
				"x": 3.6021154722,
				"y": -4.5519062071,
				"z": -1.3398634743,
				"element": "C" 
			},
			{
				"x": 4.4354752973,
				"y": -3.7450721107,
				"z": -0.3269226404,
				"element": "C" 
			},
			{
				"x": 3.9052369066,
				"y": -2.3437149177,
				"z": 0.0269807898,
				"element": "C" 
			},
			{
				"x": 3.870546367,
				"y": -1.3642413096,
				"z": -1.1558568512,
				"element": "C" 
			},
			{
				"x": 3.5255685207,
				"y": 0.0852604254,
				"z": -0.7683684749,
				"element": "C" 
			},
			{
				"x": 2.120881603,
				"y": 0.3130699365,
				"z": -0.1789053423,
				"element": "C" 
			},
			{
				"x": 0.9762766777,
				"y": 0.0529882925,
				"z": -1.1695511003,
				"element": "C" 
			},
			{
				"x": -0.4416651766,
				"y": 0.2186788086,
				"z": -0.5963265907,
				"element": "C" 
			},
			{
				"x": -0.7606446204,
				"y": 1.6255850098,
				"z": -0.0621153713,
				"element": "C" 
			},
			{
				"x": -0.2791333361,
				"y": 1.8626584043,
				"z": 1.3525346881,
				"element": "C" 
			},
			{
				"x": -0.2365816915,
				"y": 1.0199118136,
				"z": 2.2288177303,
				"element": "O" 
			},
			{
				"x": 0.0633333777,
				"y": 3.1585250869,
				"z": 1.5543533605,
				"element": "O" 
			},
			{
				"x": 0.5149665416,
				"y": 3.4949803536,
				"z": 2.8795824264,
				"element": "C" 
			},
			{
				"x": -0.6422983312,
				"y": 3.6191097036,
				"z": 3.8944867621,
				"element": "C" 
			},
			{
				"x": -0.1135845353,
				"y": 3.562882506,
				"z": 5.2507742647,
				"element": "N" 
			},
			{
				"x": 0.0196410019,
				"y": 2.4950315939,
				"z": 6.0984738592,
				"element": "C" 
			},
			{
				"x": 0.5261135282,
				"y": 2.5982433096,
				"z": 7.1982379675,
				"element": "O" 
			},
			{
				"x": -0.5340988451,
				"y": 1.1490778538,
				"z": 5.562592785,
				"element": "C" 
			},
			{
				"x": 0.1849034553,
				"y": -0.2234499629,
				"z": 6.4290787959,
				"element": "Cl" 
			},
			{
				"x": -2.3471522991,
				"y": 1.1648097414,
				"z": 5.7414538945,
				"element": "Cl" 
			},
			{
				"x": -1.457205345,
				"y": 4.9288857071,
				"z": 3.7680491424,
				"element": "C" 
			},
			{
				"x": -0.5344655848,
				"y": 5.9839563206,
				"z": 4.0236810572,
				"element": "O" 
			},
			{
				"x": -2.1810911784,
				"y": 5.0795323544,
				"z": 2.4381874064,
				"element": "C" 
			},
			{
				"x": -3.3539133337,
				"y": 4.3454806919,
				"z": 2.203506738,
				"element": "C" 
			},
			{
				"x": -4.0356407402,
				"y": 4.4598487114,
				"z": 0.9963846339,
				"element": "C" 
			},
			{
				"x": -3.5345949469,
				"y": 5.329287573,
				"z": 0.0277016267,
				"element": "C" 
			},
			{
				"x": -2.3805223598,
				"y": 6.0798147675,
				"z": 0.2368109769,
				"element": "C" 
			},
			{
				"x": -1.7066284799,
				"y": 5.9482599855,
				"z": 1.448538906,
				"element": "C" 
			},
			{
				"x": -4.2509459245,
				"y": 5.460964961,
				"z": -1.2512601009,
				"element": "N" 
			},
			{
				"x": -5.260155801,
				"y": 4.7755251232,
				"z": -1.4118120826,
				"element": "O" 
			},
			{
				"x": -3.7951053941,
				"y": 6.2460604048,
				"z": -2.08161415,
				"element": "O" 
			},
			{
				"x": -1.2311727167,
				"y": -8.7290967446,
				"z": -4.581285717,
				"element": "H" 
			},
			{
				"x": -0.6190336934,
				"y": -10.1710040967,
				"z": -3.7631735967,
				"element": "H" 
			},
			{
				"x": -2.1509237658,
				"y": -9.4482468589,
				"z": -3.2528604383,
				"element": "H" 
			},
			{
				"x": -0.9540642858,
				"y": -7.4098743501,
				"z": -2.4458294385,
				"element": "H" 
			},
			{
				"x": -0.3361916808,
				"y": -8.8371251878,
				"z": -1.6336686107,
				"element": "H" 
			},
			{
				"x": 1.572241643,
				"y": -8.9370404532,
				"z": -3.2729981221,
				"element": "H" 
			},
			{
				"x": 0.9936230914,
				"y": -7.4656853788,
				"z": -4.0325920362,
				"element": "H" 
			},
			{
				"x": 2.9056810728,
				"y": -7.1347869783,
				"z": -2.4310258238,
				"element": "H" 
			},
			{
				"x": 1.8988412652,
				"y": -7.6903150805,
				"z": -1.1061545829,
				"element": "H" 
			},
			{
				"x": 1.3245629942,
				"y": -5.2138792969,
				"z": -2.8236942628,
				"element": "H" 
			},
			{
				"x": 0.3221494603,
				"y": -5.7717467176,
				"z": -1.4964928812,
				"element": "H" 
			},
			{
				"x": 1.6363472184,
				"y": -3.9782804515,
				"z": -0.6441321951,
				"element": "H" 
			},
			{
				"x": 2.2516021186,
				"y": -5.4434366381,
				"z": 0.096044986,
				"element": "H" 
			},
			{
				"x": 4.1506376216,
				"y": -5.4744514188,
				"z": -1.5661372503,
				"element": "H" 
			},
			{
				"x": 3.5347822975,
				"y": -4.0051215091,
				"z": -2.2904674869,
				"element": "H" 
			},
			{
				"x": 5.4574602182,
				"y": -3.6432044158,
				"z": -0.7173815165,
				"element": "H" 
			},
			{
				"x": 4.5232267643,
				"y": -4.3301979374,
				"z": 0.5987427451,
				"element": "H" 
			},
			{
				"x": 4.5475469334,
				"y": -1.9219620929,
				"z": 0.8125643075,
				"element": "H" 
			},
			{
				"x": 2.9073675414,
				"y": -2.4285439284,
				"z": 0.4745869398,
				"element": "H" 
			},
			{
				"x": 4.8571547384,
				"y": -1.3628472124,
				"z": -1.6396714009,
				"element": "H" 
			},
			{
				"x": 3.1683900527,
				"y": -1.72181399,
				"z": -1.9193082759,
				"element": "H" 
			},
			{
				"x": 3.6430913981,
				"y": 0.7255189554,
				"z": -1.6536642604,
				"element": "H" 
			},
			{
				"x": 4.2692143287,
				"y": 0.4372393281,
				"z": -0.0405240105,
				"element": "H" 
			},
			{
				"x": 2.0707869839,
				"y": 1.3548155659,
				"z": 0.165807096,
				"element": "H" 
			},
			{
				"x": 1.9798046441,
				"y": -0.305507623,
				"z": 0.7158505397,
				"element": "H" 
			},
			{
				"x": 1.0945882605,
				"y": 0.7211886272,
				"z": -2.0351843352,
				"element": "H" 
			},
			{
				"x": 1.0570351252,
				"y": -0.967080204,
				"z": -1.5644307321,
				"element": "H" 
			},
			{
				"x": -0.6088287526,
				"y": -0.5019269073,
				"z": 0.2119807486,
				"element": "H" 
			},
			{
				"x": -1.1646585677,
				"y": -0.0189252633,
				"z": -1.3846072298,
				"element": "H" 
			},
			{
				"x": -0.3685718581,
				"y": 2.4126735525,
				"z": -0.7132890469,
				"element": "H" 
			},
			{
				"x": -1.8492266229,
				"y": 1.7693840522,
				"z": -0.0251850835,
				"element": "H" 
			},
			{
				"x": 1.0442190822,
				"y": 4.4431719169,
				"z": 2.7771438491,
				"element": "H" 
			},
			{
				"x": 1.2067391026,
				"y": 2.7261883295,
				"z": 3.2296026765,
				"element": "H" 
			},
			{
				"x": -1.3330054014,
				"y": 2.7893094357,
				"z": 3.7434838269,
				"element": "H" 
			},
			{
				"x": 0.2512573562,
				"y": 4.432427732,
				"z": 5.6218956391,
				"element": "H" 
			},
			{
				"x": -0.3428552514,
				"y": 0.997177317,
				"z": 4.5007595365,
				"element": "H" 
			},
			{
				"x": -2.2120932449,
				"y": 4.8859016293,
				"z": 4.5670417678,
				"element": "H" 
			},
			{
				"x": -1.0292924177,
				"y": 6.8013884858,
				"z": 4.1653099453,
				"element": "H" 
			},
			{
				"x": -3.7412140989,
				"y": 3.6824898842,
				"z": 2.9730780199,
				"element": "H" 
			},
			{
				"x": -4.9433058427,
				"y": 3.9042511945,
				"z": 0.7964025282,
				"element": "H" 
			},
			{
				"x": -2.0298943015,
				"y": 6.7451580502,
				"z": -0.5422726001,
				"element": "H" 
			},
			{
				"x": -0.8028888214,
				"y": 6.5184921248,
				"z": 1.6321048016,
				"element": "H" 
			}
		],
		 "valence_orbital": [ 
			{
				"type": "occ",
				"energy": -0.29438,
				"method": "rhf"
			},
			{
				"type": "occ",
				"energy": -0.29142,
				"method": "rhf"
			},
			{
				"type": "occ",
				"energy": -0.28822,
				"method": "rhf"
			},
			{
				"type": "occ",
				"energy": -0.2719,
				"method": "rhf"
			},
			{
				"type": "occ",
				"energy": -0.26869,
				"method": "rhf"
			},
			{
				"type": "unocc",
				"energy": -0.09992,
				"method": "rhf"
			},
			{
				"type": "unocc",
				"energy": -0.04338,
				"method": "rhf"
			},
			{
				"type": "unocc",
				"energy": -0.03587,
				"method": "rhf"
			},
			{
				"type": "unocc",
				"energy": -0.0162,
				"method": "rhf"
			},
			{
				"type": "unocc",
				"energy": -0.01029,
				"method": "rhf"
			}
		],
		"cosmo_sigma_profile": { 
			"-0.025": 0.0,
			"-0.024": 0.0,
			"-0.023": 0.0,
			"-0.022": 0.0,
			"-0.021": 0.0,
			"-0.02": 0.0,
			"-0.019": 0.0,
			"-0.018": 0.0145812260002,
			"-0.017": 0.7597769704,
			"-0.016": 1.28984387255,
			"-0.015": 1.01791295779,
			"-0.014": 0.67753052282,
			"-0.013": 0.672026244952,
			"-0.012": 2.04376379773,
			"-0.011": 1.30007590183,
			"-0.01": 1.2708360678,
			"-0.009": 2.98860578984,
			"-0.008": 5.11742342591,
			"-0.007": 10.8998833305,
			"-0.006": 18.5676772584,
			"-0.005": 21.0717451985,
			"-0.004": 25.1674967165,
			"-0.003": 31.5198684804,
			"-0.002": 69.7555910662,
			"-0.001": 103.633338023,
			"0.0": 100.976753272,
			"0.001": 91.1407065115,
			"0.002": 45.887908771,
			"0.003": 20.0085841524,
			"0.004": 23.8200291785,
			"0.005": 11.6879474969,
			"0.006": 8.86712040336,
			"0.007": 12.8135393689,
			"0.008": 11.9668575005,
			"0.009": 7.65465062765,
			"0.01": 6.50257600455,
			"0.011": 4.11947950008,
			"0.012": 5.86701851319,
			"0.013": 2.73745075069,
			"0.014": 0.0855656304392,
			"0.015": 0.0,
			"0.016": 0.0,
			"0.017": 0.0,
			"0.018": 0.0,
			"0.019": 0.0,
			"0.02": 0.0,
			"0.021": 0.0,
			"0.022": 0.0,
			"0.023": 0.0,
			"0.024": 0.0,
			"0.025": 0.0
		}
	}
}
