{
	 "smiles": "CN(C)C(C)(C)CO", 
	 "Tm": 292.15, 
	 "num_atms": 23, 
	 "gaussian": { 
		 "optdone": 1, 
		 "sigma_profile": "yes", 
		 "theory": "DFT", 
		 "functional": "B3LYP", 
		 "basiset": "6-31G**", 
		 "properties": { 
			 "R2extent": 1270.6155, 
			 "electric_dipole_moment_norm": 1.24789123725, 
			 "electric_quadrupole_moment_norm": 6.32719893476, 
			 "total_energy": -367.632099214, 
			 "HOMO_LUMO_gap": 0.25615, 
			 "cosmo_polarized_energy": -6.83, 
			 "cosmo_cavitation_energy": 22.7, 
			 "cosmo_dispersion_energy": -16.65, 
			 "cosmo_repulsion_energy": 1.34, 
			 "cosmo_total_nonelectrostatic_energy": 7.39, 
			 "SMD_solvation_energy": 2.75 
		},
		"coords": [
			{
				"x": 1.9438451331,
				"y": -0.4511613655,
				"z": -2.2001848932,
				"element": "C" 
			},
			{
				"x": 1.8385264729,
				"y": 0.2341115134,
				"z": -0.921063999,
				"element": "N" 
			},
			{
				"x": 2.0021700022,
				"y": 1.6701225295,
				"z": -1.1075737701,
				"element": "C" 
			},
			{
				"x": 0.7598745295,
				"y": -0.2518314708,
				"z": -0.0116565787,
				"element": "C" 
			},
			{
				"x": 1.1352868421,
				"y": -1.6703145042,
				"z": 0.4685045542,
				"element": "C" 
			},
			{
				"x": 0.6573230312,
				"y": 0.6586620278,
				"z": 1.2234575367,
				"element": "C" 
			},
			{
				"x": -0.6314551946,
				"y": -0.3287170703,
				"z": -0.6925570828,
				"element": "C" 
			},
			{
				"x": -1.1327556349,
				"y": 0.9272542357,
				"z": -1.1343776426,
				"element": "O" 
			},
			{
				"x": 1.9072278912,
				"y": -1.534997733,
				"z": -2.075061504,
				"element": "H" 
			},
			{
				"x": 2.908352487,
				"y": -0.2071508322,
				"z": -2.6597129128,
				"element": "H" 
			},
			{
				"x": 1.1606294012,
				"y": -0.1722722614,
				"z": -2.934665449,
				"element": "H" 
			},
			{
				"x": 2.018482868,
				"y": 2.1951496024,
				"z": -0.1529427259,
				"element": "H" 
			},
			{
				"x": 2.9674644326,
				"y": 1.8488185794,
				"z": -1.5961763629,
				"element": "H" 
			},
			{
				"x": 1.2303749063,
				"y": 2.1506797671,
				"z": -1.7390601921,
				"element": "H" 
			},
			{
				"x": 0.4055761079,
				"y": -2.0334979391,
				"z": 1.1993010065,
				"element": "H" 
			},
			{
				"x": 1.1643265402,
				"y": -2.3987535942,
				"z": -0.3474117962,
				"element": "H" 
			},
			{
				"x": 2.1210212376,
				"y": -1.6522741372,
				"z": 0.9408982017,
				"element": "H" 
			},
			{
				"x": 0.0143942322,
				"y": 0.1844344645,
				"z": 1.9711694768,
				"element": "H" 
			},
			{
				"x": 0.212775911,
				"y": 1.6247460934,
				"z": 0.9759675272,
				"element": "H" 
			},
			{
				"x": 1.6412596935,
				"y": 0.8163833926,
				"z": 1.6759816989,
				"element": "H" 
			},
			{
				"x": -0.6027200359,
				"y": -1.0545189188,
				"z": -1.5190242994,
				"element": "H" 
			},
			{
				"x": -1.36204859,
				"y": -0.7049166249,
				"z": 0.0324628201,
				"element": "H" 
			},
			{
				"x": -0.6408322644,
				"y": 1.179744246,
				"z": -1.9249736136,
				"element": "H" 
			}
		],
		 "valence_orbital": [ 
			{
				"type": "occ",
				"energy": -0.34112,
				"method": "rhf"
			},
			{
				"type": "occ",
				"energy": -0.33283,
				"method": "rhf"
			},
			{
				"type": "occ",
				"energy": -0.31632,
				"method": "rhf"
			},
			{
				"type": "occ",
				"energy": -0.26972,
				"method": "rhf"
			},
			{
				"type": "occ",
				"energy": -0.19969,
				"method": "rhf"
			},
			{
				"type": "unocc",
				"energy": 0.05646,
				"method": "rhf"
			},
			{
				"type": "unocc",
				"energy": 0.09196,
				"method": "rhf"
			},
			{
				"type": "unocc",
				"energy": 0.11438,
				"method": "rhf"
			},
			{
				"type": "unocc",
				"energy": 0.12975,
				"method": "rhf"
			},
			{
				"type": "unocc",
				"energy": 0.12987,
				"method": "rhf"
			}
		],
		"cosmo_sigma_profile": { 
			"-0.025": 0.0,
			"-0.024": 0.0,
			"-0.023": 0.0,
			"-0.022": 0.0,
			"-0.021": 0.0,
			"-0.02": 0.0,
			"-0.019": 0.0,
			"-0.018": 0.0,
			"-0.017": 0.0,
			"-0.016": 0.0,
			"-0.015": 0.0,
			"-0.014": 0.00972172841103,
			"-0.013": 0.447071120012,
			"-0.012": 0.801293232154,
			"-0.011": 1.03153294944,
			"-0.01": 1.53896810986,
			"-0.009": 1.41348000702,
			"-0.008": 0.735354183809,
			"-0.007": 1.39099437835,
			"-0.006": 1.08125816838,
			"-0.005": 2.80946223905,
			"-0.004": 8.7260681257,
			"-0.003": 23.6421678644,
			"-0.002": 24.9702030276,
			"-0.001": 23.9894033448,
			"0.0": 26.5973779324,
			"0.001": 17.7116711192,
			"0.002": 8.56519289898,
			"0.003": 3.96438711836,
			"0.004": 2.65276854148,
			"0.005": 2.82518976405,
			"0.006": 1.96464758477,
			"0.007": 2.44920050456,
			"0.008": 2.30685735539,
			"0.009": 1.83220210954,
			"0.01": 1.80991824633,
			"0.011": 1.39014259881,
			"0.012": 1.88344441832,
			"0.013": 2.24619411227,
			"0.014": 2.00090234831,
			"0.015": 1.22997926784,
			"0.016": 0.087651848412,
			"0.017": 0.0,
			"0.018": 0.0,
			"0.019": 0.0,
			"0.02": 0.0,
			"0.021": 0.0,
			"0.022": 0.0,
			"0.023": 0.0,
			"0.024": 0.0,
			"0.025": 0.0
		}
	}
}
