{
	 "smiles": "CC(C)C(NC(=O)C1=CC=C(Cl)C=C1)C(O)=O", 
	 "Tm": 471.15, 
	 "num_atms": 31, 
	 "gaussian": { 
		 "optdone": 1, 
		 "sigma_profile": "yes", 
		 "theory": "DFT", 
		 "functional": "B3LYP", 
		 "basiset": "6-31G**", 
		 "properties": { 
			 "R2extent": 5836.8681, 
			 "electric_dipole_moment_norm": 2.27532565362, 
			 "electric_quadrupole_moment_norm": 13.6646552371, 
			 "total_energy": -1206.36608934, 
			 "HOMO_LUMO_gap": 0.20176, 
			 "cosmo_polarized_energy": -16.85, 
			 "cosmo_cavitation_energy": 36.34, 
			 "cosmo_dispersion_energy": -24.87, 
			 "cosmo_repulsion_energy": 1.96, 
			 "cosmo_total_nonelectrostatic_energy": 13.43, 
			 "SMD_solvation_energy": 7.67 
		},
		"coords": [
			{
				"x": -1.2164012806,
				"y": -1.7200453006,
				"z": 3.0190585853,
				"element": "C" 
			},
			{
				"x": -1.4743906397,
				"y": -1.2322540442,
				"z": 1.5852533556,
				"element": "C" 
			},
			{
				"x": -2.2445250874,
				"y": 0.0944031537,
				"z": 1.5739357226,
				"element": "C" 
			},
			{
				"x": -0.1719501085,
				"y": -1.1207989177,
				"z": 0.7451659583,
				"element": "C" 
			},
			{
				"x": 0.7945424756,
				"y": -0.1836208232,
				"z": 1.2942437857,
				"element": "N" 
			},
			{
				"x": 1.1367398743,
				"y": 1.0694789579,
				"z": 0.8294879341,
				"element": "C" 
			},
			{
				"x": 1.5700575924,
				"y": 1.9209198065,
				"z": 1.5984035337,
				"element": "O" 
			},
			{
				"x": 1.0085710394,
				"y": 1.3576889604,
				"z": -0.6397171673,
				"element": "C" 
			},
			{
				"x": 0.6211900546,
				"y": 2.6518166007,
				"z": -1.0138801495,
				"element": "C" 
			},
			{
				"x": 0.5410137688,
				"y": 3.0121511849,
				"z": -2.3556615567,
				"element": "C" 
			},
			{
				"x": 0.8822611727,
				"y": 2.072974016,
				"z": -3.3309686078,
				"element": "C" 
			},
			{
				"x": 0.7911712909,
				"y": 2.5198880399,
				"z": -5.0265973256,
				"element": "Cl" 
			},
			{
				"x": 1.304303428,
				"y": 0.7904508955,
				"z": -2.983279639,
				"element": "C" 
			},
			{
				"x": 1.3625614749,
				"y": 0.4360251193,
				"z": -1.6351104551,
				"element": "C" 
			},
			{
				"x": 0.4252070232,
				"y": -2.5112998224,
				"z": 0.4834006714,
				"element": "C" 
			},
			{
				"x": 1.7608560945,
				"y": -2.4859493402,
				"z": 0.2718249804,
				"element": "O" 
			},
			{
				"x": -0.2241621364,
				"y": -3.531940125,
				"z": 0.4199582488,
				"element": "O" 
			},
			{
				"x": -0.6892992869,
				"y": -2.6786763833,
				"z": 3.0317505428,
				"element": "H" 
			},
			{
				"x": -0.6381418291,
				"y": -0.9932952866,
				"z": 3.6025902589,
				"element": "H" 
			},
			{
				"x": -2.1661730765,
				"y": -1.8603019471,
				"z": 3.5440699232,
				"element": "H" 
			},
			{
				"x": -2.0757998178,
				"y": -1.9949951605,
				"z": 1.0791585778,
				"element": "H" 
			},
			{
				"x": -1.676706063,
				"y": 0.8917361001,
				"z": 2.0653009846,
				"element": "H" 
			},
			{
				"x": -2.4696637521,
				"y": 0.4218555815,
				"z": 0.5529099746,
				"element": "H" 
			},
			{
				"x": -3.1946401472,
				"y": -0.0123075007,
				"z": 2.1065808965,
				"element": "H" 
			},
			{
				"x": -0.4559026784,
				"y": -0.7504639193,
				"z": -0.246252001,
				"element": "H" 
			},
			{
				"x": 0.9821290381,
				"y": -0.2649406253,
				"z": 2.2864921014,
				"element": "H" 
			},
			{
				"x": 0.3915891864,
				"y": 3.3736066643,
				"z": -0.2372361717,
				"element": "H" 
			},
			{
				"x": 0.2283461581,
				"y": 4.0087375026,
				"z": -2.6467383334,
				"element": "H" 
			},
			{
				"x": 1.5895185714,
				"y": 0.0842553393,
				"z": -3.7551072214,
				"element": "H" 
			},
			{
				"x": 1.7180744844,
				"y": -0.5514026871,
				"z": -1.3585133381,
				"element": "H" 
			},
			{
				"x": 2.0156231759,
				"y": -3.4037960393,
				"z": 0.0742759309,
				"element": "H" 
			}
		],
		 "valence_orbital": [ 
			{
				"type": "occ",
				"energy": -0.30218,
				"method": "rhf"
			},
			{
				"type": "occ",
				"energy": -0.27376,
				"method": "rhf"
			},
			{
				"type": "occ",
				"energy": -0.26705,
				"method": "rhf"
			},
			{
				"type": "occ",
				"energy": -0.25621,
				"method": "rhf"
			},
			{
				"type": "occ",
				"energy": -0.24553,
				"method": "rhf"
			},
			{
				"type": "unocc",
				"energy": -0.04377,
				"method": "rhf"
			},
			{
				"type": "unocc",
				"energy": -0.02367,
				"method": "rhf"
			},
			{
				"type": "unocc",
				"energy": -0.01033,
				"method": "rhf"
			},
			{
				"type": "unocc",
				"energy": 0.02398,
				"method": "rhf"
			},
			{
				"type": "unocc",
				"energy": 0.03966,
				"method": "rhf"
			}
		],
		"cosmo_sigma_profile": { 
			"-0.025": 0.0,
			"-0.024": 0.0,
			"-0.023": 0.0,
			"-0.022": 0.0,
			"-0.021": 0.0,
			"-0.02": 0.0,
			"-0.019": 0.202685875428,
			"-0.018": 1.04427667616,
			"-0.017": 0.949196862497,
			"-0.016": 0.627309566787,
			"-0.015": 0.747421636031,
			"-0.014": 0.880027725465,
			"-0.013": 0.872729516932,
			"-0.012": 1.62325434154,
			"-0.011": 1.38148634497,
			"-0.01": 2.16048217166,
			"-0.009": 1.89739021264,
			"-0.008": 5.44839855317,
			"-0.007": 9.08886988359,
			"-0.006": 10.8809156222,
			"-0.005": 10.9361284136,
			"-0.004": 14.3072747575,
			"-0.003": 24.348151583,
			"-0.002": 26.1560962259,
			"-0.001": 24.6168914782,
			"0.0": 26.636636135,
			"0.001": 27.0729870121,
			"0.002": 23.0677140032,
			"0.003": 16.2343544562,
			"0.004": 13.6971383999,
			"0.005": 6.81511118682,
			"0.006": 4.27765185934,
			"0.007": 5.04357915613,
			"0.008": 2.1281241133,
			"0.009": 4.33574024216,
			"0.01": 3.6762778025,
			"0.011": 6.26383756702,
			"0.012": 4.20919165568,
			"0.013": 5.42816727449,
			"0.014": 2.49996333357,
			"0.015": 0.0240529113513,
			"0.016": 0.0,
			"0.017": 0.0,
			"0.018": 0.0,
			"0.019": 0.0,
			"0.02": 0.0,
			"0.021": 0.0,
			"0.022": 0.0,
			"0.023": 0.0,
			"0.024": 0.0,
			"0.0": 0.0
		}
	}
}
