{
	 "smiles": "COC(=O)C1=CC(=CC=C1)C1=CC(=CC=C1)C(=O)OC", 
	 "Tm": 373.15, 
	 "num_atms": 34, 
	 "gaussian": { 
		 "optdone": 1, 
		 "sigma_profile": "yes", 
		 "theory": "DFT", 
		 "functional": "B3LYP", 
		 "basiset": "6-31G**", 
		 "properties": { 
			 "R2extent": 7836.0368, 
			 "electric_dipole_moment_norm": 0.349636754361, 
			 "electric_quadrupole_moment_norm": 28.0832689356, 
			 "total_energy": -919.068293508, 
			 "HOMO_LUMO_gap": 0.18377, 
			 "cosmo_polarized_energy": -12.68, 
			 "cosmo_cavitation_energy": 39.53, 
			 "cosmo_dispersion_energy": -28.07, 
			 "cosmo_repulsion_energy": 2.16, 
			 "cosmo_total_nonelectrostatic_energy": 13.62, 
			 "SMD_solvation_energy": 9.68 
		},
		"coords": [
			{
				"x": 4.2255809301,
				"y": 1.2487444357,
				"z": 1.2370589496,
				"element": "C" 
			},
			{
				"x": 2.8193168267,
				"y": 1.0488470041,
				"z": 1.0283936998,
				"element": "O" 
			},
			{
				"x": 2.0659340129,
				"y": 1.0435884275,
				"z": 2.1521459003,
				"element": "C" 
			},
			{
				"x": 2.5340509433,
				"y": 1.1930805711,
				"z": 3.2642213557,
				"element": "O" 
			},
			{
				"x": 0.6165257139,
				"y": 0.8345460767,
				"z": 1.86885655,
				"element": "C" 
			},
			{
				"x": 0.126707687,
				"y": 0.6711983862,
				"z": 0.5681344305,
				"element": "C" 
			},
			{
				"x": -1.2434258323,
				"y": 0.4826756621,
				"z": 0.334813469,
				"element": "C" 
			},
			{
				"x": -2.1110071515,
				"y": 0.4631672445,
				"z": 1.4405499873,
				"element": "C" 
			},
			{
				"x": -1.6258285282,
				"y": 0.6284175722,
				"z": 2.7380754447,
				"element": "C" 
			},
			{
				"x": -0.2638050208,
				"y": 0.8139236447,
				"z": 2.9583555401,
				"element": "C" 
			},
			{
				"x": -1.7627761934,
				"y": 0.3089260418,
				"z": -1.0470874505,
				"element": "C" 
			},
			{
				"x": -1.0455194227,
				"y": -0.4356322781,
				"z": -1.9949387132,
				"element": "C" 
			},
			{
				"x": -1.5337511507,
				"y": -0.5998310635,
				"z": -3.2961499929,
				"element": "C" 
			},
			{
				"x": -2.7540460002,
				"y": -0.0200869294,
				"z": -3.6665410114,
				"element": "C" 
			},
			{
				"x": -3.4745950743,
				"y": 0.7202401856,
				"z": -2.7333901082,
				"element": "C" 
			},
			{
				"x": -2.9841649382,
				"y": 0.8845606287,
				"z": -1.4377223129,
				"element": "C" 
			},
			{
				"x": -0.8002898992,
				"y": -1.3902712553,
				"z": -4.3266826809,
				"element": "C" 
			},
			{
				"x": -1.1884772649,
				"y": -1.5615224289,
				"z": -5.4660566965,
				"element": "O" 
			},
			{
				"x": 0.3598796628,
				"y": -1.9048015171,
				"z": -3.8580118776,
				"element": "O" 
			},
			{
				"x": 1.1110606618,
				"y": -2.679210629,
				"z": -4.8051704671,
				"element": "C" 
			},
			{
				"x": 4.6385155676,
				"y": 0.4547564921,
				"z": 1.8644095098,
				"element": "H" 
			},
			{
				"x": 4.6762565772,
				"y": 1.2270652217,
				"z": 0.2448749577,
				"element": "H" 
			},
			{
				"x": 4.4099929319,
				"y": 2.2107117299,
				"z": 1.7218940942,
				"element": "H" 
			},
			{
				"x": 0.8178787089,
				"y": 0.7134502048,
				"z": -0.2654651918,
				"element": "H" 
			},
			{
				"x": -3.1720004783,
				"y": 0.293052004,
				"z": 1.2825808989,
				"element": "H" 
			},
			{
				"x": -2.3135312036,
				"y": 0.6027009787,
				"z": 3.5781301715,
				"element": "H" 
			},
			{
				"x": 0.1388462027,
				"y": 0.9434398851,
				"z": 3.9569482533,
				"element": "H" 
			},
			{
				"x": -0.1117160292,
				"y": -0.9104818014,
				"z": -1.7175930817,
				"element": "H" 
			},
			{
				"x": -3.1125536571,
				"y": -0.1616975755,
				"z": -4.6802026365,
				"element": "H" 
			},
			{
				"x": -4.4171943197,
				"y": 1.1799075748,
				"z": -3.0153527106,
				"element": "H" 
			},
			{
				"x": -3.5418550939,
				"y": 1.4858784788,
				"z": -0.7256880291,
				"element": "H" 
			},
			{
				"x": 2.0005883906,
				"y": -3.0142060619,
				"z": -4.2717604678,
				"element": "H" 
			},
			{
				"x": 1.3875192815,
				"y": -2.0688940892,
				"z": -5.6686449979,
				"element": "H" 
			},
			{
				"x": 0.5265831593,
				"y": -3.5347428214,
				"z": -5.1528847855,
				"element": "H" 
			}
		],
		 "valence_orbital": [ 
			{
				"type": "occ",
				"energy": -0.27497,
				"method": "rhf"
			},
			{
				"type": "occ",
				"energy": -0.27429,
				"method": "rhf"
			},
			{
				"type": "occ",
				"energy": -0.26342,
				"method": "rhf"
			},
			{
				"type": "occ",
				"energy": -0.26298,
				"method": "rhf"
			},
			{
				"type": "occ",
				"energy": -0.23642,
				"method": "rhf"
			},
			{
				"type": "unocc",
				"energy": -0.05265,
				"method": "rhf"
			},
			{
				"type": "unocc",
				"energy": -0.04575,
				"method": "rhf"
			},
			{
				"type": "unocc",
				"energy": -0.03171,
				"method": "rhf"
			},
			{
				"type": "unocc",
				"energy": 0.00935,
				"method": "rhf"
			},
			{
				"type": "unocc",
				"energy": 0.04739,
				"method": "rhf"
			}
		],
		"cosmo_sigma_profile": { 
			"-0.025": 0.0,
			"-0.024": 0.0,
			"-0.023": 0.0,
			"-0.022": 0.0,
			"-0.021": 0.0,
			"-0.02": 0.0,
			"-0.019": 0.0,
			"-0.018": 0.0,
			"-0.017": 0.0,
			"-0.016": 0.0,
			"-0.015": 0.0,
			"-0.014": 0.0,
			"-0.013": 0.0,
			"-0.012": 0.0,
			"-0.011": 0.0,
			"-0.01": 0.0,
			"-0.009": 0.0,
			"-0.008": 0.0,
			"-0.007": 4.88372924014,
			"-0.006": 22.1077369122,
			"-0.005": 28.2154012888,
			"-0.004": 28.730143158,
			"-0.003": 29.4235630097,
			"-0.002": 22.7845247368,
			"-0.001": 18.9093680287,
			"0.0": 22.625707352,
			"0.001": 27.7969048389,
			"0.002": 26.1496973154,
			"0.003": 30.3065509778,
			"0.004": 13.687037413,
			"0.005": 8.36249850277,
			"0.006": 6.11674880517,
			"0.007": 1.57074654645,
			"0.008": 3.40487685442,
			"0.009": 2.97742096206,
			"0.01": 3.47012903891,
			"0.011": 6.31490782678,
			"0.012": 8.18184766482,
			"0.013": 0.34511503317,
			"0.014": 0.0,
			"0.015": 0.0,
			"0.016": 0.0,
			"0.017": 0.0,
			"0.018": 0.0,
			"0.019": 0.0,
			"0.02": 0.0,
			"0.021": 0.0,
			"0.022": 0.0,
			"0.023": 0.0,
			"0.024": 0.0,
			"0.025": 0.0
		}
	}
}
