{
	 "smiles": "OC1=NC2=C(C=CC=C2)C(=O)N1C1=CC=CC=C1", 
	 "Tm": 491.15, 
	 "num_atms": 28, 
	 "gaussian": { 
		 "optdone": 1, 
		 "sigma_profile": "yes", 
		 "theory": "DFT", 
		 "functional": "B3LYP", 
		 "basiset": "6-31G**", 
		 "properties": { 
			 "R2extent": 4866.753, 
			 "electric_dipole_moment_norm": 2.2506788487, 
			 "electric_quadrupole_moment_norm": 12.1864458137, 
			 "total_energy": -799.497842605, 
			 "HOMO_LUMO_gap": 0.18093, 
			 "cosmo_polarized_energy": -14.12, 
			 "cosmo_cavitation_energy": 32.79, 
			 "cosmo_dispersion_energy": -23.76, 
			 "cosmo_repulsion_energy": 1.81, 
			 "cosmo_total_nonelectrostatic_energy": 10.84, 
			 "SMD_solvation_energy": 5.26 
		},
		"coords": [
			{
				"x": 2.4186159339,
				"y": 0.6888029287,
				"z": -0.9898843574,
				"element": "O" 
			},
			{
				"x": 1.1828761127,
				"y": 0.5846102673,
				"z": -0.4722554275,
				"element": "C" 
			},
			{
				"x": 0.4132443964,
				"y": 1.6214239883,
				"z": -0.4394077826,
				"element": "N" 
			},
			{
				"x": -0.8528738088,
				"y": 1.4582751036,
				"z": 0.0990366324,
				"element": "C" 
			},
			{
				"x": -1.3006351001,
				"y": 0.2112199952,
				"z": 0.5893943376,
				"element": "C" 
			},
			{
				"x": -2.5914456412,
				"y": 0.0785523101,
				"z": 1.1272689706,
				"element": "C" 
			},
			{
				"x": -3.4364414305,
				"y": 1.1759359803,
				"z": 1.180605328,
				"element": "C" 
			},
			{
				"x": -2.9949678558,
				"y": 2.4196140112,
				"z": 0.6934534772,
				"element": "C" 
			},
			{
				"x": -1.7233059563,
				"y": 2.5638099845,
				"z": 0.159440354,
				"element": "C" 
			},
			{
				"x": -0.412892489,
				"y": -0.9548913171,
				"z": 0.5383699857,
				"element": "C" 
			},
			{
				"x": -0.6907590984,
				"y": -2.0784460871,
				"z": 0.9234082352,
				"element": "O" 
			},
			{
				"x": 0.8723588831,
				"y": -0.6802210892,
				"z": -0.0203099411,
				"element": "N" 
			},
			{
				"x": 1.8298123643,
				"y": -1.7610364553,
				"z": -0.1001438085,
				"element": "C" 
			},
			{
				"x": 1.6577904483,
				"y": -2.7613665759,
				"z": -1.0565548165,
				"element": "C" 
			},
			{
				"x": 2.5756189395,
				"y": -3.8088682676,
				"z": -1.1258696177,
				"element": "C" 
			},
			{
				"x": 3.6585043185,
				"y": -3.8526224077,
				"z": -0.2453812872,
				"element": "C" 
			},
			{
				"x": 3.8211864021,
				"y": -2.8484704875,
				"z": 0.7107497127,
				"element": "C" 
			},
			{
				"x": 2.9033219294,
				"y": -1.8011840996,
				"z": 0.7891659947,
				"element": "C" 
			},
			{
				"x": 2.4960715769,
				"y": 1.6152589326,
				"z": -1.2698645281,
				"element": "H" 
			},
			{
				"x": -2.8957530744,
				"y": -0.8967020376,
				"z": 1.4926714382,
				"element": "H" 
			},
			{
				"x": -4.4346092438,
				"y": 1.0780316271,
				"z": 1.5959072007,
				"element": "H" 
			},
			{
				"x": -3.6582658668,
				"y": 3.279150423,
				"z": 0.7354489729,
				"element": "H" 
			},
			{
				"x": -1.370679277,
				"y": 3.5170997208,
				"z": -0.2202144741,
				"element": "H" 
			},
			{
				"x": 0.8095381313,
				"y": -2.7184235422,
				"z": -1.7313482945,
				"element": "H" 
			},
			{
				"x": 2.4431903404,
				"y": -4.5907469615,
				"z": -1.8675429094,
				"element": "H" 
			},
			{
				"x": 4.3723254543,
				"y": -4.6690832381,
				"z": -0.3024171326,
				"element": "H" 
			},
			{
				"x": 4.6598432826,
				"y": -2.8807645724,
				"z": 1.3996884027,
				"element": "H" 
			},
			{
				"x": 3.0152303285,
				"y": -1.0180581338,
				"z": 1.5319853349,
				"element": "H" 
			}
		],
		 "valence_orbital": [ 
			{
				"type": "occ",
				"energy": -0.26571,
				"method": "rhf"
			},
			{
				"type": "occ",
				"energy": -0.25833,
				"method": "rhf"
			},
			{
				"type": "occ",
				"energy": -0.2559,
				"method": "rhf"
			},
			{
				"type": "occ",
				"energy": -0.25313,
				"method": "rhf"
			},
			{
				"type": "occ",
				"energy": -0.22178,
				"method": "rhf"
			},
			{
				"type": "unocc",
				"energy": -0.04085,
				"method": "rhf"
			},
			{
				"type": "unocc",
				"energy": -0.02097,
				"method": "rhf"
			},
			{
				"type": "unocc",
				"energy": -0.0104,
				"method": "rhf"
			},
			{
				"type": "unocc",
				"energy": -0.00753,
				"method": "rhf"
			},
			{
				"type": "unocc",
				"energy": 0.03549,
				"method": "rhf"
			}
		],
		"cosmo_sigma_profile": { 
			"-0.025": 0.0,
			"-0.024": 0.0,
			"-0.023": 0.0,
			"-0.022": 0.0,
			"-0.021": 0.0,
			"-0.02": 0.0,
			"-0.019": 0.1704868587,
			"-0.018": 0.946409645123,
			"-0.017": 0.560342464947,
			"-0.016": 1.04390229127,
			"-0.015": 0.747323748833,
			"-0.014": 0.638229726654,
			"-0.013": 0.772996631266,
			"-0.012": 0.28286861061,
			"-0.011": 0.461182752133,
			"-0.01": 0.456445575351,
			"-0.009": 0.52808895024,
			"-0.008": 1.01344178166,
			"-0.007": 6.64662043693,
			"-0.006": 19.321138369,
			"-0.005": 23.3287575073,
			"-0.004": 22.7355039487,
			"-0.003": 16.9096630178,
			"-0.002": 14.6168836944,
			"-0.001": 14.0072085066,
			"0.0": 16.0639121157,
			"0.001": 15.4031836043,
			"0.002": 20.2310898449,
			"0.003": 21.9706512642,
			"0.004": 20.7236941487,
			"0.005": 9.85001882518,
			"0.006": 6.52563976636,
			"0.007": 5.14753921808,
			"0.008": 4.15002149228,
			"0.009": 3.41390984719,
			"0.01": 3.31354538652,
			"0.011": 3.52612486823,
			"0.012": 5.38540561931,
			"0.013": 2.93568491657,
			"0.014": 0.00386970101521,
			"0.015": 0.0,
			"0.016": 0.0,
			"0.017": 0.0,
			"0.018": 0.0,
			"0.019": 0.0,
			"0.02": 0.0,
			"0.021": 0.0,
			"0.022": 0.0,
			"0.023": 0.0,
			"0.024": 0.0,
			"0.025": 0.0
		}
	}
}
