{
	 "smiles": "ClC1=NN=NN1C1=CC=CC=C1", 
	 "Tm": 396.15, 
	 "num_atms": 17, 
	 "gaussian": { 
		 "optdone": 1, 
		 "sigma_profile": "yes", 
		 "theory": "DFT", 
		 "functional": "B3LYP", 
		 "basiset": "6-31G**", 
		 "properties": { 
			 "R2extent": 3013.2904, 
			 "electric_dipole_moment_norm": 5.79007097798, 
			 "electric_quadrupole_moment_norm": 15.8000139823, 
			 "total_energy": -948.884241504, 
			 "HOMO_LUMO_gap": 0.21758, 
			 "cosmo_polarized_energy": -10.74, 
			 "cosmo_cavitation_energy": 24.0, 
			 "cosmo_dispersion_energy": -17.78, 
			 "cosmo_repulsion_energy": 1.41, 
			 "cosmo_total_nonelectrostatic_energy": 7.63, 
			 "SMD_solvation_energy": 2.22 
		},
		"coords": [
			{
				"x": 0.3814022169,
				"y": -1.157227408,
				"z": 3.1617591371,
				"element": "Cl" 
			},
			{
				"x": -0.7062953325,
				"y": 0.1386807909,
				"z": 2.9132663521,
				"element": "C" 
			},
			{
				"x": -1.6969962091,
				"y": 0.4596584518,
				"z": 3.7136421313,
				"element": "N" 
			},
			{
				"x": -2.3170160453,
				"y": 1.5088754006,
				"z": 3.1113522379,
				"element": "N" 
			},
			{
				"x": -1.7439137298,
				"y": 1.8249774409,
				"z": 1.998411701,
				"element": "N" 
			},
			{
				"x": -0.6971312963,
				"y": 0.9654835638,
				"z": 1.836377642,
				"element": "N" 
			},
			{
				"x": 0.1333102663,
				"y": 1.0266034707,
				"z": 0.6751127923,
				"element": "C" 
			},
			{
				"x": 1.5235081196,
				"y": 0.9855064848,
				"z": 0.799960629,
				"element": "C" 
			},
			{
				"x": 2.3079960828,
				"y": 1.0547711001,
				"z": -0.3511317441,
				"element": "C" 
			},
			{
				"x": 1.7095835086,
				"y": 1.1816034886,
				"z": -1.6059295111,
				"element": "C" 
			},
			{
				"x": 0.318077692,
				"y": 1.2387434278,
				"z": -1.7135152715,
				"element": "C" 
			},
			{
				"x": -0.4793375425,
				"y": 1.1564883754,
				"z": -0.5737144548,
				"element": "C" 
			},
			{
				"x": 1.9835241668,
				"y": 0.9126821283,
				"z": 1.7787563792,
				"element": "H" 
			},
			{
				"x": 3.3893003878,
				"y": 1.0214098906,
				"z": -0.2621696675,
				"element": "H" 
			},
			{
				"x": 2.3261089297,
				"y": 1.240351961,
				"z": -2.4975695756,
				"element": "H" 
			},
			{
				"x": -0.150830186,
				"y": 1.3421435616,
				"z": -2.687006752,
				"element": "H" 
			},
			{
				"x": -1.5606910292,
				"y": 1.1977478711,
				"z": -0.6370020255,
				"element": "H" 
			}
		],
		 "valence_orbital": [ 
			{
				"type": "occ",
				"energy": -0.30625,
				"method": "rhf"
			},
			{
				"type": "occ",
				"energy": -0.29863,
				"method": "rhf"
			},
			{
				"type": "occ",
				"energy": -0.29577,
				"method": "rhf"
			},
			{
				"type": "occ",
				"energy": -0.28,
				"method": "rhf"
			},
			{
				"type": "occ",
				"energy": -0.26964,
				"method": "rhf"
			},
			{
				"type": "unocc",
				"energy": -0.05206,
				"method": "rhf"
			},
			{
				"type": "unocc",
				"energy": -0.03035,
				"method": "rhf"
			},
			{
				"type": "unocc",
				"energy": -0.01008,
				"method": "rhf"
			},
			{
				"type": "unocc",
				"energy": 0.0057,
				"method": "rhf"
			},
			{
				"type": "unocc",
				"energy": 0.01258,
				"method": "rhf"
			}
		],
		"cosmo_sigma_profile": { 
			"-0.025": 0.0,
			"-0.024": 0.0,
			"-0.023": 0.0,
			"-0.022": 0.0,
			"-0.021": 0.0,
			"-0.02": 0.0,
			"-0.019": 0.0,
			"-0.018": 0.0,
			"-0.017": 0.0,
			"-0.016": 0.0,
			"-0.015": 0.0,
			"-0.014": 0.0,
			"-0.013": 0.0,
			"-0.012": 0.0,
			"-0.011": 0.0,
			"-0.01": 0.052345601936,
			"-0.009": 0.811683449211,
			"-0.008": 2.62116526923,
			"-0.007": 9.9744984014,
			"-0.006": 16.5087924094,
			"-0.005": 16.302069526,
			"-0.004": 11.9002330965,
			"-0.003": 11.8130384833,
			"-0.002": 11.8581847338,
			"-0.001": 12.8304283214,
			"0.0": 14.5361751513,
			"0.001": 18.8030538192,
			"0.002": 15.2096323795,
			"0.003": 14.937860241,
			"0.004": 5.124726855,
			"0.005": 3.98452771928,
			"0.006": 4.16303728235,
			"0.007": 4.79812185844,
			"0.008": 4.71130943496,
			"0.009": 4.89943399547,
			"0.01": 3.6266939313,
			"0.011": 3.20110457191,
			"0.012": 2.00843788196,
			"0.013": 1.87893366172,
			"0.014": 0.169950189322,
			"0.015": 0.0,
			"0.016": 0.0,
			"0.017": 0.0,
			"0.018": 0.0,
			"0.019": 0.0,
			"0.02": 0.0,
			"0.021": 0.0,
			"0.022": 0.0,
			"0.023": 0.0,
			"0.024": 0.0,
			"0.025": 0.0
		}
	}
}
