{
	 "smiles": "OC(CCC1=CC=CC=C1)C(O)=O", 
	 "Tm": 389.15, 
	 "num_atms": 25, 
	 "gaussian": { 
		 "optdone": 1, 
		 "sigma_profile": "yes", 
		 "theory": "DFT", 
		 "functional": "B3LYP", 
		 "basiset": "6-31G**", 
		 "properties": { 
			 "R2extent": 2574.6697, 
			 "electric_dipole_moment_norm": 1.42305873737, 
			 "electric_quadrupole_moment_norm": 8.87516631168, 
			 "total_energy": -613.978711404, 
			 "HOMO_LUMO_gap": 0.22914, 
			 "cosmo_polarized_energy": -12.55, 
			 "cosmo_cavitation_energy": 28.02, 
			 "cosmo_dispersion_energy": -19.56, 
			 "cosmo_repulsion_energy": 1.57, 
			 "cosmo_total_nonelectrostatic_energy": 10.02, 
			 "SMD_solvation_energy": 5.43 
		},
		"coords": [
			{
				"x": -0.0995483901,
				"y": -1.7392783177,
				"z": -2.2871395069,
				"element": "O" 
			},
			{
				"x": -0.7971688853,
				"y": -2.2852349486,
				"z": -1.1841535938,
				"element": "C" 
			},
			{
				"x": 0.132023428,
				"y": -2.3365906747,
				"z": 0.0382394303,
				"element": "C" 
			},
			{
				"x": 0.9313392568,
				"y": -1.0430106859,
				"z": 0.303178357,
				"element": "C" 
			},
			{
				"x": 0.0998417672,
				"y": 0.1825393277,
				"z": 0.6245901277,
				"element": "C" 
			},
			{
				"x": -0.3813051779,
				"y": 0.4046821658,
				"z": 1.9231515013,
				"element": "C" 
			},
			{
				"x": -1.1462823759,
				"y": 1.5312398639,
				"z": 2.2227926342,
				"element": "C" 
			},
			{
				"x": -1.4430261992,
				"y": 2.4627165367,
				"z": 1.2247613003,
				"element": "C" 
			},
			{
				"x": -0.970207906,
				"y": 2.2554895687,
				"z": -0.0716463558,
				"element": "C" 
			},
			{
				"x": -0.2059402512,
				"y": 1.1244595932,
				"z": -0.3676596831,
				"element": "C" 
			},
			{
				"x": -2.1181307281,
				"y": -1.5753538899,
				"z": -0.8795573775,
				"element": "C" 
			},
			{
				"x": -2.5258673758,
				"y": -0.8015412727,
				"z": -1.9182991605,
				"element": "O" 
			},
			{
				"x": -2.7816477813,
				"y": -1.7432687217,
				"z": 0.116484645,
				"element": "O" 
			},
			{
				"x": -0.7528457353,
				"y": -1.4290529675,
				"z": -2.9280896769,
				"element": "H" 
			},
			{
				"x": -1.1091602292,
				"y": -3.323516723,
				"z": -1.4007215018,
				"element": "H" 
			},
			{
				"x": 0.8465640995,
				"y": -3.1517967965,
				"z": -0.1205334355,
				"element": "H" 
			},
			{
				"x": -0.4802147562,
				"y": -2.602386827,
				"z": 0.9055963364,
				"element": "H" 
			},
			{
				"x": 1.6107358104,
				"y": -1.2463501167,
				"z": 1.1397565922,
				"element": "H" 
			},
			{
				"x": 1.5560118038,
				"y": -0.8405079185,
				"z": -0.5710712861,
				"element": "H" 
			},
			{
				"x": -0.1503414684,
				"y": -0.3125425743,
				"z": 2.7075237379,
				"element": "H" 
			},
			{
				"x": -1.5072897096,
				"y": 1.685223888,
				"z": 3.2359455432,
				"element": "H" 
			},
			{
				"x": -2.0338441606,
				"y": 3.3440758697,
				"z": 1.4580759166,
				"element": "H" 
			},
			{
				"x": -1.1902827136,
				"y": 2.9773776041,
				"z": -0.8537661881,
				"element": "H" 
			},
			{
				"x": 0.1550816664,
				"y": 0.9600323045,
				"z": -1.3788526792,
				"element": "H" 
			},
			{
				"x": -3.3783939885,
				"y": -0.4152042875,
				"z": -1.6576056771,
				"element": "H" 
			}
		],
		 "valence_orbital": [ 
			{
				"type": "occ",
				"energy": -0.32344,
				"method": "rhf"
			},
			{
				"type": "occ",
				"energy": -0.29228,
				"method": "rhf"
			},
			{
				"type": "occ",
				"energy": -0.26529,
				"method": "rhf"
			},
			{
				"type": "occ",
				"energy": -0.24274,
				"method": "rhf"
			},
			{
				"type": "occ",
				"energy": -0.23493,
				"method": "rhf"
			},
			{
				"type": "unocc",
				"energy": -0.00579,
				"method": "rhf"
			},
			{
				"type": "unocc",
				"energy": 0.00587,
				"method": "rhf"
			},
			{
				"type": "unocc",
				"energy": 0.01511,
				"method": "rhf"
			},
			{
				"type": "unocc",
				"energy": 0.06014,
				"method": "rhf"
			},
			{
				"type": "unocc",
				"energy": 0.09496,
				"method": "rhf"
			}
		],
		"cosmo_sigma_profile": { 
			"-0.025": 0.0,
			"-0.024": 0.0,
			"-0.023": 0.0,
			"-0.022": 0.0,
			"-0.021": 0.0,
			"-0.02": 0.0,
			"-0.019": 0.312854712403,
			"-0.018": 0.733560779918,
			"-0.017": 0.989859158805,
			"-0.016": 0.65733772738,
			"-0.015": 1.0573787959,
			"-0.014": 1.03577783106,
			"-0.013": 0.852906017163,
			"-0.012": 0.57944791661,
			"-0.011": 1.65720149607,
			"-0.01": 0.928098683726,
			"-0.009": 1.42991291678,
			"-0.008": 2.02275366772,
			"-0.007": 4.83218595593,
			"-0.006": 5.78298760497,
			"-0.005": 11.4374631249,
			"-0.004": 18.8139987638,
			"-0.003": 23.9504666216,
			"-0.002": 19.8210305082,
			"-0.001": 16.4322780586,
			"0.0": 12.9060863144,
			"0.001": 11.166350473,
			"0.002": 11.1891048111,
			"0.003": 13.0047869321,
			"0.004": 11.4592524049,
			"0.005": 11.2231740604,
			"0.006": 10.5203726691,
			"0.007": 5.86127714132,
			"0.008": 3.1678483816,
			"0.009": 2.64906988102,
			"0.01": 3.53244167812,
			"0.011": 4.86969134454,
			"0.012": 4.09685541169,
			"0.013": 1.02471704408,
			"0.014": 0.213630930123,
			"0.015": 0.0,
			"0.016": 0.0,
			"0.017": 0.0,
			"0.018": 0.0,
			"0.019": 0.0,
			"0.02": 0.0,
			"0.021": 0.0,
			"0.022": 0.0,
			"0.023": 0.0,
			"0.024": 0.0,
			"0.025": 0.0
		}
	}
}
