{
	 "smiles": "NC1=CSC2=NC=CN=C12", 
	 "Tm": 361.65, 
	 "num_atms": 15, 
	 "gaussian": { 
		 "optdone": 1, 
		 "sigma_profile": "yes", 
		 "theory": "DFT", 
		 "functional": "B3LYP", 
		 "basiset": "6-31G**", 
		 "properties": { 
			 "R2extent": 1835.8772, 
			 "electric_dipole_moment_norm": 2.26393818158, 
			 "electric_quadrupole_moment_norm": 11.7594131159, 
			 "total_energy": -794.077861398, 
			 "HOMO_LUMO_gap": 0.14411, 
			 "cosmo_polarized_energy": -9.31, 
			 "cosmo_cavitation_energy": 20.85, 
			 "cosmo_dispersion_energy": -16.61, 
			 "cosmo_repulsion_energy": 1.28, 
			 "cosmo_total_nonelectrostatic_energy": 5.53, 
			 "SMD_solvation_energy": 0.54 
		},
		"coords": [
			{
				"x": 1.2994028166,
				"y": 0.096282478,
				"z": 1.0998122047,
				"element": "N" 
			},
			{
				"x": 0.440117768,
				"y": -0.5453479552,
				"z": 0.2189583735,
				"element": "C" 
			},
			{
				"x": 0.653927286,
				"y": -1.6880412814,
				"z": -0.4997924672,
				"element": "C" 
			},
			{
				"x": -0.7388412144,
				"y": -2.2292235159,
				"z": -1.4396911772,
				"element": "S" 
			},
			{
				"x": -1.66774871,
				"y": -0.860098683,
				"z": -0.8622245527,
				"element": "C" 
			},
			{
				"x": -2.92528995,
				"y": -0.5886747055,
				"z": -1.1948911234,
				"element": "N" 
			},
			{
				"x": -3.4205659681,
				"y": 0.5235979009,
				"z": -0.6400014853,
				"element": "C" 
			},
			{
				"x": -2.6686271551,
				"y": 1.3453789962,
				"z": 0.2180742784,
				"element": "C" 
			},
			{
				"x": -1.4054597284,
				"y": 1.0714957727,
				"z": 0.5514375808,
				"element": "N" 
			},
			{
				"x": -0.9012460947,
				"y": -0.0473883048,
				"z": 0.0112662174,
				"element": "C" 
			},
			{
				"x": 2.2856717565,
				"y": 0.0019144315,
				"z": 0.9034769039,
				"element": "H" 
			},
			{
				"x": 1.0220773244,
				"y": 1.0509910203,
				"z": 1.2918606875,
				"element": "H" 
			},
			{
				"x": 1.5590479883,
				"y": -2.2790081699,
				"z": -0.5313880562,
				"element": "H" 
			},
			{
				"x": -4.4488285127,
				"y": 0.778446277,
				"z": -0.8850884424,
				"element": "H" 
			},
			{
				"x": -3.1090376065,
				"y": 2.2464757391,
				"z": 0.6385910583,
				"element": "H" 
			}
		],
		 "valence_orbital": [ 
			{
				"type": "occ",
				"energy": -0.31932,
				"method": "rhf"
			},
			{
				"type": "occ",
				"energy": -0.30173,
				"method": "rhf"
			},
			{
				"type": "occ",
				"energy": -0.2539,
				"method": "rhf"
			},
			{
				"type": "occ",
				"energy": -0.25244,
				"method": "rhf"
			},
			{
				"type": "occ",
				"energy": -0.20314,
				"method": "rhf"
			},
			{
				"type": "unocc",
				"energy": -0.05903,
				"method": "rhf"
			},
			{
				"type": "unocc",
				"energy": -0.02376,
				"method": "rhf"
			},
			{
				"type": "unocc",
				"energy": 0.02114,
				"method": "rhf"
			},
			{
				"type": "unocc",
				"energy": 0.05029,
				"method": "rhf"
			},
			{
				"type": "unocc",
				"energy": 0.0782,
				"method": "rhf"
			}
		],
		"cosmo_sigma_profile": { 
			"-0.025": 0.0,
			"-0.024": 0.0,
			"-0.023": 0.0,
			"-0.022": 0.0,
			"-0.021": 0.0,
			"-0.02": 0.0,
			"-0.019": 0.0,
			"-0.018": 0.0,
			"-0.017": 0.0,
			"-0.016": 0.0,
			"-0.015": 0.0,
			"-0.014": 0.0391221620181,
			"-0.013": 0.945879818777,
			"-0.012": 1.50205318206,
			"-0.011": 1.9315715939,
			"-0.01": 2.06648595277,
			"-0.009": 3.28774626003,
			"-0.008": 6.96346469322,
			"-0.007": 9.71465241727,
			"-0.006": 6.35173233948,
			"-0.005": 6.77912277255,
			"-0.004": 5.6013568718,
			"-0.003": 5.29543448733,
			"-0.002": 8.65286163297,
			"-0.001": 13.1477845487,
			"0.0": 16.4706425237,
			"0.001": 12.5937073518,
			"0.002": 15.4291988394,
			"0.003": 12.0048108757,
			"0.004": 10.698264827,
			"0.005": 8.76027580784,
			"0.006": 4.32170699423,
			"0.007": 3.3178901931,
			"0.008": 2.99317113265,
			"0.009": 2.69295713808,
			"0.01": 2.06246708219,
			"0.011": 2.16937885002,
			"0.012": 2.16664253334,
			"0.013": 1.29409802514,
			"0.014": 0.90777325122,
			"0.015": 0.0734079286646,
			"0.016": 0.0,
			"0.017": 0.0,
			"0.018": 0.0,
			"0.019": 0.0,
			"0.02": 0.0,
			"0.021": 0.0,
			"0.022": 0.0,
			"0.023": 0.0,
			"0.024": 0.0,
			"0.025": 0.0
		}
	}
}
