{
	 "smiles": "NS(=O)(=O)C1=CC(C(O)=O)=C(Cl)C=C1", 
	 "Tm": 493.15, 
	 "num_atms": 20, 
	 "gaussian": { 
		 "optdone": 1, 
		 "sigma_profile": "yes", 
		 "theory": "DFT", 
		 "functional": "B3LYP", 
		 "basiset": "6-31G**", 
		 "properties": { 
			 "R2extent": 4666.9395, 
			 "electric_dipole_moment_norm": 3.10038815151, 
			 "electric_quadrupole_moment_norm": 13.9851760243, 
			 "total_energy": -1484.32550865, 
			 "HOMO_LUMO_gap": 0.19637, 
			 "cosmo_polarized_energy": -19.27, 
			 "cosmo_cavitation_energy": 28.48, 
			 "cosmo_dispersion_energy": -21.58, 
			 "cosmo_repulsion_energy": 1.67, 
			 "cosmo_total_nonelectrostatic_energy": 8.57, 
			 "SMD_solvation_energy": 5.57 
		},
		"coords": [
			{
				"x": 1.4280321566,
				"y": 0.4033128189,
				"z": -1.80998475,
				"element": "N" 
			},
			{
				"x": 0.0983117481,
				"y": -0.6386236277,
				"z": -1.9143822906,
				"element": "S" 
			},
			{
				"x": 0.6043916761,
				"y": -2.0036818183,
				"z": -2.0711041247,
				"element": "O" 
			},
			{
				"x": -0.8379217434,
				"y": -0.0276001653,
				"z": -2.8616267291,
				"element": "O" 
			},
			{
				"x": -0.6404769546,
				"y": -0.5223327409,
				"z": -0.2830857035,
				"element": "C" 
			},
			{
				"x": -0.221965642,
				"y": -1.3813856602,
				"z": 0.7224175134,
				"element": "C" 
			},
			{
				"x": -0.7859012675,
				"y": -1.3190394169,
				"z": 2.0075587885,
				"element": "C" 
			},
			{
				"x": -0.2253188202,
				"y": -2.3222030624,
				"z": 2.9720419701,
				"element": "C" 
			},
			{
				"x": -0.9310007257,
				"y": -2.4805678798,
				"z": 4.1058773667,
				"element": "O" 
			},
			{
				"x": 0.7790703111,
				"y": -2.9647070213,
				"z": 2.7378648295,
				"element": "O" 
			},
			{
				"x": -1.7825426855,
				"y": -0.3504463132,
				"z": 2.2453995994,
				"element": "C" 
			},
			{
				"x": -2.5493629932,
				"y": -0.1117189648,
				"z": 3.7978091718,
				"element": "Cl" 
			},
			{
				"x": -2.2020601578,
				"y": 0.5061236957,
				"z": 1.2203201747,
				"element": "C" 
			},
			{
				"x": -1.6400616311,
				"y": 0.4227025832,
				"z": -0.0476782854,
				"element": "C" 
			},
			{
				"x": 1.3706708936,
				"y": 1.0917972409,
				"z": -2.5558790181,
				"element": "H" 
			},
			{
				"x": 2.2914370806,
				"y": -0.1312993089,
				"z": -1.8601641871,
				"element": "H" 
			},
			{
				"x": 0.5396383812,
				"y": -2.1296649508,
				"z": 0.5363801611,
				"element": "H" 
			},
			{
				"x": -0.4572746674,
				"y": -3.1587477587,
				"z": 4.617139813,
				"element": "H" 
			},
			{
				"x": -2.9752781405,
				"y": 1.2361513287,
				"z": 1.4299759608,
				"element": "H" 
			},
			{
				"x": -1.9776868182,
				"y": 1.0707310218,
				"z": -0.8488802606,
				"element": "H" 
			}
		],
		 "valence_orbital": [ 
			{
				"type": "occ",
				"energy": -0.31447,
				"method": "rhf"
			},
			{
				"type": "occ",
				"energy": -0.30582,
				"method": "rhf"
			},
			{
				"type": "occ",
				"energy": -0.29674,
				"method": "rhf"
			},
			{
				"type": "occ",
				"energy": -0.28789,
				"method": "rhf"
			},
			{
				"type": "occ",
				"energy": -0.27081,
				"method": "rhf"
			},
			{
				"type": "unocc",
				"energy": -0.07444,
				"method": "rhf"
			},
			{
				"type": "unocc",
				"energy": -0.05006,
				"method": "rhf"
			},
			{
				"type": "unocc",
				"energy": 0.01244,
				"method": "rhf"
			},
			{
				"type": "unocc",
				"energy": 0.02258,
				"method": "rhf"
			},
			{
				"type": "unocc",
				"energy": 0.04979,
				"method": "rhf"
			}
		],
		"cosmo_sigma_profile": { 
			"-0.025": 0.0,
			"-0.024": 0.0,
			"-0.023": 0.0,
			"-0.022": 0.0,
			"-0.021": 0.0,
			"-0.02": 0.0,
			"-0.019": 0.4754801779,
			"-0.018": 1.25484688835,
			"-0.017": 0.689382800565,
			"-0.016": 0.700871238631,
			"-0.015": 2.3155371611,
			"-0.014": 3.49546600621,
			"-0.013": 3.21671583758,
			"-0.012": 3.47169483325,
			"-0.011": 2.67010484515,
			"-0.01": 2.11196563917,
			"-0.009": 4.03699519432,
			"-0.008": 6.87116615965,
			"-0.007": 6.37154825256,
			"-0.006": 6.12130110662,
			"-0.005": 6.27375747943,
			"-0.004": 9.25055029338,
			"-0.003": 13.741932175,
			"-0.002": 14.5813192011,
			"-0.001": 22.7373863477,
			"0.0": 18.5028292333,
			"0.001": 12.2174117648,
			"0.002": 9.80238229353,
			"0.003": 12.4698870803,
			"0.004": 7.90622604267,
			"0.005": 6.34318406966,
			"0.006": 7.15390777282,
			"0.007": 7.0541736099,
			"0.008": 6.24524823255,
			"0.009": 5.60557522897,
			"0.01": 13.0122970553,
			"0.011": 12.1058847163,
			"0.012": 1.49446593023,
			"0.013": 0.0,
			"0.014": 0.0,
			"0.015": 0.0,
			"0.016": 0.0,
			"0.017": 0.0,
			"0.018": 0.0,
			"0.019": 0.0,
			"0.02": 0.0,
			"0.021": 0.0,
			"0.022": 0.0,
			"0.023": 0.0,
			"0.024": 0.0,
			"0.025": 0.0
		}
	}
}
