{
	 "smiles": "SC1=NN=C(N1CC1=CC=CO1)N1CCOCC1", 
	 "Tm": 425.15, 
	 "num_atms": 32, 
	 "gaussian": { 
		 "optdone": 1, 
		 "sigma_profile": "yes", 
		 "theory": "DFT", 
		 "functional": "B3LYP", 
		 "basiset": "6-31G**", 
		 "properties": { 
			 "R2extent": 5375.6631, 
			 "electric_dipole_moment_norm": 4.40477549144, 
			 "electric_quadrupole_moment_norm": 12.9195805915, 
			 "total_energy": -1195.15624165, 
			 "HOMO_LUMO_gap": 0.20385, 
			 "cosmo_polarized_energy": -20.21, 
			 "cosmo_cavitation_energy": 36.68, 
			 "cosmo_dispersion_energy": -25.91, 
			 "cosmo_repulsion_energy": 1.96, 
			 "cosmo_total_nonelectrostatic_energy": 12.73, 
			 "SMD_solvation_energy": 3.26 
		},
		"coords": [
			{
				"x": -2.9289800407,
				"y": -0.444052759,
				"z": 2.6457887114,
				"element": "S" 
			},
			{
				"x": -1.8157121095,
				"y": -0.8845145316,
				"z": 1.3397250318,
				"element": "C" 
			},
			{
				"x": -1.5273037118,
				"y": -2.1007138204,
				"z": 0.9524219006,
				"element": "N" 
			},
			{
				"x": -0.6596529033,
				"y": -1.9928433821,
				"z": -0.1242767844,
				"element": "N" 
			},
			{
				"x": -0.4383163048,
				"y": -0.7148431651,
				"z": -0.329407379,
				"element": "C" 
			},
			{
				"x": -1.1586371111,
				"y": 0.0532626862,
				"z": 0.5686221875,
				"element": "N" 
			},
			{
				"x": -1.0435506865,
				"y": 1.4969566876,
				"z": 0.8126179712,
				"element": "C" 
			},
			{
				"x": 0.0315465636,
				"y": 1.8621165835,
				"z": 1.7806272334,
				"element": "C" 
			},
			{
				"x": 1.3097382602,
				"y": 2.3163570506,
				"z": 1.6389283282,
				"element": "C" 
			},
			{
				"x": 1.8432769197,
				"y": 2.4475622804,
				"z": 2.9629201445,
				"element": "C" 
			},
			{
				"x": 0.850686617,
				"y": 2.0596730394,
				"z": 3.8098257631,
				"element": "C" 
			},
			{
				"x": -0.261582082,
				"y": 1.702555559,
				"z": 3.1077670143,
				"element": "O" 
			},
			{
				"x": 0.4271113623,
				"y": -0.1620190682,
				"z": -1.2656944677,
				"element": "N" 
			},
			{
				"x": 1.4607671022,
				"y": -1.0976493495,
				"z": -1.7498013559,
				"element": "C" 
			},
			{
				"x": 2.2762975402,
				"y": -0.4189316485,
				"z": -2.8415251497,
				"element": "C" 
			},
			{
				"x": 1.4914089218,
				"y": -0.0538821596,
				"z": -3.9804446494,
				"element": "O" 
			},
			{
				"x": 0.0992812255,
				"y": 0.0559669965,
				"z": -3.7181193284,
				"element": "C" 
			},
			{
				"x": -0.179094039,
				"y": 0.6628406916,
				"z": -2.3435116538,
				"element": "C" 
			},
			{
				"x": -3.7077526341,
				"y": -1.526756856,
				"z": 2.4612329289,
				"element": "H" 
			},
			{
				"x": -0.8477770013,
				"y": 1.9889025538,
				"z": -0.1398142042,
				"element": "H" 
			},
			{
				"x": -2.0162552619,
				"y": 1.8442756218,
				"z": 1.1748707267,
				"element": "H" 
			},
			{
				"x": 1.8122858281,
				"y": 2.5222425809,
				"z": 0.7048638607,
				"element": "H" 
			},
			{
				"x": 2.8310075454,
				"y": 2.7852313595,
				"z": 3.2412688807,
				"element": "H" 
			},
			{
				"x": 0.7718512526,
				"y": 1.9866091343,
				"z": 4.8832363839,
				"element": "H" 
			},
			{
				"x": 1.0201692977,
				"y": -2.0301381221,
				"z": -2.1254985821,
				"element": "H" 
			},
			{
				"x": 2.1098834068,
				"y": -1.3647037483,
				"z": -0.910418973,
				"element": "H" 
			},
			{
				"x": 3.061700596,
				"y": -1.0975394189,
				"z": -3.1912234071,
				"element": "H" 
			},
			{
				"x": 2.7643222487,
				"y": 0.478045013,
				"z": -2.43025748,
				"element": "H" 
			},
			{
				"x": -0.394118418,
				"y": -0.925300825,
				"z": -3.7924928515,
				"element": "H" 
			},
			{
				"x": -0.3169091219,
				"y": 0.6981017813,
				"z": -4.5012648692,
				"element": "H" 
			},
			{
				"x": 0.2327276161,
				"y": 1.68071424,
				"z": -2.3145656624,
				"element": "H" 
			},
			{
				"x": -1.261420878,
				"y": 0.7322749949,
				"z": -2.1931002692,
				"element": "H" 
			}
		],
		 "valence_orbital": [ 
			{
				"type": "occ",
				"energy": -0.26503,
				"method": "rhf"
			},
			{
				"type": "occ",
				"energy": -0.25578,
				"method": "rhf"
			},
			{
				"type": "occ",
				"energy": -0.24401,
				"method": "rhf"
			},
			{
				"type": "occ",
				"energy": -0.23676,
				"method": "rhf"
			},
			{
				"type": "occ",
				"energy": -0.20982,
				"method": "rhf"
			},
			{
				"type": "unocc",
				"energy": -0.00597,
				"method": "rhf"
			},
			{
				"type": "unocc",
				"energy": 0.01045,
				"method": "rhf"
			},
			{
				"type": "unocc",
				"energy": 0.0271,
				"method": "rhf"
			},
			{
				"type": "unocc",
				"energy": 0.04486,
				"method": "rhf"
			},
			{
				"type": "unocc",
				"energy": 0.061,
				"method": "rhf"
			}
		],
		"cosmo_sigma_profile": { 
			"-0.025": 0.0,
			"-0.024": 0.0,
			"-0.023": 0.0,
			"-0.022": 0.0,
			"-0.021": 0.0,
			"-0.02": 0.0,
			"-0.019": 0.0,
			"-0.018": 0.0,
			"-0.017": 0.0,
			"-0.016": 0.0,
			"-0.015": 0.0,
			"-0.014": 0.0,
			"-0.013": 0.0,
			"-0.012": 1.10527174119,
			"-0.011": 1.72028784873,
			"-0.01": 1.4935180607,
			"-0.009": 2.37774750138,
			"-0.008": 5.71062644574,
			"-0.007": 13.0708829305,
			"-0.006": 16.7936088347,
			"-0.005": 26.5158984018,
			"-0.004": 31.0868447543,
			"-0.003": 23.5775597309,
			"-0.002": 18.0267191023,
			"-0.001": 17.9554980851,
			"0.0": 13.0642451812,
			"0.001": 14.4508317639,
			"0.002": 14.9890849841,
			"0.003": 16.0357517264,
			"0.004": 16.806510745,
			"0.005": 12.5086312432,
			"0.006": 8.91211447468,
			"0.007": 5.83015589,
			"0.008": 3.24421455558,
			"0.009": 3.88156221409,
			"0.01": 2.54956865528,
			"0.011": 4.10717037229,
			"0.012": 2.82847401022,
			"0.013": 5.10943833494,
			"0.014": 3.89515356461,
			"0.015": 3.23960009739,
			"0.016": 1.83092232416,
			"0.017": 0.590613225512,
			"0.018": 0.0,
			"0.019": 0.0,
			"0.02": 0.0,
			"0.021": 0.0,
			"0.022": 0.0,
			"0.023": 0.0,
			"0.024": 0.0,
			"0.025": 0.0
		}
	}
}
