{
	 "smiles": "CC(=O)NCCNC1=CC(=O)OC2=CC=CC=C12", 
	 "Tm": 535.15, 
	 "num_atms": 32, 
	 "gaussian": { 
		 "optdone": 1, 
		 "sigma_profile": "yes", 
		 "theory": "DFT", 
		 "functional": "B3LYP", 
		 "basiset": "6-31G**", 
		 "properties": { 
			 "R2extent": 5954.4417, 
			 "electric_dipole_moment_norm": 9.15284427159, 
			 "electric_quadrupole_moment_norm": 29.7847840182, 
			 "total_energy": -839.034944719, 
			 "HOMO_LUMO_gap": 0.17086, 
			 "cosmo_polarized_energy": -22.94, 
			 "cosmo_cavitation_energy": 35.42, 
			 "cosmo_dispersion_energy": -25.62, 
			 "cosmo_repulsion_energy": 1.97, 
			 "cosmo_total_nonelectrostatic_energy": 11.77, 
			 "SMD_solvation_energy": 6.22 
		},
		"coords": [
			{
				"x": 2.2621325696,
				"y": 2.3204760489,
				"z": -2.2813464844,
				"element": "C" 
			},
			{
				"x": 1.2305386971,
				"y": 2.4496961903,
				"z": -1.1774178109,
				"element": "C" 
			},
			{
				"x": 0.0208703469,
				"y": 2.4030658475,
				"z": -1.4151486076,
				"element": "O" 
			},
			{
				"x": 1.7133502409,
				"y": 2.6249649824,
				"z": 0.083909989,
				"element": "N" 
			},
			{
				"x": 0.8431254106,
				"y": 2.8688007782,
				"z": 1.2327066135,
				"element": "C" 
			},
			{
				"x": 0.2833741525,
				"y": 1.6035853369,
				"z": 1.8899122087,
				"element": "C" 
			},
			{
				"x": -0.6001892697,
				"y": 0.9048650457,
				"z": 0.980319588,
				"element": "N" 
			},
			{
				"x": -1.2365457509,
				"y": -0.2537057279,
				"z": 1.2925647592,
				"element": "C" 
			},
			{
				"x": -1.1326947896,
				"y": -0.8518962563,
				"z": 2.5276906178,
				"element": "C" 
			},
			{
				"x": -1.8192690968,
				"y": -2.0659290175,
				"z": 2.8753982996,
				"element": "C" 
			},
			{
				"x": -1.7785571765,
				"y": -2.6480544568,
				"z": 3.9377727217,
				"element": "O" 
			},
			{
				"x": -2.6329477228,
				"y": -2.6313942644,
				"z": 1.8749310375,
				"element": "O" 
			},
			{
				"x": -2.7406253772,
				"y": -2.079236933,
				"z": 0.6378305849,
				"element": "C" 
			},
			{
				"x": -3.5629620769,
				"y": -2.7521172458,
				"z": -0.2733240708,
				"element": "C" 
			},
			{
				"x": -3.7113349248,
				"y": -2.2567038845,
				"z": -1.5618867276,
				"element": "C" 
			},
			{
				"x": -3.0369113387,
				"y": -1.0920000613,
				"z": -1.9524105747,
				"element": "C" 
			},
			{
				"x": -2.2232922281,
				"y": -0.4238468422,
				"z": -1.0462831611,
				"element": "C" 
			},
			{
				"x": -2.0662363646,
				"y": -0.8986677426,
				"z": 0.2704996073,
				"element": "C" 
			},
			{
				"x": 3.2952342927,
				"y": 2.3883082403,
				"z": -1.9309688124,
				"element": "H" 
			},
			{
				"x": 2.0829398973,
				"y": 3.1076533796,
				"z": -3.0186738348,
				"element": "H" 
			},
			{
				"x": 2.1175486147,
				"y": 1.3620803096,
				"z": -2.7870359376,
				"element": "H" 
			},
			{
				"x": 2.7114946982,
				"y": 2.6225644321,
				"z": 0.2275198161,
				"element": "H" 
			},
			{
				"x": 1.4160909814,
				"y": 3.4309312149,
				"z": 1.9750185509,
				"element": "H" 
			},
			{
				"x": 0.0161090515,
				"y": 3.5018450665,
				"z": 0.8959811071,
				"element": "H" 
			},
			{
				"x": 1.1094005172,
				"y": 0.9477216373,
				"z": 2.2039854323,
				"element": "H" 
			},
			{
				"x": -0.2518672914,
				"y": 1.9004362602,
				"z": 2.8051921633,
				"element": "H" 
			},
			{
				"x": -0.731738738,
				"y": 1.3359911294,
				"z": 0.0720413589,
				"element": "H" 
			},
			{
				"x": -0.5328461284,
				"y": -0.4276489651,
				"z": 3.3214229176,
				"element": "H" 
			},
			{
				"x": -4.0650409205,
				"y": -3.6552038109,
				"z": 0.0563963323,
				"element": "H" 
			},
			{
				"x": -4.3493749539,
				"y": -2.7798837465,
				"z": -2.2680837409,
				"element": "H" 
			},
			{
				"x": -3.1454484031,
				"y": -0.7101798663,
				"z": -2.9625983999,
				"element": "H" 
			},
			{
				"x": -1.6966269187,
				"y": 0.4659829211,
				"z": -1.377715543,
				"element": "H" 
			}
		],
		 "valence_orbital": [ 
			{
				"type": "occ",
				"energy": -0.279,
				"method": "rhf"
			},
			{
				"type": "occ",
				"energy": -0.25218,
				"method": "rhf"
			},
			{
				"type": "occ",
				"energy": -0.2454,
				"method": "rhf"
			},
			{
				"type": "occ",
				"energy": -0.22842,
				"method": "rhf"
			},
			{
				"type": "occ",
				"energy": -0.20648,
				"method": "rhf"
			},
			{
				"type": "unocc",
				"energy": -0.03562,
				"method": "rhf"
			},
			{
				"type": "unocc",
				"energy": -0.003,
				"method": "rhf"
			},
			{
				"type": "unocc",
				"energy": 0.00435,
				"method": "rhf"
			},
			{
				"type": "unocc",
				"energy": 0.02883,
				"method": "rhf"
			},
			{
				"type": "unocc",
				"energy": 0.04494,
				"method": "rhf"
			}
		],
		"cosmo_sigma_profile": { 
			"-0.025": 0.0,
			"-0.024": 0.0,
			"-0.023": 0.0,
			"-0.022": 0.0,
			"-0.021": 0.0,
			"-0.02": 0.0,
			"-0.019": 0.0,
			"-0.018": 0.0,
			"-0.017": 0.0,
			"-0.016": 0.0,
			"-0.015": 0.59054101079,
			"-0.014": 1.5736533583,
			"-0.013": 1.67625856583,
			"-0.012": 1.39164858429,
			"-0.011": 1.67496462082,
			"-0.01": 1.13397387858,
			"-0.009": 1.91622025686,
			"-0.008": 2.00554686738,
			"-0.007": 6.35042263718,
			"-0.006": 16.9042465616,
			"-0.005": 27.2924276168,
			"-0.004": 22.9114563632,
			"-0.003": 19.8601511236,
			"-0.002": 23.2115902941,
			"-0.001": 18.2785578354,
			"0.0": 19.2111677405,
			"0.001": 18.918048832,
			"0.002": 19.7134041986,
			"0.003": 17.9571511609,
			"0.004": 14.8859896979,
			"0.005": 4.6361766596,
			"0.006": 3.33588998318,
			"0.007": 2.38569259329,
			"0.008": 3.97274653905,
			"0.009": 3.0287070289,
			"0.01": 3.62357033257,
			"0.011": 3.82354593423,
			"0.012": 4.07542469422,
			"0.013": 8.33470061867,
			"0.014": 6.21556405307,
			"0.015": 1.09807783257,
			"0.016": 0.0,
			"0.017": 0.0,
			"0.018": 0.0,
			"0.019": 0.0,
			"0.02": 0.0,
			"0.021": 0.0,
			"0.022": 0.0,
			"0.023": 0.0,
			"0.024": 0.0,
			"0.025": 0.0
		}
	}
}
