{
	 "smiles": "COC1=CC=C(C=C1)C1CC1C(O)=O", 
	 "Tm": 383.15, 
	 "num_atms": 26, 
	 "gaussian": { 
		 "optdone": 1, 
		 "sigma_profile": "yes", 
		 "theory": "DFT", 
		 "functional": "B3LYP", 
		 "basiset": "6-31G**", 
		 "properties": { 
			 "R2extent": 3860.4673, 
			 "electric_dipole_moment_norm": 6.24461151634, 
			 "electric_quadrupole_moment_norm": 18.284189672, 
			 "total_energy": -652.042922144, 
			 "HOMO_LUMO_gap": 0.21177, 
			 "cosmo_polarized_energy": -15.14, 
			 "cosmo_cavitation_energy": 29.49, 
			 "cosmo_dispersion_energy": -21.17, 
			 "cosmo_repulsion_energy": 1.67, 
			 "cosmo_total_nonelectrostatic_energy": 9.99, 
			 "SMD_solvation_energy": 6.42 
		},
		"coords": [
			{
				"x": 2.759547656,
				"y": 4.0020043636,
				"z": 3.0868832185,
				"element": "C" 
			},
			{
				"x": 2.6837942984,
				"y": 3.697253029,
				"z": 1.7016386326,
				"element": "O" 
			},
			{
				"x": 2.1845841781,
				"y": 2.4867596254,
				"z": 1.3320580171,
				"element": "C" 
			},
			{
				"x": 2.1277904285,
				"y": 2.2485005043,
				"z": -0.0523463623,
				"element": "C" 
			},
			{
				"x": 1.6310726387,
				"y": 1.0475916458,
				"z": -0.5332664434,
				"element": "C" 
			},
			{
				"x": 1.175798217,
				"y": 0.0399863183,
				"z": 0.3417255762,
				"element": "C" 
			},
			{
				"x": 1.2448486471,
				"y": 0.2922710891,
				"z": 1.7167279883,
				"element": "C" 
			},
			{
				"x": 1.7372996579,
				"y": 1.5018587328,
				"z": 2.2190242634,
				"element": "C" 
			},
			{
				"x": 0.7051086006,
				"y": -1.2781367547,
				"z": -0.2018722671,
				"element": "C" 
			},
			{
				"x": -0.3640078686,
				"y": -2.0879728008,
				"z": 0.4643999555,
				"element": "C" 
			},
			{
				"x": -0.6457807339,
				"y": -1.4738679959,
				"z": -0.8990615497,
				"element": "C" 
			},
			{
				"x": -1.7084679232,
				"y": -0.4258627389,
				"z": -1.0572162508,
				"element": "C" 
			},
			{
				"x": -1.7317675212,
				"y": 0.5992070628,
				"z": -0.1687418518,
				"element": "O" 
			},
			{
				"x": -2.5509392725,
				"y": -0.5017086371,
				"z": -1.9208307365,
				"element": "O" 
			},
			{
				"x": 3.178618934,
				"y": 5.0069838507,
				"z": 3.1507729148,
				"element": "H" 
			},
			{
				"x": 1.767883226,
				"y": 3.9935396473,
				"z": 3.5566151204,
				"element": "H" 
			},
			{
				"x": 3.4163471746,
				"y": 3.3022043915,
				"z": 3.6190321462,
				"element": "H" 
			},
			{
				"x": 2.4735394643,
				"y": 3.0261735988,
				"z": -0.7252321265,
				"element": "H" 
			},
			{
				"x": 1.5860936076,
				"y": 0.8803010094,
				"z": -1.6060784412,
				"element": "H" 
			},
			{
				"x": 0.9180046326,
				"y": -0.4719262345,
				"z": 2.4161762056,
				"element": "H" 
			},
			{
				"x": 1.770751921,
				"y": 1.656712976,
				"z": 3.2907206629,
				"element": "H" 
			},
			{
				"x": 1.4961123039,
				"y": -1.8570782009,
				"z": -0.6768703792,
				"element": "H" 
			},
			{
				"x": -0.2581805144,
				"y": -3.1664366372,
				"z": 0.5195161936,
				"element": "H" 
			},
			{
				"x": -0.8861668866,
				"y": -1.6482537242,
				"z": 1.3094133186,
				"element": "H" 
			},
			{
				"x": -0.6531533296,
				"y": -2.1540708521,
				"z": -1.7433780697,
				"element": "H" 
			},
			{
				"x": -0.9048315363,
				"y": 0.6363667315,
				"z": 0.3413902645,
				"element": "H" 
			}
		],
		 "valence_orbital": [ 
			{
				"type": "occ",
				"energy": -0.31245,
				"method": "rhf"
			},
			{
				"type": "occ",
				"energy": -0.29236,
				"method": "rhf"
			},
			{
				"type": "occ",
				"energy": -0.26774,
				"method": "rhf"
			},
			{
				"type": "occ",
				"energy": -0.25355,
				"method": "rhf"
			},
			{
				"type": "occ",
				"energy": -0.23138,
				"method": "rhf"
			},
			{
				"type": "unocc",
				"energy": -0.01961,
				"method": "rhf"
			},
			{
				"type": "unocc",
				"energy": -0.01413,
				"method": "rhf"
			},
			{
				"type": "unocc",
				"energy": 0.02066,
				"method": "rhf"
			},
			{
				"type": "unocc",
				"energy": 0.08064,
				"method": "rhf"
			},
			{
				"type": "unocc",
				"energy": 0.08274,
				"method": "rhf"
			}
		],
		"cosmo_sigma_profile": { 
			"-0.025": 0.0,
			"-0.024": 0.0,
			"-0.023": 0.0,
			"-0.022": 0.0,
			"-0.021": 0.0,
			"-0.02": 0.0,
			"-0.019": 0.0,
			"-0.018": 0.0,
			"-0.017": 0.0,
			"-0.016": 0.0,
			"-0.015": 0.0,
			"-0.014": 0.0,
			"-0.013": 0.0,
			"-0.012": 0.00143424148493,
			"-0.011": 0.0952183210374,
			"-0.01": 0.345508097136,
			"-0.009": 0.589229037507,
			"-0.008": 1.5673811708,
			"-0.007": 4.3900602098,
			"-0.006": 22.9344109586,
			"-0.005": 24.5720741993,
			"-0.004": 23.4562477134,
			"-0.003": 21.3666763793,
			"-0.002": 16.0125213856,
			"-0.001": 14.4900001412,
			"0.0": 13.0352376795,
			"0.001": 13.3785369504,
			"0.002": 11.5112421146,
			"0.003": 13.1355598483,
			"0.004": 9.61084340929,
			"0.005": 6.46024842835,
			"0.006": 3.99594753316,
			"0.007": 3.39938235171,
			"0.008": 3.37243362389,
			"0.009": 4.71024429478,
			"0.01": 4.91739746666,
			"0.011": 5.10460231582,
			"0.012": 6.28782424733,
			"0.013": 4.42247006826,
			"0.014": 0.910166079001,
			"0.015": 0.0,
			"0.016": 0.0,
			"0.017": 0.0,
			"0.018": 0.0,
			"0.019": 0.0,
			"0.02": 0.0,
			"0.021": 0.0,
			"0.022": 0.0,
			"0.023": 0.0,
			"0.024": 0.0,
			"0.025": 0.0
		}
	}
}
