{
	 "smiles": "NC(C(O)=O)C1=CCC=CC1", 
	 "Tm": 533.15, 
	 "num_atms": 22, 
	 "gaussian": { 
		 "optdone": 1, 
		 "sigma_profile": "yes", 
		 "theory": "DFT", 
		 "functional": "B3LYP", 
		 "basiset": "6-31G**", 
		 "properties": { 
			 "R2extent": 2497.232, 
			 "electric_dipole_moment_norm": 4.6299684675, 
			 "electric_quadrupole_moment_norm": 12.3918408221, 
			 "total_energy": -516.651974553, 
			 "HOMO_LUMO_gap": 0.22776, 
			 "cosmo_polarized_energy": -14.21, 
			 "cosmo_cavitation_energy": 24.75, 
			 "cosmo_dispersion_energy": -18.05, 
			 "cosmo_repulsion_energy": 1.48, 
			 "cosmo_total_nonelectrostatic_energy": 8.18, 
			 "SMD_solvation_energy": 3.81 
		},
		"coords": [
			{
				"x": 1.3677368211,
				"y": -2.2170664565,
				"z": -0.0706273602,
				"element": "N" 
			},
			{
				"x": 0.3873860866,
				"y": -1.3071767661,
				"z": -0.6421285901,
				"element": "C" 
			},
			{
				"x": -0.2367773524,
				"y": -1.9660301565,
				"z": -1.8866208435,
				"element": "C" 
			},
			{
				"x": -1.1026053605,
				"y": -1.182178861,
				"z": -2.5675523898,
				"element": "O" 
			},
			{
				"x": -0.0012083752,
				"y": -3.0937563295,
				"z": -2.2454206413,
				"element": "O" 
			},
			{
				"x": -0.7251014585,
				"y": -0.8493139816,
				"z": 0.2962340175,
				"element": "C" 
			},
			{
				"x": -0.8870317207,
				"y": 0.4506549462,
				"z": 0.5834377919,
				"element": "C" 
			},
			{
				"x": -1.9450624247,
				"y": 0.991056013,
				"z": 1.5071093554,
				"element": "C" 
			},
			{
				"x": -2.8117620184,
				"y": -0.086261954,
				"z": 2.1016685145,
				"element": "C" 
			},
			{
				"x": -2.6608580756,
				"y": -1.3826503028,
				"z": 1.8256030041,
				"element": "C" 
			},
			{
				"x": -1.615819694,
				"y": -1.9212939516,
				"z": 0.8860052159,
				"element": "C" 
			},
			{
				"x": 1.1498793138,
				"y": -3.1740400983,
				"z": -0.3333404569,
				"element": "H" 
			},
			{
				"x": 1.4142776036,
				"y": -2.1330930224,
				"z": 0.9383324597,
				"element": "H" 
			},
			{
				"x": 0.8965735109,
				"y": -0.3993910956,
				"z": -1.0071391672,
				"element": "H" 
			},
			{
				"x": -1.2412422286,
				"y": -0.3593469102,
				"z": -2.0705074819,
				"element": "H" 
			},
			{
				"x": -0.2018819142,
				"y": 1.1786700378,
				"z": 0.1483400938,
				"element": "H" 
			},
			{
				"x": -2.5682990486,
				"y": 1.7261826474,
				"z": 0.9723204314,
				"element": "H" 
			},
			{
				"x": -1.4659959032,
				"y": 1.5753672153,
				"z": 2.3092261179,
				"element": "H" 
			},
			{
				"x": -3.591904473,
				"y": 0.2338421465,
				"z": 2.7890356383,
				"element": "H" 
			},
			{
				"x": -3.3204078071,
				"y": -2.1142140192,
				"z": 2.2878374153,
				"element": "H" 
			},
			{
				"x": -0.9939031863,
				"y": -2.6696781982,
				"z": 1.4004157857,
				"element": "H" 
			},
			{
				"x": -2.1023922951,
				"y": -2.4877809029,
				"z": 0.0753710896,
				"element": "H" 
			}
		],
		 "valence_orbital": [ 
			{
				"type": "occ",
				"energy": -0.31957,
				"method": "rhf"
			},
			{
				"type": "occ",
				"energy": -0.29135,
				"method": "rhf"
			},
			{
				"type": "occ",
				"energy": -0.2674,
				"method": "rhf"
			},
			{
				"type": "occ",
				"energy": -0.2461,
				"method": "rhf"
			},
			{
				"type": "occ",
				"energy": -0.23788,
				"method": "rhf"
			},
			{
				"type": "unocc",
				"energy": -0.01012,
				"method": "rhf"
			},
			{
				"type": "unocc",
				"energy": 0.01671,
				"method": "rhf"
			},
			{
				"type": "unocc",
				"energy": 0.02076,
				"method": "rhf"
			},
			{
				"type": "unocc",
				"energy": 0.06555,
				"method": "rhf"
			},
			{
				"type": "unocc",
				"energy": 0.0874,
				"method": "rhf"
			}
		],
		"cosmo_sigma_profile": { 
			"-0.025": 0.0,
			"-0.024": 0.0,
			"-0.023": 0.0,
			"-0.022": 0.0,
			"-0.021": 0.0,
			"-0.02": 0.0,
			"-0.019": 0.0,
			"-0.018": 0.0,
			"-0.017": 0.0,
			"-0.016": 0.149193144216,
			"-0.015": 0.664941261497,
			"-0.014": 0.981442961093,
			"-0.013": 1.12974172026,
			"-0.012": 1.12875856321,
			"-0.011": 1.26318502953,
			"-0.01": 2.23639566859,
			"-0.009": 2.07112573738,
			"-0.008": 3.32094903056,
			"-0.007": 5.47461112508,
			"-0.006": 6.93659104995,
			"-0.005": 10.1208369236,
			"-0.004": 19.434086358,
			"-0.003": 22.6660057826,
			"-0.002": 21.5207406918,
			"-0.001": 14.5766626576,
			"0.0": 8.42421128954,
			"0.001": 7.40628106732,
			"0.002": 7.10293242554,
			"0.003": 7.18016660497,
			"0.004": 6.22075751753,
			"0.005": 6.10591138539,
			"0.006": 5.55194980077,
			"0.007": 4.30690283693,
			"0.008": 3.85393923469,
			"0.009": 4.60792970453,
			"0.01": 6.24950749918,
			"0.011": 6.3362736295,
			"0.012": 3.10247574069,
			"0.013": 0.796212656738,
			"0.014": 0.442002462463,
			"0.015": 1.09708315926,
			"0.016": 0.509215600779,
			"0.017": 0.648470555005,
			"0.018": 0.410995612023,
			"0.019": 0.145511391055,
			"0.02": 0.0,
			"0.021": 0.0,
			"0.022": 0.0,
			"0.023": 0.0,
			"0.024": 0.0,
			"0.025": 0.0
		}
	}
}
