{
	 "smiles": "OCC1=CC=C(C=C1)C#N", 
	 "Tm": 314.15, 
	 "num_atms": 17, 
	 "gaussian": { 
		 "optdone": 1, 
		 "sigma_profile": "yes", 
		 "theory": "DFT", 
		 "functional": "B3LYP", 
		 "basiset": "6-31G**", 
		 "properties": { 
			 "R2extent": 2057.0218, 
			 "electric_dipole_moment_norm": 2.66889404436, 
			 "electric_quadrupole_moment_norm": 22.5848162729, 
			 "total_energy": -439.014570086, 
			 "HOMO_LUMO_gap": 0.20791, 
			 "cosmo_polarized_energy": -12.44, 
			 "cosmo_cavitation_energy": 22.41, 
			 "cosmo_dispersion_energy": -15.79, 
			 "cosmo_repulsion_energy": 1.3, 
			 "cosmo_total_nonelectrostatic_energy": 7.91, 
			 "SMD_solvation_energy": 5.31 
		},
		"coords": [
			{
				"x": -2.9268244613,
				"y": -2.2011764448,
				"z": -1.3382888137,
				"element": "O" 
			},
			{
				"x": -1.7933185863,
				"y": -2.1096753109,
				"z": -0.47183898,
				"element": "C" 
			},
			{
				"x": -1.1045770334,
				"y": -0.7672460376,
				"z": -0.5512273249,
				"element": "C" 
			},
			{
				"x": -1.5123417606,
				"y": 0.2936164863,
				"z": 0.2708665937,
				"element": "C" 
			},
			{
				"x": -0.9236982912,
				"y": 1.5498085736,
				"z": 0.1637405772,
				"element": "C" 
			},
			{
				"x": 0.0915101434,
				"y": 1.7648822955,
				"z": -0.7836743537,
				"element": "C" 
			},
			{
				"x": 0.5059205128,
				"y": 0.7111437043,
				"z": -1.6157780397,
				"element": "C" 
			},
			{
				"x": -0.0930471222,
				"y": -0.5389971425,
				"z": -1.4958082206,
				"element": "C" 
			},
			{
				"x": 0.7056056412,
				"y": 3.0560148296,
				"z": -0.8988340646,
				"element": "C" 
			},
			{
				"x": 1.2027073219,
				"y": 4.103456429,
				"z": -0.993169811,
				"element": "N" 
			},
			{
				"x": -3.016928238,
				"y": -1.3624774044,
				"z": -1.8061249382,
				"element": "H" 
			},
			{
				"x": -2.1248276397,
				"y": -2.2954777095,
				"z": 0.5585003036,
				"element": "H" 
			},
			{
				"x": -1.0848912176,
				"y": -2.9056939377,
				"z": -0.7373815103,
				"element": "H" 
			},
			{
				"x": -2.2948109883,
				"y": 0.129306251,
				"z": 1.0067009006,
				"element": "H" 
			},
			{
				"x": -1.238671297,
				"y": 2.3646824434,
				"z": 0.8068389246,
				"element": "H" 
			},
			{
				"x": 1.29233512,
				"y": 0.8799033223,
				"z": -2.3437031859,
				"element": "H" 
			},
			{
				"x": 0.2317578964,
				"y": -1.3528703475,
				"z": -2.1383180571,
				"element": "H" 
			}
		],
		 "valence_orbital": [ 
			{
				"type": "occ",
				"energy": -0.33872,
				"method": "rhf"
			},
			{
				"type": "occ",
				"energy": -0.33526,
				"method": "rhf"
			},
			{
				"type": "occ",
				"energy": -0.28643,
				"method": "rhf"
			},
			{
				"type": "occ",
				"energy": -0.27594,
				"method": "rhf"
			},
			{
				"type": "occ",
				"energy": -0.27089,
				"method": "rhf"
			},
			{
				"type": "unocc",
				"energy": -0.06298,
				"method": "rhf"
			},
			{
				"type": "unocc",
				"energy": -0.03356,
				"method": "rhf"
			},
			{
				"type": "unocc",
				"energy": 0.03148,
				"method": "rhf"
			},
			{
				"type": "unocc",
				"energy": 0.06021,
				"method": "rhf"
			},
			{
				"type": "unocc",
				"energy": 0.0729,
				"method": "rhf"
			}
		],
		"cosmo_sigma_profile": { 
			"-0.025": 0.0,
			"-0.024": 0.0,
			"-0.023": 0.0,
			"-0.022": 0.0,
			"-0.021": 0.0,
			"-0.02": 0.0,
			"-0.019": 0.0,
			"-0.018": 0.0,
			"-0.017": 0.0,
			"-0.016": 0.0147384293979,
			"-0.015": 0.413555484845,
			"-0.014": 0.832131810622,
			"-0.013": 0.874707575877,
			"-0.012": 0.607547168419,
			"-0.011": 0.606445713672,
			"-0.01": 0.632710914796,
			"-0.009": 0.757222251504,
			"-0.008": 4.2645489683,
			"-0.007": 9.84141439917,
			"-0.006": 13.3286321949,
			"-0.005": 13.0785119275,
			"-0.004": 12.4563407282,
			"-0.003": 13.0785383419,
			"-0.002": 13.0367949094,
			"-0.001": 12.1398330073,
			"0.0": 11.8065424476,
			"0.001": 11.8773849365,
			"0.002": 13.9885063901,
			"0.003": 4.46319997208,
			"0.004": 3.01144353226,
			"0.005": 3.35019971361,
			"0.006": 3.86184551448,
			"0.007": 3.84610680781,
			"0.008": 4.40718889956,
			"0.009": 4.85988648448,
			"0.01": 4.06075492715,
			"0.011": 4.05295168882,
			"0.012": 4.11037612055,
			"0.013": 3.34486150888,
			"0.014": 2.36886717339,
			"0.015": 0.380974256914,
			"0.016": 0.0,
			"0.017": 0.0,
			"0.018": 0.0,
			"0.019": 0.0,
			"0.02": 0.0,
			"0.021": 0.0,
			"0.022": 0.0,
			"0.023": 0.0,
			"0.024": 0.0,
			"0.025": 0.0
		}
	}
}
