{
	 "smiles": "CC(=O)CC(=O)OCC=C", 
	 "Tm": 188.15, 
	 "num_atms": 20, 
	 "gaussian": { 
		 "optdone": 1, 
		 "sigma_profile": "yes", 
		 "theory": "DFT", 
		 "functional": "B3LYP", 
		 "basiset": "6-31G**", 
		 "properties": { 
			 "R2extent": 2522.8427, 
			 "electric_dipole_moment_norm": 2.19127991366, 
			 "electric_quadrupole_moment_norm": 16.0336082053, 
			 "total_energy": -498.423115688, 
			 "HOMO_LUMO_gap": 0.22778, 
			 "cosmo_polarized_energy": -10.49, 
			 "cosmo_cavitation_energy": 25.02, 
			 "cosmo_dispersion_energy": -16.9, 
			 "cosmo_repulsion_energy": 1.41, 
			 "cosmo_total_nonelectrostatic_energy": 9.54, 
			 "SMD_solvation_energy": 6.79 
		},
		"coords": [
			{
				"x": 0.0425523394,
				"y": 1.5985209857,
				"z": -3.4520681307,
				"element": "C" 
			},
			{
				"x": -0.9895493972,
				"y": 1.7118353142,
				"z": -2.3483171436,
				"element": "C" 
			},
			{
				"x": -1.5162222112,
				"y": 2.7634202832,
				"z": -2.0520692425,
				"element": "O" 
			},
			{
				"x": -1.3848353249,
				"y": 0.4127923855,
				"z": -1.6238940013,
				"element": "C" 
			},
			{
				"x": -0.2166244306,
				"y": -0.4934115393,
				"z": -1.2858054261,
				"element": "C" 
			},
			{
				"x": -0.0721620179,
				"y": -1.6304107556,
				"z": -1.6806701134,
				"element": "O" 
			},
			{
				"x": 0.6593726873,
				"y": 0.1483682526,
				"z": -0.4818941225,
				"element": "O" 
			},
			{
				"x": 1.8379563886,
				"y": -0.6058381735,
				"z": -0.0768373775,
				"element": "C" 
			},
			{
				"x": 2.8792282568,
				"y": -0.6373643097,
				"z": -1.1561227342,
				"element": "C" 
			},
			{
				"x": 4.0644959076,
				"y": -0.0362564768,
				"z": -1.0516022738,
				"element": "C" 
			},
			{
				"x": 1.0266636637,
				"y": 1.4039639779,
				"z": -3.0093901059,
				"element": "H" 
			},
			{
				"x": 0.08162654,
				"y": 2.5319010308,
				"z": -4.0148112208,
				"element": "H" 
			},
			{
				"x": -0.1828612981,
				"y": 0.7600620064,
				"z": -4.120015717,
				"element": "H" 
			},
			{
				"x": -2.0630366806,
				"y": -0.1569670925,
				"z": -2.2670945511,
				"element": "H" 
			},
			{
				"x": -1.9156407974,
				"y": 0.6991999759,
				"z": -0.7125577993,
				"element": "H" 
			},
			{
				"x": 1.5182794622,
				"y": -1.6177589029,
				"z": 0.1891561822,
				"element": "H" 
			},
			{
				"x": 2.2006266077,
				"y": -0.0858916829,
				"z": 0.8117703441,
				"element": "H" 
			},
			{
				"x": 2.620061528,
				"y": -1.2038608224,
				"z": -2.0476555112,
				"element": "H" 
			},
			{
				"x": 4.8063341616,
				"y": -0.095381952,
				"z": -1.8424428201,
				"element": "H" 
			},
			{
				"x": 4.3415346148,
				"y": 0.5305774957,
				"z": -0.1655782352,
				"element": "H" 
			}
		],
		 "valence_orbital": [ 
			{
				"type": "occ",
				"energy": -0.35545,
				"method": "rhf"
			},
			{
				"type": "occ",
				"energy": -0.31097,
				"method": "rhf"
			},
			{
				"type": "occ",
				"energy": -0.28831,
				"method": "rhf"
			},
			{
				"type": "occ",
				"energy": -0.27832,
				"method": "rhf"
			},
			{
				"type": "occ",
				"energy": -0.25089,
				"method": "rhf"
			},
			{
				"type": "unocc",
				"energy": -0.02311,
				"method": "rhf"
			},
			{
				"type": "unocc",
				"energy": -0.00742,
				"method": "rhf"
			},
			{
				"type": "unocc",
				"energy": 0.00014,
				"method": "rhf"
			},
			{
				"type": "unocc",
				"energy": 0.09832,
				"method": "rhf"
			},
			{
				"type": "unocc",
				"energy": 0.10882,
				"method": "rhf"
			}
		],
		"cosmo_sigma_profile": { 
			"-0.025": 0.0,
			"-0.024": 0.0,
			"-0.023": 0.0,
			"-0.022": 0.0,
			"-0.021": 0.0,
			"-0.02": 0.0,
			"-0.019": 0.0,
			"-0.018": 0.0,
			"-0.017": 0.0,
			"-0.016": 0.0,
			"-0.015": 0.0,
			"-0.014": 0.0,
			"-0.013": 0.0,
			"-0.012": 0.0,
			"-0.011": 0.0,
			"-0.01": 0.0,
			"-0.009": 0.282507347604,
			"-0.008": 3.42491081747,
			"-0.007": 6.77558032758,
			"-0.006": 12.5119440665,
			"-0.005": 16.2015212746,
			"-0.004": 19.8282674996,
			"-0.003": 21.5095896226,
			"-0.002": 18.5295276925,
			"-0.001": 16.1437130248,
			"0.0": 10.4316363189,
			"0.001": 8.598809276,
			"0.002": 8.21919914686,
			"0.003": 8.17366475488,
			"0.004": 7.35991920878,
			"0.005": 6.29076324519,
			"0.006": 4.09457022393,
			"0.007": 3.48342931071,
			"0.008": 3.20998984505,
			"0.009": 3.61127572768,
			"0.01": 4.30925395509,
			"0.011": 8.16830571133,
			"0.012": 5.7299072691,
			"0.013": 0.714037329428,
			"0.014": 0.0,
			"0.015": 0.0,
			"0.016": 0.0,
			"0.017": 0.0,
			"0.018": 0.0,
			"0.019": 0.0,
			"0.02": 0.0,
			"0.021": 0.0,
			"0.022": 0.0,
			"0.023": 0.0,
			"0.024": 0.0,
			"0.025": 0.0
		}
	}
}
