{
	 "smiles": "CC1=C(C)C=C(C=C1)C(=O)COC1=CC=C(C=O)C=C1", 
	 "Tm": 339.15, 
	 "num_atms": 36, 
	 "gaussian": { 
		 "optdone": 1, 
		 "sigma_profile": "yes", 
		 "theory": "DFT", 
		 "functional": "B3LYP", 
		 "basiset": "6-31G**", 
		 "properties": { 
			 "R2extent": 8782.0398, 
			 "electric_dipole_moment_norm": 5.15274184294, 
			 "electric_quadrupole_moment_norm": 21.6290261145, 
			 "total_energy": -883.117818843, 
			 "HOMO_LUMO_gap": 0.17386, 
			 "cosmo_polarized_energy": -15.11, 
			 "cosmo_cavitation_energy": 40.91, 
			 "cosmo_dispersion_energy": -28.34, 
			 "cosmo_repulsion_energy": 2.16, 
			 "cosmo_total_nonelectrostatic_energy": 14.73, 
			 "SMD_solvation_energy": 8.65 
		},
		"coords": [
			{
				"x": 2.3308000564,
				"y": 0.4268740064,
				"z": 4.7512577509,
				"element": "C" 
			},
			{
				"x": 2.043277929,
				"y": 0.7612218354,
				"z": 3.3088150731,
				"element": "C" 
			},
			{
				"x": 0.8119070775,
				"y": 0.4041437839,
				"z": 2.715434173,
				"element": "C" 
			},
			{
				"x": -0.2488008848,
				"y": -0.3201505646,
				"z": 3.5101657935,
				"element": "C" 
			},
			{
				"x": 0.5848665324,
				"y": 0.7273380195,
				"z": 1.3757597931,
				"element": "C" 
			},
			{
				"x": 1.5459220006,
				"y": 1.403908731,
				"z": 0.6078599468,
				"element": "C" 
			},
			{
				"x": 2.7633500582,
				"y": 1.7574262532,
				"z": 1.2074563336,
				"element": "C" 
			},
			{
				"x": 3.0014261385,
				"y": 1.4339185685,
				"z": 2.5368846393,
				"element": "C" 
			},
			{
				"x": 1.3259866537,
				"y": 1.8050679673,
				"z": -0.8079311162,
				"element": "C" 
			},
			{
				"x": 2.1230544783,
				"y": 2.5073968741,
				"z": -1.4119743395,
				"element": "O" 
			},
			{
				"x": 0.0386838676,
				"y": 1.3988756918,
				"z": -1.5387693344,
				"element": "C" 
			},
			{
				"x": -0.1437350816,
				"y": -0.012601063,
				"z": -1.4469893296,
				"element": "O" 
			},
			{
				"x": -1.2117052185,
				"y": -0.5788232173,
				"z": -2.074266627,
				"element": "C" 
			},
			{
				"x": -1.3074288255,
				"y": -1.9757605865,
				"z": -1.9570928946,
				"element": "C" 
			},
			{
				"x": -2.3637792357,
				"y": -2.6438860296,
				"z": -2.5562589642,
				"element": "C" 
			},
			{
				"x": -3.3405403785,
				"y": -1.9392340895,
				"z": -3.279345633,
				"element": "C" 
			},
			{
				"x": -4.4625186337,
				"y": -2.65619959,
				"z": -3.9127206817,
				"element": "C" 
			},
			{
				"x": -5.3536903476,
				"y": -2.1277403462,
				"z": -4.5531904778,
				"element": "O" 
			},
			{
				"x": -3.2333320916,
				"y": -0.5463300298,
				"z": -3.3907758217,
				"element": "C" 
			},
			{
				"x": -2.1795256116,
				"y": 0.1391945245,
				"z": -2.796565112,
				"element": "C" 
			},
			{
				"x": 2.2856159534,
				"y": -0.6541945581,
				"z": 4.9304843479,
				"element": "H" 
			},
			{
				"x": 1.5975875143,
				"y": 0.8868225405,
				"z": 5.4248202604,
				"element": "H" 
			},
			{
				"x": 3.3232629927,
				"y": 0.7747441234,
				"z": 5.0479573407,
				"element": "H" 
			},
			{
				"x": -0.5707115888,
				"y": 0.2624078397,
				"z": 4.381811193,
				"element": "H" 
			},
			{
				"x": 0.116585541,
				"y": -1.2812610026,
				"z": 3.8915666032,
				"element": "H" 
			},
			{
				"x": -1.1320808434,
				"y": -0.5194648799,
				"z": 2.898142083,
				"element": "H" 
			},
			{
				"x": -0.3566539081,
				"y": 0.4339877978,
				"z": 0.9246121656,
				"element": "H" 
			},
			{
				"x": 3.5014469166,
				"y": 2.2858597532,
				"z": 0.6138068443,
				"element": "H" 
			},
			{
				"x": 3.9483870514,
				"y": 1.7083036045,
				"z": 2.9945992332,
				"element": "H" 
			},
			{
				"x": 0.1503509936,
				"y": 1.7161767188,
				"z": -2.5801652438,
				"element": "H" 
			},
			{
				"x": -0.8185589393,
				"y": 1.9273580574,
				"z": -1.094360358,
				"element": "H" 
			},
			{
				"x": -0.5420459726,
				"y": -2.501782025,
				"z": -1.3965523617,
				"element": "H" 
			},
			{
				"x": -2.4389069396,
				"y": -3.7252930191,
				"z": -2.4672263074,
				"element": "H" 
			},
			{
				"x": -4.4467024797,
				"y": -3.7598280818,
				"z": -3.7636786308,
				"element": "H" 
			},
			{
				"x": -3.9937705674,
				"y": -0.0143633192,
				"z": -3.95402606,
				"element": "H" 
			},
			{
				"x": -2.1138242075,
				"y": 1.2157857113,
				"z": -2.8980442815,
				"element": "H" 
			}
		],
		 "valence_orbital": [ 
			{
				"type": "occ",
				"energy": -0.26035,
				"method": "rhf"
			},
			{
				"type": "occ",
				"energy": -0.25893,
				"method": "rhf"
			},
			{
				"type": "occ",
				"energy": -0.25041,
				"method": "rhf"
			},
			{
				"type": "occ",
				"energy": -0.24874,
				"method": "rhf"
			},
			{
				"type": "occ",
				"energy": -0.23873,
				"method": "rhf"
			},
			{
				"type": "unocc",
				"energy": -0.06487,
				"method": "rhf"
			},
			{
				"type": "unocc",
				"energy": -0.05586,
				"method": "rhf"
			},
			{
				"type": "unocc",
				"energy": -0.01757,
				"method": "rhf"
			},
			{
				"type": "unocc",
				"energy": -0.00826,
				"method": "rhf"
			},
			{
				"type": "unocc",
				"energy": 0.02689,
				"method": "rhf"
			}
		],
		"cosmo_sigma_profile": { 
			"-0.025": 0.0,
			"-0.024": 0.0,
			"-0.023": 0.0,
			"-0.022": 0.0,
			"-0.021": 0.0,
			"-0.02": 0.0,
			"-0.019": 0.0,
			"-0.018": 0.0,
			"-0.017": 0.0,
			"-0.016": 0.0,
			"-0.015": 0.0,
			"-0.014": 0.0,
			"-0.013": 0.0,
			"-0.012": 0.0,
			"-0.011": 0.0,
			"-0.01": 0.0,
			"-0.009": 0.0563706184717,
			"-0.008": 5.16906340932,
			"-0.007": 13.4863447825,
			"-0.006": 16.9862768187,
			"-0.005": 22.9509409998,
			"-0.004": 29.3094627704,
			"-0.003": 23.3910233619,
			"-0.002": 23.1743067081,
			"-0.001": 27.1039862646,
			"0.0": 29.101957856,
			"0.001": 23.4287010252,
			"0.002": 23.4763227674,
			"0.003": 25.1147257342,
			"0.004": 18.2145573173,
			"0.005": 7.96280054718,
			"0.006": 4.83187792834,
			"0.007": 4.33210527183,
			"0.008": 3.1814607615,
			"0.009": 3.6570457676,
			"0.01": 5.0064261985,
			"0.011": 6.69176814157,
			"0.012": 7.2490659016,
			"0.013": 1.79398683855,
			"0.014": 0.150258626562,
			"0.015": 0.0,
			"0.016": 0.0,
			"0.017": 0.0,
			"0.018": 0.0,
			"0.019": 0.0,
			"0.02": 0.0,
			"0.021": 0.0,
			"0.022": 0.0,
			"0.023": 0.0,
			"0.024": 0.0,
			"0.025": 0.0
		}
	}
}
