{
	 "smiles": "CC(=O)CC1=NN(C=N1)C1=NOC(C)=C1", 
	 "Tm": 412.15, 
	 "num_atms": 25, 
	 "gaussian": { 
		 "optdone": 1, 
		 "sigma_profile": "yes", 
		 "theory": "DFT", 
		 "functional": "B3LYP", 
		 "basiset": "6-31G**", 
		 "properties": { 
			 "R2extent": 4984.5697, 
			 "electric_dipole_moment_norm": 5.76282276146, 
			 "electric_quadrupole_moment_norm": 10.6347616579, 
			 "total_energy": -718.374747571, 
			 "HOMO_LUMO_gap": 0.19494, 
			 "cosmo_polarized_energy": -14.46, 
			 "cosmo_cavitation_energy": 30.95, 
			 "cosmo_dispersion_energy": -22.05, 
			 "cosmo_repulsion_energy": 1.74, 
			 "cosmo_total_nonelectrostatic_energy": 10.64, 
			 "SMD_solvation_energy": 4.26 
		},
		"coords": [
			{
				"x": 2.903459583,
				"y": 1.6466139052,
				"z": -0.272126731,
				"element": "C" 
			},
			{
				"x": 3.1704571397,
				"y": 1.2766843305,
				"z": 1.172014475,
				"element": "C" 
			},
			{
				"x": 4.2322942579,
				"y": 1.4993009384,
				"z": 1.7161898804,
				"element": "O" 
			},
			{
				"x": 2.0519065173,
				"y": 0.5536500266,
				"z": 1.945125645,
				"element": "C" 
			},
			{
				"x": 0.6548140175,
				"y": 0.9184848248,
				"z": 1.5606841323,
				"element": "C" 
			},
			{
				"x": -0.1981989486,
				"y": 0.0383608984,
				"z": 1.0567857617,
				"element": "N" 
			},
			{
				"x": -1.3207738072,
				"y": 0.7920540856,
				"z": 0.8639779177,
				"element": "N" 
			},
			{
				"x": -1.083024099,
				"y": 2.074644352,
				"z": 1.2553408076,
				"element": "C" 
			},
			{
				"x": 0.150377755,
				"y": 2.1893323504,
				"z": 1.6974916965,
				"element": "N" 
			},
			{
				"x": -2.4871365046,
				"y": 0.225798066,
				"z": 0.3394306602,
				"element": "C" 
			},
			{
				"x": -3.5494488135,
				"y": 0.9748559989,
				"z": 0.1441334924,
				"element": "N" 
			},
			{
				"x": -4.4995052621,
				"y": 0.0950093272,
				"z": -0.374264347,
				"element": "O" 
			},
			{
				"x": -3.9700969019,
				"y": -1.1465972179,
				"z": -0.4708132484,
				"element": "C" 
			},
			{
				"x": -4.8575894278,
				"y": -2.2132124174,
				"z": -1.0096635506,
				"element": "C" 
			},
			{
				"x": -2.6802397693,
				"y": -1.131880162,
				"z": -0.0286923704,
				"element": "C" 
			},
			{
				"x": 2.4633602347,
				"y": 0.8055281295,
				"z": -0.8192839774,
				"element": "H" 
			},
			{
				"x": 3.8329208158,
				"y": 1.9643945471,
				"z": -0.7459771982,
				"element": "H" 
			},
			{
				"x": 2.17675986,
				"y": 2.466161596,
				"z": -0.3065668243,
				"element": "H" 
			},
			{
				"x": 2.185161486,
				"y": -0.5220371171,
				"z": 1.778139381,
				"element": "H" 
			},
			{
				"x": 2.225858311,
				"y": 0.747789385,
				"z": 3.0072765318,
				"element": "H" 
			},
			{
				"x": -1.8336381485,
				"y": 2.8490919865,
				"z": 1.1924314703,
				"element": "H" 
			},
			{
				"x": -5.1923057195,
				"y": -1.9659454174,
				"z": -2.0223052722,
				"element": "H" 
			},
			{
				"x": -4.3246530454,
				"y": -3.1651606804,
				"z": -1.040063861,
				"element": "H" 
			},
			{
				"x": -5.7488525495,
				"y": -2.3299395039,
				"z": -0.3846633571,
				"element": "H" 
			},
			{
				"x": -1.969006981,
				"y": -1.9382822321,
				"z": 0.0349988857,
				"element": "H" 
			}
		],
		 "valence_orbital": [ 
			{
				"type": "occ",
				"energy": -0.29631,
				"method": "rhf"
			},
			{
				"type": "occ",
				"energy": -0.29131,
				"method": "rhf"
			},
			{
				"type": "occ",
				"energy": -0.27983,
				"method": "rhf"
			},
			{
				"type": "occ",
				"energy": -0.26647,
				"method": "rhf"
			},
			{
				"type": "occ",
				"energy": -0.24153,
				"method": "rhf"
			},
			{
				"type": "unocc",
				"energy": -0.04659,
				"method": "rhf"
			},
			{
				"type": "unocc",
				"energy": -0.01302,
				"method": "rhf"
			},
			{
				"type": "unocc",
				"energy": -0.00403,
				"method": "rhf"
			},
			{
				"type": "unocc",
				"energy": 0.03315,
				"method": "rhf"
			},
			{
				"type": "unocc",
				"energy": 0.06773,
				"method": "rhf"
			}
		],
		"cosmo_sigma_profile": { 
			"-0.025": 0.0,
			"-0.024": 0.0,
			"-0.023": 0.0,
			"-0.022": 0.0,
			"-0.021": 0.0,
			"-0.02": 0.0,
			"-0.019": 0.0,
			"-0.018": 0.0,
			"-0.017": 0.0,
			"-0.016": 0.0,
			"-0.015": 0.0,
			"-0.014": 0.0,
			"-0.013": 0.0,
			"-0.012": 0.0449735585496,
			"-0.011": 0.820635677444,
			"-0.01": 1.28246759154,
			"-0.009": 2.17624358337,
			"-0.008": 3.93541513409,
			"-0.007": 9.47962267908,
			"-0.006": 14.6291709037,
			"-0.005": 17.5040301877,
			"-0.004": 19.097474503,
			"-0.003": 26.7281917977,
			"-0.002": 26.2373714004,
			"-0.001": 23.2588965495,
			"0.0": 14.6766066966,
			"0.001": 11.8714195678,
			"0.002": 9.41153335998,
			"0.003": 6.23559292363,
			"0.004": 6.6331789456,
			"0.005": 6.09354806868,
			"0.006": 5.34563882539,
			"0.007": 7.93727582218,
			"0.008": 6.77653049743,
			"0.009": 5.51179865113,
			"0.01": 5.99064401412,
			"0.011": 6.4220980948,
			"0.012": 5.4431831481,
			"0.013": 2.26487034836,
			"0.014": 0.799210159274,
			"0.015": 0.698712195806,
			"0.016": 0.00198225301444,
			"0.017": 0.0,
			"0.018": 0.0,
			"0.019": 0.0,
			"0.02": 0.0,
			"0.021": 0.0,
			"0.022": 0.0,
			"0.023": 0.0,
			"0.024": 0.0,
			"0.025": 0.0
		}
	}
}
