{
	 "smiles": "CC1(C)CCC2(CCC3(C)C(=CCC4C5(C)CCC(O)C(C)(C=O)C5CCC34C)C2C1)C(O)=O", 
	 "Tm": 548.15, 
	 "num_atms": 80, 
	 "gaussian": { 
		 "optdone": 1, 
		 "sigma_profile": "yes", 
		 "theory": "DFT", 
		 "functional": "B3LYP", 
		 "basiset": "6-31G**", 
		 "properties": { 
			 "R2extent": 16091.8793, 
			 "electric_dipole_moment_norm": 2.64566602201, 
			 "electric_quadrupole_moment_norm": 15.7962041706, 
			 "total_energy": -1471.78315438, 
			 "HOMO_LUMO_gap": 0.20347, 
			 "cosmo_polarized_energy": -16.85, 
			 "cosmo_cavitation_energy": 61.96, 
			 "cosmo_dispersion_energy": -41.82, 
			 "cosmo_repulsion_energy": 2.96, 
			 "cosmo_total_nonelectrostatic_energy": 23.11, 
			 "SMD_solvation_energy": 10.84 
		},
		"coords": [
			{
				"x": 1.5111835164,
				"y": -4.0811862736,
				"z": -3.3946762188,
				"element": "C" 
			},
			{
				"x": 0.4992500897,
				"y": -4.3140764179,
				"z": -2.2569693783,
				"element": "C" 
			},
			{
				"x": 0.6887207259,
				"y": -5.7417847025,
				"z": -1.7089176972,
				"element": "C" 
			},
			{
				"x": -0.955025095,
				"y": -4.1389883129,
				"z": -2.7945272757,
				"element": "C" 
			},
			{
				"x": -1.8519782438,
				"y": -3.3549008611,
				"z": -1.8315494068,
				"element": "C" 
			},
			{
				"x": -1.3469147335,
				"y": -1.9067276716,
				"z": -1.6244118043,
				"element": "C" 
			},
			{
				"x": -2.1463256009,
				"y": -1.2222673341,
				"z": -0.4728009001,
				"element": "C" 
			},
			{
				"x": -1.5370921459,
				"y": -1.4665649301,
				"z": 0.9140253247,
				"element": "C" 
			},
			{
				"x": -0.0959530322,
				"y": -0.9017911616,
				"z": 1.1238677238,
				"element": "C" 
			},
			{
				"x": 0.6052892989,
				"y": -1.8841545942,
				"z": 2.1129783621,
				"element": "C" 
			},
			{
				"x": 0.6494733154,
				"y": -0.9468958508,
				"z": -0.2140700088,
				"element": "C" 
			},
			{
				"x": 1.7982093085,
				"y": -0.2692885483,
				"z": -0.3208625587,
				"element": "C" 
			},
			{
				"x": 2.3704804071,
				"y": 0.4827111217,
				"z": 0.8449088802,
				"element": "C" 
			},
			{
				"x": 1.3288187365,
				"y": 1.325887792,
				"z": 1.6426606775,
				"element": "C" 
			},
			{
				"x": 1.2926472939,
				"y": 2.8358820615,
				"z": 1.1489819581,
				"element": "C" 
			},
			{
				"x": 2.7524430802,
				"y": 3.3607021808,
				"z": 1.0655843065,
				"element": "C" 
			},
			{
				"x": 0.5799434614,
				"y": 3.7775576124,
				"z": 2.1883875503,
				"element": "C" 
			},
			{
				"x": -0.3605980063,
				"y": 4.8236068345,
				"z": 1.5579176468,
				"element": "C" 
			},
			{
				"x": 0.1926723455,
				"y": 5.4605328129,
				"z": 0.2864864857,
				"element": "C" 
			},
			{
				"x": 1.3549677974,
				"y": 6.2081935477,
				"z": 0.6724676781,
				"element": "O" 
			},
			{
				"x": 0.471666316,
				"y": 4.3841137812,
				"z": -0.8178073725,
				"element": "C" 
			},
			{
				"x": 1.7015979506,
				"y": 4.7691026381,
				"z": -1.6846651157,
				"element": "C" 
			},
			{
				"x": -0.6538613805,
				"y": 4.4047616961,
				"z": -1.8581245556,
				"element": "C" 
			},
			{
				"x": -1.5149485612,
				"y": 5.2508192097,
				"z": -1.9701904096,
				"element": "O" 
			},
			{
				"x": 0.5909990368,
				"y": 2.9149419763,
				"z": -0.2431723637,
				"element": "C" 
			},
			{
				"x": -0.7846451714,
				"y": 2.1636910102,
				"z": -0.2311164386,
				"element": "C" 
			},
			{
				"x": -1.1638388151,
				"y": 1.5059443935,
				"z": 1.1003943276,
				"element": "C" 
			},
			{
				"x": -0.0908037,
				"y": 0.5958088827,
				"z": 1.7529280682,
				"element": "C" 
			},
			{
				"x": -0.4670128288,
				"y": 0.4877191178,
				"z": 3.2533266737,
				"element": "C" 
			},
			{
				"x": 0.2061960754,
				"y": -1.8791159754,
				"z": -1.341086741,
				"element": "C" 
			},
			{
				"x": 0.744049585,
				"y": -3.3153575638,
				"z": -1.0960072664,
				"element": "C" 
			},
			{
				"x": -1.6997024598,
				"y": -1.1165152752,
				"z": -2.8892632906,
				"element": "C" 
			},
			{
				"x": -0.9485510286,
				"y": 0.0066633365,
				"z": -3.0532156397,
				"element": "O" 
			},
			{
				"x": -2.5859111769,
				"y": -1.3897511589,
				"z": -3.671223733,
				"element": "O" 
			},
			{
				"x": 1.4584554935,
				"y": -3.0576624723,
				"z": -3.7823333798,
				"element": "H" 
			},
			{
				"x": 1.3139445966,
				"y": -4.7582453463,
				"z": -4.2337156791,
				"element": "H" 
			},
			{
				"x": 2.5384910207,
				"y": -4.2590135234,
				"z": -3.0558405965,
				"element": "H" 
			},
			{
				"x": 0.5966860884,
				"y": -6.4847844527,
				"z": -2.5093690065,
				"element": "H" 
			},
			{
				"x": 1.676817541,
				"y": -5.8643494444,
				"z": -1.2498729403,
				"element": "H" 
			},
			{
				"x": -0.0637496627,
				"y": -5.9770745866,
				"z": -0.9471111619,
				"element": "H" 
			},
			{
				"x": -1.3975982924,
				"y": -5.1201839817,
				"z": -3.0024209575,
				"element": "H" 
			},
			{
				"x": -0.9421362336,
				"y": -3.6102661207,
				"z": -3.7551330919,
				"element": "H" 
			},
			{
				"x": -2.8717036952,
				"y": -3.3086100378,
				"z": -2.2219063972,
				"element": "H" 
			},
			{
				"x": -1.903475202,
				"y": -3.8611808125,
				"z": -0.8604467954,
				"element": "H" 
			},
			{
				"x": -3.1749448988,
				"y": -1.6004448419,
				"z": -0.4964023035,
				"element": "H" 
			},
			{
				"x": -2.2117356656,
				"y": -0.1504286607,
				"z": -0.6661692899,
				"element": "H" 
			},
			{
				"x": -2.2148112388,
				"y": -1.0759961239,
				"z": 1.6803713371,
				"element": "H" 
			},
			{
				"x": -1.5085767904,
				"y": -2.5494890391,
				"z": 1.0864275571,
				"element": "H" 
			},
			{
				"x": 1.5713021034,
				"y": -1.5189137498,
				"z": 2.4660514079,
				"element": "H" 
			},
			{
				"x": 0.7783128925,
				"y": -2.8478117694,
				"z": 1.6303072193,
				"element": "H" 
			},
			{
				"x": -0.0189486406,
				"y": -2.0700407785,
				"z": 2.9916820496,
				"element": "H" 
			},
			{
				"x": 2.3735356869,
				"y": -0.3097164091,
				"z": -1.2453365366,
				"element": "H" 
			},
			{
				"x": 3.2016128247,
				"y": 1.103959866,
				"z": 0.5167364985,
				"element": "H" 
			},
			{
				"x": 2.8265455409,
				"y": -0.2387636672,
				"z": 1.535263467,
				"element": "H" 
			},
			{
				"x": 1.723961186,
				"y": 1.3953444053,
				"z": 2.6639415546,
				"element": "H" 
			},
			{
				"x": 2.7581808948,
				"y": 4.4506812979,
				"z": 1.0341814945,
				"element": "H" 
			},
			{
				"x": 3.3112255554,
				"y": 3.0538991834,
				"z": 1.9581361824,
				"element": "H" 
			},
			{
				"x": 3.2976532357,
				"y": 2.9964796114,
				"z": 0.1908152176,
				"element": "H" 
			},
			{
				"x": 1.3516656958,
				"y": 4.3073486317,
				"z": 2.7551189543,
				"element": "H" 
			},
			{
				"x": 0.017943897,
				"y": 3.209542865,
				"z": 2.9311823657,
				"element": "H" 
			},
			{
				"x": -1.3282099706,
				"y": 4.3734301209,
				"z": 1.3094314554,
				"element": "H" 
			},
			{
				"x": -0.5653164603,
				"y": 5.6186708869,
				"z": 2.2826375503,
				"element": "H" 
			},
			{
				"x": -0.5576687561,
				"y": 6.1499074472,
				"z": -0.1175551478,
				"element": "H" 
			},
			{
				"x": 1.5634404025,
				"y": 6.8269718139,
				"z": -0.037501921,
				"element": "H" 
			},
			{
				"x": 1.5674981812,
				"y": 5.7588934151,
				"z": -2.1382952852,
				"element": "H" 
			},
			{
				"x": 1.8323928131,
				"y": 4.053193343,
				"z": -2.5035783726,
				"element": "H" 
			},
			{
				"x": 2.6194161221,
				"y": 4.7849139114,
				"z": -1.1005422468,
				"element": "H" 
			},
			{
				"x": -0.5875466652,
				"y": 3.5739099489,
				"z": -2.5977444061,
				"element": "H" 
			},
			{
				"x": 1.2368689111,
				"y": 2.3652950984,
				"z": -0.9378123019,
				"element": "H" 
			},
			{
				"x": -1.6049222879,
				"y": 2.8476412662,
				"z": -0.4807729108,
				"element": "H" 
			},
			{
				"x": -0.7692284501,
				"y": 1.4145593393,
				"z": -1.0255802572,
				"element": "H" 
			},
			{
				"x": -2.1040607934,
				"y": 0.9635676509,
				"z": 0.9793548691,
				"element": "H" 
			},
			{
				"x": -1.408489409,
				"y": 2.2946620041,
				"z": 1.8145863457,
				"element": "H" 
			},
			{
				"x": 0.2965713984,
				"y": -0.0300813053,
				"z": 3.8382135457,
				"element": "H" 
			},
			{
				"x": -0.5843050209,
				"y": 1.4813334504,
				"z": 3.6931273761,
				"element": "H" 
			},
			{
				"x": -1.4172191953,
				"y": -0.0378835804,
				"z": 3.400230774,
				"element": "H" 
			},
			{
				"x": 0.7065236867,
				"y": -1.5128996401,
				"z": -2.2421647326,
				"element": "H" 
			},
			{
				"x": 1.8189315906,
				"y": -3.248360616,
				"z": -0.8920683407,
				"element": "H" 
			},
			{
				"x": 0.2892000675,
				"y": -3.7250305811,
				"z": -0.1880802099,
				"element": "H" 
			},
			{
				"x": -1.3060764581,
				"y": 0.44355261,
				"z": -3.8448004411,
				"element": "H" 
			}
		],
		 "valence_orbital": [ 
			{
				"type": "occ",
				"energy": -0.27302,
				"method": "rhf"
			},
			{
				"type": "occ",
				"energy": -0.2666,
				"method": "rhf"
			},
			{
				"type": "occ",
				"energy": -0.2665,
				"method": "rhf"
			},
			{
				"type": "occ",
				"energy": -0.24273,
				"method": "rhf"
			},
			{
				"type": "occ",
				"energy": -0.22373,
				"method": "rhf"
			},
			{
				"type": "unocc",
				"energy": -0.02026,
				"method": "rhf"
			},
			{
				"type": "unocc",
				"energy": 0.00571,
				"method": "rhf"
			},
			{
				"type": "unocc",
				"energy": 0.01792,
				"method": "rhf"
			},
			{
				"type": "unocc",
				"energy": 0.05793,
				"method": "rhf"
			},
			{
				"type": "unocc",
				"energy": 0.06283,
				"method": "rhf"
			}
		],
		"cosmo_sigma_profile": { 
			"-0.025": 0.0,
			"-0.024": 0.0,
			"-0.023": 0.0,
			"-0.022": 0.0,
			"-0.021": 0.0,
			"-0.02": 0.0,
			"-0.019": 0.0,
			"-0.018": 0.231831851657,
			"-0.017": 0.68256459671,
			"-0.016": 0.923583734251,
			"-0.015": 0.896745831827,
			"-0.014": 2.09019788837,
			"-0.013": 1.50940698991,
			"-0.012": 1.21454196186,
			"-0.011": 1.96962772051,
			"-0.01": 2.59889028763,
			"-0.009": 1.29181522983,
			"-0.008": 1.27121938224,
			"-0.007": 1.74485395466,
			"-0.006": 4.16219894126,
			"-0.005": 8.81243471538,
			"-0.004": 15.2772968127,
			"-0.003": 41.0181635318,
			"-0.002": 72.2481246196,
			"-0.001": 81.9189354893,
			"0.0": 73.2920173309,
			"0.001": 55.855704275,
			"0.002": 32.4846448884,
			"0.003": 11.5355692442,
			"0.004": 8.04947203091,
			"0.005": 6.42794394228,
			"0.006": 5.10430863662,
			"0.007": 5.73449883747,
			"0.008": 6.84879396643,
			"0.009": 4.72166957732,
			"0.01": 5.72725801645,
			"0.011": 8.20161558078,
			"0.012": 8.24004790774,
			"0.013": 2.04516820786,
			"0.014": 0.667823788739,
			"0.015": 0.0254783775685,
			"0.016": 0.0,
			"0.017": 0.0,
			"0.018": 0.0,
			"0.019": 0.0,
			"0.02": 0.0,
			"0.021": 0.0,
			"0.022": 0.0,
			"0.023": 0.0,
			"0.024": 0.0,
			"0.025": 0.0
		}
	}
}
