{
	 "smiles": "FC(F)(F)OC1=CC2=C(NC(=O)C2=O)C=C1", 
	 "Tm": 444.15, 
	 "num_atms": 20, 
	 "gaussian": { 
		 "optdone": 1, 
		 "sigma_profile": "yes", 
		 "theory": "DFT", 
		 "functional": "B3LYP", 
		 "basiset": "6-31G**", 
		 "properties": { 
			 "R2extent": 4641.0038, 
			 "electric_dipole_moment_norm": 5.42287856124, 
			 "electric_quadrupole_moment_norm": 16.439047484, 
			 "total_energy": -925.309578654, 
			 "HOMO_LUMO_gap": 0.13479, 
			 "cosmo_polarized_energy": -15.35, 
			 "cosmo_cavitation_energy": 27.63, 
			 "cosmo_dispersion_energy": -19.85, 
			 "cosmo_repulsion_energy": 1.48, 
			 "cosmo_total_nonelectrostatic_energy": 9.26, 
			 "SMD_solvation_energy": 7.62 
		},
		"coords": [
			{
				"x": 3.8440621311,
				"y": 1.261194964,
				"z": -1.6240772217,
				"element": "F" 
			},
			{
				"x": 3.7560875179,
				"y": 1.565169994,
				"z": -0.3143775297,
				"element": "C" 
			},
			{
				"x": 4.1112949676,
				"y": 0.463771181,
				"z": 0.3756783962,
				"element": "F" 
			},
			{
				"x": 4.6238795463,
				"y": 2.5362963945,
				"z": -0.043135726,
				"element": "F" 
			},
			{
				"x": 2.5229285403,
				"y": 2.016025167,
				"z": 0.030223809,
				"element": "O" 
			},
			{
				"x": 1.3921108962,
				"y": 1.2152150526,
				"z": -0.1377584723,
				"element": "C" 
			},
			{
				"x": 1.3964393981,
				"y": -0.0800937731,
				"z": -0.6556831911,
				"element": "C" 
			},
			{
				"x": 0.1693583552,
				"y": -0.7314022027,
				"z": -0.7508363639,
				"element": "C" 
			},
			{
				"x": -1.0310640418,
				"y": -0.1213506296,
				"z": -0.3459715532,
				"element": "C" 
			},
			{
				"x": -2.1142342492,
				"y": -0.9890252454,
				"z": -0.5472153064,
				"element": "N" 
			},
			{
				"x": -1.7156728014,
				"y": -2.2038059537,
				"z": -1.0864377069,
				"element": "C" 
			},
			{
				"x": -2.4181795725,
				"y": -3.1463048385,
				"z": -1.3684982979,
				"element": "O" 
			},
			{
				"x": -0.1572180828,
				"y": -2.0809375752,
				"z": -1.2456086382,
				"element": "C" 
			},
			{
				"x": 0.5611145229,
				"y": -2.9481612955,
				"z": -1.6891604045,
				"element": "O" 
			},
			{
				"x": -1.0278354834,
				"y": 1.1699429276,
				"z": 0.1693558443,
				"element": "C" 
			},
			{
				"x": 0.2007003312,
				"y": 1.8283403442,
				"z": 0.2672425782,
				"element": "C" 
			},
			{
				"x": 2.298805317,
				"y": -0.5832745896,
				"z": -0.9779407085,
				"element": "H" 
			},
			{
				"x": -3.0773557515,
				"y": -0.7758656367,
				"z": -0.332814793,
				"element": "H" 
			},
			{
				"x": -1.9411043898,
				"y": 1.661404416,
				"z": 0.4883497175,
				"element": "H" 
			},
			{
				"x": 0.2525828488,
				"y": 2.8369612992,
				"z": 0.6631655682,
				"element": "H" 
			}
		],
		 "valence_orbital": [ 
			{
				"type": "occ",
				"energy": -0.32541,
				"method": "rhf"
			},
			{
				"type": "occ",
				"energy": -0.31832,
				"method": "rhf"
			},
			{
				"type": "occ",
				"energy": -0.29297,
				"method": "rhf"
			},
			{
				"type": "occ",
				"energy": -0.25541,
				"method": "rhf"
			},
			{
				"type": "occ",
				"energy": -0.24209,
				"method": "rhf"
			},
			{
				"type": "unocc",
				"energy": -0.1073,
				"method": "rhf"
			},
			{
				"type": "unocc",
				"energy": -0.03377,
				"method": "rhf"
			},
			{
				"type": "unocc",
				"energy": -0.00092,
				"method": "rhf"
			},
			{
				"type": "unocc",
				"energy": 0.0678,
				"method": "rhf"
			},
			{
				"type": "unocc",
				"energy": 0.07219,
				"method": "rhf"
			}
		],
		"cosmo_sigma_profile": { 
			"-0.025": 0.0,
			"-0.024": 0.0,
			"-0.023": 0.0,
			"-0.022": 0.0,
			"-0.021": 0.0,
			"-0.02": 0.0,
			"-0.019": 0.0,
			"-0.018": 0.0,
			"-0.017": 0.580495188862,
			"-0.016": 1.47463912741,
			"-0.015": 1.77383967047,
			"-0.014": 1.0179797597,
			"-0.013": 1.65769179816,
			"-0.012": 0.836340987009,
			"-0.011": 0.996245209255,
			"-0.01": 1.87915168327,
			"-0.009": 2.2613517826,
			"-0.008": 6.63312411648,
			"-0.007": 7.13817817771,
			"-0.006": 7.6071719889,
			"-0.005": 6.95140924504,
			"-0.004": 7.74553810537,
			"-0.003": 8.49211728869,
			"-0.002": 15.1423638597,
			"-0.001": 21.6978911427,
			"0.0": 28.3200784922,
			"0.001": 30.974064999,
			"0.002": 24.4445135821,
			"0.003": 4.45453620732,
			"0.004": 4.10095577394,
			"0.005": 4.26717647121,
			"0.006": 1.66977673583,
			"0.007": 3.36174685493,
			"0.008": 3.47102349676,
			"0.009": 6.05424566832,
			"0.01": 8.13886806766,
			"0.011": 7.85162898883,
			"0.012": 2.4508664579,
			"0.013": 0.0576348488188,
			"0.014": 0.0,
			"0.015": 0.0,
			"0.016": 0.0,
			"0.017": 0.0,
			"0.018": 0.0,
			"0.019": 0.0,
			"0.02": 0.0,
			"0.021": 0.0,
			"0.022": 0.0,
			"0.023": 0.0,
			"0.024": 0.0,
			"0.025": 0.0
		}
	}
}
