{
	 "smiles": "OC(=O)C1=CC(Cl)=NO1", 
	 "Tm": 413.15, 
	 "num_atms": 11, 
	 "gaussian": { 
		 "optdone": 1, 
		 "sigma_profile": "yes", 
		 "theory": "DFT", 
		 "functional": "B3LYP", 
		 "basiset": "6-31G**", 
		 "properties": { 
			 "R2extent": 2300.4233, 
			 "electric_dipole_moment_norm": 1.85135474991, 
			 "electric_quadrupole_moment_norm": 11.4979654966, 
			 "total_energy": -894.187209256, 
			 "HOMO_LUMO_gap": 0.21233, 
			 "cosmo_polarized_energy": -10.49, 
			 "cosmo_cavitation_energy": 19.03, 
			 "cosmo_dispersion_energy": -14.33, 
			 "cosmo_repulsion_energy": 1.2, 
			 "cosmo_total_nonelectrostatic_energy": 5.9, 
			 "SMD_solvation_energy": 4.55 
		},
		"coords": [
			{
				"x": 1.6458973824,
				"y": 0.4310282198,
				"z": -0.0968514044,
				"element": "O" 
			},
			{
				"x": 0.4297314059,
				"y": 0.2262111557,
				"z": -0.6304404445,
				"element": "C" 
			},
			{
				"x": -0.014571166,
				"y": 0.81952157,
				"z": -1.5892372634,
				"element": "O" 
			},
			{
				"x": -0.3360279947,
				"y": -0.8195691744,
				"z": 0.0821338668,
				"element": "C" 
			},
			{
				"x": -1.5892120684,
				"y": -1.2964189392,
				"z": -0.1635469299,
				"element": "C" 
			},
			{
				"x": -1.7505913591,
				"y": -2.2739664887,
				"z": 0.85264022,
				"element": "C" 
			},
			{
				"x": -3.1323466682,
				"y": -3.2677066318,
				"z": 1.1170817086,
				"element": "Cl" 
			},
			{
				"x": -0.6997433798,
				"y": -2.3802718878,
				"z": 1.6374236662,
				"element": "N" 
			},
			{
				"x": 0.2058582439,
				"y": -1.4518981166,
				"z": 1.1473458707,
				"element": "O" 
			},
			{
				"x": 2.0671154796,
				"y": 1.1279883716,
				"z": -0.6278726852,
				"element": "H" 
			},
			{
				"x": -2.2787098755,
				"y": -1.0006180786,
				"z": -0.9370766049,
				"element": "H" 
			}
		],
		 "valence_orbital": [ 
			{
				"type": "occ",
				"energy": -0.34774,
				"method": "rhf"
			},
			{
				"type": "occ",
				"energy": -0.33493,
				"method": "rhf"
			},
			{
				"type": "occ",
				"energy": -0.30696,
				"method": "rhf"
			},
			{
				"type": "occ",
				"energy": -0.3036,
				"method": "rhf"
			},
			{
				"type": "occ",
				"energy": -0.29427,
				"method": "rhf"
			},
			{
				"type": "unocc",
				"energy": -0.08194,
				"method": "rhf"
			},
			{
				"type": "unocc",
				"energy": 0.00377,
				"method": "rhf"
			},
			{
				"type": "unocc",
				"energy": 0.00831,
				"method": "rhf"
			},
			{
				"type": "unocc",
				"energy": 0.06058,
				"method": "rhf"
			},
			{
				"type": "unocc",
				"energy": 0.07628,
				"method": "rhf"
			}
		],
		"cosmo_sigma_profile": { 
			"-0.025": 0.0,
			"-0.024": 0.0,
			"-0.023": 0.0,
			"-0.022": 0.0,
			"-0.021": 0.0,
			"-0.02": 0.31075294017,
			"-0.019": 1.10876923608,
			"-0.018": 0.987101951571,
			"-0.017": 0.864305689159,
			"-0.016": 0.848562917474,
			"-0.015": 0.390790009984,
			"-0.014": 0.414346347009,
			"-0.013": 0.885655702342,
			"-0.012": 1.46913524043,
			"-0.011": 1.77308451488,
			"-0.01": 1.8768362063,
			"-0.009": 1.9051569423,
			"-0.008": 2.60625166951,
			"-0.007": 2.62467104273,
			"-0.006": 3.97108487668,
			"-0.005": 6.37064873156,
			"-0.004": 10.0752466264,
			"-0.003": 12.0784936033,
			"-0.002": 11.9277821872,
			"-0.001": 8.96417539626,
			"0.0": 9.84229451936,
			"0.001": 9.24214366124,
			"0.002": 15.4084628771,
			"0.003": 8.60865950145,
			"0.004": 4.51959625368,
			"0.005": 6.48111441829,
			"0.006": 6.24775674246,
			"0.007": 5.54598307587,
			"0.008": 4.80874988771,
			"0.009": 4.19138473011,
			"0.01": 5.83459877079,
			"0.011": 3.51132484291,
			"0.012": 0.424635235639,
			"0.013": 0.0,
			"0.014": 0.0,
			"0.015": 0.0,
			"0.016": 0.0,
			"0.017": 0.0,
			"0.018": 0.0,
			"0.019": 0.0,
			"0.02": 0.0,
			"0.021": 0.0,
			"0.022": 0.0,
			"0.023": 0.0,
			"0.024": 0.0,
			"0.025": 0.0
		}
	}
}
