{
	 "smiles": "CCOC(=O)C(C#N)C(=O)C(=O)OCC", 
	 "Tm": 362.15, 
	 "num_atms": 26, 
	 "gaussian": { 
		 "optdone": 1, 
		 "sigma_profile": "yes", 
		 "theory": "DFT", 
		 "functional": "B3LYP", 
		 "basiset": "6-31G**", 
		 "properties": { 
			 "R2extent": 4807.2523, 
			 "electric_dipole_moment_norm": 4.89100414332, 
			 "electric_quadrupole_moment_norm": 30.6961153169, 
			 "total_energy": -780.437125025, 
			 "HOMO_LUMO_gap": 0.18597, 
			 "cosmo_polarized_energy": -15.55, 
			 "cosmo_cavitation_energy": 33.03, 
			 "cosmo_dispersion_energy": -22.15, 
			 "cosmo_repulsion_energy": 1.83, 
			 "cosmo_total_nonelectrostatic_energy": 12.72, 
			 "SMD_solvation_energy": 10.1 
		},
		"coords": [
			{
				"x": 3.2259741503,
				"y": 0.0811062932,
				"z": -3.160929995,
				"element": "C" 
			},
			{
				"x": 1.8946959405,
				"y": -0.0089181447,
				"z": -2.4434373079,
				"element": "C" 
			},
			{
				"x": 2.0137583395,
				"y": 0.7613148977,
				"z": -1.2120500964,
				"element": "O" 
			},
			{
				"x": 0.9202957845,
				"y": 0.8379885135,
				"z": -0.4582503196,
				"element": "C" 
			},
			{
				"x": -0.1443325141,
				"y": 0.3109277306,
				"z": -0.6925068676,
				"element": "O" 
			},
			{
				"x": 1.1734541697,
				"y": 1.6792935003,
				"z": 0.811711056,
				"element": "C" 
			},
			{
				"x": 1.8332527076,
				"y": 2.9503147693,
				"z": 0.523408764,
				"element": "C" 
			},
			{
				"x": 2.3643439571,
				"y": 3.9567896681,
				"z": 0.3009590572,
				"element": "N" 
			},
			{
				"x": -0.1790661961,
				"y": 1.8648256016,
				"z": 1.5338195284,
				"element": "C" 
			},
			{
				"x": -0.7732048599,
				"y": 2.9087211572,
				"z": 1.5961279038,
				"element": "O" 
			},
			{
				"x": -0.6649347394,
				"y": 0.5763437841,
				"z": 2.2247392189,
				"element": "C" 
			},
			{
				"x": 0.1032775601,
				"y": -0.3260967549,
				"z": 2.4930699886,
				"element": "O" 
			},
			{
				"x": -1.9628114948,
				"y": 0.6244363807,
				"z": 2.49349031,
				"element": "O" 
			},
			{
				"x": -2.5345486312,
				"y": -0.5332147869,
				"z": 3.1660483454,
				"element": "C" 
			},
			{
				"x": -2.3790735516,
				"y": -0.4187873985,
				"z": 4.6737434376,
				"element": "C" 
			},
			{
				"x": 3.175645033,
				"y": -0.4846821038,
				"z": -4.0962034102,
				"element": "H" 
			},
			{
				"x": 3.4725458328,
				"y": 1.1194825422,
				"z": -3.3978718988,
				"element": "H" 
			},
			{
				"x": 4.0305382122,
				"y": -0.335870612,
				"z": -2.5490503178,
				"element": "H" 
			},
			{
				"x": 1.6298068888,
				"y": -1.0368319687,
				"z": -2.1791957316,
				"element": "H" 
			},
			{
				"x": 1.0736345838,
				"y": 0.4109520841,
				"z": -3.0311478674,
				"element": "H" 
			},
			{
				"x": 1.8178202007,
				"y": 1.070863451,
				"z": 1.4596292505,
				"element": "H" 
			},
			{
				"x": -3.5831251384,
				"y": -0.521000629,
				"z": 2.8636126645,
				"element": "H" 
			},
			{
				"x": -2.0510321316,
				"y": -1.4328795557,
				"z": 2.7785171052,
				"element": "H" 
			},
			{
				"x": -2.8229793204,
				"y": 0.510348393,
				"z": 5.0416174324,
				"element": "H" 
			},
			{
				"x": -2.8869837133,
				"y": -1.2589846532,
				"z": 5.1583145127,
				"element": "H" 
			},
			{
				"x": -1.3245510699,
				"y": -0.4471421593,
				"z": 4.959035237,
				"element": "H" 
			}
		],
		 "valence_orbital": [ 
			{
				"type": "occ",
				"energy": -0.33478,
				"method": "rhf"
			},
			{
				"type": "occ",
				"energy": -0.32766,
				"method": "rhf"
			},
			{
				"type": "occ",
				"energy": -0.32104,
				"method": "rhf"
			},
			{
				"type": "occ",
				"energy": -0.30066,
				"method": "rhf"
			},
			{
				"type": "occ",
				"energy": -0.27424,
				"method": "rhf"
			},
			{
				"type": "unocc",
				"energy": -0.08827,
				"method": "rhf"
			},
			{
				"type": "unocc",
				"energy": -0.02073,
				"method": "rhf"
			},
			{
				"type": "unocc",
				"energy": 0.02057,
				"method": "rhf"
			},
			{
				"type": "unocc",
				"energy": 0.02687,
				"method": "rhf"
			},
			{
				"type": "unocc",
				"energy": 0.04274,
				"method": "rhf"
			}
		],
		"cosmo_sigma_profile": { 
			"-0.025": 0.0,
			"-0.024": 0.0,
			"-0.023": 0.0,
			"-0.022": 0.0,
			"-0.021": 0.0,
			"-0.02": 0.0,
			"-0.019": 0.0,
			"-0.018": 0.0,
			"-0.017": 0.0,
			"-0.016": 0.0,
			"-0.015": 0.0,
			"-0.014": 0.0,
			"-0.013": 0.27175649295,
			"-0.012": 2.48458492353,
			"-0.011": 2.26833916575,
			"-0.01": 2.16110199759,
			"-0.009": 2.04259446164,
			"-0.008": 2.96340193587,
			"-0.007": 5.1347767877,
			"-0.006": 14.168527648,
			"-0.005": 22.4623782661,
			"-0.004": 28.0498803716,
			"-0.003": 22.6747744871,
			"-0.002": 19.0234116776,
			"-0.001": 20.7988950929,
			"0.0": 16.5094151986,
			"0.001": 8.98017886226,
			"0.002": 9.13213575734,
			"0.003": 8.24943819091,
			"0.004": 9.6277858977,
			"0.005": 10.296908929,
			"0.006": 9.53712501479,
			"0.007": 11.2478819159,
			"0.008": 10.7825693081,
			"0.009": 11.0751089703,
			"0.01": 8.31881532415,
			"0.011": 2.6222416034,
			"0.012": 1.48294861996,
			"0.013": 0.0803531784678,
			"0.014": 0.0,
			"0.015": 0.0,
			"0.016": 0.0,
			"0.017": 0.0,
			"0.018": 0.0,
			"0.019": 0.0,
			"0.02": 0.0,
			"0.021": 0.0,
			"0.022": 0.0,
			"0.023": 0.0,
			"0.024": 0.0,
			"0.025": 0.0
		}
	}
}
