{
	 "smiles": "OC(CN1CCCC1)C(F)(F)F", 
	 "Tm": 352.15, 
	 "num_atms": 24, 
	 "gaussian": { 
		 "optdone": 1, 
		 "sigma_profile": "yes", 
		 "theory": "DFT", 
		 "functional": "B3LYP", 
		 "basiset": "6-31G**", 
		 "properties": { 
			 "R2extent": 2945.7323, 
			 "electric_dipole_moment_norm": 2.64294721476, 
			 "electric_quadrupole_moment_norm": 7.38911310646, 
			 "total_energy": -703.45762946, 
			 "HOMO_LUMO_gap": 0.28114, 
			 "cosmo_polarized_energy": -7.78, 
			 "cosmo_cavitation_energy": 26.47, 
			 "cosmo_dispersion_energy": -18.94, 
			 "cosmo_repulsion_energy": 1.47, 
			 "cosmo_total_nonelectrostatic_energy": 9.0, 
			 "SMD_solvation_energy": 2.98 
		},
		"coords": [
			{
				"x": -0.4040836899,
				"y": -1.6712183993,
				"z": -2.6695883518,
				"element": "O" 
			},
			{
				"x": -0.8417609479,
				"y": -0.5465666456,
				"z": -1.9271919253,
				"element": "C" 
			},
			{
				"x": -0.3241681547,
				"y": -0.6182860049,
				"z": -0.4754345299,
				"element": "C" 
			},
			{
				"x": -0.4878366377,
				"y": 0.6277795024,
				"z": 0.2719081761,
				"element": "N" 
			},
			{
				"x": -1.5397922489,
				"y": 0.593415234,
				"z": 1.3022068941,
				"element": "C" 
			},
			{
				"x": -0.8683278734,
				"y": 0.0838764977,
				"z": 2.6091310508,
				"element": "C" 
			},
			{
				"x": 0.6430763438,
				"y": 0.3768424965,
				"z": 2.40431584,
				"element": "C" 
			},
			{
				"x": 0.7012871742,
				"y": 1.0679022154,
				"z": 1.0158946477,
				"element": "C" 
			},
			{
				"x": -2.3627485657,
				"y": -0.4503517516,
				"z": -2.0434042697,
				"element": "C" 
			},
			{
				"x": -2.7587410973,
				"y": -0.4145673051,
				"z": -3.3274682888,
				"element": "F" 
			},
			{
				"x": -2.8727721007,
				"y": 0.6337895529,
				"z": -1.4297864135,
				"element": "F" 
			},
			{
				"x": -2.9398234614,
				"y": -1.5488106114,
				"z": -1.4755147919,
				"element": "F" 
			},
			{
				"x": -0.8362925525,
				"y": -2.4536097908,
				"z": -2.2982184913,
				"element": "H" 
			},
			{
				"x": -0.4233628852,
				"y": 0.3396462188,
				"z": -2.411867633,
				"element": "H" 
			},
			{
				"x": 0.737726872,
				"y": -0.8658723709,
				"z": -0.5737575451,
				"element": "H" 
			},
			{
				"x": -0.8012665731,
				"y": -1.4792075757,
				"z": 0.0212274243,
				"element": "H" 
			},
			{
				"x": -1.9168567081,
				"y": 1.6136678667,
				"z": 1.4447551872,
				"element": "H" 
			},
			{
				"x": -2.382969211,
				"y": -0.0183913356,
				"z": 0.9774290102,
				"element": "H" 
			},
			{
				"x": -1.2776850684,
				"y": 0.5847024126,
				"z": 3.4914898185,
				"element": "H" 
			},
			{
				"x": -1.0409571581,
				"y": -0.9887724524,
				"z": 2.7432279096,
				"element": "H" 
			},
			{
				"x": 1.0627526225,
				"y": 1.0088109065,
				"z": 3.1927844031,
				"element": "H" 
			},
			{
				"x": 1.2209693727,
				"y": -0.5531294214,
				"z": 2.3962850414,
				"element": "H" 
			},
			{
				"x": 0.6433801629,
				"y": 2.1571180136,
				"z": 1.1399702246,
				"element": "H" 
			},
			{
				"x": 1.6143523859,
				"y": 0.8537327475,
				"z": 0.4538066127,
				"element": "H" 
			}
		],
		 "valence_orbital": [ 
			{
				"type": "occ",
				"energy": -0.34175,
				"method": "rhf"
			},
			{
				"type": "occ",
				"energy": -0.3366,
				"method": "rhf"
			},
			{
				"type": "occ",
				"energy": -0.32102,
				"method": "rhf"
			},
			{
				"type": "occ",
				"energy": -0.29193,
				"method": "rhf"
			},
			{
				"type": "occ",
				"energy": -0.2161,
				"method": "rhf"
			},
			{
				"type": "unocc",
				"energy": 0.06504,
				"method": "rhf"
			},
			{
				"type": "unocc",
				"energy": 0.07087,
				"method": "rhf"
			},
			{
				"type": "unocc",
				"energy": 0.09598,
				"method": "rhf"
			},
			{
				"type": "unocc",
				"energy": 0.10939,
				"method": "rhf"
			},
			{
				"type": "unocc",
				"energy": 0.128,
				"method": "rhf"
			}
		],
		"cosmo_sigma_profile": { 
			"-0.025": 0.0,
			"-0.024": 0.0,
			"-0.023": 0.0,
			"-0.022": 0.0,
			"-0.021": 0.0,
			"-0.02": 0.0,
			"-0.019": 0.0,
			"-0.018": 0.0,
			"-0.017": 0.0,
			"-0.016": 0.400925345436,
			"-0.015": 0.637799010952,
			"-0.014": 0.530792607652,
			"-0.013": 0.887876719332,
			"-0.012": 1.38783598307,
			"-0.011": 0.694568798094,
			"-0.01": 0.685212371808,
			"-0.009": 0.941512401879,
			"-0.008": 1.45727485668,
			"-0.007": 2.73568199964,
			"-0.006": 3.1318901073,
			"-0.005": 5.60175012291,
			"-0.004": 8.76047251406,
			"-0.003": 19.6998070151,
			"-0.002": 28.2193753275,
			"-0.001": 25.9179564875,
			"0.0": 19.8632188102,
			"0.001": 16.1820535138,
			"0.002": 16.772607629,
			"0.003": 25.4112746684,
			"0.004": 5.74594453342,
			"0.005": 2.54115920477,
			"0.006": 2.65092282884,
			"0.007": 1.84703835076,
			"0.008": 2.58241991635,
			"0.009": 1.93529624063,
			"0.01": 1.54644500766,
			"0.011": 2.05786527165,
			"0.012": 2.75955266783,
			"0.013": 1.71478599101,
			"0.014": 0.357878531762,
			"0.015": 0.171069083079,
			"0.016": 0.0,
			"0.017": 0.0,
			"0.018": 0.0,
			"0.019": 0.0,
			"0.02": 0.0,
			"0.021": 0.0,
			"0.022": 0.0,
			"0.023": 0.0,
			"0.024": 0.0,
			"0.025": 0.0
		}
	}
}
