{
	 "smiles": "CC1=CC2=C(NC(=O)C2=O)C=C1", 
	 "Tm": 455.15, 
	 "num_atms": 19, 
	 "gaussian": { 
		 "optdone": 1, 
		 "sigma_profile": "yes", 
		 "theory": "DFT", 
		 "functional": "B3LYP", 
		 "basiset": "6-31G**", 
		 "properties": { 
			 "R2extent": 2798.0485, 
			 "electric_dipole_moment_norm": 6.16791635968, 
			 "electric_quadrupole_moment_norm": 20.5744326308, 
			 "total_energy": -552.382705263, 
			 "HOMO_LUMO_gap": 0.13811, 
			 "cosmo_polarized_energy": -15.16, 
			 "cosmo_cavitation_energy": 24.06, 
			 "cosmo_dispersion_energy": -17.7, 
			 "cosmo_repulsion_energy": 1.41, 
			 "cosmo_total_nonelectrostatic_energy": 7.77, 
			 "SMD_solvation_energy": 5.54 
		},
		"coords": [
			{
				"x": -0.4283906674,
				"y": 3.0837451303,
				"z": 0.2744395346,
				"element": "C" 
			},
			{
				"x": -0.3159323488,
				"y": 1.6413161209,
				"z": -0.1619021446,
				"element": "C" 
			},
			{
				"x": -1.2271503162,
				"y": 1.0864368622,
				"z": -1.0708921726,
				"element": "C" 
			},
			{
				"x": -1.1130353825,
				"y": -0.2529944017,
				"z": -1.4304410443,
				"element": "C" 
			},
			{
				"x": -0.0927082431,
				"y": -1.0629728676,
				"z": -0.8964537775,
				"element": "C" 
			},
			{
				"x": -0.1838563508,
				"y": -2.3658479404,
				"z": -1.4112305491,
				"element": "N" 
			},
			{
				"x": -1.2412500312,
				"y": -2.5030469227,
				"z": -2.2973455711,
				"element": "C" 
			},
			{
				"x": -1.5700442118,
				"y": -3.5020429741,
				"z": -2.8956551988,
				"element": "O" 
			},
			{
				"x": -1.9113163826,
				"y": -1.082113206,
				"z": -2.3477671133,
				"element": "C" 
			},
			{
				"x": -2.8789069273,
				"y": -0.8046827737,
				"z": -3.0221845239,
				"element": "O" 
			},
			{
				"x": 0.8261971831,
				"y": -0.5390885568,
				"z": 0.0026676327,
				"element": "C" 
			},
			{
				"x": 0.6950289557,
				"y": 0.8111002832,
				"z": 0.3527158254,
				"element": "C" 
			},
			{
				"x": -0.8977515933,
				"y": 3.6979019304,
				"z": -0.4993857336,
				"element": "H" 
			},
			{
				"x": 0.5533052813,
				"y": 3.5131277937,
				"z": 0.496089859,
				"element": "H" 
			},
			{
				"x": -1.0383687317,
				"y": 3.1801464688,
				"z": 1.1813005172,
				"element": "H" 
			},
			{
				"x": -2.0228871746,
				"y": 1.6876582809,
				"z": -1.5026647343,
				"element": "H" 
			},
			{
				"x": 0.4362130145,
				"y": -3.1276167879,
				"z": -1.1785645027,
				"element": "H" 
			},
			{
				"x": 1.6236905938,
				"y": -1.1455063117,
				"z": 0.4207887309,
				"element": "H" 
			},
			{
				"x": 1.4107633329,
				"y": 1.2342798723,
				"z": 1.053384966,
				"element": "H" 
			}
		],
		 "valence_orbital": [ 
			{
				"type": "occ",
				"energy": -0.31932,
				"method": "rhf"
			},
			{
				"type": "occ",
				"energy": -0.30752,
				"method": "rhf"
			},
			{
				"type": "occ",
				"energy": -0.27607,
				"method": "rhf"
			},
			{
				"type": "occ",
				"energy": -0.24427,
				"method": "rhf"
			},
			{
				"type": "occ",
				"energy": -0.23303,
				"method": "rhf"
			},
			{
				"type": "unocc",
				"energy": -0.09492,
				"method": "rhf"
			},
			{
				"type": "unocc",
				"energy": -0.02017,
				"method": "rhf"
			},
			{
				"type": "unocc",
				"energy": 0.0088,
				"method": "rhf"
			},
			{
				"type": "unocc",
				"energy": 0.07627,
				"method": "rhf"
			},
			{
				"type": "unocc",
				"energy": 0.08513,
				"method": "rhf"
			}
		],
		"cosmo_sigma_profile": { 
			"-0.025": 0.0,
			"-0.024": 0.0,
			"-0.023": 0.0,
			"-0.022": 0.0,
			"-0.021": 0.0,
			"-0.02": 0.0,
			"-0.019": 0.0,
			"-0.018": 0.0,
			"-0.017": 0.109129018407,
			"-0.016": 1.52072076245,
			"-0.015": 1.28202190783,
			"-0.014": 1.4295845125,
			"-0.013": 0.898950886819,
			"-0.012": 1.45791242797,
			"-0.011": 1.10080343657,
			"-0.01": 1.14719411374,
			"-0.009": 1.21192430637,
			"-0.008": 1.60954625031,
			"-0.007": 6.48052780048,
			"-0.006": 9.85969852524,
			"-0.005": 10.8658433993,
			"-0.004": 14.0024171101,
			"-0.003": 13.2649331581,
			"-0.002": 14.0660880208,
			"-0.001": 18.3242884837,
			"0.0": 16.9633491556,
			"0.001": 12.1973961445,
			"0.002": 11.654236555,
			"0.003": 12.2522201524,
			"0.004": 3.49647355835,
			"0.005": 2.37861198318,
			"0.006": 2.56343599683,
			"0.007": 2.65741005785,
			"0.008": 3.21233805498,
			"0.009": 4.65603589993,
			"0.01": 7.37473220045,
			"0.011": 9.34332477659,
			"0.012": 4.85343275385,
			"0.013": 0.54229044696,
			"0.014": 0.0,
			"0.015": 0.0,
			"0.016": 0.0,
			"0.017": 0.0,
			"0.018": 0.0,
			"0.019": 0.0,
			"0.02": 0.0,
			"0.021": 0.0,
			"0.022": 0.0,
			"0.023": 0.0,
			"0.024": 0.0,
			"0.025": 0.0
		}
	}
}
