{
	 "smiles": "NC(=O)CCCl", 
	 "Tm": 416.15, 
	 "num_atms": 12, 
	 "gaussian": { 
		 "optdone": 1, 
		 "sigma_profile": "yes", 
		 "theory": "DFT", 
		 "functional": "B3LYP", 
		 "basiset": "6-31G**", 
		 "properties": { 
			 "R2extent": 1325.4611, 
			 "electric_dipole_moment_norm": 3.91827045136, 
			 "electric_quadrupole_moment_norm": 7.95899378691, 
			 "total_energy": -708.125904224, 
			 "HOMO_LUMO_gap": 0.27818, 
			 "cosmo_polarized_energy": -13.06, 
			 "cosmo_cavitation_energy": 17.61, 
			 "cosmo_dispersion_energy": -13.28, 
			 "cosmo_repulsion_energy": 1.19, 
			 "cosmo_total_nonelectrostatic_energy": 5.52, 
			 "SMD_solvation_energy": 3.58 
		},
		"coords": [
			{
				"x": 0.9735267998,
				"y": -1.8340643702,
				"z": -0.9362862714,
				"element": "N" 
			},
			{
				"x": 0.8999567462,
				"y": -1.2010160421,
				"z": 0.2711478715,
				"element": "C" 
			},
			{
				"x": 0.7898760203,
				"y": -1.807215649,
				"z": 1.327524332,
				"element": "O" 
			},
			{
				"x": 0.9674479739,
				"y": 0.3262048237,
				"z": 0.2015532465,
				"element": "C" 
			},
			{
				"x": 0.8780736043,
				"y": 0.9292882108,
				"z": 1.5958038709,
				"element": "C" 
			},
			{
				"x": 0.9579575923,
				"y": 2.7427342294,
				"z": 1.5157851969,
				"element": "Cl" 
			},
			{
				"x": 1.06484885,
				"y": -1.3370138524,
				"z": -1.8072070365,
				"element": "H" 
			},
			{
				"x": 0.9343466464,
				"y": -2.8418673951,
				"z": -0.9482228581,
				"element": "H" 
			},
			{
				"x": 0.1514348579,
				"y": 0.7018109491,
				"z": -0.4271675801,
				"element": "H" 
			},
			{
				"x": 1.9019337688,
				"y": 0.631034085,
				"z": -0.284321511,
				"element": "H" 
			},
			{
				"x": 1.7014404044,
				"y": 0.6013117207,
				"z": 2.2283280878,
				"element": "H" 
			},
			{
				"x": -0.0604432644,
				"y": 0.6725932901,
				"z": 2.0845626516,
				"element": "H" 
			}
		],
		 "valence_orbital": [ 
			{
				"type": "occ",
				"energy": -0.36865,
				"method": "rhf"
			},
			{
				"type": "occ",
				"energy": -0.2983,
				"method": "rhf"
			},
			{
				"type": "occ",
				"energy": -0.29394,
				"method": "rhf"
			},
			{
				"type": "occ",
				"energy": -0.27715,
				"method": "rhf"
			},
			{
				"type": "occ",
				"energy": -0.25906,
				"method": "rhf"
			},
			{
				"type": "unocc",
				"energy": 0.01912,
				"method": "rhf"
			},
			{
				"type": "unocc",
				"energy": 0.02782,
				"method": "rhf"
			},
			{
				"type": "unocc",
				"energy": 0.0655,
				"method": "rhf"
			},
			{
				"type": "unocc",
				"energy": 0.10706,
				"method": "rhf"
			},
			{
				"type": "unocc",
				"energy": 0.11955,
				"method": "rhf"
			}
		],
		"cosmo_sigma_profile": { 
			"-0.025": 0.0,
			"-0.024": 0.0,
			"-0.023": 0.0,
			"-0.022": 0.0,
			"-0.021": 0.0,
			"-0.02": 0.0,
			"-0.019": 0.0,
			"-0.018": 0.0,
			"-0.017": 0.0,
			"-0.016": 0.0,
			"-0.015": 0.337480888776,
			"-0.014": 2.0557701287,
			"-0.013": 2.69911087619,
			"-0.012": 2.20734320633,
			"-0.011": 2.66615537782,
			"-0.01": 2.40242694506,
			"-0.009": 2.01806932682,
			"-0.008": 2.40658696713,
			"-0.007": 6.42919567565,
			"-0.006": 10.3121081902,
			"-0.005": 9.30533579215,
			"-0.004": 7.50432295763,
			"-0.003": 6.43439547131,
			"-0.002": 5.78750474681,
			"-0.001": 4.71578297369,
			"0.0": 6.63577127998,
			"0.001": 5.78747211904,
			"0.002": 6.53727746001,
			"0.003": 6.6414532779,
			"0.004": 6.36508475867,
			"0.005": 8.03661772131,
			"0.006": 10.6170935689,
			"0.007": 6.53518474659,
			"0.008": 1.49823734628,
			"0.009": 1.38677068752,
			"0.01": 0.935169429592,
			"0.011": 1.40338250668,
			"0.012": 2.08078445367,
			"0.013": 4.34108090574,
			"0.014": 3.86732329637,
			"0.015": 0.347274412442,
			"0.016": 0.0,
			"0.017": 0.0,
			"0.018": 0.0,
			"0.019": 0.0,
			"0.02": 0.0,
			"0.021": 0.0,
			"0.022": 0.0,
			"0.023": 0.0,
			"0.024": 0.0,
			"0.025": 0.0
		}
	}
}
