{
	 "smiles": "[O-][N+](=O)C1=CC=C(CS(Cl)(=O)=O)C=C1", 
	 "Tm": 364.65, 
	 "num_atms": 20, 
	 "gaussian": { 
		 "optdone": 1, 
		 "sigma_profile": "yes", 
		 "theory": "DFT", 
		 "functional": "B3LYP", 
		 "basiset": "6-31G**", 
		 "properties": { 
			 "R2extent": 5652.6958, 
			 "electric_dipole_moment_norm": 3.75998529252, 
			 "electric_quadrupole_moment_norm": 24.6311368637, 
			 "total_energy": -1484.22199099, 
			 "HOMO_LUMO_gap": 0.18495, 
			 "cosmo_polarized_energy": -16.29, 
			 "cosmo_cavitation_energy": 28.92, 
			 "cosmo_dispersion_energy": -21.22, 
			 "cosmo_repulsion_energy": 1.62, 
			 "cosmo_total_nonelectrostatic_energy": 9.32, 
			 "SMD_solvation_energy": 5.77 
		},
		"coords": [
			{
				"x": 3.3130166162,
				"y": -0.8530568919,
				"z": 0.8795076362,
				"element": "O" 
			},
			{
				"x": 2.1281534697,
				"y": -0.913856066,
				"z": 1.2019374495,
				"element": "N" 
			},
			{
				"x": 1.6210016205,
				"y": -1.8194433202,
				"z": 1.8605559696,
				"element": "O" 
			},
			{
				"x": 1.2471686759,
				"y": 0.1862661214,
				"z": 0.7661620757,
				"element": "C" 
			},
			{
				"x": 1.7927613259,
				"y": 1.2292250875,
				"z": 0.0228133496,
				"element": "C" 
			},
			{
				"x": 0.9559355668,
				"y": 2.2657999251,
				"z": -0.3802759113,
				"element": "C" 
			},
			{
				"x": -0.4037669766,
				"y": 2.2600560687,
				"z": -0.037672085,
				"element": "C" 
			},
			{
				"x": -1.2888193265,
				"y": 3.3929788832,
				"z": -0.4612321099,
				"element": "C" 
			},
			{
				"x": -2.4509058463,
				"y": 2.9981250455,
				"z": -1.8355080826,
				"element": "S" 
			},
			{
				"x": -1.0816465006,
				"y": 2.6374440979,
				"z": -3.4234250921,
				"element": "Cl" 
			},
			{
				"x": -3.1339945047,
				"y": 1.7411952588,
				"z": -1.5574573538,
				"element": "O" 
			},
			{
				"x": -3.1807991772,
				"y": 4.2159056671,
				"z": -2.1637126854,
				"element": "O" 
			},
			{
				"x": -0.92461477,
				"y": 1.1921341263,
				"z": 0.7096009872,
				"element": "C" 
			},
			{
				"x": -0.1010654443,
				"y": 0.1475533332,
				"z": 1.1156149808,
				"element": "C" 
			},
			{
				"x": 2.8462952123,
				"y": 1.2149400119,
				"z": -0.2257012858,
				"element": "H" 
			},
			{
				"x": 1.3630037762,
				"y": 3.0859917775,
				"z": -0.9634061016,
				"element": "H" 
			},
			{
				"x": -0.7383468958,
				"y": 4.2691868184,
				"z": -0.8077731755,
				"element": "H" 
			},
			{
				"x": -1.9862510216,
				"y": 3.7015384792,
				"z": 0.324784199,
				"element": "H" 
			},
			{
				"x": -1.9791278389,
				"y": 1.1735467629,
				"z": 0.9640929346,
				"element": "H" 
			},
			{
				"x": -0.4793979609,
				"y": -0.6864311864,
				"z": 1.692894301,
				"element": "H" 
			}
		],
		 "valence_orbital": [ 
			{
				"type": "occ",
				"energy": -0.32272,
				"method": "rhf"
			},
			{
				"type": "occ",
				"energy": -0.31992,
				"method": "rhf"
			},
			{
				"type": "occ",
				"energy": -0.30427,
				"method": "rhf"
			},
			{
				"type": "occ",
				"energy": -0.29714,
				"method": "rhf"
			},
			{
				"type": "occ",
				"energy": -0.29655,
				"method": "rhf"
			},
			{
				"type": "unocc",
				"energy": -0.1116,
				"method": "rhf"
			},
			{
				"type": "unocc",
				"energy": -0.09005,
				"method": "rhf"
			},
			{
				"type": "unocc",
				"energy": -0.04741,
				"method": "rhf"
			},
			{
				"type": "unocc",
				"energy": -0.02748,
				"method": "rhf"
			},
			{
				"type": "unocc",
				"energy": 0.03644,
				"method": "rhf"
			}
		],
		"cosmo_sigma_profile": { 
			"-0.025": 0.0,
			"-0.024": 0.0,
			"-0.023": 0.0,
			"-0.022": 0.0,
			"-0.021": 0.0,
			"-0.02": 0.0,
			"-0.019": 0.0,
			"-0.018": 0.0,
			"-0.017": 0.0,
			"-0.016": 0.0,
			"-0.015": 0.0,
			"-0.014": 0.0237296221906,
			"-0.013": 0.630945676415,
			"-0.012": 1.89683630131,
			"-0.011": 5.08321661262,
			"-0.01": 4.64496643563,
			"-0.009": 4.77530190199,
			"-0.008": 9.51450527827,
			"-0.007": 10.9869600937,
			"-0.006": 10.2376357801,
			"-0.005": 8.60661424859,
			"-0.004": 8.62946018529,
			"-0.003": 9.22717970995,
			"-0.002": 13.6762977348,
			"-0.001": 15.2897362691,
			"0.0": 19.4226541012,
			"0.001": 17.9706100156,
			"0.002": 13.7292742838,
			"0.003": 15.5136816749,
			"0.004": 7.98983981868,
			"0.005": 7.18492529664,
			"0.006": 7.5586010839,
			"0.007": 14.6350976579,
			"0.008": 16.801035285,
			"0.009": 8.94403528176,
			"0.01": 1.54230005256,
			"0.011": 0.0,
			"0.012": 0.0,
			"0.013": 0.0,
			"0.014": 0.0,
			"0.015": 0.0,
			"0.016": 0.0,
			"0.017": 0.0,
			"0.018": 0.0,
			"0.019": 0.0,
			"0.02": 0.0,
			"0.021": 0.0,
			"0.022": 0.0,
			"0.023": 0.0,
			"0.024": 0.0,
			"0.025": 0.0
		}
	}
}
