{
	 "smiles": "CN1CCN(CC1)C1=CC=C(N)C=C1", 
	 "Tm": 365.15, 
	 "num_atms": 31, 
	 "gaussian": { 
		 "optdone": 1, 
		 "sigma_profile": "yes", 
		 "theory": "DFT", 
		 "functional": "B3LYP", 
		 "basiset": "6-31G**", 
		 "properties": { 
			 "R2extent": 4190.68, 
			 "electric_dipole_moment_norm": 0.894161763888, 
			 "electric_quadrupole_moment_norm": 13.6679563169, 
			 "total_energy": -593.646208133, 
			 "HOMO_LUMO_gap": 0.1721, 
			 "cosmo_polarized_energy": -10.5, 
			 "cosmo_cavitation_energy": 31.59, 
			 "cosmo_dispersion_energy": -23.49, 
			 "cosmo_repulsion_energy": 1.84, 
			 "cosmo_total_nonelectrostatic_energy": 9.94, 
			 "SMD_solvation_energy": 1.44 
		},
		"coords": [
			{
				"x": -2.2522207464,
				"y": -0.9929977475,
				"z": -3.3159974245,
				"element": "C" 
			},
			{
				"x": -1.7231211654,
				"y": -0.1197023386,
				"z": -2.2814491043,
				"element": "N" 
			},
			{
				"x": -0.3169762441,
				"y": 0.2738243295,
				"z": -2.4779848095,
				"element": "C" 
			},
			{
				"x": 0.6600320455,
				"y": -0.4127285399,
				"z": -1.515871316,
				"element": "C" 
			},
			{
				"x": 0.2802791635,
				"y": -0.1146746565,
				"z": -0.1439360189,
				"element": "N" 
			},
			{
				"x": -1.1455930631,
				"y": 0.0636136448,
				"z": 0.1170306622,
				"element": "C" 
			},
			{
				"x": -1.9804591562,
				"y": -0.6527382543,
				"z": -0.943933709,
				"element": "C" 
			},
			{
				"x": 1.1911470157,
				"y": -0.2628483641,
				"z": 0.9040576903,
				"element": "C" 
			},
			{
				"x": 2.4374325033,
				"y": -0.8957411338,
				"z": 0.7221667778,
				"element": "C" 
			},
			{
				"x": 3.3475630653,
				"y": -1.0189922138,
				"z": 1.7699255203,
				"element": "C" 
			},
			{
				"x": 3.0584628896,
				"y": -0.5315152539,
				"z": 3.0511811859,
				"element": "C" 
			},
			{
				"x": 3.9510482474,
				"y": -0.7218166636,
				"z": 4.1254922115,
				"element": "N" 
			},
			{
				"x": 1.8186278946,
				"y": 0.0953792175,
				"z": 3.238965032,
				"element": "C" 
			},
			{
				"x": 0.9101800141,
				"y": 0.2348634891,
				"z": 2.1935254016,
				"element": "C" 
			},
			{
				"x": -2.1327122895,
				"y": -0.5271296024,
				"z": -4.2990851139,
				"element": "H" 
			},
			{
				"x": -1.7762212054,
				"y": -1.9931660325,
				"z": -3.3470637947,
				"element": "H" 
			},
			{
				"x": -3.3247037138,
				"y": -1.1456857102,
				"z": -3.1506535842,
				"element": "H" 
			},
			{
				"x": -0.0194033381,
				"y": 0.0520763656,
				"z": -3.5081099016,
				"element": "H" 
			},
			{
				"x": -0.2184095753,
				"y": 1.3599194589,
				"z": -2.3436028684,
				"element": "H" 
			},
			{
				"x": 1.6670011361,
				"y": -0.0214273332,
				"z": -1.7032382101,
				"element": "H" 
			},
			{
				"x": 0.6970477259,
				"y": -1.4983640069,
				"z": -1.7195624062,
				"element": "H" 
			},
			{
				"x": -1.4292531752,
				"y": 1.1282205139,
				"z": 0.1496400972,
				"element": "H" 
			},
			{
				"x": -1.3910670186,
				"y": -0.36706694,
				"z": 1.0937042913,
				"element": "H" 
			},
			{
				"x": -1.7613355845,
				"y": -1.7369261991,
				"z": -0.8810914561,
				"element": "H" 
			},
			{
				"x": -3.0459844298,
				"y": -0.5323445049,
				"z": -0.7085358851,
				"element": "H" 
			},
			{
				"x": 2.7015581578,
				"y": -1.3152281012,
				"z": -0.2420135279,
				"element": "H" 
			},
			{
				"x": 4.2956573802,
				"y": -1.5211700047,
				"z": 1.5894491148,
				"element": "H" 
			},
			{
				"x": 4.9187251686,
				"y": -0.7947759233,
				"z": 3.8370628533,
				"element": "H" 
			},
			{
				"x": 3.8586187398,
				"y": -0.0249333274,
				"z": 4.8541136773,
				"element": "H" 
			},
			{
				"x": 1.5614366117,
				"y": 0.4911139547,
				"z": 4.2192146431,
				"element": "H" 
			},
			{
				"x": -0.018357054,
				"y": 0.763061878,
				"z": 2.3813999719,
				"element": "H" 
			}
		],
		 "valence_orbital": [ 
			{
				"type": "occ",
				"energy": -0.3041,
				"method": "rhf"
			},
			{
				"type": "occ",
				"energy": -0.23516,
				"method": "rhf"
			},
			{
				"type": "occ",
				"energy": -0.23435,
				"method": "rhf"
			},
			{
				"type": "occ",
				"energy": -0.20319,
				"method": "rhf"
			},
			{
				"type": "occ",
				"energy": -0.15969,
				"method": "rhf"
			},
			{
				"type": "unocc",
				"energy": 0.01241,
				"method": "rhf"
			},
			{
				"type": "unocc",
				"energy": 0.04209,
				"method": "rhf"
			},
			{
				"type": "unocc",
				"energy": 0.07861,
				"method": "rhf"
			},
			{
				"type": "unocc",
				"energy": 0.09194,
				"method": "rhf"
			},
			{
				"type": "unocc",
				"energy": 0.10778,
				"method": "rhf"
			}
		],
		"cosmo_sigma_profile": { 
			"-0.025": 0.0,
			"-0.024": 0.0,
			"-0.023": 0.0,
			"-0.022": 0.0,
			"-0.021": 0.0,
			"-0.02": 0.0,
			"-0.019": 0.0,
			"-0.018": 0.0,
			"-0.017": 0.0,
			"-0.016": 0.0,
			"-0.015": 0.0,
			"-0.014": 0.0,
			"-0.013": 0.0,
			"-0.012": 0.388140556327,
			"-0.011": 2.48649266258,
			"-0.01": 2.43505967797,
			"-0.009": 3.128038146,
			"-0.008": 2.63073971533,
			"-0.007": 3.28730513064,
			"-0.006": 3.21634730298,
			"-0.005": 7.76091313602,
			"-0.004": 20.4390750429,
			"-0.003": 29.543598881,
			"-0.002": 38.2830832404,
			"-0.001": 28.7320215976,
			"0.0": 23.3929149227,
			"0.001": 9.92037846447,
			"0.002": 6.58523442941,
			"0.003": 7.94461491741,
			"0.004": 7.55627100195,
			"0.005": 8.25108262097,
			"0.006": 9.1243759047,
			"0.007": 10.8738177546,
			"0.008": 9.10882966964,
			"0.009": 1.84246577342,
			"0.01": 2.01742476916,
			"0.011": 1.49065851739,
			"0.012": 0.945072034022,
			"0.013": 1.66535727204,
			"0.014": 0.913337504931,
			"0.015": 0.972295572761,
			"0.016": 1.04344642814,
			"0.017": 0.35930445051,
			"0.018": 0.0,
			"0.019": 0.0,
			"0.02": 0.0,
			"0.021": 0.0,
			"0.022": 0.0,
			"0.023": 0.0,
			"0.024": 0.0,
			"0.025": 0.0
		}
	}
}
