{
	 "smiles": "CC(N)COC1=C(C)C=CC=C1C", 
	 "Tm": 477.15, 
	 "num_atms": 30, 
	 "gaussian": { 
		 "optdone": 1, 
		 "sigma_profile": "yes", 
		 "theory": "DFT", 
		 "functional": "B3LYP", 
		 "basiset": "6-31G**", 
		 "properties": { 
			 "R2extent": 3020.4319, 
			 "electric_dipole_moment_norm": 1.40979213007, 
			 "electric_quadrupole_moment_norm": 8.91303576454, 
			 "total_energy": -559.394957974, 
			 "HOMO_LUMO_gap": 0.23477, 
			 "cosmo_polarized_energy": -8.45, 
			 "cosmo_cavitation_energy": 31.93, 
			 "cosmo_dispersion_energy": -22.02, 
			 "cosmo_repulsion_energy": 1.75, 
			 "cosmo_total_nonelectrostatic_energy": 11.66, 
			 "SMD_solvation_energy": 4.49 
		},
		"coords": [
			{
				"x": 3.1730114694,
				"y": 1.3284326683,
				"z": -0.636726433,
				"element": "C" 
			},
			{
				"x": 1.8073294666,
				"y": 2.0264062197,
				"z": -0.6881036677,
				"element": "C" 
			},
			{
				"x": 1.81514491,
				"y": 3.4289470277,
				"z": -0.2471256379,
				"element": "N" 
			},
			{
				"x": 0.7554376064,
				"y": 1.2977205639,
				"z": 0.1500471231,
				"element": "C" 
			},
			{
				"x": 0.6580094378,
				"y": -0.0553624341,
				"z": -0.3091191678,
				"element": "O" 
			},
			{
				"x": -0.3611301795,
				"y": -0.804083939,
				"z": 0.2611007069,
				"element": "C" 
			},
			{
				"x": -0.1000060014,
				"y": -1.5469123251,
				"z": 1.4244874255,
				"element": "C" 
			},
			{
				"x": 1.2611904698,
				"y": -1.5095088919,
				"z": 2.0762214464,
				"element": "C" 
			},
			{
				"x": -1.1329175826,
				"y": -2.3340056779,
				"z": 1.9481547483,
				"element": "C" 
			},
			{
				"x": -2.3820886023,
				"y": -2.3823724732,
				"z": 1.3318578564,
				"element": "C" 
			},
			{
				"x": -2.6105369268,
				"y": -1.6507713068,
				"z": 0.1670577298,
				"element": "C" 
			},
			{
				"x": -1.6057170083,
				"y": -0.8515723745,
				"z": -0.3899013149,
				"element": "C" 
			},
			{
				"x": -1.8339778706,
				"y": -0.0765095649,
				"z": -1.6649072476,
				"element": "C" 
			},
			{
				"x": 3.5634139784,
				"y": 1.3206228472,
				"z": 0.3892205403,
				"element": "H" 
			},
			{
				"x": 3.1010326428,
				"y": 0.2923330446,
				"z": -0.9789830524,
				"element": "H" 
			},
			{
				"x": 3.8989345521,
				"y": 1.8521455326,
				"z": -1.2686686866,
				"element": "H" 
			},
			{
				"x": 1.4495029262,
				"y": 2.019751014,
				"z": -1.7257681899,
				"element": "H" 
			},
			{
				"x": 2.3851953666,
				"y": 3.9824582744,
				"z": -0.8821498838,
				"element": "H" 
			},
			{
				"x": 2.2696696161,
				"y": 3.4956197457,
				"z": 0.6627583366,
				"element": "H" 
			},
			{
				"x": 1.0403132761,
				"y": 1.3171231928,
				"z": 1.214105512,
				"element": "H" 
			},
			{
				"x": -0.2071314087,
				"y": 1.813004552,
				"z": 0.0528190158,
				"element": "H" 
			},
			{
				"x": 1.3964108889,
				"y": -2.3662045423,
				"z": 2.7422416671,
				"element": "H" 
			},
			{
				"x": 2.0567028023,
				"y": -1.5201928058,
				"z": 1.3263410898,
				"element": "H" 
			},
			{
				"x": 1.3999439922,
				"y": -0.6031815371,
				"z": 2.6789370155,
				"element": "H" 
			},
			{
				"x": -0.9468406961,
				"y": -2.9191308291,
				"z": 2.8454338909,
				"element": "H" 
			},
			{
				"x": -3.1712870668,
				"y": -3.0009630976,
				"z": 1.7495050278,
				"element": "H" 
			},
			{
				"x": -3.578216903,
				"y": -1.701895927,
				"z": -0.3258128619,
				"element": "H" 
			},
			{
				"x": -0.9986768574,
				"y": -0.207078478,
				"z": -2.3589077303,
				"element": "H" 
			},
			{
				"x": -2.7533514128,
				"y": -0.4029467883,
				"z": -2.1584962936,
				"element": "H" 
			},
			{
				"x": -1.9254648854,
				"y": 1.0003283099,
				"z": -1.4776189648,
				"element": "H" 
			}
		],
		 "valence_orbital": [ 
			{
				"type": "occ",
				"energy": -0.31648,
				"method": "rhf"
			},
			{
				"type": "occ",
				"energy": -0.26353,
				"method": "rhf"
			},
			{
				"type": "occ",
				"energy": -0.23857,
				"method": "rhf"
			},
			{
				"type": "occ",
				"energy": -0.23119,
				"method": "rhf"
			},
			{
				"type": "occ",
				"energy": -0.22552,
				"method": "rhf"
			},
			{
				"type": "unocc",
				"energy": 0.00925,
				"method": "rhf"
			},
			{
				"type": "unocc",
				"energy": 0.00946,
				"method": "rhf"
			},
			{
				"type": "unocc",
				"energy": 0.0755,
				"method": "rhf"
			},
			{
				"type": "unocc",
				"energy": 0.08935,
				"method": "rhf"
			},
			{
				"type": "unocc",
				"energy": 0.10508,
				"method": "rhf"
			}
		],
		"cosmo_sigma_profile": { 
			"-0.025": 0.0,
			"-0.024": 0.0,
			"-0.023": 0.0,
			"-0.022": 0.0,
			"-0.021": 0.0,
			"-0.02": 0.0,
			"-0.019": 0.0,
			"-0.018": 0.0,
			"-0.017": 0.0,
			"-0.016": 0.0,
			"-0.015": 0.0,
			"-0.014": 0.0,
			"-0.013": 0.0,
			"-0.012": 0.0,
			"-0.011": 0.0,
			"-0.01": 0.589262476957,
			"-0.009": 2.46930175655,
			"-0.008": 3.37568535308,
			"-0.007": 3.22525573647,
			"-0.006": 3.79420680232,
			"-0.005": 9.84964918707,
			"-0.004": 22.3373908294,
			"-0.003": 27.535678882,
			"-0.002": 26.0209893664,
			"-0.001": 24.3431011861,
			"0.0": 29.3240617432,
			"0.001": 25.9132875144,
			"0.002": 13.0365776304,
			"0.003": 10.7850371346,
			"0.004": 11.4760207821,
			"0.005": 9.71909559233,
			"0.006": 9.81110164155,
			"0.007": 4.96418956725,
			"0.008": 1.79143554007,
			"0.009": 1.46426321986,
			"0.01": 1.61437986382,
			"0.011": 0.584781270279,
			"0.012": 0.57041797443,
			"0.013": 0.647507025805,
			"0.014": 1.0514544167,
			"0.015": 0.610614347162,
			"0.016": 0.425804225024,
			"0.017": 0.483456471323,
			"0.018": 0.563420471838,
			"0.019": 0.514818821934,
			"0.02": 0.0269809115588,
			"0.021": 0.0,
			"0.022": 0.0,
			"0.023": 0.0,
			"0.024": 0.0,
			"0.025": 0.0
		}
	}
}
