{
	 "smiles": "CCC1(NC(=O)NC1=O)C1=CC=C(O)C=C1", 
	 "Tm": 553.15, 
	 "num_atms": 28, 
	 "gaussian": { 
		 "optdone": 1, 
		 "sigma_profile": "yes", 
		 "theory": "DFT", 
		 "functional": "B3LYP", 
		 "basiset": "6-31G**", 
		 "properties": { 
			 "R2extent": 3816.4686, 
			 "electric_dipole_moment_norm": 2.98030925409, 
			 "electric_quadrupole_moment_norm": 18.8462320412, 
			 "total_energy": -761.620084007, 
			 "HOMO_LUMO_gap": 0.20944, 
			 "cosmo_polarized_energy": -20.55, 
			 "cosmo_cavitation_energy": 31.67, 
			 "cosmo_dispersion_energy": -22.36, 
			 "cosmo_repulsion_energy": 1.76, 
			 "cosmo_total_nonelectrostatic_energy": 11.08, 
			 "SMD_solvation_energy": 7.37 
		},
		"coords": [
			{
				"x": -1.4842759398,
				"y": -1.667676,
				"z": 1.4972290244,
				"element": "C" 
			},
			{
				"x": -0.1591680446,
				"y": -1.9943767912,
				"z": 0.8042656354,
				"element": "C" 
			},
			{
				"x": 0.7539287555,
				"y": -0.7605232617,
				"z": 0.5633230133,
				"element": "C" 
			},
			{
				"x": 1.2373430236,
				"y": -0.1928348057,
				"z": 1.8210739524,
				"element": "N" 
			},
			{
				"x": 2.5832937222,
				"y": -0.3602455413,
				"z": 2.0317931457,
				"element": "C" 
			},
			{
				"x": 3.2374138881,
				"y": -0.0736788282,
				"z": 3.0124139651,
				"element": "O" 
			},
			{
				"x": 3.0747095363,
				"y": -0.9504945664,
				"z": 0.8489961841,
				"element": "N" 
			},
			{
				"x": 2.087241134,
				"y": -1.2583727482,
				"z": -0.0597038146,
				"element": "C" 
			},
			{
				"x": 2.2223010904,
				"y": -1.8273103662,
				"z": -1.122474624,
				"element": "O" 
			},
			{
				"x": 0.1000914161,
				"y": 0.2817823344,
				"z": -0.350942412,
				"element": "C" 
			},
			{
				"x": -0.3049613615,
				"y": -0.0756355239,
				"z": -1.6485257316,
				"element": "C" 
			},
			{
				"x": -0.9102857947,
				"y": 0.8473229316,
				"z": -2.4930549445,
				"element": "C" 
			},
			{
				"x": -1.1275489476,
				"y": 2.1593178366,
				"z": -2.0547940539,
				"element": "C" 
			},
			{
				"x": -1.7319591743,
				"y": 3.0219040947,
				"z": -2.922990019,
				"element": "O" 
			},
			{
				"x": -0.7209428801,
				"y": 2.532700263,
				"z": -0.7715264652,
				"element": "C" 
			},
			{
				"x": -0.1094730284,
				"y": 1.5988812731,
				"z": 0.0664440796,
				"element": "C" 
			},
			{
				"x": -2.0811379346,
				"y": -2.5763868475,
				"z": 1.6190864727,
				"element": "H" 
			},
			{
				"x": -1.3304358731,
				"y": -1.2493888086,
				"z": 2.4987976943,
				"element": "H" 
			},
			{
				"x": -2.0723874864,
				"y": -0.9509477772,
				"z": 0.9173684517,
				"element": "H" 
			},
			{
				"x": 0.4062065067,
				"y": -2.7210159499,
				"z": 1.400582862,
				"element": "H" 
			},
			{
				"x": -0.3457482124,
				"y": -2.4645421809,
				"z": -0.165751932,
				"element": "H" 
			},
			{
				"x": 0.6416805031,
				"y": 0.0334820583,
				"z": 2.6020649169,
				"element": "H" 
			},
			{
				"x": 4.0513995168,
				"y": -1.1756090326,
				"z": 0.7247377058,
				"element": "H" 
			},
			{
				"x": -0.1134122871,
				"y": -1.0784906454,
				"z": -2.0138758806,
				"element": "H" 
			},
			{
				"x": -1.2158216386,
				"y": 0.5721931775,
				"z": -3.4970520361,
				"element": "H" 
			},
			{
				"x": -1.8107489155,
				"y": 3.8896168146,
				"z": -2.5057397136,
				"element": "H" 
			},
			{
				"x": -0.8754157368,
				"y": 3.5524401321,
				"z": -0.4246877125,
				"element": "H" 
			},
			{
				"x": 0.2179141624,
				"y": 1.9110887588,
				"z": 1.052142236,
				"element": "H" 
			}
		],
		 "valence_orbital": [ 
			{
				"type": "occ",
				"energy": -0.28844,
				"method": "rhf"
			},
			{
				"type": "occ",
				"energy": -0.26989,
				"method": "rhf"
			},
			{
				"type": "occ",
				"energy": -0.26373,
				"method": "rhf"
			},
			{
				"type": "occ",
				"energy": -0.25755,
				"method": "rhf"
			},
			{
				"type": "occ",
				"energy": -0.22494,
				"method": "rhf"
			},
			{
				"type": "unocc",
				"energy": -0.0155,
				"method": "rhf"
			},
			{
				"type": "unocc",
				"energy": -0.00931,
				"method": "rhf"
			},
			{
				"type": "unocc",
				"energy": 0.01047,
				"method": "rhf"
			},
			{
				"type": "unocc",
				"energy": 0.05491,
				"method": "rhf"
			},
			{
				"type": "unocc",
				"energy": 0.06565,
				"method": "rhf"
			}
		],
		"cosmo_sigma_profile": { 
			"-0.025": 0.0,
			"-0.024": 0.0,
			"-0.023": 0.0,
			"-0.022": 0.0,
			"-0.021": 0.0,
			"-0.02": 0.0,
			"-0.019": 0.0,
			"-0.018": 0.394406782279,
			"-0.017": 1.72165272199,
			"-0.016": 2.09015495716,
			"-0.015": 2.95230114677,
			"-0.014": 2.80808410561,
			"-0.013": 2.00463175173,
			"-0.012": 2.36747867698,
			"-0.011": 3.39508596528,
			"-0.01": 4.09173083323,
			"-0.009": 3.18734043567,
			"-0.008": 3.47834235855,
			"-0.007": 3.96566014252,
			"-0.006": 8.90158137028,
			"-0.005": 11.2476809713,
			"-0.004": 15.2633688862,
			"-0.003": 16.4865797598,
			"-0.002": 19.2470235516,
			"-0.001": 20.6659683572,
			"0.0": 18.4517218316,
			"0.001": 13.8419360354,
			"0.002": 10.6182294259,
			"0.003": 12.1139250389,
			"0.004": 12.3974674683,
			"0.005": 12.5081570571,
			"0.006": 5.31273979625,
			"0.007": 3.86553831894,
			"0.008": 5.31000036827,
			"0.009": 3.65858794379,
			"0.01": 4.6218140255,
			"0.011": 7.73232993972,
			"0.012": 8.65623084875,
			"0.013": 6.43467324079,
			"0.014": 0.66870681564,
			"0.015": 0.0,
			"0.016": 0.0,
			"0.017": 0.0,
			"0.018": 0.0,
			"0.019": 0.0,
			"0.02": 0.0,
			"0.021": 0.0,
			"0.022": 0.0,
			"0.023": 0.0,
			"0.024": 0.0,
			"0.025": 0.0
		}
	}
}
