{
	 "smiles": "CC(C)C1=CC=C(C)C(O)=C1", 
	 "Tm": 274.65, 
	 "num_atms": 25, 
	 "gaussian": { 
		 "optdone": 1, 
		 "sigma_profile": "yes", 
		 "theory": "DFT", 
		 "functional": "B3LYP", 
		 "basiset": "6-31G**", 
		 "properties": { 
			 "R2extent": 2452.1663, 
			 "electric_dipole_moment_norm": 1.4202361529, 
			 "electric_quadrupole_moment_norm": 11.8392690615, 
			 "total_energy": -464.742731211, 
			 "HOMO_LUMO_gap": 0.21912, 
			 "cosmo_polarized_energy": -7.34, 
			 "cosmo_cavitation_energy": 27.09, 
			 "cosmo_dispersion_energy": -19.55, 
			 "cosmo_repulsion_energy": 1.58, 
			 "cosmo_total_nonelectrostatic_energy": 9.12, 
			 "SMD_solvation_energy": 4.94 
		},
		"coords": [
			{
				"x": -2.3152744867,
				"y": -1.0946041443,
				"z": -1.781266794,
				"element": "C" 
			},
			{
				"x": -1.7679218357,
				"y": -1.1995989153,
				"z": -0.3453122283,
				"element": "C" 
			},
			{
				"x": -2.5894596837,
				"y": -0.3292562841,
				"z": 0.6243088572,
				"element": "C" 
			},
			{
				"x": -0.2818265762,
				"y": -0.8708615933,
				"z": -0.2805687072,
				"element": "C" 
			},
			{
				"x": 0.2045347372,
				"y": 0.3985838024,
				"z": -0.6287241522,
				"element": "C" 
			},
			{
				"x": 1.568406953,
				"y": 0.6737663637,
				"z": -0.561029256,
				"element": "C" 
			},
			{
				"x": 2.4977199352,
				"y": -0.2882547852,
				"z": -0.14949355,
				"element": "C" 
			},
			{
				"x": 3.9765324742,
				"y": 0.010832037,
				"z": -0.076281789,
				"element": "C" 
			},
			{
				"x": 2.0032663114,
				"y": -1.5569894207,
				"z": 0.1975319883,
				"element": "C" 
			},
			{
				"x": 2.8236869776,
				"y": -2.5725432072,
				"z": 0.6137399698,
				"element": "O" 
			},
			{
				"x": 0.6360823297,
				"y": -1.8394128684,
				"z": 0.1317200159,
				"element": "C" 
			},
			{
				"x": -3.3696715438,
				"y": -1.3905941005,
				"z": -1.8164213406,
				"element": "H" 
			},
			{
				"x": -2.2454842073,
				"y": -0.0685277294,
				"z": -2.1587755981,
				"element": "H" 
			},
			{
				"x": -1.7564347003,
				"y": -1.7400100385,
				"z": -2.4660156442,
				"element": "H" 
			},
			{
				"x": -1.8805058623,
				"y": -2.2438508247,
				"z": -0.0259085336,
				"element": "H" 
			},
			{
				"x": -2.2257909246,
				"y": -0.4299995413,
				"z": 1.6515993468,
				"element": "H" 
			},
			{
				"x": -2.5316651621,
				"y": 0.7305033521,
				"z": 0.3527251785,
				"element": "H" 
			},
			{
				"x": -3.6457416619,
				"y": -0.619966108,
				"z": 0.6055241114,
				"element": "H" 
			},
			{
				"x": -0.4799939178,
				"y": 1.1765824155,
				"z": -0.9539168096,
				"element": "H" 
			},
			{
				"x": 1.9295357636,
				"y": 1.6626852942,
				"z": -0.8343014179,
				"element": "H" 
			},
			{
				"x": 4.5655390164,
				"y": -0.6406396079,
				"z": -0.7370245687,
				"element": "H" 
			},
			{
				"x": 4.1795094874,
				"y": 1.0405140985,
				"z": -0.3805489762,
				"element": "H" 
			},
			{
				"x": 4.3745424096,
				"y": -0.1069996449,
				"z": 0.9413769799,
				"element": "H" 
			},
			{
				"x": 3.7377871973,
				"y": -2.2629792098,
				"z": 0.6194043068,
				"element": "H" 
			},
			{
				"x": 0.3062269698,
				"y": -2.8359793399,
				"z": 0.4109586108,
				"element": "H" 
			}
		],
		 "valence_orbital": [ 
			{
				"type": "occ",
				"energy": -0.32057,
				"method": "rhf"
			},
			{
				"type": "occ",
				"energy": -0.31544,
				"method": "rhf"
			},
			{
				"type": "occ",
				"energy": -0.3145,
				"method": "rhf"
			},
			{
				"type": "occ",
				"energy": -0.23391,
				"method": "rhf"
			},
			{
				"type": "occ",
				"energy": -0.2103,
				"method": "rhf"
			},
			{
				"type": "unocc",
				"energy": 0.00882,
				"method": "rhf"
			},
			{
				"type": "unocc",
				"energy": 0.01771,
				"method": "rhf"
			},
			{
				"type": "unocc",
				"energy": 0.06768,
				"method": "rhf"
			},
			{
				"type": "unocc",
				"energy": 0.09364,
				"method": "rhf"
			},
			{
				"type": "unocc",
				"energy": 0.11539,
				"method": "rhf"
			}
		],
		"cosmo_sigma_profile": { 
			"-0.025": 0.0,
			"-0.024": 0.0,
			"-0.023": 0.0,
			"-0.022": 0.0,
			"-0.021": 0.0,
			"-0.02": 0.0,
			"-0.019": 0.0,
			"-0.018": 0.0,
			"-0.017": 0.0,
			"-0.016": 0.236117155343,
			"-0.015": 1.05775423424,
			"-0.014": 0.36741177843,
			"-0.013": 0.967816116265,
			"-0.012": 0.752245186923,
			"-0.011": 0.928719850112,
			"-0.01": 1.6130469891,
			"-0.009": 1.22255088702,
			"-0.008": 1.2052719506,
			"-0.007": 1.34116951793,
			"-0.006": 2.47106836318,
			"-0.005": 7.0169044298,
			"-0.004": 13.4598928967,
			"-0.003": 20.0663872884,
			"-0.002": 24.6581086569,
			"-0.001": 23.9049690331,
			"0.0": 24.3739720319,
			"0.001": 23.1823133692,
			"0.002": 13.0420446689,
			"0.003": 8.15976036716,
			"0.004": 8.75797774583,
			"0.005": 9.5565348836,
			"0.006": 9.06431508976,
			"0.007": 6.16523920831,
			"0.008": 1.52759260342,
			"0.009": 1.67928236966,
			"0.01": 1.70721470639,
			"0.011": 1.79347683876,
			"0.012": 1.50626215205,
			"0.013": 0.00189346111506,
			"0.014": 0.0,
			"0.015": 0.0,
			"0.016": 0.0,
			"0.017": 0.0,
			"0.018": 0.0,
			"0.019": 0.0,
			"0.02": 0.0,
			"0.021": 0.0,
			"0.022": 0.0,
			"0.023": 0.0,
			"0.024": 0.0,
			"0.025": 0.0
		}
	}
}
