{
	 "smiles": "O=C(NC(=S)NC1=CC=CC=N1)C1=CC=CC=C1", 
	 "Tm": 419.15, 
	 "num_atms": 29, 
	 "gaussian": { 
		 "optdone": 1, 
		 "sigma_profile": "yes", 
		 "theory": "DFT", 
		 "functional": "B3LYP", 
		 "basiset": "6-31G**", 
		 "properties": { 
			 "R2extent": 4897.6469, 
			 "electric_dipole_moment_norm": 6.28252755983, 
			 "electric_quadrupole_moment_norm": 13.9424698006, 
			 "total_energy": -1139.69240036, 
			 "HOMO_LUMO_gap": 0.14834, 
			 "cosmo_polarized_energy": -18.4, 
			 "cosmo_cavitation_energy": 35.32, 
			 "cosmo_dispersion_energy": -24.36, 
			 "cosmo_repulsion_energy": 1.86, 
			 "cosmo_total_nonelectrostatic_energy": 12.82, 
			 "SMD_solvation_energy": 5.35 
		},
		"coords": [
			{
				"x": 0.7746053051,
				"y": 1.9564505244,
				"z": -2.4293044438,
				"element": "O" 
			},
			{
				"x": 0.8448332007,
				"y": 1.2389187283,
				"z": -1.448925552,
				"element": "C" 
			},
			{
				"x": 2.0347732586,
				"y": 1.2801218051,
				"z": -0.6792519934,
				"element": "N" 
			},
			{
				"x": 2.351603654,
				"y": 0.9361685131,
				"z": 0.6115023642,
				"element": "C" 
			},
			{
				"x": 3.9229512997,
				"y": 0.5361868694,
				"z": 1.0315115873,
				"element": "S" 
			},
			{
				"x": 1.3625464957,
				"y": 0.9156875911,
				"z": 1.5713365218,
				"element": "N" 
			},
			{
				"x": 0.2246590352,
				"y": 1.7273298598,
				"z": 1.7473057721,
				"element": "C" 
			},
			{
				"x": -0.4882584223,
				"y": 1.5991554672,
				"z": 2.9536786413,
				"element": "C" 
			},
			{
				"x": -1.5847315654,
				"y": 2.4256761039,
				"z": 3.1541875728,
				"element": "C" 
			},
			{
				"x": -1.941587858,
				"y": 3.3441198995,
				"z": 2.1616648254,
				"element": "C" 
			},
			{
				"x": -1.1724203744,
				"y": 3.3788255942,
				"z": 1.0027433964,
				"element": "C" 
			},
			{
				"x": -0.1104810138,
				"y": 2.5901847441,
				"z": 0.7918113124,
				"element": "N" 
			},
			{
				"x": -0.1876130111,
				"y": 0.2043492128,
				"z": -1.1419259897,
				"element": "C" 
			},
			{
				"x": 0.132217496,
				"y": -1.0366181564,
				"z": -0.5747772608,
				"element": "C" 
			},
			{
				"x": -0.8587373833,
				"y": -2.0057009562,
				"z": -0.4121350532,
				"element": "C" 
			},
			{
				"x": -2.1704777591,
				"y": -1.7403762365,
				"z": -0.8077657317,
				"element": "C" 
			},
			{
				"x": -2.4902288749,
				"y": -0.5083287894,
				"z": -1.3870686972,
				"element": "C" 
			},
			{
				"x": -1.5011929962,
				"y": 0.4538348341,
				"z": -1.5656501676,
				"element": "C" 
			},
			{
				"x": 2.8242794216,
				"y": 1.6238372389,
				"z": -1.2127101286,
				"element": "H" 
			},
			{
				"x": 1.7071226841,
				"y": 0.4934466632,
				"z": 2.4238083687,
				"element": "H" 
			},
			{
				"x": -0.1845622842,
				"y": 0.8753569119,
				"z": 3.7040462367,
				"element": "H" 
			},
			{
				"x": -2.155767409,
				"y": 2.3547088469,
				"z": 4.0751299256,
				"element": "H" 
			},
			{
				"x": -2.7910537479,
				"y": 4.0073607636,
				"z": 2.2816437744,
				"element": "H" 
			},
			{
				"x": -1.4112282614,
				"y": 4.0691474503,
				"z": 0.1965269182,
				"element": "H" 
			},
			{
				"x": 1.1540257018,
				"y": -1.260310405,
				"z": -0.2870756742,
				"element": "H" 
			},
			{
				"x": -0.6030086415,
				"y": -2.9700895382,
				"z": 0.0167551982,
				"element": "H" 
			},
			{
				"x": -2.9407691957,
				"y": -2.4947967571,
				"z": -0.6752246753,
				"element": "H" 
			},
			{
				"x": -3.5081074452,
				"y": -0.3043869773,
				"z": -1.7061079418,
				"element": "H" 
			},
			{
				"x": -1.7231913089,
				"y": 1.4065401941,
				"z": -2.0341291063,
				"element": "H" 
			}
		],
		 "valence_orbital": [ 
			{
				"type": "occ",
				"energy": -0.26334,
				"method": "rhf"
			},
			{
				"type": "occ",
				"energy": -0.2598,
				"method": "rhf"
			},
			{
				"type": "occ",
				"energy": -0.25302,
				"method": "rhf"
			},
			{
				"type": "occ",
				"energy": -0.23219,
				"method": "rhf"
			},
			{
				"type": "occ",
				"energy": -0.2165,
				"method": "rhf"
			},
			{
				"type": "unocc",
				"energy": -0.06816,
				"method": "rhf"
			},
			{
				"type": "unocc",
				"energy": -0.03821,
				"method": "rhf"
			},
			{
				"type": "unocc",
				"energy": -0.03339,
				"method": "rhf"
			},
			{
				"type": "unocc",
				"energy": -0.01165,
				"method": "rhf"
			},
			{
				"type": "unocc",
				"energy": 0.00116,
				"method": "rhf"
			}
		],
		"cosmo_sigma_profile": { 
			"-0.025": 0.0,
			"-0.024": 0.0,
			"-0.023": 0.0,
			"-0.022": 0.0,
			"-0.021": 0.0,
			"-0.02": 0.0,
			"-0.019": 0.0,
			"-0.018": 0.0,
			"-0.017": 0.0,
			"-0.016": 0.348497260767,
			"-0.015": 1.33446308246,
			"-0.014": 2.02678223691,
			"-0.013": 2.17193599008,
			"-0.012": 1.16164472274,
			"-0.011": 1.56389380483,
			"-0.01": 2.36308604431,
			"-0.009": 2.22154328469,
			"-0.008": 3.21919108721,
			"-0.007": 10.506461791,
			"-0.006": 20.6166875569,
			"-0.005": 20.648386636,
			"-0.004": 20.8039977629,
			"-0.003": 15.5201721341,
			"-0.002": 14.4071424756,
			"-0.001": 15.3466229384,
			"0.0": 15.8008245877,
			"0.001": 19.4473818945,
			"0.002": 25.5252983836,
			"0.003": 21.3928433149,
			"0.004": 15.2306360136,
			"0.005": 5.40330228473,
			"0.006": 6.79719921071,
			"0.007": 6.46972774726,
			"0.008": 9.65466438403,
			"0.009": 8.34425211571,
			"0.01": 6.94996465948,
			"0.011": 7.09158561882,
			"0.012": 3.70073148338,
			"0.013": 0.104579312707,
			"0.014": 0.0,
			"0.015": 0.0,
			"0.016": 0.0,
			"0.017": 0.0,
			"0.018": 0.0,
			"0.019": 0.0,
			"0.02": 0.0,
			"0.021": 0.0,
			"0.022": 0.0,
			"0.023": 0.0,
			"0.024": 0.0,
			"0.025": 0.0
		}
	}
}
