{
	 "smiles": "OC(=O)C1=C(I)C=CC(Cl)=C1", 
	 "Tm": 436.15, 
	 "num_atms": 15, 
	 "gaussian": { 
		 "optdone": 1, 
		 "sigma_profile": "yes", 
		 "theory": "DFT", 
		 "functional": "B3LYP", 
		 "basiset": "6-31G**", 
		 "properties": { 
			 "R2extent": 3216.2621, 
			 "electric_dipole_moment_norm": 4.55875974471, 
			 "electric_quadrupole_moment_norm": 9.98592069716, 
			 "total_energy": -891.180060141, 
			 "HOMO_LUMO_gap": 0.19186, 
			 "cosmo_polarized_energy": -11.07, 
			 "cosmo_cavitation_energy": 24.62, 
			 "cosmo_dispersion_energy": -19.78, 
			 "cosmo_repulsion_energy": 1.54, 
			 "cosmo_total_nonelectrostatic_energy": 6.38, 
			 "SMD_solvation_energy": 4.3 
		},
		"coords": [
			{
				"x": 1.413671939,
				"y": -0.5867376517,
				"z": -2.1494301675,
				"element": "O" 
			},
			{
				"x": 0.2035821244,
				"y": -1.1714453384,
				"z": -2.0777176843,
				"element": "C" 
			},
			{
				"x": -0.1616437911,
				"y": -1.9148001131,
				"z": -2.9578947099,
				"element": "O" 
			},
			{
				"x": -0.6576052245,
				"y": -0.9402357709,
				"z": -0.8486527306,
				"element": "C" 
			},
			{
				"x": -0.7164060498,
				"y": 0.1856834852,
				"z": -0.0077423735,
				"element": "C" 
			},
			{
				"x": 0.412188735,
				"y": 1.9716584428,
				"z": -0.3079137448,
				"element": "I" 
			},
			{
				"x": -1.5914556903,
				"y": 0.2158961115,
				"z": 1.0833068414,
				"element": "C" 
			},
			{
				"x": -2.4143701275,
				"y": -0.8712173325,
				"z": 1.3636504813,
				"element": "C" 
			},
			{
				"x": -2.3687912069,
				"y": -1.9868172558,
				"z": 0.5285263885,
				"element": "C" 
			},
			{
				"x": -3.4050861456,
				"y": -3.3587769409,
				"z": 0.8582527437,
				"element": "Cl" 
			},
			{
				"x": -1.514197468,
				"y": -2.0187917394,
				"z": -0.564730605,
				"element": "C" 
			},
			{
				"x": 1.5869520375,
				"y": -0.0080384637,
				"z": -1.3894798618,
				"element": "H" 
			},
			{
				"x": -1.6365138016,
				"y": 1.0930147611,
				"z": 1.7183064846,
				"element": "H" 
			},
			{
				"x": -3.0856098513,
				"y": -0.8460890322,
				"z": 2.2147658265,
				"element": "H" 
			},
			{
				"x": -1.4909154793,
				"y": -2.8725031619,
				"z": -1.2310468887,
				"element": "H" 
			}
		],
		 "valence_orbital": [ 
			{
				"type": "occ",
				"energy": -0.31086,
				"method": "rhf"
			},
			{
				"type": "occ",
				"energy": -0.2981,
				"method": "rhf"
			},
			{
				"type": "occ",
				"energy": -0.29781,
				"method": "rhf"
			},
			{
				"type": "occ",
				"energy": -0.2802,
				"method": "rhf"
			},
			{
				"type": "occ",
				"energy": -0.26251,
				"method": "rhf"
			},
			{
				"type": "unocc",
				"energy": -0.07065,
				"method": "rhf"
			},
			{
				"type": "unocc",
				"energy": -0.06924,
				"method": "rhf"
			},
			{
				"type": "unocc",
				"energy": -0.04544,
				"method": "rhf"
			},
			{
				"type": "unocc",
				"energy": 0.01185,
				"method": "rhf"
			},
			{
				"type": "unocc",
				"energy": 0.02754,
				"method": "rhf"
			}
		],
		"cosmo_sigma_profile": { 
			"-0.025": 0.0,
			"-0.024": 0.0,
			"-0.023": 0.0,
			"-0.022": 0.0,
			"-0.021": 0.0,
			"-0.02": 0.0,
			"-0.019": 0.0,
			"-0.018": 0.0,
			"-0.017": 0.0,
			"-0.016": 0.0,
			"-0.015": 0.253674046829,
			"-0.014": 0.786689045995,
			"-0.013": 1.07508216793,
			"-0.012": 1.05521026081,
			"-0.011": 0.690668204362,
			"-0.01": 0.682518189653,
			"-0.009": 2.10987468573,
			"-0.008": 7.66574835747,
			"-0.007": 6.98835197632,
			"-0.006": 7.01236007681,
			"-0.005": 9.49099953511,
			"-0.004": 9.48908970299,
			"-0.003": 10.6566567042,
			"-0.002": 14.9048105078,
			"-0.001": 16.8269632981,
			"0.0": 26.7846369747,
			"0.001": 20.364670192,
			"0.002": 16.4494478689,
			"0.003": 14.0116486359,
			"0.004": 10.5500462607,
			"0.005": 2.5952133818,
			"0.006": 2.78623267951,
			"0.007": 2.64961688804,
			"0.008": 2.92458545467,
			"0.009": 3.74368063199,
			"0.01": 4.97999617697,
			"0.011": 5.14981595693,
			"0.012": 2.57398875559,
			"0.013": 0.485189105173,
			"0.014": 0.0,
			"0.015": 0.0,
			"0.016": 0.0,
			"0.017": 0.0,
			"0.018": 0.0,
			"0.019": 0.0,
			"0.02": 0.0,
			"0.021": 0.0,
			"0.022": 0.0,
			"0.023": 0.0,
			"0.024": 0.0,
			"0.025": 0.0
		}
	}
}
