{
	 "smiles": "OC(=O)C1CC1C1=C(F)C=CC=C1F", 
	 "Tm": 363.15, 
	 "num_atms": 22, 
	 "gaussian": { 
		 "optdone": 1, 
		 "sigma_profile": "yes", 
		 "theory": "DFT", 
		 "functional": "B3LYP", 
		 "basiset": "6-31G**", 
		 "properties": { 
			 "R2extent": 3030.4676, 
			 "electric_dipole_moment_norm": 5.24205983465, 
			 "electric_quadrupole_moment_norm": 12.050509434, 
			 "total_energy": -735.983337459, 
			 "HOMO_LUMO_gap": 0.23041, 
			 "cosmo_polarized_energy": -14.7, 
			 "cosmo_cavitation_energy": 27.51, 
			 "cosmo_dispersion_energy": -19.32, 
			 "cosmo_repulsion_energy": 1.49, 
			 "cosmo_total_nonelectrostatic_energy": 9.68, 
			 "SMD_solvation_energy": 6.39 
		},
		"coords": [
			{
				"x": -1.2722725888,
				"y": 2.7060161938,
				"z": -2.2622107277,
				"element": "O" 
			},
			{
				"x": -0.2607774486,
				"y": 1.803272544,
				"z": -2.347432972,
				"element": "C" 
			},
			{
				"x": 0.0463221263,
				"y": 1.3337630617,
				"z": -3.4183580004,
				"element": "O" 
			},
			{
				"x": 0.4146956546,
				"y": 1.4430097073,
				"z": -1.0632699685,
				"element": "C" 
			},
			{
				"x": 1.8690225217,
				"y": 1.0201890549,
				"z": -1.1374944288,
				"element": "C" 
			},
			{
				"x": 0.821545973,
				"y": -0.0193404079,
				"z": -0.9015224163,
				"element": "C" 
			},
			{
				"x": 0.6656323685,
				"y": -0.6879403075,
				"z": 0.4238886876,
				"element": "C" 
			},
			{
				"x": -0.5671296467,
				"y": -0.7565695126,
				"z": 1.0821874602,
				"element": "C" 
			},
			{
				"x": -1.6315826343,
				"y": -0.1637094007,
				"z": 0.4978254761,
				"element": "F" 
			},
			{
				"x": -0.7509059668,
				"y": -1.3917616188,
				"z": 2.304112581,
				"element": "C" 
			},
			{
				"x": 0.3485139696,
				"y": -2.0028447463,
				"z": 2.9084240055,
				"element": "C" 
			},
			{
				"x": 1.6014018347,
				"y": -1.9722293407,
				"z": 2.2960685535,
				"element": "C" 
			},
			{
				"x": 1.7302086424,
				"y": -1.3225667399,
				"z": 1.0734752051,
				"element": "C" 
			},
			{
				"x": 2.9425573645,
				"y": -1.3012025451,
				"z": 0.4829253102,
				"element": "F" 
			},
			{
				"x": -1.4196313119,
				"y": 2.9570719135,
				"z": -1.339854202,
				"element": "H" 
			},
			{
				"x": 0.095226961,
				"y": 1.9579941739,
				"z": -0.1612818314,
				"element": "H" 
			},
			{
				"x": 2.5089867905,
				"y": 1.3064808409,
				"z": -0.3101031941,
				"element": "H" 
			},
			{
				"x": 2.3236887128,
				"y": 1.0517877724,
				"z": -2.1215905028,
				"element": "H" 
			},
			{
				"x": 0.5747678762,
				"y": -0.628858809,
				"z": -1.7687146066,
				"element": "H" 
			},
			{
				"x": -1.7359647335,
				"y": -1.4015307653,
				"z": 2.7563605252,
				"element": "H" 
			},
			{
				"x": 0.2274650006,
				"y": -2.5068802074,
				"z": 3.8618542193,
				"element": "H" 
			},
			{
				"x": 2.4712285344,
				"y": -2.4410508613,
				"z": 2.741710827,
				"element": "H" 
			}
		],
		 "valence_orbital": [ 
			{
				"type": "occ",
				"energy": -0.31582,
				"method": "rhf"
			},
			{
				"type": "occ",
				"energy": -0.30285,
				"method": "rhf"
			},
			{
				"type": "occ",
				"energy": -0.27323,
				"method": "rhf"
			},
			{
				"type": "occ",
				"energy": -0.26011,
				"method": "rhf"
			},
			{
				"type": "occ",
				"energy": -0.25622,
				"method": "rhf"
			},
			{
				"type": "unocc",
				"energy": -0.02581,
				"method": "rhf"
			},
			{
				"type": "unocc",
				"energy": -0.01006,
				"method": "rhf"
			},
			{
				"type": "unocc",
				"energy": 0.00911,
				"method": "rhf"
			},
			{
				"type": "unocc",
				"energy": 0.0522,
				"method": "rhf"
			},
			{
				"type": "unocc",
				"energy": 0.0706,
				"method": "rhf"
			}
		],
		"cosmo_sigma_profile": { 
			"-0.025": 0.0,
			"-0.024": 0.0,
			"-0.023": 0.0,
			"-0.022": 0.0,
			"-0.021": 0.0,
			"-0.02": 0.034763681376,
			"-0.019": 0.709736535937,
			"-0.018": 1.31889583588,
			"-0.017": 0.725724189684,
			"-0.016": 1.29118463621,
			"-0.015": 0.908870383167,
			"-0.014": 0.998755001449,
			"-0.013": 0.640173921101,
			"-0.012": 0.974213647767,
			"-0.011": 1.01118723304,
			"-0.01": 1.08474737615,
			"-0.009": 0.912834739058,
			"-0.008": 2.06698649752,
			"-0.007": 7.32280981535,
			"-0.006": 11.2908020257,
			"-0.005": 12.9740567202,
			"-0.004": 12.3594068726,
			"-0.003": 12.3383608101,
			"-0.002": 12.0766901477,
			"-0.001": 15.7083012497,
			"0.0": 18.3254054463,
			"0.001": 20.0497088698,
			"0.002": 15.7362529115,
			"0.003": 17.4520505715,
			"0.004": 20.295169279,
			"0.005": 4.20445951517,
			"0.006": 2.11458490794,
			"0.007": 2.7081295711,
			"0.008": 2.64426343014,
			"0.009": 2.58101738682,
			"0.01": 4.50329489433,
			"0.011": 4.30589588025,
			"0.012": 5.36399393847,
			"0.013": 2.4138210324,
			"0.014": 0.253435770468,
			"0.015": 0.0,
			"0.016": 0.0,
			"0.017": 0.0,
			"0.018": 0.0,
			"0.019": 0.0,
			"0.02": 0.0,
			"0.021": 0.0,
			"0.022": 0.0,
			"0.023": 0.0,
			"0.024": 0.0,
			"0.025": 0.0
		}
	}
}
