{
	 "smiles": "BrC1=CC(NC(=O)C=C)=CC=C1", 
	 "Tm": 396.15, 
	 "num_atms": 20, 
	 "gaussian": { 
		 "optdone": 1, 
		 "sigma_profile": "yes", 
		 "theory": "DFT", 
		 "functional": "B3LYP", 
		 "basiset": "6-31G**", 
		 "properties": { 
			 "R2extent": 4360.3314, 
			 "electric_dipole_moment_norm": 2.49386670053, 
			 "electric_quadrupole_moment_norm": 13.6881877511, 
			 "total_energy": -3049.14684713, 
			 "HOMO_LUMO_gap": 0.18738, 
			 "cosmo_polarized_energy": -11.08, 
			 "cosmo_cavitation_energy": 27.27, 
			 "cosmo_dispersion_energy": -19.82, 
			 "cosmo_repulsion_energy": 1.59, 
			 "cosmo_total_nonelectrostatic_energy": 9.05, 
			 "SMD_solvation_energy": 4.95 
		},
		"coords": [
			{
				"x": 2.3734801517,
				"y": 1.8325177705,
				"z": -2.6733406475,
				"element": "Br" 
			},
			{
				"x": 1.3382598081,
				"y": 0.6199171343,
				"z": -1.6179361442,
				"element": "C" 
			},
			{
				"x": 0.3101565722,
				"y": 1.1287185682,
				"z": -0.8281785302,
				"element": "C" 
			},
			{
				"x": -0.4461583013,
				"y": 0.2484889641,
				"z": -0.0387060779,
				"element": "C" 
			},
			{
				"x": -1.5076322851,
				"y": 0.7023898258,
				"z": 0.7708022655,
				"element": "N" 
			},
			{
				"x": -1.6623132111,
				"y": 1.8641567005,
				"z": 1.516966768,
				"element": "C" 
			},
			{
				"x": -2.7622062255,
				"y": 2.133648185,
				"z": 1.9841713549,
				"element": "O" 
			},
			{
				"x": -0.4504202549,
				"y": 2.6959333075,
				"z": 1.7693019453,
				"element": "C" 
			},
			{
				"x": -0.5763372102,
				"y": 3.9033668482,
				"z": 2.3249777435,
				"element": "C" 
			},
			{
				"x": -0.1820015188,
				"y": -1.1288895138,
				"z": -0.0961165893,
				"element": "C" 
			},
			{
				"x": 0.8326383002,
				"y": -1.6134222718,
				"z": -0.9168494272,
				"element": "C" 
			},
			{
				"x": 1.6150015741,
				"y": -0.7438444101,
				"z": -1.6796182692,
				"element": "C" 
			},
			{
				"x": 0.0851964427,
				"y": 2.1875135426,
				"z": -0.8417082992,
				"element": "H" 
			},
			{
				"x": -2.3415646288,
				"y": 0.1281577959,
				"z": 0.7963185233,
				"element": "H" 
			},
			{
				"x": 0.5246577786,
				"y": 2.2900136676,
				"z": 1.5205742117,
				"element": "H" 
			},
			{
				"x": -1.5608381017,
				"y": 4.2896363275,
				"z": 2.5707013499,
				"element": "H" 
			},
			{
				"x": 0.2876820142,
				"y": 4.5209193452,
				"z": 2.5478864034,
				"element": "H" 
			},
			{
				"x": -0.7687823783,
				"y": -1.8095682486,
				"z": 0.5134911385,
				"element": "H" 
			},
			{
				"x": 1.0293559995,
				"y": -2.680648653,
				"z": -0.9542375753,
				"element": "H" 
			},
			{
				"x": 2.4142254743,
				"y": -1.1153048857,
				"z": -2.309600144,
				"element": "H" 
			}
		],
		 "valence_orbital": [ 
			{
				"type": "occ",
				"energy": -0.29336,
				"method": "rhf"
			},
			{
				"type": "occ",
				"energy": -0.28027,
				"method": "rhf"
			},
			{
				"type": "occ",
				"energy": -0.2598,
				"method": "rhf"
			},
			{
				"type": "occ",
				"energy": -0.25672,
				"method": "rhf"
			},
			{
				"type": "occ",
				"energy": -0.23663,
				"method": "rhf"
			},
			{
				"type": "unocc",
				"energy": -0.04925,
				"method": "rhf"
			},
			{
				"type": "unocc",
				"energy": -0.02566,
				"method": "rhf"
			},
			{
				"type": "unocc",
				"energy": -0.016,
				"method": "rhf"
			},
			{
				"type": "unocc",
				"energy": 0.00049,
				"method": "rhf"
			},
			{
				"type": "unocc",
				"energy": 0.08258,
				"method": "rhf"
			}
		],
		"cosmo_sigma_profile": { 
			"-0.025": 0.0,
			"-0.024": 0.0,
			"-0.023": 0.0,
			"-0.022": 0.0,
			"-0.021": 0.0,
			"-0.02": 0.0,
			"-0.019": 0.0,
			"-0.018": 0.0,
			"-0.017": 0.0,
			"-0.016": 0.0,
			"-0.015": 0.142850159943,
			"-0.014": 1.27992332247,
			"-0.013": 0.964222936887,
			"-0.012": 1.13324047141,
			"-0.011": 1.12317325102,
			"-0.01": 0.899532317811,
			"-0.009": 1.34825633708,
			"-0.008": 1.88988415694,
			"-0.007": 8.01731526722,
			"-0.006": 12.8110527414,
			"-0.005": 13.6474784137,
			"-0.004": 14.5588574348,
			"-0.003": 14.2617593017,
			"-0.002": 14.926072252,
			"-0.001": 12.6826629232,
			"0.0": 16.7316627632,
			"0.001": 19.2423497569,
			"0.002": 22.2627060923,
			"0.003": 20.5497103218,
			"0.004": 17.7011988403,
			"0.005": 6.87321695361,
			"0.006": 1.54450273654,
			"0.007": 1.54991631347,
			"0.008": 1.31188784028,
			"0.009": 1.45167554104,
			"0.01": 1.25537680269,
			"0.011": 2.31589641227,
			"0.012": 2.2269867854,
			"0.013": 5.40310882723,
			"0.014": 1.94059013727,
			"0.015": 0.0,
			"0.016": 0.0,
			"0.017": 0.0,
			"0.018": 0.0,
			"0.019": 0.0,
			"0.02": 0.0,
			"0.021": 0.0,
			"0.022": 0.0,
			"0.023": 0.0,
			"0.024": 0.0,
			"0.025": 0.0
		}
	}
}
