{
	 "smiles": "CC1=C(CC(O)=O)N=C(O1)C1=CC=CS1", 
	 "Tm": 459.15, 
	 "num_atms": 24, 
	 "gaussian": { 
		 "optdone": 1, 
		 "sigma_profile": "yes", 
		 "theory": "DFT", 
		 "functional": "B3LYP", 
		 "basiset": "6-31G**", 
		 "properties": { 
			 "R2extent": 4381.1886, 
			 "electric_dipole_moment_norm": 6.18386420048, 
			 "electric_quadrupole_moment_norm": 29.2849032537, 
			 "total_energy": -1065.10183123, 
			 "HOMO_LUMO_gap": 0.15885, 
			 "cosmo_polarized_energy": -13.99, 
			 "cosmo_cavitation_energy": 30.8, 
			 "cosmo_dispersion_energy": -22.89, 
			 "cosmo_repulsion_energy": 1.77, 
			 "cosmo_total_nonelectrostatic_energy": 9.68, 
			 "SMD_solvation_energy": 6.15 
		},
		"coords": [
			{
				"x": 1.5202837869,
				"y": -2.9269007945,
				"z": -0.4814386084,
				"element": "C" 
			},
			{
				"x": 0.9839930304,
				"y": -1.5454209943,
				"z": -0.3953349531,
				"element": "C" 
			},
			{
				"x": 1.1758529142,
				"y": -0.3824469365,
				"z": -1.0778503092,
				"element": "C" 
			},
			{
				"x": 2.0725740982,
				"y": -0.0624033442,
				"z": -2.2334918467,
				"element": "C" 
			},
			{
				"x": 1.4277141797,
				"y": 0.742770575,
				"z": -3.3788603148,
				"element": "C" 
			},
			{
				"x": 0.5275358591,
				"y": 1.6711214189,
				"z": -3.0203240796,
				"element": "O" 
			},
			{
				"x": 1.7642000167,
				"y": 0.5860534328,
				"z": -4.52831803,
				"element": "O" 
			},
			{
				"x": 0.3684387641,
				"y": 0.6078451227,
				"z": -0.5229126868,
				"element": "N" 
			},
			{
				"x": -0.274757441,
				"y": 0.0249607307,
				"z": 0.4542750796,
				"element": "C" 
			},
			{
				"x": 0.0553320875,
				"y": -1.2841401154,
				"z": 0.5947473221,
				"element": "O" 
			},
			{
				"x": -1.2472615593,
				"y": 0.5951155884,
				"z": 1.3530058769,
				"element": "C" 
			},
			{
				"x": -1.6915194711,
				"y": 1.899809335,
				"z": 1.3746341202,
				"element": "C" 
			},
			{
				"x": -2.6586580985,
				"y": 2.135064806,
				"z": 2.3883456533,
				"element": "C" 
			},
			{
				"x": -2.938291228,
				"y": 1.0129248126,
				"z": 3.1242978018,
				"element": "C" 
			},
			{
				"x": -2.0252978407,
				"y": -0.3582906426,
				"z": 2.5935351968,
				"element": "S" 
			},
			{
				"x": 2.2096478995,
				"y": -3.0064996501,
				"z": -1.3247568266,
				"element": "H" 
			},
			{
				"x": 2.06175154,
				"y": -3.2049675582,
				"z": 0.4299720047,
				"element": "H" 
			},
			{
				"x": 0.7161940263,
				"y": -3.6568003369,
				"z": -0.6261560715,
				"element": "H" 
			},
			{
				"x": 2.9201450799,
				"y": 0.5435117435,
				"z": -1.8812069686,
				"element": "H" 
			},
			{
				"x": 2.4927564416,
				"y": -0.9662821215,
				"z": -2.6765065271,
				"element": "H" 
			},
			{
				"x": 0.3369916549,
				"y": 1.6051630773,
				"z": -2.0556848262,
				"element": "H" 
			},
			{
				"x": -1.3275943774,
				"y": 2.6501237009,
				"z": 0.6833816995,
				"element": "H" 
			},
			{
				"x": -3.1269497885,
				"y": 3.096319555,
				"z": 2.5641758635,
				"element": "H" 
			},
			{
				"x": -3.6286815747,
				"y": 0.9085685955,
				"z": 3.9498714305,
				"element": "H" 
			}
		],
		 "valence_orbital": [ 
			{
				"type": "occ",
				"energy": -0.2959,
				"method": "rhf"
			},
			{
				"type": "occ",
				"energy": -0.28871,
				"method": "rhf"
			},
			{
				"type": "occ",
				"energy": -0.27095,
				"method": "rhf"
			},
			{
				"type": "occ",
				"energy": -0.25483,
				"method": "rhf"
			},
			{
				"type": "occ",
				"energy": -0.22381,
				"method": "rhf"
			},
			{
				"type": "unocc",
				"energy": -0.06496,
				"method": "rhf"
			},
			{
				"type": "unocc",
				"energy": 0.01147,
				"method": "rhf"
			},
			{
				"type": "unocc",
				"energy": 0.01371,
				"method": "rhf"
			},
			{
				"type": "unocc",
				"energy": 0.02274,
				"method": "rhf"
			},
			{
				"type": "unocc",
				"energy": 0.03551,
				"method": "rhf"
			}
		],
		"cosmo_sigma_profile": { 
			"-0.025": 0.0,
			"-0.024": 0.0,
			"-0.023": 0.0,
			"-0.022": 0.0,
			"-0.021": 0.0,
			"-0.02": 0.0,
			"-0.019": 0.0,
			"-0.018": 0.0,
			"-0.017": 0.0,
			"-0.016": 0.0,
			"-0.015": 0.0,
			"-0.014": 0.0,
			"-0.013": 0.0,
			"-0.012": 0.0,
			"-0.011": 0.0,
			"-0.01": 0.064468013721,
			"-0.009": 2.26469250902,
			"-0.008": 6.19408775736,
			"-0.007": 10.6850579368,
			"-0.006": 14.1158594351,
			"-0.005": 16.5746257994,
			"-0.004": 17.1636897171,
			"-0.003": 18.4721819244,
			"-0.002": 22.4601727788,
			"-0.001": 20.3203074033,
			"0.0": 16.768965873,
			"0.001": 17.6428084387,
			"0.002": 21.0955187687,
			"0.003": 18.8590480092,
			"0.004": 10.3434557755,
			"0.005": 4.29182419079,
			"0.006": 3.20487709919,
			"0.007": 2.6812677453,
			"0.008": 2.81744179366,
			"0.009": 3.10113830688,
			"0.01": 3.78829577161,
			"0.011": 5.54563325687,
			"0.012": 6.45078266852,
			"0.013": 3.6723121015,
			"0.014": 0.583415683504,
			"0.015": 0.0,
			"0.016": 0.0,
			"0.017": 0.0,
			"0.018": 0.0,
			"0.019": 0.0,
			"0.02": 0.0,
			"0.021": 0.0,
			"0.022": 0.0,
			"0.023": 0.0,
			"0.024": 0.0,
			"0.025": 0.0
		}
	}
}
