{
	 "smiles": "CCCCCC(C)=O", 
	 "Tm": 238.15, 
	 "num_atms": 22, 
	 "gaussian": { 
		 "optdone": 1, 
		 "sigma_profile": "yes", 
		 "theory": "DFT", 
		 "functional": "B3LYP", 
		 "basiset": "6-31G**", 
		 "properties": { 
			 "R2extent": 1707.482, 
			 "electric_dipole_moment_norm": 2.52583572506, 
			 "electric_quadrupole_moment_norm": 9.46702082653, 
			 "total_energy": -350.423259625, 
			 "HOMO_LUMO_gap": 0.23274, 
			 "cosmo_polarized_energy": -6.58, 
			 "cosmo_cavitation_energy": 24.08, 
			 "cosmo_dispersion_energy": -17.22, 
			 "cosmo_repulsion_energy": 1.47, 
			 "cosmo_total_nonelectrostatic_energy": 8.33, 
			 "SMD_solvation_energy": 4.6 
		},
		"coords": [
			{
				"x": 1.5686642241,
				"y": -1.7060482329,
				"z": -1.8884488261,
				"element": "C" 
			},
			{
				"x": 1.948631168,
				"y": -0.7703351517,
				"z": -0.7343099931,
				"element": "C" 
			},
			{
				"x": 0.8305537117,
				"y": 0.187586607,
				"z": -0.2914186821,
				"element": "C" 
			},
			{
				"x": -0.3885756664,
				"y": -0.5085942376,
				"z": 0.3313867034,
				"element": "C" 
			},
			{
				"x": -1.4692999877,
				"y": 0.4679567357,
				"z": 0.8060572397,
				"element": "C" 
			},
			{
				"x": -1.1058425608,
				"y": 1.2519151276,
				"z": 2.0644417769,
				"element": "C" 
			},
			{
				"x": -2.0285316928,
				"y": 2.4016700522,
				"z": 2.434264982,
				"element": "C" 
			},
			{
				"x": -0.1380199733,
				"y": 0.969624891,
				"z": 2.746322952,
				"element": "O" 
			},
			{
				"x": 1.2428529651,
				"y": -1.1366901824,
				"z": -2.7671941383,
				"element": "H" 
			},
			{
				"x": 2.4207295811,
				"y": -2.3234635555,
				"z": -2.1917035492,
				"element": "H" 
			},
			{
				"x": 0.7550501591,
				"y": -2.3859612872,
				"z": -1.6151015669,
				"element": "H" 
			},
			{
				"x": 2.2728567382,
				"y": -1.366153407,
				"z": 0.1295895917,
				"element": "H" 
			},
			{
				"x": 2.8200832568,
				"y": -0.174031679,
				"z": -1.0334081551,
				"element": "H" 
			},
			{
				"x": 0.5046197232,
				"y": 0.7855413476,
				"z": -1.1558748125,
				"element": "H" 
			},
			{
				"x": 1.2406794711,
				"y": 0.8918463789,
				"z": 0.4410096481,
				"element": "H" 
			},
			{
				"x": -0.8377735984,
				"y": -1.1983952256,
				"z": -0.3922931905,
				"element": "H" 
			},
			{
				"x": -0.0615055982,
				"y": -1.1096226387,
				"z": 1.1877671963,
				"element": "H" 
			},
			{
				"x": -2.4012730295,
				"y": -0.069788519,
				"z": 1.0377245025,
				"element": "H" 
			},
			{
				"x": -1.7418513581,
				"y": 1.1789636216,
				"z": 0.0131354691,
				"element": "H" 
			},
			{
				"x": -3.0794201646,
				"y": 2.0935073967,
				"z": 2.4020122971,
				"element": "H" 
			},
			{
				"x": -1.9129117682,
				"y": 3.2149440261,
				"z": 1.7073410901,
				"element": "H" 
			},
			{
				"x": -1.7779156004,
				"y": 2.7732279323,
				"z": 3.428899465,
				"element": "H" 
			}
		],
		 "valence_orbital": [ 
			{
				"type": "occ",
				"energy": -0.34066,
				"method": "rhf"
			},
			{
				"type": "occ",
				"energy": -0.31869,
				"method": "rhf"
			},
			{
				"type": "occ",
				"energy": -0.31776,
				"method": "rhf"
			},
			{
				"type": "occ",
				"energy": -0.31008,
				"method": "rhf"
			},
			{
				"type": "occ",
				"energy": -0.24291,
				"method": "rhf"
			},
			{
				"type": "unocc",
				"energy": -0.01017,
				"method": "rhf"
			},
			{
				"type": "unocc",
				"energy": 0.08528,
				"method": "rhf"
			},
			{
				"type": "unocc",
				"energy": 0.09909,
				"method": "rhf"
			},
			{
				"type": "unocc",
				"energy": 0.12629,
				"method": "rhf"
			},
			{
				"type": "unocc",
				"energy": 0.13177,
				"method": "rhf"
			}
		],
		"cosmo_sigma_profile": { 
			"-0.025": 0.0,
			"-0.024": 0.0,
			"-0.023": 0.0,
			"-0.022": 0.0,
			"-0.021": 0.0,
			"-0.02": 0.0,
			"-0.019": 0.0,
			"-0.018": 0.0,
			"-0.017": 0.0,
			"-0.016": 0.0,
			"-0.015": 0.0,
			"-0.014": 0.0,
			"-0.013": 0.0,
			"-0.012": 0.0,
			"-0.011": 0.0,
			"-0.01": 0.0,
			"-0.009": 0.0,
			"-0.008": 0.0,
			"-0.007": 0.0218825497552,
			"-0.006": 5.76864838363,
			"-0.005": 10.2283000784,
			"-0.004": 10.719011911,
			"-0.003": 13.5633496319,
			"-0.002": 26.4708337647,
			"-0.001": 30.1836054978,
			"0.0": 30.5664379443,
			"0.001": 24.5589972333,
			"0.002": 9.75026724914,
			"0.003": 2.35860560286,
			"0.004": 1.60202216865,
			"0.005": 1.80741689634,
			"0.006": 1.86588667506,
			"0.007": 1.82899811171,
			"0.008": 1.43555426788,
			"0.009": 1.82873370159,
			"0.01": 2.41712217388,
			"0.011": 1.94156612389,
			"0.012": 4.24262089589,
			"0.013": 2.59071945765,
			"0.014": 0.324276572653,
			"0.015": 0.0,
			"0.016": 0.0,
			"0.017": 0.0,
			"0.018": 0.0,
			"0.019": 0.0,
			"0.02": 0.0,
			"0.021": 0.0,
			"0.022": 0.0,
			"0.023": 0.0,
			"0.024": 0.0,
			"0.025": 0.0
		}
	}
}
