{
	 "smiles": "CC(C=CC=C(/C)C=CC1=C(C)CCCC1(C)C)=CC=CC=C(/C)C=CC=C(/C)C=CC1=C(C)CC(O)CC1(C)C", 
	 "Tm": 433.15, 
	 "num_atms": 97, 
	 "gaussian": { 
		 "optdone": 1, 
		 "sigma_profile": "yes", 
		 "theory": "DFT", 
		 "functional": "B3LYP", 
		 "basiset": "6-31G**", 
		 "properties": { 
			 "R2extent": 62686.8274, 
			 "electric_dipole_moment_norm": 2.11460634871, 
			 "electric_quadrupole_moment_norm": 25.6851467232, 
			 "total_energy": -1633.13104536, 
			 "HOMO_LUMO_gap": 0.09199, 
			 "cosmo_polarized_energy": -14.52, 
			 "cosmo_cavitation_energy": 93.37, 
			 "cosmo_dispersion_energy": -60.15, 
			 "cosmo_repulsion_energy": 4.58, 
			 "cosmo_total_nonelectrostatic_energy": 37.8, 
			 "SMD_solvation_energy": 15.07 
		},
		"coords": [
			{
				"x": 7.9145547326,
				"y": -1.0507567119,
				"z": -2.1030064915,
				"element": "C" 
			},
			{
				"x": 6.4668924542,
				"y": -0.7114705056,
				"z": -1.8276132574,
				"element": "C" 
			},
			{
				"x": 5.5647121371,
				"y": -1.7870568869,
				"z": -1.4654823006,
				"element": "C" 
			},
			{
				"x": 5.9467258214,
				"y": -3.0445230599,
				"z": -1.1041663725,
				"element": "C" 
			},
			{
				"x": 5.1091975601,
				"y": -4.1801744253,
				"z": -0.7817644442,
				"element": "C" 
			},
			{
				"x": 3.8477520963,
				"y": -4.5046917858,
				"z": -1.1989668113,
				"element": "C" 
			},
			{
				"x": 3.0744750953,
				"y": -3.7043032508,
				"z": -2.2183737106,
				"element": "C" 
			},
			{
				"x": 3.2428762167,
				"y": -5.7117044374,
				"z": -0.649275698,
				"element": "C" 
			},
			{
				"x": 1.9810547425,
				"y": -6.1510427807,
				"z": -0.8660677347,
				"element": "C" 
			},
			{
				"x": 1.3567321831,
				"y": -7.3539368786,
				"z": -0.2826725402,
				"element": "C" 
			},
			{
				"x": 1.9541391994,
				"y": -8.5732092286,
				"z": -0.2775777291,
				"element": "C" 
			},
			{
				"x": 3.3084453852,
				"y": -8.8619211214,
				"z": -0.883185889,
				"element": "C" 
			},
			{
				"x": 1.308749439,
				"y": -9.7991435854,
				"z": 0.3419587407,
				"element": "C" 
			},
			{
				"x": -0.194455916,
				"y": -9.6619731724,
				"z": 0.585467663,
				"element": "C" 
			},
			{
				"x": -0.4954103195,
				"y": -8.2950803501,
				"z": 1.1938059397,
				"element": "C" 
			},
			{
				"x": -0.0673383865,
				"y": -7.1232168901,
				"z": 0.2808339244,
				"element": "C" 
			},
			{
				"x": -1.0727393275,
				"y": -6.9739182184,
				"z": -0.8877529688,
				"element": "C" 
			},
			{
				"x": -0.1084318399,
				"y": -5.8338407319,
				"z": 1.1324697311,
				"element": "C" 
			},
			{
				"x": 6.0489670349,
				"y": 0.5846768497,
				"z": -1.9874865068,
				"element": "C" 
			},
			{
				"x": 4.7754984036,
				"y": 1.1973365698,
				"z": -1.6868723707,
				"element": "C" 
			},
			{
				"x": 3.8707010107,
				"y": 0.8468983854,
				"z": -0.7263096714,
				"element": "C" 
			},
			{
				"x": 2.6387216549,
				"y": 1.5546520525,
				"z": -0.52052105,
				"element": "C" 
			},
			{
				"x": 1.6762770911,
				"y": 1.2942157874,
				"z": 0.4161529921,
				"element": "C" 
			},
			{
				"x": 1.7424966661,
				"y": 0.1187439306,
				"z": 1.3664240404,
				"element": "C" 
			},
			{
				"x": 0.4953354691,
				"y": 2.1376310762,
				"z": 0.5569544448,
				"element": "C" 
			},
			{
				"x": 0.3863492911,
				"y": 3.4438331284,
				"z": 0.1853964858,
				"element": "C" 
			},
			{
				"x": -0.7667929487,
				"y": 4.3122977938,
				"z": 0.2755603546,
				"element": "C" 
			},
			{
				"x": -2.097625846,
				"y": 4.0044261859,
				"z": 0.3114150576,
				"element": "C" 
			},
			{
				"x": -2.6390267473,
				"y": 2.6061951021,
				"z": 0.1276542535,
				"element": "C" 
			},
			{
				"x": -3.1036550501,
				"y": 5.0551435692,
				"z": 0.4866873712,
				"element": "C" 
			},
			{
				"x": -2.9394628819,
				"y": 6.2083225646,
				"z": 1.1746467958,
				"element": "C" 
			},
			{
				"x": -3.9342042558,
				"y": 7.2811263797,
				"z": 1.356034355,
				"element": "C" 
			},
			{
				"x": -4.6691259544,
				"y": 7.7942935791,
				"z": 0.3357440448,
				"element": "C" 
			},
			{
				"x": -4.5467322549,
				"y": 7.3669706295,
				"z": -1.1082337039,
				"element": "C" 
			},
			{
				"x": -5.7049360144,
				"y": 8.8838155974,
				"z": 0.5459618905,
				"element": "C" 
			},
			{
				"x": -5.5540396098,
				"y": 9.6514420056,
				"z": 1.8574993362,
				"element": "C" 
			},
			{
				"x": -6.6655756404,
				"y": 10.509484879,
				"z": 2.1049670371,
				"element": "O" 
			},
			{
				"x": -5.3153313261,
				"y": 8.6644350304,
				"z": 2.9931818769,
				"element": "C" 
			},
			{
				"x": -4.0364026511,
				"y": 7.815910715,
				"z": 2.8052274053,
				"element": "C" 
			},
			{
				"x": -4.1044718827,
				"y": 6.6430454588,
				"z": 3.8101127553,
				"element": "C" 
			},
			{
				"x": -2.7890285118,
				"y": 8.6741655428,
				"z": 3.1345866229,
				"element": "C" 
			},
			{
				"x": 8.4201991301,
				"y": -1.3959973519,
				"z": -1.1918276379,
				"element": "H" 
			},
			{
				"x": 8.0063297296,
				"y": -1.8567282509,
				"z": -2.8400592265,
				"element": "H" 
			},
			{
				"x": 8.4631084413,
				"y": -0.1800243045,
				"z": -2.4707387953,
				"element": "H" 
			},
			{
				"x": 4.5073655598,
				"y": -1.5486135063,
				"z": -1.4938563725,
				"element": "H" 
			},
			{
				"x": 7.0124823427,
				"y": -3.2289689409,
				"z": -0.9745233504,
				"element": "H" 
			},
			{
				"x": 5.5856353192,
				"y": -4.9035875703,
				"z": -0.1192421344,
				"element": "H" 
			},
			{
				"x": 2.5162816236,
				"y": -4.368462823,
				"z": -2.8857010855,
				"element": "H" 
			},
			{
				"x": 3.7392702225,
				"y": -3.0908197452,
				"z": -2.8292694054,
				"element": "H" 
			},
			{
				"x": 2.3440227719,
				"y": -3.0343446824,
				"z": -1.7470446604,
				"element": "H" 
			},
			{
				"x": 3.8751397998,
				"y": -6.2797220258,
				"z": 0.0309489238,
				"element": "H" 
			},
			{
				"x": 1.323014689,
				"y": -5.5294784464,
				"z": -1.4716119676,
				"element": "H" 
			},
			{
				"x": 3.6618675561,
				"y": -8.0627692202,
				"z": -1.5348977263,
				"element": "H" 
			},
			{
				"x": 3.2688523881,
				"y": -9.7921804767,
				"z": -1.4638263317,
				"element": "H" 
			},
			{
				"x": 4.0689043899,
				"y": -9.0197484859,
				"z": -0.1054213987,
				"element": "H" 
			},
			{
				"x": 1.5119945901,
				"y": -10.6701583294,
				"z": -0.2950883991,
				"element": "H" 
			},
			{
				"x": 1.8205178152,
				"y": -10.0155922589,
				"z": 1.2941253017,
				"element": "H" 
			},
			{
				"x": -0.5470474644,
				"y": -10.4639911993,
				"z": 1.2444730429,
				"element": "H" 
			},
			{
				"x": -0.7337528546,
				"y": -9.780147976,
				"z": -0.3622390094,
				"element": "H" 
			},
			{
				"x": -1.5636691247,
				"y": -8.1948570905,
				"z": 1.4244484881,
				"element": "H" 
			},
			{
				"x": 0.03872011,
				"y": -8.210215193,
				"z": 2.1503180142,
				"element": "H" 
			},
			{
				"x": -0.8042219844,
				"y": -6.1443916395,
				"z": -1.5496119457,
				"element": "H" 
			},
			{
				"x": -2.0784921142,
				"y": -6.7703011484,
				"z": -0.5014072478,
				"element": "H" 
			},
			{
				"x": -1.1194630963,
				"y": -7.8792166872,
				"z": -1.4997729323,
				"element": "H" 
			},
			{
				"x": -1.0993736371,
				"y": -5.7154635993,
				"z": 1.5863608115,
				"element": "H" 
			},
			{
				"x": 0.6311485201,
				"y": -5.87217243,
				"z": 1.939099171,
				"element": "H" 
			},
			{
				"x": 0.0951428057,
				"y": -4.93848933,
				"z": 0.5383094521,
				"element": "H" 
			},
			{
				"x": 6.7777005378,
				"y": 1.269191239,
				"z": -2.4219632159,
				"element": "H" 
			},
			{
				"x": 4.551651527,
				"y": 2.0947822943,
				"z": -2.2662654435,
				"element": "H" 
			},
			{
				"x": 4.1123642053,
				"y": 0.0260852848,
				"z": -0.0583660046,
				"element": "H" 
			},
			{
				"x": 2.4571300323,
				"y": 2.3812881823,
				"z": -1.2060540465,
				"element": "H" 
			},
			{
				"x": 2.5108298826,
				"y": -0.6081960302,
				"z": 1.0994481339,
				"element": "H" 
			},
			{
				"x": 1.9387966135,
				"y": 0.4531103963,
				"z": 2.3931689221,
				"element": "H" 
			},
			{
				"x": 0.780853459,
				"y": -0.4079182442,
				"z": 1.3877217876,
				"element": "H" 
			},
			{
				"x": -0.3445249474,
				"y": 1.6750874647,
				"z": 1.0700217079,
				"element": "H" 
			},
			{
				"x": 1.2876821318,
				"y": 3.9320915434,
				"z": -0.1842054374,
				"element": "H" 
			},
			{
				"x": -0.5256102395,
				"y": 5.3739650924,
				"z": 0.2678555425,
				"element": "H" 
			},
			{
				"x": -1.9627604042,
				"y": 1.9818308966,
				"z": -0.4625212631,
				"element": "H" 
			},
			{
				"x": -3.6132534066,
				"y": 2.6363031851,
				"z": -0.3728658537,
				"element": "H" 
			},
			{
				"x": -2.7984047116,
				"y": 2.1018420175,
				"z": 1.0901076665,
				"element": "H" 
			},
			{
				"x": -4.0838420103,
				"y": 4.844653267,
				"z": 0.0602002631,
				"element": "H" 
			},
			{
				"x": -2.0027200009,
				"y": 6.3326811423,
				"z": 1.7173944005,
				"element": "H" 
			},
			{
				"x": -4.518414157,
				"y": 8.2501158675,
				"z": -1.7585475663,
				"element": "H" 
			},
			{
				"x": -3.6578825279,
				"y": 6.7659527848,
				"z": -1.3000593139,
				"element": "H" 
			},
			{
				"x": -5.421058728,
				"y": 6.7817599941,
				"z": -1.425993609,
				"element": "H" 
			},
			{
				"x": -6.7095054037,
				"y": 8.4261835559,
				"z": 0.5216232611,
				"element": "H" 
			},
			{
				"x": -5.6870150359,
				"y": 9.5856317708,
				"z": -0.2967738801,
				"element": "H" 
			},
			{
				"x": -4.700640435,
				"y": 10.3336764308,
				"z": 1.7762277447,
				"element": "H" 
			},
			{
				"x": -7.4447625843,
				"y": 9.9476178855,
				"z": 2.2181458093,
				"element": "H" 
			},
			{
				"x": -5.2672252609,
				"y": 9.2021960601,
				"z": 3.9473352834,
				"element": "H" 
			},
			{
				"x": -6.1854382048,
				"y": 7.9922309282,
				"z": 3.0495178415,
				"element": "H" 
			},
			{
				"x": -4.9430319374,
				"y": 5.9771764058,
				"z": 3.5806026901,
				"element": "H" 
			},
			{
				"x": -3.1911170006,
				"y": 6.0417327992,
				"z": 3.8034170159,
				"element": "H" 
			},
			{
				"x": -4.2448164644,
				"y": 7.0271785242,
				"z": 4.8270287779,
				"element": "H" 
			},
			{
				"x": -2.7063184847,
				"y": 9.5418605173,
				"z": 2.4738230427,
				"element": "H" 
			},
			{
				"x": -2.8389548275,
				"y": 9.0361693581,
				"z": 4.1679298438,
				"element": "H" 
			},
			{
				"x": -1.8646554654,
				"y": 8.0966633071,
				"z": 3.035888453,
				"element": "H" 
			}
		],
		 "valence_orbital": [ 
			{
				"type": "occ",
				"energy": -0.24206,
				"method": "rhf"
			},
			{
				"type": "occ",
				"energy": -0.22888,
				"method": "rhf"
			},
			{
				"type": "occ",
				"energy": -0.2122,
				"method": "rhf"
			},
			{
				"type": "occ",
				"energy": -0.19184,
				"method": "rhf"
			},
			{
				"type": "occ",
				"energy": -0.16864,
				"method": "rhf"
			},
			{
				"type": "unocc",
				"energy": -0.07665,
				"method": "rhf"
			},
			{
				"type": "unocc",
				"energy": -0.04854,
				"method": "rhf"
			},
			{
				"type": "unocc",
				"energy": -0.01886,
				"method": "rhf"
			},
			{
				"type": "unocc",
				"energy": 0.00857,
				"method": "rhf"
			},
			{
				"type": "unocc",
				"energy": 0.02758,
				"method": "rhf"
			}
		],
		"cosmo_sigma_profile": { 
			"-0.025": 0.0,
			"-0.024": 0.0,
			"-0.023": 0.0,
			"-0.022": 0.0,
			"-0.021": 0.0,
			"-0.02": 0.0,
			"-0.019": 0.0,
			"-0.018": 0.0,
			"-0.017": 0.0,
			"-0.016": 0.0,
			"-0.015": 0.191553124481,
			"-0.014": 0.78153089371,
			"-0.013": 1.14048435708,
			"-0.012": 0.886093851123,
			"-0.011": 0.830202874892,
			"-0.01": 1.37648324437,
			"-0.009": 1.13360892975,
			"-0.008": 0.813843263744,
			"-0.007": 0.904777897505,
			"-0.006": 2.2976929601,
			"-0.005": 14.0961675738,
			"-0.004": 51.0821038729,
			"-0.003": 77.2408070217,
			"-0.002": 98.2605399508,
			"-0.001": 97.1404913807,
			"0.0": 98.0340142047,
			"0.001": 89.5567262648,
			"0.002": 52.9997071701,
			"0.003": 33.0705039798,
			"0.004": 35.1149408941,
			"0.005": 37.2819635372,
			"0.006": 19.9111015466,
			"0.007": 1.8697418746,
			"0.008": 1.40346964906,
			"0.009": 0.753653573477,
			"0.01": 1.018335129,
			"0.011": 1.62209554483,
			"0.012": 1.32708007015,
			"0.013": 1.3992158881,
			"0.014": 2.10242809322,
			"0.015": 1.72192757302,
			"0.016": 0.00581300183162,
			"0.017": 0.0,
			"0.018": 0.0,
			"0.019": 0.0,
			"0.02": 0.0,
			"0.021": 0.0,
			"0.022": 0.0,
			"0.023": 0.0,
			"0.024": 0.0,
			"0.025": 0.0
		}
	}
}
