{
	 "smiles": "ClC(C(=O)C1=CC=CC=C1)C1=CC=CC=C1", 
	 "Tm": 340.95, 
	 "num_atms": 27, 
	 "gaussian": { 
		 "optdone": 1, 
		 "sigma_profile": "yes", 
		 "theory": "DFT", 
		 "functional": "B3LYP", 
		 "basiset": "6-31G**", 
		 "properties": { 
			 "R2extent": 5175.9456, 
			 "electric_dipole_moment_norm": 2.76578552675, 
			 "electric_quadrupole_moment_norm": 14.2418600513, 
			 "total_energy": -1075.53441927, 
			 "HOMO_LUMO_gap": 0.17578, 
			 "cosmo_polarized_energy": -10.38, 
			 "cosmo_cavitation_energy": 32.86, 
			 "cosmo_dispersion_energy": -23.56, 
			 "cosmo_repulsion_energy": 1.83, 
			 "cosmo_total_nonelectrostatic_energy": 11.13, 
			 "SMD_solvation_energy": 5.56 
		},
		"coords": [
			{
				"x": 2.2704757697,
				"y": 1.9225330992,
				"z": 0.4379236953,
				"element": "Cl" 
			},
			{
				"x": 0.5116321593,
				"y": 1.3827863262,
				"z": 0.2266935267,
				"element": "C" 
			},
			{
				"x": 0.2986580085,
				"y": 0.239339844,
				"z": 1.2479188517,
				"element": "C" 
			},
			{
				"x": -0.2615469902,
				"y": 0.4617499773,
				"z": 2.3066342128,
				"element": "O" 
			},
			{
				"x": 0.7707139464,
				"y": -1.1365130241,
				"z": 0.8948920944,
				"element": "C" 
			},
			{
				"x": 0.4289430151,
				"y": -2.177000809,
				"z": 1.7755653279,
				"element": "C" 
			},
			{
				"x": 0.8154121062,
				"y": -3.4858494607,
				"z": 1.5070603265,
				"element": "C" 
			},
			{
				"x": 1.5559249871,
				"y": -3.7732696424,
				"z": 0.3565036912,
				"element": "C" 
			},
			{
				"x": 1.9086714386,
				"y": -2.7460824762,
				"z": -0.5207454691,
				"element": "C" 
			},
			{
				"x": 1.5175478905,
				"y": -1.4340925368,
				"z": -0.2564315235,
				"element": "C" 
			},
			{
				"x": -0.4418543782,
				"y": 2.5361460819,
				"z": 0.351179152,
				"element": "C" 
			},
			{
				"x": -1.2580355815,
				"y": 2.8544776461,
				"z": -0.7413218245,
				"element": "C" 
			},
			{
				"x": -2.1746694713,
				"y": 3.9043280977,
				"z": -0.6633942034,
				"element": "C" 
			},
			{
				"x": -2.276911718,
				"y": 4.6505725502,
				"z": 0.5100511023,
				"element": "C" 
			},
			{
				"x": -1.4607191009,
				"y": 4.3425741014,
				"z": 1.6025194468,
				"element": "C" 
			},
			{
				"x": -0.54902497,
				"y": 3.2925745914,
				"z": 1.5275950302,
				"element": "C" 
			},
			{
				"x": 0.4742221634,
				"y": 0.9862676656,
				"z": -0.7877149483,
				"element": "H" 
			},
			{
				"x": -0.1438854473,
				"y": -1.9300507549,
				"z": 2.6628282444,
				"element": "H" 
			},
			{
				"x": 0.541810152,
				"y": -4.2829504604,
				"z": 2.1920106099,
				"element": "H" 
			},
			{
				"x": 1.8595432072,
				"y": -4.7947879553,
				"z": 0.1459816434,
				"element": "H" 
			},
			{
				"x": 2.4920091139,
				"y": -2.965104951,
				"z": -1.4100124501,
				"element": "H" 
			},
			{
				"x": 1.8232902016,
				"y": -0.6474742212,
				"z": -0.937344671,
				"element": "H" 
			},
			{
				"x": -1.1768440436,
				"y": 2.2778273536,
				"z": -1.6596622621,
				"element": "H" 
			},
			{
				"x": -2.8008629286,
				"y": 4.1395486459,
				"z": -1.5189980982,
				"element": "H" 
			},
			{
				"x": -2.9855622632,
				"y": 5.4713488388,
				"z": 0.5740597784,
				"element": "H" 
			},
			{
				"x": -1.5358835769,
				"y": 4.9233904706,
				"z": 2.5171704136,
				"element": "H" 
			},
			{
				"x": 0.0814463102,
				"y": 3.055311002,
				"z": 2.3758383029,
				"element": "H" 
			}
		],
		 "valence_orbital": [ 
			{
				"type": "occ",
				"energy": -0.26577,
				"method": "rhf"
			},
			{
				"type": "occ",
				"energy": -0.26406,
				"method": "rhf"
			},
			{
				"type": "occ",
				"energy": -0.26272,
				"method": "rhf"
			},
			{
				"type": "occ",
				"energy": -0.24951,
				"method": "rhf"
			},
			{
				"type": "occ",
				"energy": -0.24869,
				"method": "rhf"
			},
			{
				"type": "unocc",
				"energy": -0.07291,
				"method": "rhf"
			},
			{
				"type": "unocc",
				"energy": -0.0263,
				"method": "rhf"
			},
			{
				"type": "unocc",
				"energy": -0.01416,
				"method": "rhf"
			},
			{
				"type": "unocc",
				"energy": -0.00228,
				"method": "rhf"
			},
			{
				"type": "unocc",
				"energy": 0.01926,
				"method": "rhf"
			}
		],
		"cosmo_sigma_profile": { 
			"-0.025": 0.0,
			"-0.024": 0.0,
			"-0.023": 0.0,
			"-0.022": 0.0,
			"-0.021": 0.0,
			"-0.02": 0.0,
			"-0.019": 0.0,
			"-0.018": 0.0,
			"-0.017": 0.0,
			"-0.016": 0.0,
			"-0.015": 0.0,
			"-0.014": 0.0,
			"-0.013": 0.0,
			"-0.012": 0.0,
			"-0.011": 0.0,
			"-0.01": 0.967134435149,
			"-0.009": 3.32762405541,
			"-0.008": 3.19954162892,
			"-0.007": 6.3337062525,
			"-0.006": 17.4884779204,
			"-0.005": 21.2125426878,
			"-0.004": 20.6059986029,
			"-0.003": 15.8259788471,
			"-0.002": 13.9642103393,
			"-0.001": 15.2326473937,
			"0.0": 16.4461183944,
			"0.001": 18.5641407911,
			"0.002": 22.0527123377,
			"0.003": 26.2493228575,
			"0.004": 26.825865214,
			"0.005": 19.2195128466,
			"0.006": 6.08400963966,
			"0.007": 2.10437366619,
			"0.008": 1.89781708958,
			"0.009": 2.6108139811,
			"0.01": 3.09174515557,
			"0.011": 2.52114997654,
			"0.012": 0.0367886528186,
			"0.013": 0.0,
			"0.014": 0.0,
			"0.015": 0.0,
			"0.016": 0.0,
			"0.017": 0.0,
			"0.018": 0.0,
			"0.019": 0.0,
			"0.02": 0.0,
			"0.021": 0.0,
			"0.022": 0.0,
			"0.023": 0.0,
			"0.024": 0.0,
			"0.025": 0.0
		}
	}
}
