{
	 "smiles": "OC(=O)CNC(=O)C1=CC(=CC=C1)[N+]([O-])=O", 
	 "Tm": 364.15, 
	 "num_atms": 24, 
	 "gaussian": { 
		 "optdone": 1, 
		 "sigma_profile": "yes", 
		 "theory": "DFT", 
		 "functional": "B3LYP", 
		 "basiset": "6-31G**", 
		 "properties": { 
			 "R2extent": 4622.3992, 
			 "electric_dipole_moment_norm": 3.22580878076, 
			 "electric_quadrupole_moment_norm": 19.4787284336, 
			 "total_energy": -833.319574653, 
			 "HOMO_LUMO_gap": 0.16375, 
			 "cosmo_polarized_energy": -20.12, 
			 "cosmo_cavitation_energy": 30.61, 
			 "cosmo_dispersion_energy": -21.61, 
			 "cosmo_repulsion_energy": 1.71, 
			 "cosmo_total_nonelectrostatic_energy": 10.72, 
			 "SMD_solvation_energy": 8.89 
		},
		"coords": [
			{
				"x": 1.3593465209,
				"y": 3.9147003425,
				"z": 2.1868610934,
				"element": "O" 
			},
			{
				"x": 1.7802457366,
				"y": 3.1496827152,
				"z": 1.1553565207,
				"element": "C" 
			},
			{
				"x": 2.3096494529,
				"y": 3.5929110539,
				"z": 0.1643868412,
				"element": "O" 
			},
			{
				"x": 1.5697812365,
				"y": 1.6595983065,
				"z": 1.4063198787,
				"element": "C" 
			},
			{
				"x": 0.6067216204,
				"y": 1.3508583106,
				"z": 2.4491393563,
				"element": "N" 
			},
			{
				"x": -0.6049433702,
				"y": 0.7093601214,
				"z": 2.3122087966,
				"element": "C" 
			},
			{
				"x": -1.5205875787,
				"y": 0.9129234023,
				"z": 3.1000572458,
				"element": "O" 
			},
			{
				"x": -0.7667502027,
				"y": -0.3004690823,
				"z": 1.2067078473,
				"element": "C" 
			},
			{
				"x": 0.2620848106,
				"y": -1.1553641353,
				"z": 0.8014269455,
				"element": "C" 
			},
			{
				"x": -0.0079615163,
				"y": -2.1204563444,
				"z": -0.1662723646,
				"element": "C" 
			},
			{
				"x": -1.2650765916,
				"y": -2.2619169391,
				"z": -0.7483553866,
				"element": "C" 
			},
			{
				"x": -2.2889174836,
				"y": -1.412593309,
				"z": -0.3287116904,
				"element": "C" 
			},
			{
				"x": -2.0464088538,
				"y": -0.450391861,
				"z": 0.6500746328,
				"element": "C" 
			},
			{
				"x": 1.0781306494,
				"y": -3.0249873988,
				"z": -0.5838892193,
				"element": "N" 
			},
			{
				"x": 2.1786302047,
				"y": -2.8754674095,
				"z": -0.0540159827,
				"element": "O" 
			},
			{
				"x": 0.8179557157,
				"y": -3.8704942757,
				"z": -1.4377612268,
				"element": "O" 
			},
			{
				"x": 1.5598168911,
				"y": 4.8366897869,
				"z": 1.9527068197,
				"element": "H" 
			},
			{
				"x": 2.5617964738,
				"y": 1.2462610021,
				"z": 1.6390905672,
				"element": "H" 
			},
			{
				"x": 1.2646271975,
				"y": 1.2217076861,
				"z": 0.456140014,
				"element": "H" 
			},
			{
				"x": 0.5963501019,
				"y": 1.9941576854,
				"z": 3.2323211229,
				"element": "H" 
			},
			{
				"x": 1.2531753327,
				"y": -1.1112723486,
				"z": 1.2346321329,
				"element": "H" 
			},
			{
				"x": -1.4209864829,
				"y": -3.0252758621,
				"z": -1.5002769658,
				"element": "H" 
			},
			{
				"x": -3.2795180683,
				"y": -1.5102569224,
				"z": -0.7609282241,
				"element": "H" 
			},
			{
				"x": -2.8422617966,
				"y": 0.1936954751,
				"z": 1.0083812454,
				"element": "H" 
			}
		],
		 "valence_orbital": [ 
			{
				"type": "occ",
				"energy": -0.29967,
				"method": "rhf"
			},
			{
				"type": "occ",
				"energy": -0.29404,
				"method": "rhf"
			},
			{
				"type": "occ",
				"energy": -0.29003,
				"method": "rhf"
			},
			{
				"type": "occ",
				"energy": -0.27162,
				"method": "rhf"
			},
			{
				"type": "occ",
				"energy": -0.26182,
				"method": "rhf"
			},
			{
				"type": "unocc",
				"energy": -0.09807,
				"method": "rhf"
			},
			{
				"type": "unocc",
				"energy": -0.058,
				"method": "rhf"
			},
			{
				"type": "unocc",
				"energy": -0.01761,
				"method": "rhf"
			},
			{
				"type": "unocc",
				"energy": -0.0118,
				"method": "rhf"
			},
			{
				"type": "unocc",
				"energy": 0.03483,
				"method": "rhf"
			}
		],
		"cosmo_sigma_profile": { 
			"-0.025": 0.0,
			"-0.024": 0.0,
			"-0.023": 0.0,
			"-0.022": 0.0,
			"-0.021": 0.0,
			"-0.02": 0.0215988361862,
			"-0.019": 0.653319355799,
			"-0.018": 1.13799785602,
			"-0.017": 0.565152052998,
			"-0.016": 0.610278086963,
			"-0.015": 1.3496082813,
			"-0.014": 0.364821677788,
			"-0.013": 0.695893574215,
			"-0.012": 1.37540907167,
			"-0.011": 1.20694424874,
			"-0.01": 0.811439983946,
			"-0.009": 2.27946693571,
			"-0.008": 11.6653186322,
			"-0.007": 17.4569057953,
			"-0.006": 15.2040239537,
			"-0.005": 12.5033876187,
			"-0.004": 13.8190807972,
			"-0.003": 13.6884276358,
			"-0.002": 14.7595397229,
			"-0.001": 15.5654198483,
			"0.0": 16.2824273384,
			"0.001": 14.5615871922,
			"0.002": 8.48917534157,
			"0.003": 6.48664867856,
			"0.004": 7.78007464131,
			"0.005": 6.79781956461,
			"0.006": 7.09346213534,
			"0.007": 11.3846280558,
			"0.008": 8.39039719984,
			"0.009": 7.84341951986,
			"0.01": 5.84592783607,
			"0.011": 6.9033444662,
			"0.012": 5.83063074069,
			"0.013": 4.74000437465,
			"0.014": 0.72721480741,
			"0.015": 0.0,
			"0.016": 0.0,
			"0.017": 0.0,
			"0.018": 0.0,
			"0.019": 0.0,
			"0.02": 0.0,
			"0.021": 0.0,
			"0.022": 0.0,
			"0.023": 0.0,
			"0.024": 0.0,
			"0.0": 0.0
		}
	}
}
