{
	 "smiles": "[O-][N+](=O)C1=CC=C(C=C1)S(=O)(=O)C=C", 
	 "Tm": 386.15, 
	 "num_atms": 21, 
	 "gaussian": { 
		 "optdone": 1, 
		 "sigma_profile": "yes", 
		 "theory": "DFT", 
		 "functional": "B3LYP", 
		 "basiset": "6-31G**", 
		 "properties": { 
			 "R2extent": 3780.665, 
			 "electric_dipole_moment_norm": 4.07484427678, 
			 "electric_quadrupole_moment_norm": 19.9546408003, 
			 "total_energy": -1062.70213712, 
			 "HOMO_LUMO_gap": 0.18515, 
			 "cosmo_polarized_energy": -16.17, 
			 "cosmo_cavitation_energy": 28.33, 
			 "cosmo_dispersion_energy": -20.65, 
			 "cosmo_repulsion_energy": 1.56, 
			 "cosmo_total_nonelectrostatic_energy": 9.24, 
			 "SMD_solvation_energy": 7.56 
		},
		"coords": [
			{
				"x": -4.3744048965,
				"y": -0.7885183162,
				"z": 0.9230182706,
				"element": "O" 
			},
			{
				"x": -3.4393298366,
				"y": -1.5034944292,
				"z": 0.569615377,
				"element": "N" 
			},
			{
				"x": -3.4704171368,
				"y": -2.7308152447,
				"z": 0.5123378232,
				"element": "O" 
			},
			{
				"x": -2.1784161336,
				"y": -0.8357954131,
				"z": 0.1867141991,
				"element": "C" 
			},
			{
				"x": -1.1017186495,
				"y": -1.6231309809,
				"z": -0.2184531796,
				"element": "C" 
			},
			{
				"x": 0.0874432197,
				"y": -0.9923552349,
				"z": -0.5741869928,
				"element": "C" 
			},
			{
				"x": 0.1644923048,
				"y": 0.401319437,
				"z": -0.5119778237,
				"element": "C" 
			},
			{
				"x": -0.9244488965,
				"y": 1.182172734,
				"z": -0.1182289526,
				"element": "C" 
			},
			{
				"x": -2.1161732558,
				"y": 0.554986138,
				"z": 0.2393284449,
				"element": "C" 
			},
			{
				"x": 1.7078095639,
				"y": 1.2205883242,
				"z": -0.973040924,
				"element": "S" 
			},
			{
				"x": 1.3713103076,
				"y": 2.6060620969,
				"z": -1.331503696,
				"element": "O" 
			},
			{
				"x": 2.4208874804,
				"y": 0.328221798,
				"z": -1.8990296846,
				"element": "O" 
			},
			{
				"x": 2.618135995,
				"y": 1.2740501441,
				"z": 0.5668872443,
				"element": "C" 
			},
			{
				"x": 3.762502029,
				"y": 0.6097577642,
				"z": 0.6923419685,
				"element": "C" 
			},
			{
				"x": -1.2109765732,
				"y": -2.6996722609,
				"z": -0.2535534158,
				"element": "H" 
			},
			{
				"x": 0.9422470917,
				"y": -1.5663938232,
				"z": -0.9141930649,
				"element": "H" 
			},
			{
				"x": -0.8400680749,
				"y": 2.2633046167,
				"z": -0.1150918861,
				"element": "H" 
			},
			{
				"x": -2.9880105502,
				"y": 1.117506845,
				"z": 0.5485525992,
				"element": "H" 
			},
			{
				"x": 2.1849716537,
				"y": 1.9234926152,
				"z": 1.3215229214,
				"element": "H" 
			},
			{
				"x": 4.1390412765,
				"y": -0.0059721803,
				"z": -0.1189596777,
				"element": "H" 
			},
			{
				"x": 4.3508230812,
				"y": 0.67728537,
				"z": 1.6025004497,
				"element": "H" 
			}
		],
		 "valence_orbital": [ 
			{
				"type": "occ",
				"energy": -0.3133,
				"method": "rhf"
			},
			{
				"type": "occ",
				"energy": -0.31007,
				"method": "rhf"
			},
			{
				"type": "occ",
				"energy": -0.30596,
				"method": "rhf"
			},
			{
				"type": "occ",
				"energy": -0.29864,
				"method": "rhf"
			},
			{
				"type": "occ",
				"energy": -0.29591,
				"method": "rhf"
			},
			{
				"type": "unocc",
				"energy": -0.11076,
				"method": "rhf"
			},
			{
				"type": "unocc",
				"energy": -0.05361,
				"method": "rhf"
			},
			{
				"type": "unocc",
				"energy": -0.04867,
				"method": "rhf"
			},
			{
				"type": "unocc",
				"energy": -0.02038,
				"method": "rhf"
			},
			{
				"type": "unocc",
				"energy": 0.04719,
				"method": "rhf"
			}
		],
		"cosmo_sigma_profile": { 
			"-0.025": 0.0,
			"-0.024": 0.0,
			"-0.023": 0.0,
			"-0.022": 0.0,
			"-0.021": 0.0,
			"-0.02": 0.0,
			"-0.019": 0.0,
			"-0.018": 0.0,
			"-0.017": 0.0,
			"-0.016": 0.0,
			"-0.015": 0.0,
			"-0.014": 0.0,
			"-0.013": 0.0,
			"-0.012": 0.0,
			"-0.011": 0.0077630347934,
			"-0.01": 1.75199834364,
			"-0.009": 5.15461729885,
			"-0.008": 11.7247171803,
			"-0.007": 14.205036459,
			"-0.006": 11.4840953768,
			"-0.005": 12.0456054916,
			"-0.004": 11.9283788042,
			"-0.003": 17.0100162652,
			"-0.002": 17.5330221977,
			"-0.001": 23.1730923106,
			"0.0": 17.5324539459,
			"0.001": 8.2916413664,
			"0.002": 7.20987972516,
			"0.003": 5.58846139146,
			"0.004": 4.1411876024,
			"0.005": 5.5485915765,
			"0.006": 8.51044929969,
			"0.007": 12.278139419,
			"0.008": 7.60250760861,
			"0.009": 7.48563949504,
			"0.01": 7.82647621483,
			"0.011": 7.81931500917,
			"0.012": 2.56271449116,
			"0.013": 0.0,
			"0.014": 0.0,
			"0.015": 0.0,
			"0.016": 0.0,
			"0.017": 0.0,
			"0.018": 0.0,
			"0.019": 0.0,
			"0.02": 0.0,
			"0.021": 0.0,
			"0.022": 0.0,
			"0.023": 0.0,
			"0.024": 0.0,
			"0.025": 0.0
		}
	}
}
