{
	 "smiles": "COC(=O)C1=CN(CC(O)=O)N=N1", 
	 "Tm": 450.15, 
	 "num_atms": 20, 
	 "gaussian": { 
		 "optdone": 1, 
		 "sigma_profile": "yes", 
		 "theory": "DFT", 
		 "functional": "B3LYP", 
		 "basiset": "6-31G**", 
		 "properties": { 
			 "R2extent": 3276.046, 
			 "electric_dipole_moment_norm": 6.65020304427, 
			 "electric_quadrupole_moment_norm": 20.4159661763, 
			 "total_energy": -697.97592273, 
			 "HOMO_LUMO_gap": 0.23909, 
			 "cosmo_polarized_energy": -22.57, 
			 "cosmo_cavitation_energy": 26.58, 
			 "cosmo_dispersion_energy": -19.19, 
			 "cosmo_repulsion_energy": 1.55, 
			 "cosmo_total_nonelectrostatic_energy": 8.94, 
			 "SMD_solvation_energy": 6.17 
		},
		"coords": [
			{
				"x": -0.1480714965,
				"y": 3.6371616275,
				"z": -0.7040114316,
				"element": "C" 
			},
			{
				"x": -0.1699281937,
				"y": 2.252667532,
				"z": -0.3232492719,
				"element": "O" 
			},
			{
				"x": 0.9694512007,
				"y": 1.5664797108,
				"z": -0.5975300702,
				"element": "C" 
			},
			{
				"x": 1.9473081845,
				"y": 2.0567515669,
				"z": -1.1149019928,
				"element": "O" 
			},
			{
				"x": 0.8320964546,
				"y": 0.1596787375,
				"z": -0.1728142419,
				"element": "C" 
			},
			{
				"x": -0.2509202907,
				"y": -0.4703917555,
				"z": 0.4106197928,
				"element": "C" 
			},
			{
				"x": 0.1629557142,
				"y": -1.7443274669,
				"z": 0.5820630907,
				"element": "N" 
			},
			{
				"x": -0.5085079759,
				"y": -2.8804379322,
				"z": 1.1710375554,
				"element": "C" 
			},
			{
				"x": -1.8633361721,
				"y": -3.165489457,
				"z": 0.5355867957,
				"element": "C" 
			},
			{
				"x": -2.3002684942,
				"y": -4.380322106,
				"z": 0.9211960254,
				"element": "O" 
			},
			{
				"x": -2.4849197321,
				"y": -2.4131349581,
				"z": -0.1751376152,
				"element": "O" 
			},
			{
				"x": 1.4453890049,
				"y": -1.9000506568,
				"z": 0.1252026597,
				"element": "N" 
			},
			{
				"x": 1.8397380815,
				"y": -0.7547687164,
				"z": -0.3264041445,
				"element": "N" 
			},
			{
				"x": -1.122509968,
				"y": 4.0356353802,
				"z": -0.4215969767,
				"element": "H" 
			},
			{
				"x": 0.6506858496,
				"y": 4.1685889471,
				"z": -0.1803688815,
				"element": "H" 
			},
			{
				"x": 0.0102936998,
				"y": 3.7381787589,
				"z": -1.7806864831,
				"element": "H" 
			},
			{
				"x": -1.2362070251,
				"y": -0.1240746331,
				"z": 0.6724128183,
				"element": "H" 
			},
			{
				"x": -0.6630355015,
				"y": -2.7310214555,
				"z": 2.2466939264,
				"element": "H" 
			},
			{
				"x": 0.1540566425,
				"y": -3.7396276294,
				"z": 1.0499360189,
				"element": "H" 
			},
			{
				"x": -3.1793699826,
				"y": -4.5045954941,
				"z": 0.5244524261,
				"element": "H" 
			}
		],
		 "valence_orbital": [ 
			{
				"type": "occ",
				"energy": -0.30786,
				"method": "rhf"
			},
			{
				"type": "occ",
				"energy": -0.29925,
				"method": "rhf"
			},
			{
				"type": "occ",
				"energy": -0.27701,
				"method": "rhf"
			},
			{
				"type": "occ",
				"energy": -0.27307,
				"method": "rhf"
			},
			{
				"type": "occ",
				"energy": -0.26956,
				"method": "rhf"
			},
			{
				"type": "unocc",
				"energy": -0.03047,
				"method": "rhf"
			},
			{
				"type": "unocc",
				"energy": -0.0228,
				"method": "rhf"
			},
			{
				"type": "unocc",
				"energy": -0.01246,
				"method": "rhf"
			},
			{
				"type": "unocc",
				"energy": 0.05102,
				"method": "rhf"
			},
			{
				"type": "unocc",
				"energy": 0.08698,
				"method": "rhf"
			}
		],
		"cosmo_sigma_profile": { 
			"-0.025": 0.0,
			"-0.024": 0.0,
			"-0.023": 0.0,
			"-0.022": 0.0,
			"-0.021": 0.0,
			"-0.02": 0.0556893247545,
			"-0.019": 0.956728833225,
			"-0.018": 0.964901730707,
			"-0.017": 0.687500267554,
			"-0.016": 1.05544276909,
			"-0.015": 0.705158334598,
			"-0.014": 0.417169549067,
			"-0.013": 0.714648593602,
			"-0.012": 0.891775366625,
			"-0.011": 3.54658452048,
			"-0.01": 6.74612079966,
			"-0.009": 5.95676682455,
			"-0.008": 5.93033789242,
			"-0.007": 7.17939794606,
			"-0.006": 10.3978186902,
			"-0.005": 11.7968157619,
			"-0.004": 14.7452035819,
			"-0.003": 15.4250706625,
			"-0.002": 12.3814660367,
			"-0.001": 13.0003518001,
			"0.0": 9.11824243467,
			"0.001": 7.74947450952,
			"0.002": 7.36748830958,
			"0.003": 5.15332118506,
			"0.004": 7.17596930867,
			"0.005": 7.80610875042,
			"0.006": 6.42267004912,
			"0.007": 5.86433543404,
			"0.008": 6.35381091241,
			"0.009": 7.75269137699,
			"0.01": 8.64069149524,
			"0.011": 8.55953746789,
			"0.012": 5.66151280411,
			"0.013": 2.9064942186,
			"0.014": 1.70591415224,
			"0.015": 0.411334589793,
			"0.016": 0.0,
			"0.017": 0.0,
			"0.018": 0.0,
			"0.019": 0.0,
			"0.02": 0.0,
			"0.021": 0.0,
			"0.022": 0.0,
			"0.023": 0.0,
			"0.024": 0.0,
			"0.025": 0.0
		}
	}
}
