{
	 "smiles": "OCC1=C(Br)C=C(F)C=C1", 
	 "Tm": 343.15, 
	 "num_atms": 16, 
	 "gaussian": { 
		 "optdone": 1, 
		 "sigma_profile": "yes", 
		 "theory": "DFT", 
		 "functional": "B3LYP", 
		 "basiset": "6-31G**", 
		 "properties": { 
			 "R2extent": 3183.2194, 
			 "electric_dipole_moment_norm": 1.15951971954, 
			 "electric_quadrupole_moment_norm": 7.36338095375, 
			 "total_energy": -3016.81055013, 
			 "HOMO_LUMO_gap": 0.22278, 
			 "cosmo_polarized_energy": -6.77, 
			 "cosmo_cavitation_energy": 22.49, 
			 "cosmo_dispersion_energy": -17.0, 
			 "cosmo_repulsion_energy": 1.35, 
			 "cosmo_total_nonelectrostatic_energy": 6.84, 
			 "SMD_solvation_energy": 3.29 
		},
		"coords": [
			{
				"x": 0.105971536,
				"y": 2.6528471849,
				"z": 1.4899793608,
				"element": "O" 
			},
			{
				"x": 0.4560156876,
				"y": 1.3760742617,
				"z": 0.9765448785,
				"element": "C" 
			},
			{
				"x": -0.7360705441,
				"y": 0.4674875982,
				"z": 0.7377602602,
				"element": "C" 
			},
			{
				"x": -1.6476377943,
				"y": 0.6701070796,
				"z": -0.3067888704,
				"element": "C" 
			},
			{
				"x": -1.4135057893,
				"y": 2.150925301,
				"z": -1.5113176232,
				"element": "Br" 
			},
			{
				"x": -2.7434594298,
				"y": -0.1601254247,
				"z": -0.5233976029,
				"element": "C" 
			},
			{
				"x": -2.927963522,
				"y": -1.2326188356,
				"z": 0.3424062963,
				"element": "C" 
			},
			{
				"x": -3.9827886131,
				"y": -2.0456136435,
				"z": 0.144675597,
				"element": "F" 
			},
			{
				"x": -2.0605762468,
				"y": -1.4839465444,
				"z": 1.3975589399,
				"element": "C" 
			},
			{
				"x": -0.9769197658,
				"y": -0.6265849946,
				"z": 1.580464311,
				"element": "C" 
			},
			{
				"x": -0.3480035752,
				"y": 3.1313753053,
				"z": 0.7821828495,
				"element": "H" 
			},
			{
				"x": 1.0385335272,
				"y": 1.4653226904,
				"z": 0.047846541,
				"element": "H" 
			},
			{
				"x": 1.1056089893,
				"y": 0.9172924005,
				"z": 1.7271133825,
				"element": "H" 
			},
			{
				"x": -3.4389696539,
				"y": 0.0109842491,
				"z": -1.3354678399,
				"element": "H" 
			},
			{
				"x": -2.2390104202,
				"y": -2.3287383353,
				"z": 2.0532365564,
				"element": "H" 
			},
			{
				"x": -0.2919243854,
				"y": -0.8072882927,
				"z": 2.4041029634,
				"element": "H" 
			}
		],
		 "valence_orbital": [ 
			{
				"type": "occ",
				"energy": -0.32272,
				"method": "rhf"
			},
			{
				"type": "occ",
				"energy": -0.30488,
				"method": "rhf"
			},
			{
				"type": "occ",
				"energy": -0.2733,
				"method": "rhf"
			},
			{
				"type": "occ",
				"energy": -0.26581,
				"method": "rhf"
			},
			{
				"type": "occ",
				"energy": -0.25196,
				"method": "rhf"
			},
			{
				"type": "unocc",
				"energy": -0.02918,
				"method": "rhf"
			},
			{
				"type": "unocc",
				"energy": -0.01896,
				"method": "rhf"
			},
			{
				"type": "unocc",
				"energy": -0.00961,
				"method": "rhf"
			},
			{
				"type": "unocc",
				"energy": 0.09264,
				"method": "rhf"
			},
			{
				"type": "unocc",
				"energy": 0.09762,
				"method": "rhf"
			}
		],
		"cosmo_sigma_profile": { 
			"-0.025": 0.0,
			"-0.024": 0.0,
			"-0.023": 0.0,
			"-0.022": 0.0,
			"-0.021": 0.0,
			"-0.02": 0.0,
			"-0.019": 0.0,
			"-0.018": 0.0,
			"-0.017": 0.0,
			"-0.016": 0.0,
			"-0.015": 0.0,
			"-0.014": 0.0,
			"-0.013": 0.0,
			"-0.012": 0.22438426855,
			"-0.011": 0.579633501273,
			"-0.01": 0.542889781962,
			"-0.009": 1.10906958805,
			"-0.008": 3.7441926062,
			"-0.007": 7.31364812166,
			"-0.006": 8.56552929041,
			"-0.005": 10.2285780358,
			"-0.004": 10.9421428773,
			"-0.003": 11.7129253363,
			"-0.002": 12.2983763184,
			"-0.001": 12.8910338389,
			"0.0": 16.2707904766,
			"0.001": 19.6958678102,
			"0.002": 18.6288522507,
			"0.003": 16.6899455755,
			"0.004": 16.2938630675,
			"0.005": 1.62181741449,
			"0.006": 1.45891042111,
			"0.007": 1.12714493068,
			"0.008": 1.19097198463,
			"0.009": 0.999028065567,
			"0.01": 1.50619823253,
			"0.011": 1.68520749464,
			"0.012": 1.32426725943,
			"0.013": 1.73636143019,
			"0.014": 2.3500279069,
			"0.015": 0.0542571486404,
			"0.016": 0.0,
			"0.017": 0.0,
			"0.018": 0.0,
			"0.019": 0.0,
			"0.02": 0.0,
			"0.021": 0.0,
			"0.022": 0.0,
			"0.023": 0.0,
			"0.024": 0.0,
			"0.025": 0.0
		}
	}
}
