{
	 "smiles": "CN(C)C1=CC=C(C=C1)C(N)=N/O", 
	 "Tm": 443.15, 
	 "num_atms": 26, 
	 "gaussian": { 
		 "optdone": 1, 
		 "sigma_profile": "yes", 
		 "theory": "DFT", 
		 "functional": "B3LYP", 
		 "basiset": "6-31G**", 
		 "properties": { 
			 "R2extent": 3284.9457, 
			 "electric_dipole_moment_norm": 3.40651755463, 
			 "electric_quadrupole_moment_norm": 10.3224841879, 
			 "total_energy": -590.20421178, 
			 "HOMO_LUMO_gap": 0.18009, 
			 "cosmo_polarized_energy": -15.41, 
			 "cosmo_cavitation_energy": 28.85, 
			 "cosmo_dispersion_energy": -21.4, 
			 "cosmo_repulsion_energy": 1.71, 
			 "cosmo_total_nonelectrostatic_energy": 9.16, 
			 "SMD_solvation_energy": 4.47 
		},
		"coords": [
			{
				"x": -3.1185057698,
				"y": -1.3898389911,
				"z": 0.848663726,
				"element": "C" 
			},
			{
				"x": -2.5570710116,
				"y": -0.2793334948,
				"z": 0.0994041555,
				"element": "N" 
			},
			{
				"x": -3.380294922,
				"y": 0.8980848044,
				"z": -0.118043604,
				"element": "C" 
			},
			{
				"x": -1.1828440142,
				"y": -0.1939259014,
				"z": -0.0685435402,
				"element": "C" 
			},
			{
				"x": -0.327372816,
				"y": -1.2562483808,
				"z": 0.3029321714,
				"element": "C" 
			},
			{
				"x": 1.0460694387,
				"y": -1.1656133013,
				"z": 0.1100898417,
				"element": "C" 
			},
			{
				"x": 1.643636438,
				"y": -0.0296786734,
				"z": -0.4559144578,
				"element": "C" 
			},
			{
				"x": 0.7950645939,
				"y": 1.0250603404,
				"z": -0.8261735456,
				"element": "C" 
			},
			{
				"x": -0.5773904432,
				"y": 0.9551696055,
				"z": -0.6300530966,
				"element": "C" 
			},
			{
				"x": 3.1178315437,
				"y": 0.0479743301,
				"z": -0.6224685914,
				"element": "C" 
			},
			{
				"x": 3.8852336686,
				"y": -0.3709399658,
				"z": 0.4656988204,
				"element": "N" 
			},
			{
				"x": 3.7814525126,
				"y": 0.5013842634,
				"z": -1.6341345599,
				"element": "N" 
			},
			{
				"x": 2.9328185354,
				"y": 0.95384017,
				"z": -2.6819944661,
				"element": "O" 
			},
			{
				"x": -4.2058006337,
				"y": -1.3003510861,
				"z": 0.8608523106,
				"element": "H" 
			},
			{
				"x": -2.7655772348,
				"y": -1.4248829708,
				"z": 1.89123393,
				"element": "H" 
			},
			{
				"x": -2.8731184349,
				"y": -2.3490462929,
				"z": 0.3777768757,
				"element": "H" 
			},
			{
				"x": -3.2808275238,
				"y": 1.2651427211,
				"z": -1.1460304293,
				"element": "H" 
			},
			{
				"x": -4.4279899008,
				"y": 0.6351118755,
				"z": 0.0357377991,
				"element": "H" 
			},
			{
				"x": -3.1309114396,
				"y": 1.7267579365,
				"z": 0.5627655006,
				"element": "H" 
			},
			{
				"x": -0.7313624419,
				"y": -2.1609731902,
				"z": 0.7398910572,
				"element": "H" 
			},
			{
				"x": 1.6587637333,
				"y": -2.0197136241,
				"z": 0.3895022247,
				"element": "H" 
			},
			{
				"x": 1.2226204951,
				"y": 1.9137338523,
				"z": -1.2734134113,
				"element": "H" 
			},
			{
				"x": -1.1824263476,
				"y": 1.8055206808,
				"z": -0.9192488277,
				"element": "H" 
			},
			{
				"x": 4.8429719263,
				"y": -0.5955375244,
				"z": 0.2299855574,
				"element": "H" 
			},
			{
				"x": 3.4462014522,
				"y": -1.0342906451,
				"z": 1.0850392814,
				"element": "H" 
			},
			{
				"x": 3.5851285961,
				"y": 1.2151934624,
				"z": -3.3434547219,
				"element": "H" 
			}
		],
		 "valence_orbital": [ 
			{
				"type": "occ",
				"energy": -0.28028,
				"method": "rhf"
			},
			{
				"type": "occ",
				"energy": -0.25028,
				"method": "rhf"
			},
			{
				"type": "occ",
				"energy": -0.24226,
				"method": "rhf"
			},
			{
				"type": "occ",
				"energy": -0.20026,
				"method": "rhf"
			},
			{
				"type": "occ",
				"energy": -0.18127,
				"method": "rhf"
			},
			{
				"type": "unocc",
				"energy": -0.00118,
				"method": "rhf"
			},
			{
				"type": "unocc",
				"energy": 0.00636,
				"method": "rhf"
			},
			{
				"type": "unocc",
				"energy": 0.07229,
				"method": "rhf"
			},
			{
				"type": "unocc",
				"energy": 0.08313,
				"method": "rhf"
			},
			{
				"type": "unocc",
				"energy": 0.08552,
				"method": "rhf"
			}
		],
		"cosmo_sigma_profile": { 
			"-0.025": 0.0,
			"-0.024": 0.0,
			"-0.023": 0.0,
			"-0.022": 0.0,
			"-0.021": 0.0,
			"-0.02": 0.0,
			"-0.019": 0.0,
			"-0.018": 0.0,
			"-0.017": 0.0,
			"-0.016": 0.493514201462,
			"-0.015": 1.02244331928,
			"-0.014": 1.0554229023,
			"-0.013": 1.07108133202,
			"-0.012": 2.16296794065,
			"-0.011": 2.84521422956,
			"-0.01": 3.41636201981,
			"-0.009": 3.75155119377,
			"-0.008": 2.98352640783,
			"-0.007": 3.89791968796,
			"-0.006": 8.50190051775,
			"-0.005": 12.8905702378,
			"-0.004": 17.8887227432,
			"-0.003": 23.0676075714,
			"-0.002": 21.6098560201,
			"-0.001": 17.4183745478,
			"0.0": 10.4834189794,
			"0.001": 9.61912985983,
			"0.002": 6.86081758582,
			"0.003": 9.73406303025,
			"0.004": 9.0951153291,
			"0.005": 12.3621195336,
			"0.006": 12.8864112169,
			"0.007": 7.49235553014,
			"0.008": 4.88391260173,
			"0.009": 4.47078770059,
			"0.01": 3.92920188856,
			"0.011": 3.67242480391,
			"0.012": 3.59567546118,
			"0.013": 2.30183758393,
			"0.014": 1.36281950636,
			"0.015": 0.552013483917,
			"0.016": 0.0,
			"0.017": 0.0,
			"0.018": 0.0,
			"0.019": 0.0,
			"0.02": 0.0,
			"0.021": 0.0,
			"0.022": 0.0,
			"0.023": 0.0,
			"0.024": 0.0,
			"0.025": 0.0
		}
	}
}
