{
	 "smiles": "OCC1=CN=C(C=C1)C1=CC=CS1", 
	 "Tm": 397.15, 
	 "num_atms": 22, 
	 "gaussian": { 
		 "optdone": 1, 
		 "sigma_profile": "yes", 
		 "theory": "DFT", 
		 "functional": "B3LYP", 
		 "basiset": "6-31G**", 
		 "properties": { 
			 "R2extent": 4018.6553, 
			 "electric_dipole_moment_norm": 2.16918271015, 
			 "electric_quadrupole_moment_norm": 17.808527112, 
			 "total_energy": -914.62519756, 
			 "HOMO_LUMO_gap": 0.16583, 
			 "cosmo_polarized_energy": -11.23, 
			 "cosmo_cavitation_energy": 27.7, 
			 "cosmo_dispersion_energy": -21.3, 
			 "cosmo_repulsion_energy": 1.63, 
			 "cosmo_total_nonelectrostatic_energy": 8.04, 
			 "SMD_solvation_energy": 3.67 
		},
		"coords": [
			{
				"x": -3.6574329622,
				"y": -0.6930560887,
				"z": -0.4534597727,
				"element": "O" 
			},
			{
				"x": -2.6113971339,
				"y": -1.646757983,
				"z": -0.3330733275,
				"element": "C" 
			},
			{
				"x": -1.2831749477,
				"y": -0.9310394024,
				"z": -0.3336662358,
				"element": "C" 
			},
			{
				"x": -0.109879078,
				"y": -1.5888939022,
				"z": -0.7213404652,
				"element": "C" 
			},
			{
				"x": 1.1038303132,
				"y": -1.0408221342,
				"z": -0.7066496864,
				"element": "N" 
			},
			{
				"x": 1.2214753845,
				"y": 0.2407406407,
				"z": -0.3020184319,
				"element": "C" 
			},
			{
				"x": 0.1003923624,
				"y": 0.9910426922,
				"z": 0.0917022675,
				"element": "C" 
			},
			{
				"x": -1.1568632482,
				"y": 0.3980201014,
				"z": 0.0773410804,
				"element": "C" 
			},
			{
				"x": 2.5831075294,
				"y": 0.7891384161,
				"z": -0.3083895579,
				"element": "C" 
			},
			{
				"x": 3.7348947669,
				"y": 0.1370593786,
				"z": -0.6857349573,
				"element": "C" 
			},
			{
				"x": 4.9031749532,
				"y": 0.9422722071,
				"z": -0.5783038806,
				"element": "C" 
			},
			{
				"x": 4.6379859914,
				"y": 2.2046060249,
				"z": -0.1195016631,
				"element": "C" 
			},
			{
				"x": 2.9476268189,
				"y": 2.4294497636,
				"z": 0.1897569403,
				"element": "S" 
			},
			{
				"x": -4.495266001,
				"y": -1.1477448192,
				"z": -0.3054609338,
				"element": "H" 
			},
			{
				"x": -2.7133637213,
				"y": -2.2222697762,
				"z": 0.6030302487,
				"element": "H" 
			},
			{
				"x": -2.6320640978,
				"y": -2.3777170548,
				"z": -1.1575559857,
				"element": "H" 
			},
			{
				"x": -0.1571031898,
				"y": -2.6223834347,
				"z": -1.0675326502,
				"element": "H" 
			},
			{
				"x": 0.2101952855,
				"y": 2.0252724827,
				"z": 0.4033091695,
				"element": "H" 
			},
			{
				"x": -2.0409960186,
				"y": 0.95481967,
				"z": 0.3680652897,
				"element": "H" 
			},
			{
				"x": 3.7161936844,
				"y": -0.890071548,
				"z": -1.0268983717,
				"element": "H" 
			},
			{
				"x": 5.8996522368,
				"y": 0.5983336905,
				"z": -0.8315725368,
				"element": "H" 
			},
			{
				"x": 5.3296110718,
				"y": 3.0169010759,
				"z": 0.0561534605,
				"element": "H" 
			}
		],
		 "valence_orbital": [ 
			{
				"type": "occ",
				"energy": -0.27897,
				"method": "rhf"
			},
			{
				"type": "occ",
				"energy": -0.26933,
				"method": "rhf"
			},
			{
				"type": "occ",
				"energy": -0.25301,
				"method": "rhf"
			},
			{
				"type": "occ",
				"energy": -0.24762,
				"method": "rhf"
			},
			{
				"type": "occ",
				"energy": -0.20964,
				"method": "rhf"
			},
			{
				"type": "unocc",
				"energy": -0.04381,
				"method": "rhf"
			},
			{
				"type": "unocc",
				"energy": -0.01677,
				"method": "rhf"
			},
			{
				"type": "unocc",
				"energy": 0.02566,
				"method": "rhf"
			},
			{
				"type": "unocc",
				"energy": 0.03369,
				"method": "rhf"
			},
			{
				"type": "unocc",
				"energy": 0.06658,
				"method": "rhf"
			}
		],
		"cosmo_sigma_profile": { 
			"-0.025": 0.0,
			"-0.024": 0.0,
			"-0.023": 0.0,
			"-0.022": 0.0,
			"-0.021": 0.0,
			"-0.02": 0.0,
			"-0.019": 0.0,
			"-0.018": 0.0,
			"-0.017": 0.0916464492862,
			"-0.016": 0.829365912915,
			"-0.015": 1.30609348235,
			"-0.014": 0.848386132998,
			"-0.013": 0.797817716784,
			"-0.012": 1.08769370462,
			"-0.011": 0.824242884862,
			"-0.01": 0.709633722927,
			"-0.009": 1.61307885682,
			"-0.008": 2.98648810778,
			"-0.007": 5.46904261882,
			"-0.006": 11.7053656641,
			"-0.005": 18.5530470262,
			"-0.004": 16.7302774912,
			"-0.003": 13.2598758393,
			"-0.002": 11.2585415148,
			"-0.001": 11.6832449158,
			"0.0": 11.6219142312,
			"0.001": 14.2777869699,
			"0.002": 22.2070984485,
			"0.003": 20.4411959451,
			"0.004": 19.6315904651,
			"0.005": 13.3368654811,
			"0.006": 4.49104198355,
			"0.007": 2.64271003391,
			"0.008": 4.06874266946,
			"0.009": 2.64392637175,
			"0.01": 2.96982720533,
			"0.011": 1.85225262802,
			"0.012": 2.0725570539,
			"0.013": 1.43564991861,
			"0.014": 0.334874478773,
			"0.015": 0.0,
			"0.016": 0.0,
			"0.017": 0.0,
			"0.018": 0.0,
			"0.019": 0.0,
			"0.02": 0.0,
			"0.021": 0.0,
			"0.022": 0.0,
			"0.023": 0.0,
			"0.024": 0.0,
			"0.025": 0.0
		}
	}
}
