{
	 "smiles": "CC(C)OC1=CC=C(NC(C)=O)C=C1", 
	 "Tm": 403.0, 
	 "num_atms": 29, 
	 "gaussian": { 
		 "optdone": 1, 
		 "sigma_profile": "yes", 
		 "theory": "DFT", 
		 "functional": "B3LYP", 
		 "basiset": "6-31G**", 
		 "properties": { 
			 "R2extent": 4670.177, 
			 "electric_dipole_moment_norm": 2.15619523467, 
			 "electric_quadrupole_moment_norm": 26.9323075398, 
			 "total_energy": -633.434378899, 
			 "HOMO_LUMO_gap": 0.19577, 
			 "cosmo_polarized_energy": -13.92, 
			 "cosmo_cavitation_energy": 32.04, 
			 "cosmo_dispersion_energy": -23.37, 
			 "cosmo_repulsion_energy": 1.86, 
			 "cosmo_total_nonelectrostatic_energy": 10.54, 
			 "SMD_solvation_energy": 6.61 
		},
		"coords": [
			{
				"x": 3.1063779945,
				"y": 0.9049586106,
				"z": 1.2526131281,
				"element": "C" 
			},
			{
				"x": 2.7570136248,
				"y": 0.6712045513,
				"z": -0.2179912994,
				"element": "C" 
			},
			{
				"x": 3.7714623072,
				"y": 1.2998096671,
				"z": -1.1671684262,
				"element": "C" 
			},
			{
				"x": 1.4945423837,
				"y": 1.2786263179,
				"z": -0.5428333591,
				"element": "O" 
			},
			{
				"x": 0.3212443011,
				"y": 0.6684238494,
				"z": -0.1968263391,
				"element": "C" 
			},
			{
				"x": 0.1978938455,
				"y": -0.5828730353,
				"z": 0.4177988648,
				"element": "C" 
			},
			{
				"x": -1.06027274,
				"y": -1.1195760188,
				"z": 0.7052056106,
				"element": "C" 
			},
			{
				"x": -2.2209322161,
				"y": -0.4073701696,
				"z": 0.3826601881,
				"element": "C" 
			},
			{
				"x": -3.5289841934,
				"y": -0.8801493192,
				"z": 0.6421204773,
				"element": "N" 
			},
			{
				"x": -3.9181940863,
				"y": -2.0628694551,
				"z": 1.2257081409,
				"element": "C" 
			},
			{
				"x": -5.4263265863,
				"y": -2.2415469631,
				"z": 1.3461397942,
				"element": "C" 
			},
			{
				"x": -3.1422604959,
				"y": -2.9211461375,
				"z": 1.625786703,
				"element": "O" 
			},
			{
				"x": -2.0934570636,
				"y": 0.8497490023,
				"z": -0.2315114293,
				"element": "C" 
			},
			{
				"x": -0.844356328,
				"y": 1.3809876904,
				"z": -0.5163800278,
				"element": "C" 
			},
			{
				"x": 2.3436424581,
				"y": 0.4920196688,
				"z": 1.9177303567,
				"element": "H" 
			},
			{
				"x": 4.0641975145,
				"y": 0.4342874117,
				"z": 1.4975461641,
				"element": "H" 
			},
			{
				"x": 3.1877448823,
				"y": 1.9783100097,
				"z": 1.451448892,
				"element": "H" 
			},
			{
				"x": 2.6989688304,
				"y": -0.4061470893,
				"z": -0.4247252677,
				"element": "H" 
			},
			{
				"x": 3.8196614279,
				"y": 2.3818790033,
				"z": -1.0095704306,
				"element": "H" 
			},
			{
				"x": 3.4902709025,
				"y": 1.1160714878,
				"z": -2.2075489082,
				"element": "H" 
			},
			{
				"x": 4.7670741547,
				"y": 0.8797404851,
				"z": -0.9946069769,
				"element": "H" 
			},
			{
				"x": 1.0732950372,
				"y": -1.1622503269,
				"z": 0.6855474702,
				"element": "H" 
			},
			{
				"x": -1.1487036925,
				"y": -2.0863352024,
				"z": 1.1801163931,
				"element": "H" 
			},
			{
				"x": -4.2696213224,
				"y": -0.2573510416,
				"z": 0.355948682,
				"element": "H" 
			},
			{
				"x": -6.0134207553,
				"y": -1.4067898767,
				"z": 0.9526404887,
				"element": "H" 
			},
			{
				"x": -5.6773339026,
				"y": -2.3844699837,
				"z": 2.4007489062,
				"element": "H" 
			},
			{
				"x": -5.7122859171,
				"y": -3.1551998981,
				"z": 0.8178554306,
				"element": "H" 
			},
			{
				"x": -2.9844484243,
				"y": 1.4186615903,
				"z": -0.4898252372,
				"element": "H" 
			},
			{
				"x": -0.7458919408,
				"y": 2.3506451716,
				"z": -0.9930279891,
				"element": "H" 
			}
		],
		 "valence_orbital": [ 
			{
				"type": "occ",
				"energy": -0.31408,
				"method": "rhf"
			},
			{
				"type": "occ",
				"energy": -0.27575,
				"method": "rhf"
			},
			{
				"type": "occ",
				"energy": -0.24823,
				"method": "rhf"
			},
			{
				"type": "occ",
				"energy": -0.24675,
				"method": "rhf"
			},
			{
				"type": "occ",
				"energy": -0.19599,
				"method": "rhf"
			},
			{
				"type": "unocc",
				"energy": -0.00022,
				"method": "rhf"
			},
			{
				"type": "unocc",
				"energy": 0.00128,
				"method": "rhf"
			},
			{
				"type": "unocc",
				"energy": 0.05645,
				"method": "rhf"
			},
			{
				"type": "unocc",
				"energy": 0.06658,
				"method": "rhf"
			},
			{
				"type": "unocc",
				"energy": 0.09251,
				"method": "rhf"
			}
		],
		"cosmo_sigma_profile": { 
			"-0.025": 0.0,
			"-0.024": 0.0,
			"-0.023": 0.0,
			"-0.022": 0.0,
			"-0.021": 0.0,
			"-0.02": 0.0,
			"-0.019": 0.0,
			"-0.018": 0.0,
			"-0.017": 0.0,
			"-0.016": 0.0,
			"-0.015": 0.572144580047,
			"-0.014": 1.73451589093,
			"-0.013": 1.20274830183,
			"-0.012": 1.74655927047,
			"-0.011": 1.62923860299,
			"-0.01": 1.50670671892,
			"-0.009": 1.48119768449,
			"-0.008": 1.24825816758,
			"-0.007": 2.96660718684,
			"-0.006": 8.52756299074,
			"-0.005": 12.2248787341,
			"-0.004": 19.4406294518,
			"-0.003": 27.9888783078,
			"-0.002": 26.2895355012,
			"-0.001": 22.9622028895,
			"0.0": 22.097307715,
			"0.001": 16.5130039316,
			"0.002": 10.3184508015,
			"0.003": 11.8476268634,
			"0.004": 14.6893861716,
			"0.005": 15.2899670047,
			"0.006": 7.70739889755,
			"0.007": 3.68150320024,
			"0.008": 2.19111270347,
			"0.009": 3.0267891792,
			"0.01": 2.88663249801,
			"0.011": 2.3794449535,
			"0.012": 2.47363866693,
			"0.013": 2.88471301363,
			"0.014": 2.61511291964,
			"0.015": 0.630919697755,
			"0.016": 0.0,
			"0.017": 0.0,
			"0.018": 0.0,
			"0.019": 0.0,
			"0.02": 0.0,
			"0.021": 0.0,
			"0.022": 0.0,
			"0.023": 0.0,
			"0.024": 0.0,
			"0.025": 0.0
		}
	}
}
