{
	 "smiles": "FC(F)(F)C1=C(Cl)C=CC(=C1)S(=O)(=O)N1CCNCC1", 
	 "Tm": 567.15, 
	 "num_atms": 32, 
	 "gaussian": { 
		 "optdone": 1, 
		 "sigma_profile": "yes", 
		 "theory": "DFT", 
		 "functional": "B3LYP", 
		 "basiset": "6-31G**", 
		 "properties": { 
			 "R2extent": 8248.6327, 
			 "electric_dipole_moment_norm": 3.81944021422, 
			 "electric_quadrupole_moment_norm": 16.9132244883, 
			 "total_energy": -1844.16348594, 
			 "HOMO_LUMO_gap": 0.16697, 
			 "cosmo_polarized_energy": -14.53, 
			 "cosmo_cavitation_energy": 38.86, 
			 "cosmo_dispersion_energy": -27.61, 
			 "cosmo_repulsion_energy": 2.03, 
			 "cosmo_total_nonelectrostatic_energy": 13.29, 
			 "SMD_solvation_energy": 3.17 
		},
		"coords": [
			{
				"x": -2.3638396811,
				"y": 1.7241989269,
				"z": -4.1718819588,
				"element": "F" 
			},
			{
				"x": -2.0297730487,
				"y": 0.6465677958,
				"z": -3.4365578193,
				"element": "C" 
			},
			{
				"x": -2.9521256545,
				"y": 0.5283178689,
				"z": -2.457240869,
				"element": "F" 
			},
			{
				"x": -2.1474796756,
				"y": -0.4394305833,
				"z": -4.2268225449,
				"element": "F" 
			},
			{
				"x": -0.6350022657,
				"y": 0.7687783601,
				"z": -2.8606230499,
				"element": "C" 
			},
			{
				"x": 0.5041274989,
				"y": 0.9048746944,
				"z": -3.6757232851,
				"element": "C" 
			},
			{
				"x": 0.3810153893,
				"y": 0.9365256956,
				"z": -5.4191713235,
				"element": "Cl" 
			},
			{
				"x": 1.7739584492,
				"y": 1.024603119,
				"z": -3.1122962111,
				"element": "C" 
			},
			{
				"x": 1.9283119745,
				"y": 1.0034863311,
				"z": -1.7266144232,
				"element": "C" 
			},
			{
				"x": 0.803211264,
				"y": 0.8571141464,
				"z": -0.9193208378,
				"element": "C" 
			},
			{
				"x": -0.4704354918,
				"y": 0.7482059328,
				"z": -1.4760697288,
				"element": "C" 
			},
			{
				"x": 0.9825974382,
				"y": 0.834651132,
				"z": 0.8711927811,
				"element": "S" 
			},
			{
				"x": 2.373281667,
				"y": 1.2145104035,
				"z": 1.149519178,
				"element": "O" 
			},
			{
				"x": -0.1416758895,
				"y": 1.5815269175,
				"z": 1.4433930269,
				"element": "O" 
			},
			{
				"x": 0.7348545446,
				"y": -0.7881585579,
				"z": 1.2361237187,
				"element": "N" 
			},
			{
				"x": -0.2072788474,
				"y": -1.1409087133,
				"z": 2.3266023459,
				"element": "C" 
			},
			{
				"x": 0.5313506729,
				"y": -1.9239741458,
				"z": 3.4171743125,
				"element": "C" 
			},
			{
				"x": 1.192047756,
				"y": -3.1401437825,
				"z": 2.9154391542,
				"element": "N" 
			},
			{
				"x": 1.5332444581,
				"y": -3.0873269276,
				"z": 1.4874509531,
				"element": "C" 
			},
			{
				"x": 1.9178365925,
				"y": -1.6657771629,
				"z": 1.0866356589,
				"element": "C" 
			},
			{
				"x": 2.6346210934,
				"y": 1.1388345528,
				"z": -3.7613176527,
				"element": "H" 
			},
			{
				"x": 2.9066127613,
				"y": 1.1136387058,
				"z": -1.2721810191,
				"element": "H" 
			},
			{
				"x": -1.3389260396,
				"y": 0.6598005946,
				"z": -0.8353691432,
				"element": "H" 
			},
			{
				"x": -0.6456197157,
				"y": -0.2252383598,
				"z": 2.7258428584,
				"element": "H" 
			},
			{
				"x": -1.0215505039,
				"y": -1.7460225127,
				"z": 1.9071377796,
				"element": "H" 
			},
			{
				"x": 1.2778272011,
				"y": -1.2619373095,
				"z": 3.8759359638,
				"element": "H" 
			},
			{
				"x": -0.1719787231,
				"y": -2.1989963013,
				"z": 4.2098004876,
				"element": "H" 
			},
			{
				"x": 0.611492351,
				"y": -3.9519167178,
				"z": 3.0942074179,
				"element": "H" 
			},
			{
				"x": 0.7128578413,
				"y": -3.4196819441,
				"z": 0.8288823978,
				"element": "H" 
			},
			{
				"x": 2.3880885563,
				"y": -3.7459852511,
				"z": 1.2917448108,
				"element": "H" 
			},
			{
				"x": 2.7551911001,
				"y": -1.3150469839,
				"z": 1.7015504571,
				"element": "H" 
			},
			{
				"x": 2.2395569271,
				"y": -1.6535899234,
				"z": 0.0399565642,
				"element": "H" 
			}
		],
		 "valence_orbital": [ 
			{
				"type": "occ",
				"energy": -0.3095,
				"method": "rhf"
			},
			{
				"type": "occ",
				"energy": -0.29685,
				"method": "rhf"
			},
			{
				"type": "occ",
				"energy": -0.28204,
				"method": "rhf"
			},
			{
				"type": "occ",
				"energy": -0.25389,
				"method": "rhf"
			},
			{
				"type": "occ",
				"energy": -0.22839,
				"method": "rhf"
			},
			{
				"type": "unocc",
				"energy": -0.06142,
				"method": "rhf"
			},
			{
				"type": "unocc",
				"energy": -0.04966,
				"method": "rhf"
			},
			{
				"type": "unocc",
				"energy": 0.00958,
				"method": "rhf"
			},
			{
				"type": "unocc",
				"energy": 0.05397,
				"method": "rhf"
			},
			{
				"type": "unocc",
				"energy": 0.05897,
				"method": "rhf"
			}
		],
		"cosmo_sigma_profile": { 
			"-0.025": 0.0,
			"-0.024": 0.0,
			"-0.023": 0.0,
			"-0.022": 0.0,
			"-0.021": 0.0,
			"-0.02": 0.0,
			"-0.019": 0.0,
			"-0.018": 0.0,
			"-0.017": 0.0,
			"-0.016": 0.0,
			"-0.015": 0.0,
			"-0.014": 0.0,
			"-0.013": 0.0,
			"-0.012": 0.0,
			"-0.011": 0.330850555747,
			"-0.01": 1.4450678074,
			"-0.009": 3.18528570017,
			"-0.008": 5.6625767843,
			"-0.007": 5.16959998041,
			"-0.006": 7.46402626814,
			"-0.005": 18.4530360807,
			"-0.004": 31.4406510161,
			"-0.003": 30.41276764,
			"-0.002": 26.5235572277,
			"-0.001": 31.7580394339,
			"0.0": 21.2228556846,
			"0.001": 18.342432268,
			"0.002": 33.6384351061,
			"0.003": 27.7397429152,
			"0.004": 8.43779856891,
			"0.005": 3.69057149052,
			"0.006": 3.78300991549,
			"0.007": 3.64646431978,
			"0.008": 3.42016947024,
			"0.009": 5.02289983757,
			"0.01": 8.06927484312,
			"0.011": 6.51567284144,
			"0.012": 2.21845060377,
			"0.013": 0.595219981296,
			"0.014": 0.709760032312,
			"0.015": 0.587366763614,
			"0.016": 0.504955927529,
			"0.017": 0.308656008938,
			"0.018": 0.392334361062,
			"0.019": 0.0,
			"0.02": 0.0,
			"0.021": 0.0,
			"0.022": 0.0,
			"0.023": 0.0,
			"0.024": 0.0,
			"0.025": 0.0
		}
	}
}
