{
	 "smiles": "CN1C=C(C=CC(O)=O)C2=C1C=CC=C2", 
	 "Tm": 413.15, 
	 "num_atms": 26, 
	 "gaussian": { 
		 "optdone": 1, 
		 "sigma_profile": "yes", 
		 "theory": "DFT", 
		 "functional": "B3LYP", 
		 "basiset": "6-31G**", 
		 "properties": { 
			 "R2extent": 5871.3594, 
			 "electric_dipole_moment_norm": 4.80412872746, 
			 "electric_quadrupole_moment_norm": 27.2696892822, 
			 "total_energy": -669.114988164, 
			 "HOMO_LUMO_gap": 0.15037, 
			 "cosmo_polarized_energy": -15.15, 
			 "cosmo_cavitation_energy": 30.95, 
			 "cosmo_dispersion_energy": -22.27, 
			 "cosmo_repulsion_energy": 1.73, 
			 "cosmo_total_nonelectrostatic_energy": 10.4, 
			 "SMD_solvation_energy": 6.64 
		},
		"coords": [
			{
				"x": -2.9913199349,
				"y": 2.4129899691,
				"z": -1.7664219504,
				"element": "C" 
			},
			{
				"x": -2.3059234947,
				"y": 1.6974153437,
				"z": -0.7077253876,
				"element": "N" 
			},
			{
				"x": -2.8628663107,
				"y": 1.2737532843,
				"z": 0.4710907897,
				"element": "C" 
			},
			{
				"x": -1.9206070609,
				"y": 0.6230046472,
				"z": 1.2520713035,
				"element": "C" 
			},
			{
				"x": -2.0981151751,
				"y": 0.0304451703,
				"z": 2.5563920709,
				"element": "C" 
			},
			{
				"x": -3.2345993619,
				"y": -0.0097852685,
				"z": 3.2878530788,
				"element": "C" 
			},
			{
				"x": -3.3363309999,
				"y": -0.6319724167,
				"z": 4.6093714177,
				"element": "C" 
			},
			{
				"x": -2.1696116133,
				"y": -1.1818356295,
				"z": 5.0567846384,
				"element": "O" 
			},
			{
				"x": -4.3556905419,
				"y": -0.6742439725,
				"z": 5.2765422376,
				"element": "O" 
			},
			{
				"x": -0.6892035398,
				"y": 0.6519387714,
				"z": 0.4881362401,
				"element": "C" 
			},
			{
				"x": -0.9675799777,
				"y": 1.3292664128,
				"z": -0.7271485851,
				"element": "C" 
			},
			{
				"x": 0.0033949033,
				"y": 1.5403117766,
				"z": -1.7113946213,
				"element": "C" 
			},
			{
				"x": 1.2824744614,
				"y": 1.0554774013,
				"z": -1.4597705884,
				"element": "C" 
			},
			{
				"x": 1.5823452892,
				"y": 0.3797087963,
				"z": -0.2599886194,
				"element": "C" 
			},
			{
				"x": 0.6113318871,
				"y": 0.1740864323,
				"z": 0.7133010628,
				"element": "C" 
			},
			{
				"x": -2.5281662225,
				"y": 3.390481304,
				"z": -1.9387588991,
				"element": "H" 
			},
			{
				"x": -2.9660939175,
				"y": 1.8429814997,
				"z": -2.7013843978,
				"element": "H" 
			},
			{
				"x": -4.0325251452,
				"y": 2.5658373548,
				"z": -1.4786661079,
				"element": "H" 
			},
			{
				"x": -3.9067886371,
				"y": 1.4682146996,
				"z": 0.6744654118,
				"element": "H" 
			},
			{
				"x": -1.2141529475,
				"y": -0.4318393444,
				"z": 2.9894447032,
				"element": "H" 
			},
			{
				"x": -4.1660392063,
				"y": 0.42443124,
				"z": 2.9387334992,
				"element": "H" 
			},
			{
				"x": -2.3839652019,
				"y": -1.5511722612,
				"z": 5.9281920063,
				"element": "H" 
			},
			{
				"x": -0.2266555748,
				"y": 2.0608435444,
				"z": -2.6360051103,
				"element": "H" 
			},
			{
				"x": 2.0631992144,
				"y": 1.2002005442,
				"z": -2.2004605319,
				"element": "H" 
			},
			{
				"x": 2.5916271477,
				"y": 0.0140921867,
				"z": -0.0958030979,
				"element": "H" 
			},
			{
				"x": 0.8587619604,
				"y": -0.348731486,
				"z": 1.632749437,
				"element": "H" 
			}
		],
		 "valence_orbital": [ 
			{
				"type": "occ",
				"energy": -0.29885,
				"method": "rhf"
			},
			{
				"type": "occ",
				"energy": -0.25983,
				"method": "rhf"
			},
			{
				"type": "occ",
				"energy": -0.25695,
				"method": "rhf"
			},
			{
				"type": "occ",
				"energy": -0.23157,
				"method": "rhf"
			},
			{
				"type": "occ",
				"energy": -0.20055,
				"method": "rhf"
			},
			{
				"type": "unocc",
				"energy": -0.05018,
				"method": "rhf"
			},
			{
				"type": "unocc",
				"energy": -0.01163,
				"method": "rhf"
			},
			{
				"type": "unocc",
				"energy": 0.01706,
				"method": "rhf"
			},
			{
				"type": "unocc",
				"energy": 0.07088,
				"method": "rhf"
			},
			{
				"type": "unocc",
				"energy": 0.0765,
				"method": "rhf"
			}
		],
		"cosmo_sigma_profile": { 
			"-0.025": 0.0,
			"-0.024": 0.0,
			"-0.023": 0.0,
			"-0.022": 0.0,
			"-0.021": 0.0,
			"-0.02": 0.0,
			"-0.019": 0.0,
			"-0.018": 0.0969850420307,
			"-0.017": 0.66779667553,
			"-0.016": 0.939450582599,
			"-0.015": 0.622753587724,
			"-0.014": 0.852204582404,
			"-0.013": 0.739884425741,
			"-0.012": 0.673675225794,
			"-0.011": 0.487679236701,
			"-0.01": 1.44861026993,
			"-0.009": 3.6280427532,
			"-0.008": 3.11574626278,
			"-0.007": 6.23412926742,
			"-0.006": 16.3578177306,
			"-0.005": 21.4485485589,
			"-0.004": 18.3088954368,
			"-0.003": 19.839214198,
			"-0.002": 12.7963773585,
			"-0.001": 10.9652026623,
			"0.0": 12.2013175732,
			"0.001": 13.8297367963,
			"0.002": 17.0806875032,
			"0.003": 17.1919750192,
			"0.004": 19.2306792004,
			"0.005": 13.5157821046,
			"0.006": 11.4012186309,
			"0.007": 4.1526105051,
			"0.008": 3.66334850662,
			"0.009": 2.24303275181,
			"0.01": 1.19994479032,
			"0.011": 1.83575488405,
			"0.012": 3.80570051747,
			"0.013": 5.22924661604,
			"0.014": 1.42193697525,
			"0.015": 0.00809726057463,
			"0.016": 0.0,
			"0.017": 0.0,
			"0.018": 0.0,
			"0.019": 0.0,
			"0.02": 0.0,
			"0.021": 0.0,
			"0.022": 0.0,
			"0.023": 0.0,
			"0.024": 0.0,
			"0.025": 0.0
		}
	}
}
