{
	 "smiles": "NCCCS(=O)(=O)CC1=CC=CC=C1", 
	 "Tm": 337.15, 
	 "num_atms": 29, 
	 "gaussian": { 
		 "optdone": 1, 
		 "sigma_profile": "yes", 
		 "theory": "DFT", 
		 "functional": "B3LYP", 
		 "basiset": "6-31G**", 
		 "properties": { 
			 "R2extent": 4361.1753, 
			 "electric_dipole_moment_norm": 4.19614238438, 
			 "electric_quadrupole_moment_norm": 13.2654893739, 
			 "total_energy": -993.433772364, 
			 "HOMO_LUMO_gap": 0.21497, 
			 "cosmo_polarized_energy": -19.59, 
			 "cosmo_cavitation_energy": 33.23, 
			 "cosmo_dispersion_energy": -23.26, 
			 "cosmo_repulsion_energy": 1.83, 
			 "cosmo_total_nonelectrostatic_energy": 11.8, 
			 "SMD_solvation_energy": 3.16 
		},
		"coords": [
			{
				"x": 2.6453956637,
				"y": 0.0718903419,
				"z": -0.6720934346,
				"element": "N" 
			},
			{
				"x": 2.4849504483,
				"y": -0.814440706,
				"z": 0.4789668426,
				"element": "C" 
			},
			{
				"x": 1.110642171,
				"y": -1.4937594269,
				"z": 0.6588749745,
				"element": "C" 
			},
			{
				"x": -0.0112657133,
				"y": -0.4860976546,
				"z": 0.9181886525,
				"element": "C" 
			},
			{
				"x": -1.6190408043,
				"y": -1.3303775713,
				"z": 1.0249985055,
				"element": "S" 
			},
			{
				"x": -1.9055144701,
				"y": -1.9334432577,
				"z": -0.2898698221,
				"element": "O" 
			},
			{
				"x": -1.6283929414,
				"y": -2.1656426108,
				"z": 2.2388318365,
				"element": "O" 
			},
			{
				"x": -2.8314728375,
				"y": 0.0232261509,
				"z": 1.30933485,
				"element": "C" 
			},
			{
				"x": -2.851897349,
				"y": 1.096882606,
				"z": 0.2559928192,
				"element": "C" 
			},
			{
				"x": -2.3913929053,
				"y": 2.3869457955,
				"z": 0.5546039279,
				"element": "C" 
			},
			{
				"x": -2.4113276376,
				"y": 3.3919298665,
				"z": -0.4136871034,
				"element": "C" 
			},
			{
				"x": -2.8886569156,
				"y": 3.1156994172,
				"z": -1.6956410665,
				"element": "C" 
			},
			{
				"x": -3.3461548552,
				"y": 1.8319017698,
				"z": -2.0031970202,
				"element": "C" 
			},
			{
				"x": -3.330167715,
				"y": 0.8281438283,
				"z": -1.0357473741,
				"element": "C" 
			},
			{
				"x": 2.405316177,
				"y": -0.4155266711,
				"z": -1.532247831,
				"element": "H" 
			},
			{
				"x": 2.0270459353,
				"y": 0.8758925949,
				"z": -0.6075958061,
				"element": "H" 
			},
			{
				"x": 3.2427996552,
				"y": -1.602976864,
				"z": 0.402389535,
				"element": "H" 
			},
			{
				"x": 2.7321669667,
				"y": -0.241363975,
				"z": 1.3817970803,
				"element": "H" 
			},
			{
				"x": 0.8672679107,
				"y": -2.0737260759,
				"z": -0.2392006726,
				"element": "H" 
			},
			{
				"x": 1.1572104403,
				"y": -2.2004970466,
				"z": 1.4950485486,
				"element": "H" 
			},
			{
				"x": -0.1024609377,
				"y": 0.2436658951,
				"z": 0.1089274402,
				"element": "H" 
			},
			{
				"x": 0.1282511525,
				"y": 0.0429431307,
				"z": 1.8667991071,
				"element": "H" 
			},
			{
				"x": -3.7741797989,
				"y": -0.5307351513,
				"z": 1.3659965774,
				"element": "H" 
			},
			{
				"x": -2.6083668934,
				"y": 0.4161440862,
				"z": 2.3043809121,
				"element": "H" 
			},
			{
				"x": -2.0264540074,
				"y": 2.6086979992,
				"z": 1.5547222424,
				"element": "H" 
			},
			{
				"x": -2.0580626222,
				"y": 4.3884216885,
				"z": -0.1648307472,
				"element": "H" 
			},
			{
				"x": -2.907278547,
				"y": 3.8965501436,
				"z": -2.4503186821,
				"element": "H" 
			},
			{
				"x": -3.7189960567,
				"y": 1.6115078988,
				"z": -2.9991844026,
				"element": "H" 
			},
			{
				"x": -3.6712635129,
				"y": -0.1726562019,
				"z": -1.2799398895,
				"element": "H" 
			}
		],
		 "valence_orbital": [ 
			{
				"type": "occ",
				"energy": -0.29295,
				"method": "rhf"
			},
			{
				"type": "occ",
				"energy": -0.28906,
				"method": "rhf"
			},
			{
				"type": "occ",
				"energy": -0.26376,
				"method": "rhf"
			},
			{
				"type": "occ",
				"energy": -0.25409,
				"method": "rhf"
			},
			{
				"type": "occ",
				"energy": -0.2408,
				"method": "rhf"
			},
			{
				"type": "unocc",
				"energy": -0.02583,
				"method": "rhf"
			},
			{
				"type": "unocc",
				"energy": -0.01597,
				"method": "rhf"
			},
			{
				"type": "unocc",
				"energy": 0.05649,
				"method": "rhf"
			},
			{
				"type": "unocc",
				"energy": 0.0636,
				"method": "rhf"
			},
			{
				"type": "unocc",
				"energy": 0.07043,
				"method": "rhf"
			}
		],
		"cosmo_sigma_profile": { 
			"-0.025": 0.0,
			"-0.024": 0.0,
			"-0.023": 0.0,
			"-0.022": 0.0,
			"-0.021": 0.0,
			"-0.02": 0.0,
			"-0.019": 0.0,
			"-0.018": 0.0,
			"-0.017": 0.0,
			"-0.016": 0.0,
			"-0.015": 0.0,
			"-0.014": 0.0,
			"-0.013": 0.0,
			"-0.012": 0.0,
			"-0.011": 0.0570494374021,
			"-0.01": 2.21080518087,
			"-0.009": 6.96670058144,
			"-0.008": 9.40281982566,
			"-0.007": 10.4192010552,
			"-0.006": 17.351854714,
			"-0.005": 19.4257264344,
			"-0.004": 25.2968845051,
			"-0.003": 22.6501439361,
			"-0.002": 18.3986771776,
			"-0.001": 15.490836848,
			"0.0": 12.1686035764,
			"0.001": 10.0913882592,
			"0.002": 11.7894545443,
			"0.003": 9.78345749772,
			"0.004": 13.2303241141,
			"0.005": 10.7671551153,
			"0.006": 3.9387015712,
			"0.007": 3.13776784815,
			"0.008": 3.45420512587,
			"0.009": 4.38644145932,
			"0.01": 4.08370310535,
			"0.011": 7.86412706087,
			"0.012": 10.6520407912,
			"0.013": 4.01143052646,
			"0.014": 0.674591960482,
			"0.015": 0.372459223999,
			"0.016": 0.632360598295,
			"0.017": 0.951963520004,
			"0.018": 0.527227715323,
			"0.019": 0.634425676186,
			"0.02": 0.141995252545,
			"0.021": 0.0,
			"0.022": 0.0,
			"0.023": 0.0,
			"0.024": 0.0,
			"0.025": 0.0
		}
	}
}
