{
	 "smiles": "COC1=CC=C(C=C1)C(=O)C(=N/NC1=CC(Cl)=CC=C1Cl)S(=O)(=O)C1=CC=CC=C1", 
	 "Tm": 388.15, 
	 "num_atms": 46, 
	 "gaussian": { 
		 "optdone": 1, 
		 "sigma_profile": "yes", 
		 "theory": "DFT", 
		 "functional": "B3LYP", 
		 "basiset": "6-31G**", 
		 "properties": { 
			 "R2extent": 18019.1096, 
			 "electric_dipole_moment_norm": 6.30512506537, 
			 "electric_quadrupole_moment_norm": 40.4135814206, 
			 "total_energy": -2538.71440361, 
			 "HOMO_LUMO_gap": 0.14033, 
			 "cosmo_polarized_energy": -23.04, 
			 "cosmo_cavitation_energy": 56.28, 
			 "cosmo_dispersion_energy": -38.35, 
			 "cosmo_repulsion_energy": 2.87, 
			 "cosmo_total_nonelectrostatic_energy": 20.8, 
			 "SMD_solvation_energy": 9.08 
		},
		"coords": [
			{
				"x": 0.0070592127,
				"y": 5.9373991565,
				"z": -4.3459510012,
				"element": "C" 
			},
			{
				"x": -0.5730186924,
				"y": 4.6393753134,
				"z": -4.3680141296,
				"element": "O" 
			},
			{
				"x": -0.2199650595,
				"y": 3.7510810102,
				"z": -3.4048024271,
				"element": "C" 
			},
			{
				"x": -0.8110609827,
				"y": 2.4805737461,
				"z": -3.5004343451,
				"element": "C" 
			},
			{
				"x": -0.5317913949,
				"y": 1.5028241111,
				"z": -2.5577365461,
				"element": "C" 
			},
			{
				"x": 0.357329103,
				"y": 1.7676135059,
				"z": -1.4980466706,
				"element": "C" 
			},
			{
				"x": 0.970153649,
				"y": 3.0303104498,
				"z": -1.4345503016,
				"element": "C" 
			},
			{
				"x": 0.6773143599,
				"y": 4.0252764036,
				"z": -2.3596421284,
				"element": "C" 
			},
			{
				"x": 0.8070457974,
				"y": 0.7493160288,
				"z": -0.5191567853,
				"element": "C" 
			},
			{
				"x": 1.9837020143,
				"y": 0.791666227,
				"z": -0.115202609,
				"element": "O" 
			},
			{
				"x": -0.0480536428,
				"y": -0.3468879479,
				"z": 0.0244552257,
				"element": "C" 
			},
			{
				"x": 0.4184193901,
				"y": -1.4070454556,
				"z": 0.6232101514,
				"element": "N" 
			},
			{
				"x": 1.704581603,
				"y": -1.6167074821,
				"z": 0.7702819967,
				"element": "N" 
			},
			{
				"x": 2.2045787876,
				"y": -2.7666543215,
				"z": 1.4057578273,
				"element": "C" 
			},
			{
				"x": 3.3852667929,
				"y": -2.5956248024,
				"z": 2.1461143546,
				"element": "C" 
			},
			{
				"x": 3.9781657216,
				"y": -3.6767688107,
				"z": 2.78506517,
				"element": "C" 
			},
			{
				"x": 5.4513217526,
				"y": -3.4273561408,
				"z": 3.7039246874,
				"element": "Cl" 
			},
			{
				"x": 3.4108748932,
				"y": -4.9484663551,
				"z": 2.7175925604,
				"element": "C" 
			},
			{
				"x": 2.2461956473,
				"y": -5.1219388424,
				"z": 1.9751314169,
				"element": "C" 
			},
			{
				"x": 1.6432921929,
				"y": -4.0545165712,
				"z": 1.3057043739,
				"element": "C" 
			},
			{
				"x": 0.2472715705,
				"y": -4.3979061382,
				"z": 0.3178308957,
				"element": "Cl" 
			},
			{
				"x": -1.8858394381,
				"y": -0.3190517502,
				"z": 0.1563643011,
				"element": "S" 
			},
			{
				"x": -2.2707624553,
				"y": -1.4276375542,
				"z": 1.0345650863,
				"element": "O" 
			},
			{
				"x": -2.4851588724,
				"y": -0.1925771367,
				"z": -1.1841205369,
				"element": "O" 
			},
			{
				"x": -2.2026625964,
				"y": 1.2146305061,
				"z": 1.0469561418,
				"element": "C" 
			},
			{
				"x": -2.0254669227,
				"y": 1.23100079,
				"z": 2.4334531477,
				"element": "C" 
			},
			{
				"x": -2.2905116458,
				"y": 2.4068014536,
				"z": 3.1337642925,
				"element": "C" 
			},
			{
				"x": -2.7352427404,
				"y": 3.5431369162,
				"z": 2.4515864288,
				"element": "C" 
			},
			{
				"x": -2.9208408593,
				"y": 3.5079715746,
				"z": 1.068159233,
				"element": "C" 
			},
			{
				"x": -2.6542053362,
				"y": 2.3383877051,
				"z": 0.3540824193,
				"element": "C" 
			},
			{
				"x": -0.4112020999,
				"y": 6.4661408203,
				"z": -5.2032250824,
				"element": "H" 
			},
			{
				"x": 1.0984305939,
				"y": 5.8922302957,
				"z": -4.4454401073,
				"element": "H" 
			},
			{
				"x": -0.2501437511,
				"y": 6.4781739809,
				"z": -3.4267986317,
				"element": "H" 
			},
			{
				"x": -1.4827021503,
				"y": 2.2834207249,
				"z": -4.329111831,
				"element": "H" 
			},
			{
				"x": -1.0000638562,
				"y": 0.5314748027,
				"z": -2.6455204585,
				"element": "H" 
			},
			{
				"x": 1.6824996426,
				"y": 3.2240161436,
				"z": -0.6397039063,
				"element": "H" 
			},
			{
				"x": 1.150166497,
				"y": 4.9956209015,
				"z": -2.2684407066,
				"element": "H" 
			},
			{
				"x": 2.3275801328,
				"y": -0.8325417722,
				"z": 0.5482795973,
				"element": "H" 
			},
			{
				"x": 3.821885991,
				"y": -1.6060127241,
				"z": 2.2285832486,
				"element": "H" 
			},
			{
				"x": 3.8736793621,
				"y": -5.7868129949,
				"z": 3.2247401066,
				"element": "H" 
			},
			{
				"x": 1.7985153376,
				"y": -6.1059228752,
				"z": 1.8916232342,
				"element": "H" 
			},
			{
				"x": -1.7051190183,
				"y": 0.3312537161,
				"z": 2.9480911199,
				"element": "H" 
			},
			{
				"x": -2.1597570956,
				"y": 2.4337952805,
				"z": 4.2113397396,
				"element": "H" 
			},
			{
				"x": -2.9446219875,
				"y": 4.4557274694,
				"z": 3.0021700094,
				"element": "H" 
			},
			{
				"x": -3.2775491918,
				"y": 4.3889189821,
				"z": 0.5430479586,
				"element": "H" 
			},
			{
				"x": -2.8014902551,
				"y": 2.2856916595,
				"z": -0.7184765202,
				"element": "H" 
			}
		],
		 "valence_orbital": [ 
			{
				"type": "occ",
				"energy": -0.26476,
				"method": "rhf"
			},
			{
				"type": "occ",
				"energy": -0.25857,
				"method": "rhf"
			},
			{
				"type": "occ",
				"energy": -0.25447,
				"method": "rhf"
			},
			{
				"type": "occ",
				"energy": -0.23684,
				"method": "rhf"
			},
			{
				"type": "occ",
				"energy": -0.22959,
				"method": "rhf"
			},
			{
				"type": "unocc",
				"energy": -0.08926,
				"method": "rhf"
			},
			{
				"type": "unocc",
				"energy": -0.03826,
				"method": "rhf"
			},
			{
				"type": "unocc",
				"energy": -0.03054,
				"method": "rhf"
			},
			{
				"type": "unocc",
				"energy": -0.03006,
				"method": "rhf"
			},
			{
				"type": "unocc",
				"energy": -0.01799,
				"method": "rhf"
			}
		],
		"cosmo_sigma_profile": { 
			"-0.025": 0.0,
			"-0.024": 0.0,
			"-0.023": 0.0,
			"-0.022": 0.0,
			"-0.021": 0.0,
			"-0.02": 0.0,
			"-0.019": 0.0,
			"-0.018": 0.0,
			"-0.017": 0.0,
			"-0.016": 0.0,
			"-0.015": 0.0,
			"-0.014": 0.044885448882,
			"-0.013": 0.608021645231,
			"-0.012": 1.17158056677,
			"-0.011": 0.988720728646,
			"-0.01": 1.38494265653,
			"-0.009": 2.0204337568,
			"-0.008": 5.55095913034,
			"-0.007": 16.9926431408,
			"-0.006": 28.3550767163,
			"-0.005": 31.4845420252,
			"-0.004": 30.9723332561,
			"-0.003": 29.5139077356,
			"-0.002": 29.6234365429,
			"-0.001": 29.3053766964,
			"0.0": 37.6701938523,
			"0.001": 44.9242657988,
			"0.002": 40.8032737316,
			"0.003": 39.9358090214,
			"0.004": 27.3643341408,
			"0.005": 9.59909250804,
			"0.006": 5.45682406033,
			"0.007": 6.16595296778,
			"0.008": 6.42670609546,
			"0.009": 6.73692770213,
			"0.01": 8.71703396237,
			"0.011": 10.0813679229,
			"0.012": 4.37687428604,
			"0.013": 0.878682851912,
			"0.014": 0.129941304677,
			"0.015": 0.0,
			"0.016": 0.0,
			"0.017": 0.0,
			"0.018": 0.0,
			"0.019": 0.0,
			"0.02": 0.0,
			"0.021": 0.0,
			"0.022": 0.0,
			"0.023": 0.0,
			"0.024": 0.0,
			"0.025": 0.0
		}
	}
}
