{
	 "smiles": "O=C1NC2=C(SC=C2)C(=O)O1", 
	 "Tm": 492.15, 
	 "num_atms": 14, 
	 "gaussian": { 
		 "optdone": 1, 
		 "sigma_profile": "yes", 
		 "theory": "DFT", 
		 "functional": "B3LYP", 
		 "basiset": "6-31G**", 
		 "properties": { 
			 "R2extent": 2154.8114, 
			 "electric_dipole_moment_norm": 7.13221331846, 
			 "electric_quadrupole_moment_norm": 14.8606113246, 
			 "total_energy": -909.067218211, 
			 "HOMO_LUMO_gap": 0.17617, 
			 "cosmo_polarized_energy": -18.57, 
			 "cosmo_cavitation_energy": 21.04, 
			 "cosmo_dispersion_energy": -16.59, 
			 "cosmo_repulsion_energy": 1.27, 
			 "cosmo_total_nonelectrostatic_energy": 5.72, 
			 "SMD_solvation_energy": 5.78 
		},
		"coords": [
			{
				"x": 0.2497526231,
				"y": -0.4856602374,
				"z": -4.2667127533,
				"element": "O" 
			},
			{
				"x": 0.0485441637,
				"y": -0.4613647586,
				"z": -3.079881347,
				"element": "C" 
			},
			{
				"x": -0.8244943075,
				"y": -1.3266224727,
				"z": -2.4374450776,
				"element": "N" 
			},
			{
				"x": -1.051428183,
				"y": -1.295604529,
				"z": -1.0768624036,
				"element": "C" 
			},
			{
				"x": -0.3857149132,
				"y": -0.3655977175,
				"z": -0.3039451879,
				"element": "C" 
			},
			{
				"x": -0.816155113,
				"y": -0.5002917296,
				"z": 1.3752322636,
				"element": "S" 
			},
			{
				"x": -1.8869024062,
				"y": -1.8080935143,
				"z": 1.0083142908,
				"element": "C" 
			},
			{
				"x": -1.9219738268,
				"y": -2.1336503383,
				"z": -0.3230732931,
				"element": "C" 
			},
			{
				"x": 0.5427442125,
				"y": 0.5795093851,
				"z": -0.8697489412,
				"element": "C" 
			},
			{
				"x": 1.1806151153,
				"y": 1.4311914361,
				"z": -0.3086235688,
				"element": "O" 
			},
			{
				"x": 0.6878730327,
				"y": 0.4460578107,
				"z": -2.2697098037,
				"element": "O" 
			},
			{
				"x": -1.2903975381,
				"y": -1.9906760041,
				"z": -3.0387891398,
				"element": "H" 
			},
			{
				"x": -2.4454440102,
				"y": -2.2783753296,
				"z": 1.8064152406,
				"element": "H" 
			},
			{
				"x": -2.5327188491,
				"y": -2.9245220008,
				"z": -0.7415702789,
				"element": "H" 
			}
		],
		 "valence_orbital": [ 
			{
				"type": "occ",
				"energy": -0.32464,
				"method": "rhf"
			},
			{
				"type": "occ",
				"energy": -0.3155,
				"method": "rhf"
			},
			{
				"type": "occ",
				"energy": -0.28669,
				"method": "rhf"
			},
			{
				"type": "occ",
				"energy": -0.28084,
				"method": "rhf"
			},
			{
				"type": "occ",
				"energy": -0.2502,
				"method": "rhf"
			},
			{
				"type": "unocc",
				"energy": -0.07403,
				"method": "rhf"
			},
			{
				"type": "unocc",
				"energy": -0.00209,
				"method": "rhf"
			},
			{
				"type": "unocc",
				"energy": 0.00555,
				"method": "rhf"
			},
			{
				"type": "unocc",
				"energy": 0.01011,
				"method": "rhf"
			},
			{
				"type": "unocc",
				"energy": 0.06566,
				"method": "rhf"
			}
		],
		"cosmo_sigma_profile": { 
			"-0.025": 0.0,
			"-0.024": 0.0,
			"-0.023": 0.0,
			"-0.022": 0.0,
			"-0.021": 0.0,
			"-0.02": 0.0,
			"-0.019": 0.0,
			"-0.018": 0.299055687092,
			"-0.017": 1.42772982724,
			"-0.016": 1.55453427747,
			"-0.015": 1.17800463008,
			"-0.014": 1.31272732861,
			"-0.013": 1.20294808458,
			"-0.012": 1.14671009717,
			"-0.011": 1.68051057117,
			"-0.01": 4.04107623639,
			"-0.009": 5.19933226251,
			"-0.008": 5.25924820307,
			"-0.007": 6.41447874556,
			"-0.006": 6.62718228778,
			"-0.005": 6.3036796389,
			"-0.004": 6.51696144007,
			"-0.003": 9.58466370192,
			"-0.002": 9.10114278143,
			"-0.001": 11.2048217152,
			"0.0": 16.2390525114,
			"0.001": 13.9412414139,
			"0.002": 10.2918228631,
			"0.003": 5.41865475703,
			"0.004": 2.57204929447,
			"0.005": 2.62622191868,
			"0.006": 3.67879444732,
			"0.007": 4.47446839749,
			"0.008": 4.78839967634,
			"0.009": 6.14108049826,
			"0.01": 6.95983116289,
			"0.011": 11.343468974,
			"0.012": 3.93250111304,
			"0.013": 0.203670242919,
			"0.014": 0.0,
			"0.015": 0.0,
			"0.016": 0.0,
			"0.017": 0.0,
			"0.018": 0.0,
			"0.019": 0.0,
			"0.02": 0.0,
			"0.021": 0.0,
			"0.022": 0.0,
			"0.023": 0.0,
			"0.024": 0.0,
			"0.025": 0.0
		}
	}
}
