{
	 "smiles": "NC1=CC(=CC=C1)S(=O)(=O)NC1=CC=C(Cl)C=C1", 
	 "Tm": 401.15, 
	 "num_atms": 29, 
	 "gaussian": { 
		 "optdone": 1, 
		 "sigma_profile": "yes", 
		 "theory": "DFT", 
		 "functional": "B3LYP", 
		 "basiset": "6-31G**", 
		 "properties": { 
			 "R2extent": 6430.6077, 
			 "electric_dipole_moment_norm": 6.39710385174, 
			 "electric_quadrupole_moment_norm": 25.9736866846, 
			 "total_energy": -1582.17162131, 
			 "HOMO_LUMO_gap": 0.18251, 
			 "cosmo_polarized_energy": -20.64, 
			 "cosmo_cavitation_energy": 36.74, 
			 "cosmo_dispersion_energy": -26.31, 
			 "cosmo_repulsion_energy": 2.01, 
			 "cosmo_total_nonelectrostatic_energy": 12.45, 
			 "SMD_solvation_energy": 5.04 
		},
		"coords": [
			{
				"x": 5.1700498824,
				"y": -0.0435513749,
				"z": 1.1078407568,
				"element": "N" 
			},
			{
				"x": 3.8639080279,
				"y": 0.3768001211,
				"z": 0.89201051,
				"element": "C" 
			},
			{
				"x": 3.2424227617,
				"y": 0.1734194394,
				"z": -0.3520151569,
				"element": "C" 
			},
			{
				"x": 1.9575842463,
				"y": 0.6693496812,
				"z": -0.5657450751,
				"element": "C" 
			},
			{
				"x": 1.2508122517,
				"y": 1.3683799519,
				"z": 0.4146923389,
				"element": "C" 
			},
			{
				"x": 1.8728558017,
				"y": 1.5567586018,
				"z": 1.6503916808,
				"element": "C" 
			},
			{
				"x": 3.154074212,
				"y": 1.0694959092,
				"z": 1.8918015446,
				"element": "C" 
			},
			{
				"x": 1.1809412116,
				"y": 0.3523551616,
				"z": -2.1532810056,
				"element": "S" 
			},
			{
				"x": 0.254777343,
				"y": 1.4492058138,
				"z": -2.4291135311,
				"element": "O" 
			},
			{
				"x": 2.2180222651,
				"y": -0.0615318744,
				"z": -3.0988846032,
				"element": "O" 
			},
			{
				"x": 0.2369905411,
				"y": -1.0544019744,
				"z": -1.9571554355,
				"element": "N" 
			},
			{
				"x": -0.8586625852,
				"y": -1.1475658667,
				"z": -1.05930581,
				"element": "C" 
			},
			{
				"x": -0.8994129607,
				"y": -2.1851470527,
				"z": -0.1183353329,
				"element": "C" 
			},
			{
				"x": -1.9968822558,
				"y": -2.3348018071,
				"z": 0.7271631956,
				"element": "C" 
			},
			{
				"x": -3.0466048882,
				"y": -1.4215685261,
				"z": 0.6484310484,
				"element": "C" 
			},
			{
				"x": -4.4268934196,
				"y": -1.5923180027,
				"z": 1.7234597801,
				"element": "Cl" 
			},
			{
				"x": -3.0170642663,
				"y": -0.3775353699,
				"z": -0.276487932,
				"element": "C" 
			},
			{
				"x": -1.9325512569,
				"y": -0.2487268673,
				"z": -1.1410297746,
				"element": "C" 
			},
			{
				"x": 5.5137864029,
				"y": -0.7717610036,
				"z": 0.4988940924,
				"element": "H" 
			},
			{
				"x": 5.4467185154,
				"y": -0.1697625269,
				"z": 2.0705313666,
				"element": "H" 
			},
			{
				"x": 3.7630950278,
				"y": -0.3354447429,
				"z": -1.1569818986,
				"element": "H" 
			},
			{
				"x": 0.2638480079,
				"y": 1.7635637414,
				"z": 0.2099963581,
				"element": "H" 
			},
			{
				"x": 1.3525936682,
				"y": 2.0966219504,
				"z": 2.4359742855,
				"element": "H" 
			},
			{
				"x": 3.6235005851,
				"y": 1.2360361831,
				"z": 2.8579972256,
				"element": "H" 
			},
			{
				"x": 0.8425151453,
				"y": -1.8685574655,
				"z": -1.9823489396,
				"element": "H" 
			},
			{
				"x": -0.0691864965,
				"y": -2.8828605146,
				"z": -0.0461540727,
				"element": "H" 
			},
			{
				"x": -2.0295238672,
				"y": -3.1436939892,
				"z": 1.4484411293,
				"element": "H" 
			},
			{
				"x": -3.8465930261,
				"y": 0.3183819362,
				"z": -0.3352484282,
				"element": "H" 
			},
			{
				"x": -1.9096208746,
				"y": 0.5423604679,
				"z": -1.8803383171,
				"element": "H" 
			}
		],
		 "valence_orbital": [ 
			{
				"type": "occ",
				"energy": -0.30431,
				"method": "rhf"
			},
			{
				"type": "occ",
				"energy": -0.27164,
				"method": "rhf"
			},
			{
				"type": "occ",
				"energy": -0.26991,
				"method": "rhf"
			},
			{
				"type": "occ",
				"energy": -0.2318,
				"method": "rhf"
			},
			{
				"type": "occ",
				"energy": -0.22336,
				"method": "rhf"
			},
			{
				"type": "unocc",
				"energy": -0.04085,
				"method": "rhf"
			},
			{
				"type": "unocc",
				"energy": -0.02119,
				"method": "rhf"
			},
			{
				"type": "unocc",
				"energy": -0.01811,
				"method": "rhf"
			},
			{
				"type": "unocc",
				"energy": -0.00459,
				"method": "rhf"
			},
			{
				"type": "unocc",
				"energy": 0.02642,
				"method": "rhf"
			}
		],
		"cosmo_sigma_profile": { 
			"-0.025": 0.0,
			"-0.024": 0.0,
			"-0.023": 0.0,
			"-0.022": 0.0,
			"-0.021": 0.0,
			"-0.02": 0.0,
			"-0.019": 0.0,
			"-0.018": 0.0,
			"-0.017": 0.0,
			"-0.016": 0.415365764995,
			"-0.015": 1.0443477098,
			"-0.014": 1.49173861128,
			"-0.013": 3.43013144823,
			"-0.012": 4.58411771628,
			"-0.011": 3.9339435271,
			"-0.01": 4.46924200875,
			"-0.009": 5.14050403019,
			"-0.008": 5.52074515496,
			"-0.007": 11.0990918679,
			"-0.006": 14.3122244881,
			"-0.005": 14.5797196725,
			"-0.004": 13.0062441236,
			"-0.003": 11.6374451301,
			"-0.002": 13.2142887682,
			"-0.001": 15.1977759224,
			"0.0": 16.2285600374,
			"0.001": 20.0798827896,
			"0.002": 27.0067931308,
			"0.003": 32.5971174815,
			"0.004": 26.3940413838,
			"0.005": 13.7783390438,
			"0.006": 4.65187794114,
			"0.007": 5.18551865729,
			"0.008": 4.2491075921,
			"0.009": 4.99766449656,
			"0.01": 7.9165354948,
			"0.011": 8.01273428624,
			"0.012": 1.58460955788,
			"0.013": 0.443483317972,
			"0.014": 0.0708251037531,
			"0.015": 0.0,
			"0.016": 0.0,
			"0.017": 0.0,
			"0.018": 0.0,
			"0.019": 0.0,
			"0.02": 0.0,
			"0.021": 0.0,
			"0.022": 0.0,
			"0.023": 0.0,
			"0.024": 0.0,
			"0.025": 0.0
		}
	}
}
