{
	 "smiles": "OC(=O)C1=NN=C(S)NC1=O", 
	 "Tm": 503.15, 
	 "num_atms": 14, 
	 "gaussian": { 
		 "optdone": 1, 
		 "sigma_profile": "yes", 
		 "theory": "DFT", 
		 "functional": "B3LYP", 
		 "basiset": "6-31G**", 
		 "properties": { 
			 "R2extent": 2704.616, 
			 "electric_dipole_moment_norm": 3.66498454158, 
			 "electric_quadrupole_moment_norm": 12.665626054, 
			 "total_energy": -942.306983455, 
			 "HOMO_LUMO_gap": 0.16527, 
			 "cosmo_polarized_energy": -23.49, 
			 "cosmo_cavitation_energy": 22.19, 
			 "cosmo_dispersion_energy": -17.06, 
			 "cosmo_repulsion_energy": 1.34, 
			 "cosmo_total_nonelectrostatic_energy": 6.47, 
			 "SMD_solvation_energy": 3.97 
		},
		"coords": [
			{
				"x": 1.1051575725,
				"y": 3.3908027873,
				"z": 1.7612965251,
				"element": "O" 
			},
			{
				"x": 0.413175963,
				"y": 2.829874705,
				"z": 0.7506963817,
				"element": "C" 
			},
			{
				"x": 0.1831103796,
				"y": 3.3856645154,
				"z": -0.2992613938,
				"element": "O" 
			},
			{
				"x": -0.0215857541,
				"y": 1.427733198,
				"z": 1.0647276793,
				"element": "C" 
			},
			{
				"x": 0.7277036095,
				"y": 0.7337876403,
				"z": 1.8789779475,
				"element": "N" 
			},
			{
				"x": 0.4640049343,
				"y": -0.5719832386,
				"z": 2.1677056611,
				"element": "N" 
			},
			{
				"x": -0.5808623091,
				"y": -1.1249897628,
				"z": 1.5981201528,
				"element": "C" 
			},
			{
				"x": -0.9542042505,
				"y": -2.8207317029,
				"z": 1.9347430132,
				"element": "S" 
			},
			{
				"x": -1.4111004965,
				"y": -0.4639955811,
				"z": 0.7516493994,
				"element": "N" 
			},
			{
				"x": -1.232408964,
				"y": 0.896831472,
				"z": 0.4073828124,
				"element": "C" 
			},
			{
				"x": -2.0300901123,
				"y": 1.4614520779,
				"z": -0.3101452697,
				"element": "O" 
			},
			{
				"x": 1.373547705,
				"y": 4.2684077848,
				"z": 1.4405125192,
				"element": "H" 
			},
			{
				"x": 0.1039844266,
				"y": -2.9581197357,
				"z": 2.7565706506,
				"element": "H" 
			},
			{
				"x": -2.2223327037,
				"y": -0.9115341595,
				"z": 0.3367239213,
				"element": "H" 
			}
		],
		 "valence_orbital": [ 
			{
				"type": "occ",
				"energy": -0.30933,
				"method": "rhf"
			},
			{
				"type": "occ",
				"energy": -0.30764,
				"method": "rhf"
			},
			{
				"type": "occ",
				"energy": -0.28352,
				"method": "rhf"
			},
			{
				"type": "occ",
				"energy": -0.26933,
				"method": "rhf"
			},
			{
				"type": "occ",
				"energy": -0.26129,
				"method": "rhf"
			},
			{
				"type": "unocc",
				"energy": -0.09602,
				"method": "rhf"
			},
			{
				"type": "unocc",
				"energy": -0.03842,
				"method": "rhf"
			},
			{
				"type": "unocc",
				"energy": -0.03215,
				"method": "rhf"
			},
			{
				"type": "unocc",
				"energy": 0.0106,
				"method": "rhf"
			},
			{
				"type": "unocc",
				"energy": 0.03983,
				"method": "rhf"
			}
		],
		"cosmo_sigma_profile": { 
			"-0.025": 0.0,
			"-0.024": 0.0,
			"-0.023": 0.0,
			"-0.022": 0.0,
			"-0.021": 0.0,
			"-0.02": 0.019398865767,
			"-0.019": 1.38937089238,
			"-0.018": 2.16489048176,
			"-0.017": 2.36463933049,
			"-0.016": 2.02467747573,
			"-0.015": 2.25186063911,
			"-0.014": 0.954465872276,
			"-0.013": 3.14129693385,
			"-0.012": 3.44675442885,
			"-0.011": 3.08685734918,
			"-0.01": 2.14216743564,
			"-0.009": 3.88975190311,
			"-0.008": 5.64590289148,
			"-0.007": 5.35259475688,
			"-0.006": 7.40300928251,
			"-0.005": 9.03255583715,
			"-0.004": 9.12540033311,
			"-0.003": 9.7213185465,
			"-0.002": 7.80482732088,
			"-0.001": 6.87805489616,
			"0.0": 7.83571635903,
			"0.001": 8.39377239057,
			"0.002": 6.61276052245,
			"0.003": 6.66999163393,
			"0.004": 6.04460523352,
			"0.005": 5.46519987625,
			"0.006": 4.07572747572,
			"0.007": 5.04984881656,
			"0.008": 3.95030201678,
			"0.009": 6.7586248075,
			"0.01": 8.30456316684,
			"0.011": 12.0033840424,
			"0.012": 6.12862968061,
			"0.013": 3.80441413517,
			"0.014": 2.01644096362,
			"0.015": 0.252623321279,
			"0.016": 0.0,
			"0.017": 0.0,
			"0.018": 0.0,
			"0.019": 0.0,
			"0.02": 0.0,
			"0.021": 0.0,
			"0.022": 0.0,
			"0.023": 0.0,
			"0.024": 0.0,
			"0.025": 0.0
		}
	}
}
