{
	 "smiles": "CC(=O)C1=C(C)N(N=C1)C1=NC=CC=C1", 
	 "Tm": 349.15, 
	 "num_atms": 26, 
	 "gaussian": { 
		 "optdone": 1, 
		 "sigma_profile": "yes", 
		 "theory": "DFT", 
		 "functional": "B3LYP", 
		 "basiset": "6-31G**", 
		 "properties": { 
			 "R2extent": 3949.3584, 
			 "electric_dipole_moment_norm": 3.44999186376, 
			 "electric_quadrupole_moment_norm": 21.5517654683, 
			 "total_energy": -665.260549331, 
			 "HOMO_LUMO_gap": 0.19267, 
			 "cosmo_polarized_energy": -15.99, 
			 "cosmo_cavitation_energy": 30.4, 
			 "cosmo_dispersion_energy": -21.83, 
			 "cosmo_repulsion_energy": 1.69, 
			 "cosmo_total_nonelectrostatic_energy": 10.26, 
			 "SMD_solvation_energy": 3.78 
		},
		"coords": [
			{
				"x": 2.4059094383,
				"y": -2.766998333,
				"z": -0.9097834285,
				"element": "C" 
			},
			{
				"x": 1.0133772749,
				"y": -2.1697749609,
				"z": -1.0431172905,
				"element": "C" 
			},
			{
				"x": 0.1713199934,
				"y": -2.7029060338,
				"z": -1.7591745917,
				"element": "O" 
			},
			{
				"x": 0.7368402737,
				"y": -0.9395538247,
				"z": -0.2861510791,
				"element": "C" 
			},
			{
				"x": -0.4521918056,
				"y": -0.2043148879,
				"z": -0.2844384781,
				"element": "C" 
			},
			{
				"x": -1.7237910172,
				"y": -0.4379643547,
				"z": -1.0351895939,
				"element": "C" 
			},
			{
				"x": -0.2255436024,
				"y": 0.861920083,
				"z": 0.5397908845,
				"element": "N" 
			},
			{
				"x": 1.0387802808,
				"y": 0.871062757,
				"z": 1.0681405162,
				"element": "N" 
			},
			{
				"x": 1.6073297263,
				"y": -0.2119068932,
				"z": 0.5739818118,
				"element": "C" 
			},
			{
				"x": -1.1123510808,
				"y": 1.9302327452,
				"z": 0.8723586326,
				"element": "C" 
			},
			{
				"x": -0.6188023795,
				"y": 3.1602456154,
				"z": 0.7447124916,
				"element": "N" 
			},
			{
				"x": -1.4215900778,
				"y": 4.1792327714,
				"z": 1.0675030274,
				"element": "C" 
			},
			{
				"x": -2.7379092307,
				"y": 4.0197888453,
				"z": 1.5044884688,
				"element": "C" 
			},
			{
				"x": -3.23667625,
				"y": 2.7240706206,
				"z": 1.6303301365,
				"element": "C" 
			},
			{
				"x": -2.4069649821,
				"y": 1.6486556153,
				"z": 1.3197527919,
				"element": "C" 
			},
			{
				"x": 3.1667612219,
				"y": -2.0559459523,
				"z": -1.2509847143,
				"element": "H" 
			},
			{
				"x": 2.6297048834,
				"y": -3.0054045987,
				"z": 0.1361017755,
				"element": "H" 
			},
			{
				"x": 2.4619862046,
				"y": -3.6754007986,
				"z": -1.5104858278,
				"element": "H" 
			},
			{
				"x": -2.1866903624,
				"y": 0.5026556974,
				"z": -1.3460649623,
				"element": "H" 
			},
			{
				"x": -2.4536568209,
				"y": -0.9879356765,
				"z": -0.4289121302,
				"element": "H" 
			},
			{
				"x": -1.5054194226,
				"y": -1.0574002392,
				"z": -1.9047294602,
				"element": "H" 
			},
			{
				"x": 2.6270066018,
				"y": -0.4467644533,
				"z": 0.8502857071,
				"element": "H" 
			},
			{
				"x": -0.9913226916,
				"y": 5.1731893188,
				"z": 0.9624932986,
				"element": "H" 
			},
			{
				"x": -3.3469923947,
				"y": 4.88552838,
				"z": 1.7425405609,
				"element": "H" 
			},
			{
				"x": -4.2491853211,
				"y": 2.548448456,
				"z": 1.9810212569,
				"element": "H" 
			},
			{
				"x": -2.7407284594,
				"y": 0.6247401012,
				"z": 1.4395301964,
				"element": "H" 
			}
		],
		 "valence_orbital": [ 
			{
				"type": "occ",
				"energy": -0.29076,
				"method": "rhf"
			},
			{
				"type": "occ",
				"energy": -0.27482,
				"method": "rhf"
			},
			{
				"type": "occ",
				"energy": -0.25272,
				"method": "rhf"
			},
			{
				"type": "occ",
				"energy": -0.24407,
				"method": "rhf"
			},
			{
				"type": "occ",
				"energy": -0.23964,
				"method": "rhf"
			},
			{
				"type": "unocc",
				"energy": -0.04697,
				"method": "rhf"
			},
			{
				"type": "unocc",
				"energy": -0.03538,
				"method": "rhf"
			},
			{
				"type": "unocc",
				"energy": -0.02163,
				"method": "rhf"
			},
			{
				"type": "unocc",
				"energy": 0.02151,
				"method": "rhf"
			},
			{
				"type": "unocc",
				"energy": 0.07803,
				"method": "rhf"
			}
		],
		"cosmo_sigma_profile": { 
			"-0.025": 0.0,
			"-0.024": 0.0,
			"-0.023": 0.0,
			"-0.022": 0.0,
			"-0.021": 0.0,
			"-0.02": 0.0,
			"-0.019": 0.0,
			"-0.018": 0.0,
			"-0.017": 0.0,
			"-0.016": 0.0,
			"-0.015": 0.0,
			"-0.014": 0.0,
			"-0.013": 0.0,
			"-0.012": 0.0,
			"-0.011": 0.0,
			"-0.01": 0.0,
			"-0.009": 0.237370403048,
			"-0.008": 6.07945848518,
			"-0.007": 12.1435501816,
			"-0.006": 18.4155918474,
			"-0.005": 19.9901218432,
			"-0.004": 16.7949986111,
			"-0.003": 17.7524347299,
			"-0.002": 19.2364901234,
			"-0.001": 21.2636631255,
			"0.0": 19.8205475002,
			"0.001": 20.5978578632,
			"0.002": 15.6901779291,
			"0.003": 6.41115033054,
			"0.004": 5.42056735906,
			"0.005": 4.08533929055,
			"0.006": 4.82531109642,
			"0.007": 3.69814442639,
			"0.008": 2.78265691416,
			"0.009": 4.23229139791,
			"0.01": 3.70029439165,
			"0.011": 4.28160118501,
			"0.012": 4.90348858068,
			"0.013": 3.78788712518,
			"0.014": 2.55155503112,
			"0.015": 2.29370989511,
			"0.016": 2.1128103066,
			"0.017": 0.114202123916,
			"0.018": 0.0,
			"0.019": 0.0,
			"0.02": 0.0,
			"0.021": 0.0,
			"0.022": 0.0,
			"0.023": 0.0,
			"0.024": 0.0,
			"0.025": 0.0
		}
	}
}
