{
	 "smiles": "CCOC(=O)C(=CC1=CC=C(O1)C1=CC=C(C=C1)[N+]([O-])=O)C#N", 
	 "Tm": 511.15, 
	 "num_atms": 35, 
	 "gaussian": { 
		 "optdone": 1, 
		 "sigma_profile": "yes", 
		 "theory": "DFT", 
		 "functional": "B3LYP", 
		 "basiset": "6-31G**", 
		 "properties": { 
			 "R2extent": 12388.6147, 
			 "electric_dipole_moment_norm": 3.37053772268, 
			 "electric_quadrupole_moment_norm": 52.3811828329, 
			 "total_energy": -1102.42436109, 
			 "HOMO_LUMO_gap": 0.11936, 
			 "cosmo_polarized_energy": -20.61, 
			 "cosmo_cavitation_energy": 43.13, 
			 "cosmo_dispersion_energy": -29.6, 
			 "cosmo_repulsion_energy": 2.25, 
			 "cosmo_total_nonelectrostatic_energy": 15.77, 
			 "SMD_solvation_energy": 12.24 
		},
		"coords": [
			{
				"x": 5.0086711614,
				"y": 0.4081434573,
				"z": -3.963575844,
				"element": "C" 
			},
			{
				"x": 5.1169158964,
				"y": 0.271572136,
				"z": -2.4525104399,
				"element": "C" 
			},
			{
				"x": 4.4499154186,
				"y": -0.9262980856,
				"z": -1.9848008764,
				"element": "O" 
			},
			{
				"x": 3.1258911706,
				"y": -0.8332694023,
				"z": -1.7484662847,
				"element": "C" 
			},
			{
				"x": 2.4778343047,
				"y": 0.1835861716,
				"z": -1.894216212,
				"element": "O" 
			},
			{
				"x": 2.5985327463,
				"y": -2.1523637089,
				"z": -1.2861472755,
				"element": "C" 
			},
			{
				"x": 1.3091274717,
				"y": -2.4478457022,
				"z": -0.9222203769,
				"element": "C" 
			},
			{
				"x": 0.0939837039,
				"y": -1.7114881944,
				"z": -0.835745847,
				"element": "C" 
			},
			{
				"x": -1.1521512116,
				"y": -2.1802701796,
				"z": -0.4390519936,
				"element": "C" 
			},
			{
				"x": -2.0448170746,
				"y": -1.0924564946,
				"z": -0.5105871185,
				"element": "C" 
			},
			{
				"x": -1.302363279,
				"y": -0.0088876539,
				"z": -0.9473618552,
				"element": "C" 
			},
			{
				"x": -0.0149968914,
				"y": -0.3873942289,
				"z": -1.1413265187,
				"element": "O" 
			},
			{
				"x": -1.6164971728,
				"y": 1.3823024912,
				"z": -1.2252253283,
				"element": "C" 
			},
			{
				"x": -0.6060417571,
				"y": 2.2544610166,
				"z": -1.6798123921,
				"element": "C" 
			},
			{
				"x": -0.900271441,
				"y": 3.5854513995,
				"z": -1.9470829923,
				"element": "C" 
			},
			{
				"x": -2.2046616808,
				"y": 4.041689911,
				"z": -1.7594592257,
				"element": "C" 
			},
			{
				"x": -3.2237472607,
				"y": 3.2008553686,
				"z": -1.3109714878,
				"element": "C" 
			},
			{
				"x": -2.9248706974,
				"y": 1.8721072405,
				"z": -1.0450877472,
				"element": "C" 
			},
			{
				"x": -2.5176448377,
				"y": 5.4493619737,
				"z": -2.0417887735,
				"element": "N" 
			},
			{
				"x": -3.6781635136,
				"y": 5.8216727013,
				"z": -1.8664636904,
				"element": "O" 
			},
			{
				"x": -1.6009596212,
				"y": 6.1697770408,
				"z": -2.436051453,
				"element": "O" 
			},
			{
				"x": 3.5352942352,
				"y": -3.2360377849,
				"z": -1.2155169172,
				"element": "C" 
			},
			{
				"x": 4.2603360866,
				"y": -4.1440998224,
				"z": -1.1446998087,
				"element": "N" 
			},
			{
				"x": 5.5867552878,
				"y": 1.2759981443,
				"z": -4.2977425593,
				"element": "H" 
			},
			{
				"x": 3.9683695958,
				"y": 0.5530607251,
				"z": -4.2651875695,
				"element": "H" 
			},
			{
				"x": 5.4031376571,
				"y": -0.4811237686,
				"z": -4.4632044924,
				"element": "H" 
			},
			{
				"x": 6.1530906736,
				"y": 0.14026902,
				"z": -2.1338961669,
				"element": "H" 
			},
			{
				"x": 4.6848295841,
				"y": 1.1358255043,
				"z": -1.942568312,
				"element": "H" 
			},
			{
				"x": 1.1542275401,
				"y": -3.4817132754,
				"z": -0.6225864635,
				"element": "H" 
			},
			{
				"x": -1.376371028,
				"y": -3.1933730181,
				"z": -0.1357948526,
				"element": "H" 
			},
			{
				"x": -3.098331802,
				"y": -1.0984116178,
				"z": -0.2737139648,
				"element": "H" 
			},
			{
				"x": 0.40107812,
				"y": 1.8759947057,
				"z": -1.8188806003,
				"element": "H" 
			},
			{
				"x": -0.1416937913,
				"y": 4.2742194014,
				"z": -2.2969510378,
				"element": "H" 
			},
			{
				"x": -4.2220671454,
				"y": 3.5983637372,
				"z": -1.1794418683,
				"element": "H" 
			},
			{
				"x": -3.7108404484,
				"y": 1.2109207914,
				"z": -0.695261654,
				"element": "H" 
			}
		],
		 "valence_orbital": [ 
			{
				"type": "occ",
				"energy": -0.29428,
				"method": "rhf"
			},
			{
				"type": "occ",
				"energy": -0.29176,
				"method": "rhf"
			},
			{
				"type": "occ",
				"energy": -0.28699,
				"method": "rhf"
			},
			{
				"type": "occ",
				"energy": -0.28537,
				"method": "rhf"
			},
			{
				"type": "occ",
				"energy": -0.23404,
				"method": "rhf"
			},
			{
				"type": "unocc",
				"energy": -0.11468,
				"method": "rhf"
			},
			{
				"type": "unocc",
				"energy": -0.08445,
				"method": "rhf"
			},
			{
				"type": "unocc",
				"energy": -0.03557,
				"method": "rhf"
			},
			{
				"type": "unocc",
				"energy": -0.02836,
				"method": "rhf"
			},
			{
				"type": "unocc",
				"energy": 0.01303,
				"method": "rhf"
			}
		],
		"cosmo_sigma_profile": { 
			"-0.025": 0.0,
			"-0.024": 0.0,
			"-0.023": 0.0,
			"-0.022": 0.0,
			"-0.021": 0.0,
			"-0.02": 0.0,
			"-0.019": 0.0,
			"-0.018": 0.0,
			"-0.017": 0.0,
			"-0.016": 0.0,
			"-0.015": 0.0,
			"-0.014": 0.0,
			"-0.013": 0.0,
			"-0.012": 0.0,
			"-0.011": 1.02340654571,
			"-0.01": 4.74962928455,
			"-0.009": 7.0020996798,
			"-0.008": 8.02804980146,
			"-0.007": 9.89271474125,
			"-0.006": 12.832357771,
			"-0.005": 17.5417221366,
			"-0.004": 23.2042350214,
			"-0.003": 24.3678798933,
			"-0.002": 33.8765958011,
			"-0.001": 42.0632826806,
			"0.0": 36.0061784604,
			"0.001": 26.0494722401,
			"0.002": 11.7681543862,
			"0.003": 6.88386637257,
			"0.004": 8.73407880939,
			"0.005": 8.541498483,
			"0.006": 8.82913309802,
			"0.007": 14.2428799958,
			"0.008": 15.907568028,
			"0.009": 11.9815861025,
			"0.01": 6.38808106011,
			"0.011": 3.1730888571,
			"0.012": 2.58151039205,
			"0.013": 1.94212437426,
			"0.014": 0.270161350669,
			"0.015": 0.0,
			"0.016": 0.0,
			"0.017": 0.0,
			"0.018": 0.0,
			"0.019": 0.0,
			"0.02": 0.0,
			"0.021": 0.0,
			"0.022": 0.0,
			"0.023": 0.0,
			"0.024": 0.0,
			"0.025": 0.0
		}
	}
}
