{
	 "smiles": "CC1=C(C=CC=C1)N1C(C)=NC2=CC=CC=C2C1=O", 
	 "Tm": 393.15, 
	 "num_atms": 33, 
	 "gaussian": { 
		 "optdone": 1, 
		 "sigma_profile": "yes", 
		 "theory": "DFT", 
		 "functional": "B3LYP", 
		 "basiset": "6-31G**", 
		 "properties": { 
			 "R2extent": 5005.8371, 
			 "electric_dipole_moment_norm": 1.97005479619, 
			 "electric_quadrupole_moment_norm": 15.361110675, 
			 "total_energy": -802.908091092, 
			 "HOMO_LUMO_gap": 0.18545, 
			 "cosmo_polarized_energy": -12.37, 
			 "cosmo_cavitation_energy": 36.16, 
			 "cosmo_dispersion_energy": -25.32, 
			 "cosmo_repulsion_energy": 1.91, 
			 "cosmo_total_nonelectrostatic_energy": 12.75, 
			 "SMD_solvation_energy": 5.42 
		},
		"coords": [
			{
				"x": 1.2760452228,
				"y": -0.9550232952,
				"z": -2.3307143269,
				"element": "C" 
			},
			{
				"x": 0.1413152745,
				"y": -1.8255747364,
				"z": -1.8534947185,
				"element": "C" 
			},
			{
				"x": -0.5468854954,
				"y": -1.5488537748,
				"z": -0.6601259877,
				"element": "C" 
			},
			{
				"x": -1.6292128535,
				"y": -2.3275974031,
				"z": -0.2488231571,
				"element": "C" 
			},
			{
				"x": -2.0362023265,
				"y": -3.4210516669,
				"z": -1.0119326426,
				"element": "C" 
			},
			{
				"x": -1.3571545231,
				"y": -3.7226114235,
				"z": -2.1920544199,
				"element": "C" 
			},
			{
				"x": -0.2856668414,
				"y": -2.9291457798,
				"z": -2.6027853357,
				"element": "C" 
			},
			{
				"x": -0.1446670679,
				"y": -0.4321319261,
				"z": 0.1689584541,
				"element": "N" 
			},
			{
				"x": 0.6298789241,
				"y": -0.6265252477,
				"z": 1.3142248549,
				"element": "C" 
			},
			{
				"x": 1.0908238841,
				"y": -2.0259889457,
				"z": 1.622430332,
				"element": "C" 
			},
			{
				"x": 0.9822430603,
				"y": 0.3295464137,
				"z": 2.1151604354,
				"element": "N" 
			},
			{
				"x": 0.5684617845,
				"y": 1.620549957,
				"z": 1.827897301,
				"element": "C" 
			},
			{
				"x": 0.9322012562,
				"y": 2.6623856462,
				"z": 2.7045538729,
				"element": "C" 
			},
			{
				"x": 0.5373688499,
				"y": 3.9644473938,
				"z": 2.439056365,
				"element": "C" 
			},
			{
				"x": -0.2263482258,
				"y": 4.265568596,
				"z": 1.2958403117,
				"element": "C" 
			},
			{
				"x": -0.5906157094,
				"y": 3.2526766755,
				"z": 0.4225426012,
				"element": "C" 
			},
			{
				"x": -0.1980755599,
				"y": 1.9294305695,
				"z": 0.6837800717,
				"element": "C" 
			},
			{
				"x": -0.5837324002,
				"y": 0.856178529,
				"z": -0.2344792748,
				"element": "C" 
			},
			{
				"x": -1.2241061175,
				"y": 1.0039672396,
				"z": -1.2668844425,
				"element": "O" 
			},
			{
				"x": 0.898384797,
				"y": 0.0311534055,
				"z": -2.6209865504,
				"element": "H" 
			},
			{
				"x": 1.7716596272,
				"y": -1.4011829277,
				"z": -3.1964417071,
				"element": "H" 
			},
			{
				"x": 2.0298562402,
				"y": -0.7983409571,
				"z": -1.5516258585,
				"element": "H" 
			},
			{
				"x": -2.1507912954,
				"y": -2.0652643509,
				"z": 0.6668250443,
				"element": "H" 
			},
			{
				"x": -2.8780853638,
				"y": -4.0255223474,
				"z": -0.6887860708,
				"element": "H" 
			},
			{
				"x": -1.6630052422,
				"y": -4.5714583265,
				"z": -2.7966444116,
				"element": "H" 
			},
			{
				"x": 0.2328860282,
				"y": -3.1638809277,
				"z": -3.528537406,
				"element": "H" 
			},
			{
				"x": 0.2494477016,
				"y": -2.6872424011,
				"z": 1.850353225,
				"element": "H" 
			},
			{
				"x": 1.7525145179,
				"y": -1.9753742904,
				"z": 2.4864255702,
				"element": "H" 
			},
			{
				"x": 1.6233720148,
				"y": -2.4688786048,
				"z": 0.7749927351,
				"element": "H" 
			},
			{
				"x": 1.5227741613,
				"y": 2.4117162495,
				"z": 3.579570411,
				"element": "H" 
			},
			{
				"x": 0.8212847785,
				"y": 4.7615961131,
				"z": 3.1205049058,
				"element": "H" 
			},
			{
				"x": -0.5281590938,
				"y": 5.2899752607,
				"z": 1.0999821722,
				"element": "H" 
			},
			{
				"x": -1.1782100073,
				"y": 3.4478572834,
				"z": -0.4683823533,
				"element": "H" 
			}
		],
		 "valence_orbital": [ 
			{
				"type": "occ",
				"energy": -0.25866,
				"method": "rhf"
			},
			{
				"type": "occ",
				"energy": -0.25668,
				"method": "rhf"
			},
			{
				"type": "occ",
				"energy": -0.25494,
				"method": "rhf"
			},
			{
				"type": "occ",
				"energy": -0.24837,
				"method": "rhf"
			},
			{
				"type": "occ",
				"energy": -0.22408,
				"method": "rhf"
			},
			{
				"type": "unocc",
				"energy": -0.03863,
				"method": "rhf"
			},
			{
				"type": "unocc",
				"energy": -0.03068,
				"method": "rhf"
			},
			{
				"type": "unocc",
				"energy": -0.0139,
				"method": "rhf"
			},
			{
				"type": "unocc",
				"energy": -0.00838,
				"method": "rhf"
			},
			{
				"type": "unocc",
				"energy": 0.03385,
				"method": "rhf"
			}
		],
		"cosmo_sigma_profile": { 
			"-0.025": 0.0,
			"-0.024": 0.0,
			"-0.023": 0.0,
			"-0.022": 0.0,
			"-0.021": 0.0,
			"-0.02": 0.0,
			"-0.019": 0.0,
			"-0.018": 0.0,
			"-0.017": 0.0,
			"-0.016": 0.0,
			"-0.015": 0.0,
			"-0.014": 0.0,
			"-0.013": 0.0,
			"-0.012": 0.0,
			"-0.011": 0.0,
			"-0.01": 0.0,
			"-0.009": 0.0,
			"-0.008": 0.0,
			"-0.007": 3.19473644221,
			"-0.006": 18.1759894691,
			"-0.005": 26.1999706959,
			"-0.004": 31.0521694528,
			"-0.003": 23.608255769,
			"-0.002": 24.8277309444,
			"-0.001": 23.8493652121,
			"0.0": 22.3442884587,
			"0.001": 17.8941172866,
			"0.002": 18.7549127892,
			"0.003": 22.7960170779,
			"0.004": 17.6863495766,
			"0.005": 9.14946427866,
			"0.006": 4.38174086244,
			"0.007": 3.12129863289,
			"0.008": 2.69114148018,
			"0.009": 3.25298766256,
			"0.01": 3.08335177433,
			"0.011": 2.6016582031,
			"0.012": 4.41656558734,
			"0.013": 4.72021288445,
			"0.014": 0.907545880019,
			"0.015": 0.30927740545,
			"0.016": 0.0,
			"0.017": 0.0,
			"0.018": 0.0,
			"0.019": 0.0,
			"0.02": 0.0,
			"0.021": 0.0,
			"0.022": 0.0,
			"0.023": 0.0,
			"0.024": 0.0,
			"0.025": 0.0
		}
	}
}
