{
	 "smiles": "CCCCCCCCC=CCCCCCCCCOC(=O)OC1CCC2(C)C3CCC4(C)C(CCC4C3CC=C2C1)C(C)CCCC(C)C", 
	 "Tm": 293.15, 
	 "num_atms": 129, 
	 "gaussian": { 
		 "optdone": 1, 
		 "sigma_profile": "yes", 
		 "theory": "DFT", 
		 "functional": "B3LYP", 
		 "basiset": "6-31G**", 
		 "properties": { 
			 "R2extent": 67512.4924, 
			 "electric_dipole_moment_norm": 0.541604062023, 
			 "electric_quadrupole_moment_norm": 11.1715194325, 
			 "total_energy": -2026.84787668, 
			 "HOMO_LUMO_gap": 0.25229, 
			 "cosmo_polarized_energy": -10.17, 
			 "cosmo_cavitation_energy": 113.88, 
			 "cosmo_dispersion_energy": -71.01, 
			 "cosmo_repulsion_energy": 5.48, 
			 "cosmo_total_nonelectrostatic_energy": 48.35, 
			 "SMD_solvation_energy": 16.35 
		},
		"coords": [
			{
				"x": 7.8308689083,
				"y": 2.6081011949,
				"z": 1.5204072936,
				"element": "C" 
			},
			{
				"x": 8.0307362993,
				"y": 2.2184269899,
				"z": 2.9900415088,
				"element": "C" 
			},
			{
				"x": 7.8467375953,
				"y": 0.7199925862,
				"z": 3.2829034759,
				"element": "C" 
			},
			{
				"x": 6.419494641,
				"y": 0.1947151025,
				"z": 3.0741471701,
				"element": "C" 
			},
			{
				"x": 6.2587402309,
				"y": -1.2874441048,
				"z": 3.4380213509,
				"element": "C" 
			},
			{
				"x": 4.8292162925,
				"y": -1.8090218811,
				"z": 3.2363486267,
				"element": "C" 
			},
			{
				"x": 4.6183599398,
				"y": -3.2732928702,
				"z": 3.6541165041,
				"element": "C" 
			},
			{
				"x": 5.34000058,
				"y": -4.3171121101,
				"z": 2.7729740082,
				"element": "C" 
			},
			{
				"x": 4.8248808109,
				"y": -4.3458915894,
				"z": 1.3573907374,
				"element": "C" 
			},
			{
				"x": 5.5165504369,
				"y": -4.2593163271,
				"z": 0.213290058,
				"element": "C" 
			},
			{
				"x": 7.0057107265,
				"y": -4.1070426379,
				"z": 0.0416412135,
				"element": "C" 
			},
			{
				"x": 7.4323198644,
				"y": -2.7724818951,
				"z": -0.6143179305,
				"element": "C" 
			},
			{
				"x": 6.8851637754,
				"y": -2.5144605366,
				"z": -2.0293083048,
				"element": "C" 
			},
			{
				"x": 7.3634609118,
				"y": -3.5309330562,
				"z": -3.0790928978,
				"element": "C" 
			},
			{
				"x": 7.0866648259,
				"y": -3.1764347917,
				"z": -4.5535156978,
				"element": "C" 
			},
			{
				"x": 5.6407167607,
				"y": -3.3475023442,
				"z": -5.0607219032,
				"element": "C" 
			},
			{
				"x": 4.6511337539,
				"y": -2.2397376402,
				"z": -4.6681784092,
				"element": "C" 
			},
			{
				"x": 3.298973108,
				"y": -2.4323373503,
				"z": -5.3473509516,
				"element": "C" 
			},
			{
				"x": 2.3894218586,
				"y": -1.3504752739,
				"z": -5.0422373792,
				"element": "O" 
			},
			{
				"x": 1.7146009614,
				"y": -1.4658311428,
				"z": -3.8873056912,
				"element": "C" 
			},
			{
				"x": 1.7896680192,
				"y": -2.3935505828,
				"z": -3.106573328,
				"element": "O" 
			},
			{
				"x": 0.9470164344,
				"y": -0.3750662277,
				"z": -3.754624174,
				"element": "O" 
			},
			{
				"x": 0.1229011244,
				"y": -0.3047461381,
				"z": -2.5560867505,
				"element": "C" 
			},
			{
				"x": -0.112749512,
				"y": 1.192056074,
				"z": -2.2745300295,
				"element": "C" 
			},
			{
				"x": -1.5465981297,
				"y": 1.4937231043,
				"z": -1.7810972925,
				"element": "C" 
			},
			{
				"x": -2.1192311116,
				"y": 0.4050632741,
				"z": -0.8385031484,
				"element": "C" 
			},
			{
				"x": -1.1904249794,
				"y": 0.2942293589,
				"z": 0.4021616675,
				"element": "C" 
			},
			{
				"x": -3.5642758163,
				"y": 0.7496543216,
				"z": -0.3490953629,
				"element": "C" 
			},
			{
				"x": -4.5307696383,
				"y": 1.2118963565,
				"z": -1.4610039039,
				"element": "C" 
			},
			{
				"x": -5.9227699783,
				"y": 1.6074935415,
				"z": -0.9190223895,
				"element": "C" 
			},
			{
				"x": -6.5927197587,
				"y": 0.4587858991,
				"z": -0.1395052971,
				"element": "C" 
			},
			{
				"x": -7.0419972801,
				"y": -0.6187353423,
				"z": -1.1585931456,
				"element": "C" 
			},
			{
				"x": -7.8481941828,
				"y": 0.771012287,
				"z": 0.768334237,
				"element": "C" 
			},
			{
				"x": -7.8422809778,
				"y": -0.4492688477,
				"z": 1.7550427952,
				"element": "C" 
			},
			{
				"x": -6.3919846081,
				"y": -1.0117470244,
				"z": 1.8047992252,
				"element": "C" 
			},
			{
				"x": -5.5859241955,
				"y": -0.0297745368,
				"z": 0.9432990201,
				"element": "C" 
			},
			{
				"x": -4.1680532083,
				"y": -0.4219631442,
				"z": 0.4823017966,
				"element": "C" 
			},
			{
				"x": -4.0556023466,
				"y": -1.8049316464,
				"z": -0.2132291067,
				"element": "C" 
			},
			{
				"x": -2.9845224433,
				"y": -1.9031267291,
				"z": -1.2667128995,
				"element": "C" 
			},
			{
				"x": -2.1341241333,
				"y": -0.9247549444,
				"z": -1.5972702129,
				"element": "C" 
			},
			{
				"x": -1.1855904981,
				"y": -1.0649428329,
				"z": -2.7755521358,
				"element": "C" 
			},
			{
				"x": -7.8801397312,
				"y": 2.1933581332,
				"z": 1.4213049599,
				"element": "C" 
			},
			{
				"x": -8.6113394453,
				"y": 2.2438369066,
				"z": 2.7747995269,
				"element": "C" 
			},
			{
				"x": -8.5396610951,
				"y": 3.1906181511,
				"z": 0.433370423,
				"element": "C" 
			},
			{
				"x": -8.4331658393,
				"y": 4.6897542158,
				"z": 0.7713851753,
				"element": "C" 
			},
			{
				"x": -7.0029942648,
				"y": 5.2505296115,
				"z": 0.7590726238,
				"element": "C" 
			},
			{
				"x": -6.9027890543,
				"y": 6.782142628,
				"z": 0.9118526964,
				"element": "C" 
			},
			{
				"x": -5.4570790329,
				"y": 7.2519741276,
				"z": 0.6909782948,
				"element": "C" 
			},
			{
				"x": -7.4258553603,
				"y": 7.2743502181,
				"z": 2.2702534976,
				"element": "C" 
			},
			{
				"x": 8.0253462652,
				"y": 3.6745856356,
				"z": 1.3652697354,
				"element": "H" 
			},
			{
				"x": 6.8098252186,
				"y": 2.4087943984,
				"z": 1.1794751028,
				"element": "H" 
			},
			{
				"x": 8.5121323796,
				"y": 2.0484816134,
				"z": 0.8685360497,
				"element": "H" 
			},
			{
				"x": 9.0404900807,
				"y": 2.5152338741,
				"z": 3.3017336229,
				"element": "H" 
			},
			{
				"x": 7.3386093308,
				"y": 2.796005933,
				"z": 3.6184138099,
				"element": "H" 
			},
			{
				"x": 8.1450457884,
				"y": 0.5245485206,
				"z": 4.3221271699,
				"element": "H" 
			},
			{
				"x": 8.5410093422,
				"y": 0.1420764317,
				"z": 2.6555395899,
				"element": "H" 
			},
			{
				"x": 5.7225769124,
				"y": 0.7941149795,
				"z": 3.678185258,
				"element": "H" 
			},
			{
				"x": 6.1157418294,
				"y": 0.3393869029,
				"z": 2.028861225,
				"element": "H" 
			},
			{
				"x": 6.9619422674,
				"y": -1.8791976203,
				"z": 2.8366554814,
				"element": "H" 
			},
			{
				"x": 6.5550357259,
				"y": -1.4380305534,
				"z": 4.4865670252,
				"element": "H" 
			},
			{
				"x": 4.5435177543,
				"y": -1.6893973197,
				"z": 2.1827752404,
				"element": "H" 
			},
			{
				"x": 4.1403238582,
				"y": -1.1778863218,
				"z": 3.8142279661,
				"element": "H" 
			},
			{
				"x": 3.5424712741,
				"y": -3.4940422379,
				"z": 3.6413102372,
				"element": "H" 
			},
			{
				"x": 4.9433539559,
				"y": -3.4042771711,
				"z": 4.6951373981,
				"element": "H" 
			},
			{
				"x": 5.1787436671,
				"y": -5.3065973051,
				"z": 3.226062734,
				"element": "H" 
			},
			{
				"x": 6.4209983489,
				"y": -4.1474630541,
				"z": 2.7967730056,
				"element": "H" 
			},
			{
				"x": 3.7420217144,
				"y": -4.4587071025,
				"z": 1.2765060198,
				"element": "H" 
			},
			{
				"x": 4.9438253892,
				"y": -4.31099703,
				"z": -0.7127210358,
				"element": "H" 
			},
			{
				"x": 7.3786354491,
				"y": -4.940611752,
				"z": -0.5702955398,
				"element": "H" 
			},
			{
				"x": 7.514600751,
				"y": -4.1945675184,
				"z": 1.006937968,
				"element": "H" 
			},
			{
				"x": 8.5303241694,
				"y": -2.7406195205,
				"z": -0.6476161023,
				"element": "H" 
			},
			{
				"x": 7.1180364524,
				"y": -1.9493201231,
				"z": 0.0397707831,
				"element": "H" 
			},
			{
				"x": 7.2026331209,
				"y": -1.5101125052,
				"z": -2.3414095062,
				"element": "H" 
			},
			{
				"x": 5.7910733142,
				"y": -2.4857473802,
				"z": -1.9921786101,
				"element": "H" 
			},
			{
				"x": 8.4506530424,
				"y": -3.6464150577,
				"z": -2.963976734,
				"element": "H" 
			},
			{
				"x": 6.9357912275,
				"y": -4.5206742498,
				"z": -2.868718246,
				"element": "H" 
			},
			{
				"x": 7.7251278078,
				"y": -3.8225107388,
				"z": -5.1694097786,
				"element": "H" 
			},
			{
				"x": 7.422933336,
				"y": -2.1487474514,
				"z": -4.7525150758,
				"element": "H" 
			},
			{
				"x": 5.6741795115,
				"y": -3.4009232685,
				"z": -6.1580989776,
				"element": "H" 
			},
			{
				"x": 5.2545237178,
				"y": -4.3205045587,
				"z": -4.7254855649,
				"element": "H" 
			},
			{
				"x": 4.4899839139,
				"y": -2.2234284204,
				"z": -3.5872307327,
				"element": "H" 
			},
			{
				"x": 5.0540966132,
				"y": -1.2596840496,
				"z": -4.953317255,
				"element": "H" 
			},
			{
				"x": 2.840578954,
				"y": -3.3787410759,
				"z": -5.0475217026,
				"element": "H" 
			},
			{
				"x": 3.3939257096,
				"y": -2.4061214536,
				"z": -6.4363445295,
				"element": "H" 
			},
			{
				"x": 0.6855361252,
				"y": -0.7840112486,
				"z": -1.7517540047,
				"element": "H" 
			},
			{
				"x": 0.6322391272,
				"y": 1.549582639,
				"z": -1.5566960244,
				"element": "H" 
			},
			{
				"x": 0.0665623103,
				"y": 1.7402732639,
				"z": -3.2046945565,
				"element": "H" 
			},
			{
				"x": -2.1976423056,
				"y": 1.5875626494,
				"z": -2.6550156056,
				"element": "H" 
			},
			{
				"x": -1.5628763386,
				"y": 2.4687629626,
				"z": -1.2787711322,
				"element": "H" 
			},
			{
				"x": -0.1595693827,
				"y": 0.0616082072,
				"z": 0.124737317,
				"element": "H" 
			},
			{
				"x": -1.1791075597,
				"y": 1.2414284826,
				"z": 0.9556401623,
				"element": "H" 
			},
			{
				"x": -1.5168210801,
				"y": -0.4950130422,
				"z": 1.0821361032,
				"element": "H" 
			},
			{
				"x": -3.4640892193,
				"y": 1.5991559266,
				"z": 0.3451706758,
				"element": "H" 
			},
			{
				"x": -4.1168700713,
				"y": 2.0863614721,
				"z": -1.9730395865,
				"element": "H" 
			},
			{
				"x": -4.6221942271,
				"y": 0.4290764829,
				"z": -2.2232494385,
				"element": "H" 
			},
			{
				"x": -6.5523115258,
				"y": 1.9319652128,
				"z": -1.7575265532,
				"element": "H" 
			},
			{
				"x": -5.7939646566,
				"y": 2.4798251476,
				"z": -0.2683213396,
				"element": "H" 
			},
			{
				"x": -6.2492035911,
				"y": -0.9066930323,
				"z": -1.8517377784,
				"element": "H" 
			},
			{
				"x": -7.8644929662,
				"y": -0.2176836963,
				"z": -1.7622718922,
				"element": "H" 
			},
			{
				"x": -7.4081450596,
				"y": -1.53063521,
				"z": -0.6786573635,
				"element": "H" 
			},
			{
				"x": -8.7567104766,
				"y": 0.7063597223,
				"z": 0.1557188524,
				"element": "H" 
			},
			{
				"x": -8.2008526398,
				"y": -0.1803304926,
				"z": 2.7485738173,
				"element": "H" 
			},
			{
				"x": -8.5335399485,
				"y": -1.2145837219,
				"z": 1.3888892904,
				"element": "H" 
			},
			{
				"x": -6.3527874067,
				"y": -2.0270636051,
				"z": 1.3956980047,
				"element": "H" 
			},
			{
				"x": -6.0012528821,
				"y": -1.0717568225,
				"z": 2.8264417365,
				"element": "H" 
			},
			{
				"x": -5.4262496523,
				"y": 0.8596260363,
				"z": 1.5734676249,
				"element": "H" 
			},
			{
				"x": -3.5711938908,
				"y": -0.4892855433,
				"z": 1.3995555533,
				"element": "H" 
			},
			{
				"x": -5.0044777679,
				"y": -2.0946687946,
				"z": -0.6765794755,
				"element": "H" 
			},
			{
				"x": -3.882539617,
				"y": -2.5745243509,
				"z": 0.5529474171,
				"element": "H" 
			},
			{
				"x": -2.9462649729,
				"y": -2.843024393,
				"z": -1.8184471424,
				"element": "H" 
			},
			{
				"x": -1.6561416143,
				"y": -0.6549840663,
				"z": -3.6817986243,
				"element": "H" 
			},
			{
				"x": -0.9707223102,
				"y": -2.1188732421,
				"z": -2.9736874132,
				"element": "H" 
			},
			{
				"x": -6.848189361,
				"y": 2.5182865253,
				"z": 1.6074862538,
				"element": "H" 
			},
			{
				"x": -8.7061871387,
				"y": 3.2752473155,
				"z": 3.1269537792,
				"element": "H" 
			},
			{
				"x": -8.0802982273,
				"y": 1.6932956647,
				"z": 3.556070006,
				"element": "H" 
			},
			{
				"x": -9.6236797102,
				"y": 1.828297364,
				"z": 2.6989387509,
				"element": "H" 
			},
			{
				"x": -8.1263584308,
				"y": 3.0351734551,
				"z": -0.5691787303,
				"element": "H" 
			},
			{
				"x": -9.6043925622,
				"y": 2.9255259674,
				"z": 0.3589794901,
				"element": "H" 
			},
			{
				"x": -8.9054418478,
				"y": 4.8897850536,
				"z": 1.7400544329,
				"element": "H" 
			},
			{
				"x": -9.0302541479,
				"y": 5.2431027061,
				"z": 0.0329890045,
				"element": "H" 
			},
			{
				"x": -6.5235510081,
				"y": 4.9650016515,
				"z": -0.187932542,
				"element": "H" 
			},
			{
				"x": -6.4062066996,
				"y": 4.7813749617,
				"z": 1.5543945286,
				"element": "H" 
			},
			{
				"x": -7.5267342048,
				"y": 7.2352052222,
				"z": 0.1261590247,
				"element": "H" 
			},
			{
				"x": -4.7872200849,
				"y": 6.8262783747,
				"z": 1.4484816518,
				"element": "H" 
			},
			{
				"x": -5.0824533107,
				"y": 6.946611566,
				"z": -0.292301711,
				"element": "H" 
			},
			{
				"x": -5.3779915602,
				"y": 8.3427027107,
				"z": 0.7560301413,
				"element": "H" 
			},
			{
				"x": -6.8528515624,
				"y": 6.827882735,
				"z": 3.0928105116,
				"element": "H" 
			},
			{
				"x": -7.3318639663,
				"y": 8.3625462675,
				"z": 2.3550876948,
				"element": "H" 
			},
			{
				"x": -8.479652009,
				"y": 7.0226315318,
				"z": 2.423013513,
				"element": "H" 
			}
		],
		 "valence_orbital": [ 
			{
				"type": "occ",
				"energy": -0.27734,
				"method": "rhf"
			},
			{
				"type": "occ",
				"energy": -0.27433,
				"method": "rhf"
			},
			{
				"type": "occ",
				"energy": -0.26767,
				"method": "rhf"
			},
			{
				"type": "occ",
				"energy": -0.23179,
				"method": "rhf"
			},
			{
				"type": "occ",
				"energy": -0.22465,
				"method": "rhf"
			},
			{
				"type": "unocc",
				"energy": 0.02764,
				"method": "rhf"
			},
			{
				"type": "unocc",
				"energy": 0.03057,
				"method": "rhf"
			},
			{
				"type": "unocc",
				"energy": 0.04737,
				"method": "rhf"
			},
			{
				"type": "unocc",
				"energy": 0.06725,
				"method": "rhf"
			},
			{
				"type": "unocc",
				"energy": 0.07105,
				"method": "rhf"
			}
		],
		"cosmo_sigma_profile": { 
			"-0.025": 0.0,
			"-0.024": 0.0,
			"-0.023": 0.0,
			"-0.022": 0.0,
			"-0.021": 0.0,
			"-0.02": 0.0,
			"-0.019": 0.0,
			"-0.018": 0.0,
			"-0.017": 0.0,
			"-0.016": 0.0,
			"-0.015": 0.0,
			"-0.014": 0.0,
			"-0.013": 0.0,
			"-0.012": 0.0,
			"-0.011": 0.0,
			"-0.01": 0.0,
			"-0.009": 0.0,
			"-0.008": 0.0,
			"-0.007": 0.0,
			"-0.006": 1.32537955631,
			"-0.005": 5.43557709244,
			"-0.004": 13.3634106732,
			"-0.003": 49.8827828599,
			"-0.002": 133.211734931,
			"-0.001": 191.974244758,
			"0.0": 191.536984355,
			"0.001": 143.854416148,
			"0.002": 73.6540155054,
			"0.003": 17.7395077791,
			"0.004": 10.8123278886,
			"0.005": 7.94704693565,
			"0.006": 6.61515673974,
			"0.007": 5.79851170028,
			"0.008": 3.64850124998,
			"0.009": 3.78731895623,
			"0.01": 4.6654144378,
			"0.011": 2.45895195568,
			"0.012": 3.5969484518,
			"0.013": 0.471337035304,
			"0.014": 0.0,
			"0.015": 0.0,
			"0.016": 0.0,
			"0.017": 0.0,
			"0.018": 0.0,
			"0.019": 0.0,
			"0.02": 0.0,
			"0.021": 0.0,
			"0.022": 0.0,
			"0.023": 0.0,
			"0.024": 0.0,
			"0.025": 0.0
		}
	}
}
