{
	 "smiles": "COC1=CC=C(C=C1O)[C@@H]1CC(=O)C2=C(O)C=C(O)C=C2O1", 
	 "Tm": 502.15, 
	 "num_atms": 36, 
	 "gaussian": { 
		 "optdone": 1, 
		 "sigma_profile": "yes", 
		 "theory": "DFT", 
		 "functional": "B3LYP", 
		 "basiset": "6-31G**", 
		 "properties": { 
			 "R2extent": 7414.1081, 
			 "electric_dipole_moment_norm": 2.94258256299, 
			 "electric_quadrupole_moment_norm": 15.5789878112, 
			 "total_energy": -1069.46890866, 
			 "HOMO_LUMO_gap": 0.1661, 
			 "cosmo_polarized_energy": -20.56, 
			 "cosmo_cavitation_energy": 39.44, 
			 "cosmo_dispersion_energy": -28.35, 
			 "cosmo_repulsion_energy": 2.17, 
			 "cosmo_total_nonelectrostatic_energy": 13.25, 
			 "SMD_solvation_energy": 8.64 
		},
		"coords": [
			{
				"x": 1.7714137594,
				"y": 3.6786160609,
				"z": -1.7209385008,
				"element": "C" 
			},
			{
				"x": 0.461002638,
				"y": 3.7455117967,
				"z": -1.1490200489,
				"element": "O" 
			},
			{
				"x": -0.1234616202,
				"y": 2.5510268189,
				"z": -0.819181275,
				"element": "C" 
			},
			{
				"x": -0.4614582925,
				"y": 2.3127162324,
				"z": 0.5097326386,
				"element": "C" 
			},
			{
				"x": -1.1186024502,
				"y": 1.1408573728,
				"z": 0.895782586,
				"element": "C" 
			},
			{
				"x": -1.4424130625,
				"y": 0.1736050216,
				"z": -0.0581917318,
				"element": "C" 
			},
			{
				"x": -1.1060816359,
				"y": 0.4118981506,
				"z": -1.3993766927,
				"element": "C" 
			},
			{
				"x": -0.4599517045,
				"y": 1.5818241827,
				"z": -1.7894693246,
				"element": "C" 
			},
			{
				"x": -0.143788767,
				"y": 1.8491916837,
				"z": -3.0930603979,
				"element": "O" 
			},
			{
				"x": -2.1889578549,
				"y": -1.1141682375,
				"z": 0.2699567921,
				"element": "C" 
			},
			{
				"x": -2.3631758002,
				"y": -1.4221298266,
				"z": 1.7565657156,
				"element": "C" 
			},
			{
				"x": -1.0396744779,
				"y": -1.7920942773,
				"z": 2.3985660717,
				"element": "C" 
			},
			{
				"x": -0.8174708351,
				"y": -1.5495538509,
				"z": 3.5985105303,
				"element": "O" 
			},
			{
				"x": -0.104434765,
				"y": -2.4845964273,
				"z": 1.5434744262,
				"element": "C" 
			},
			{
				"x": 1.1102903368,
				"y": -3.0104039216,
				"z": 2.0734297342,
				"element": "C" 
			},
			{
				"x": 1.4358809479,
				"y": -2.8077750383,
				"z": 3.3541896194,
				"element": "O" 
			},
			{
				"x": 1.9657403201,
				"y": -3.758656664,
				"z": 1.2637303399,
				"element": "C" 
			},
			{
				"x": 1.6166014051,
				"y": -3.9834766987,
				"z": -0.0712507092,
				"element": "C" 
			},
			{
				"x": 2.4107869603,
				"y": -4.7041262728,
				"z": -0.903912615,
				"element": "O" 
			},
			{
				"x": 0.4372291333,
				"y": -3.4659186718,
				"z": -0.6299509647,
				"element": "C" 
			},
			{
				"x": -0.4079534514,
				"y": -2.7203256323,
				"z": 0.1765527862,
				"element": "C" 
			},
			{
				"x": -1.5522141061,
				"y": -2.2443295413,
				"z": -0.3882651753,
				"element": "O" 
			},
			{
				"x": 1.7649621829,
				"y": 3.1678002263,
				"z": -2.6875153426,
				"element": "H" 
			},
			{
				"x": 2.4672621172,
				"y": 3.1701284903,
				"z": -1.0412572224,
				"element": "H" 
			},
			{
				"x": 2.0929889074,
				"y": 4.7132638925,
				"z": -1.8553051509,
				"element": "H" 
			},
			{
				"x": -0.1987411684,
				"y": 3.0703905387,
				"z": 1.2408549685,
				"element": "H" 
			},
			{
				"x": -1.3515154634,
				"y": 0.9944490628,
				"z": 1.9443147527,
				"element": "H" 
			},
			{
				"x": -1.349619013,
				"y": -0.3370099595,
				"z": -2.1502496618,
				"element": "H" 
			},
			{
				"x": -0.425229361,
				"y": 1.1050351134,
				"z": -3.6411172468,
				"element": "H" 
			},
			{
				"x": -3.1728748092,
				"y": -1.0828895952,
				"z": -0.2087653805,
				"element": "H" 
			},
			{
				"x": -3.0302718595,
				"y": -2.2883781623,
				"z": 1.8552314412,
				"element": "H" 
			},
			{
				"x": -2.8251774795,
				"y": -0.5960993945,
				"z": 2.3006203602,
				"element": "H" 
			},
			{
				"x": 0.6937804717,
				"y": -2.2785347713,
				"z": 3.7536920676,
				"element": "H" 
			},
			{
				"x": 2.8824727866,
				"y": -4.1556863212,
				"z": 1.6886289045,
				"element": "H" 
			},
			{
				"x": 3.1949793695,
				"y": -4.9980647413,
				"z": -0.4213203371,
				"element": "H" 
			},
			{
				"x": 0.2032766413,
				"y": -3.6377966385,
				"z": -1.6727859567,
				"element": "H" 
			}
		],
		 "valence_orbital": [ 
			{
				"type": "occ",
				"energy": -0.25998,
				"method": "rhf"
			},
			{
				"type": "occ",
				"energy": -0.24344,
				"method": "rhf"
			},
			{
				"type": "occ",
				"energy": -0.23491,
				"method": "rhf"
			},
			{
				"type": "occ",
				"energy": -0.22368,
				"method": "rhf"
			},
			{
				"type": "occ",
				"energy": -0.2193,
				"method": "rhf"
			},
			{
				"type": "unocc",
				"energy": -0.0532,
				"method": "rhf"
			},
			{
				"type": "unocc",
				"energy": -0.00957,
				"method": "rhf"
			},
			{
				"type": "unocc",
				"energy": 0.00499,
				"method": "rhf"
			},
			{
				"type": "unocc",
				"energy": 0.01024,
				"method": "rhf"
			},
			{
				"type": "unocc",
				"energy": 0.04548,
				"method": "rhf"
			}
		],
		"cosmo_sigma_profile": { 
			"-0.025": 0.0,
			"-0.024": 0.0,
			"-0.023": 0.0,
			"-0.022": 0.0,
			"-0.021": 0.0,
			"-0.02": 0.0,
			"-0.019": 0.209167326879,
			"-0.018": 1.88569530659,
			"-0.017": 2.05063733741,
			"-0.016": 2.10204027512,
			"-0.015": 2.05845045213,
			"-0.014": 2.13843566139,
			"-0.013": 2.3348668242,
			"-0.012": 1.67457500909,
			"-0.011": 1.64853997148,
			"-0.01": 2.29304704544,
			"-0.009": 2.19901294152,
			"-0.008": 2.10641376127,
			"-0.007": 10.2916920038,
			"-0.006": 16.721435155,
			"-0.005": 16.7131673788,
			"-0.004": 19.5387692938,
			"-0.003": 19.8109360936,
			"-0.002": 19.462665262,
			"-0.001": 15.1063644748,
			"0.0": 16.5259153975,
			"0.001": 17.613236038,
			"0.002": 24.6110896904,
			"0.003": 30.4584151359,
			"0.004": 22.487267557,
			"0.005": 12.6267754257,
			"0.006": 8.7895874131,
			"0.007": 6.46330495022,
			"0.008": 6.64108241317,
			"0.009": 9.46106842555,
			"0.01": 8.29252426129,
			"0.011": 5.78218120905,
			"0.012": 2.68042220609,
			"0.013": 0.871721526273,
			"0.014": 0.0415515204542,
			"0.015": 0.0,
			"0.016": 0.0,
			"0.017": 0.0,
			"0.018": 0.0,
			"0.019": 0.0,
			"0.02": 0.0,
			"0.021": 0.0,
			"0.022": 0.0,
			"0.023": 0.0,
			"0.024": 0.0,
			"0.025": 0.0
		}
	}
}
