{
	 "smiles": "CC1=C(Br)C=CC(=C1C)S(N)(=O)=O", 
	 "Tm": 469.15, 
	 "num_atms": 23, 
	 "gaussian": { 
		 "optdone": 1, 
		 "sigma_profile": "yes", 
		 "theory": "DFT", 
		 "functional": "B3LYP", 
		 "basiset": "6-31G**", 
		 "properties": { 
			 "R2extent": 6311.7728, 
			 "electric_dipole_moment_norm": 5.13290352627, 
			 "electric_quadrupole_moment_norm": 14.747667702, 
			 "total_energy": -3485.60640793, 
			 "HOMO_LUMO_gap": 0.21159, 
			 "cosmo_polarized_energy": -17.51, 
			 "cosmo_cavitation_energy": 29.0, 
			 "cosmo_dispersion_energy": -22.39, 
			 "cosmo_repulsion_energy": 1.7, 
			 "cosmo_total_nonelectrostatic_energy": 8.31, 
			 "SMD_solvation_energy": 3.5 
		},
		"coords": [
			{
				"x": -2.9588118698,
				"y": 0.7501319032,
				"z": 1.375738317,
				"element": "C" 
			},
			{
				"x": -1.5251434004,
				"y": 0.6195988819,
				"z": 1.8310491616,
				"element": "C" 
			},
			{
				"x": -1.0867553865,
				"y": 1.0924778825,
				"z": 3.0777688395,
				"element": "C" 
			},
			{
				"x": -2.2878689278,
				"y": 1.9645649608,
				"z": 4.2930490933,
				"element": "Br" 
			},
			{
				"x": 0.2335959271,
				"y": 0.9654146042,
				"z": 3.5039531174,
				"element": "C" 
			},
			{
				"x": 1.1557835762,
				"y": 0.3412675351,
				"z": 2.6758689253,
				"element": "C" 
			},
			{
				"x": 0.7512210166,
				"y": -0.1358960411,
				"z": 1.4275077176,
				"element": "C" 
			},
			{
				"x": -0.5749843383,
				"y": 0.0041872417,
				"z": 0.9772445149,
				"element": "C" 
			},
			{
				"x": -1.0326519721,
				"y": -0.4916841203,
				"z": -0.3779299239,
				"element": "C" 
			},
			{
				"x": 2.0505779189,
				"y": -0.9404992189,
				"z": 0.4502191367,
				"element": "S" 
			},
			{
				"x": 1.6010425335,
				"y": -2.550284118,
				"z": 0.2778259798,
				"element": "N" 
			},
			{
				"x": 2.0553057591,
				"y": -0.3755222302,
				"z": -0.8994779964,
				"element": "O" 
			},
			{
				"x": 3.2523956776,
				"y": -0.9599663872,
				"z": 1.2818867391,
				"element": "O" 
			},
			{
				"x": -3.3419483488,
				"y": -0.2018651748,
				"z": 0.9956695946,
				"element": "H" 
			},
			{
				"x": -3.6061456544,
				"y": 1.0765406261,
				"z": 2.1879967316,
				"element": "H" 
			},
			{
				"x": -3.0501564737,
				"y": 1.481784882,
				"z": 0.5636941142,
				"element": "H" 
			},
			{
				"x": 0.5319217912,
				"y": 1.3486680383,
				"z": 4.4723479895,
				"element": "H" 
			},
			{
				"x": 2.1882448204,
				"y": 0.2229829764,
				"z": 2.9821957397,
				"element": "H" 
			},
			{
				"x": -1.6927992795,
				"y": 0.2375044239,
				"z": -0.8544049655,
				"element": "H" 
			},
			{
				"x": -0.1983390737,
				"y": -0.6550168738,
				"z": -1.0585340782,
				"element": "H" 
			},
			{
				"x": -1.6117720037,
				"y": -1.4204009443,
				"z": -0.2837420841,
				"element": "H" 
			},
			{
				"x": 0.7633849625,
				"y": -2.6831493673,
				"z": -0.278894102,
				"element": "H" 
			},
			{
				"x": 1.5807027456,
				"y": -3.0475394803,
				"z": 1.1624674383,
				"element": "H" 
			}
		],
		 "valence_orbital": [ 
			{
				"type": "occ",
				"energy": -0.30809,
				"method": "rhf"
			},
			{
				"type": "occ",
				"energy": -0.30354,
				"method": "rhf"
			},
			{
				"type": "occ",
				"energy": -0.29683,
				"method": "rhf"
			},
			{
				"type": "occ",
				"energy": -0.26685,
				"method": "rhf"
			},
			{
				"type": "occ",
				"energy": -0.25673,
				"method": "rhf"
			},
			{
				"type": "unocc",
				"energy": -0.04514,
				"method": "rhf"
			},
			{
				"type": "unocc",
				"energy": -0.03015,
				"method": "rhf"
			},
			{
				"type": "unocc",
				"energy": -0.00517,
				"method": "rhf"
			},
			{
				"type": "unocc",
				"energy": 0.04742,
				"method": "rhf"
			},
			{
				"type": "unocc",
				"energy": 0.06681,
				"method": "rhf"
			}
		],
		"cosmo_sigma_profile": { 
			"-0.025": 0.0,
			"-0.024": 0.0,
			"-0.023": 0.0,
			"-0.022": 0.0,
			"-0.021": 0.0,
			"-0.02": 0.0,
			"-0.019": 0.0,
			"-0.018": 0.0,
			"-0.017": 0.0,
			"-0.016": 0.31859340625,
			"-0.015": 1.17546253188,
			"-0.014": 2.34117191092,
			"-0.013": 2.74644972897,
			"-0.012": 3.13551748808,
			"-0.011": 2.42513750425,
			"-0.01": 2.46819183909,
			"-0.009": 1.78096417236,
			"-0.008": 2.87464241889,
			"-0.007": 4.97924874559,
			"-0.006": 8.6606342841,
			"-0.005": 14.2006368032,
			"-0.004": 12.8445909667,
			"-0.003": 14.8320641949,
			"-0.002": 16.1273533382,
			"-0.001": 21.0142542323,
			"0.0": 17.0620281539,
			"0.001": 19.5087594622,
			"0.002": 19.1930875972,
			"0.003": 10.9261938491,
			"0.004": 12.4747854083,
			"0.005": 4.88887694527,
			"0.006": 2.63478509199,
			"0.007": 4.24880489027,
			"0.008": 4.9752996441,
			"0.009": 4.44327319746,
			"0.01": 7.96267443556,
			"0.011": 9.74808672333,
			"0.012": 3.70916059804,
			"0.013": 0.100736493505,
			"0.014": 0.0,
			"0.015": 0.0,
			"0.016": 0.0,
			"0.017": 0.0,
			"0.018": 0.0,
			"0.019": 0.0,
			"0.02": 0.0,
			"0.021": 0.0,
			"0.022": 0.0,
			"0.023": 0.0,
			"0.024": 0.0,
			"0.025": 0.0
		}
	}
}
