{
	 "smiles": "CO[C@H]1C[C@@H]2[C@@]3(C)CCC[C@@]2(COC3=O)[C@@H]2[C@H](C[C@@H]3[C@@H](O)C12C(=O)C3=C)OC(C)=O", 
	 "Tm": 399.15, 
	 "num_atms": 60, 
	 "gaussian": { 
		 "optdone": 1, 
		 "sigma_profile": "yes", 
		 "theory": "DFT", 
		 "functional": "B3LYP", 
		 "basiset": "6-31G**", 
		 "properties": { 
			 "R2extent": 10714.597, 
			 "electric_dipole_moment_norm": 2.34322798933, 
			 "electric_quadrupole_moment_norm": 28.8107034546, 
			 "total_energy": -1421.06121173, 
			 "HOMO_LUMO_gap": 0.17638, 
			 "cosmo_polarized_energy": -25.95, 
			 "cosmo_cavitation_energy": 53.05, 
			 "cosmo_dispersion_energy": -35.14, 
			 "cosmo_repulsion_energy": 2.59, 
			 "cosmo_total_nonelectrostatic_energy": 20.49, 
			 "SMD_solvation_energy": 11.54 
		},
		"coords": [
			{
				"x": 0.3493309604,
				"y": 3.1130705806,
				"z": 1.5335969506,
				"element": "C" 
			},
			{
				"x": 0.0108185421,
				"y": 1.8322772639,
				"z": 1.0300844673,
				"element": "O" 
			},
			{
				"x": 0.8041318324,
				"y": 0.7542331335,
				"z": 1.5316134149,
				"element": "C" 
			},
			{
				"x": -0.1110027503,
				"y": -0.1755527648,
				"z": 2.3293140464,
				"element": "C" 
			},
			{
				"x": -1.2840329474,
				"y": -0.66051935,
				"z": 1.4562300253,
				"element": "C" 
			},
			{
				"x": -2.2400488002,
				"y": -1.6455623909,
				"z": 2.2011421973,
				"element": "C" 
			},
			{
				"x": -2.9173837428,
				"y": -0.9924907273,
				"z": 3.4144329001,
				"element": "C" 
			},
			{
				"x": -3.3462052845,
				"y": -2.1947077137,
				"z": 1.2206450852,
				"element": "C" 
			},
			{
				"x": -3.446913783,
				"y": -1.3695756291,
				"z": -0.067887244,
				"element": "C" 
			},
			{
				"x": -2.1056547698,
				"y": -1.2712791154,
				"z": -0.8324004699,
				"element": "C" 
			},
			{
				"x": -0.8586531784,
				"y": -1.3268785606,
				"z": 0.113628733,
				"element": "C" 
			},
			{
				"x": -0.5526371496,
				"y": -2.841481053,
				"z": 0.3852796806,
				"element": "C" 
			},
			{
				"x": -0.4367007617,
				"y": -3.2378541564,
				"z": 1.7648172278,
				"element": "O" 
			},
			{
				"x": -1.3655859986,
				"y": -2.8049722503,
				"z": 2.6706000462,
				"element": "C" 
			},
			{
				"x": -1.3913876133,
				"y": -3.312479473,
				"z": 3.765614723,
				"element": "O" 
			},
			{
				"x": 0.3159169617,
				"y": -0.5430500346,
				"z": -0.5927807217,
				"element": "C" 
			},
			{
				"x": 0.8974584033,
				"y": -1.2895135843,
				"z": -1.8248325151,
				"element": "C" 
			},
			{
				"x": 2.2026397786,
				"y": -2.0818702946,
				"z": -1.5799656059,
				"element": "C" 
			},
			{
				"x": 3.1579164609,
				"y": -1.4094424592,
				"z": -0.5680574847,
				"element": "C" 
			},
			{
				"x": 2.3919743972,
				"y": -1.154481348,
				"z": 0.7561196511,
				"element": "C" 
			},
			{
				"x": 3.2441887403,
				"y": -0.6563704045,
				"z": 1.7819035285,
				"element": "O" 
			},
			{
				"x": 1.4425781946,
				"y": -0.0032227728,
				"z": 0.3509086718,
				"element": "C" 
			},
			{
				"x": 2.4319667749,
				"y": 0.8911197238,
				"z": -0.4562614317,
				"element": "C" 
			},
			{
				"x": 2.3817466191,
				"y": 2.0954874567,
				"z": -0.5990946633,
				"element": "O" 
			},
			{
				"x": 3.5142105532,
				"y": -0.0036636399,
				"z": -0.9890738486,
				"element": "C" 
			},
			{
				"x": 4.5717753954,
				"y": 0.4525275725,
				"z": -1.661306978,
				"element": "C" 
			},
			{
				"x": 1.1458775145,
				"y": -0.2512448443,
				"z": -2.8148823377,
				"element": "O" 
			},
			{
				"x": 1.1283048877,
				"y": -0.6216710395,
				"z": -4.1187787283,
				"element": "C" 
			},
			{
				"x": 1.4151350885,
				"y": 0.5619062255,
				"z": -5.0097337736,
				"element": "C" 
			},
			{
				"x": 0.9096134264,
				"y": -1.7540177928,
				"z": -4.4933426417,
				"element": "O" 
			},
			{
				"x": -0.3758546869,
				"y": 3.8162824926,
				"z": 1.1151962356,
				"element": "H" 
			},
			{
				"x": 1.3551028523,
				"y": 3.4114399587,
				"z": 1.2194047662,
				"element": "H" 
			},
			{
				"x": 0.2783546336,
				"y": 3.151640775,
				"z": 2.6313453887,
				"element": "H" 
			},
			{
				"x": 1.6042353547,
				"y": 1.1349614042,
				"z": 2.1739400378,
				"element": "H" 
			},
			{
				"x": 0.4766480853,
				"y": -1.0045095283,
				"z": 2.7365087942,
				"element": "H" 
			},
			{
				"x": -0.5039691767,
				"y": 0.3849727003,
				"z": 3.1831889772,
				"element": "H" 
			},
			{
				"x": -1.8497648801,
				"y": 0.2416218726,
				"z": 1.2041456823,
				"element": "H" 
			},
			{
				"x": -3.5495463295,
				"y": -0.1604084739,
				"z": 3.0856845573,
				"element": "H" 
			},
			{
				"x": -3.5421710924,
				"y": -1.7224960423,
				"z": 3.9342296522,
				"element": "H" 
			},
			{
				"x": -2.1941997277,
				"y": -0.6136736452,
				"z": 4.1393285663,
				"element": "H" 
			},
			{
				"x": -3.1653833035,
				"y": -3.2478117386,
				"z": 0.9758953431,
				"element": "H" 
			},
			{
				"x": -4.3080496889,
				"y": -2.1820795248,
				"z": 1.7422961047,
				"element": "H" 
			},
			{
				"x": -3.7907819312,
				"y": -0.3615475806,
				"z": 0.1903241936,
				"element": "H" 
			},
			{
				"x": -4.2193178278,
				"y": -1.7908029351,
				"z": -0.72057038,
				"element": "H" 
			},
			{
				"x": -2.0940947854,
				"y": -0.3339937387,
				"z": -1.3979813101,
				"element": "H" 
			},
			{
				"x": -2.039860163,
				"y": -2.0746960356,
				"z": -1.57585,
				"element": "H" 
			},
			{
				"x": 0.3915823586,
				"y": -3.1567678484,
				"z": -0.0510403815,
				"element": "H" 
			},
			{
				"x": -1.3262853949,
				"y": -3.4651578854,
				"z": -0.0720224239,
				"element": "H" 
			},
			{
				"x": -0.1523678932,
				"y": 0.3599722562,
				"z": -0.9916012293,
				"element": "H" 
			},
			{
				"x": 0.157207235,
				"y": -1.9659407908,
				"z": -2.2584340267,
				"element": "H" 
			},
			{
				"x": 2.7003165922,
				"y": -2.2279933006,
				"z": -2.5420012829,
				"element": "H" 
			},
			{
				"x": 1.9539908693,
				"y": -3.086180757,
				"z": -1.2181694704,
				"element": "H" 
			},
			{
				"x": 4.0374139468,
				"y": -2.0463726439,
				"z": -0.4172320337,
				"element": "H" 
			},
			{
				"x": 1.8626815789,
				"y": -2.0482863231,
				"z": 1.1053233491,
				"element": "H" 
			},
			{
				"x": 3.8909851387,
				"y": -1.3396387079,
				"z": 2.0008121301,
				"element": "H" 
			},
			{
				"x": 5.3637387489,
				"y": -0.199823576,
				"z": -2.0185577402,
				"element": "H" 
			},
			{
				"x": 4.6618121706,
				"y": 1.5171320376,
				"z": -1.8589492788,
				"element": "H" 
			},
			{
				"x": 2.4004450192,
				"y": 0.9730217746,
				"z": -4.7705485689,
				"element": "H" 
			},
			{
				"x": 0.6829372332,
				"y": 1.3543212149,
				"z": -4.8302008244,
				"element": "H" 
			},
			{
				"x": 1.3821173119,
				"y": 0.2489940321,
				"z": -6.0527977326,
				"element": "H" 
			}
		],
		 "valence_orbital": [ 
			{
				"type": "occ",
				"energy": -0.27553,
				"method": "rhf"
			},
			{
				"type": "occ",
				"energy": -0.26612,
				"method": "rhf"
			},
			{
				"type": "occ",
				"energy": -0.25598,
				"method": "rhf"
			},
			{
				"type": "occ",
				"energy": -0.25075,
				"method": "rhf"
			},
			{
				"type": "occ",
				"energy": -0.23257,
				"method": "rhf"
			},
			{
				"type": "unocc",
				"energy": -0.05619,
				"method": "rhf"
			},
			{
				"type": "unocc",
				"energy": 0.00708,
				"method": "rhf"
			},
			{
				"type": "unocc",
				"energy": 0.01314,
				"method": "rhf"
			},
			{
				"type": "unocc",
				"energy": 0.05276,
				"method": "rhf"
			},
			{
				"type": "unocc",
				"energy": 0.05893,
				"method": "rhf"
			}
		],
		"cosmo_sigma_profile": { 
			"-0.025": 0.0,
			"-0.024": 0.0,
			"-0.023": 0.0,
			"-0.022": 0.0,
			"-0.021": 0.0,
			"-0.02": 0.0,
			"-0.019": 0.0,
			"-0.018": 0.0,
			"-0.017": 0.0689981875467,
			"-0.016": 0.821067218193,
			"-0.015": 1.38503105242,
			"-0.014": 0.731364783086,
			"-0.013": 0.817713643616,
			"-0.012": 1.14022216459,
			"-0.011": 0.662345782813,
			"-0.01": 1.755680646,
			"-0.009": 1.89656764487,
			"-0.008": 4.03309651495,
			"-0.007": 8.30667261152,
			"-0.006": 17.3296944192,
			"-0.005": 20.1953934476,
			"-0.004": 41.6810910974,
			"-0.003": 51.6927540943,
			"-0.002": 54.8076289281,
			"-0.001": 41.40936555,
			"0.0": 27.7956005911,
			"0.001": 16.6667483288,
			"0.002": 11.9467090401,
			"0.003": 9.91794549519,
			"0.004": 11.7949571835,
			"0.005": 10.3161327161,
			"0.006": 9.54212086497,
			"0.007": 8.55289077072,
			"0.008": 9.15384774815,
			"0.009": 7.54195124515,
			"0.01": 10.5072026096,
			"0.011": 11.5763546564,
			"0.012": 13.2044643007,
			"0.013": 4.46894683643,
			"0.014": 0.453395991913,
			"0.015": 0.0,
			"0.016": 0.0,
			"0.017": 0.0,
			"0.018": 0.0,
			"0.019": 0.0,
			"0.02": 0.0,
			"0.021": 0.0,
			"0.022": 0.0,
			"0.023": 0.0,
			"0.024": 0.0,
			"0.025": 0.0
		}
	}
}
