{
	 "smiles": "C[Si](C1=CC=CC=C1)(C1=CC=CC=C1)C1=CC=CC=C1", 
	 "Tm": 341.35, 
	 "num_atms": 38, 
	 "gaussian": { 
		 "optdone": 1, 
		 "sigma_profile": "yes", 
		 "theory": "DFT", 
		 "functional": "B3LYP", 
		 "basiset": "6-31G**", 
		 "properties": { 
			 "R2extent": 6282.428, 
			 "electric_dipole_moment_norm": 0.0833324666622, 
			 "electric_quadrupole_moment_norm": 3.61616153815, 
			 "total_energy": -1024.40279539, 
			 "HOMO_LUMO_gap": 0.22767, 
			 "cosmo_polarized_energy": -7.07, 
			 "cosmo_cavitation_energy": 42.82, 
			 "cosmo_dispersion_energy": -27.07, 
			 "cosmo_repulsion_energy": 2.17, 
			 "cosmo_total_nonelectrostatic_energy": 17.92, 
			 "SMD_solvation_energy": 7.84 
		},
		"coords": [
			{
				"x": 1.3814721865,
				"y": 0.9327049296,
				"z": -2.6836557658,
				"element": "C" 
			},
			{
				"x": 0.499304095,
				"y": 0.3030521673,
				"z": -1.1315364172,
				"element": "Si" 
			},
			{
				"x": -1.3611340643,
				"y": 0.610078036,
				"z": -1.3012459537,
				"element": "C" 
			},
			{
				"x": -2.3096710157,
				"y": -0.3904910994,
				"z": -1.0217365467,
				"element": "C" 
			},
			{
				"x": -3.6798688166,
				"y": -0.1467528966,
				"z": -1.1421570478,
				"element": "C" 
			},
			{
				"x": -4.1336188312,
				"y": 1.1089994155,
				"z": -1.5472808514,
				"element": "C" 
			},
			{
				"x": -3.2116262845,
				"y": 2.1193026243,
				"z": -1.8306738652,
				"element": "C" 
			},
			{
				"x": -1.8444083028,
				"y": 1.8692129046,
				"z": -1.7087105441,
				"element": "C" 
			},
			{
				"x": 0.8227254388,
				"y": -1.5522071934,
				"z": -0.9371349462,
				"element": "C" 
			},
			{
				"x": 1.2371531001,
				"y": -2.1121539204,
				"z": 0.2850013512,
				"element": "C" 
			},
			{
				"x": 1.4641625435,
				"y": -3.4842967446,
				"z": 0.4156472606,
				"element": "C" 
			},
			{
				"x": 1.2811839667,
				"y": -4.3304952578,
				"z": -0.6785923904,
				"element": "C" 
			},
			{
				"x": 0.8699634573,
				"y": -3.7987899691,
				"z": -1.9030582864,
				"element": "C" 
			},
			{
				"x": 0.645331868,
				"y": -2.4273437154,
				"z": -2.0269703043,
				"element": "C" 
			},
			{
				"x": 1.1606672393,
				"y": 1.226657007,
				"z": 0.3830393304,
				"element": "C" 
			},
			{
				"x": 0.302175157,
				"y": 1.7855916351,
				"z": 1.3471794888,
				"element": "C" 
			},
			{
				"x": 0.8037498541,
				"y": 2.4565846587,
				"z": 2.4649825582,
				"element": "C" 
			},
			{
				"x": 2.1816886682,
				"y": 2.584357902,
				"z": 2.643606803,
				"element": "C" 
			},
			{
				"x": 3.0550699787,
				"y": 2.0380462696,
				"z": 1.7003013386,
				"element": "C" 
			},
			{
				"x": 2.5475805655,
				"y": 1.3693615903,
				"z": 0.585814978,
				"element": "C" 
			},
			{
				"x": 1.176134722,
				"y": 1.9948649382,
				"z": -2.8530932342,
				"element": "H" 
			},
			{
				"x": 1.0556551997,
				"y": 0.3848964665,
				"z": -3.5740538929,
				"element": "H" 
			},
			{
				"x": 2.4666271308,
				"y": 0.8133641549,
				"z": -2.5987124518,
				"element": "H" 
			},
			{
				"x": -1.9736112955,
				"y": -1.3759047837,
				"z": -0.7106827296,
				"element": "H" 
			},
			{
				"x": -4.3917015059,
				"y": -0.9376053929,
				"z": -0.9210930183,
				"element": "H" 
			},
			{
				"x": -5.1989762717,
				"y": 1.3003928265,
				"z": -1.6428825429,
				"element": "H" 
			},
			{
				"x": -3.5577898334,
				"y": 3.0994664518,
				"z": -2.1476321138,
				"element": "H" 
			},
			{
				"x": -1.145198576,
				"y": 2.671801374,
				"z": -1.9334120897,
				"element": "H" 
			},
			{
				"x": 1.3898325111,
				"y": -1.4669633575,
				"z": 1.1458957637,
				"element": "H" 
			},
			{
				"x": 1.784890479,
				"y": -3.8912142812,
				"z": 1.3709344468,
				"element": "H" 
			},
			{
				"x": 1.4583805217,
				"y": -5.3979884427,
				"z": -0.5795091437,
				"element": "H" 
			},
			{
				"x": 0.726328396,
				"y": -4.451757281,
				"z": -2.7598055104,
				"element": "H" 
			},
			{
				"x": 0.3240901942,
				"y": -2.0362058881,
				"z": -2.9899791363,
				"element": "H" 
			},
			{
				"x": -0.7736802954,
				"y": 1.7002750378,
				"z": 1.2207573362,
				"element": "H" 
			},
			{
				"x": 0.1185850294,
				"y": 2.8801615105,
				"z": 3.1944695696,
				"element": "H" 
			},
			{
				"x": 2.5740371389,
				"y": 3.1070418579,
				"z": 3.5117199765,
				"element": "H" 
			},
			{
				"x": 4.1294207617,
				"y": 2.1346270392,
				"z": 1.8324279018,
				"element": "H" 
			},
			{
				"x": 3.2470748896,
				"y": 0.9510294266,
				"z": -0.1347693205,
				"element": "H" 
			}
		],
		 "valence_orbital": [ 
			{
				"type": "occ",
				"energy": -0.24856,
				"method": "rhf"
			},
			{
				"type": "occ",
				"energy": -0.24849,
				"method": "rhf"
			},
			{
				"type": "occ",
				"energy": -0.2441,
				"method": "rhf"
			},
			{
				"type": "occ",
				"energy": -0.24406,
				"method": "rhf"
			},
			{
				"type": "occ",
				"energy": -0.24087,
				"method": "rhf"
			},
			{
				"type": "unocc",
				"energy": -0.0132,
				"method": "rhf"
			},
			{
				"type": "unocc",
				"energy": -0.00998,
				"method": "rhf"
			},
			{
				"type": "unocc",
				"energy": -0.00988,
				"method": "rhf"
			},
			{
				"type": "unocc",
				"energy": -0.00278,
				"method": "rhf"
			},
			{
				"type": "unocc",
				"energy": 0.0062,
				"method": "rhf"
			}
		],
		"cosmo_sigma_profile": { 
			"-0.025": 0.0,
			"-0.024": 0.0,
			"-0.023": 0.0,
			"-0.022": 0.0,
			"-0.021": 0.0,
			"-0.02": 0.0,
			"-0.019": 0.0,
			"-0.018": 0.0,
			"-0.017": 0.0,
			"-0.016": 0.0,
			"-0.015": 0.0,
			"-0.014": 0.0,
			"-0.013": 0.0,
			"-0.012": 0.0,
			"-0.011": 0.0,
			"-0.01": 0.0,
			"-0.009": 0.0,
			"-0.008": 0.0,
			"-0.007": 0.0,
			"-0.006": 7.75682092076,
			"-0.005": 28.173508814,
			"-0.004": 34.1193504027,
			"-0.003": 37.3366488034,
			"-0.002": 22.9181518016,
			"-0.001": 26.1489388769,
			"0.0": 27.4373274637,
			"0.001": 30.7789641611,
			"0.002": 29.8719414227,
			"0.003": 24.7623847205,
			"0.004": 22.8411186803,
			"0.005": 23.1468614237,
			"0.006": 20.4520838996,
			"0.007": 1.65208298117,
			"0.008": 0.0,
			"0.009": 0.0,
			"0.01": 0.0,
			"0.011": 0.0,
			"0.012": 0.0,
			"0.013": 0.0,
			"0.014": 0.0,
			"0.015": 0.0,
			"0.016": 0.0,
			"0.017": 0.0,
			"0.018": 0.0,
			"0.019": 0.0,
			"0.02": 0.0,
			"0.021": 0.0,
			"0.022": 0.0,
			"0.023": 0.0,
			"0.024": 0.0,
			"0.025": 0.0
		}
	}
}
