{
	 "smiles": "CC1=CNC(=O)N1C1=C(Cl)C=CC=C1", 
	 "Tm": 473.15, 
	 "num_atms": 23, 
	 "gaussian": { 
		 "optdone": 1, 
		 "sigma_profile": "yes", 
		 "theory": "DFT", 
		 "functional": "B3LYP", 
		 "basiset": "6-31G**", 
		 "properties": { 
			 "R2extent": 3062.9582, 
			 "electric_dipole_moment_norm": 3.51318744305, 
			 "electric_quadrupole_moment_norm": 18.5732004714, 
			 "total_energy": -1031.41876108, 
			 "HOMO_LUMO_gap": 0.16806, 
			 "cosmo_polarized_energy": -14.91, 
			 "cosmo_cavitation_energy": 28.8, 
			 "cosmo_dispersion_energy": -20.42, 
			 "cosmo_repulsion_energy": 1.62, 
			 "cosmo_total_nonelectrostatic_energy": 10.0, 
			 "SMD_solvation_energy": 6.14 
		},
		"coords": [
			{
				"x": -0.9331272405,
				"y": 1.5425086058,
				"z": 0.3916696154,
				"element": "C" 
			},
			{
				"x": -0.0527739081,
				"y": 1.2687356742,
				"z": -0.7794479026,
				"element": "C" 
			},
			{
				"x": 0.1429262903,
				"y": 1.9840905101,
				"z": -1.9095247176,
				"element": "C" 
			},
			{
				"x": 1.1135606773,
				"y": 1.3316197563,
				"z": -2.6734976157,
				"element": "N" 
			},
			{
				"x": 1.5694314275,
				"y": 0.1894689393,
				"z": -2.0390455716,
				"element": "C" 
			},
			{
				"x": 2.4236346217,
				"y": -0.6013037734,
				"z": -2.408632263,
				"element": "O" 
			},
			{
				"x": 0.8131105497,
				"y": 0.1536451823,
				"z": -0.8506874398,
				"element": "N" 
			},
			{
				"x": 0.9664984887,
				"y": -0.8773896114,
				"z": 0.1111335816,
				"element": "C" 
			},
			{
				"x": -0.0130983711,
				"y": -1.8636356924,
				"z": 0.3109266877,
				"element": "C" 
			},
			{
				"x": -1.4745470139,
				"y": -1.8794262173,
				"z": -0.6598900878,
				"element": "Cl" 
			},
			{
				"x": 0.1641235316,
				"y": -2.8649449893,
				"z": 1.2662008991,
				"element": "C" 
			},
			{
				"x": 1.3385568638,
				"y": -2.9047186959,
				"z": 2.016105808,
				"element": "C" 
			},
			{
				"x": 2.3336876262,
				"y": -1.9478654727,
				"z": 1.8113532261,
				"element": "C" 
			},
			{
				"x": 2.1426908481,
				"y": -0.9419273176,
				"z": 0.8677140036,
				"element": "C" 
			},
			{
				"x": -1.4486404931,
				"y": 2.4950587107,
				"z": 0.2455150145,
				"element": "H" 
			},
			{
				"x": -1.6911046595,
				"y": 0.7640571554,
				"z": 0.5283061172,
				"element": "H" 
			},
			{
				"x": -0.3566686036,
				"y": 1.609292455,
				"z": 1.3220525226,
				"element": "H" 
			},
			{
				"x": -0.3162285782,
				"y": 2.9070853868,
				"z": -2.2253437733,
				"element": "H" 
			},
			{
				"x": 1.477328694,
				"y": 1.617891556,
				"z": -3.5668308496,
				"element": "H" 
			},
			{
				"x": -0.6105446438,
				"y": -3.6109651343,
				"z": 1.4039514846,
				"element": "H" 
			},
			{
				"x": 1.4749416702,
				"y": -3.6899071176,
				"z": 2.7534724706,
				"element": "H" 
			},
			{
				"x": 3.2539777854,
				"y": -1.9820501622,
				"z": 2.3857412353,
				"element": "H" 
			},
			{
				"x": 2.9044644375,
				"y": -0.1898197479,
				"z": 0.6931575548,
				"element": "H" 
			}
		],
		 "valence_orbital": [ 
			{
				"type": "occ",
				"energy": -0.29701,
				"method": "rhf"
			},
			{
				"type": "occ",
				"energy": -0.2631,
				"method": "rhf"
			},
			{
				"type": "occ",
				"energy": -0.25519,
				"method": "rhf"
			},
			{
				"type": "occ",
				"energy": -0.2482,
				"method": "rhf"
			},
			{
				"type": "occ",
				"energy": -0.19008,
				"method": "rhf"
			},
			{
				"type": "unocc",
				"energy": -0.02202,
				"method": "rhf"
			},
			{
				"type": "unocc",
				"energy": -0.01715,
				"method": "rhf"
			},
			{
				"type": "unocc",
				"energy": 0.02614,
				"method": "rhf"
			},
			{
				"type": "unocc",
				"energy": 0.04395,
				"method": "rhf"
			},
			{
				"type": "unocc",
				"energy": 0.075,
				"method": "rhf"
			}
		],
		"cosmo_sigma_profile": { 
			"-0.025": 0.0,
			"-0.024": 0.0,
			"-0.023": 0.0,
			"-0.022": 0.0,
			"-0.021": 0.0,
			"-0.02": 0.0,
			"-0.019": 0.0,
			"-0.018": 0.0,
			"-0.017": 0.0,
			"-0.016": 0.672695772242,
			"-0.015": 1.49899340566,
			"-0.014": 0.877452717537,
			"-0.013": 1.28335538911,
			"-0.012": 1.15262471736,
			"-0.011": 0.513214329592,
			"-0.01": 0.513807706234,
			"-0.009": 2.07734637881,
			"-0.008": 4.00906726967,
			"-0.007": 8.76028321099,
			"-0.006": 12.3348757108,
			"-0.005": 14.606603607,
			"-0.004": 12.4503155682,
			"-0.003": 13.7073838088,
			"-0.002": 16.2130226781,
			"-0.001": 19.3750697461,
			"0.0": 16.7189075456,
			"0.001": 18.4709346948,
			"0.002": 20.9783700734,
			"0.003": 20.7956447645,
			"0.004": 16.4710316698,
			"0.005": 6.27358991493,
			"0.006": 1.75601049732,
			"0.007": 1.11293878121,
			"0.008": 1.05334836617,
			"0.009": 2.06112757668,
			"0.01": 1.49634910177,
			"0.011": 1.40110034542,
			"0.012": 1.29460767546,
			"0.013": 2.39311906174,
			"0.014": 5.81690385239,
			"0.015": 4.14217606978,
			"0.016": 0.107359089905,
			"0.017": 0.0,
			"0.018": 0.0,
			"0.019": 0.0,
			"0.02": 0.0,
			"0.021": 0.0,
			"0.022": 0.0,
			"0.023": 0.0,
			"0.024": 0.0,
			"0.025": 0.0
		}
	}
}
