{
	 "smiles": "CN1N=C(C=C1C1=CC=CS1)C(O)=O", 
	 "Tm": 430.15, 
	 "num_atms": 22, 
	 "gaussian": { 
		 "optdone": 1, 
		 "sigma_profile": "yes", 
		 "theory": "DFT", 
		 "functional": "B3LYP", 
		 "basiset": "6-31G**", 
		 "properties": { 
			 "R2extent": 4859.9687, 
			 "electric_dipole_moment_norm": 4.26184920662, 
			 "electric_quadrupole_moment_norm": 11.6014818972, 
			 "total_energy": -1005.89929955, 
			 "HOMO_LUMO_gap": 0.18252, 
			 "cosmo_polarized_energy": -15.03, 
			 "cosmo_cavitation_energy": 28.84, 
			 "cosmo_dispersion_energy": -21.45, 
			 "cosmo_repulsion_energy": 1.64, 
			 "cosmo_total_nonelectrostatic_energy": 9.03, 
			 "SMD_solvation_energy": 5.24 
		},
		"coords": [
			{
				"x": 1.8783594616,
				"y": 1.1035141099,
				"z": -0.3869847672,
				"element": "C" 
			},
			{
				"x": 0.7079172762,
				"y": 0.947683079,
				"z": -1.2354631801,
				"element": "N" 
			},
			{
				"x": 0.8688118764,
				"y": 0.4258701525,
				"z": -2.4589840421,
				"element": "N" 
			},
			{
				"x": -0.3642597762,
				"y": 0.3843769687,
				"z": -2.9807550239,
				"element": "C" 
			},
			{
				"x": -1.3267067161,
				"y": 0.8891943723,
				"z": -2.0842754086,
				"element": "C" 
			},
			{
				"x": -0.6080528804,
				"y": 1.256124721,
				"z": -0.9558104789,
				"element": "C" 
			},
			{
				"x": -1.0663792235,
				"y": 1.8291463748,
				"z": 0.3014986482,
				"element": "C" 
			},
			{
				"x": -0.4770430955,
				"y": 2.769679413,
				"z": 1.1184496609,
				"element": "C" 
			},
			{
				"x": -1.2647175139,
				"y": 3.1018416712,
				"z": 2.258593668,
				"element": "C" 
			},
			{
				"x": -2.4487925926,
				"y": 2.4179993032,
				"z": 2.30265801,
				"element": "C" 
			},
			{
				"x": -2.6168692415,
				"y": 1.3426255686,
				"z": 0.9560351258,
				"element": "S" 
			},
			{
				"x": -0.6471857759,
				"y": -0.130596414,
				"z": -4.3328775827,
				"element": "C" 
			},
			{
				"x": 0.4539604701,
				"y": -0.550956978,
				"z": -4.9941035499,
				"element": "O" 
			},
			{
				"x": -1.7634373549,
				"y": -0.1752844203,
				"z": -4.8138555861,
				"element": "O" 
			},
			{
				"x": 2.6200135485,
				"y": 0.3780439831,
				"z": -0.7194968225,
				"element": "H" 
			},
			{
				"x": 2.2996152641,
				"y": 2.1105902349,
				"z": -0.4728847558,
				"element": "H" 
			},
			{
				"x": 1.6069175824,
				"y": 0.9143364797,
				"z": 0.6528580714,
				"element": "H" 
			},
			{
				"x": -2.3876931285,
				"y": 0.987291189,
				"z": -2.2527255677,
				"element": "H" 
			},
			{
				"x": 0.4734648798,
				"y": 3.2384097357,
				"z": 0.8936414262,
				"element": "H" 
			},
			{
				"x": -0.9652036994,
				"y": 3.8274428811,
				"z": 3.0060376813,
				"element": "H" 
			},
			{
				"x": -3.2319833614,
				"y": 2.4799054702,
				"z": 3.0454365831,
				"element": "H" 
			},
			{
				"x": 0.1329640005,
				"y": -0.8611378956,
				"z": -5.8570921092,
				"element": "H" 
			}
		],
		 "valence_orbital": [ 
			{
				"type": "occ",
				"energy": -0.28333,
				"method": "rhf"
			},
			{
				"type": "occ",
				"energy": -0.27053,
				"method": "rhf"
			},
			{
				"type": "occ",
				"energy": -0.26379,
				"method": "rhf"
			},
			{
				"type": "occ",
				"energy": -0.25947,
				"method": "rhf"
			},
			{
				"type": "occ",
				"energy": -0.22488,
				"method": "rhf"
			},
			{
				"type": "unocc",
				"energy": -0.04236,
				"method": "rhf"
			},
			{
				"type": "unocc",
				"energy": -0.0251,
				"method": "rhf"
			},
			{
				"type": "unocc",
				"energy": 0.01567,
				"method": "rhf"
			},
			{
				"type": "unocc",
				"energy": 0.03264,
				"method": "rhf"
			},
			{
				"type": "unocc",
				"energy": 0.06185,
				"method": "rhf"
			}
		],
		"cosmo_sigma_profile": { 
			"-0.025": 0.0,
			"-0.024": 0.0,
			"-0.023": 0.0,
			"-0.022": 0.0,
			"-0.021": 0.0,
			"-0.02": 0.0,
			"-0.019": 0.0848198890211,
			"-0.018": 0.751363676332,
			"-0.017": 0.835467433311,
			"-0.016": 1.00803668862,
			"-0.015": 0.777432327463,
			"-0.014": 0.876356030578,
			"-0.013": 0.288823729945,
			"-0.012": 0.496669964919,
			"-0.011": 0.957379153473,
			"-0.01": 1.039801194,
			"-0.009": 1.43881900124,
			"-0.008": 4.73384007834,
			"-0.007": 11.2885341771,
			"-0.006": 14.1656997554,
			"-0.005": 15.0789931255,
			"-0.004": 15.7035462754,
			"-0.003": 14.434711049,
			"-0.002": 12.0318881448,
			"-0.001": 13.8237493776,
			"0.0": 14.3345768435,
			"0.001": 15.4815385745,
			"0.002": 19.8823747335,
			"0.003": 20.2250760798,
			"0.004": 13.9624547895,
			"0.005": 6.94048696844,
			"0.006": 3.43657406284,
			"0.007": 2.65181119752,
			"0.008": 3.80686589897,
			"0.009": 3.40803046926,
			"0.01": 4.35231079381,
			"0.011": 5.26842679606,
			"0.012": 6.11988396027,
			"0.013": 2.05502560592,
			"0.014": 1.1158663168,
			"0.015": 0.517413216197,
			"0.016": 0.0,
			"0.017": 0.0,
			"0.018": 0.0,
			"0.019": 0.0,
			"0.02": 0.0,
			"0.021": 0.0,
			"0.022": 0.0,
			"0.023": 0.0,
			"0.024": 0.0,
			"0.025": 0.0
		}
	}
}
