{
	 "smiles": "COC1=C(C=CC=C1Cl)[N+]([O-])=O", 
	 "Tm": 331.15, 
	 "num_atms": 18, 
	 "gaussian": { 
		 "optdone": 1, 
		 "sigma_profile": "yes", 
		 "theory": "DFT", 
		 "functional": "B3LYP", 
		 "basiset": "6-31G**", 
		 "properties": { 
			 "R2extent": 2393.9949, 
			 "electric_dipole_moment_norm": 3.69612158079, 
			 "electric_quadrupole_moment_norm": 12.7377975074, 
			 "total_energy": -1010.84698101, 
			 "HOMO_LUMO_gap": 0.17356, 
			 "cosmo_polarized_energy": -8.79, 
			 "cosmo_cavitation_energy": 24.44, 
			 "cosmo_dispersion_energy": -18.06, 
			 "cosmo_repulsion_energy": 1.43, 
			 "cosmo_total_nonelectrostatic_energy": 7.82, 
			 "SMD_solvation_energy": 6.93 
		},
		"coords": [
			{
				"x": 0.8820353128,
				"y": -1.3039167193,
				"z": -2.1525353357,
				"element": "C" 
			},
			{
				"x": -0.2539071115,
				"y": -0.8281660534,
				"z": -1.4050085362,
				"element": "O" 
			},
			{
				"x": -0.0185311201,
				"y": 0.1475318773,
				"z": -0.4961702602,
				"element": "C" 
			},
			{
				"x": -0.2748672364,
				"y": 1.5069957539,
				"z": -0.7650171546,
				"element": "C" 
			},
			{
				"x": -0.1592475974,
				"y": 2.494668797,
				"z": 0.2129485396,
				"element": "C" 
			},
			{
				"x": 0.2580359611,
				"y": 2.1464167518,
				"z": 1.492061019,
				"element": "C" 
			},
			{
				"x": 0.5234285325,
				"y": 0.8112631462,
				"z": 1.7979826084,
				"element": "C" 
			},
			{
				"x": 0.375749647,
				"y": -0.1693031068,
				"z": 0.8189102946,
				"element": "C" 
			},
			{
				"x": 0.6496719089,
				"y": -1.8441223119,
				"z": 1.242530183,
				"element": "Cl" 
			},
			{
				"x": -0.6965417073,
				"y": 1.947267955,
				"z": -2.1045601186,
				"element": "N" 
			},
			{
				"x": -1.4324292202,
				"y": 2.9320764283,
				"z": -2.1587624671,
				"element": "O" 
			},
			{
				"x": -0.2743233414,
				"y": 1.3330938369,
				"z": -3.0813063197,
				"element": "O" 
			},
			{
				"x": 1.2864990629,
				"y": -0.5006006609,
				"z": -2.7717508261,
				"element": "H" 
			},
			{
				"x": 0.498631708,
				"y": -2.1029413736,
				"z": -2.7876031613,
				"element": "H" 
			},
			{
				"x": 1.6490514051,
				"y": -1.7050648204,
				"z": -1.482917372,
				"element": "H" 
			},
			{
				"x": -0.3975558701,
				"y": 3.5172226037,
				"z": -0.0521579453,
				"element": "H" 
			},
			{
				"x": 0.3673836316,
				"y": 2.9089453898,
				"z": 2.2556956638,
				"element": "H" 
			},
			{
				"x": 0.8327160345,
				"y": 0.5198325064,
				"z": 2.7956611886,
				"element": "H" 
			}
		],
		 "valence_orbital": [ 
			{
				"type": "occ",
				"energy": -0.31207,
				"method": "rhf"
			},
			{
				"type": "occ",
				"energy": -0.30383,
				"method": "rhf"
			},
			{
				"type": "occ",
				"energy": -0.29041,
				"method": "rhf"
			},
			{
				"type": "occ",
				"energy": -0.2777,
				"method": "rhf"
			},
			{
				"type": "occ",
				"energy": -0.26442,
				"method": "rhf"
			},
			{
				"type": "unocc",
				"energy": -0.09086,
				"method": "rhf"
			},
			{
				"type": "unocc",
				"energy": -0.03541,
				"method": "rhf"
			},
			{
				"type": "unocc",
				"energy": -0.01658,
				"method": "rhf"
			},
			{
				"type": "unocc",
				"energy": 0.00938,
				"method": "rhf"
			},
			{
				"type": "unocc",
				"energy": 0.08965,
				"method": "rhf"
			}
		],
		"cosmo_sigma_profile": { 
			"-0.025": 0.0,
			"-0.024": 0.0,
			"-0.023": 0.0,
			"-0.022": 0.0,
			"-0.021": 0.0,
			"-0.02": 0.0,
			"-0.019": 0.0,
			"-0.018": 0.0,
			"-0.017": 0.0,
			"-0.016": 0.0,
			"-0.015": 0.0,
			"-0.014": 0.0,
			"-0.013": 0.0,
			"-0.012": 0.0,
			"-0.011": 0.0,
			"-0.01": 0.0,
			"-0.009": 0.822404220957,
			"-0.008": 5.26993765051,
			"-0.007": 8.25305953077,
			"-0.006": 9.83005206125,
			"-0.005": 9.50925299241,
			"-0.004": 15.8312750404,
			"-0.003": 17.3701509725,
			"-0.002": 13.8611383805,
			"-0.001": 17.0957978009,
			"0.0": 17.0177240078,
			"0.001": 16.2476067103,
			"0.002": 10.8283977295,
			"0.003": 9.56875477056,
			"0.004": 9.2499448204,
			"0.005": 6.33367782008,
			"0.006": 5.68457563179,
			"0.007": 10.0180611557,
			"0.008": 7.72853404774,
			"0.009": 5.39931090244,
			"0.01": 2.40691806451,
			"0.011": 0.0,
			"0.012": 0.0,
			"0.013": 0.0,
			"0.014": 0.0,
			"0.015": 0.0,
			"0.016": 0.0,
			"0.017": 0.0,
			"0.018": 0.0,
			"0.019": 0.0,
			"0.02": 0.0,
			"0.021": 0.0,
			"0.022": 0.0,
			"0.023": 0.0,
			"0.024": 0.0,
			"0.025": 0.0
		}
	}
}
