{
	 "smiles": "CC(C)OCC1=C(OC2=C1C=CC=C2)C(O)=O", 
	 "Tm": 405.15, 
	 "num_atms": 31, 
	 "gaussian": { 
		 "optdone": 1, 
		 "sigma_profile": "yes", 
		 "theory": "DFT", 
		 "functional": "B3LYP", 
		 "basiset": "6-31G**", 
		 "properties": { 
			 "R2extent": 5583.7413, 
			 "electric_dipole_moment_norm": 4.27113575645, 
			 "electric_quadrupole_moment_norm": 25.8175360145, 
			 "total_energy": -804.708221043, 
			 "HOMO_LUMO_gap": 0.17701, 
			 "cosmo_polarized_energy": -16.22, 
			 "cosmo_cavitation_energy": 34.82, 
			 "cosmo_dispersion_energy": -23.92, 
			 "cosmo_repulsion_energy": 1.87, 
			 "cosmo_total_nonelectrostatic_energy": 12.77, 
			 "SMD_solvation_energy": 7.43 
		},
		"coords": [
			{
				"x": 1.8612409497,
				"y": 1.4631084844,
				"z": -0.790718001,
				"element": "C" 
			},
			{
				"x": 2.0594210231,
				"y": -0.0284193784,
				"z": -1.0339403709,
				"element": "C" 
			},
			{
				"x": 3.3292820345,
				"y": -0.3271609518,
				"z": -1.8330082604,
				"element": "C" 
			},
			{
				"x": 0.8917821351,
				"y": -0.4783869376,
				"z": -1.7503646982,
				"element": "O" 
			},
			{
				"x": 0.606143383,
				"y": -1.860539942,
				"z": -1.6340215495,
				"element": "C" 
			},
			{
				"x": 0.0183529564,
				"y": -2.2217995519,
				"z": -0.2910780878,
				"element": "C" 
			},
			{
				"x": 0.3104882215,
				"y": -3.2749082655,
				"z": 0.5421868151,
				"element": "C" 
			},
			{
				"x": -0.4288058631,
				"y": -3.233444519,
				"z": 1.7007227685,
				"element": "O" 
			},
			{
				"x": -1.2274941477,
				"y": -2.133062108,
				"z": 1.6081881191,
				"element": "C" 
			},
			{
				"x": -0.9953248872,
				"y": -1.4565860217,
				"z": 0.3977100953,
				"element": "C" 
			},
			{
				"x": -1.718427619,
				"y": -0.2833730879,
				"z": 0.1177716457,
				"element": "C" 
			},
			{
				"x": -2.6496275708,
				"y": 0.1487930864,
				"z": 1.0543708065,
				"element": "C" 
			},
			{
				"x": -2.8647863816,
				"y": -0.5567675067,
				"z": 2.2570404065,
				"element": "C" 
			},
			{
				"x": -2.1547564177,
				"y": -1.7156633546,
				"z": 2.5586751147,
				"element": "C" 
			},
			{
				"x": 1.2969685355,
				"y": -4.3806736779,
				"z": 0.4865874047,
				"element": "C" 
			},
			{
				"x": 1.6745016047,
				"y": -4.7690602465,
				"z": -0.766088201,
				"element": "O" 
			},
			{
				"x": 1.7685161151,
				"y": -4.9054603392,
				"z": 1.4633666939,
				"element": "O" 
			},
			{
				"x": 1.7588760583,
				"y": 1.9916345088,
				"z": -1.7442120981,
				"element": "H" 
			},
			{
				"x": 0.9589124021,
				"y": 1.6394768369,
				"z": -0.1993279224,
				"element": "H" 
			},
			{
				"x": 2.717613723,
				"y": 1.8825307616,
				"z": -0.2538970391,
				"element": "H" 
			},
			{
				"x": 2.1043860277,
				"y": -0.5479290761,
				"z": -0.0652118161,
				"element": "H" 
			},
			{
				"x": 4.2149260488,
				"y": 0.0102187435,
				"z": -1.2848744727,
				"element": "H" 
			},
			{
				"x": 3.299280855,
				"y": 0.1901764425,
				"z": -2.7972858197,
				"element": "H" 
			},
			{
				"x": 3.4507939087,
				"y": -1.3983374492,
				"z": -2.0224943377,
				"element": "H" 
			},
			{
				"x": -0.1251827009,
				"y": -2.0677148935,
				"z": -2.4254471974,
				"element": "H" 
			},
			{
				"x": 1.4974733806,
				"y": -2.4699708528,
				"z": -1.8390052383,
				"element": "H" 
			},
			{
				"x": -1.5396969956,
				"y": 0.2642663843,
				"z": -0.800455895,
				"element": "H" 
			},
			{
				"x": -3.223863227,
				"y": 1.0499499987,
				"z": 0.8617446245,
				"element": "H" 
			},
			{
				"x": -3.5985935655,
				"y": -0.1853651477,
				"z": 2.9659486393,
				"element": "H" 
			},
			{
				"x": -2.3051729553,
				"y": -2.2668513865,
				"z": 3.4800910345,
				"element": "H" 
			},
			{
				"x": 1.0487729686,
				"y": -4.4302805526,
				"z": -1.4211731627,
				"element": "H" 
			}
		],
		 "valence_orbital": [ 
			{
				"type": "occ",
				"energy": -0.30183,
				"method": "rhf"
			},
			{
				"type": "occ",
				"energy": -0.28295,
				"method": "rhf"
			},
			{
				"type": "occ",
				"energy": -0.26979,
				"method": "rhf"
			},
			{
				"type": "occ",
				"energy": -0.2502,
				"method": "rhf"
			},
			{
				"type": "occ",
				"energy": -0.23836,
				"method": "rhf"
			},
			{
				"type": "unocc",
				"energy": -0.06135,
				"method": "rhf"
			},
			{
				"type": "unocc",
				"energy": -0.0025,
				"method": "rhf"
			},
			{
				"type": "unocc",
				"energy": 0.0066,
				"method": "rhf"
			},
			{
				"type": "unocc",
				"energy": 0.05308,
				"method": "rhf"
			},
			{
				"type": "unocc",
				"energy": 0.06284,
				"method": "rhf"
			}
		],
		"cosmo_sigma_profile": { 
			"-0.025": 0.0,
			"-0.024": 0.0,
			"-0.023": 0.0,
			"-0.022": 0.0,
			"-0.021": 0.0,
			"-0.02": 0.0,
			"-0.019": 0.228738050889,
			"-0.018": 1.14744781324,
			"-0.017": 0.621884554111,
			"-0.016": 1.11948254563,
			"-0.015": 1.19144395215,
			"-0.014": 1.09770063231,
			"-0.013": 0.898621332086,
			"-0.012": 0.683323636816,
			"-0.011": 0.803515878658,
			"-0.01": 0.95957374092,
			"-0.009": 0.899276699057,
			"-0.008": 2.18651838592,
			"-0.007": 5.76017596295,
			"-0.006": 11.592812455,
			"-0.005": 13.5748017568,
			"-0.004": 19.2699778408,
			"-0.003": 24.5899478251,
			"-0.002": 24.135559913,
			"-0.001": 25.0283478657,
			"0.0": 26.7144393434,
			"0.001": 25.3836001597,
			"0.002": 15.6627673668,
			"0.003": 13.2336826599,
			"0.004": 12.8794515703,
			"0.005": 7.59295676004,
			"0.006": 3.95949885043,
			"0.007": 4.76632414987,
			"0.008": 5.07926458496,
			"0.009": 5.12634193739,
			"0.01": 7.45987754648,
			"0.011": 6.74720439774,
			"0.012": 5.20591461714,
			"0.013": 0.607458094846,
			"0.014": 0.0,
			"0.015": 0.0,
			"0.016": 0.0,
			"0.017": 0.0,
			"0.018": 0.0,
			"0.019": 0.0,
			"0.02": 0.0,
			"0.021": 0.0,
			"0.022": 0.0,
			"0.023": 0.0,
			"0.024": 0.0,
			"0.025": 0.0
		}
	}
}
