{
	 "smiles": "COCCCl", 
	 "Tm": 218.15, 
	 "num_atms": 12, 
	 "gaussian": { 
		 "optdone": 1, 
		 "sigma_profile": "yes", 
		 "theory": "DFT", 
		 "functional": "B3LYP", 
		 "basiset": "6-31G**", 
		 "properties": { 
			 "R2extent": 1164.2162, 
			 "electric_dipole_moment_norm": 1.42123345725, 
			 "electric_quadrupole_moment_norm": 8.56125543539, 
			 "total_energy": -653.937423948, 
			 "HOMO_LUMO_gap": 0.28002, 
			 "cosmo_polarized_energy": -5.58, 
			 "cosmo_cavitation_energy": 16.46, 
			 "cosmo_dispersion_energy": -12.54, 
			 "cosmo_repulsion_energy": 1.12, 
			 "cosmo_total_nonelectrostatic_energy": 5.03, 
			 "SMD_solvation_energy": 3.3 
		},
		"coords": [
			{
				"x": 1.4691740613,
				"y": -1.2306960458,
				"z": -0.9695256337,
				"element": "C" 
			},
			{
				"x": 0.3285501987,
				"y": -0.4168024182,
				"z": -1.2010022803,
				"element": "O" 
			},
			{
				"x": -0.6035477241,
				"y": -0.3515695633,
				"z": -0.1457531332,
				"element": "C" 
			},
			{
				"x": -1.7447469706,
				"y": -1.3570941944,
				"z": -0.2515635557,
				"element": "C" 
			},
			{
				"x": -1.2741215782,
				"y": -3.0585435176,
				"z": 0.1959441046,
				"element": "Cl" 
			},
			{
				"x": 1.9653218528,
				"y": -0.9647571251,
				"z": -0.0239382512,
				"element": "H" 
			},
			{
				"x": 1.2264698237,
				"y": -2.2991335899,
				"z": -0.9482985864,
				"element": "H" 
			},
			{
				"x": 2.1604481384,
				"y": -1.0371438805,
				"z": -1.793658971,
				"element": "H" 
			},
			{
				"x": -0.1140085782,
				"y": -0.4323746083,
				"z": 0.8359987474,
				"element": "H" 
			},
			{
				"x": -1.0680777802,
				"y": 0.6429143157,
				"z": -0.2057835884,
				"element": "H" 
			},
			{
				"x": -2.5573568214,
				"y": -1.0827094867,
				"z": 0.4244771713,
				"element": "H" 
			},
			{
				"x": -2.1176046222,
				"y": -1.3999898859,
				"z": -1.2756960233,
				"element": "H" 
			}
		],
		 "valence_orbital": [ 
			{
				"type": "occ",
				"energy": -0.37001,
				"method": "rhf"
			},
			{
				"type": "occ",
				"energy": -0.32168,
				"method": "rhf"
			},
			{
				"type": "occ",
				"energy": -0.30395,
				"method": "rhf"
			},
			{
				"type": "occ",
				"energy": -0.29651,
				"method": "rhf"
			},
			{
				"type": "occ",
				"energy": -0.25589,
				"method": "rhf"
			},
			{
				"type": "unocc",
				"energy": 0.02413,
				"method": "rhf"
			},
			{
				"type": "unocc",
				"energy": 0.09015,
				"method": "rhf"
			},
			{
				"type": "unocc",
				"energy": 0.10901,
				"method": "rhf"
			},
			{
				"type": "unocc",
				"energy": 0.1353,
				"method": "rhf"
			},
			{
				"type": "unocc",
				"energy": 0.14604,
				"method": "rhf"
			}
		],
		"cosmo_sigma_profile": { 
			"-0.025": 0.0,
			"-0.024": 0.0,
			"-0.023": 0.0,
			"-0.022": 0.0,
			"-0.021": 0.0,
			"-0.02": 0.0,
			"-0.019": 0.0,
			"-0.018": 0.0,
			"-0.017": 0.0,
			"-0.016": 0.0,
			"-0.015": 0.0,
			"-0.014": 0.0,
			"-0.013": 0.0,
			"-0.012": 0.0,
			"-0.011": 0.0,
			"-0.01": 0.0,
			"-0.009": 0.0,
			"-0.008": 0.499037035938,
			"-0.007": 5.15488293436,
			"-0.006": 7.91299799846,
			"-0.005": 12.1836287945,
			"-0.004": 12.9774370621,
			"-0.003": 11.5198006667,
			"-0.002": 12.6331017571,
			"-0.001": 7.45764344732,
			"0.0": 6.70133239479,
			"0.001": 6.12553347586,
			"0.002": 7.30802955623,
			"0.003": 6.15037936663,
			"0.004": 6.47992694513,
			"0.005": 6.58383381181,
			"0.006": 7.43681774581,
			"0.007": 6.38086566356,
			"0.008": 1.56654008609,
			"0.009": 0.874052231707,
			"0.01": 0.888575101078,
			"0.011": 1.08792767498,
			"0.012": 1.34964784359,
			"0.013": 1.62469860954,
			"0.014": 0.0719253577798,
			"0.015": 0.0,
			"0.016": 0.0,
			"0.017": 0.0,
			"0.018": 0.0,
			"0.019": 0.0,
			"0.02": 0.0,
			"0.021": 0.0,
			"0.022": 0.0,
			"0.023": 0.0,
			"0.024": 0.0,
			"0.025": 0.0
		}
	}
}
