{
	 "smiles": "NC1=NC(=CS1)C1=CC=C2C(CC3=C2C=CC=C3)=C1", 
	 "Tm": 535.15, 
	 "num_atms": 31, 
	 "gaussian": { 
		 "optdone": 1, 
		 "sigma_profile": "yes", 
		 "theory": "DFT", 
		 "functional": "B3LYP", 
		 "basiset": "6-31G**", 
		 "properties": { 
			 "R2extent": 8288.5777, 
			 "electric_dipole_moment_norm": 2.10764986893, 
			 "electric_quadrupole_moment_norm": 23.9517675352, 
			 "total_energy": -1124.64568097, 
			 "HOMO_LUMO_gap": 0.15329, 
			 "cosmo_polarized_energy": -13.39, 
			 "cosmo_cavitation_energy": 36.56, 
			 "cosmo_dispersion_energy": -27.69, 
			 "cosmo_repulsion_energy": 2.05, 
			 "cosmo_total_nonelectrostatic_energy": 10.92, 
			 "SMD_solvation_energy": 3.97 
		},
		"coords": [
			{
				"x": -1.5533556509,
				"y": 5.6824881069,
				"z": 2.4873335376,
				"element": "N" 
			},
			{
				"x": -1.9813910269,
				"y": 4.5917870136,
				"z": 1.7630339303,
				"element": "C" 
			},
			{
				"x": -1.2211780217,
				"y": 3.5925418841,
				"z": 1.4346486979,
				"element": "N" 
			},
			{
				"x": -1.9379584139,
				"y": 2.6001779118,
				"z": 0.7748717953,
				"element": "C" 
			},
			{
				"x": -3.2686901778,
				"y": 2.8724895256,
				"z": 0.5991016291,
				"element": "C" 
			},
			{
				"x": -3.6794665215,
				"y": 4.4188031413,
				"z": 1.2943289377,
				"element": "S" 
			},
			{
				"x": -1.2237055493,
				"y": 1.388835443,
				"z": 0.3301470247,
				"element": "C" 
			},
			{
				"x": -1.8814272559,
				"y": 0.3573122622,
				"z": -0.3693014745,
				"element": "C" 
			},
			{
				"x": -1.2046238024,
				"y": -0.7850676767,
				"z": -0.7857235098,
				"element": "C" 
			},
			{
				"x": 0.1589042705,
				"y": -0.9103766958,
				"z": -0.5033198496,
				"element": "C" 
			},
			{
				"x": 0.8270796846,
				"y": 0.1158869683,
				"z": 0.1953926087,
				"element": "C" 
			},
			{
				"x": 2.2868088471,
				"y": -0.2502217347,
				"z": 0.3788286021,
				"element": "C" 
			},
			{
				"x": 2.3806538859,
				"y": -1.6047054178,
				"z": -0.2951547997,
				"element": "C" 
			},
			{
				"x": 1.1189930246,
				"y": -1.9769931259,
				"z": -0.8083404936,
				"element": "C" 
			},
			{
				"x": 0.9582007109,
				"y": -3.1939878156,
				"z": -1.4760683002,
				"element": "C" 
			},
			{
				"x": 2.0647075254,
				"y": -4.0324987345,
				"z": -1.6259110799,
				"element": "C" 
			},
			{
				"x": 3.3148029315,
				"y": -3.6627045952,
				"z": -1.1169341333,
				"element": "C" 
			},
			{
				"x": 3.4783567968,
				"y": -2.4440231255,
				"z": -0.4476724201,
				"element": "C" 
			},
			{
				"x": 0.1499023438,
				"y": 1.253581112,
				"z": 0.6092461416,
				"element": "C" 
			},
			{
				"x": -0.5448658975,
				"y": 5.7560963848,
				"z": 2.5238453601,
				"element": "H" 
			},
			{
				"x": -2.0193271913,
				"y": 6.5601192113,
				"z": 2.3059759977,
				"element": "H" 
			},
			{
				"x": -4.029576795,
				"y": 2.2815260869,
				"z": 0.1130086871,
				"element": "H" 
			},
			{
				"x": -2.9399185676,
				"y": 0.4485914323,
				"z": -0.5927596271,
				"element": "H" 
			},
			{
				"x": -1.7372660655,
				"y": -1.5646747015,
				"z": -1.3234009514,
				"element": "H" 
			},
			{
				"x": 2.9559889329,
				"y": 0.4868680698,
				"z": -0.0848927906,
				"element": "H" 
			},
			{
				"x": 2.5670849105,
				"y": -0.2987038538,
				"z": 1.4395799812,
				"element": "H" 
			},
			{
				"x": -0.0096620376,
				"y": -3.487254059,
				"z": -1.873604777,
				"element": "H" 
			},
			{
				"x": 1.9544709288,
				"y": -4.981718644,
				"z": -2.1427332228,
				"element": "H" 
			},
			{
				"x": 4.1650857528,
				"y": -4.3270276702,
				"z": -1.2422738338,
				"element": "H" 
			},
			{
				"x": 4.452187933,
				"y": -2.1627423671,
				"z": -0.0545269391,
				"element": "H" 
			},
			{
				"x": 0.6520844958,
				"y": 2.0499956633,
				"z": 1.1476752714,
				"element": "H" 
			}
		],
		 "valence_orbital": [ 
			{
				"type": "occ",
				"energy": -0.26492,
				"method": "rhf"
			},
			{
				"type": "occ",
				"energy": -0.24461,
				"method": "rhf"
			},
			{
				"type": "occ",
				"energy": -0.2371,
				"method": "rhf"
			},
			{
				"type": "occ",
				"energy": -0.22495,
				"method": "rhf"
			},
			{
				"type": "occ",
				"energy": -0.19095,
				"method": "rhf"
			},
			{
				"type": "unocc",
				"energy": -0.03766,
				"method": "rhf"
			},
			{
				"type": "unocc",
				"energy": -0.00875,
				"method": "rhf"
			},
			{
				"type": "unocc",
				"energy": 0.00273,
				"method": "rhf"
			},
			{
				"type": "unocc",
				"energy": 0.0113,
				"method": "rhf"
			},
			{
				"type": "unocc",
				"energy": 0.01858,
				"method": "rhf"
			}
		],
		"cosmo_sigma_profile": { 
			"-0.025": 0.0,
			"-0.024": 0.0,
			"-0.023": 0.0,
			"-0.022": 0.0,
			"-0.021": 0.0,
			"-0.02": 0.0,
			"-0.019": 0.0,
			"-0.018": 0.0,
			"-0.017": 0.0,
			"-0.016": 0.0,
			"-0.015": 0.396140482032,
			"-0.014": 2.08569933094,
			"-0.013": 2.50954485145,
			"-0.012": 2.22290096595,
			"-0.011": 2.75804509377,
			"-0.01": 2.99644392211,
			"-0.009": 2.62061981075,
			"-0.008": 3.992170647,
			"-0.007": 4.70219659699,
			"-0.006": 9.9256983688,
			"-0.005": 19.1015601602,
			"-0.004": 19.3679255232,
			"-0.003": 22.348533774,
			"-0.002": 20.6870595584,
			"-0.001": 15.0811843956,
			"0.0": 14.6838176191,
			"0.001": 17.8249717643,
			"0.002": 21.2687394206,
			"0.003": 26.0360296495,
			"0.004": 32.4176536504,
			"0.005": 25.48321935,
			"0.006": 14.5197825097,
			"0.007": 3.58356038453,
			"0.008": 1.78118909264,
			"0.009": 2.57292940199,
			"0.01": 2.50129709632,
			"0.011": 1.71755779453,
			"0.012": 0.5122803441,
			"0.013": 0.0,
			"0.014": 0.0,
			"0.015": 0.0,
			"0.016": 0.0,
			"0.017": 0.0,
			"0.018": 0.0,
			"0.019": 0.0,
			"0.02": 0.0,
			"0.021": 0.0,
			"0.022": 0.0,
			"0.023": 0.0,
			"0.024": 0.0,
			"0.025": 0.0
		}
	}
}
