{
	 "smiles": "ONS(=O)(=O)C1=CC=CC=C1", 
	 "Tm": 395.15, 
	 "num_atms": 18, 
	 "gaussian": { 
		 "optdone": 1, 
		 "sigma_profile": "yes", 
		 "theory": "DFT", 
		 "functional": "B3LYP", 
		 "basiset": "6-31G**", 
		 "properties": { 
			 "R2extent": 2515.3478, 
			 "electric_dipole_moment_norm": 4.99256021095, 
			 "electric_quadrupole_moment_norm": 10.8623338547, 
			 "total_energy": -911.328318599, 
			 "HOMO_LUMO_gap": 0.21191, 
			 "cosmo_polarized_energy": -15.95, 
			 "cosmo_cavitation_energy": 24.01, 
			 "cosmo_dispersion_energy": -18.05, 
			 "cosmo_repulsion_energy": 1.41, 
			 "cosmo_total_nonelectrostatic_energy": 7.37, 
			 "SMD_solvation_energy": 4.54 
		},
		"coords": [
			{
				"x": -1.37829247,
				"y": 3.7262981899,
				"z": -2.1840898145,
				"element": "O" 
			},
			{
				"x": -0.9246256068,
				"y": 2.8952132375,
				"z": -1.1169907359,
				"element": "N" 
			},
			{
				"x": -1.418047936,
				"y": 1.2445393405,
				"z": -1.4821093289,
				"element": "S" 
			},
			{
				"x": -0.8161111174,
				"y": 0.9862432347,
				"z": -2.792221358,
				"element": "O" 
			},
			{
				"x": -2.8487272919,
				"y": 1.0211344982,
				"z": -1.243645073,
				"element": "O" 
			},
			{
				"x": -0.4972702473,
				"y": 0.4011828644,
				"z": -0.1993535931,
				"element": "C" 
			},
			{
				"x": -1.1924190633,
				"y": -0.155037819,
				"z": 0.8757396891,
				"element": "C" 
			},
			{
				"x": -0.4729736619,
				"y": -0.8218761884,
				"z": 1.8686877126,
				"element": "C" 
			},
			{
				"x": 0.9164126907,
				"y": -0.9245114903,
				"z": 1.7765480522,
				"element": "C" 
			},
			{
				"x": 1.5979321824,
				"y": -0.3672042845,
				"z": 0.6900711923,
				"element": "C" 
			},
			{
				"x": 0.8924800034,
				"y": 0.2992545229,
				"z": -0.3097049487,
				"element": "C" 
			},
			{
				"x": -0.6413554084,
				"y": 3.6812468404,
				"z": -2.812340387,
				"element": "H" 
			},
			{
				"x": -1.4869434199,
				"y": 3.2057228799,
				"z": -0.3203362548,
				"element": "H" 
			},
			{
				"x": -2.2729037465,
				"y": -0.0719199155,
				"z": 0.9165071798,
				"element": "H" 
			},
			{
				"x": -0.9983034208,
				"y": -1.2635011647,
				"z": 2.7098755913,
				"element": "H" 
			},
			{
				"x": 1.4717104889,
				"y": -1.4446387563,
				"z": 2.5515461886,
				"element": "H" 
			},
			{
				"x": 2.6776266325,
				"y": -0.4564568354,
				"z": 0.6202072882,
				"element": "H" 
			},
			{
				"x": 1.4018113922,
				"y": 0.7270108456,
				"z": -1.1660914005,
				"element": "H" 
			}
		],
		 "valence_orbital": [ 
			{
				"type": "occ",
				"energy": -0.31769,
				"method": "rhf"
			},
			{
				"type": "occ",
				"energy": -0.30497,
				"method": "rhf"
			},
			{
				"type": "occ",
				"energy": -0.28219,
				"method": "rhf"
			},
			{
				"type": "occ",
				"energy": -0.27787,
				"method": "rhf"
			},
			{
				"type": "occ",
				"energy": -0.26274,
				"method": "rhf"
			},
			{
				"type": "unocc",
				"energy": -0.05083,
				"method": "rhf"
			},
			{
				"type": "unocc",
				"energy": -0.02755,
				"method": "rhf"
			},
			{
				"type": "unocc",
				"energy": 0.04459,
				"method": "rhf"
			},
			{
				"type": "unocc",
				"energy": 0.0503,
				"method": "rhf"
			},
			{
				"type": "unocc",
				"energy": 0.07141,
				"method": "rhf"
			}
		],
		"cosmo_sigma_profile": { 
			"-0.025": 0.0,
			"-0.024": 0.0,
			"-0.023": 0.0,
			"-0.022": 0.0,
			"-0.021": 0.0,
			"-0.02": 0.0,
			"-0.019": 0.0,
			"-0.018": 0.0946136619529,
			"-0.017": 0.797758128958,
			"-0.016": 1.8042496117,
			"-0.015": 2.26721550942,
			"-0.014": 2.16830371354,
			"-0.013": 1.37956104763,
			"-0.012": 1.01465155047,
			"-0.011": 1.38102363757,
			"-0.01": 1.48487756503,
			"-0.009": 1.86331410567,
			"-0.008": 2.9580356931,
			"-0.007": 10.6430196401,
			"-0.006": 12.7023356588,
			"-0.005": 11.5399123288,
			"-0.004": 8.02410922241,
			"-0.003": 9.29146137052,
			"-0.002": 9.19833337326,
			"-0.001": 8.6654517551,
			"0.0": 10.4684272706,
			"0.001": 12.7171186084,
			"0.002": 16.2962273106,
			"0.003": 13.3485915027,
			"0.004": 4.19044997748,
			"0.005": 4.82312456583,
			"0.006": 6.12393042186,
			"0.007": 4.505848253,
			"0.008": 6.06651965894,
			"0.009": 6.83593101132,
			"0.01": 11.2656500313,
			"0.011": 7.01388263036,
			"0.012": 0.728161350614,
			"0.013": 0.0,
			"0.014": 0.0,
			"0.015": 0.0,
			"0.016": 0.0,
			"0.017": 0.0,
			"0.018": 0.0,
			"0.019": 0.0,
			"0.02": 0.0,
			"0.021": 0.0,
			"0.022": 0.0,
			"0.023": 0.0,
			"0.024": 0.0,
			"0.025": 0.0
		}
	}
}
