{
	 "smiles": "OC(=O)CCCCCCCCCC(O)=O", 
	 "Tm": 382.15, 
	 "num_atms": 35, 
	 "gaussian": { 
		 "optdone": 1, 
		 "sigma_profile": "yes", 
		 "theory": "DFT", 
		 "functional": "B3LYP", 
		 "basiset": "6-31G**", 
		 "properties": { 
			 "R2extent": 6826.418, 
			 "electric_dipole_moment_norm": 4.68275495408, 
			 "electric_quadrupole_moment_norm": 20.2628386607, 
			 "total_energy": -732.168116771, 
			 "HOMO_LUMO_gap": 0.27133, 
			 "cosmo_polarized_energy": -20.1, 
			 "cosmo_cavitation_energy": 38.01, 
			 "cosmo_dispersion_energy": -25.73, 
			 "cosmo_repulsion_energy": 2.11, 
			 "cosmo_total_nonelectrostatic_energy": 14.39, 
			 "SMD_solvation_energy": 7.58 
		},
		"coords": [
			{
				"x": 3.5486424853,
				"y": -0.2322593874,
				"z": -3.0768324825,
				"element": "O" 
			},
			{
				"x": 3.5079159524,
				"y": 0.6391804226,
				"z": -2.0297503754,
				"element": "C" 
			},
			{
				"x": 4.1071280993,
				"y": 1.6827929103,
				"z": -2.0942948115,
				"element": "O" 
			},
			{
				"x": 2.6837262361,
				"y": 0.178223635,
				"z": -0.8336154618,
				"element": "C" 
			},
			{
				"x": 2.5962441152,
				"y": 1.2339116334,
				"z": 0.271738328,
				"element": "C" 
			},
			{
				"x": 1.8871391959,
				"y": 0.746985916,
				"z": 1.5461825703,
				"element": "C" 
			},
			{
				"x": 0.4209529887,
				"y": 0.3088722205,
				"z": 1.3802915842,
				"element": "C" 
			},
			{
				"x": -0.52758603,
				"y": 1.4095001381,
				"z": 0.8858935621,
				"element": "C" 
			},
			{
				"x": -1.9864405466,
				"y": 0.9443244481,
				"z": 0.7849580326,
				"element": "C" 
			},
			{
				"x": -2.9244298632,
				"y": 2.027845281,
				"z": 0.2360308162,
				"element": "C" 
			},
			{
				"x": -4.4137106693,
				"y": 1.6459845084,
				"z": 0.2171497307,
				"element": "C" 
			},
			{
				"x": -4.753166269,
				"y": 0.3707613245,
				"z": -0.5903839953,
				"element": "C" 
			},
			{
				"x": -4.2571145919,
				"y": 0.4472651864,
				"z": -2.0157623898,
				"element": "C" 
			},
			{
				"x": -5.0217908821,
				"y": 1.2717989774,
				"z": -2.7746714662,
				"element": "O" 
			},
			{
				"x": -3.2795746693,
				"y": -0.1180431449,
				"z": -2.4588886539,
				"element": "O" 
			},
			{
				"x": 3.0108391789,
				"y": -1.0127682319,
				"z": -2.8812841372,
				"element": "H" 
			},
			{
				"x": 1.6852135166,
				"y": -0.1047227516,
				"z": -1.1936008475,
				"element": "H" 
			},
			{
				"x": 3.1381440707,
				"y": -0.7467998617,
				"z": -0.4479805068,
				"element": "H" 
			},
			{
				"x": 3.6128822777,
				"y": 1.553428341,
				"z": 0.5223775797,
				"element": "H" 
			},
			{
				"x": 2.100712978,
				"y": 2.1244814875,
				"z": -0.1293942071,
				"element": "H" 
			},
			{
				"x": 2.457236732,
				"y": -0.0901795431,
				"z": 1.9724094224,
				"element": "H" 
			},
			{
				"x": 1.9334690046,
				"y": 1.5521149659,
				"z": 2.2913103367,
				"element": "H" 
			},
			{
				"x": 0.3603863049,
				"y": -0.5505210084,
				"z": 0.6980749558,
				"element": "H" 
			},
			{
				"x": 0.0609043274,
				"y": -0.0607423715,
				"z": 2.3498935209,
				"element": "H" 
			},
			{
				"x": -0.2033040357,
				"y": 1.7687206557,
				"z": -0.0999580367,
				"element": "H" 
			},
			{
				"x": -0.4626061277,
				"y": 2.2757411075,
				"z": 1.560030321,
				"element": "H" 
			},
			{
				"x": -2.0312451671,
				"y": 0.0618235411,
				"z": 0.1347624533,
				"element": "H" 
			},
			{
				"x": -2.3364442266,
				"y": 0.6221602416,
				"z": 1.7767482857,
				"element": "H" 
			},
			{
				"x": -2.6022331673,
				"y": 2.2963775083,
				"z": -0.7793050389,
				"element": "H" 
			},
			{
				"x": -2.8156402636,
				"y": 2.9409177172,
				"z": 0.8362986313,
				"element": "H" 
			},
			{
				"x": -4.9943473552,
				"y": 2.481911081,
				"z": -0.1887886349,
				"element": "H" 
			},
			{
				"x": -4.7661248039,
				"y": 1.4894344612,
				"z": 1.2443163997,
				"element": "H" 
			},
			{
				"x": -5.839157407,
				"y": 0.2320468828,
				"z": -0.5998742475,
				"element": "H" 
			},
			{
				"x": -4.296729145,
				"y": -0.5114051665,
				"z": -0.1372226867,
				"element": "H" 
			},
			{
				"x": -4.6102922433,
				"y": 1.2866368744,
				"z": -3.6553585506,
				"element": "H" 
			}
		],
		 "valence_orbital": [ 
			{
				"type": "occ",
				"energy": -0.3176,
				"method": "rhf"
			},
			{
				"type": "occ",
				"energy": -0.31146,
				"method": "rhf"
			},
			{
				"type": "occ",
				"energy": -0.30655,
				"method": "rhf"
			},
			{
				"type": "occ",
				"energy": -0.2744,
				"method": "rhf"
			},
			{
				"type": "occ",
				"energy": -0.26685,
				"method": "rhf"
			},
			{
				"type": "unocc",
				"energy": 0.00448,
				"method": "rhf"
			},
			{
				"type": "unocc",
				"energy": 0.01538,
				"method": "rhf"
			},
			{
				"type": "unocc",
				"energy": 0.05763,
				"method": "rhf"
			},
			{
				"type": "unocc",
				"energy": 0.07031,
				"method": "rhf"
			},
			{
				"type": "unocc",
				"energy": 0.0773,
				"method": "rhf"
			}
		],
		"cosmo_sigma_profile": { 
			"-0.025": 0.0,
			"-0.024": 0.0,
			"-0.023": 0.0,
			"-0.022": 0.0,
			"-0.021": 0.0,
			"-0.02": 0.0,
			"-0.019": 0.351403090574,
			"-0.018": 1.49857554832,
			"-0.017": 1.85584415215,
			"-0.016": 1.93788156677,
			"-0.015": 1.87538043712,
			"-0.014": 1.39237797471,
			"-0.013": 2.00916283741,
			"-0.012": 1.88133904328,
			"-0.011": 2.18312059867,
			"-0.01": 1.67354014093,
			"-0.009": 2.29700680089,
			"-0.008": 1.72763607484,
			"-0.007": 3.37994784942,
			"-0.006": 5.31929397807,
			"-0.005": 8.14758810567,
			"-0.004": 11.1783855349,
			"-0.003": 24.4858264699,
			"-0.002": 42.7441118056,
			"-0.001": 44.6612960453,
			"0.0": 34.7222447046,
			"0.001": 20.996566401,
			"0.002": 9.27307365065,
			"0.003": 5.19905090285,
			"0.004": 5.62675545354,
			"0.005": 5.51164545373,
			"0.006": 4.35079158484,
			"0.007": 5.37210507453,
			"0.008": 5.7515441544,
			"0.009": 6.13350290433,
			"0.01": 6.82761845843,
			"0.011": 7.99432115456,
			"0.012": 11.1165910976,
			"0.013": 3.7614264889,
			"0.014": 0.227490680498,
			"0.015": 0.0,
			"0.016": 0.0,
			"0.017": 0.0,
			"0.018": 0.0,
			"0.019": 0.0,
			"0.02": 0.0,
			"0.021": 0.0,
			"0.022": 0.0,
			"0.023": 0.0,
			"0.024": 0.0,
			"0.025": 0.0
		}
	}
}
