{
	 "smiles": "CN1C2=C(N(CCCl)C=N2)C(=O)N(C)C1=O", 
	 "Tm": 397.15, 
	 "num_atms": 27, 
	 "gaussian": { 
		 "optdone": 1, 
		 "sigma_profile": "yes", 
		 "theory": "DFT", 
		 "functional": "B3LYP", 
		 "basiset": "6-31G**", 
		 "properties": { 
			 "R2extent": 4632.1934, 
			 "electric_dipole_moment_norm": 2.66763454394, 
			 "electric_quadrupole_moment_norm": 13.3217843857, 
			 "total_energy": -1179.28463267, 
			 "HOMO_LUMO_gap": 0.1859, 
			 "cosmo_polarized_energy": -15.63, 
			 "cosmo_cavitation_energy": 32.17, 
			 "cosmo_dispersion_energy": -23.52, 
			 "cosmo_repulsion_energy": 1.81, 
			 "cosmo_total_nonelectrostatic_energy": 10.46, 
			 "SMD_solvation_energy": 5.12 
		},
		"coords": [
			{
				"x": 3.3097595803,
				"y": 2.2675685091,
				"z": 0.8568544605,
				"element": "C" 
			},
			{
				"x": 2.2819149887,
				"y": 1.2331169909,
				"z": 0.7435562452,
				"element": "N" 
			},
			{
				"x": 1.1816442863,
				"y": 1.4261451666,
				"z": -0.0556877415,
				"element": "C" 
			},
			{
				"x": 0.1957133288,
				"y": 0.4671627726,
				"z": -0.1815478216,
				"element": "C" 
			},
			{
				"x": -0.7281143353,
				"y": 1.0131225345,
				"z": -1.0650963154,
				"element": "N" 
			},
			{
				"x": -1.9656246679,
				"y": 0.4008916767,
				"z": -1.5455079783,
				"element": "C" 
			},
			{
				"x": -3.022675374,
				"y": 0.3383971356,
				"z": -0.4419899674,
				"element": "C" 
			},
			{
				"x": -4.5778549957,
				"y": -0.2793749794,
				"z": -1.1300364374,
				"element": "Cl" 
			},
			{
				"x": -0.2389449599,
				"y": 2.2393602558,
				"z": -1.393075927,
				"element": "C" 
			},
			{
				"x": 0.9164216669,
				"y": 2.5300450405,
				"z": -0.8057048863,
				"element": "N" 
			},
			{
				"x": 0.2248346266,
				"y": -0.7899759702,
				"z": 0.5047026949,
				"element": "C" 
			},
			{
				"x": -0.6326396666,
				"y": -1.6710746853,
				"z": 0.4458023117,
				"element": "O" 
			},
			{
				"x": 1.3896705734,
				"y": -0.9134976979,
				"z": 1.2978539317,
				"element": "N" 
			},
			{
				"x": 1.5720414247,
				"y": -2.1522741836,
				"z": 2.0634984692,
				"element": "C" 
			},
			{
				"x": 2.4194722232,
				"y": 0.0371865352,
				"z": 1.4506369488,
				"element": "C" 
			},
			{
				"x": 3.3785980131,
				"y": -0.189983243,
				"z": 2.1732166869,
				"element": "O" 
			},
			{
				"x": 3.7217506249,
				"y": 2.4935939926,
				"z": -0.1297080254,
				"element": "H" 
			},
			{
				"x": 2.8787776642,
				"y": 3.1813322899,
				"z": 1.2742138639,
				"element": "H" 
			},
			{
				"x": 4.0870262364,
				"y": 1.8833296293,
				"z": 1.5136749939,
				"element": "H" 
			},
			{
				"x": -2.3241766712,
				"y": 1.000586497,
				"z": -2.3854034238,
				"element": "H" 
			},
			{
				"x": -1.7478016102,
				"y": -0.6077717904,
				"z": -1.9020026495,
				"element": "H" 
			},
			{
				"x": -3.2230243597,
				"y": 1.3260674496,
				"z": -0.0237800117,
				"element": "H" 
			},
			{
				"x": -2.7134754865,
				"y": -0.3553184157,
				"z": 0.3391471361,
				"element": "H" 
			},
			{
				"x": -0.761403293,
				"y": 2.8912654492,
				"z": -2.0805552498,
				"element": "H" 
			},
			{
				"x": 1.6364846093,
				"y": -1.9255651198,
				"z": 3.1296456795,
				"element": "H" 
			},
			{
				"x": 2.4985655398,
				"y": -2.6441545361,
				"z": 1.7606759788,
				"element": "H" 
			},
			{
				"x": 0.7147600333,
				"y": -2.7893813036,
				"z": 1.8583170339,
				"element": "H" 
			}
		],
		 "valence_orbital": [ 
			{
				"type": "occ",
				"energy": -0.29292,
				"method": "rhf"
			},
			{
				"type": "occ",
				"energy": -0.28908,
				"method": "rhf"
			},
			{
				"type": "occ",
				"energy": -0.27357,
				"method": "rhf"
			},
			{
				"type": "occ",
				"energy": -0.2671,
				"method": "rhf"
			},
			{
				"type": "occ",
				"energy": -0.22834,
				"method": "rhf"
			},
			{
				"type": "unocc",
				"energy": -0.04244,
				"method": "rhf"
			},
			{
				"type": "unocc",
				"energy": 0.01045,
				"method": "rhf"
			},
			{
				"type": "unocc",
				"energy": 0.01601,
				"method": "rhf"
			},
			{
				"type": "unocc",
				"energy": 0.03175,
				"method": "rhf"
			},
			{
				"type": "unocc",
				"energy": 0.0879,
				"method": "rhf"
			}
		],
		"cosmo_sigma_profile": { 
			"-0.025": 0.0,
			"-0.024": 0.0,
			"-0.023": 0.0,
			"-0.022": 0.0,
			"-0.021": 0.0,
			"-0.02": 0.0,
			"-0.019": 0.0,
			"-0.018": 0.0,
			"-0.017": 0.0,
			"-0.016": 0.0,
			"-0.015": 0.0,
			"-0.014": 0.0,
			"-0.013": 0.0,
			"-0.012": 0.0894238124125,
			"-0.011": 1.93067326374,
			"-0.01": 3.68024185089,
			"-0.009": 2.78511876467,
			"-0.008": 5.45905205191,
			"-0.007": 6.56288924175,
			"-0.006": 10.1070903114,
			"-0.005": 19.2454459069,
			"-0.004": 23.9553717235,
			"-0.003": 27.6580484144,
			"-0.002": 28.3078023275,
			"-0.001": 18.0623983642,
			"0.0": 13.6402685445,
			"0.001": 9.40195106612,
			"0.002": 10.1904536966,
			"0.003": 9.87761938411,
			"0.004": 9.6807283728,
			"0.005": 10.9568714493,
			"0.006": 13.033577455,
			"0.007": 5.27227306109,
			"0.008": 3.35404000487,
			"0.009": 2.93809567648,
			"0.01": 3.71817916327,
			"0.011": 4.87879746032,
			"0.012": 7.46290488729,
			"0.013": 4.6253637112,
			"0.014": 1.03209686227,
			"0.015": 0.484810988069,
			"0.016": 0.0368673712876,
			"0.017": 0.0,
			"0.018": 0.0,
			"0.019": 0.0,
			"0.02": 0.0,
			"0.021": 0.0,
			"0.022": 0.0,
			"0.023": 0.0,
			"0.024": 0.0,
			"0.025": 0.0
		}
	}
}
