{
	 "smiles": "NC(=O)CC1=NC(=CS1)C1=CC=C(C=C1)[N+]([O-])=O", 
	 "Tm": 475.15, 
	 "num_atms": 27, 
	 "gaussian": { 
		 "optdone": 1, 
		 "sigma_profile": "yes", 
		 "theory": "DFT", 
		 "functional": "B3LYP", 
		 "basiset": "6-31G**", 
		 "properties": { 
			 "R2extent": 7360.0925, 
			 "electric_dipole_moment_norm": 3.17557114548, 
			 "electric_quadrupole_moment_norm": 43.7923003845, 
			 "total_energy": -1212.62917528, 
			 "HOMO_LUMO_gap": 0.14639, 
			 "cosmo_polarized_energy": -18.44, 
			 "cosmo_cavitation_energy": 34.71, 
			 "cosmo_dispersion_energy": -25.51, 
			 "cosmo_repulsion_energy": 1.92, 
			 "cosmo_total_nonelectrostatic_energy": 11.13, 
			 "SMD_solvation_energy": 8.02 
		},
		"coords": [
			{
				"x": -0.8867805263,
				"y": -3.4320836648,
				"z": 0.0049009872,
				"element": "N" 
			},
			{
				"x": -0.0102190983,
				"y": -4.0078001542,
				"z": 0.8670357896,
				"element": "C" 
			},
			{
				"x": 0.2420164263,
				"y": -5.2014919496,
				"z": 0.898949079,
				"element": "O" 
			},
			{
				"x": 0.6178824557,
				"y": -3.046761336,
				"z": 1.9050308676,
				"element": "C" 
			},
			{
				"x": 1.0347991127,
				"y": -1.6994018897,
				"z": 1.3922122407,
				"element": "C" 
			},
			{
				"x": 0.2306543571,
				"y": -0.8370249217,
				"z": 0.8369679952,
				"element": "N" 
			},
			{
				"x": 0.8858977671,
				"y": 0.3165780478,
				"z": 0.4405735389,
				"element": "C" 
			},
			{
				"x": 2.2320996658,
				"y": 0.3229614683,
				"z": 0.7167126492,
				"element": "C" 
			},
			{
				"x": 2.7011105263,
				"y": -1.1518701291,
				"z": 1.480808837,
				"element": "S" 
			},
			{
				"x": 0.1187308106,
				"y": 1.4016736081,
				"z": -0.1964353639,
				"element": "C" 
			},
			{
				"x": 0.7603511033,
				"y": 2.4522061953,
				"z": -0.8784257654,
				"element": "C" 
			},
			{
				"x": 0.0278140216,
				"y": 3.4770173884,
				"z": -1.4631625012,
				"element": "C" 
			},
			{
				"x": -1.3632714171,
				"y": 3.4466091457,
				"z": -1.3701169051,
				"element": "C" 
			},
			{
				"x": -2.0314020459,
				"y": 2.4176017004,
				"z": -0.7093107001,
				"element": "C" 
			},
			{
				"x": -1.2862784334,
				"y": 1.3994793713,
				"z": -0.1261367501,
				"element": "C" 
			},
			{
				"x": -2.1437963237,
				"y": 4.5261332859,
				"z": -1.989176357,
				"element": "N" 
			},
			{
				"x": -1.524070478,
				"y": 5.421462731,
				"z": -2.5638910544,
				"element": "O" 
			},
			{
				"x": -3.3699464626,
				"y": 4.4703673914,
				"z": -1.8954484385,
				"element": "O" 
			},
			{
				"x": -0.9826806514,
				"y": -2.4259373997,
				"z": -0.0376574755,
				"element": "H" 
			},
			{
				"x": -1.3040833764,
				"y": -4.016839883,
				"z": -0.7030158283,
				"element": "H" 
			},
			{
				"x": -0.126814117,
				"y": -2.9023611001,
				"z": 2.6984245283,
				"element": "H" 
			},
			{
				"x": 1.4621364658,
				"y": -3.5814216256,
				"z": 2.341592307,
				"element": "H" 
			},
			{
				"x": 2.9529371743,
				"y": 1.1075133954,
				"z": 0.5405284006,
				"element": "H" 
			},
			{
				"x": 1.8414669114,
				"y": 2.4617521566,
				"z": -0.9697475271,
				"element": "H" 
			},
			{
				"x": 0.50781888,
				"y": 4.289604404,
				"z": -1.9937085196,
				"element": "H" 
			},
			{
				"x": -3.1129649894,
				"y": 2.4316483443,
				"z": -0.6593270719,
				"element": "H" 
			},
			{
				"x": -1.7840077586,
				"y": 0.5926854196,
				"z": 0.3987230378,
				"element": "H" 
			}
		],
		 "valence_orbital": [ 
			{
				"type": "occ",
				"energy": -0.29258,
				"method": "rhf"
			},
			{
				"type": "occ",
				"energy": -0.2841,
				"method": "rhf"
			},
			{
				"type": "occ",
				"energy": -0.27247,
				"method": "rhf"
			},
			{
				"type": "occ",
				"energy": -0.26218,
				"method": "rhf"
			},
			{
				"type": "occ",
				"energy": -0.24376,
				"method": "rhf"
			},
			{
				"type": "unocc",
				"energy": -0.09737,
				"method": "rhf"
			},
			{
				"type": "unocc",
				"energy": -0.05376,
				"method": "rhf"
			},
			{
				"type": "unocc",
				"energy": -0.0314,
				"method": "rhf"
			},
			{
				"type": "unocc",
				"energy": -0.02286,
				"method": "rhf"
			},
			{
				"type": "unocc",
				"energy": -0.00851,
				"method": "rhf"
			}
		],
		"cosmo_sigma_profile": { 
			"-0.025": 0.0,
			"-0.024": 0.0,
			"-0.023": 0.0,
			"-0.022": 0.0,
			"-0.021": 0.0,
			"-0.02": 0.0,
			"-0.019": 0.0,
			"-0.018": 0.0,
			"-0.017": 0.0,
			"-0.016": 0.0,
			"-0.015": 0.0,
			"-0.014": 0.818839685487,
			"-0.013": 1.14912101726,
			"-0.012": 1.29831810598,
			"-0.011": 1.37078162684,
			"-0.01": 3.95166603681,
			"-0.009": 4.195201272,
			"-0.008": 8.67307890111,
			"-0.007": 12.9210257769,
			"-0.006": 14.5092902919,
			"-0.005": 12.1372770743,
			"-0.004": 16.0434529026,
			"-0.003": 14.4796733069,
			"-0.002": 17.6095506413,
			"-0.001": 20.9495872541,
			"0.0": 27.7094861796,
			"0.001": 34.9570986707,
			"0.002": 21.582830941,
			"0.003": 6.14209214232,
			"0.004": 6.07768798541,
			"0.005": 6.32081819426,
			"0.006": 5.32534892185,
			"0.007": 8.7104043768,
			"0.008": 10.0110034006,
			"0.009": 6.03119097475,
			"0.01": 3.99595595579,
			"0.011": 1.90601896962,
			"0.012": 1.7137412586,
			"0.013": 4.98469750399,
			"0.014": 4.78063023407,
			"0.015": 0.667883506085,
			"0.016": 0.0,
			"0.017": 0.0,
			"0.018": 0.0,
			"0.019": 0.0,
			"0.02": 0.0,
			"0.021": 0.0,
			"0.022": 0.0,
			"0.023": 0.0,
			"0.024": 0.0,
			"0.025": 0.0
		}
	}
}
