{
	 "smiles": "C1CCN(C1)C1CCNCC1", 
	 "Tm": 327.65, 
	 "num_atms": 29, 
	 "gaussian": { 
		 "optdone": 1, 
		 "sigma_profile": "yes", 
		 "theory": "DFT", 
		 "functional": "B3LYP", 
		 "basiset": "6-31G**", 
		 "properties": { 
			 "R2extent": 2244.7694, 
			 "electric_dipole_moment_norm": 1.9530289578, 
			 "electric_quadrupole_moment_norm": 4.36327531563, 
			 "total_energy": -463.292464951, 
			 "HOMO_LUMO_gap": 0.26532, 
			 "cosmo_polarized_energy": -6.16, 
			 "cosmo_cavitation_energy": 27.04, 
			 "cosmo_dispersion_energy": -20.36, 
			 "cosmo_repulsion_energy": 1.62, 
			 "cosmo_total_nonelectrostatic_energy": 8.3, 
			 "SMD_solvation_energy": -0.29 
		},
		"coords": [
			{
				"x": -1.8883280774,
				"y": -0.421336095,
				"z": 3.3875704856,
				"element": "C" 
			},
			{
				"x": -0.3611717627,
				"y": -0.6838674795,
				"z": 3.4613453178,
				"element": "C" 
			},
			{
				"x": 0.1953384857,
				"y": 0.127125059,
				"z": 2.2648184368,
				"element": "C" 
			},
			{
				"x": -0.8687326853,
				"y": 0.1752615167,
				"z": 1.2483278862,
				"element": "N" 
			},
			{
				"x": -2.06387084,
				"y": 0.4114269691,
				"z": 2.0814714621,
				"element": "C" 
			},
			{
				"x": -1.0126839701,
				"y": -1.011877527,
				"z": 0.3679214702,
				"element": "C" 
			},
			{
				"x": -1.9396967327,
				"y": -0.6539771783,
				"z": -0.8193199932,
				"element": "C" 
			},
			{
				"x": -1.2753437902,
				"y": 0.3575231212,
				"z": -1.76972896,
				"element": "C" 
			},
			{
				"x": 0.0303191011,
				"y": -0.0720069481,
				"z": -2.2852714076,
				"element": "N" 
			},
			{
				"x": 0.9359339554,
				"y": -0.4623981022,
				"z": -1.1993196578,
				"element": "C" 
			},
			{
				"x": 0.3282636291,
				"y": -1.4906514265,
				"z": -0.2276387263,
				"element": "C" 
			},
			{
				"x": -2.2605191196,
				"y": 0.1263429941,
				"z": 4.2587255931,
				"element": "H" 
			},
			{
				"x": -2.4485316252,
				"y": -1.3600286211,
				"z": 3.3379485943,
				"element": "H" 
			},
			{
				"x": -0.1416681025,
				"y": -1.7499131583,
				"z": 3.3395806146,
				"element": "H" 
			},
			{
				"x": 0.080362729,
				"y": -0.3705536098,
				"z": 4.4123722544,
				"element": "H" 
			},
			{
				"x": 0.3873204061,
				"y": 1.1605555525,
				"z": 2.5834578274,
				"element": "H" 
			},
			{
				"x": 1.1330694602,
				"y": -0.2598164875,
				"z": 1.866646887,
				"element": "H" 
			},
			{
				"x": -2.1060979232,
				"y": 1.4802797062,
				"z": 2.3261139077,
				"element": "H" 
			},
			{
				"x": -2.9814103,
				"y": 0.1678448812,
				"z": 1.5430405426,
				"element": "H" 
			},
			{
				"x": -1.4590425645,
				"y": -1.8630175224,
				"z": 0.9156106866,
				"element": "H" 
			},
			{
				"x": -2.8986026751,
				"y": -0.2586406145,
				"z": -0.4660190852,
				"element": "H" 
			},
			{
				"x": -2.1704310206,
				"y": -1.5789266736,
				"z": -1.3664650452,
				"element": "H" 
			},
			{
				"x": -1.9320510412,
				"y": 0.5676190677,
				"z": -2.6216865971,
				"element": "H" 
			},
			{
				"x": -1.1268651028,
				"y": 1.3002712907,
				"z": -1.2314331781,
				"element": "H" 
			},
			{
				"x": -0.1084534004,
				"y": -0.8759048311,
				"z": -2.8964530247,
				"element": "H" 
			},
			{
				"x": 1.8575027819,
				"y": -0.8586488618,
				"z": -1.6412182469,
				"element": "H" 
			},
			{
				"x": 1.209239429,
				"y": 0.4469861584,
				"z": -0.6507960431,
				"element": "H" 
			},
			{
				"x": 1.0466442837,
				"y": -1.7633116157,
				"z": 0.5529917969,
				"element": "H" 
			},
			{
				"x": 0.1222064723,
				"y": -2.4185595644,
				"z": -0.7785937983,
				"element": "H" 
			}
		],
		 "valence_orbital": [ 
			{
				"type": "occ",
				"energy": -0.31799,
				"method": "rhf"
			},
			{
				"type": "occ",
				"energy": -0.31572,
				"method": "rhf"
			},
			{
				"type": "occ",
				"energy": -0.30142,
				"method": "rhf"
			},
			{
				"type": "occ",
				"energy": -0.21399,
				"method": "rhf"
			},
			{
				"type": "occ",
				"energy": -0.19858,
				"method": "rhf"
			},
			{
				"type": "unocc",
				"energy": 0.06674,
				"method": "rhf"
			},
			{
				"type": "unocc",
				"energy": 0.09617,
				"method": "rhf"
			},
			{
				"type": "unocc",
				"energy": 0.10304,
				"method": "rhf"
			},
			{
				"type": "unocc",
				"energy": 0.11823,
				"method": "rhf"
			},
			{
				"type": "unocc",
				"energy": 0.12368,
				"method": "rhf"
			}
		],
		"cosmo_sigma_profile": { 
			"-0.025": 0.0,
			"-0.024": 0.0,
			"-0.023": 0.0,
			"-0.022": 0.0,
			"-0.021": 0.0,
			"-0.02": 0.0,
			"-0.019": 0.0,
			"-0.018": 0.0,
			"-0.017": 0.0,
			"-0.016": 0.0,
			"-0.015": 0.0,
			"-0.014": 0.0,
			"-0.013": 0.0,
			"-0.012": 0.0,
			"-0.011": 0.0,
			"-0.01": 0.0,
			"-0.009": 0.751812827791,
			"-0.008": 1.38984567649,
			"-0.007": 1.50164660247,
			"-0.006": 1.0678109965,
			"-0.005": 2.68946794035,
			"-0.004": 7.06478519411,
			"-0.003": 18.6614189061,
			"-0.002": 37.4301276668,
			"-0.001": 44.5998575947,
			"0.0": 34.2870802832,
			"0.001": 23.2868806852,
			"0.002": 9.06773267759,
			"0.003": 4.37411567104,
			"0.004": 2.27449323391,
			"0.005": 2.39840706081,
			"0.006": 1.79836054078,
			"0.007": 1.94384837248,
			"0.008": 2.1591735961,
			"0.009": 1.45154147436,
			"0.01": 1.36395855955,
			"0.011": 1.36602185492,
			"0.012": 1.59678029101,
			"0.013": 1.15423986936,
			"0.014": 0.753351732044,
			"0.015": 0.50891524086,
			"0.016": 0.53135872994,
			"0.017": 0.477616043184,
			"0.018": 0.684773502558,
			"0.019": 0.580533276493,
			"0.02": 0.0739175263722,
			"0.021": 0.0,
			"0.022": 0.0,
			"0.023": 0.0,
			"0.024": 0.0,
			"0.025": 0.0
		}
	}
}
