{
	 "smiles": "COC1=C(NC2=C(C=CC=N2)C(O)=O)C=CC=C1", 
	 "Tm": 449.15, 
	 "num_atms": 30, 
	 "gaussian": { 
		 "optdone": 1, 
		 "sigma_profile": "yes", 
		 "theory": "DFT", 
		 "functional": "B3LYP", 
		 "basiset": "6-31G**", 
		 "properties": { 
			 "R2extent": 4655.5353, 
			 "electric_dipole_moment_norm": 2.09535459768, 
			 "electric_quadrupole_moment_norm": 8.66029924425, 
			 "total_energy": -837.791648902, 
			 "HOMO_LUMO_gap": 0.15882, 
			 "cosmo_polarized_energy": -15.63, 
			 "cosmo_cavitation_energy": 34.54, 
			 "cosmo_dispersion_energy": -24.16, 
			 "cosmo_repulsion_energy": 1.89, 
			 "cosmo_total_nonelectrostatic_energy": 12.28, 
			 "SMD_solvation_energy": 7.21 
		},
		"coords": [
			{
				"x": 3.0449540665,
				"y": 0.8828694825,
				"z": 0.2374954582,
				"element": "C" 
			},
			{
				"x": 2.5082819747,
				"y": 0.3308930801,
				"z": -0.9639853183,
				"element": "O" 
			},
			{
				"x": 2.3339694972,
				"y": -1.032644564,
				"z": -0.9406754804,
				"element": "C" 
			},
			{
				"x": 1.2310337629,
				"y": -1.6190780402,
				"z": -0.2894114749,
				"element": "C" 
			},
			{
				"x": 0.2805973166,
				"y": -0.8272266488,
				"z": 0.4073807547,
				"element": "N" 
			},
			{
				"x": -0.5324726096,
				"y": 0.1157495373,
				"z": -0.1686092018,
				"element": "C" 
			},
			{
				"x": -1.4317226134,
				"y": 0.9225147547,
				"z": 0.600027564,
				"element": "C" 
			},
			{
				"x": -2.2040427507,
				"y": 1.8666641866,
				"z": -0.0929594317,
				"element": "C" 
			},
			{
				"x": -2.0917011829,
				"y": 2.0008779502,
				"z": -1.4676053425,
				"element": "C" 
			},
			{
				"x": -1.1918529784,
				"y": 1.1508155163,
				"z": -2.1190636735,
				"element": "C" 
			},
			{
				"x": -0.4438036626,
				"y": 0.2403279041,
				"z": -1.5058464712,
				"element": "N" 
			},
			{
				"x": -1.6429704776,
				"y": 0.8712320046,
				"z": 2.0600358089,
				"element": "C" 
			},
			{
				"x": -0.9172811302,
				"y": -0.0922083952,
				"z": 2.7113343457,
				"element": "O" 
			},
			{
				"x": -2.3918986202,
				"y": 1.5965850966,
				"z": 2.6863378213,
				"element": "O" 
			},
			{
				"x": 1.1107580716,
				"y": -3.0125209455,
				"z": -0.2778326171,
				"element": "C" 
			},
			{
				"x": 2.0552200323,
				"y": -3.8186303182,
				"z": -0.9139012291,
				"element": "C" 
			},
			{
				"x": 3.1249052258,
				"y": -3.2307887633,
				"z": -1.5895119854,
				"element": "C" 
			},
			{
				"x": 3.2607449917,
				"y": -1.8419470947,
				"z": -1.5992245661,
				"element": "C" 
			},
			{
				"x": 2.3866726727,
				"y": 0.7013726259,
				"z": 1.0956375827,
				"element": "H" 
			},
			{
				"x": 4.039274408,
				"y": 0.4700309049,
				"z": 0.4544230725,
				"element": "H" 
			},
			{
				"x": 3.1301888196,
				"y": 1.9588678563,
				"z": 0.0718220166,
				"element": "H" 
			},
			{
				"x": 0.0947642538,
				"y": -1.0504895544,
				"z": 1.3745196177,
				"element": "H" 
			},
			{
				"x": -2.8846878197,
				"y": 2.4806541354,
				"z": 0.4873521589,
				"element": "H" 
			},
			{
				"x": -2.6784531777,
				"y": 2.724945543,
				"z": -2.0213291737,
				"element": "H" 
			},
			{
				"x": -1.0734962674,
				"y": 1.2027347829,
				"z": -3.2009276363,
				"element": "H" 
			},
			{
				"x": -1.1616617899,
				"y": -0.0103060036,
				"z": 3.6480594807,
				"element": "H" 
			},
			{
				"x": 0.2551473131,
				"y": -3.4569478483,
				"z": 0.223149382,
				"element": "H" 
			},
			{
				"x": 1.9426973455,
				"y": -4.8984078334,
				"z": -0.8963062756,
				"element": "H" 
			},
			{
				"x": 3.8562954428,
				"y": -3.8489843478,
				"z": -2.101681379,
				"element": "H" 
			},
			{
				"x": 4.0889398855,
				"y": -1.3588550039,
				"z": -2.108203807,
				"element": "H" 
			}
		],
		 "valence_orbital": [ 
			{
				"type": "occ",
				"energy": -0.2709,
				"method": "rhf"
			},
			{
				"type": "occ",
				"energy": -0.25599,
				"method": "rhf"
			},
			{
				"type": "occ",
				"energy": -0.2516,
				"method": "rhf"
			},
			{
				"type": "occ",
				"energy": -0.23724,
				"method": "rhf"
			},
			{
				"type": "occ",
				"energy": -0.20958,
				"method": "rhf"
			},
			{
				"type": "unocc",
				"energy": -0.05076,
				"method": "rhf"
			},
			{
				"type": "unocc",
				"energy": -0.01315,
				"method": "rhf"
			},
			{
				"type": "unocc",
				"energy": 0.00264,
				"method": "rhf"
			},
			{
				"type": "unocc",
				"energy": 0.01165,
				"method": "rhf"
			},
			{
				"type": "unocc",
				"energy": 0.05197,
				"method": "rhf"
			}
		],
		"cosmo_sigma_profile": { 
			"-0.025": 0.0,
			"-0.024": 0.0,
			"-0.023": 0.0,
			"-0.022": 0.0,
			"-0.021": 0.0,
			"-0.02": 0.0,
			"-0.019": 0.288251449029,
			"-0.018": 0.778666145845,
			"-0.017": 0.964171474891,
			"-0.016": 0.943875585268,
			"-0.015": 0.295996540731,
			"-0.014": 0.602585826907,
			"-0.013": 0.61180250571,
			"-0.012": 0.913094951471,
			"-0.011": 0.572512350894,
			"-0.01": 0.987518852809,
			"-0.009": 1.73100541931,
			"-0.008": 1.78922033845,
			"-0.007": 4.15087507529,
			"-0.006": 15.5065167004,
			"-0.005": 17.8673629249,
			"-0.004": 22.0538513412,
			"-0.003": 25.6020626277,
			"-0.002": 23.3860452059,
			"-0.001": 20.8260566644,
			"0.0": 19.8793530698,
			"0.001": 20.1853209844,
			"0.002": 18.3325020423,
			"0.003": 16.8570188962,
			"0.004": 12.1824056326,
			"0.005": 11.6643458809,
			"0.006": 6.23558760619,
			"0.007": 3.41233663652,
			"0.008": 3.79672384445,
			"0.009": 3.69137736862,
			"0.01": 3.91693753455,
			"0.011": 6.00301036657,
			"0.012": 6.12741719489,
			"0.013": 2.59206779091,
			"0.014": 1.58001818974,
			"0.015": 0.00631253415916,
			"0.016": 0.0,
			"0.017": 0.0,
			"0.018": 0.0,
			"0.019": 0.0,
			"0.02": 0.0,
			"0.021": 0.0,
			"0.022": 0.0,
			"0.023": 0.0,
			"0.024": 0.0,
			"0.025": 0.0
		}
	}
}
