{
	 "smiles": "OCC1OC(C(O)C1O)N1C=NC2=C1N=CN=C2S", 
	 "Tm": 493.15, 
	 "num_atms": 31, 
	 "gaussian": { 
		 "optdone": 1, 
		 "sigma_profile": "yes", 
		 "theory": "DFT", 
		 "functional": "B3LYP", 
		 "basiset": "6-31G**", 
		 "properties": { 
			 "R2extent": 6311.4519, 
			 "electric_dipole_moment_norm": 2.3507173671, 
			 "electric_quadrupole_moment_norm": 8.2619929908, 
			 "total_energy": -1306.34965811, 
			 "HOMO_LUMO_gap": 0.18603, 
			 "cosmo_polarized_energy": -22.67, 
			 "cosmo_cavitation_energy": 35.68, 
			 "cosmo_dispersion_energy": -26.38, 
			 "cosmo_repulsion_energy": 1.98, 
			 "cosmo_total_nonelectrostatic_energy": 11.28, 
			 "SMD_solvation_energy": 2.25 
		},
		"coords": [
			{
				"x": -4.1604347137,
				"y": 0.4906577925,
				"z": -1.6534780008,
				"element": "O" 
			},
			{
				"x": -3.0070849791,
				"y": 1.3160657439,
				"z": -1.6402896435,
				"element": "C" 
			},
			{
				"x": -2.057698262,
				"y": 0.830030447,
				"z": -0.5593830165,
				"element": "C" 
			},
			{
				"x": -1.5117551431,
				"y": -0.4408184469,
				"z": -0.9555946803,
				"element": "O" 
			},
			{
				"x": -1.2507609876,
				"y": -1.2293985387,
				"z": 0.1715571969,
				"element": "C" 
			},
			{
				"x": -2.2283282553,
				"y": -0.7908676625,
				"z": 1.2782203415,
				"element": "C" 
			},
			{
				"x": -3.2578828988,
				"y": -1.7678903886,
				"z": 1.2774772789,
				"element": "O" 
			},
			{
				"x": -2.7041097164,
				"y": 0.62503092,
				"z": 0.8388880614,
				"element": "C" 
			},
			{
				"x": -2.391200425,
				"y": 1.6524201408,
				"z": 1.7470802705,
				"element": "O" 
			},
			{
				"x": 0.1689583566,
				"y": -1.1649836705,
				"z": 0.5757288178,
				"element": "N" 
			},
			{
				"x": 1.1147619731,
				"y": -2.1192097121,
				"z": 0.2388481473,
				"element": "C" 
			},
			{
				"x": 2.3350476596,
				"y": -1.8426831217,
				"z": 0.6223111147,
				"element": "N" 
			},
			{
				"x": 2.2117423308,
				"y": -0.6192512626,
				"z": 1.2468255554,
				"element": "C" 
			},
			{
				"x": 0.8745831312,
				"y": -0.1723584859,
				"z": 1.2258083617,
				"element": "C" 
			},
			{
				"x": 0.4383828556,
				"y": 0.9806108166,
				"z": 1.7499776505,
				"element": "N" 
			},
			{
				"x": 1.4197555337,
				"y": 1.6961393947,
				"z": 2.3148557393,
				"element": "C" 
			},
			{
				"x": 2.7207648656,
				"y": 1.3862741987,
				"z": 2.4004111552,
				"element": "N" 
			},
			{
				"x": 3.1368688413,
				"y": 0.2282002012,
				"z": 1.8712474083,
				"element": "C" 
			},
			{
				"x": 4.843759669,
				"y": -0.2140920957,
				"z": 1.9655718652,
				"element": "S" 
			},
			{
				"x": -4.745674485,
				"y": 0.8010806975,
				"z": -2.3542672072,
				"element": "H" 
			},
			{
				"x": -3.2565651602,
				"y": 2.3650640669,
				"z": -1.4134316577,
				"element": "H" 
			},
			{
				"x": -2.4802847118,
				"y": 1.2938478751,
				"z": -2.6060861038,
				"element": "H" 
			},
			{
				"x": -1.2475008607,
				"y": 1.5668801803,
				"z": -0.4627363317,
				"element": "H" 
			},
			{
				"x": -1.4291108074,
				"y": -2.2751957215,
				"z": -0.0889949878,
				"element": "H" 
			},
			{
				"x": -1.7421905391,
				"y": -0.7286851305,
				"z": 2.260582611,
				"element": "H" 
			},
			{
				"x": -3.9814896567,
				"y": -1.4374881173,
				"z": 1.8254731147,
				"element": "H" 
			},
			{
				"x": -3.7925367823,
				"y": 0.6035787729,
				"z": 0.7346670013,
				"element": "H" 
			},
			{
				"x": -1.4206791303,
				"y": 1.6189507217,
				"z": 1.8634676058,
				"element": "H" 
			},
			{
				"x": 0.8207069661,
				"y": -3.0129209948,
				"z": -0.2969066307,
				"element": "H" 
			},
			{
				"x": 1.1276627387,
				"y": 2.6444869068,
				"z": 2.7587115995,
				"element": "H" 
			},
			{
				"x": 5.1860925933,
				"y": 0.9118244731,
				"z": 2.6224573628,
				"element": "H" 
			}
		],
		 "valence_orbital": [ 
			{
				"type": "occ",
				"energy": -0.27694,
				"method": "rhf"
			},
			{
				"type": "occ",
				"energy": -0.27523,
				"method": "rhf"
			},
			{
				"type": "occ",
				"energy": -0.26884,
				"method": "rhf"
			},
			{
				"type": "occ",
				"energy": -0.25213,
				"method": "rhf"
			},
			{
				"type": "occ",
				"energy": -0.24315,
				"method": "rhf"
			},
			{
				"type": "unocc",
				"energy": -0.05712,
				"method": "rhf"
			},
			{
				"type": "unocc",
				"energy": -0.02223,
				"method": "rhf"
			},
			{
				"type": "unocc",
				"energy": 0.01477,
				"method": "rhf"
			},
			{
				"type": "unocc",
				"energy": 0.02046,
				"method": "rhf"
			},
			{
				"type": "unocc",
				"energy": 0.06819,
				"method": "rhf"
			}
		],
		"cosmo_sigma_profile": { 
			"-0.025": 0.0,
			"-0.024": 0.0,
			"-0.023": 0.0,
			"-0.022": 0.0,
			"-0.021": 0.0,
			"-0.02": 0.0,
			"-0.019": 0.0,
			"-0.018": 0.0,
			"-0.017": 0.179707795192,
			"-0.016": 1.89443449439,
			"-0.015": 2.56179656816,
			"-0.014": 1.4926367314,
			"-0.013": 1.45003345685,
			"-0.012": 4.09646182696,
			"-0.011": 5.78468401159,
			"-0.01": 5.88175968015,
			"-0.009": 5.78279449461,
			"-0.008": 6.69996011486,
			"-0.007": 7.09283715257,
			"-0.006": 8.9612893526,
			"-0.005": 16.661297423,
			"-0.004": 19.1731169704,
			"-0.003": 21.3838475513,
			"-0.002": 19.0771727043,
			"-0.001": 18.3776264532,
			"0.0": 16.2374286024,
			"0.001": 14.1508461887,
			"0.002": 12.5918003062,
			"0.003": 11.7088759831,
			"0.004": 12.3799358662,
			"0.005": 9.39958298098,
			"0.006": 9.61507157011,
			"0.007": 7.41942238482,
			"0.008": 6.80092565474,
			"0.009": 6.40412156292,
			"0.01": 7.24161322007,
			"0.011": 7.69808433027,
			"0.012": 6.8434822781,
			"0.013": 4.92367550421,
			"0.014": 3.9944340952,
			"0.015": 1.24283053837,
			"0.016": 0.0,
			"0.017": 0.0,
			"0.018": 0.0,
			"0.019": 0.0,
			"0.02": 0.0,
			"0.021": 0.0,
			"0.022": 0.0,
			"0.023": 0.0,
			"0.024": 0.0,
			"0.025": 0.0
		}
	}
}
