{
	 "smiles": "NC1=C(C=CC(Cl)=C1)C#N", 
	 "Tm": 434.15, 
	 "num_atms": 15, 
	 "gaussian": { 
		 "optdone": 1, 
		 "sigma_profile": "yes", 
		 "theory": "DFT", 
		 "functional": "B3LYP", 
		 "basiset": "6-31G**", 
		 "properties": { 
			 "R2extent": 2509.2528, 
			 "electric_dipole_moment_norm": 2.6445250273, 
			 "electric_quadrupole_moment_norm": 17.1792310317, 
			 "total_energy": -839.444686516, 
			 "HOMO_LUMO_gap": 0.17825, 
			 "cosmo_polarized_energy": -11.5, 
			 "cosmo_cavitation_energy": 22.19, 
			 "cosmo_dispersion_energy": -16.15, 
			 "cosmo_repulsion_energy": 1.32, 
			 "cosmo_total_nonelectrostatic_energy": 7.35, 
			 "SMD_solvation_energy": 4.76 
		},
		"coords": [
			{
				"x": -2.0409322328,
				"y": 0.5088791991,
				"z": -1.0422025682,
				"element": "N" 
			},
			{
				"x": -0.6732962506,
				"y": 0.5131372735,
				"z": -1.1514098266,
				"element": "C" 
			},
			{
				"x": 0.0615185874,
				"y": -0.7037073076,
				"z": -1.1876334185,
				"element": "C" 
			},
			{
				"x": 1.4565832173,
				"y": -0.6844246721,
				"z": -1.3495389906,
				"element": "C" 
			},
			{
				"x": 2.1496654263,
				"y": 0.5112729111,
				"z": -1.4713577815,
				"element": "C" 
			},
			{
				"x": 1.4164586127,
				"y": 1.7027008847,
				"z": -1.4279330149,
				"element": "C" 
			},
			{
				"x": 2.267553776,
				"y": 3.229814291,
				"z": -1.5745013873,
				"element": "Cl" 
			},
			{
				"x": 0.0375764528,
				"y": 1.7222427772,
				"z": -1.2724105473,
				"element": "C" 
			},
			{
				"x": -0.6438325097,
				"y": -1.9363330596,
				"z": -1.0453433846,
				"element": "C" 
			},
			{
				"x": -1.2722025689,
				"y": -2.9090127823,
				"z": -0.915345511,
				"element": "N" 
			},
			{
				"x": -2.4962880842,
				"y": -0.3482586284,
				"z": -0.7640020904,
				"element": "H" 
			},
			{
				"x": -2.502051348,
				"y": 1.360510487,
				"z": -0.7644884602,
				"element": "H" 
			},
			{
				"x": 1.991818226,
				"y": -1.6278179814,
				"z": -1.3737331173,
				"element": "H" 
			},
			{
				"x": 3.2252266346,
				"y": 0.5291191509,
				"z": -1.5945951422,
				"element": "H" 
			},
			{
				"x": -0.4941979388,
				"y": 2.6672774569,
				"z": -1.2512047594,
				"element": "H" 
			}
		],
		 "valence_orbital": [ 
			{
				"type": "occ",
				"energy": -0.33702,
				"method": "rhf"
			},
			{
				"type": "occ",
				"energy": -0.32439,
				"method": "rhf"
			},
			{
				"type": "occ",
				"energy": -0.31866,
				"method": "rhf"
			},
			{
				"type": "occ",
				"energy": -0.26291,
				"method": "rhf"
			},
			{
				"type": "occ",
				"energy": -0.23005,
				"method": "rhf"
			},
			{
				"type": "unocc",
				"energy": -0.0518,
				"method": "rhf"
			},
			{
				"type": "unocc",
				"energy": -0.01469,
				"method": "rhf"
			},
			{
				"type": "unocc",
				"energy": 0.01721,
				"method": "rhf"
			},
			{
				"type": "unocc",
				"energy": 0.02723,
				"method": "rhf"
			},
			{
				"type": "unocc",
				"energy": 0.06674,
				"method": "rhf"
			}
		],
		"cosmo_sigma_profile": { 
			"-0.025": 0.0,
			"-0.024": 0.0,
			"-0.023": 0.0,
			"-0.022": 0.0,
			"-0.021": 0.0,
			"-0.02": 0.0,
			"-0.019": 0.0,
			"-0.018": 0.0,
			"-0.017": 0.0,
			"-0.016": 0.0,
			"-0.015": 0.186220656275,
			"-0.014": 1.66777138094,
			"-0.013": 2.25768544309,
			"-0.012": 2.75760284574,
			"-0.011": 2.15572523495,
			"-0.01": 3.13549263206,
			"-0.009": 2.44337899683,
			"-0.008": 5.39101164468,
			"-0.007": 6.85638069161,
			"-0.006": 7.25312384983,
			"-0.005": 5.39514675369,
			"-0.004": 6.65837475093,
			"-0.003": 6.66216945221,
			"-0.002": 8.43067026694,
			"-0.001": 10.7052307588,
			"0.0": 14.6997857041,
			"0.001": 19.9943422536,
			"0.002": 18.9831637668,
			"0.003": 13.5256853372,
			"0.004": 13.7978138568,
			"0.005": 4.54962682472,
			"0.006": 3.35222299255,
			"0.007": 3.16491009578,
			"0.008": 2.97879580671,
			"0.009": 3.70985073341,
			"0.01": 3.46415806647,
			"0.011": 2.65273283811,
			"0.012": 2.66147308405,
			"0.013": 1.70568281754,
			"0.014": 0.139722718673,
			"0.015": 0.0,
			"0.016": 0.0,
			"0.017": 0.0,
			"0.018": 0.0,
			"0.019": 0.0,
			"0.02": 0.0,
			"0.021": 0.0,
			"0.022": 0.0,
			"0.023": 0.0,
			"0.024": 0.0,
			"0.025": 0.0
		}
	}
}
