{
	 "smiles": "OC(=O)COC1=C(OCC2=CC=CC=C2)C=CC=C1", 
	 "Tm": 361.15, 
	 "num_atms": 33, 
	 "gaussian": { 
		 "optdone": 1, 
		 "sigma_profile": "yes", 
		 "theory": "DFT", 
		 "functional": "B3LYP", 
		 "basiset": "6-31G**", 
		 "properties": { 
			 "R2extent": 5858.4814, 
			 "electric_dipole_moment_norm": 1.70019620338, 
			 "electric_quadrupole_moment_norm": 14.3418434847, 
			 "total_energy": -880.910187564, 
			 "HOMO_LUMO_gap": 0.22074, 
			 "cosmo_polarized_energy": -13.93, 
			 "cosmo_cavitation_energy": 38.07, 
			 "cosmo_dispersion_energy": -25.86, 
			 "cosmo_repulsion_energy": 2.0, 
			 "cosmo_total_nonelectrostatic_energy": 14.21, 
			 "SMD_solvation_energy": 7.9 
		},
		"coords": [
			{
				"x": -2.590395482,
				"y": -1.5097129893,
				"z": 1.4921369681,
				"element": "O" 
			},
			{
				"x": -2.2364382833,
				"y": -2.2287729479,
				"z": 0.4046382687,
				"element": "C" 
			},
			{
				"x": -2.2688922884,
				"y": -3.4378615211,
				"z": 0.3688674139,
				"element": "O" 
			},
			{
				"x": -1.7325476972,
				"y": -1.3779729257,
				"z": -0.7432705991,
				"element": "C" 
			},
			{
				"x": -2.3256636739,
				"y": -0.083154929,
				"z": -0.7106921727,
				"element": "O" 
			},
			{
				"x": -1.8233009751,
				"y": 0.8114560644,
				"z": -1.6369157988,
				"element": "C" 
			},
			{
				"x": -0.505786591,
				"y": 1.2973728603,
				"z": -1.5431394798,
				"element": "C" 
			},
			{
				"x": 0.3532867873,
				"y": 0.8430378811,
				"z": -0.5657051874,
				"element": "O" 
			},
			{
				"x": 0.0504318093,
				"y": 1.3117001603,
				"z": 0.7744357663,
				"element": "C" 
			},
			{
				"x": 1.0759151951,
				"y": 0.7423283964,
				"z": 1.7184241819,
				"element": "C" 
			},
			{
				"x": 2.4072482827,
				"y": 1.1765737293,
				"z": 1.6621171318,
				"element": "C" 
			},
			{
				"x": 3.3620547538,
				"y": 0.6480768468,
				"z": 2.5287694157,
				"element": "C" 
			},
			{
				"x": 2.9952125128,
				"y": -0.3209817609,
				"z": 3.4671001019,
				"element": "C" 
			},
			{
				"x": 1.6726847366,
				"y": -0.7604980699,
				"z": 3.5294189436,
				"element": "C" 
			},
			{
				"x": 0.718824245,
				"y": -0.2330715503,
				"z": 2.6557821598,
				"element": "C" 
			},
			{
				"x": -0.0452995975,
				"y": 2.21799658,
				"z": -2.4856383883,
				"element": "C" 
			},
			{
				"x": -0.8868161632,
				"y": 2.6689992336,
				"z": -3.5041977256,
				"element": "C" 
			},
			{
				"x": -2.2011777123,
				"y": 2.2053770305,
				"z": -3.5787701573,
				"element": "C" 
			},
			{
				"x": -2.6649004812,
				"y": 1.2732499529,
				"z": -2.6486232364,
				"element": "C" 
			},
			{
				"x": -2.8708025997,
				"y": -2.1611124797,
				"z": 2.1578747587,
				"element": "H" 
			},
			{
				"x": -1.9731899144,
				"y": -1.9037026925,
				"z": -1.674368801,
				"element": "H" 
			},
			{
				"x": -0.6400185503,
				"y": -1.3120559988,
				"z": -0.6529178934,
				"element": "H" 
			},
			{
				"x": 0.0873044329,
				"y": 2.4094717338,
				"z": 0.7691865595,
				"element": "H" 
			},
			{
				"x": -0.9594340547,
				"y": 0.998713844,
				"z": 1.0562262724,
				"element": "H" 
			},
			{
				"x": 2.692359423,
				"y": 1.9284486227,
				"z": 0.931008884,
				"element": "H" 
			},
			{
				"x": 4.391034904,
				"y": 0.9925005035,
				"z": 2.4765050968,
				"element": "H" 
			},
			{
				"x": 3.7383118311,
				"y": -0.7302933414,
				"z": 4.1456144837,
				"element": "H" 
			},
			{
				"x": 1.3833163455,
				"y": -1.5153152189,
				"z": 4.2551918048,
				"element": "H" 
			},
			{
				"x": -0.3102075925,
				"y": -0.5805822668,
				"z": 2.6952039711,
				"element": "H" 
			},
			{
				"x": 0.9787535184,
				"y": 2.5680647522,
				"z": -2.400668451,
				"element": "H" 
			},
			{
				"x": -0.5174155507,
				"y": 3.3866766637,
				"z": -4.2304516732,
				"element": "H" 
			},
			{
				"x": -2.8631264477,
				"y": 2.5583327502,
				"z": -4.363668622,
				"element": "H" 
			},
			{
				"x": -3.6792251224,
				"y": 0.8888110866,
				"z": -2.6883739967,
				"element": "H" 
			}
		],
		 "valence_orbital": [ 
			{
				"type": "occ",
				"energy": -0.26995,
				"method": "rhf"
			},
			{
				"type": "occ",
				"energy": -0.25186,
				"method": "rhf"
			},
			{
				"type": "occ",
				"energy": -0.25088,
				"method": "rhf"
			},
			{
				"type": "occ",
				"energy": -0.24656,
				"method": "rhf"
			},
			{
				"type": "occ",
				"energy": -0.23356,
				"method": "rhf"
			},
			{
				"type": "unocc",
				"energy": -0.01282,
				"method": "rhf"
			},
			{
				"type": "unocc",
				"energy": -0.00425,
				"method": "rhf"
			},
			{
				"type": "unocc",
				"energy": -0.00307,
				"method": "rhf"
			},
			{
				"type": "unocc",
				"energy": -0.00087,
				"method": "rhf"
			},
			{
				"type": "unocc",
				"energy": 0.0038,
				"method": "rhf"
			}
		],
		"cosmo_sigma_profile": { 
			"-0.025": 0.0,
			"-0.024": 0.0,
			"-0.023": 0.0,
			"-0.022": 0.0,
			"-0.021": 0.0,
			"-0.02": 0.0,
			"-0.019": 0.14053309388,
			"-0.018": 1.27743188127,
			"-0.017": 0.471087771883,
			"-0.016": 0.806043945817,
			"-0.015": 1.02577196932,
			"-0.014": 0.79001613318,
			"-0.013": 0.77869579964,
			"-0.012": 0.57993276642,
			"-0.011": 0.601008021517,
			"-0.01": 0.760347479742,
			"-0.009": 0.79020918431,
			"-0.008": 0.585386338912,
			"-0.007": 4.05467442059,
			"-0.006": 14.9299620966,
			"-0.005": 24.4878112587,
			"-0.004": 27.5784947949,
			"-0.003": 29.0940147449,
			"-0.002": 23.3240032027,
			"-0.001": 20.4508487023,
			"0.0": 16.721667535,
			"0.001": 17.4928312792,
			"0.002": 17.5918591231,
			"0.003": 20.6726179602,
			"0.004": 20.3338138191,
			"0.005": 20.3929848085,
			"0.006": 10.1039776429,
			"0.007": 4.73966881021,
			"0.008": 3.74077471902,
			"0.009": 4.28271006194,
			"0.01": 4.32755413623,
			"0.011": 7.28584986169,
			"0.012": 3.38157466752,
			"0.013": 0.0961753477334,
			"0.014": 0.0,
			"0.015": 0.0,
			"0.016": 0.0,
			"0.017": 0.0,
			"0.018": 0.0,
			"0.019": 0.0,
			"0.02": 0.0,
			"0.021": 0.0,
			"0.022": 0.0,
			"0.023": 0.0,
			"0.024": 0.0,
			"0.025": 0.0
		}
	}
}
