{
	 "smiles": "CC1=C(SC2=C1C(=O)NC(CC1=CC=CC=C1)=N2)C(O)=O", 
	 "Tm": 616.15, 
	 "num_atms": 33, 
	 "gaussian": { 
		 "optdone": 1, 
		 "sigma_profile": "yes", 
		 "theory": "DFT", 
		 "functional": "B3LYP", 
		 "basiset": "6-31G**", 
		 "properties": { 
			 "R2extent": 9642.2428, 
			 "electric_dipole_moment_norm": 7.26102460538, 
			 "electric_quadrupole_moment_norm": 29.1999277946, 
			 "total_energy": -1312.23189521, 
			 "HOMO_LUMO_gap": 0.16295, 
			 "cosmo_polarized_energy": -21.71, 
			 "cosmo_cavitation_energy": 39.11, 
			 "cosmo_dispersion_energy": -28.73, 
			 "cosmo_repulsion_energy": 2.13, 
			 "cosmo_total_nonelectrostatic_energy": 12.51, 
			 "SMD_solvation_energy": 5.86 
		},
		"coords": [
			{
				"x": 3.2160986019,
				"y": -3.0099646505,
				"z": 1.6417307426,
				"element": "C" 
			},
			{
				"x": 2.0299987073,
				"y": -3.1113693177,
				"z": 0.7109898703,
				"element": "C" 
			},
			{
				"x": 1.817355215,
				"y": -4.0921041431,
				"z": -0.240349576,
				"element": "C" 
			},
			{
				"x": 0.321573932,
				"y": -3.8748830967,
				"z": -1.1360745343,
				"element": "S" 
			},
			{
				"x": -0.0386577027,
				"y": -2.443749752,
				"z": -0.2266322512,
				"element": "C" 
			},
			{
				"x": 0.9565106992,
				"y": -2.1618339838,
				"z": 0.7168050402,
				"element": "C" 
			},
			{
				"x": 0.7906409575,
				"y": -0.9808438617,
				"z": 1.5484581374,
				"element": "C" 
			},
			{
				"x": 1.5332314023,
				"y": -0.5436097465,
				"z": 2.4205121602,
				"element": "O" 
			},
			{
				"x": -0.4109366596,
				"y": -0.3004632836,
				"z": 1.2463560808,
				"element": "N" 
			},
			{
				"x": -1.3238753453,
				"y": -0.6686551853,
				"z": 0.2977712865,
				"element": "C" 
			},
			{
				"x": -2.5795236488,
				"y": 0.170009259,
				"z": 0.1694329189,
				"element": "C" 
			},
			{
				"x": -2.3614580628,
				"y": 1.6624225239,
				"z": 0.3281356294,
				"element": "C" 
			},
			{
				"x": -1.7988076906,
				"y": 2.4122309787,
				"z": -0.7154857522,
				"element": "C" 
			},
			{
				"x": -1.5764912766,
				"y": 3.7801451965,
				"z": -0.5665854966,
				"element": "C" 
			},
			{
				"x": -1.9101692742,
				"y": 4.420194753,
				"z": 0.6303194949,
				"element": "C" 
			},
			{
				"x": -2.4699594371,
				"y": 3.685106536,
				"z": 1.6747480946,
				"element": "C" 
			},
			{
				"x": -2.6946113678,
				"y": 2.3139952463,
				"z": 1.5228449672,
				"element": "C" 
			},
			{
				"x": -1.172529528,
				"y": -1.7241102048,
				"z": -0.4562770873,
				"element": "N" 
			},
			{
				"x": 2.6046211361,
				"y": -5.2799777514,
				"z": -0.643568355,
				"element": "C" 
			},
			{
				"x": 3.7716645948,
				"y": -5.5229277806,
				"z": 0.0029377764,
				"element": "O" 
			},
			{
				"x": 2.2332189906,
				"y": -6.0256522524,
				"z": -1.5240213553,
				"element": "O" 
			},
			{
				"x": 3.1133840133,
				"y": -2.1284073619,
				"z": 2.2747455333,
				"element": "H" 
			},
			{
				"x": 3.2873091092,
				"y": -3.8829782819,
				"z": 2.3036626851,
				"element": "H" 
			},
			{
				"x": 4.1582293248,
				"y": -2.9086893472,
				"z": 1.0874743431,
				"element": "H" 
			},
			{
				"x": -0.5592662448,
				"y": 0.556857584,
				"z": 1.7693167615,
				"element": "H" 
			},
			{
				"x": -3.2926773967,
				"y": -0.1819266569,
				"z": 0.9264827066,
				"element": "H" 
			},
			{
				"x": -3.0110896434,
				"y": -0.0730367979,
				"z": -0.8045407437,
				"element": "H" 
			},
			{
				"x": -1.537680088,
				"y": 1.9192453843,
				"z": -1.6486062188,
				"element": "H" 
			},
			{
				"x": -1.1440787176,
				"y": 4.348190544,
				"z": -1.3850667363,
				"element": "H" 
			},
			{
				"x": -1.7372461688,
				"y": 5.4861053841,
				"z": 0.74480637,
				"element": "H" 
			},
			{
				"x": -2.7379152325,
				"y": 4.1755776515,
				"z": 2.6059277131,
				"element": "H" 
			},
			{
				"x": -3.1467266554,
				"y": 1.7488831589,
				"z": 2.3349105778,
				"element": "H" 
			},
			{
				"x": 3.9451634566,
				"y": -4.8555807443,
				"z": 0.6800392165,
				"element": "H" 
			}
		],
		 "valence_orbital": [ 
			{
				"type": "occ",
				"energy": -0.27247,
				"method": "rhf"
			},
			{
				"type": "occ",
				"energy": -0.27106,
				"method": "rhf"
			},
			{
				"type": "occ",
				"energy": -0.26841,
				"method": "rhf"
			},
			{
				"type": "occ",
				"energy": -0.2666,
				"method": "rhf"
			},
			{
				"type": "occ",
				"energy": -0.23436,
				"method": "rhf"
			},
			{
				"type": "unocc",
				"energy": -0.07141,
				"method": "rhf"
			},
			{
				"type": "unocc",
				"energy": -0.032,
				"method": "rhf"
			},
			{
				"type": "unocc",
				"energy": -0.02697,
				"method": "rhf"
			},
			{
				"type": "unocc",
				"energy": -0.02546,
				"method": "rhf"
			},
			{
				"type": "unocc",
				"energy": -0.00291,
				"method": "rhf"
			}
		],
		"cosmo_sigma_profile": { 
			"-0.025": 0.0,
			"-0.024": 0.0,
			"-0.023": 0.0,
			"-0.022": 0.0,
			"-0.021": 0.0,
			"-0.02": 0.0,
			"-0.019": 0.0,
			"-0.018": 0.0,
			"-0.017": 0.0,
			"-0.016": 0.0,
			"-0.015": 0.499716220151,
			"-0.014": 1.10449500604,
			"-0.013": 1.69741835811,
			"-0.012": 2.85782604075,
			"-0.011": 2.09633132748,
			"-0.01": 3.5000675366,
			"-0.009": 4.21795373046,
			"-0.008": 5.47703983283,
			"-0.007": 8.39174586256,
			"-0.006": 17.7994228204,
			"-0.005": 19.466180412,
			"-0.004": 23.7680802455,
			"-0.003": 22.5172642174,
			"-0.002": 23.6771431868,
			"-0.001": 24.2946007629,
			"0.0": 22.1765263554,
			"0.001": 20.0303458785,
			"0.002": 19.1694162435,
			"0.003": 16.4549387107,
			"0.004": 13.3226600745,
			"0.005": 13.2622164403,
			"0.006": 6.49438881627,
			"0.007": 4.32926009328,
			"0.008": 5.1497075951,
			"0.009": 5.45826203783,
			"0.01": 7.99667379955,
			"0.011": 8.16993505165,
			"0.012": 8.75033364478,
			"0.013": 3.73905992845,
			"0.014": 0.0437274312056,
			"0.015": 0.0,
			"0.016": 0.0,
			"0.017": 0.0,
			"0.018": 0.0,
			"0.019": 0.0,
			"0.02": 0.0,
			"0.021": 0.0,
			"0.022": 0.0,
			"0.023": 0.0,
			"0.024": 0.0,
			"0.025": 0.0
		}
	}
}
