{
	 "smiles": "O=C1CC2=CC=CC=C12", 
	 "Tm": 287.15, 
	 "num_atms": 15, 
	 "gaussian": { 
		 "optdone": 1, 
		 "sigma_profile": "yes", 
		 "theory": "DFT", 
		 "functional": "B3LYP", 
		 "basiset": "6-31G**", 
		 "properties": { 
			 "R2extent": 1451.6237, 
			 "electric_dipole_moment_norm": 3.49769863482, 
			 "electric_quadrupole_moment_norm": 5.8945870008, 
			 "total_energy": -383.648323807, 
			 "HOMO_LUMO_gap": 0.18918, 
			 "cosmo_polarized_energy": -7.2, 
			 "cosmo_cavitation_energy": 19.33, 
			 "cosmo_dispersion_energy": -14.46, 
			 "cosmo_repulsion_energy": 1.2, 
			 "cosmo_total_nonelectrostatic_energy": 6.07, 
			 "SMD_solvation_energy": 3.79 
		},
		"coords": [
			{
				"x": -1.0540767175,
				"y": -1.4419358441,
				"z": 0.9460488103,
				"element": "O" 
			},
			{
				"x": -0.7462045929,
				"y": -0.3088830194,
				"z": 0.6776464568,
				"element": "C" 
			},
			{
				"x": -0.0654635217,
				"y": 0.8592944408,
				"z": 1.4895755055,
				"element": "C" 
			},
			{
				"x": -0.2251672356,
				"y": 1.6409978389,
				"z": 0.1881456223,
				"element": "C" 
			},
			{
				"x": 0.0094131064,
				"y": 2.8735241,
				"z": -0.4051578981,
				"element": "C" 
			},
			{
				"x": -0.3923928993,
				"y": 3.0001911405,
				"z": -1.7435601058,
				"element": "C" 
			},
			{
				"x": -0.9979246705,
				"y": 1.9446104111,
				"z": -2.4491504004,
				"element": "C" 
			},
			{
				"x": -1.2322591511,
				"y": 0.7042172473,
				"z": -1.8469375608,
				"element": "C" 
			},
			{
				"x": -0.8289658578,
				"y": 0.5912201873,
				"z": -0.5182240656,
				"element": "C" 
			},
			{
				"x": 0.9593903648,
				"y": 0.648334875,
				"z": 1.8143467939,
				"element": "H" 
			},
			{
				"x": -0.6456720553,
				"y": 1.2115654356,
				"z": 2.3495570508,
				"element": "H" 
			},
			{
				"x": 0.4748882457,
				"y": 3.7043277008,
				"z": 0.1166727138,
				"element": "H" 
			},
			{
				"x": -0.2322607239,
				"y": 3.9445506747,
				"z": -2.2570109769,
				"element": "H" 
			},
			{
				"x": -1.2871298489,
				"y": 2.1036859704,
				"z": -3.4839963719,
				"element": "H" 
			},
			{
				"x": -1.6993744425,
				"y": -0.111701159,
				"z": -2.3894555741,
				"element": "H" 
			}
		],
		 "valence_orbital": [ 
			{
				"type": "occ",
				"energy": -0.35962,
				"method": "rhf"
			},
			{
				"type": "occ",
				"energy": -0.33914,
				"method": "rhf"
			},
			{
				"type": "occ",
				"energy": -0.26823,
				"method": "rhf"
			},
			{
				"type": "occ",
				"energy": -0.25916,
				"method": "rhf"
			},
			{
				"type": "occ",
				"energy": -0.24799,
				"method": "rhf"
			},
			{
				"type": "unocc",
				"energy": -0.05881,
				"method": "rhf"
			},
			{
				"type": "unocc",
				"energy": -0.01586,
				"method": "rhf"
			},
			{
				"type": "unocc",
				"energy": 0.04597,
				"method": "rhf"
			},
			{
				"type": "unocc",
				"energy": 0.08805,
				"method": "rhf"
			},
			{
				"type": "unocc",
				"energy": 0.12533,
				"method": "rhf"
			}
		],
		"cosmo_sigma_profile": { 
			"-0.025": 0.0,
			"-0.024": 0.0,
			"-0.023": 0.0,
			"-0.022": 0.0,
			"-0.021": 0.0,
			"-0.02": 0.0,
			"-0.019": 0.0,
			"-0.018": 0.0,
			"-0.017": 0.0,
			"-0.016": 0.0,
			"-0.015": 0.0,
			"-0.014": 0.0,
			"-0.013": 0.0,
			"-0.012": 0.0,
			"-0.011": 0.0,
			"-0.01": 0.0,
			"-0.009": 0.0,
			"-0.008": 0.070453773277,
			"-0.007": 4.17240959477,
			"-0.006": 12.3804427671,
			"-0.005": 14.7048850749,
			"-0.004": 13.9720210002,
			"-0.003": 10.8432177127,
			"-0.002": 14.2233783869,
			"-0.001": 11.3924755612,
			"0.0": 10.5379120396,
			"0.001": 10.4741106415,
			"0.002": 10.256036156,
			"0.003": 12.360691337,
			"0.004": 9.07776564792,
			"0.005": 1.72066461967,
			"0.006": 1.29662692205,
			"0.007": 1.91457980663,
			"0.008": 1.53020069979,
			"0.009": 2.37689154464,
			"0.01": 2.74980748569,
			"0.011": 5.42607737104,
			"0.012": 3.63086367995,
			"0.013": 0.538442288435,
			"0.014": 0.0,
			"0.015": 0.0,
			"0.016": 0.0,
			"0.017": 0.0,
			"0.018": 0.0,
			"0.019": 0.0,
			"0.02": 0.0,
			"0.021": 0.0,
			"0.022": 0.0,
			"0.023": 0.0,
			"0.024": 0.0,
			"0.025": 0.0
		}
	}
}
