{
	 "smiles": "ClC1=CC=CC2=C1OC1=C(O2)C=CC=C1", 
	 "Tm": 377.15, 
	 "num_atms": 22, 
	 "gaussian": { 
		 "optdone": 1, 
		 "sigma_profile": "yes", 
		 "theory": "DFT", 
		 "functional": "B3LYP", 
		 "basiset": "6-31G**", 
		 "properties": { 
			 "R2extent": 4938.5139, 
			 "electric_dipole_moment_norm": 1.71148080328, 
			 "electric_quadrupole_moment_norm": 14.6328441279, 
			 "total_energy": -1072.11536606, 
			 "HOMO_LUMO_gap": 0.18109, 
			 "cosmo_polarized_energy": -5.85, 
			 "cosmo_cavitation_energy": 28.09, 
			 "cosmo_dispersion_energy": -21.43, 
			 "cosmo_repulsion_energy": 1.64, 
			 "cosmo_total_nonelectrostatic_energy": 8.3, 
			 "SMD_solvation_energy": 4.97 
		},
		"coords": [
			{
				"x": 1.5530752057,
				"y": 0.5176891043,
				"z": 2.7524288822,
				"element": "Cl" 
			},
			{
				"x": 0.1980207357,
				"y": 0.6168764079,
				"z": 1.6517466065,
				"element": "C" 
			},
			{
				"x": -0.2419088544,
				"y": 1.8615369041,
				"z": 1.1943934561,
				"element": "C" 
			},
			{
				"x": -1.322144065,
				"y": 1.9268711286,
				"z": 0.318160739,
				"element": "C" 
			},
			{
				"x": -1.9635250321,
				"y": 0.7604053599,
				"z": -0.1026193466,
				"element": "C" 
			},
			{
				"x": -1.5183486394,
				"y": -0.4729721467,
				"z": 0.3580251241,
				"element": "C" 
			},
			{
				"x": -0.4324059837,
				"y": -0.5597097865,
				"z": 1.240584157,
				"element": "C" 
			},
			{
				"x": 0.0297210105,
				"y": -1.7628114126,
				"z": 1.7123529953,
				"element": "O" 
			},
			{
				"x": -0.6323254186,
				"y": -2.8937214734,
				"z": 1.2721245902,
				"element": "C" 
			},
			{
				"x": -1.7157806862,
				"y": -2.8144137394,
				"z": 0.3922281595,
				"element": "C" 
			},
			{
				"x": -2.1775303256,
				"y": -1.60095634,
				"z": -0.0802622693,
				"element": "O" 
			},
			{
				"x": -2.3583022015,
				"y": -3.9725142778,
				"z": -0.0299712448,
				"element": "C" 
			},
			{
				"x": -1.9168784987,
				"y": -5.2163873517,
				"z": 0.4286358515,
				"element": "C" 
			},
			{
				"x": -0.8357241013,
				"y": -5.2947655601,
				"z": 1.3065783689,
				"element": "C" 
			},
			{
				"x": -0.1911669187,
				"y": -4.129583553,
				"z": 1.7298452183,
				"element": "C" 
			},
			{
				"x": 0.2661454306,
				"y": 2.7580045011,
				"z": 1.5300254819,
				"element": "H" 
			},
			{
				"x": -1.6677971761,
				"y": 2.8909163233,
				"z": -0.0400359023,
				"element": "H" 
			},
			{
				"x": -2.8066547412,
				"y": 0.7842619864,
				"z": -0.7842564121,
				"element": "H" 
			},
			{
				"x": -3.1961696186,
				"y": -3.8795904022,
				"z": -0.7130077671,
				"element": "H" 
			},
			{
				"x": -2.4208349864,
				"y": -6.1184401235,
				"z": 0.0969488117,
				"element": "H" 
			},
			{
				"x": -0.4890846501,
				"y": -6.2583755651,
				"z": 1.6656156557,
				"element": "H" 
			},
			{
				"x": 0.6521195149,
				"y": -4.1570199835,
				"z": 2.4118588443,
				"element": "H" 
			}
		],
		 "valence_orbital": [ 
			{
				"type": "occ",
				"energy": -0.31284,
				"method": "rhf"
			},
			{
				"type": "occ",
				"energy": -0.27086,
				"method": "rhf"
			},
			{
				"type": "occ",
				"energy": -0.26283,
				"method": "rhf"
			},
			{
				"type": "occ",
				"energy": -0.2391,
				"method": "rhf"
			},
			{
				"type": "occ",
				"energy": -0.20468,
				"method": "rhf"
			},
			{
				"type": "unocc",
				"energy": -0.02359,
				"method": "rhf"
			},
			{
				"type": "unocc",
				"energy": -0.01467,
				"method": "rhf"
			},
			{
				"type": "unocc",
				"energy": -0.00945,
				"method": "rhf"
			},
			{
				"type": "unocc",
				"energy": 0.02103,
				"method": "rhf"
			},
			{
				"type": "unocc",
				"energy": 0.02276,
				"method": "rhf"
			}
		],
		"cosmo_sigma_profile": { 
			"-0.025": 0.0,
			"-0.024": 0.0,
			"-0.023": 0.0,
			"-0.022": 0.0,
			"-0.021": 0.0,
			"-0.02": 0.0,
			"-0.019": 0.0,
			"-0.018": 0.0,
			"-0.017": 0.0,
			"-0.016": 0.0,
			"-0.015": 0.0,
			"-0.014": 0.0,
			"-0.013": 0.0,
			"-0.012": 0.0,
			"-0.011": 0.0,
			"-0.01": 0.0,
			"-0.009": 0.0,
			"-0.008": 0.782245402366,
			"-0.007": 8.77831183687,
			"-0.006": 12.6637056956,
			"-0.005": 16.0292438903,
			"-0.004": 14.5906562047,
			"-0.003": 12.3364981455,
			"-0.002": 12.4083587516,
			"-0.001": 14.4222749464,
			"0.0": 17.9162897908,
			"0.001": 25.8832075358,
			"0.002": 26.8796643518,
			"0.003": 25.0878582683,
			"0.004": 22.6591404295,
			"0.005": 9.22539932203,
			"0.006": 4.51322369695,
			"0.007": 3.09289955835,
			"0.008": 1.89764526325,
			"0.009": 0.326486458949,
			"0.01": 0.0,
			"0.011": 0.0,
			"0.012": 0.0,
			"0.013": 0.0,
			"0.014": 0.0,
			"0.015": 0.0,
			"0.016": 0.0,
			"0.017": 0.0,
			"0.018": 0.0,
			"0.019": 0.0,
			"0.02": 0.0,
			"0.021": 0.0,
			"0.022": 0.0,
			"0.023": 0.0,
			"0.024": 0.0,
			"0.025": 0.0
		}
	}
}
