{
	 "smiles": "COC1=COC(CO)=CC1=O", 
	 "Tm": 437.15, 
	 "num_atms": 19, 
	 "gaussian": { 
		 "optdone": 1, 
		 "sigma_profile": "yes", 
		 "theory": "DFT", 
		 "functional": "B3LYP", 
		 "basiset": "6-31G**", 
		 "properties": { 
			 "R2extent": 2209.4223, 
			 "electric_dipole_moment_norm": 2.78534580079, 
			 "electric_quadrupole_moment_norm": 10.1697848016, 
			 "total_energy": -572.398305633, 
			 "HOMO_LUMO_gap": 0.18751, 
			 "cosmo_polarized_energy": -13.87, 
			 "cosmo_cavitation_energy": 23.47, 
			 "cosmo_dispersion_energy": -17.49, 
			 "cosmo_repulsion_energy": 1.43, 
			 "cosmo_total_nonelectrostatic_energy": 7.41, 
			 "SMD_solvation_energy": 6.5 
		},
		"coords": [
			{
				"x": -0.2520305056,
				"y": -2.6284664746,
				"z": -2.0197204951,
				"element": "C" 
			},
			{
				"x": -0.4081507964,
				"y": -1.2360709954,
				"z": -2.3484087578,
				"element": "O" 
			},
			{
				"x": -0.530259002,
				"y": -0.3642069275,
				"z": -1.3134663444,
				"element": "C" 
			},
			{
				"x": -1.5201310741,
				"y": 0.5577922055,
				"z": -1.390958822,
				"element": "C" 
			},
			{
				"x": -1.6933175711,
				"y": 1.560462124,
				"z": -0.4860695713,
				"element": "O" 
			},
			{
				"x": -0.8699203542,
				"y": 1.6224789285,
				"z": 0.5951463522,
				"element": "C" 
			},
			{
				"x": -1.2306070892,
				"y": 2.7860544419,
				"z": 1.4801068197,
				"element": "C" 
			},
			{
				"x": -2.583168049,
				"y": 2.7520344476,
				"z": 1.9005678512,
				"element": "O" 
			},
			{
				"x": 0.1302542323,
				"y": 0.7337345593,
				"z": 0.7785953938,
				"element": "C" 
			},
			{
				"x": 0.4210792638,
				"y": -0.3326348997,
				"z": -0.1800828119,
				"element": "C" 
			},
			{
				"x": 1.3639457727,
				"y": -1.1167445623,
				"z": -0.0561088218,
				"element": "O" 
			},
			{
				"x": 0.6511870386,
				"y": -2.7902504058,
				"z": -1.4315807082,
				"element": "H" 
			},
			{
				"x": -1.1291315399,
				"y": -2.9929706106,
				"z": -1.4703897683,
				"element": "H" 
			},
			{
				"x": -0.1879585985,
				"y": -3.1462832719,
				"z": -2.9779679092,
				"element": "H" 
			},
			{
				"x": -2.2372198454,
				"y": 0.5985980598,
				"z": -2.2005608356,
				"element": "H" 
			},
			{
				"x": -0.6136136336,
				"y": 2.7537631318,
				"z": 2.3806864557,
				"element": "H" 
			},
			{
				"x": -0.9975687029,
				"y": 3.7225553113,
				"z": 0.9470740714,
				"element": "H" 
			},
			{
				"x": -3.1332880473,
				"y": 2.7772261988,
				"z": 1.1062813127,
				"element": "H" 
			},
			{
				"x": 0.7700985017,
				"y": 0.8110287393,
				"z": 1.6504565889,
				"element": "H" 
			}
		],
		 "valence_orbital": [ 
			{
				"type": "occ",
				"energy": -0.31465,
				"method": "rhf"
			},
			{
				"type": "occ",
				"energy": -0.2927,
				"method": "rhf"
			},
			{
				"type": "occ",
				"energy": -0.27508,
				"method": "rhf"
			},
			{
				"type": "occ",
				"energy": -0.24321,
				"method": "rhf"
			},
			{
				"type": "occ",
				"energy": -0.23355,
				"method": "rhf"
			},
			{
				"type": "unocc",
				"energy": -0.04604,
				"method": "rhf"
			},
			{
				"type": "unocc",
				"energy": -0.01513,
				"method": "rhf"
			},
			{
				"type": "unocc",
				"energy": 0.06655,
				"method": "rhf"
			},
			{
				"type": "unocc",
				"energy": 0.09361,
				"method": "rhf"
			},
			{
				"type": "unocc",
				"energy": 0.11106,
				"method": "rhf"
			}
		],
		"cosmo_sigma_profile": { 
			"-0.025": 0.0,
			"-0.024": 0.0,
			"-0.023": 0.0,
			"-0.022": 0.0,
			"-0.021": 0.0,
			"-0.02": 0.0,
			"-0.019": 0.0,
			"-0.018": 0.0,
			"-0.017": 0.0,
			"-0.016": 0.0541546692634,
			"-0.015": 0.688212577166,
			"-0.014": 0.553128599446,
			"-0.013": 0.837543477056,
			"-0.012": 0.940410090231,
			"-0.011": 0.720066703058,
			"-0.01": 2.12795608724,
			"-0.009": 2.72474835897,
			"-0.008": 4.57371671352,
			"-0.007": 7.54635132312,
			"-0.006": 10.9640041578,
			"-0.005": 11.7495567223,
			"-0.004": 12.8225497567,
			"-0.003": 17.9880644374,
			"-0.002": 16.7182489232,
			"-0.001": 14.4843997289,
			"0.0": 12.9206054888,
			"0.001": 9.41673542224,
			"0.002": 6.44806353191,
			"0.003": 5.04764888105,
			"0.004": 4.65189323075,
			"0.005": 4.10552049044,
			"0.006": 4.36651954666,
			"0.007": 4.87688954161,
			"0.008": 4.11324306139,
			"0.009": 3.6986087501,
			"0.01": 4.10344048348,
			"0.011": 4.45010713811,
			"0.012": 3.64851987559,
			"0.013": 6.23415452556,
			"0.014": 2.51031831133,
			"0.015": 0.511290332616,
			"0.016": 0.0,
			"0.017": 0.0,
			"0.018": 0.0,
			"0.019": 0.0,
			"0.02": 0.0,
			"0.021": 0.0,
			"0.022": 0.0,
			"0.023": 0.0,
			"0.024": 0.0,
			"0.025": 0.0
		}
	}
}
