{
	 "smiles": "CCCOC1=CC=C(C=C1)C(O)=O", 
	 "Tm": 418.15, 
	 "num_atms": 25, 
	 "gaussian": { 
		 "optdone": 1, 
		 "sigma_profile": "yes", 
		 "theory": "DFT", 
		 "functional": "B3LYP", 
		 "basiset": "6-31G**", 
		 "properties": { 
			 "R2extent": 4042.8451, 
			 "electric_dipole_moment_norm": 2.72974000227, 
			 "electric_quadrupole_moment_norm": 13.42867917, 
			 "total_energy": -613.990389953, 
			 "HOMO_LUMO_gap": 0.19364, 
			 "cosmo_polarized_energy": -10.49, 
			 "cosmo_cavitation_energy": 29.08, 
			 "cosmo_dispersion_energy": -21.24, 
			 "cosmo_repulsion_energy": 1.7, 
			 "cosmo_total_nonelectrostatic_energy": 9.55, 
			 "SMD_solvation_energy": 6.41 
		},
		"coords": [
			{
				"x": -1.1474684086,
				"y": -3.9072681588,
				"z": -1.0991523466,
				"element": "C" 
			},
			{
				"x": -2.0661279044,
				"y": -2.735643286,
				"z": -1.4582942851,
				"element": "C" 
			},
			{
				"x": -1.3289310752,
				"y": -1.4124780071,
				"z": -1.6179843293,
				"element": "C" 
			},
			{
				"x": -0.7525185762,
				"y": -1.0745826081,
				"z": -0.3526995308,
				"element": "O" 
			},
			{
				"x": -0.0180629528,
				"y": 0.0612825959,
				"z": -0.2399532664,
				"element": "C" 
			},
			{
				"x": 0.2215694456,
				"y": 0.9620840672,
				"z": -1.2896308046,
				"element": "C" 
			},
			{
				"x": 0.9911917292,
				"y": 2.0977910085,
				"z": -1.0542880868,
				"element": "C" 
			},
			{
				"x": 1.5292383604,
				"y": 2.3562165188,
				"z": 0.2114416251,
				"element": "C" 
			},
			{
				"x": 1.2832031217,
				"y": 1.4486619297,
				"z": 1.2570196011,
				"element": "C" 
			},
			{
				"x": 0.518865856,
				"y": 0.3146591799,
				"z": 1.034828369,
				"element": "C" 
			},
			{
				"x": 2.3377636697,
				"y": 3.5818485706,
				"z": 0.3919238891,
				"element": "C" 
			},
			{
				"x": 2.8082539548,
				"y": 3.7302232293,
				"z": 1.6593385503,
				"element": "O" 
			},
			{
				"x": 2.5797847852,
				"y": 4.3977103868,
				"z": -0.478300532,
				"element": "O" 
			},
			{
				"x": -0.3936090334,
				"y": -4.0714740263,
				"z": -1.8776632072,
				"element": "H" 
			},
			{
				"x": -0.6227243638,
				"y": -3.7158109006,
				"z": -0.1594356549,
				"element": "H" 
			},
			{
				"x": -1.7192307146,
				"y": -4.8335290849,
				"z": -0.9875868902,
				"element": "H" 
			},
			{
				"x": -2.8394532617,
				"y": -2.6118423075,
				"z": -0.6909327348,
				"element": "H" 
			},
			{
				"x": -2.5884629861,
				"y": -2.9379952441,
				"z": -2.4017677366,
				"element": "H" 
			},
			{
				"x": -0.5360154575,
				"y": -1.498250198,
				"z": -2.3749814496,
				"element": "H" 
			},
			{
				"x": -2.0183339634,
				"y": -0.6176074349,
				"z": -1.933995723,
				"element": "H" 
			},
			{
				"x": -0.1837549563,
				"y": 0.7867373298,
				"z": -2.2785649146,
				"element": "H" 
			},
			{
				"x": 1.1870571059,
				"y": 2.8051325367,
				"z": -1.853319336,
				"element": "H" 
			},
			{
				"x": 1.6958739041,
				"y": 1.641017513,
				"z": 2.2408787314,
				"element": "H" 
			},
			{
				"x": 0.3185323948,
				"y": -0.3967490335,
				"z": 1.8290538358,
				"element": "H" 
			},
			{
				"x": 3.3154593266,
				"y": 4.5581654238,
				"z": 1.6508662264,
				"element": "H" 
			}
		],
		 "valence_orbital": [ 
			{
				"type": "occ",
				"energy": -0.32439,
				"method": "rhf"
			},
			{
				"type": "occ",
				"energy": -0.30805,
				"method": "rhf"
			},
			{
				"type": "occ",
				"energy": -0.26865,
				"method": "rhf"
			},
			{
				"type": "occ",
				"energy": -0.25973,
				"method": "rhf"
			},
			{
				"type": "occ",
				"energy": -0.22907,
				"method": "rhf"
			},
			{
				"type": "unocc",
				"energy": -0.03543,
				"method": "rhf"
			},
			{
				"type": "unocc",
				"energy": -0.00731,
				"method": "rhf"
			},
			{
				"type": "unocc",
				"energy": 0.06944,
				"method": "rhf"
			},
			{
				"type": "unocc",
				"energy": 0.08271,
				"method": "rhf"
			},
			{
				"type": "unocc",
				"energy": 0.08713,
				"method": "rhf"
			}
		],
		"cosmo_sigma_profile": { 
			"-0.025": 0.0,
			"-0.024": 0.0,
			"-0.023": 0.0,
			"-0.022": 0.0,
			"-0.021": 0.0,
			"-0.02": 0.0,
			"-0.019": 0.0,
			"-0.018": 0.418337271275,
			"-0.017": 1.20894000332,
			"-0.016": 0.744506802146,
			"-0.015": 0.666490069128,
			"-0.014": 0.485121006504,
			"-0.013": 0.382681901946,
			"-0.012": 0.69075536849,
			"-0.011": 0.954597016859,
			"-0.01": 1.12988836491,
			"-0.009": 0.629522107066,
			"-0.008": 0.426023791184,
			"-0.007": 2.6961662995,
			"-0.006": 8.15692910724,
			"-0.005": 13.8342730619,
			"-0.004": 15.9923173538,
			"-0.003": 20.1877436653,
			"-0.002": 19.8341790473,
			"-0.001": 18.7568926907,
			"0.0": 20.9644347302,
			"0.001": 21.477217196,
			"0.002": 18.1007186834,
			"0.003": 17.2732350256,
			"0.004": 13.9405739276,
			"0.005": 5.42191742498,
			"0.006": 5.38762721732,
			"0.007": 3.82612385788,
			"0.008": 3.01786554292,
			"0.009": 2.31077721694,
			"0.01": 1.89707949269,
			"0.011": 2.30480269379,
			"0.012": 5.51951718636,
			"0.013": 1.11238056569,
			"0.014": 0.0,
			"0.015": 0.0,
			"0.016": 0.0,
			"0.017": 0.0,
			"0.018": 0.0,
			"0.019": 0.0,
			"0.02": 0.0,
			"0.021": 0.0,
			"0.022": 0.0,
			"0.023": 0.0,
			"0.024": 0.0,
			"0.025": 0.0
		}
	}
}
