{
	 "smiles": "CN(C)S(=O)(=O)C1=CC=C(C=C1)C1=CSC(N)=N1", 
	 "Tm": 517.15, 
	 "num_atms": 31, 
	 "gaussian": { 
		 "optdone": 1, 
		 "sigma_profile": "yes", 
		 "theory": "DFT", 
		 "functional": "B3LYP", 
		 "basiset": "6-31G**", 
		 "properties": { 
			 "R2extent": 8556.4216, 
			 "electric_dipole_moment_norm": 6.75451870454, 
			 "electric_quadrupole_moment_norm": 25.7346097841, 
			 "total_energy": -1538.00941208, 
			 "HOMO_LUMO_gap": 0.16091, 
			 "cosmo_polarized_energy": -20.03, 
			 "cosmo_cavitation_energy": 37.8, 
			 "cosmo_dispersion_energy": -28.17, 
			 "cosmo_repulsion_energy": 2.07, 
			 "cosmo_total_nonelectrostatic_energy": 11.7, 
			 "SMD_solvation_energy": 3.86 
		},
		"coords": [
			{
				"x": 4.6310516877,
				"y": 0.143905405,
				"z": -1.0277365323,
				"element": "C" 
			},
			{
				"x": 3.2888630984,
				"y": 0.2764413574,
				"z": -0.4422832514,
				"element": "N" 
			},
			{
				"x": 3.2693095106,
				"y": 1.0271092598,
				"z": 0.8183129979,
				"element": "C" 
			},
			{
				"x": 2.413480762,
				"y": -1.1882459143,
				"z": -0.3775725366,
				"element": "S" 
			},
			{
				"x": 2.7009559921,
				"y": -1.8833714507,
				"z": -1.6370828323,
				"element": "O" 
			},
			{
				"x": 2.615401642,
				"y": -1.8704951196,
				"z": 0.9100330928,
				"element": "O" 
			},
			{
				"x": 0.7264860603,
				"y": -0.5873841384,
				"z": -0.4143439033,
				"element": "C" 
			},
			{
				"x": 0.2346368037,
				"y": 0.0075083015,
				"z": -1.5809753938,
				"element": "C" 
			},
			{
				"x": -1.0842532794,
				"y": 0.4387336936,
				"z": -1.6188829229,
				"element": "C" 
			},
			{
				"x": -1.9313490799,
				"y": 0.2797025415,
				"z": -0.5047652059,
				"element": "C" 
			},
			{
				"x": -1.4154342696,
				"y": -0.3281185479,
				"z": 0.651364397,
				"element": "C" 
			},
			{
				"x": -0.0927220788,
				"y": -0.7640539388,
				"z": 0.6999642924,
				"element": "C" 
			},
			{
				"x": -3.3356182169,
				"y": 0.7287787446,
				"z": -0.5249527749,
				"element": "C" 
			},
			{
				"x": -3.9900836591,
				"y": 1.2942668165,
				"z": -1.5865105977,
				"element": "C" 
			},
			{
				"x": -5.6407833813,
				"y": 1.6592815866,
				"z": -1.1653641445,
				"element": "S" 
			},
			{
				"x": -5.3073471063,
				"y": 1.0222196887,
				"z": 0.4540381916,
				"element": "C" 
			},
			{
				"x": -6.2995137666,
				"y": 0.9431983696,
				"z": 1.4012931976,
				"element": "N" 
			},
			{
				"x": -4.096441664,
				"y": 0.5863192591,
				"z": 0.6278714222,
				"element": "N" 
			},
			{
				"x": 4.5688776472,
				"y": -0.435882462,
				"z": -1.9478729515,
				"element": "H" 
			},
			{
				"x": 4.9909481019,
				"y": 1.1499215639,
				"z": -1.2628514589,
				"element": "H" 
			},
			{
				"x": 5.3475605005,
				"y": -0.3363238248,
				"z": -0.3455792661,
				"element": "H" 
			},
			{
				"x": 3.6763072096,
				"y": 2.0232925952,
				"z": 0.6228126079,
				"element": "H" 
			},
			{
				"x": 2.240522223,
				"y": 1.1452913307,
				"z": 1.1660844504,
				"element": "H" 
			},
			{
				"x": 3.858628599,
				"y": 0.5446358543,
				"z": 1.6095431175,
				"element": "H" 
			},
			{
				"x": 0.8805747483,
				"y": 0.1250959407,
				"z": -2.4440571604,
				"element": "H" 
			},
			{
				"x": -1.4575124101,
				"y": 0.9024386689,
				"z": -2.5262371992,
				"element": "H" 
			},
			{
				"x": -2.068305331,
				"y": -0.4555856387,
				"z": 1.5066291243,
				"element": "H" 
			},
			{
				"x": 0.3072845327,
				"y": -1.2453003536,
				"z": 1.5857209129,
				"element": "H" 
			},
			{
				"x": -3.6238822488,
				"y": 1.5180739109,
				"z": -2.57675003,
				"element": "H" 
			},
			{
				"x": -5.951585396,
				"y": 0.7380969842,
				"z": 2.3286411948,
				"element": "H" 
			},
			{
				"x": -7.0224572311,
				"y": 1.6474495163,
				"z": 1.3754091623,
				"element": "H" 
			}
		],
		 "valence_orbital": [ 
			{
				"type": "occ",
				"energy": -0.28373,
				"method": "rhf"
			},
			{
				"type": "occ",
				"energy": -0.26748,
				"method": "rhf"
			},
			{
				"type": "occ",
				"energy": -0.26323,
				"method": "rhf"
			},
			{
				"type": "occ",
				"energy": -0.24473,
				"method": "rhf"
			},
			{
				"type": "occ",
				"energy": -0.21362,
				"method": "rhf"
			},
			{
				"type": "unocc",
				"energy": -0.05271,
				"method": "rhf"
			},
			{
				"type": "unocc",
				"energy": -0.01613,
				"method": "rhf"
			},
			{
				"type": "unocc",
				"energy": -0.00201,
				"method": "rhf"
			},
			{
				"type": "unocc",
				"energy": 0.00364,
				"method": "rhf"
			},
			{
				"type": "unocc",
				"energy": 0.05512,
				"method": "rhf"
			}
		],
		"cosmo_sigma_profile": { 
			"-0.025": 0.0,
			"-0.024": 0.0,
			"-0.023": 0.0,
			"-0.022": 0.0,
			"-0.021": 0.0,
			"-0.02": 0.0,
			"-0.019": 0.0,
			"-0.018": 0.0,
			"-0.017": 0.0,
			"-0.016": 0.0,
			"-0.015": 0.574944465048,
			"-0.014": 2.18698150897,
			"-0.013": 3.1721605075,
			"-0.012": 2.09830926534,
			"-0.011": 3.04229739849,
			"-0.01": 3.80563370751,
			"-0.009": 3.90976577106,
			"-0.008": 4.60061613333,
			"-0.007": 7.7348335269,
			"-0.006": 11.7629184346,
			"-0.005": 15.2187319748,
			"-0.004": 22.5609667928,
			"-0.003": 24.4577574749,
			"-0.002": 23.6543469292,
			"-0.001": 15.1956519044,
			"0.0": 14.419773291,
			"0.001": 20.3479872331,
			"0.002": 30.950118781,
			"0.003": 27.4497946107,
			"0.004": 13.291399154,
			"0.005": 6.9699852064,
			"0.006": 5.52663965318,
			"0.007": 5.42022004442,
			"0.008": 6.44529118693,
			"0.009": 6.57702213587,
			"0.01": 8.34223520941,
			"0.011": 8.69623137828,
			"0.012": 4.95617051187,
			"0.013": 0.0691439729292,
			"0.014": 0.0,
			"0.015": 0.0,
			"0.016": 0.0,
			"0.017": 0.0,
			"0.018": 0.0,
			"0.019": 0.0,
			"0.02": 0.0,
			"0.021": 0.0,
			"0.022": 0.0,
			"0.023": 0.0,
			"0.024": 0.0,
			"0.025": 0.0
		}
	}
}
