{
	 "smiles": "NC1=CN=C(N=C1)C1=CC(F)=CC=C1", 
	 "Tm": 386.15, 
	 "num_atms": 22, 
	 "gaussian": { 
		 "optdone": 1, 
		 "sigma_profile": "yes", 
		 "theory": "DFT", 
		 "functional": "B3LYP", 
		 "basiset": "6-31G**", 
		 "properties": { 
			 "R2extent": 3646.4256, 
			 "electric_dipole_moment_norm": 4.91692809282, 
			 "electric_quadrupole_moment_norm": 21.0264740152, 
			 "total_energy": -649.978556599, 
			 "HOMO_LUMO_gap": 0.17234, 
			 "cosmo_polarized_energy": -13.33, 
			 "cosmo_cavitation_energy": 27.28, 
			 "cosmo_dispersion_energy": -20.28, 
			 "cosmo_repulsion_energy": 1.56, 
			 "cosmo_total_nonelectrostatic_energy": 8.56, 
			 "SMD_solvation_energy": 3.13 
		},
		"coords": [
			{
				"x": 4.1544404032,
				"y": 1.0154569856,
				"z": 1.9226137072,
				"element": "N" 
			},
			{
				"x": 2.8820555989,
				"y": 0.6296283835,
				"z": 1.5302464332,
				"element": "C" 
			},
			{
				"x": 2.6072158672,
				"y": 0.113535592,
				"z": 0.252593363,
				"element": "C" 
			},
			{
				"x": 1.3817098518,
				"y": -0.2068190254,
				"z": -0.1474382421,
				"element": "N" 
			},
			{
				"x": 0.3718633573,
				"y": -0.0221312068,
				"z": 0.7213364724,
				"element": "C" 
			},
			{
				"x": 0.5273499619,
				"y": 0.4615016352,
				"z": 1.9665377949,
				"element": "N" 
			},
			{
				"x": 1.7563389459,
				"y": 0.7790707562,
				"z": 2.3576985637,
				"element": "C" 
			},
			{
				"x": -0.9996874863,
				"y": -0.3772537055,
				"z": 0.279814219,
				"element": "C" 
			},
			{
				"x": -2.0840773682,
				"y": -0.2042567218,
				"z": 1.1533684008,
				"element": "C" 
			},
			{
				"x": -3.3568058573,
				"y": -0.5425755383,
				"z": 0.7197084547,
				"element": "C" 
			},
			{
				"x": -4.398305416,
				"y": -0.3741047121,
				"z": 1.5653955113,
				"element": "F" 
			},
			{
				"x": -3.6034219951,
				"y": -1.0488708545,
				"z": -0.5522420224,
				"element": "C" 
			},
			{
				"x": -2.5184862572,
				"y": -1.2176999043,
				"z": -1.4151436109,
				"element": "C" 
			},
			{
				"x": -1.2271061553,
				"y": -0.887020013,
				"z": -1.0087744318,
				"element": "C" 
			},
			{
				"x": 4.9215216341,
				"y": 0.586837904,
				"z": 1.4236363842,
				"element": "H" 
			},
			{
				"x": 4.316535339,
				"y": 1.0608527361,
				"z": 2.9190004252,
				"element": "H" 
			},
			{
				"x": 3.4158759143,
				"y": -0.0410507131,
				"z": -0.4631893344,
				"element": "H" 
			},
			{
				"x": 1.8661341267,
				"y": 1.1707979671,
				"z": 3.3699270853,
				"element": "H" 
			},
			{
				"x": -1.9288289024,
				"y": 0.1878283209,
				"z": 2.1508184644,
				"element": "H" 
			},
			{
				"x": -4.6174927209,
				"y": -1.298636181,
				"z": -0.8449428219,
				"element": "H" 
			},
			{
				"x": -2.6857653863,
				"y": -1.6111619677,
				"z": -2.4135162318,
				"element": "H" 
			},
			{
				"x": -0.3831634552,
				"y": -1.0165297371,
				"z": -1.6756485841,
				"element": "H" 
			}
		],
		 "valence_orbital": [ 
			{
				"type": "occ",
				"energy": -0.30885,
				"method": "rhf"
			},
			{
				"type": "occ",
				"energy": -0.26423,
				"method": "rhf"
			},
			{
				"type": "occ",
				"energy": -0.24579,
				"method": "rhf"
			},
			{
				"type": "occ",
				"energy": -0.2371,
				"method": "rhf"
			},
			{
				"type": "occ",
				"energy": -0.21325,
				"method": "rhf"
			},
			{
				"type": "unocc",
				"energy": -0.04091,
				"method": "rhf"
			},
			{
				"type": "unocc",
				"energy": -0.03886,
				"method": "rhf"
			},
			{
				"type": "unocc",
				"energy": 0.01121,
				"method": "rhf"
			},
			{
				"type": "unocc",
				"energy": 0.03862,
				"method": "rhf"
			},
			{
				"type": "unocc",
				"energy": 0.06278,
				"method": "rhf"
			}
		],
		"cosmo_sigma_profile": { 
			"-0.025": 0.0,
			"-0.024": 0.0,
			"-0.023": 0.0,
			"-0.022": 0.0,
			"-0.021": 0.0,
			"-0.02": 0.0,
			"-0.019": 0.0,
			"-0.018": 0.0,
			"-0.017": 0.0,
			"-0.016": 0.0,
			"-0.015": 0.0,
			"-0.014": 0.961671828451,
			"-0.013": 3.38851750533,
			"-0.012": 2.70998157049,
			"-0.011": 4.54382965446,
			"-0.01": 3.05267518783,
			"-0.009": 2.92439771843,
			"-0.008": 4.6404762884,
			"-0.007": 6.24370894014,
			"-0.006": 8.69178044166,
			"-0.005": 8.49991266408,
			"-0.004": 9.24284789264,
			"-0.003": 9.6652517984,
			"-0.002": 8.2094782773,
			"-0.001": 11.0957327716,
			"0.0": 16.6783494877,
			"0.001": 19.9486204643,
			"0.002": 18.4217492228,
			"0.003": 20.6267981695,
			"0.004": 25.6399762509,
			"0.005": 13.4360480476,
			"0.006": 3.3081704017,
			"0.007": 4.0383975966,
			"0.008": 3.99746741241,
			"0.009": 2.89492628434,
			"0.01": 2.55839664977,
			"0.011": 2.90456739633,
			"0.012": 0.959059741002,
			"0.013": 0.101578484825,
			"0.014": 0.0,
			"0.015": 0.0,
			"0.016": 0.0,
			"0.017": 0.0,
			"0.018": 0.0,
			"0.019": 0.0,
			"0.02": 0.0,
			"0.021": 0.0,
			"0.022": 0.0,
			"0.023": 0.0,
			"0.024": 0.0,
			"0.025": 0.0
		}
	}
}
