{
	 "smiles": "BrC1=C2C(=O)CC2=CC=C1", 
	 "Tm": 355.35, 
	 "num_atms": 15, 
	 "gaussian": { 
		 "optdone": 1, 
		 "sigma_profile": "yes", 
		 "theory": "DFT", 
		 "functional": "B3LYP", 
		 "basiset": "6-31G**", 
		 "properties": { 
			 "R2extent": 2237.6864, 
			 "electric_dipole_moment_norm": 4.28280259293, 
			 "electric_quadrupole_moment_norm": 6.60270420585, 
			 "total_energy": -2954.44847399, 
			 "HOMO_LUMO_gap": 0.1876, 
			 "cosmo_polarized_energy": -8.39, 
			 "cosmo_cavitation_energy": 22.13, 
			 "cosmo_dispersion_energy": -16.63, 
			 "cosmo_repulsion_energy": 1.36, 
			 "cosmo_total_nonelectrostatic_energy": 6.86, 
			 "SMD_solvation_energy": 3.08 
		},
		"coords": [
			{
				"x": 2.2640566353,
				"y": 0.3778370765,
				"z": -1.681298579,
				"element": "Br" 
			},
			{
				"x": 0.5730011028,
				"y": 0.0085475572,
				"z": -0.9031310728,
				"element": "C" 
			},
			{
				"x": 0.4510789561,
				"y": -0.5439322784,
				"z": 0.3662654394,
				"element": "C" 
			},
			{
				"x": 1.1606112331,
				"y": -1.0580418535,
				"z": 1.5833600208,
				"element": "C" 
			},
			{
				"x": 2.3007360232,
				"y": -1.1913838266,
				"z": 1.9415683708,
				"element": "O" 
			},
			{
				"x": -0.2354416254,
				"y": -1.3694508951,
				"z": 2.2417568552,
				"element": "C" 
			},
			{
				"x": -0.8021128963,
				"y": -0.8150633654,
				"z": 0.9370573438,
				"element": "C" 
			},
			{
				"x": -1.9870478103,
				"y": -0.5479863928,
				"z": 0.2687189087,
				"element": "C" 
			},
			{
				"x": -1.858298218,
				"y": 0.0097291321,
				"z": -1.0126664305,
				"element": "C" 
			},
			{
				"x": -0.6102374432,
				"y": 0.2854752842,
				"z": -1.5941405062,
				"element": "C" 
			},
			{
				"x": -0.4459478978,
				"y": -0.7944761055,
				"z": 3.1499417001,
				"element": "H" 
			},
			{
				"x": -0.4150715875,
				"y": -2.4314070399,
				"z": 2.440960891,
				"element": "H" 
			},
			{
				"x": -2.9655760294,
				"y": -0.7501209604,
				"z": 0.6924294662,
				"element": "H" 
			},
			{
				"x": -2.7521796248,
				"y": 0.2409860103,
				"z": -1.5854729794,
				"element": "H" 
			},
			{
				"x": -0.5622708177,
				"y": 0.7169876573,
				"z": -2.5878494281,
				"element": "H" 
			}
		],
		 "valence_orbital": [ 
			{
				"type": "occ",
				"energy": -0.32295,
				"method": "rhf"
			},
			{
				"type": "occ",
				"energy": -0.29338,
				"method": "rhf"
			},
			{
				"type": "occ",
				"energy": -0.27157,
				"method": "rhf"
			},
			{
				"type": "occ",
				"energy": -0.25639,
				"method": "rhf"
			},
			{
				"type": "occ",
				"energy": -0.25586,
				"method": "rhf"
			},
			{
				"type": "unocc",
				"energy": -0.06826,
				"method": "rhf"
			},
			{
				"type": "unocc",
				"energy": -0.02733,
				"method": "rhf"
			},
			{
				"type": "unocc",
				"energy": 0.00283,
				"method": "rhf"
			},
			{
				"type": "unocc",
				"energy": 0.0367,
				"method": "rhf"
			},
			{
				"type": "unocc",
				"energy": 0.09464,
				"method": "rhf"
			}
		],
		"cosmo_sigma_profile": { 
			"-0.025": 0.0,
			"-0.024": 0.0,
			"-0.023": 0.0,
			"-0.022": 0.0,
			"-0.021": 0.0,
			"-0.02": 0.0,
			"-0.019": 0.0,
			"-0.018": 0.0,
			"-0.017": 0.0,
			"-0.016": 0.0,
			"-0.015": 0.0,
			"-0.014": 0.0,
			"-0.013": 0.0,
			"-0.012": 0.0,
			"-0.011": 0.0,
			"-0.01": 0.0,
			"-0.009": 0.0,
			"-0.008": 1.39520159138,
			"-0.007": 8.70397510478,
			"-0.006": 11.6922352615,
			"-0.005": 13.1703421771,
			"-0.004": 11.5838861448,
			"-0.003": 13.4390164242,
			"-0.002": 13.7493361674,
			"-0.001": 11.7271745407,
			"0.0": 14.4406543706,
			"0.001": 17.3294190098,
			"0.002": 18.2430215741,
			"0.003": 12.9922213861,
			"0.004": 10.7726011674,
			"0.005": 3.29677338985,
			"0.006": 2.81661429866,
			"0.007": 1.0196310136,
			"0.008": 2.27723782799,
			"0.009": 2.64136146833,
			"0.01": 3.75239549695,
			"0.011": 5.08261987284,
			"0.012": 1.7669758175,
			"0.013": 0.0125690184041,
			"0.014": 0.0,
			"0.015": 0.0,
			"0.016": 0.0,
			"0.017": 0.0,
			"0.018": 0.0,
			"0.019": 0.0,
			"0.02": 0.0,
			"0.021": 0.0,
			"0.022": 0.0,
			"0.023": 0.0,
			"0.024": 0.0,
			"0.025": 0.0
		}
	}
}
