{
	 "smiles": "OCCCCCC(O)=O", 
	 "Tm": 312.15, 
	 "num_atms": 21, 
	 "gaussian": { 
		 "optdone": 1, 
		 "sigma_profile": "yes", 
		 "theory": "DFT", 
		 "functional": "B3LYP", 
		 "basiset": "6-31G**", 
		 "properties": { 
			 "R2extent": 1931.5387, 
			 "electric_dipole_moment_norm": 3.3342794289, 
			 "electric_quadrupole_moment_norm": 10.6043011646, 
			 "total_energy": -461.55370017, 
			 "HOMO_LUMO_gap": 0.27775, 
			 "cosmo_polarized_energy": -12.17, 
			 "cosmo_cavitation_energy": 23.63, 
			 "cosmo_dispersion_energy": -17.01, 
			 "cosmo_repulsion_energy": 1.44, 
			 "cosmo_total_nonelectrostatic_energy": 8.06, 
			 "SMD_solvation_energy": 5.05 
		},
		"coords": [
			{
				"x": -1.9021834754,
				"y": -0.9586077502,
				"z": -0.4950445683,
				"element": "O" 
			},
			{
				"x": -1.6921495541,
				"y": -0.2249695469,
				"z": 0.7087237847,
				"element": "C" 
			},
			{
				"x": -0.9824122773,
				"y": 1.1148601622,
				"z": 0.4955478735,
				"element": "C" 
			},
			{
				"x": 0.3505640915,
				"y": 1.0500858596,
				"z": -0.273389682,
				"element": "C" 
			},
			{
				"x": 1.4080026613,
				"y": 0.108766105,
				"z": 0.3428605925,
				"element": "C" 
			},
			{
				"x": 1.403195101,
				"y": -1.3033275777,
				"z": -0.2843914998,
				"element": "C" 
			},
			{
				"x": 2.2370857971,
				"y": -2.3044014581,
				"z": 0.4793074884,
				"element": "C" 
			},
			{
				"x": 1.8021846374,
				"y": -2.4493184634,
				"z": 1.7610668308,
				"element": "O" 
			},
			{
				"x": 3.1795035819,
				"y": -2.9323042148,
				"z": 0.0488072229,
				"element": "O" 
			},
			{
				"x": -2.4201300582,
				"y": -0.4066526352,
				"z": -1.0955123832,
				"element": "H" 
			},
			{
				"x": -2.6433480103,
				"y": -0.0552453377,
				"z": 1.2372389708,
				"element": "H" 
			},
			{
				"x": -1.0887650273,
				"y": -0.8814648054,
				"z": 1.3438325377,
				"element": "H" 
			},
			{
				"x": -1.6625789895,
				"y": 1.7998948873,
				"z": -0.0320130289,
				"element": "H" 
			},
			{
				"x": -0.8133279095,
				"y": 1.5629365967,
				"z": 1.4846165829,
				"element": "H" 
			},
			{
				"x": 0.1572454282,
				"y": 0.7515627984,
				"z": -1.3108408771,
				"element": "H" 
			},
			{
				"x": 0.7539883337,
				"y": 2.0681993049,
				"z": -0.3221512843,
				"element": "H" 
			},
			{
				"x": 1.2502608013,
				"y": 0.0286511433,
				"z": 1.4244063125,
				"element": "H" 
			},
			{
				"x": 2.407658333,
				"y": 0.5391265991,
				"z": 0.2124300207,
				"element": "H" 
			},
			{
				"x": 0.3767833382,
				"y": -1.6816781999,
				"z": -0.3422660235,
				"element": "H" 
			},
			{
				"x": 1.7962371627,
				"y": -1.2687821642,
				"z": -1.3034803144,
				"element": "H" 
			},
			{
				"x": 2.3889860345,
				"y": -3.1095313032,
				"z": 2.1663514443,
				"element": "H" 
			}
		],
		 "valence_orbital": [ 
			{
				"type": "occ",
				"energy": -0.32394,
				"method": "rhf"
			},
			{
				"type": "occ",
				"energy": -0.32,
				"method": "rhf"
			},
			{
				"type": "occ",
				"energy": -0.30931,
				"method": "rhf"
			},
			{
				"type": "occ",
				"energy": -0.27313,
				"method": "rhf"
			},
			{
				"type": "occ",
				"energy": -0.26204,
				"method": "rhf"
			},
			{
				"type": "unocc",
				"energy": 0.01571,
				"method": "rhf"
			},
			{
				"type": "unocc",
				"energy": 0.0651,
				"method": "rhf"
			},
			{
				"type": "unocc",
				"energy": 0.07984,
				"method": "rhf"
			},
			{
				"type": "unocc",
				"energy": 0.10579,
				"method": "rhf"
			},
			{
				"type": "unocc",
				"energy": 0.12095,
				"method": "rhf"
			}
		],
		"cosmo_sigma_profile": { 
			"-0.025": 0.0,
			"-0.024": 0.0,
			"-0.023": 0.0,
			"-0.022": 0.0,
			"-0.021": 0.0,
			"-0.02": 0.0,
			"-0.019": 0.0,
			"-0.018": 0.201467270876,
			"-0.017": 0.924894240145,
			"-0.016": 1.00706489932,
			"-0.015": 1.67517348095,
			"-0.014": 1.8073246284,
			"-0.013": 1.52083128107,
			"-0.012": 1.39894667083,
			"-0.011": 1.50277949682,
			"-0.01": 1.58366934318,
			"-0.009": 1.68811390766,
			"-0.008": 1.38317650152,
			"-0.007": 1.51922504717,
			"-0.006": 2.87570904862,
			"-0.005": 2.95270978483,
			"-0.004": 6.77483643084,
			"-0.003": 20.2648016305,
			"-0.002": 30.3670976946,
			"-0.001": 23.6727891902,
			"0.0": 19.2453864187,
			"0.001": 9.60088371522,
			"0.002": 4.91386017327,
			"0.003": 5.07132373202,
			"0.004": 3.95772066531,
			"0.005": 3.09190733925,
			"0.006": 3.30930753531,
			"0.007": 4.88747499107,
			"0.008": 4.92320864737,
			"0.009": 2.48164721946,
			"0.01": 3.15545912133,
			"0.011": 4.56423239828,
			"0.012": 5.92470468652,
			"0.013": 2.99637753605,
			"0.014": 1.28253866444,
			"0.015": 0.255317857875,
			"0.016": 0.0,
			"0.017": 0.0,
			"0.018": 0.0,
			"0.019": 0.0,
			"0.02": 0.0,
			"0.021": 0.0,
			"0.022": 0.0,
			"0.023": 0.0,
			"0.024": 0.0,
			"0.025": 0.0
		}
	}
}
