{
	 "smiles": "ClS(=O)(=O)C1=CC=C(C=C1)N1C=NN=N1", 
	 "Tm": 453.15, 
	 "num_atms": 20, 
	 "gaussian": { 
		 "optdone": 1, 
		 "sigma_profile": "yes", 
		 "theory": "DFT", 
		 "functional": "B3LYP", 
		 "basiset": "6-31G**", 
		 "properties": { 
			 "R2extent": 5357.4529, 
			 "electric_dipole_moment_norm": 2.426647461, 
			 "electric_quadrupole_moment_norm": 37.7468212305, 
			 "total_energy": -1497.45474881, 
			 "HOMO_LUMO_gap": 0.18405, 
			 "cosmo_polarized_energy": -19.5, 
			 "cosmo_cavitation_energy": 29.26, 
			 "cosmo_dispersion_energy": -22.0, 
			 "cosmo_repulsion_energy": 1.64, 
			 "cosmo_total_nonelectrostatic_energy": 8.89, 
			 "SMD_solvation_energy": 2.45 
		},
		"coords": [
			{
				"x": 4.4212915116,
				"y": -0.4920047826,
				"z": -0.3791615683,
				"element": "Cl" 
			},
			{
				"x": 3.3715560282,
				"y": 1.2411454743,
				"z": 0.2759653681,
				"element": "S" 
			},
			{
				"x": 3.7921418581,
				"y": 1.4785684044,
				"z": 1.6505789597,
				"element": "O" 
			},
			{
				"x": 3.5262664068,
				"y": 2.2358569808,
				"z": -0.7767069548,
				"element": "O" 
			},
			{
				"x": 1.6867076361,
				"y": 0.6463283465,
				"z": 0.2763496989,
				"element": "C" 
			},
			{
				"x": 0.9190075793,
				"y": 0.7778491591,
				"z": -0.8815353663,
				"element": "C" 
			},
			{
				"x": -0.3970169386,
				"y": 0.329712797,
				"z": -0.8740842831,
				"element": "C" 
			},
			{
				"x": -0.9233849878,
				"y": -0.2437336343,
				"z": 0.2909211935,
				"element": "C" 
			},
			{
				"x": -0.1447178325,
				"y": -0.3673819225,
				"z": 1.4482481627,
				"element": "C" 
			},
			{
				"x": 1.1722839099,
				"y": 0.0804907288,
				"z": 1.4422606202,
				"element": "C" 
			},
			{
				"x": -2.266820434,
				"y": -0.6979467022,
				"z": 0.285816847,
				"element": "N" 
			},
			{
				"x": -3.0267196659,
				"y": -1.2758255152,
				"z": 1.2515597528,
				"element": "C" 
			},
			{
				"x": -4.2217472403,
				"y": -1.5228388605,
				"z": 0.7699042239,
				"element": "N" 
			},
			{
				"x": -4.1960329954,
				"y": -1.0852335027,
				"z": -0.5245006273,
				"element": "N" 
			},
			{
				"x": -3.0475117075,
				"y": -0.594605153,
				"z": -0.8294344916,
				"element": "N" 
			},
			{
				"x": 1.3420905954,
				"y": 1.2326655983,
				"z": -1.7699839292,
				"element": "H" 
			},
			{
				"x": -1.0214457996,
				"y": 0.4201214737,
				"z": -1.7535982006,
				"element": "H" 
			},
			{
				"x": -0.5508602488,
				"y": -0.8041730124,
				"z": 2.3529534996,
				"element": "H" 
			},
			{
				"x": 1.7881355787,
				"y": 0.0014743498,
				"z": 2.3307256638,
				"element": "H" 
			},
			{
				"x": -2.6949232537,
				"y": -1.4943702274,
				"z": 2.253621431,
				"element": "H" 
			}
		],
		 "valence_orbital": [ 
			{
				"type": "occ",
				"energy": -0.32538,
				"method": "rhf"
			},
			{
				"type": "occ",
				"energy": -0.32103,
				"method": "rhf"
			},
			{
				"type": "occ",
				"energy": -0.3125,
				"method": "rhf"
			},
			{
				"type": "occ",
				"energy": -0.30903,
				"method": "rhf"
			},
			{
				"type": "occ",
				"energy": -0.29249,
				"method": "rhf"
			},
			{
				"type": "unocc",
				"energy": -0.10844,
				"method": "rhf"
			},
			{
				"type": "unocc",
				"energy": -0.07697,
				"method": "rhf"
			},
			{
				"type": "unocc",
				"energy": -0.06268,
				"method": "rhf"
			},
			{
				"type": "unocc",
				"energy": -0.02392,
				"method": "rhf"
			},
			{
				"type": "unocc",
				"energy": -0.0008,
				"method": "rhf"
			}
		],
		"cosmo_sigma_profile": { 
			"-0.025": 0.0,
			"-0.024": 0.0,
			"-0.023": 0.0,
			"-0.022": 0.0,
			"-0.021": 0.0,
			"-0.02": 0.0,
			"-0.019": 0.0,
			"-0.018": 0.0,
			"-0.017": 0.0,
			"-0.016": 0.0,
			"-0.015": 0.377836839165,
			"-0.014": 2.47059844726,
			"-0.013": 2.13615276293,
			"-0.012": 1.85868992988,
			"-0.011": 2.7712821901,
			"-0.01": 2.66959074677,
			"-0.009": 6.76154368033,
			"-0.008": 8.18832086701,
			"-0.007": 7.66277684456,
			"-0.006": 10.629587057,
			"-0.005": 11.5084531861,
			"-0.004": 10.7969994882,
			"-0.003": 12.1430127718,
			"-0.002": 17.4845557741,
			"-0.001": 21.8225511862,
			"0.0": 16.1918763879,
			"0.001": 9.06308340958,
			"0.002": 12.0226424624,
			"0.003": 17.4279230694,
			"0.004": 8.68084055778,
			"0.005": 5.77161901197,
			"0.006": 7.20179435362,
			"0.007": 12.7290901109,
			"0.008": 13.8672441932,
			"0.009": 6.60613409684,
			"0.01": 2.83267192951,
			"0.011": 3.50148834912,
			"0.012": 2.05580900484,
			"0.013": 1.86561643474,
			"0.014": 0.937951971333,
			"0.015": 0.0230329445081,
			"0.016": 0.0,
			"0.017": 0.0,
			"0.018": 0.0,
			"0.019": 0.0,
			"0.02": 0.0,
			"0.021": 0.0,
			"0.022": 0.0,
			"0.023": 0.0,
			"0.024": 0.0,
			"0.025": 0.0
		}
	}
}
