{
	 "smiles": "CN1C=CN=C1CO", 
	 "Tm": 382.15, 
	 "num_atms": 16, 
	 "gaussian": { 
		 "optdone": 1, 
		 "sigma_profile": "yes", 
		 "theory": "DFT", 
		 "functional": "B3LYP", 
		 "basiset": "6-31G**", 
		 "properties": { 
			 "R2extent": 999.2953, 
			 "electric_dipole_moment_norm": 2.72373365254, 
			 "electric_quadrupole_moment_norm": 5.25216393404, 
			 "total_energy": -380.062312314, 
			 "HOMO_LUMO_gap": 0.23642, 
			 "cosmo_polarized_energy": -11.5, 
			 "cosmo_cavitation_energy": 19.37, 
			 "cosmo_dispersion_energy": -14.39, 
			 "cosmo_repulsion_energy": 1.2, 
			 "cosmo_total_nonelectrostatic_energy": 6.17, 
			 "SMD_solvation_energy": 2.38 
		},
		"coords": [
			{
				"x": -0.7356521214,
				"y": -0.1090731551,
				"z": -2.1748003267,
				"element": "C" 
			},
			{
				"x": -0.0836419718,
				"y": 0.6202454613,
				"z": -1.0954725213,
				"element": "N" 
			},
			{
				"x": 0.1027106787,
				"y": 1.9848140752,
				"z": -1.0226692592,
				"element": "C" 
			},
			{
				"x": 0.7267654697,
				"y": 2.2139811473,
				"z": 0.179372001,
				"element": "C" 
			},
			{
				"x": 0.9317111074,
				"y": 1.0312865808,
				"z": 0.8472372905,
				"element": "N" 
			},
			{
				"x": 0.4286325254,
				"y": 0.0909480105,
				"z": 0.0643638399,
				"element": "C" 
			},
			{
				"x": 0.4281651501,
				"y": -1.3727281533,
				"z": 0.3829761277,
				"element": "C" 
			},
			{
				"x": 1.1289714697,
				"y": -2.166467768,
				"z": -0.5801145308,
				"element": "O" 
			},
			{
				"x": -0.3149756289,
				"y": -1.1140522008,
				"z": -2.2241414698,
				"element": "H" 
			},
			{
				"x": -0.5489896921,
				"y": 0.4014794692,
				"z": -3.1223321311,
				"element": "H" 
			},
			{
				"x": -1.8181138341,
				"y": -0.1712133436,
				"z": -2.0168289045,
				"element": "H" 
			},
			{
				"x": -0.2097006461,
				"y": 2.6428985547,
				"z": -1.819855281,
				"element": "H" 
			},
			{
				"x": 1.0461536456,
				"y": 3.160853656,
				"z": 0.5926697355,
				"element": "H" 
			},
			{
				"x": 0.845914431,
				"y": -1.4798419941,
				"z": 1.3912871723,
				"element": "H" 
			},
			{
				"x": -0.5889281603,
				"y": -1.7802793932,
				"z": 0.3971209797,
				"element": "H" 
			},
			{
				"x": 2.0380775771,
				"y": -1.838550947,
				"z": -0.6104127221,
				"element": "H" 
			}
		],
		 "valence_orbital": [ 
			{
				"type": "occ",
				"energy": -0.34113,
				"method": "rhf"
			},
			{
				"type": "occ",
				"energy": -0.2825,
				"method": "rhf"
			},
			{
				"type": "occ",
				"energy": -0.26532,
				"method": "rhf"
			},
			{
				"type": "occ",
				"energy": -0.26036,
				"method": "rhf"
			},
			{
				"type": "occ",
				"energy": -0.21982,
				"method": "rhf"
			},
			{
				"type": "unocc",
				"energy": 0.0166,
				"method": "rhf"
			},
			{
				"type": "unocc",
				"energy": 0.06751,
				"method": "rhf"
			},
			{
				"type": "unocc",
				"energy": 0.08876,
				"method": "rhf"
			},
			{
				"type": "unocc",
				"energy": 0.10665,
				"method": "rhf"
			},
			{
				"type": "unocc",
				"energy": 0.1276,
				"method": "rhf"
			}
		],
		"cosmo_sigma_profile": { 
			"-0.025": 0.0,
			"-0.024": 0.0,
			"-0.023": 0.0,
			"-0.022": 0.0,
			"-0.021": 0.0,
			"-0.02": 0.0,
			"-0.019": 0.0,
			"-0.018": 0.0,
			"-0.017": 0.0,
			"-0.016": 0.533710561634,
			"-0.015": 0.856749028884,
			"-0.014": 1.02251082285,
			"-0.013": 1.10916163036,
			"-0.012": 0.412740421876,
			"-0.011": 0.734924296258,
			"-0.01": 0.655999982507,
			"-0.009": 1.03688786375,
			"-0.008": 3.17157366163,
			"-0.007": 4.45881098091,
			"-0.006": 9.24849726843,
			"-0.005": 12.8558423203,
			"-0.004": 14.9970240875,
			"-0.003": 17.5308167297,
			"-0.002": 11.4409196146,
			"-0.001": 5.8396529796,
			"0.0": 8.00815460531,
			"0.001": 5.26827331565,
			"0.002": 6.83898417392,
			"0.003": 5.44914328752,
			"0.004": 6.00021038819,
			"0.005": 4.9576690558,
			"0.006": 6.26509710011,
			"0.007": 3.18260762386,
			"0.008": 2.9105276953,
			"0.009": 2.68830234762,
			"0.01": 2.63221304214,
			"0.011": 2.41941543148,
			"0.012": 1.87852018396,
			"0.013": 2.87072659509,
			"0.014": 2.20362274611,
			"0.015": 0.851177351148,
			"0.016": 0.677810073218,
			"0.017": 1.17690983033,
			"0.018": 0.874122392676,
			"0.019": 0.0813368347973,
			"0.02": 0.0,
			"0.021": 0.0,
			"0.022": 0.0,
			"0.023": 0.0,
			"0.024": 0.0,
			"0.025": 0.0
		}
	}
}
