{
	 "smiles": "OC1=C(C=CC(Cl)=N1)[N+]([O-])=O", 
	 "Tm": 413.15, 
	 "num_atms": 14, 
	 "gaussian": { 
		 "optdone": 1, 
		 "sigma_profile": "yes", 
		 "theory": "DFT", 
		 "functional": "B3LYP", 
		 "basiset": "6-31G**", 
		 "properties": { 
			 "R2extent": 2428.4397, 
			 "electric_dipole_moment_norm": 2.54671299914, 
			 "electric_quadrupole_moment_norm": 8.91680963462, 
			 "total_energy": -987.607406226, 
			 "HOMO_LUMO_gap": 0.15711, 
			 "cosmo_polarized_energy": -10.2, 
			 "cosmo_cavitation_energy": 21.26, 
			 "cosmo_dispersion_energy": -16.46, 
			 "cosmo_repulsion_energy": 1.32, 
			 "cosmo_total_nonelectrostatic_energy": 6.12, 
			 "SMD_solvation_energy": 4.54 
		},
		"coords": [
			{
				"x": 3.073462756,
				"y": -0.4774996075,
				"z": 0.5308358164,
				"element": "O" 
			},
			{
				"x": 1.85359177,
				"y": -0.047620237,
				"z": 0.2570139848,
				"element": "C" 
			},
			{
				"x": 1.1671702009,
				"y": -0.34988488,
				"z": -0.9511811842,
				"element": "C" 
			},
			{
				"x": -0.1232368717,
				"y": 0.1494396382,
				"z": -1.154349204,
				"element": "C" 
			},
			{
				"x": -0.7073805621,
				"y": 0.9290108227,
				"z": -0.1740240601,
				"element": "C" 
			},
			{
				"x": 0.0602052667,
				"y": 1.1652630193,
				"z": 0.9797464803,
				"element": "C" 
			},
			{
				"x": -0.6403119777,
				"y": 2.1481475463,
				"z": 2.2483117519,
				"element": "Cl" 
			},
			{
				"x": 1.2740837072,
				"y": 0.7083946642,
				"z": 1.1957846575,
				"element": "N" 
			},
			{
				"x": 1.7713254341,
				"y": -1.1638816792,
				"z": -1.9797296004,
				"element": "N" 
			},
			{
				"x": 1.137878987,
				"y": -1.3950795238,
				"z": -3.0025195741,
				"element": "O" 
			},
			{
				"x": 2.9269075683,
				"y": -1.6015925107,
				"z": -1.7785546494,
				"element": "O" 
			},
			{
				"x": 3.3617182487,
				"y": -1.01467745,
				"z": -0.2480604845,
				"element": "H" 
			},
			{
				"x": -0.6349540652,
				"y": -0.0885127015,
				"z": -2.0793492256,
				"element": "H" 
			},
			{
				"x": -1.7024604624,
				"y": 1.340292899,
				"z": -0.2798247087,
				"element": "H" 
			}
		],
		 "valence_orbital": [ 
			{
				"type": "occ",
				"energy": -0.33739,
				"method": "rhf"
			},
			{
				"type": "occ",
				"energy": -0.32473,
				"method": "rhf"
			},
			{
				"type": "occ",
				"energy": -0.318,
				"method": "rhf"
			},
			{
				"type": "occ",
				"energy": -0.30721,
				"method": "rhf"
			},
			{
				"type": "occ",
				"energy": -0.27549,
				"method": "rhf"
			},
			{
				"type": "unocc",
				"energy": -0.11838,
				"method": "rhf"
			},
			{
				"type": "unocc",
				"energy": -0.0507,
				"method": "rhf"
			},
			{
				"type": "unocc",
				"energy": -0.02768,
				"method": "rhf"
			},
			{
				"type": "unocc",
				"energy": 0.01328,
				"method": "rhf"
			},
			{
				"type": "unocc",
				"energy": 0.08301,
				"method": "rhf"
			}
		],
		"cosmo_sigma_profile": { 
			"-0.025": 0.0,
			"-0.024": 0.0,
			"-0.023": 0.0,
			"-0.022": 0.0,
			"-0.021": 0.0,
			"-0.02": 0.0,
			"-0.019": 0.0,
			"-0.018": 0.0,
			"-0.017": 0.0,
			"-0.016": 0.0,
			"-0.015": 0.0,
			"-0.014": 0.0,
			"-0.013": 0.0,
			"-0.012": 0.168199975226,
			"-0.011": 0.607754798793,
			"-0.01": 1.90923164621,
			"-0.009": 6.48480880838,
			"-0.008": 7.88735884732,
			"-0.007": 6.13945403111,
			"-0.006": 7.10882982119,
			"-0.005": 10.2161665762,
			"-0.004": 9.37200367387,
			"-0.003": 12.6074271128,
			"-0.002": 13.1610139028,
			"-0.001": 11.3665180337,
			"0.0": 8.10109504085,
			"0.001": 9.41566157482,
			"0.002": 9.81526351774,
			"0.003": 11.9668146017,
			"0.004": 7.56751986209,
			"0.005": 6.56752932919,
			"0.006": 7.94280474797,
			"0.007": 8.41478638568,
			"0.008": 6.49490537763,
			"0.009": 5.88490718951,
			"0.01": 2.6027644875,
			"0.011": 1.4132400179,
			"0.012": 0.878871290925,
			"0.013": 0.354212226853,
			"0.014": 0.0,
			"0.015": 0.0,
			"0.016": 0.0,
			"0.017": 0.0,
			"0.018": 0.0,
			"0.019": 0.0,
			"0.02": 0.0,
			"0.021": 0.0,
			"0.022": 0.0,
			"0.023": 0.0,
			"0.024": 0.0,
			"0.025": 0.0
		}
	}
}
