{
	 "smiles": "OC(=O)CCNS(=O)(=O)C1=CC=C(Cl)C=C1", 
	 "Tm": 430.15, 
	 "num_atms": 26, 
	 "gaussian": { 
		 "optdone": 1, 
		 "sigma_profile": "yes", 
		 "theory": "DFT", 
		 "functional": "B3LYP", 
		 "basiset": "6-31G**", 
		 "properties": { 
			 "R2extent": 5322.1383, 
			 "electric_dipole_moment_norm": 4.72318753174, 
			 "electric_quadrupole_moment_norm": 12.8445617465, 
			 "total_energy": -1562.95744989, 
			 "HOMO_LUMO_gap": 0.2133, 
			 "cosmo_polarized_energy": -18.97, 
			 "cosmo_cavitation_energy": 33.75, 
			 "cosmo_dispersion_energy": -24.46, 
			 "cosmo_repulsion_energy": 1.89, 
			 "cosmo_total_nonelectrostatic_energy": 11.18, 
			 "SMD_solvation_energy": 5.43 
		},
		"coords": [
			{
				"x": 4.1336691622,
				"y": 1.9696892711,
				"z": -0.5403687992,
				"element": "O" 
			},
			{
				"x": 2.8337311653,
				"y": 2.3329284284,
				"z": -0.4918018253,
				"element": "C" 
			},
			{
				"x": 2.0630056829,
				"y": 2.1279873286,
				"z": -1.4054164217,
				"element": "O" 
			},
			{
				"x": 2.5021733895,
				"y": 3.0507941952,
				"z": 0.8007395509,
				"element": "C" 
			},
			{
				"x": 1.0123416341,
				"y": 2.9995071282,
				"z": 1.1354053281,
				"element": "C" 
			},
			{
				"x": 0.619379332,
				"y": 1.6305829908,
				"z": 1.505284917,
				"element": "N" 
			},
			{
				"x": -0.9807899392,
				"y": 1.1310750729,
				"z": 1.2509948008,
				"element": "S" 
			},
			{
				"x": -1.5029254335,
				"y": 0.6755881231,
				"z": 2.5451927852,
				"element": "O" 
			},
			{
				"x": -1.6499944315,
				"y": 2.1754504214,
				"z": 0.4714028291,
				"element": "O" 
			},
			{
				"x": -0.8070129597,
				"y": -0.319143113,
				"z": 0.2098229967,
				"element": "C" 
			},
			{
				"x": -1.2647968363,
				"y": -1.5468134374,
				"z": 0.686548497,
				"element": "C" 
			},
			{
				"x": -1.1758741848,
				"y": -2.6753571783,
				"z": -0.1290949684,
				"element": "C" 
			},
			{
				"x": -0.6292536595,
				"y": -2.5477603354,
				"z": -1.4053649277,
				"element": "C" 
			},
			{
				"x": -0.5114869326,
				"y": -3.9644092208,
				"z": -2.4340665324,
				"element": "Cl" 
			},
			{
				"x": -0.1709313223,
				"y": -1.31769026,
				"z": -1.884522201,
				"element": "C" 
			},
			{
				"x": -0.2634836245,
				"y": -0.1912283874,
				"z": -1.0715174759,
				"element": "C" 
			},
			{
				"x": 4.271894446,
				"y": 1.5545033278,
				"z": -1.4088180359,
				"element": "H" 
			},
			{
				"x": 2.8103450048,
				"y": 4.0976197223,
				"z": 0.6762508221,
				"element": "H" 
			},
			{
				"x": 3.1207193807,
				"y": 2.6443046998,
				"z": 1.6069199764,
				"element": "H" 
			},
			{
				"x": 0.4263798473,
				"y": 3.2870574474,
				"z": 0.2620208544,
				"element": "H" 
			},
			{
				"x": 0.7875387897,
				"y": 3.7146749912,
				"z": 1.9362928436,
				"element": "H" 
			},
			{
				"x": 0.8796214497,
				"y": 1.3623215301,
				"z": 2.4505135167,
				"element": "H" 
			},
			{
				"x": -1.6878044542,
				"y": -1.6117967423,
				"z": 1.6826257776,
				"element": "H" 
			},
			{
				"x": -1.527206389,
				"y": -3.6396238169,
				"z": 0.2201640309,
				"element": "H" 
			},
			{
				"x": 0.2513287308,
				"y": -1.2449338702,
				"z": -2.88033379,
				"element": "H" 
			},
			{
				"x": 0.102532152,
				"y": 0.7662716835,
				"z": -1.425474549,
				"element": "H" 
			}
		],
		 "valence_orbital": [ 
			{
				"type": "occ",
				"energy": -0.30594,
				"method": "rhf"
			},
			{
				"type": "occ",
				"energy": -0.29407,
				"method": "rhf"
			},
			{
				"type": "occ",
				"energy": -0.28303,
				"method": "rhf"
			},
			{
				"type": "occ",
				"energy": -0.27597,
				"method": "rhf"
			},
			{
				"type": "occ",
				"energy": -0.25499,
				"method": "rhf"
			},
			{
				"type": "unocc",
				"energy": -0.04169,
				"method": "rhf"
			},
			{
				"type": "unocc",
				"energy": -0.02553,
				"method": "rhf"
			},
			{
				"type": "unocc",
				"energy": -0.0082,
				"method": "rhf"
			},
			{
				"type": "unocc",
				"energy": 0.02147,
				"method": "rhf"
			},
			{
				"type": "unocc",
				"energy": 0.05375,
				"method": "rhf"
			}
		],
		"cosmo_sigma_profile": { 
			"-0.025": 0.0,
			"-0.024": 0.0,
			"-0.023": 0.0,
			"-0.022": 0.0,
			"-0.021": 0.0,
			"-0.02": 0.0,
			"-0.019": 0.0332969771305,
			"-0.018": 1.1433594591,
			"-0.017": 0.783648200054,
			"-0.016": 0.383934030575,
			"-0.015": 1.65619734801,
			"-0.014": 1.73290485232,
			"-0.013": 1.49713525978,
			"-0.012": 2.14751727043,
			"-0.011": 1.64622495405,
			"-0.01": 2.06334478598,
			"-0.009": 1.74820492833,
			"-0.008": 8.34677393253,
			"-0.007": 11.7514090818,
			"-0.006": 13.6068914676,
			"-0.005": 15.2746817086,
			"-0.004": 14.2919807425,
			"-0.003": 13.871103457,
			"-0.002": 11.7543107385,
			"-0.001": 17.2616431477,
			"0.0": 19.9251250279,
			"0.001": 24.5514143369,
			"0.002": 19.9478392859,
			"0.003": 13.6072909545,
			"0.004": 18.2213137958,
			"0.005": 8.12715181443,
			"0.006": 5.38985543308,
			"0.007": 5.33978278435,
			"0.008": 5.42426790947,
			"0.009": 7.39076062482,
			"0.01": 9.76027338033,
			"0.011": 10.280287141,
			"0.012": 2.18352369149,
			"0.013": 0.0,
			"0.014": 0.0,
			"0.015": 0.0,
			"0.016": 0.0,
			"0.017": 0.0,
			"0.018": 0.0,
			"0.019": 0.0,
			"0.02": 0.0,
			"0.021": 0.0,
			"0.022": 0.0,
			"0.023": 0.0,
			"0.024": 0.0,
			"0.025": 0.0
		}
	}
}
