{
	 "smiles": "CC(C)C1=NN(C=C1C=O)C1=CC=C(Br)C=C1", 
	 "Tm": 373.15, 
	 "num_atms": 30, 
	 "gaussian": { 
		 "optdone": 1, 
		 "sigma_profile": "yes", 
		 "theory": "DFT", 
		 "functional": "B3LYP", 
		 "basiset": "6-31G**", 
		 "properties": { 
			 "R2extent": 10594.6691, 
			 "electric_dipole_moment_norm": 2.45153130512, 
			 "electric_quadrupole_moment_norm": 18.1106831169, 
			 "total_energy": -3259.33614229, 
			 "HOMO_LUMO_gap": 0.17289, 
			 "cosmo_polarized_energy": -11.75, 
			 "cosmo_cavitation_energy": 36.0, 
			 "cosmo_dispersion_energy": -26.28, 
			 "cosmo_repulsion_energy": 2.03, 
			 "cosmo_total_nonelectrostatic_energy": 11.74, 
			 "SMD_solvation_energy": 5.47 
		},
		"coords": [
			{
				"x": 1.6513786642,
				"y": 1.9977685657,
				"z": 2.7343570602,
				"element": "C" 
			},
			{
				"x": 1.8140852789,
				"y": 0.6629485438,
				"z": 1.9825322483,
				"element": "C" 
			},
			{
				"x": 3.265475994,
				"y": 0.455949117,
				"z": 1.5091486903,
				"element": "C" 
			},
			{
				"x": 0.8314138871,
				"y": 0.5385971731,
				"z": 0.8445013285,
				"element": "C" 
			},
			{
				"x": -0.0698653536,
				"y": -0.4314573742,
				"z": 0.8775797272,
				"element": "N" 
			},
			{
				"x": -0.8168008495,
				"y": -0.305000391,
				"z": -0.2653718863,
				"element": "N" 
			},
			{
				"x": -0.3932928263,
				"y": 0.7364561619,
				"z": -1.0175479808,
				"element": "C" 
			},
			{
				"x": 0.6736522001,
				"y": 1.3248192867,
				"z": -0.3519831431,
				"element": "C" 
			},
			{
				"x": 1.3901957232,
				"y": 2.4848421061,
				"z": -0.8669456984,
				"element": "C" 
			},
			{
				"x": 2.3331172483,
				"y": 3.0507317444,
				"z": -0.3361668366,
				"element": "O" 
			},
			{
				"x": -1.8766052261,
				"y": -1.2165785491,
				"z": -0.5147896211,
				"element": "C" 
			},
			{
				"x": -2.1372971728,
				"y": -2.2307300923,
				"z": 0.4142522589,
				"element": "C" 
			},
			{
				"x": -3.1722051317,
				"y": -3.1334766795,
				"z": 0.1861945447,
				"element": "C" 
			},
			{
				"x": -3.9454958751,
				"y": -3.0230395035,
				"z": -0.9685062106,
				"element": "C" 
			},
			{
				"x": -5.3636348519,
				"y": -4.2608178317,
				"z": -1.2808213708,
				"element": "Br" 
			},
			{
				"x": -3.6929766464,
				"y": -2.016462837,
				"z": -1.8985571705,
				"element": "C" 
			},
			{
				"x": -2.6576905776,
				"y": -1.1123720528,
				"z": -1.6716156287,
				"element": "C" 
			},
			{
				"x": 2.322642339,
				"y": 2.022172603,
				"z": 3.5993215664,
				"element": "H" 
			},
			{
				"x": 0.6267706647,
				"y": 2.1256604764,
				"z": 3.0981807609,
				"element": "H" 
			},
			{
				"x": 1.9022634589,
				"y": 2.8395434273,
				"z": 2.0842410131,
				"element": "H" 
			},
			{
				"x": 1.5556012452,
				"y": -0.1525902293,
				"z": 2.6682842373,
				"element": "H" 
			},
			{
				"x": 3.3845008065,
				"y": -0.5086478688,
				"z": 1.0052294007,
				"element": "H" 
			},
			{
				"x": 3.5642300243,
				"y": 1.2517001619,
				"z": 0.8223439236,
				"element": "H" 
			},
			{
				"x": 3.9436994046,
				"y": 0.4740865186,
				"z": 2.3688168597,
				"element": "H" 
			},
			{
				"x": -0.850888536,
				"y": 1.0043800886,
				"z": -1.9576359634,
				"element": "H" 
			},
			{
				"x": 0.9997439153,
				"y": 2.8514974364,
				"z": -1.8428273011,
				"element": "H" 
			},
			{
				"x": -1.5250266353,
				"y": -2.2987569891,
				"z": 1.3040293642,
				"element": "H" 
			},
			{
				"x": -3.3746620905,
				"y": -3.9190186278,
				"z": 0.9050213643,
				"element": "H" 
			},
			{
				"x": -4.2976501337,
				"y": -1.9356750753,
				"z": -2.7942956336,
				"element": "H" 
			},
			{
				"x": -2.4746789477,
				"y": -0.3353293095,
				"z": -2.4049699032,
				"element": "H" 
			}
		],
		 "valence_orbital": [ 
			{
				"type": "occ",
				"energy": -0.2837,
				"method": "rhf"
			},
			{
				"type": "occ",
				"energy": -0.28156,
				"method": "rhf"
			},
			{
				"type": "occ",
				"energy": -0.27167,
				"method": "rhf"
			},
			{
				"type": "occ",
				"energy": -0.25561,
				"method": "rhf"
			},
			{
				"type": "occ",
				"energy": -0.2345,
				"method": "rhf"
			},
			{
				"type": "unocc",
				"energy": -0.06161,
				"method": "rhf"
			},
			{
				"type": "unocc",
				"energy": -0.03227,
				"method": "rhf"
			},
			{
				"type": "unocc",
				"energy": -0.02627,
				"method": "rhf"
			},
			{
				"type": "unocc",
				"energy": -0.00179,
				"method": "rhf"
			},
			{
				"type": "unocc",
				"energy": 0.02057,
				"method": "rhf"
			}
		],
		"cosmo_sigma_profile": { 
			"-0.025": 0.0,
			"-0.024": 0.0,
			"-0.023": 0.0,
			"-0.022": 0.0,
			"-0.021": 0.0,
			"-0.02": 0.0,
			"-0.019": 0.0,
			"-0.018": 0.0,
			"-0.017": 0.0,
			"-0.016": 0.0,
			"-0.015": 0.0,
			"-0.014": 0.0,
			"-0.013": 0.293452712261,
			"-0.012": 1.55272664,
			"-0.011": 2.27952475951,
			"-0.01": 2.43756800305,
			"-0.009": 2.94744629304,
			"-0.008": 3.77175314922,
			"-0.007": 8.73116744689,
			"-0.006": 10.2491128437,
			"-0.005": 9.61620274194,
			"-0.004": 9.56622450306,
			"-0.003": 19.9613388714,
			"-0.002": 23.1967899571,
			"-0.001": 26.0783328304,
			"0.0": 31.5406641133,
			"0.001": 42.7521035544,
			"0.002": 31.1134979842,
			"0.003": 18.7895832143,
			"0.004": 15.1316541118,
			"0.005": 8.31675262946,
			"0.006": 3.26419632218,
			"0.007": 3.45508050639,
			"0.008": 2.93478655714,
			"0.009": 3.11891965598,
			"0.01": 3.27119535915,
			"0.011": 2.28476427608,
			"0.012": 2.290716773,
			"0.013": 1.63829581998,
			"0.014": 0.134444994073,
			"0.015": 0.0,
			"0.016": 0.0,
			"0.017": 0.0,
			"0.018": 0.0,
			"0.019": 0.0,
			"0.02": 0.0,
			"0.021": 0.0,
			"0.022": 0.0,
			"0.023": 0.0,
			"0.024": 0.0,
			"0.025": 0.0
		}
	}
}
