{
	 "smiles": "CC(=O)C1=CC=C(NC(=O)NCC#C)C=C1", 
	 "Tm": 443.15, 
	 "num_atms": 28, 
	 "gaussian": { 
		 "optdone": 1, 
		 "sigma_profile": "yes", 
		 "theory": "DFT", 
		 "functional": "B3LYP", 
		 "basiset": "6-31G**", 
		 "properties": { 
			 "R2extent": 4848.3507, 
			 "electric_dipole_moment_norm": 3.01389200868, 
			 "electric_quadrupole_moment_norm": 20.3088159271, 
			 "total_energy": -724.404025089, 
			 "HOMO_LUMO_gap": 0.17639, 
			 "cosmo_polarized_energy": -18.1, 
			 "cosmo_cavitation_energy": 33.74, 
			 "cosmo_dispersion_energy": -23.15, 
			 "cosmo_repulsion_energy": 1.81, 
			 "cosmo_total_nonelectrostatic_energy": 12.39, 
			 "SMD_solvation_energy": 8.23 
		},
		"coords": [
			{
				"x": -1.9443184352,
				"y": -1.7385788713,
				"z": -3.6821081306,
				"element": "C" 
			},
			{
				"x": -2.6218654199,
				"y": -0.6475225459,
				"z": -2.8683996768,
				"element": "C" 
			},
			{
				"x": -3.7675091066,
				"y": -0.3037553679,
				"z": -3.1244770717,
				"element": "O" 
			},
			{
				"x": -1.8644520094,
				"y": -0.0040986333,
				"z": -1.7528573747,
				"element": "C" 
			},
			{
				"x": -2.4992963357,
				"y": 1.0047581139,
				"z": -1.0080130597,
				"element": "C" 
			},
			{
				"x": -1.8496918695,
				"y": 1.6313718824,
				"z": 0.0420959004,
				"element": "C" 
			},
			{
				"x": -0.5300017815,
				"y": 1.2744921304,
				"z": 0.3823650443,
				"element": "C" 
			},
			{
				"x": 0.0766365104,
				"y": 1.9711032103,
				"z": 1.44382878,
				"element": "N" 
			},
			{
				"x": 1.3404849609,
				"y": 1.8247477299,
				"z": 2.0281873459,
				"element": "C" 
			},
			{
				"x": 1.9747568493,
				"y": 2.806756748,
				"z": 2.3846413699,
				"element": "O" 
			},
			{
				"x": 1.8152765373,
				"y": 0.5322081272,
				"z": 2.1942462066,
				"element": "N" 
			},
			{
				"x": 0.9590306087,
				"y": -0.5691627264,
				"z": 2.6698406924,
				"element": "C" 
			},
			{
				"x": 1.7181420158,
				"y": -1.8166547459,
				"z": 2.7401636154,
				"element": "C" 
			},
			{
				"x": 2.3497216784,
				"y": -2.8418924413,
				"z": 2.8177927598,
				"element": "C" 
			},
			{
				"x": 0.1192594127,
				"y": 0.2770874777,
				"z": -0.3638800481,
				"element": "C" 
			},
			{
				"x": -0.5503892617,
				"y": -0.3521099341,
				"z": -1.410672877,
				"element": "C" 
			},
			{
				"x": -2.6413709497,
				"y": -2.0877110353,
				"z": -4.4442825086,
				"element": "H" 
			},
			{
				"x": -1.650481076,
				"y": -2.5807103827,
				"z": -3.0457849714,
				"element": "H" 
			},
			{
				"x": -1.0361081485,
				"y": -1.3625124763,
				"z": -4.1661323016,
				"element": "H" 
			},
			{
				"x": -3.5157251639,
				"y": 1.274256813,
				"z": -1.2748668044,
				"element": "H" 
			},
			{
				"x": -2.3572147164,
				"y": 2.4014171768,
				"z": 0.6174933788,
				"element": "H" 
			},
			{
				"x": -0.2387322319,
				"y": 2.9263079212,
				"z": 1.5572474167,
				"element": "H" 
			},
			{
				"x": 2.7165715565,
				"y": 0.5664759225,
				"z": 2.656659473,
				"element": "H" 
			},
			{
				"x": 0.1189045225,
				"y": -0.6955724965,
				"z": 1.9812691298,
				"element": "H" 
			},
			{
				"x": 0.5327902714,
				"y": -0.3451219322,
				"z": 3.6594818823,
				"element": "H" 
			},
			{
				"x": 2.9034584748,
				"y": -3.750279471,
				"z": 2.8801184477,
				"element": "H" 
			},
			{
				"x": 1.1441046598,
				"y": 0.0109677757,
				"z": -0.1335287657,
				"element": "H" 
			},
			{
				"x": -0.0233815527,
				"y": -1.1173679689,
				"z": -1.9715278527,
				"element": "H" 
			}
		],
		 "valence_orbital": [ 
			{
				"type": "occ",
				"energy": -0.2793,
				"method": "rhf"
			},
			{
				"type": "occ",
				"energy": -0.26815,
				"method": "rhf"
			},
			{
				"type": "occ",
				"energy": -0.26201,
				"method": "rhf"
			},
			{
				"type": "occ",
				"energy": -0.24688,
				"method": "rhf"
			},
			{
				"type": "occ",
				"energy": -0.23211,
				"method": "rhf"
			},
			{
				"type": "unocc",
				"energy": -0.05572,
				"method": "rhf"
			},
			{
				"type": "unocc",
				"energy": -0.01867,
				"method": "rhf"
			},
			{
				"type": "unocc",
				"energy": 0.01029,
				"method": "rhf"
			},
			{
				"type": "unocc",
				"energy": 0.02683,
				"method": "rhf"
			},
			{
				"type": "unocc",
				"energy": 0.04128,
				"method": "rhf"
			}
		],
		"cosmo_sigma_profile": { 
			"-0.025": 0.0,
			"-0.024": 0.0,
			"-0.023": 0.0,
			"-0.022": 0.0,
			"-0.021": 0.0,
			"-0.02": 0.0,
			"-0.019": 0.0,
			"-0.018": 0.0,
			"-0.017": 0.0,
			"-0.016": 0.0,
			"-0.015": 0.340109865309,
			"-0.014": 1.17016760281,
			"-0.013": 2.09402306932,
			"-0.012": 2.80690231355,
			"-0.011": 3.02287112226,
			"-0.01": 3.58739275429,
			"-0.009": 2.75885578201,
			"-0.008": 3.81923192107,
			"-0.007": 8.48579164631,
			"-0.006": 18.3850261267,
			"-0.005": 18.6032378651,
			"-0.004": 17.3948041053,
			"-0.003": 16.7024506221,
			"-0.002": 18.919884978,
			"-0.001": 18.1869373389,
			"0.0": 15.7027382263,
			"0.001": 15.3712247781,
			"0.002": 16.8238298113,
			"0.003": 17.9423838623,
			"0.004": 13.7116406692,
			"0.005": 9.13634387271,
			"0.006": 9.93428784879,
			"0.007": 5.42131577215,
			"0.008": 2.17549750089,
			"0.009": 2.46091944601,
			"0.01": 3.25571437875,
			"0.011": 4.18186311636,
			"0.012": 7.20888963276,
			"0.013": 8.45118890945,
			"0.014": 1.85403913888,
			"0.015": 0.0,
			"0.016": 0.0,
			"0.017": 0.0,
			"0.018": 0.0,
			"0.019": 0.0,
			"0.02": 0.0,
			"0.021": 0.0,
			"0.022": 0.0,
			"0.023": 0.0,
			"0.024": 0.0,
			"0.025": 0.0
		}
	}
}
