{
	 "smiles": "OC(=O)C1CNC(=O)C1", 
	 "Tm": 403.15, 
	 "num_atms": 16, 
	 "gaussian": { 
		 "optdone": 1, 
		 "sigma_profile": "yes", 
		 "theory": "DFT", 
		 "functional": "B3LYP", 
		 "basiset": "6-31G**", 
		 "properties": { 
			 "R2extent": 1495.5504, 
			 "electric_dipole_moment_norm": 2.19425242623, 
			 "electric_quadrupole_moment_norm": 19.0095188945, 
			 "total_energy": -475.193332853, 
			 "HOMO_LUMO_gap": 0.24734, 
			 "cosmo_polarized_energy": -21.21, 
			 "cosmo_cavitation_energy": 19.88, 
			 "cosmo_dispersion_energy": -14.93, 
			 "cosmo_repulsion_energy": 1.26, 
			 "cosmo_total_nonelectrostatic_energy": 6.21, 
			 "SMD_solvation_energy": 4.43 
		},
		"coords": [
			{
				"x": -2.3445665181,
				"y": -0.3763667865,
				"z": -0.3942819619,
				"element": "O" 
			},
			{
				"x": -1.3152515719,
				"y": -0.1436056076,
				"z": -1.2499368831,
				"element": "C" 
			},
			{
				"x": -1.2019659457,
				"y": -0.8002423856,
				"z": -2.2546968733,
				"element": "O" 
			},
			{
				"x": -0.369954979,
				"y": 0.976400846,
				"z": -0.8371948688,
				"element": "C" 
			},
			{
				"x": 0.8086752008,
				"y": 1.1583661327,
				"z": -1.8203395549,
				"element": "C" 
			},
			{
				"x": 1.8514118283,
				"y": 1.695814342,
				"z": -0.9583020227,
				"element": "N" 
			},
			{
				"x": 1.6791769882,
				"y": 1.4663702062,
				"z": 0.3808620019,
				"element": "C" 
			},
			{
				"x": 2.4629819119,
				"y": 1.7373789791,
				"z": 1.2709082804,
				"element": "O" 
			},
			{
				"x": 0.3132213156,
				"y": 0.7793118484,
				"z": 0.537591773,
				"element": "C" 
			},
			{
				"x": -2.2962029267,
				"y": 0.2216747183,
				"z": 0.3653575515,
				"element": "H" 
			},
			{
				"x": -0.9521598889,
				"y": 1.9070432885,
				"z": -0.8056350041,
				"element": "H" 
			},
			{
				"x": 1.0826694237,
				"y": 0.1958187348,
				"z": -2.2680210145,
				"element": "H" 
			},
			{
				"x": 0.5604037693,
				"y": 1.848965186,
				"z": -2.6314292364,
				"element": "H" 
			},
			{
				"x": 2.7458029741,
				"y": 2.0150374491,
				"z": -1.3018483714,
				"element": "H" 
			},
			{
				"x": -0.2266489745,
				"y": 1.2089675444,
				"z": 1.3849360386,
				"element": "H" 
			},
			{
				"x": 0.4948073928,
				"y": -0.279434496,
				"z": 0.7583301457,
				"element": "H" 
			}
		],
		 "valence_orbital": [ 
			{
				"type": "occ",
				"energy": -0.3558,
				"method": "rhf"
			},
			{
				"type": "occ",
				"energy": -0.32918,
				"method": "rhf"
			},
			{
				"type": "occ",
				"energy": -0.28854,
				"method": "rhf"
			},
			{
				"type": "occ",
				"energy": -0.26479,
				"method": "rhf"
			},
			{
				"type": "occ",
				"energy": -0.25285,
				"method": "rhf"
			},
			{
				"type": "unocc",
				"energy": -0.00551,
				"method": "rhf"
			},
			{
				"type": "unocc",
				"energy": 0.01658,
				"method": "rhf"
			},
			{
				"type": "unocc",
				"energy": 0.0416,
				"method": "rhf"
			},
			{
				"type": "unocc",
				"energy": 0.07957,
				"method": "rhf"
			},
			{
				"type": "unocc",
				"energy": 0.09302,
				"method": "rhf"
			}
		],
		"cosmo_sigma_profile": { 
			"-0.025": 0.0,
			"-0.024": 0.0,
			"-0.023": 0.0,
			"-0.022": 0.0,
			"-0.021": 0.0,
			"-0.02": 0.0,
			"-0.019": 0.299365209741,
			"-0.018": 0.976810977691,
			"-0.017": 1.59055279661,
			"-0.016": 1.09550078729,
			"-0.015": 0.905855563006,
			"-0.014": 2.21377836814,
			"-0.013": 2.44694562442,
			"-0.012": 1.85404541356,
			"-0.011": 2.47087123936,
			"-0.01": 2.79675881626,
			"-0.009": 2.1544290235,
			"-0.008": 5.39550368914,
			"-0.007": 10.5502415377,
			"-0.006": 12.1227526329,
			"-0.005": 9.91174759589,
			"-0.004": 9.52038847498,
			"-0.003": 7.8151402624,
			"-0.002": 6.43696149901,
			"-0.001": 4.53248023748,
			"0.0": 4.78819230116,
			"0.001": 3.27110514797,
			"0.002": 3.75357549211,
			"0.003": 3.98755601931,
			"0.004": 4.6876963781,
			"0.005": 3.86234913677,
			"0.006": 2.65888719677,
			"0.007": 4.27806367398,
			"0.008": 3.66227626203,
			"0.009": 4.73425158103,
			"0.01": 6.55650702332,
			"0.011": 6.87041106725,
			"0.012": 6.01271755238,
			"0.013": 5.81688721765,
			"0.014": 5.11047161704,
			"0.015": 1.20500710809,
			"0.016": 0.0,
			"0.017": 0.0,
			"0.018": 0.0,
			"0.019": 0.0,
			"0.02": 0.0,
			"0.021": 0.0,
			"0.022": 0.0,
			"0.023": 0.0,
			"0.024": 0.0,
			"0.025": 0.0
		}
	}
}
