{
	 "smiles": "CC1=C(C=CC=C1)C1=CSC(N)=N1", 
	 "Tm": 354.15, 
	 "num_atms": 23, 
	 "gaussian": { 
		 "optdone": 1, 
		 "sigma_profile": "yes", 
		 "theory": "DFT", 
		 "functional": "B3LYP", 
		 "basiset": "6-31G**", 
		 "properties": { 
			 "R2extent": 3301.7471, 
			 "electric_dipole_moment_norm": 1.83625265691, 
			 "electric_quadrupole_moment_norm": 14.2300625722, 
			 "total_energy": -894.785831939, 
			 "HOMO_LUMO_gap": 0.18208, 
			 "cosmo_polarized_energy": -10.66, 
			 "cosmo_cavitation_energy": 28.25, 
			 "cosmo_dispersion_energy": -21.18, 
			 "cosmo_repulsion_energy": 1.63, 
			 "cosmo_total_nonelectrostatic_energy": 8.71, 
			 "SMD_solvation_energy": 3.61 
		},
		"coords": [
			{
				"x": -1.9310807309,
				"y": 0.2847940546,
				"z": -0.2013168972,
				"element": "C" 
			},
			{
				"x": -0.8467759054,
				"y": -0.7644795827,
				"z": -0.120824425,
				"element": "C" 
			},
			{
				"x": 0.4909110985,
				"y": -0.4484627924,
				"z": 0.2194613395,
				"element": "C" 
			},
			{
				"x": 1.4398451407,
				"y": -1.4802126403,
				"z": 0.3064066546,
				"element": "C" 
			},
			{
				"x": 1.0946068683,
				"y": -2.8091505978,
				"z": 0.0699970699,
				"element": "C" 
			},
			{
				"x": -0.2197915731,
				"y": -3.1236241127,
				"z": -0.2697112747,
				"element": "C" 
			},
			{
				"x": -1.1695794829,
				"y": -2.1056459852,
				"z": -0.3609753445,
				"element": "C" 
			},
			{
				"x": 0.9299117081,
				"y": 0.9375955123,
				"z": 0.5085105667,
				"element": "C" 
			},
			{
				"x": 1.7706748399,
				"y": 1.2769495139,
				"z": 1.5331526714,
				"element": "C" 
			},
			{
				"x": 2.0878359102,
				"y": 2.9941252585,
				"z": 1.5238883082,
				"element": "S" 
			},
			{
				"x": 1.0467530233,
				"y": 3.116948038,
				"z": 0.0978988815,
				"element": "C" 
			},
			{
				"x": 0.7748954476,
				"y": 4.3387126507,
				"z": -0.4792070858,
				"element": "N" 
			},
			{
				"x": 0.5274322287,
				"y": 1.9940705303,
				"z": -0.2996447312,
				"element": "N" 
			},
			{
				"x": -1.7404189014,
				"y": 0.9950397666,
				"z": -1.0097645717,
				"element": "H" 
			},
			{
				"x": -1.9857045386,
				"y": 0.8745925437,
				"z": 0.7201701761,
				"element": "H" 
			},
			{
				"x": -2.9061568817,
				"y": -0.1830657566,
				"z": -0.3638884802,
				"element": "H" 
			},
			{
				"x": 2.4685758399,
				"y": -1.2233714191,
				"z": 0.5416448166,
				"element": "H" 
			},
			{
				"x": 1.8492292198,
				"y": -3.5873329731,
				"z": 0.1391855832,
				"element": "H" 
			},
			{
				"x": -0.5073367347,
				"y": -4.153089429,
				"z": -0.464149194,
				"element": "H" 
			},
			{
				"x": -2.1962597208,
				"y": -2.3551514993,
				"z": -0.6175641826,
				"element": "H" 
			},
			{
				"x": 2.1977354873,
				"y": 0.6397042882,
				"z": 2.2928578408,
				"element": "H" 
			},
			{
				"x": 0.3420139848,
				"y": 4.2506946527,
				"z": -1.3896863925,
				"element": "H" 
			},
			{
				"x": 1.5113836724,
				"y": 5.0293599787,
				"z": -0.4459413293,
				"element": "H" 
			}
		],
		 "valence_orbital": [ 
			{
				"type": "occ",
				"energy": -0.27742,
				"method": "rhf"
			},
			{
				"type": "occ",
				"energy": -0.27049,
				"method": "rhf"
			},
			{
				"type": "occ",
				"energy": -0.24412,
				"method": "rhf"
			},
			{
				"type": "occ",
				"energy": -0.23417,
				"method": "rhf"
			},
			{
				"type": "occ",
				"energy": -0.2023,
				"method": "rhf"
			},
			{
				"type": "unocc",
				"energy": -0.02022,
				"method": "rhf"
			},
			{
				"type": "unocc",
				"energy": 0.00806,
				"method": "rhf"
			},
			{
				"type": "unocc",
				"energy": 0.01284,
				"method": "rhf"
			},
			{
				"type": "unocc",
				"energy": 0.01553,
				"method": "rhf"
			},
			{
				"type": "unocc",
				"energy": 0.07003,
				"method": "rhf"
			}
		],
		"cosmo_sigma_profile": { 
			"-0.025": 0.0,
			"-0.024": 0.0,
			"-0.023": 0.0,
			"-0.022": 0.0,
			"-0.021": 0.0,
			"-0.02": 0.0,
			"-0.019": 0.0,
			"-0.018": 0.0,
			"-0.017": 0.0,
			"-0.016": 0.0,
			"-0.015": 0.16961308617,
			"-0.014": 1.89443196793,
			"-0.013": 2.50903035726,
			"-0.012": 2.71202495418,
			"-0.011": 3.4148292578,
			"-0.01": 1.78799318551,
			"-0.009": 1.26741659297,
			"-0.008": 3.21230194299,
			"-0.007": 4.05108049474,
			"-0.006": 4.97867336459,
			"-0.005": 10.8895411767,
			"-0.004": 15.53783893,
			"-0.003": 15.4161291864,
			"-0.002": 14.5277151967,
			"-0.001": 13.1758309618,
			"0.0": 17.0522710969,
			"0.001": 18.9272706615,
			"0.002": 19.0388254337,
			"0.003": 18.0921793975,
			"0.004": 18.8338009543,
			"0.005": 15.3041942734,
			"0.006": 11.750047626,
			"0.007": 3.94789885317,
			"0.008": 2.41465174475,
			"0.009": 2.0250580271,
			"0.01": 1.73973932097,
			"0.011": 0.971295684789,
			"0.012": 1.16574642092,
			"0.013": 0.41242209897,
			"0.014": 0.152537210322,
			"0.015": 0.0,
			"0.016": 0.0,
			"0.017": 0.0,
			"0.018": 0.0,
			"0.019": 0.0,
			"0.02": 0.0,
			"0.021": 0.0,
			"0.022": 0.0,
			"0.023": 0.0,
			"0.024": 0.0,
			"0.025": 0.0
		}
	}
}
