{
	 "smiles": "C(C=CC1=CC=CC=C1)C1=CC=CC=C1", 
	 "Tm": 427.15, 
	 "num_atms": 29, 
	 "gaussian": { 
		 "optdone": 1, 
		 "sigma_profile": "yes", 
		 "theory": "DFT", 
		 "functional": "B3LYP", 
		 "basiset": "6-31G**", 
		 "properties": { 
			 "R2extent": 5536.4692, 
			 "electric_dipole_moment_norm": 0.103991778521, 
			 "electric_quadrupole_moment_norm": 4.8331713574, 
			 "total_energy": -580.026763994, 
			 "HOMO_LUMO_gap": 0.18516, 
			 "cosmo_polarized_energy": -6.24, 
			 "cosmo_cavitation_energy": 33.01, 
			 "cosmo_dispersion_energy": -23.7, 
			 "cosmo_repulsion_energy": 1.86, 
			 "cosmo_total_nonelectrostatic_energy": 11.16, 
			 "SMD_solvation_energy": 5.28 
		},
		"coords": [
			{
				"x": 0.797207216,
				"y": 2.1419899433,
				"z": 0.0339390551,
				"element": "C" 
			},
			{
				"x": 0.7613976213,
				"y": 0.7132092837,
				"z": 0.508837847,
				"element": "C" 
			},
			{
				"x": 1.8270067678,
				"y": 0.044791616,
				"z": 0.9758557926,
				"element": "C" 
			},
			{
				"x": 1.8773207715,
				"y": -1.3429143101,
				"z": 1.4622168314,
				"element": "C" 
			},
			{
				"x": 3.0921835944,
				"y": -1.8395434127,
				"z": 1.9670477575,
				"element": "C" 
			},
			{
				"x": 3.1992932777,
				"y": -3.1455392845,
				"z": 2.4433967039,
				"element": "C" 
			},
			{
				"x": 2.0889316762,
				"y": -3.9898530676,
				"z": 2.4244155587,
				"element": "C" 
			},
			{
				"x": 0.8732519583,
				"y": -3.5135834647,
				"z": 1.9236085598,
				"element": "C" 
			},
			{
				"x": 0.767743172,
				"y": -2.2096448745,
				"z": 1.4487645581,
				"element": "C" 
			},
			{
				"x": 0.335079961,
				"y": 2.3155902033,
				"z": -1.4066999392,
				"element": "C" 
			},
			{
				"x": 0.9140274321,
				"y": 1.5613406538,
				"z": -2.4373311743,
				"element": "C" 
			},
			{
				"x": 0.5077999063,
				"y": 1.7306577012,
				"z": -3.7605910328,
				"element": "C" 
			},
			{
				"x": -0.4899812553,
				"y": 2.656183022,
				"z": -4.076692849,
				"element": "C" 
			},
			{
				"x": -1.0766065004,
				"y": 3.4090200915,
				"z": -3.059169634,
				"element": "C" 
			},
			{
				"x": -0.6661909287,
				"y": 3.2369342132,
				"z": -1.7352228999,
				"element": "C" 
			},
			{
				"x": 1.8167968239,
				"y": 2.533886153,
				"z": 0.1466057527,
				"element": "H" 
			},
			{
				"x": 0.1570793719,
				"y": 2.7587988861,
				"z": 0.6796897061,
				"element": "H" 
			},
			{
				"x": -0.2104109959,
				"y": 0.2249756778,
				"z": 0.4486936432,
				"element": "H" 
			},
			{
				"x": 2.7794383569,
				"y": 0.5750722881,
				"z": 1.0171772068,
				"element": "H" 
			},
			{
				"x": 3.961891215,
				"y": -1.1871204608,
				"z": 1.9850772889,
				"element": "H" 
			},
			{
				"x": 4.1502622941,
				"y": -3.5026669863,
				"z": 2.828721795,
				"element": "H" 
			},
			{
				"x": 2.16735593,
				"y": -5.0082454121,
				"z": 2.7936767423,
				"element": "H" 
			},
			{
				"x": 0.0031745906,
				"y": -4.1640333513,
				"z": 1.9022359953,
				"element": "H" 
			},
			{
				"x": -0.1850512431,
				"y": -1.8628328819,
				"z": 1.0605934966,
				"element": "H" 
			},
			{
				"x": 1.6836219262,
				"y": 0.8332538591,
				"z": -2.1947815679,
				"element": "H" 
			},
			{
				"x": 0.9688870148,
				"y": 1.1382803982,
				"z": -4.5462323637,
				"element": "H" 
			},
			{
				"x": -0.8080094561,
				"y": 2.7869788809,
				"z": -5.1071192851,
				"element": "H" 
			},
			{
				"x": -1.85562697,
				"y": 4.1293975019,
				"z": -3.2933291197,
				"element": "H" 
			},
			{
				"x": -1.1279735284,
				"y": 3.8271171334,
				"z": -0.9469844254,
				"element": "H" 
			}
		],
		 "valence_orbital": [ 
			{
				"type": "occ",
				"energy": -0.29161,
				"method": "rhf"
			},
			{
				"type": "occ",
				"energy": -0.24831,
				"method": "rhf"
			},
			{
				"type": "occ",
				"energy": -0.24605,
				"method": "rhf"
			},
			{
				"type": "occ",
				"energy": -0.24082,
				"method": "rhf"
			},
			{
				"type": "occ",
				"energy": -0.21526,
				"method": "rhf"
			},
			{
				"type": "unocc",
				"energy": -0.0301,
				"method": "rhf"
			},
			{
				"type": "unocc",
				"energy": 0.00091,
				"method": "rhf"
			},
			{
				"type": "unocc",
				"energy": 0.00246,
				"method": "rhf"
			},
			{
				"type": "unocc",
				"energy": 0.00548,
				"method": "rhf"
			},
			{
				"type": "unocc",
				"energy": 0.06352,
				"method": "rhf"
			}
		],
		"cosmo_sigma_profile": { 
			"-0.025": 0.0,
			"-0.024": 0.0,
			"-0.023": 0.0,
			"-0.022": 0.0,
			"-0.021": 0.0,
			"-0.02": 0.0,
			"-0.019": 0.0,
			"-0.018": 0.0,
			"-0.017": 0.0,
			"-0.016": 0.0,
			"-0.015": 0.0,
			"-0.014": 0.0,
			"-0.013": 0.0,
			"-0.012": 0.0,
			"-0.011": 0.0,
			"-0.01": 0.0,
			"-0.009": 0.0,
			"-0.008": 0.0,
			"-0.007": 0.617519160093,
			"-0.006": 7.01304686279,
			"-0.005": 23.8162123177,
			"-0.004": 30.0674923713,
			"-0.003": 28.1943080844,
			"-0.002": 19.8896763399,
			"-0.001": 21.7095341751,
			"0.0": 16.4050790457,
			"0.001": 16.3906161577,
			"0.002": 16.8710186974,
			"0.003": 18.8094530449,
			"0.004": 20.7757394022,
			"0.005": 20.665177638,
			"0.006": 18.6822098244,
			"0.007": 3.5956800737,
			"0.008": 0.0,
			"0.009": 0.0,
			"0.01": 0.0,
			"0.011": 0.0,
			"0.012": 0.0,
			"0.013": 0.0,
			"0.014": 0.0,
			"0.015": 0.0,
			"0.016": 0.0,
			"0.017": 0.0,
			"0.018": 0.0,
			"0.019": 0.0,
			"0.02": 0.0,
			"0.021": 0.0,
			"0.022": 0.0,
			"0.023": 0.0,
			"0.024": 0.0,
			"0.025": 0.0
		}
	}
}
