{
	 "smiles": "OC(=O)C1=CC=C(OC(F)(F)F)C=C1", 
	 "Tm": 425.15, 
	 "num_atms": 19, 
	 "gaussian": { 
		 "optdone": 1, 
		 "sigma_profile": "yes", 
		 "theory": "DFT", 
		 "functional": "B3LYP", 
		 "basiset": "6-31G**", 
		 "properties": { 
			 "R2extent": 4093.5853, 
			 "electric_dipole_moment_norm": 1.58838262708, 
			 "electric_quadrupole_moment_norm": 9.67392530879, 
			 "total_energy": -833.077447876, 
			 "HOMO_LUMO_gap": 0.20512, 
			 "cosmo_polarized_energy": -8.43, 
			 "cosmo_cavitation_energy": 25.85, 
			 "cosmo_dispersion_energy": -18.76, 
			 "cosmo_repulsion_energy": 1.41, 
			 "cosmo_total_nonelectrostatic_energy": 8.5, 
			 "SMD_solvation_energy": 7.29 
		},
		"coords": [
			{
				"x": -2.3324140361,
				"y": 2.5474283386,
				"z": 2.620488961,
				"element": "O" 
			},
			{
				"x": -2.4181911439,
				"y": 2.548033036,
				"z": 1.2661692646,
				"element": "C" 
			},
			{
				"x": -2.9852112353,
				"y": 3.4322866103,
				"z": 0.6548837239,
				"element": "O" 
			},
			{
				"x": -1.7561470199,
				"y": 1.3745747559,
				"z": 0.6425847894,
				"element": "C" 
			},
			{
				"x": -1.7809574309,
				"y": 1.2686541609,
				"z": -0.752870659,
				"element": "C" 
			},
			{
				"x": -1.1799543238,
				"y": 0.1946563805,
				"z": -1.4029989169,
				"element": "C" 
			},
			{
				"x": -0.5467140956,
				"y": -0.7829033538,
				"z": -0.630998598,
				"element": "C" 
			},
			{
				"x": 0.0931478364,
				"y": -1.9071530126,
				"z": -1.1435127768,
				"element": "O" 
			},
			{
				"x": 0.1507707744,
				"y": -2.1446481739,
				"z": -2.4800991363,
				"element": "C" 
			},
			{
				"x": -1.0703089254,
				"y": -2.2779567188,
				"z": -3.0312464095,
				"element": "F" 
			},
			{
				"x": 0.8203653715,
				"y": -3.2817723358,
				"z": -2.6496656716,
				"element": "F" 
			},
			{
				"x": 0.7888277256,
				"y": -1.1656858895,
				"z": -3.1487590206,
				"element": "F" 
			},
			{
				"x": -0.5107648292,
				"y": -0.6959002513,
				"z": 0.7625629646,
				"element": "C" 
			},
			{
				"x": -1.1149276679,
				"y": 0.3817353862,
				"z": 1.3977775009,
				"element": "C" 
			},
			{
				"x": -2.7935621104,
				"y": 3.3501053593,
				"z": 2.9143038192,
				"element": "H" 
			},
			{
				"x": -2.280637462,
				"y": 2.0442900758,
				"z": -1.3229798727,
				"element": "H" 
			},
			{
				"x": -1.2092494924,
				"y": 0.129567407,
				"z": -2.4820991714,
				"element": "H" 
			},
			{
				"x": -0.0088575766,
				"y": -1.47614626,
				"z": 1.3239784465,
				"element": "H" 
			},
			{
				"x": -1.0920143585,
				"y": 0.4575344853,
				"z": 2.4785807627,
				"element": "H" 
			}
		],
		 "valence_orbital": [ 
			{
				"type": "occ",
				"energy": -0.36246,
				"method": "rhf"
			},
			{
				"type": "occ",
				"energy": -0.32356,
				"method": "rhf"
			},
			{
				"type": "occ",
				"energy": -0.28263,
				"method": "rhf"
			},
			{
				"type": "occ",
				"energy": -0.2765,
				"method": "rhf"
			},
			{
				"type": "occ",
				"energy": -0.25945,
				"method": "rhf"
			},
			{
				"type": "unocc",
				"energy": -0.05433,
				"method": "rhf"
			},
			{
				"type": "unocc",
				"energy": -0.02463,
				"method": "rhf"
			},
			{
				"type": "unocc",
				"energy": 0.04953,
				"method": "rhf"
			},
			{
				"type": "unocc",
				"energy": 0.07017,
				"method": "rhf"
			},
			{
				"type": "unocc",
				"energy": 0.0891,
				"method": "rhf"
			}
		],
		"cosmo_sigma_profile": { 
			"-0.025": 0.0,
			"-0.024": 0.0,
			"-0.023": 0.0,
			"-0.022": 0.0,
			"-0.021": 0.0,
			"-0.02": 0.0,
			"-0.019": 0.0832727264885,
			"-0.018": 0.916568032379,
			"-0.017": 0.850829410962,
			"-0.016": 1.01065632708,
			"-0.015": 0.280250645842,
			"-0.014": 0.903488629803,
			"-0.013": 0.288618824131,
			"-0.012": 1.11192616584,
			"-0.011": 1.02748305123,
			"-0.01": 0.500319236897,
			"-0.009": 0.250920398381,
			"-0.008": 2.91673477959,
			"-0.007": 6.15886063785,
			"-0.006": 7.72159762994,
			"-0.005": 6.41578897775,
			"-0.004": 5.72551186108,
			"-0.003": 8.98169576299,
			"-0.002": 13.3446084114,
			"-0.001": 17.7701546808,
			"0.0": 25.7287737219,
			"0.001": 37.1421028448,
			"0.002": 35.2882880025,
			"0.003": 5.99761157146,
			"0.004": 4.69471094224,
			"0.005": 4.12803977108,
			"0.006": 3.53792983387,
			"0.007": 2.2470620892,
			"0.008": 1.43892677137,
			"0.009": 2.00219723877,
			"0.01": 1.57194981442,
			"0.011": 4.37857394002,
			"0.012": 3.51685582138,
			"0.013": 0.0422635384594,
			"0.014": 0.0,
			"0.015": 0.0,
			"0.016": 0.0,
			"0.017": 0.0,
			"0.018": 0.0,
			"0.019": 0.0,
			"0.02": 0.0,
			"0.021": 0.0,
			"0.022": 0.0,
			"0.023": 0.0,
			"0.024": 0.0,
			"0.025": 0.0
		}
	}
}
