{
	 "smiles": "OC(=O)C1=C(SC2=C1CCSC2)N1C=CC=C1", 
	 "Tm": 443.15, 
	 "num_atms": 28, 
	 "gaussian": { 
		 "optdone": 1, 
		 "sigma_profile": "yes", 
		 "theory": "DFT", 
		 "functional": "B3LYP", 
		 "basiset": "6-31G**", 
		 "properties": { 
			 "R2extent": 5250.0131, 
			 "electric_dipole_moment_norm": 3.74350863362, 
			 "electric_quadrupole_moment_norm": 12.0973256702, 
			 "total_energy": -1465.46186007, 
			 "HOMO_LUMO_gap": 0.17178, 
			 "cosmo_polarized_energy": -14.01, 
			 "cosmo_cavitation_energy": 33.89, 
			 "cosmo_dispersion_energy": -25.45, 
			 "cosmo_repulsion_energy": 1.86, 
			 "cosmo_total_nonelectrostatic_energy": 10.3, 
			 "SMD_solvation_energy": 6.14 
		},
		"coords": [
			{
				"x": -1.9152188294,
				"y": 2.3049251624,
				"z": -0.2588278053,
				"element": "O" 
			},
			{
				"x": -1.6503533928,
				"y": 1.1758674667,
				"z": 0.4339870426,
				"element": "C" 
			},
			{
				"x": -2.4478797887,
				"y": 0.7760964188,
				"z": 1.254294943,
				"element": "O" 
			},
			{
				"x": -0.3730115273,
				"y": 0.4527254655,
				"z": 0.135295926,
				"element": "C" 
			},
			{
				"x": 0.7002899579,
				"y": 0.9719285307,
				"z": -0.5600034987,
				"element": "C" 
			},
			{
				"x": 1.9997672724,
				"y": -0.1755411675,
				"z": -0.7064668968,
				"element": "S" 
			},
			{
				"x": 1.0844302774,
				"y": -1.3838732291,
				"z": 0.1611593351,
				"element": "C" 
			},
			{
				"x": -0.1445392379,
				"y": -0.9161377932,
				"z": 0.5537199619,
				"element": "C" 
			},
			{
				"x": -1.1411639508,
				"y": -1.7538869782,
				"z": 1.325008789,
				"element": "C" 
			},
			{
				"x": -0.8407352328,
				"y": -3.2536282643,
				"z": 1.2926354066,
				"element": "C" 
			},
			{
				"x": 0.8896820048,
				"y": -3.6460378038,
				"z": 1.756526439,
				"element": "S" 
			},
			{
				"x": 1.6751543354,
				"y": -2.7524777228,
				"z": 0.3632054602,
				"element": "C" 
			},
			{
				"x": 0.8586506597,
				"y": 2.2716199595,
				"z": -1.0824725411,
				"element": "N" 
			},
			{
				"x": 1.0482286624,
				"y": 2.5828984014,
				"z": -2.4288897267,
				"element": "C" 
			},
			{
				"x": 1.3150985628,
				"y": 3.925038025,
				"z": -2.5206131169,
				"element": "C" 
			},
			{
				"x": 1.3136493694,
				"y": 4.4602316497,
				"z": -1.1950611771,
				"element": "C" 
			},
			{
				"x": 1.0472775453,
				"y": 3.4316265164,
				"z": -0.3289238132,
				"element": "C" 
			},
			{
				"x": -1.193404646,
				"y": 2.5223990582,
				"z": -0.8698967577,
				"element": "H" 
			},
			{
				"x": -1.1772412109,
				"y": -1.3994766563,
				"z": 2.3609654097,
				"element": "H" 
			},
			{
				"x": -2.1455280581,
				"y": -1.581124182,
				"z": 0.9270824053,
				"element": "H" 
			},
			{
				"x": -1.472707609,
				"y": -3.7832673308,
				"z": 2.0097315922,
				"element": "H" 
			},
			{
				"x": -1.0385494646,
				"y": -3.6759269794,
				"z": 0.301330187,
				"element": "H" 
			},
			{
				"x": 2.7396363334,
				"y": -2.6877714312,
				"z": 0.6075496543,
				"element": "H" 
			},
			{
				"x": 1.5869336023,
				"y": -3.3535542776,
				"z": -0.5503992043,
				"element": "H" 
			},
			{
				"x": 0.954340931,
				"y": 1.8140678198,
				"z": -3.1808376087,
				"element": "H" 
			},
			{
				"x": 1.4846844399,
				"y": 4.4712071477,
				"z": -3.4377418072,
				"element": "H" 
			},
			{
				"x": 1.4876667588,
				"y": 5.489082472,
				"z": -0.913374816,
				"element": "H" 
			},
			{
				"x": 0.9673422355,
				"y": 3.3968897224,
				"z": 0.7467162176,
				"element": "H" 
			}
		],
		 "valence_orbital": [ 
			{
				"type": "occ",
				"energy": -0.27379,
				"method": "rhf"
			},
			{
				"type": "occ",
				"energy": -0.26663,
				"method": "rhf"
			},
			{
				"type": "occ",
				"energy": -0.24232,
				"method": "rhf"
			},
			{
				"type": "occ",
				"energy": -0.23511,
				"method": "rhf"
			},
			{
				"type": "occ",
				"energy": -0.2303,
				"method": "rhf"
			},
			{
				"type": "unocc",
				"energy": -0.05852,
				"method": "rhf"
			},
			{
				"type": "unocc",
				"energy": -0.01261,
				"method": "rhf"
			},
			{
				"type": "unocc",
				"energy": -0.00216,
				"method": "rhf"
			},
			{
				"type": "unocc",
				"energy": 0.01403,
				"method": "rhf"
			},
			{
				"type": "unocc",
				"energy": 0.03105,
				"method": "rhf"
			}
		],
		"cosmo_sigma_profile": { 
			"-0.025": 0.0,
			"-0.024": 0.0,
			"-0.023": 0.0,
			"-0.022": 0.0,
			"-0.021": 0.0,
			"-0.02": 0.0,
			"-0.019": 0.0,
			"-0.018": 0.0,
			"-0.017": 0.0,
			"-0.016": 0.0,
			"-0.015": 0.0,
			"-0.014": 0.0,
			"-0.013": 0.0,
			"-0.012": 0.1031055336,
			"-0.011": 0.724586636784,
			"-0.01": 1.37927910951,
			"-0.009": 1.5201656447,
			"-0.008": 5.79704962421,
			"-0.007": 9.64121592871,
			"-0.006": 16.8174609967,
			"-0.005": 19.0334121024,
			"-0.004": 22.8220837111,
			"-0.003": 23.5436425959,
			"-0.002": 20.5608187387,
			"-0.001": 19.7502566857,
			"0.0": 19.795627571,
			"0.001": 18.9079201497,
			"0.002": 16.7800084015,
			"0.003": 12.7160803756,
			"0.004": 10.7115286329,
			"0.005": 11.9567167127,
			"0.006": 8.03196756594,
			"0.007": 7.19470290565,
			"0.008": 4.84191171122,
			"0.009": 5.73935786385,
			"0.01": 5.7470416427,
			"0.011": 5.7009641254,
			"0.012": 3.28567290366,
			"0.013": 1.66037399003,
			"0.014": 0.0360313471461,
			"0.015": 0.0,
			"0.016": 0.0,
			"0.017": 0.0,
			"0.018": 0.0,
			"0.019": 0.0,
			"0.02": 0.0,
			"0.021": 0.0,
			"0.022": 0.0,
			"0.023": 0.0,
			"0.024": 0.0,
			"0.025": 0.0
		}
	}
}
