{
	 "smiles": "OC1=CC(=CC=C1)[N+]([O-])=O", 
	 "Tm": 369.15, 
	 "num_atms": 15, 
	 "gaussian": { 
		 "optdone": 1, 
		 "sigma_profile": "yes", 
		 "theory": "DFT", 
		 "functional": "B3LYP", 
		 "basiset": "6-31G**", 
		 "properties": { 
			 "R2extent": 2056.6988, 
			 "electric_dipole_moment_norm": 5.78617890926, 
			 "electric_quadrupole_moment_norm": 9.76895757898, 
			 "total_energy": -511.968231226, 
			 "HOMO_LUMO_gap": 0.16119, 
			 "cosmo_polarized_energy": -12.59, 
			 "cosmo_cavitation_energy": 20.23, 
			 "cosmo_dispersion_energy": -15.14, 
			 "cosmo_repulsion_energy": 1.23, 
			 "cosmo_total_nonelectrostatic_energy": 6.31, 
			 "SMD_solvation_energy": 6.24 
		},
		"coords": [
			{
				"x": 1.2104685504,
				"y": 2.2253807963,
				"z": -1.1297349331,
				"element": "O" 
			},
			{
				"x": -0.0488285838,
				"y": 1.7110386222,
				"z": -1.0767506252,
				"element": "C" 
			},
			{
				"x": -0.4092952058,
				"y": 1.0299268611,
				"z": 0.0895184356,
				"element": "C" 
			},
			{
				"x": -1.6893741698,
				"y": 0.4946615198,
				"z": 0.1702388943,
				"element": "C" 
			},
			{
				"x": -2.6267851619,
				"y": 0.6060605767,
				"z": -0.8559304154,
				"element": "C" 
			},
			{
				"x": -2.2469034064,
				"y": 1.2885604518,
				"z": -2.0089207628,
				"element": "C" 
			},
			{
				"x": -0.9695348638,
				"y": 1.8393048945,
				"z": -2.1253212263,
				"element": "C" 
			},
			{
				"x": -2.0684677275,
				"y": -0.224076566,
				"z": 1.401896562,
				"element": "N" 
			},
			{
				"x": -1.2277111494,
				"y": -0.3115286933,
				"z": 2.2952136614,
				"element": "O" 
			},
			{
				"x": -3.2044027106,
				"y": -0.693116296,
				"z": 1.4599329726,
				"element": "O" 
			},
			{
				"x": 1.3441208528,
				"y": 2.6702694152,
				"z": -1.9767858788,
				"element": "H" 
			},
			{
				"x": 0.2894521531,
				"y": 0.9218854149,
				"z": 0.9084078323,
				"element": "H" 
			},
			{
				"x": -3.6092288672,
				"y": 0.1691805105,
				"z": -0.7378069987,
				"element": "H" 
			},
			{
				"x": -2.9507099282,
				"y": 1.3948837228,
				"z": -2.8283240937,
				"element": "H" 
			},
			{
				"x": -0.685999782,
				"y": 2.3698687696,
				"z": -3.0315334243,
				"element": "H" 
			}
		],
		 "valence_orbital": [ 
			{
				"type": "occ",
				"energy": -0.3082,
				"method": "rhf"
			},
			{
				"type": "occ",
				"energy": -0.30582,
				"method": "rhf"
			},
			{
				"type": "occ",
				"energy": -0.28934,
				"method": "rhf"
			},
			{
				"type": "occ",
				"energy": -0.28361,
				"method": "rhf"
			},
			{
				"type": "occ",
				"energy": -0.24895,
				"method": "rhf"
			},
			{
				"type": "unocc",
				"energy": -0.08776,
				"method": "rhf"
			},
			{
				"type": "unocc",
				"energy": -0.01928,
				"method": "rhf"
			},
			{
				"type": "unocc",
				"energy": 0.0063,
				"method": "rhf"
			},
			{
				"type": "unocc",
				"energy": 0.05174,
				"method": "rhf"
			},
			{
				"type": "unocc",
				"energy": 0.07677,
				"method": "rhf"
			}
		],
		"cosmo_sigma_profile": { 
			"-0.025": 0.0,
			"-0.024": 0.0,
			"-0.023": 0.0,
			"-0.022": 0.0,
			"-0.021": 0.0,
			"-0.02": 0.0,
			"-0.019": 0.303936994776,
			"-0.018": 1.306597389,
			"-0.017": 1.25312044845,
			"-0.016": 0.951534996878,
			"-0.015": 1.2025822086,
			"-0.014": 0.992189230065,
			"-0.013": 0.585109574305,
			"-0.012": 0.975698293321,
			"-0.011": 1.22665829644,
			"-0.01": 1.60363928679,
			"-0.009": 1.1736796287,
			"-0.008": 2.26969926348,
			"-0.007": 6.54946228748,
			"-0.006": 8.13814982656,
			"-0.005": 8.22606394597,
			"-0.004": 6.11715574767,
			"-0.003": 8.40566690144,
			"-0.002": 6.94511067632,
			"-0.001": 9.68068932248,
			"0.0": 12.4336901846,
			"0.001": 17.1136508513,
			"0.002": 13.3660796708,
			"0.003": 8.74517682027,
			"0.004": 3.3524720558,
			"0.005": 4.4450594062,
			"0.006": 5.33816407281,
			"0.007": 9.15393843543,
			"0.008": 8.90730890536,
			"0.009": 6.09538871183,
			"0.01": 4.52136760482,
			"0.011": 0.835603518014,
			"0.012": 0.0,
			"0.013": 0.0,
			"0.014": 0.0,
			"0.015": 0.0,
			"0.016": 0.0,
			"0.017": 0.0,
			"0.018": 0.0,
			"0.019": 0.0,
			"0.02": 0.0,
			"0.021": 0.0,
			"0.022": 0.0,
			"0.023": 0.0,
			"0.024": 0.0,
			"0.025": 0.0
		}
	}
}
