{
	 "smiles": "CN1C(C)=CC=C1C#N", 
	 "Tm": 327.65, 
	 "num_atms": 17, 
	 "gaussian": { 
		 "optdone": 1, 
		 "sigma_profile": "yes", 
		 "theory": "DFT", 
		 "functional": "B3LYP", 
		 "basiset": "6-31G**", 
		 "properties": { 
			 "R2extent": 1548.6817, 
			 "electric_dipole_moment_norm": 5.02048846229, 
			 "electric_quadrupole_moment_norm": 17.6940743154, 
			 "total_energy": -381.049580685, 
			 "HOMO_LUMO_gap": 0.19913, 
			 "cosmo_polarized_energy": -10.03, 
			 "cosmo_cavitation_energy": 21.48, 
			 "cosmo_dispersion_energy": -15.1, 
			 "cosmo_repulsion_energy": 1.24, 
			 "cosmo_total_nonelectrostatic_energy": 7.62, 
			 "SMD_solvation_energy": 5.23 
		},
		"coords": [
			{
				"x": -0.3076630818,
				"y": -0.8078914405,
				"z": -1.9341605286,
				"element": "C" 
			},
			{
				"x": 0.5849707834,
				"y": -0.4623107464,
				"z": -0.837388627,
				"element": "N" 
			},
			{
				"x": 0.7507208724,
				"y": 0.7733351141,
				"z": -0.2605101775,
				"element": "C" 
			},
			{
				"x": -0.0017412411,
				"y": 1.988217286,
				"z": -0.7029678209,
				"element": "C" 
			},
			{
				"x": 1.6995516926,
				"y": 0.6512828703,
				"z": 0.7470817466,
				"element": "C" 
			},
			{
				"x": 2.1256162599,
				"y": -0.6918549863,
				"z": 0.7881814623,
				"element": "C" 
			},
			{
				"x": 1.4247047461,
				"y": -1.37023494,
				"z": -0.2010273257,
				"element": "C" 
			},
			{
				"x": 1.4716623912,
				"y": -2.7302073622,
				"z": -0.5830043974,
				"element": "C" 
			},
			{
				"x": 1.5018784768,
				"y": -3.8503922399,
				"z": -0.9064094225,
				"element": "N" 
			},
			{
				"x": -0.8579713757,
				"y": 0.0793773621,
				"z": -2.2447123104,
				"element": "H" 
			},
			{
				"x": 0.2600456874,
				"y": -1.188056814,
				"z": -2.7883902182,
				"element": "H" 
			},
			{
				"x": -1.0221907048,
				"y": -1.5748869157,
				"z": -1.6218966143,
				"element": "H" 
			},
			{
				"x": 0.1952011104,
				"y": 2.2437833527,
				"z": -1.7512408458,
				"element": "H" 
			},
			{
				"x": 0.3040775535,
				"y": 2.8416895224,
				"z": -0.0940965594,
				"element": "H" 
			},
			{
				"x": -1.0865070876,
				"y": 1.8735004837,
				"z": -0.5883095876,
				"element": "H" 
			},
			{
				"x": 2.0394389291,
				"y": 1.4590413676,
				"z": 1.3798624517,
				"element": "H" 
			},
			{
				"x": 2.8545049882,
				"y": -1.1358919141,
				"z": 1.4503887748,
				"element": "H" 
			}
		],
		 "valence_orbital": [ 
			{
				"type": "occ",
				"energy": -0.35187,
				"method": "rhf"
			},
			{
				"type": "occ",
				"energy": -0.33649,
				"method": "rhf"
			},
			{
				"type": "occ",
				"energy": -0.3252,
				"method": "rhf"
			},
			{
				"type": "occ",
				"energy": -0.25307,
				"method": "rhf"
			},
			{
				"type": "occ",
				"energy": -0.21871,
				"method": "rhf"
			},
			{
				"type": "unocc",
				"energy": -0.01958,
				"method": "rhf"
			},
			{
				"type": "unocc",
				"energy": 0.02719,
				"method": "rhf"
			},
			{
				"type": "unocc",
				"energy": 0.05826,
				"method": "rhf"
			},
			{
				"type": "unocc",
				"energy": 0.08199,
				"method": "rhf"
			},
			{
				"type": "unocc",
				"energy": 0.1063,
				"method": "rhf"
			}
		],
		"cosmo_sigma_profile": { 
			"-0.025": 0.0,
			"-0.024": 0.0,
			"-0.023": 0.0,
			"-0.022": 0.0,
			"-0.021": 0.0,
			"-0.02": 0.0,
			"-0.019": 0.0,
			"-0.018": 0.0,
			"-0.017": 0.0,
			"-0.016": 0.0,
			"-0.015": 0.0,
			"-0.014": 0.0,
			"-0.013": 0.0,
			"-0.012": 0.0,
			"-0.011": 0.0,
			"-0.01": 0.0,
			"-0.009": 0.0,
			"-0.008": 0.148476821183,
			"-0.007": 3.87090204259,
			"-0.006": 13.4261703826,
			"-0.005": 19.3178278415,
			"-0.004": 16.3725526692,
			"-0.003": 18.9468792735,
			"-0.002": 12.2383927034,
			"-0.001": 13.327022831,
			"0.0": 8.96499195993,
			"0.001": 8.06275923483,
			"0.002": 8.5463557832,
			"0.003": 6.51332016754,
			"0.004": 7.96120521651,
			"0.005": 6.66166095642,
			"0.006": 5.68382393667,
			"0.007": 3.18240272982,
			"0.008": 2.84769840958,
			"0.009": 3.10674390408,
			"0.01": 3.37769732624,
			"0.011": 3.37777424686,
			"0.012": 2.65372599127,
			"0.013": 2.57972998043,
			"0.014": 0.714806063561,
			"0.015": 0.0,
			"0.016": 0.0,
			"0.017": 0.0,
			"0.018": 0.0,
			"0.019": 0.0,
			"0.02": 0.0,
			"0.021": 0.0,
			"0.022": 0.0,
			"0.023": 0.0,
			"0.024": 0.0,
			"0.025": 0.0
		}
	}
}
