{
	 "smiles": "FC(F)(F)C1=CN=C(C=C1)C(C#N)C(=O)N1CCCCC1", 
	 "Tm": 411.15, 
	 "num_atms": 35, 
	 "gaussian": { 
		 "optdone": 1, 
		 "sigma_profile": "yes", 
		 "theory": "DFT", 
		 "functional": "B3LYP", 
		 "basiset": "6-31G**", 
		 "properties": { 
			 "R2extent": 8206.2752, 
			 "electric_dipole_moment_norm": 3.60165543882, 
			 "electric_quadrupole_moment_norm": 18.5474169326, 
			 "total_energy": -1080.91858604, 
			 "HOMO_LUMO_gap": 0.18373, 
			 "cosmo_polarized_energy": -15.55, 
			 "cosmo_cavitation_energy": 39.89, 
			 "cosmo_dispersion_energy": -26.53, 
			 "cosmo_repulsion_energy": 1.99, 
			 "cosmo_total_nonelectrostatic_energy": 15.35, 
			 "SMD_solvation_energy": 7.32 
		},
		"coords": [
			{
				"x": -4.1548456317,
				"y": -1.8109619808,
				"z": 3.7232527925,
				"element": "F" 
			},
			{
				"x": -3.7793769738,
				"y": -2.6729511024,
				"z": 2.7531438796,
				"element": "C" 
			},
			{
				"x": -4.8886253084,
				"y": -3.3396828409,
				"z": 2.3652186737,
				"element": "F" 
			},
			{
				"x": -2.9437300923,
				"y": -3.577240348,
				"z": 3.3057523169,
				"element": "F" 
			},
			{
				"x": -3.1355779642,
				"y": -1.9549738577,
				"z": 1.5989003788,
				"element": "C" 
			},
			{
				"x": -2.1441457929,
				"y": -2.5758264314,
				"z": 0.8342346333,
				"element": "C" 
			},
			{
				"x": -1.5725451524,
				"y": -2.0010868906,
				"z": -0.225843192,
				"element": "N" 
			},
			{
				"x": -1.969291113,
				"y": -0.7691144772,
				"z": -0.5698926035,
				"element": "C" 
			},
			{
				"x": -2.9491399767,
				"y": -0.0625268358,
				"z": 0.1361232917,
				"element": "C" 
			},
			{
				"x": -3.5420472054,
				"y": -0.6701382466,
				"z": 1.2390220813,
				"element": "C" 
			},
			{
				"x": -1.3037419264,
				"y": -0.2216655786,
				"z": -1.8353048699,
				"element": "C" 
			},
			{
				"x": -1.5269858894,
				"y": 1.2130347075,
				"z": -2.0323259098,
				"element": "C" 
			},
			{
				"x": -1.7018603525,
				"y": 2.3516738436,
				"z": -2.1807166798,
				"element": "N" 
			},
			{
				"x": 0.2072552193,
				"y": -0.6058927273,
				"z": -1.99394276,
				"element": "C" 
			},
			{
				"x": 0.5304207396,
				"y": -1.2570854562,
				"z": -2.9779602412,
				"element": "O" 
			},
			{
				"x": 1.0933828688,
				"y": -0.1927000591,
				"z": -1.0480986418,
				"element": "N" 
			},
			{
				"x": 2.4920120915,
				"y": -0.6387464551,
				"z": -1.216118886,
				"element": "C" 
			},
			{
				"x": 3.2079169883,
				"y": -0.6759883659,
				"z": 0.1338255738,
				"element": "C" 
			},
			{
				"x": 3.2355803938,
				"y": 0.7091663464,
				"z": 0.8144066053,
				"element": "C" 
			},
			{
				"x": 1.9576641243,
				"y": 1.5191041885,
				"z": 0.4912984488,
				"element": "C" 
			},
			{
				"x": 0.775320478,
				"y": 0.6079290662,
				"z": 0.1428193377,
				"element": "C" 
			},
			{
				"x": -1.7936855627,
				"y": -3.5715493961,
				"z": 1.0931356584,
				"element": "H" 
			},
			{
				"x": -3.2372043731,
				"y": 0.9378101857,
				"z": -0.1677183872,
				"element": "H" 
			},
			{
				"x": -4.3012537595,
				"y": -0.152637458,
				"z": 1.8161138004,
				"element": "H" 
			},
			{
				"x": -1.7547016993,
				"y": -0.7382727083,
				"z": -2.6905961824,
				"element": "H" 
			},
			{
				"x": 3.011348529,
				"y": 0.0345597039,
				"z": -1.9123725289,
				"element": "H" 
			},
			{
				"x": 2.4691283677,
				"y": -1.6228620633,
				"z": -1.687406477,
				"element": "H" 
			},
			{
				"x": 4.2243482781,
				"y": -1.0550339299,
				"z": -0.0139850649,
				"element": "H" 
			},
			{
				"x": 2.6984526941,
				"y": -1.4025362142,
				"z": 0.7780841162,
				"element": "H" 
			},
			{
				"x": 3.3417694461,
				"y": 0.5790566613,
				"z": 1.8969726071,
				"element": "H" 
			},
			{
				"x": 4.1141527074,
				"y": 1.2737871672,
				"z": 0.4836242892,
				"element": "H" 
			},
			{
				"x": 1.6765000334,
				"y": 2.1594046049,
				"z": 1.3336842624,
				"element": "H" 
			},
			{
				"x": 2.1331092398,
				"y": 2.1839331928,
				"z": -0.3618230666,
				"element": "H" 
			},
			{
				"x": -0.1037213739,
				"y": 1.2220091148,
				"z": -0.0542008587,
				"element": "H" 
			},
			{
				"x": 0.5366179483,
				"y": -0.0477953595,
				"z": 0.9922936029,
				"element": "H" 
			}
		],
		 "valence_orbital": [ 
			{
				"type": "occ",
				"energy": -0.31798,
				"method": "rhf"
			},
			{
				"type": "occ",
				"energy": -0.29254,
				"method": "rhf"
			},
			{
				"type": "occ",
				"energy": -0.28752,
				"method": "rhf"
			},
			{
				"type": "occ",
				"energy": -0.25763,
				"method": "rhf"
			},
			{
				"type": "occ",
				"energy": -0.24541,
				"method": "rhf"
			},
			{
				"type": "unocc",
				"energy": -0.06168,
				"method": "rhf"
			},
			{
				"type": "unocc",
				"energy": -0.04978,
				"method": "rhf"
			},
			{
				"type": "unocc",
				"energy": -0.00256,
				"method": "rhf"
			},
			{
				"type": "unocc",
				"energy": 0.02214,
				"method": "rhf"
			},
			{
				"type": "unocc",
				"energy": 0.04241,
				"method": "rhf"
			}
		],
		"cosmo_sigma_profile": { 
			"-0.025": 0.0,
			"-0.024": 0.0,
			"-0.023": 0.0,
			"-0.022": 0.0,
			"-0.021": 0.0,
			"-0.02": 0.0,
			"-0.019": 0.0,
			"-0.018": 0.0,
			"-0.017": 0.0,
			"-0.016": 0.0,
			"-0.015": 0.0,
			"-0.014": 0.0,
			"-0.013": 0.0,
			"-0.012": 0.0,
			"-0.011": 0.197184542171,
			"-0.01": 2.01046006292,
			"-0.009": 3.20798793207,
			"-0.008": 5.9383962032,
			"-0.007": 6.9527296407,
			"-0.006": 7.86791146407,
			"-0.005": 10.5354541848,
			"-0.004": 25.4981734478,
			"-0.003": 40.2768039236,
			"-0.002": 42.3851397849,
			"-0.001": 32.421943225,
			"0.0": 25.7903401904,
			"0.001": 14.3489885529,
			"0.002": 27.1745329229,
			"0.003": 20.9602251143,
			"0.004": 4.92946297223,
			"0.005": 4.1594597529,
			"0.006": 3.92091854398,
			"0.007": 4.88328711641,
			"0.008": 5.3302479423,
			"0.009": 5.06067701215,
			"0.01": 5.59006043366,
			"0.011": 5.09548141772,
			"0.012": 5.69754049428,
			"0.013": 5.97944432198,
			"0.014": 0.6876597667,
			"0.015": 0.0,
			"0.016": 0.0,
			"0.017": 0.0,
			"0.018": 0.0,
			"0.019": 0.0,
			"0.02": 0.0,
			"0.021": 0.0,
			"0.022": 0.0,
			"0.023": 0.0,
			"0.024": 0.0,
			"0.025": 0.0
		}
	}
}
