{
	 "smiles": "CC1=CC=C(O)C(C=O)=C1", 
	 "Tm": 329.15, 
	 "num_atms": 18, 
	 "gaussian": { 
		 "optdone": 1, 
		 "sigma_profile": "yes", 
		 "theory": "DFT", 
		 "functional": "B3LYP", 
		 "basiset": "6-31G**", 
		 "properties": { 
			 "R2extent": 2244.3764, 
			 "electric_dipole_moment_norm": 3.39918990055, 
			 "electric_quadrupole_moment_norm": 8.05540291233, 
			 "total_energy": -460.128864949, 
			 "HOMO_LUMO_gap": 0.15806, 
			 "cosmo_polarized_energy": -7.11, 
			 "cosmo_cavitation_energy": 21.81, 
			 "cosmo_dispersion_energy": -16.35, 
			 "cosmo_repulsion_energy": 1.31, 
			 "cosmo_total_nonelectrostatic_energy": 6.76, 
			 "SMD_solvation_energy": 5.08 
		},
		"coords": [
			{
				"x": -0.2328067167,
				"y": 3.3599267675,
				"z": -1.609677465,
				"element": "C" 
			},
			{
				"x": -0.7214332218,
				"y": 2.2480656872,
				"z": -0.7117404456,
				"element": "C" 
			},
			{
				"x": -0.4103614304,
				"y": 2.2461151085,
				"z": 0.6668857864,
				"element": "C" 
			},
			{
				"x": -0.8383852694,
				"y": 1.2452099273,
				"z": 1.5254087126,
				"element": "C" 
			},
			{
				"x": -1.6117361163,
				"y": 0.1819790741,
				"z": 1.0311425635,
				"element": "C" 
			},
			{
				"x": -2.0180369159,
				"y": -0.7779351606,
				"z": 1.872690903,
				"element": "O" 
			},
			{
				"x": -1.9389929688,
				"y": 0.1585823491,
				"z": -0.3493426392,
				"element": "C" 
			},
			{
				"x": -2.7372430123,
				"y": -0.9303218976,
				"z": -0.8823626734,
				"element": "C" 
			},
			{
				"x": -3.1698119856,
				"y": -1.8712124142,
				"z": -0.2083594341,
				"element": "O" 
			},
			{
				"x": -1.4853889506,
				"y": 1.1948059162,
				"z": -1.192232876,
				"element": "C" 
			},
			{
				"x": -0.6086519031,
				"y": 4.3360155779,
				"z": -1.2813918486,
				"element": "H" 
			},
			{
				"x": 0.8617308807,
				"y": 3.4217662761,
				"z": -1.6133474118,
				"element": "H" 
			},
			{
				"x": -0.5596370358,
				"y": 3.2089540993,
				"z": -2.6421367267,
				"element": "H" 
			},
			{
				"x": 0.1873703965,
				"y": 3.060428492,
				"z": 1.0705472413,
				"element": "H" 
			},
			{
				"x": -0.5904650123,
				"y": 1.2593805592,
				"z": 2.5814270441,
				"element": "H" 
			},
			{
				"x": -2.5417557565,
				"y": -1.425091281,
				"z": 1.3372565911,
				"element": "H" 
			},
			{
				"x": -2.9577133798,
				"y": -0.8891141986,
				"z": -1.9672696119,
				"element": "H" 
			},
			{
				"x": -1.7502816019,
				"y": 1.1534451175,
				"z": -2.2472977097,
				"element": "H" 
			}
		],
		 "valence_orbital": [ 
			{
				"type": "occ",
				"energy": -0.35015,
				"method": "rhf"
			},
			{
				"type": "occ",
				"energy": -0.33329,
				"method": "rhf"
			},
			{
				"type": "occ",
				"energy": -0.26872,
				"method": "rhf"
			},
			{
				"type": "occ",
				"energy": -0.26822,
				"method": "rhf"
			},
			{
				"type": "occ",
				"energy": -0.22622,
				"method": "rhf"
			},
			{
				"type": "unocc",
				"energy": -0.06816,
				"method": "rhf"
			},
			{
				"type": "unocc",
				"energy": 0.00044,
				"method": "rhf"
			},
			{
				"type": "unocc",
				"energy": 0.03211,
				"method": "rhf"
			},
			{
				"type": "unocc",
				"energy": 0.09035,
				"method": "rhf"
			},
			{
				"type": "unocc",
				"energy": 0.11397,
				"method": "rhf"
			}
		],
		"cosmo_sigma_profile": { 
			"-0.025": 0.0,
			"-0.024": 0.0,
			"-0.023": 0.0,
			"-0.022": 0.0,
			"-0.021": 0.0,
			"-0.02": 0.0,
			"-0.019": 0.0,
			"-0.018": 0.0,
			"-0.017": 0.0,
			"-0.016": 0.0,
			"-0.015": 0.0,
			"-0.014": 0.0,
			"-0.013": 0.0,
			"-0.012": 0.0,
			"-0.011": 0.0,
			"-0.01": 0.0,
			"-0.009": 0.0,
			"-0.008": 1.74343144569,
			"-0.007": 6.45414783177,
			"-0.006": 9.15370651712,
			"-0.005": 9.74819627583,
			"-0.004": 14.6695364882,
			"-0.003": 16.2898134444,
			"-0.002": 16.7749509132,
			"-0.001": 13.5231271461,
			"0.0": 14.6727418361,
			"0.001": 12.6830081811,
			"0.002": 12.5926822566,
			"0.003": 12.9657536608,
			"0.004": 8.89155632155,
			"0.005": 2.87986808451,
			"0.006": 3.08262974448,
			"0.007": 2.71022406516,
			"0.008": 2.95793128612,
			"0.009": 2.84399962032,
			"0.01": 3.67409340068,
			"0.011": 3.58148824915,
			"0.012": 1.71626020341,
			"0.013": 0.349279947706,
			"0.014": 0.0,
			"0.015": 0.0,
			"0.016": 0.0,
			"0.017": 0.0,
			"0.018": 0.0,
			"0.019": 0.0,
			"0.02": 0.0,
			"0.021": 0.0,
			"0.022": 0.0,
			"0.023": 0.0,
			"0.024": 0.0,
			"0.025": 0.0
		}
	}
}
