{
	 "smiles": "NCC1CCCC(CN)C1", 
	 "Tm": 203.15, 
	 "num_atms": 28, 
	 "gaussian": { 
		 "optdone": 1, 
		 "sigma_profile": "yes", 
		 "theory": "DFT", 
		 "functional": "B3LYP", 
		 "basiset": "6-31G**", 
		 "properties": { 
			 "R2extent": 2034.0953, 
			 "electric_dipole_moment_norm": 1.77807955671, 
			 "electric_quadrupole_moment_norm": 12.5555359878, 
			 "total_energy": -425.202748914, 
			 "HOMO_LUMO_gap": 0.29939, 
			 "cosmo_polarized_energy": -9.23, 
			 "cosmo_cavitation_energy": 27.45, 
			 "cosmo_dispersion_energy": -19.99, 
			 "cosmo_repulsion_energy": 1.64, 
			 "cosmo_total_nonelectrostatic_energy": 9.11, 
			 "SMD_solvation_energy": 1.13 
		},
		"coords": [
			{
				"x": -2.6160257948,
				"y": 0.4257828271,
				"z": 2.1792227066,
				"element": "N" 
			},
			{
				"x": -1.6583468481,
				"y": 1.0793477357,
				"z": 1.2796748954,
				"element": "C" 
			},
			{
				"x": -1.1903080183,
				"y": 0.130532135,
				"z": 0.1665233316,
				"element": "C" 
			},
			{
				"x": -0.5206968132,
				"y": -1.1409605431,
				"z": 0.7427581963,
				"element": "C" 
			},
			{
				"x": 0.3765198484,
				"y": -1.8176184246,
				"z": -0.3010950276,
				"element": "C" 
			},
			{
				"x": 1.5633414117,
				"y": -0.9074295126,
				"z": -0.7009129517,
				"element": "C" 
			},
			{
				"x": 1.243827327,
				"y": 0.5997576838,
				"z": -0.541441923,
				"element": "C" 
			},
			{
				"x": 2.1543087924,
				"y": 1.4834166706,
				"z": -1.4162654714,
				"element": "C" 
			},
			{
				"x": 3.5994122245,
				"y": 1.3729392318,
				"z": -1.198403834,
				"element": "N" 
			},
			{
				"x": -0.2446427138,
				"y": 0.8557751439,
				"z": -0.8318371539,
				"element": "C" 
			},
			{
				"x": -2.1381321918,
				"y": -0.2645630229,
				"z": 2.7531349049,
				"element": "H" 
			},
			{
				"x": -3.0017404222,
				"y": 1.1085616045,
				"z": 2.8265518585,
				"element": "H" 
			},
			{
				"x": -2.1688239299,
				"y": 1.9343955215,
				"z": 0.8197136284,
				"element": "H" 
			},
			{
				"x": -0.7675518407,
				"y": 1.4883578756,
				"z": 1.7953111501,
				"element": "H" 
			},
			{
				"x": -2.0912558094,
				"y": -0.1857033269,
				"z": -0.3745704311,
				"element": "H" 
			},
			{
				"x": -1.2904202417,
				"y": -1.8354152943,
				"z": 1.0963511435,
				"element": "H" 
			},
			{
				"x": 0.0890796112,
				"y": -0.8774739239,
				"z": 1.6206150239,
				"element": "H" 
			},
			{
				"x": 0.7462989351,
				"y": -2.7797102398,
				"z": 0.070961037,
				"element": "H" 
			},
			{
				"x": -0.2312353137,
				"y": -2.0479296485,
				"z": -1.1856510118,
				"element": "H" 
			},
			{
				"x": 2.4438197679,
				"y": -1.1573882412,
				"z": -0.096865779,
				"element": "H" 
			},
			{
				"x": 1.8405911394,
				"y": -1.1113073253,
				"z": -1.7448649659,
				"element": "H" 
			},
			{
				"x": 1.4336151336,
				"y": 0.8819353192,
				"z": 0.5062889972,
				"element": "H" 
			},
			{
				"x": 1.8757561727,
				"y": 2.5355474346,
				"z": -1.2719471892,
				"element": "H" 
			},
			{
				"x": 1.9596207456,
				"y": 1.2583591045,
				"z": -2.4741927145,
				"element": "H" 
			},
			{
				"x": 3.9074410093,
				"y": 0.4202498213,
				"z": -1.3776037745,
				"element": "H" 
			},
			{
				"x": 3.8163333187,
				"y": 1.5616620293,
				"z": -0.2216438571,
				"element": "H" 
			},
			{
				"x": -0.4609908189,
				"y": 0.5214461579,
				"z": -1.8553447354,
				"element": "H" 
			},
			{
				"x": -0.4487946811,
				"y": 1.9347332067,
				"z": -0.821066053,
				"element": "H" 
			}
		],
		 "valence_orbital": [ 
			{
				"type": "occ",
				"energy": -0.30516,
				"method": "rhf"
			},
			{
				"type": "occ",
				"energy": -0.29574,
				"method": "rhf"
			},
			{
				"type": "occ",
				"energy": -0.29073,
				"method": "rhf"
			},
			{
				"type": "occ",
				"energy": -0.23042,
				"method": "rhf"
			},
			{
				"type": "occ",
				"energy": -0.22514,
				"method": "rhf"
			},
			{
				"type": "unocc",
				"energy": 0.07425,
				"method": "rhf"
			},
			{
				"type": "unocc",
				"energy": 0.08575,
				"method": "rhf"
			},
			{
				"type": "unocc",
				"energy": 0.09036,
				"method": "rhf"
			},
			{
				"type": "unocc",
				"energy": 0.1018,
				"method": "rhf"
			},
			{
				"type": "unocc",
				"energy": 0.1203,
				"method": "rhf"
			}
		],
		"cosmo_sigma_profile": { 
			"-0.025": 0.0,
			"-0.024": 0.0,
			"-0.023": 0.0,
			"-0.022": 0.0,
			"-0.021": 0.0,
			"-0.02": 0.0,
			"-0.019": 0.0,
			"-0.018": 0.0,
			"-0.017": 0.0,
			"-0.016": 0.0,
			"-0.015": 0.0,
			"-0.014": 0.0,
			"-0.013": 0.0,
			"-0.012": 0.0,
			"-0.011": 0.0,
			"-0.01": 0.217359848139,
			"-0.009": 2.54082014734,
			"-0.008": 4.78132181357,
			"-0.007": 5.34701949259,
			"-0.006": 5.37870012382,
			"-0.005": 6.40809239487,
			"-0.004": 6.27535523763,
			"-0.003": 8.97643764143,
			"-0.002": 32.0995790711,
			"-0.001": 44.0765475568,
			"0.0": 34.6615296599,
			"0.001": 21.9761851944,
			"0.002": 8.3752832972,
			"0.003": 2.11232463462,
			"0.004": 2.30409457081,
			"0.005": 1.60633031573,
			"0.006": 1.68674058056,
			"0.007": 1.73967295576,
			"0.008": 1.73537134936,
			"0.009": 2.34108680268,
			"0.01": 1.24747421499,
			"0.011": 1.10909717371,
			"0.012": 1.87283366291,
			"0.013": 1.01569717384,
			"0.014": 1.05209048825,
			"0.015": 1.24351547637,
			"0.016": 1.35950462508,
			"0.017": 1.38442894165,
			"0.018": 1.45129672984,
			"0.019": 1.04874217566,
			"0.02": 0.92737879912,
			"0.021": 0.153053635292,
			"0.022": 0.0,
			"0.023": 0.0,
			"0.024": 0.0,
			"0.025": 0.0
		}
	}
}
