{
	 "smiles": "COC1=CC=C(N)C(=C1)C(O)=O", 
	 "Tm": 424.15, 
	 "num_atms": 21, 
	 "gaussian": { 
		 "optdone": 1, 
		 "sigma_profile": "yes", 
		 "theory": "DFT", 
		 "functional": "B3LYP", 
		 "basiset": "6-31G**", 
		 "properties": { 
			 "R2extent": 2696.5425, 
			 "electric_dipole_moment_norm": 3.39135322401, 
			 "electric_quadrupole_moment_norm": 19.8624229532, 
			 "total_energy": -590.700718207, 
			 "HOMO_LUMO_gap": 0.14974, 
			 "cosmo_polarized_energy": -15.76, 
			 "cosmo_cavitation_energy": 24.76, 
			 "cosmo_dispersion_energy": -18.71, 
			 "cosmo_repulsion_energy": 1.48, 
			 "cosmo_total_nonelectrostatic_energy": 7.53, 
			 "SMD_solvation_energy": 5.93 
		},
		"coords": [
			{
				"x": 1.4538037898,
				"y": -0.3967665374,
				"z": 3.1533601203,
				"element": "C" 
			},
			{
				"x": 0.245915234,
				"y": -0.0277620622,
				"z": 2.5142456584,
				"element": "O" 
			},
			{
				"x": 0.2953072856,
				"y": 0.2784440307,
				"z": 1.179878301,
				"element": "C" 
			},
			{
				"x": -0.9324681478,
				"y": 0.6407012238,
				"z": 0.5913584694,
				"element": "C" 
			},
			{
				"x": -1.0114209479,
				"y": 0.9244318402,
				"z": -0.7547886442,
				"element": "C" 
			},
			{
				"x": 0.1289336183,
				"y": 0.8737352552,
				"z": -1.5969620584,
				"element": "C" 
			},
			{
				"x": -0.0048436696,
				"y": 1.0992610645,
				"z": -2.9362634366,
				"element": "N" 
			},
			{
				"x": 1.3798808315,
				"y": 0.5713740085,
				"z": -0.9930756696,
				"element": "C" 
			},
			{
				"x": 1.4313818786,
				"y": 0.2495712212,
				"z": 0.3870450343,
				"element": "C" 
			},
			{
				"x": 2.6135502698,
				"y": 0.6140366166,
				"z": -1.8091108495,
				"element": "C" 
			},
			{
				"x": 3.8038656738,
				"y": 0.6410865524,
				"z": -1.147352235,
				"element": "O" 
			},
			{
				"x": 2.6378352427,
				"y": 0.6416205801,
				"z": -3.0296107646,
				"element": "O" 
			},
			{
				"x": 1.2008074474,
				"y": -0.587405554,
				"z": 4.1974399848,
				"element": "H" 
			},
			{
				"x": 2.2011718012,
				"y": 0.4076661711,
				"z": 3.1065687807,
				"element": "H" 
			},
			{
				"x": 1.8837611624,
				"y": -1.3084528159,
				"z": 2.7161971902,
				"element": "H" 
			},
			{
				"x": -1.8165796852,
				"y": 0.6726113424,
				"z": 1.2201702156,
				"element": "H" 
			},
			{
				"x": -1.9722260561,
				"y": 1.1782911331,
				"z": -1.1949037203,
				"element": "H" 
			},
			{
				"x": 0.8346015739,
				"y": 1.0847566142,
				"z": -3.5014092689,
				"element": "H" 
			},
			{
				"x": -0.8495793914,
				"y": 1.5183121095,
				"z": -3.2862939817,
				"element": "H" 
			},
			{
				"x": 2.3710137362,
				"y": -0.0773827696,
				"z": 0.8186168697,
				"element": "H" 
			},
			{
				"x": 3.6549883528,
				"y": 0.8334699756,
				"z": -0.2120099956,
				"element": "H" 
			}
		],
		 "valence_orbital": [ 
			{
				"type": "occ",
				"energy": -0.31006,
				"method": "rhf"
			},
			{
				"type": "occ",
				"energy": -0.2861,
				"method": "rhf"
			},
			{
				"type": "occ",
				"energy": -0.27084,
				"method": "rhf"
			},
			{
				"type": "occ",
				"energy": -0.26247,
				"method": "rhf"
			},
			{
				"type": "occ",
				"energy": -0.19402,
				"method": "rhf"
			},
			{
				"type": "unocc",
				"energy": -0.04428,
				"method": "rhf"
			},
			{
				"type": "unocc",
				"energy": 0.01334,
				"method": "rhf"
			},
			{
				"type": "unocc",
				"energy": 0.05438,
				"method": "rhf"
			},
			{
				"type": "unocc",
				"energy": 0.06614,
				"method": "rhf"
			},
			{
				"type": "unocc",
				"energy": 0.08929,
				"method": "rhf"
			}
		],
		"cosmo_sigma_profile": { 
			"-0.025": 0.0,
			"-0.024": 0.0,
			"-0.023": 0.0,
			"-0.022": 0.0,
			"-0.021": 0.0,
			"-0.02": 0.0,
			"-0.019": 0.0,
			"-0.018": 0.460510188023,
			"-0.017": 0.784519279145,
			"-0.016": 0.796137164442,
			"-0.015": 1.35253766689,
			"-0.014": 0.695776473049,
			"-0.013": 2.1733463227,
			"-0.012": 1.60083657512,
			"-0.011": 3.32522744362,
			"-0.01": 2.99817933738,
			"-0.009": 1.80058332375,
			"-0.008": 4.07315674466,
			"-0.007": 5.7212741132,
			"-0.006": 9.55437452199,
			"-0.005": 13.719714583,
			"-0.004": 12.7598763175,
			"-0.003": 13.5452374388,
			"-0.002": 10.7656828972,
			"-0.001": 7.34926415484,
			"0.0": 8.55344217286,
			"0.001": 9.28912699486,
			"0.002": 10.6590259433,
			"0.003": 14.1346064462,
			"0.004": 18.2791318877,
			"0.005": 7.65524214441,
			"0.006": 4.81980293171,
			"0.007": 3.09408657623,
			"0.008": 5.33987530678,
			"0.009": 5.51486970084,
			"0.01": 4.92541489818,
			"0.011": 5.06141756953,
			"0.012": 3.07654016968,
			"0.013": 2.22863670195,
			"0.014": 0.814826458339,
			"0.015": 0.0,
			"0.016": 0.0,
			"0.017": 0.0,
			"0.018": 0.0,
			"0.019": 0.0,
			"0.02": 0.0,
			"0.021": 0.0,
			"0.022": 0.0,
			"0.023": 0.0,
			"0.024": 0.0,
			"0.025": 0.0
		}
	}
}
