{
	 "smiles": "CCC1NC(CS1)C(O)=O", 
	 "Tm": 433.15, 
	 "num_atms": 21, 
	 "gaussian": { 
		 "optdone": 1, 
		 "sigma_profile": "yes", 
		 "theory": "DFT", 
		 "functional": "B3LYP", 
		 "basiset": "6-31G**", 
		 "properties": { 
			 "R2extent": 2347.3563, 
			 "electric_dipole_moment_norm": 2.55672187967, 
			 "electric_quadrupole_moment_norm": 17.7339521269, 
			 "total_energy": -838.654129262, 
			 "HOMO_LUMO_gap": 0.22358, 
			 "cosmo_polarized_energy": -16.68, 
			 "cosmo_cavitation_energy": 24.98, 
			 "cosmo_dispersion_energy": -18.81, 
			 "cosmo_repulsion_energy": 1.5, 
			 "cosmo_total_nonelectrostatic_energy": 7.67, 
			 "SMD_solvation_energy": 3.09 
		},
		"coords": [
			{
				"x": 2.6883263467,
				"y": 1.6171712975,
				"z": 0.1754581656,
				"element": "C" 
			},
			{
				"x": 2.5544736429,
				"y": 0.2357182192,
				"z": 0.8291829944,
				"element": "C" 
			},
			{
				"x": 1.1005998908,
				"y": -0.2148156172,
				"z": 0.9669979612,
				"element": "C" 
			},
			{
				"x": 0.4620655782,
				"y": -0.4402194737,
				"z": -0.3193522197,
				"element": "N" 
			},
			{
				"x": -0.731168949,
				"y": -1.2431284251,
				"z": -0.1486022978,
				"element": "C" 
			},
			{
				"x": -0.2355394329,
				"y": -2.5108443145,
				"z": 0.5706269656,
				"element": "C" 
			},
			{
				"x": 0.960876203,
				"y": -1.8772175741,
				"z": 1.8196667955,
				"element": "S" 
			},
			{
				"x": -1.4101335716,
				"y": -1.4641941402,
				"z": -1.5022298573,
				"element": "C" 
			},
			{
				"x": -2.3023164352,
				"y": -2.4843040437,
				"z": -1.5616642189,
				"element": "O" 
			},
			{
				"x": -1.2291278021,
				"y": -0.7508006455,
				"z": -2.4557324147,
				"element": "O" 
			},
			{
				"x": 2.3214163857,
				"y": 1.6101290165,
				"z": -0.8563403651,
				"element": "H" 
			},
			{
				"x": 2.1314549289,
				"y": 2.3809606732,
				"z": 0.7307069732,
				"element": "H" 
			},
			{
				"x": 3.7364947605,
				"y": 1.9295089966,
				"z": 0.1446588392,
				"element": "H" 
			},
			{
				"x": 3.0073806714,
				"y": 0.2582777413,
				"z": 1.8277359717,
				"element": "H" 
			},
			{
				"x": 3.092062422,
				"y": -0.5181995758,
				"z": 0.2454194278,
				"element": "H" 
			},
			{
				"x": 0.5497527354,
				"y": 0.500562328,
				"z": 1.6014338912,
				"element": "H" 
			},
			{
				"x": 0.2704018688,
				"y": 0.413309649,
				"z": -0.8347770321,
				"element": "H" 
			},
			{
				"x": -1.4950247852,
				"y": -0.7659599903,
				"z": 0.5017092215,
				"element": "H" 
			},
			{
				"x": -1.0351463849,
				"y": -3.0467711966,
				"z": 1.0912819645,
				"element": "H" 
			},
			{
				"x": 0.2705231159,
				"y": -3.1842490698,
				"z": -0.1252527056,
				"element": "H" 
			},
			{
				"x": -2.3289711894,
				"y": -2.9639338547,
				"z": -0.7213280602,
				"element": "H" 
			}
		],
		 "valence_orbital": [ 
			{
				"type": "occ",
				"energy": -0.32795,
				"method": "rhf"
			},
			{
				"type": "occ",
				"energy": -0.32352,
				"method": "rhf"
			},
			{
				"type": "occ",
				"energy": -0.27973,
				"method": "rhf"
			},
			{
				"type": "occ",
				"energy": -0.24637,
				"method": "rhf"
			},
			{
				"type": "occ",
				"energy": -0.23005,
				"method": "rhf"
			},
			{
				"type": "unocc",
				"energy": -0.00647,
				"method": "rhf"
			},
			{
				"type": "unocc",
				"energy": 0.01309,
				"method": "rhf"
			},
			{
				"type": "unocc",
				"energy": 0.03249,
				"method": "rhf"
			},
			{
				"type": "unocc",
				"energy": 0.08009,
				"method": "rhf"
			},
			{
				"type": "unocc",
				"energy": 0.08239,
				"method": "rhf"
			}
		],
		"cosmo_sigma_profile": { 
			"-0.025": 0.0,
			"-0.024": 0.0,
			"-0.023": 0.0,
			"-0.022": 0.0,
			"-0.021": 0.0,
			"-0.02": 0.0,
			"-0.019": 0.352943386891,
			"-0.018": 1.3863592272,
			"-0.017": 1.16481943039,
			"-0.016": 1.0515576392,
			"-0.015": 0.887048960663,
			"-0.014": 0.793910957308,
			"-0.013": 1.13014221488,
			"-0.012": 1.52567004164,
			"-0.011": 1.28508532345,
			"-0.01": 1.97890204267,
			"-0.009": 2.18867689588,
			"-0.008": 3.86268296492,
			"-0.007": 7.17777900559,
			"-0.006": 9.74492225417,
			"-0.005": 7.70372298439,
			"-0.004": 12.9640207009,
			"-0.003": 19.3612402666,
			"-0.002": 13.9514389965,
			"-0.001": 13.6085673769,
			"0.0": 15.0645777815,
			"0.001": 11.7428838385,
			"0.002": 5.19917840067,
			"0.003": 4.54652946589,
			"0.004": 6.14284274142,
			"0.005": 7.46804107649,
			"0.006": 5.52597060903,
			"0.007": 6.13971282688,
			"0.008": 5.99102141612,
			"0.009": 6.93202771478,
			"0.01": 8.47708978896,
			"0.011": 6.59084643481,
			"0.012": 3.30278490049,
			"0.013": 0.950869335152,
			"0.014": 0.699793285181,
			"0.015": 0.0,
			"0.016": 0.0,
			"0.017": 0.0,
			"0.018": 0.0,
			"0.019": 0.0,
			"0.02": 0.0,
			"0.021": 0.0,
			"0.022": 0.0,
			"0.023": 0.0,
			"0.024": 0.0,
			"0.025": 0.0
		}
	}
}
