{
	 "smiles": "CCCCCCCCOC(=O)CCCCCCCCC(=O)OCCCCCCCC", 
	 "Tm": 206.15, 
	 "num_atms": 80, 
	 "gaussian": { 
		 "optdone": 1, 
		 "sigma_profile": "yes", 
		 "theory": "DFT", 
		 "functional": "B3LYP", 
		 "basiset": "6-31G**", 
		 "properties": { 
			 "R2extent": 20171.2711, 
			 "electric_dipole_moment_norm": 2.08205839255, 
			 "electric_quadrupole_moment_norm": 9.46565637238, 
			 "total_energy": -1321.89186371, 
			 "HOMO_LUMO_gap": 0.27435, 
			 "cosmo_polarized_energy": -11.49, 
			 "cosmo_cavitation_energy": 77.76, 
			 "cosmo_dispersion_energy": -44.33, 
			 "cosmo_repulsion_energy": 3.45, 
			 "cosmo_total_nonelectrostatic_energy": 36.88, 
			 "SMD_solvation_energy": 11.41 
		},
		"coords": [
			{
				"x": 0.3404454918,
				"y": -0.4319948844,
				"z": 1.9483240877,
				"element": "C" 
			},
			{
				"x": -0.5718987302,
				"y": 0.713914013,
				"z": 1.4933092311,
				"element": "C" 
			},
			{
				"x": -2.0733771689,
				"y": 0.3812431107,
				"z": 1.527231451,
				"element": "C" 
			},
			{
				"x": -2.5153681511,
				"y": -0.6791875227,
				"z": 0.5066042337,
				"element": "C" 
			},
			{
				"x": -4.0327051357,
				"y": -0.9378279995,
				"z": 0.4804981969,
				"element": "C" 
			},
			{
				"x": -4.6245512985,
				"y": -1.5590777158,
				"z": 1.7610878567,
				"element": "C" 
			},
			{
				"x": -4.1024494024,
				"y": -2.9535646491,
				"z": 2.1533880224,
				"element": "C" 
			},
			{
				"x": -4.5589788446,
				"y": -4.1131695904,
				"z": 1.2700868506,
				"element": "C" 
			},
			{
				"x": -4.0368244799,
				"y": -4.0516739464,
				"z": -0.0798779522,
				"element": "O" 
			},
			{
				"x": -2.8212073834,
				"y": -4.6091583381,
				"z": -0.2935423857,
				"element": "C" 
			},
			{
				"x": -2.1530073314,
				"y": -5.1235092221,
				"z": 0.5796641508,
				"element": "O" 
			},
			{
				"x": -2.4494394377,
				"y": -4.5247647145,
				"z": -1.7622649392,
				"element": "C" 
			},
			{
				"x": -1.0287217164,
				"y": -5.0067103013,
				"z": -2.0706012115,
				"element": "C" 
			},
			{
				"x": 0.0692249414,
				"y": -4.0420715077,
				"z": -1.6021578554,
				"element": "C" 
			},
			{
				"x": 1.4793796252,
				"y": -4.5415001916,
				"z": -1.9572552773,
				"element": "C" 
			},
			{
				"x": 2.6370256562,
				"y": -3.598044633,
				"z": -1.5594708134,
				"element": "C" 
			},
			{
				"x": 3.1015619161,
				"y": -2.6173669231,
				"z": -2.6546778778,
				"element": "C" 
			},
			{
				"x": 2.0607274458,
				"y": -1.6074856681,
				"z": -3.1635534037,
				"element": "C" 
			},
			{
				"x": 1.637701481,
				"y": -0.5685546308,
				"z": -2.1100159087,
				"element": "C" 
			},
			{
				"x": 0.3892101663,
				"y": 0.1841143922,
				"z": -2.5202780966,
				"element": "C" 
			},
			{
				"x": -0.632326454,
				"y": -0.3421688273,
				"z": -2.9179742962,
				"element": "O" 
			},
			{
				"x": 0.5313186419,
				"y": 1.5200756781,
				"z": -2.3792290273,
				"element": "O" 
			},
			{
				"x": -0.6177010319,
				"y": 2.3274695008,
				"z": -2.7371520841,
				"element": "C" 
			},
			{
				"x": -0.2075174072,
				"y": 3.7923603871,
				"z": -2.808143888,
				"element": "C" 
			},
			{
				"x": 0.1205057835,
				"y": 4.4783308274,
				"z": -1.4699140508,
				"element": "C" 
			},
			{
				"x": 1.4705762959,
				"y": 4.1027607833,
				"z": -0.8418254887,
				"element": "C" 
			},
			{
				"x": 1.7663238572,
				"y": 4.880569346,
				"z": 0.447339234,
				"element": "C" 
			},
			{
				"x": 3.1206123985,
				"y": 4.5185452662,
				"z": 1.0729825515,
				"element": "C" 
			},
			{
				"x": 3.4250090476,
				"y": 5.2254248357,
				"z": 2.4042510507,
				"element": "C" 
			},
			{
				"x": 3.5967935801,
				"y": 6.7452050336,
				"z": 2.2927963998,
				"element": "C" 
			},
			{
				"x": 1.3919992463,
				"y": -0.1256894364,
				"z": 1.9441791692,
				"element": "H" 
			},
			{
				"x": 0.0930880958,
				"y": -0.7508895878,
				"z": 2.9677133238,
				"element": "H" 
			},
			{
				"x": 0.2499734498,
				"y": -1.3104767725,
				"z": 1.3007203652,
				"element": "H" 
			},
			{
				"x": -0.2915240067,
				"y": 1.0235596263,
				"z": 0.4769004962,
				"element": "H" 
			},
			{
				"x": -0.3897677086,
				"y": 1.5857978759,
				"z": 2.1351038509,
				"element": "H" 
			},
			{
				"x": -2.3381744185,
				"y": 0.0602813689,
				"z": 2.5441342034,
				"element": "H" 
			},
			{
				"x": -2.6445577116,
				"y": 1.3024009068,
				"z": 1.3438276141,
				"element": "H" 
			},
			{
				"x": -1.9853047354,
				"y": -1.6210484795,
				"z": 0.6948465056,
				"element": "H" 
			},
			{
				"x": -2.2011531277,
				"y": -0.3606784553,
				"z": -0.4963434929,
				"element": "H" 
			},
			{
				"x": -4.2669627046,
				"y": -1.5834383331,
				"z": -0.3717823435,
				"element": "H" 
			},
			{
				"x": -4.5476416853,
				"y": 0.0154823532,
				"z": 0.2958537862,
				"element": "H" 
			},
			{
				"x": -4.4487956124,
				"y": -0.8812197476,
				"z": 2.6058233574,
				"element": "H" 
			},
			{
				"x": -5.7166514172,
				"y": -1.6136133338,
				"z": 1.6500830004,
				"element": "H" 
			},
			{
				"x": -4.4611912661,
				"y": -3.1859084219,
				"z": 3.1655274252,
				"element": "H" 
			},
			{
				"x": -3.0090796316,
				"y": -2.9671941254,
				"z": 2.2141868665,
				"element": "H" 
			},
			{
				"x": -5.6453383595,
				"y": -4.1008229594,
				"z": 1.1398164551,
				"element": "H" 
			},
			{
				"x": -4.2575001665,
				"y": -5.0657961306,
				"z": 1.7128671407,
				"element": "H" 
			},
			{
				"x": -2.6009716879,
				"y": -3.4910165194,
				"z": -2.0958207119,
				"element": "H" 
			},
			{
				"x": -3.1918805458,
				"y": -5.1216509916,
				"z": -2.307810348,
				"element": "H" 
			},
			{
				"x": -0.8768522368,
				"y": -5.9895164205,
				"z": -1.6091129581,
				"element": "H" 
			},
			{
				"x": -0.9435872626,
				"y": -5.1487210955,
				"z": -3.1555993498,
				"element": "H" 
			},
			{
				"x": -0.0022052609,
				"y": -3.9225999459,
				"z": -0.5138734497,
				"element": "H" 
			},
			{
				"x": -0.1179751027,
				"y": -3.0543434786,
				"z": -2.0410794464,
				"element": "H" 
			},
			{
				"x": 1.5356236896,
				"y": -4.7480131564,
				"z": -3.0362429136,
				"element": "H" 
			},
			{
				"x": 1.6251232635,
				"y": -5.5107709525,
				"z": -1.4631549852,
				"element": "H" 
			},
			{
				"x": 3.5096736382,
				"y": -4.2028950071,
				"z": -1.283840738,
				"element": "H" 
			},
			{
				"x": 2.364769817,
				"y": -3.0523999433,
				"z": -0.6456875763,
				"element": "H" 
			},
			{
				"x": 3.9817835467,
				"y": -2.0712222611,
				"z": -2.2876122326,
				"element": "H" 
			},
			{
				"x": 3.4508993896,
				"y": -3.2055003238,
				"z": -3.5138154194,
				"element": "H" 
			},
			{
				"x": 2.4741809203,
				"y": -1.0775916227,
				"z": -4.0310515478,
				"element": "H" 
			},
			{
				"x": 1.169168631,
				"y": -2.1290760605,
				"z": -3.5235232867,
				"element": "H" 
			},
			{
				"x": 2.4460395124,
				"y": 0.1364473847,
				"z": -1.8984161911,
				"element": "H" 
			},
			{
				"x": 1.3903961807,
				"y": -1.0718149766,
				"z": -1.1672612983,
				"element": "H" 
			},
			{
				"x": -1.0000322136,
				"y": 1.9734007209,
				"z": -3.6986667942,
				"element": "H" 
			},
			{
				"x": -1.4031049893,
				"y": 2.1654792708,
				"z": -1.9896300452,
				"element": "H" 
			},
			{
				"x": 0.6374902413,
				"y": 3.8908758183,
				"z": -3.5018146993,
				"element": "H" 
			},
			{
				"x": -1.0500693347,
				"y": 4.3194082047,
				"z": -3.2749227362,
				"element": "H" 
			},
			{
				"x": 0.1028997513,
				"y": 5.5645000577,
				"z": -1.6327488178,
				"element": "H" 
			},
			{
				"x": -0.6878981368,
				"y": 4.2707490015,
				"z": -0.7538994091,
				"element": "H" 
			},
			{
				"x": 2.2700167826,
				"y": 4.2930109438,
				"z": -1.5724552588,
				"element": "H" 
			},
			{
				"x": 1.4996881756,
				"y": 3.0271220606,
				"z": -0.6372397089,
				"element": "H" 
			},
			{
				"x": 0.9686856218,
				"y": 4.6866200861,
				"z": 1.1796158182,
				"element": "H" 
			},
			{
				"x": 1.7273560872,
				"y": 5.9573732514,
				"z": 0.2346553692,
				"element": "H" 
			},
			{
				"x": 3.9227225894,
				"y": 4.7415433852,
				"z": 0.3543584093,
				"element": "H" 
			},
			{
				"x": 3.1534315596,
				"y": 3.4324127372,
				"z": 1.2345920155,
				"element": "H" 
			},
			{
				"x": 2.6251662996,
				"y": 4.9999388927,
				"z": 3.123157537,
				"element": "H" 
			},
			{
				"x": 4.3415196021,
				"y": 4.7949404169,
				"z": 2.8278458468,
				"element": "H" 
			},
			{
				"x": 4.3925015776,
				"y": 7.000699439,
				"z": 1.5830035324,
				"element": "H" 
			},
			{
				"x": 3.8627767547,
				"y": 7.1837325185,
				"z": 3.2603366814,
				"element": "H" 
			},
			{
				"x": 2.6799025441,
				"y": 7.2369503098,
				"z": 1.9520282288,
				"element": "H" 
			}
		],
		 "valence_orbital": [ 
			{
				"type": "occ",
				"energy": -0.30118,
				"method": "rhf"
			},
			{
				"type": "occ",
				"energy": -0.29483,
				"method": "rhf"
			},
			{
				"type": "occ",
				"energy": -0.282,
				"method": "rhf"
			},
			{
				"type": "occ",
				"energy": -0.26891,
				"method": "rhf"
			},
			{
				"type": "occ",
				"energy": -0.26323,
				"method": "rhf"
			},
			{
				"type": "unocc",
				"energy": 0.01112,
				"method": "rhf"
			},
			{
				"type": "unocc",
				"energy": 0.0196,
				"method": "rhf"
			},
			{
				"type": "unocc",
				"energy": 0.05495,
				"method": "rhf"
			},
			{
				"type": "unocc",
				"energy": 0.07714,
				"method": "rhf"
			},
			{
				"type": "unocc",
				"energy": 0.08413,
				"method": "rhf"
			}
		],
		"cosmo_sigma_profile": { 
			"-0.025": 0.0,
			"-0.024": 0.0,
			"-0.023": 0.0,
			"-0.022": 0.0,
			"-0.021": 0.0,
			"-0.02": 0.0,
			"-0.019": 0.0,
			"-0.018": 0.0,
			"-0.017": 0.0,
			"-0.016": 0.0,
			"-0.015": 0.0,
			"-0.014": 0.0,
			"-0.013": 0.0,
			"-0.012": 0.0,
			"-0.011": 0.0,
			"-0.01": 0.0,
			"-0.009": 0.0,
			"-0.008": 0.0,
			"-0.007": 0.0,
			"-0.006": 1.44402625582,
			"-0.005": 7.06443384846,
			"-0.004": 22.4678530038,
			"-0.003": 42.8399132335,
			"-0.002": 100.229236334,
			"-0.001": 120.988592943,
			"0.0": 114.724929869,
			"0.001": 90.8886922938,
			"0.002": 36.7713360006,
			"0.003": 8.9954170972,
			"0.004": 7.8875382902,
			"0.005": 7.78763376356,
			"0.006": 6.12784617823,
			"0.007": 5.39358332414,
			"0.008": 4.50449802588,
			"0.009": 3.81920854915,
			"0.01": 3.25050720086,
			"0.011": 3.82010996335,
			"0.012": 6.36767891196,
			"0.013": 1.96084547461,
			"0.014": 0.0,
			"0.015": 0.0,
			"0.016": 0.0,
			"0.017": 0.0,
			"0.018": 0.0,
			"0.019": 0.0,
			"0.02": 0.0,
			"0.021": 0.0,
			"0.022": 0.0,
			"0.023": 0.0,
			"0.024": 0.0,
			"0.025": 0.0
		}
	}
}
