{
	 "smiles": "OC(=O)CC1=C(Br)C=CC(Cl)=C1", 
	 "Tm": 375.15, 
	 "num_atms": 18, 
	 "gaussian": { 
		 "optdone": 1, 
		 "sigma_profile": "yes", 
		 "theory": "DFT", 
		 "functional": "B3LYP", 
		 "basiset": "6-31G**", 
		 "properties": { 
			 "R2extent": 3603.5685, 
			 "electric_dipole_moment_norm": 1.23850623737, 
			 "electric_quadrupole_moment_norm": 10.7898773672, 
			 "total_energy": -3490.52706561, 
			 "HOMO_LUMO_gap": 0.21513, 
			 "cosmo_polarized_energy": -11.15, 
			 "cosmo_cavitation_energy": 26.97, 
			 "cosmo_dispersion_energy": -19.72, 
			 "cosmo_repulsion_energy": 1.59, 
			 "cosmo_total_nonelectrostatic_energy": 8.84, 
			 "SMD_solvation_energy": 4.43 
		},
		"coords": [
			{
				"x": 1.6666588654,
				"y": 2.2551203343,
				"z": -0.1628423045,
				"element": "O" 
			},
			{
				"x": 1.6311892944,
				"y": 2.1462365964,
				"z": 1.1835585447,
				"element": "C" 
			},
			{
				"x": 2.5169225448,
				"y": 2.5453530483,
				"z": 1.9031307512,
				"element": "O" 
			},
			{
				"x": 0.3314446947,
				"y": 1.5293431578,
				"z": 1.6902556875,
				"element": "C" 
			},
			{
				"x": -0.3920316954,
				"y": 0.6111039293,
				"z": 0.7352397256,
				"element": "C" 
			},
			{
				"x": 0.0664226437,
				"y": -0.6800300549,
				"z": 0.4353366262,
				"element": "C" 
			},
			{
				"x": 1.6797794453,
				"y": -1.3357373197,
				"z": 1.2256823174,
				"element": "Br" 
			},
			{
				"x": -0.6232055308,
				"y": -1.5181789888,
				"z": -0.4382840792,
				"element": "C" 
			},
			{
				"x": -1.8010780434,
				"y": -1.0806989904,
				"z": -1.0411271428,
				"element": "C" 
			},
			{
				"x": -2.2672718697,
				"y": 0.2000274862,
				"z": -0.7530948037,
				"element": "C" 
			},
			{
				"x": -3.7498385074,
				"y": 0.771720888,
				"z": -1.4990644353,
				"element": "Cl" 
			},
			{
				"x": -1.5770474743,
				"y": 1.0358197029,
				"z": 0.1213953426,
				"element": "C" 
			},
			{
				"x": 2.5164029864,
				"y": 2.6765543009,
				"z": -0.3764146532,
				"element": "H" 
			},
			{
				"x": 0.5817373476,
				"y": 1.0201309513,
				"z": 2.6240090082,
				"element": "H" 
			},
			{
				"x": -0.321077859,
				"y": 2.3702033236,
				"z": 1.9529183881,
				"element": "H" 
			},
			{
				"x": -0.2415071233,
				"y": -2.5108676911,
				"z": -0.6471361628,
				"element": "H" 
			},
			{
				"x": -2.3457557959,
				"y": -1.7255212599,
				"z": -1.7212875637,
				"element": "H" 
			},
			{
				"x": -1.9620439232,
				"y": 2.0285205858,
				"z": 0.3290247538,
				"element": "H" 
			}
		],
		 "valence_orbital": [ 
			{
				"type": "occ",
				"energy": -0.30925,
				"method": "rhf"
			},
			{
				"type": "occ",
				"energy": -0.29878,
				"method": "rhf"
			},
			{
				"type": "occ",
				"energy": -0.28986,
				"method": "rhf"
			},
			{
				"type": "occ",
				"energy": -0.26798,
				"method": "rhf"
			},
			{
				"type": "occ",
				"energy": -0.24636,
				"method": "rhf"
			},
			{
				"type": "unocc",
				"energy": -0.03123,
				"method": "rhf"
			},
			{
				"type": "unocc",
				"energy": -0.02994,
				"method": "rhf"
			},
			{
				"type": "unocc",
				"energy": -0.00802,
				"method": "rhf"
			},
			{
				"type": "unocc",
				"energy": 0.00853,
				"method": "rhf"
			},
			{
				"type": "unocc",
				"energy": 0.02468,
				"method": "rhf"
			}
		],
		"cosmo_sigma_profile": { 
			"-0.025": 0.0,
			"-0.024": 0.0,
			"-0.023": 0.0,
			"-0.022": 0.0,
			"-0.021": 0.0,
			"-0.02": 0.0,
			"-0.019": 0.116312944596,
			"-0.018": 1.13395306971,
			"-0.017": 0.596514886758,
			"-0.016": 1.04921819608,
			"-0.015": 1.03940175984,
			"-0.014": 0.211265671792,
			"-0.013": 0.351312300399,
			"-0.012": 1.09160663382,
			"-0.011": 0.720445731468,
			"-0.01": 0.735602561657,
			"-0.009": 3.25379866062,
			"-0.008": 7.27729258027,
			"-0.007": 8.82786746161,
			"-0.006": 8.88032601124,
			"-0.005": 8.22462473404,
			"-0.004": 10.7388989417,
			"-0.003": 10.1463998214,
			"-0.002": 11.3164613664,
			"-0.001": 13.1620508768,
			"0.0": 14.9210086743,
			"0.001": 22.7693597629,
			"0.002": 26.4982902757,
			"0.003": 19.5189327632,
			"0.004": 19.6277392047,
			"0.005": 6.64457021806,
			"0.006": 2.58909838062,
			"0.007": 3.08443978393,
			"0.008": 3.20561706171,
			"0.009": 2.22366164623,
			"0.01": 2.17461438608,
			"0.011": 4.41814404594,
			"0.012": 4.00986514643,
			"0.013": 0.388749913991,
			"0.014": 0.0,
			"0.015": 0.0,
			"0.016": 0.0,
			"0.017": 0.0,
			"0.018": 0.0,
			"0.019": 0.0,
			"0.02": 0.0,
			"0.021": 0.0,
			"0.022": 0.0,
			"0.023": 0.0,
			"0.024": 0.0,
			"0.025": 0.0
		}
	}
}
