{
	 "smiles": "COC12C3NC3CN1C1=C(C2COC(N)=O)C(=O)C(NC2=CN=CC=C2N)=C(C)C1=O", 
	 "Tm": 432.15, 
	 "num_atms": 53, 
	 "gaussian": { 
		 "optdone": 1, 
		 "sigma_profile": "yes", 
		 "theory": "DFT", 
		 "functional": "B3LYP", 
		 "basiset": "6-31G**", 
		 "properties": { 
			 "R2extent": 14256.1122, 
			 "electric_dipole_moment_norm": 4.01236736354, 
			 "electric_quadrupole_moment_norm": 42.9616191708, 
			 "total_energy": -1479.86507699, 
			 "HOMO_LUMO_gap": 0.10177, 
			 "cosmo_polarized_energy": -31.43, 
			 "cosmo_cavitation_energy": 54.49, 
			 "cosmo_dispersion_energy": -36.64, 
			 "cosmo_repulsion_energy": 2.72, 
			 "cosmo_total_nonelectrostatic_energy": 20.57, 
			 "SMD_solvation_energy": 4.29 
		},
		"coords": [
			{
				"x": 1.4587037773,
				"y": 0.4755302709,
				"z": -3.6251082828,
				"element": "C" 
			},
			{
				"x": 1.2738814393,
				"y": 1.8339677628,
				"z": -3.2196065852,
				"element": "O" 
			},
			{
				"x": 1.0603805291,
				"y": 2.0815137067,
				"z": -1.8545538299,
				"element": "C" 
			},
			{
				"x": 1.72306084,
				"y": 3.3851964736,
				"z": -1.3932209824,
				"element": "C" 
			},
			{
				"x": 2.8132850746,
				"y": 4.344103279,
				"z": -1.6368164164,
				"element": "N" 
			},
			{
				"x": 3.1683479231,
				"y": 2.9279829976,
				"z": -1.518185407,
				"element": "C" 
			},
			{
				"x": 3.1963174494,
				"y": 1.8256578453,
				"z": -0.4783227509,
				"element": "C" 
			},
			{
				"x": 1.8913551737,
				"y": 1.1583378744,
				"z": -0.9350999106,
				"element": "N" 
			},
			{
				"x": 1.0463431642,
				"y": 0.4356766277,
				"z": -0.1523663469,
				"element": "C" 
			},
			{
				"x": -0.2794975127,
				"y": 0.6766238094,
				"z": -0.4050148534,
				"element": "C" 
			},
			{
				"x": -0.4220023787,
				"y": 1.8325909318,
				"z": -1.3850353191,
				"element": "C" 
			},
			{
				"x": -1.3806941128,
				"y": 1.6798273335,
				"z": -2.5762823713,
				"element": "C" 
			},
			{
				"x": -2.7296535313,
				"y": 1.8570501115,
				"z": -2.1292079533,
				"element": "O" 
			},
			{
				"x": -3.5739421113,
				"y": 0.8022559615,
				"z": -2.3108774827,
				"element": "C" 
			},
			{
				"x": -4.7977173683,
				"y": 1.0969601208,
				"z": -1.7688535176,
				"element": "N" 
			},
			{
				"x": -3.3016811726,
				"y": -0.2159202376,
				"z": -2.9165646762,
				"element": "O" 
			},
			{
				"x": -1.2720152559,
				"y": 0.0140970534,
				"z": 0.3860307685,
				"element": "C" 
			},
			{
				"x": -2.4883134668,
				"y": 0.2490114805,
				"z": 0.3594312946,
				"element": "O" 
			},
			{
				"x": -0.7817855676,
				"y": -1.0609867087,
				"z": 1.3675043243,
				"element": "C" 
			},
			{
				"x": -1.8546010325,
				"y": -1.67198201,
				"z": 1.9555837681,
				"element": "N" 
			},
			{
				"x": -1.9588194491,
				"y": -2.9872256156,
				"z": 2.4718373018,
				"element": "C" 
			},
			{
				"x": -1.3545253723,
				"y": -4.091109853,
				"z": 1.8656785156,
				"element": "C" 
			},
			{
				"x": -1.4722666783,
				"y": -5.3490840765,
				"z": 2.3020840081,
				"element": "N" 
			},
			{
				"x": -2.2460132445,
				"y": -5.539426665,
				"z": 3.379854025,
				"element": "C" 
			},
			{
				"x": -2.9119814333,
				"y": -4.5217057832,
				"z": 4.0542363617,
				"element": "C" 
			},
			{
				"x": -2.775629182,
				"y": -3.1993104233,
				"z": 3.6060742397,
				"element": "C" 
			},
			{
				"x": -3.4338579632,
				"y": -2.1374062242,
				"z": 4.1957601211,
				"element": "N" 
			},
			{
				"x": 0.5483255885,
				"y": -1.2595454006,
				"z": 1.6570221076,
				"element": "C" 
			},
			{
				"x": 1.0650571438,
				"y": -2.1584771852,
				"z": 2.749343786,
				"element": "C" 
			},
			{
				"x": 1.5451890196,
				"y": -0.5051932154,
				"z": 0.9068826234,
				"element": "C" 
			},
			{
				"x": 2.7603642184,
				"y": -0.5775140958,
				"z": 1.1133629349,
				"element": "O" 
			},
			{
				"x": 0.6654595527,
				"y": -0.183386774,
				"z": -3.2566046991,
				"element": "H" 
			},
			{
				"x": 1.433468199,
				"y": 0.4868013887,
				"z": -4.7162169898,
				"element": "H" 
			},
			{
				"x": 2.4239068781,
				"y": 0.0870501813,
				"z": -3.283330766,
				"element": "H" 
			},
			{
				"x": 1.4150726655,
				"y": 3.5355941092,
				"z": -0.3582558487,
				"element": "H" 
			},
			{
				"x": 2.9623876192,
				"y": 4.5980146084,
				"z": -2.6143034983,
				"element": "H" 
			},
			{
				"x": 3.3519429134,
				"y": 2.4844008703,
				"z": -2.4955798103,
				"element": "H" 
			},
			{
				"x": 4.015679531,
				"y": 1.1136449903,
				"z": -0.5763078209,
				"element": "H" 
			},
			{
				"x": 3.1211357485,
				"y": 2.1521904835,
				"z": 0.5612744017,
				"element": "H" 
			},
			{
				"x": -0.7682677277,
				"y": 2.718245299,
				"z": -0.8359535066,
				"element": "H" 
			},
			{
				"x": -1.1762109257,
				"y": 2.466516848,
				"z": -3.3065377126,
				"element": "H" 
			},
			{
				"x": -1.2995295798,
				"y": 0.7092868223,
				"z": -3.0655141408,
				"element": "H" 
			},
			{
				"x": -5.3951252982,
				"y": 0.2930264201,
				"z": -1.6495759252,
				"element": "H" 
			},
			{
				"x": -4.7950690932,
				"y": 1.7620734785,
				"z": -1.0093470002,
				"element": "H" 
			},
			{
				"x": -2.7231601069,
				"y": -1.2359374383,
				"z": 1.6351006415,
				"element": "H" 
			},
			{
				"x": -0.7484383207,
				"y": -3.9349074946,
				"z": 0.9752587675,
				"element": "H" 
			},
			{
				"x": -2.3415754368,
				"y": -6.56683934,
				"z": 3.7264917624,
				"element": "H" 
			},
			{
				"x": -3.5246014256,
				"y": -4.7456320855,
				"z": 4.9232099792,
				"element": "H" 
			},
			{
				"x": -3.7905275577,
				"y": -2.2934989414,
				"z": 5.127434632,
				"element": "H" 
			},
			{
				"x": -2.9973786468,
				"y": -1.2336323999,
				"z": 4.0700733692,
				"element": "H" 
			},
			{
				"x": 0.4303765942,
				"y": -2.1134126091,
				"z": 3.6391266106,
				"element": "H" 
			},
			{
				"x": 1.1165210082,
				"y": -3.2103770885,
				"z": 2.4443635679,
				"element": "H" 
			},
			{
				"x": 2.0765189014,
				"y": -1.8446174744,
				"z": 3.0139244914,
				"element": "H" 
			}
		],
		 "valence_orbital": [ 
			{
				"type": "occ",
				"energy": -0.25471,
				"method": "rhf"
			},
			{
				"type": "occ",
				"energy": -0.24621,
				"method": "rhf"
			},
			{
				"type": "occ",
				"energy": -0.24122,
				"method": "rhf"
			},
			{
				"type": "occ",
				"energy": -0.22669,
				"method": "rhf"
			},
			{
				"type": "occ",
				"energy": -0.20546,
				"method": "rhf"
			},
			{
				"type": "unocc",
				"energy": -0.10369,
				"method": "rhf"
			},
			{
				"type": "unocc",
				"energy": -0.01326,
				"method": "rhf"
			},
			{
				"type": "unocc",
				"energy": -0.00912,
				"method": "rhf"
			},
			{
				"type": "unocc",
				"energy": 0.00485,
				"method": "rhf"
			},
			{
				"type": "unocc",
				"energy": 0.01913,
				"method": "rhf"
			}
		],
		"cosmo_sigma_profile": { 
			"-0.025": 0.0,
			"-0.024": 0.0,
			"-0.023": 0.0,
			"-0.022": 0.0,
			"-0.021": 0.0,
			"-0.02": 0.0,
			"-0.019": 0.0,
			"-0.018": 0.0,
			"-0.017": 0.0,
			"-0.016": 0.0,
			"-0.015": 0.0210210526786,
			"-0.014": 1.58481454206,
			"-0.013": 5.57663322442,
			"-0.012": 5.5389215913,
			"-0.011": 5.7343958138,
			"-0.01": 6.83080261322,
			"-0.009": 5.01711386744,
			"-0.008": 6.5250462198,
			"-0.007": 12.6053653573,
			"-0.006": 19.8835705715,
			"-0.005": 25.9354594507,
			"-0.004": 30.8978991833,
			"-0.003": 35.5867852117,
			"-0.002": 33.1543739342,
			"-0.001": 28.9198052084,
			"0.0": 26.2928972738,
			"0.001": 25.5676414186,
			"0.002": 22.3373638237,
			"0.003": 20.3115751889,
			"0.004": 17.2253235298,
			"0.005": 13.5579509513,
			"0.006": 11.5996582136,
			"0.007": 10.9327907374,
			"0.008": 10.327756061,
			"0.009": 10.7476440143,
			"0.01": 8.85389068163,
			"0.011": 7.95417181363,
			"0.012": 6.5657536118,
			"0.013": 8.27830614652,
			"0.014": 2.68179291448,
			"0.015": 1.58908225656,
			"0.016": 1.11147495781,
			"0.017": 0.770288219067,
			"0.018": 0.251993711046,
			"0.019": 0.0,
			"0.02": 0.0,
			"0.021": 0.0,
			"0.022": 0.0,
			"0.023": 0.0,
			"0.024": 0.0,
			"0.025": 0.0
		}
	}
}
