{
	 "smiles": "CSC1=NN(CO)C(=S)S1", 
	 "Tm": 346.15, 
	 "num_atms": 16, 
	 "gaussian": { 
		 "optdone": 1, 
		 "sigma_profile": "yes", 
		 "theory": "DFT", 
		 "functional": "B3LYP", 
		 "basiset": "6-31G**", 
		 "properties": { 
			 "R2extent": 4312.5588, 
			 "electric_dipole_moment_norm": 5.07115195394, 
			 "electric_quadrupole_moment_norm": 15.834647465, 
			 "total_energy": -1535.29003809, 
			 "HOMO_LUMO_gap": 0.16975, 
			 "cosmo_polarized_energy": -11.3, 
			 "cosmo_cavitation_energy": 25.13, 
			 "cosmo_dispersion_energy": -19.9, 
			 "cosmo_repulsion_energy": 1.49, 
			 "cosmo_total_nonelectrostatic_energy": 6.72, 
			 "SMD_solvation_energy": 2.64 
		},
		"coords": [
			{
				"x": 4.1632084641,
				"y": 2.4516445954,
				"z": -2.7689322467,
				"element": "C" 
			},
			{
				"x": 2.5193337807,
				"y": 2.7818363846,
				"z": -3.4942680822,
				"element": "S" 
			},
			{
				"x": 1.5158526867,
				"y": 1.7646478665,
				"z": -2.4729693537,
				"element": "C" 
			},
			{
				"x": 1.9577256382,
				"y": 1.0286374228,
				"z": -1.5005245715,
				"element": "N" 
			},
			{
				"x": 0.9332061272,
				"y": 0.3540392089,
				"z": -0.8953824877,
				"element": "N" 
			},
			{
				"x": 1.2779445776,
				"y": -0.536854813,
				"z": 0.2431658172,
				"element": "C" 
			},
			{
				"x": 2.6462872446,
				"y": -0.5196150766,
				"z": 0.495743309,
				"element": "O" 
			},
			{
				"x": -0.3367088342,
				"y": 0.5220745085,
				"z": -1.3508950801,
				"element": "C" 
			},
			{
				"x": -1.710980793,
				"y": -0.1923935575,
				"z": -0.769395752,
				"element": "S" 
			},
			{
				"x": -0.2261880799,
				"y": 1.6750941632,
				"z": -2.7150726784,
				"element": "S" 
			},
			{
				"x": 4.4158221201,
				"y": 1.3946303255,
				"z": -2.859535177,
				"element": "H" 
			},
			{
				"x": 4.1886728299,
				"y": 2.7599370746,
				"z": -1.7231767248,
				"element": "H" 
			},
			{
				"x": 4.8635679212,
				"y": 3.0528738887,
				"z": -3.3512981475,
				"element": "H" 
			},
			{
				"x": 0.7018641218,
				"y": -0.1886934498,
				"z": 1.1105236028,
				"element": "H" 
			},
			{
				"x": 0.9273231798,
				"y": -1.5439126667,
				"z": -0.0181326611,
				"element": "H" 
			},
			{
				"x": 3.0569690153,
				"y": 0.082654125,
				"z": -0.1448497661,
				"element": "H" 
			}
		],
		 "valence_orbital": [ 
			{
				"type": "occ",
				"energy": -0.33073,
				"method": "rhf"
			},
			{
				"type": "occ",
				"energy": -0.28847,
				"method": "rhf"
			},
			{
				"type": "occ",
				"energy": -0.2682,
				"method": "rhf"
			},
			{
				"type": "occ",
				"energy": -0.22939,
				"method": "rhf"
			},
			{
				"type": "occ",
				"energy": -0.2241,
				"method": "rhf"
			},
			{
				"type": "unocc",
				"energy": -0.05435,
				"method": "rhf"
			},
			{
				"type": "unocc",
				"energy": -0.02916,
				"method": "rhf"
			},
			{
				"type": "unocc",
				"energy": -0.01899,
				"method": "rhf"
			},
			{
				"type": "unocc",
				"energy": 0.00065,
				"method": "rhf"
			},
			{
				"type": "unocc",
				"energy": 0.02434,
				"method": "rhf"
			}
		],
		"cosmo_sigma_profile": { 
			"-0.025": 0.0,
			"-0.024": 0.0,
			"-0.023": 0.0,
			"-0.022": 0.0,
			"-0.021": 0.0,
			"-0.02": 0.0,
			"-0.019": 0.0,
			"-0.018": 0.0,
			"-0.017": 0.0,
			"-0.016": 0.0,
			"-0.015": 0.0,
			"-0.014": 0.0,
			"-0.013": 0.0,
			"-0.012": 0.0,
			"-0.011": 0.23979519505,
			"-0.01": 0.953974923149,
			"-0.009": 0.815643512192,
			"-0.008": 2.60891996097,
			"-0.007": 6.64188912216,
			"-0.006": 13.0796626191,
			"-0.005": 15.7810335692,
			"-0.004": 17.1235322816,
			"-0.003": 19.8167748109,
			"-0.002": 18.599340905,
			"-0.001": 15.3292141774,
			"0.0": 14.8241155934,
			"0.001": 13.2810335786,
			"0.002": 10.053318562,
			"0.003": 7.85601781381,
			"0.004": 6.70691757491,
			"0.005": 7.69502354389,
			"0.006": 6.66636383569,
			"0.007": 7.01775932627,
			"0.008": 8.90234326959,
			"0.009": 6.11499879531,
			"0.01": 2.6936613648,
			"0.011": 1.68853178409,
			"0.012": 2.18444998443,
			"0.013": 0.987207005444,
			"0.014": 0.0,
			"0.015": 0.0,
			"0.016": 0.0,
			"0.017": 0.0,
			"0.018": 0.0,
			"0.019": 0.0,
			"0.02": 0.0,
			"0.021": 0.0,
			"0.022": 0.0,
			"0.023": 0.0,
			"0.024": 0.0,
			"0.025": 0.0
		}
	}
}
