{
	 "smiles": "CCOC(=O)CS(N)(=O)=O", 
	 "Tm": 336.15, 
	 "num_atms": 19, 
	 "gaussian": { 
		 "optdone": 1, 
		 "sigma_profile": "yes", 
		 "theory": "DFT", 
		 "functional": "B3LYP", 
		 "basiset": "6-31G**", 
		 "properties": { 
			 "R2extent": 2024.576, 
			 "electric_dipole_moment_norm": 2.09037786297, 
			 "electric_quadrupole_moment_norm": 21.4938524732, 
			 "total_energy": -911.626338595, 
			 "HOMO_LUMO_gap": 0.26936, 
			 "cosmo_polarized_energy": -18.64, 
			 "cosmo_cavitation_energy": 24.94, 
			 "cosmo_dispersion_energy": -18.2, 
			 "cosmo_repulsion_energy": 1.49, 
			 "cosmo_total_nonelectrostatic_energy": 8.22, 
			 "SMD_solvation_energy": 5.17 
		},
		"coords": [
			{
				"x": 2.7678033846,
				"y": -1.4216883008,
				"z": -1.1732175793,
				"element": "C" 
			},
			{
				"x": 2.3537327812,
				"y": -0.1438697254,
				"z": -0.4711466982,
				"element": "C" 
			},
			{
				"x": 0.9100003088,
				"y": -0.0384500928,
				"z": -0.5808735069,
				"element": "O" 
			},
			{
				"x": 0.3460195459,
				"y": 1.0060302003,
				"z": 0.0382621808,
				"element": "C" 
			},
			{
				"x": 0.9443112134,
				"y": 1.8802912988,
				"z": 0.6221608866,
				"element": "O" 
			},
			{
				"x": -1.1690820916,
				"y": 0.9827951072,
				"z": -0.1069201403,
				"element": "C" 
			},
			{
				"x": -1.9091804369,
				"y": -0.5818635787,
				"z": 0.4639801492,
				"element": "S" 
			},
			{
				"x": -3.5307308957,
				"y": -0.1093844276,
				"z": 0.6172674378,
				"element": "N" 
			},
			{
				"x": -1.854944878,
				"y": -1.5692527313,
				"z": -0.6136523595,
				"element": "O" 
			},
			{
				"x": -1.3761890137,
				"y": -0.8525268224,
				"z": 1.8011952198,
				"element": "O" 
			},
			{
				"x": 2.4852433337,
				"y": -1.3980156861,
				"z": -2.2293739245,
				"element": "H" 
			},
			{
				"x": 3.8537330201,
				"y": -1.5414943318,
				"z": -1.1085920335,
				"element": "H" 
			},
			{
				"x": 2.294237457,
				"y": -2.290822452,
				"z": -0.7090385,
				"element": "H" 
			},
			{
				"x": 2.8010570168,
				"y": 0.7454401194,
				"z": -0.9258839312,
				"element": "H" 
			},
			{
				"x": 2.6198726922,
				"y": -0.1470009486,
				"z": 0.5897907129,
				"element": "H" 
			},
			{
				"x": -1.4672804239,
				"y": 1.1055169998,
				"z": -1.1510585778,
				"element": "H" 
			},
			{
				"x": -1.591038657,
				"y": 1.7824700063,
				"z": 0.500489788,
				"element": "H" 
			},
			{
				"x": -3.7968550176,
				"y": -0.1129368782,
				"z": 1.5989136797,
				"element": "H" 
			},
			{
				"x": -4.1096093394,
				"y": -0.746537756,
				"z": 0.0761971964,
				"element": "H" 
			}
		],
		 "valence_orbital": [ 
			{
				"type": "occ",
				"energy": -0.32346,
				"method": "rhf"
			},
			{
				"type": "occ",
				"energy": -0.31069,
				"method": "rhf"
			},
			{
				"type": "occ",
				"energy": -0.3092,
				"method": "rhf"
			},
			{
				"type": "occ",
				"energy": -0.29896,
				"method": "rhf"
			},
			{
				"type": "occ",
				"energy": -0.28313,
				"method": "rhf"
			},
			{
				"type": "unocc",
				"energy": -0.01377,
				"method": "rhf"
			},
			{
				"type": "unocc",
				"energy": 0.05389,
				"method": "rhf"
			},
			{
				"type": "unocc",
				"energy": 0.06434,
				"method": "rhf"
			},
			{
				"type": "unocc",
				"energy": 0.08183,
				"method": "rhf"
			},
			{
				"type": "unocc",
				"energy": 0.09336,
				"method": "rhf"
			}
		],
		"cosmo_sigma_profile": { 
			"-0.025": 0.0,
			"-0.024": 0.0,
			"-0.023": 0.0,
			"-0.022": 0.0,
			"-0.021": 0.0,
			"-0.02": 0.0,
			"-0.019": 0.0,
			"-0.018": 0.0,
			"-0.017": 0.0,
			"-0.016": 0.0478185860798,
			"-0.015": 1.31047374346,
			"-0.014": 2.85824172248,
			"-0.013": 2.80332807432,
			"-0.012": 2.57852183413,
			"-0.011": 2.40813233078,
			"-0.01": 4.66857011348,
			"-0.009": 6.05694944319,
			"-0.008": 5.21226087192,
			"-0.007": 3.94545004033,
			"-0.006": 8.4125389977,
			"-0.005": 12.8611899537,
			"-0.004": 16.4486214211,
			"-0.003": 13.6126807822,
			"-0.002": 12.2340036346,
			"-0.001": 11.1824084257,
			"0.0": 10.2836725453,
			"0.001": 5.77471137031,
			"0.002": 4.67995899742,
			"0.003": 4.49614707492,
			"0.004": 5.36541394141,
			"0.005": 4.71154232685,
			"0.006": 4.89583402087,
			"0.007": 5.58889802144,
			"0.008": 5.82766954803,
			"0.009": 5.60776169058,
			"0.01": 13.8172846228,
			"0.011": 15.7689412183,
			"0.012": 2.53678422869,
			"0.013": 0.0,
			"0.014": 0.0,
			"0.015": 0.0,
			"0.016": 0.0,
			"0.017": 0.0,
			"0.018": 0.0,
			"0.019": 0.0,
			"0.02": 0.0,
			"0.021": 0.0,
			"0.022": 0.0,
			"0.023": 0.0,
			"0.024": 0.0,
			"0.025": 0.0
		}
	}
}
