{
	 "smiles": "NC(=O)C1=C(Cl)C=CC=C1Cl", 
	 "Tm": 471.15, 
	 "num_atms": 16, 
	 "gaussian": { 
		 "optdone": 1, 
		 "sigma_profile": "yes", 
		 "theory": "DFT", 
		 "functional": "B3LYP", 
		 "basiset": "6-31G**", 
		 "properties": { 
			 "R2extent": 2302.0397, 
			 "electric_dipole_moment_norm": 4.17545635949, 
			 "electric_quadrupole_moment_norm": 12.2865784183, 
			 "total_energy": -1320.1256209, 
			 "HOMO_LUMO_gap": 0.22014, 
			 "cosmo_polarized_energy": -14.42, 
			 "cosmo_cavitation_energy": 24.49, 
			 "cosmo_dispersion_energy": -17.72, 
			 "cosmo_repulsion_energy": 1.45, 
			 "cosmo_total_nonelectrostatic_energy": 8.23, 
			 "SMD_solvation_energy": 4.41 
		},
		"coords": [
			{
				"x": -1.8709304745,
				"y": -2.53398056,
				"z": 0.043151507,
				"element": "N" 
			},
			{
				"x": -1.3467968826,
				"y": -1.4777257512,
				"z": -0.6354422533,
				"element": "C" 
			},
			{
				"x": -1.5867075593,
				"y": -1.2306372879,
				"z": -1.8038086244,
				"element": "O" 
			},
			{
				"x": -0.4140985774,
				"y": -0.6018186945,
				"z": 0.1874209328,
				"element": "C" 
			},
			{
				"x": -0.8894029408,
				"y": 0.5198891165,
				"z": 0.8805306543,
				"element": "C" 
			},
			{
				"x": -2.6128731426,
				"y": 0.858381111,
				"z": 0.9069297959,
				"element": "Cl" 
			},
			{
				"x": -0.0345335767,
				"y": 1.3823674281,
				"z": 1.565188424,
				"element": "C" 
			},
			{
				"x": 1.3352798237,
				"y": 1.1259701656,
				"z": 1.559920584,
				"element": "C" 
			},
			{
				"x": 1.8459695315,
				"y": 0.019278186,
				"z": 0.8842775057,
				"element": "C" 
			},
			{
				"x": 0.9690911168,
				"y": -0.8272439241,
				"z": 0.2075226273,
				"element": "C" 
			},
			{
				"x": 1.634224364,
				"y": -2.2202598505,
				"z": -0.6307127857,
				"element": "Cl" 
			},
			{
				"x": -2.4990871218,
				"y": -3.1545619198,
				"z": -0.445745966,
				"element": "H" 
			},
			{
				"x": -1.6537317004,
				"y": -2.7109618129,
				"z": 1.0102605717,
				"element": "H" 
			},
			{
				"x": -0.4420702383,
				"y": 2.2391877634,
				"z": 2.0891198924,
				"element": "H" 
			},
			{
				"x": 2.0098272013,
				"y": 1.7931541354,
				"z": 2.0873515176,
				"element": "H" 
			},
			{
				"x": 2.909340177,
				"y": -0.1902381051,
				"z": 0.8756356166,
				"element": "H" 
			}
		],
		 "valence_orbital": [ 
			{
				"type": "occ",
				"energy": -0.31839,
				"method": "rhf"
			},
			{
				"type": "occ",
				"energy": -0.27864,
				"method": "rhf"
			},
			{
				"type": "occ",
				"energy": -0.2753,
				"method": "rhf"
			},
			{
				"type": "occ",
				"energy": -0.25689,
				"method": "rhf"
			},
			{
				"type": "occ",
				"energy": -0.253,
				"method": "rhf"
			},
			{
				"type": "unocc",
				"energy": -0.03286,
				"method": "rhf"
			},
			{
				"type": "unocc",
				"energy": -0.03005,
				"method": "rhf"
			},
			{
				"type": "unocc",
				"energy": 0.00217,
				"method": "rhf"
			},
			{
				"type": "unocc",
				"energy": 0.01747,
				"method": "rhf"
			},
			{
				"type": "unocc",
				"energy": 0.0467,
				"method": "rhf"
			}
		],
		"cosmo_sigma_profile": { 
			"-0.025": 0.0,
			"-0.024": 0.0,
			"-0.023": 0.0,
			"-0.022": 0.0,
			"-0.021": 0.0,
			"-0.02": 0.0,
			"-0.019": 0.0,
			"-0.018": 0.0,
			"-0.017": 0.0,
			"-0.016": 0.104380945299,
			"-0.015": 1.27694352914,
			"-0.014": 2.5060517429,
			"-0.013": 1.94848820622,
			"-0.012": 2.5813671548,
			"-0.011": 2.22285474952,
			"-0.01": 2.17821891331,
			"-0.009": 2.20026373963,
			"-0.008": 5.83353944383,
			"-0.007": 8.47370539081,
			"-0.006": 7.57723959744,
			"-0.005": 7.10018798809,
			"-0.004": 6.77433266691,
			"-0.003": 8.11652884942,
			"-0.002": 9.57554754422,
			"-0.001": 11.7679352345,
			"0.0": 14.9285573909,
			"0.001": 19.9460377828,
			"0.002": 20.881530978,
			"0.003": 18.0058122521,
			"0.004": 19.639586657,
			"0.005": 5.38771901456,
			"0.006": 2.44878476604,
			"0.007": 1.71766477523,
			"0.008": 1.55872580004,
			"0.009": 1.71674222083,
			"0.01": 1.82417619871,
			"0.011": 1.30127889648,
			"0.012": 4.03190857989,
			"0.013": 5.42659100925,
			"0.014": 1.42742860001,
			"0.015": 0.0,
			"0.016": 0.0,
			"0.017": 0.0,
			"0.018": 0.0,
			"0.019": 0.0,
			"0.02": 0.0,
			"0.021": 0.0,
			"0.022": 0.0,
			"0.023": 0.0,
			"0.024": 0.0,
			"0.025": 0.0
		}
	}
}
