{
	 "smiles": "CC(C)(C)C1=CC(N)=NO1", 
	 "Tm": 384.65, 
	 "num_atms": 22, 
	 "gaussian": { 
		 "optdone": 1, 
		 "sigma_profile": "yes", 
		 "theory": "DFT", 
		 "functional": "B3LYP", 
		 "basiset": "6-31G**", 
		 "properties": { 
			 "R2extent": 2167.9632, 
			 "electric_dipole_moment_norm": 3.10453877573, 
			 "electric_quadrupole_moment_norm": 15.0998174655, 
			 "total_energy": -458.668846463, 
			 "HOMO_LUMO_gap": 0.23416, 
			 "cosmo_polarized_energy": -11.67, 
			 "cosmo_cavitation_energy": 24.72, 
			 "cosmo_dispersion_energy": -17.7, 
			 "cosmo_repulsion_energy": 1.45, 
			 "cosmo_total_nonelectrostatic_energy": 8.46, 
			 "SMD_solvation_energy": 4.12 
		},
		"coords": [
			{
				"x": 1.0732291928,
				"y": -0.300242342,
				"z": -1.9091913639,
				"element": "C" 
			},
			{
				"x": 0.4481896831,
				"y": -0.7032670199,
				"z": -0.5619181795,
				"element": "C" 
			},
			{
				"x": 0.5060183064,
				"y": -2.2399646554,
				"z": -0.3965536386,
				"element": "C" 
			},
			{
				"x": -1.0237825052,
				"y": -0.2317458028,
				"z": -0.5056917672,
				"element": "C" 
			},
			{
				"x": 1.2157192491,
				"y": -0.0565717259,
				"z": 0.5659210732,
				"element": "C" 
			},
			{
				"x": 2.2938561047,
				"y": 0.775649571,
				"z": 0.6201177596,
				"element": "C" 
			},
			{
				"x": 2.4837036784,
				"y": 1.0021053342,
				"z": 2.0196960544,
				"element": "C" 
			},
			{
				"x": 3.4168022435,
				"y": 1.8444106761,
				"z": 2.6072805188,
				"element": "N" 
			},
			{
				"x": 1.6012883703,
				"y": 0.3519454077,
				"z": 2.7517246321,
				"element": "N" 
			},
			{
				"x": 0.7822920601,
				"y": -0.3166230285,
				"z": 1.8181233352,
				"element": "O" 
			},
			{
				"x": 0.5207629567,
				"y": -0.7672881346,
				"z": -2.7306073111,
				"element": "H" 
			},
			{
				"x": 1.0404159217,
				"y": 0.784143149,
				"z": -2.0565027829,
				"element": "H" 
			},
			{
				"x": 2.1164620975,
				"y": -0.6252657054,
				"z": -1.9790477945,
				"element": "H" 
			},
			{
				"x": -0.0633801357,
				"y": -2.7252727225,
				"z": -1.1964566173,
				"element": "H" 
			},
			{
				"x": 0.0831444859,
				"y": -2.5471222574,
				"z": 0.5634891502,
				"element": "H" 
			},
			{
				"x": 1.538165984,
				"y": -2.6019759971,
				"z": -0.4445648755,
				"element": "H" 
			},
			{
				"x": -1.6007245231,
				"y": -0.7067843143,
				"z": -1.3063710623,
				"element": "H" 
			},
			{
				"x": -1.482573836,
				"y": -0.4919408538,
				"z": 0.4517098472,
				"element": "H" 
			},
			{
				"x": -1.0936208318,
				"y": 0.853440075,
				"z": -0.6318649856,
				"element": "H" 
			},
			{
				"x": 2.8628006671,
				"y": 1.1874259997,
				"z": -0.1984889479,
				"element": "H" 
			},
			{
				"x": 4.3245633612,
				"y": 1.8321113073,
				"z": 2.1617844763,
				"element": "H" 
			},
			{
				"x": 3.4872674692,
				"y": 1.7104330396,
				"z": 3.6087124794,
				"element": "H" 
			}
		],
		 "valence_orbital": [ 
			{
				"type": "occ",
				"energy": -0.33364,
				"method": "rhf"
			},
			{
				"type": "occ",
				"energy": -0.33153,
				"method": "rhf"
			},
			{
				"type": "occ",
				"energy": -0.28808,
				"method": "rhf"
			},
			{
				"type": "occ",
				"energy": -0.24717,
				"method": "rhf"
			},
			{
				"type": "occ",
				"energy": -0.22512,
				"method": "rhf"
			},
			{
				"type": "unocc",
				"energy": 0.00904,
				"method": "rhf"
			},
			{
				"type": "unocc",
				"energy": 0.06682,
				"method": "rhf"
			},
			{
				"type": "unocc",
				"energy": 0.0821,
				"method": "rhf"
			},
			{
				"type": "unocc",
				"energy": 0.09241,
				"method": "rhf"
			},
			{
				"type": "unocc",
				"energy": 0.12427,
				"method": "rhf"
			}
		],
		"cosmo_sigma_profile": { 
			"-0.025": 0.0,
			"-0.024": 0.0,
			"-0.023": 0.0,
			"-0.022": 0.0,
			"-0.021": 0.0,
			"-0.02": 0.0,
			"-0.019": 0.0,
			"-0.018": 0.0,
			"-0.017": 0.0,
			"-0.016": 0.0,
			"-0.015": 0.0,
			"-0.014": 0.263828285435,
			"-0.013": 1.80831770466,
			"-0.012": 2.93586886784,
			"-0.011": 2.30750992651,
			"-0.01": 2.30566364235,
			"-0.009": 2.66200284342,
			"-0.008": 2.8511861078,
			"-0.007": 3.28189423506,
			"-0.006": 3.49519306123,
			"-0.005": 2.69773689301,
			"-0.004": 7.96766013518,
			"-0.003": 24.8467077861,
			"-0.002": 20.6411591498,
			"-0.001": 20.1832752756,
			"0.0": 23.1223324277,
			"0.001": 19.0592240554,
			"0.002": 6.7061651995,
			"0.003": 6.91234996153,
			"0.004": 6.91761764656,
			"0.005": 3.6675254211,
			"0.006": 2.52508421486,
			"0.007": 3.4497449326,
			"0.008": 3.60299684492,
			"0.009": 3.58363185381,
			"0.01": 3.49345396483,
			"0.011": 3.18490466014,
			"0.012": 2.41974347246,
			"0.013": 1.96830926472,
			"0.014": 2.26344288368,
			"0.015": 1.19721668868,
			"0.016": 0.432629931479,
			"0.017": 0.0,
			"0.018": 0.0,
			"0.019": 0.0,
			"0.02": 0.0,
			"0.021": 0.0,
			"0.022": 0.0,
			"0.023": 0.0,
			"0.024": 0.0,
			"0.025": 0.0
		}
	}
}
