{
	 "smiles": "IC#N", 
	 "Tm": 419.15, 
	 "num_atms": 3, 
	 "gaussian": { 
		 "optdone": 1, 
		 "sigma_profile": "yes", 
		 "theory": "DFT", 
		 "functional": "B3LYP", 
		 "basiset": "6-31G**", 
		 "properties": { 
			 "R2extent": 440.1183, 
			 "electric_dipole_moment_norm": 3.55549827872, 
			 "electric_quadrupole_moment_norm": 8.14908466946, 
			 "total_energy": -104.202630448, 
			 "HOMO_LUMO_gap": 0.22795, 
			 "cosmo_polarized_energy": -6.41, 
			 "cosmo_cavitation_energy": 11.19, 
			 "cosmo_dispersion_energy": -9.58, 
			 "cosmo_repulsion_energy": 0.86, 
			 "cosmo_total_nonelectrostatic_energy": 2.46, 
			 "SMD_solvation_energy": 3.63 
		},
		"coords": [
			{
				"x": 0.4035489177,
				"y": 1.2907882741,
				"z": 2.5774343371,
				"element": "I" 
			},
			{
				"x": -0.2687200517,
				"y": -0.3882777052,
				"z": 1.7294928644,
				"element": "C" 
			},
			{
				"x": -0.660528866,
				"y": -1.3668105689,
				"z": 1.2352727985,
				"element": "N" 
			}
		],
		 "valence_orbital": [ 
			{
				"type": "occ",
				"energy": -0.3854,
				"method": "rhf"
			},
			{
				"type": "occ",
				"energy": -0.3854,
				"method": "rhf"
			},
			{
				"type": "occ",
				"energy": -0.37904,
				"method": "rhf"
			},
			{
				"type": "occ",
				"energy": -0.30576,
				"method": "rhf"
			},
			{
				"type": "occ",
				"energy": -0.30576,
				"method": "rhf"
			},
			{
				"type": "unocc",
				"energy": -0.07781,
				"method": "rhf"
			},
			{
				"type": "unocc",
				"energy": 0.00774,
				"method": "rhf"
			},
			{
				"type": "unocc",
				"energy": 0.00774,
				"method": "rhf"
			},
			{
				"type": "unocc",
				"energy": 0.03421,
				"method": "rhf"
			},
			{
				"type": "unocc",
				"energy": 0.03776,
				"method": "rhf"
			}
		],
		"cosmo_sigma_profile": { 
			"-0.025": 0.0,
			"-0.024": 0.0,
			"-0.023": 0.0,
			"-0.022": 0.0,
			"-0.021": 0.0,
			"-0.02": 0.0,
			"-0.019": 0.0,
			"-0.018": 0.0,
			"-0.017": 0.0,
			"-0.016": 0.0,
			"-0.015": 0.0,
			"-0.014": 0.209753023175,
			"-0.013": 1.04768633888,
			"-0.012": 1.38877663645,
			"-0.011": 1.12914687729,
			"-0.01": 1.44078602866,
			"-0.009": 1.19086431693,
			"-0.008": 1.69625356435,
			"-0.007": 1.60912596156,
			"-0.006": 1.71917381644,
			"-0.005": 1.95669682412,
			"-0.004": 5.47056442646,
			"-0.003": 12.1395505216,
			"-0.002": 9.82850622063,
			"-0.001": 13.1294726725,
			"0.0": 11.2637162315,
			"0.001": 1.78411579281,
			"0.002": 2.34760621592,
			"0.003": 2.60724898754,
			"0.004": 2.00895366842,
			"0.005": 3.71808503502,
			"0.006": 2.47728159156,
			"0.007": 4.16843416867,
			"0.008": 3.27169429848,
			"0.009": 3.43167010341,
			"0.01": 2.74535772548,
			"0.011": 2.39504252903,
			"0.012": 0.791717117166,
			"0.013": 0.0,
			"0.014": 0.0,
			"0.015": 0.0,
			"0.016": 0.0,
			"0.017": 0.0,
			"0.018": 0.0,
			"0.019": 0.0,
			"0.02": 0.0,
			"0.021": 0.0,
			"0.022": 0.0,
			"0.023": 0.0,
			"0.024": 0.0,
			"0.025": 0.0
		}
	}
}
