{
	 "smiles": "CC1=NOC(CSC2=C(C=CC=C2)C(O)=O)=C1", 
	 "Tm": 432.15, 
	 "num_atms": 28, 
	 "gaussian": { 
		 "optdone": 1, 
		 "sigma_profile": "yes", 
		 "theory": "DFT", 
		 "functional": "B3LYP", 
		 "basiset": "6-31G**", 
		 "properties": { 
			 "R2extent": 4371.7796, 
			 "electric_dipole_moment_norm": 4.09291330228, 
			 "electric_quadrupole_moment_norm": 7.46523383358, 
			 "total_energy": -1142.47866162, 
			 "HOMO_LUMO_gap": 0.17384, 
			 "cosmo_polarized_energy": -15.03, 
			 "cosmo_cavitation_energy": 33.21, 
			 "cosmo_dispersion_energy": -23.52, 
			 "cosmo_repulsion_energy": 1.76, 
			 "cosmo_total_nonelectrostatic_energy": 11.45, 
			 "SMD_solvation_energy": 5.96 
		},
		"coords": [
			{
				"x": 0.802518647,
				"y": 3.4069030567,
				"z": -0.8444238305,
				"element": "C" 
			},
			{
				"x": -0.068487654,
				"y": 2.2407884699,
				"z": -1.1904927478,
				"element": "C" 
			},
			{
				"x": -1.3260156853,
				"y": 2.4285786992,
				"z": -1.5331895323,
				"element": "N" 
			},
			{
				"x": -1.8605864272,
				"y": 1.1478287957,
				"z": -1.7391263696,
				"element": "O" 
			},
			{
				"x": -0.9070210655,
				"y": 0.226903627,
				"z": -1.4932760319,
				"element": "C" 
			},
			{
				"x": -1.3063200068,
				"y": -1.2016412405,
				"z": -1.5499056237,
				"element": "C" 
			},
			{
				"x": -2.3143795272,
				"y": -1.7850413084,
				"z": -0.0974204881,
				"element": "S" 
			},
			{
				"x": -1.0980631619,
				"y": -1.8143709464,
				"z": 1.2315098064,
				"element": "C" 
			},
			{
				"x": -0.6446403433,
				"y": -0.6947831159,
				"z": 1.9734643702,
				"element": "C" 
			},
			{
				"x": 0.3126649892,
				"y": -0.8919750159,
				"z": 2.9825888246,
				"element": "C" 
			},
			{
				"x": 0.7931752868,
				"y": -2.1586879721,
				"z": 3.2969369752,
				"element": "C" 
			},
			{
				"x": 0.3323316013,
				"y": -3.2635460967,
				"z": 2.5824764573,
				"element": "C" 
			},
			{
				"x": -0.5936855076,
				"y": -3.0840034986,
				"z": 1.5561273252,
				"element": "C" 
			},
			{
				"x": -1.0543438432,
				"y": 0.7401306291,
				"z": 1.7980143812,
				"element": "C" 
			},
			{
				"x": -2.2643789615,
				"y": 0.91779517,
				"z": 1.2461560329,
				"element": "O" 
			},
			{
				"x": -0.3575116939,
				"y": 1.6715439652,
				"z": 2.1597801494,
				"element": "O" 
			},
			{
				"x": 0.2581283223,
				"y": 0.8516968842,
				"z": -1.1591418116,
				"element": "C" 
			},
			{
				"x": 1.7326999653,
				"y": 3.3893704537,
				"z": -1.4209955342,
				"element": "H" 
			},
			{
				"x": 0.2784629782,
				"y": 4.3427388015,
				"z": -1.0487796041,
				"element": "H" 
			},
			{
				"x": 1.0603299328,
				"y": 3.3732618369,
				"z": 0.2192608254,
				"element": "H" 
			},
			{
				"x": -1.9679656253,
				"y": -1.3828933947,
				"z": -2.4017380694,
				"element": "H" 
			},
			{
				"x": -0.4252011607,
				"y": -1.8378756833,
				"z": -1.6515210241,
				"element": "H" 
			},
			{
				"x": 0.6637260181,
				"y": -0.0164956278,
				"z": 3.5173537833,
				"element": "H" 
			},
			{
				"x": 1.5212924452,
				"y": -2.2803942255,
				"z": 4.0931237377,
				"element": "H" 
			},
			{
				"x": 0.6953705308,
				"y": -4.2608866293,
				"z": 2.813191471,
				"element": "H" 
			},
			{
				"x": -0.9426604594,
				"y": -3.9376878176,
				"z": 0.9847504329,
				"element": "H" 
			},
			{
				"x": -2.3688745966,
				"y": 1.8745696927,
				"z": 1.1026337473,
				"element": "H" 
			},
			{
				"x": 1.2024350024,
				"y": 0.3979724908,
				"z": -0.8996576525,
				"element": "H" 
			}
		],
		 "valence_orbital": [ 
			{
				"type": "occ",
				"energy": -0.28261,
				"method": "rhf"
			},
			{
				"type": "occ",
				"energy": -0.273,
				"method": "rhf"
			},
			{
				"type": "occ",
				"energy": -0.26624,
				"method": "rhf"
			},
			{
				"type": "occ",
				"energy": -0.2535,
				"method": "rhf"
			},
			{
				"type": "occ",
				"energy": -0.23184,
				"method": "rhf"
			},
			{
				"type": "unocc",
				"energy": -0.058,
				"method": "rhf"
			},
			{
				"type": "unocc",
				"energy": -0.02925,
				"method": "rhf"
			},
			{
				"type": "unocc",
				"energy": -0.01517,
				"method": "rhf"
			},
			{
				"type": "unocc",
				"energy": 0.0394,
				"method": "rhf"
			},
			{
				"type": "unocc",
				"energy": 0.04397,
				"method": "rhf"
			}
		],
		"cosmo_sigma_profile": { 
			"-0.025": 0.0,
			"-0.024": 0.0,
			"-0.023": 0.0,
			"-0.022": 0.0,
			"-0.021": 0.0,
			"-0.02": 0.0,
			"-0.019": 0.0,
			"-0.018": 0.0215503138144,
			"-0.017": 0.348067079993,
			"-0.016": 0.554599988401,
			"-0.015": 0.647663220908,
			"-0.014": 0.678297133578,
			"-0.013": 0.465602799946,
			"-0.012": 0.114393889948,
			"-0.011": 0.725170772277,
			"-0.01": 0.492093012496,
			"-0.009": 1.62154452091,
			"-0.008": 5.55017354623,
			"-0.007": 10.7219525333,
			"-0.006": 15.2750739944,
			"-0.005": 19.3795429972,
			"-0.004": 19.3572133575,
			"-0.003": 17.4382907766,
			"-0.002": 20.0277029261,
			"-0.001": 20.1019592699,
			"0.0": 16.8824832573,
			"0.001": 18.8149783888,
			"0.002": 19.6334067329,
			"0.003": 18.5003075931,
			"0.004": 9.7933336958,
			"0.005": 7.15679639672,
			"0.006": 6.06801193878,
			"0.007": 5.70072909367,
			"0.008": 8.99077826655,
			"0.009": 5.69804609877,
			"0.01": 4.69358218578,
			"0.011": 4.85574727279,
			"0.012": 3.53616999887,
			"0.013": 1.3509200354,
			"0.014": 0.971457484173,
			"0.015": 0.327651486224,
			"0.016": 0.0,
			"0.017": 0.0,
			"0.018": 0.0,
			"0.019": 0.0,
			"0.02": 0.0,
			"0.021": 0.0,
			"0.022": 0.0,
			"0.023": 0.0,
			"0.024": 0.0,
			"0.025": 0.0
		}
	}
}
