{
	 "smiles": "CC(C)(C)OC(=O)NC1CN(C1=O)C1=CC=CC=C1", 
	 "Tm": 441.15, 
	 "num_atms": 37, 
	 "gaussian": { 
		 "optdone": 1, 
		 "sigma_profile": "yes", 
		 "theory": "DFT", 
		 "functional": "B3LYP", 
		 "basiset": "6-31G**", 
		 "properties": { 
			 "R2extent": 5711.9964, 
			 "electric_dipole_moment_norm": 3.42259407614, 
			 "electric_quadrupole_moment_norm": 14.707630473, 
			 "total_energy": -879.541650173, 
			 "HOMO_LUMO_gap": 0.20032, 
			 "cosmo_polarized_energy": -16.24, 
			 "cosmo_cavitation_energy": 39.9, 
			 "cosmo_dispersion_energy": -26.19, 
			 "cosmo_repulsion_energy": 2.01, 
			 "cosmo_total_nonelectrostatic_energy": 15.72, 
			 "SMD_solvation_energy": 7.25 
		},
		"coords": [
			{
				"x": -3.2148238458,
				"y": -0.9004767274,
				"z": -1.800155358,
				"element": "C" 
			},
			{
				"x": -2.2440689643,
				"y": 0.2094276743,
				"z": -2.2145438861,
				"element": "C" 
			},
			{
				"x": -2.0649878089,
				"y": 1.2260176659,
				"z": -1.0851812323,
				"element": "C" 
			},
			{
				"x": -2.6581861586,
				"y": 0.9003680294,
				"z": -3.5169006899,
				"element": "C" 
			},
			{
				"x": -0.8857099458,
				"y": -0.3556923159,
				"z": -2.3587339993,
				"element": "O" 
			},
			{
				"x": -0.6429369293,
				"y": -1.3691525867,
				"z": -3.2163806696,
				"element": "C" 
			},
			{
				"x": -1.3889327334,
				"y": -1.7965968072,
				"z": -4.0786256197,
				"element": "O" 
			},
			{
				"x": 0.6262809079,
				"y": -1.8696726181,
				"z": -3.0144765566,
				"element": "N" 
			},
			{
				"x": 1.4680331744,
				"y": -1.6176346752,
				"z": -1.8788676556,
				"element": "C" 
			},
			{
				"x": 2.0503893721,
				"y": -0.189473516,
				"z": -1.6180660635,
				"element": "C" 
			},
			{
				"x": 1.5135899078,
				"y": -0.2883862444,
				"z": -0.2528245435,
				"element": "N" 
			},
			{
				"x": 0.8470456886,
				"y": -1.4845759217,
				"z": -0.4569105856,
				"element": "C" 
			},
			{
				"x": 0.1009520203,
				"y": -2.1392990433,
				"z": 0.2355671797,
				"element": "O" 
			},
			{
				"x": 1.5600236141,
				"y": 0.6119771973,
				"z": 0.8176361656,
				"element": "C" 
			},
			{
				"x": 2.2629768062,
				"y": 1.8182002653,
				"z": 0.682962029,
				"element": "C" 
			},
			{
				"x": 2.3159203377,
				"y": 2.7130385429,
				"z": 1.7511632406,
				"element": "C" 
			},
			{
				"x": 1.6726669465,
				"y": 2.4196193343,
				"z": 2.9541818673,
				"element": "C" 
			},
			{
				"x": 0.9716641182,
				"y": 1.2171611395,
				"z": 3.0811404763,
				"element": "C" 
			},
			{
				"x": 0.90870042,
				"y": 0.3096502288,
				"z": 2.0266203642,
				"element": "C" 
			},
			{
				"x": -4.1885182506,
				"y": -0.4628751327,
				"z": -1.557561606,
				"element": "H" 
			},
			{
				"x": -2.8370042096,
				"y": -1.4165499585,
				"z": -0.9123854271,
				"element": "H" 
			},
			{
				"x": -3.3481865606,
				"y": -1.6264995142,
				"z": -2.6031262287,
				"element": "H" 
			},
			{
				"x": -1.3280422177,
				"y": 1.986601253,
				"z": -1.3598629619,
				"element": "H" 
			},
			{
				"x": -3.0162945323,
				"y": 1.7268991429,
				"z": -0.8823922198,
				"element": "H" 
			},
			{
				"x": -1.7287419896,
				"y": 0.7341184752,
				"z": -0.1685739541,
				"element": "H" 
			},
			{
				"x": -3.6193870371,
				"y": 1.4046122805,
				"z": -3.372955528,
				"element": "H" 
			},
			{
				"x": -2.7542225368,
				"y": 0.1784598451,
				"z": -4.3279384085,
				"element": "H" 
			},
			{
				"x": -1.9182650045,
				"y": 1.656183442,
				"z": -3.799355131,
				"element": "H" 
			},
			{
				"x": 0.8266054448,
				"y": -2.6695127857,
				"z": -3.5948870989,
				"element": "H" 
			},
			{
				"x": 2.2582377338,
				"y": -2.3731691519,
				"z": -1.8762265606,
				"element": "H" 
			},
			{
				"x": 1.5696223139,
				"y": 0.5896898222,
				"z": -2.2149669213,
				"element": "H" 
			},
			{
				"x": 3.1404472092,
				"y": -0.0973254494,
				"z": -1.6650597523,
				"element": "H" 
			},
			{
				"x": 2.7626702648,
				"y": 2.0535623798,
				"z": -0.251651116,
				"element": "H" 
			},
			{
				"x": 2.8631731197,
				"y": 3.6445553815,
				"z": 1.6380106077,
				"element": "H" 
			},
			{
				"x": 1.7156484826,
				"y": 3.1193467142,
				"z": 3.7831132496,
				"element": "H" 
			},
			{
				"x": 0.4664006477,
				"y": 0.9795733252,
				"z": 4.0130238528,
				"element": "H" 
			},
			{
				"x": 0.3667601945,
				"y": -0.624069691,
				"z": 2.1170907411,
				"element": "H" 
			}
		],
		 "valence_orbital": [ 
			{
				"type": "occ",
				"energy": -0.28366,
				"method": "rhf"
			},
			{
				"type": "occ",
				"energy": -0.26803,
				"method": "rhf"
			},
			{
				"type": "occ",
				"energy": -0.2547,
				"method": "rhf"
			},
			{
				"type": "occ",
				"energy": -0.24545,
				"method": "rhf"
			},
			{
				"type": "occ",
				"energy": -0.21963,
				"method": "rhf"
			},
			{
				"type": "unocc",
				"energy": -0.01931,
				"method": "rhf"
			},
			{
				"type": "unocc",
				"energy": -0.0051,
				"method": "rhf"
			},
			{
				"type": "unocc",
				"energy": 0.03933,
				"method": "rhf"
			},
			{
				"type": "unocc",
				"energy": 0.04581,
				"method": "rhf"
			},
			{
				"type": "unocc",
				"energy": 0.07615,
				"method": "rhf"
			}
		],
		"cosmo_sigma_profile": { 
			"-0.025": 0.0,
			"-0.024": 0.0,
			"-0.023": 0.0,
			"-0.022": 0.0,
			"-0.021": 0.0,
			"-0.02": 0.0,
			"-0.019": 0.0,
			"-0.018": 0.0,
			"-0.017": 0.0,
			"-0.016": 0.0,
			"-0.015": 0.838257313375,
			"-0.014": 1.25186980285,
			"-0.013": 1.15822426082,
			"-0.012": 1.14074819315,
			"-0.011": 1.60171943818,
			"-0.01": 1.38567008847,
			"-0.009": 2.16128039494,
			"-0.008": 3.8055505819,
			"-0.007": 3.82066748871,
			"-0.006": 12.6826707854,
			"-0.005": 18.0112518635,
			"-0.004": 25.4699684165,
			"-0.003": 25.153756882,
			"-0.002": 24.0710952466,
			"-0.001": 25.2644623807,
			"0.0": 37.1135548396,
			"0.001": 30.9897379009,
			"0.002": 20.9195088841,
			"0.003": 14.5277878798,
			"0.004": 14.4594758732,
			"0.005": 13.6498848708,
			"0.006": 7.56078073129,
			"0.007": 2.8081531878,
			"0.008": 2.98696727854,
			"0.009": 2.90371467354,
			"0.01": 3.47295228588,
			"0.011": 3.24375250055,
			"0.012": 6.08688944682,
			"0.013": 5.37660280605,
			"0.014": 0.74484035501,
			"0.015": 0.0,
			"0.016": 0.0,
			"0.017": 0.0,
			"0.018": 0.0,
			"0.019": 0.0,
			"0.02": 0.0,
			"0.021": 0.0,
			"0.022": 0.0,
			"0.023": 0.0,
			"0.024": 0.0,
			"0.025": 0.0
		}
	}
}
