{
	 "smiles": "CC1=C(Br)C=CC(Br)=N1", 
	 "Tm": 311.15, 
	 "num_atms": 14, 
	 "gaussian": { 
		 "optdone": 1, 
		 "sigma_profile": "yes", 
		 "theory": "DFT", 
		 "functional": "B3LYP", 
		 "basiset": "6-31G**", 
		 "properties": { 
			 "R2extent": 4156.2393, 
			 "electric_dipole_moment_norm": 1.89049667548, 
			 "electric_quadrupole_moment_norm": 6.79308383873, 
			 "total_energy": -5429.21307832, 
			 "HOMO_LUMO_gap": 0.20455, 
			 "cosmo_polarized_energy": -5.51, 
			 "cosmo_cavitation_energy": 22.8, 
			 "cosmo_dispersion_energy": -17.77, 
			 "cosmo_repulsion_energy": 1.46, 
			 "cosmo_total_nonelectrostatic_energy": 6.49, 
			 "SMD_solvation_energy": 0.47 
		},
		"coords": [
			{
				"x": -2.1415269936,
				"y": -0.8377070011,
				"z": -1.141112787,
				"element": "C" 
			},
			{
				"x": -0.6404704274,
				"y": -0.8185643428,
				"z": -1.0657877556,
				"element": "C" 
			},
			{
				"x": 0.1710973781,
				"y": -1.8228336371,
				"z": -1.617220174,
				"element": "C" 
			},
			{
				"x": -0.6042672983,
				"y": -3.3140717936,
				"z": -2.5211386247,
				"element": "Br" 
			},
			{
				"x": 1.5581126757,
				"y": -1.7435667724,
				"z": -1.5116047779,
				"element": "C" 
			},
			{
				"x": 2.1222257423,
				"y": -0.6557998366,
				"z": -0.852611197,
				"element": "C" 
			},
			{
				"x": 1.2382913846,
				"y": 0.2919712642,
				"z": -0.3371608004,
				"element": "C" 
			},
			{
				"x": 1.9630410477,
				"y": 1.8150541071,
				"z": 0.5822664226,
				"element": "Br" 
			},
			{
				"x": -0.0743064088,
				"y": 0.225105054,
				"z": -0.4324030468,
				"element": "N" 
			},
			{
				"x": -2.4836973716,
				"y": -0.8491709349,
				"z": -2.1814395028,
				"element": "H" 
			},
			{
				"x": -2.5485831488,
				"y": -1.7352138609,
				"z": -0.663321574,
				"element": "H" 
			},
			{
				"x": -2.534735469,
				"y": 0.0476742738,
				"z": -0.6411704,
				"element": "H" 
			},
			{
				"x": 2.1847716916,
				"y": -2.51928191,
				"z": -1.9376102183,
				"element": "H" 
			},
			{
				"x": 3.1941471974,
				"y": -0.5478946098,
				"z": -0.7438855642,
				"element": "H" 
			}
		],
		 "valence_orbital": [ 
			{
				"type": "occ",
				"energy": -0.3024,
				"method": "rhf"
			},
			{
				"type": "occ",
				"energy": -0.29652,
				"method": "rhf"
			},
			{
				"type": "occ",
				"energy": -0.2913,
				"method": "rhf"
			},
			{
				"type": "occ",
				"energy": -0.27568,
				"method": "rhf"
			},
			{
				"type": "occ",
				"energy": -0.24911,
				"method": "rhf"
			},
			{
				"type": "unocc",
				"energy": -0.04456,
				"method": "rhf"
			},
			{
				"type": "unocc",
				"energy": -0.03499,
				"method": "rhf"
			},
			{
				"type": "unocc",
				"energy": -0.00499,
				"method": "rhf"
			},
			{
				"type": "unocc",
				"energy": 0.00484,
				"method": "rhf"
			},
			{
				"type": "unocc",
				"energy": 0.11106,
				"method": "rhf"
			}
		],
		"cosmo_sigma_profile": { 
			"-0.025": 0.0,
			"-0.024": 0.0,
			"-0.023": 0.0,
			"-0.022": 0.0,
			"-0.021": 0.0,
			"-0.02": 0.0,
			"-0.019": 0.0,
			"-0.018": 0.0,
			"-0.017": 0.0,
			"-0.016": 0.0,
			"-0.015": 0.0,
			"-0.014": 0.0,
			"-0.013": 0.0,
			"-0.012": 0.0,
			"-0.011": 0.0,
			"-0.01": 0.0,
			"-0.009": 1.80567721661,
			"-0.008": 4.06551644679,
			"-0.007": 3.8688086448,
			"-0.006": 3.96208844959,
			"-0.005": 8.05755027129,
			"-0.004": 11.5470298731,
			"-0.003": 12.6158025039,
			"-0.002": 15.7111795208,
			"-0.001": 24.827894881,
			"0.0": 23.8240407563,
			"0.001": 15.2589004711,
			"0.002": 13.3469283534,
			"0.003": 16.0405195783,
			"0.004": 18.3544368272,
			"0.005": 6.53270828678,
			"0.006": 2.05296826978,
			"0.007": 1.51448221619,
			"0.008": 1.63027176412,
			"0.009": 1.39895577221,
			"0.01": 1.30840126096,
			"0.011": 0.640023493547,
			"0.012": 0.554460669005,
			"0.013": 0.572109951145,
			"0.014": 0.0,
			"0.015": 0.0,
			"0.016": 0.0,
			"0.017": 0.0,
			"0.018": 0.0,
			"0.019": 0.0,
			"0.02": 0.0,
			"0.021": 0.0,
			"0.022": 0.0,
			"0.023": 0.0,
			"0.024": 0.0,
			"0.025": 0.0
		}
	}
}
