{
	 "smiles": "CNC1CCN(C1=O)C1=CC(OC)=CC(OC)=C1", 
	 "Tm": 347.15, 
	 "num_atms": 36, 
	 "gaussian": { 
		 "optdone": 1, 
		 "sigma_profile": "yes", 
		 "theory": "DFT", 
		 "functional": "B3LYP", 
		 "basiset": "6-31G**", 
		 "properties": { 
			 "R2extent": 5623.0654, 
			 "electric_dipole_moment_norm": 3.27541265187, 
			 "electric_quadrupole_moment_norm": 12.4625868081, 
			 "total_energy": -841.388690181, 
			 "HOMO_LUMO_gap": 0.19371, 
			 "cosmo_polarized_energy": -15.2, 
			 "cosmo_cavitation_energy": 37.72, 
			 "cosmo_dispersion_energy": -26.8, 
			 "cosmo_repulsion_energy": 2.06, 
			 "cosmo_total_nonelectrostatic_energy": 12.98, 
			 "SMD_solvation_energy": 5.7 
		},
		"coords": [
			{
				"x": 0.370914186,
				"y": 3.1820421082,
				"z": -1.896172178,
				"element": "C" 
			},
			{
				"x": 1.4055220456,
				"y": 2.5241873652,
				"z": -2.6967241145,
				"element": "N" 
			},
			{
				"x": 1.4551076465,
				"y": 1.0634265056,
				"z": -2.5939301632,
				"element": "C" 
			},
			{
				"x": 0.2078730405,
				"y": 0.3422074685,
				"z": -3.1282016154,
				"element": "C" 
			},
			{
				"x": -0.5354974413,
				"y": -0.1849345064,
				"z": -1.8849510179,
				"element": "C" 
			},
			{
				"x": 0.4527612888,
				"y": -0.1452654237,
				"z": -0.7977061155,
				"element": "N" 
			},
			{
				"x": 1.5899686808,
				"y": 0.5645421813,
				"z": -1.1421306728,
				"element": "C" 
			},
			{
				"x": 2.5498386928,
				"y": 0.8219124486,
				"z": -0.4278827071,
				"element": "O" 
			},
			{
				"x": 0.1561501948,
				"y": -0.6993216791,
				"z": 0.4756879949,
				"element": "C" 
			},
			{
				"x": 1.1294793243,
				"y": -0.737997129,
				"z": 1.4861432277,
				"element": "C" 
			},
			{
				"x": 0.7973967097,
				"y": -1.3020776693,
				"z": 2.7230967634,
				"element": "C" 
			},
			{
				"x": 1.6714538642,
				"y": -1.3851140561,
				"z": 3.7672611163,
				"element": "O" 
			},
			{
				"x": 2.9822613953,
				"y": -0.86733103,
				"z": 3.592119134,
				"element": "C" 
			},
			{
				"x": -0.4744971004,
				"y": -1.8250650428,
				"z": 2.966104235,
				"element": "C" 
			},
			{
				"x": -1.4305244477,
				"y": -1.7778679129,
				"z": 1.9535240347,
				"element": "C" 
			},
			{
				"x": -2.6503008221,
				"y": -2.3067884512,
				"z": 2.2730682256,
				"element": "O" 
			},
			{
				"x": -3.6740448418,
				"y": -2.2935465607,
				"z": 1.2944713063,
				"element": "C" 
			},
			{
				"x": -1.1304481355,
				"y": -1.2186535275,
				"z": 0.704073086,
				"element": "C" 
			},
			{
				"x": -0.6217202138,
				"y": 2.894273853,
				"z": -2.2590731442,
				"element": "H" 
			},
			{
				"x": 0.4598650959,
				"y": 4.2637867581,
				"z": -2.0308369354,
				"element": "H" 
			},
			{
				"x": 0.4150718315,
				"y": 2.9689383514,
				"z": -0.8155112437,
				"element": "H" 
			},
			{
				"x": 2.3138319145,
				"y": 2.8766469729,
				"z": -2.4038992932,
				"element": "H" 
			},
			{
				"x": 2.3559272044,
				"y": 0.7504186189,
				"z": -3.130962512,
				"element": "H" 
			},
			{
				"x": 0.5080991271,
				"y": -0.4951281596,
				"z": -3.7635406442,
				"element": "H" 
			},
			{
				"x": -0.414882964,
				"y": 1.0048037902,
				"z": -3.7329293268,
				"element": "H" 
			},
			{
				"x": -0.8948795218,
				"y": -1.2089842472,
				"z": -2.0260712676,
				"element": "H" 
			},
			{
				"x": -1.4012730719,
				"y": 0.4383391298,
				"z": -1.6263907323,
				"element": "H" 
			},
			{
				"x": 2.1031554481,
				"y": -0.3209598004,
				"z": 1.290495995,
				"element": "H" 
			},
			{
				"x": 3.5212618745,
				"y": -1.3900954698,
				"z": 2.792206073,
				"element": "H" 
			},
			{
				"x": 2.9679749752,
				"y": 0.2062520087,
				"z": 3.3674430196,
				"element": "H" 
			},
			{
				"x": 3.497080657,
				"y": -1.0312384091,
				"z": 4.540292581,
				"element": "H" 
			},
			{
				"x": -0.7160974479,
				"y": -2.2591178791,
				"z": 3.9286237374,
				"element": "H" 
			},
			{
				"x": -4.5430827082,
				"y": -2.7605189342,
				"z": 1.7610723046,
				"element": "H" 
			},
			{
				"x": -3.3937951425,
				"y": -2.8695426779,
				"z": 0.4024416314,
				"element": "H" 
			},
			{
				"x": -3.9365299281,
				"y": -1.2710584642,
				"z": 0.9917535356,
				"element": "H" 
			},
			{
				"x": -1.8849214106,
				"y": -1.1815705305,
				"z": -0.0663643176,
				"element": "H" 
			}
		],
		 "valence_orbital": [ 
			{
				"type": "occ",
				"energy": -0.2633,
				"method": "rhf"
			},
			{
				"type": "occ",
				"energy": -0.25971,
				"method": "rhf"
			},
			{
				"type": "occ",
				"energy": -0.22032,
				"method": "rhf"
			},
			{
				"type": "occ",
				"energy": -0.21163,
				"method": "rhf"
			},
			{
				"type": "occ",
				"energy": -0.20529,
				"method": "rhf"
			},
			{
				"type": "unocc",
				"energy": -0.01158,
				"method": "rhf"
			},
			{
				"type": "unocc",
				"energy": 0.02681,
				"method": "rhf"
			},
			{
				"type": "unocc",
				"energy": 0.04448,
				"method": "rhf"
			},
			{
				"type": "unocc",
				"energy": 0.07147,
				"method": "rhf"
			},
			{
				"type": "unocc",
				"energy": 0.08806,
				"method": "rhf"
			}
		],
		"cosmo_sigma_profile": { 
			"-0.025": 0.0,
			"-0.024": 0.0,
			"-0.023": 0.0,
			"-0.022": 0.0,
			"-0.021": 0.0,
			"-0.02": 0.0,
			"-0.019": 0.0,
			"-0.018": 0.0,
			"-0.017": 0.0,
			"-0.016": 0.0,
			"-0.015": 0.0,
			"-0.014": 0.0,
			"-0.013": 0.0,
			"-0.012": 0.0,
			"-0.011": 0.0251401683395,
			"-0.01": 0.73147588819,
			"-0.009": 0.842042391446,
			"-0.008": 1.53740210937,
			"-0.007": 2.47133430904,
			"-0.006": 12.3321687551,
			"-0.005": 35.4871499259,
			"-0.004": 36.1816893539,
			"-0.003": 34.7398246052,
			"-0.002": 25.530506495,
			"-0.001": 21.1996311209,
			"0.0": 15.7637968317,
			"0.001": 10.8817790137,
			"0.002": 10.3718011927,
			"0.003": 11.4701392201,
			"0.004": 16.8469700993,
			"0.005": 19.8584607812,
			"0.006": 7.09922866833,
			"0.007": 5.5167099971,
			"0.008": 4.51810968899,
			"0.009": 4.42635432035,
			"0.01": 6.06049807109,
			"0.011": 3.53715075916,
			"0.012": 2.46361582343,
			"0.013": 3.91004231528,
			"0.014": 1.41630454712,
			"0.015": 0.224917517323,
			"0.016": 0.54337154403,
			"0.017": 0.631633637177,
			"0.018": 0.0196147955742,
			"0.019": 0.0,
			"0.02": 0.0,
			"0.021": 0.0,
			"0.022": 0.0,
			"0.023": 0.0,
			"0.024": 0.0,
			"0.025": 0.0
		}
	}
}
