{
	 "smiles": "CC(=O)C1=CC=CC(=C1)C(O)=O", 
	 "Tm": 441.15, 
	 "num_atms": 20, 
	 "gaussian": { 
		 "optdone": 1, 
		 "sigma_profile": "yes", 
		 "theory": "DFT", 
		 "functional": "B3LYP", 
		 "basiset": "6-31G**", 
		 "properties": { 
			 "R2extent": 2930.5462, 
			 "electric_dipole_moment_norm": 5.17152091362, 
			 "electric_quadrupole_moment_norm": 16.6764641075, 
			 "total_energy": -573.462728352, 
			 "HOMO_LUMO_gap": 0.18922, 
			 "cosmo_polarized_energy": -16.5, 
			 "cosmo_cavitation_energy": 24.87, 
			 "cosmo_dispersion_energy": -18.15, 
			 "cosmo_repulsion_energy": 1.43, 
			 "cosmo_total_nonelectrostatic_energy": 8.16, 
			 "SMD_solvation_energy": 6.2 
		},
		"coords": [
			{
				"x": -0.8989263775,
				"y": 1.2376940449,
				"z": -2.0841807478,
				"element": "C" 
			},
			{
				"x": -0.42484271,
				"y": 1.4225371712,
				"z": -0.6549273763,
				"element": "C" 
			},
			{
				"x": -0.167206041,
				"y": 2.5338670586,
				"z": -0.2182159608,
				"element": "O" 
			},
			{
				"x": -0.2760415904,
				"y": 0.2134272299,
				"z": 0.2246822033,
				"element": "C" 
			},
			{
				"x": -0.5613627547,
				"y": -1.0892773129,
				"z": -0.2051303664,
				"element": "C" 
			},
			{
				"x": -0.388972967,
				"y": -2.1713391477,
				"z": 0.6613891165,
				"element": "C" 
			},
			{
				"x": 0.0649797085,
				"y": -1.960809336,
				"z": 1.9596019961,
				"element": "C" 
			},
			{
				"x": 0.3381516338,
				"y": -0.659545001,
				"z": 2.4117537206,
				"element": "C" 
			},
			{
				"x": 0.1747359368,
				"y": 0.4149863119,
				"z": 1.5370362242,
				"element": "C" 
			},
			{
				"x": 0.8305066827,
				"y": -0.5096569148,
				"z": 3.8238807614,
				"element": "C" 
			},
			{
				"x": 0.8001078249,
				"y": 0.7348545517,
				"z": 4.3617182055,
				"element": "O" 
			},
			{
				"x": 1.2394233204,
				"y": -1.4415943931,
				"z": 4.4762874521,
				"element": "O" 
			},
			{
				"x": -1.8894541741,
				"y": 0.7701829786,
				"z": -2.1121929933,
				"element": "H" 
			},
			{
				"x": -0.2154786554,
				"y": 0.5891570319,
				"z": -2.6433726796,
				"element": "H" 
			},
			{
				"x": -0.9464487987,
				"y": 2.2144866431,
				"z": -2.5657976146,
				"element": "H" 
			},
			{
				"x": -0.9140578289,
				"y": -1.2672321907,
				"z": -1.2158053552,
				"element": "H" 
			},
			{
				"x": -0.6066806965,
				"y": -3.1785540936,
				"z": 0.3198015167,
				"element": "H" 
			},
			{
				"x": 0.2177883261,
				"y": -2.7860862465,
				"z": 2.6466049903,
				"element": "H" 
			},
			{
				"x": 0.4111540303,
				"y": 1.4397753769,
				"z": 1.8121001949,
				"element": "H" 
			},
			{
				"x": 0.3423251308,
				"y": 1.3519262375,
				"z": 3.7742667124,
				"element": "H" 
			}
		],
		 "valence_orbital": [ 
			{
				"type": "occ",
				"energy": -0.32022,
				"method": "rhf"
			},
			{
				"type": "occ",
				"energy": -0.28515,
				"method": "rhf"
			},
			{
				"type": "occ",
				"energy": -0.28031,
				"method": "rhf"
			},
			{
				"type": "occ",
				"energy": -0.27511,
				"method": "rhf"
			},
			{
				"type": "occ",
				"energy": -0.26481,
				"method": "rhf"
			},
			{
				"type": "unocc",
				"energy": -0.07559,
				"method": "rhf"
			},
			{
				"type": "unocc",
				"energy": -0.05604,
				"method": "rhf"
			},
			{
				"type": "unocc",
				"energy": 0.00811,
				"method": "rhf"
			},
			{
				"type": "unocc",
				"energy": 0.05317,
				"method": "rhf"
			},
			{
				"type": "unocc",
				"energy": 0.06267,
				"method": "rhf"
			}
		],
		"cosmo_sigma_profile": { 
			"-0.025": 0.0,
			"-0.024": 0.0,
			"-0.023": 0.0,
			"-0.022": 0.0,
			"-0.021": 0.0,
			"-0.02": 0.0,
			"-0.019": 0.558883606622,
			"-0.018": 0.740867653568,
			"-0.017": 0.916449008409,
			"-0.016": 0.984005625482,
			"-0.015": 0.934907319441,
			"-0.014": 0.65227520477,
			"-0.013": 1.25729657188,
			"-0.012": 1.28509661864,
			"-0.011": 0.99710244887,
			"-0.01": 0.698310240445,
			"-0.009": 1.02154168439,
			"-0.008": 1.93492716016,
			"-0.007": 10.0301042021,
			"-0.006": 14.9113919714,
			"-0.005": 13.0173446601,
			"-0.004": 12.1389876236,
			"-0.003": 11.9027259932,
			"-0.002": 13.5244588936,
			"-0.001": 15.3851495028,
			"0.0": 12.1770910586,
			"0.001": 14.7398811896,
			"0.002": 14.2152022126,
			"0.003": 5.53748015578,
			"0.004": 3.7019469837,
			"0.005": 3.61197499488,
			"0.006": 3.36853642221,
			"0.007": 4.24351056479,
			"0.008": 4.79848468903,
			"0.009": 4.51764071162,
			"0.01": 7.69222265176,
			"0.011": 8.78249844886,
			"0.012": 6.64952757236,
			"0.013": 2.02960900519,
			"0.014": 0.00597639846053,
			"0.015": 0.0,
			"0.016": 0.0,
			"0.017": 0.0,
			"0.018": 0.0,
			"0.019": 0.0,
			"0.02": 0.0,
			"0.021": 0.0,
			"0.022": 0.0,
			"0.023": 0.0,
			"0.024": 0.0,
			"0.025": 0.0
		}
	}
}
