{
	 "smiles": "NNC(=O)CNC1=CC=C(F)C=C1", 
	 "Tm": 354.65, 
	 "num_atms": 23, 
	 "gaussian": { 
		 "optdone": 1, 
		 "sigma_profile": "yes", 
		 "theory": "DFT", 
		 "functional": "B3LYP", 
		 "basiset": "6-31G**", 
		 "properties": { 
			 "R2extent": 4130.2416, 
			 "electric_dipole_moment_norm": 3.78295340442, 
			 "electric_quadrupole_moment_norm": 10.359207934, 
			 "total_energy": -650.164191384, 
			 "HOMO_LUMO_gap": 0.18745, 
			 "cosmo_polarized_energy": -16.69, 
			 "cosmo_cavitation_energy": 27.92, 
			 "cosmo_dispersion_energy": -20.34, 
			 "cosmo_repulsion_energy": 1.6, 
			 "cosmo_total_nonelectrostatic_energy": 9.19, 
			 "SMD_solvation_energy": 5.37 
		},
		"coords": [
			{
				"x": 0.2197468172,
				"y": -3.2076151317,
				"z": 1.0933316475,
				"element": "N" 
			},
			{
				"x": -0.7656533246,
				"y": -2.4034275686,
				"z": 1.6791219057,
				"element": "N" 
			},
			{
				"x": -0.9940418373,
				"y": -1.0758905284,
				"z": 1.4533123837,
				"element": "C" 
			},
			{
				"x": -1.9169514506,
				"y": -0.4798845645,
				"z": 1.9945977591,
				"element": "O" 
			},
			{
				"x": -0.0402903026,
				"y": -0.3817034022,
				"z": 0.4763974847,
				"element": "C" 
			},
			{
				"x": -0.3328504944,
				"y": 1.0216942126,
				"z": 0.4806489527,
				"element": "N" 
			},
			{
				"x": 0.0682250389,
				"y": 1.8736613407,
				"z": -0.5381532352,
				"element": "C" 
			},
			{
				"x": 1.0744590491,
				"y": 1.5233072187,
				"z": -1.4579202264,
				"element": "C" 
			},
			{
				"x": 1.474528711,
				"y": 2.4169311375,
				"z": -2.4541523405,
				"element": "C" 
			},
			{
				"x": 0.8715686422,
				"y": 3.6627381222,
				"z": -2.5356503687,
				"element": "C" 
			},
			{
				"x": 1.2574398725,
				"y": 4.529734728,
				"z": -3.5028157945,
				"element": "F" 
			},
			{
				"x": -0.1249164795,
				"y": 4.0402433646,
				"z": -1.6401728144,
				"element": "C" 
			},
			{
				"x": -0.5220396293,
				"y": 3.1499681679,
				"z": -0.6492821148,
				"element": "C" 
			},
			{
				"x": 1.1486149032,
				"y": -2.8847576166,
				"z": 1.3514729605,
				"element": "H" 
			},
			{
				"x": 0.1331609371,
				"y": -3.206398641,
				"z": 0.080220007,
				"element": "H" 
			},
			{
				"x": -1.4099386824,
				"y": -2.8732333227,
				"z": 2.3014780454,
				"element": "H" 
			},
			{
				"x": 1.0012708398,
				"y": -0.5875561227,
				"z": 0.7701375668,
				"element": "H" 
			},
			{
				"x": -0.1688984109,
				"y": -0.8409587205,
				"z": -0.5221233626,
				"element": "H" 
			},
			{
				"x": -1.2013640495,
				"y": 1.231781473,
				"z": 0.9592493464,
				"element": "H" 
			},
			{
				"x": 1.5611324054,
				"y": 0.5559559095,
				"z": -1.3949449214,
				"element": "H" 
			},
			{
				"x": 2.2505687053,
				"y": 2.1503447079,
				"z": -3.1639613486,
				"element": "H" 
			},
			{
				"x": -0.5806658466,
				"y": 5.0208908052,
				"z": -1.7277720553,
				"element": "H" 
			},
			{
				"x": -1.2992054139,
				"y": 3.4387744308,
				"z": 0.0533805226,
				"element": "H" 
			}
		],
		 "valence_orbital": [ 
			{
				"type": "occ",
				"energy": -0.2887,
				"method": "rhf"
			},
			{
				"type": "occ",
				"energy": -0.27611,
				"method": "rhf"
			},
			{
				"type": "occ",
				"energy": -0.26853,
				"method": "rhf"
			},
			{
				"type": "occ",
				"energy": -0.25217,
				"method": "rhf"
			},
			{
				"type": "occ",
				"energy": -0.19178,
				"method": "rhf"
			},
			{
				"type": "unocc",
				"energy": -0.00433,
				"method": "rhf"
			},
			{
				"type": "unocc",
				"energy": 0.01073,
				"method": "rhf"
			},
			{
				"type": "unocc",
				"energy": 0.02568,
				"method": "rhf"
			},
			{
				"type": "unocc",
				"energy": 0.04258,
				"method": "rhf"
			},
			{
				"type": "unocc",
				"energy": 0.089,
				"method": "rhf"
			}
		],
		"cosmo_sigma_profile": { 
			"-0.025": 0.0,
			"-0.024": 0.0,
			"-0.023": 0.0,
			"-0.022": 0.0,
			"-0.021": 0.0,
			"-0.02": 0.0,
			"-0.019": 0.0,
			"-0.018": 0.0,
			"-0.017": 0.0,
			"-0.016": 0.0,
			"-0.015": 0.0,
			"-0.014": 0.674140865768,
			"-0.013": 0.962552078529,
			"-0.012": 4.20590166313,
			"-0.011": 4.61447311937,
			"-0.01": 6.33445917932,
			"-0.009": 5.41613596711,
			"-0.008": 5.09258949559,
			"-0.007": 7.13899693342,
			"-0.006": 13.1330857485,
			"-0.005": 12.6490025011,
			"-0.004": 11.0541072139,
			"-0.003": 11.3651087339,
			"-0.002": 8.9451301974,
			"-0.001": 8.98857479001,
			"0.0": 10.4477957486,
			"0.001": 10.5026358482,
			"0.002": 12.9357332482,
			"0.003": 15.015999868,
			"0.004": 14.6234848509,
			"0.005": 23.6944542025,
			"0.006": 10.1081998642,
			"0.007": 2.20092448874,
			"0.008": 2.60655029439,
			"0.009": 2.95313871824,
			"0.01": 2.84172130518,
			"0.011": 2.31152537492,
			"0.012": 3.81558356647,
			"0.013": 4.44540487223,
			"0.014": 1.10256747476,
			"0.015": 0.869680984167,
			"0.016": 0.0509911812862,
			"0.017": 0.0,
			"0.018": 0.0,
			"0.019": 0.0,
			"0.02": 0.0,
			"0.021": 0.0,
			"0.022": 0.0,
			"0.023": 0.0,
			"0.024": 0.0,
			"0.025": 0.0
		}
	}
}
