{
	 "smiles": "IC1=CN=CN=C1", 
	 "Tm": 431.15, 
	 "num_atms": 10, 
	 "gaussian": { 
		 "optdone": 1, 
		 "sigma_profile": "yes", 
		 "theory": "DFT", 
		 "functional": "B3LYP", 
		 "basiset": "6-31G**", 
		 "properties": { 
			 "R2extent": 1080.8983, 
			 "electric_dipole_moment_norm": 0.913401992553, 
			 "electric_quadrupole_moment_norm": 1.11109616596, 
			 "total_energy": -275.104642746, 
			 "HOMO_LUMO_gap": 0.20719, 
			 "cosmo_polarized_energy": -5.85, 
			 "cosmo_cavitation_energy": 17.71, 
			 "cosmo_dispersion_energy": -14.82, 
			 "cosmo_repulsion_energy": 1.19, 
			 "cosmo_total_nonelectrostatic_energy": 4.09, 
			 "SMD_solvation_energy": -0.45 
		},
		"coords": [
			{
				"x": 0.6898336662,
				"y": 1.1708080545,
				"z": 1.3915736702,
				"element": "I" 
			},
			{
				"x": 0.8218636356,
				"y": -0.0065906509,
				"z": -0.3528777852,
				"element": "C" 
			},
			{
				"x": 1.7893546045,
				"y": 0.24529173,
				"z": -1.3276244573,
				"element": "C" 
			},
			{
				"x": 1.8758012119,
				"y": -0.4992900759,
				"z": -2.4346927911,
				"element": "N" 
			},
			{
				"x": 0.9884361869,
				"y": -1.4918084229,
				"z": -2.5532588623,
				"element": "C" 
			},
			{
				"x": 0.0263697953,
				"y": -1.8180049088,
				"z": -1.6845911724,
				"element": "N" 
			},
			{
				"x": -0.0546379743,
				"y": -1.0695507208,
				"z": -0.5797248809,
				"element": "C" 
			},
			{
				"x": 2.5051949413,
				"y": 1.0564033069,
				"z": -1.2181108386,
				"element": "H" 
			},
			{
				"x": 1.0566025287,
				"y": -2.0992221305,
				"z": -3.4530596091,
				"element": "H" 
			},
			{
				"x": -0.8329185961,
				"y": -1.3238361816,
				"z": 0.1357667266,
				"element": "H" 
			}
		],
		 "valence_orbital": [ 
			{
				"type": "occ",
				"energy": -0.33324,
				"method": "rhf"
			},
			{
				"type": "occ",
				"energy": -0.31472,
				"method": "rhf"
			},
			{
				"type": "occ",
				"energy": -0.29004,
				"method": "rhf"
			},
			{
				"type": "occ",
				"energy": -0.2662,
				"method": "rhf"
			},
			{
				"type": "occ",
				"energy": -0.26507,
				"method": "rhf"
			},
			{
				"type": "unocc",
				"energy": -0.05788,
				"method": "rhf"
			},
			{
				"type": "unocc",
				"energy": -0.05465,
				"method": "rhf"
			},
			{
				"type": "unocc",
				"energy": -0.04763,
				"method": "rhf"
			},
			{
				"type": "unocc",
				"energy": 0.03615,
				"method": "rhf"
			},
			{
				"type": "unocc",
				"energy": 0.04032,
				"method": "rhf"
			}
		],
		"cosmo_sigma_profile": { 
			"-0.025": 0.0,
			"-0.024": 0.0,
			"-0.023": 0.0,
			"-0.022": 0.0,
			"-0.021": 0.0,
			"-0.02": 0.0,
			"-0.019": 0.0,
			"-0.018": 0.0,
			"-0.017": 0.0,
			"-0.016": 0.0,
			"-0.015": 0.0,
			"-0.014": 0.0,
			"-0.013": 0.0,
			"-0.012": 0.0,
			"-0.011": 0.0,
			"-0.01": 0.0,
			"-0.009": 1.00402103075,
			"-0.008": 6.35849889652,
			"-0.007": 7.05678804372,
			"-0.006": 6.47919712491,
			"-0.005": 7.06250102026,
			"-0.004": 7.31889995115,
			"-0.003": 10.0899351338,
			"-0.002": 15.402564171,
			"-0.001": 15.7694583384,
			"0.0": 10.6678180793,
			"0.001": 9.00299678389,
			"0.002": 10.4233952463,
			"0.003": 13.8102098521,
			"0.004": 8.15983940689,
			"0.005": 2.41698639577,
			"0.006": 3.05832029773,
			"0.007": 1.75653928365,
			"0.008": 1.83184307057,
			"0.009": 2.00705615666,
			"0.01": 1.33630395528,
			"0.011": 1.79418842026,
			"0.012": 2.22634615116,
			"0.013": 1.57836145941,
			"0.014": 1.407341106,
			"0.015": 0.516555987525,
			"0.016": 0.0,
			"0.017": 0.0,
			"0.018": 0.0,
			"0.019": 0.0,
			"0.02": 0.0,
			"0.021": 0.0,
			"0.022": 0.0,
			"0.023": 0.0,
			"0.024": 0.0,
			"0.025": 0.0
		}
	}
}
