{
	 "smiles": "CCCCCCC(=O)OCCC", 
	 "Tm": 209.65, 
	 "num_atms": 32, 
	 "gaussian": { 
		 "optdone": 1, 
		 "sigma_profile": "yes", 
		 "theory": "DFT", 
		 "functional": "B3LYP", 
		 "basiset": "6-31G**", 
		 "properties": { 
			 "R2extent": 4127.8987, 
			 "electric_dipole_moment_norm": 1.89300339936, 
			 "electric_quadrupole_moment_norm": 5.71971751575, 
			 "total_energy": -543.60490629, 
			 "HOMO_LUMO_gap": 0.27691, 
			 "cosmo_polarized_energy": -6.35, 
			 "cosmo_cavitation_energy": 33.73, 
			 "cosmo_dispersion_energy": -23.46, 
			 "cosmo_repulsion_energy": 1.96, 
			 "cosmo_total_nonelectrostatic_energy": 12.24, 
			 "SMD_solvation_energy": 6.03 
		},
		"coords": [
			{
				"x": -2.6890677587,
				"y": -3.4637698758,
				"z": -2.9489417437,
				"element": "C" 
			},
			{
				"x": -1.9520968335,
				"y": -3.2884670655,
				"z": -1.6155522399,
				"element": "C" 
			},
			{
				"x": -0.7040977993,
				"y": -2.3914134524,
				"z": -1.6843409184,
				"element": "C" 
			},
			{
				"x": -1.0067811864,
				"y": -0.9121414188,
				"z": -1.965332951,
				"element": "C" 
			},
			{
				"x": 0.2372916776,
				"y": -0.0265538742,
				"z": -2.1492110144,
				"element": "C" 
			},
			{
				"x": 1.2094777013,
				"y": 0.0061769193,
				"z": -0.947119919,
				"element": "C" 
			},
			{
				"x": 0.5264235579,
				"y": 0.4501264555,
				"z": 0.3288780984,
				"element": "C" 
			},
			{
				"x": 0.1556172683,
				"y": -0.2861684244,
				"z": 1.2199785593,
				"element": "O" 
			},
			{
				"x": 0.3386720794,
				"y": 1.7901557002,
				"z": 0.3444603365,
				"element": "O" 
			},
			{
				"x": -0.3537895464,
				"y": 2.318999126,
				"z": 1.4966150755,
				"element": "C" 
			},
			{
				"x": -0.4689115973,
				"y": 3.8250153331,
				"z": 1.3193348582,
				"element": "C" 
			},
			{
				"x": -1.1925827443,
				"y": 4.4849755331,
				"z": 2.4977278785,
				"element": "C" 
			},
			{
				"x": -3.0822903674,
				"y": -2.5156057008,
				"z": -3.3301931148,
				"element": "H" 
			},
			{
				"x": -2.0232809379,
				"y": -3.8774968603,
				"z": -3.7156635611,
				"element": "H" 
			},
			{
				"x": -3.5371551637,
				"y": -4.1484176193,
				"z": -2.8427613881,
				"element": "H" 
			},
			{
				"x": -2.643473962,
				"y": -2.8842819314,
				"z": -0.8636141202,
				"element": "H" 
			},
			{
				"x": -1.6505620358,
				"y": -4.2766618601,
				"z": -1.2457200868,
				"element": "H" 
			},
			{
				"x": -0.0234825861,
				"y": -2.7788217973,
				"z": -2.4574703087,
				"element": "H" 
			},
			{
				"x": -0.1712468181,
				"y": -2.4681237537,
				"z": -0.7296644598,
				"element": "H" 
			},
			{
				"x": -1.6234802986,
				"y": -0.5165220572,
				"z": -1.1466991846,
				"element": "H" 
			},
			{
				"x": -1.6148887953,
				"y": -0.8210683325,
				"z": -2.8736847391,
				"element": "H" 
			},
			{
				"x": -0.0801198167,
				"y": 0.9999981667,
				"z": -2.3659781141,
				"element": "H" 
			},
			{
				"x": 0.8026019071,
				"y": -0.3699622142,
				"z": -3.0249607772,
				"element": "H" 
			},
			{
				"x": 2.0296476549,
				"y": 0.6958854253,
				"z": -1.1710069774,
				"element": "H" 
			},
			{
				"x": 1.6320130044,
				"y": -0.9834140359,
				"z": -0.7607288425,
				"element": "H" 
			},
			{
				"x": 0.2067750281,
				"y": 2.0569789009,
				"z": 2.4007487575,
				"element": "H" 
			},
			{
				"x": -1.3368188833,
				"y": 1.8411929405,
				"z": 1.5733966749,
				"element": "H" 
			},
			{
				"x": 0.5367495471,
				"y": 4.2474067046,
				"z": 1.2082979272,
				"element": "H" 
			},
			{
				"x": -1.0014479759,
				"y": 4.0330171254,
				"z": 0.383734419,
				"element": "H" 
			},
			{
				"x": -1.266781947,
				"y": 5.5669084261,
				"z": 2.3544073425,
				"element": "H" 
			},
			{
				"x": -2.2099966884,
				"y": 4.0945707637,
				"z": 2.6117528126,
				"element": "H" 
			},
			{
				"x": -0.6628156839,
				"y": 4.3104827531,
				"z": 3.4408117209,
				"element": "H" 
			}
		],
		 "valence_orbital": [ 
			{
				"type": "occ",
				"energy": -0.31719,
				"method": "rhf"
			},
			{
				"type": "occ",
				"energy": -0.31316,
				"method": "rhf"
			},
			{
				"type": "occ",
				"energy": -0.30569,
				"method": "rhf"
			},
			{
				"type": "occ",
				"energy": -0.29416,
				"method": "rhf"
			},
			{
				"type": "occ",
				"energy": -0.2616,
				"method": "rhf"
			},
			{
				"type": "unocc",
				"energy": 0.01531,
				"method": "rhf"
			},
			{
				"type": "unocc",
				"energy": 0.0879,
				"method": "rhf"
			},
			{
				"type": "unocc",
				"energy": 0.09032,
				"method": "rhf"
			},
			{
				"type": "unocc",
				"energy": 0.10794,
				"method": "rhf"
			},
			{
				"type": "unocc",
				"energy": 0.11821,
				"method": "rhf"
			}
		],
		"cosmo_sigma_profile": { 
			"-0.025": 0.0,
			"-0.024": 0.0,
			"-0.023": 0.0,
			"-0.022": 0.0,
			"-0.021": 0.0,
			"-0.02": 0.0,
			"-0.019": 0.0,
			"-0.018": 0.0,
			"-0.017": 0.0,
			"-0.016": 0.0,
			"-0.015": 0.0,
			"-0.014": 0.0,
			"-0.013": 0.0,
			"-0.012": 0.0,
			"-0.011": 0.0,
			"-0.01": 0.0,
			"-0.009": 0.0,
			"-0.008": 0.0,
			"-0.007": 0.0,
			"-0.006": 0.180210804224,
			"-0.005": 4.01470804924,
			"-0.004": 12.3430288301,
			"-0.003": 31.3844572249,
			"-0.002": 42.8987765927,
			"-0.001": 47.6538398988,
			"0.0": 42.8743874453,
			"0.001": 34.0264893196,
			"0.002": 12.5374057613,
			"0.003": 4.1443323908,
			"0.004": 4.10098293789,
			"0.005": 3.36572116174,
			"0.006": 3.29530067723,
			"0.007": 2.90209722398,
			"0.008": 2.05391278348,
			"0.009": 1.80599945446,
			"0.01": 2.20092491865,
			"0.011": 2.07106758218,
			"0.012": 4.23563077459,
			"0.013": 2.05279414575,
			"0.014": 0.0,
			"0.015": 0.0,
			"0.016": 0.0,
			"0.017": 0.0,
			"0.018": 0.0,
			"0.019": 0.0,
			"0.02": 0.0,
			"0.021": 0.0,
			"0.022": 0.0,
			"0.023": 0.0,
			"0.024": 0.0,
			"0.025": 0.0
		}
	}
}
