{
	 "smiles": "ClS(=O)(=O)C1=C(C=CC=C1)C1=CC=NO1", 
	 "Tm": 348.15, 
	 "num_atms": 21, 
	 "gaussian": { 
		 "optdone": 1, 
		 "sigma_profile": "yes", 
		 "theory": "DFT", 
		 "functional": "B3LYP", 
		 "basiset": "6-31G**", 
		 "properties": { 
			 "R2extent": 5417.4738, 
			 "electric_dipole_moment_norm": 3.75299078736, 
			 "electric_quadrupole_moment_norm": 22.518208649, 
			 "total_energy": -1485.24458635, 
			 "HOMO_LUMO_gap": 0.16113, 
			 "cosmo_polarized_energy": -10.9, 
			 "cosmo_cavitation_energy": 28.69, 
			 "cosmo_dispersion_energy": -21.59, 
			 "cosmo_repulsion_energy": 1.62, 
			 "cosmo_total_nonelectrostatic_energy": 8.72, 
			 "SMD_solvation_energy": 3.6 
		},
		"coords": [
			{
				"x": -1.9640484627,
				"y": 3.5723082798,
				"z": -0.1084536552,
				"element": "Cl" 
			},
			{
				"x": -1.8040478458,
				"y": 1.6369881365,
				"z": 0.7478219476,
				"element": "S" 
			},
			{
				"x": -0.4213572698,
				"y": 1.4778933498,
				"z": 1.187844816,
				"element": "O" 
			},
			{
				"x": -2.8995855785,
				"y": 1.5291753153,
				"z": 1.7026740221,
				"element": "O" 
			},
			{
				"x": -2.1554902944,
				"y": 0.5675550883,
				"z": -0.6603509665,
				"element": "C" 
			},
			{
				"x": -1.3685863093,
				"y": 0.4896970743,
				"z": -1.8340534031,
				"element": "C" 
			},
			{
				"x": -1.8101272441,
				"y": -0.4085104566,
				"z": -2.8253543453,
				"element": "C" 
			},
			{
				"x": -2.9493700701,
				"y": -1.1897752088,
				"z": -2.6596659777,
				"element": "C" 
			},
			{
				"x": -3.69998533,
				"y": -1.0981625308,
				"z": -1.489354028,
				"element": "C" 
			},
			{
				"x": -3.3048896494,
				"y": -0.2107560686,
				"z": -0.4919602817,
				"element": "C" 
			},
			{
				"x": -0.1616430264,
				"y": 1.2696949537,
				"z": -2.1464880753,
				"element": "C" 
			},
			{
				"x": 0.9062940108,
				"y": 1.7819614832,
				"z": -1.4594161758,
				"element": "C" 
			},
			{
				"x": 1.7292840859,
				"y": 2.3307639478,
				"z": -2.4767170632,
				"element": "C" 
			},
			{
				"x": 1.2202885898,
				"y": 2.1723189831,
				"z": -3.6764581715,
				"element": "N" 
			},
			{
				"x": 0.0224035141,
				"y": 1.4989019673,
				"z": -3.4768162271,
				"element": "O" 
			},
			{
				"x": -1.2320956332,
				"y": -0.483206228,
				"z": -3.7384882226,
				"element": "H" 
			},
			{
				"x": -3.247271874,
				"y": -1.8716099956,
				"z": -3.4500937567,
				"element": "H" 
			},
			{
				"x": -4.5897033405,
				"y": -1.70328642,
				"z": -1.3499161395,
				"element": "H" 
			},
			{
				"x": -3.8832471663,
				"y": -0.10592654,
				"z": 0.4174785264,
				"element": "H" 
			},
			{
				"x": 1.082786483,
				"y": 1.7587700562,
				"z": -0.3985194879,
				"element": "H" 
			},
			{
				"x": 2.6806924109,
				"y": 2.8362048132,
				"z": -2.371213335,
				"element": "H" 
			}
		],
		 "valence_orbital": [ 
			{
				"type": "occ",
				"energy": -0.31941,
				"method": "rhf"
			},
			{
				"type": "occ",
				"energy": -0.31336,
				"method": "rhf"
			},
			{
				"type": "occ",
				"energy": -0.3066,
				"method": "rhf"
			},
			{
				"type": "occ",
				"energy": -0.29694,
				"method": "rhf"
			},
			{
				"type": "occ",
				"energy": -0.2586,
				"method": "rhf"
			},
			{
				"type": "unocc",
				"energy": -0.09747,
				"method": "rhf"
			},
			{
				"type": "unocc",
				"energy": -0.07012,
				"method": "rhf"
			},
			{
				"type": "unocc",
				"energy": -0.0483,
				"method": "rhf"
			},
			{
				"type": "unocc",
				"energy": -0.00383,
				"method": "rhf"
			},
			{
				"type": "unocc",
				"energy": 0.03944,
				"method": "rhf"
			}
		],
		"cosmo_sigma_profile": { 
			"-0.025": 0.0,
			"-0.024": 0.0,
			"-0.023": 0.0,
			"-0.022": 0.0,
			"-0.021": 0.0,
			"-0.02": 0.0,
			"-0.019": 0.0,
			"-0.018": 0.0,
			"-0.017": 0.0,
			"-0.016": 0.0,
			"-0.015": 0.0,
			"-0.014": 0.0,
			"-0.013": 0.0,
			"-0.012": 0.0,
			"-0.011": 0.0,
			"-0.01": 0.979539994293,
			"-0.009": 2.36343665591,
			"-0.008": 8.49372891239,
			"-0.007": 11.638675336,
			"-0.006": 11.3727220382,
			"-0.005": 10.3595588639,
			"-0.004": 10.9870944323,
			"-0.003": 11.1128250753,
			"-0.002": 17.8742848152,
			"-0.001": 21.9209511312,
			"0.0": 24.4749421005,
			"0.001": 26.00404772,
			"0.002": 16.5972045507,
			"0.003": 13.7285078497,
			"0.004": 6.34590245532,
			"0.005": 6.53735217504,
			"0.006": 6.25394159686,
			"0.007": 9.13360658135,
			"0.008": 8.92599703381,
			"0.009": 4.11381323589,
			"0.01": 1.50447773145,
			"0.011": 1.11335836251,
			"0.012": 1.73637629564,
			"0.013": 1.07195824744,
			"0.014": 0.254240793985,
			"0.015": 0.0,
			"0.016": 0.0,
			"0.017": 0.0,
			"0.018": 0.0,
			"0.019": 0.0,
			"0.02": 0.0,
			"0.021": 0.0,
			"0.022": 0.0,
			"0.023": 0.0,
			"0.024": 0.0,
			"0.025": 0.0
		}
	}
}
