{
	 "smiles": "FC(F)(F)C(F)(F)C(F)(F)C(F)(F)C(F)(F)C(F)(F)C(F)(F)COC(=O)C=CC(=O)OCC(F)(F)C(F)(F)C(F)(F)C(F)(F)C(F)(F)C(F)(F)C(F)(F)F", 
	 "Tm": 356.15, 
	 "num_atms": 60, 
	 "gaussian": { 
		 "optdone": 1, 
		 "sigma_profile": "yes", 
		 "theory": "DFT", 
		 "functional": "B3LYP", 
		 "basiset": "6-31G**", 
		 "properties": { 
			 "R2extent": 34293.8598, 
			 "electric_dipole_moment_norm": 1.65897151573, 
			 "electric_quadrupole_moment_norm": 10.9699891194, 
			 "total_energy": -4061.72975567, 
			 "HOMO_LUMO_gap": 0.1985, 
			 "cosmo_polarized_energy": -11.61, 
			 "cosmo_cavitation_energy": 72.93, 
			 "cosmo_dispersion_energy": -42.45, 
			 "cosmo_repulsion_energy": 2.59, 
			 "cosmo_total_nonelectrostatic_energy": 33.07, 
			 "SMD_solvation_energy": 22.22 
		},
		"coords": [
			{
				"x": -2.5499909268,
				"y": -0.4228929105,
				"z": -1.3504889398,
				"element": "F" 
			},
			{
				"x": -2.3353691732,
				"y": 0.8753322929,
				"z": -1.0996660567,
				"element": "C" 
			},
			{
				"x": -1.4848253114,
				"y": 0.9851204927,
				"z": -0.0749092113,
				"element": "F" 
			},
			{
				"x": -3.4970948843,
				"y": 1.4500951714,
				"z": -0.7722954838,
				"element": "F" 
			},
			{
				"x": -1.7421075387,
				"y": 1.5217950994,
				"z": -2.3782569265,
				"element": "C" 
			},
			{
				"x": -2.5429406083,
				"y": 1.1629432839,
				"z": -3.408020017,
				"element": "F" 
			},
			{
				"x": -0.5103307678,
				"y": 0.9926705204,
				"z": -2.580825258,
				"element": "F" 
			},
			{
				"x": -1.6390753284,
				"y": 3.072024677,
				"z": -2.4418392147,
				"element": "C" 
			},
			{
				"x": -1.1796098859,
				"y": 3.3737561056,
				"z": -3.6772500251,
				"element": "F" 
			},
			{
				"x": -2.8912872762,
				"y": 3.5691175941,
				"z": -2.311708397,
				"element": "F" 
			},
			{
				"x": -0.7641939792,
				"y": 3.8409578323,
				"z": -1.4029160246,
				"element": "C" 
			},
			{
				"x": -1.3287834162,
				"y": 3.6844854654,
				"z": -0.1849833554,
				"element": "F" 
			},
			{
				"x": -0.8442538912,
				"y": 5.1442020111,
				"z": -1.7626137472,
				"element": "F" 
			},
			{
				"x": 0.7413126105,
				"y": 3.4467866738,
				"z": -1.3103500257,
				"element": "C" 
			},
			{
				"x": 0.8246502066,
				"y": 2.3142689764,
				"z": -0.5699794924,
				"element": "F" 
			},
			{
				"x": 1.2113049006,
				"y": 3.1979545723,
				"z": -2.556539047,
				"element": "F" 
			},
			{
				"x": 1.6344212322,
				"y": 4.5500843764,
				"z": -0.6733805497,
				"element": "C" 
			},
			{
				"x": 0.9673851021,
				"y": 5.0804165633,
				"z": 0.3794175386,
				"element": "F" 
			},
			{
				"x": 1.8286613467,
				"y": 5.5127964604,
				"z": -1.6091031456,
				"element": "F" 
			},
			{
				"x": 3.0390642585,
				"y": 4.1160080939,
				"z": -0.1584298232,
				"element": "C" 
			},
			{
				"x": 3.6103784263,
				"y": 5.2680427826,
				"z": 0.2987683907,
				"element": "F" 
			},
			{
				"x": 2.8680344914,
				"y": 3.2791259417,
				"z": 0.8933026862,
				"element": "F" 
			},
			{
				"x": 4.0119366637,
				"y": 3.51954335,
				"z": -1.1669184342,
				"element": "C" 
			},
			{
				"x": 3.5709753301,
				"y": 2.202552629,
				"z": -1.4788219751,
				"element": "O" 
			},
			{
				"x": 4.4700897065,
				"y": 1.403431558,
				"z": -2.1136790513,
				"element": "C" 
			},
			{
				"x": 5.5884603521,
				"y": 1.7627553447,
				"z": -2.4093941896,
				"element": "O" 
			},
			{
				"x": 3.9203543419,
				"y": 0.0556033541,
				"z": -2.3926234422,
				"element": "C" 
			},
			{
				"x": 2.6598892338,
				"y": -0.3010333445,
				"z": -2.1165314151,
				"element": "C" 
			},
			{
				"x": 2.1710614836,
				"y": -1.6685297431,
				"z": -2.4178572727,
				"element": "C" 
			},
			{
				"x": 2.8136242682,
				"y": -2.5708200234,
				"z": -2.9046192687,
				"element": "O" 
			},
			{
				"x": 0.8539232518,
				"y": -1.7577036679,
				"z": -2.0694100444,
				"element": "O" 
			},
			{
				"x": 0.2297566575,
				"y": -3.029011138,
				"z": -2.2072236276,
				"element": "C" 
			},
			{
				"x": 0.0782420911,
				"y": -3.7101590018,
				"z": -0.8449357814,
				"element": "C" 
			},
			{
				"x": -0.3416440876,
				"y": -4.9829943692,
				"z": -1.0828505141,
				"element": "F" 
			},
			{
				"x": 1.2760382419,
				"y": -3.7533073257,
				"z": -0.2063215626,
				"element": "F" 
			},
			{
				"x": -0.9531380921,
				"y": -3.0354213188,
				"z": 0.0963177747,
				"element": "C" 
			},
			{
				"x": -2.1673001696,
				"y": -3.1223469437,
				"z": -0.5077903451,
				"element": "F" 
			},
			{
				"x": -0.6219527857,
				"y": -1.7270414937,
				"z": 0.2307101885,
				"element": "F" 
			},
			{
				"x": -1.0536609638,
				"y": -3.6333814488,
				"z": 1.5252094271,
				"element": "C" 
			},
			{
				"x": -1.1232135246,
				"y": -4.9827847513,
				"z": 1.4355872574,
				"element": "F" 
			},
			{
				"x": 0.0586346022,
				"y": -3.2970612734,
				"z": 2.2115548995,
				"element": "F" 
			},
			{
				"x": -2.3000509484,
				"y": -3.2083052524,
				"z": 2.3715636758,
				"element": "C" 
			},
			{
				"x": -2.1214419921,
				"y": -3.7657646187,
				"z": 3.5932386089,
				"element": "F" 
			},
			{
				"x": -3.4031879789,
				"y": -3.745245441,
				"z": 1.801423646,
				"element": "F" 
			},
			{
				"x": -2.5427320983,
				"y": -1.6879191513,
				"z": 2.5581934648,
				"element": "C" 
			},
			{
				"x": -3.0272579902,
				"y": -1.1871826472,
				"z": 1.3964892339,
				"element": "F" 
			},
			{
				"x": -1.3641639458,
				"y": -1.0882594106,
				"z": 2.8440042205,
				"element": "F" 
			},
			{
				"x": -3.5216357204,
				"y": -1.2740179856,
				"z": 3.6997813427,
				"element": "C" 
			},
			{
				"x": -2.9594864368,
				"y": -1.5740034601,
				"z": 4.8895302867,
				"element": "F" 
			},
			{
				"x": -3.6561882171,
				"y": 0.0695785933,
				"z": 3.6021637153,
				"element": "F" 
			},
			{
				"x": -4.9453772556,
				"y": -1.8810160863,
				"z": 3.6731382298,
				"element": "C" 
			},
			{
				"x": -4.9042249812,
				"y": -3.1827697585,
				"z": 3.9844331945,
				"element": "F" 
			},
			{
				"x": -5.4979138749,
				"y": -1.7346116554,
				"z": 2.4627167249,
				"element": "F" 
			},
			{
				"x": -5.7022539103,
				"y": -1.2479746301,
				"z": 4.5759995741,
				"element": "F" 
			},
			{
				"x": 5.0025346702,
				"y": 3.4995440741,
				"z": -0.7056092422,
				"element": "H" 
			},
			{
				"x": 4.0554906931,
				"y": 4.1449348261,
				"z": -2.0631227305,
				"element": "H" 
			},
			{
				"x": 4.6132752924,
				"y": -0.6415671104,
				"z": -2.852526405,
				"element": "H" 
			},
			{
				"x": 1.955964804,
				"y": 0.3856923041,
				"z": -1.6639112363,
				"element": "H" 
			},
			{
				"x": 0.8320836872,
				"y": -3.6904402982,
				"z": -2.8339977879,
				"element": "H" 
			},
			{
				"x": -0.7561599853,
				"y": -2.8723547604,
				"z": -2.6480450138,
				"element": "H" 
			}
		],
		 "valence_orbital": [ 
			{
				"type": "occ",
				"energy": -0.33559,
				"method": "rhf"
			},
			{
				"type": "occ",
				"energy": -0.32547,
				"method": "rhf"
			},
			{
				"type": "occ",
				"energy": -0.31389,
				"method": "rhf"
			},
			{
				"type": "occ",
				"energy": -0.31158,
				"method": "rhf"
			},
			{
				"type": "occ",
				"energy": -0.30237,
				"method": "rhf"
			},
			{
				"type": "unocc",
				"energy": -0.10387,
				"method": "rhf"
			},
			{
				"type": "unocc",
				"energy": 0.00137,
				"method": "rhf"
			},
			{
				"type": "unocc",
				"energy": 0.00968,
				"method": "rhf"
			},
			{
				"type": "unocc",
				"energy": 0.01136,
				"method": "rhf"
			},
			{
				"type": "unocc",
				"energy": 0.013,
				"method": "rhf"
			}
		],
		"cosmo_sigma_profile": { 
			"-0.025": 0.0,
			"-0.024": 0.0,
			"-0.023": 0.0,
			"-0.022": 0.0,
			"-0.021": 0.0,
			"-0.02": 0.0,
			"-0.019": 0.0,
			"-0.018": 0.0,
			"-0.017": 0.0,
			"-0.016": 0.0,
			"-0.015": 0.0,
			"-0.014": 0.0,
			"-0.013": 0.0,
			"-0.012": 0.0,
			"-0.011": 0.0,
			"-0.01": 0.829542514318,
			"-0.009": 5.74884372883,
			"-0.008": 9.03724441119,
			"-0.007": 8.84951867989,
			"-0.006": 9.2593063919,
			"-0.005": 13.1630312515,
			"-0.004": 16.6345686847,
			"-0.003": 23.2186596132,
			"-0.002": 34.4892942373,
			"-0.001": 59.0504960089,
			"0.0": 118.804402996,
			"0.001": 183.316551018,
			"0.002": 59.0326191813,
			"0.003": 14.215212396,
			"0.004": 3.35241675461,
			"0.005": 2.37339053749,
			"0.006": 2.72976978129,
			"0.007": 2.55477479958,
			"0.008": 3.58421331029,
			"0.009": 4.26183005807,
			"0.01": 8.14214770765,
			"0.011": 3.20724892163,
			"0.012": 0.133226196562,
			"0.013": 0.0,
			"0.014": 0.0,
			"0.015": 0.0,
			"0.016": 0.0,
			"0.017": 0.0,
			"0.018": 0.0,
			"0.019": 0.0,
			"0.02": 0.0,
			"0.021": 0.0,
			"0.022": 0.0,
			"0.023": 0.0,
			"0.024": 0.0,
			"0.025": 0.0
		}
	}
}
