{
	 "smiles": "CCOC1CCN(CC1)C(=O)NC1=CC(=CC=C1)C(C)=O", 
	 "Tm": 369.15, 
	 "num_atms": 43, 
	 "gaussian": { 
		 "optdone": 1, 
		 "sigma_profile": "yes", 
		 "theory": "DFT", 
		 "functional": "B3LYP", 
		 "basiset": "6-31G**", 
		 "properties": { 
			 "R2extent": 11063.7802, 
			 "electric_dipole_moment_norm": 3.27441072103, 
			 "electric_quadrupole_moment_norm": 23.5185414952, 
			 "total_energy": -958.155479642, 
			 "HOMO_LUMO_gap": 0.1665, 
			 "cosmo_polarized_energy": -18.63, 
			 "cosmo_cavitation_energy": 44.6, 
			 "cosmo_dispersion_energy": -31.2, 
			 "cosmo_repulsion_energy": 2.42, 
			 "cosmo_total_nonelectrostatic_energy": 15.83, 
			 "SMD_solvation_energy": 8.29 
		},
		"coords": [
			{
				"x": 2.5518071731,
				"y": 5.7333887186,
				"z": 0.8053185375,
				"element": "C" 
			},
			{
				"x": 1.6763648683,
				"y": 4.4970409683,
				"z": 0.9325281649,
				"element": "C" 
			},
			{
				"x": 1.0726151415,
				"y": 4.2507769475,
				"z": -0.3292742725,
				"element": "O" 
			},
			{
				"x": 0.1127803052,
				"y": 3.199841948,
				"z": -0.3385344532,
				"element": "C" 
			},
			{
				"x": -0.6231098702,
				"y": 3.2712264632,
				"z": -1.6885944037,
				"element": "C" 
			},
			{
				"x": 0.0298771343,
				"y": 2.3915408871,
				"z": -2.7521011359,
				"element": "C" 
			},
			{
				"x": -0.0356449501,
				"y": 0.9792661431,
				"z": -2.3337161898,
				"element": "N" 
			},
			{
				"x": 0.0157641403,
				"y": 0.7047586213,
				"z": -0.8883686453,
				"element": "C" 
			},
			{
				"x": 0.7788148647,
				"y": 1.8146557875,
				"z": -0.1568534761,
				"element": "C" 
			},
			{
				"x": 0.2952621439,
				"y": 0.0551589092,
				"z": -3.2946716661,
				"element": "C" 
			},
			{
				"x": 0.7051042949,
				"y": 0.3693308399,
				"z": -4.4077959204,
				"element": "O" 
			},
			{
				"x": 0.1896376554,
				"y": -1.3055480098,
				"z": -2.9403745257,
				"element": "N" 
			},
			{
				"x": -0.8973714509,
				"y": -1.9653287969,
				"z": -2.3196202158,
				"element": "C" 
			},
			{
				"x": -0.7293242136,
				"y": -3.3119005812,
				"z": -1.9625027141,
				"element": "C" 
			},
			{
				"x": -1.7716000307,
				"y": -4.0360610394,
				"z": -1.3729740196,
				"element": "C" 
			},
			{
				"x": -2.9977843522,
				"y": -3.4025234247,
				"z": -1.1188978859,
				"element": "C" 
			},
			{
				"x": -3.166635208,
				"y": -2.0678586376,
				"z": -1.4697929647,
				"element": "C" 
			},
			{
				"x": -2.1336953836,
				"y": -1.3489432965,
				"z": -2.0757986847,
				"element": "C" 
			},
			{
				"x": -1.6263646175,
				"y": -5.4793404642,
				"z": -0.9840528808,
				"element": "C" 
			},
			{
				"x": -0.3138641438,
				"y": -6.1912080427,
				"z": -1.2672993746,
				"element": "C" 
			},
			{
				"x": -2.550086439,
				"y": -6.0727821392,
				"z": -0.448742511,
				"element": "O" 
			},
			{
				"x": 3.3284526553,
				"y": 5.5764685894,
				"z": 0.0511538753,
				"element": "H" 
			},
			{
				"x": 1.9531060359,
				"y": 6.5978649953,
				"z": 0.5044146492,
				"element": "H" 
			},
			{
				"x": 3.0363570253,
				"y": 5.95926288,
				"z": 1.760417413,
				"element": "H" 
			},
			{
				"x": 2.2812204267,
				"y": 3.6352690673,
				"z": 1.2556991902,
				"element": "H" 
			},
			{
				"x": 0.8963930508,
				"y": 4.6509495517,
				"z": 1.6979433373,
				"element": "H" 
			},
			{
				"x": -0.6107192423,
				"y": 3.3710374909,
				"z": 0.4762625146,
				"element": "H" 
			},
			{
				"x": -0.6319077246,
				"y": 4.3137591516,
				"z": -2.0183263685,
				"element": "H" 
			},
			{
				"x": -1.6663807702,
				"y": 2.9618844575,
				"z": -1.5553662631,
				"element": "H" 
			},
			{
				"x": 1.0714479893,
				"y": 2.6972030096,
				"z": -2.9158302513,
				"element": "H" 
			},
			{
				"x": -0.4776606944,
				"y": 2.483651645,
				"z": -3.7144739136,
				"element": "H" 
			},
			{
				"x": -0.9973606285,
				"y": 0.6076701906,
				"z": -0.4738121282,
				"element": "H" 
			},
			{
				"x": 0.5128368623,
				"y": -0.2547105826,
				"z": -0.7351794175,
				"element": "H" 
			},
			{
				"x": 0.865637667,
				"y": 1.5490273336,
				"z": 0.9018137952,
				"element": "H" 
			},
			{
				"x": 1.7954353227,
				"y": 1.8768956239,
				"z": -0.5624002795,
				"element": "H" 
			},
			{
				"x": 0.6624021922,
				"y": -1.8592789401,
				"z": -3.6440684025,
				"element": "H" 
			},
			{
				"x": 0.2321101158,
				"y": -3.780414166,
				"z": -2.1491610017,
				"element": "H" 
			},
			{
				"x": -3.7910814349,
				"y": -3.9770393976,
				"z": -0.6544967614,
				"element": "H" 
			},
			{
				"x": -4.1177301557,
				"y": -1.5753318613,
				"z": -1.2884988598,
				"element": "H" 
			},
			{
				"x": -2.2856549858,
				"y": -0.3170639896,
				"z": -2.3717362361,
				"element": "H" 
			},
			{
				"x": -0.3977982445,
				"y": -7.2236176769,
				"z": -0.9271907266,
				"element": "H" 
			},
			{
				"x": 0.5183684192,
				"y": -5.7045070374,
				"z": -0.7467073009,
				"element": "H" 
			},
			{
				"x": -0.0818209436,
				"y": -6.1786721362,
				"z": -2.3379376265,
				"element": "H" 
			}
		],
		 "valence_orbital": [ 
			{
				"type": "occ",
				"energy": -0.26425,
				"method": "rhf"
			},
			{
				"type": "occ",
				"energy": -0.25711,
				"method": "rhf"
			},
			{
				"type": "occ",
				"energy": -0.24976,
				"method": "rhf"
			},
			{
				"type": "occ",
				"energy": -0.23792,
				"method": "rhf"
			},
			{
				"type": "occ",
				"energy": -0.22412,
				"method": "rhf"
			},
			{
				"type": "unocc",
				"energy": -0.05762,
				"method": "rhf"
			},
			{
				"type": "unocc",
				"energy": -0.01189,
				"method": "rhf"
			},
			{
				"type": "unocc",
				"energy": 0.02921,
				"method": "rhf"
			},
			{
				"type": "unocc",
				"energy": 0.05227,
				"method": "rhf"
			},
			{
				"type": "unocc",
				"energy": 0.06934,
				"method": "rhf"
			}
		],
		"cosmo_sigma_profile": { 
			"-0.025": 0.0,
			"-0.024": 0.0,
			"-0.023": 0.0,
			"-0.022": 0.0,
			"-0.021": 0.0,
			"-0.02": 0.0,
			"-0.019": 0.0,
			"-0.018": 0.0,
			"-0.017": 0.0,
			"-0.016": 0.0,
			"-0.015": 0.0,
			"-0.014": 0.361466105801,
			"-0.013": 0.958284814911,
			"-0.012": 1.28710450554,
			"-0.011": 1.00732203582,
			"-0.01": 1.04801827086,
			"-0.009": 1.16356942891,
			"-0.008": 1.67198674822,
			"-0.007": 2.78213836799,
			"-0.006": 10.8764353977,
			"-0.005": 15.7926258478,
			"-0.004": 34.4928951806,
			"-0.003": 52.1007516091,
			"-0.002": 43.7727568004,
			"-0.001": 38.3762534375,
			"0.0": 26.6476617934,
			"0.001": 19.6560483896,
			"0.002": 15.4652794034,
			"0.003": 16.0088550224,
			"0.004": 12.9961516491,
			"0.005": 6.78688938137,
			"0.006": 4.28991207608,
			"0.007": 4.53786991421,
			"0.008": 4.59687379951,
			"0.009": 3.83492942648,
			"0.01": 4.48636593083,
			"0.011": 5.75887122947,
			"0.012": 6.78530630349,
			"0.013": 4.3083566035,
			"0.014": 6.07188101234,
			"0.015": 1.30313311857,
			"0.016": 0.0,
			"0.017": 0.0,
			"0.018": 0.0,
			"0.019": 0.0,
			"0.02": 0.0,
			"0.021": 0.0,
			"0.022": 0.0,
			"0.023": 0.0,
			"0.024": 0.0,
			"0.025": 0.0
		}
	}
}
