{
	 "smiles": "CC1=CC(C(=O)CC#N)=C(C)O1", 
	 "Tm": 394.15, 
	 "num_atms": 21, 
	 "gaussian": { 
		 "optdone": 1, 
		 "sigma_profile": "yes", 
		 "theory": "DFT", 
		 "functional": "B3LYP", 
		 "basiset": "6-31G**", 
		 "properties": { 
			 "R2extent": 2937.2123, 
			 "electric_dipole_moment_norm": 3.64413992185, 
			 "electric_quadrupole_moment_norm": 14.0096045426, 
			 "total_energy": -553.552889015, 
			 "HOMO_LUMO_gap": 0.17629, 
			 "cosmo_polarized_energy": -11.99, 
			 "cosmo_cavitation_energy": 26.55, 
			 "cosmo_dispersion_energy": -18.4, 
			 "cosmo_repulsion_energy": 1.5, 
			 "cosmo_total_nonelectrostatic_energy": 9.65, 
			 "SMD_solvation_energy": 7.09 
		},
		"coords": [
			{
				"x": -0.9029703074,
				"y": 0.7883821253,
				"z": 1.6597697301,
				"element": "C" 
			},
			{
				"x": -0.341788337,
				"y": 0.1991157998,
				"z": 0.4152475511,
				"element": "C" 
			},
			{
				"x": 0.8537135201,
				"y": -0.3489766861,
				"z": 0.0821079925,
				"element": "C" 
			},
			{
				"x": 0.765378211,
				"y": -0.7257553584,
				"z": -1.3102986684,
				"element": "C" 
			},
			{
				"x": 1.744645799,
				"y": -1.3721013495,
				"z": -2.1782788032,
				"element": "C" 
			},
			{
				"x": 1.5212554528,
				"y": -1.6512042857,
				"z": -3.3478651861,
				"element": "O" 
			},
			{
				"x": 3.1135337528,
				"y": -1.7780274839,
				"z": -1.5721615339,
				"element": "C" 
			},
			{
				"x": 3.8650767324,
				"y": -0.6752801925,
				"z": -0.9751866115,
				"element": "C" 
			},
			{
				"x": 4.4536697705,
				"y": 0.2064674136,
				"z": -0.5017980216,
				"element": "N" 
			},
			{
				"x": -0.5046335323,
				"y": -0.3719648866,
				"z": -1.724187709,
				"element": "C" 
			},
			{
				"x": -1.2227962213,
				"y": -0.4871660041,
				"z": -3.0207940939,
				"element": "C" 
			},
			{
				"x": -1.1747403111,
				"y": 0.1840003133,
				"z": -0.688830874,
				"element": "O" 
			},
			{
				"x": -0.1567467032,
				"y": 0.7463185231,
				"z": 2.4561106496,
				"element": "H" 
			},
			{
				"x": -1.1889250381,
				"y": 1.8359841218,
				"z": 1.5125307845,
				"element": "H" 
			},
			{
				"x": -1.795051316,
				"y": 0.246447293,
				"z": 1.9939503649,
				"element": "H" 
			},
			{
				"x": 1.7064845512,
				"y": -0.4500427655,
				"z": 0.7370210989,
				"element": "H" 
			},
			{
				"x": 2.9477671207,
				"y": -2.5443640497,
				"z": -0.8038369527,
				"element": "H" 
			},
			{
				"x": 3.6966517357,
				"y": -2.2281010875,
				"z": -2.3797117588,
				"element": "H" 
			},
			{
				"x": -2.2338269461,
				"y": -0.0863711144,
				"z": -2.9225545346,
				"element": "H" 
			},
			{
				"x": -0.6909721786,
				"y": 0.0547478741,
				"z": -3.8088948239,
				"element": "H" 
			},
			{
				"x": -1.2729257549,
				"y": -1.5306082002,
				"z": -3.3465386,
				"element": "H" 
			}
		],
		 "valence_orbital": [ 
			{
				"type": "occ",
				"energy": -0.33804,
				"method": "rhf"
			},
			{
				"type": "occ",
				"energy": -0.3289,
				"method": "rhf"
			},
			{
				"type": "occ",
				"energy": -0.29066,
				"method": "rhf"
			},
			{
				"type": "occ",
				"energy": -0.26305,
				"method": "rhf"
			},
			{
				"type": "occ",
				"energy": -0.23069,
				"method": "rhf"
			},
			{
				"type": "unocc",
				"energy": -0.0544,
				"method": "rhf"
			},
			{
				"type": "unocc",
				"energy": 0.0105,
				"method": "rhf"
			},
			{
				"type": "unocc",
				"energy": 0.03051,
				"method": "rhf"
			},
			{
				"type": "unocc",
				"energy": 0.03482,
				"method": "rhf"
			},
			{
				"type": "unocc",
				"energy": 0.08709,
				"method": "rhf"
			}
		],
		"cosmo_sigma_profile": { 
			"-0.025": 0.0,
			"-0.024": 0.0,
			"-0.023": 0.0,
			"-0.022": 0.0,
			"-0.021": 0.0,
			"-0.02": 0.0,
			"-0.019": 0.0,
			"-0.018": 0.0,
			"-0.017": 0.0,
			"-0.016": 0.0,
			"-0.015": 0.0,
			"-0.014": 0.0,
			"-0.013": 0.0,
			"-0.012": 0.0,
			"-0.011": 0.0661341001317,
			"-0.01": 2.71385378871,
			"-0.009": 4.91849656106,
			"-0.008": 4.68214446228,
			"-0.007": 4.93004269841,
			"-0.006": 10.2985218015,
			"-0.005": 17.2123446651,
			"-0.004": 14.6431637623,
			"-0.003": 15.983151889,
			"-0.002": 21.7160134812,
			"-0.001": 19.0169319333,
			"0.0": 14.0681860021,
			"0.001": 11.9479853945,
			"0.002": 10.583792906,
			"0.003": 9.02843619564,
			"0.004": 7.25392314072,
			"0.005": 6.12758810418,
			"0.006": 4.6188515011,
			"0.007": 5.65773189265,
			"0.008": 4.79301947838,
			"0.009": 4.61066878839,
			"0.01": 5.04316244381,
			"0.011": 6.03766376411,
			"0.012": 4.35439739389,
			"0.013": 1.7239703695,
			"0.014": 0.0501135591571,
			"0.015": 0.0,
			"0.016": 0.0,
			"0.017": 0.0,
			"0.018": 0.0,
			"0.019": 0.0,
			"0.02": 0.0,
			"0.021": 0.0,
			"0.022": 0.0,
			"0.023": 0.0,
			"0.024": 0.0,
			"0.025": 0.0
		}
	}
}
