{
	 "smiles": "CC(=O)NCCCC(O)=O", 
	 "Tm": 403.15, 
	 "num_atms": 21, 
	 "gaussian": { 
		 "optdone": 1, 
		 "sigma_profile": "yes", 
		 "theory": "DFT", 
		 "functional": "B3LYP", 
		 "basiset": "6-31G**", 
		 "properties": { 
			 "R2extent": 2455.0266, 
			 "electric_dipole_moment_norm": 4.47455680599, 
			 "electric_quadrupole_moment_norm": 14.1067100162, 
			 "total_energy": -515.727124653, 
			 "HOMO_LUMO_gap": 0.24287, 
			 "cosmo_polarized_energy": -15.71, 
			 "cosmo_cavitation_energy": 24.09, 
			 "cosmo_dispersion_energy": -16.92, 
			 "cosmo_repulsion_energy": 1.39, 
			 "cosmo_total_nonelectrostatic_energy": 8.55, 
			 "SMD_solvation_energy": 5.07 
		},
		"coords": [
			{
				"x": -0.2230334985,
				"y": 1.8880820384,
				"z": -1.3075036414,
				"element": "C" 
			},
			{
				"x": -1.5360100482,
				"y": 1.1634240648,
				"z": -1.5624197044,
				"element": "C" 
			},
			{
				"x": -2.6083169048,
				"y": 1.7545761707,
				"z": -1.5982399117,
				"element": "O" 
			},
			{
				"x": -1.4687818774,
				"y": -0.1916250195,
				"z": -1.7969469774,
				"element": "N" 
			},
			{
				"x": -0.3829518791,
				"y": -1.0888389329,
				"z": -1.4189005059,
				"element": "C" 
			},
			{
				"x": -0.3342850052,
				"y": -1.4478726497,
				"z": 0.0802487622,
				"element": "C" 
			},
			{
				"x": -1.5853261916,
				"y": -2.1833136094,
				"z": 0.6016280194,
				"element": "C" 
			},
			{
				"x": -2.8602087137,
				"y": -1.3734276541,
				"z": 0.4712724842,
				"element": "C" 
			},
			{
				"x": -2.8019679592,
				"y": -0.2220531281,
				"z": 1.1781227288,
				"element": "O" 
			},
			{
				"x": -3.8235152218,
				"y": -1.6889172608,
				"z": -0.1953911406,
				"element": "O" 
			},
			{
				"x": -0.4354207263,
				"y": 2.9559752184,
				"z": -1.2665580484,
				"element": "H" 
			},
			{
				"x": 0.5045056011,
				"y": 1.6924430022,
				"z": -2.1020777782,
				"element": "H" 
			},
			{
				"x": 0.2287242899,
				"y": 1.5815781393,
				"z": -0.3583545098,
				"element": "H" 
			},
			{
				"x": -2.384412113,
				"y": -0.6062368967,
				"z": -1.92593465,
				"element": "H" 
			},
			{
				"x": -0.4911117644,
				"y": -2.0027714935,
				"z": -2.0138446838,
				"element": "H" 
			},
			{
				"x": 0.5713194111,
				"y": -0.6403431166,
				"z": -1.7122793596,
				"element": "H" 
			},
			{
				"x": 0.5407463092,
				"y": -2.0864884658,
				"z": 0.2524621298,
				"element": "H" 
			},
			{
				"x": -0.1848758109,
				"y": -0.5384195609,
				"z": 0.6714341486,
				"element": "H" 
			},
			{
				"x": -1.7452039412,
				"y": -3.1213423167,
				"z": 0.0634299144,
				"element": "H" 
			},
			{
				"x": -1.4395912963,
				"y": -2.4205016674,
				"z": 1.6617794086,
				"element": "H" 
			},
			{
				"x": -3.5946826598,
				"y": 0.2903731382,
				"z": 0.9420733151,
				"element": "H" 
			}
		],
		 "valence_orbital": [ 
			{
				"type": "occ",
				"energy": -0.3495,
				"method": "rhf"
			},
			{
				"type": "occ",
				"energy": -0.3213,
				"method": "rhf"
			},
			{
				"type": "occ",
				"energy": -0.2761,
				"method": "rhf"
			},
			{
				"type": "occ",
				"energy": -0.25197,
				"method": "rhf"
			},
			{
				"type": "occ",
				"energy": -0.24223,
				"method": "rhf"
			},
			{
				"type": "unocc",
				"energy": 0.00064,
				"method": "rhf"
			},
			{
				"type": "unocc",
				"energy": 0.02778,
				"method": "rhf"
			},
			{
				"type": "unocc",
				"energy": 0.06689,
				"method": "rhf"
			},
			{
				"type": "unocc",
				"energy": 0.08898,
				"method": "rhf"
			},
			{
				"type": "unocc",
				"energy": 0.09823,
				"method": "rhf"
			}
		],
		"cosmo_sigma_profile": { 
			"-0.025": 0.0,
			"-0.024": 0.0,
			"-0.023": 0.0,
			"-0.022": 0.0,
			"-0.021": 0.0,
			"-0.02": 0.0,
			"-0.019": 0.0,
			"-0.018": 0.176190980906,
			"-0.017": 0.527335559605,
			"-0.016": 0.68730400069,
			"-0.015": 0.646864318779,
			"-0.014": 0.71868319598,
			"-0.013": 0.398273548303,
			"-0.012": 0.350927382599,
			"-0.011": 0.813373401557,
			"-0.01": 1.05937134619,
			"-0.009": 1.16407685512,
			"-0.008": 1.54848046212,
			"-0.007": 2.35836794774,
			"-0.006": 12.5544887346,
			"-0.005": 18.9599499613,
			"-0.004": 20.9410901417,
			"-0.003": 20.1494331641,
			"-0.002": 17.1408546996,
			"-0.001": 14.901989075,
			"0.0": 8.7336945599,
			"0.001": 5.39824974101,
			"0.002": 5.31529094526,
			"0.003": 5.40353111521,
			"0.004": 5.06596045516,
			"0.005": 5.09788526247,
			"0.006": 3.97872144113,
			"0.007": 3.18982413157,
			"0.008": 3.44122320596,
			"0.009": 3.70874378914,
			"0.01": 2.94875091657,
			"0.011": 4.66346039972,
			"0.012": 5.83981846929,
			"0.013": 3.16104821072,
			"0.014": 4.90561414434,
			"0.015": 1.74210314357,
			"0.016": 0.0593835910935,
			"0.017": 0.0,
			"0.018": 0.0,
			"0.019": 0.0,
			"0.02": 0.0,
			"0.021": 0.0,
			"0.022": 0.0,
			"0.023": 0.0,
			"0.024": 0.0,
			"0.025": 0.0
		}
	}
}
