{
	 "smiles": "CCCCCCCCCCCCCC(=O)OC(C)C", 
	 "Tm": 276.15, 
	 "num_atms": 53, 
	 "gaussian": { 
		 "optdone": 1, 
		 "sigma_profile": "yes", 
		 "theory": "DFT", 
		 "functional": "B3LYP", 
		 "basiset": "6-31G**", 
		 "properties": { 
			 "R2extent": 7526.6569, 
			 "electric_dipole_moment_norm": 2.4522156145, 
			 "electric_quadrupole_moment_norm": 7.07727384026, 
			 "total_energy": -818.813182038, 
			 "HOMO_LUMO_gap": 0.27539, 
			 "cosmo_polarized_energy": -6.09, 
			 "cosmo_cavitation_energy": 50.94, 
			 "cosmo_dispersion_energy": -32.05, 
			 "cosmo_repulsion_energy": 2.58, 
			 "cosmo_total_nonelectrostatic_energy": 21.47, 
			 "SMD_solvation_energy": 7.65 
		},
		"coords": [
			{
				"x": 1.9699592138,
				"y": 1.7322052799,
				"z": -5.0916435809,
				"element": "C" 
			},
			{
				"x": 0.7993739093,
				"y": 1.5960321463,
				"z": -4.1127623424,
				"element": "C" 
			},
			{
				"x": 0.8588518217,
				"y": 2.5976155376,
				"z": -2.9515992696,
				"element": "C" 
			},
			{
				"x": -0.3129680753,
				"y": 2.4434052675,
				"z": -1.9721257556,
				"element": "C" 
			},
			{
				"x": -0.3263254275,
				"y": 3.4511447643,
				"z": -0.8078049743,
				"element": "C" 
			},
			{
				"x": 0.8741107,
				"y": 3.3804405297,
				"z": 0.1581453922,
				"element": "C" 
			},
			{
				"x": 1.0654819331,
				"y": 2.0692439714,
				"z": 0.9536196573,
				"element": "C" 
			},
			{
				"x": 0.3168412826,
				"y": 1.9706670458,
				"z": 2.298640604,
				"element": "C" 
			},
			{
				"x": -1.2218595414,
				"y": 1.9040582083,
				"z": 2.2625611932,
				"element": "C" 
			},
			{
				"x": -1.8262855809,
				"y": 0.7477185965,
				"z": 1.4468553239,
				"element": "C" 
			},
			{
				"x": -1.4190287729,
				"y": -0.6516058574,
				"z": 1.9305406623,
				"element": "C" 
			},
			{
				"x": -2.131508462,
				"y": -1.8064753371,
				"z": 1.2069281314,
				"element": "C" 
			},
			{
				"x": -1.8851198308,
				"y": -1.8761635999,
				"z": -0.3181408986,
				"element": "C" 
			},
			{
				"x": -0.4167016167,
				"y": -2.0104393529,
				"z": -0.6647449467,
				"element": "C" 
			},
			{
				"x": 0.2814046171,
				"y": -1.1207577374,
				"z": -1.1146560089,
				"element": "O" 
			},
			{
				"x": 0.0364622989,
				"y": -3.2519894167,
				"z": -0.3895055559,
				"element": "O" 
			},
			{
				"x": 1.4448980327,
				"y": -3.5301344692,
				"z": -0.6531197994,
				"element": "C" 
			},
			{
				"x": 1.5306068534,
				"y": -5.0253530824,
				"z": -0.9249928645,
				"element": "C" 
			},
			{
				"x": 2.2837898507,
				"y": -3.0767917205,
				"z": 0.5370873619,
				"element": "C" 
			},
			{
				"x": 1.8991073119,
				"y": 1.0046581133,
				"z": -5.9074076165,
				"element": "H" 
			},
			{
				"x": 2.9293338698,
				"y": 1.5712002113,
				"z": -4.5862078616,
				"element": "H" 
			},
			{
				"x": 1.9990897241,
				"y": 2.732093945,
				"z": -5.5404617107,
				"element": "H" 
			},
			{
				"x": 0.777223856,
				"y": 0.578449021,
				"z": -3.7013040619,
				"element": "H" 
			},
			{
				"x": -0.1474969681,
				"y": 1.7267944162,
				"z": -4.6551824022,
				"element": "H" 
			},
			{
				"x": 0.8743446615,
				"y": 3.6228792106,
				"z": -3.3510339121,
				"element": "H" 
			},
			{
				"x": 1.8109744837,
				"y": 2.4633731664,
				"z": -2.4211428739,
				"element": "H" 
			},
			{
				"x": -1.2525363587,
				"y": 2.5574573469,
				"z": -2.5314082193,
				"element": "H" 
			},
			{
				"x": -0.3143424725,
				"y": 1.4156433706,
				"z": -1.5891273776,
				"element": "H" 
			},
			{
				"x": -1.2613510777,
				"y": 3.3259872072,
				"z": -0.248756793,
				"element": "H" 
			},
			{
				"x": -0.3645304357,
				"y": 4.4674924327,
				"z": -1.2251918222,
				"element": "H" 
			},
			{
				"x": 0.8018413469,
				"y": 4.2171425146,
				"z": 0.8673827344,
				"element": "H" 
			},
			{
				"x": 1.7872184315,
				"y": 3.5694318291,
				"z": -0.4197123171,
				"element": "H" 
			},
			{
				"x": 2.134180379,
				"y": 1.9729893753,
				"z": 1.185835186,
				"element": "H" 
			},
			{
				"x": 0.829442559,
				"y": 1.2040211578,
				"z": 0.3228032414,
				"element": "H" 
			},
			{
				"x": 0.6947941103,
				"y": 1.0882720196,
				"z": 2.8319664643,
				"element": "H" 
			},
			{
				"x": 0.6033960506,
				"y": 2.8315303742,
				"z": 2.9188309496,
				"element": "H" 
			},
			{
				"x": -1.6210758194,
				"y": 2.850112491,
				"z": 1.877073653,
				"element": "H" 
			},
			{
				"x": -1.5816978152,
				"y": 1.8311383554,
				"z": 3.2987580241,
				"element": "H" 
			},
			{
				"x": -2.921802368,
				"y": 0.8309075843,
				"z": 1.4858497919,
				"element": "H" 
			},
			{
				"x": -1.5502142821,
				"y": 0.8646966145,
				"z": 0.3933812341,
				"element": "H" 
			},
			{
				"x": -0.3337322414,
				"y": -0.7773915181,
				"z": 1.8298126752,
				"element": "H" 
			},
			{
				"x": -1.6328535715,
				"y": -0.7380385562,
				"z": 3.0047596723,
				"element": "H" 
			},
			{
				"x": -3.2143601995,
				"y": -1.7245990925,
				"z": 1.3652676459,
				"element": "H" 
			},
			{
				"x": -1.8215531201,
				"y": -2.7592160536,
				"z": 1.6511013501,
				"element": "H" 
			},
			{
				"x": -2.2551656352,
				"y": -0.9779410101,
				"z": -0.8165310709,
				"element": "H" 
			},
			{
				"x": -2.4199205941,
				"y": -2.7410528735,
				"z": -0.7244186702,
				"element": "H" 
			},
			{
				"x": 1.7282945309,
				"y": -2.9573597343,
				"z": -1.5408249893,
				"element": "H" 
			},
			{
				"x": 1.209541424,
				"y": -5.5988858582,
				"z": -0.0495704612,
				"element": "H" 
			},
			{
				"x": 2.5621520532,
				"y": -5.3053663621,
				"z": -1.1600599411,
				"element": "H" 
			},
			{
				"x": 0.8963631844,
				"y": -5.3041642675,
				"z": -1.7710598558,
				"element": "H" 
			},
			{
				"x": 3.3399011371,
				"y": -3.3068709928,
				"z": 0.3623680566,
				"element": "H" 
			},
			{
				"x": 2.1905113239,
				"y": -1.9982857086,
				"z": 0.6840157914,
				"element": "H" 
			},
			{
				"x": 1.9666393157,
				"y": -3.5907195032,
				"z": 1.4504131571,
				"element": "H" 
			}
		],
		 "valence_orbital": [ 
			{
				"type": "occ",
				"energy": -0.29697,
				"method": "rhf"
			},
			{
				"type": "occ",
				"energy": -0.29261,
				"method": "rhf"
			},
			{
				"type": "occ",
				"energy": -0.28995,
				"method": "rhf"
			},
			{
				"type": "occ",
				"energy": -0.28564,
				"method": "rhf"
			},
			{
				"type": "occ",
				"energy": -0.2661,
				"method": "rhf"
			},
			{
				"type": "unocc",
				"energy": 0.00929,
				"method": "rhf"
			},
			{
				"type": "unocc",
				"energy": 0.07365,
				"method": "rhf"
			},
			{
				"type": "unocc",
				"energy": 0.09013,
				"method": "rhf"
			},
			{
				"type": "unocc",
				"energy": 0.09909,
				"method": "rhf"
			},
			{
				"type": "unocc",
				"energy": 0.10568,
				"method": "rhf"
			}
		],
		"cosmo_sigma_profile": { 
			"-0.025": 0.0,
			"-0.024": 0.0,
			"-0.023": 0.0,
			"-0.022": 0.0,
			"-0.021": 0.0,
			"-0.02": 0.0,
			"-0.019": 0.0,
			"-0.018": 0.0,
			"-0.017": 0.0,
			"-0.016": 0.0,
			"-0.015": 0.0,
			"-0.014": 0.0,
			"-0.013": 0.0,
			"-0.012": 0.0,
			"-0.011": 0.0,
			"-0.01": 0.0,
			"-0.009": 0.0,
			"-0.008": 0.0,
			"-0.007": 0.0,
			"-0.006": 0.161228853934,
			"-0.005": 3.27028383281,
			"-0.004": 15.2517826057,
			"-0.003": 25.8260355836,
			"-0.002": 51.4523470386,
			"-0.001": 74.7336919028,
			"0.0": 83.6857340164,
			"0.001": 64.1074041992,
			"0.002": 32.1727037532,
			"0.003": 10.4334830308,
			"0.004": 7.8645374726,
			"0.005": 5.74366815899,
			"0.006": 5.43160157334,
			"0.007": 5.10729420875,
			"0.008": 2.71791617765,
			"0.009": 1.4478743856,
			"0.01": 0.562566736708,
			"0.011": 0.877842615485,
			"0.012": 0.164451545955,
			"0.013": 0.0,
			"0.014": 0.0,
			"0.015": 0.0,
			"0.016": 0.0,
			"0.017": 0.0,
			"0.018": 0.0,
			"0.019": 0.0,
			"0.02": 0.0,
			"0.021": 0.0,
			"0.022": 0.0,
			"0.023": 0.0,
			"0.024": 0.0,
			"0.025": 0.0
		}
	}
}
