{
	 "smiles": "CC(C)OC1=C(O)C=CC=N1", 
	 "Tm": 331.15, 
	 "num_atms": 22, 
	 "gaussian": { 
		 "optdone": 1, 
		 "sigma_profile": "yes", 
		 "theory": "DFT", 
		 "functional": "B3LYP", 
		 "basiset": "6-31G**", 
		 "properties": { 
			 "R2extent": 2084.3256, 
			 "electric_dipole_moment_norm": 1.77276467417, 
			 "electric_quadrupole_moment_norm": 9.92919788553, 
			 "total_energy": -516.677600707, 
			 "HOMO_LUMO_gap": 0.19971, 
			 "cosmo_polarized_energy": -11.35, 
			 "cosmo_cavitation_energy": 25.39, 
			 "cosmo_dispersion_energy": -18.57, 
			 "cosmo_repulsion_energy": 1.53, 
			 "cosmo_total_nonelectrostatic_energy": 8.34, 
			 "SMD_solvation_energy": 4.64 
		},
		"coords": [
			{
				"x": 2.0672500186,
				"y": 1.5027504165,
				"z": -3.0066505074,
				"element": "C" 
			},
			{
				"x": 1.3467318688,
				"y": 0.4614700713,
				"z": -2.1597038899,
				"element": "C" 
			},
			{
				"x": 2.1746573651,
				"y": -0.7988993977,
				"z": -1.9221733449,
				"element": "C" 
			},
			{
				"x": 1.0690324907,
				"y": 1.1158024964,
				"z": -0.8950287458,
				"element": "O" 
			},
			{
				"x": 0.0378245724,
				"y": 0.6708241694,
				"z": -0.1473377273,
				"element": "C" 
			},
			{
				"x": -0.1913421659,
				"y": 1.362139302,
				"z": 1.0738389085,
				"element": "C" 
			},
			{
				"x": 0.6441488527,
				"y": 2.3930837155,
				"z": 1.3847720331,
				"element": "O" 
			},
			{
				"x": -1.2499067626,
				"y": 0.9415790023,
				"z": 1.8628873086,
				"element": "C" 
			},
			{
				"x": -2.0465521582,
				"y": -0.1335659921,
				"z": 1.4384681044,
				"element": "C" 
			},
			{
				"x": -1.7375478554,
				"y": -0.7396241379,
				"z": 0.2325737593,
				"element": "C" 
			},
			{
				"x": -0.7111503555,
				"y": -0.3438819301,
				"z": -0.544810479,
				"element": "N" 
			},
			{
				"x": 1.4450416057,
				"y": 2.3920722564,
				"z": -3.1396290394,
				"element": "H" 
			},
			{
				"x": 2.3002274646,
				"y": 1.0905599095,
				"z": -3.9935232607,
				"element": "H" 
			},
			{
				"x": 3.0040941007,
				"y": 1.807724864,
				"z": -2.5295288093,
				"element": "H" 
			},
			{
				"x": 0.3907524462,
				"y": 0.1886763155,
				"z": -2.617042491,
				"element": "H" 
			},
			{
				"x": 1.6184737211,
				"y": -1.5141227445,
				"z": -1.3123385961,
				"element": "H" 
			},
			{
				"x": 2.4162928612,
				"y": -1.277390606,
				"z": -2.8772908029,
				"element": "H" 
			},
			{
				"x": 3.1120798766,
				"y": -0.5503059174,
				"z": -1.4138640233,
				"element": "H" 
			},
			{
				"x": 0.3717312875,
				"y": 2.7680913107,
				"z": 2.2328212497,
				"element": "H" 
			},
			{
				"x": -1.4563620649,
				"y": 1.4479928229,
				"z": 2.8038455335,
				"element": "H" 
			},
			{
				"x": -2.8795122349,
				"y": -0.4803587607,
				"z": 2.0405501959,
				"element": "H" 
			},
			{
				"x": -2.3216649345,
				"y": -1.577517166,
				"z": -0.1406353759,
				"element": "H" 
			}
		],
		 "valence_orbital": [ 
			{
				"type": "occ",
				"energy": -0.31863,
				"method": "rhf"
			},
			{
				"type": "occ",
				"energy": -0.31296,
				"method": "rhf"
			},
			{
				"type": "occ",
				"energy": -0.26403,
				"method": "rhf"
			},
			{
				"type": "occ",
				"energy": -0.25856,
				"method": "rhf"
			},
			{
				"type": "occ",
				"energy": -0.20831,
				"method": "rhf"
			},
			{
				"type": "unocc",
				"energy": -0.0086,
				"method": "rhf"
			},
			{
				"type": "unocc",
				"energy": 0.01335,
				"method": "rhf"
			},
			{
				"type": "unocc",
				"energy": 0.06687,
				"method": "rhf"
			},
			{
				"type": "unocc",
				"energy": 0.1,
				"method": "rhf"
			},
			{
				"type": "unocc",
				"energy": 0.10714,
				"method": "rhf"
			}
		],
		"cosmo_sigma_profile": { 
			"-0.025": 0.0,
			"-0.024": 0.0,
			"-0.023": 0.0,
			"-0.022": 0.0,
			"-0.021": 0.0,
			"-0.02": 0.0,
			"-0.019": 0.0160365628,
			"-0.018": 0.762931194122,
			"-0.017": 1.37547900408,
			"-0.016": 0.988883658695,
			"-0.015": 1.34355394127,
			"-0.014": 1.08306601768,
			"-0.013": 0.735612557158,
			"-0.012": 0.348270765544,
			"-0.011": 1.21547697807,
			"-0.01": 1.94631644295,
			"-0.009": 0.797821621811,
			"-0.008": 1.46273659808,
			"-0.007": 2.24570903617,
			"-0.006": 4.90886082659,
			"-0.005": 6.34824354556,
			"-0.004": 13.2741455621,
			"-0.003": 19.0839533213,
			"-0.002": 17.1663347494,
			"-0.001": 15.8563344786,
			"0.0": 20.7974897456,
			"0.001": 21.0855935206,
			"0.002": 13.2630481812,
			"0.003": 11.5793632234,
			"0.004": 11.7741325207,
			"0.005": 5.00987773193,
			"0.006": 4.70580489907,
			"0.007": 3.48661563576,
			"0.008": 2.60503813128,
			"0.009": 4.02949884012,
			"0.01": 2.06106523927,
			"0.011": 3.21645821421,
			"0.012": 2.55709396783,
			"0.013": 1.97699743897,
			"0.014": 1.13114412623,
			"0.015": 0.0125722338842,
			"0.016": 0.0,
			"0.017": 0.0,
			"0.018": 0.0,
			"0.019": 0.0,
			"0.02": 0.0,
			"0.021": 0.0,
			"0.022": 0.0,
			"0.023": 0.0,
			"0.024": 0.0,
			"0.025": 0.0
		}
	}
}
