{
	 "smiles": "CC1=NN(C(=O)C1[N+]([O-])=O)C1=CC=C(C=C1)[N+]([O-])=O", 
	 "Tm": 392.15, 
	 "num_atms": 27, 
	 "gaussian": { 
		 "optdone": 1, 
		 "sigma_profile": "yes", 
		 "theory": "DFT", 
		 "functional": "B3LYP", 
		 "basiset": "6-31G**", 
		 "properties": { 
			 "R2extent": 6850.9935, 
			 "electric_dipole_moment_norm": 6.47216337865, 
			 "electric_quadrupole_moment_norm": 23.9889738776, 
			 "total_energy": -980.780748025, 
			 "HOMO_LUMO_gap": 0.1547, 
			 "cosmo_polarized_energy": -17.52, 
			 "cosmo_cavitation_energy": 34.07, 
			 "cosmo_dispersion_energy": -24.17, 
			 "cosmo_repulsion_energy": 1.84, 
			 "cosmo_total_nonelectrostatic_energy": 11.75, 
			 "SMD_solvation_energy": 10.29 
		},
		"coords": [
			{
				"x": 3.6757129046,
				"y": -0.6371802873,
				"z": 0.2794366435,
				"element": "C" 
			},
			{
				"x": 2.2595470521,
				"y": -0.3137104073,
				"z": 0.6102161196,
				"element": "C" 
			},
			{
				"x": 1.2748380885,
				"y": -0.6626554491,
				"z": -0.1371293893,
				"element": "N" 
			},
			{
				"x": 0.0762488813,
				"y": -0.1933484966,
				"z": 0.4183336806,
				"element": "N" 
			},
			{
				"x": 0.272385719,
				"y": 0.5089161399,
				"z": 1.6016210407,
				"element": "C" 
			},
			{
				"x": -0.5461809247,
				"y": 1.0520346671,
				"z": 2.3089814309,
				"element": "O" 
			},
			{
				"x": 1.7992048959,
				"y": 0.4262695275,
				"z": 1.8377953333,
				"element": "C" 
			},
			{
				"x": 2.3734300259,
				"y": 1.8209024287,
				"z": 1.9517289659,
				"element": "N" 
			},
			{
				"x": 2.5935826667,
				"y": 2.235592792,
				"z": 3.0786821152,
				"element": "O" 
			},
			{
				"x": 2.5486674686,
				"y": 2.4254804271,
				"z": 0.898058464,
				"element": "O" 
			},
			{
				"x": -1.1362861657,
				"y": -0.4541587386,
				"z": -0.2605895849,
				"element": "C" 
			},
			{
				"x": -2.3577888668,
				"y": 0.0311203363,
				"z": 0.239335683,
				"element": "C" 
			},
			{
				"x": -3.5348067731,
				"y": -0.244260002,
				"z": -0.4466700928,
				"element": "C" 
			},
			{
				"x": -3.4881948411,
				"y": -0.9953970255,
				"z": -1.6188679369,
				"element": "C" 
			},
			{
				"x": -2.2835256453,
				"y": -1.4800166945,
				"z": -2.1251168382,
				"element": "C" 
			},
			{
				"x": -1.1037502634,
				"y": -1.2098759594,
				"z": -1.4453348648,
				"element": "C" 
			},
			{
				"x": -4.7343516731,
				"y": -1.2834489499,
				"z": -2.3372160829,
				"element": "N" 
			},
			{
				"x": -4.6569111699,
				"y": -1.9501999828,
				"z": -3.3697080846,
				"element": "O" 
			},
			{
				"x": -5.7817461137,
				"y": -0.8419808826,
				"z": -1.8641605599,
				"element": "O" 
			},
			{
				"x": 4.1455153619,
				"y": -1.2160019155,
				"z": 1.0828610433,
				"element": "H" 
			},
			{
				"x": 3.7182002619,
				"y": -1.210590595,
				"z": -0.647947052,
				"element": "H" 
			},
			{
				"x": 4.2524963734,
				"y": 0.2858212538,
				"z": 0.1542565535,
				"element": "H" 
			},
			{
				"x": 2.0179447325,
				"y": -0.0756225452,
				"z": 2.7821126817,
				"element": "H" 
			},
			{
				"x": -2.3794163937,
				"y": 0.6139536538,
				"z": 1.148909199,
				"element": "H" 
			},
			{
				"x": -4.4887598824,
				"y": 0.1173960979,
				"z": -0.0841392387,
				"element": "H" 
			},
			{
				"x": -2.2846067798,
				"y": -2.0595335232,
				"z": -3.0396386164,
				"element": "H" 
			},
			{
				"x": -0.1572489394,
				"y": -1.5746058697,
				"z": -1.8202106128,
				"element": "H" 
			}
		],
		 "valence_orbital": [ 
			{
				"type": "occ",
				"energy": -0.3074,
				"method": "rhf"
			},
			{
				"type": "occ",
				"energy": -0.30236,
				"method": "rhf"
			},
			{
				"type": "occ",
				"energy": -0.29054,
				"method": "rhf"
			},
			{
				"type": "occ",
				"energy": -0.28496,
				"method": "rhf"
			},
			{
				"type": "occ",
				"energy": -0.2548,
				"method": "rhf"
			},
			{
				"type": "unocc",
				"energy": -0.1001,
				"method": "rhf"
			},
			{
				"type": "unocc",
				"energy": -0.09264,
				"method": "rhf"
			},
			{
				"type": "unocc",
				"energy": -0.0838,
				"method": "rhf"
			},
			{
				"type": "unocc",
				"energy": -0.03346,
				"method": "rhf"
			},
			{
				"type": "unocc",
				"energy": -0.02471,
				"method": "rhf"
			}
		],
		"cosmo_sigma_profile": { 
			"-0.025": 0.0,
			"-0.024": 0.0,
			"-0.023": 0.0,
			"-0.022": 0.0,
			"-0.021": 0.0,
			"-0.02": 0.0,
			"-0.019": 0.0,
			"-0.018": 0.0,
			"-0.017": 0.0,
			"-0.016": 0.0,
			"-0.015": 0.0,
			"-0.014": 0.00177538045285,
			"-0.013": 2.10760381871,
			"-0.012": 3.28047955064,
			"-0.011": 2.98578857787,
			"-0.01": 2.84706813142,
			"-0.009": 2.74534199624,
			"-0.008": 4.57587913489,
			"-0.007": 9.57034052739,
			"-0.006": 14.6682622236,
			"-0.005": 15.586442175,
			"-0.004": 16.7168279383,
			"-0.003": 18.1056427008,
			"-0.002": 19.3529537383,
			"-0.001": 21.2029636832,
			"0.0": 22.1870405904,
			"0.001": 20.1041982393,
			"0.002": 10.384513167,
			"0.003": 8.73168938008,
			"0.004": 9.06815045487,
			"0.005": 10.6854380437,
			"0.006": 15.3677593887,
			"0.007": 16.3583404111,
			"0.008": 13.4469101797,
			"0.009": 8.397385541,
			"0.01": 5.10387422958,
			"0.011": 0.445368204768,
			"0.012": 0.0,
			"0.013": 0.0,
			"0.014": 0.0,
			"0.015": 0.0,
			"0.016": 0.0,
			"0.017": 0.0,
			"0.018": 0.0,
			"0.019": 0.0,
			"0.02": 0.0,
			"0.021": 0.0,
			"0.022": 0.0,
			"0.023": 0.0,
			"0.024": 0.0,
			"0.025": 0.0
		}
	}
}
