{
	 "smiles": "BrC1=CC=C(C=CC2=CC=CC=C2)C=C1", 
	 "Tm": 412.15, 
	 "num_atms": 26, 
	 "gaussian": { 
		 "optdone": 1, 
		 "sigma_profile": "yes", 
		 "theory": "DFT", 
		 "functional": "B3LYP", 
		 "basiset": "6-31G**", 
		 "properties": { 
			 "R2extent": 9471.5425, 
			 "electric_dipole_moment_norm": 2.14558382498, 
			 "electric_quadrupole_moment_norm": 10.4050464425, 
			 "total_energy": -3111.51929604, 
			 "HOMO_LUMO_gap": 0.14859, 
			 "cosmo_polarized_energy": -6.99, 
			 "cosmo_cavitation_energy": 32.84, 
			 "cosmo_dispersion_energy": -24.47, 
			 "cosmo_repulsion_energy": 1.88, 
			 "cosmo_total_nonelectrostatic_energy": 10.26, 
			 "SMD_solvation_energy": 4.25 
		},
		"coords": [
			{
				"x": -1.7770988062,
				"y": -0.2951123703,
				"z": -5.4027222908,
				"element": "Br" 
			},
			{
				"x": -1.3711450892,
				"y": 0.15879584,
				"z": -3.5918803402,
				"element": "C" 
			},
			{
				"x": -0.6145197793,
				"y": 1.3007057012,
				"z": -3.3215949884,
				"element": "C" 
			},
			{
				"x": -0.3194165524,
				"y": 1.6299343912,
				"z": -2.0034583173,
				"element": "C" 
			},
			{
				"x": -0.7682844346,
				"y": 0.8350429782,
				"z": -0.9296876043,
				"element": "C" 
			},
			{
				"x": -0.4881025427,
				"y": 1.1338500103,
				"z": 0.4767746346,
				"element": "C" 
			},
			{
				"x": 0.2077004725,
				"y": 2.1830394731,
				"z": 0.960763459,
				"element": "C" 
			},
			{
				"x": 0.4906782779,
				"y": 2.4852182603,
				"z": 2.3667643274,
				"element": "C" 
			},
			{
				"x": 1.229971312,
				"y": 3.6438052671,
				"z": 2.671722892,
				"element": "C" 
			},
			{
				"x": 1.5308967295,
				"y": 3.9859448461,
				"z": 3.9886062367,
				"element": "C" 
			},
			{
				"x": 1.0984472028,
				"y": 3.1743279127,
				"z": 5.0379293841,
				"element": "C" 
			},
			{
				"x": 0.3631717083,
				"y": 2.018710494,
				"z": 4.7545771644,
				"element": "C" 
			},
			{
				"x": 0.0630650452,
				"y": 1.6776328701,
				"z": 3.4398226478,
				"element": "C" 
			},
			{
				"x": -1.5276554337,
				"y": -0.3082475983,
				"z": -1.2419540036,
				"element": "C" 
			},
			{
				"x": -1.8317271864,
				"y": -0.6516838325,
				"z": -2.5571241778,
				"element": "C" 
			},
			{
				"x": -0.2610798386,
				"y": 1.9232865166,
				"z": -4.1357933691,
				"element": "H" 
			},
			{
				"x": 0.2709176427,
				"y": 2.5204348694,
				"z": -1.8129395718,
				"element": "H" 
			},
			{
				"x": -0.9022244618,
				"y": 0.4111049831,
				"z": 1.1774121786,
				"element": "H" 
			},
			{
				"x": 0.6185264462,
				"y": 2.9069079965,
				"z": 0.2588480648,
				"element": "H" 
			},
			{
				"x": 1.5701716345,
				"y": 4.2810455458,
				"z": 1.8591044515,
				"element": "H" 
			},
			{
				"x": 2.1029907057,
				"y": 4.8861404439,
				"z": 4.1945347111,
				"element": "H" 
			},
			{
				"x": 1.3304982732,
				"y": 3.4365090064,
				"z": 6.0659456011,
				"element": "H" 
			},
			{
				"x": 0.0226901536,
				"y": 1.3802766169,
				"z": 5.5650018667,
				"element": "H" 
			},
			{
				"x": -0.5080582108,
				"y": 0.7750536571,
				"z": 3.245878454,
				"element": "H" 
			},
			{
				"x": -1.8878157579,
				"y": -0.9415972017,
				"z": -0.4353778544,
				"element": "H" 
			},
			{
				"x": -2.4183975105,
				"y": -1.5368266774,
				"z": -2.7752535561,
				"element": "H" 
			}
		],
		 "valence_orbital": [ 
			{
				"type": "occ",
				"energy": -0.28645,
				"method": "rhf"
			},
			{
				"type": "occ",
				"energy": -0.2643,
				"method": "rhf"
			},
			{
				"type": "occ",
				"energy": -0.2573,
				"method": "rhf"
			},
			{
				"type": "occ",
				"energy": -0.25435,
				"method": "rhf"
			},
			{
				"type": "occ",
				"energy": -0.20736,
				"method": "rhf"
			},
			{
				"type": "unocc",
				"energy": -0.05877,
				"method": "rhf"
			},
			{
				"type": "unocc",
				"energy": -0.01326,
				"method": "rhf"
			},
			{
				"type": "unocc",
				"energy": -0.00388,
				"method": "rhf"
			},
			{
				"type": "unocc",
				"energy": 0.0076,
				"method": "rhf"
			},
			{
				"type": "unocc",
				"energy": 0.0084,
				"method": "rhf"
			}
		],
		"cosmo_sigma_profile": { 
			"-0.025": 0.0,
			"-0.024": 0.0,
			"-0.023": 0.0,
			"-0.022": 0.0,
			"-0.021": 0.0,
			"-0.02": 0.0,
			"-0.019": 0.0,
			"-0.018": 0.0,
			"-0.017": 0.0,
			"-0.016": 0.0,
			"-0.015": 0.0,
			"-0.014": 0.0,
			"-0.013": 0.0,
			"-0.012": 0.0,
			"-0.011": 0.0,
			"-0.01": 0.0,
			"-0.009": 0.0,
			"-0.008": 1.17327492473,
			"-0.007": 8.61103237664,
			"-0.006": 17.7706601811,
			"-0.005": 19.3255048177,
			"-0.004": 19.8753235154,
			"-0.003": 18.1535873549,
			"-0.002": 15.7628552673,
			"-0.001": 13.3422980257,
			"0.0": 15.2589713048,
			"0.001": 19.1419471215,
			"0.002": 25.1395598859,
			"0.003": 30.2743148568,
			"0.004": 36.9604068336,
			"0.005": 20.5895564489,
			"0.006": 6.0624499272,
			"0.007": 0.0,
			"0.008": 0.0,
			"0.009": 0.0,
			"0.01": 0.0,
			"0.011": 0.0,
			"0.012": 0.0,
			"0.013": 0.0,
			"0.014": 0.0,
			"0.015": 0.0,
			"0.016": 0.0,
			"0.017": 0.0,
			"0.018": 0.0,
			"0.019": 0.0,
			"0.02": 0.0,
			"0.021": 0.0,
			"0.022": 0.0,
			"0.023": 0.0,
			"0.024": 0.0,
			"0.025": 0.0
		}
	}
}
