{
	 "smiles": "CC1=CC(Cl)=CC=C1OC1=NC=CC=C1[N+]([O-])=O", 
	 "Tm": 363.15, 
	 "num_atms": 27, 
	 "gaussian": { 
		 "optdone": 1, 
		 "sigma_profile": "yes", 
		 "theory": "DFT", 
		 "functional": "B3LYP", 
		 "basiset": "6-31G**", 
		 "properties": { 
			 "R2extent": 5653.1698, 
			 "electric_dipole_moment_norm": 4.53112367852, 
			 "electric_quadrupole_moment_norm": 13.8822197346, 
			 "total_energy": -1257.95048896, 
			 "HOMO_LUMO_gap": 0.13043, 
			 "cosmo_polarized_energy": -12.69, 
			 "cosmo_cavitation_energy": 34.04, 
			 "cosmo_dispersion_energy": -24.03, 
			 "cosmo_repulsion_energy": 1.85, 
			 "cosmo_total_nonelectrostatic_energy": 11.86, 
			 "SMD_solvation_energy": 6.27 
		},
		"coords": [
			{
				"x": -1.0305273608,
				"y": 3.3250732544,
				"z": -1.7058778406,
				"element": "C" 
			},
			{
				"x": 0.068206247,
				"y": 2.3108656022,
				"z": -1.8817038363,
				"element": "C" 
			},
			{
				"x": 1.2603439042,
				"y": 2.6183013719,
				"z": -2.5418984411,
				"element": "C" 
			},
			{
				"x": 2.2681701241,
				"y": 1.6627522886,
				"z": -2.6778089961,
				"element": "C" 
			},
			{
				"x": 3.7562271675,
				"y": 2.0924186489,
				"z": -3.5105836503,
				"element": "Cl" 
			},
			{
				"x": 2.112232142,
				"y": 0.3766357809,
				"z": -2.170418184,
				"element": "C" 
			},
			{
				"x": 0.9234784937,
				"y": 0.0491225145,
				"z": -1.5164521174,
				"element": "C" 
			},
			{
				"x": -0.0716506062,
				"y": 1.0121491152,
				"z": -1.3703088678,
				"element": "C" 
			},
			{
				"x": -1.2990765417,
				"y": 0.7145025746,
				"z": -0.787039769,
				"element": "O" 
			},
			{
				"x": -1.410211094,
				"y": -0.2002670054,
				"z": 0.2078199144,
				"element": "C" 
			},
			{
				"x": -2.3143984853,
				"y": -1.1473147209,
				"z": -0.0199936964,
				"element": "N" 
			},
			{
				"x": -2.5156195238,
				"y": -2.0925844558,
				"z": 0.9020636901,
				"element": "C" 
			},
			{
				"x": -1.7947972406,
				"y": -2.1754296037,
				"z": 2.0940686989,
				"element": "C" 
			},
			{
				"x": -0.8569376483,
				"y": -1.1828986654,
				"z": 2.3503797287,
				"element": "C" 
			},
			{
				"x": -0.6777212918,
				"y": -0.1636053348,
				"z": 1.4166105819,
				"element": "C" 
			},
			{
				"x": 0.2310889216,
				"y": 0.9287305287,
				"z": 1.7874586393,
				"element": "N" 
			},
			{
				"x": 1.1015900638,
				"y": 0.6736470075,
				"z": 2.6194734286,
				"element": "O" 
			},
			{
				"x": 0.0468500179,
				"y": 2.0307365324,
				"z": 1.2766010951,
				"element": "O" 
			},
			{
				"x": -0.7496686404,
				"y": 4.2843597778,
				"z": -2.1468846217,
				"element": "H" 
			},
			{
				"x": -1.9604614517,
				"y": 2.9871602378,
				"z": -2.1755713554,
				"element": "H" 
			},
			{
				"x": -1.2433420943,
				"y": 3.4753519105,
				"z": -0.6430657867,
				"element": "H" 
			},
			{
				"x": 1.4065152391,
				"y": 3.6143526042,
				"z": -2.9460350784,
				"element": "H" 
			},
			{
				"x": 2.896095029,
				"y": -0.3620535523,
				"z": -2.2917546226,
				"element": "H" 
			},
			{
				"x": 0.7735091851,
				"y": -0.9570034721,
				"z": -1.1390764574,
				"element": "H" 
			},
			{
				"x": -3.2852573108,
				"y": -2.8251397736,
				"z": 0.6680908151,
				"element": "H" 
			},
			{
				"x": -1.9736961404,
				"y": -2.9775388738,
				"z": 2.8010757745,
				"element": "H" 
			},
			{
				"x": -0.2711411047,
				"y": -1.1585242923,
				"z": 3.2615309547,
				"element": "H" 
			}
		],
		 "valence_orbital": [ 
			{
				"type": "occ",
				"energy": -0.3008,
				"method": "rhf"
			},
			{
				"type": "occ",
				"energy": -0.29217,
				"method": "rhf"
			},
			{
				"type": "occ",
				"energy": -0.28457,
				"method": "rhf"
			},
			{
				"type": "occ",
				"energy": -0.26038,
				"method": "rhf"
			},
			{
				"type": "occ",
				"energy": -0.23164,
				"method": "rhf"
			},
			{
				"type": "unocc",
				"energy": -0.10121,
				"method": "rhf"
			},
			{
				"type": "unocc",
				"energy": -0.05172,
				"method": "rhf"
			},
			{
				"type": "unocc",
				"energy": -0.02436,
				"method": "rhf"
			},
			{
				"type": "unocc",
				"energy": -0.01488,
				"method": "rhf"
			},
			{
				"type": "unocc",
				"energy": -0.00685,
				"method": "rhf"
			}
		],
		"cosmo_sigma_profile": { 
			"-0.025": 0.0,
			"-0.024": 0.0,
			"-0.023": 0.0,
			"-0.022": 0.0,
			"-0.021": 0.0,
			"-0.02": 0.0,
			"-0.019": 0.0,
			"-0.018": 0.0,
			"-0.017": 0.0,
			"-0.016": 0.0,
			"-0.015": 0.0,
			"-0.014": 0.0,
			"-0.013": 0.0,
			"-0.012": 0.0,
			"-0.011": 0.0,
			"-0.01": 0.0700121303655,
			"-0.009": 2.89166377741,
			"-0.008": 10.163927539,
			"-0.007": 13.36204333,
			"-0.006": 13.567147017,
			"-0.005": 13.3669828519,
			"-0.004": 15.9477426804,
			"-0.003": 17.1967800309,
			"-0.002": 19.2780018901,
			"-0.001": 24.7595180414,
			"0.0": 21.7394063248,
			"0.001": 19.0499364033,
			"0.002": 21.1779642853,
			"0.003": 19.5671851408,
			"0.004": 16.5507460109,
			"0.005": 14.9560876581,
			"0.006": 7.04309838366,
			"0.007": 7.85809566687,
			"0.008": 5.898070774,
			"0.009": 4.78465044458,
			"0.01": 2.65063710015,
			"0.011": 1.13515932397,
			"0.012": 0.845049742387,
			"0.013": 1.23782032682,
			"0.014": 0.747659142219,
			"0.015": 0.0589785538297,
			"0.016": 0.0,
			"0.017": 0.0,
			"0.018": 0.0,
			"0.019": 0.0,
			"0.02": 0.0,
			"0.021": 0.0,
			"0.022": 0.0,
			"0.023": 0.0,
			"0.024": 0.0,
			"0.025": 0.0
		}
	}
}
