{
	 "smiles": "CCCSSCCC", 
	 "Tm": 187.35, 
	 "num_atms": 22, 
	 "gaussian": { 
		 "optdone": 1, 
		 "sigma_profile": "yes", 
		 "theory": "DFT", 
		 "functional": "B3LYP", 
		 "basiset": "6-31G**", 
		 "properties": { 
			 "R2extent": 2714.3784, 
			 "electric_dipole_moment_norm": 2.32732762842, 
			 "electric_quadrupole_moment_norm": 9.48545245257, 
			 "total_energy": -1033.47465223, 
			 "HOMO_LUMO_gap": 0.21386, 
			 "cosmo_polarized_energy": -4.95, 
			 "cosmo_cavitation_energy": 27.38, 
			 "cosmo_dispersion_energy": -20.46, 
			 "cosmo_repulsion_energy": 1.66, 
			 "cosmo_total_nonelectrostatic_energy": 8.59, 
			 "SMD_solvation_energy": 3.42 
		},
		"coords": [
			{
				"x": -0.1350771267,
				"y": 3.3356958729,
				"z": -2.0934111754,
				"element": "C" 
			},
			{
				"x": -0.5919871735,
				"y": 1.8722433651,
				"z": -2.0467348211,
				"element": "C" 
			},
			{
				"x": -1.077034666,
				"y": 1.4701734816,
				"z": -0.6507143381,
				"element": "C" 
			},
			{
				"x": -1.6114966006,
				"y": -0.3005854321,
				"z": -0.6674123766,
				"element": "S" 
			},
			{
				"x": -2.3287996003,
				"y": -0.5956318093,
				"z": 1.2659301405,
				"element": "S" 
			},
			{
				"x": -0.8368703415,
				"y": -1.1131794602,
				"z": 2.2233504034,
				"element": "C" 
			},
			{
				"x": -0.2880346625,
				"y": -2.4919664174,
				"z": 1.8583527098,
				"element": "C" 
			},
			{
				"x": 0.9377604133,
				"y": -2.8677722282,
				"z": 2.6999727421,
				"element": "C" 
			},
			{
				"x": -0.950790848,
				"y": 4.0154247648,
				"z": -1.8240785807,
				"element": "H" 
			},
			{
				"x": 0.6929018339,
				"y": 3.5165860734,
				"z": -1.3991523699,
				"element": "H" 
			},
			{
				"x": 0.2066967963,
				"y": 3.6059334424,
				"z": -3.0974887282,
				"element": "H" 
			},
			{
				"x": 0.2342543116,
				"y": 1.2176416711,
				"z": -2.3500588673,
				"element": "H" 
			},
			{
				"x": -1.3992017772,
				"y": 1.7132705202,
				"z": -2.7718643586,
				"element": "H" 
			},
			{
				"x": -0.2775398591,
				"y": 1.5914328976,
				"z": 0.0866776215,
				"element": "H" 
			},
			{
				"x": -1.9292030349,
				"y": 2.0808378916,
				"z": -0.3394323379,
				"element": "H" 
			},
			{
				"x": -0.069810041,
				"y": -0.3384564863,
				"z": 2.1232039329,
				"element": "H" 
			},
			{
				"x": -1.1862269697,
				"y": -1.0910752956,
				"z": 3.2634199271,
				"element": "H" 
			},
			{
				"x": -0.0242204036,
				"y": -2.4982268879,
				"z": 0.7945980369,
				"element": "H" 
			},
			{
				"x": -1.079744919,
				"y": -3.2385903176,
				"z": 1.9898879383,
				"element": "H" 
			},
			{
				"x": 1.3155516708,
				"y": -3.856458682,
				"z": 2.420659057,
				"element": "H" 
			},
			{
				"x": 0.6976807824,
				"y": -2.8936739464,
				"z": 3.7690192174,
				"element": "H" 
			},
			{
				"x": 1.7533922154,
				"y": -2.1492230176,
				"z": 2.5603762268,
				"element": "H" 
			}
		],
		 "valence_orbital": [ 
			{
				"type": "occ",
				"energy": -0.33949,
				"method": "rhf"
			},
			{
				"type": "occ",
				"energy": -0.32952,
				"method": "rhf"
			},
			{
				"type": "occ",
				"energy": -0.3104,
				"method": "rhf"
			},
			{
				"type": "occ",
				"energy": -0.23564,
				"method": "rhf"
			},
			{
				"type": "occ",
				"energy": -0.23199,
				"method": "rhf"
			},
			{
				"type": "unocc",
				"energy": -0.01813,
				"method": "rhf"
			},
			{
				"type": "unocc",
				"energy": 0.04368,
				"method": "rhf"
			},
			{
				"type": "unocc",
				"energy": 0.04876,
				"method": "rhf"
			},
			{
				"type": "unocc",
				"energy": 0.09091,
				"method": "rhf"
			},
			{
				"type": "unocc",
				"energy": 0.10491,
				"method": "rhf"
			}
		],
		"cosmo_sigma_profile": { 
			"-0.025": 0.0,
			"-0.024": 0.0,
			"-0.023": 0.0,
			"-0.022": 0.0,
			"-0.021": 0.0,
			"-0.02": 0.0,
			"-0.019": 0.0,
			"-0.018": 0.0,
			"-0.017": 0.0,
			"-0.016": 0.0,
			"-0.015": 0.0,
			"-0.014": 0.0,
			"-0.013": 0.0,
			"-0.012": 0.0,
			"-0.011": 0.0,
			"-0.01": 0.0,
			"-0.009": 0.0,
			"-0.008": 0.0,
			"-0.007": 0.0,
			"-0.006": 1.76859238383,
			"-0.005": 7.26861253831,
			"-0.004": 11.5998693657,
			"-0.003": 28.361647503,
			"-0.002": 31.4540131399,
			"-0.001": 32.7445996869,
			"0.0": 28.1489783265,
			"0.001": 22.8189462855,
			"0.002": 9.79721638939,
			"0.003": 7.5366152738,
			"0.004": 8.1093022465,
			"0.005": 8.4189010568,
			"0.006": 5.97694441357,
			"0.007": 5.69753398565,
			"0.008": 3.89140635084,
			"0.009": 2.37877346801,
			"0.01": 0.41907710385,
			"0.011": 0.0,
			"0.012": 0.0,
			"0.013": 0.0,
			"0.014": 0.0,
			"0.015": 0.0,
			"0.016": 0.0,
			"0.017": 0.0,
			"0.018": 0.0,
			"0.019": 0.0,
			"0.02": 0.0,
			"0.021": 0.0,
			"0.022": 0.0,
			"0.023": 0.0,
			"0.024": 0.0,
			"0.025": 0.0
		}
	}
}
