{
	 "smiles": "ClC1=NN=C(S1)C1=C2C=CC=NC2=CC=C1", 
	 "Tm": 417.15, 
	 "num_atms": 22, 
	 "gaussian": { 
		 "optdone": 1, 
		 "sigma_profile": "yes", 
		 "theory": "DFT", 
		 "functional": "B3LYP", 
		 "basiset": "6-31G**", 
		 "properties": { 
			 "R2extent": 5611.0631, 
			 "electric_dipole_moment_norm": 2.21404761241, 
			 "electric_quadrupole_moment_norm": 13.34174015, 
			 "total_energy": -1445.3852464, 
			 "HOMO_LUMO_gap": 0.1551, 
			 "cosmo_polarized_energy": -9.85, 
			 "cosmo_cavitation_energy": 30.23, 
			 "cosmo_dispersion_energy": -23.35, 
			 "cosmo_repulsion_energy": 1.73, 
			 "cosmo_total_nonelectrostatic_energy": 8.61, 
			 "SMD_solvation_energy": 1.38 
		},
		"coords": [
			{
				"x": -1.901685606,
				"y": -2.8701638751,
				"z": 4.2736118725,
				"element": "Cl" 
			},
			{
				"x": -1.4205150839,
				"y": -1.9502182188,
				"z": 2.8992806934,
				"element": "C" 
			},
			{
				"x": -0.3392112412,
				"y": -1.236455598,
				"z": 2.8702338878,
				"element": "N" 
			},
			{
				"x": -0.1699441192,
				"y": -0.6109315298,
				"z": 1.6691627645,
				"element": "N" 
			},
			{
				"x": -1.1147393128,
				"y": -0.849307554,
				"z": 0.7943692273,
				"element": "C" 
			},
			{
				"x": -2.3727628402,
				"y": -1.9204728982,
				"z": 1.4357247502,
				"element": "S" 
			},
			{
				"x": -1.1769069705,
				"y": -0.3164207388,
				"z": -0.5753198269,
				"element": "C" 
			},
			{
				"x": -0.5610831034,
				"y": 0.9326532776,
				"z": -0.9457241291,
				"element": "C" 
			},
			{
				"x": 0.1552365364,
				"y": 1.7802854178,
				"z": -0.0581425686,
				"element": "C" 
			},
			{
				"x": 0.6866542078,
				"y": 2.9574814042,
				"z": -0.531197464,
				"element": "C" 
			},
			{
				"x": 0.5101246156,
				"y": 3.2977521026,
				"z": -1.8929455536,
				"element": "C" 
			},
			{
				"x": -0.1490768611,
				"y": 2.5506658016,
				"z": -2.75407157,
				"element": "N" 
			},
			{
				"x": -0.6879831672,
				"y": 1.3800478275,
				"z": -2.3031102204,
				"element": "C" 
			},
			{
				"x": -1.4022302041,
				"y": 0.5963452083,
				"z": -3.2471820281,
				"element": "C" 
			},
			{
				"x": -1.9789870094,
				"y": -0.5931427381,
				"z": -2.8700821557,
				"element": "C" 
			},
			{
				"x": -1.8636998865,
				"y": -1.0434070049,
				"z": -1.5393856113,
				"element": "C" 
			},
			{
				"x": 0.2915729043,
				"y": 1.480609037,
				"z": 0.9726043898,
				"element": "H" 
			},
			{
				"x": 1.238749461,
				"y": 3.6219667705,
				"z": 0.1259049865,
				"element": "H" 
			},
			{
				"x": 0.9312191771,
				"y": 4.2254636882,
				"z": -2.2791672782,
				"element": "H" 
			},
			{
				"x": -1.4669398676,
				"y": 0.974307399,
				"z": -4.2619279133,
				"element": "H" 
			},
			{
				"x": -2.5198714352,
				"y": -1.1978587458,
				"z": -3.5911424533,
				"element": "H" 
			},
			{
				"x": -2.3080201941,
				"y": -1.9980990328,
				"z": -1.2736937995,
				"element": "H" 
			}
		],
		 "valence_orbital": [ 
			{
				"type": "occ",
				"energy": -0.28716,
				"method": "rhf"
			},
			{
				"type": "occ",
				"energy": -0.28195,
				"method": "rhf"
			},
			{
				"type": "occ",
				"energy": -0.26463,
				"method": "rhf"
			},
			{
				"type": "occ",
				"energy": -0.26151,
				"method": "rhf"
			},
			{
				"type": "occ",
				"energy": -0.23922,
				"method": "rhf"
			},
			{
				"type": "unocc",
				"energy": -0.08412,
				"method": "rhf"
			},
			{
				"type": "unocc",
				"energy": -0.04486,
				"method": "rhf"
			},
			{
				"type": "unocc",
				"energy": -0.03173,
				"method": "rhf"
			},
			{
				"type": "unocc",
				"energy": -0.01634,
				"method": "rhf"
			},
			{
				"type": "unocc",
				"energy": -0.00455,
				"method": "rhf"
			}
		],
		"cosmo_sigma_profile": { 
			"-0.025": 0.0,
			"-0.024": 0.0,
			"-0.023": 0.0,
			"-0.022": 0.0,
			"-0.021": 0.0,
			"-0.02": 0.0,
			"-0.019": 0.0,
			"-0.018": 0.0,
			"-0.017": 0.0,
			"-0.016": 0.0,
			"-0.015": 0.0,
			"-0.014": 0.0,
			"-0.013": 0.0,
			"-0.012": 0.0,
			"-0.011": 0.0,
			"-0.01": 0.0,
			"-0.009": 0.0565310115094,
			"-0.008": 1.649327552,
			"-0.007": 8.55056836379,
			"-0.006": 13.2493878549,
			"-0.005": 13.9277089238,
			"-0.004": 19.4362699274,
			"-0.003": 20.1986233575,
			"-0.002": 20.2621424252,
			"-0.001": 20.3937300349,
			"0.0": 22.4051048173,
			"0.001": 33.3170847993,
			"0.002": 28.6796925885,
			"0.003": 11.7600533476,
			"0.004": 5.47762522642,
			"0.005": 4.2853242766,
			"0.006": 3.61722107287,
			"0.007": 4.04722695004,
			"0.008": 2.74608575157,
			"0.009": 3.60114387754,
			"0.01": 4.27837110392,
			"0.011": 2.78806012833,
			"0.012": 2.38095561557,
			"0.013": 1.32013839796,
			"0.014": 0.677151634156,
			"0.015": 0.960206222975,
			"0.016": 0.131516655461,
			"0.017": 0.0,
			"0.018": 0.0,
			"0.019": 0.0,
			"0.02": 0.0,
			"0.021": 0.0,
			"0.022": 0.0,
			"0.023": 0.0,
			"0.024": 0.0,
			"0.025": 0.0
		}
	}
}
