{
	 "smiles": "NC(=O)NNC1=CC=CC=C1", 
	 "Tm": 448.15, 
	 "num_atms": 20, 
	 "gaussian": { 
		 "optdone": 1, 
		 "sigma_profile": "yes", 
		 "theory": "DFT", 
		 "functional": "B3LYP", 
		 "basiset": "6-31G**", 
		 "properties": { 
			 "R2extent": 2761.9701, 
			 "electric_dipole_moment_norm": 3.25582531012, 
			 "electric_quadrupole_moment_norm": 16.5008625608, 
			 "total_energy": -511.63985547, 
			 "HOMO_LUMO_gap": 0.21202, 
			 "cosmo_polarized_energy": -15.98, 
			 "cosmo_cavitation_energy": 24.5, 
			 "cosmo_dispersion_energy": -17.92, 
			 "cosmo_repulsion_energy": 1.47, 
			 "cosmo_total_nonelectrostatic_energy": 8.05, 
			 "SMD_solvation_energy": 5.37 
		},
		"coords": [
			{
				"x": -1.8545455678,
				"y": -2.9147735297,
				"z": -3.125375493,
				"element": "N" 
			},
			{
				"x": -0.7917559058,
				"y": -2.0840029853,
				"z": -2.8216508656,
				"element": "C" 
			},
			{
				"x": 0.2484944153,
				"y": -2.0417320484,
				"z": -3.4586981121,
				"element": "O" 
			},
			{
				"x": -1.0445973412,
				"y": -1.247234253,
				"z": -1.7259252154,
				"element": "N" 
			},
			{
				"x": -0.0973690906,
				"y": -0.2403823662,
				"z": -1.4840652239,
				"element": "N" 
			},
			{
				"x": 0.7897674115,
				"y": -0.4573812144,
				"z": -0.4008883632,
				"element": "C" 
			},
			{
				"x": 2.0010909673,
				"y": 0.2510165766,
				"z": -0.381595962,
				"element": "C" 
			},
			{
				"x": 2.8691140222,
				"y": 0.1280640227,
				"z": 0.700005314,
				"element": "C" 
			},
			{
				"x": 2.547924438,
				"y": -0.6998978883,
				"z": 1.778779201,
				"element": "C" 
			},
			{
				"x": 1.3432064402,
				"y": -1.4034033259,
				"z": 1.7568312346,
				"element": "C" 
			},
			{
				"x": 0.4646858791,
				"y": -1.2873706345,
				"z": 0.6790243236,
				"element": "C" 
			},
			{
				"x": -1.6223492493,
				"y": -3.6244384312,
				"z": -3.8054913356,
				"element": "H" 
			},
			{
				"x": -2.4338764167,
				"y": -3.2333692159,
				"z": -2.3609222414,
				"element": "H" 
			},
			{
				"x": -1.9964537845,
				"y": -0.9043636513,
				"z": -1.6608876001,
				"element": "H" 
			},
			{
				"x": 0.4060884789,
				"y": -0.0436237859,
				"z": -2.3466249995,
				"element": "H" 
			},
			{
				"x": 2.2571531956,
				"y": 0.8978550801,
				"z": -1.2173479194,
				"element": "H" 
			},
			{
				"x": 3.8050982966,
				"y": 0.6798583681,
				"z": 0.6958350024,
				"element": "H" 
			},
			{
				"x": 3.226953429,
				"y": -0.7954718322,
				"z": 2.6204087538,
				"element": "H" 
			},
			{
				"x": 1.0795366415,
				"y": -2.0542617572,
				"z": 2.5862881944,
				"element": "H" 
			},
			{
				"x": -0.4673662593,
				"y": -1.8405871281,
				"z": 0.6636013072,
				"element": "H" 
			}
		],
		 "valence_orbital": [ 
			{
				"type": "occ",
				"energy": -0.28885,
				"method": "rhf"
			},
			{
				"type": "occ",
				"energy": -0.27288,
				"method": "rhf"
			},
			{
				"type": "occ",
				"energy": -0.26712,
				"method": "rhf"
			},
			{
				"type": "occ",
				"energy": -0.24091,
				"method": "rhf"
			},
			{
				"type": "occ",
				"energy": -0.20405,
				"method": "rhf"
			},
			{
				"type": "unocc",
				"energy": 0.00797,
				"method": "rhf"
			},
			{
				"type": "unocc",
				"energy": 0.01945,
				"method": "rhf"
			},
			{
				"type": "unocc",
				"energy": 0.03564,
				"method": "rhf"
			},
			{
				"type": "unocc",
				"energy": 0.06123,
				"method": "rhf"
			},
			{
				"type": "unocc",
				"energy": 0.10267,
				"method": "rhf"
			}
		],
		"cosmo_sigma_profile": { 
			"-0.025": 0.0,
			"-0.024": 0.0,
			"-0.023": 0.0,
			"-0.022": 0.0,
			"-0.021": 0.0,
			"-0.02": 0.0,
			"-0.019": 0.0,
			"-0.018": 0.0,
			"-0.017": 0.0,
			"-0.016": 0.0,
			"-0.015": 0.355212315659,
			"-0.014": 2.79877877849,
			"-0.013": 4.08851372162,
			"-0.012": 4.14829000656,
			"-0.011": 3.64940066906,
			"-0.01": 3.26799636011,
			"-0.009": 4.29445420435,
			"-0.008": 3.74032148571,
			"-0.007": 3.08576117016,
			"-0.006": 6.38832848046,
			"-0.005": 11.1156000247,
			"-0.004": 11.2013133381,
			"-0.003": 12.9655029986,
			"-0.002": 11.090981476,
			"-0.001": 10.1048973525,
			"0.0": 9.16513288459,
			"0.001": 9.59421989035,
			"0.002": 8.69952368143,
			"0.003": 10.5710937032,
			"0.004": 10.3488716996,
			"0.005": 13.1252233824,
			"0.006": 13.0767469177,
			"0.007": 7.77821669945,
			"0.008": 2.42317309261,
			"0.009": 2.85821197109,
			"0.01": 2.01129789312,
			"0.011": 2.4932447799,
			"0.012": 2.81225080694,
			"0.013": 4.69095289858,
			"0.014": 2.24819018096,
			"0.015": 0.0544713899706,
			"0.016": 0.0,
			"0.017": 0.0,
			"0.018": 0.0,
			"0.019": 0.0,
			"0.02": 0.0,
			"0.021": 0.0,
			"0.022": 0.0,
			"0.023": 0.0,
			"0.024": 0.0,
			"0.025": 0.0
		}
	}
}
