{
	 "smiles": "CCCCCCCCCCCCCCCCCC(=O)OCCCCCCCCCCCCCCCC", 
	 "Tm": 330.15, 
	 "num_atms": 104, 
	 "gaussian": { 
		 "optdone": 1, 
		 "sigma_profile": "yes", 
		 "theory": "DFT", 
		 "functional": "B3LYP", 
		 "basiset": "6-31G**", 
		 "properties": { 
			 "R2extent": 60103.0063, 
			 "electric_dipole_moment_norm": 1.70186186572, 
			 "electric_quadrupole_moment_norm": 12.8935399003, 
			 "total_energy": -1487.15723323, 
			 "HOMO_LUMO_gap": 0.28355, 
			 "cosmo_polarized_energy": -7.49, 
			 "cosmo_cavitation_energy": 98.12, 
			 "cosmo_dispersion_energy": -62.42, 
			 "cosmo_repulsion_energy": 4.96, 
			 "cosmo_total_nonelectrostatic_energy": 40.66, 
			 "SMD_solvation_energy": 12.91 
		},
		"coords": [
			{
				"x": 11.4025401677,
				"y": 3.274578668,
				"z": -5.8836160331,
				"element": "C" 
			},
			{
				"x": 10.0163141152,
				"y": 3.3831035204,
				"z": -5.2373701758,
				"element": "C" 
			},
			{
				"x": 9.5847179387,
				"y": 2.1352669805,
				"z": -4.4469572883,
				"element": "C" 
			},
			{
				"x": 9.4499675712,
				"y": 0.8372998051,
				"z": -5.2654761168,
				"element": "C" 
			},
			{
				"x": 8.422403343,
				"y": 0.8684631396,
				"z": -6.4107090069,
				"element": "C" 
			},
			{
				"x": 6.969668055,
				"y": 1.0887268767,
				"z": -5.9651632978,
				"element": "C" 
			},
			{
				"x": 5.9699278089,
				"y": 1.0166452347,
				"z": -7.1286674173,
				"element": "C" 
			},
			{
				"x": 4.4936664093,
				"y": 1.1700605699,
				"z": -6.7248737224,
				"element": "C" 
			},
			{
				"x": 4.1199604443,
				"y": 2.5599805988,
				"z": -6.18670213,
				"element": "C" 
			},
			{
				"x": 2.6138591053,
				"y": 2.7616983769,
				"z": -5.94257222,
				"element": "C" 
			},
			{
				"x": 1.9695662395,
				"y": 1.9403284675,
				"z": -4.807989685,
				"element": "C" 
			},
			{
				"x": 2.4557774669,
				"y": 2.3005946389,
				"z": -3.3831730471,
				"element": "C" 
			},
			{
				"x": 3.6281606193,
				"y": 1.4660915007,
				"z": -2.8147870803,
				"element": "C" 
			},
			{
				"x": 3.216363691,
				"y": 0.2280601555,
				"z": -1.9965428909,
				"element": "C" 
			},
			{
				"x": 2.4882177254,
				"y": -0.8748904907,
				"z": -2.7796260453,
				"element": "C" 
			},
			{
				"x": 2.2233854229,
				"y": -2.1565567759,
				"z": -1.9734062555,
				"element": "C" 
			},
			{
				"x": 1.2396746464,
				"y": -1.9689857083,
				"z": -0.8149955306,
				"element": "C" 
			},
			{
				"x": 0.8904329344,
				"y": -3.269912609,
				"z": -0.1176482144,
				"element": "C" 
			},
			{
				"x": 1.2217953987,
				"y": -4.3770756286,
				"z": -0.4859069151,
				"element": "O" 
			},
			{
				"x": 0.1433592101,
				"y": -3.0334290981,
				"z": 0.9876210123,
				"element": "O" 
			},
			{
				"x": -0.2871032993,
				"y": -4.1927123847,
				"z": 1.742137189,
				"element": "C" 
			},
			{
				"x": -1.5958696136,
				"y": -4.7649197045,
				"z": 1.201148334,
				"element": "C" 
			},
			{
				"x": -2.780058186,
				"y": -3.7846809743,
				"z": 1.1908829257,
				"element": "C" 
			},
			{
				"x": -3.2844430616,
				"y": -3.3712078661,
				"z": 2.5804961055,
				"element": "C" 
			},
			{
				"x": -4.500756538,
				"y": -2.4369113146,
				"z": 2.5277760732,
				"element": "C" 
			},
			{
				"x": -5.0116691468,
				"y": -2.0283998515,
				"z": 3.9168404146,
				"element": "C" 
			},
			{
				"x": -6.1803006086,
				"y": -1.0282037709,
				"z": 3.9061657214,
				"element": "C" 
			},
			{
				"x": -7.4886425028,
				"y": -1.5905399779,
				"z": 3.3255583053,
				"element": "C" 
			},
			{
				"x": -8.7276545709,
				"y": -0.6779522508,
				"z": 3.4486188328,
				"element": "C" 
			},
			{
				"x": -8.9339758013,
				"y": 0.365381789,
				"z": 2.3317791614,
				"element": "C" 
			},
			{
				"x": -7.9658500545,
				"y": 1.5607232021,
				"z": 2.2679295772,
				"element": "C" 
			},
			{
				"x": -8.0032233979,
				"y": 2.473610744,
				"z": 3.5030505201,
				"element": "C" 
			},
			{
				"x": -7.2376202582,
				"y": 3.7990184626,
				"z": 3.33502762,
				"element": "C" 
			},
			{
				"x": -5.71475331,
				"y": 3.6833592581,
				"z": 3.1458063384,
				"element": "C" 
			},
			{
				"x": -4.9574251587,
				"y": 3.131208368,
				"z": 4.3615855374,
				"element": "C" 
			},
			{
				"x": -3.4387920046,
				"y": 3.1062997081,
				"z": 4.1580469523,
				"element": "C" 
			},
			{
				"x": 11.6828257977,
				"y": 4.2118640718,
				"z": -6.37569391,
				"element": "H" 
			},
			{
				"x": 11.4404312751,
				"y": 2.4841201237,
				"z": -6.6403940166,
				"element": "H" 
			},
			{
				"x": 12.1708530598,
				"y": 3.050450672,
				"z": -5.1341743464,
				"element": "H" 
			},
			{
				"x": 9.2709704691,
				"y": 3.6112774009,
				"z": -6.0103661208,
				"element": "H" 
			},
			{
				"x": 10.0079298848,
				"y": 4.2423265698,
				"z": -4.5543721772,
				"element": "H" 
			},
			{
				"x": 10.3133047788,
				"y": 1.9600207721,
				"z": -3.643269429,
				"element": "H" 
			},
			{
				"x": 8.6331927376,
				"y": 2.3489740429,
				"z": -3.9437047362,
				"element": "H" 
			},
			{
				"x": 9.185240599,
				"y": 0.0227402911,
				"z": -4.5773330292,
				"element": "H" 
			},
			{
				"x": 10.4292797841,
				"y": 0.567336478,
				"z": -5.6806688609,
				"element": "H" 
			},
			{
				"x": 8.483497361,
				"y": -0.0841384396,
				"z": -6.9546374158,
				"element": "H" 
			},
			{
				"x": 8.6974413243,
				"y": 1.6432318928,
				"z": -7.1394704201,
				"element": "H" 
			},
			{
				"x": 6.7040412287,
				"y": 0.3305209612,
				"z": -5.2134134118,
				"element": "H" 
			},
			{
				"x": 6.8811081551,
				"y": 2.0594417167,
				"z": -5.4625693855,
				"element": "H" 
			},
			{
				"x": 6.2227909444,
				"y": 1.7876456412,
				"z": -7.8710374607,
				"element": "H" 
			},
			{
				"x": 6.096619303,
				"y": 0.0529340289,
				"z": -7.6407164115,
				"element": "H" 
			},
			{
				"x": 3.8662457424,
				"y": 0.9577388239,
				"z": -7.6017067976,
				"element": "H" 
			},
			{
				"x": 4.244276751,
				"y": 0.3981019796,
				"z": -5.9841869577,
				"element": "H" 
			},
			{
				"x": 4.4515089742,
				"y": 3.3124118446,
				"z": -6.9160954473,
				"element": "H" 
			},
			{
				"x": 4.6763029589,
				"y": 2.7741607099,
				"z": -5.2659789194,
				"element": "H" 
			},
			{
				"x": 2.0794310361,
				"y": 2.5414764158,
				"z": -6.8774189527,
				"element": "H" 
			},
			{
				"x": 2.4324114766,
				"y": 3.8257664567,
				"z": -5.7368477727,
				"element": "H" 
			},
			{
				"x": 2.1077324069,
				"y": 0.86965412,
				"z": -4.9963970593,
				"element": "H" 
			},
			{
				"x": 0.8868810481,
				"y": 2.1113416878,
				"z": -4.8627520439,
				"element": "H" 
			},
			{
				"x": 1.6126200799,
				"y": 2.2220619659,
				"z": -2.6837397012,
				"element": "H" 
			},
			{
				"x": 2.7358120141,
				"y": 3.3623177172,
				"z": -3.3777404802,
				"element": "H" 
			},
			{
				"x": 4.2989466224,
				"y": 1.1559975804,
				"z": -3.6255052199,
				"element": "H" 
			},
			{
				"x": 4.230566787,
				"y": 2.1064896266,
				"z": -2.1580616048,
				"element": "H" 
			},
			{
				"x": 4.1199361988,
				"y": -0.2060197886,
				"z": -1.5453810575,
				"element": "H" 
			},
			{
				"x": 2.5907780332,
				"y": 0.5617676362,
				"z": -1.1570043995,
				"element": "H" 
			},
			{
				"x": 1.5349365224,
				"y": -0.4923552858,
				"z": -3.1682042989,
				"element": "H" 
			},
			{
				"x": 3.0902379533,
				"y": -1.1402645682,
				"z": -3.6591296209,
				"element": "H" 
			},
			{
				"x": 3.1694302543,
				"y": -2.5506055215,
				"z": -1.5815161268,
				"element": "H" 
			},
			{
				"x": 1.8306611148,
				"y": -2.9336328763,
				"z": -2.6375347039,
				"element": "H" 
			},
			{
				"x": 1.6186030058,
				"y": -1.2748400519,
				"z": -0.0569266378,
				"element": "H" 
			},
			{
				"x": 0.2986437346,
				"y": -1.5271749183,
				"z": -1.1713857848,
				"element": "H" 
			},
			{
				"x": -0.3944176756,
				"y": -3.826369879,
				"z": 2.7659132096,
				"element": "H" 
			},
			{
				"x": 0.5022547042,
				"y": -4.9472300973,
				"z": 1.7090624674,
				"element": "H" 
			},
			{
				"x": -1.4091355217,
				"y": -5.1344676284,
				"z": 0.1868659181,
				"element": "H" 
			},
			{
				"x": -1.8459021902,
				"y": -5.6447535556,
				"z": 1.81043063,
				"element": "H" 
			},
			{
				"x": -3.6071933307,
				"y": -4.2484505878,
				"z": 0.637516107,
				"element": "H" 
			},
			{
				"x": -2.4979299052,
				"y": -2.8885291285,
				"z": 0.6237077196,
				"element": "H" 
			},
			{
				"x": -2.4805442279,
				"y": -2.8745078191,
				"z": 3.1405272647,
				"element": "H" 
			},
			{
				"x": -3.5439802045,
				"y": -4.272428052,
				"z": 3.155087511,
				"element": "H" 
			},
			{
				"x": -4.2377938451,
				"y": -1.5328955524,
				"z": 1.9594613915,
				"element": "H" 
			},
			{
				"x": -5.3034415079,
				"y": -2.9281009737,
				"z": 1.9621953463,
				"element": "H" 
			},
			{
				"x": -4.1784134761,
				"y": -1.5892068379,
				"z": 4.4822926952,
				"element": "H" 
			},
			{
				"x": -5.3117867606,
				"y": -2.9293178881,
				"z": 4.4716499826,
				"element": "H" 
			},
			{
				"x": -5.8726361567,
				"y": -0.1292237796,
				"z": 3.3580024258,
				"element": "H" 
			},
			{
				"x": -6.3713586889,
				"y": -0.7035395588,
				"z": 4.9383107273,
				"element": "H" 
			},
			{
				"x": -7.3495141832,
				"y": -1.8611578223,
				"z": 2.270310812,
				"element": "H" 
			},
			{
				"x": -7.7025680883,
				"y": -2.5331905865,
				"z": 3.8486607396,
				"element": "H" 
			},
			{
				"x": -9.6175441191,
				"y": -1.3203561746,
				"z": 3.4462709002,
				"element": "H" 
			},
			{
				"x": -8.7247412749,
				"y": -0.1871114706,
				"z": 4.4312170202,
				"element": "H" 
			},
			{
				"x": -8.9096415647,
				"y": -0.1575926949,
				"z": 1.3655783765,
				"element": "H" 
			},
			{
				"x": -9.9537123987,
				"y": 0.7638763942,
				"z": 2.429100911,
				"element": "H" 
			},
			{
				"x": -6.9439082853,
				"y": 1.2074697162,
				"z": 2.0875615785,
				"element": "H" 
			},
			{
				"x": -8.2311602626,
				"y": 2.15979252,
				"z": 1.3851129699,
				"element": "H" 
			},
			{
				"x": -7.6255631222,
				"y": 1.9347700427,
				"z": 4.3807053393,
				"element": "H" 
			},
			{
				"x": -9.0522154927,
				"y": 2.7113974105,
				"z": 3.7288800923,
				"element": "H" 
			},
			{
				"x": -7.4334484848,
				"y": 4.4324494459,
				"z": 4.2112752682,
				"element": "H" 
			},
			{
				"x": -7.6585966912,
				"y": 4.3368354431,
				"z": 2.4743334852,
				"element": "H" 
			},
			{
				"x": -5.3192049792,
				"y": 4.6814258606,
				"z": 2.9119086669,
				"element": "H" 
			},
			{
				"x": -5.4915040758,
				"y": 3.0631382666,
				"z": 2.2670038239,
				"element": "H" 
			},
			{
				"x": -5.1990381015,
				"y": 3.7418546035,
				"z": 5.2427324422,
				"element": "H" 
			},
			{
				"x": -5.3063295538,
				"y": 2.1166180091,
				"z": 4.591305885,
				"element": "H" 
			},
			{
				"x": -3.1637979155,
				"y": 2.4771986207,
				"z": 3.3034687381,
				"element": "H" 
			},
			{
				"x": -2.9213778571,
				"y": 2.7129149364,
				"z": 5.0393436113,
				"element": "H" 
			},
			{
				"x": -3.0482649806,
				"y": 4.1120273809,
				"z": 3.9642531146,
				"element": "H" 
			}
		],
		 "valence_orbital": [ 
			{
				"type": "occ",
				"energy": -0.29781,
				"method": "rhf"
			},
			{
				"type": "occ",
				"energy": -0.29613,
				"method": "rhf"
			},
			{
				"type": "occ",
				"energy": -0.29419,
				"method": "rhf"
			},
			{
				"type": "occ",
				"energy": -0.28973,
				"method": "rhf"
			},
			{
				"type": "occ",
				"energy": -0.26615,
				"method": "rhf"
			},
			{
				"type": "unocc",
				"energy": 0.0174,
				"method": "rhf"
			},
			{
				"type": "unocc",
				"energy": 0.06882,
				"method": "rhf"
			},
			{
				"type": "unocc",
				"energy": 0.07306,
				"method": "rhf"
			},
			{
				"type": "unocc",
				"energy": 0.07987,
				"method": "rhf"
			},
			{
				"type": "unocc",
				"energy": 0.0871,
				"method": "rhf"
			}
		],
		"cosmo_sigma_profile": { 
			"-0.025": 0.0,
			"-0.024": 0.0,
			"-0.023": 0.0,
			"-0.022": 0.0,
			"-0.021": 0.0,
			"-0.02": 0.0,
			"-0.019": 0.0,
			"-0.018": 0.0,
			"-0.017": 0.0,
			"-0.016": 0.0,
			"-0.015": 0.0,
			"-0.014": 0.0,
			"-0.013": 0.0,
			"-0.012": 0.0,
			"-0.011": 0.0,
			"-0.01": 0.0,
			"-0.009": 0.0,
			"-0.008": 0.0,
			"-0.007": 0.0,
			"-0.006": 0.375387651264,
			"-0.005": 5.91695007955,
			"-0.004": 12.3917256102,
			"-0.003": 22.4305674261,
			"-0.002": 87.9320195897,
			"-0.001": 186.1543014,
			"0.0": 191.86256506,
			"0.001": 145.9810948,
			"0.002": 64.0312364556,
			"0.003": 4.97778190491,
			"0.004": 3.16540048172,
			"0.005": 3.20368602753,
			"0.006": 3.17102490354,
			"0.007": 2.41725641461,
			"0.008": 2.73935237036,
			"0.009": 1.9291111341,
			"0.01": 2.45570780547,
			"0.011": 2.25229483417,
			"0.012": 4.08842681972,
			"0.013": 1.63663719537,
			"0.014": 0.00615824660384,
			"0.015": 0.0,
			"0.016": 0.0,
			"0.017": 0.0,
			"0.018": 0.0,
			"0.019": 0.0,
			"0.02": 0.0,
			"0.021": 0.0,
			"0.022": 0.0,
			"0.023": 0.0,
			"0.024": 0.0,
			"0.025": 0.0
		}
	}
}
