{
	 "smiles": "O=C=NCCCCCCN=C=O", 
	 "Tm": 206.15, 
	 "num_atms": 24, 
	 "gaussian": { 
		 "optdone": 1, 
		 "sigma_profile": "yes", 
		 "theory": "DFT", 
		 "functional": "B3LYP", 
		 "basiset": "6-31G**", 
		 "properties": { 
			 "R2extent": 4797.8889, 
			 "electric_dipole_moment_norm": 0.654555131368, 
			 "electric_quadrupole_moment_norm": 35.5342061401, 
			 "total_energy": -572.034918559, 
			 "HOMO_LUMO_gap": 0.29272, 
			 "cosmo_polarized_energy": -9.01, 
			 "cosmo_cavitation_energy": 29.66, 
			 "cosmo_dispersion_energy": -20.42, 
			 "cosmo_repulsion_energy": 1.7, 
			 "cosmo_total_nonelectrostatic_energy": 10.93, 
			 "SMD_solvation_energy": 7.84 
		},
		"coords": [
			{
				"x": 2.2558883932,
				"y": 0.0997728643,
				"z": -4.9796521978,
				"element": "O" 
			},
			{
				"x": 2.1675075955,
				"y": 0.1035652146,
				"z": -3.8017307706,
				"element": "C" 
			},
			{
				"x": 2.0710071311,
				"y": -0.0339576816,
				"z": -2.6065957408,
				"element": "N" 
			},
			{
				"x": 2.0232039876,
				"y": 0.7875326525,
				"z": -1.4111266152,
				"element": "C" 
			},
			{
				"x": 1.6569668481,
				"y": -0.0497307071,
				"z": -0.1823057954,
				"element": "C" 
			},
			{
				"x": 0.2596136651,
				"y": -0.6801652718,
				"z": -0.2715196928,
				"element": "C" 
			},
			{
				"x": -0.1197342238,
				"y": -1.6267728683,
				"z": 0.8869925742,
				"element": "C" 
			},
			{
				"x": -0.7532929778,
				"y": -0.9849730792,
				"z": 2.1334444937,
				"element": "C" 
			},
			{
				"x": 0.1767188454,
				"y": -0.0888101559,
				"z": 2.9569095618,
				"element": "C" 
			},
			{
				"x": -0.4777526782,
				"y": 0.3175898603,
				"z": 4.1857443193,
				"element": "N" 
			},
			{
				"x": -0.3193537723,
				"y": 1.099483989,
				"z": 5.0906425795,
				"element": "C" 
			},
			{
				"x": -0.2833151771,
				"y": 1.8161851326,
				"z": 6.0295008264,
				"element": "O" 
			},
			{
				"x": 1.2900617163,
				"y": 1.5931651077,
				"z": -1.5482221514,
				"element": "H" 
			},
			{
				"x": 3.0029870482,
				"y": 1.2565617904,
				"z": -1.2600713891,
				"element": "H" 
			},
			{
				"x": 2.4090453578,
				"y": -0.8393183131,
				"z": -0.0605797056,
				"element": "H" 
			},
			{
				"x": 1.74441506,
				"y": 0.6050179486,
				"z": 0.6924120911,
				"element": "H" 
			},
			{
				"x": 0.217753632,
				"y": -1.2442931132,
				"z": -1.2101702539,
				"element": "H" 
			},
			{
				"x": -0.4977045066,
				"y": 0.1121457568,
				"z": -0.3613866781,
				"element": "H" 
			},
			{
				"x": -0.8448574936,
				"y": -2.3553999227,
				"z": 0.5064981375,
				"element": "H" 
			},
			{
				"x": 0.7609435797,
				"y": -2.2150527166,
				"z": 1.1819603273,
				"element": "H" 
			},
			{
				"x": -1.1135426056,
				"y": -1.7810144694,
				"z": 2.7954955787,
				"element": "H" 
			},
			{
				"x": -1.6371160217,
				"y": -0.4030509371,
				"z": 1.843405283,
				"element": "H" 
			},
			{
				"x": 1.0979731737,
				"y": -0.6336036768,
				"z": 3.2024820097,
				"element": "H" 
			},
			{
				"x": 0.4638834231,
				"y": 0.8035225959,
				"z": 2.3895732084,
				"element": "H" 
			}
		],
		 "valence_orbital": [ 
			{
				"type": "occ",
				"energy": -0.33614,
				"method": "rhf"
			},
			{
				"type": "occ",
				"energy": -0.29673,
				"method": "rhf"
			},
			{
				"type": "occ",
				"energy": -0.29163,
				"method": "rhf"
			},
			{
				"type": "occ",
				"energy": -0.27933,
				"method": "rhf"
			},
			{
				"type": "occ",
				"energy": -0.27787,
				"method": "rhf"
			},
			{
				"type": "unocc",
				"energy": 0.01485,
				"method": "rhf"
			},
			{
				"type": "unocc",
				"energy": 0.01846,
				"method": "rhf"
			},
			{
				"type": "unocc",
				"energy": 0.055,
				"method": "rhf"
			},
			{
				"type": "unocc",
				"energy": 0.0567,
				"method": "rhf"
			},
			{
				"type": "unocc",
				"energy": 0.08428,
				"method": "rhf"
			}
		],
		"cosmo_sigma_profile": { 
			"-0.025": 0.0,
			"-0.024": 0.0,
			"-0.023": 0.0,
			"-0.022": 0.0,
			"-0.021": 0.0,
			"-0.02": 0.0,
			"-0.019": 0.0,
			"-0.018": 0.0,
			"-0.017": 0.0,
			"-0.016": 0.0,
			"-0.015": 0.0,
			"-0.014": 0.0,
			"-0.013": 0.0,
			"-0.012": 0.0,
			"-0.011": 0.0,
			"-0.01": 0.0,
			"-0.009": 0.0,
			"-0.008": 0.0,
			"-0.007": 0.222697127352,
			"-0.006": 6.52278771305,
			"-0.005": 17.6337270556,
			"-0.004": 20.5417525995,
			"-0.003": 29.3682342601,
			"-0.002": 29.5379674481,
			"-0.001": 29.1159816437,
			"0.0": 21.13631594,
			"0.001": 14.6155254366,
			"0.002": 9.01594718132,
			"0.003": 7.76623376364,
			"0.004": 8.56983189738,
			"0.005": 4.4235607408,
			"0.006": 6.69793141752,
			"0.007": 7.92570978275,
			"0.008": 12.9306947128,
			"0.009": 8.57490165788,
			"0.01": 0.0,
			"0.011": 0.0,
			"0.012": 0.0,
			"0.013": 0.0,
			"0.014": 0.0,
			"0.015": 0.0,
			"0.016": 0.0,
			"0.017": 0.0,
			"0.018": 0.0,
			"0.019": 0.0,
			"0.02": 0.0,
			"0.021": 0.0,
			"0.022": 0.0,
			"0.023": 0.0,
			"0.024": 0.0,
			"0.025": 0.0
		}
	}
}
