{
	 "smiles": "CC(C)C1=NC2=C(C(C)=NN2C)C(=C1)C(O)=O", 
	 "Tm": 485.15, 
	 "num_atms": 32, 
	 "gaussian": { 
		 "optdone": 1, 
		 "sigma_profile": "yes", 
		 "theory": "DFT", 
		 "functional": "B3LYP", 
		 "basiset": "6-31G**", 
		 "properties": { 
			 "R2extent": 4997.0152, 
			 "electric_dipole_moment_norm": 3.66431096661, 
			 "electric_quadrupole_moment_norm": 14.1283533471, 
			 "total_energy": -781.037373203, 
			 "HOMO_LUMO_gap": 0.1645, 
			 "cosmo_polarized_energy": -13.96, 
			 "cosmo_cavitation_energy": 35.09, 
			 "cosmo_dispersion_energy": -24.84, 
			 "cosmo_repulsion_energy": 1.95, 
			 "cosmo_total_nonelectrostatic_energy": 12.2, 
			 "SMD_solvation_energy": 4.94 
		},
		"coords": [
			{
				"x": -1.2981006973,
				"y": 2.910730085,
				"z": -1.2230811303,
				"element": "C" 
			},
			{
				"x": -1.44938335,
				"y": 1.3830068437,
				"z": -1.0962842707,
				"element": "C" 
			},
			{
				"x": -1.6453558964,
				"y": 0.7242543103,
				"z": -2.4748256108,
				"element": "C" 
			},
			{
				"x": -0.2854245168,
				"y": 0.7663651799,
				"z": -0.3384617159,
				"element": "C" 
			},
			{
				"x": -0.5727683555,
				"y": 0.1527977906,
				"z": 0.8116163573,
				"element": "N" 
			},
			{
				"x": 0.4723720121,
				"y": -0.36962339,
				"z": 1.462453226,
				"element": "C" 
			},
			{
				"x": 1.8375785458,
				"y": -0.3716436648,
				"z": 1.062773916,
				"element": "C" 
			},
			{
				"x": 2.5210421675,
				"y": -1.0145807317,
				"z": 2.1534457188,
				"element": "C" 
			},
			{
				"x": 3.9789597955,
				"y": -1.2887734053,
				"z": 2.3840785304,
				"element": "C" 
			},
			{
				"x": 1.6498545105,
				"y": -1.3684057955,
				"z": 3.0912682814,
				"element": "N" 
			},
			{
				"x": 0.4163987565,
				"y": -0.9914195626,
				"z": 2.6739617138,
				"element": "N" 
			},
			{
				"x": -0.7507691654,
				"y": -1.2077045401,
				"z": 3.5048563369,
				"element": "C" 
			},
			{
				"x": 2.1082184791,
				"y": 0.2648053,
				"z": -0.1742596273,
				"element": "C" 
			},
			{
				"x": 1.0381276724,
				"y": 0.844866227,
				"z": -0.8428677497,
				"element": "C" 
			},
			{
				"x": 3.4561539422,
				"y": 0.3604105495,
				"z": -0.8328740351,
				"element": "C" 
			},
			{
				"x": 4.2985873714,
				"y": -0.6837818856,
				"z": -0.6288018381,
				"element": "O" 
			},
			{
				"x": 3.7878791322,
				"y": 1.2845681788,
				"z": -1.5350936114,
				"element": "O" 
			},
			{
				"x": -2.179338141,
				"y": 3.3398507461,
				"z": -1.7114250126,
				"element": "H" 
			},
			{
				"x": -0.4223297248,
				"y": 3.1803583351,
				"z": -1.8233676663,
				"element": "H" 
			},
			{
				"x": -1.1907652889,
				"y": 3.3824241483,
				"z": -0.2414577259,
				"element": "H" 
			},
			{
				"x": -2.3349904038,
				"y": 1.1741445062,
				"z": -0.4865320849,
				"element": "H" 
			},
			{
				"x": -2.5307054586,
				"y": 1.1366816522,
				"z": -2.9700149595,
				"element": "H" 
			},
			{
				"x": -1.7817208445,
				"y": -0.357845552,
				"z": -2.3832257069,
				"element": "H" 
			},
			{
				"x": -0.7864736417,
				"y": 0.9017333963,
				"z": -3.1313418825,
				"element": "H" 
			},
			{
				"x": 4.6005784496,
				"y": -0.4199467275,
				"z": 2.1511292769,
				"element": "H" 
			},
			{
				"x": 4.1217046285,
				"y": -1.5531328832,
				"z": 3.4337397283,
				"element": "H" 
			},
			{
				"x": 4.3554668937,
				"y": -2.1306296321,
				"z": 1.7881106647,
				"element": "H" 
			},
			{
				"x": -1.6161719994,
				"y": -0.8256609371,
				"z": 2.9626915814,
				"element": "H" 
			},
			{
				"x": -0.8790386178,
				"y": -2.2748211246,
				"z": 3.7045153941,
				"element": "H" 
			},
			{
				"x": -0.644984061,
				"y": -0.6763247362,
				"z": 4.4547419906,
				"element": "H" 
			},
			{
				"x": 1.2360936051,
				"y": 1.3560919997,
				"z": -1.7777980892,
				"element": "H" 
			},
			{
				"x": 3.8454042007,
				"y": -1.3824946803,
				"z": -0.1362699996,
				"element": "H" 
			}
		],
		 "valence_orbital": [ 
			{
				"type": "occ",
				"energy": -0.30349,
				"method": "rhf"
			},
			{
				"type": "occ",
				"energy": -0.28418,
				"method": "rhf"
			},
			{
				"type": "occ",
				"energy": -0.27254,
				"method": "rhf"
			},
			{
				"type": "occ",
				"energy": -0.25366,
				"method": "rhf"
			},
			{
				"type": "occ",
				"energy": -0.23651,
				"method": "rhf"
			},
			{
				"type": "unocc",
				"energy": -0.07201,
				"method": "rhf"
			},
			{
				"type": "unocc",
				"energy": -0.00886,
				"method": "rhf"
			},
			{
				"type": "unocc",
				"energy": 0.02268,
				"method": "rhf"
			},
			{
				"type": "unocc",
				"energy": 0.04352,
				"method": "rhf"
			},
			{
				"type": "unocc",
				"energy": 0.06622,
				"method": "rhf"
			}
		],
		"cosmo_sigma_profile": { 
			"-0.025": 0.0,
			"-0.024": 0.0,
			"-0.023": 0.0,
			"-0.022": 0.0,
			"-0.021": 0.0,
			"-0.02": 0.0,
			"-0.019": 0.0,
			"-0.018": 0.383271443382,
			"-0.017": 0.384427133473,
			"-0.016": 0.754788171886,
			"-0.015": 0.773289270184,
			"-0.014": 1.20525649399,
			"-0.013": 1.13150358298,
			"-0.012": 0.587926687271,
			"-0.011": 0.94399829087,
			"-0.01": 1.14272783076,
			"-0.009": 0.619344076765,
			"-0.008": 1.20852299193,
			"-0.007": 2.71253303588,
			"-0.006": 9.92603534486,
			"-0.005": 14.3018260938,
			"-0.004": 17.350560584,
			"-0.003": 30.1690835544,
			"-0.002": 27.8695880642,
			"-0.001": 33.4559826941,
			"0.0": 36.1921648033,
			"0.001": 26.0369297054,
			"0.002": 8.50412146674,
			"0.003": 7.39693758425,
			"0.004": 6.21807360837,
			"0.005": 6.15501518978,
			"0.006": 5.57006612421,
			"0.007": 4.60620600683,
			"0.008": 5.07827440135,
			"0.009": 5.96152678275,
			"0.01": 7.78401686054,
			"0.011": 7.07275640108,
			"0.012": 3.85321284146,
			"0.013": 1.00937499092,
			"0.014": 0.709521002682,
			"0.015": 0.234013136576,
			"0.016": 0.0,
			"0.017": 0.0,
			"0.018": 0.0,
			"0.019": 0.0,
			"0.02": 0.0,
			"0.021": 0.0,
			"0.022": 0.0,
			"0.023": 0.0,
			"0.024": 0.0,
			"0.025": 0.0
		}
	}
}
