{
	 "smiles": "CC1(CC(C1)C(=NOCC(O)CN1CCN(CC1)C1=CC=CC=C1)C1=CC2=C(O1)C=CC=C2)C1=CC=CC=C1", 
	 "Tm": 369.65, 
	 "num_atms": 76, 
	 "gaussian": { 
		 "optdone": 1, 
		 "sigma_profile": "yes", 
		 "theory": "DFT", 
		 "functional": "B3LYP", 
		 "basiset": "6-31G**", 
		 "properties": { 
			 "R2extent": 21750.9653, 
			 "electric_dipole_moment_norm": 2.738593378, 
			 "electric_quadrupole_moment_norm": 8.81684784546, 
			 "total_energy": -1669.62814347, 
			 "HOMO_LUMO_gap": 0.14892, 
			 "cosmo_polarized_energy": -17.63, 
			 "cosmo_cavitation_energy": 75.23, 
			 "cosmo_dispersion_energy": -45.6, 
			 "cosmo_repulsion_energy": 3.45, 
			 "cosmo_total_nonelectrostatic_energy": 33.08, 
			 "SMD_solvation_energy": 9.59 
		},
		"coords": [
			{
				"x": -1.0267288904,
				"y": 5.2811196657,
				"z": 0.383154466,
				"element": "C" 
			},
			{
				"x": -1.3985349014,
				"y": 3.9420701182,
				"z": -0.2797637819,
				"element": "C" 
			},
			{
				"x": -0.5718540811,
				"y": 2.7530763827,
				"z": 0.3090950163,
				"element": "C" 
			},
			{
				"x": 0.4579199928,
				"y": 2.9299911154,
				"z": -0.8457949702,
				"element": "C" 
			},
			{
				"x": -0.6308117961,
				"y": 3.7241429013,
				"z": -1.6255459139,
				"element": "C" 
			},
			{
				"x": 1.1057577679,
				"y": 1.7044108629,
				"z": -1.4353293665,
				"element": "C" 
			},
			{
				"x": 2.3941145083,
				"y": 1.6858954216,
				"z": -1.4141121185,
				"element": "N" 
			},
			{
				"x": 2.9384848415,
				"y": 0.5177635337,
				"z": -1.941195121,
				"element": "O" 
			},
			{
				"x": 4.3568050998,
				"y": 0.6665941689,
				"z": -2.1032165545,
				"element": "C" 
			},
			{
				"x": 5.1583890077,
				"y": 0.8137706885,
				"z": -0.8040379971,
				"element": "C" 
			},
			{
				"x": 5.0294819043,
				"y": 2.1156015056,
				"z": -0.2552158153,
				"element": "O" 
			},
			{
				"x": 4.8592768959,
				"y": -0.2887841976,
				"z": 0.2422797809,
				"element": "C" 
			},
			{
				"x": 3.7007846978,
				"y": 0.0292751119,
				"z": 1.0794542546,
				"element": "N" 
			},
			{
				"x": 4.0799888533,
				"y": 0.6369249531,
				"z": 2.3540488777,
				"element": "C" 
			},
			{
				"x": 2.8460917935,
				"y": 1.1157006466,
				"z": 3.116030399,
				"element": "C" 
			},
			{
				"x": 1.912720367,
				"y": 0.0135696024,
				"z": 3.3269133404,
				"element": "N" 
			},
			{
				"x": 1.5577831412,
				"y": -0.6417017749,
				"z": 2.0600765927,
				"element": "C" 
			},
			{
				"x": 2.8033600984,
				"y": -1.0998139384,
				"z": 1.3056337877,
				"element": "C" 
			},
			{
				"x": 0.8740819853,
				"y": 0.2004153483,
				"z": 4.2644108692,
				"element": "C" 
			},
			{
				"x": 0.0582720872,
				"y": -0.889554384,
				"z": 4.6360370882,
				"element": "C" 
			},
			{
				"x": -0.9507394222,
				"y": -0.7417948796,
				"z": 5.5811605576,
				"element": "C" 
			},
			{
				"x": -1.1781035549,
				"y": 0.4915650681,
				"z": 6.1995426631,
				"element": "C" 
			},
			{
				"x": -0.3740807723,
				"y": 1.573335907,
				"z": 5.8485187002,
				"element": "C" 
			},
			{
				"x": 0.6335660717,
				"y": 1.4386661247,
				"z": 4.8904441915,
				"element": "C" 
			},
			{
				"x": 0.2858887025,
				"y": 0.5921646742,
				"z": -1.9626847465,
				"element": "C" 
			},
			{
				"x": -0.5823211619,
				"y": 0.5168100287,
				"z": -3.0099079175,
				"element": "C" 
			},
			{
				"x": -1.0646450917,
				"y": -0.8401745228,
				"z": -3.0507314845,
				"element": "C" 
			},
			{
				"x": -0.4296993335,
				"y": -1.4923941075,
				"z": -1.9777296952,
				"element": "C" 
			},
			{
				"x": 0.3934921539,
				"y": -0.6244299419,
				"z": -1.3144109156,
				"element": "O" 
			},
			{
				"x": -0.6342152162,
				"y": -2.8301401575,
				"z": -1.6595633122,
				"element": "C" 
			},
			{
				"x": -1.5193123932,
				"y": -3.5328009667,
				"z": -2.4756638784,
				"element": "C" 
			},
			{
				"x": -2.1677840921,
				"y": -2.9102001838,
				"z": -3.5599638791,
				"element": "C" 
			},
			{
				"x": -1.9516134677,
				"y": -1.5686796966,
				"z": -3.8590600686,
				"element": "C" 
			},
			{
				"x": -2.9074456604,
				"y": 3.7858763296,
				"z": -0.3152623589,
				"element": "C" 
			},
			{
				"x": -3.6569497387,
				"y": 4.3040002231,
				"z": -1.3808255847,
				"element": "C" 
			},
			{
				"x": -5.0485789439,
				"y": 4.2000530283,
				"z": -1.3975426235,
				"element": "C" 
			},
			{
				"x": -5.717756997,
				"y": 3.5753981054,
				"z": -0.343555482,
				"element": "C" 
			},
			{
				"x": -4.9838560382,
				"y": 3.0581485181,
				"z": 0.7251861233,
				"element": "C" 
			},
			{
				"x": -3.5920760481,
				"y": 3.163985262,
				"z": 0.7379128451,
				"element": "C" 
			},
			{
				"x": -1.4584691593,
				"y": 6.120615439,
				"z": -0.1720526433,
				"element": "H" 
			},
			{
				"x": -1.4118139326,
				"y": 5.3240761581,
				"z": 1.4073584604,
				"element": "H" 
			},
			{
				"x": 0.0590259502,
				"y": 5.4237112242,
				"z": 0.4230399916,
				"element": "H" 
			},
			{
				"x": -1.1143576602,
				"y": 1.8076243594,
				"z": 0.2174972051,
				"element": "H" 
			},
			{
				"x": -0.1927356699,
				"y": 2.8479408302,
				"z": 1.3312519916,
				"element": "H" 
			},
			{
				"x": 1.2684156645,
				"y": 3.5972379762,
				"z": -0.5427305062,
				"element": "H" 
			},
			{
				"x": -0.2942192819,
				"y": 4.6100826002,
				"z": -2.1730776688,
				"element": "H" 
			},
			{
				"x": -1.2047838628,
				"y": 3.0823999239,
				"z": -2.2974409428,
				"element": "H" 
			},
			{
				"x": 4.6485737815,
				"y": -0.2497851085,
				"z": -2.6259360376,
				"element": "H" 
			},
			{
				"x": 4.5642761241,
				"y": 1.5274833448,
				"z": -2.750280845,
				"element": "H" 
			},
			{
				"x": 6.2123446036,
				"y": 0.7154675705,
				"z": -1.1017732923,
				"element": "H" 
			},
			{
				"x": 4.0725026688,
				"y": 2.2791615833,
				"z": -0.2165336977,
				"element": "H" 
			},
			{
				"x": 5.757446729,
				"y": -0.438715302,
				"z": 0.8631091121,
				"element": "H" 
			},
			{
				"x": 4.6838432373,
				"y": -1.2369883071,
				"z": -0.2792151864,
				"element": "H" 
			},
			{
				"x": 4.7321918887,
				"y": 1.4893840996,
				"z": 2.1496558186,
				"element": "H" 
			},
			{
				"x": 4.6378387398,
				"y": -0.0781889457,
				"z": 2.9909298185,
				"element": "H" 
			},
			{
				"x": 2.3794603195,
				"y": 1.9479210692,
				"z": 2.5569311041,
				"element": "H" 
			},
			{
				"x": 3.1638815483,
				"y": 1.5014456952,
				"z": 4.0890184528,
				"element": "H" 
			},
			{
				"x": 0.9864161182,
				"y": 0.0454827031,
				"z": 1.4145862862,
				"element": "H" 
			},
			{
				"x": 0.924477885,
				"y": -1.5075167398,
				"z": 2.2593949538,
				"element": "H" 
			},
			{
				"x": 3.2940912354,
				"y": -1.9122639924,
				"z": 1.8771368091,
				"element": "H" 
			},
			{
				"x": 2.4912353558,
				"y": -1.4981342919,
				"z": 0.3355559406,
				"element": "H" 
			},
			{
				"x": 0.2387516504,
				"y": -1.8669222326,
				"z": 4.2006918722,
				"element": "H" 
			},
			{
				"x": -1.5563965776,
				"y": -1.6039106198,
				"z": 5.8479340556,
				"element": "H" 
			},
			{
				"x": -1.9624860696,
				"y": 0.6017743235,
				"z": 6.9420190756,
				"element": "H" 
			},
			{
				"x": -0.5323948884,
				"y": 2.5429625825,
				"z": 6.313543135,
				"element": "H" 
			},
			{
				"x": 1.2233064307,
				"y": 2.3088335674,
				"z": 4.6277965568,
				"element": "H" 
			},
			{
				"x": -0.8273026694,
				"y": 1.3181681025,
				"z": -3.691001684,
				"element": "H" 
			},
			{
				"x": -0.1272192285,
				"y": -3.2964287198,
				"z": -0.821841746,
				"element": "H" 
			},
			{
				"x": -1.7115298231,
				"y": -4.5816834572,
				"z": -2.2711927599,
				"element": "H" 
			},
			{
				"x": -2.8506677677,
				"y": -3.4916695527,
				"z": -4.172104455,
				"element": "H" 
			},
			{
				"x": -2.4581480562,
				"y": -1.0964388597,
				"z": -4.6953928285,
				"element": "H" 
			},
			{
				"x": -3.1468003325,
				"y": 4.7922341449,
				"z": -2.2076774094,
				"element": "H" 
			},
			{
				"x": -5.6097353123,
				"y": 4.6049832802,
				"z": -2.2353848642,
				"element": "H" 
			},
			{
				"x": -6.8005725468,
				"y": 3.49033391,
				"z": -0.3563417037,
				"element": "H" 
			},
			{
				"x": -5.4939778961,
				"y": 2.5679168942,
				"z": 1.5498234965,
				"element": "H" 
			},
			{
				"x": -3.0322215646,
				"y": 2.7548482022,
				"z": 1.5750181669,
				"element": "H" 
			}
		],
		 "valence_orbital": [ 
			{
				"type": "occ",
				"energy": -0.23952,
				"method": "rhf"
			},
			{
				"type": "occ",
				"energy": -0.23749,
				"method": "rhf"
			},
			{
				"type": "occ",
				"energy": -0.22253,
				"method": "rhf"
			},
			{
				"type": "occ",
				"energy": -0.20694,
				"method": "rhf"
			},
			{
				"type": "occ",
				"energy": -0.18969,
				"method": "rhf"
			},
			{
				"type": "unocc",
				"energy": -0.04077,
				"method": "rhf"
			},
			{
				"type": "unocc",
				"energy": -0.00814,
				"method": "rhf"
			},
			{
				"type": "unocc",
				"energy": 0.00118,
				"method": "rhf"
			},
			{
				"type": "unocc",
				"energy": 0.00241,
				"method": "rhf"
			},
			{
				"type": "unocc",
				"energy": 0.00848,
				"method": "rhf"
			}
		],
		"cosmo_sigma_profile": { 
			"-0.025": 0.0,
			"-0.024": 0.0,
			"-0.023": 0.0,
			"-0.022": 0.0,
			"-0.021": 0.0,
			"-0.02": 0.0,
			"-0.019": 0.0,
			"-0.018": 0.0,
			"-0.017": 0.0,
			"-0.016": 0.0,
			"-0.015": 0.0,
			"-0.014": 0.0,
			"-0.013": 0.0,
			"-0.012": 0.0,
			"-0.011": 0.0,
			"-0.01": 0.0,
			"-0.009": 0.0,
			"-0.008": 0.935001138295,
			"-0.007": 4.10300982161,
			"-0.006": 17.4866286014,
			"-0.005": 40.4085946466,
			"-0.004": 50.4945125473,
			"-0.003": 61.8021011169,
			"-0.002": 70.3348932911,
			"-0.001": 71.7999575786,
			"0.0": 49.9752765493,
			"0.001": 36.8371297999,
			"0.002": 33.5073874016,
			"0.003": 33.7264085165,
			"0.004": 32.1188661582,
			"0.005": 29.7063069687,
			"0.006": 24.4501975093,
			"0.007": 17.067571591,
			"0.008": 7.20727165333,
			"0.009": 3.12392463759,
			"0.01": 1.50118430708,
			"0.011": 1.49147431086,
			"0.012": 1.1364997484,
			"0.013": 1.40108141267,
			"0.014": 1.69581723093,
			"0.015": 1.07636524893,
			"0.016": 0.0,
			"0.017": 0.0,
			"0.018": 0.0,
			"0.019": 0.0,
			"0.02": 0.0,
			"0.021": 0.0,
			"0.022": 0.0,
			"0.023": 0.0,
			"0.024": 0.0,
			"0.025": 0.0
		}
	}
}
