{
	 "smiles": "OC(=O)C1=CC(=NO1)C1=C(F)C=CC(F)=C1", 
	 "Tm": 461.15, 
	 "num_atms": 21, 
	 "gaussian": { 
		 "optdone": 1, 
		 "sigma_profile": "yes", 
		 "theory": "DFT", 
		 "functional": "B3LYP", 
		 "basiset": "6-31G**", 
		 "properties": { 
			 "R2extent": 4777.0805, 
			 "electric_dipole_moment_norm": 5.94375998674, 
			 "electric_quadrupole_moment_norm": 24.5548415945, 
			 "total_energy": -864.10735093, 
			 "HOMO_LUMO_gap": 0.17837, 
			 "cosmo_polarized_energy": -20.86, 
			 "cosmo_cavitation_energy": 28.58, 
			 "cosmo_dispersion_energy": -20.63, 
			 "cosmo_repulsion_energy": 1.54, 
			 "cosmo_total_nonelectrostatic_energy": 9.49, 
			 "SMD_solvation_energy": 7.23 
		},
		"coords": [
			{
				"x": -2.3420010263,
				"y": 4.6049623901,
				"z": -1.0524747658,
				"element": "O" 
			},
			{
				"x": -1.1519323315,
				"y": 4.6170731356,
				"z": -0.4005052311,
				"element": "C" 
			},
			{
				"x": -0.67660819,
				"y": 5.6347141452,
				"z": 0.0293124273,
				"element": "O" 
			},
			{
				"x": -0.5133729296,
				"y": 3.2800938479,
				"z": -0.2422018602,
				"element": "C" 
			},
			{
				"x": -0.985264859,
				"y": 2.0011018691,
				"z": -0.2975795971,
				"element": "C" 
			},
			{
				"x": 0.1613057033,
				"y": 1.19776209,
				"z": -0.0076629163,
				"element": "C" 
			},
			{
				"x": 1.2248718796,
				"y": 1.9577512817,
				"z": 0.2001523851,
				"element": "N" 
			},
			{
				"x": 0.799774492,
				"y": 3.2653162414,
				"z": 0.0593078658,
				"element": "O" 
			},
			{
				"x": 0.2156657462,
				"y": -0.2710625781,
				"z": 0.0786705642,
				"element": "C" 
			},
			{
				"x": 1.3962514311,
				"y": -1.0004354464,
				"z": -0.1311605024,
				"element": "C" 
			},
			{
				"x": 2.5373356804,
				"y": -0.3571469526,
				"z": -0.4219760483,
				"element": "F" 
			},
			{
				"x": 1.4267330574,
				"y": -2.3892271966,
				"z": -0.0632067917,
				"element": "C" 
			},
			{
				"x": 0.2607967454,
				"y": -3.0964685941,
				"z": 0.2217664452,
				"element": "C" 
			},
			{
				"x": -0.9137585057,
				"y": -2.3816617539,
				"z": 0.4308805085,
				"element": "C" 
			},
			{
				"x": -2.0498583768,
				"y": -3.0503705522,
				"z": 0.7122253943,
				"element": "F" 
			},
			{
				"x": -0.9530704416,
				"y": -0.996949939,
				"z": 0.3632552613,
				"element": "C" 
			},
			{
				"x": -2.5010690207,
				"y": 3.7436313894,
				"z": -1.4640838658,
				"element": "H" 
			},
			{
				"x": -1.9902901514,
				"y": 1.6635040746,
				"z": -0.5012381905,
				"element": "H" 
			},
			{
				"x": 2.3679951565,
				"y": -2.8981950341,
				"z": -0.2377538169,
				"element": "H" 
			},
			{
				"x": 0.2541599788,
				"y": -4.178702253,
				"z": 0.2846910168,
				"element": "H" 
			},
			{
				"x": -1.891764038,
				"y": -0.4902901651,
				"z": 0.5560817175,
				"element": "H" 
			}
		],
		 "valence_orbital": [ 
			{
				"type": "occ",
				"energy": -0.3244,
				"method": "rhf"
			},
			{
				"type": "occ",
				"energy": -0.30082,
				"method": "rhf"
			},
			{
				"type": "occ",
				"energy": -0.2953,
				"method": "rhf"
			},
			{
				"type": "occ",
				"energy": -0.27805,
				"method": "rhf"
			},
			{
				"type": "occ",
				"energy": -0.25553,
				"method": "rhf"
			},
			{
				"type": "unocc",
				"energy": -0.07716,
				"method": "rhf"
			},
			{
				"type": "unocc",
				"energy": -0.05587,
				"method": "rhf"
			},
			{
				"type": "unocc",
				"energy": -0.01977,
				"method": "rhf"
			},
			{
				"type": "unocc",
				"energy": 0.02612,
				"method": "rhf"
			},
			{
				"type": "unocc",
				"energy": 0.04386,
				"method": "rhf"
			}
		],
		"cosmo_sigma_profile": { 
			"-0.025": 0.0,
			"-0.024": 0.0,
			"-0.023": 0.0,
			"-0.022": 0.0,
			"-0.021": 0.0,
			"-0.02": 0.404969356846,
			"-0.019": 1.40488287444,
			"-0.018": 1.45653042055,
			"-0.017": 0.77541682173,
			"-0.016": 1.29652825231,
			"-0.015": 1.27962211053,
			"-0.014": 0.933362087356,
			"-0.013": 1.83614775572,
			"-0.012": 1.69055605216,
			"-0.011": 2.5342393175,
			"-0.01": 3.0420798262,
			"-0.009": 3.51254885671,
			"-0.008": 7.41264296345,
			"-0.007": 6.16683500469,
			"-0.006": 8.89559137493,
			"-0.005": 7.61095815033,
			"-0.004": 7.44328613305,
			"-0.003": 10.9818324053,
			"-0.002": 13.1556873363,
			"-0.001": 17.8935896988,
			"0.0": 22.1644121838,
			"0.001": 17.9644617426,
			"0.002": 11.0210739258,
			"0.003": 11.5361538105,
			"0.004": 18.6826619273,
			"0.005": 6.74362836273,
			"0.006": 7.34423738681,
			"0.007": 7.26065065941,
			"0.008": 6.49667942116,
			"0.009": 7.48636017258,
			"0.01": 7.17740261031,
			"0.011": 5.65693815331,
			"0.012": 1.91484352552,
			"0.013": 0.221136302312,
			"0.014": 0.0,
			"0.015": 0.0,
			"0.016": 0.0,
			"0.017": 0.0,
			"0.018": 0.0,
			"0.019": 0.0,
			"0.02": 0.0,
			"0.021": 0.0,
			"0.022": 0.0,
			"0.023": 0.0,
			"0.024": 0.0,
			"0.025": 0.0
		}
	}
}
