{
	 "smiles": "S1N=C2C=CC=CC2=N1", 
	 "Tm": 316.15, 
	 "num_atms": 13, 
	 "gaussian": { 
		 "optdone": 1, 
		 "sigma_profile": "yes", 
		 "theory": "DFT", 
		 "functional": "B3LYP", 
		 "basiset": "6-31G**", 
		 "properties": { 
			 "R2extent": 1486.4824, 
			 "electric_dipole_moment_norm": 1.97949074512, 
			 "electric_quadrupole_moment_norm": 2.85575731287, 
			 "total_energy": -738.712968185, 
			 "HOMO_LUMO_gap": 0.15688, 
			 "cosmo_polarized_energy": -5.51, 
			 "cosmo_cavitation_energy": 18.87, 
			 "cosmo_dispersion_energy": -15.18, 
			 "cosmo_repulsion_energy": 1.16, 
			 "cosmo_total_nonelectrostatic_energy": 4.85, 
			 "SMD_solvation_energy": -0.07 
		},
		"coords": [
			{
				"x": 1.7192194762,
				"y": 2.7885445989,
				"z": 0.6562795717,
				"element": "S" 
			},
			{
				"x": 0.4139939926,
				"y": 2.4998664697,
				"z": -0.3002164831,
				"element": "N" 
			},
			{
				"x": 0.033897182,
				"y": 1.2414124127,
				"z": -0.0427397725,
				"element": "C" 
			},
			{
				"x": -1.0610263465,
				"y": 0.5510230489,
				"z": -0.6402804641,
				"element": "C" 
			},
			{
				"x": -1.3003185373,
				"y": -0.7410963489,
				"z": -0.2501566852,
				"element": "C" 
			},
			{
				"x": -0.4853011373,
				"y": -1.398618868,
				"z": 0.7290678434,
				"element": "C" 
			},
			{
				"x": 0.5760278784,
				"y": -0.7697037373,
				"z": 1.3266232386,
				"element": "C" 
			},
			{
				"x": 0.859265421,
				"y": 0.5755437219,
				"z": 0.9489338251,
				"element": "C" 
			},
			{
				"x": 1.8497969908,
				"y": 1.3415115279,
				"z": 1.4249688896,
				"element": "N" 
			},
			{
				"x": -1.6729727421,
				"y": 1.0549989891,
				"z": -1.3802637938,
				"element": "H" 
			},
			{
				"x": -2.1280634766,
				"y": -1.2897138624,
				"z": -0.689715025,
				"element": "H" 
			},
			{
				"x": -0.7227972781,
				"y": -2.4234375924,
				"z": 0.9986897803,
				"element": "H" 
			},
			{
				"x": 1.1969785768,
				"y": -1.2604303601,
				"z": 2.0680090749,
				"element": "H" 
			}
		],
		 "valence_orbital": [ 
			{
				"type": "occ",
				"energy": -0.33157,
				"method": "rhf"
			},
			{
				"type": "occ",
				"energy": -0.3201,
				"method": "rhf"
			},
			{
				"type": "occ",
				"energy": -0.29994,
				"method": "rhf"
			},
			{
				"type": "occ",
				"energy": -0.26519,
				"method": "rhf"
			},
			{
				"type": "occ",
				"energy": -0.24307,
				"method": "rhf"
			},
			{
				"type": "unocc",
				"energy": -0.08619,
				"method": "rhf"
			},
			{
				"type": "unocc",
				"energy": 0.00697,
				"method": "rhf"
			},
			{
				"type": "unocc",
				"energy": 0.00782,
				"method": "rhf"
			},
			{
				"type": "unocc",
				"energy": 0.01252,
				"method": "rhf"
			},
			{
				"type": "unocc",
				"energy": 0.07205,
				"method": "rhf"
			}
		],
		"cosmo_sigma_profile": { 
			"-0.025": 0.0,
			"-0.024": 0.0,
			"-0.023": 0.0,
			"-0.022": 0.0,
			"-0.021": 0.0,
			"-0.02": 0.0,
			"-0.019": 0.0,
			"-0.018": 0.0,
			"-0.017": 0.0,
			"-0.016": 0.0,
			"-0.015": 0.0,
			"-0.014": 0.0,
			"-0.013": 0.0,
			"-0.012": 0.0,
			"-0.011": 0.0,
			"-0.01": 0.0,
			"-0.009": 0.0,
			"-0.008": 0.288116614583,
			"-0.007": 6.28152181184,
			"-0.006": 9.1654589544,
			"-0.005": 9.07355681213,
			"-0.004": 10.9090875472,
			"-0.003": 11.436154482,
			"-0.002": 13.4660196163,
			"-0.001": 17.1457441644,
			"0.0": 14.2594151637,
			"0.001": 13.6761818194,
			"0.002": 13.4657311905,
			"0.003": 12.3341906215,
			"0.004": 4.53087987775,
			"0.005": 2.3991719759,
			"0.006": 2.64940441075,
			"0.007": 2.01016421649,
			"0.008": 2.31371654179,
			"0.009": 1.80038255848,
			"0.01": 2.34858067988,
			"0.011": 2.29611634525,
			"0.012": 1.54679616409,
			"0.013": 1.83989786172,
			"0.014": 0.267158974865,
			"0.015": 0.0,
			"0.016": 0.0,
			"0.017": 0.0,
			"0.018": 0.0,
			"0.019": 0.0,
			"0.02": 0.0,
			"0.021": 0.0,
			"0.022": 0.0,
			"0.023": 0.0,
			"0.024": 0.0,
			"0.025": 0.0
		}
	}
}
