{
	 "smiles": "NC1=CC(F)=C(F)C=C1", 
	 "Tm": 294.15, 
	 "num_atms": 14, 
	 "gaussian": { 
		 "optdone": 1, 
		 "sigma_profile": "yes", 
		 "theory": "DFT", 
		 "functional": "B3LYP", 
		 "basiset": "6-31G**", 
		 "properties": { 
			 "R2extent": 1476.0886, 
			 "electric_dipole_moment_norm": 3.70781537431, 
			 "electric_quadrupole_moment_norm": 8.94361846682, 
			 "total_energy": -486.064822183, 
			 "HOMO_LUMO_gap": 0.19975, 
			 "cosmo_polarized_energy": -8.37, 
			 "cosmo_cavitation_energy": 19.15, 
			 "cosmo_dispersion_energy": -14.1, 
			 "cosmo_repulsion_energy": 1.12, 
			 "cosmo_total_nonelectrostatic_energy": 6.18, 
			 "SMD_solvation_energy": 4.34 
		},
		"coords": [
			{
				"x": 3.2035577588,
				"y": 1.1815028332,
				"z": 0.8191889513,
				"element": "N" 
			},
			{
				"x": 1.9584810464,
				"y": 1.1754794914,
				"z": 0.1853355911,
				"element": "C" 
			},
			{
				"x": 0.7889911116,
				"y": 0.9083494038,
				"z": 0.918886718,
				"element": "C" 
			},
			{
				"x": -0.4342907403,
				"y": 0.8453470434,
				"z": 0.269148814,
				"element": "C" 
			},
			{
				"x": -1.5520594162,
				"y": 0.5927832786,
				"z": 0.9741286692,
				"element": "F" 
			},
			{
				"x": -0.53194285,
				"y": 1.0425137697,
				"z": -1.1067166816,
				"element": "C" 
			},
			{
				"x": -1.7392435507,
				"y": 0.9770420584,
				"z": -1.704191554,
				"element": "F" 
			},
			{
				"x": 0.6159568375,
				"y": 1.3067738503,
				"z": -1.8397936187,
				"element": "C" 
			},
			{
				"x": 1.8543781749,
				"y": 1.3741033938,
				"z": -1.2020704257,
				"element": "C" 
			},
			{
				"x": 3.1810954886,
				"y": 1.3960551909,
				"z": 1.8066358688,
				"element": "H" 
			},
			{
				"x": 3.9219126473,
				"y": 1.7071296573,
				"z": 0.340326867,
				"element": "H" 
			},
			{
				"x": 0.818544346,
				"y": 0.7422046703,
				"z": 1.9910358695,
				"element": "H" 
			},
			{
				"x": 0.5286373079,
				"y": 1.4609322205,
				"z": -2.9101321837,
				"element": "H" 
			},
			{
				"x": 2.7481818382,
				"y": 1.5764831386,
				"z": -1.7850828855,
				"element": "H" 
			}
		],
		 "valence_orbital": [ 
			{
				"type": "occ",
				"energy": -0.37616,
				"method": "rhf"
			},
			{
				"type": "occ",
				"energy": -0.34983,
				"method": "rhf"
			},
			{
				"type": "occ",
				"energy": -0.30319,
				"method": "rhf"
			},
			{
				"type": "occ",
				"energy": -0.25199,
				"method": "rhf"
			},
			{
				"type": "occ",
				"energy": -0.20613,
				"method": "rhf"
			},
			{
				"type": "unocc",
				"energy": -0.00638,
				"method": "rhf"
			},
			{
				"type": "unocc",
				"energy": 0.0165,
				"method": "rhf"
			},
			{
				"type": "unocc",
				"energy": 0.06851,
				"method": "rhf"
			},
			{
				"type": "unocc",
				"energy": 0.08483,
				"method": "rhf"
			},
			{
				"type": "unocc",
				"energy": 0.11283,
				"method": "rhf"
			}
		],
		"cosmo_sigma_profile": { 
			"-0.025": 0.0,
			"-0.024": 0.0,
			"-0.023": 0.0,
			"-0.022": 0.0,
			"-0.021": 0.0,
			"-0.02": 0.0,
			"-0.019": 0.0,
			"-0.018": 0.0,
			"-0.017": 0.0,
			"-0.016": 0.0,
			"-0.015": 0.0,
			"-0.014": 0.0,
			"-0.013": 0.899242798902,
			"-0.012": 2.76419531813,
			"-0.011": 3.30722908597,
			"-0.01": 2.89114253104,
			"-0.009": 3.76552584295,
			"-0.008": 3.80437234131,
			"-0.007": 5.54156415903,
			"-0.006": 6.1261260198,
			"-0.005": 6.13062271027,
			"-0.004": 6.07992905442,
			"-0.003": 4.63266812158,
			"-0.002": 4.21999906815,
			"-0.001": 4.6296970767,
			"0.0": 9.84801417356,
			"0.001": 12.5166206773,
			"0.002": 12.4540919952,
			"0.003": 15.478440047,
			"0.004": 27.2353777318,
			"0.005": 13.7818089158,
			"0.006": 1.43442797267,
			"0.007": 0.595969362385,
			"0.008": 1.11542784859,
			"0.009": 0.66974717324,
			"0.01": 0.834507672446,
			"0.011": 0.653361573087,
			"0.012": 0.332277901395,
			"0.013": 0.84283614844,
			"0.014": 0.555572720779,
			"0.015": 0.0942074819861,
			"0.016": 0.0,
			"0.017": 0.0,
			"0.018": 0.0,
			"0.019": 0.0,
			"0.02": 0.0,
			"0.021": 0.0,
			"0.022": 0.0,
			"0.023": 0.0,
			"0.024": 0.0,
			"0.025": 0.0
		}
	}
}
