{
	 "smiles": "BrCCC1=CC2=C(C=CC=C2)C=C1", 
	 "Tm": 336.15, 
	 "num_atms": 24, 
	 "gaussian": { 
		 "optdone": 1, 
		 "sigma_profile": "yes", 
		 "theory": "DFT", 
		 "functional": "B3LYP", 
		 "basiset": "6-31G**", 
		 "properties": { 
			 "R2extent": 6080.6145, 
			 "electric_dipole_moment_norm": 2.48302125847, 
			 "electric_quadrupole_moment_norm": 11.9694987882, 
			 "total_energy": -3035.33458033, 
			 "HOMO_LUMO_gap": 0.17459, 
			 "cosmo_polarized_energy": -6.86, 
			 "cosmo_cavitation_energy": 29.73, 
			 "cosmo_dispersion_energy": -22.06, 
			 "cosmo_repulsion_energy": 1.74, 
			 "cosmo_total_nonelectrostatic_energy": 9.41, 
			 "SMD_solvation_energy": 3.26 
		},
		"coords": [
			{
				"x": -5.1833465154,
				"y": -0.1080858609,
				"z": 1.0570393373,
				"element": "Br" 
			},
			{
				"x": -3.4012095431,
				"y": -0.4670199736,
				"z": 0.2629841221,
				"element": "C" 
			},
			{
				"x": -2.342452142,
				"y": 0.4982831184,
				"z": 0.7964659061,
				"element": "C" 
			},
			{
				"x": -0.98873218,
				"y": 0.1883934281,
				"z": 0.1890024013,
				"element": "C" 
			},
			{
				"x": -0.5229656065,
				"y": 0.8794454953,
				"z": -0.9120255735,
				"element": "C" 
			},
			{
				"x": 0.7287856444,
				"y": 0.5747141081,
				"z": -1.5104966649,
				"element": "C" 
			},
			{
				"x": 1.5237502142,
				"y": -0.480253406,
				"z": -0.9556690414,
				"element": "C" 
			},
			{
				"x": 2.7762644078,
				"y": -0.7853144069,
				"z": -1.5526306641,
				"element": "C" 
			},
			{
				"x": 3.2241647028,
				"y": -0.0822158625,
				"z": -2.6485345817,
				"element": "C" 
			},
			{
				"x": 2.4384891354,
				"y": 0.9612891736,
				"z": -3.1977178606,
				"element": "C" 
			},
			{
				"x": 1.2207163491,
				"y": 1.2819022215,
				"z": -2.6410630782,
				"element": "C" 
			},
			{
				"x": 1.0277073077,
				"y": -1.1799793847,
				"z": 0.1774241724,
				"element": "C" 
			},
			{
				"x": -0.1888158179,
				"y": -0.8567173774,
				"z": 0.7309237633,
				"element": "C" 
			},
			{
				"x": -3.5355659749,
				"y": -0.3717575211,
				"z": -0.8141285866,
				"element": "H" 
			},
			{
				"x": -3.1768344965,
				"y": -1.5045400735,
				"z": 0.509605941,
				"element": "H" 
			},
			{
				"x": -2.2998800606,
				"y": 0.4163382071,
				"z": 1.8877326493,
				"element": "H" 
			},
			{
				"x": -2.6404277483,
				"y": 1.5244846634,
				"z": 0.561545972,
				"element": "H" 
			},
			{
				"x": -1.1188057699,
				"y": 1.6846817731,
				"z": -1.3372254111,
				"element": "H" 
			},
			{
				"x": 3.3770237788,
				"y": -1.5858225726,
				"z": -1.1283299969,
				"element": "H" 
			},
			{
				"x": 4.1832389001,
				"y": -0.3248396589,
				"z": -3.0968572421,
				"element": "H" 
			},
			{
				"x": 2.8027772641,
				"y": 1.5089985463,
				"z": -4.0620564506,
				"element": "H" 
			},
			{
				"x": 0.6171188152,
				"y": 2.0826723043,
				"z": -3.0608219342,
				"element": "H" 
			},
			{
				"x": 1.6303000399,
				"y": -1.9765264171,
				"z": 0.606568386,
				"element": "H" 
			},
			{
				"x": -0.5474007046,
				"y": -1.3983305239,
				"z": 1.6030644351,
				"element": "H" 
			}
		],
		 "valence_orbital": [ 
			{
				"type": "occ",
				"energy": -0.28804,
				"method": "rhf"
			},
			{
				"type": "occ",
				"energy": -0.27089,
				"method": "rhf"
			},
			{
				"type": "occ",
				"energy": -0.26963,
				"method": "rhf"
			},
			{
				"type": "occ",
				"energy": -0.24475,
				"method": "rhf"
			},
			{
				"type": "occ",
				"energy": -0.21937,
				"method": "rhf"
			},
			{
				"type": "unocc",
				"energy": -0.04478,
				"method": "rhf"
			},
			{
				"type": "unocc",
				"energy": -0.01897,
				"method": "rhf"
			},
			{
				"type": "unocc",
				"energy": 0.01082,
				"method": "rhf"
			},
			{
				"type": "unocc",
				"energy": 0.02955,
				"method": "rhf"
			},
			{
				"type": "unocc",
				"energy": 0.09143,
				"method": "rhf"
			}
		],
		"cosmo_sigma_profile": { 
			"-0.025": 0.0,
			"-0.024": 0.0,
			"-0.023": 0.0,
			"-0.022": 0.0,
			"-0.021": 0.0,
			"-0.02": 0.0,
			"-0.019": 0.0,
			"-0.018": 0.0,
			"-0.017": 0.0,
			"-0.016": 0.0,
			"-0.015": 0.0,
			"-0.014": 0.0,
			"-0.013": 0.0,
			"-0.012": 0.0,
			"-0.011": 0.0,
			"-0.01": 0.0,
			"-0.009": 0.0,
			"-0.008": 0.0,
			"-0.007": 1.71359800946,
			"-0.006": 14.2629749187,
			"-0.005": 26.8571350937,
			"-0.004": 21.8973463484,
			"-0.003": 19.7431654941,
			"-0.002": 15.4580484973,
			"-0.001": 15.2141266795,
			"0.0": 13.4997344506,
			"0.001": 13.5342983908,
			"0.002": 13.9274310313,
			"0.003": 15.9985340264,
			"0.004": 27.8762039249,
			"0.005": 22.6486695607,
			"0.006": 12.6344477465,
			"0.007": 4.77784324966,
			"0.008": 0.0,
			"0.009": 0.0,
			"0.01": 0.0,
			"0.011": 0.0,
			"0.012": 0.0,
			"0.013": 0.0,
			"0.014": 0.0,
			"0.015": 0.0,
			"0.016": 0.0,
			"0.017": 0.0,
			"0.018": 0.0,
			"0.019": 0.0,
			"0.02": 0.0,
			"0.021": 0.0,
			"0.022": 0.0,
			"0.023": 0.0,
			"0.024": 0.0,
			"0.025": 0.0
		}
	}
}
