{
	 "smiles": "CC1=CC=CC=C1NN=C(C#N)C1=NC(=CS1)C1=CC=CC=C1", 
	 "Tm": 417.15, 
	 "num_atms": 37, 
	 "gaussian": { 
		 "optdone": 1, 
		 "sigma_profile": "yes", 
		 "theory": "DFT", 
		 "functional": "B3LYP", 
		 "basiset": "6-31G**", 
		 "properties": { 
			 "R2extent": 9064.6603, 
			 "electric_dipole_moment_norm": 6.62788775026, 
			 "electric_quadrupole_moment_norm": 21.5295059391, 
			 "total_energy": -1311.47647131, 
			 "HOMO_LUMO_gap": 0.13226, 
			 "cosmo_polarized_energy": -17.48, 
			 "cosmo_cavitation_energy": 43.97, 
			 "cosmo_dispersion_energy": -30.25, 
			 "cosmo_repulsion_energy": 2.26, 
			 "cosmo_total_nonelectrostatic_energy": 15.97, 
			 "SMD_solvation_energy": 7.0 
		},
		"coords": [
			{
				"x": 1.7672553446,
				"y": 3.109370905,
				"z": -4.1040191833,
				"element": "C" 
			},
			{
				"x": 0.4739676676,
				"y": 3.0766264856,
				"z": -3.3272458879,
				"element": "C" 
			},
			{
				"x": -0.7619626408,
				"y": 3.1279684341,
				"z": -3.9796709414,
				"element": "C" 
			},
			{
				"x": -1.9648393808,
				"y": 3.094475099,
				"z": -3.2739691626,
				"element": "C" 
			},
			{
				"x": -1.9417974084,
				"y": 3.0168316257,
				"z": -1.8818135115,
				"element": "C" 
			},
			{
				"x": -0.7258179807,
				"y": 2.9728963651,
				"z": -1.202318726,
				"element": "C" 
			},
			{
				"x": 0.4754237481,
				"y": 2.9965435439,
				"z": -1.9187766795,
				"element": "C" 
			},
			{
				"x": 1.7544011313,
				"y": 3.0000316673,
				"z": -1.274021444,
				"element": "N" 
			},
			{
				"x": 1.9769178829,
				"y": 2.8326049636,
				"z": 0.0579062629,
				"element": "N" 
			},
			{
				"x": 1.5492036426,
				"y": 1.779140784,
				"z": 0.6925417343,
				"element": "C" 
			},
			{
				"x": 1.835465494,
				"y": 1.8040082594,
				"z": 2.1092654855,
				"element": "C" 
			},
			{
				"x": 2.0610294627,
				"y": 1.8430456573,
				"z": 3.2486388353,
				"element": "N" 
			},
			{
				"x": 0.9288210318,
				"y": 0.5358569241,
				"z": 0.2133479521,
				"element": "C" 
			},
			{
				"x": 0.3920152211,
				"y": -0.3189955841,
				"z": 1.0463766221,
				"element": "N" 
			},
			{
				"x": 0.0203659395,
				"y": -1.4905748393,
				"z": 0.4348133479,
				"element": "C" 
			},
			{
				"x": 0.3089461462,
				"y": -1.5300907069,
				"z": -0.9143727461,
				"element": "C" 
			},
			{
				"x": 1.0347764753,
				"y": -0.0617689289,
				"z": -1.4394026304,
				"element": "S" 
			},
			{
				"x": -0.6155473668,
				"y": -2.5553126699,
				"z": 1.2362838982,
				"element": "C" 
			},
			{
				"x": -1.1622882615,
				"y": -3.7022203138,
				"z": 0.6377016925,
				"element": "C" 
			},
			{
				"x": -1.7487627764,
				"y": -4.6978085357,
				"z": 1.415497441,
				"element": "C" 
			},
			{
				"x": -1.8026906,
				"y": -4.5642596122,
				"z": 2.8049757432,
				"element": "C" 
			},
			{
				"x": -1.2662859255,
				"y": -3.425314697,
				"z": 3.4085601643,
				"element": "C" 
			},
			{
				"x": -0.6779973274,
				"y": -2.4275715232,
				"z": 2.6337028447,
				"element": "C" 
			},
			{
				"x": 2.3170368613,
				"y": 4.0489919075,
				"z": -3.9516880989,
				"element": "H" 
			},
			{
				"x": 2.4366589059,
				"y": 2.2963750702,
				"z": -3.8027250536,
				"element": "H" 
			},
			{
				"x": 1.5778189807,
				"y": 3.0209242429,
				"z": -5.1763965494,
				"element": "H" 
			},
			{
				"x": -0.7747295033,
				"y": 3.1873121391,
				"z": -5.0649432701,
				"element": "H" 
			},
			{
				"x": -2.9098604575,
				"y": 3.1261757572,
				"z": -3.8072867519,
				"element": "H" 
			},
			{
				"x": -2.8686019449,
				"y": 2.9978045243,
				"z": -1.3165144765,
				"element": "H" 
			},
			{
				"x": -0.7128330179,
				"y": 2.9316253362,
				"z": -0.1193719168,
				"element": "H" 
			},
			{
				"x": 2.3284185562,
				"y": 3.7743046379,
				"z": -1.5888825918,
				"element": "H" 
			},
			{
				"x": 0.1339007207,
				"y": -2.3303498573,
				"z": -1.618513368,
				"element": "H" 
			},
			{
				"x": -1.141039688,
				"y": -3.8176196395,
				"z": -0.4420574183,
				"element": "H" 
			},
			{
				"x": -2.1681412292,
				"y": -5.5773765257,
				"z": 0.9354780233,
				"element": "H" 
			},
			{
				"x": -2.261064487,
				"y": -5.3407297833,
				"z": 3.4104929844,
				"element": "H" 
			},
			{
				"x": -1.304110798,
				"y": -3.3120486099,
				"z": 4.488180168,
				"element": "H" 
			},
			{
				"x": -0.2587524184,
				"y": -1.5414725026,
				"z": 3.0970272085,
				"element": "H" 
			}
		],
		 "valence_orbital": [ 
			{
				"type": "occ",
				"energy": -0.27409,
				"method": "rhf"
			},
			{
				"type": "occ",
				"energy": -0.25837,
				"method": "rhf"
			},
			{
				"type": "occ",
				"energy": -0.252,
				"method": "rhf"
			},
			{
				"type": "occ",
				"energy": -0.22816,
				"method": "rhf"
			},
			{
				"type": "occ",
				"energy": -0.21852,
				"method": "rhf"
			},
			{
				"type": "unocc",
				"energy": -0.08626,
				"method": "rhf"
			},
			{
				"type": "unocc",
				"energy": -0.0367,
				"method": "rhf"
			},
			{
				"type": "unocc",
				"energy": -0.01592,
				"method": "rhf"
			},
			{
				"type": "unocc",
				"energy": -0.00787,
				"method": "rhf"
			},
			{
				"type": "unocc",
				"energy": -0.00381,
				"method": "rhf"
			}
		],
		"cosmo_sigma_profile": { 
			"-0.025": 0.0,
			"-0.024": 0.0,
			"-0.023": 0.0,
			"-0.022": 0.0,
			"-0.021": 0.0,
			"-0.02": 0.0,
			"-0.019": 0.0,
			"-0.018": 0.0,
			"-0.017": 0.0,
			"-0.016": 0.0,
			"-0.015": 0.59315556147,
			"-0.014": 1.48645764908,
			"-0.013": 0.800090331795,
			"-0.012": 1.18488477151,
			"-0.011": 1.50644795506,
			"-0.01": 3.19370471706,
			"-0.009": 3.53693881994,
			"-0.008": 4.17753303392,
			"-0.007": 5.31589638033,
			"-0.006": 14.4128454173,
			"-0.005": 23.3235283807,
			"-0.004": 26.3294173591,
			"-0.003": 26.1026403083,
			"-0.002": 25.0046126804,
			"-0.001": 29.1831963866,
			"0.0": 27.5836941054,
			"0.001": 28.3986687435,
			"0.002": 26.9815571072,
			"0.003": 22.0856957164,
			"0.004": 23.6266293469,
			"0.005": 23.9973237426,
			"0.006": 8.87139854665,
			"0.007": 6.27945575328,
			"0.008": 7.49125796663,
			"0.009": 4.33132634095,
			"0.01": 4.38955197377,
			"0.011": 2.7991349921,
			"0.012": 2.2985944444,
			"0.013": 0.630998141548,
			"0.014": 0.0,
			"0.015": 0.0,
			"0.016": 0.0,
			"0.017": 0.0,
			"0.018": 0.0,
			"0.019": 0.0,
			"0.02": 0.0,
			"0.021": 0.0,
			"0.022": 0.0,
			"0.023": 0.0,
			"0.024": 0.0,
			"0.025": 0.0
		}
	}
}
