{
	 "smiles": "C1=CC2=C(N=C1)N=CC=N2", 
	 "Tm": 416.15, 
	 "num_atms": 15, 
	 "gaussian": { 
		 "optdone": 1, 
		 "sigma_profile": "yes", 
		 "theory": "DFT", 
		 "functional": "B3LYP", 
		 "basiset": "6-31G**", 
		 "properties": { 
			 "R2extent": 1667.7115, 
			 "electric_dipole_moment_norm": 2.15842026028, 
			 "electric_quadrupole_moment_norm": 12.2696501295, 
			 "total_energy": -433.997746884, 
			 "HOMO_LUMO_gap": 0.16054, 
			 "cosmo_polarized_energy": -10.82, 
			 "cosmo_cavitation_energy": 19.5, 
			 "cosmo_dispersion_energy": -14.99, 
			 "cosmo_repulsion_energy": 1.18, 
			 "cosmo_total_nonelectrostatic_energy": 5.69, 
			 "SMD_solvation_energy": -1.19 
		},
		"coords": [
			{
				"x": 1.5543264403,
				"y": 1.9478853406,
				"z": 0.5426000592,
				"element": "C" 
			},
			{
				"x": 1.0365746211,
				"y": 1.3408476286,
				"z": 1.6608874689,
				"element": "C" 
			},
			{
				"x": 0.7859892228,
				"y": -0.0537779858,
				"z": 1.6172041115,
				"element": "C" 
			},
			{
				"x": 1.0855360474,
				"y": -0.7586311346,
				"z": 0.4090654632,
				"element": "C" 
			},
			{
				"x": 1.5979521426,
				"y": -0.1419987135,
				"z": -0.6893584882,
				"element": "N" 
			},
			{
				"x": 1.8160610702,
				"y": 1.1550805663,
				"z": -0.6071106161,
				"element": "C" 
			},
			{
				"x": 0.8637543403,
				"y": -2.0998400824,
				"z": 0.3137450225,
				"element": "N" 
			},
			{
				"x": 0.3680152407,
				"y": -2.6848229121,
				"z": 1.3827230784,
				"element": "C" 
			},
			{
				"x": 0.0710857271,
				"y": -1.9809717496,
				"z": 2.5830795032,
				"element": "C" 
			},
			{
				"x": 0.2725475477,
				"y": -0.6867469801,
				"z": 2.7099028029,
				"element": "N" 
			},
			{
				"x": 1.7653016242,
				"y": 3.0123802956,
				"z": 0.5211942838,
				"element": "H" 
			},
			{
				"x": 0.8110575785,
				"y": 1.8806022592,
				"z": 2.5753697533,
				"element": "H" 
			},
			{
				"x": 2.226743601,
				"y": 1.6310729543,
				"z": -1.4970970772,
				"element": "H" 
			},
			{
				"x": 0.1836176894,
				"y": -3.7571493887,
				"z": 1.3262338189,
				"element": "H" 
			},
			{
				"x": -0.3384628935,
				"y": -2.5132300979,
				"z": 3.4401608158,
				"element": "H" 
			}
		],
		 "valence_orbital": [ 
			{
				"type": "occ",
				"energy": -0.31671,
				"method": "rhf"
			},
			{
				"type": "occ",
				"energy": -0.28477,
				"method": "rhf"
			},
			{
				"type": "occ",
				"energy": -0.27795,
				"method": "rhf"
			},
			{
				"type": "occ",
				"energy": -0.27158,
				"method": "rhf"
			},
			{
				"type": "occ",
				"energy": -0.2445,
				"method": "rhf"
			},
			{
				"type": "unocc",
				"energy": -0.08396,
				"method": "rhf"
			},
			{
				"type": "unocc",
				"energy": -0.03498,
				"method": "rhf"
			},
			{
				"type": "unocc",
				"energy": -0.01049,
				"method": "rhf"
			},
			{
				"type": "unocc",
				"energy": 0.06751,
				"method": "rhf"
			},
			{
				"type": "unocc",
				"energy": 0.09566,
				"method": "rhf"
			}
		],
		"cosmo_sigma_profile": { 
			"-0.025": 0.0,
			"-0.024": 0.0,
			"-0.023": 0.0,
			"-0.022": 0.0,
			"-0.021": 0.0,
			"-0.02": 0.0,
			"-0.019": 0.0,
			"-0.018": 0.0,
			"-0.017": 0.0,
			"-0.016": 0.0,
			"-0.015": 0.0,
			"-0.014": 0.0,
			"-0.013": 0.0,
			"-0.012": 0.0,
			"-0.011": 0.0,
			"-0.01": 0.0,
			"-0.009": 0.28361909434,
			"-0.008": 8.1372319898,
			"-0.007": 12.1152965275,
			"-0.006": 10.6419010135,
			"-0.005": 8.16917357389,
			"-0.004": 8.68475509733,
			"-0.003": 11.0549461494,
			"-0.002": 14.8374412603,
			"-0.001": 13.5259074274,
			"0.0": 15.1763130742,
			"0.001": 10.5768954297,
			"0.002": 5.38717658843,
			"0.003": 4.96815390633,
			"0.004": 3.28857013703,
			"0.005": 3.15457945591,
			"0.006": 3.45133140786,
			"0.007": 3.21267128972,
			"0.008": 2.80156956114,
			"0.009": 2.39032391238,
			"0.01": 1.73557764549,
			"0.011": 2.59548655509,
			"0.012": 2.93533313066,
			"0.013": 2.51238908638,
			"0.014": 2.05321411425,
			"0.015": 2.40812792427,
			"0.016": 1.95772613858,
			"0.017": 0.311628291065,
			"0.018": 0.0,
			"0.019": 0.0,
			"0.02": 0.0,
			"0.021": 0.0,
			"0.022": 0.0,
			"0.023": 0.0,
			"0.024": 0.0,
			"0.025": 0.0
		}
	}
}
