{
	 "smiles": "OC1=CC2=C(C(O)=C1)C(=O)C(O)=C(O2)C1=CC=CC=C1", 
	 "Tm": 488.15, 
	 "num_atms": 30, 
	 "gaussian": { 
		 "optdone": 1, 
		 "sigma_profile": "yes", 
		 "theory": "DFT", 
		 "functional": "B3LYP", 
		 "basiset": "6-31G**", 
		 "properties": { 
			 "R2extent": 7291.396, 
			 "electric_dipole_moment_norm": 4.16933127612, 
			 "electric_quadrupole_moment_norm": 8.10956271386, 
			 "total_energy": -953.751350254, 
			 "HOMO_LUMO_gap": 0.14045, 
			 "cosmo_polarized_energy": -13.52, 
			 "cosmo_cavitation_energy": 34.27, 
			 "cosmo_dispersion_energy": -26.09, 
			 "cosmo_repulsion_energy": 1.93, 
			 "cosmo_total_nonelectrostatic_energy": 10.11, 
			 "SMD_solvation_energy": 7.3 
		},
		"coords": [
			{
				"x": 0.3290538819,
				"y": -2.2911092072,
				"z": 2.7688225758,
				"element": "O" 
			},
			{
				"x": 0.0144460126,
				"y": -1.1893072587,
				"z": 2.0402195212,
				"element": "C" 
			},
			{
				"x": -0.0133832002,
				"y": -1.2179166676,
				"z": 0.6409435322,
				"element": "C" 
			},
			{
				"x": -0.3463642913,
				"y": -0.0424779368,
				"z": -0.0274433956,
				"element": "C" 
			},
			{
				"x": -0.6478076391,
				"y": 1.1440995858,
				"z": 0.6639397636,
				"element": "C" 
			},
			{
				"x": -0.6102571482,
				"y": 1.1398901921,
				"z": 2.0910895858,
				"element": "C" 
			},
			{
				"x": -0.8933242739,
				"y": 2.2579569331,
				"z": 2.772623579,
				"element": "O" 
			},
			{
				"x": -0.2796668742,
				"y": -0.0259522821,
				"z": 2.7693329304,
				"element": "C" 
			},
			{
				"x": -0.9831238247,
				"y": 2.3190996554,
				"z": -0.0814471487,
				"element": "C" 
			},
			{
				"x": -1.2703149537,
				"y": 3.4359244295,
				"z": 0.4290125875,
				"element": "O" 
			},
			{
				"x": -0.9887125535,
				"y": 2.2017116152,
				"z": -1.5320094792,
				"element": "C" 
			},
			{
				"x": -1.3126662338,
				"y": 3.3440734216,
				"z": -2.1820398052,
				"element": "O" 
			},
			{
				"x": -0.6862139759,
				"y": 1.0197043246,
				"z": -2.1543546267,
				"element": "C" 
			},
			{
				"x": -0.3712180537,
				"y": -0.0784681489,
				"z": -1.3849313462,
				"element": "O" 
			},
			{
				"x": -0.6432640917,
				"y": 0.7260860476,
				"z": -3.5920753771,
				"element": "C" 
			},
			{
				"x": -0.932903067,
				"y": 1.7108195403,
				"z": -4.5588107586,
				"element": "C" 
			},
			{
				"x": -0.8829926804,
				"y": 1.4000744834,
				"z": -5.9156993998,
				"element": "C" 
			},
			{
				"x": -0.5468232921,
				"y": 0.1138370329,
				"z": -6.3407956352,
				"element": "C" 
			},
			{
				"x": -0.2582983151,
				"y": -0.8683860175,
				"z": -5.391134898,
				"element": "C" 
			},
			{
				"x": -0.3049606257,
				"y": -0.5695064291,
				"z": -4.0329429249,
				"element": "C" 
			},
			{
				"x": 0.5125837434,
				"y": -3.0306368719,
				"z": 2.1745951898,
				"element": "H" 
			},
			{
				"x": 0.2140667305,
				"y": -2.1173332354,
				"z": 0.0785584692,
				"element": "H" 
			},
			{
				"x": -1.0996335984,
				"y": 2.9626151217,
				"z": 2.1085005144,
				"element": "H" 
			},
			{
				"x": -0.2478828764,
				"y": -0.0417539217,
				"z": 3.8516421529,
				"element": "H" 
			},
			{
				"x": -1.4665801797,
				"y": 3.9858884747,
				"z": -1.455871172,
				"element": "H" 
			},
			{
				"x": -1.1948683974,
				"y": 2.7116322008,
				"z": -4.2452145056,
				"element": "H" 
			},
			{
				"x": -1.1093377328,
				"y": 2.1722869424,
				"z": -6.6451741468,
				"element": "H" 
			},
			{
				"x": -0.509864647,
				"y": -0.1212546849,
				"z": -7.4004842408,
				"element": "H" 
			},
			{
				"x": 0.0046961131,
				"y": -1.8733617334,
				"z": -5.7084495916,
				"element": "H" 
			},
			{
				"x": -0.0792839559,
				"y": -1.3388356058,
				"z": -3.30510195,
				"element": "H" 
			}
		],
		 "valence_orbital": [ 
			{
				"type": "occ",
				"energy": -0.27997,
				"method": "rhf"
			},
			{
				"type": "occ",
				"energy": -0.25776,
				"method": "rhf"
			},
			{
				"type": "occ",
				"energy": -0.2468,
				"method": "rhf"
			},
			{
				"type": "occ",
				"energy": -0.23793,
				"method": "rhf"
			},
			{
				"type": "occ",
				"energy": -0.21248,
				"method": "rhf"
			},
			{
				"type": "unocc",
				"energy": -0.07203,
				"method": "rhf"
			},
			{
				"type": "unocc",
				"energy": -0.02435,
				"method": "rhf"
			},
			{
				"type": "unocc",
				"energy": -0.00644,
				"method": "rhf"
			},
			{
				"type": "unocc",
				"energy": 0.00139,
				"method": "rhf"
			},
			{
				"type": "unocc",
				"energy": 0.02933,
				"method": "rhf"
			}
		],
		"cosmo_sigma_profile": { 
			"-0.025": 0.0,
			"-0.024": 0.0,
			"-0.023": 0.0,
			"-0.022": 0.0,
			"-0.021": 0.0,
			"-0.02": 0.0,
			"-0.019": 0.428586164789,
			"-0.018": 1.31008264873,
			"-0.017": 1.09621585991,
			"-0.016": 0.953169971373,
			"-0.015": 1.09548040498,
			"-0.014": 0.999379551166,
			"-0.013": 1.13629052642,
			"-0.012": 1.52250142162,
			"-0.011": 1.60622978961,
			"-0.01": 2.06015501703,
			"-0.009": 1.66577769665,
			"-0.008": 2.06112862978,
			"-0.007": 4.21503632173,
			"-0.006": 9.3242823232,
			"-0.005": 13.136383001,
			"-0.004": 17.8481069246,
			"-0.003": 15.6954915857,
			"-0.002": 20.5957953464,
			"-0.001": 18.7846421638,
			"0.0": 22.4091451356,
			"0.001": 28.5243438339,
			"0.002": 27.4335111252,
			"0.003": 21.4070200969,
			"0.004": 18.7537709978,
			"0.005": 14.275939548,
			"0.006": 4.74100064777,
			"0.007": 5.05678528187,
			"0.008": 4.99320530199,
			"0.009": 5.02234138583,
			"0.01": 5.59984441312,
			"0.011": 2.22091887494,
			"0.012": 0.172582388607,
			"0.013": 0.0,
			"0.014": 0.0,
			"0.015": 0.0,
			"0.016": 0.0,
			"0.017": 0.0,
			"0.018": 0.0,
			"0.019": 0.0,
			"0.02": 0.0,
			"0.021": 0.0,
			"0.022": 0.0,
			"0.023": 0.0,
			"0.024": 0.0,
			"0.025": 0.0
		}
	}
}
