{
	 "smiles": "CC1=C(C=C(O1)C(C)(C)C)C(O)=O", 
	 "Tm": 365.15, 
	 "num_atms": 27, 
	 "gaussian": { 
		 "optdone": 1, 
		 "sigma_profile": "yes", 
		 "theory": "DFT", 
		 "functional": "B3LYP", 
		 "basiset": "6-31G**", 
		 "properties": { 
			 "R2extent": 3061.1881, 
			 "electric_dipole_moment_norm": 1.83522927995, 
			 "electric_quadrupole_moment_norm": 5.15181885357, 
			 "total_energy": -615.196667331, 
			 "HOMO_LUMO_gap": 0.19796, 
			 "cosmo_polarized_energy": -8.65, 
			 "cosmo_cavitation_energy": 30.18, 
			 "cosmo_dispersion_energy": -21.01, 
			 "cosmo_repulsion_energy": 1.69, 
			 "cosmo_total_nonelectrostatic_energy": 10.86, 
			 "SMD_solvation_energy": 6.96 
		},
		"coords": [
			{
				"x": 1.5786808412,
				"y": 2.4424330772,
				"z": 0.6252926271,
				"element": "C" 
			},
			{
				"x": 1.2030621086,
				"y": 1.0777533177,
				"z": 0.165095692,
				"element": "C" 
			},
			{
				"x": 1.9291397968,
				"y": -0.0199223238,
				"z": -0.2321470517,
				"element": "C" 
			},
			{
				"x": 0.9764527676,
				"y": -1.0488169917,
				"z": -0.5615893213,
				"element": "C" 
			},
			{
				"x": -0.2580795191,
				"y": -0.5219026419,
				"z": -0.3475819968,
				"element": "C" 
			},
			{
				"x": -0.1194120339,
				"y": 0.7818865765,
				"z": 0.0979627054,
				"element": "O" 
			},
			{
				"x": -1.6697375046,
				"y": -1.0300568805,
				"z": -0.4856565987,
				"element": "C" 
			},
			{
				"x": -2.3773359717,
				"y": -0.972237018,
				"z": 0.8888158356,
				"element": "C" 
			},
			{
				"x": -1.6356606717,
				"y": -2.4844902599,
				"z": -0.9882919902,
				"element": "C" 
			},
			{
				"x": -2.4401519694,
				"y": -0.1489732058,
				"z": -1.4972673671,
				"element": "C" 
			},
			{
				"x": 3.3878759468,
				"y": -0.0619482852,
				"z": -0.2850532542,
				"element": "C" 
			},
			{
				"x": 3.8597450112,
				"y": -1.2637932773,
				"z": -0.7116249469,
				"element": "O" 
			},
			{
				"x": 4.1337658808,
				"y": 0.8561719938,
				"z": 0.0117222541,
				"element": "O" 
			},
			{
				"x": 0.6790663309,
				"y": 3.0202694542,
				"z": 0.8477313785,
				"element": "H" 
			},
			{
				"x": 2.1644766719,
				"y": 2.9641048256,
				"z": -0.1375672773,
				"element": "H" 
			},
			{
				"x": 2.2076671136,
				"y": 2.3935665365,
				"z": 1.5192992556,
				"element": "H" 
			},
			{
				"x": 1.2095665811,
				"y": -2.0428258022,
				"z": -0.9102028302,
				"element": "H" 
			},
			{
				"x": -3.4109386019,
				"y": -1.3236485312,
				"z": 0.7983093378,
				"element": "H" 
			},
			{
				"x": -2.3972335751,
				"y": 0.0496913117,
				"z": 1.2779634901,
				"element": "H" 
			},
			{
				"x": -1.864329728,
				"y": -1.6044484976,
				"z": 1.6206947984,
				"element": "H" 
			},
			{
				"x": -1.1469720609,
				"y": -2.5577603018,
				"z": -1.9652220023,
				"element": "H" 
			},
			{
				"x": -1.1022604221,
				"y": -3.1360916073,
				"z": -0.2886643048,
				"element": "H" 
			},
			{
				"x": -2.6558617717,
				"y": -2.8669585636,
				"z": -1.0929888606,
				"element": "H" 
			},
			{
				"x": -3.4740085395,
				"y": -0.4979757604,
				"z": -1.5939438849,
				"element": "H" 
			},
			{
				"x": -2.4614983603,
				"y": 0.8951920769,
				"z": -1.1725666392,
				"element": "H" 
			},
			{
				"x": -1.9725543612,
				"y": -0.1875660229,
				"z": -2.4863996967,
				"element": "H" 
			},
			{
				"x": 4.8273360406,
				"y": -1.1788531988,
				"z": -0.7078193516,
				"element": "H" 
			}
		],
		 "valence_orbital": [ 
			{
				"type": "occ",
				"energy": -0.33133,
				"method": "rhf"
			},
			{
				"type": "occ",
				"energy": -0.31091,
				"method": "rhf"
			},
			{
				"type": "occ",
				"energy": -0.27918,
				"method": "rhf"
			},
			{
				"type": "occ",
				"energy": -0.26848,
				"method": "rhf"
			},
			{
				"type": "occ",
				"energy": -0.21923,
				"method": "rhf"
			},
			{
				"type": "unocc",
				"energy": -0.02127,
				"method": "rhf"
			},
			{
				"type": "unocc",
				"energy": 0.02801,
				"method": "rhf"
			},
			{
				"type": "unocc",
				"energy": 0.08226,
				"method": "rhf"
			},
			{
				"type": "unocc",
				"energy": 0.08812,
				"method": "rhf"
			},
			{
				"type": "unocc",
				"energy": 0.11707,
				"method": "rhf"
			}
		],
		"cosmo_sigma_profile": { 
			"-0.025": 0.0,
			"-0.024": 0.0,
			"-0.023": 0.0,
			"-0.022": 0.0,
			"-0.021": 0.0,
			"-0.02": 0.0,
			"-0.019": 0.0042116142424,
			"-0.018": 0.447953169143,
			"-0.017": 0.934376619093,
			"-0.016": 0.506383271656,
			"-0.015": 1.14498735884,
			"-0.014": 0.887300804819,
			"-0.013": 0.22802388306,
			"-0.012": 0.669914285308,
			"-0.011": 0.817767027151,
			"-0.01": 0.724652551725,
			"-0.009": 0.732258337854,
			"-0.008": 0.275710826716,
			"-0.007": 0.912347022866,
			"-0.006": 2.56684282216,
			"-0.005": 6.84703776316,
			"-0.004": 8.49084793215,
			"-0.003": 27.1911540207,
			"-0.002": 30.8462239961,
			"-0.001": 30.6524363836,
			"0.0": 26.9801927473,
			"0.001": 31.6775363203,
			"0.002": 14.7707103889,
			"0.003": 10.839771145,
			"0.004": 8.67036631401,
			"0.005": 5.81340295433,
			"0.006": 4.3143611954,
			"0.007": 2.38702518976,
			"0.008": 3.82531698328,
			"0.009": 2.0781343123,
			"0.01": 1.57201901359,
			"0.011": 2.34906483022,
			"0.012": 4.36253303035,
			"0.013": 1.56027192392,
			"0.014": 0.0,
			"0.015": 0.0,
			"0.016": 0.0,
			"0.017": 0.0,
			"0.018": 0.0,
			"0.019": 0.0,
			"0.02": 0.0,
			"0.021": 0.0,
			"0.022": 0.0,
			"0.023": 0.0,
			"0.024": 0.0,
			"0.025": 0.0
		}
	}
}
