{
	 "smiles": "OC1=C(C=C(Cl)C=C1Br)[N+]([O-])=O", 
	 "Tm": 400.15, 
	 "num_atms": 15, 
	 "gaussian": { 
		 "optdone": 1, 
		 "sigma_profile": "yes", 
		 "theory": "DFT", 
		 "functional": "B3LYP", 
		 "basiset": "6-31G**", 
		 "properties": { 
			 "R2extent": 4828.309, 
			 "electric_dipole_moment_norm": 1.65702165948, 
			 "electric_quadrupole_moment_norm": 3.03024057791, 
			 "total_energy": -3542.36137445, 
			 "HOMO_LUMO_gap": 0.13639, 
			 "cosmo_polarized_energy": -7.56, 
			 "cosmo_cavitation_energy": 24.44, 
			 "cosmo_dispersion_energy": -18.98, 
			 "cosmo_repulsion_energy": 1.51, 
			 "cosmo_total_nonelectrostatic_energy": 6.97, 
			 "SMD_solvation_energy": 5.28 
		},
		"coords": [
			{
				"x": 0.9415143031,
				"y": 0.326159292,
				"z": 1.5720884576,
				"element": "O" 
			},
			{
				"x": -0.0773658032,
				"y": 0.8416726727,
				"z": 0.8930911387,
				"element": "C" 
			},
			{
				"x": -0.4673782722,
				"y": 0.4180642721,
				"z": -0.4017008661,
				"element": "C" 
			},
			{
				"x": -1.5497562832,
				"y": 0.9880987687,
				"z": -1.0859081907,
				"element": "C" 
			},
			{
				"x": -2.2631869083,
				"y": 2.0008013289,
				"z": -0.4754049446,
				"element": "C" 
			},
			{
				"x": -3.6208257062,
				"y": 2.7373312524,
				"z": -1.2978865241,
				"element": "Cl" 
			},
			{
				"x": -1.9121063036,
				"y": 2.4518622242,
				"z": 0.8063404474,
				"element": "C" 
			},
			{
				"x": -0.8406822677,
				"y": 1.8812815487,
				"z": 1.4731727638,
				"element": "C" 
			},
			{
				"x": -0.3760584421,
				"y": 2.4993187077,
				"z": 3.2045803721,
				"element": "Br" 
			},
			{
				"x": 0.2606931974,
				"y": -0.6439662899,
				"z": -1.0725476099,
				"element": "N" 
			},
			{
				"x": -0.0937959066,
				"y": -0.9931780267,
				"z": -2.1898871765,
				"element": "O" 
			},
			{
				"x": 1.230472692,
				"y": -1.163953187,
				"z": -0.4743986445,
				"element": "O" 
			},
			{
				"x": 1.3323211342,
				"y": -0.3751004304,
				"z": 0.9931068517,
				"element": "H" 
			},
			{
				"x": -1.7997534758,
				"y": 0.6224189456,
				"z": -2.0727004808,
				"element": "H" 
			},
			{
				"x": -2.4777919579,
				"y": 3.246788921,
				"z": 1.2768544058,
				"element": "H" 
			}
		],
		 "valence_orbital": [ 
			{
				"type": "occ",
				"energy": -0.33377,
				"method": "rhf"
			},
			{
				"type": "occ",
				"energy": -0.32445,
				"method": "rhf"
			},
			{
				"type": "occ",
				"energy": -0.30461,
				"method": "rhf"
			},
			{
				"type": "occ",
				"energy": -0.28582,
				"method": "rhf"
			},
			{
				"type": "occ",
				"energy": -0.25402,
				"method": "rhf"
			},
			{
				"type": "unocc",
				"energy": -0.11763,
				"method": "rhf"
			},
			{
				"type": "unocc",
				"energy": -0.04055,
				"method": "rhf"
			},
			{
				"type": "unocc",
				"energy": -0.02608,
				"method": "rhf"
			},
			{
				"type": "unocc",
				"energy": -0.02504,
				"method": "rhf"
			},
			{
				"type": "unocc",
				"energy": 0.02226,
				"method": "rhf"
			}
		],
		"cosmo_sigma_profile": { 
			"-0.025": 0.0,
			"-0.024": 0.0,
			"-0.023": 0.0,
			"-0.022": 0.0,
			"-0.021": 0.0,
			"-0.02": 0.0,
			"-0.019": 0.0,
			"-0.018": 0.0,
			"-0.017": 0.0,
			"-0.016": 0.0,
			"-0.015": 0.0,
			"-0.014": 0.0,
			"-0.013": 0.0,
			"-0.012": 0.0,
			"-0.011": 0.422574429339,
			"-0.01": 0.924819595296,
			"-0.009": 4.97778417485,
			"-0.008": 5.05149272788,
			"-0.007": 7.06500877419,
			"-0.006": 6.87914756257,
			"-0.005": 8.40796014795,
			"-0.004": 10.2369210523,
			"-0.003": 14.3765812781,
			"-0.002": 17.0139077296,
			"-0.001": 21.4831636755,
			"0.0": 14.7480279749,
			"0.001": 11.7074987692,
			"0.002": 14.549901757,
			"0.003": 19.6301058661,
			"0.004": 14.8474373613,
			"0.005": 6.08771890946,
			"0.006": 7.51980905269,
			"0.007": 6.94362538931,
			"0.008": 6.10463272157,
			"0.009": 3.89381576438,
			"0.01": 0.207777968474,
			"0.011": 0.0,
			"0.012": 0.0,
			"0.013": 0.0,
			"0.014": 0.0,
			"0.015": 0.0,
			"0.016": 0.0,
			"0.017": 0.0,
			"0.018": 0.0,
			"0.019": 0.0,
			"0.02": 0.0,
			"0.021": 0.0,
			"0.022": 0.0,
			"0.023": 0.0,
			"0.024": 0.0,
			"0.025": 0.0
		}
	}
}
