{
	 "smiles": "CC1=C(SC(=N1)C1=CC=CC=C1)S(Cl)(=O)=O", 
	 "Tm": 350.15, 
	 "num_atms": 24, 
	 "gaussian": { 
		 "optdone": 1, 
		 "sigma_profile": "yes", 
		 "theory": "DFT", 
		 "functional": "B3LYP", 
		 "basiset": "6-31G**", 
		 "properties": { 
			 "R2extent": 6473.3267, 
			 "electric_dipole_moment_norm": 6.01473486282, 
			 "electric_quadrupole_moment_norm": 15.0691316518, 
			 "total_energy": -1847.58163216, 
			 "HOMO_LUMO_gap": 0.14709, 
			 "cosmo_polarized_energy": -9.42, 
			 "cosmo_cavitation_energy": 33.6, 
			 "cosmo_dispersion_energy": -25.24, 
			 "cosmo_repulsion_energy": 1.87, 
			 "cosmo_total_nonelectrostatic_energy": 10.23, 
			 "SMD_solvation_energy": 2.88 
		},
		"coords": [
			{
				"x": -2.0630424064,
				"y": 2.1632909588,
				"z": -1.8912518383,
				"element": "C" 
			},
			{
				"x": -0.9116826841,
				"y": 1.3358485252,
				"z": -1.4034150356,
				"element": "C" 
			},
			{
				"x": 0.0710489358,
				"y": 0.7345781202,
				"z": -2.1709496948,
				"element": "C" 
			},
			{
				"x": 1.2030503407,
				"y": -0.1480061314,
				"z": -1.1853138177,
				"element": "S" 
			},
			{
				"x": 0.2810290497,
				"y": 0.3654765789,
				"z": 0.2182938346,
				"element": "C" 
			},
			{
				"x": -0.761204705,
				"y": 1.1187353399,
				"z": -0.0642608424,
				"element": "N" 
			},
			{
				"x": 0.6619332601,
				"y": -0.0045259438,
				"z": 1.585179107,
				"element": "C" 
			},
			{
				"x": 1.7404214736,
				"y": -0.8651242341,
				"z": 1.8506446362,
				"element": "C" 
			},
			{
				"x": 2.0723098186,
				"y": -1.1937668565,
				"z": 3.1618679615,
				"element": "C" 
			},
			{
				"x": 1.3317288712,
				"y": -0.6704155568,
				"z": 4.2247396199,
				"element": "C" 
			},
			{
				"x": 0.2561612139,
				"y": 0.1843297417,
				"z": 3.9690823366,
				"element": "C" 
			},
			{
				"x": -0.0795292983,
				"y": 0.5178617274,
				"z": 2.6605369526,
				"element": "C" 
			},
			{
				"x": 0.2290292146,
				"y": 0.7535027644,
				"z": -3.9112716059,
				"element": "S" 
			},
			{
				"x": -1.0925551246,
				"y": -0.8219167776,
				"z": -4.5096374348,
				"element": "Cl" 
			},
			{
				"x": -0.3611738242,
				"y": 1.9746837245,
				"z": -4.4436504119,
				"element": "O" 
			},
			{
				"x": 1.5697567404,
				"y": 0.3060405349,
				"z": -4.2654913131,
				"element": "O" 
			},
			{
				"x": -1.7120714091,
				"y": 3.1185662413,
				"z": -2.2927832469,
				"element": "H" 
			},
			{
				"x": -2.606194475,
				"y": 1.660308414,
				"z": -2.6958007581,
				"element": "H" 
			},
			{
				"x": -2.7399091825,
				"y": 2.3514347084,
				"z": -1.0571415172,
				"element": "H" 
			},
			{
				"x": 2.3221989492,
				"y": -1.284872695,
				"z": 1.0343257766,
				"element": "H" 
			},
			{
				"x": 2.9075471757,
				"y": -1.8600275382,
				"z": 3.3542649913,
				"element": "H" 
			},
			{
				"x": 1.5917737186,
				"y": -0.9284501663,
				"z": 5.2469926909,
				"element": "H" 
			},
			{
				"x": -0.3218487241,
				"y": 0.5930399623,
				"z": 4.7924305208,
				"element": "H" 
			},
			{
				"x": -0.9103769284,
				"y": 1.1806085577,
				"z": 2.4472090885,
				"element": "H" 
			}
		],
		 "valence_orbital": [ 
			{
				"type": "occ",
				"energy": -0.31214,
				"method": "rhf"
			},
			{
				"type": "occ",
				"energy": -0.29995,
				"method": "rhf"
			},
			{
				"type": "occ",
				"energy": -0.29734,
				"method": "rhf"
			},
			{
				"type": "occ",
				"energy": -0.27478,
				"method": "rhf"
			},
			{
				"type": "occ",
				"energy": -0.24923,
				"method": "rhf"
			},
			{
				"type": "unocc",
				"energy": -0.10214,
				"method": "rhf"
			},
			{
				"type": "unocc",
				"energy": -0.06929,
				"method": "rhf"
			},
			{
				"type": "unocc",
				"energy": -0.02576,
				"method": "rhf"
			},
			{
				"type": "unocc",
				"energy": -0.01527,
				"method": "rhf"
			},
			{
				"type": "unocc",
				"energy": -0.01206,
				"method": "rhf"
			}
		],
		"cosmo_sigma_profile": { 
			"-0.025": 0.0,
			"-0.024": 0.0,
			"-0.023": 0.0,
			"-0.022": 0.0,
			"-0.021": 0.0,
			"-0.02": 0.0,
			"-0.019": 0.0,
			"-0.018": 0.0,
			"-0.017": 0.0,
			"-0.016": 0.0,
			"-0.015": 0.0,
			"-0.014": 0.0,
			"-0.013": 0.0,
			"-0.012": 0.0,
			"-0.011": 0.0,
			"-0.01": 0.0,
			"-0.009": 0.100334861197,
			"-0.008": 1.52718753569,
			"-0.007": 5.47711117239,
			"-0.006": 13.8154525406,
			"-0.005": 17.827451079,
			"-0.004": 20.6034820731,
			"-0.003": 21.6867394797,
			"-0.002": 27.8110461788,
			"-0.001": 23.015883953,
			"0.0": 21.6692159837,
			"0.001": 21.8817170783,
			"0.002": 20.8005272899,
			"0.003": 28.1473275234,
			"0.004": 18.4093335009,
			"0.005": 5.39953244048,
			"0.006": 5.0965638039,
			"0.007": 7.5075342291,
			"0.008": 9.96217071513,
			"0.009": 4.16630469733,
			"0.01": 0.037340304482,
			"0.011": 0.0,
			"0.012": 0.0,
			"0.013": 0.0,
			"0.014": 0.0,
			"0.015": 0.0,
			"0.016": 0.0,
			"0.017": 0.0,
			"0.018": 0.0,
			"0.019": 0.0,
			"0.02": 0.0,
			"0.021": 0.0,
			"0.022": 0.0,
			"0.023": 0.0,
			"0.024": 0.0,
			"0.025": 0.0
		}
	}
}
