{
	 "smiles": "COC(=O)[C@@H](N1CCC2=C(C1)C=CS2)C1=CC=CC=C1Cl", 
	 "Tm": 431.15, 
	 "num_atms": 37, 
	 "gaussian": { 
		 "optdone": 1, 
		 "sigma_profile": "yes", 
		 "theory": "DFT", 
		 "functional": "B3LYP", 
		 "basiset": "6-31G**", 
		 "properties": { 
			 "R2extent": 8341.4833, 
			 "electric_dipole_moment_norm": 2.59152820745, 
			 "electric_quadrupole_moment_norm": 18.0575221404, 
			 "total_energy": -1682.90593787, 
			 "HOMO_LUMO_gap": 0.19301, 
			 "cosmo_polarized_energy": -12.02, 
			 "cosmo_cavitation_energy": 42.68, 
			 "cosmo_dispersion_energy": -29.52, 
			 "cosmo_repulsion_energy": 2.24, 
			 "cosmo_total_nonelectrostatic_energy": 15.41, 
			 "SMD_solvation_energy": 6.69 
		},
		"coords": [
			{
				"x": -1.317724765,
				"y": -1.5667305515,
				"z": -4.0030807514,
				"element": "C" 
			},
			{
				"x": -0.9444388129,
				"y": -1.0999283028,
				"z": -2.694772088,
				"element": "O" 
			},
			{
				"x": -1.6331939857,
				"y": -1.6468785556,
				"z": -1.6725150203,
				"element": "C" 
			},
			{
				"x": -2.4940226489,
				"y": -2.4858884082,
				"z": -1.8130055934,
				"element": "O" 
			},
			{
				"x": -1.2397494312,
				"y": -1.0469836199,
				"z": -0.3099830908,
				"element": "C" 
			},
			{
				"x": 0.2153202598,
				"y": -1.0401161058,
				"z": -0.105249272,
				"element": "N" 
			},
			{
				"x": 0.5679387746,
				"y": -0.5874847701,
				"z": 1.2501785816,
				"element": "C" 
			},
			{
				"x": 2.0672988112,
				"y": -0.269243437,
				"z": 1.335274402,
				"element": "C" 
			},
			{
				"x": 2.8350478888,
				"y": -1.4235730961,
				"z": 0.7640966256,
				"element": "C" 
			},
			{
				"x": 2.2717687839,
				"y": -2.3874855363,
				"z": -0.0265661529,
				"element": "C" 
			},
			{
				"x": 0.8079847366,
				"y": -2.3577692767,
				"z": -0.3846607833,
				"element": "C" 
			},
			{
				"x": 3.2101886681,
				"y": -3.3883793638,
				"z": -0.440355171,
				"element": "C" 
			},
			{
				"x": 4.4686776544,
				"y": -3.1633985899,
				"z": 0.0386697801,
				"element": "C" 
			},
			{
				"x": 4.5354864437,
				"y": -1.7215529045,
				"z": 1.0092105288,
				"element": "S" 
			},
			{
				"x": -1.8229419767,
				"y": 0.3642516849,
				"z": -0.2392607051,
				"element": "C" 
			},
			{
				"x": -1.1535195678,
				"y": 1.4157881208,
				"z": -0.8860156537,
				"element": "C" 
			},
			{
				"x": -1.6531295286,
				"y": 2.7144918099,
				"z": -0.8725526962,
				"element": "C" 
			},
			{
				"x": -2.8508236468,
				"y": 2.9915313839,
				"z": -0.2099031591,
				"element": "C" 
			},
			{
				"x": -3.5387744487,
				"y": 1.9675254751,
				"z": 0.4359124084,
				"element": "C" 
			},
			{
				"x": -3.0250498947,
				"y": 0.6682473405,
				"z": 0.4159575071,
				"element": "C" 
			},
			{
				"x": -3.9499466387,
				"y": -0.5751826087,
				"z": 1.2573924578,
				"element": "Cl" 
			},
			{
				"x": -0.6654656574,
				"y": -1.0401013878,
				"z": -4.6992606953,
				"element": "H" 
			},
			{
				"x": -2.3660386259,
				"y": -1.3352916421,
				"z": -4.2070031645,
				"element": "H" 
			},
			{
				"x": -1.1735122139,
				"y": -2.647053635,
				"z": -4.0824262712,
				"element": "H" 
			},
			{
				"x": -1.7516882725,
				"y": -1.6881070248,
				"z": 0.4218830949,
				"element": "H" 
			},
			{
				"x": 0.3069789652,
				"y": -1.3501861884,
				"z": 2.0076375316,
				"element": "H" 
			},
			{
				"x": -0.0085768745,
				"y": 0.3107478371,
				"z": 1.4807135375,
				"element": "H" 
			},
			{
				"x": 2.3400865243,
				"y": -0.0816801054,
				"z": 2.3807179343,
				"element": "H" 
			},
			{
				"x": 2.2780630205,
				"y": 0.6521195802,
				"z": 0.7767917389,
				"element": "H" 
			},
			{
				"x": 0.6919603215,
				"y": -2.5717663633,
				"z": -1.4521689194,
				"element": "H" 
			},
			{
				"x": 0.277686939,
				"y": -3.1630397676,
				"z": 0.1633034229,
				"element": "H" 
			},
			{
				"x": 2.9540650291,
				"y": -4.2351017975,
				"z": -1.0686312446,
				"element": "H" 
			},
			{
				"x": 5.361957525,
				"y": -3.7516723226,
				"z": -0.1181465303,
				"element": "H" 
			},
			{
				"x": -0.2237588873,
				"y": 1.1816093973,
				"z": -1.3923828641,
				"element": "H" 
			},
			{
				"x": -1.1113773063,
				"y": 3.5075470529,
				"z": -1.3790975465,
				"element": "H" 
			},
			{
				"x": -3.2517623765,
				"y": 4.0005906746,
				"z": -0.1927589282,
				"element": "H" 
			},
			{
				"x": -4.4695147858,
				"y": 2.163045004,
				"z": 0.95665675,
				"element": "H" 
			}
		],
		 "valence_orbital": [ 
			{
				"type": "occ",
				"energy": -0.2563,
				"method": "rhf"
			},
			{
				"type": "occ",
				"energy": -0.24681,
				"method": "rhf"
			},
			{
				"type": "occ",
				"energy": -0.24412,
				"method": "rhf"
			},
			{
				"type": "occ",
				"energy": -0.22576,
				"method": "rhf"
			},
			{
				"type": "occ",
				"energy": -0.22144,
				"method": "rhf"
			},
			{
				"type": "unocc",
				"energy": -0.02843,
				"method": "rhf"
			},
			{
				"type": "unocc",
				"energy": -0.0145,
				"method": "rhf"
			},
			{
				"type": "unocc",
				"energy": -0.00564,
				"method": "rhf"
			},
			{
				"type": "unocc",
				"energy": 0.01516,
				"method": "rhf"
			},
			{
				"type": "unocc",
				"energy": 0.03132,
				"method": "rhf"
			}
		],
		"cosmo_sigma_profile": { 
			"-0.025": 0.0,
			"-0.024": 0.0,
			"-0.023": 0.0,
			"-0.022": 0.0,
			"-0.021": 0.0,
			"-0.02": 0.0,
			"-0.019": 0.0,
			"-0.018": 0.0,
			"-0.017": 0.0,
			"-0.016": 0.0,
			"-0.015": 0.0,
			"-0.014": 0.0,
			"-0.013": 0.0,
			"-0.012": 0.0,
			"-0.011": 0.0,
			"-0.01": 0.0,
			"-0.009": 0.0394157951708,
			"-0.008": 1.38588810222,
			"-0.007": 6.16944818433,
			"-0.006": 16.6137215557,
			"-0.005": 24.8988427321,
			"-0.004": 33.1170519381,
			"-0.003": 38.1596364196,
			"-0.002": 30.3095129218,
			"-0.001": 22.9552102586,
			"0.0": 20.3738889772,
			"0.001": 21.915388939,
			"0.002": 23.2845100857,
			"0.003": 26.3959598745,
			"0.004": 27.3337456177,
			"0.005": 21.3087009794,
			"0.006": 9.30741231244,
			"0.007": 2.82282148248,
			"0.008": 2.96183503164,
			"0.009": 2.66354517421,
			"0.01": 3.34646587503,
			"0.011": 5.03347183756,
			"0.012": 2.75032344354,
			"0.013": 0.147982448791,
			"0.014": 0.0,
			"0.015": 0.0,
			"0.016": 0.0,
			"0.017": 0.0,
			"0.018": 0.0,
			"0.019": 0.0,
			"0.02": 0.0,
			"0.021": 0.0,
			"0.022": 0.0,
			"0.023": 0.0,
			"0.024": 0.0,
			"0.025": 0.0
		}
	}
}
