{
	 "smiles": "NNC(=O)C1=C(Cl)C2=C(S1)C=CC=C2", 
	 "Tm": 455.15, 
	 "num_atms": 21, 
	 "gaussian": { 
		 "optdone": 1, 
		 "sigma_profile": "yes", 
		 "theory": "DFT", 
		 "functional": "B3LYP", 
		 "basiset": "6-31G**", 
		 "properties": { 
			 "R2extent": 5105.6555, 
			 "electric_dipole_moment_norm": 4.32454963782, 
			 "electric_quadrupole_moment_norm": 14.7715275422, 
			 "total_energy": -1390.25219976, 
			 "HOMO_LUMO_gap": 0.17093, 
			 "cosmo_polarized_energy": -14.17, 
			 "cosmo_cavitation_energy": 28.81, 
			 "cosmo_dispersion_energy": -21.51, 
			 "cosmo_repulsion_energy": 1.65, 
			 "cosmo_total_nonelectrostatic_energy": 8.95, 
			 "SMD_solvation_energy": 5.2 
		},
		"coords": [
			{
				"x": -3.1114529673,
				"y": 2.3342579819,
				"z": 1.3295297753,
				"element": "N" 
			},
			{
				"x": -3.3925275192,
				"y": 2.3147058106,
				"z": -0.0520502361,
				"element": "N" 
			},
			{
				"x": -2.4730937387,
				"y": 2.4310283092,
				"z": -1.0724097393,
				"element": "C" 
			},
			{
				"x": -2.7962670793,
				"y": 2.8231639295,
				"z": -2.1828320585,
				"element": "O" 
			},
			{
				"x": -1.0694599934,
				"y": 2.003340432,
				"z": -0.763717793,
				"element": "C" 
			},
			{
				"x": 0.0842325372,
				"y": 2.6445632449,
				"z": -1.1139852012,
				"element": "C" 
			},
			{
				"x": 0.141309015,
				"y": 4.2113559844,
				"z": -1.8645404582,
				"element": "Cl" 
			},
			{
				"x": 1.2926155352,
				"y": 1.929526659,
				"z": -0.7848947679,
				"element": "C" 
			},
			{
				"x": 1.0016152993,
				"y": 0.6848132187,
				"z": -0.1808287081,
				"element": "C" 
			},
			{
				"x": -0.7283465922,
				"y": 0.4366370416,
				"z": -0.0228077817,
				"element": "S" 
			},
			{
				"x": 2.0186362217,
				"y": -0.1913681736,
				"z": 0.2124810166,
				"element": "C" 
			},
			{
				"x": 3.3372438102,
				"y": 0.1942949589,
				"z": -0.0001659125,
				"element": "C" 
			},
			{
				"x": 3.6419175327,
				"y": 1.4320209396,
				"z": -0.5971786223,
				"element": "C" 
			},
			{
				"x": 2.6333946206,
				"y": 2.2996419139,
				"z": -0.9900260016,
				"element": "C" 
			},
			{
				"x": -2.3658266888,
				"y": 2.9970031947,
				"z": 1.5297766816,
				"element": "H" 
			},
			{
				"x": -2.8078245748,
				"y": 1.4135798159,
				"z": 1.6325102081,
				"element": "H" 
			},
			{
				"x": -4.3081445295,
				"y": 2.6753271093,
				"z": -0.2929753897,
				"element": "H" 
			},
			{
				"x": 1.7847067257,
				"y": -1.146224901,
				"z": 0.6726989491,
				"element": "H" 
			},
			{
				"x": 4.1421934583,
				"y": -0.4697949281,
				"z": 0.2998229803,
				"element": "H" 
			},
			{
				"x": 4.6799335948,
				"y": 1.70910199,
				"z": -0.7528785465,
				"element": "H" 
			},
			{
				"x": 2.8625453324,
				"y": 3.2533254685,
				"z": -1.4538283945,
				"element": "H" 
			}
		],
		 "valence_orbital": [ 
			{
				"type": "occ",
				"energy": -0.28716,
				"method": "rhf"
			},
			{
				"type": "occ",
				"energy": -0.26592,
				"method": "rhf"
			},
			{
				"type": "occ",
				"energy": -0.26451,
				"method": "rhf"
			},
			{
				"type": "occ",
				"energy": -0.24789,
				"method": "rhf"
			},
			{
				"type": "occ",
				"energy": -0.23087,
				"method": "rhf"
			},
			{
				"type": "unocc",
				"energy": -0.05994,
				"method": "rhf"
			},
			{
				"type": "unocc",
				"energy": -0.01881,
				"method": "rhf"
			},
			{
				"type": "unocc",
				"energy": -0.00983,
				"method": "rhf"
			},
			{
				"type": "unocc",
				"energy": 0.00618,
				"method": "rhf"
			},
			{
				"type": "unocc",
				"energy": 0.03508,
				"method": "rhf"
			}
		],
		"cosmo_sigma_profile": { 
			"-0.025": 0.0,
			"-0.024": 0.0,
			"-0.023": 0.0,
			"-0.022": 0.0,
			"-0.021": 0.0,
			"-0.02": 0.0,
			"-0.019": 0.0,
			"-0.018": 0.0,
			"-0.017": 0.0,
			"-0.016": 0.0,
			"-0.015": 0.0,
			"-0.014": 0.553791109342,
			"-0.013": 0.987454262016,
			"-0.012": 1.89801937694,
			"-0.011": 3.29013925652,
			"-0.01": 3.54824393967,
			"-0.009": 3.3827543204,
			"-0.008": 4.46258584975,
			"-0.007": 8.19641455235,
			"-0.006": 12.832795518,
			"-0.005": 11.0635651799,
			"-0.004": 12.0146453198,
			"-0.003": 13.0884759332,
			"-0.002": 13.1058309106,
			"-0.001": 14.0427827663,
			"0.0": 21.0834593152,
			"0.001": 22.4799111109,
			"0.002": 20.3551802868,
			"0.003": 20.8907072594,
			"0.004": 16.559921795,
			"0.005": 3.88305684904,
			"0.006": 2.19473860686,
			"0.007": 2.87898440274,
			"0.008": 2.3977303587,
			"0.009": 2.27006572507,
			"0.01": 2.57280785518,
			"0.011": 3.16197281641,
			"0.012": 5.4632332159,
			"0.013": 4.83456157443,
			"0.014": 0.742145272633,
			"0.015": 0.587020107522,
			"0.016": 0.171125120525,
			"0.017": 0.0,
			"0.018": 0.0,
			"0.019": 0.0,
			"0.02": 0.0,
			"0.021": 0.0,
			"0.022": 0.0,
			"0.023": 0.0,
			"0.024": 0.0,
			"0.025": 0.0
		}
	}
}
