{
	 "smiles": "COCC1=C(OC2=C1C=CC=C2)C(O)=O", 
	 "Tm": 393.15, 
	 "num_atms": 25, 
	 "gaussian": { 
		 "optdone": 1, 
		 "sigma_profile": "yes", 
		 "theory": "DFT", 
		 "functional": "B3LYP", 
		 "basiset": "6-31G**", 
		 "properties": { 
			 "R2extent": 3479.1782, 
			 "electric_dipole_moment_norm": 4.31685065412, 
			 "electric_quadrupole_moment_norm": 13.7691077253, 
			 "total_energy": -726.079680514, 
			 "HOMO_LUMO_gap": 0.1752, 
			 "cosmo_polarized_energy": -12.01, 
			 "cosmo_cavitation_energy": 29.35, 
			 "cosmo_dispersion_energy": -21.17, 
			 "cosmo_repulsion_energy": 1.66, 
			 "cosmo_total_nonelectrostatic_energy": 9.84, 
			 "SMD_solvation_energy": 7.01 
		},
		"coords": [
			{
				"x": 1.0746488117,
				"y": -0.6608159911,
				"z": -2.7775247977,
				"element": "C" 
			},
			{
				"x": 0.3487674097,
				"y": -1.3704349216,
				"z": -1.78710996,
				"element": "O" 
			},
			{
				"x": 0.8341935663,
				"y": -1.1516968223,
				"z": -0.4712890906,
				"element": "C" 
			},
			{
				"x": 0.4474630012,
				"y": 0.199926479,
				"z": 0.0719855646,
				"element": "C" 
			},
			{
				"x": 1.1870294615,
				"y": 1.031838779,
				"z": 0.8651012143,
				"element": "C" 
			},
			{
				"x": 0.4848624634,
				"y": 2.1793729973,
				"z": 1.2104819376,
				"element": "O" 
			},
			{
				"x": -0.7409539206,
				"y": 2.0705943073,
				"z": 0.6109672354,
				"element": "C" 
			},
			{
				"x": -0.8230350754,
				"y": 0.8649494565,
				"z": -0.1092498846,
				"element": "C" 
			},
			{
				"x": -2.0070679854,
				"y": 0.5644562866,
				"z": -0.8051415575,
				"element": "C" 
			},
			{
				"x": -3.0538506488,
				"y": 1.4765107521,
				"z": -0.7400952739,
				"element": "C" 
			},
			{
				"x": -2.9400802116,
				"y": 2.6746001698,
				"z": -0.0054623147,
				"element": "C" 
			},
			{
				"x": -1.774730827,
				"y": 2.9973188506,
				"z": 0.686744058,
				"element": "C" 
			},
			{
				"x": 2.5598796435,
				"y": 0.9249302127,
				"z": 1.3899071666,
				"element": "C" 
			},
			{
				"x": 2.9821416736,
				"y": 1.9803674563,
				"z": 2.1232867836,
				"element": "O" 
			},
			{
				"x": 3.276152746,
				"y": -0.0311770333,
				"z": 1.1847471146,
				"element": "O" 
			},
			{
				"x": 2.140478785,
				"y": -0.932283316,
				"z": -2.7642190552,
				"element": "H" 
			},
			{
				"x": 0.9904220709,
				"y": 0.4281491696,
				"z": -2.6528004919,
				"element": "H" 
			},
			{
				"x": 0.6481955173,
				"y": -0.9391284845,
				"z": -3.7439213466,
				"element": "H" 
			},
			{
				"x": 1.9216536943,
				"y": -1.2779741707,
				"z": -0.4089128333,
				"element": "H" 
			},
			{
				"x": 0.3712305622,
				"y": -1.9312447429,
				"z": 0.1454253902,
				"element": "H" 
			},
			{
				"x": -2.081893048,
				"y": -0.3516708999,
				"z": -1.3794796147,
				"element": "H" 
			},
			{
				"x": -3.979634722,
				"y": 1.2673978197,
				"z": -1.2673090989,
				"element": "H" 
			},
			{
				"x": -3.7787350417,
				"y": 3.3637147416,
				"z": 0.0203272157,
				"element": "H" 
			},
			{
				"x": -1.6735557469,
				"y": 3.9160687153,
				"z": 1.253699083,
				"element": "H" 
			},
			{
				"x": 2.2734178208,
				"y": 2.6415301889,
				"z": 2.177142556,
				"element": "H" 
			}
		],
		 "valence_orbital": [ 
			{
				"type": "occ",
				"energy": -0.30249,
				"method": "rhf"
			},
			{
				"type": "occ",
				"energy": -0.28206,
				"method": "rhf"
			},
			{
				"type": "occ",
				"energy": -0.26477,
				"method": "rhf"
			},
			{
				"type": "occ",
				"energy": -0.25535,
				"method": "rhf"
			},
			{
				"type": "occ",
				"energy": -0.2399,
				"method": "rhf"
			},
			{
				"type": "unocc",
				"energy": -0.0647,
				"method": "rhf"
			},
			{
				"type": "unocc",
				"energy": -0.00632,
				"method": "rhf"
			},
			{
				"type": "unocc",
				"energy": 0.00838,
				"method": "rhf"
			},
			{
				"type": "unocc",
				"energy": 0.07668,
				"method": "rhf"
			},
			{
				"type": "unocc",
				"energy": 0.08442,
				"method": "rhf"
			}
		],
		"cosmo_sigma_profile": { 
			"-0.025": 0.0,
			"-0.024": 0.0,
			"-0.023": 0.0,
			"-0.022": 0.0,
			"-0.021": 0.0,
			"-0.02": 0.0,
			"-0.019": 0.0,
			"-0.018": 0.0,
			"-0.017": 0.101066979273,
			"-0.016": 0.684253900412,
			"-0.015": 0.507523935788,
			"-0.014": 0.518363051738,
			"-0.013": 0.897215896758,
			"-0.012": 0.95837113337,
			"-0.011": 0.626305816238,
			"-0.01": 0.755065232686,
			"-0.009": 1.24482490947,
			"-0.008": 1.52896442141,
			"-0.007": 4.67443224798,
			"-0.006": 10.5551607683,
			"-0.005": 14.8161298671,
			"-0.004": 20.9664009736,
			"-0.003": 19.0514575848,
			"-0.002": 24.6868078492,
			"-0.001": 20.1775929691,
			"0.0": 17.0608903009,
			"0.001": 15.4555643774,
			"0.002": 15.2879437578,
			"0.003": 13.3805848433,
			"0.004": 12.5853874308,
			"0.005": 5.47141130169,
			"0.006": 3.20937537976,
			"0.007": 3.99274696665,
			"0.008": 3.67542191541,
			"0.009": 4.90937712994,
			"0.01": 6.25681367533,
			"0.011": 4.69932251379,
			"0.012": 4.37303049487,
			"0.013": 1.37986442517,
			"0.014": 0.0,
			"0.015": 0.0,
			"0.016": 0.0,
			"0.017": 0.0,
			"0.018": 0.0,
			"0.019": 0.0,
			"0.02": 0.0,
			"0.021": 0.0,
			"0.022": 0.0,
			"0.023": 0.0,
			"0.024": 0.0,
			"0.025": 0.0
		}
	}
}
