{
	 "smiles": "O1C2=CC=CC=C2OC2=CC=CC=C12", 
	 "Tm": 395.15, 
	 "num_atms": 22, 
	 "gaussian": { 
		 "optdone": 1, 
		 "sigma_profile": "yes", 
		 "theory": "DFT", 
		 "functional": "B3LYP", 
		 "basiset": "6-31G**", 
		 "properties": { 
			 "R2extent": 3274.8636, 
			 "electric_dipole_moment_norm": 0.0, 
			 "electric_quadrupole_moment_norm": 8.5282250199, 
			 "total_energy": -612.528476705, 
			 "HOMO_LUMO_gap": 0.18167, 
			 "cosmo_polarized_energy": -5.28, 
			 "cosmo_cavitation_energy": 26.0, 
			 "cosmo_dispersion_energy": -19.99, 
			 "cosmo_repulsion_energy": 1.53, 
			 "cosmo_total_nonelectrostatic_energy": 7.54, 
			 "SMD_solvation_energy": 4.87 
		},
		"coords": [
			{
				"x": -0.4100450484,
				"y": 0.8167895808,
				"z": 0.7744879446,
				"element": "O" 
			},
			{
				"x": 0.7823925512,
				"y": 0.2412008386,
				"z": 0.3835634852,
				"element": "C" 
			},
			{
				"x": 1.359520619,
				"y": -0.7054142206,
				"z": 1.2227017954,
				"element": "C" 
			},
			{
				"x": 2.5658703338,
				"y": -1.3107584772,
				"z": 0.8627761881,
				"element": "C" 
			},
			{
				"x": 3.190021523,
				"y": -0.965797238,
				"z": -0.3365262772,
				"element": "C" 
			},
			{
				"x": 2.6093471189,
				"y": -0.0146695192,
				"z": -1.1788103195,
				"element": "C" 
			},
			{
				"x": 1.4085396387,
				"y": 0.5872737334,
				"z": -0.8195870531,
				"element": "C" 
			},
			{
				"x": 0.8666144696,
				"y": 1.5223655134,
				"z": -1.6786300547,
				"element": "O" 
			},
			{
				"x": -0.3258102567,
				"y": 2.0979781623,
				"z": -1.2876870134,
				"element": "C" 
			},
			{
				"x": -0.9029223355,
				"y": 3.044613276,
				"z": -2.126812018,
				"element": "C" 
			},
			{
				"x": -2.1092590599,
				"y": 3.6499765759,
				"z": -1.7668745149,
				"element": "C" 
			},
			{
				"x": -2.7334088403,
				"y": 3.3050139792,
				"z": -0.5675715109,
				"element": "C" 
			},
			{
				"x": -2.1527475245,
				"y": 2.3538679374,
				"z": 0.2746995942,
				"element": "C" 
			},
			{
				"x": -0.9519533235,
				"y": 1.7519013934,
				"z": -0.0845348322,
				"element": "C" 
			},
			{
				"x": 0.8510645563,
				"y": -0.9532298861,
				"z": 2.1486440284,
				"element": "H" 
			},
			{
				"x": 3.0118910572,
				"y": -2.0489012145,
				"z": 1.5214271842,
				"element": "H" 
			},
			{
				"x": 4.1272948898,
				"y": -1.432434508,
				"z": -0.6217982108,
				"element": "H" 
			},
			{
				"x": 3.0712151886,
				"y": 0.2737589728,
				"z": -2.1173184946,
				"element": "H" 
			},
			{
				"x": -0.3944651945,
				"y": 3.2924271036,
				"z": -3.0527541093,
				"element": "H" 
			},
			{
				"x": -2.5552708246,
				"y": 4.3881338114,
				"z": -2.425515112,
				"element": "H" 
			},
			{
				"x": -3.6706722981,
				"y": 3.7716643576,
				"z": -0.2822880756,
				"element": "H" 
			},
			{
				"x": -2.61461724,
				"y": 2.0654398278,
				"z": 1.2132073761,
				"element": "H" 
			}
		],
		 "valence_orbital": [ 
			{
				"type": "occ",
				"energy": -0.32886,
				"method": "rhf"
			},
			{
				"type": "occ",
				"energy": -0.2632,
				"method": "rhf"
			},
			{
				"type": "occ",
				"energy": -0.26193,
				"method": "rhf"
			},
			{
				"type": "occ",
				"energy": -0.23757,
				"method": "rhf"
			},
			{
				"type": "occ",
				"energy": -0.19629,
				"method": "rhf"
			},
			{
				"type": "unocc",
				"energy": -0.01462,
				"method": "rhf"
			},
			{
				"type": "unocc",
				"energy": -0.00442,
				"method": "rhf"
			},
			{
				"type": "unocc",
				"energy": -0.00382,
				"method": "rhf"
			},
			{
				"type": "unocc",
				"energy": 0.02924,
				"method": "rhf"
			},
			{
				"type": "unocc",
				"energy": 0.07032,
				"method": "rhf"
			}
		],
		"cosmo_sigma_profile": { 
			"-0.025": 0.0,
			"-0.024": 0.0,
			"-0.023": 0.0,
			"-0.022": 0.0,
			"-0.021": 0.0,
			"-0.02": 0.0,
			"-0.019": 0.0,
			"-0.018": 0.0,
			"-0.017": 0.0,
			"-0.016": 0.0,
			"-0.015": 0.0,
			"-0.014": 0.0,
			"-0.013": 0.0,
			"-0.012": 0.0,
			"-0.011": 0.0,
			"-0.01": 0.0,
			"-0.009": 0.0,
			"-0.008": 0.0222566339039,
			"-0.007": 5.09959755758,
			"-0.006": 13.5505308136,
			"-0.005": 15.4487119949,
			"-0.004": 17.7920662318,
			"-0.003": 13.576170367,
			"-0.002": 13.685992153,
			"-0.001": 11.3849639868,
			"0.0": 13.5727603899,
			"0.001": 15.8737086716,
			"0.002": 24.0612694055,
			"0.003": 21.6019874809,
			"0.004": 20.9187580674,
			"0.005": 14.9556130811,
			"0.006": 3.5439714034,
			"0.007": 2.68772046382,
			"0.008": 2.19548607281,
			"0.009": 0.0,
			"0.01": 0.0,
			"0.011": 0.0,
			"0.012": 0.0,
			"0.013": 0.0,
			"0.014": 0.0,
			"0.015": 0.0,
			"0.016": 0.0,
			"0.017": 0.0,
			"0.018": 0.0,
			"0.019": 0.0,
			"0.02": 0.0,
			"0.021": 0.0,
			"0.022": 0.0,
			"0.023": 0.0,
			"0.024": 0.0,
			"0.025": 0.0
		}
	}
}
