{
	 "smiles": "FC1=CC(CBr)=CC(Cl)=C1", 
	 "Tm": 300.65, 
	 "num_atms": 15, 
	 "gaussian": { 
		 "optdone": 1, 
		 "sigma_profile": "yes", 
		 "theory": "DFT", 
		 "functional": "B3LYP", 
		 "basiset": "6-31G**", 
		 "properties": { 
			 "R2extent": 3126.2161, 
			 "electric_dipole_moment_norm": 1.78522654585, 
			 "electric_quadrupole_moment_norm": 5.38255504291, 
			 "total_energy": -3401.19332599, 
			 "HOMO_LUMO_gap": 0.20458, 
			 "cosmo_polarized_energy": -6.36, 
			 "cosmo_cavitation_energy": 24.14, 
			 "cosmo_dispersion_energy": -17.86, 
			 "cosmo_repulsion_energy": 1.44, 
			 "cosmo_total_nonelectrostatic_energy": 7.73, 
			 "SMD_solvation_energy": 3.11 
		},
		"coords": [
			{
				"x": -3.1110211983,
				"y": -1.4814692866,
				"z": -0.9225543338,
				"element": "F" 
			},
			{
				"x": -1.8017344579,
				"y": -1.2192185713,
				"z": -0.7557405755,
				"element": "C" 
			},
			{
				"x": -1.3381553714,
				"y": 0.0674862187,
				"z": -0.9937789485,
				"element": "C" 
			},
			{
				"x": 0.0251568129,
				"y": 0.3383507888,
				"z": -0.8240198886,
				"element": "C" 
			},
			{
				"x": 0.5571119348,
				"y": 1.7123866965,
				"z": -1.084445596,
				"element": "C" 
			},
			{
				"x": 0.452785963,
				"y": 2.8766785778,
				"z": 0.5391149771,
				"element": "Br" 
			},
			{
				"x": 0.8935280351,
				"y": -0.6841225929,
				"z": -0.4194827333,
				"element": "C" 
			},
			{
				"x": 0.3885152712,
				"y": -1.962960647,
				"z": -0.1917961182,
				"element": "C" 
			},
			{
				"x": 1.480427504,
				"y": -3.241584206,
				"z": 0.3076592238,
				"element": "Cl" 
			},
			{
				"x": -0.9645644708,
				"y": -2.2554529037,
				"z": -0.3551986733,
				"element": "C" 
			},
			{
				"x": -2.0359975662,
				"y": 0.839557045,
				"z": -1.2993199944,
				"element": "H" 
			},
			{
				"x": 1.6120009822,
				"y": 1.7079881729,
				"z": -1.35149591,
				"element": "H" 
			},
			{
				"x": -0.0167342121,
				"y": 2.2463474568,
				"z": -1.8394109365,
				"element": "H" 
			},
			{
				"x": 1.9503461826,
				"y": -0.486234389,
				"z": -0.2792540538,
				"element": "H" 
			},
			{
				"x": -1.361965409,
				"y": -3.24775236,
				"z": -0.181676439,
				"element": "H" 
			}
		],
		 "valence_orbital": [ 
			{
				"type": "occ",
				"energy": -0.3248,
				"method": "rhf"
			},
			{
				"type": "occ",
				"energy": -0.28395,
				"method": "rhf"
			},
			{
				"type": "occ",
				"energy": -0.28003,
				"method": "rhf"
			},
			{
				"type": "occ",
				"energy": -0.26506,
				"method": "rhf"
			},
			{
				"type": "occ",
				"energy": -0.25906,
				"method": "rhf"
			},
			{
				"type": "unocc",
				"energy": -0.05448,
				"method": "rhf"
			},
			{
				"type": "unocc",
				"energy": -0.02343,
				"method": "rhf"
			},
			{
				"type": "unocc",
				"energy": 0.01383,
				"method": "rhf"
			},
			{
				"type": "unocc",
				"energy": 0.01793,
				"method": "rhf"
			},
			{
				"type": "unocc",
				"energy": 0.08673,
				"method": "rhf"
			}
		],
		"cosmo_sigma_profile": { 
			"-0.025": 0.0,
			"-0.024": 0.0,
			"-0.023": 0.0,
			"-0.022": 0.0,
			"-0.021": 0.0,
			"-0.02": 0.0,
			"-0.019": 0.0,
			"-0.018": 0.0,
			"-0.017": 0.0,
			"-0.016": 0.0,
			"-0.015": 0.0,
			"-0.014": 0.0,
			"-0.013": 0.0,
			"-0.012": 0.0,
			"-0.011": 0.0,
			"-0.01": 0.0,
			"-0.009": 2.68287697766,
			"-0.008": 10.9215447934,
			"-0.007": 8.22690573969,
			"-0.006": 6.6817041104,
			"-0.005": 8.9161687057,
			"-0.004": 6.67251635609,
			"-0.003": 7.54499235867,
			"-0.002": 10.0778350101,
			"-0.001": 13.3994177441,
			"0.0": 18.5608441022,
			"0.001": 23.8153803813,
			"0.002": 17.5609637504,
			"0.003": 18.2415299108,
			"0.004": 23.8450943422,
			"0.005": 9.85876267265,
			"0.006": 11.3123888499,
			"0.007": 1.03666761875,
			"0.008": 0.0,
			"0.009": 0.0,
			"0.01": 0.0,
			"0.011": 0.0,
			"0.012": 0.0,
			"0.013": 0.0,
			"0.014": 0.0,
			"0.015": 0.0,
			"0.016": 0.0,
			"0.017": 0.0,
			"0.018": 0.0,
			"0.019": 0.0,
			"0.02": 0.0,
			"0.021": 0.0,
			"0.022": 0.0,
			"0.023": 0.0,
			"0.024": 0.0,
			"0.025": 0.0
		}
	}
}
