{
	 "smiles": "O1C=NN=C1C1=NC=CC=C1", 
	 "Tm": 498.15, 
	 "num_atms": 16, 
	 "gaussian": { 
		 "optdone": 1, 
		 "sigma_profile": "yes", 
		 "theory": "DFT", 
		 "functional": "B3LYP", 
		 "basiset": "6-31G**", 
		 "properties": { 
			 "R2extent": 1925.7968, 
			 "electric_dipole_moment_norm": 3.12670206128, 
			 "electric_quadrupole_moment_norm": 12.8677648257, 
			 "total_energy": -509.192197339, 
			 "HOMO_LUMO_gap": 0.19201, 
			 "cosmo_polarized_energy": -12.05, 
			 "cosmo_cavitation_energy": 21.42, 
			 "cosmo_dispersion_energy": -16.15, 
			 "cosmo_repulsion_energy": 1.27, 
			 "cosmo_total_nonelectrostatic_energy": 6.55, 
			 "SMD_solvation_energy": 1.9 
		},
		"coords": [
			{
				"x": -0.138987578,
				"y": 2.1080496828,
				"z": -0.8052865102,
				"element": "O" 
			},
			{
				"x": 0.6242356364,
				"y": 3.205833807,
				"z": -0.5874417203,
				"element": "C" 
			},
			{
				"x": 1.2020959558,
				"y": 3.2104822547,
				"z": 0.5702950076,
				"element": "N" 
			},
			{
				"x": 0.8056323027,
				"y": 2.0288775545,
				"z": 1.1931119659,
				"element": "N" 
			},
			{
				"x": 0.0220524473,
				"y": 1.4127252703,
				"z": 0.3555419335,
				"element": "C" 
			},
			{
				"x": -0.6536493271,
				"y": 0.1246728514,
				"z": 0.543182563,
				"element": "C" 
			},
			{
				"x": -1.4191780816,
				"y": -0.3188948763,
				"z": -0.4655175969,
				"element": "N" 
			},
			{
				"x": -2.0348562603,
				"y": -1.4919578336,
				"z": -0.2955020139,
				"element": "C" 
			},
			{
				"x": -1.9220800199,
				"y": -2.2658936459,
				"z": 0.8619606693,
				"element": "C" 
			},
			{
				"x": -1.1223962009,
				"y": -1.7913175587,
				"z": 1.9022677104,
				"element": "C" 
			},
			{
				"x": -0.4716222517,
				"y": -0.5716514497,
				"z": 1.7469491375,
				"element": "C" 
			},
			{
				"x": 0.6798001539,
				"y": 3.9483407636,
				"z": -1.3684994523,
				"element": "H" 
			},
			{
				"x": -2.6501251459,
				"y": -1.8315567107,
				"z": -1.1265020261,
				"element": "H" 
			},
			{
				"x": -2.4475530209,
				"y": -3.2121052196,
				"z": 0.9409326855,
				"element": "H" 
			},
			{
				"x": -1.0073231907,
				"y": -2.3613598835,
				"z": 2.8192969493,
				"element": "H" 
			},
			{
				"x": 0.162454581,
				"y": -0.1519450062,
				"z": 2.5196106976,
				"element": "H" 
			}
		],
		 "valence_orbital": [ 
			{
				"type": "occ",
				"energy": -0.31769,
				"method": "rhf"
			},
			{
				"type": "occ",
				"energy": -0.2989,
				"method": "rhf"
			},
			{
				"type": "occ",
				"energy": -0.28286,
				"method": "rhf"
			},
			{
				"type": "occ",
				"energy": -0.27184,
				"method": "rhf"
			},
			{
				"type": "occ",
				"energy": -0.25535,
				"method": "rhf"
			},
			{
				"type": "unocc",
				"energy": -0.06334,
				"method": "rhf"
			},
			{
				"type": "unocc",
				"energy": -0.03346,
				"method": "rhf"
			},
			{
				"type": "unocc",
				"energy": 0.00715,
				"method": "rhf"
			},
			{
				"type": "unocc",
				"energy": 0.05004,
				"method": "rhf"
			},
			{
				"type": "unocc",
				"energy": 0.08783,
				"method": "rhf"
			}
		],
		"cosmo_sigma_profile": { 
			"-0.025": 0.0,
			"-0.024": 0.0,
			"-0.023": 0.0,
			"-0.022": 0.0,
			"-0.021": 0.0,
			"-0.02": 0.0,
			"-0.019": 0.0,
			"-0.018": 0.0,
			"-0.017": 0.0,
			"-0.016": 0.0,
			"-0.015": 0.0,
			"-0.014": 0.0,
			"-0.013": 0.61122863261,
			"-0.012": 2.29282830812,
			"-0.011": 1.96438593374,
			"-0.01": 1.35524802964,
			"-0.009": 1.54982538616,
			"-0.008": 4.02201721841,
			"-0.007": 9.52152201566,
			"-0.006": 11.7472715271,
			"-0.005": 10.4903487533,
			"-0.004": 10.6293506257,
			"-0.003": 11.3791308707,
			"-0.002": 9.72008857871,
			"-0.001": 11.7190725991,
			"0.0": 14.7377928081,
			"0.001": 17.9925924064,
			"0.002": 8.18426184494,
			"0.003": 4.66177449795,
			"0.004": 4.85286437765,
			"0.005": 3.75459306129,
			"0.006": 3.50271022118,
			"0.007": 3.76956001045,
			"0.008": 3.10877859622,
			"0.009": 4.00759075184,
			"0.01": 4.34548815572,
			"0.011": 4.39320767187,
			"0.012": 3.40022555513,
			"0.013": 3.75041491561,
			"0.014": 2.01148408662,
			"0.015": 0.654805697099,
			"0.016": 0.0,
			"0.017": 0.0,
			"0.018": 0.0,
			"0.019": 0.0,
			"0.02": 0.0,
			"0.021": 0.0,
			"0.022": 0.0,
			"0.023": 0.0,
			"0.024": 0.0,
			"0.025": 0.0
		}
	}
}
