{
	 "smiles": "CCOC1C=CC2=CC=CC=C2N1C(=O)OCC", 
	 "Tm": 337.65, 
	 "num_atms": 35, 
	 "gaussian": { 
		 "optdone": 1, 
		 "sigma_profile": "yes", 
		 "theory": "DFT", 
		 "functional": "B3LYP", 
		 "basiset": "6-31G**", 
		 "properties": { 
			 "R2extent": 4871.3631, 
			 "electric_dipole_moment_norm": 1.30018542524, 
			 "electric_quadrupole_moment_norm": 11.3273262203, 
			 "total_energy": -824.162686712, 
			 "HOMO_LUMO_gap": 0.17977, 
			 "cosmo_polarized_energy": -9.78, 
			 "cosmo_cavitation_energy": 36.71, 
			 "cosmo_dispersion_energy": -25.4, 
			 "cosmo_repulsion_energy": 1.99, 
			 "cosmo_total_nonelectrostatic_energy": 13.3, 
			 "SMD_solvation_energy": 7.25 
		},
		"coords": [
			{
				"x": 1.7436814936,
				"y": -0.4474441177,
				"z": -2.7729648031,
				"element": "C" 
			},
			{
				"x": 1.6891845184,
				"y": 1.0620019296,
				"z": -2.5601713731,
				"element": "C" 
			},
			{
				"x": 1.7258369391,
				"y": 1.3997977056,
				"z": -1.1671788378,
				"element": "O" 
			},
			{
				"x": 0.5228634736,
				"y": 1.8052322425,
				"z": -0.5303341528,
				"element": "C" 
			},
			{
				"x": -0.1024010178,
				"y": 3.0167030796,
				"z": -1.159652327,
				"element": "C" 
			},
			{
				"x": -1.2407682243,
				"y": 2.9525580103,
				"z": -1.8628501136,
				"element": "C" 
			},
			{
				"x": -1.932029004,
				"y": 1.6888535311,
				"z": -2.0590318422,
				"element": "C" 
			},
			{
				"x": -2.9798242986,
				"y": 1.5737622232,
				"z": -2.9848239791,
				"element": "C" 
			},
			{
				"x": -3.6044346558,
				"y": 0.3543071667,
				"z": -3.2172157066,
				"element": "C" 
			},
			{
				"x": -3.16774611,
				"y": -0.7727825549,
				"z": -2.5183228368,
				"element": "C" 
			},
			{
				"x": -2.1333973215,
				"y": -0.6864187817,
				"z": -1.5873136862,
				"element": "C" 
			},
			{
				"x": -1.5140903836,
				"y": 0.5467450449,
				"z": -1.3319013719,
				"element": "C" 
			},
			{
				"x": -0.4682994534,
				"y": 0.7138693761,
				"z": -0.3771506107,
				"element": "N" 
			},
			{
				"x": -0.3426470623,
				"y": -0.1572644271,
				"z": 0.7040470162,
				"element": "C" 
			},
			{
				"x": -1.0904369211,
				"y": -1.084271633,
				"z": 0.9564898058,
				"element": "O" 
			},
			{
				"x": 0.7225962972,
				"y": 0.167751785,
				"z": 1.4736019515,
				"element": "O" 
			},
			{
				"x": 0.9483802568,
				"y": -0.6747183231,
				"z": 2.6280001322,
				"element": "C" 
			},
			{
				"x": 1.7377818392,
				"y": -1.9206400591,
				"z": 2.2579844727,
				"element": "C" 
			},
			{
				"x": 1.8417429127,
				"y": -0.6743773067,
				"z": -3.8406513101,
				"element": "H" 
			},
			{
				"x": 2.6055850182,
				"y": -0.8740719693,
				"z": -2.251245764,
				"element": "H" 
			},
			{
				"x": 0.8384117829,
				"y": -0.9375030993,
				"z": -2.4049356142,
				"element": "H" 
			},
			{
				"x": 0.8090021666,
				"y": 1.4976049545,
				"z": -3.0456138647,
				"element": "H" 
			},
			{
				"x": 2.5724263366,
				"y": 1.533117486,
				"z": -3.0081786177,
				"element": "H" 
			},
			{
				"x": 0.8568147274,
				"y": 2.0558399954,
				"z": 0.4738935176,
				"element": "H" 
			},
			{
				"x": 0.4438988812,
				"y": 3.94681914,
				"z": -1.0375950213,
				"element": "H" 
			},
			{
				"x": -1.6605934876,
				"y": 3.841404838,
				"z": -2.3280584906,
				"element": "H" 
			},
			{
				"x": -3.2902528863,
				"y": 2.4626125457,
				"z": -3.5282609484,
				"element": "H" 
			},
			{
				"x": -4.4147956704,
				"y": 0.2798316302,
				"z": -3.935787384,
				"element": "H" 
			},
			{
				"x": -3.6350259855,
				"y": -1.7374466081,
				"z": -2.6937760475,
				"element": "H" 
			},
			{
				"x": -1.8270331996,
				"y": -1.5640439152,
				"z": -1.0390965139,
				"element": "H" 
			},
			{
				"x": -0.0151678594,
				"y": -0.9330547398,
				"z": 3.0724110754,
				"element": "H" 
			},
			{
				"x": 1.5074683338,
				"y": -0.0360820194,
				"z": 3.3159941608,
				"element": "H" 
			},
			{
				"x": 1.9664124188,
				"y": -2.496085728,
				"z": 3.1613651794,
				"element": "H" 
			},
			{
				"x": 2.6799661146,
				"y": -1.6530885179,
				"z": 1.7710522905,
				"element": "H" 
			},
			{
				"x": 1.1565900304,
				"y": -2.5552188841,
				"z": 1.5848716147,
				"element": "H" 
			}
		],
		 "valence_orbital": [ 
			{
				"type": "occ",
				"energy": -0.29164,
				"method": "rhf"
			},
			{
				"type": "occ",
				"energy": -0.27858,
				"method": "rhf"
			},
			{
				"type": "occ",
				"energy": -0.25966,
				"method": "rhf"
			},
			{
				"type": "occ",
				"energy": -0.23221,
				"method": "rhf"
			},
			{
				"type": "occ",
				"energy": -0.21496,
				"method": "rhf"
			},
			{
				"type": "unocc",
				"energy": -0.03519,
				"method": "rhf"
			},
			{
				"type": "unocc",
				"energy": -0.00299,
				"method": "rhf"
			},
			{
				"type": "unocc",
				"energy": 0.04724,
				"method": "rhf"
			},
			{
				"type": "unocc",
				"energy": 0.05559,
				"method": "rhf"
			},
			{
				"type": "unocc",
				"energy": 0.09581,
				"method": "rhf"
			}
		],
		"cosmo_sigma_profile": { 
			"-0.025": 0.0,
			"-0.024": 0.0,
			"-0.023": 0.0,
			"-0.022": 0.0,
			"-0.021": 0.0,
			"-0.02": 0.0,
			"-0.019": 0.0,
			"-0.018": 0.0,
			"-0.017": 0.0,
			"-0.016": 0.0,
			"-0.015": 0.0,
			"-0.014": 0.0,
			"-0.013": 0.0,
			"-0.012": 0.0,
			"-0.011": 0.0,
			"-0.01": 0.0,
			"-0.009": 0.0,
			"-0.008": 0.0,
			"-0.007": 2.21322226327,
			"-0.006": 12.5665215119,
			"-0.005": 16.7455871767,
			"-0.004": 26.0065999468,
			"-0.003": 31.2896653609,
			"-0.002": 32.8570271939,
			"-0.001": 29.4735310313,
			"0.0": 28.127672852,
			"0.001": 25.1976582012,
			"0.002": 17.877089121,
			"0.003": 15.0756420499,
			"0.004": 13.5286913545,
			"0.005": 11.9824634583,
			"0.006": 5.00642454658,
			"0.007": 4.11807505367,
			"0.008": 3.17246877271,
			"0.009": 2.85026880005,
			"0.01": 2.7582333291,
			"0.011": 3.70995193737,
			"0.012": 4.24743647121,
			"0.013": 1.5048526655,
			"0.014": 0.0152232011441,
			"0.015": 0.0,
			"0.016": 0.0,
			"0.017": 0.0,
			"0.018": 0.0,
			"0.019": 0.0,
			"0.02": 0.0,
			"0.021": 0.0,
			"0.022": 0.0,
			"0.023": 0.0,
			"0.024": 0.0,
			"0.025": 0.0
		}
	}
}
