{
	 "smiles": "BrC1=CC(Br)=NC=N1", 
	 "Tm": 324.15, 
	 "num_atms": 10, 
	 "gaussian": { 
		 "optdone": 1, 
		 "sigma_profile": "yes", 
		 "theory": "DFT", 
		 "functional": "B3LYP", 
		 "basiset": "6-31G**", 
		 "properties": { 
			 "R2extent": 3269.9874, 
			 "electric_dipole_moment_norm": 0.850284034897, 
			 "electric_quadrupole_moment_norm": 4.25110553621, 
			 "total_energy": -5405.92692252, 
			 "HOMO_LUMO_gap": 0.22018, 
			 "cosmo_polarized_energy": -5.87, 
			 "cosmo_cavitation_energy": 19.7, 
			 "cosmo_dispersion_energy": -15.74, 
			 "cosmo_repulsion_energy": 1.31, 
			 "cosmo_total_nonelectrostatic_energy": 5.27, 
			 "SMD_solvation_energy": -1.63 
		},
		"coords": [
			{
				"x": 1.4348267064,
				"y": 3.1818638516,
				"z": 1.9789570599,
				"element": "Br" 
			},
			{
				"x": 1.2216360906,
				"y": 1.6799778335,
				"z": 0.8215852968,
				"element": "C" 
			},
			{
				"x": -0.0560099541,
				"y": 1.3575311677,
				"z": 0.3663610706,
				"element": "C" 
			},
			{
				"x": -0.1061625054,
				"y": 0.2452701007,
				"z": -0.4726428133,
				"element": "C" 
			},
			{
				"x": -1.7944692055,
				"y": -0.307454036,
				"z": -1.1689555945,
				"element": "Br" 
			},
			{
				"x": 0.9574062491,
				"y": -0.4618418868,
				"z": -0.8222366419,
				"element": "N" 
			},
			{
				"x": 2.1213952733,
				"y": -0.0434005038,
				"z": -0.3145159875,
				"element": "C" 
			},
			{
				"x": 2.3116630233,
				"y": 1.0014582101,
				"z": 0.4977749721,
				"element": "N" 
			},
			{
				"x": -0.9351008335,
				"y": 1.923189686,
				"z": 0.6412144451,
				"element": "H" 
			},
			{
				"x": 3.0054151559,
				"y": -0.6122944231,
				"z": -0.5908418074,
				"element": "H" 
			}
		],
		 "valence_orbital": [ 
			{
				"type": "occ",
				"energy": -0.30914,
				"method": "rhf"
			},
			{
				"type": "occ",
				"energy": -0.30551,
				"method": "rhf"
			},
			{
				"type": "occ",
				"energy": -0.29543,
				"method": "rhf"
			},
			{
				"type": "occ",
				"energy": -0.28584,
				"method": "rhf"
			},
			{
				"type": "occ",
				"energy": -0.28545,
				"method": "rhf"
			},
			{
				"type": "unocc",
				"energy": -0.06527,
				"method": "rhf"
			},
			{
				"type": "unocc",
				"energy": -0.05989,
				"method": "rhf"
			},
			{
				"type": "unocc",
				"energy": -0.02857,
				"method": "rhf"
			},
			{
				"type": "unocc",
				"energy": 0.01225,
				"method": "rhf"
			},
			{
				"type": "unocc",
				"energy": 0.09719,
				"method": "rhf"
			}
		],
		"cosmo_sigma_profile": { 
			"-0.025": 0.0,
			"-0.024": 0.0,
			"-0.023": 0.0,
			"-0.022": 0.0,
			"-0.021": 0.0,
			"-0.02": 0.0,
			"-0.019": 0.0,
			"-0.018": 0.0,
			"-0.017": 0.0,
			"-0.016": 0.0,
			"-0.015": 0.0,
			"-0.014": 0.0,
			"-0.013": 0.0,
			"-0.012": 0.0,
			"-0.011": 0.024234841651,
			"-0.01": 1.46267966413,
			"-0.009": 3.37139232237,
			"-0.008": 2.98205797886,
			"-0.007": 3.48807829443,
			"-0.006": 6.04181652513,
			"-0.005": 7.72131283908,
			"-0.004": 9.71726163758,
			"-0.003": 18.5481901552,
			"-0.002": 14.2462445059,
			"-0.001": 10.9907369181,
			"0.0": 9.90459119959,
			"0.001": 12.742165462,
			"0.002": 15.65975625,
			"0.003": 21.4497748323,
			"0.004": 8.34762974088,
			"0.005": 4.74388377212,
			"0.006": 2.54231968602,
			"0.007": 2.7597999799,
			"0.008": 2.12183422303,
			"0.009": 1.8736510051,
			"0.01": 1.56249222379,
			"0.011": 2.27773645298,
			"0.012": 1.48956116021,
			"0.013": 0.528184049665,
			"0.014": 0.0,
			"0.015": 0.0,
			"0.016": 0.0,
			"0.017": 0.0,
			"0.018": 0.0,
			"0.019": 0.0,
			"0.02": 0.0,
			"0.021": 0.0,
			"0.022": 0.0,
			"0.023": 0.0,
			"0.024": 0.0,
			"0.025": 0.0
		}
	}
}
