{
	 "smiles": "NC(=O)C1=C(F)C=CC=C1F", 
	 "Tm": 420.15, 
	 "num_atms": 16, 
	 "gaussian": { 
		 "optdone": 1, 
		 "sigma_profile": "yes", 
		 "theory": "DFT", 
		 "functional": "B3LYP", 
		 "basiset": "6-31G**", 
		 "properties": { 
			 "R2extent": 1672.2444, 
			 "electric_dipole_moment_norm": 4.08089872087, 
			 "electric_quadrupole_moment_norm": 10.3610002683, 
			 "total_energy": -599.41223909, 
			 "HOMO_LUMO_gap": 0.2017, 
			 "cosmo_polarized_energy": -12.27, 
			 "cosmo_cavitation_energy": 21.19, 
			 "cosmo_dispersion_energy": -15.91, 
			 "cosmo_repulsion_energy": 1.23, 
			 "cosmo_total_nonelectrostatic_energy": 6.51, 
			 "SMD_solvation_energy": 5.23 
		},
		"coords": [
			{
				"x": -0.7590337478,
				"y": -1.2919477166,
				"z": -2.1571660116,
				"element": "N" 
			},
			{
				"x": -0.5064737334,
				"y": -1.2626039982,
				"z": -0.8159702063,
				"element": "C" 
			},
			{
				"x": -0.9990071823,
				"y": -2.0872794864,
				"z": -0.0589245491,
				"element": "O" 
			},
			{
				"x": 0.4089166643,
				"y": -0.1632327906,
				"z": -0.3125498529,
				"element": "C" 
			},
			{
				"x": 1.0185425413,
				"y": 0.8243256892,
				"z": -1.1061957986,
				"element": "C" 
			},
			{
				"x": 0.8020833064,
				"y": 0.8416556508,
				"z": -2.4500047102,
				"element": "F" 
			},
			{
				"x": 1.8526653765,
				"y": 1.8194275686,
				"z": -0.6190894182,
				"element": "C" 
			},
			{
				"x": 2.1158898687,
				"y": 1.8586879805,
				"z": 0.7485955737,
				"element": "C" 
			},
			{
				"x": 1.545663948,
				"y": 0.911896465,
				"z": 1.593280415,
				"element": "C" 
			},
			{
				"x": 0.7137654933,
				"y": -0.070363359,
				"z": 1.0624658312,
				"element": "C" 
			},
			{
				"x": 0.2016795584,
				"y": -0.9452567563,
				"z": 1.9307343591,
				"element": "F" 
			},
			{
				"x": -1.3695207004,
				"y": -2.0290122031,
				"z": -2.4736379106,
				"element": "H" 
			},
			{
				"x": -0.3731430896,
				"y": -0.6318808532,
				"z": -2.8090019315,
				"element": "H" 
			},
			{
				"x": 2.2756680009,
				"y": 2.5369157029,
				"z": -1.3124865681,
				"element": "H" 
			},
			{
				"x": 2.7654770332,
				"y": 2.627784593,
				"z": 1.1537422836,
				"element": "H" 
			},
			{
				"x": 1.7267266626,
				"y": 0.9099835133,
				"z": 2.6619084946,
				"element": "H" 
			}
		],
		 "valence_orbital": [ 
			{
				"type": "occ",
				"energy": -0.364,
				"method": "rhf"
			},
			{
				"type": "occ",
				"energy": -0.27224,
				"method": "rhf"
			},
			{
				"type": "occ",
				"energy": -0.26265,
				"method": "rhf"
			},
			{
				"type": "occ",
				"energy": -0.2578,
				"method": "rhf"
			},
			{
				"type": "occ",
				"energy": -0.24913,
				"method": "rhf"
			},
			{
				"type": "unocc",
				"energy": -0.04743,
				"method": "rhf"
			},
			{
				"type": "unocc",
				"energy": -0.0128,
				"method": "rhf"
			},
			{
				"type": "unocc",
				"energy": 0.0579,
				"method": "rhf"
			},
			{
				"type": "unocc",
				"energy": 0.0648,
				"method": "rhf"
			},
			{
				"type": "unocc",
				"energy": 0.10157,
				"method": "rhf"
			}
		],
		"cosmo_sigma_profile": { 
			"-0.025": 0.0,
			"-0.024": 0.0,
			"-0.023": 0.0,
			"-0.022": 0.0,
			"-0.021": 0.0,
			"-0.02": 0.0,
			"-0.019": 0.0,
			"-0.018": 0.0,
			"-0.017": 0.0,
			"-0.016": 0.0,
			"-0.015": 0.0,
			"-0.014": 0.729659417715,
			"-0.013": 1.11833183865,
			"-0.012": 1.19915854221,
			"-0.011": 1.96576927712,
			"-0.01": 2.72639709729,
			"-0.009": 1.60109198897,
			"-0.008": 4.51037599765,
			"-0.007": 7.82540530544,
			"-0.006": 7.94656569737,
			"-0.005": 7.29639509938,
			"-0.004": 6.62056114424,
			"-0.003": 9.01946291477,
			"-0.002": 9.4992376951,
			"-0.001": 16.2396102085,
			"0.0": 19.2526757582,
			"0.001": 14.2224778989,
			"0.002": 14.245599871,
			"0.003": 12.2347524581,
			"0.004": 7.63686462356,
			"0.005": 2.2506437945,
			"0.006": 2.45020177819,
			"0.007": 1.57031136308,
			"0.008": 1.66491654249,
			"0.009": 1.63986953661,
			"0.01": 1.38530139429,
			"0.011": 1.52674441157,
			"0.012": 2.81623215917,
			"0.013": 4.87395444683,
			"0.014": 4.32222497356,
			"0.015": 0.170409441487,
			"0.016": 0.0,
			"0.017": 0.0,
			"0.018": 0.0,
			"0.019": 0.0,
			"0.02": 0.0,
			"0.021": 0.0,
			"0.022": 0.0,
			"0.023": 0.0,
			"0.024": 0.0,
			"0.025": 0.0
		}
	}
}
