{
	 "smiles": "NS(=O)(=O)CC1=C(C=CC=C1)[N+]([O-])=O", 
	 "Tm": 405.15, 
	 "num_atms": 22, 
	 "gaussian": { 
		 "optdone": 1, 
		 "sigma_profile": "yes", 
		 "theory": "DFT", 
		 "functional": "B3LYP", 
		 "basiset": "6-31G**", 
		 "properties": { 
			 "R2extent": 3903.2681, 
			 "electric_dipole_moment_norm": 7.26929235965, 
			 "electric_quadrupole_moment_norm": 18.7003355304, 
			 "total_energy": -1079.98303942, 
			 "HOMO_LUMO_gap": 0.18393, 
			 "cosmo_polarized_energy": -20.69, 
			 "cosmo_cavitation_energy": 27.95, 
			 "cosmo_dispersion_energy": -20.48, 
			 "cosmo_repulsion_energy": 1.56, 
			 "cosmo_total_nonelectrostatic_energy": 9.03, 
			 "SMD_solvation_energy": 6.53 
		},
		"coords": [
			{
				"x": 0.4658862193,
				"y": 0.2656655339,
				"z": 2.8067117797,
				"element": "N" 
			},
			{
				"x": -0.9812983164,
				"y": -0.0118084538,
				"z": 1.9592480256,
				"element": "S" 
			},
			{
				"x": -1.4071607134,
				"y": -1.3806159135,
				"z": 2.2596045634,
				"element": "O" 
			},
			{
				"x": -1.8504307503,
				"y": 1.1482212784,
				"z": 2.1729698977,
				"element": "O" 
			},
			{
				"x": -0.4212394451,
				"y": -0.0018545547,
				"z": 0.220160793,
				"element": "C" 
			},
			{
				"x": 0.0547027156,
				"y": 1.3487772937,
				"z": -0.2380256286,
				"element": "C" 
			},
			{
				"x": -0.7831618763,
				"y": 2.4026146283,
				"z": -0.6528080889,
				"element": "C" 
			},
			{
				"x": -0.2748541737,
				"y": 3.6524022556,
				"z": -1.007110253,
				"element": "C" 
			},
			{
				"x": 1.0974572718,
				"y": 3.879675625,
				"z": -0.9705484898,
				"element": "C" 
			},
			{
				"x": 1.9527897093,
				"y": 2.8567563166,
				"z": -0.5618499554,
				"element": "C" 
			},
			{
				"x": 1.4301132025,
				"y": 1.618563004,
				"z": -0.1928430151,
				"element": "C" 
			},
			{
				"x": -2.2509898843,
				"y": 2.2572985921,
				"z": -0.7715037063,
				"element": "N" 
			},
			{
				"x": -2.9220867102,
				"y": 3.2808058534,
				"z": -0.684126206,
				"element": "O" 
			},
			{
				"x": -2.7144043808,
				"y": 1.1387747847,
				"z": -0.9931364495,
				"element": "O" 
			},
			{
				"x": 0.3871319591,
				"y": 1.1375360061,
				"z": 3.324154554,
				"element": "H" 
			},
			{
				"x": 0.6283578917,
				"y": -0.516801921,
				"z": 3.4360071088,
				"element": "H" 
			},
			{
				"x": -1.2874640259,
				"y": -0.3535121844,
				"z": -0.336721113,
				"element": "H" 
			},
			{
				"x": 0.3789396195,
				"y": -0.742430268,
				"z": 0.1733399082,
				"element": "H" 
			},
			{
				"x": -0.9692258427,
				"y": 4.4268184343,
				"z": -1.3073642662,
				"element": "H" 
			},
			{
				"x": 1.4916407954,
				"y": 4.8487438678,
				"z": -1.2589638429,
				"element": "H" 
			},
			{
				"x": 3.0253411094,
				"y": 3.0208732869,
				"z": -0.5246963869,
				"element": "H" 
			},
			{
				"x": 2.0970556255,
				"y": 0.8332965348,
				"z": 0.1485007709,
				"element": "H" 
			}
		],
		 "valence_orbital": [ 
			{
				"type": "occ",
				"energy": -0.3101,
				"method": "rhf"
			},
			{
				"type": "occ",
				"energy": -0.30568,
				"method": "rhf"
			},
			{
				"type": "occ",
				"energy": -0.29851,
				"method": "rhf"
			},
			{
				"type": "occ",
				"energy": -0.28104,
				"method": "rhf"
			},
			{
				"type": "occ",
				"energy": -0.27554,
				"method": "rhf"
			},
			{
				"type": "unocc",
				"energy": -0.09161,
				"method": "rhf"
			},
			{
				"type": "unocc",
				"energy": -0.04108,
				"method": "rhf"
			},
			{
				"type": "unocc",
				"energy": -0.01368,
				"method": "rhf"
			},
			{
				"type": "unocc",
				"energy": 0.04971,
				"method": "rhf"
			},
			{
				"type": "unocc",
				"energy": 0.06677,
				"method": "rhf"
			}
		],
		"cosmo_sigma_profile": { 
			"-0.025": 0.0,
			"-0.024": 0.0,
			"-0.023": 0.0,
			"-0.022": 0.0,
			"-0.021": 0.0,
			"-0.02": 0.0,
			"-0.019": 0.0,
			"-0.018": 0.0,
			"-0.017": 0.0,
			"-0.016": 0.0,
			"-0.015": 0.933281634559,
			"-0.014": 2.74609142752,
			"-0.013": 2.42939264247,
			"-0.012": 2.77350414576,
			"-0.011": 1.92228288124,
			"-0.01": 2.61961544349,
			"-0.009": 3.8834870089,
			"-0.008": 7.20741241875,
			"-0.007": 11.9843784756,
			"-0.006": 15.4492644084,
			"-0.005": 12.5213801026,
			"-0.004": 11.4633499973,
			"-0.003": 8.71668365917,
			"-0.002": 10.1809156629,
			"-0.001": 11.1986441574,
			"0.0": 10.4804392124,
			"0.001": 16.4053621636,
			"0.002": 13.3663688138,
			"0.003": 7.91324677709,
			"0.004": 6.76380025084,
			"0.005": 7.72861733129,
			"0.006": 7.45664447024,
			"0.007": 10.6663607432,
			"0.008": 9.77152080564,
			"0.009": 7.17875639935,
			"0.01": 8.36957070981,
			"0.011": 8.9435712958,
			"0.012": 1.87712230385,
			"0.013": 0.0,
			"0.014": 0.0,
			"0.015": 0.0,
			"0.016": 0.0,
			"0.017": 0.0,
			"0.018": 0.0,
			"0.019": 0.0,
			"0.02": 0.0,
			"0.021": 0.0,
			"0.022": 0.0,
			"0.023": 0.0,
			"0.024": 0.0,
			"0.025": 0.0
		}
	}
}
