{
	 "smiles": "CC1CCN(CC1)C(=O)C1=C(Cl)N=CC=C1", 
	 "Tm": 370.15, 
	 "num_atms": 31, 
	 "gaussian": { 
		 "optdone": 1, 
		 "sigma_profile": "yes", 
		 "theory": "DFT", 
		 "functional": "B3LYP", 
		 "basiset": "6-31G**", 
		 "properties": { 
			 "R2extent": 5251.2909, 
			 "electric_dipole_moment_norm": 4.14694240857, 
			 "electric_quadrupole_moment_norm": 22.735120151, 
			 "total_energy": -1111.24896279, 
			 "HOMO_LUMO_gap": 0.19664, 
			 "cosmo_polarized_energy": -13.08, 
			 "cosmo_cavitation_energy": 34.37, 
			 "cosmo_dispersion_energy": -24.2, 
			 "cosmo_repulsion_energy": 1.89, 
			 "cosmo_total_nonelectrostatic_energy": 12.06, 
			 "SMD_solvation_energy": 3.91 
		},
		"coords": [
			{
				"x": 1.8223329888,
				"y": 3.4949309653,
				"z": 0.8426608974,
				"element": "C" 
			},
			{
				"x": 0.6305707973,
				"y": 2.5329877485,
				"z": 0.8231479267,
				"element": "C" 
			},
			{
				"x": 0.2828823246,
				"y": 1.9924410793,
				"z": 2.2188134912,
				"element": "C" 
			},
			{
				"x": -1.0414715727,
				"y": 1.2170110228,
				"z": 2.1896042749,
				"element": "C" 
			},
			{
				"x": -1.1364539753,
				"y": 0.3853353206,
				"z": 0.9776389093,
				"element": "N" 
			},
			{
				"x": 0.1176029026,
				"y": 0.0716655774,
				"z": 0.2938878194,
				"element": "C" 
			},
			{
				"x": 0.8651575032,
				"y": 1.3475610233,
				"z": -0.1478485695,
				"element": "C" 
			},
			{
				"x": -2.3592146516,
				"y": -0.1403598516,
				"z": 0.6877932096,
				"element": "C" 
			},
			{
				"x": -3.3403806056,
				"y": 0.0381667537,
				"z": 1.4066011846,
				"element": "O" 
			},
			{
				"x": -2.5081947374,
				"y": -1.0128067378,
				"z": -0.5415519072,
				"element": "C" 
			},
			{
				"x": -2.5615799168,
				"y": -0.5439336732,
				"z": -1.8641092105,
				"element": "C" 
			},
			{
				"x": -2.3264461614,
				"y": 1.1772220553,
				"z": -2.1856892296,
				"element": "Cl" 
			},
			{
				"x": -2.7988423455,
				"y": -1.29316382,
				"z": -2.9247827383,
				"element": "N" 
			},
			{
				"x": -3.0134622264,
				"y": -2.6010454576,
				"z": -2.7305814252,
				"element": "C" 
			},
			{
				"x": -3.0138134896,
				"y": -3.1893903233,
				"z": -1.4679784847,
				"element": "C" 
			},
			{
				"x": -2.7681143885,
				"y": -2.3759534892,
				"z": -0.3641734414,
				"element": "C" 
			},
			{
				"x": 2.7172353696,
				"y": 3.0033391594,
				"z": 1.2432950736,
				"element": "H" 
			},
			{
				"x": 2.0623069764,
				"y": 3.8481879932,
				"z": -0.1661770685,
				"element": "H" 
			},
			{
				"x": 1.6163323064,
				"y": 4.3732228153,
				"z": 1.4639640831,
				"element": "H" 
			},
			{
				"x": -0.2487468433,
				"y": 3.0874164533,
				"z": 0.4667217785,
				"element": "H" 
			},
			{
				"x": 1.1010836875,
				"y": 1.3554328378,
				"z": 2.5814010962,
				"element": "H" 
			},
			{
				"x": 0.1882946374,
				"y": 2.8108178911,
				"z": 2.9412605728,
				"element": "H" 
			},
			{
				"x": -1.1588890055,
				"y": 0.5905641925,
				"z": 3.0840606237,
				"element": "H" 
			},
			{
				"x": -1.8914654493,
				"y": 1.905333936,
				"z": 2.1795289544,
				"element": "H" 
			},
			{
				"x": -0.0940309447,
				"y": -0.5730229315,
				"z": -0.5592719789,
				"element": "H" 
			},
			{
				"x": 0.7497495016,
				"y": -0.5117675569,
				"z": 0.978493431,
				"element": "H" 
			},
			{
				"x": 1.9358173371,
				"y": 1.1111537262,
				"z": -0.1972671697,
				"element": "H" 
			},
			{
				"x": 0.5550363643,
				"y": 1.6331025056,
				"z": -1.1572382953,
				"element": "H" 
			},
			{
				"x": -3.1988100299,
				"y": -3.1905355013,
				"z": -3.6255713732,
				"element": "H" 
			},
			{
				"x": -3.2092160725,
				"y": -4.2501553329,
				"z": -1.3523655995,
				"element": "H" 
			},
			{
				"x": -2.7820702808,
				"y": -2.7827583813,
				"z": 0.6424331652,
				"element": "H" 
			}
		],
		 "valence_orbital": [ 
			{
				"type": "occ",
				"energy": -0.30383,
				"method": "rhf"
			},
			{
				"type": "occ",
				"energy": -0.2821,
				"method": "rhf"
			},
			{
				"type": "occ",
				"energy": -0.26666,
				"method": "rhf"
			},
			{
				"type": "occ",
				"energy": -0.24483,
				"method": "rhf"
			},
			{
				"type": "occ",
				"energy": -0.23779,
				"method": "rhf"
			},
			{
				"type": "unocc",
				"energy": -0.04115,
				"method": "rhf"
			},
			{
				"type": "unocc",
				"energy": -0.03079,
				"method": "rhf"
			},
			{
				"type": "unocc",
				"energy": 0.01995,
				"method": "rhf"
			},
			{
				"type": "unocc",
				"energy": 0.03555,
				"method": "rhf"
			},
			{
				"type": "unocc",
				"energy": 0.07517,
				"method": "rhf"
			}
		],
		"cosmo_sigma_profile": { 
			"-0.025": 0.0,
			"-0.024": 0.0,
			"-0.023": 0.0,
			"-0.022": 0.0,
			"-0.021": 0.0,
			"-0.02": 0.0,
			"-0.019": 0.0,
			"-0.018": 0.0,
			"-0.017": 0.0,
			"-0.016": 0.0,
			"-0.015": 0.0,
			"-0.014": 0.0,
			"-0.013": 0.0,
			"-0.012": 0.0,
			"-0.011": 0.0,
			"-0.01": 0.0,
			"-0.009": 0.293052837624,
			"-0.008": 4.4644757495,
			"-0.007": 7.78092943637,
			"-0.006": 7.1102613573,
			"-0.005": 9.47233293236,
			"-0.004": 18.1381642566,
			"-0.003": 32.0305979619,
			"-0.002": 37.0827829238,
			"-0.001": 33.4429805022,
			"0.0": 30.634564847,
			"0.001": 24.8080244487,
			"0.002": 11.4366984241,
			"0.003": 10.7214645874,
			"0.004": 8.79905145122,
			"0.005": 5.17195235584,
			"0.006": 4.37948939448,
			"0.007": 3.21783545858,
			"0.008": 2.55630811484,
			"0.009": 2.73149926671,
			"0.01": 2.73744676704,
			"0.011": 2.04711553404,
			"0.012": 3.57724680058,
			"0.013": 4.85785335886,
			"0.014": 4.59137988558,
			"0.015": 0.375830880365,
			"0.016": 0.0,
			"0.017": 0.0,
			"0.018": 0.0,
			"0.019": 0.0,
			"0.02": 0.0,
			"0.021": 0.0,
			"0.022": 0.0,
			"0.023": 0.0,
			"0.024": 0.0,
			"0.025": 0.0
		}
	}
}
