{
	 "smiles": "CC1=C(C2CCNCC2)C2=C(N1)C=CC=C2", 
	 "Tm": 496.15, 
	 "num_atms": 34, 
	 "gaussian": { 
		 "optdone": 1, 
		 "sigma_profile": "yes", 
		 "theory": "DFT", 
		 "functional": "B3LYP", 
		 "basiset": "6-31G**", 
		 "properties": { 
			 "R2extent": 4117.8448, 
			 "electric_dipole_moment_norm": 3.35407476512, 
			 "electric_quadrupole_moment_norm": 7.10310711872, 
			 "total_energy": -653.848617268, 
			 "HOMO_LUMO_gap": 0.18873, 
			 "cosmo_polarized_energy": -11.6, 
			 "cosmo_cavitation_energy": 34.15, 
			 "cosmo_dispersion_energy": -24.7, 
			 "cosmo_repulsion_energy": 1.93, 
			 "cosmo_total_nonelectrostatic_energy": 11.38, 
			 "SMD_solvation_energy": 2.24 
		},
		"coords": [
			{
				"x": -0.4137671457,
				"y": -1.7594214762,
				"z": -2.1810821907,
				"element": "C" 
			},
			{
				"x": -0.6956969823,
				"y": -1.3922816278,
				"z": -0.758726127,
				"element": "C" 
			},
			{
				"x": -0.1765615414,
				"y": -0.3995810073,
				"z": 0.0471072097,
				"element": "C" 
			},
			{
				"x": 0.8700972604,
				"y": 0.6126388841,
				"z": -0.3425361724,
				"element": "C" 
			},
			{
				"x": 0.3396256074,
				"y": 2.0749255933,
				"z": -0.3007981534,
				"element": "C" 
			},
			{
				"x": 1.5010436257,
				"y": 3.1001051191,
				"z": -0.2160589729,
				"element": "C" 
			},
			{
				"x": 2.7544022503,
				"y": 2.6271358929,
				"z": -0.8078238186,
				"element": "N" 
			},
			{
				"x": 3.2682095787,
				"y": 1.4350478604,
				"z": -0.1106023595,
				"element": "C" 
			},
			{
				"x": 2.1699300806,
				"y": 0.5134505387,
				"z": 0.485674905,
				"element": "C" 
			},
			{
				"x": -0.8331051001,
				"y": -0.5267542539,
				"z": 1.3332726171,
				"element": "C" 
			},
			{
				"x": -1.7399970767,
				"y": -1.6186095518,
				"z": 1.2377889527,
				"element": "C" 
			},
			{
				"x": -1.634218419,
				"y": -2.1219624818,
				"z": -0.0405695356,
				"element": "N" 
			},
			{
				"x": -2.546667465,
				"y": -2.0272332402,
				"z": 2.3037094185,
				"element": "C" 
			},
			{
				"x": -2.442665583,
				"y": -1.3219357254,
				"z": 3.497893184,
				"element": "C" 
			},
			{
				"x": -1.5540941152,
				"y": -0.2362545925,
				"z": 3.6219261481,
				"element": "C" 
			},
			{
				"x": -0.7539762047,
				"y": 0.1639523623,
				"z": 2.5574851266,
				"element": "C" 
			},
			{
				"x": -0.0400724632,
				"y": -2.7879318405,
				"z": -2.2661188432,
				"element": "H" 
			},
			{
				"x": 0.3390878099,
				"y": -1.0990331914,
				"z": -2.6145351232,
				"element": "H" 
			},
			{
				"x": -1.3153811609,
				"y": -1.6869609594,
				"z": -2.802750445,
				"element": "H" 
			},
			{
				"x": 1.1547998215,
				"y": 0.4039065978,
				"z": -1.3827863318,
				"element": "H" 
			},
			{
				"x": -0.3342980031,
				"y": 2.2055936521,
				"z": 0.5531937942,
				"element": "H" 
			},
			{
				"x": -0.2671803559,
				"y": 2.254468192,
				"z": -1.1969116831,
				"element": "H" 
			},
			{
				"x": 1.2166064439,
				"y": 4.0439217151,
				"z": -0.6944040902,
				"element": "H" 
			},
			{
				"x": 1.7121947647,
				"y": 3.3415900818,
				"z": 0.8335854057,
				"element": "H" 
			},
			{
				"x": 2.5892689416,
				"y": 2.399424652,
				"z": -1.7849409709,
				"element": "H" 
			},
			{
				"x": 3.8835670308,
				"y": 0.8748591988,
				"z": -0.8238275275,
				"element": "H" 
			},
			{
				"x": 3.9436889027,
				"y": 1.7611488641,
				"z": 0.6921451748,
				"element": "H" 
			},
			{
				"x": 1.9619246158,
				"y": 0.7973013796,
				"z": 1.5237276511,
				"element": "H" 
			},
			{
				"x": 2.5212969564,
				"y": -0.5236002898,
				"z": 0.5189895184,
				"element": "H" 
			},
			{
				"x": -2.1562313054,
				"y": -2.9023695412,
				"z": -0.4046210292,
				"element": "H" 
			},
			{
				"x": -3.2306507792,
				"y": -2.8657718239,
				"z": 2.2033291974,
				"element": "H" 
			},
			{
				"x": -3.0552878712,
				"y": -1.6131378543,
				"z": 4.3461593299,
				"element": "H" 
			},
			{
				"x": -1.4937602516,
				"y": 0.2961600262,
				"z": 4.5667766468,
				"element": "H" 
			},
			{
				"x": -0.0762318667,
				"y": 1.0032088468,
				"z": 2.6780290941,
				"element": "H" 
			}
		],
		 "valence_orbital": [ 
			{
				"type": "occ",
				"energy": -0.29801,
				"method": "rhf"
			},
			{
				"type": "occ",
				"energy": -0.25984,
				"method": "rhf"
			},
			{
				"type": "occ",
				"energy": -0.21071,
				"method": "rhf"
			},
			{
				"type": "occ",
				"energy": -0.20794,
				"method": "rhf"
			},
			{
				"type": "occ",
				"energy": -0.19098,
				"method": "rhf"
			},
			{
				"type": "unocc",
				"energy": -0.00225,
				"method": "rhf"
			},
			{
				"type": "unocc",
				"energy": 0.0334,
				"method": "rhf"
			},
			{
				"type": "unocc",
				"energy": 0.06918,
				"method": "rhf"
			},
			{
				"type": "unocc",
				"energy": 0.07305,
				"method": "rhf"
			},
			{
				"type": "unocc",
				"energy": 0.08061,
				"method": "rhf"
			}
		],
		"cosmo_sigma_profile": { 
			"-0.025": 0.0,
			"-0.024": 0.0,
			"-0.023": 0.0,
			"-0.022": 0.0,
			"-0.021": 0.0,
			"-0.02": 0.0,
			"-0.019": 0.0,
			"-0.018": 0.0,
			"-0.017": 0.0,
			"-0.016": 0.0,
			"-0.015": 0.581085146779,
			"-0.014": 1.51682347877,
			"-0.013": 1.02072313686,
			"-0.012": 0.90202608105,
			"-0.011": 1.14218821603,
			"-0.01": 1.35745845829,
			"-0.009": 2.86239902441,
			"-0.008": 2.1253894524,
			"-0.007": 2.98257627052,
			"-0.006": 4.75233389532,
			"-0.005": 11.1220728833,
			"-0.004": 19.8245625165,
			"-0.003": 23.0553391679,
			"-0.002": 34.7705721173,
			"-0.001": 33.1289049964,
			"0.0": 24.8954044638,
			"0.001": 19.2177147075,
			"0.002": 11.832390084,
			"0.003": 9.74684106492,
			"0.004": 10.3835063128,
			"0.005": 12.8192115415,
			"0.006": 13.9487270259,
			"0.007": 10.6781130197,
			"0.008": 5.72185934474,
			"0.009": 0.839896076248,
			"0.01": 0.648691277565,
			"0.011": 0.922858909269,
			"0.012": 0.379298282007,
			"0.013": 1.04146264181,
			"0.014": 0.710234233115,
			"0.015": 0.430310893347,
			"0.016": 0.256770873386,
			"0.017": 0.963951927084,
			"0.018": 0.553607923213,
			"0.019": 0.347306432318,
			"0.02": 0.0,
			"0.021": 0.0,
			"0.022": 0.0,
			"0.023": 0.0,
			"0.024": 0.0,
			"0.025": 0.0
		}
	}
}
