{
	 "smiles": "CC1=C(C=C(O1)S(=O)(=O)N1CCOCC1)C(O)=O", 
	 "Tm": 458.15, 
	 "num_atms": 31, 
	 "gaussian": { 
		 "optdone": 1, 
		 "sigma_profile": "yes", 
		 "theory": "DFT", 
		 "functional": "B3LYP", 
		 "basiset": "6-31G**", 
		 "properties": { 
			 "R2extent": 6224.2202, 
			 "electric_dipole_moment_norm": 5.19062691204, 
			 "electric_quadrupole_moment_norm": 18.8667501801, 
			 "total_energy": -1293.06292604, 
			 "HOMO_LUMO_gap": 0.19953, 
			 "cosmo_polarized_energy": -24.91, 
			 "cosmo_cavitation_energy": 36.06, 
			 "cosmo_dispersion_energy": -25.67, 
			 "cosmo_repulsion_energy": 1.97, 
			 "cosmo_total_nonelectrostatic_energy": 12.37, 
			 "SMD_solvation_energy": 5.99 
		},
		"coords": [
			{
				"x": -0.8574271222,
				"y": 2.2924003318,
				"z": -1.322654111,
				"element": "C" 
			},
			{
				"x": -0.3252183416,
				"y": 1.9151064612,
				"z": 0.0174132884,
				"element": "C" 
			},
			{
				"x": 0.3830565036,
				"y": 2.5742931955,
				"z": 0.9989169736,
				"element": "C" 
			},
			{
				"x": 0.6483617459,
				"y": 1.6130717564,
				"z": 2.0324090456,
				"element": "C" 
			},
			{
				"x": 0.0618790067,
				"y": 0.4591642471,
				"z": 1.6219992437,
				"element": "C" 
			},
			{
				"x": -0.5252508733,
				"y": 0.6225338019,
				"z": 0.3926696098,
				"element": "O" 
			},
			{
				"x": -0.0381215299,
				"y": -1.1471370677,
				"z": 2.3776824496,
				"element": "S" 
			},
			{
				"x": -1.4138622933,
				"y": -1.6155057193,
				"z": 2.2362999872,
				"element": "O" 
			},
			{
				"x": 0.6255883507,
				"y": -0.9780381104,
				"z": 3.6676055486,
				"element": "O" 
			},
			{
				"x": 0.908142194,
				"y": -2.156930506,
				"z": 1.4609517999,
				"element": "N" 
			},
			{
				"x": 2.3804162764,
				"y": -2.0482884071,
				"z": 1.5542264876,
				"element": "C" 
			},
			{
				"x": 2.9863583451,
				"y": -2.1192248473,
				"z": 0.1546855333,
				"element": "C" 
			},
			{
				"x": 2.635066229,
				"y": -3.307889626,
				"z": -0.5433889902,
				"element": "O" 
			},
			{
				"x": 1.3254202596,
				"y": -3.8038772682,
				"z": -0.2679687195,
				"element": "C" 
			},
			{
				"x": 0.3633798516,
				"y": -2.7228228402,
				"z": 0.2132521732,
				"element": "C" 
			},
			{
				"x": 0.8963698507,
				"y": 3.9663091632,
				"z": 1.02936421,
				"element": "C" 
			},
			{
				"x": 0.2140684431,
				"y": 4.8895706216,
				"z": 0.2927568108,
				"element": "O" 
			},
			{
				"x": 1.8726198182,
				"y": 4.2908259348,
				"z": 1.659829991,
				"element": "O" 
			},
			{
				"x": -0.6081916306,
				"y": 1.5218880559,
				"z": -2.058359754,
				"element": "H" 
			},
			{
				"x": -0.4214527624,
				"y": 3.2353645998,
				"z": -1.6586285532,
				"element": "H" 
			},
			{
				"x": -1.9497984359,
				"y": 2.3894420411,
				"z": -1.310541552,
				"element": "H" 
			},
			{
				"x": 1.1839048418,
				"y": 1.7833361092,
				"z": 2.9533764879,
				"element": "H" 
			},
			{
				"x": 2.6606770423,
				"y": -1.1046978274,
				"z": 2.0310651741,
				"element": "H" 
			},
			{
				"x": 2.7655402204,
				"y": -2.8603563326,
				"z": 2.1808086224,
				"element": "H" 
			},
			{
				"x": 2.6808376645,
				"y": -1.2306380204,
				"z": -0.4201987459,
				"element": "H" 
			},
			{
				"x": 4.0784489858,
				"y": -2.1076436861,
				"z": 0.2254647621,
				"element": "H" 
			},
			{
				"x": 1.3781747896,
				"y": -4.5997720877,
				"z": 0.489262838,
				"element": "H" 
			},
			{
				"x": 0.9456129142,
				"y": -4.2443798727,
				"z": -1.1958449722,
				"element": "H" 
			},
			{
				"x": 0.2394013529,
				"y": -1.9550704036,
				"z": -0.5635728355,
				"element": "H" 
			},
			{
				"x": -0.6159102928,
				"y": -3.156282778,
				"z": 0.423406156,
				"element": "H" 
			},
			{
				"x": -0.6528914038,
				"y": 4.5417490813,
				"z": 0.042711041,
				"element": "H" 
			}
		],
		 "valence_orbital": [ 
			{
				"type": "occ",
				"energy": -0.31179,
				"method": "rhf"
			},
			{
				"type": "occ",
				"energy": -0.28729,
				"method": "rhf"
			},
			{
				"type": "occ",
				"energy": -0.28155,
				"method": "rhf"
			},
			{
				"type": "occ",
				"energy": -0.26592,
				"method": "rhf"
			},
			{
				"type": "occ",
				"energy": -0.25256,
				"method": "rhf"
			},
			{
				"type": "unocc",
				"energy": -0.05303,
				"method": "rhf"
			},
			{
				"type": "unocc",
				"energy": -0.02558,
				"method": "rhf"
			},
			{
				"type": "unocc",
				"energy": 0.04196,
				"method": "rhf"
			},
			{
				"type": "unocc",
				"energy": 0.0592,
				"method": "rhf"
			},
			{
				"type": "unocc",
				"energy": 0.05984,
				"method": "rhf"
			}
		],
		"cosmo_sigma_profile": { 
			"-0.025": 0.0,
			"-0.024": 0.0,
			"-0.023": 0.0,
			"-0.022": 0.0,
			"-0.021": 0.0,
			"-0.02": 0.0,
			"-0.019": 0.207755213405,
			"-0.018": 0.693651822828,
			"-0.017": 1.06818784813,
			"-0.016": 0.842853099046,
			"-0.015": 0.530214105891,
			"-0.014": 1.04841051868,
			"-0.013": 1.416336463,
			"-0.012": 1.36898635778,
			"-0.011": 0.910575196346,
			"-0.01": 0.61757599199,
			"-0.009": 1.6511286289,
			"-0.008": 2.94860353629,
			"-0.007": 9.49393382673,
			"-0.006": 21.8695684532,
			"-0.005": 32.3455035872,
			"-0.004": 27.7671159049,
			"-0.003": 26.4095874376,
			"-0.002": 17.6455580456,
			"-0.001": 13.625317732,
			"0.0": 12.2552906356,
			"0.001": 10.3182370768,
			"0.002": 8.47624306951,
			"0.003": 7.50338427772,
			"0.004": 9.0343787424,
			"0.005": 7.88011623803,
			"0.006": 7.022084546,
			"0.007": 7.19116978994,
			"0.008": 6.66086065152,
			"0.009": 9.85275915574,
			"0.01": 16.1816620613,
			"0.011": 13.0952503009,
			"0.012": 5.34921216728,
			"0.013": 2.16056389404,
			"0.014": 0.0858537387306,
			"0.015": 0.0,
			"0.016": 0.0,
			"0.017": 0.0,
			"0.018": 0.0,
			"0.019": 0.0,
			"0.02": 0.0,
			"0.021": 0.0,
			"0.022": 0.0,
			"0.023": 0.0,
			"0.024": 0.0,
			"0.025": 0.0
		}
	}
}
