{
	 "smiles": "OC1=CC=CC2=C1C(=O)C1=C(C(O)=CC=C1)C2=O", 
	 "Tm": 553.15, 
	 "num_atms": 26, 
	 "gaussian": { 
		 "optdone": 1, 
		 "sigma_profile": "yes", 
		 "theory": "DFT", 
		 "functional": "B3LYP", 
		 "basiset": "6-31G**", 
		 "properties": { 
			 "R2extent": 4523.6567, 
			 "electric_dipole_moment_norm": 0.000768114574787, 
			 "electric_quadrupole_moment_norm": 21.9964222282, 
			 "total_energy": -839.245398881, 
			 "HOMO_LUMO_gap": 0.12306, 
			 "cosmo_polarized_energy": -8.75, 
			 "cosmo_cavitation_energy": 29.77, 
			 "cosmo_dispersion_energy": -23.01, 
			 "cosmo_repulsion_energy": 1.68, 
			 "cosmo_total_nonelectrostatic_energy": 8.44, 
			 "SMD_solvation_energy": 6.01 
		},
		"coords": [
			{
				"x": 3.8493569876,
				"y": -2.4827611539,
				"z": 0.9492505544,
				"element": "O" 
			},
			{
				"x": 2.6175917394,
				"y": -2.6722997819,
				"z": 0.4693836666,
				"element": "C" 
			},
			{
				"x": 2.2097626616,
				"y": -3.9889315561,
				"z": 0.1762718789,
				"element": "C" 
			},
			{
				"x": 0.9396365107,
				"y": -4.231191961,
				"z": -0.3233906403,
				"element": "C" 
			},
			{
				"x": 0.0387313983,
				"y": -3.1796620137,
				"z": -0.5467751696,
				"element": "C" 
			},
			{
				"x": 0.424617362,
				"y": -1.8744130171,
				"z": -0.2630938347,
				"element": "C" 
			},
			{
				"x": 1.7176128095,
				"y": -1.5981270593,
				"z": 0.2487297582,
				"element": "C" 
			},
			{
				"x": 2.1381132193,
				"y": -0.2288558631,
				"z": 0.5521901102,
				"element": "C" 
			},
			{
				"x": 3.2756883043,
				"y": 0.0126098059,
				"z": 1.0019149096,
				"element": "O" 
			},
			{
				"x": 1.1772070073,
				"y": 0.8780871394,
				"z": 0.3122082021,
				"element": "C" 
			},
			{
				"x": -0.1158008787,
				"y": 0.6017976243,
				"z": -0.1995820925,
				"element": "C" 
			},
			{
				"x": -1.0157464395,
				"y": 1.6759797717,
				"z": -0.4203247105,
				"element": "C" 
			},
			{
				"x": -2.2475552282,
				"y": 1.4864277109,
				"z": -0.9000736299,
				"element": "O" 
			},
			{
				"x": -0.6078541775,
				"y": 2.9926298794,
				"z": -0.127383319,
				"element": "C" 
			},
			{
				"x": 0.662291839,
				"y": 3.234895906,
				"z": 0.3722269131,
				"element": "C" 
			},
			{
				"x": 1.5631523631,
				"y": 2.1833531381,
				"z": 0.595731184,
				"element": "C" 
			},
			{
				"x": -0.536333516,
				"y": -0.767482651,
				"z": -0.5029551174,
				"element": "C" 
			},
			{
				"x": -1.6737665202,
				"y": -1.0089073334,
				"z": -0.9530598826,
				"element": "O" 
			},
			{
				"x": 3.946444074,
				"y": -1.5029346287,
				"z": 1.0907015653,
				"element": "H" 
			},
			{
				"x": 2.9161826137,
				"y": -4.7928945575,
				"z": 0.3537086512,
				"element": "H" 
			},
			{
				"x": 0.6390413531,
				"y": -5.2511129636,
				"z": -0.5446966431,
				"element": "H" 
			},
			{
				"x": -0.9563183788,
				"y": -3.3584965918,
				"z": -0.9370543585,
				"element": "H" 
			},
			{
				"x": -2.3447500892,
				"y": 0.5065693438,
				"z": -1.0412349732,
				"element": "H" 
			},
			{
				"x": -1.3142499699,
				"y": 3.7966002194,
				"z": -0.3048858531,
				"element": "H" 
			},
			{
				"x": 0.9629326046,
				"y": 4.2548296163,
				"z": 0.5934105126,
				"element": "H" 
			},
			{
				"x": 2.5582123507,
				"y": 2.362190977,
				"z": 0.9859823178,
				"element": "H" 
			}
		],
		 "valence_orbital": [ 
			{
				"type": "occ",
				"energy": -0.28715,
				"method": "rhf"
			},
			{
				"type": "occ",
				"energy": -0.27414,
				"method": "rhf"
			},
			{
				"type": "occ",
				"energy": -0.27041,
				"method": "rhf"
			},
			{
				"type": "occ",
				"energy": -0.24457,
				"method": "rhf"
			},
			{
				"type": "occ",
				"energy": -0.23871,
				"method": "rhf"
			},
			{
				"type": "unocc",
				"energy": -0.11565,
				"method": "rhf"
			},
			{
				"type": "unocc",
				"energy": -0.05558,
				"method": "rhf"
			},
			{
				"type": "unocc",
				"energy": -0.02987,
				"method": "rhf"
			},
			{
				"type": "unocc",
				"energy": -0.00259,
				"method": "rhf"
			},
			{
				"type": "unocc",
				"energy": 0.04891,
				"method": "rhf"
			}
		],
		"cosmo_sigma_profile": { 
			"-0.025": 0.0,
			"-0.024": 0.0,
			"-0.023": 0.0,
			"-0.022": 0.0,
			"-0.021": 0.0,
			"-0.02": 0.0,
			"-0.019": 0.0,
			"-0.018": 0.0,
			"-0.017": 0.0,
			"-0.016": 0.0,
			"-0.015": 0.0,
			"-0.014": 0.0,
			"-0.013": 0.0,
			"-0.012": 0.0,
			"-0.011": 0.0,
			"-0.01": 0.0,
			"-0.009": 0.0,
			"-0.008": 2.41121586613,
			"-0.007": 10.1351938045,
			"-0.006": 12.6655555137,
			"-0.005": 15.6166098765,
			"-0.004": 16.7491860846,
			"-0.003": 18.7420425137,
			"-0.002": 16.3186517519,
			"-0.001": 19.6816306835,
			"0.0": 25.0983308443,
			"0.001": 28.2608419004,
			"0.002": 22.8826359186,
			"0.003": 9.09577437424,
			"0.004": 6.14192640781,
			"0.005": 5.54663248383,
			"0.006": 5.03853026083,
			"0.007": 6.54385074164,
			"0.008": 4.35064816166,
			"0.009": 6.31711212406,
			"0.01": 7.43320150303,
			"0.011": 2.03932613497,
			"0.012": 0.0,
			"0.013": 0.0,
			"0.014": 0.0,
			"0.015": 0.0,
			"0.016": 0.0,
			"0.017": 0.0,
			"0.018": 0.0,
			"0.019": 0.0,
			"0.02": 0.0,
			"0.021": 0.0,
			"0.022": 0.0,
			"0.023": 0.0,
			"0.024": 0.0,
			"0.025": 0.0
		}
	}
}
