{
	 "smiles": "OC(C1=CN=CC=C1)C(F)(F)F", 
	 "Tm": 338.15, 
	 "num_atms": 18, 
	 "gaussian": { 
		 "optdone": 1, 
		 "sigma_profile": "yes", 
		 "theory": "DFT", 
		 "functional": "B3LYP", 
		 "basiset": "6-31G**", 
		 "properties": { 
			 "R2extent": 3123.156, 
			 "electric_dipole_moment_norm": 1.86171138741, 
			 "electric_quadrupole_moment_norm": 11.1627109588, 
			 "total_energy": -699.847368928, 
			 "HOMO_LUMO_gap": 0.22834, 
			 "cosmo_polarized_energy": -9.52, 
			 "cosmo_cavitation_energy": 23.49, 
			 "cosmo_dispersion_energy": -16.74, 
			 "cosmo_repulsion_energy": 1.28, 
			 "cosmo_total_nonelectrostatic_energy": 8.03, 
			 "SMD_solvation_energy": 3.7 
		},
		"coords": [
			{
				"x": 1.0458473594,
				"y": -0.9515818008,
				"z": 0.4443523718,
				"element": "O" 
			},
			{
				"x": 0.3431250978,
				"y": -1.8859853659,
				"z": -0.3477886237,
				"element": "C" 
			},
			{
				"x": -0.4105046926,
				"y": -1.1563976105,
				"z": -1.4348978347,
				"element": "C" 
			},
			{
				"x": -0.6687604487,
				"y": -1.7747431842,
				"z": -2.6623603135,
				"element": "C" 
			},
			{
				"x": -1.3513822335,
				"y": -1.2022868016,
				"z": -3.6589473007,
				"element": "N" 
			},
			{
				"x": -1.806398431,
				"y": 0.0399385091,
				"z": -3.453903912,
				"element": "C" 
			},
			{
				"x": -1.602709886,
				"y": 0.7501902689,
				"z": -2.2692015411,
				"element": "C" 
			},
			{
				"x": -0.8945702596,
				"y": 0.1392405156,
				"z": -1.2376859684,
				"element": "C" 
			},
			{
				"x": -0.6051650321,
				"y": -2.6972984046,
				"z": 0.5463454915,
				"element": "C" 
			},
			{
				"x": 0.1031736269,
				"y": -3.2506662533,
				"z": 1.5676021448,
				"element": "F" 
			},
			{
				"x": -1.5730228777,
				"y": -1.9454822625,
				"z": 1.0928055187,
				"element": "F" 
			},
			{
				"x": -1.1826211664,
				"y": -3.6999619709,
				"z": -0.1405385173,
				"element": "F" 
			},
			{
				"x": 1.4440114074,
				"y": -1.4303049913,
				"z": 1.1844604898,
				"element": "H" 
			},
			{
				"x": 1.0186175628,
				"y": -2.6273348251,
				"z": -0.8025221871,
				"element": "H" 
			},
			{
				"x": -0.3033936993,
				"y": -2.7839525458,
				"z": -2.8506761666,
				"element": "H" 
			},
			{
				"x": -2.3569600079,
				"y": 0.4903547399,
				"z": -4.277954025,
				"element": "H" 
			},
			{
				"x": -1.991500565,
				"y": 1.7577929613,
				"z": -2.1604601645,
				"element": "H" 
			},
			{
				"x": -0.7031857547,
				"y": 0.6493790218,
				"z": -0.3002294621,
				"element": "H" 
			}
		],
		 "valence_orbital": [ 
			{
				"type": "occ",
				"energy": -0.35623,
				"method": "rhf"
			},
			{
				"type": "occ",
				"energy": -0.30662,
				"method": "rhf"
			},
			{
				"type": "occ",
				"energy": -0.28969,
				"method": "rhf"
			},
			{
				"type": "occ",
				"energy": -0.2656,
				"method": "rhf"
			},
			{
				"type": "occ",
				"energy": -0.25891,
				"method": "rhf"
			},
			{
				"type": "unocc",
				"energy": -0.03057,
				"method": "rhf"
			},
			{
				"type": "unocc",
				"energy": -0.02114,
				"method": "rhf"
			},
			{
				"type": "unocc",
				"energy": 0.06606,
				"method": "rhf"
			},
			{
				"type": "unocc",
				"energy": 0.0968,
				"method": "rhf"
			},
			{
				"type": "unocc",
				"energy": 0.10668,
				"method": "rhf"
			}
		],
		"cosmo_sigma_profile": { 
			"-0.025": 0.0,
			"-0.024": 0.0,
			"-0.023": 0.0,
			"-0.022": 0.0,
			"-0.021": 0.0,
			"-0.02": 0.0,
			"-0.019": 0.0,
			"-0.018": 0.0,
			"-0.017": 0.0259348377651,
			"-0.016": 0.621543529223,
			"-0.015": 0.808460828028,
			"-0.014": 0.797949162302,
			"-0.013": 0.448342044032,
			"-0.012": 1.13029623688,
			"-0.011": 0.802469366392,
			"-0.01": 1.35215604322,
			"-0.009": 1.88512154828,
			"-0.008": 5.78261663287,
			"-0.007": 8.08183595062,
			"-0.006": 9.94168724996,
			"-0.005": 9.23281458823,
			"-0.004": 8.46289810397,
			"-0.003": 7.02002171823,
			"-0.002": 6.49175427413,
			"-0.001": 8.44923085783,
			"0.0": 11.6063864188,
			"0.001": 20.2234389347,
			"0.002": 37.7204536215,
			"0.003": 20.3941497776,
			"0.004": 3.60674820007,
			"0.005": 3.28962260304,
			"0.006": 2.9157228696,
			"0.007": 3.01528477256,
			"0.008": 2.43058176289,
			"0.009": 1.96971392986,
			"0.01": 1.9382560303,
			"0.011": 2.28820976627,
			"0.012": 1.20664431475,
			"0.013": 0.72188698218,
			"0.014": 1.2558301912,
			"0.015": 0.85248727865,
			"0.016": 0.621111680144,
			"0.017": 0.227904988885,
			"0.018": 0.0,
			"0.019": 0.0,
			"0.02": 0.0,
			"0.021": 0.0,
			"0.022": 0.0,
			"0.023": 0.0,
			"0.024": 0.0,
			"0.025": 0.0
		}
	}
}
