{
	 "smiles": "CC(C)(C)N1NC(=O)C=C1N", 
	 "Tm": 497.15, 
	 "num_atms": 24, 
	 "gaussian": { 
		 "optdone": 1, 
		 "sigma_profile": "yes", 
		 "theory": "DFT", 
		 "functional": "B3LYP", 
		 "basiset": "6-31G**", 
		 "properties": { 
			 "R2extent": 1964.5255, 
			 "electric_dipole_moment_norm": 6.10440041446, 
			 "electric_quadrupole_moment_norm": 22.4538201042, 
			 "total_energy": -514.039597907, 
			 "HOMO_LUMO_gap": 0.21076, 
			 "cosmo_polarized_energy": -18.58, 
			 "cosmo_cavitation_energy": 25.58, 
			 "cosmo_dispersion_energy": -18.49, 
			 "cosmo_repulsion_energy": 1.47, 
			 "cosmo_total_nonelectrostatic_energy": 8.56, 
			 "SMD_solvation_energy": 5.08 
		},
		"coords": [
			{
				"x": 0.466491683,
				"y": 0.8364429742,
				"z": -2.5689867185,
				"element": "C" 
			},
			{
				"x": 0.7496874438,
				"y": 0.2683346334,
				"z": -1.1664206409,
				"element": "C" 
			},
			{
				"x": 0.6012885641,
				"y": 1.3690327259,
				"z": -0.1037743866,
				"element": "C" 
			},
			{
				"x": 2.1767700768,
				"y": -0.3100846974,
				"z": -1.1707542593,
				"element": "C" 
			},
			{
				"x": -0.2530447319,
				"y": -0.8421442361,
				"z": -0.9274846627,
				"element": "N" 
			},
			{
				"x": -1.5926702654,
				"y": -0.427602181,
				"z": -1.2062926032,
				"element": "N" 
			},
			{
				"x": -2.4912470172,
				"y": -1.0335482886,
				"z": -0.2789180243,
				"element": "C" 
			},
			{
				"x": -3.7044290332,
				"y": -1.0231369638,
				"z": -0.430917979,
				"element": "O" 
			},
			{
				"x": -1.6390805653,
				"y": -1.6324913166,
				"z": 0.7232634396,
				"element": "C" 
			},
			{
				"x": -0.3463950458,
				"y": -1.497760385,
				"z": 0.307814054,
				"element": "C" 
			},
			{
				"x": 0.7996174501,
				"y": -1.8910629192,
				"z": 0.9771168702,
				"element": "N" 
			},
			{
				"x": 0.5056258915,
				"y": 0.0466494547,
				"z": -3.3271661477,
				"element": "H" 
			},
			{
				"x": 1.2286330038,
				"y": 1.5804237334,
				"z": -2.8175399466,
				"element": "H" 
			},
			{
				"x": -0.5079231336,
				"y": 1.3264134267,
				"z": -2.6161528804,
				"element": "H" 
			},
			{
				"x": 0.8529189437,
				"y": 0.9885361117,
				"z": 0.8902649498,
				"element": "H" 
			},
			{
				"x": -0.426269112,
				"y": 1.7421325314,
				"z": -0.0874966756,
				"element": "H" 
			},
			{
				"x": 1.2698034628,
				"y": 2.2070325588,
				"z": -0.326953205,
				"element": "H" 
			},
			{
				"x": 2.5289715317,
				"y": -0.5510797978,
				"z": -0.1667810344,
				"element": "H" 
			},
			{
				"x": 2.2338402564,
				"y": -1.2024793099,
				"z": -1.8036711855,
				"element": "H" 
			},
			{
				"x": 2.863241125,
				"y": 0.435013033,
				"z": -1.5836127343,
				"element": "H" 
			},
			{
				"x": -1.8513816447,
				"y": -0.5749051129,
				"z": -2.1761342896,
				"element": "H" 
			},
			{
				"x": -1.9896000528,
				"y": -2.1833351124,
				"z": 1.5832671979,
				"element": "H" 
			},
			{
				"x": 0.598282404,
				"y": -2.4726885453,
				"z": 1.7797834971,
				"element": "H" 
			},
			{
				"x": 1.5150687651,
				"y": -2.2999923172,
				"z": 0.3907473651,
				"element": "H" 
			}
		],
		 "valence_orbital": [ 
			{
				"type": "occ",
				"energy": -0.33881,
				"method": "rhf"
			},
			{
				"type": "occ",
				"energy": -0.30563,
				"method": "rhf"
			},
			{
				"type": "occ",
				"energy": -0.23753,
				"method": "rhf"
			},
			{
				"type": "occ",
				"energy": -0.22811,
				"method": "rhf"
			},
			{
				"type": "occ",
				"energy": -0.20629,
				"method": "rhf"
			},
			{
				"type": "unocc",
				"energy": 0.00447,
				"method": "rhf"
			},
			{
				"type": "unocc",
				"energy": 0.0618,
				"method": "rhf"
			},
			{
				"type": "unocc",
				"energy": 0.07932,
				"method": "rhf"
			},
			{
				"type": "unocc",
				"energy": 0.09287,
				"method": "rhf"
			},
			{
				"type": "unocc",
				"energy": 0.10415,
				"method": "rhf"
			}
		],
		"cosmo_sigma_profile": { 
			"-0.025": 0.0,
			"-0.024": 0.0,
			"-0.023": 0.0,
			"-0.022": 0.0,
			"-0.021": 0.0,
			"-0.02": 0.0,
			"-0.019": 0.0,
			"-0.018": 0.0,
			"-0.017": 0.0,
			"-0.016": 0.0,
			"-0.015": 0.0,
			"-0.014": 0.95513715333,
			"-0.013": 3.26966482637,
			"-0.012": 3.77737558521,
			"-0.011": 3.6266850022,
			"-0.01": 3.5317147705,
			"-0.009": 3.38351317673,
			"-0.008": 3.33170860911,
			"-0.007": 4.21871903244,
			"-0.006": 4.3425850392,
			"-0.005": 4.65390722449,
			"-0.004": 14.4470328906,
			"-0.003": 17.0716278839,
			"-0.002": 16.6448489971,
			"-0.001": 17.4384502855,
			"0.0": 22.6197275826,
			"0.001": 16.4565419312,
			"0.002": 6.71878452502,
			"0.003": 7.25380475858,
			"0.004": 7.33601991915,
			"0.005": 6.95185964069,
			"0.006": 3.28367056384,
			"0.007": 2.37218316902,
			"0.008": 4.3858409106,
			"0.009": 1.73630027571,
			"0.01": 1.30767461898,
			"0.011": 1.78547270456,
			"0.012": 1.63849233647,
			"0.013": 1.7854796462,
			"0.014": 3.40973712656,
			"0.015": 6.98065629166,
			"0.016": 2.45776022504,
			"0.017": 0.0411170673777,
			"0.018": 0.0,
			"0.019": 0.0,
			"0.02": 0.0,
			"0.021": 0.0,
			"0.022": 0.0,
			"0.023": 0.0,
			"0.024": 0.0,
			"0.025": 0.0
		}
	}
}
