{
	 "smiles": "CCC(CC)N1N=C(C)C=C1C(O)=O", 
	 "Tm": 423.15, 
	 "num_atms": 30, 
	 "gaussian": { 
		 "optdone": 1, 
		 "sigma_profile": "yes", 
		 "theory": "DFT", 
		 "functional": "B3LYP", 
		 "basiset": "6-31G**", 
		 "properties": { 
			 "R2extent": 3291.5877, 
			 "electric_dipole_moment_norm": 0.969648683803, 
			 "electric_quadrupole_moment_norm": 4.94905732741, 
			 "total_energy": -650.677368033, 
			 "HOMO_LUMO_gap": 0.20008, 
			 "cosmo_polarized_energy": -9.06, 
			 "cosmo_cavitation_energy": 32.16, 
			 "cosmo_dispersion_energy": -22.48, 
			 "cosmo_repulsion_energy": 1.82, 
			 "cosmo_total_nonelectrostatic_energy": 11.5, 
			 "SMD_solvation_energy": 6.04 
		},
		"coords": [
			{
				"x": 0.4974524714,
				"y": -3.0855050087,
				"z": 0.3550284859,
				"element": "C" 
			},
			{
				"x": 0.2768948229,
				"y": -1.819945357,
				"z": -0.4823608826,
				"element": "C" 
			},
			{
				"x": 0.5824177196,
				"y": -0.5206827601,
				"z": 0.2881969407,
				"element": "C" 
			},
			{
				"x": -0.3672299397,
				"y": -0.2203176344,
				"z": 1.460593296,
				"element": "C" 
			},
			{
				"x": 0.0287917999,
				"y": 1.0168537969,
				"z": 2.2736333256,
				"element": "C" 
			},
			{
				"x": 0.703353135,
				"y": 0.6317233998,
				"z": -0.6384270034,
				"element": "N" 
			},
			{
				"x": 1.9157526926,
				"y": 1.202724353,
				"z": -0.7266344864,
				"element": "N" 
			},
			{
				"x": 1.8099553947,
				"y": 2.2073932333,
				"z": -1.6107537496,
				"element": "C" 
			},
			{
				"x": 2.9966514002,
				"y": 3.0609825121,
				"z": -1.9463114882,
				"element": "C" 
			},
			{
				"x": 0.5003430037,
				"y": 2.2851099673,
				"z": -2.1031354304,
				"element": "C" 
			},
			{
				"x": -0.1982441973,
				"y": 1.2613551298,
				"z": -1.4657656345,
				"element": "C" 
			},
			{
				"x": -1.6114578871,
				"y": 0.9154953196,
				"z": -1.6400476078,
				"element": "C" 
			},
			{
				"x": -2.2068951347,
				"y": 1.7455875365,
				"z": -2.5341826266,
				"element": "O" 
			},
			{
				"x": -2.2327701517,
				"y": 0.0205552735,
				"z": -1.0924026298,
				"element": "O" 
			},
			{
				"x": 1.5117651922,
				"y": -3.1214982784,
				"z": 0.7695277994,
				"element": "H" 
			},
			{
				"x": -0.2078251375,
				"y": -3.1573298584,
				"z": 1.188605242,
				"element": "H" 
			},
			{
				"x": 0.3614531357,
				"y": -3.9783606061,
				"z": -0.263140023,
				"element": "H" 
			},
			{
				"x": -0.749620471,
				"y": -1.7894496199,
				"z": -0.8561747568,
				"element": "H" 
			},
			{
				"x": 0.9406936266,
				"y": -1.8489525133,
				"z": -1.3548839488,
				"element": "H" 
			},
			{
				"x": 1.6010502825,
				"y": -0.5921099694,
				"z": 0.6822506335,
				"element": "H" 
			},
			{
				"x": -0.3565169923,
				"y": -1.099007394,
				"z": 2.1154898067,
				"element": "H" 
			},
			{
				"x": -1.3882887897,
				"y": -0.1245647738,
				"z": 1.0826036963,
				"element": "H" 
			},
			{
				"x": -0.6552497188,
				"y": 1.1588050242,
				"z": 3.1163253247,
				"element": "H" 
			},
			{
				"x": 1.0431789466,
				"y": 0.9241198821,
				"z": 2.6772746275,
				"element": "H" 
			},
			{
				"x": -0.0007292292,
				"y": 1.9259718477,
				"z": 1.6650295043,
				"element": "H" 
			},
			{
				"x": 2.7254593974,
				"y": 3.8269266478,
				"z": -2.6770940189,
				"element": "H" 
			},
			{
				"x": 3.8099140009,
				"y": 2.4607007934,
				"z": -2.3670598025,
				"element": "H" 
			},
			{
				"x": 3.3882234695,
				"y": 3.5625255989,
				"z": -1.0553582686,
				"element": "H" 
			},
			{
				"x": 0.0926502164,
				"y": 2.9783512357,
				"z": -2.8228889556,
				"element": "H" 
			},
			{
				"x": -3.1297730588,
				"y": 1.4478422223,
				"z": -2.588637369,
				"element": "H" 
			}
		],
		 "valence_orbital": [ 
			{
				"type": "occ",
				"energy": -0.31905,
				"method": "rhf"
			},
			{
				"type": "occ",
				"energy": -0.28685,
				"method": "rhf"
			},
			{
				"type": "occ",
				"energy": -0.2801,
				"method": "rhf"
			},
			{
				"type": "occ",
				"energy": -0.25375,
				"method": "rhf"
			},
			{
				"type": "occ",
				"energy": -0.24228,
				"method": "rhf"
			},
			{
				"type": "unocc",
				"energy": -0.0422,
				"method": "rhf"
			},
			{
				"type": "unocc",
				"energy": 0.0471,
				"method": "rhf"
			},
			{
				"type": "unocc",
				"energy": 0.07724,
				"method": "rhf"
			},
			{
				"type": "unocc",
				"energy": 0.09477,
				"method": "rhf"
			},
			{
				"type": "unocc",
				"energy": 0.10713,
				"method": "rhf"
			}
		],
		"cosmo_sigma_profile": { 
			"-0.025": 0.0,
			"-0.024": 0.0,
			"-0.023": 0.0,
			"-0.022": 0.0,
			"-0.021": 0.0,
			"-0.02": 0.0,
			"-0.019": 0.196289939188,
			"-0.018": 0.744738686996,
			"-0.017": 1.04944602272,
			"-0.016": 1.04297370666,
			"-0.015": 0.187888242984,
			"-0.014": 0.584840219979,
			"-0.013": 0.562126652334,
			"-0.012": 1.09999416842,
			"-0.011": 0.393205099298,
			"-0.01": 0.709830379775,
			"-0.009": 0.779385207519,
			"-0.008": 0.712829275902,
			"-0.007": 1.81310798178,
			"-0.006": 2.31017461977,
			"-0.005": 4.97712412185,
			"-0.004": 13.1980674626,
			"-0.003": 24.6902572408,
			"-0.002": 30.7319352774,
			"-0.001": 35.344022494,
			"0.0": 37.2781751086,
			"0.001": 28.1800836345,
			"0.002": 14.2084849982,
			"0.003": 11.3566554891,
			"0.004": 8.48052229025,
			"0.005": 6.02485731469,
			"0.006": 4.22396546437,
			"0.007": 4.6930544687,
			"0.008": 4.25643505357,
			"0.009": 2.65409529049,
			"0.01": 1.92144617827,
			"0.011": 3.07199279466,
			"0.012": 2.51334616326,
			"0.013": 0.463462117922,
			"0.014": 0.998425852114,
			"0.015": 0.411364130273,
			"0.016": 0.0,
			"0.017": 0.0,
			"0.018": 0.0,
			"0.019": 0.0,
			"0.02": 0.0,
			"0.021": 0.0,
			"0.022": 0.0,
			"0.023": 0.0,
			"0.024": 0.0,
			"0.025": 0.0
		}
	}
}
