{
	 "smiles": "ClC1=NC=CC(OCC2=CC=CC=C2)=C1", 
	 "Tm": 367.15, 
	 "num_atms": 25, 
	 "gaussian": { 
		 "optdone": 1, 
		 "sigma_profile": "yes", 
		 "theory": "DFT", 
		 "functional": "B3LYP", 
		 "basiset": "6-31G**", 
		 "properties": { 
			 "R2extent": 4264.4921, 
			 "electric_dipole_moment_norm": 4.19611355781, 
			 "electric_quadrupole_moment_norm": 15.7761168961, 
			 "total_energy": -1053.46098469, 
			 "HOMO_LUMO_gap": 0.22984, 
			 "cosmo_polarized_energy": -9.87, 
			 "cosmo_cavitation_energy": 31.23, 
			 "cosmo_dispersion_energy": -22.33, 
			 "cosmo_repulsion_energy": 1.77, 
			 "cosmo_total_nonelectrostatic_energy": 10.67, 
			 "SMD_solvation_energy": 3.83 
		},
		"coords": [
			{
				"x": 0.5069857329,
				"y": -3.8381564552,
				"z": 0.4918908006,
				"element": "Cl" 
			},
			{
				"x": 0.6704754522,
				"y": -2.1773791313,
				"z": 1.0726248667,
				"element": "C" 
			},
			{
				"x": 1.6183325354,
				"y": -1.9560256613,
				"z": 1.9602145427,
				"element": "N" 
			},
			{
				"x": 1.7386099886,
				"y": -0.687063326,
				"z": 2.3932212769,
				"element": "C" 
			},
			{
				"x": 0.9353432336,
				"y": 0.3576912351,
				"z": 1.9666565163,
				"element": "C" 
			},
			{
				"x": -0.0694614168,
				"y": 0.084872839,
				"z": 1.0230249007,
				"element": "C" 
			},
			{
				"x": -0.8404549561,
				"y": 1.1356982113,
				"z": 0.6498020961,
				"element": "O" 
			},
			{
				"x": -1.9526083665,
				"y": 0.9202742771,
				"z": -0.2299147755,
				"element": "C" 
			},
			{
				"x": -1.5638222107,
				"y": 0.745774491,
				"z": -1.6836710867,
				"element": "C" 
			},
			{
				"x": -2.3120662361,
				"y": -0.0979438241,
				"z": -2.5123812236,
				"element": "C" 
			},
			{
				"x": -1.9989589732,
				"y": -0.2204257676,
				"z": -3.8673931254,
				"element": "C" 
			},
			{
				"x": -0.9270277382,
				"y": 0.4942935421,
				"z": -4.4034611571,
				"element": "C" 
			},
			{
				"x": -0.1730186889,
				"y": 1.3337184651,
				"z": -3.5798813507,
				"element": "C" 
			},
			{
				"x": -0.4917508946,
				"y": 1.4629864449,
				"z": -2.2283708184,
				"element": "C" 
			},
			{
				"x": -0.2088829513,
				"y": -1.2239761975,
				"z": 0.5511435956,
				"element": "C" 
			},
			{
				"x": 2.5236316936,
				"y": -0.5101521216,
				"z": 3.1248541609,
				"element": "H" 
			},
			{
				"x": 1.0600471451,
				"y": 1.3656881077,
				"z": 2.344999222,
				"element": "H" 
			},
			{
				"x": -2.5571281609,
				"y": 1.8239364819,
				"z": -0.1019118658,
				"element": "H" 
			},
			{
				"x": -2.5514313463,
				"y": 0.0703083687,
				"z": 0.1201270928,
				"element": "H" 
			},
			{
				"x": -3.1434547853,
				"y": -0.6637488887,
				"z": -2.0974882735,
				"element": "H" 
			},
			{
				"x": -2.5857327773,
				"y": -0.8806441466,
				"z": -4.4994048148,
				"element": "H" 
			},
			{
				"x": -0.6771577867,
				"y": 0.3947242563,
				"z": -5.4556547893,
				"element": "H" 
			},
			{
				"x": 0.6647484302,
				"y": 1.8894644726,
				"z": -3.9911781714,
				"element": "H" 
			},
			{
				"x": 0.0955289174,
				"y": 2.1130034869,
				"z": -1.5869119416,
				"element": "H" 
			},
			{
				"x": -0.93604584,
				"y": -1.5028191596,
				"z": -0.1976356776,
				"element": "H" 
			}
		],
		 "valence_orbital": [ 
			{
				"type": "occ",
				"energy": -0.27127,
				"method": "rhf"
			},
			{
				"type": "occ",
				"energy": -0.26218,
				"method": "rhf"
			},
			{
				"type": "occ",
				"energy": -0.26113,
				"method": "rhf"
			},
			{
				"type": "occ",
				"energy": -0.25621,
				"method": "rhf"
			},
			{
				"type": "occ",
				"energy": -0.25226,
				"method": "rhf"
			},
			{
				"type": "unocc",
				"energy": -0.02242,
				"method": "rhf"
			},
			{
				"type": "unocc",
				"energy": -0.01775,
				"method": "rhf"
			},
			{
				"type": "unocc",
				"energy": -0.01494,
				"method": "rhf"
			},
			{
				"type": "unocc",
				"energy": -0.0115,
				"method": "rhf"
			},
			{
				"type": "unocc",
				"energy": 0.037,
				"method": "rhf"
			}
		],
		"cosmo_sigma_profile": { 
			"-0.025": 0.0,
			"-0.024": 0.0,
			"-0.023": 0.0,
			"-0.022": 0.0,
			"-0.021": 0.0,
			"-0.02": 0.0,
			"-0.019": 0.0,
			"-0.018": 0.0,
			"-0.017": 0.0,
			"-0.016": 0.0,
			"-0.015": 0.0,
			"-0.014": 0.0,
			"-0.013": 0.0,
			"-0.012": 0.0,
			"-0.011": 0.0,
			"-0.01": 0.0,
			"-0.009": 0.252663847483,
			"-0.008": 2.43559463731,
			"-0.007": 10.1977487736,
			"-0.006": 15.4307744225,
			"-0.005": 19.2928163902,
			"-0.004": 19.3231436508,
			"-0.003": 15.818089576,
			"-0.002": 13.321644502,
			"-0.001": 15.5820658981,
			"0.0": 23.2571524365,
			"0.001": 24.5290101375,
			"0.002": 21.0192109289,
			"0.003": 16.2484055141,
			"0.004": 19.3792442208,
			"0.005": 16.3312318998,
			"0.006": 7.30082315568,
			"0.007": 3.12065985271,
			"0.008": 2.57193629207,
			"0.009": 1.99671031114,
			"0.01": 1.22011868789,
			"0.011": 0.623746246743,
			"0.012": 1.13332680376,
			"0.013": 1.0642264965,
			"0.014": 0.730982353412,
			"0.015": 0.76260578724,
			"0.016": 0.000575179089152,
			"0.017": 0.0,
			"0.018": 0.0,
			"0.019": 0.0,
			"0.02": 0.0,
			"0.021": 0.0,
			"0.022": 0.0,
			"0.023": 0.0,
			"0.024": 0.0,
			"0.025": 0.0
		}
	}
}
