{
	 "smiles": "OC1=CC2=C(NN=C2)C=C1", 
	 "Tm": 458.15, 
	 "num_atms": 16, 
	 "gaussian": { 
		 "optdone": 1, 
		 "sigma_profile": "yes", 
		 "theory": "DFT", 
		 "functional": "B3LYP", 
		 "basiset": "6-31G**", 
		 "properties": { 
			 "R2extent": 2050.7677, 
			 "electric_dipole_moment_norm": 0.859442825323, 
			 "electric_quadrupole_moment_norm": 13.4995251705, 
			 "total_energy": -455.063619061, 
			 "HOMO_LUMO_gap": 0.17918, 
			 "cosmo_polarized_energy": -13.15, 
			 "cosmo_cavitation_energy": 20.22, 
			 "cosmo_dispersion_energy": -15.56, 
			 "cosmo_repulsion_energy": 1.25, 
			 "cosmo_total_nonelectrostatic_energy": 5.92, 
			 "SMD_solvation_energy": 2.87 
		},
		"coords": [
			{
				"x": -1.6990477188,
				"y": 2.1578602959,
				"z": 1.0273410868,
				"element": "O" 
			},
			{
				"x": -0.7363648282,
				"y": 1.8368164867,
				"z": 0.1057372659,
				"element": "C" 
			},
			{
				"x": -0.5160792292,
				"y": 0.5422404218,
				"z": -0.3392680015,
				"element": "C" 
			},
			{
				"x": 0.501965303,
				"y": 0.3281606278,
				"z": -1.2899474672,
				"element": "C" 
			},
			{
				"x": 1.266126342,
				"y": 1.4228355497,
				"z": -1.7628976285,
				"element": "C" 
			},
			{
				"x": 2.1567532273,
				"y": 0.8926558147,
				"z": -2.6602583928,
				"element": "N" 
			},
			{
				"x": 2.0225847645,
				"y": -0.4494489792,
				"z": -2.7974360118,
				"element": "N" 
			},
			{
				"x": 1.037914925,
				"y": -0.7988158992,
				"z": -1.98484908,
				"element": "C" 
			},
			{
				"x": 1.0412411794,
				"y": 2.733508225,
				"z": -1.3106940413,
				"element": "C" 
			},
			{
				"x": 0.0378961658,
				"y": 2.922868192,
				"z": -0.377856902,
				"element": "C" 
			},
			{
				"x": -2.1645260686,
				"y": 1.3530339875,
				"z": 1.2887310235,
				"element": "H" 
			},
			{
				"x": -1.1137610788,
				"y": -0.285394938,
				"z": 0.0360663534,
				"element": "H" 
			},
			{
				"x": 2.8616322363,
				"y": 1.3692717816,
				"z": -3.1985978367,
				"element": "H" 
			},
			{
				"x": 0.7405319063,
				"y": -1.8368389109,
				"z": -1.9181252836,
				"element": "H" 
			},
			{
				"x": 1.6273545029,
				"y": 3.5722388946,
				"z": -1.6736188886,
				"element": "H" 
			},
			{
				"x": -0.182821629,
				"y": 3.9121084501,
				"z": 0.0089738043,
				"element": "H" 
			}
		],
		 "valence_orbital": [ 
			{
				"type": "occ",
				"energy": -0.31914,
				"method": "rhf"
			},
			{
				"type": "occ",
				"energy": -0.2885,
				"method": "rhf"
			},
			{
				"type": "occ",
				"energy": -0.28746,
				"method": "rhf"
			},
			{
				"type": "occ",
				"energy": -0.23142,
				"method": "rhf"
			},
			{
				"type": "occ",
				"energy": -0.20659,
				"method": "rhf"
			},
			{
				"type": "unocc",
				"energy": -0.02741,
				"method": "rhf"
			},
			{
				"type": "unocc",
				"energy": 0.03168,
				"method": "rhf"
			},
			{
				"type": "unocc",
				"energy": 0.0611,
				"method": "rhf"
			},
			{
				"type": "unocc",
				"energy": 0.07033,
				"method": "rhf"
			},
			{
				"type": "unocc",
				"energy": 0.08831,
				"method": "rhf"
			}
		],
		"cosmo_sigma_profile": { 
			"-0.025": 0.0,
			"-0.024": 0.0,
			"-0.023": 0.0,
			"-0.022": 0.0,
			"-0.021": 0.0,
			"-0.02": 0.0,
			"-0.019": 0.0,
			"-0.018": 0.0909528032036,
			"-0.017": 1.17795675155,
			"-0.016": 2.25803108583,
			"-0.015": 2.53316721546,
			"-0.014": 2.68221645288,
			"-0.013": 1.76900240825,
			"-0.012": 1.92498816676,
			"-0.011": 1.64452170146,
			"-0.01": 2.25340157701,
			"-0.009": 2.03817162572,
			"-0.008": 2.79434493074,
			"-0.007": 5.66924973576,
			"-0.006": 7.5288969305,
			"-0.005": 7.79351088244,
			"-0.004": 8.58585463675,
			"-0.003": 5.86593500409,
			"-0.002": 5.39063519874,
			"-0.001": 7.17886577752,
			"0.0": 4.81226468089,
			"0.001": 7.13781077663,
			"0.002": 8.73944694486,
			"0.003": 14.0499689096,
			"0.004": 20.4670507741,
			"0.005": 12.9981791094,
			"0.006": 3.77737637585,
			"0.007": 3.01502411901,
			"0.008": 2.91668290539,
			"0.009": 2.60570276085,
			"0.01": 3.11645655975,
			"0.011": 3.01417302835,
			"0.012": 2.69473222494,
			"0.013": 0.77970336481,
			"0.014": 1.39838581485,
			"0.015": 0.892337903647,
			"0.016": 0.453528327453,
			"0.017": 0.0,
			"0.018": 0.0,
			"0.019": 0.0,
			"0.02": 0.0,
			"0.021": 0.0,
			"0.022": 0.0,
			"0.023": 0.0,
			"0.024": 0.0,
			"0.025": 0.0
		}
	}
}
