{
	 "smiles": "CC1=C(SC(=N1)C(=C/C1=CC=CO1)C#N)N=NC1=CC=CC=C1[N+]([O-])=O", 
	 "Tm": 485.15, 
	 "num_atms": 37, 
	 "gaussian": { 
		 "optdone": 1, 
		 "sigma_profile": "yes", 
		 "theory": "DFT", 
		 "functional": "B3LYP", 
		 "basiset": "6-31G**", 
		 "properties": { 
			 "R2extent": 14187.2254, 
			 "electric_dipole_moment_norm": 8.08539213273, 
			 "electric_quadrupole_moment_norm": 46.6528814645, 
			 "total_energy": -1551.83647361, 
			 "HOMO_LUMO_gap": 0.10481, 
			 "cosmo_polarized_energy": -18.21, 
			 "cosmo_cavitation_energy": 47.35, 
			 "cosmo_dispersion_energy": -32.38, 
			 "cosmo_repulsion_energy": 2.38, 
			 "cosmo_total_nonelectrostatic_energy": 17.35, 
			 "SMD_solvation_energy": 10.85 
		},
		"coords": [
			{
				"x": -1.6230626955,
				"y": 0.6185182098,
				"z": 0.4452071055,
				"element": "C" 
			},
			{
				"x": -0.465098946,
				"y": 0.3167932362,
				"z": -0.4539481068,
				"element": "C" 
			},
			{
				"x": 0.8577980033,
				"y": 0.1104297981,
				"z": -0.0495917834,
				"element": "C" 
			},
			{
				"x": 1.8805582083,
				"y": -0.1580023934,
				"z": -1.4415976867,
				"element": "S" 
			},
			{
				"x": 0.4642003894,
				"y": -0.002155334,
				"z": -2.4594729424,
				"element": "C" 
			},
			{
				"x": -0.6543142433,
				"y": 0.2479008148,
				"z": -1.7977066742,
				"element": "N" 
			},
			{
				"x": 0.5779948935,
				"y": -0.1486705608,
				"z": -3.9029625923,
				"element": "C" 
			},
			{
				"x": -0.4004338462,
				"y": -0.062698094,
				"z": -4.8693205973,
				"element": "C" 
			},
			{
				"x": -1.8013346792,
				"y": 0.1799619731,
				"z": -4.8395412113,
				"element": "C" 
			},
			{
				"x": -2.8000555611,
				"y": 0.4225508389,
				"z": -3.9114998826,
				"element": "C" 
			},
			{
				"x": -4.0098650509,
				"y": 0.5713840675,
				"z": -4.6343450911,
				"element": "C" 
			},
			{
				"x": -3.6878490758,
				"y": 0.4126030406,
				"z": -5.9565124703,
				"element": "C" 
			},
			{
				"x": -2.3708845959,
				"y": 0.1765580124,
				"z": -6.1062270192,
				"element": "O" 
			},
			{
				"x": 1.9007070104,
				"y": -0.4216034002,
				"z": -4.3925991418,
				"element": "C" 
			},
			{
				"x": 2.9743126593,
				"y": -0.6455511125,
				"z": -4.7835164574,
				"element": "N" 
			},
			{
				"x": 1.4832243949,
				"y": 0.1333127989,
				"z": 1.1738264532,
				"element": "N" 
			},
			{
				"x": 0.7176092265,
				"y": 0.1582803219,
				"z": 2.1885316646,
				"element": "N" 
			},
			{
				"x": 1.4090160015,
				"y": 0.2552131719,
				"z": 3.4123353641,
				"element": "C" 
			},
			{
				"x": 0.8249934426,
				"y": -0.4166055561,
				"z": 4.49671303,
				"element": "C" 
			},
			{
				"x": 1.4479749684,
				"y": -0.4593168162,
				"z": 5.7407274949,
				"element": "C" 
			},
			{
				"x": 2.672667277,
				"y": 0.1844508425,
				"z": 5.9320878737,
				"element": "C" 
			},
			{
				"x": 3.2581058768,
				"y": 0.8853441236,
				"z": 4.8785830055,
				"element": "C" 
			},
			{
				"x": 2.624057956,
				"y": 0.9358176076,
				"z": 3.6401564435,
				"element": "C" 
			},
			{
				"x": 3.2321728896,
				"y": 1.8280460975,
				"z": 2.6372611201,
				"element": "N" 
			},
			{
				"x": 4.456634685,
				"y": 1.7965686365,
				"z": 2.5354669516,
				"element": "O" 
			},
			{
				"x": 2.4868908651,
				"y": 2.5913656832,
				"z": 2.02928413,
				"element": "O" 
			},
			{
				"x": -1.3572942775,
				"y": 1.3857941913,
				"z": 1.1774997603,
				"element": "H" 
			},
			{
				"x": -2.4752569288,
				"y": 0.9508202812,
				"z": -0.1512300976,
				"element": "H" 
			},
			{
				"x": -1.9125922789,
				"y": -0.2658191263,
				"z": 1.0227605295,
				"element": "H" 
			},
			{
				"x": -0.042686563,
				"y": -0.2094720245,
				"z": -5.8852363402,
				"element": "H" 
			},
			{
				"x": -2.6333239035,
				"y": 0.477635509,
				"z": -2.8490701094,
				"element": "H" 
			},
			{
				"x": -4.9926044316,
				"y": 0.7703621053,
				"z": -4.232339472,
				"element": "H" 
			},
			{
				"x": -4.2702150857,
				"y": 0.4404805042,
				"z": -6.8654007427,
				"element": "H" 
			},
			{
				"x": -0.1149212302,
				"y": -0.9284592623,
				"z": 4.3189447769,
				"element": "H" 
			},
			{
				"x": 0.9806375028,
				"y": -0.9984404598,
				"z": 6.5588467036,
				"element": "H" 
			},
			{
				"x": 3.1648173655,
				"y": 0.156633258,
				"z": 6.898779081,
				"element": "H" 
			},
			{
				"x": 4.1961197769,
				"y": 1.4138690164,
				"z": 5.0032069305,
				"element": "H" 
			}
		],
		 "valence_orbital": [ 
			{
				"type": "occ",
				"energy": -0.28336,
				"method": "rhf"
			},
			{
				"type": "occ",
				"energy": -0.27138,
				"method": "rhf"
			},
			{
				"type": "occ",
				"energy": -0.26095,
				"method": "rhf"
			},
			{
				"type": "occ",
				"energy": -0.24346,
				"method": "rhf"
			},
			{
				"type": "occ",
				"energy": -0.21908,
				"method": "rhf"
			},
			{
				"type": "unocc",
				"energy": -0.11427,
				"method": "rhf"
			},
			{
				"type": "unocc",
				"energy": -0.08309,
				"method": "rhf"
			},
			{
				"type": "unocc",
				"energy": -0.06739,
				"method": "rhf"
			},
			{
				"type": "unocc",
				"energy": -0.02287,
				"method": "rhf"
			},
			{
				"type": "unocc",
				"energy": -0.01587,
				"method": "rhf"
			}
		],
		"cosmo_sigma_profile": { 
			"-0.025": 0.0,
			"-0.024": 0.0,
			"-0.023": 0.0,
			"-0.022": 0.0,
			"-0.021": 0.0,
			"-0.02": 0.0,
			"-0.019": 0.0,
			"-0.018": 0.0,
			"-0.017": 0.0,
			"-0.016": 0.0,
			"-0.015": 0.0,
			"-0.014": 0.0,
			"-0.013": 0.0,
			"-0.012": 0.0,
			"-0.011": 0.392590990047,
			"-0.01": 2.68632870012,
			"-0.009": 3.823720289,
			"-0.008": 8.61738670556,
			"-0.007": 14.6384956603,
			"-0.006": 15.9967422146,
			"-0.005": 18.4639673698,
			"-0.004": 18.6652846997,
			"-0.003": 23.5461652475,
			"-0.002": 29.2208049083,
			"-0.001": 40.0121538704,
			"0.0": 44.9130018803,
			"0.001": 42.288063086,
			"0.002": 34.6460285852,
			"0.003": 15.3605529653,
			"0.004": 11.7553961791,
			"0.005": 10.2147181088,
			"0.006": 9.41460181529,
			"0.007": 12.1891275312,
			"0.008": 11.1941199482,
			"0.009": 7.27334295317,
			"0.01": 4.65329382115,
			"0.011": 2.75263524242,
			"0.012": 2.33232539286,
			"0.013": 0.793670791677,
			"0.014": 0.0,
			"0.015": 0.0,
			"0.016": 0.0,
			"0.017": 0.0,
			"0.018": 0.0,
			"0.019": 0.0,
			"0.02": 0.0,
			"0.021": 0.0,
			"0.022": 0.0,
			"0.023": 0.0,
			"0.024": 0.0,
			"0.025": 0.0
		}
	}
}
