{
	 "smiles": "O=C1NNC(=O)C=C1", 
	 "Tm": 579.15, 
	 "num_atms": 12, 
	 "gaussian": { 
		 "optdone": 1, 
		 "sigma_profile": "yes", 
		 "theory": "DFT", 
		 "functional": "B3LYP", 
		 "basiset": "6-31G**", 
		 "properties": { 
			 "R2extent": 1189.3412, 
			 "electric_dipole_moment_norm": 1.61435863116, 
			 "electric_quadrupole_moment_norm": 22.9807946083, 
			 "total_energy": -414.747954073, 
			 "HOMO_LUMO_gap": 0.15933, 
			 "cosmo_polarized_energy": -20.04, 
			 "cosmo_cavitation_energy": 16.89, 
			 "cosmo_dispersion_energy": -12.91, 
			 "cosmo_repulsion_energy": 1.09, 
			 "cosmo_total_nonelectrostatic_energy": 5.07, 
			 "SMD_solvation_energy": 4.92 
		},
		"coords": [
			{
				"x": 1.3665429536,
				"y": -0.2336084756,
				"z": -3.565034753,
				"element": "O" 
			},
			{
				"x": 0.9161573208,
				"y": -0.0091538119,
				"z": -2.447444601,
				"element": "C" 
			},
			{
				"x": 0.6548672077,
				"y": 1.2739766155,
				"z": -2.0230499577,
				"element": "N" 
			},
			{
				"x": 0.1440834457,
				"y": 1.5893672576,
				"z": -0.7670849918,
				"element": "N" 
			},
			{
				"x": -0.1593634322,
				"y": 0.6549133387,
				"z": 0.1970429663,
				"element": "C" 
			},
			{
				"x": -0.6077481907,
				"y": 0.9852854372,
				"z": 1.2888494319,
				"element": "O" 
			},
			{
				"x": 0.10863538,
				"y": -0.7356293099,
				"z": -0.2239310301,
				"element": "C" 
			},
			{
				"x": 0.6021108795,
				"y": -1.0402627428,
				"z": -1.4370795645,
				"element": "C" 
			},
			{
				"x": 0.8402697517,
				"y": 2.0429410179,
				"z": -2.6507436259,
				"element": "H" 
			},
			{
				"x": -0.0080882489,
				"y": 2.5668391473,
				"z": -0.5644308356,
				"element": "H" 
			},
			{
				"x": -0.1217854601,
				"y": -1.4934124123,
				"z": 0.5174585159,
				"element": "H" 
			},
			{
				"x": 0.7987183927,
				"y": -2.0616560618,
				"z": -1.7454515545,
				"element": "H" 
			}
		],
		 "valence_orbital": [ 
			{
				"type": "occ",
				"energy": -0.35552,
				"method": "rhf"
			},
			{
				"type": "occ",
				"energy": -0.29681,
				"method": "rhf"
			},
			{
				"type": "occ",
				"energy": -0.27232,
				"method": "rhf"
			},
			{
				"type": "occ",
				"energy": -0.26897,
				"method": "rhf"
			},
			{
				"type": "occ",
				"energy": -0.2331,
				"method": "rhf"
			},
			{
				"type": "unocc",
				"energy": -0.07377,
				"method": "rhf"
			},
			{
				"type": "unocc",
				"energy": 0.02039,
				"method": "rhf"
			},
			{
				"type": "unocc",
				"energy": 0.04244,
				"method": "rhf"
			},
			{
				"type": "unocc",
				"energy": 0.08386,
				"method": "rhf"
			},
			{
				"type": "unocc",
				"energy": 0.10659,
				"method": "rhf"
			}
		],
		"cosmo_sigma_profile": { 
			"-0.025": 0.0,
			"-0.024": 0.0,
			"-0.023": 0.0,
			"-0.022": 0.0,
			"-0.021": 0.101028655126,
			"-0.02": 0.762446842159,
			"-0.019": 1.06341825606,
			"-0.018": 2.33462427831,
			"-0.017": 2.70026519533,
			"-0.016": 1.72316844254,
			"-0.015": 1.645391862,
			"-0.014": 1.77879944397,
			"-0.013": 1.64800674324,
			"-0.012": 0.878237878097,
			"-0.011": 0.900742252987,
			"-0.01": 0.965085273986,
			"-0.009": 3.12526623146,
			"-0.008": 4.81273108933,
			"-0.007": 4.24195888972,
			"-0.006": 5.08655784737,
			"-0.005": 3.55455126941,
			"-0.004": 6.5161533729,
			"-0.003": 7.32248655511,
			"-0.002": 10.6329709196,
			"-0.001": 11.3521467941,
			"0.0": 10.1703191087,
			"0.001": 4.03293665139,
			"0.002": 1.97681629987,
			"0.003": 2.44546249579,
			"0.004": 3.00088750765,
			"0.005": 1.94501468379,
			"0.006": 1.94571613376,
			"0.007": 2.85181185461,
			"0.008": 2.3897962695,
			"0.009": 1.64745340651,
			"0.01": 2.16037892775,
			"0.011": 3.09113639276,
			"0.012": 4.25565223404,
			"0.013": 11.3318904734,
			"0.014": 8.07258727414,
			"0.015": 0.534063124456,
			"0.016": 0.0,
			"0.017": 0.0,
			"0.018": 0.0,
			"0.019": 0.0,
			"0.02": 0.0,
			"0.021": 0.0,
			"0.022": 0.0,
			"0.023": 0.0,
			"0.024": 0.0,
			"0.025": 0.0
		}
	}
}
