{
	 "smiles": "C[C@]12CCC3C(C1CCC2=O)C(=O)CC1CC(O)(CC[C@]31C)C(Cl)(Cl)Cl", 
	 "Tm": 524.15, 
	 "num_atms": 53, 
	 "gaussian": { 
		 "optdone": 1, 
		 "sigma_profile": "yes", 
		 "theory": "DFT", 
		 "functional": "B3LYP", 
		 "basiset": "6-31G**", 
		 "properties": { 
			 "R2extent": 14165.936, 
			 "electric_dipole_moment_norm": 1.51482453439, 
			 "electric_quadrupole_moment_norm": 14.1028840277, 
			 "total_energy": -2384.64455031, 
			 "HOMO_LUMO_gap": 0.19199, 
			 "cosmo_polarized_energy": -17.01, 
			 "cosmo_cavitation_energy": 51.11, 
			 "cosmo_dispersion_energy": -35.08, 
			 "cosmo_repulsion_energy": 2.57, 
			 "cosmo_total_nonelectrostatic_energy": 18.59, 
			 "SMD_solvation_energy": 7.31 
		},
		"coords": [
			{
				"x": 0.8605112766,
				"y": -2.5762589977,
				"z": -3.7827148641,
				"element": "C" 
			},
			{
				"x": 0.2236693176,
				"y": -1.5970694372,
				"z": -2.7634053867,
				"element": "C" 
			},
			{
				"x": 1.2231331297,
				"y": -0.4616953652,
				"z": -2.4775130646,
				"element": "C" 
			},
			{
				"x": 0.9077408354,
				"y": 0.3825705053,
				"z": -1.2328217589,
				"element": "C" 
			},
			{
				"x": 0.7099759047,
				"y": -0.5385934712,
				"z": -0.017191855,
				"element": "C" 
			},
			{
				"x": -0.5496663968,
				"y": -1.4168602733,
				"z": -0.3321170954,
				"element": "C" 
			},
			{
				"x": -0.3219089603,
				"y": -2.3643465211,
				"z": -1.5226055573,
				"element": "C" 
			},
			{
				"x": -1.6601713076,
				"y": -2.9777774272,
				"z": -2.0275371399,
				"element": "C" 
			},
			{
				"x": -2.2522950439,
				"y": -1.9276301262,
				"z": -2.985831769,
				"element": "C" 
			},
			{
				"x": -1.0645030796,
				"y": -1.0707887515,
				"z": -3.4321252153,
				"element": "C" 
			},
			{
				"x": -1.1186292488,
				"y": -0.1295514098,
				"z": -4.1954970313,
				"element": "O" 
			},
			{
				"x": -1.0565392899,
				"y": -2.102220445,
				"z": 0.932026209,
				"element": "C" 
			},
			{
				"x": -1.1007882948,
				"y": -3.3099429739,
				"z": 1.0788861213,
				"element": "O" 
			},
			{
				"x": -1.5000931076,
				"y": -1.1243119875,
				"z": 2.0218818277,
				"element": "C" 
			},
			{
				"x": -0.8590588502,
				"y": 0.2571749613,
				"z": 1.8129500706,
				"element": "C" 
			},
			{
				"x": -1.0587015178,
				"y": 1.2344328161,
				"z": 2.9776921976,
				"element": "C" 
			},
			{
				"x": -0.8029978349,
				"y": 2.6718905113,
				"z": 2.4706374911,
				"element": "C" 
			},
			{
				"x": -2.0086524678,
				"y": 3.054436773,
				"z": 1.8311669322,
				"element": "O" 
			},
			{
				"x": 0.3901869984,
				"y": 2.6990893354,
				"z": 1.4596577956,
				"element": "C" 
			},
			{
				"x": 1.3344657884,
				"y": 1.4921998064,
				"z": 1.5710039881,
				"element": "C" 
			},
			{
				"x": 0.6420670036,
				"y": 0.1037294211,
				"z": 1.4236070777,
				"element": "C" 
			},
			{
				"x": 1.3815627191,
				"y": -0.8591419648,
				"z": 2.3871462276,
				"element": "C" 
			},
			{
				"x": -0.5778285308,
				"y": 3.6722074724,
				"z": 3.6713137627,
				"element": "C" 
			},
			{
				"x": -1.9331921353,
				"y": 3.591561514,
				"z": 4.8480893586,
				"element": "Cl" 
			},
			{
				"x": -0.5024323526,
				"y": 5.3784313454,
				"z": 3.0330664192,
				"element": "Cl" 
			},
			{
				"x": 0.9651248837,
				"y": 3.3425235629,
				"z": 4.547129285,
				"element": "Cl" 
			},
			{
				"x": 1.7385284163,
				"y": -3.0576028247,
				"z": -3.3390432839,
				"element": "H" 
			},
			{
				"x": 0.1703813911,
				"y": -3.3649447387,
				"z": -4.0971016419,
				"element": "H" 
			},
			{
				"x": 1.1782226465,
				"y": -2.033987183,
				"z": -4.6785803329,
				"element": "H" 
			},
			{
				"x": 2.2222883124,
				"y": -0.8991225357,
				"z": -2.3501539194,
				"element": "H" 
			},
			{
				"x": 1.2640178403,
				"y": 0.17732065,
				"z": -3.366557035,
				"element": "H" 
			},
			{
				"x": 1.7358067783,
				"y": 1.0809512836,
				"z": -1.0767634293,
				"element": "H" 
			},
			{
				"x": 0.0095840618,
				"y": 0.9915662896,
				"z": -1.4037638099,
				"element": "H" 
			},
			{
				"x": 1.5726862878,
				"y": -1.2204881005,
				"z": -0.0079169934,
				"element": "H" 
			},
			{
				"x": -1.346631139,
				"y": -0.7058645772,
				"z": -0.6036993412,
				"element": "H" 
			},
			{
				"x": 0.3666979068,
				"y": -3.1542645044,
				"z": -1.204396763,
				"element": "H" 
			},
			{
				"x": -1.4586665682,
				"y": -3.9109106796,
				"z": -2.5621615315,
				"element": "H" 
			},
			{
				"x": -2.3257571448,
				"y": -3.232735891,
				"z": -1.2015716487,
				"element": "H" 
			},
			{
				"x": -2.7660573612,
				"y": -2.3462789703,
				"z": -3.8569459793,
				"element": "H" 
			},
			{
				"x": -2.976876505,
				"y": -1.2665146567,
				"z": -2.4948837334,
				"element": "H" 
			},
			{
				"x": -1.2638594407,
				"y": -1.5639752558,
				"z": 2.9959825973,
				"element": "H" 
			},
			{
				"x": -2.5952410671,
				"y": -1.0459094396,
				"z": 1.9745697686,
				"element": "H" 
			},
			{
				"x": -1.3711646242,
				"y": 0.7208544675,
				"z": 0.9611760138,
				"element": "H" 
			},
			{
				"x": -2.0858206761,
				"y": 1.1920192289,
				"z": 3.347835228,
				"element": "H" 
			},
			{
				"x": -0.3962881124,
				"y": 0.990912233,
				"z": 3.8133467206,
				"element": "H" 
			},
			{
				"x": -1.8655716479,
				"y": 3.9020561517,
				"z": 1.3857342323,
				"element": "H" 
			},
			{
				"x": -0.0651081414,
				"y": 2.7226323493,
				"z": 0.4643303333,
				"element": "H" 
			},
			{
				"x": 0.9645444374,
				"y": 3.6238455593,
				"z": 1.5597783464,
				"element": "H" 
			},
			{
				"x": 2.1472166796,
				"y": 1.6037998313,
				"z": 0.8469406806,
				"element": "H" 
			},
			{
				"x": 1.8165819558,
				"y": 1.5309850529,
				"z": 2.5521938277,
				"element": "H" 
			},
			{
				"x": 1.073239931,
				"y": -1.9021873962,
				"z": 2.2753145285,
				"element": "H" 
			},
			{
				"x": 2.4579495219,
				"y": -0.8196741077,
				"z": 2.1857734431,
				"element": "H" 
			},
			{
				"x": 1.2351168225,
				"y": -0.5770411091,
				"z": 3.435269696,
				"element": "H" 
			}
		],
		 "valence_orbital": [ 
			{
				"type": "occ",
				"energy": -0.30138,
				"method": "rhf"
			},
			{
				"type": "occ",
				"energy": -0.29539,
				"method": "rhf"
			},
			{
				"type": "occ",
				"energy": -0.29238,
				"method": "rhf"
			},
			{
				"type": "occ",
				"energy": -0.24285,
				"method": "rhf"
			},
			{
				"type": "occ",
				"energy": -0.23823,
				"method": "rhf"
			},
			{
				"type": "unocc",
				"energy": -0.04624,
				"method": "rhf"
			},
			{
				"type": "unocc",
				"energy": -0.02489,
				"method": "rhf"
			},
			{
				"type": "unocc",
				"energy": -0.01492,
				"method": "rhf"
			},
			{
				"type": "unocc",
				"energy": -0.00778,
				"method": "rhf"
			},
			{
				"type": "unocc",
				"energy": 0.00024,
				"method": "rhf"
			}
		],
		"cosmo_sigma_profile": { 
			"-0.025": 0.0,
			"-0.024": 0.0,
			"-0.023": 0.0,
			"-0.022": 0.0,
			"-0.021": 0.0,
			"-0.02": 0.0,
			"-0.019": 0.0,
			"-0.018": 0.0,
			"-0.017": 0.0,
			"-0.016": 0.0,
			"-0.015": 0.222496974555,
			"-0.014": 0.813610993799,
			"-0.013": 0.633790604504,
			"-0.012": 0.824987621427,
			"-0.011": 0.988236848795,
			"-0.01": 0.683052647155,
			"-0.009": 1.0044953496,
			"-0.008": 1.11676767498,
			"-0.007": 2.37900820599,
			"-0.006": 11.0068228953,
			"-0.005": 16.5770050117,
			"-0.004": 31.8679098116,
			"-0.003": 48.0060873518,
			"-0.002": 57.3131262637,
			"-0.001": 47.7473781173,
			"0.0": 42.15148664,
			"0.001": 28.2503649685,
			"0.002": 20.8538029057,
			"0.003": 25.4403399824,
			"0.004": 13.8547452515,
			"0.005": 5.33370608365,
			"0.006": 4.71931050496,
			"0.007": 4.58853503721,
			"0.008": 4.65334001912,
			"0.009": 4.1270838211,
			"0.01": 5.35002740768,
			"0.011": 6.37285597063,
			"0.012": 9.73597864406,
			"0.013": 4.83029678355,
			"0.014": 0.375459811794,
			"0.015": 0.0,
			"0.016": 0.0,
			"0.017": 0.0,
			"0.018": 0.0,
			"0.019": 0.0,
			"0.02": 0.0,
			"0.021": 0.0,
			"0.022": 0.0,
			"0.023": 0.0,
			"0.024": 0.0,
			"0.025": 0.0
		}
	}
}
