{
	 "smiles": "NC(CSC1=NC=CC=C1C(F)(F)F)=NO", 
	 "Tm": 435.15, 
	 "num_atms": 24, 
	 "gaussian": { 
		 "optdone": 1, 
		 "sigma_profile": "yes", 
		 "theory": "DFT", 
		 "functional": "B3LYP", 
		 "basiset": "6-31G**", 
		 "properties": { 
			 "R2extent": 4664.1566, 
			 "electric_dipole_moment_norm": 4.33426381869, 
			 "electric_quadrupole_moment_norm": 9.76110294127, 
			 "total_energy": -1246.80117798, 
			 "HOMO_LUMO_gap": 0.14786, 
			 "cosmo_polarized_energy": -14.01, 
			 "cosmo_cavitation_energy": 31.01, 
			 "cosmo_dispersion_energy": -22.69, 
			 "cosmo_repulsion_energy": 1.69, 
			 "cosmo_total_nonelectrostatic_energy": 10.0, 
			 "SMD_solvation_energy": 6.06 
		},
		"coords": [
			{
				"x": -2.4537984835,
				"y": -1.5954496714,
				"z": -2.122042129,
				"element": "N" 
			},
			{
				"x": -2.8264816528,
				"y": -0.2723371781,
				"z": -2.2416022401,
				"element": "C" 
			},
			{
				"x": -2.5003787442,
				"y": 0.6250783536,
				"z": -1.0731322983,
				"element": "C" 
			},
			{
				"x": -0.716187864,
				"y": 0.7455059447,
				"z": -0.6478404592,
				"element": "S" 
			},
			{
				"x": -0.5239249895,
				"y": -0.5127853861,
				"z": 0.5962236472,
				"element": "C" 
			},
			{
				"x": -1.5085027321,
				"y": -1.4023122922,
				"z": 0.7702789727,
				"element": "N" 
			},
			{
				"x": -1.3831050454,
				"y": -2.3450190097,
				"z": 1.7148389965,
				"element": "C" 
			},
			{
				"x": -0.2642212484,
				"y": -2.4710846089,
				"z": 2.5270470512,
				"element": "C" 
			},
			{
				"x": 0.7715047895,
				"y": -1.5542533471,
				"z": 2.3459254694,
				"element": "C" 
			},
			{
				"x": 0.6567805394,
				"y": -0.5570358689,
				"z": 1.382943526,
				"element": "C" 
			},
			{
				"x": 1.7664244958,
				"y": 0.4565615895,
				"z": 1.2371492368,
				"element": "C" 
			},
			{
				"x": 2.8323682129,
				"y": 0.133091561,
				"z": 2.0025546037,
				"element": "F" 
			},
			{
				"x": 2.2045975144,
				"y": 0.5458429422,
				"z": -0.0368947721,
				"element": "F" 
			},
			{
				"x": 1.3691880092,
				"y": 1.690709463,
				"z": 1.6108393293,
				"element": "F" 
			},
			{
				"x": -3.4114541989,
				"y": 0.1093078105,
				"z": -3.3256436776,
				"element": "N" 
			},
			{
				"x": -3.6301747178,
				"y": 1.5161856517,
				"z": -3.3425091573,
				"element": "O" 
			},
			{
				"x": -2.8547857692,
				"y": -2.2167981405,
				"z": -2.8105391804,
				"element": "H" 
			},
			{
				"x": -2.4022240658,
				"y": -1.9407295594,
				"z": -1.1712214608,
				"element": "H" 
			},
			{
				"x": -2.8053169231,
				"y": 1.6439574425,
				"z": -1.3041319454,
				"element": "H" 
			},
			{
				"x": -3.0247272042,
				"y": 0.281743641,
				"z": -0.1779625985,
				"element": "H" 
			},
			{
				"x": -2.2223322987,
				"y": -3.0307748345,
				"z": 1.811338666,
				"element": "H" 
			},
			{
				"x": -0.201254385,
				"y": -3.2552906258,
				"z": 3.2728093141,
				"element": "H" 
			},
			{
				"x": 1.6678147513,
				"y": -1.6022250733,
				"z": 2.9533438511,
				"element": "H" 
			},
			{
				"x": -4.0464079899,
				"y": 1.6306111961,
				"z": -4.2051727455,
				"element": "H" 
			}
		],
		 "valence_orbital": [ 
			{
				"type": "occ",
				"energy": -0.30415,
				"method": "rhf"
			},
			{
				"type": "occ",
				"energy": -0.28839,
				"method": "rhf"
			},
			{
				"type": "occ",
				"energy": -0.26577,
				"method": "rhf"
			},
			{
				"type": "occ",
				"energy": -0.23139,
				"method": "rhf"
			},
			{
				"type": "occ",
				"energy": -0.20078,
				"method": "rhf"
			},
			{
				"type": "unocc",
				"energy": -0.05292,
				"method": "rhf"
			},
			{
				"type": "unocc",
				"energy": -0.04093,
				"method": "rhf"
			},
			{
				"type": "unocc",
				"energy": 0.0125,
				"method": "rhf"
			},
			{
				"type": "unocc",
				"energy": 0.04445,
				"method": "rhf"
			},
			{
				"type": "unocc",
				"energy": 0.07286,
				"method": "rhf"
			}
		],
		"cosmo_sigma_profile": { 
			"-0.025": 0.0,
			"-0.024": 0.0,
			"-0.023": 0.0,
			"-0.022": 0.0,
			"-0.021": 0.0,
			"-0.02": 0.0,
			"-0.019": 0.0,
			"-0.018": 0.0,
			"-0.017": 0.157953980763,
			"-0.016": 1.06859967524,
			"-0.015": 0.769284246893,
			"-0.014": 0.704090493453,
			"-0.013": 0.969999197258,
			"-0.012": 1.99006650141,
			"-0.011": 2.02771825693,
			"-0.01": 1.22955394743,
			"-0.009": 1.90695875062,
			"-0.008": 6.63085773098,
			"-0.007": 10.019632208,
			"-0.006": 11.8674653613,
			"-0.005": 11.1779682125,
			"-0.004": 12.8221302993,
			"-0.003": 12.3561925168,
			"-0.002": 13.2524724963,
			"-0.001": 19.290563834,
			"0.0": 20.0509763547,
			"0.001": 19.1453087899,
			"0.002": 27.0747688515,
			"0.003": 23.1540972052,
			"0.004": 10.8788930278,
			"0.005": 8.46928513287,
			"0.006": 5.53287377752,
			"0.007": 4.6560428358,
			"0.008": 6.74066733676,
			"0.009": 5.2601413203,
			"0.01": 3.6737489967,
			"0.011": 2.39675966366,
			"0.012": 2.25261543149,
			"0.013": 0.736463870882,
			"0.014": 0.811128970511,
			"0.015": 0.379895852136,
			"0.016": 0.0,
			"0.017": 0.0,
			"0.018": 0.0,
			"0.019": 0.0,
			"0.02": 0.0,
			"0.021": 0.0,
			"0.022": 0.0,
			"0.023": 0.0,
			"0.024": 0.0,
			"0.025": 0.0
		}
	}
}
