{
	 "smiles": "FC(F)(F)C1=CC2=C(OCC(=O)N2)C=C1", 
	 "Tm": 439.15, 
	 "num_atms": 21, 
	 "gaussian": { 
		 "optdone": 1, 
		 "sigma_profile": "yes", 
		 "theory": "DFT", 
		 "functional": "B3LYP", 
		 "basiset": "6-31G**", 
		 "properties": { 
			 "R2extent": 3878.2861, 
			 "electric_dipole_moment_norm": 1.17230817194, 
			 "electric_quadrupole_moment_norm": 13.7328671467, 
			 "total_energy": -851.306157091, 
			 "HOMO_LUMO_gap": 0.19956, 
			 "cosmo_polarized_energy": -11.84, 
			 "cosmo_cavitation_energy": 27.01, 
			 "cosmo_dispersion_energy": -19.78, 
			 "cosmo_repulsion_energy": 1.48, 
			 "cosmo_total_nonelectrostatic_energy": 8.71, 
			 "SMD_solvation_energy": 6.62 
		},
		"coords": [
			{
				"x": -2.0632488183,
				"y": 0.533041627,
				"z": -3.2648865268,
				"element": "F" 
			},
			{
				"x": -0.7570216395,
				"y": 0.3306309348,
				"z": -2.9703026224,
				"element": "C" 
			},
			{
				"x": -0.0798783302,
				"y": 1.3957342604,
				"z": -3.4578625042,
				"element": "F" 
			},
			{
				"x": -0.3635840849,
				"y": -0.7571396613,
				"z": -3.6678573518,
				"element": "F" 
			},
			{
				"x": -0.5385225284,
				"y": 0.1576965235,
				"z": -1.4933464566,
				"element": "C" 
			},
			{
				"x": -0.3138214768,
				"y": 1.2833192976,
				"z": -0.6960653417,
				"element": "C" 
			},
			{
				"x": -0.1630084736,
				"y": 1.1384207839,
				"z": 0.6810068371,
				"element": "C" 
			},
			{
				"x": -0.2556313337,
				"y": -0.1395831381,
				"z": 1.2616574429,
				"element": "C" 
			},
			{
				"x": -0.0635930729,
				"y": -0.3037096517,
				"z": 2.6039204152,
				"element": "O" 
			},
			{
				"x": -0.4223403216,
				"y": 0.8110923446,
				"z": 3.4260150051,
				"element": "C" 
			},
			{
				"x": 0.0423579347,
				"y": 2.1636563623,
				"z": 2.8926317944,
				"element": "C" 
			},
			{
				"x": 0.2675246867,
				"y": 3.1128208454,
				"z": 3.6219724099,
				"element": "O" 
			},
			{
				"x": 0.1227640726,
				"y": 2.2241183315,
				"z": 1.5235390079,
				"element": "N" 
			},
			{
				"x": -0.4813872271,
				"y": -1.2573354898,
				"z": 0.4627945271,
				"element": "C" 
			},
			{
				"x": -0.6184898119,
				"y": -1.1119277769,
				"z": -0.9167220116,
				"element": "C" 
			},
			{
				"x": -0.2375416469,
				"y": 2.2663542999,
				"z": -1.149573285,
				"element": "H" 
			},
			{
				"x": -1.5144116461,
				"y": 0.8489222062,
				"z": 3.5578117761,
				"element": "H" 
			},
			{
				"x": 0.0397650615,
				"y": 0.648069422,
				"z": 4.3993862054,
				"element": "H" 
			},
			{
				"x": 0.3625549342,
				"y": 3.1239606064,
				"z": 1.1269376537,
				"element": "H" 
			},
			{
				"x": -0.534316013,
				"y": -2.231180896,
				"z": 0.937190326,
				"element": "H" 
			},
			{
				"x": -0.7859702648,
				"y": -1.9812612316,
				"z": -1.5419473007,
				"element": "H" 
			}
		],
		 "valence_orbital": [ 
			{
				"type": "occ",
				"energy": -0.34352,
				"method": "rhf"
			},
			{
				"type": "occ",
				"energy": -0.32846,
				"method": "rhf"
			},
			{
				"type": "occ",
				"energy": -0.27587,
				"method": "rhf"
			},
			{
				"type": "occ",
				"energy": -0.26065,
				"method": "rhf"
			},
			{
				"type": "occ",
				"energy": -0.23345,
				"method": "rhf"
			},
			{
				"type": "unocc",
				"energy": -0.03389,
				"method": "rhf"
			},
			{
				"type": "unocc",
				"energy": -0.02943,
				"method": "rhf"
			},
			{
				"type": "unocc",
				"energy": 0.01342,
				"method": "rhf"
			},
			{
				"type": "unocc",
				"energy": 0.06742,
				"method": "rhf"
			},
			{
				"type": "unocc",
				"energy": 0.08561,
				"method": "rhf"
			}
		],
		"cosmo_sigma_profile": { 
			"-0.025": 0.0,
			"-0.024": 0.0,
			"-0.023": 0.0,
			"-0.022": 0.0,
			"-0.021": 0.0,
			"-0.02": 0.0,
			"-0.019": 0.0,
			"-0.018": 0.0,
			"-0.017": 0.0,
			"-0.016": 0.712407250791,
			"-0.015": 1.59328113402,
			"-0.014": 1.35268016509,
			"-0.013": 1.24028589849,
			"-0.012": 1.62797428176,
			"-0.011": 0.803483808969,
			"-0.01": 1.13958318156,
			"-0.009": 1.87885316845,
			"-0.008": 7.21837843093,
			"-0.007": 9.00386790469,
			"-0.006": 9.89814124399,
			"-0.005": 9.72258272641,
			"-0.004": 9.91842188615,
			"-0.003": 9.15201404584,
			"-0.002": 9.35753097936,
			"-0.001": 12.7389928835,
			"0.0": 14.1697863319,
			"0.001": 18.8133559225,
			"0.002": 27.7128797938,
			"0.003": 37.4765107568,
			"0.004": 6.21498835763,
			"0.005": 2.10501426154,
			"0.006": 2.12028856236,
			"0.007": 2.81288797805,
			"0.008": 2.46154219708,
			"0.009": 2.23349955493,
			"0.01": 1.76213119172,
			"0.011": 2.55931407064,
			"0.012": 5.45652502972,
			"0.013": 3.30403238765,
			"0.014": 0.15704707355,
			"0.015": 0.0,
			"0.016": 0.0,
			"0.017": 0.0,
			"0.018": 0.0,
			"0.019": 0.0,
			"0.02": 0.0,
			"0.021": 0.0,
			"0.022": 0.0,
			"0.023": 0.0,
			"0.024": 0.0,
			"0.025": 0.0
		}
	}
}
