{
	 "smiles": "CC(=O)NC1=CC=C(Br)C=C1C", 
	 "Tm": 435.15, 
	 "num_atms": 22, 
	 "gaussian": { 
		 "optdone": 1, 
		 "sigma_profile": "yes", 
		 "theory": "DFT", 
		 "functional": "B3LYP", 
		 "basiset": "6-31G**", 
		 "properties": { 
			 "R2extent": 4840.2503, 
			 "electric_dipole_moment_norm": 1.31047730236, 
			 "electric_quadrupole_moment_norm": 17.9966342595, 
			 "total_energy": -3050.38799811, 
			 "HOMO_LUMO_gap": 0.20146, 
			 "cosmo_polarized_energy": -11.43, 
			 "cosmo_cavitation_energy": 28.07, 
			 "cosmo_dispersion_energy": -20.56, 
			 "cosmo_repulsion_energy": 1.65, 
			 "cosmo_total_nonelectrostatic_energy": 9.16, 
			 "SMD_solvation_energy": 4.63 
		},
		"coords": [
			{
				"x": 2.2264634802,
				"y": -0.018781537,
				"z": 1.3717628599,
				"element": "C" 
			},
			{
				"x": 1.3385697119,
				"y": 1.203103909,
				"z": 1.5139832758,
				"element": "C" 
			},
			{
				"x": 1.5690391946,
				"y": 2.0794751833,
				"z": 2.3338850278,
				"element": "O" 
			},
			{
				"x": 0.2185984013,
				"y": 1.311036479,
				"z": 0.7021305436,
				"element": "N" 
			},
			{
				"x": -0.2721304836,
				"y": 0.4819966721,
				"z": -0.3318491938,
				"element": "C" 
			},
			{
				"x": 0.5780946615,
				"y": -0.0392244055,
				"z": -1.3156546477,
				"element": "C" 
			},
			{
				"x": 0.0843607485,
				"y": -0.8519832121,
				"z": -2.3342479442,
				"element": "C" 
			},
			{
				"x": -1.2809178309,
				"y": -1.114662586,
				"z": -2.3838328591,
				"element": "C" 
			},
			{
				"x": -1.9835367242,
				"y": -2.2156059981,
				"z": -3.7788202357,
				"element": "Br" 
			},
			{
				"x": -2.1457740224,
				"y": -0.5792023811,
				"z": -1.4317133277,
				"element": "C" 
			},
			{
				"x": -1.6592932243,
				"y": 0.2182459436,
				"z": -0.391981353,
				"element": "C" 
			},
			{
				"x": -2.601459881,
				"y": 0.7797000059,
				"z": 0.6446963637,
				"element": "C" 
			},
			{
				"x": 2.6898541861,
				"y": -0.1951644141,
				"z": 2.343324104,
				"element": "H" 
			},
			{
				"x": 1.6869150191,
				"y": -0.909447807,
				"z": 1.0436883868,
				"element": "H" 
			},
			{
				"x": 3.0286103447,
				"y": 0.1799886651,
				"z": 0.6531208945,
				"element": "H" 
			},
			{
				"x": -0.3491616174,
				"y": 2.1065309001,
				"z": 0.9682247933,
				"element": "H" 
			},
			{
				"x": 1.6330193869,
				"y": 0.2090452678,
				"z": -1.2989257111,
				"element": "H" 
			},
			{
				"x": 0.7512681696,
				"y": -1.25513358,
				"z": -3.0874199083,
				"element": "H" 
			},
			{
				"x": -3.207511088,
				"y": -0.7935408561,
				"z": -1.4892072556,
				"element": "H" 
			},
			{
				"x": -3.6056680971,
				"y": 0.3675204987,
				"z": 0.5228389452,
				"element": "H" 
			},
			{
				"x": -2.2583411327,
				"y": 0.5531279114,
				"z": 1.6599156933,
				"element": "H" 
			},
			{
				"x": -2.6888992026,
				"y": 1.871975341,
				"z": 0.5705815483,
				"element": "H" 
			}
		],
		 "valence_orbital": [ 
			{
				"type": "occ",
				"energy": -0.29089,
				"method": "rhf"
			},
			{
				"type": "occ",
				"energy": -0.2821,
				"method": "rhf"
			},
			{
				"type": "occ",
				"energy": -0.2661,
				"method": "rhf"
			},
			{
				"type": "occ",
				"energy": -0.25629,
				"method": "rhf"
			},
			{
				"type": "occ",
				"energy": -0.22791,
				"method": "rhf"
			},
			{
				"type": "unocc",
				"energy": -0.02645,
				"method": "rhf"
			},
			{
				"type": "unocc",
				"energy": -0.02098,
				"method": "rhf"
			},
			{
				"type": "unocc",
				"energy": 0.00307,
				"method": "rhf"
			},
			{
				"type": "unocc",
				"energy": 0.02667,
				"method": "rhf"
			},
			{
				"type": "unocc",
				"energy": 0.0753,
				"method": "rhf"
			}
		],
		"cosmo_sigma_profile": { 
			"-0.025": 0.0,
			"-0.024": 0.0,
			"-0.023": 0.0,
			"-0.022": 0.0,
			"-0.021": 0.0,
			"-0.02": 0.0,
			"-0.019": 0.0,
			"-0.018": 0.0,
			"-0.017": 0.0,
			"-0.016": 0.0,
			"-0.015": 0.0,
			"-0.014": 0.0332143351738,
			"-0.013": 0.629478440427,
			"-0.012": 0.995865727186,
			"-0.011": 1.48623067975,
			"-0.01": 1.20487370377,
			"-0.009": 0.876290730829,
			"-0.008": 3.36816212942,
			"-0.007": 6.92060201619,
			"-0.006": 10.0967022728,
			"-0.005": 13.5821592499,
			"-0.004": 16.3723310224,
			"-0.003": 17.3135484962,
			"-0.002": 22.1011463457,
			"-0.001": 20.8971249581,
			"0.0": 15.8474682387,
			"0.001": 12.659609628,
			"0.002": 18.2029427957,
			"0.003": 19.3378216584,
			"0.004": 15.1208212589,
			"0.005": 9.7008455532,
			"0.006": 0.757700000549,
			"0.007": 1.59786010578,
			"0.008": 1.32027264437,
			"0.009": 0.993973121699,
			"0.01": 0.991013598237,
			"0.011": 2.12014679788,
			"0.012": 2.34807454805,
			"0.013": 4.75988688144,
			"0.014": 4.08896792313,
			"0.015": 0.514889382118,
			"0.016": 0.0,
			"0.017": 0.0,
			"0.018": 0.0,
			"0.019": 0.0,
			"0.02": 0.0,
			"0.021": 0.0,
			"0.022": 0.0,
			"0.023": 0.0,
			"0.024": 0.0,
			"0.025": 0.0
		}
	}
}
