{
	 "smiles": "NC1=C(Cl)C(Cl)=NC(C(O)=O)=C1Cl", 
	 "Tm": 491.15, 
	 "num_atms": 16, 
	 "gaussian": { 
		 "optdone": 1, 
		 "sigma_profile": "yes", 
		 "theory": "DFT", 
		 "functional": "B3LYP", 
		 "basiset": "6-31G**", 
		 "properties": { 
			 "R2extent": 3890.9991, 
			 "electric_dipole_moment_norm": 5.81688892278, 
			 "electric_quadrupole_moment_norm": 17.403946607, 
			 "total_energy": -1870.98324987, 
			 "HOMO_LUMO_gap": 0.18374, 
			 "cosmo_polarized_energy": -14.3, 
			 "cosmo_cavitation_energy": 26.07, 
			 "cosmo_dispersion_energy": -20.23, 
			 "cosmo_repulsion_energy": 1.6, 
			 "cosmo_total_nonelectrostatic_energy": 7.44, 
			 "SMD_solvation_energy": 4.27 
		},
		"coords": [
			{
				"x": 0.6652441924,
				"y": 1.1862630839,
				"z": 3.3321561208,
				"element": "N" 
			},
			{
				"x": 0.4526292165,
				"y": 0.4939648366,
				"z": 2.1926957405,
				"element": "C" 
			},
			{
				"x": 1.0245888024,
				"y": -0.7826988296,
				"z": 1.9821513277,
				"element": "C" 
			},
			{
				"x": 2.0265619511,
				"y": -1.4667510091,
				"z": 3.2336775452,
				"element": "Cl" 
			},
			{
				"x": 0.7697710601,
				"y": -1.4518231718,
				"z": 0.7838529067,
				"element": "C" 
			},
			{
				"x": 1.4543750004,
				"y": -3.0282507782,
				"z": 0.4815487951,
				"element": "Cl" 
			},
			{
				"x": 0.013769705,
				"y": -0.9457214754,
				"z": -0.1709942962,
				"element": "N" 
			},
			{
				"x": -0.5501949713,
				"y": 0.2675293621,
				"z": -0.0110744257,
				"element": "C" 
			},
			{
				"x": -1.388587308,
				"y": 0.6999398265,
				"z": -1.2044924041,
				"element": "C" 
			},
			{
				"x": -1.4030644656,
				"y": -0.213137223,
				"z": -2.1855769929,
				"element": "O" 
			},
			{
				"x": -1.9828267643,
				"y": 1.7486209117,
				"z": -1.2758423668,
				"element": "O" 
			},
			{
				"x": -0.3592155223,
				"y": 1.01620662,
				"z": 1.1450051881,
				"element": "C" 
			},
			{
				"x": -1.0659135763,
				"y": 2.5894219663,
				"z": 1.400567614,
				"element": "Cl" 
			},
			{
				"x": 0.2430715944,
				"y": 2.0925567113,
				"z": 3.4518445985,
				"element": "H" 
			},
			{
				"x": 1.241160363,
				"y": 0.8002811791,
				"z": 4.0615556068,
				"element": "H" 
			},
			{
				"x": -0.8496692775,
				"y": -0.9640020102,
				"z": -1.8835749578,
				"element": "H" 
			}
		],
		 "valence_orbital": [ 
			{
				"type": "occ",
				"energy": -0.31909,
				"method": "rhf"
			},
			{
				"type": "occ",
				"energy": -0.31348,
				"method": "rhf"
			},
			{
				"type": "occ",
				"energy": -0.2756,
				"method": "rhf"
			},
			{
				"type": "occ",
				"energy": -0.26951,
				"method": "rhf"
			},
			{
				"type": "occ",
				"energy": -0.26052,
				"method": "rhf"
			},
			{
				"type": "unocc",
				"energy": -0.07678,
				"method": "rhf"
			},
			{
				"type": "unocc",
				"energy": -0.04852,
				"method": "rhf"
			},
			{
				"type": "unocc",
				"energy": -0.02091,
				"method": "rhf"
			},
			{
				"type": "unocc",
				"energy": 0.01098,
				"method": "rhf"
			},
			{
				"type": "unocc",
				"energy": 0.03891,
				"method": "rhf"
			}
		],
		"cosmo_sigma_profile": { 
			"-0.025": 0.0,
			"-0.024": 0.0,
			"-0.023": 0.0,
			"-0.022": 0.0,
			"-0.021": 0.0,
			"-0.02": 0.0,
			"-0.019": 0.0,
			"-0.018": 0.0,
			"-0.017": 0.0,
			"-0.016": 0.0117523717711,
			"-0.015": 0.673348026159,
			"-0.014": 1.77137221402,
			"-0.013": 2.21351354944,
			"-0.012": 3.04103349686,
			"-0.011": 2.11215253564,
			"-0.01": 2.5459131701,
			"-0.009": 2.45854287142,
			"-0.008": 2.92139159445,
			"-0.007": 1.91102003205,
			"-0.006": 3.45274909779,
			"-0.005": 7.49139438254,
			"-0.004": 11.8280532262,
			"-0.003": 21.0548198253,
			"-0.002": 23.9568551807,
			"-0.001": 17.7194370479,
			"0.0": 13.0688629486,
			"0.001": 16.6592918023,
			"0.002": 16.59048888,
			"0.003": 22.3490604907,
			"0.004": 12.1549971328,
			"0.005": 2.67438248175,
			"0.006": 2.44434982015,
			"0.007": 3.23230674973,
			"0.008": 3.53062319104,
			"0.009": 4.25981503897,
			"0.01": 5.74321435605,
			"0.011": 5.41279403175,
			"0.012": 2.9677712082,
			"0.013": 0.513804679538,
			"0.014": 0.0,
			"0.015": 0.0,
			"0.016": 0.0,
			"0.017": 0.0,
			"0.018": 0.0,
			"0.019": 0.0,
			"0.02": 0.0,
			"0.021": 0.0,
			"0.022": 0.0,
			"0.023": 0.0,
			"0.024": 0.0,
			"0.025": 0.0
		}
	}
}
