{
	 "smiles": "COC(=O)CCC1=CC=C2CCC(=O)NC2=C1", 
	 "Tm": 416.15, 
	 "num_atms": 32, 
	 "gaussian": { 
		 "optdone": 1, 
		 "sigma_profile": "yes", 
		 "theory": "DFT", 
		 "functional": "B3LYP", 
		 "basiset": "6-31G**", 
		 "properties": { 
			 "R2extent": 7438.4732, 
			 "electric_dipole_moment_norm": 3.37805728933, 
			 "electric_quadrupole_moment_norm": 21.5483011632, 
			 "total_energy": -784.894529602, 
			 "HOMO_LUMO_gap": 0.20404, 
			 "cosmo_polarized_energy": -16.2, 
			 "cosmo_cavitation_energy": 35.93, 
			 "cosmo_dispersion_energy": -25.9, 
			 "cosmo_repulsion_energy": 2.03, 
			 "cosmo_total_nonelectrostatic_energy": 12.06, 
			 "SMD_solvation_energy": 7.55 
		},
		"coords": [
			{
				"x": 1.4307693475,
				"y": -6.6176314956,
				"z": -3.032730841,
				"element": "C" 
			},
			{
				"x": 1.3156045335,
				"y": -5.5881253165,
				"z": -2.0364906552,
				"element": "O" 
			},
			{
				"x": 1.257447073,
				"y": -4.3245094749,
				"z": -2.5144012213,
				"element": "C" 
			},
			{
				"x": 1.2987156133,
				"y": -4.0531404648,
				"z": -3.695303763,
				"element": "O" 
			},
			{
				"x": 1.134457109,
				"y": -3.3242343835,
				"z": -1.3817671903,
				"element": "C" 
			},
			{
				"x": 1.0871564767,
				"y": -1.8705431599,
				"z": -1.8782974735,
				"element": "C" 
			},
			{
				"x": 0.9598293359,
				"y": -0.880383102,
				"z": -0.7406058669,
				"element": "C" 
			},
			{
				"x": 2.0954153623,
				"y": -0.3711741302,
				"z": -0.0980722732,
				"element": "C" 
			},
			{
				"x": 1.9659358375,
				"y": 0.5139208232,
				"z": 0.9734401408,
				"element": "C" 
			},
			{
				"x": 0.7132351492,
				"y": 0.9142508255,
				"z": 1.4365221267,
				"element": "C" 
			},
			{
				"x": 0.5076680903,
				"y": 1.8225501981,
				"z": 2.6264190545,
				"element": "C" 
			},
			{
				"x": -0.7285357787,
				"y": 2.712967018,
				"z": 2.4314875591,
				"element": "C" 
			},
			{
				"x": -1.9618948052,
				"y": 1.9207067524,
				"z": 2.0215391274,
				"element": "C" 
			},
			{
				"x": -3.1039929299,
				"y": 2.2261525779,
				"z": 2.3246525219,
				"element": "O" 
			},
			{
				"x": -1.6975805883,
				"y": 0.8213799896,
				"z": 1.2258734865,
				"element": "N" 
			},
			{
				"x": -0.4270377477,
				"y": 0.4174333392,
				"z": 0.7795191813,
				"element": "C" 
			},
			{
				"x": -0.3010293705,
				"y": -0.4705679837,
				"z": -0.2932343979,
				"element": "C" 
			},
			{
				"x": 1.462259797,
				"y": -7.5580359055,
				"z": -2.4826169811,
				"element": "H" 
			},
			{
				"x": 2.3433150659,
				"y": -6.4862173835,
				"z": -3.6197561494,
				"element": "H" 
			},
			{
				"x": 0.5726649443,
				"y": -6.5978099091,
				"z": -3.7093708222,
				"element": "H" 
			},
			{
				"x": 0.2359774614,
				"y": -3.5719678336,
				"z": -0.8035317331,
				"element": "H" 
			},
			{
				"x": 1.9747210565,
				"y": -3.4788336893,
				"z": -0.6944339921,
				"element": "H" 
			},
			{
				"x": 0.2498196658,
				"y": -1.7614726181,
				"z": -2.5748503953,
				"element": "H" 
			},
			{
				"x": 1.992829099,
				"y": -1.6650557336,
				"z": -2.4577693294,
				"element": "H" 
			},
			{
				"x": 3.0844502629,
				"y": -0.6628059564,
				"z": -0.441296864,
				"element": "H" 
			},
			{
				"x": 2.8562471594,
				"y": 0.9006290095,
				"z": 1.4636081766,
				"element": "H" 
			},
			{
				"x": 0.3685182972,
				"y": 1.2117010097,
				"z": 3.5306289565,
				"element": "H" 
			},
			{
				"x": 1.3966855974,
				"y": 2.436705399,
				"z": 2.8015632174,
				"element": "H" 
			},
			{
				"x": -0.5399159828,
				"y": 3.4451902716,
				"z": 1.6342685287,
				"element": "H" 
			},
			{
				"x": -0.9830863095,
				"y": 3.2733185491,
				"z": 3.3333045414,
				"element": "H" 
			},
			{
				"x": -2.518675704,
				"y": 0.3501923169,
				"z": 0.8680166341,
				"element": "H" 
			},
			{
				"x": -1.1966731184,
				"y": -0.8347895397,
				"z": -0.7926133042,
				"element": "H" 
			}
		],
		 "valence_orbital": [ 
			{
				"type": "occ",
				"energy": -0.30323,
				"method": "rhf"
			},
			{
				"type": "occ",
				"energy": -0.27552,
				"method": "rhf"
			},
			{
				"type": "occ",
				"energy": -0.25199,
				"method": "rhf"
			},
			{
				"type": "occ",
				"energy": -0.24734,
				"method": "rhf"
			},
			{
				"type": "occ",
				"energy": -0.2177,
				"method": "rhf"
			},
			{
				"type": "unocc",
				"energy": -0.01366,
				"method": "rhf"
			},
			{
				"type": "unocc",
				"energy": -0.00938,
				"method": "rhf"
			},
			{
				"type": "unocc",
				"energy": 0.01105,
				"method": "rhf"
			},
			{
				"type": "unocc",
				"energy": 0.0359,
				"method": "rhf"
			},
			{
				"type": "unocc",
				"energy": 0.08588,
				"method": "rhf"
			}
		],
		"cosmo_sigma_profile": { 
			"-0.025": 0.0,
			"-0.024": 0.0,
			"-0.023": 0.0,
			"-0.022": 0.0,
			"-0.021": 0.0,
			"-0.02": 0.0,
			"-0.019": 0.0,
			"-0.018": 0.0,
			"-0.017": 0.0,
			"-0.016": 0.0,
			"-0.015": 0.135348215195,
			"-0.014": 1.03969326985,
			"-0.013": 1.36548604892,
			"-0.012": 1.09996725348,
			"-0.011": 1.03326653666,
			"-0.01": 1.0229110621,
			"-0.009": 1.0333426629,
			"-0.008": 1.51533516671,
			"-0.007": 1.54651532796,
			"-0.006": 11.2200882421,
			"-0.005": 27.6327836843,
			"-0.004": 37.8804649652,
			"-0.003": 31.9727003483,
			"-0.002": 25.3689171238,
			"-0.001": 19.8490199578,
			"0.0": 14.9715545862,
			"0.001": 12.4225718048,
			"0.002": 12.0567470036,
			"0.003": 12.3186564589,
			"0.004": 10.9615795945,
			"0.005": 11.1607841492,
			"0.006": 8.80778689014,
			"0.007": 3.62060797521,
			"0.008": 3.37666813823,
			"0.009": 4.50410478754,
			"0.01": 3.76654599564,
			"0.011": 4.06869138147,
			"0.012": 7.32913657757,
			"0.013": 6.02102471198,
			"0.014": 3.62054395806,
			"0.015": 0.392642166684,
			"0.016": 0.0,
			"0.017": 0.0,
			"0.018": 0.0,
			"0.019": 0.0,
			"0.02": 0.0,
			"0.021": 0.0,
			"0.022": 0.0,
			"0.023": 0.0,
			"0.024": 0.0,
			"0.025": 0.0
		}
	}
}
