{
	 "smiles": "CS(=O)(=O)NC1=CC=C(N)C=C1", 
	 "Tm": 388.15, 
	 "num_atms": 22, 
	 "gaussian": { 
		 "optdone": 1, 
		 "sigma_profile": "yes", 
		 "theory": "DFT", 
		 "functional": "B3LYP", 
		 "basiset": "6-31G**", 
		 "properties": { 
			 "R2extent": 3117.5856, 
			 "electric_dipole_moment_norm": 6.55632173555, 
			 "electric_quadrupole_moment_norm": 14.2699724856, 
			 "total_energy": -930.846397066, 
			 "HOMO_LUMO_gap": 0.19298, 
			 "cosmo_polarized_energy": -20.8, 
			 "cosmo_cavitation_energy": 27.18, 
			 "cosmo_dispersion_energy": -20.24, 
			 "cosmo_repulsion_energy": 1.57, 
			 "cosmo_total_nonelectrostatic_energy": 8.5, 
			 "SMD_solvation_energy": 4.22 
		},
		"coords": [
			{
				"x": -1.2067746807,
				"y": -2.1460737218,
				"z": 2.0424469471,
				"element": "C" 
			},
			{
				"x": -0.0339046924,
				"y": -3.015714441,
				"z": 0.9767804593,
				"element": "S" 
			},
			{
				"x": 1.2909746049,
				"y": -2.8369589851,
				"z": 1.5690398847,
				"element": "O" 
			},
			{
				"x": -0.5764459181,
				"y": -4.3412678309,
				"z": 0.6764301426,
				"element": "O" 
			},
			{
				"x": -0.0593290071,
				"y": -2.1950412499,
				"z": -0.5020726936,
				"element": "N" 
			},
			{
				"x": 0.2107488897,
				"y": -0.7962807091,
				"z": -0.6039697839,
				"element": "C" 
			},
			{
				"x": -0.7561786558,
				"y": 0.0796216172,
				"z": -1.112386357,
				"element": "C" 
			},
			{
				"x": -0.4793196959,
				"y": 1.4350192189,
				"z": -1.2655988024,
				"element": "C" 
			},
			{
				"x": 0.7666538657,
				"y": 1.9593900845,
				"z": -0.8818541082,
				"element": "C" 
			},
			{
				"x": 1.0665652469,
				"y": 3.3081904553,
				"z": -1.074560473,
				"element": "N" 
			},
			{
				"x": 1.7264572075,
				"y": 1.0750827873,
				"z": -0.3572816549,
				"element": "C" 
			},
			{
				"x": 1.4621249145,
				"y": -0.2844023839,
				"z": -0.2353584407,
				"element": "C" 
			},
			{
				"x": -1.1422023409,
				"y": -2.6074385189,
				"z": 3.0291668259,
				"element": "H" 
			},
			{
				"x": -0.9204746752,
				"y": -1.0948847702,
				"z": 2.0960897481,
				"element": "H" 
			},
			{
				"x": -2.2117592176,
				"y": -2.2602387495,
				"z": 1.6340244482,
				"element": "H" 
			},
			{
				"x": -0.8216159296,
				"y": -2.5422071153,
				"z": -1.0747077796,
				"element": "H" 
			},
			{
				"x": -1.7329801462,
				"y": -0.3022596196,
				"z": -1.400321083,
				"element": "H" 
			},
			{
				"x": -1.2364721165,
				"y": 2.0952017857,
				"z": -1.6809653433,
				"element": "H" 
			},
			{
				"x": 0.2698510311,
				"y": 3.9283728771,
				"z": -1.1160957537,
				"element": "H" 
			},
			{
				"x": 1.8021714098,
				"y": 3.6756283374,
				"z": -0.4872295044,
				"element": "H" 
			},
			{
				"x": 2.7014198098,
				"y": 1.4571030697,
				"z": -0.0652452582,
				"element": "H" 
			},
			{
				"x": 2.216490096,
				"y": -0.9589421379,
				"z": 0.1522685798,
				"element": "H" 
			}
		],
		 "valence_orbital": [ 
			{
				"type": "occ",
				"energy": -0.2998,
				"method": "rhf"
			},
			{
				"type": "occ",
				"energy": -0.29901,
				"method": "rhf"
			},
			{
				"type": "occ",
				"energy": -0.28184,
				"method": "rhf"
			},
			{
				"type": "occ",
				"energy": -0.25811,
				"method": "rhf"
			},
			{
				"type": "occ",
				"energy": -0.20294,
				"method": "rhf"
			},
			{
				"type": "unocc",
				"energy": -0.00996,
				"method": "rhf"
			},
			{
				"type": "unocc",
				"energy": 0.00188,
				"method": "rhf"
			},
			{
				"type": "unocc",
				"energy": 0.06421,
				"method": "rhf"
			},
			{
				"type": "unocc",
				"energy": 0.07152,
				"method": "rhf"
			},
			{
				"type": "unocc",
				"energy": 0.08082,
				"method": "rhf"
			}
		],
		"cosmo_sigma_profile": { 
			"-0.025": 0.0,
			"-0.024": 0.0,
			"-0.023": 0.0,
			"-0.022": 0.0,
			"-0.021": 0.0,
			"-0.02": 0.0,
			"-0.019": 0.0,
			"-0.018": 0.0,
			"-0.017": 0.0,
			"-0.016": 0.0484107500736,
			"-0.015": 0.668131628328,
			"-0.014": 1.3502959931,
			"-0.013": 1.3948882398,
			"-0.012": 3.86622344073,
			"-0.011": 4.33754147892,
			"-0.01": 4.47006809558,
			"-0.009": 6.65050764006,
			"-0.008": 8.00062101313,
			"-0.007": 9.59140830462,
			"-0.006": 12.9136720241,
			"-0.005": 11.2666103861,
			"-0.004": 15.7133337577,
			"-0.003": 12.0590974459,
			"-0.002": 8.42230855917,
			"-0.001": 8.16944491079,
			"0.0": 6.72317446736,
			"0.001": 7.28226412387,
			"0.002": 8.03120176622,
			"0.003": 8.11808550076,
			"0.004": 10.4003929856,
			"0.005": 14.4670352464,
			"0.006": 11.1089169309,
			"0.007": 4.90545980417,
			"0.008": 4.67105887708,
			"0.009": 4.9556134139,
			"0.01": 6.54693825492,
			"0.011": 10.8287470284,
			"0.012": 7.01019275383,
			"0.013": 0.740252970094,
			"0.014": 0.566968018781,
			"0.015": 0.0885179385409,
			"0.016": 0.0,
			"0.017": 0.0,
			"0.018": 0.0,
			"0.019": 0.0,
			"0.02": 0.0,
			"0.021": 0.0,
			"0.022": 0.0,
			"0.023": 0.0,
			"0.024": 0.0,
			"0.025": 0.0
		}
	}
}
