{
	 "smiles": "FC(F)(F)C1=CN=C(N2CCNCC2)C(Cl)=C1", 
	 "Tm": 339.15, 
	 "num_atms": 28, 
	 "gaussian": { 
		 "optdone": 1, 
		 "sigma_profile": "yes", 
		 "theory": "DFT", 
		 "functional": "B3LYP", 
		 "basiset": "6-31G**", 
		 "properties": { 
			 "R2extent": 6477.8422, 
			 "electric_dipole_moment_norm": 1.92251061115, 
			 "electric_quadrupole_moment_norm": 10.1542929281, 
			 "total_energy": -1311.6447456, 
			 "HOMO_LUMO_gap": 0.17983, 
			 "cosmo_polarized_energy": -7.84, 
			 "cosmo_cavitation_energy": 33.39, 
			 "cosmo_dispersion_energy": -24.06, 
			 "cosmo_repulsion_energy": 1.79, 
			 "cosmo_total_nonelectrostatic_energy": 11.12, 
			 "SMD_solvation_energy": 2.1 
		},
		"coords": [
			{
				"x": 4.2737865317,
				"y": 2.7421371334,
				"z": -0.5358488817,
				"element": "F" 
			},
			{
				"x": 2.9560558368,
				"y": 2.8544173687,
				"z": -0.8225348729,
				"element": "C" 
			},
			{
				"x": 2.8733841047,
				"y": 3.2035637391,
				"z": -2.1283874411,
				"element": "F" 
			},
			{
				"x": 2.4665083667,
				"y": 3.8904951673,
				"z": -0.1072511477,
				"element": "F" 
			},
			{
				"x": 2.2184455639,
				"y": 1.5829069316,
				"z": -0.5338633547,
				"element": "C" 
			},
			{
				"x": 0.9124419195,
				"y": 1.5852301229,
				"z": -0.0526690409,
				"element": "C" 
			},
			{
				"x": 0.1989225031,
				"y": 0.4763803673,
				"z": 0.1335158508,
				"element": "N" 
			},
			{
				"x": 0.7345222444,
				"y": -0.7328240891,
				"z": -0.1231045606,
				"element": "C" 
			},
			{
				"x": -0.0780949804,
				"y": -1.8229113411,
				"z": 0.0967193266,
				"element": "N" 
			},
			{
				"x": -1.3420348839,
				"y": -1.6011982049,
				"z": 0.8173952342,
				"element": "C" 
			},
			{
				"x": -1.9890827916,
				"y": -2.973881267,
				"z": 1.143886953,
				"element": "C" 
			},
			{
				"x": -1.0188691774,
				"y": -4.0586281351,
				"z": 1.2754411933,
				"element": "N" 
			},
			{
				"x": -0.2977327602,
				"y": -4.268536254,
				"z": 0.0120040018,
				"element": "C" 
			},
			{
				"x": -0.1538448408,
				"y": -2.9694359961,
				"z": -0.815993869,
				"element": "C" 
			},
			{
				"x": 2.1036428576,
				"y": -0.8174765977,
				"z": -0.5171822817,
				"element": "C" 
			},
			{
				"x": 2.9782232269,
				"y": -2.3441438082,
				"z": -0.5949564124,
				"element": "Cl" 
			},
			{
				"x": 2.824960143,
				"y": 0.3395685038,
				"z": -0.7460446877,
				"element": "C" 
			},
			{
				"x": 0.4175708032,
				"y": 2.5218843312,
				"z": 0.191074609,
				"element": "H" 
			},
			{
				"x": -2.0301811322,
				"y": -0.969685013,
				"z": 0.2363279442,
				"element": "H" 
			},
			{
				"x": -1.1116604263,
				"y": -1.051094024,
				"z": 1.7338262222,
				"element": "H" 
			},
			{
				"x": -2.5691292981,
				"y": -2.8869681142,
				"z": 2.068058067,
				"element": "H" 
			},
			{
				"x": -2.7000162045,
				"y": -3.2562215951,
				"z": 0.3581665736,
				"element": "H" 
			},
			{
				"x": -0.3461517878,
				"y": -3.8052751644,
				"z": 1.9943976599,
				"element": "H" 
			},
			{
				"x": -0.8261821359,
				"y": -5.0170533444,
				"z": -0.5938814553,
				"element": "H" 
			},
			{
				"x": 0.6902437592,
				"y": -4.6769757382,
				"z": 0.244516361,
				"element": "H" 
			},
			{
				"x": 0.7201877469,
				"y": -3.0107708973,
				"z": -1.461482573,
				"element": "H" 
			},
			{
				"x": -1.0277457218,
				"y": -2.8333712854,
				"z": -1.4721792525,
				"element": "H" 
			},
			{
				"x": 3.8656305333,
				"y": 0.2759672038,
				"z": -1.0432501653,
				"element": "H" 
			}
		],
		 "valence_orbital": [ 
			{
				"type": "occ",
				"energy": -0.31064,
				"method": "rhf"
			},
			{
				"type": "occ",
				"energy": -0.28296,
				"method": "rhf"
			},
			{
				"type": "occ",
				"energy": -0.2746,
				"method": "rhf"
			},
			{
				"type": "occ",
				"energy": -0.23113,
				"method": "rhf"
			},
			{
				"type": "occ",
				"energy": -0.22001,
				"method": "rhf"
			},
			{
				"type": "unocc",
				"energy": -0.04018,
				"method": "rhf"
			},
			{
				"type": "unocc",
				"energy": -0.0313,
				"method": "rhf"
			},
			{
				"type": "unocc",
				"energy": 0.01631,
				"method": "rhf"
			},
			{
				"type": "unocc",
				"energy": 0.07364,
				"method": "rhf"
			},
			{
				"type": "unocc",
				"energy": 0.09586,
				"method": "rhf"
			}
		],
		"cosmo_sigma_profile": { 
			"-0.025": 0.0,
			"-0.024": 0.0,
			"-0.023": 0.0,
			"-0.022": 0.0,
			"-0.021": 0.0,
			"-0.02": 0.0,
			"-0.019": 0.0,
			"-0.018": 0.0,
			"-0.017": 0.0,
			"-0.016": 0.0,
			"-0.015": 0.0,
			"-0.014": 0.0,
			"-0.013": 0.0,
			"-0.012": 0.0,
			"-0.011": 0.0,
			"-0.01": 0.446402691345,
			"-0.009": 2.03786399806,
			"-0.008": 2.32162418988,
			"-0.007": 3.95398792044,
			"-0.006": 5.04359486425,
			"-0.005": 8.88500058863,
			"-0.004": 24.294272763,
			"-0.003": 29.4402236985,
			"-0.002": 25.4529635405,
			"-0.001": 23.5283268577,
			"0.0": 29.5368390942,
			"0.001": 19.6574186989,
			"0.002": 26.1868235509,
			"0.003": 34.7092768129,
			"0.004": 11.6652198561,
			"0.005": 3.3532556959,
			"0.006": 2.16314784486,
			"0.007": 2.02756106747,
			"0.008": 2.61654544388,
			"0.009": 1.17699535831,
			"0.01": 1.620194378,
			"0.011": 1.52463858034,
			"0.012": 1.22003214528,
			"0.013": 1.14752817742,
			"0.014": 0.454702827226,
			"0.015": 0.472670663651,
			"0.016": 0.366429490779,
			"0.017": 0.544117774991,
			"0.018": 0.700979285312,
			"0.019": 0.059901801222,
			"0.02": 0.0,
			"0.021": 0.0,
			"0.022": 0.0,
			"0.023": 0.0,
			"0.024": 0.0,
			"0.025": 0.0
		}
	}
}
