{
	 "smiles": "COCC1=CC=C(C=C1)C(O)=O", 
	 "Tm": 363.15, 
	 "num_atms": 22, 
	 "gaussian": { 
		 "optdone": 1, 
		 "sigma_profile": "yes", 
		 "theory": "DFT", 
		 "functional": "B3LYP", 
		 "basiset": "6-31G**", 
		 "properties": { 
			 "R2extent": 2963.8741, 
			 "electric_dipole_moment_norm": 4.50531381482, 
			 "electric_quadrupole_moment_norm": 27.9104231312, 
			 "total_energy": -574.648571499, 
			 "HOMO_LUMO_gap": 0.20868, 
			 "cosmo_polarized_energy": -15.19, 
			 "cosmo_cavitation_energy": 26.13, 
			 "cosmo_dispersion_energy": -19.03, 
			 "cosmo_repulsion_energy": 1.53, 
			 "cosmo_total_nonelectrostatic_energy": 8.62, 
			 "SMD_solvation_energy": 6.18 
		},
		"coords": [
			{
				"x": 2.3386856716,
				"y": -2.2706517638,
				"z": 0.6143055442,
				"element": "C" 
			},
			{
				"x": 2.6178879435,
				"y": -0.9332921476,
				"z": 0.235118238,
				"element": "O" 
			},
			{
				"x": 1.8911194049,
				"y": 0.0259762369,
				"z": 0.9784882447,
				"element": "C" 
			},
			{
				"x": 0.4264017003,
				"y": 0.1314507708,
				"z": 0.5876105506,
				"element": "C" 
			},
			{
				"x": -0.5437713534,
				"y": 0.4976762582,
				"z": 1.5292402081,
				"element": "C" 
			},
			{
				"x": -1.8754453077,
				"y": 0.6511646127,
				"z": 1.1562384323,
				"element": "C" 
			},
			{
				"x": -2.2714465143,
				"y": 0.4128362624,
				"z": -0.1665402098,
				"element": "C" 
			},
			{
				"x": -1.3006916984,
				"y": 0.0501007126,
				"z": -1.1120654131,
				"element": "C" 
			},
			{
				"x": 0.0342914965,
				"y": -0.0854211935,
				"z": -0.7386950746,
				"element": "C" 
			},
			{
				"x": -3.7213902095,
				"y": 0.5909230069,
				"z": -0.5012491423,
				"element": "C" 
			},
			{
				"x": -4.16576269,
				"y": -0.0034647272,
				"z": -1.641996999,
				"element": "O" 
			},
			{
				"x": -4.4889786325,
				"y": 1.2232216329,
				"z": 0.1859590086,
				"element": "O" 
			},
			{
				"x": 1.2864483769,
				"y": -2.5390775937,
				"z": 0.4460943138,
				"element": "H" 
			},
			{
				"x": 2.9716769135,
				"y": -2.9143223775,
				"z": -0.0005905445,
				"element": "H" 
			},
			{
				"x": 2.5774956473,
				"y": -2.4440167439,
				"z": 1.674735406,
				"element": "H" 
			},
			{
				"x": 1.9737889435,
				"y": -0.1684696747,
				"z": 2.060200646,
				"element": "H" 
			},
			{
				"x": 2.3883777056,
				"y": 0.9841496567,
				"z": 0.7831417761,
				"element": "H" 
			},
			{
				"x": -0.2528733227,
				"y": 0.6658526715,
				"z": 2.5634361859,
				"element": "H" 
			},
			{
				"x": -2.6313707825,
				"y": 0.9461239115,
				"z": 1.8760591145,
				"element": "H" 
			},
			{
				"x": -1.5660377501,
				"y": -0.0895390479,
				"z": -2.1578530649,
				"element": "H" 
			},
			{
				"x": 0.7863915879,
				"y": -0.3606000902,
				"z": -1.4712562893,
				"element": "H" 
			},
			{
				"x": -3.4884971304,
				"y": -0.5968203731,
				"z": -1.9945809314,
				"element": "H" 
			}
		],
		 "valence_orbital": [ 
			{
				"type": "occ",
				"energy": -0.3146,
				"method": "rhf"
			},
			{
				"type": "occ",
				"energy": -0.27525,
				"method": "rhf"
			},
			{
				"type": "occ",
				"energy": -0.27209,
				"method": "rhf"
			},
			{
				"type": "occ",
				"energy": -0.27089,
				"method": "rhf"
			},
			{
				"type": "occ",
				"energy": -0.26036,
				"method": "rhf"
			},
			{
				"type": "unocc",
				"energy": -0.05168,
				"method": "rhf"
			},
			{
				"type": "unocc",
				"energy": -0.0231,
				"method": "rhf"
			},
			{
				"type": "unocc",
				"energy": 0.04557,
				"method": "rhf"
			},
			{
				"type": "unocc",
				"energy": 0.06157,
				"method": "rhf"
			},
			{
				"type": "unocc",
				"energy": 0.08813,
				"method": "rhf"
			}
		],
		"cosmo_sigma_profile": { 
			"-0.025": 0.0,
			"-0.024": 0.0,
			"-0.023": 0.0,
			"-0.022": 0.0,
			"-0.021": 0.0,
			"-0.02": 0.0,
			"-0.019": 0.0448805693267,
			"-0.018": 0.750098757424,
			"-0.017": 1.22725006476,
			"-0.016": 0.794675545765,
			"-0.015": 1.16539163802,
			"-0.014": 0.690352833897,
			"-0.013": 0.678388767578,
			"-0.012": 1.52140007241,
			"-0.011": 1.59269485022,
			"-0.01": 0.870628186335,
			"-0.009": 0.988357920691,
			"-0.008": 1.56444398726,
			"-0.007": 3.10629079093,
			"-0.006": 9.14551585486,
			"-0.005": 15.5533959467,
			"-0.004": 19.0090860277,
			"-0.003": 17.7318988677,
			"-0.002": 19.4575053243,
			"-0.001": 15.2703168,
			"0.0": 12.5174948032,
			"0.001": 10.1290921837,
			"0.002": 11.1664935631,
			"0.003": 14.426600397,
			"0.004": 8.01778849365,
			"0.005": 2.78044720313,
			"0.006": 3.97148914888,
			"0.007": 3.94675974112,
			"0.008": 3.93215477575,
			"0.009": 3.45764133814,
			"0.01": 5.82362758842,
			"0.011": 6.40334477088,
			"0.012": 6.33380431434,
			"0.013": 3.1103976907,
			"0.014": 0.217950614094,
			"0.015": 0.0,
			"0.016": 0.0,
			"0.017": 0.0,
			"0.018": 0.0,
			"0.019": 0.0,
			"0.02": 0.0,
			"0.021": 0.0,
			"0.022": 0.0,
			"0.023": 0.0,
			"0.024": 0.0,
			"0.025": 0.0
		}
	}
}
