{
	 "smiles": "SC1=C(C(=S)SS1)C1=CC=CC=C1", 
	 "Tm": 427.15, 
	 "num_atms": 19, 
	 "gaussian": { 
		 "optdone": 1, 
		 "sigma_profile": "yes", 
		 "theory": "DFT", 
		 "functional": "B3LYP", 
		 "basiset": "6-31G**", 
		 "properties": { 
			 "R2extent": 6685.2678, 
			 "electric_dipole_moment_norm": 3.94508803704, 
			 "electric_quadrupole_moment_norm": 13.2949069733, 
			 "total_energy": -1939.30328579, 
			 "HOMO_LUMO_gap": 0.13496, 
			 "cosmo_polarized_energy": -10.54, 
			 "cosmo_cavitation_energy": 29.82, 
			 "cosmo_dispersion_energy": -22.83, 
			 "cosmo_repulsion_energy": 1.64, 
			 "cosmo_total_nonelectrostatic_energy": 8.63, 
			 "SMD_solvation_energy": 2.16 
		},
		"coords": [
			{
				"x": -3.1853756243,
				"y": 0.0384985218,
				"z": 1.9227887227,
				"element": "S" 
			},
			{
				"x": -1.8525829992,
				"y": -0.0694893372,
				"z": 3.0745221488,
				"element": "C" 
			},
			{
				"x": -0.5110630688,
				"y": -0.1693566557,
				"z": 2.7835660027,
				"element": "C" 
			},
			{
				"x": 0.4049247041,
				"y": -0.2847756054,
				"z": 3.8958485313,
				"element": "C" 
			},
			{
				"x": 2.0575070599,
				"y": -0.4274757309,
				"z": 3.8870050697,
				"element": "S" 
			},
			{
				"x": -0.3881463641,
				"y": -0.2666126051,
				"z": 5.4732230614,
				"element": "S" 
			},
			{
				"x": -2.3705852146,
				"y": -0.0650162919,
				"z": 4.7512839676,
				"element": "S" 
			},
			{
				"x": 0.0084911583,
				"y": -0.169454432,
				"z": 1.3864638962,
				"element": "C" 
			},
			{
				"x": 0.0521272832,
				"y": 1.0207656209,
				"z": 0.643392209,
				"element": "C" 
			},
			{
				"x": 0.5357224383,
				"y": 1.0187063691,
				"z": -0.6661228357,
				"element": "C" 
			},
			{
				"x": 0.9813034443,
				"y": -0.1705517367,
				"z": -1.2446788498,
				"element": "C" 
			},
			{
				"x": 0.9446743227,
				"y": -1.3582512986,
				"z": -0.5103397189,
				"element": "C" 
			},
			{
				"x": 0.4626497952,
				"y": -1.3593429972,
				"z": 0.7977434147,
				"element": "C" 
			},
			{
				"x": -2.3891972943,
				"y": 0.0442292168,
				"z": 0.8323557919,
				"element": "H" 
			},
			{
				"x": -0.2818909175,
				"y": 1.9482183927,
				"z": 1.0997688066,
				"element": "H" 
			},
			{
				"x": 0.5692609231,
				"y": 1.9466807392,
				"z": -1.2292714002,
				"element": "H" 
			},
			{
				"x": 1.3592521079,
				"y": -0.172004711,
				"z": -2.2628738247,
				"element": "H" 
			},
			{
				"x": 1.2942773412,
				"y": -2.2850122098,
				"z": -0.9555054475,
				"element": "H" 
			},
			{
				"x": 0.4406509046,
				"y": -2.2805552488,
				"z": 1.3712304542,
				"element": "H" 
			}
		],
		 "valence_orbital": [ 
			{
				"type": "occ",
				"energy": -0.26921,
				"method": "rhf"
			},
			{
				"type": "occ",
				"energy": -0.26602,
				"method": "rhf"
			},
			{
				"type": "occ",
				"energy": -0.25638,
				"method": "rhf"
			},
			{
				"type": "occ",
				"energy": -0.223,
				"method": "rhf"
			},
			{
				"type": "occ",
				"energy": -0.22174,
				"method": "rhf"
			},
			{
				"type": "unocc",
				"energy": -0.08678,
				"method": "rhf"
			},
			{
				"type": "unocc",
				"energy": -0.07683,
				"method": "rhf"
			},
			{
				"type": "unocc",
				"energy": -0.02466,
				"method": "rhf"
			},
			{
				"type": "unocc",
				"energy": -0.01887,
				"method": "rhf"
			},
			{
				"type": "unocc",
				"energy": -0.01367,
				"method": "rhf"
			}
		],
		"cosmo_sigma_profile": { 
			"-0.025": 0.0,
			"-0.024": 0.0,
			"-0.023": 0.0,
			"-0.022": 0.0,
			"-0.021": 0.0,
			"-0.02": 0.0,
			"-0.019": 0.0,
			"-0.018": 0.0,
			"-0.017": 0.0,
			"-0.016": 0.0,
			"-0.015": 0.0,
			"-0.014": 0.0,
			"-0.013": 0.0438992323051,
			"-0.012": 0.589756701251,
			"-0.011": 0.754428806698,
			"-0.01": 1.35891843276,
			"-0.009": 1.44932311738,
			"-0.008": 2.25436545535,
			"-0.007": 3.22736102037,
			"-0.006": 13.9137769089,
			"-0.005": 17.2299886136,
			"-0.004": 19.2075905639,
			"-0.003": 17.3047922313,
			"-0.002": 19.448579127,
			"-0.001": 21.0490561661,
			"0.0": 20.713485323,
			"0.001": 19.2596199131,
			"0.002": 21.8631420697,
			"0.003": 17.9149000637,
			"0.004": 12.7808824523,
			"0.005": 10.602042685,
			"0.006": 7.19055987571,
			"0.007": 8.96429006415,
			"0.008": 6.02049216378,
			"0.009": 4.56440337422,
			"0.01": 2.27546771717,
			"0.011": 0.0318485602086,
			"0.012": 0.0,
			"0.013": 0.0,
			"0.014": 0.0,
			"0.015": 0.0,
			"0.016": 0.0,
			"0.017": 0.0,
			"0.018": 0.0,
			"0.019": 0.0,
			"0.02": 0.0,
			"0.021": 0.0,
			"0.022": 0.0,
			"0.023": 0.0,
			"0.024": 0.0,
			"0.025": 0.0
		}
	}
}
