{
	 "smiles": "CC(C)(C)C(C)(C)Cl", 
	 "Tm": 409.15, 
	 "num_atms": 23, 
	 "gaussian": { 
		 "optdone": 1, 
		 "sigma_profile": "yes", 
		 "theory": "DFT", 
		 "functional": "B3LYP", 
		 "basiset": "6-31G**", 
		 "properties": { 
			 "R2extent": 1380.3396, 
			 "electric_dipole_moment_norm": 2.37170686426, 
			 "electric_quadrupole_moment_norm": 4.73556649198, 
			 "total_energy": -736.003200278, 
			 "HOMO_LUMO_gap": 0.30031, 
			 "cosmo_polarized_energy": -4.02, 
			 "cosmo_cavitation_energy": 23.77, 
			 "cosmo_dispersion_energy": -17.35, 
			 "cosmo_repulsion_energy": 1.38, 
			 "cosmo_total_nonelectrostatic_energy": 7.8, 
			 "SMD_solvation_energy": 4.17 
		},
		"coords": [
			{
				"x": -1.8087728911,
				"y": 0.9949259985,
				"z": 1.5069761689,
				"element": "C" 
			},
			{
				"x": -0.6705136441,
				"y": 0.7423161834,
				"z": 0.4945585657,
				"element": "C" 
			},
			{
				"x": -1.236532283,
				"y": 0.9360448853,
				"z": -0.9290160825,
				"element": "C" 
			},
			{
				"x": 0.4184685101,
				"y": 1.8202490898,
				"z": 0.7242235221,
				"element": "C" 
			},
			{
				"x": -0.0402059531,
				"y": -0.6909366079,
				"z": 0.6771715864,
				"element": "C" 
			},
			{
				"x": 1.0521764969,
				"y": -1.0231686478,
				"z": -0.3460974109,
				"element": "C" 
			},
			{
				"x": 0.4806910751,
				"y": -0.9636998088,
				"z": 2.0932000808,
				"element": "C" 
			},
			{
				"x": -1.3819753627,
				"y": -1.9753838053,
				"z": 0.3941772663,
				"element": "Cl" 
			},
			{
				"x": -2.6051510668,
				"y": 0.2536502264,
				"z": 1.4094821767,
				"element": "H" 
			},
			{
				"x": -2.2433112624,
				"y": 1.9836714825,
				"z": 1.3268096861,
				"element": "H" 
			},
			{
				"x": -1.4529961977,
				"y": 0.9821554832,
				"z": 2.5413025719,
				"element": "H" 
			},
			{
				"x": -0.457519215,
				"y": 0.8810896949,
				"z": -1.6949630075,
				"element": "H" 
			},
			{
				"x": -1.6963829847,
				"y": 1.9267364769,
				"z": -1.0062068052,
				"element": "H" 
			},
			{
				"x": -2.0000325608,
				"y": 0.1906398162,
				"z": -1.1627947328,
				"element": "H" 
			},
			{
				"x": -0.0278679191,
				"y": 2.8115970574,
				"z": 0.595039067,
				"element": "H" 
			},
			{
				"x": 0.8359826785,
				"y": 1.7830354368,
				"z": 1.7344911418,
				"element": "H" 
			},
			{
				"x": 1.2417435899,
				"y": 1.7407826268,
				"z": 0.0084909901,
				"element": "H" 
			},
			{
				"x": 1.9051414493,
				"y": -0.3482316366,
				"z": -0.2208025019,
				"element": "H" 
			},
			{
				"x": 1.4084126573,
				"y": -2.0443027056,
				"z": -0.191261051,
				"element": "H" 
			},
			{
				"x": 0.6940334802,
				"y": -0.9438612658,
				"z": -1.3733355305,
				"element": "H" 
			},
			{
				"x": -0.2954047327,
				"y": -0.8410156799,
				"z": 2.8497721338,
				"element": "H" 
			},
			{
				"x": 0.8576786869,
				"y": -1.9869391751,
				"z": 2.1599776485,
				"element": "H" 
			},
			{
				"x": 1.3077374492,
				"y": -0.2859551253,
				"z": 2.3286045163,
				"element": "H" 
			}
		],
		 "valence_orbital": [ 
			{
				"type": "occ",
				"energy": -0.3289,
				"method": "rhf"
			},
			{
				"type": "occ",
				"energy": -0.32241,
				"method": "rhf"
			},
			{
				"type": "occ",
				"energy": -0.32048,
				"method": "rhf"
			},
			{
				"type": "occ",
				"energy": -0.28231,
				"method": "rhf"
			},
			{
				"type": "occ",
				"energy": -0.28111,
				"method": "rhf"
			},
			{
				"type": "unocc",
				"energy": 0.0192,
				"method": "rhf"
			},
			{
				"type": "unocc",
				"energy": 0.07274,
				"method": "rhf"
			},
			{
				"type": "unocc",
				"energy": 0.11812,
				"method": "rhf"
			},
			{
				"type": "unocc",
				"energy": 0.12164,
				"method": "rhf"
			},
			{
				"type": "unocc",
				"energy": 0.12263,
				"method": "rhf"
			}
		],
		"cosmo_sigma_profile": { 
			"-0.025": 0.0,
			"-0.024": 0.0,
			"-0.023": 0.0,
			"-0.022": 0.0,
			"-0.021": 0.0,
			"-0.02": 0.0,
			"-0.019": 0.0,
			"-0.018": 0.0,
			"-0.017": 0.0,
			"-0.016": 0.0,
			"-0.015": 0.0,
			"-0.014": 0.0,
			"-0.013": 0.0,
			"-0.012": 0.0,
			"-0.011": 0.0,
			"-0.01": 0.0,
			"-0.009": 0.0,
			"-0.008": 0.0,
			"-0.007": 0.0,
			"-0.006": 0.0,
			"-0.005": 1.53629953912,
			"-0.004": 14.3456897064,
			"-0.003": 25.8392792052,
			"-0.002": 24.7497907493,
			"-0.001": 23.9294922074,
			"0.0": 26.5985514,
			"0.001": 24.951358452,
			"0.002": 11.6531381127,
			"0.003": 5.96006525996,
			"0.004": 4.91434483112,
			"0.005": 5.05895800605,
			"0.006": 7.03327690414,
			"0.007": 5.56461837407,
			"0.008": 2.8756134836,
			"0.009": 0.0,
			"0.01": 0.0,
			"0.011": 0.0,
			"0.012": 0.0,
			"0.013": 0.0,
			"0.014": 0.0,
			"0.015": 0.0,
			"0.016": 0.0,
			"0.017": 0.0,
			"0.018": 0.0,
			"0.019": 0.0,
			"0.02": 0.0,
			"0.021": 0.0,
			"0.022": 0.0,
			"0.023": 0.0,
			"0.024": 0.0,
			"0.025": 0.0
		}
	}
}
