{
	 "smiles": "CC(CC(O)=O)NC1=NS(=O)(=O)C2=C1C=CC=C2", 
	 "Tm": 519.15, 
	 "num_atms": 30, 
	 "gaussian": { 
		 "optdone": 1, 
		 "sigma_profile": "yes", 
		 "theory": "DFT", 
		 "functional": "B3LYP", 
		 "basiset": "6-31G**", 
		 "properties": { 
			 "R2extent": 6085.7437, 
			 "electric_dipole_moment_norm": 7.8790541888, 
			 "electric_quadrupole_moment_norm": 34.0605493168, 
			 "total_energy": -1234.93969223, 
			 "HOMO_LUMO_gap": 0.18141, 
			 "cosmo_polarized_energy": -31.21, 
			 "cosmo_cavitation_energy": 36.0, 
			 "cosmo_dispersion_energy": -25.89, 
			 "cosmo_repulsion_energy": 1.98, 
			 "cosmo_total_nonelectrostatic_energy": 12.09, 
			 "SMD_solvation_energy": 5.05 
		},
		"coords": [
			{
				"x": 2.5591412787,
				"y": -1.2137699468,
				"z": 1.55272469,
				"element": "C" 
			},
			{
				"x": 1.0994342292,
				"y": -1.0438346263,
				"z": 1.1306589829,
				"element": "C" 
			},
			{
				"x": 0.3009485913,
				"y": -2.3669324884,
				"z": 1.1641136456,
				"element": "C" 
			},
			{
				"x": 0.2282803752,
				"y": -3.022993395,
				"z": 2.5257625156,
				"element": "C" 
			},
			{
				"x": -0.0273396118,
				"y": -2.1244379643,
				"z": 3.5094571095,
				"element": "O" 
			},
			{
				"x": 0.3587741658,
				"y": -4.206572938,
				"z": 2.742293017,
				"element": "O" 
			},
			{
				"x": 1.0597289801,
				"y": -0.4603524157,
				"z": -0.215161986,
				"element": "N" 
			},
			{
				"x": -0.0160268472,
				"y": 0.1804076029,
				"z": -0.7145978239,
				"element": "C" 
			},
			{
				"x": -1.0983422215,
				"y": 0.3551916887,
				"z": -0.0032966316,
				"element": "N" 
			},
			{
				"x": -2.2481573679,
				"y": 1.2144926191,
				"z": -0.898595568,
				"element": "S" 
			},
			{
				"x": -3.4003941583,
				"y": 0.354083691,
				"z": -1.1713137736,
				"element": "O" 
			},
			{
				"x": -2.4592709325,
				"y": 2.5368632572,
				"z": -0.3081869628,
				"element": "O" 
			},
			{
				"x": -1.2158075945,
				"y": 1.3548468495,
				"z": -2.3721254254,
				"element": "C" 
			},
			{
				"x": -0.0007754105,
				"y": 0.729560558,
				"z": -2.1042615853,
				"element": "C" 
			},
			{
				"x": 0.9966173987,
				"y": 0.7004892083,
				"z": -3.0783569199,
				"element": "C" 
			},
			{
				"x": 0.7391153921,
				"y": 1.3043149148,
				"z": -4.3130315582,
				"element": "C" 
			},
			{
				"x": -0.4881822084,
				"y": 1.926720572,
				"z": -4.5660206548,
				"element": "C" 
			},
			{
				"x": -1.4887377592,
				"y": 1.9612654646,
				"z": -3.5876695539,
				"element": "C" 
			},
			{
				"x": 2.6151722728,
				"y": -1.5930067518,
				"z": 2.5757231147,
				"element": "H" 
			},
			{
				"x": 3.0818969457,
				"y": -1.9268400251,
				"z": 0.9031164991,
				"element": "H" 
			},
			{
				"x": 3.0881307013,
				"y": -0.2569446804,
				"z": 1.5174596665,
				"element": "H" 
			},
			{
				"x": 0.6021944192,
				"y": -0.3317456744,
				"z": 1.7942987535,
				"element": "H" 
			},
			{
				"x": 0.7249241698,
				"y": -3.0996463868,
				"z": 0.4724414631,
				"element": "H" 
			},
			{
				"x": -0.7263969295,
				"y": -2.1504487691,
				"z": 0.8484064008,
				"element": "H" 
			},
			{
				"x": -0.0892986152,
				"y": -2.6344004915,
				"z": 4.3348605391,
				"element": "H" 
			},
			{
				"x": 1.8246979161,
				"y": -0.6658351283,
				"z": -0.8399867021,
				"element": "H" 
			},
			{
				"x": 1.9591486553,
				"y": 0.2286883923,
				"z": -2.9004244295,
				"element": "H" 
			},
			{
				"x": 1.5029311348,
				"y": 1.291155575,
				"z": -5.0842167447,
				"element": "H" 
			},
			{
				"x": -0.6658223394,
				"y": 2.3896408706,
				"z": -5.5318481787,
				"element": "H" 
			},
			{
				"x": -2.4421846305,
				"y": 2.4443404179,
				"z": -3.7740218988,
				"element": "H" 
			}
		],
		 "valence_orbital": [ 
			{
				"type": "occ",
				"energy": -0.291,
				"method": "rhf"
			},
			{
				"type": "occ",
				"energy": -0.28711,
				"method": "rhf"
			},
			{
				"type": "occ",
				"energy": -0.27916,
				"method": "rhf"
			},
			{
				"type": "occ",
				"energy": -0.27397,
				"method": "rhf"
			},
			{
				"type": "occ",
				"energy": -0.25285,
				"method": "rhf"
			},
			{
				"type": "unocc",
				"energy": -0.07144,
				"method": "rhf"
			},
			{
				"type": "unocc",
				"energy": -0.04468,
				"method": "rhf"
			},
			{
				"type": "unocc",
				"energy": 0.00075,
				"method": "rhf"
			},
			{
				"type": "unocc",
				"energy": 0.02828,
				"method": "rhf"
			},
			{
				"type": "unocc",
				"energy": 0.03955,
				"method": "rhf"
			}
		],
		"cosmo_sigma_profile": { 
			"-0.025": 0.0,
			"-0.024": 0.0,
			"-0.023": 0.0,
			"-0.022": 0.0,
			"-0.021": 0.0,
			"-0.02": 0.0,
			"-0.019": 0.125157497413,
			"-0.018": 0.685220749722,
			"-0.017": 1.11326381891,
			"-0.016": 1.60357709998,
			"-0.015": 2.17918675988,
			"-0.014": 1.92656891384,
			"-0.013": 1.66642160738,
			"-0.012": 2.84231431753,
			"-0.011": 3.03282380928,
			"-0.01": 2.44167883517,
			"-0.009": 3.67559378446,
			"-0.008": 7.08426595279,
			"-0.007": 13.2077273032,
			"-0.006": 15.1058105117,
			"-0.005": 15.301697481,
			"-0.004": 19.4836960806,
			"-0.003": 22.1568365064,
			"-0.002": 17.9250586582,
			"-0.001": 19.1386106135,
			"0.0": 17.2492643655,
			"0.001": 19.0552735759,
			"0.002": 15.0790620816,
			"0.003": 5.23209709842,
			"0.004": 6.47593812873,
			"0.005": 5.20769051836,
			"0.006": 3.74218109986,
			"0.007": 7.8827776434,
			"0.008": 6.3699714541,
			"0.009": 7.29420569696,
			"0.01": 10.8724410167,
			"0.011": 20.7296993927,
			"0.012": 10.0003602333,
			"0.013": 0.735327003403,
			"0.014": 0.0,
			"0.015": 0.0,
			"0.016": 0.0,
			"0.017": 0.0,
			"0.018": 0.0,
			"0.019": 0.0,
			"0.02": 0.0,
			"0.021": 0.0,
			"0.022": 0.0,
			"0.023": 0.0,
			"0.024": 0.0,
			"0.025": 0.0
		}
	}
}
