{
	 "smiles": "CC1=CC(C(=O)NC2=NC(CC(O)=O)=CS2)=C(O)C=C1", 
	 "Tm": 545.15, 
	 "num_atms": 32, 
	 "gaussian": { 
		 "optdone": 1, 
		 "sigma_profile": "yes", 
		 "theory": "DFT", 
		 "functional": "B3LYP", 
		 "basiset": "6-31G**", 
		 "properties": { 
			 "R2extent": 10847.5948, 
			 "electric_dipole_moment_norm": 4.61097823677, 
			 "electric_quadrupole_moment_norm": 23.2213152584, 
			 "total_energy": -1311.22644007, 
			 "HOMO_LUMO_gap": 0.16223, 
			 "cosmo_polarized_energy": -25.1, 
			 "cosmo_cavitation_energy": 39.24, 
			 "cosmo_dispersion_energy": -29.15, 
			 "cosmo_repulsion_energy": 2.2, 
			 "cosmo_total_nonelectrostatic_energy": 12.29, 
			 "SMD_solvation_energy": 7.2 
		},
		"coords": [
			{
				"x": 2.2379752398,
				"y": -4.1553628258,
				"z": 1.7382495594,
				"element": "C" 
			},
			{
				"x": 0.9852697341,
				"y": -3.4507284449,
				"z": 1.2724011262,
				"element": "C" 
			},
			{
				"x": 0.9596791267,
				"y": -2.0715317841,
				"z": 1.0735806688,
				"element": "C" 
			},
			{
				"x": -0.1777454254,
				"y": -1.3801799444,
				"z": 0.6250707745,
				"element": "C" 
			},
			{
				"x": 0.0008702626,
				"y": 0.1144549172,
				"z": 0.4757386308,
				"element": "C" 
			},
			{
				"x": 1.0653495373,
				"y": 0.64818852,
				"z": 0.7349713587,
				"element": "O" 
			},
			{
				"x": -1.1150371087,
				"y": 0.8163894273,
				"z": 0.0302636478,
				"element": "N" 
			},
			{
				"x": -1.2043012888,
				"y": 2.1817066719,
				"z": -0.1852544767,
				"element": "C" 
			},
			{
				"x": -0.2752451208,
				"y": 3.0698267279,
				"z": -0.022294363,
				"element": "N" 
			},
			{
				"x": -0.7380592626,
				"y": 4.3362188031,
				"z": -0.3389348056,
				"element": "C" 
			},
			{
				"x": 0.2654955868,
				"y": 5.446513551,
				"z": -0.1834999665,
				"element": "C" 
			},
			{
				"x": -0.1864674601,
				"y": 6.8497431308,
				"z": -0.5163614868,
				"element": "C" 
			},
			{
				"x": 0.8297160768,
				"y": 7.7259464863,
				"z": -0.3244422278,
				"element": "O" 
			},
			{
				"x": -1.2783300844,
				"y": 7.2090953132,
				"z": -0.9021357926,
				"element": "O" 
			},
			{
				"x": -2.0356381993,
				"y": 4.4164024671,
				"z": -0.7486828085,
				"element": "C" 
			},
			{
				"x": -2.7580135436,
				"y": 2.8313039482,
				"z": -0.7519370826,
				"element": "S" 
			},
			{
				"x": -1.3393773921,
				"y": -2.1336975431,
				"z": 0.3699673005,
				"element": "C" 
			},
			{
				"x": -2.4794960719,
				"y": -1.4992532438,
				"z": -0.0698809112,
				"element": "O" 
			},
			{
				"x": -1.3377917501,
				"y": -3.5176078826,
				"z": 0.564659769,
				"element": "C" 
			},
			{
				"x": -0.1916366043,
				"y": -4.1664260943,
				"z": 1.0102233386,
				"element": "C" 
			},
			{
				"x": 2.0236170608,
				"y": -4.8610227978,
				"z": 2.5480801703,
				"element": "H" 
			},
			{
				"x": 2.9812907987,
				"y": -3.4413937119,
				"z": 2.1020642092,
				"element": "H" 
			},
			{
				"x": 2.7003842994,
				"y": -4.7276366601,
				"z": 0.9247703403,
				"element": "H" 
			},
			{
				"x": 1.8413677109,
				"y": -1.4686185438,
				"z": 1.2650996454,
				"element": "H" 
			},
			{
				"x": -1.9470627087,
				"y": 0.2681251543,
				"z": -0.1527026474,
				"element": "H" 
			},
			{
				"x": 1.1501282667,
				"y": 5.2284093432,
				"z": -0.7954239266,
				"element": "H" 
			},
			{
				"x": 0.6449519825,
				"y": 5.4551808877,
				"z": 0.8463233337,
				"element": "H" 
			},
			{
				"x": 0.4759697982,
				"y": 8.6015200011,
				"z": -0.5541857163,
				"element": "H" 
			},
			{
				"x": -2.5890810258,
				"y": 5.2940689288,
				"z": -1.0399314077,
				"element": "H" 
			},
			{
				"x": -3.185942758,
				"y": -2.1444771584,
				"z": -0.1980895022,
				"element": "H" 
			},
			{
				"x": -2.2449388725,
				"y": -4.0856464465,
				"z": 0.3669599038,
				"element": "H" 
			},
			{
				"x": -0.2159008042,
				"y": -5.2434111976,
				"z": 1.1565333445,
				"element": "H" 
			}
		],
		 "valence_orbital": [ 
			{
				"type": "occ",
				"energy": -0.27003,
				"method": "rhf"
			},
			{
				"type": "occ",
				"energy": -0.26192,
				"method": "rhf"
			},
			{
				"type": "occ",
				"energy": -0.24229,
				"method": "rhf"
			},
			{
				"type": "occ",
				"energy": -0.23582,
				"method": "rhf"
			},
			{
				"type": "occ",
				"energy": -0.2102,
				"method": "rhf"
			},
			{
				"type": "unocc",
				"energy": -0.04797,
				"method": "rhf"
			},
			{
				"type": "unocc",
				"energy": -0.00269,
				"method": "rhf"
			},
			{
				"type": "unocc",
				"energy": 0.00039,
				"method": "rhf"
			},
			{
				"type": "unocc",
				"energy": 0.00927,
				"method": "rhf"
			},
			{
				"type": "unocc",
				"energy": 0.01177,
				"method": "rhf"
			}
		],
		"cosmo_sigma_profile": { 
			"-0.025": 0.0,
			"-0.024": 0.0,
			"-0.023": 0.0,
			"-0.022": 0.0,
			"-0.021": 0.0,
			"-0.02": 0.0,
			"-0.019": 0.809713749224,
			"-0.018": 2.00396811562,
			"-0.017": 2.11686331115,
			"-0.016": 1.83897569729,
			"-0.015": 1.78770262271,
			"-0.014": 1.5803736478,
			"-0.013": 1.4890443089,
			"-0.012": 2.01083379962,
			"-0.011": 1.41356476035,
			"-0.01": 2.28674631481,
			"-0.009": 2.60871237203,
			"-0.008": 4.5163507529,
			"-0.007": 10.5160279689,
			"-0.006": 11.7108941772,
			"-0.005": 13.6420592578,
			"-0.004": 18.6144206677,
			"-0.003": 20.3267723656,
			"-0.002": 21.6958938732,
			"-0.001": 21.957277161,
			"0.0": 26.8397850777,
			"0.001": 25.0747017135,
			"0.002": 25.4704596967,
			"0.003": 23.8030847213,
			"0.004": 22.2406179046,
			"0.005": 6.05466306524,
			"0.006": 4.84244534176,
			"0.007": 5.29244151927,
			"0.008": 3.98976431089,
			"0.009": 5.8295168892,
			"0.01": 4.52845077462,
			"0.011": 4.77532607351,
			"0.012": 4.46327089665,
			"0.013": 3.06021850892,
			"0.014": 1.30905461676,
			"0.015": 1.05141309131,
			"0.016": 1.67575162444,
			"0.017": 0.870997134639,
			"0.018": 0.874571186529,
			"0.019": 0.698766250842,
			"0.02": 0.0908000327448,
			"0.021": 0.0,
			"0.022": 0.0,
			"0.023": 0.0,
			"0.024": 0.0,
			"0.025": 0.0
		}
	}
}
