{
	 "smiles": "CC1=NC2=C(S1)C=C(N)C=C2", 
	 "Tm": 396.15, 
	 "num_atms": 19, 
	 "gaussian": { 
		 "optdone": 1, 
		 "sigma_profile": "yes", 
		 "theory": "DFT", 
		 "functional": "B3LYP", 
		 "basiset": "6-31G**", 
		 "properties": { 
			 "R2extent": 2452.785, 
			 "electric_dipole_moment_norm": 2.16619695088, 
			 "electric_quadrupole_moment_norm": 12.7987734229, 
			 "total_energy": -817.379722173, 
			 "HOMO_LUMO_gap": 0.17934, 
			 "cosmo_polarized_energy": -10.95, 
			 "cosmo_cavitation_energy": 24.4, 
			 "cosmo_dispersion_energy": -18.91, 
			 "cosmo_repulsion_energy": 1.47, 
			 "cosmo_total_nonelectrostatic_energy": 6.96, 
			 "SMD_solvation_energy": 1.99 
		},
		"coords": [
			{
				"x": -0.3239084978,
				"y": 1.5205735137,
				"z": 3.560507987,
				"element": "C" 
			},
			{
				"x": 0.1851912761,
				"y": 0.9987252319,
				"z": 2.2533265973,
				"element": "C" 
			},
			{
				"x": 0.4590597245,
				"y": -0.2396279241,
				"z": 2.0123970147,
				"element": "N" 
			},
			{
				"x": 0.9106150069,
				"y": -0.421635289,
				"z": 0.7127812244,
				"element": "C" 
			},
			{
				"x": 0.9843494972,
				"y": 0.7480983216,
				"z": -0.0802110543,
				"element": "C" 
			},
			{
				"x": 0.4562251451,
				"y": 2.1177402881,
				"z": 0.8790529818,
				"element": "S" 
			},
			{
				"x": 1.42463757,
				"y": 0.7188112711,
				"z": -1.4024043148,
				"element": "C" 
			},
			{
				"x": 1.8010439047,
				"y": -0.5127306122,
				"z": -1.9578510439,
				"element": "C" 
			},
			{
				"x": 2.1910278475,
				"y": -0.5968315192,
				"z": -3.2969114309,
				"element": "N" 
			},
			{
				"x": 1.7276890375,
				"y": -1.6859675288,
				"z": -1.1699200191,
				"element": "C" 
			},
			{
				"x": 1.2905968887,
				"y": -1.6454725791,
				"z": 0.1449296955,
				"element": "C" 
			},
			{
				"x": -0.4168692685,
				"y": 0.6850962389,
				"z": 4.2567451958,
				"element": "H" 
			},
			{
				"x": -1.3034124497,
				"y": 1.9977801454,
				"z": 3.4461053847,
				"element": "H" 
			},
			{
				"x": 0.3581981108,
				"y": 2.2641458959,
				"z": 3.9872055913,
				"element": "H" 
			},
			{
				"x": 1.4727941919,
				"y": 1.6244274411,
				"z": -2.0001007581,
				"element": "H" 
			},
			{
				"x": 2.7784466887,
				"y": -1.3881354496,
				"z": -3.5214224524,
				"element": "H" 
			},
			{
				"x": 2.5503742315,
				"y": 0.2601558572,
				"z": -3.6946014153,
				"element": "H" 
			},
			{
				"x": 2.0164184715,
				"y": -2.6351712914,
				"z": -1.613816943,
				"element": "H" 
			},
			{
				"x": 1.2389226233,
				"y": -2.5481820114,
				"z": 0.7449877592,
				"element": "H" 
			}
		],
		 "valence_orbital": [ 
			{
				"type": "occ",
				"energy": -0.29316,
				"method": "rhf"
			},
			{
				"type": "occ",
				"energy": -0.28638,
				"method": "rhf"
			},
			{
				"type": "occ",
				"energy": -0.26495,
				"method": "rhf"
			},
			{
				"type": "occ",
				"energy": -0.22821,
				"method": "rhf"
			},
			{
				"type": "occ",
				"energy": -0.19657,
				"method": "rhf"
			},
			{
				"type": "unocc",
				"energy": -0.01723,
				"method": "rhf"
			},
			{
				"type": "unocc",
				"energy": 0.00051,
				"method": "rhf"
			},
			{
				"type": "unocc",
				"energy": 0.0182,
				"method": "rhf"
			},
			{
				"type": "unocc",
				"energy": 0.05033,
				"method": "rhf"
			},
			{
				"type": "unocc",
				"energy": 0.08001,
				"method": "rhf"
			}
		],
		"cosmo_sigma_profile": { 
			"-0.025": 0.0,
			"-0.024": 0.0,
			"-0.023": 0.0,
			"-0.022": 0.0,
			"-0.021": 0.0,
			"-0.02": 0.0,
			"-0.019": 0.0,
			"-0.018": 0.0,
			"-0.017": 0.0,
			"-0.016": 0.0,
			"-0.015": 0.0,
			"-0.014": 0.0,
			"-0.013": 0.65532533622,
			"-0.012": 2.88499371323,
			"-0.011": 2.63383095285,
			"-0.01": 3.45993295997,
			"-0.009": 2.72707373803,
			"-0.008": 2.70768581768,
			"-0.007": 5.22205963651,
			"-0.006": 9.55250835554,
			"-0.005": 12.4258317474,
			"-0.004": 13.6668526397,
			"-0.003": 11.9833988705,
			"-0.002": 13.1235424171,
			"-0.001": 12.6218678397,
			"0.0": 8.44628900991,
			"0.001": 11.3596961166,
			"0.002": 12.9305348714,
			"0.003": 14.8019474853,
			"0.004": 16.7006212302,
			"0.005": 16.7170263523,
			"0.006": 6.55666525722,
			"0.007": 3.15043949647,
			"0.008": 1.80199742736,
			"0.009": 1.28249440386,
			"0.01": 1.54888331018,
			"0.011": 2.25767805052,
			"0.012": 1.59442786333,
			"0.013": 1.81069752737,
			"0.014": 1.1570367645,
			"0.015": 0.751784558114,
			"0.016": 0.217325485867,
			"0.017": 0.0,
			"0.018": 0.0,
			"0.019": 0.0,
			"0.02": 0.0,
			"0.021": 0.0,
			"0.022": 0.0,
			"0.023": 0.0,
			"0.024": 0.0,
			"0.025": 0.0
		}
	}
}
