{
	 "smiles": "COC(=O)C1=CC2=C(NC=C2C=O)C=C1", 
	 "Tm": 504.15, 
	 "num_atms": 24, 
	 "gaussian": { 
		 "optdone": 1, 
		 "sigma_profile": "yes", 
		 "theory": "DFT", 
		 "functional": "B3LYP", 
		 "basiset": "6-31G**", 
		 "properties": { 
			 "R2extent": 4346.9095, 
			 "electric_dipole_moment_norm": 2.82151135564, 
			 "electric_quadrupole_moment_norm": 34.6521962741, 
			 "total_energy": -705.027224697, 
			 "HOMO_LUMO_gap": 0.17202, 
			 "cosmo_polarized_energy": -18.19, 
			 "cosmo_cavitation_energy": 29.56, 
			 "cosmo_dispersion_energy": -21.45, 
			 "cosmo_repulsion_energy": 1.66, 
			 "cosmo_total_nonelectrostatic_energy": 9.77, 
			 "SMD_solvation_energy": 7.58 
		},
		"coords": [
			{
				"x": 2.2536971875,
				"y": -1.3280842829,
				"z": 2.7207172715,
				"element": "C" 
			},
			{
				"x": 1.3196735121,
				"y": -0.5620504952,
				"z": 1.9460577417,
				"element": "O" 
			},
			{
				"x": 1.3768927448,
				"y": -0.7661505746,
				"z": 0.608312436,
				"element": "C" 
			},
			{
				"x": 2.160035147,
				"y": -1.541057795,
				"z": 0.0921459189,
				"element": "O" 
			},
			{
				"x": 0.3853312258,
				"y": 0.0551586438,
				"z": -0.1385994416,
				"element": "C" 
			},
			{
				"x": -0.4888264488,
				"y": 0.9285764346,
				"z": 0.5119327387,
				"element": "C" 
			},
			{
				"x": -1.3968163631,
				"y": 1.67121149,
				"z": -0.2537832238,
				"element": "C" 
			},
			{
				"x": -1.3965385124,
				"y": 1.509720491,
				"z": -1.6654235684,
				"element": "C" 
			},
			{
				"x": -2.3760299721,
				"y": 2.3471898469,
				"z": -2.173128,
				"element": "N" 
			},
			{
				"x": -2.9860111382,
				"y": 3.0215917214,
				"z": -1.1512799274,
				"element": "C" 
			},
			{
				"x": -2.4244503091,
				"y": 2.6458316223,
				"z": 0.0535959635,
				"element": "C" 
			},
			{
				"x": -2.8345456375,
				"y": 3.1691049914,
				"z": 1.3517118447,
				"element": "C" 
			},
			{
				"x": -3.7193820256,
				"y": 3.9959287701,
				"z": 1.5137731813,
				"element": "O" 
			},
			{
				"x": -0.5249372017,
				"y": 0.6374905668,
				"z": -2.326329358,
				"element": "C" 
			},
			{
				"x": 0.3631390447,
				"y": -0.085265085,
				"z": -1.5462440174,
				"element": "C" 
			},
			{
				"x": 2.0752378279,
				"y": -1.0472971574,
				"z": 3.7587316269,
				"element": "H" 
			},
			{
				"x": 3.2807546503,
				"y": -1.0924138882,
				"z": 2.4304225777,
				"element": "H" 
			},
			{
				"x": 2.0865102758,
				"y": -2.3988211792,
				"z": 2.578488795,
				"element": "H" 
			},
			{
				"x": -0.4530832359,
				"y": 1.0191717834,
				"z": 1.5911032982,
				"element": "H" 
			},
			{
				"x": -2.6055867432,
				"y": 2.445554485,
				"z": -3.1499957659,
				"element": "H" 
			},
			{
				"x": -3.7822977415,
				"y": 3.7292291663,
				"z": -1.3299231035,
				"element": "H" 
			},
			{
				"x": -2.2779217599,
				"y": 2.7592465633,
				"z": 2.2222412417,
				"element": "H" 
			},
			{
				"x": -0.5409778203,
				"y": 0.5287786662,
				"z": -3.4067120996,
				"element": "H" 
			},
			{
				"x": 1.0643332933,
				"y": -0.7778447851,
				"z": -1.9978161302,
				"element": "H" 
			}
		],
		 "valence_orbital": [ 
			{
				"type": "occ",
				"energy": -0.29333,
				"method": "rhf"
			},
			{
				"type": "occ",
				"energy": -0.27203,
				"method": "rhf"
			},
			{
				"type": "occ",
				"energy": -0.24636,
				"method": "rhf"
			},
			{
				"type": "occ",
				"energy": -0.2459,
				"method": "rhf"
			},
			{
				"type": "occ",
				"energy": -0.22725,
				"method": "rhf"
			},
			{
				"type": "unocc",
				"energy": -0.05523,
				"method": "rhf"
			},
			{
				"type": "unocc",
				"energy": -0.02847,
				"method": "rhf"
			},
			{
				"type": "unocc",
				"energy": -0.01582,
				"method": "rhf"
			},
			{
				"type": "unocc",
				"energy": 0.05948,
				"method": "rhf"
			},
			{
				"type": "unocc",
				"energy": 0.06257,
				"method": "rhf"
			}
		],
		"cosmo_sigma_profile": { 
			"-0.025": 0.0,
			"-0.024": 0.0,
			"-0.023": 0.0,
			"-0.022": 0.0,
			"-0.021": 0.0,
			"-0.02": 0.0,
			"-0.019": 0.0,
			"-0.018": 0.108276566166,
			"-0.017": 1.68445500002,
			"-0.016": 1.41217677814,
			"-0.015": 1.24417863967,
			"-0.014": 1.62838681816,
			"-0.013": 1.49153578559,
			"-0.012": 1.21480785629,
			"-0.011": 1.63364951721,
			"-0.01": 2.79819554728,
			"-0.009": 3.01398417196,
			"-0.008": 3.02137252209,
			"-0.007": 6.07451672688,
			"-0.006": 11.3662794727,
			"-0.005": 15.1343799687,
			"-0.004": 15.4734087828,
			"-0.003": 16.2281321313,
			"-0.002": 14.0144741462,
			"-0.001": 12.3248725521,
			"0.0": 14.3919537555,
			"0.001": 18.5565178586,
			"0.002": 21.0156338695,
			"0.003": 18.8803582999,
			"0.004": 10.9338189969,
			"0.005": 6.5678301726,
			"0.006": 5.46825759249,
			"0.007": 2.32329607529,
			"0.008": 2.85892014141,
			"0.009": 3.12537445664,
			"0.01": 3.99730709277,
			"0.011": 5.05054942331,
			"0.012": 9.54549343791,
			"0.013": 3.64024502598,
			"0.014": 0.840577321047,
			"0.015": 0.0,
			"0.016": 0.0,
			"0.017": 0.0,
			"0.018": 0.0,
			"0.019": 0.0,
			"0.02": 0.0,
			"0.021": 0.0,
			"0.022": 0.0,
			"0.023": 0.0,
			"0.024": 0.0,
			"0.025": 0.0
		}
	}
}
