{
	 "smiles": "CN(C)S(=O)(=O)C1=CC2=C(C=C1)N(C)C(CCC(O)=O)=N2", 
	 "Tm": 480.15, 
	 "num_atms": 38, 
	 "gaussian": { 
		 "optdone": 1, 
		 "sigma_profile": "yes", 
		 "theory": "DFT", 
		 "functional": "B3LYP", 
		 "basiset": "6-31G**", 
		 "properties": { 
			 "R2extent": 9583.6212, 
			 "electric_dipole_moment_norm": 9.38148846666, 
			 "electric_quadrupole_moment_norm": 50.1029338285, 
			 "total_energy": -1368.92941196, 
			 "HOMO_LUMO_gap": 0.19584, 
			 "cosmo_polarized_energy": -29.13, 
			 "cosmo_cavitation_energy": 42.31, 
			 "cosmo_dispersion_energy": -30.16, 
			 "cosmo_repulsion_energy": 2.25, 
			 "cosmo_total_nonelectrostatic_energy": 14.4, 
			 "SMD_solvation_energy": 6.17 
		},
		"coords": [
			{
				"x": 3.2354088695,
				"y": -2.2592480074,
				"z": 2.1760361619,
				"element": "C" 
			},
			{
				"x": 2.6273112549,
				"y": -3.1801900127,
				"z": 1.2089813506,
				"element": "N" 
			},
			{
				"x": 2.8682909716,
				"y": -4.599219331,
				"z": 1.5126007441,
				"element": "C" 
			},
			{
				"x": 2.9251219722,
				"y": -2.7574235743,
				"z": -0.4157379109,
				"element": "S" 
			},
			{
				"x": 2.4268396727,
				"y": -3.8751504623,
				"z": -1.2227675482,
				"element": "O" 
			},
			{
				"x": 4.3004216594,
				"y": -2.2666267893,
				"z": -0.5968432952,
				"element": "O" 
			},
			{
				"x": 1.8250094177,
				"y": -1.3518555017,
				"z": -0.6168626746,
				"element": "C" 
			},
			{
				"x": 0.4505967165,
				"y": -1.5559501553,
				"z": -0.5042461646,
				"element": "C" 
			},
			{
				"x": -0.3692848518,
				"y": -0.4486285221,
				"z": -0.7200612713,
				"element": "C" 
			},
			{
				"x": 0.1958261011,
				"y": 0.8054488781,
				"z": -1.0509587611,
				"element": "C" 
			},
			{
				"x": 1.5727038154,
				"y": 1.0024752993,
				"z": -1.1685049725,
				"element": "C" 
			},
			{
				"x": 2.3874943992,
				"y": -0.1044951579,
				"z": -0.9455151189,
				"element": "C" 
			},
			{
				"x": -0.8808019649,
				"y": 1.6645037505,
				"z": -1.2046020639,
				"element": "N" 
			},
			{
				"x": -0.7783904608,
				"y": 3.0706615227,
				"z": -1.5612765667,
				"element": "C" 
			},
			{
				"x": -2.0206713039,
				"y": 0.9235033004,
				"z": -0.9612095505,
				"element": "C" 
			},
			{
				"x": -3.4067689479,
				"y": 1.4980599654,
				"z": -1.0209969535,
				"element": "C" 
			},
			{
				"x": -4.4898295972,
				"y": 0.6212576931,
				"z": -0.3539868845,
				"element": "C" 
			},
			{
				"x": -4.9665346896,
				"y": -0.5881454059,
				"z": -1.1726276494,
				"element": "C" 
			},
			{
				"x": -4.0775911457,
				"y": -1.5697850449,
				"z": -1.3658355557,
				"element": "O" 
			},
			{
				"x": -6.0958865091,
				"y": -0.6538351784,
				"z": -1.6049881671,
				"element": "O" 
			},
			{
				"x": -1.7502505589,
				"y": -0.3323355489,
				"z": -0.6720920384,
				"element": "N" 
			},
			{
				"x": 2.9669219119,
				"y": -1.2291899603,
				"z": 1.9301327269,
				"element": "H" 
			},
			{
				"x": 4.3298630742,
				"y": -2.3417058525,
				"z": 2.210935043,
				"element": "H" 
			},
			{
				"x": 2.8249120247,
				"y": -2.489233581,
				"z": 3.1632591257,
				"element": "H" 
			},
			{
				"x": 2.4013238896,
				"y": -5.2176626824,
				"z": 0.7471587037,
				"element": "H" 
			},
			{
				"x": 2.4023787164,
				"y": -4.8141772814,
				"z": 2.4786256805,
				"element": "H" 
			},
			{
				"x": 3.9381942226,
				"y": -4.8448415735,
				"z": 1.5738604008,
				"element": "H" 
			},
			{
				"x": 0.0389680869,
				"y": -2.5283853437,
				"z": -0.2601205148,
				"element": "H" 
			},
			{
				"x": 2.0003173377,
				"y": 1.9665597623,
				"z": -1.4231551206,
				"element": "H" 
			},
			{
				"x": 3.4654629409,
				"y": -0.0266690375,
				"z": -1.0274913043,
				"element": "H" 
			},
			{
				"x": -0.2976831721,
				"y": 3.6412529452,
				"z": -0.7600030535,
				"element": "H" 
			},
			{
				"x": -0.19146065,
				"y": 3.181639309,
				"z": -2.4776895014,
				"element": "H" 
			},
			{
				"x": -1.772135501,
				"y": 3.4801071129,
				"z": -1.7381481126,
				"element": "H" 
			},
			{
				"x": -3.4033845815,
				"y": 2.4730062309,
				"z": -0.5193246822,
				"element": "H" 
			},
			{
				"x": -3.6800845424,
				"y": 1.6976316819,
				"z": -2.0664927564,
				"element": "H" 
			},
			{
				"x": -4.124909052,
				"y": 0.2794766204,
				"z": 0.6211701286,
				"element": "H" 
			},
			{
				"x": -5.3767223803,
				"y": 1.2348390382,
				"z": -0.1897725576,
				"element": "H" 
			},
			{
				"x": -3.1917771458,
				"y": -1.3148691055,
				"z": -0.9987493156,
				"element": "H" 
			}
		],
		 "valence_orbital": [ 
			{
				"type": "occ",
				"energy": -0.28903,
				"method": "rhf"
			},
			{
				"type": "occ",
				"energy": -0.26677,
				"method": "rhf"
			},
			{
				"type": "occ",
				"energy": -0.2564,
				"method": "rhf"
			},
			{
				"type": "occ",
				"energy": -0.24946,
				"method": "rhf"
			},
			{
				"type": "occ",
				"energy": -0.2474,
				"method": "rhf"
			},
			{
				"type": "unocc",
				"energy": -0.05156,
				"method": "rhf"
			},
			{
				"type": "unocc",
				"energy": -0.02846,
				"method": "rhf"
			},
			{
				"type": "unocc",
				"energy": 0.01597,
				"method": "rhf"
			},
			{
				"type": "unocc",
				"energy": 0.02365,
				"method": "rhf"
			},
			{
				"type": "unocc",
				"energy": 0.05638,
				"method": "rhf"
			}
		],
		"cosmo_sigma_profile": { 
			"-0.025": 0.0,
			"-0.024": 0.0,
			"-0.023": 0.0,
			"-0.022": 0.0,
			"-0.021": 0.0,
			"-0.02": 0.0,
			"-0.019": 0.0,
			"-0.018": 0.0,
			"-0.017": 0.0,
			"-0.016": 0.0,
			"-0.015": 0.0,
			"-0.014": 0.0,
			"-0.013": 0.0,
			"-0.012": 0.0,
			"-0.011": 0.0,
			"-0.01": 0.0,
			"-0.009": 0.407502613599,
			"-0.008": 7.40977831761,
			"-0.007": 19.2647521243,
			"-0.006": 27.8039884745,
			"-0.005": 29.0881088635,
			"-0.004": 33.9196374396,
			"-0.003": 29.2295186777,
			"-0.002": 29.9897614077,
			"-0.001": 17.7917967362,
			"0.0": 12.982276739,
			"0.001": 17.5817682462,
			"0.002": 18.7847846499,
			"0.003": 11.9983106802,
			"0.004": 7.36857561009,
			"0.005": 5.67199186333,
			"0.006": 6.02295236301,
			"0.007": 6.3244302296,
			"0.008": 6.4722972324,
			"0.009": 5.70245856108,
			"0.01": 9.74780853895,
			"0.011": 11.9446902769,
			"0.012": 11.8777797413,
			"0.013": 6.08713399105,
			"0.014": 1.91899673476,
			"0.015": 0.0150558193925,
			"0.016": 0.0,
			"0.017": 0.0,
			"0.018": 0.0,
			"0.019": 0.0,
			"0.02": 0.0,
			"0.021": 0.0,
			"0.022": 0.0,
			"0.023": 0.0,
			"0.024": 0.0,
			"0.025": 0.0
		}
	}
}
