{
	 "smiles": "CC1=NC2=C(C=C1)C(Cl)=CC(Cl)=C2OCC(O)=O", 
	 "Tm": 483.15, 
	 "num_atms": 27, 
	 "gaussian": { 
		 "optdone": 1, 
		 "sigma_profile": "yes", 
		 "theory": "DFT", 
		 "functional": "B3LYP", 
		 "basiset": "6-31G**", 
		 "properties": { 
			 "R2extent": 5756.9301, 
			 "electric_dipole_moment_norm": 4.34539452869, 
			 "electric_quadrupole_moment_norm": 5.0150211834, 
			 "total_energy": -1663.51558574, 
			 "HOMO_LUMO_gap": 0.15402, 
			 "cosmo_polarized_energy": -13.38, 
			 "cosmo_cavitation_energy": 35.26, 
			 "cosmo_dispersion_energy": -24.87, 
			 "cosmo_repulsion_energy": 1.92, 
			 "cosmo_total_nonelectrostatic_energy": 12.32, 
			 "SMD_solvation_energy": 6.46 
		},
		"coords": [
			{
				"x": -2.1845213632,
				"y": 2.9024944469,
				"z": 0.0829609563,
				"element": "C" 
			},
			{
				"x": -1.025637254,
				"y": 2.1571641399,
				"z": -0.5299270464,
				"element": "C" 
			},
			{
				"x": -1.0615137854,
				"y": 0.8385837372,
				"z": -0.496547417,
				"element": "N" 
			},
			{
				"x": -0.0459198643,
				"y": 0.1078446709,
				"z": -1.0339976259,
				"element": "C" 
			},
			{
				"x": 1.0878908717,
				"y": 0.7390009577,
				"z": -1.6487393542,
				"element": "C" 
			},
			{
				"x": 1.0969561878,
				"y": 2.1579650893,
				"z": -1.6732773861,
				"element": "C" 
			},
			{
				"x": 0.0569361057,
				"y": 2.8619352916,
				"z": -1.1240892679,
				"element": "C" 
			},
			{
				"x": 2.1163002579,
				"y": -0.0722565984,
				"z": -2.1907985515,
				"element": "C" 
			},
			{
				"x": 3.5194405768,
				"y": 0.6628353544,
				"z": -2.9563239288,
				"element": "Cl" 
			},
			{
				"x": 2.0381034056,
				"y": -1.4428860518,
				"z": -2.1329430693,
				"element": "C" 
			},
			{
				"x": 0.925351355,
				"y": -2.0569441585,
				"z": -1.5292151801,
				"element": "C" 
			},
			{
				"x": 0.8783862172,
				"y": -3.8032711423,
				"z": -1.4909356662,
				"element": "Cl" 
			},
			{
				"x": -0.1211949381,
				"y": -1.3247367638,
				"z": -0.9750584218,
				"element": "C" 
			},
			{
				"x": -1.1350495846,
				"y": -2.0636667384,
				"z": -0.4635814097,
				"element": "O" 
			},
			{
				"x": -2.2403733894,
				"y": -1.5491371969,
				"z": 0.2548778103,
				"element": "C" 
			},
			{
				"x": -1.8408745312,
				"y": -0.9367785062,
				"z": 1.5864961307,
				"element": "C" 
			},
			{
				"x": -2.9099883557,
				"y": -0.3285129444,
				"z": 2.1558417605,
				"element": "O" 
			},
			{
				"x": -0.7544908347,
				"y": -1.0070234037,
				"z": 2.1056391503,
				"element": "O" 
			},
			{
				"x": -1.8347075413,
				"y": 3.7087534063,
				"z": 0.7366091917,
				"element": "H" 
			},
			{
				"x": -2.8058518848,
				"y": 3.3643275106,
				"z": -0.6941854915,
				"element": "H" 
			},
			{
				"x": -2.8056986633,
				"y": 2.2158700769,
				"z": 0.6604554427,
				"element": "H" 
			},
			{
				"x": 1.9375037448,
				"y": 2.6701004389,
				"z": -2.1280018073,
				"element": "H" 
			},
			{
				"x": 0.0540268526,
				"y": 3.9475112926,
				"z": -1.1337593717,
				"element": "H" 
			},
			{
				"x": 2.8243482347,
				"y": -2.0615472692,
				"z": -2.5471853261,
				"element": "H" 
			},
			{
				"x": -2.8175832323,
				"y": -0.8249817029,
				"z": -0.3189891922,
				"element": "H" 
			},
			{
				"x": -2.8657698564,
				"y": -2.4256614074,
				"z": 0.4571394913,
				"element": "H" 
			},
			{
				"x": -2.6052687311,
				"y": 0.0029174706,
				"z": 3.0172355797,
				"element": "H" 
			}
		],
		 "valence_orbital": [ 
			{
				"type": "occ",
				"energy": -0.30084,
				"method": "rhf"
			},
			{
				"type": "occ",
				"energy": -0.28292,
				"method": "rhf"
			},
			{
				"type": "occ",
				"energy": -0.26814,
				"method": "rhf"
			},
			{
				"type": "occ",
				"energy": -0.25517,
				"method": "rhf"
			},
			{
				"type": "occ",
				"energy": -0.21617,
				"method": "rhf"
			},
			{
				"type": "unocc",
				"energy": -0.06215,
				"method": "rhf"
			},
			{
				"type": "unocc",
				"energy": -0.03291,
				"method": "rhf"
			},
			{
				"type": "unocc",
				"energy": 0.00324,
				"method": "rhf"
			},
			{
				"type": "unocc",
				"energy": 0.01019,
				"method": "rhf"
			},
			{
				"type": "unocc",
				"energy": 0.01726,
				"method": "rhf"
			}
		],
		"cosmo_sigma_profile": { 
			"-0.025": 0.0,
			"-0.024": 0.0,
			"-0.023": 0.0,
			"-0.022": 0.0,
			"-0.021": 0.0,
			"-0.02": 0.0,
			"-0.019": 0.257879894583,
			"-0.018": 0.716516646107,
			"-0.017": 0.956004333763,
			"-0.016": 1.23404588036,
			"-0.015": 0.626911255499,
			"-0.014": 0.745338279157,
			"-0.013": 0.383867727532,
			"-0.012": 0.347478700961,
			"-0.011": 0.974284864739,
			"-0.01": 0.488293648928,
			"-0.009": 2.4390443478,
			"-0.008": 5.44383834829,
			"-0.007": 7.24373679833,
			"-0.006": 10.1968572103,
			"-0.005": 15.1929440836,
			"-0.004": 13.019816508,
			"-0.003": 14.7953478042,
			"-0.002": 17.6770477014,
			"-0.001": 25.6500247497,
			"0.0": 33.5005557313,
			"0.001": 33.8425897434,
			"0.002": 23.4410301515,
			"0.003": 18.8511306793,
			"0.004": 19.5548582949,
			"0.005": 10.7528444293,
			"0.006": 4.86959145967,
			"0.007": 5.25465249356,
			"0.008": 4.68478624173,
			"0.009": 4.13312334748,
			"0.01": 2.73714343857,
			"0.011": 4.75200547014,
			"0.012": 1.84241670402,
			"0.013": 0.0,
			"0.014": 0.0,
			"0.015": 0.0,
			"0.016": 0.0,
			"0.017": 0.0,
			"0.018": 0.0,
			"0.019": 0.0,
			"0.02": 0.0,
			"0.021": 0.0,
			"0.022": 0.0,
			"0.023": 0.0,
			"0.024": 0.0,
			"0.025": 0.0
		}
	}
}
