{
	 "smiles": "NNC(=O)C1=CC=C(I)C=C1", 
	 "Tm": 447.15, 
	 "num_atms": 18, 
	 "gaussian": { 
		 "optdone": 1, 
		 "sigma_profile": "no", 
		 "theory": "DFT", 
		 "functional": "B3LYP", 
		 "basiset": "6-31G**", 
		 "properties": { 
			 "R2extent": 2270.4949, 
			 "electric_dipole_moment_norm": 2.71378435584, 
			 "electric_quadrupole_moment_norm": 10.8044882674, 
			 "total_energy": -467.04906387, 
			 "HOMO_LUMO_gap": 0.19318, 
			 "cosmo_polarized_energy": -102667.1, 
			 "cosmo_cavitation_energy": 25.75, 
			 "cosmo_dispersion_energy": -20.23, 
			 "cosmo_repulsion_energy": 1.61, 
			 "cosmo_total_nonelectrostatic_energy": 7.13, 
			 "SMD_solvation_energy": 4.62 
		},
		"coords": [
			{
				"x": -2.1972123202,
				"y": -1.7618821296,
				"z": 1.021512178,
				"element": "N" 
			},
			{
				"x": -1.3927320361,
				"y": -2.2927214505,
				"z": -0.0107743222,
				"element": "N" 
			},
			{
				"x": -0.3627238577,
				"y": -1.6380179583,
				"z": -0.658897222,
				"element": "C" 
			},
			{
				"x": 0.5656629717,
				"y": -2.2721814892,
				"z": -1.1456678211,
				"element": "O" 
			},
			{
				"x": -0.4234946525,
				"y": -0.1400186828,
				"z": -0.766710867,
				"element": "C" 
			},
			{
				"x": -1.6077698053,
				"y": 0.5728587046,
				"z": -0.9969249514,
				"element": "C" 
			},
			{
				"x": -1.5861480396,
				"y": 1.9574730991,
				"z": -1.1653906728,
				"element": "C" 
			},
			{
				"x": -0.3672665435,
				"y": 2.6348290315,
				"z": -1.0900696357,
				"element": "C" 
			},
			{
				"x": -0.3285662203,
				"y": 4.7410157689,
				"z": -1.3177619053,
				"element": "I" 
			},
			{
				"x": 0.8268935775,
				"y": 1.941533076,
				"z": -0.8764934,
				"element": "C" 
			},
			{
				"x": 0.7914937284,
				"y": 0.5564402918,
				"z": -0.7310179898,
				"element": "C" 
			},
			{
				"x": -3.0047984491,
				"y": -1.2918192051,
				"z": 0.6245025908,
				"element": "H" 
			},
			{
				"x": -1.6728515715,
				"y": -1.0844028739,
				"z": 1.5696662611,
				"element": "H" 
			},
			{
				"x": -1.2107425052,
				"y": -3.2844168614,
				"z": 0.0936571283,
				"element": "H" 
			},
			{
				"x": -2.5541998483,
				"y": 0.0491346428,
				"z": -1.0860916005,
				"element": "H" 
			},
			{
				"x": -2.506701911,
				"y": 2.4967191212,
				"z": -1.3579848545,
				"element": "H" 
			},
			{
				"x": 1.7722635094,
				"y": 2.4703541717,
				"z": -0.8332441856,
				"element": "H" 
			},
			{
				"x": 1.7102939734,
				"y": -0.0044972568,
				"z": -0.5952087301,
				"element": "H" 
			}
		],
		 "valence_orbital": [ 
			{
				"type": "occ",
				"energy": -0.2771,
				"method": "rhf"
			},
			{
				"type": "occ",
				"energy": -0.27653,
				"method": "rhf"
			},
			{
				"type": "occ",
				"energy": -0.26138,
				"method": "rhf"
			},
			{
				"type": "occ",
				"energy": -0.2597,
				"method": "rhf"
			},
			{
				"type": "occ",
				"energy": -0.24554,
				"method": "rhf"
			},
			{
				"type": "unocc",
				"energy": -0.05236,
				"method": "rhf"
			},
			{
				"type": "unocc",
				"energy": -0.04685,
				"method": "rhf"
			},
			{
				"type": "unocc",
				"energy": -0.02695,
				"method": "rhf"
			},
			{
				"type": "unocc",
				"energy": 0.02859,
				"method": "rhf"
			},
			{
				"type": "unocc",
				"energy": 0.03776,
				"method": "rhf"
			}
		],
		"cosmo_sigma_profile": { 
			"0.0": 0.0,
			"0.0": 0.0,
			"0.0": 0.0,
			"0.0": 0.0,
			"0.0": 0.0,
			"0.0": 0.0,
			"0.0": 0.0,
			"0.0": 0.0,
			"0.0": 0.0,
			"0.0": 0.0,
			"0.0": 0.0,
			"0.0": 0.0,
			"0.0": 0.0,
			"0.0": 0.0,
			"0.0": 0.0,
			"0.0": 0.0,
			"0.0": 0.0,
			"0.0": 0.0,
			"0.0": 0.0,
			"0.0": 0.0,
			"0.0": 0.0,
			"0.0": 0.0,
			"0.0": 0.0,
			"0.0": 0.0,
			"0.0": 0.0,
			"0.0": 0.0,
			"0.0": 0.0,
			"0.0": 0.0,
			"0.0": 0.0,
			"0.0": 0.0,
			"0.0": 0.0,
			"0.0": 0.0,
			"0.0": 0.0,
			"0.0": 0.0,
			"0.0": 0.0,
			"0.0": 0.0,
			"0.0": 0.0,
			"0.0": 0.0,
			"0.0": 0.0,
			"0.0": 0.0,
			"0.0": 0.0,
			"0.0": 0.0,
			"0.0": 0.0,
			"0.0": 0.0,
			"0.0": 0.0,
			"0.0": 0.0,
			"0.0": 0.0,
			"0.0": 0.0,
			"0.0": 0.0,
			"0.0": 0.0,
			"0.0": 0.0
		}
	}
}
