{
	 "smiles": "OC(=O)CC1=NOC=C1", 
	 "Tm": 358.15, 
	 "num_atms": 14, 
	 "gaussian": { 
		 "optdone": 1, 
		 "sigma_profile": "yes", 
		 "theory": "DFT", 
		 "functional": "B3LYP", 
		 "basiset": "6-31G**", 
		 "properties": { 
			 "R2extent": 1489.8633, 
			 "electric_dipole_moment_norm": 2.32722586356, 
			 "electric_quadrupole_moment_norm": 10.1857130624, 
			 "total_energy": -473.922574157, 
			 "HOMO_LUMO_gap": 0.25144, 
			 "cosmo_polarized_energy": -12.5, 
			 "cosmo_cavitation_energy": 19.24, 
			 "cosmo_dispersion_energy": -14.31, 
			 "cosmo_repulsion_energy": 1.19, 
			 "cosmo_total_nonelectrostatic_energy": 6.12, 
			 "SMD_solvation_energy": 5.13 
		},
		"coords": [
			{
				"x": 0.9110324792,
				"y": 2.6362438838,
				"z": -0.3754899909,
				"element": "O" 
			},
			{
				"x": 0.0194041284,
				"y": 1.6238460193,
				"z": -0.2879108579,
				"element": "C" 
			},
			{
				"x": -0.7527643414,
				"y": 1.5062366652,
				"z": 0.6369427263,
				"element": "O" 
			},
			{
				"x": 0.099926547,
				"y": 0.7281519627,
				"z": -1.5109624371,
				"element": "C" 
			},
			{
				"x": -0.4442797823,
				"y": -0.6530953555,
				"z": -1.29850509,
				"element": "C" 
			},
			{
				"x": 0.2372921959,
				"y": -1.6764323167,
				"z": -1.7678557122,
				"element": "N" 
			},
			{
				"x": -0.520942401,
				"y": -2.8056470208,
				"z": -1.4617420062,
				"element": "O" 
			},
			{
				"x": -1.6361047425,
				"y": -2.4174090629,
				"z": -0.8140500205,
				"element": "C" 
			},
			{
				"x": -1.6593998933,
				"y": -1.0668627484,
				"z": -0.6734516177,
				"element": "C" 
			},
			{
				"x": 0.7754329496,
				"y": 3.188969594,
				"z": 0.4129347026,
				"element": "H" 
			},
			{
				"x": -0.4665812223,
				"y": 1.2393428651,
				"z": -2.3024650304,
				"element": "H" 
			},
			{
				"x": 1.132849786,
				"y": 0.6695894833,
				"z": -1.8612905603,
				"element": "H" 
			},
			{
				"x": -2.3076443249,
				"y": -3.2090755313,
				"z": -0.5145983417,
				"element": "H" 
			},
			{
				"x": -2.3919213784,
				"y": -0.4479584378,
				"z": -0.182755764,
				"element": "H" 
			}
		],
		 "valence_orbital": [ 
			{
				"type": "occ",
				"energy": -0.33157,
				"method": "rhf"
			},
			{
				"type": "occ",
				"energy": -0.30721,
				"method": "rhf"
			},
			{
				"type": "occ",
				"energy": -0.29492,
				"method": "rhf"
			},
			{
				"type": "occ",
				"energy": -0.28782,
				"method": "rhf"
			},
			{
				"type": "occ",
				"energy": -0.26408,
				"method": "rhf"
			},
			{
				"type": "unocc",
				"energy": -0.01264,
				"method": "rhf"
			},
			{
				"type": "unocc",
				"energy": -0.00269,
				"method": "rhf"
			},
			{
				"type": "unocc",
				"energy": 0.05275,
				"method": "rhf"
			},
			{
				"type": "unocc",
				"energy": 0.06971,
				"method": "rhf"
			},
			{
				"type": "unocc",
				"energy": 0.10642,
				"method": "rhf"
			}
		],
		"cosmo_sigma_profile": { 
			"-0.025": 0.0,
			"-0.024": 0.0,
			"-0.023": 0.0,
			"-0.022": 0.0,
			"-0.021": 0.0,
			"-0.02": 0.0,
			"-0.019": 0.0842841884769,
			"-0.018": 1.05078074534,
			"-0.017": 0.951110207936,
			"-0.016": 0.823012943398,
			"-0.015": 0.917207961087,
			"-0.014": 0.693099135518,
			"-0.013": 0.17705517936,
			"-0.012": 0.560777182927,
			"-0.011": 2.02940126538,
			"-0.01": 3.05732639411,
			"-0.009": 3.8594746948,
			"-0.008": 6.19047612355,
			"-0.007": 5.98610009253,
			"-0.006": 8.41016488691,
			"-0.005": 8.73986376714,
			"-0.004": 7.60353318806,
			"-0.003": 7.71315410478,
			"-0.002": 8.20727572369,
			"-0.001": 6.52989630677,
			"0.0": 6.93702621408,
			"0.001": 10.3894461156,
			"0.002": 8.48959249612,
			"0.003": 5.96493356836,
			"0.004": 5.0855656012,
			"0.005": 4.55353836538,
			"0.006": 5.45924936663,
			"0.007": 7.26068327074,
			"0.008": 7.71444944766,
			"0.009": 4.58893165887,
			"0.01": 4.58250483484,
			"0.011": 4.84328844098,
			"0.012": 2.48505940837,
			"0.013": 1.02205763187,
			"0.014": 0.818514464779,
			"0.015": 0.0772931267793,
			"0.016": 0.0,
			"0.017": 0.0,
			"0.018": 0.0,
			"0.019": 0.0,
			"0.02": 0.0,
			"0.021": 0.0,
			"0.022": 0.0,
			"0.023": 0.0,
			"0.024": 0.0,
			"0.025": 0.0
		}
	}
}
