{
	 "smiles": "O[C@@H](C(C1=CC=CC=C1)C1=CC=CC=C1)[C@H]1CC(C=CC1=O)(C1=CC=CC=C1)C1=CC=CC=C1", 
	 "Tm": 457.0, 
	 "num_atms": 62, 
	 "gaussian": { 
		 "optdone": 1, 
		 "sigma_profile": "yes", 
		 "theory": "DFT", 
		 "functional": "B3LYP", 
		 "basiset": "6-31G**", 
		 "properties": { 
			 "R2extent": 16337.9263, 
			 "electric_dipole_moment_norm": 4.78410206517, 
			 "electric_quadrupole_moment_norm": 7.06656043702, 
			 "total_energy": -1386.70893519, 
			 "HOMO_LUMO_gap": 0.1584, 
			 "cosmo_polarized_energy": -17.71, 
			 "cosmo_cavitation_energy": 61.37, 
			 "cosmo_dispersion_energy": -39.84, 
			 "cosmo_repulsion_energy": 3.0, 
			 "cosmo_total_nonelectrostatic_energy": 24.53, 
			 "SMD_solvation_energy": 9.97 
		},
		"coords": [
			{
				"x": -2.5093273845,
				"y": 0.4682881481,
				"z": -2.291392698,
				"element": "O" 
			},
			{
				"x": -1.5902527006,
				"y": 0.4524403831,
				"z": -1.2135937748,
				"element": "C" 
			},
			{
				"x": -2.1478977101,
				"y": -0.2504719464,
				"z": 0.0680083358,
				"element": "C" 
			},
			{
				"x": -2.5849898244,
				"y": -1.6970210079,
				"z": -0.1470241299,
				"element": "C" 
			},
			{
				"x": -3.7552242457,
				"y": -2.0115197529,
				"z": -0.8547850381,
				"element": "C" 
			},
			{
				"x": -4.1337456457,
				"y": -3.3386628941,
				"z": -1.0506297695,
				"element": "C" 
			},
			{
				"x": -3.3580069985,
				"y": -4.3796781873,
				"z": -0.5344659864,
				"element": "C" 
			},
			{
				"x": -2.201033475,
				"y": -4.081028582,
				"z": 0.1838955258,
				"element": "C" 
			},
			{
				"x": -1.8222207903,
				"y": -2.750219784,
				"z": 0.3752507949,
				"element": "C" 
			},
			{
				"x": -3.2379003971,
				"y": 0.5737119014,
				"z": 0.7612943058,
				"element": "C" 
			},
			{
				"x": -4.1324663685,
				"y": 1.4069269677,
				"z": 0.0735049943,
				"element": "C" 
			},
			{
				"x": -5.1075564389,
				"y": 2.128676424,
				"z": 0.7677182415,
				"element": "C" 
			},
			{
				"x": -5.2112859695,
				"y": 2.0304416266,
				"z": 2.1548768926,
				"element": "C" 
			},
			{
				"x": -4.3279443641,
				"y": 1.2014252016,
				"z": 2.8498841631,
				"element": "C" 
			},
			{
				"x": -3.3539013194,
				"y": 0.4842516061,
				"z": 2.157245751,
				"element": "C" 
			},
			{
				"x": -0.2005498645,
				"y": -0.042818291,
				"z": -1.7138809639,
				"element": "C" 
			},
			{
				"x": 0.8988526351,
				"y": -0.0262338514,
				"z": -0.6413200346,
				"element": "C" 
			},
			{
				"x": 2.3063209336,
				"y": -0.3616955643,
				"z": -1.207010881,
				"element": "C" 
			},
			{
				"x": 2.1844745231,
				"y": -1.6743905643,
				"z": -1.9687897377,
				"element": "C" 
			},
			{
				"x": 1.0348520138,
				"y": -2.1501206528,
				"z": -2.4752822508,
				"element": "C" 
			},
			{
				"x": -0.2241220647,
				"y": -1.3805180261,
				"z": -2.4524759308,
				"element": "C" 
			},
			{
				"x": -1.1996456018,
				"y": -1.7707319827,
				"z": -3.0918808824,
				"element": "O" 
			},
			{
				"x": 2.7816064338,
				"y": 0.7919269984,
				"z": -2.1282201315,
				"element": "C" 
			},
			{
				"x": 3.1495232335,
				"y": 2.0163014955,
				"z": -1.5460986706,
				"element": "C" 
			},
			{
				"x": 3.5437884095,
				"y": 3.0953630877,
				"z": -2.3334329153,
				"element": "C" 
			},
			{
				"x": 3.5882915932,
				"y": 2.9723235668,
				"z": -3.7249186448,
				"element": "C" 
			},
			{
				"x": 3.2318567172,
				"y": 1.7618972689,
				"z": -4.3146800988,
				"element": "C" 
			},
			{
				"x": 2.8293644094,
				"y": 0.6813111283,
				"z": -3.5229346467,
				"element": "C" 
			},
			{
				"x": 3.3542121215,
				"y": -0.5711211232,
				"z": -0.0866499928,
				"element": "C" 
			},
			{
				"x": 4.6859045136,
				"y": -0.8380282022,
				"z": -0.4492127205,
				"element": "C" 
			},
			{
				"x": 5.6683982163,
				"y": -1.0546998225,
				"z": 0.5130772858,
				"element": "C" 
			},
			{
				"x": 5.3443780658,
				"y": -1.0010305942,
				"z": 1.8713864751,
				"element": "C" 
			},
			{
				"x": 4.0320950042,
				"y": -0.7259899161,
				"z": 2.2472749767,
				"element": "C" 
			},
			{
				"x": 3.0458512974,
				"y": -0.5152373471,
				"z": 1.2776616399,
				"element": "C" 
			},
			{
				"x": -2.4127476866,
				"y": -0.3929585769,
				"z": -2.7406861803,
				"element": "H" 
			},
			{
				"x": -1.4463361564,
				"y": 1.5023487234,
				"z": -0.9260553612,
				"element": "H" 
			},
			{
				"x": -1.3136288713,
				"y": -0.2809413742,
				"z": 0.7787625844,
				"element": "H" 
			},
			{
				"x": -4.3713245837,
				"y": -1.2100280916,
				"z": -1.247655274,
				"element": "H" 
			},
			{
				"x": -5.041392869,
				"y": -3.561460282,
				"z": -1.6048076887,
				"element": "H" 
			},
			{
				"x": -3.6578360491,
				"y": -5.4127902284,
				"z": -0.6855199831,
				"element": "H" 
			},
			{
				"x": -1.5942976221,
				"y": -4.8802600202,
				"z": 0.6009326261,
				"element": "H" 
			},
			{
				"x": -0.9242514492,
				"y": -2.5293222387,
				"z": 0.9484303605,
				"element": "H" 
			},
			{
				"x": -4.0634636779,
				"y": 1.4859505491,
				"z": -1.0054631378,
				"element": "H" 
			},
			{
				"x": -5.7891677626,
				"y": 2.7706979468,
				"z": 0.2160346169,
				"element": "H" 
			},
			{
				"x": -5.9708671093,
				"y": 2.5932211193,
				"z": 2.6902504932,
				"element": "H" 
			},
			{
				"x": -4.3947289443,
				"y": 1.1159649948,
				"z": 3.9311607355,
				"element": "H" 
			},
			{
				"x": -2.6720943672,
				"y": -0.1609590372,
				"z": 2.7070536649,
				"element": "H" 
			},
			{
				"x": 0.0758132073,
				"y": 0.6798296689,
				"z": -2.4970702589,
				"element": "H" 
			},
			{
				"x": 0.658444512,
				"y": -0.7746154767,
				"z": 0.1190329148,
				"element": "H" 
			},
			{
				"x": 0.9162040455,
				"y": 0.9505133854,
				"z": -0.1459137375,
				"element": "H" 
			},
			{
				"x": 3.0973997247,
				"y": -2.2506794502,
				"z": -2.0993017921,
				"element": "H" 
			},
			{
				"x": 0.9947549678,
				"y": -3.0992347669,
				"z": -3.0025782726,
				"element": "H" 
			},
			{
				"x": 3.1385077805,
				"y": 2.120008955,
				"z": -0.4648816864,
				"element": "H" 
			},
			{
				"x": 3.8213046108,
				"y": 4.0327471174,
				"z": -1.8596551655,
				"element": "H" 
			},
			{
				"x": 3.8992377011,
				"y": 3.8120278927,
				"z": -4.3394752288,
				"element": "H" 
			},
			{
				"x": 3.2624360665,
				"y": 1.6503379973,
				"z": -5.3948223816,
				"element": "H" 
			},
			{
				"x": 2.5483470486,
				"y": -0.2502345983,
				"z": -4.0027736146,
				"element": "H" 
			},
			{
				"x": 4.9594053518,
				"y": -0.8580070548,
				"z": -1.5008005585,
				"element": "H" 
			},
			{
				"x": 6.6892088753,
				"y": -1.2590466578,
				"z": 0.2027792696,
				"element": "H" 
			},
			{
				"x": 6.1086014787,
				"y": -1.1669273299,
				"z": 2.6249530657,
				"element": "H" 
			},
			{
				"x": 3.7651463641,
				"y": -0.6736313133,
				"z": 3.2990062956,
				"element": "H" 
			},
			{
				"x": 2.0362264566,
				"y": -0.3005195648,
				"z": 1.6078642108,
				"element": "H" 
			}
		],
		 "valence_orbital": [ 
			{
				"type": "occ",
				"energy": -0.24368,
				"method": "rhf"
			},
			{
				"type": "occ",
				"energy": -0.24119,
				"method": "rhf"
			},
			{
				"type": "occ",
				"energy": -0.23824,
				"method": "rhf"
			},
			{
				"type": "occ",
				"energy": -0.23488,
				"method": "rhf"
			},
			{
				"type": "occ",
				"energy": -0.22392,
				"method": "rhf"
			},
			{
				"type": "unocc",
				"energy": -0.06552,
				"method": "rhf"
			},
			{
				"type": "unocc",
				"energy": -0.01594,
				"method": "rhf"
			},
			{
				"type": "unocc",
				"energy": -0.01428,
				"method": "rhf"
			},
			{
				"type": "unocc",
				"energy": -0.01178,
				"method": "rhf"
			},
			{
				"type": "unocc",
				"energy": -0.001,
				"method": "rhf"
			}
		],
		"cosmo_sigma_profile": { 
			"-0.025": 0.0,
			"-0.024": 0.0,
			"-0.023": 0.0,
			"-0.022": 0.0,
			"-0.021": 0.0,
			"-0.02": 0.0,
			"-0.019": 0.0,
			"-0.018": 0.0,
			"-0.017": 0.0,
			"-0.016": 0.0,
			"-0.015": 0.0,
			"-0.014": 0.0,
			"-0.013": 0.0,
			"-0.012": 0.0,
			"-0.011": 0.0,
			"-0.01": 0.000128891254898,
			"-0.009": 0.0466328877127,
			"-0.008": 0.720216222994,
			"-0.007": 4.06473466611,
			"-0.006": 19.5287350763,
			"-0.005": 46.578780805,
			"-0.004": 55.265780535,
			"-0.003": 53.2057207032,
			"-0.002": 34.9964466301,
			"-0.001": 35.6947582528,
			"0.0": 29.9407754775,
			"0.001": 30.8696589574,
			"0.002": 30.3308461952,
			"0.003": 29.7879083317,
			"0.004": 31.528786367,
			"0.005": 33.7837868685,
			"0.006": 26.4548961673,
			"0.007": 7.99803064904,
			"0.008": 3.98686820163,
			"0.009": 3.09774374399,
			"0.01": 3.08759882409,
			"0.011": 2.77371180322,
			"0.012": 2.37228558306,
			"0.013": 1.35433910933,
			"0.014": 0.924688134448,
			"0.015": 0.143354418079,
			"0.016": 0.0,
			"0.017": 0.0,
			"0.018": 0.0,
			"0.019": 0.0,
			"0.02": 0.0,
			"0.021": 0.0,
			"0.022": 0.0,
			"0.023": 0.0,
			"0.024": 0.0,
			"0.025": 0.0
		}
	}
}
