{
	 "smiles": "CC(C)(C(O)=O)C1=CC=C(C=C1)C(O)CCCN1CCC(CC1)C(O)(C1=CC=CC=C1)C1=CC=CC=C1", 
	 "Tm": 415.15, 
	 "num_atms": 76, 
	 "gaussian": { 
		 "optdone": 1, 
		 "sigma_profile": "yes", 
		 "theory": "DFT", 
		 "functional": "B3LYP", 
		 "basiset": "6-31G**", 
		 "properties": { 
			 "R2extent": 37881.9855, 
			 "electric_dipole_moment_norm": 5.27442089807, 
			 "electric_quadrupole_moment_norm": 54.5517539524, 
			 "total_energy": -1598.55892774, 
			 "HOMO_LUMO_gap": 0.18738, 
			 "cosmo_polarized_energy": -24.77, 
			 "cosmo_cavitation_energy": 73.51, 
			 "cosmo_dispersion_energy": -48.5, 
			 "cosmo_repulsion_energy": 3.61, 
			 "cosmo_total_nonelectrostatic_energy": 28.62, 
			 "SMD_solvation_energy": 11.08 
		},
		"coords": [
			{
				"x": 1.5146609397,
				"y": -1.0425459223,
				"z": 9.1181872732,
				"element": "C" 
			},
			{
				"x": 0.3332228528,
				"y": -1.114623122,
				"z": 8.1295050598,
				"element": "C" 
			},
			{
				"x": -0.4388454348,
				"y": -2.4345026633,
				"z": 8.3703888856,
				"element": "C" 
			},
			{
				"x": -0.6722131304,
				"y": 0.0154971033,
				"z": 8.4691466428,
				"element": "C" 
			},
			{
				"x": -1.5314746307,
				"y": 0.3599419533,
				"z": 7.4771080419,
				"element": "O" 
			},
			{
				"x": -0.7647634153,
				"y": 0.5290350656,
				"z": 9.557373741,
				"element": "O" 
			},
			{
				"x": 0.8340389591,
				"y": -0.966822324,
				"z": 6.6846697967,
				"element": "C" 
			},
			{
				"x": 0.7385088863,
				"y": -1.9855108111,
				"z": 5.7281147128,
				"element": "C" 
			},
			{
				"x": 1.2313996351,
				"y": -1.8150025944,
				"z": 4.4303157633,
				"element": "C" 
			},
			{
				"x": 1.8321100389,
				"y": -0.6155692531,
				"z": 4.0451804357,
				"element": "C" 
			},
			{
				"x": 1.9322301045,
				"y": 0.4100482373,
				"z": 4.9967484069,
				"element": "C" 
			},
			{
				"x": 1.4423505522,
				"y": 0.2393579576,
				"z": 6.2865974894,
				"element": "C" 
			},
			{
				"x": 2.363689995,
				"y": -0.3982710226,
				"z": 2.6391432364,
				"element": "C" 
			},
			{
				"x": 2.4068290775,
				"y": -1.6628485063,
				"z": 1.9811694184,
				"element": "O" 
			},
			{
				"x": 1.5365317289,
				"y": 0.6230818025,
				"z": 1.8301001872,
				"element": "C" 
			},
			{
				"x": 0.0782838797,
				"y": 0.2176414735,
				"z": 1.591706707,
				"element": "C" 
			},
			{
				"x": -0.6249303209,
				"y": 1.1197121391,
				"z": 0.5673406683,
				"element": "C" 
			},
			{
				"x": -0.0385359284,
				"y": 1.0391676871,
				"z": -0.7712145747,
				"element": "N" 
			},
			{
				"x": -0.3989689311,
				"y": -0.1790640495,
				"z": -1.5189110073,
				"element": "C" 
			},
			{
				"x": -1.5095252766,
				"y": 0.0429141565,
				"z": -2.5599371824,
				"element": "C" 
			},
			{
				"x": -1.1079298194,
				"y": 1.1087748444,
				"z": -3.6224501935,
				"element": "C" 
			},
			{
				"x": -0.0113948647,
				"y": 2.0303178127,
				"z": -3.0383866289,
				"element": "C" 
			},
			{
				"x": -0.2479278883,
				"y": 2.2704628257,
				"z": -1.5471962032,
				"element": "C" 
			},
			{
				"x": -0.6699858824,
				"y": 0.4800366277,
				"z": -4.9844250508,
				"element": "C" 
			},
			{
				"x": 0.4685804566,
				"y": -0.3672559162,
				"z": -4.7577960311,
				"element": "O" 
			},
			{
				"x": -0.2080963545,
				"y": 1.5801229799,
				"z": -5.9542585454,
				"element": "C" 
			},
			{
				"x": 1.1257674065,
				"y": 1.66769548,
				"z": -6.3686663394,
				"element": "C" 
			},
			{
				"x": 1.5344161998,
				"y": 2.6840584623,
				"z": -7.2360840463,
				"element": "C" 
			},
			{
				"x": 0.6193314776,
				"y": 3.6281080273,
				"z": -7.7000551745,
				"element": "C" 
			},
			{
				"x": -0.7145207871,
				"y": 3.5456983643,
				"z": -7.2937287734,
				"element": "C" 
			},
			{
				"x": -1.1235962644,
				"y": 2.5291049084,
				"z": -6.432123129,
				"element": "C" 
			},
			{
				"x": -1.7798114674,
				"y": -0.3495665086,
				"z": -5.6633804955,
				"element": "C" 
			},
			{
				"x": -3.1477904722,
				"y": -0.1493083641,
				"z": -5.431920036,
				"element": "C" 
			},
			{
				"x": -4.1079905091,
				"y": -0.908124238,
				"z": -6.1060348308,
				"element": "C" 
			},
			{
				"x": -3.7192116735,
				"y": -1.8823275812,
				"z": -7.0245375899,
				"element": "C" 
			},
			{
				"x": -2.3596705985,
				"y": -2.0904809107,
				"z": -7.2659351819,
				"element": "C" 
			},
			{
				"x": -1.4030147957,
				"y": -1.3313769337,
				"z": -6.5940714646,
				"element": "C" 
			},
			{
				"x": 2.0781994844,
				"y": -0.1133590996,
				"z": 9.0035164633,
				"element": "H" 
			},
			{
				"x": 1.1478231566,
				"y": -1.0842475573,
				"z": 10.1458321256,
				"element": "H" 
			},
			{
				"x": 2.1970232189,
				"y": -1.8796716935,
				"z": 8.9432509073,
				"element": "H" 
			},
			{
				"x": -0.8035780491,
				"y": -2.4599362143,
				"z": 9.4005971734,
				"element": "H" 
			},
			{
				"x": -1.3010350414,
				"y": -2.5362821961,
				"z": 7.7042182989,
				"element": "H" 
			},
			{
				"x": 0.2165537004,
				"y": -3.2979711333,
				"z": 8.2227587863,
				"element": "H" 
			},
			{
				"x": -1.2522382189,
				"y": -0.0700021917,
				"z": 6.652785095,
				"element": "H" 
			},
			{
				"x": 0.2828904306,
				"y": -2.9354424161,
				"z": 5.9859384594,
				"element": "H" 
			},
			{
				"x": 1.1590357122,
				"y": -2.6218706952,
				"z": 3.7105780374,
				"element": "H" 
			},
			{
				"x": 2.4042138493,
				"y": 1.352460272,
				"z": 4.7286914136,
				"element": "H" 
			},
			{
				"x": 1.5333323723,
				"y": 1.0560966145,
				"z": 6.9983920308,
				"element": "H" 
			},
			{
				"x": 3.3867452654,
				"y": 0.0048458364,
				"z": 2.7313828561,
				"element": "H" 
			},
			{
				"x": 2.6721812463,
				"y": -1.5038251396,
				"z": 1.0664886587,
				"element": "H" 
			},
			{
				"x": 1.5802109185,
				"y": 1.5956055954,
				"z": 2.3375612794,
				"element": "H" 
			},
			{
				"x": 2.0220025943,
				"y": 0.7662473774,
				"z": 0.8552513834,
				"element": "H" 
			},
			{
				"x": 0.0493389555,
				"y": -0.8261483977,
				"z": 1.2582822351,
				"element": "H" 
			},
			{
				"x": -0.4832665906,
				"y": 0.2523581681,
				"z": 2.5330362369,
				"element": "H" 
			},
			{
				"x": -1.7093182005,
				"y": 0.8946435238,
				"z": 0.5599377794,
				"element": "H" 
			},
			{
				"x": -0.5354482481,
				"y": 2.1614877712,
				"z": 0.9003306463,
				"element": "H" 
			},
			{
				"x": 0.4919417338,
				"y": -0.5705631143,
				"z": -2.0274570735,
				"element": "H" 
			},
			{
				"x": -0.7116523041,
				"y": -0.9485100096,
				"z": -0.8059783392,
				"element": "H" 
			},
			{
				"x": -1.769817119,
				"y": -0.9123636303,
				"z": -3.0310981776,
				"element": "H" 
			},
			{
				"x": -2.4188409693,
				"y": 0.3696040488,
				"z": -2.0417687059,
				"element": "H" 
			},
			{
				"x": -1.9813176551,
				"y": 1.7399300249,
				"z": -3.8210985513,
				"element": "H" 
			},
			{
				"x": 0.97419897,
				"y": 1.5747132864,
				"z": -3.179459097,
				"element": "H" 
			},
			{
				"x": 0.0004778338,
				"y": 2.986749891,
				"z": -3.5678112958,
				"element": "H" 
			},
			{
				"x": -1.2724840353,
				"y": 2.6715732744,
				"z": -1.4122336516,
				"element": "H" 
			},
			{
				"x": 0.4363767153,
				"y": 3.0415790645,
				"z": -1.1707591337,
				"element": "H" 
			},
			{
				"x": 0.1424721314,
				"y": -1.1806920283,
				"z": -4.3519619718,
				"element": "H" 
			},
			{
				"x": 1.8393808459,
				"y": 0.9360006545,
				"z": -6.0105570191,
				"element": "H" 
			},
			{
				"x": 2.5741763651,
				"y": 2.7348312437,
				"z": -7.5478252156,
				"element": "H" 
			},
			{
				"x": 0.9385449942,
				"y": 4.4175384029,
				"z": -8.3744980753,
				"element": "H" 
			},
			{
				"x": -1.440465956,
				"y": 4.2694833106,
				"z": -7.6537239927,
				"element": "H" 
			},
			{
				"x": -2.1690772867,
				"y": 2.4660453663,
				"z": -6.1444968608,
				"element": "H" 
			},
			{
				"x": -3.4809538343,
				"y": 0.5953238189,
				"z": -4.7169240247,
				"element": "H" 
			},
			{
				"x": -5.1620311177,
				"y": -0.7369786804,
				"z": -5.9057898593,
				"element": "H" 
			},
			{
				"x": -4.4664028542,
				"y": -2.4727368591,
				"z": -7.5468499481,
				"element": "H" 
			},
			{
				"x": -2.0421723099,
				"y": -2.8432231262,
				"z": -7.9822182274,
				"element": "H" 
			},
			{
				"x": -0.3476744484,
				"y": -1.4899705503,
				"z": -6.7900046338,
				"element": "H" 
			}
		],
		 "valence_orbital": [ 
			{
				"type": "occ",
				"energy": -0.25131,
				"method": "rhf"
			},
			{
				"type": "occ",
				"energy": -0.24599,
				"method": "rhf"
			},
			{
				"type": "occ",
				"energy": -0.23974,
				"method": "rhf"
			},
			{
				"type": "occ",
				"energy": -0.23542,
				"method": "rhf"
			},
			{
				"type": "occ",
				"energy": -0.20263,
				"method": "rhf"
			},
			{
				"type": "unocc",
				"energy": -0.01525,
				"method": "rhf"
			},
			{
				"type": "unocc",
				"energy": -0.01387,
				"method": "rhf"
			},
			{
				"type": "unocc",
				"energy": -0.01098,
				"method": "rhf"
			},
			{
				"type": "unocc",
				"energy": -0.00941,
				"method": "rhf"
			},
			{
				"type": "unocc",
				"energy": 0.00146,
				"method": "rhf"
			}
		],
		"cosmo_sigma_profile": { 
			"-0.025": 0.0,
			"-0.024": 0.0,
			"-0.023": 0.0,
			"-0.022": 0.0,
			"-0.021": 0.0,
			"-0.02": 0.0,
			"-0.019": 0.0,
			"-0.018": 0.0,
			"-0.017": 0.0,
			"-0.016": 0.156806211347,
			"-0.015": 0.812134056238,
			"-0.014": 1.83083482674,
			"-0.013": 1.64378719939,
			"-0.012": 3.14153941016,
			"-0.011": 2.33136709079,
			"-0.01": 3.49427258669,
			"-0.009": 2.631198881,
			"-0.008": 1.97659612457,
			"-0.007": 4.73384953236,
			"-0.006": 15.0242306285,
			"-0.005": 33.3397745562,
			"-0.004": 46.9664648569,
			"-0.003": 54.1329395303,
			"-0.002": 59.8557473811,
			"-0.001": 64.5381317674,
			"0.0": 52.8109271427,
			"0.001": 38.3392967591,
			"0.002": 31.624549947,
			"0.003": 31.5794904315,
			"0.004": 27.9170224271,
			"0.005": 29.0820032235,
			"0.006": 21.5942918761,
			"0.007": 8.21164708584,
			"0.008": 6.00866931748,
			"0.009": 6.05373346103,
			"0.01": 8.1473842621,
			"0.011": 6.86568896448,
			"0.012": 6.89781250078,
			"0.013": 2.87661929857,
			"0.014": 0.391549353947,
			"0.015": 0.0,
			"0.016": 0.0,
			"0.017": 0.0,
			"0.018": 0.0,
			"0.019": 0.0,
			"0.02": 0.0,
			"0.021": 0.0,
			"0.022": 0.0,
			"0.023": 0.0,
			"0.024": 0.0,
			"0.025": 0.0
		}
	}
}
