{
	 "smiles": "COC1=CC(N)=CC(OC)=C1Br", 
	 "Tm": 423.15, 
	 "num_atms": 22, 
	 "gaussian": { 
		 "optdone": 1, 
		 "sigma_profile": "yes", 
		 "theory": "DFT", 
		 "functional": "B3LYP", 
		 "basiset": "6-31G**", 
		 "properties": { 
			 "R2extent": 3156.4135, 
			 "electric_dipole_moment_norm": 4.63850810714, 
			 "electric_quadrupole_moment_norm": 13.3064215663, 
			 "total_energy": -3087.44959702, 
			 "HOMO_LUMO_gap": 0.20385, 
			 "cosmo_polarized_energy": -14.02, 
			 "cosmo_cavitation_energy": 27.74, 
			 "cosmo_dispersion_energy": -20.66, 
			 "cosmo_repulsion_energy": 1.67, 
			 "cosmo_total_nonelectrostatic_energy": 8.75, 
			 "SMD_solvation_energy": 5.29 
		},
		"coords": [
			{
				"x": 2.6833954515,
				"y": -1.1514594273,
				"z": -0.0702009371,
				"element": "C" 
			},
			{
				"x": 2.120114549,
				"y": 0.0688385348,
				"z": 0.4151057215,
				"element": "O" 
			},
			{
				"x": 0.7482960154,
				"y": 0.1240807962,
				"z": 0.3830370421,
				"element": "C" 
			},
			{
				"x": 0.0463232499,
				"y": -0.1975345217,
				"z": 1.5460816297,
				"element": "C" 
			},
			{
				"x": -1.3502568678,
				"y": -0.1069308114,
				"z": 1.5759410515,
				"element": "C" 
			},
			{
				"x": -2.0544098927,
				"y": -0.3625512017,
				"z": 2.75241767,
				"element": "N" 
			},
			{
				"x": -2.0372057154,
				"y": 0.3013977839,
				"z": 0.4193950688,
				"element": "C" 
			},
			{
				"x": -1.337596076,
				"y": 0.6253954983,
				"z": -0.7459873606,
				"element": "C" 
			},
			{
				"x": -1.9361059128,
				"y": 1.0346283825,
				"z": -1.8949647856,
				"element": "O" 
			},
			{
				"x": -3.3478771114,
				"y": 1.1682915206,
				"z": -1.9176087892,
				"element": "C" 
			},
			{
				"x": 0.0675462464,
				"y": 0.5337498821,
				"z": -0.767837811,
				"element": "C" 
			},
			{
				"x": 1.0271120612,
				"y": 0.9997132172,
				"z": -2.3436184999,
				"element": "Br" 
			},
			{
				"x": 3.7653367184,
				"y": -1.0538607053,
				"z": 0.038910436,
				"element": "H" 
			},
			{
				"x": 2.4393921363,
				"y": -1.3129859394,
				"z": -1.1260340275,
				"element": "H" 
			},
			{
				"x": 2.3337804398,
				"y": -2.0086754152,
				"z": 0.5200556724,
				"element": "H" 
			},
			{
				"x": 0.6104934452,
				"y": -0.4937822106,
				"z": 2.4246756089,
				"element": "H" 
			},
			{
				"x": -3.0182655943,
				"y": -0.6398555857,
				"z": 2.6297693889,
				"element": "H" 
			},
			{
				"x": -1.5741376857,
				"y": -0.9470779014,
				"z": 3.4221123303,
				"element": "H" 
			},
			{
				"x": -3.1175996931,
				"y": 0.3796677884,
				"z": 0.4481348245,
				"element": "H" 
			},
			{
				"x": -3.6965416975,
				"y": 1.9055342989,
				"z": -1.1833887789,
				"element": "H" 
			},
			{
				"x": -3.597112111,
				"y": 1.5146010792,
				"z": -2.9215598442,
				"element": "H" 
			},
			{
				"x": -3.8488819554,
				"y": 0.2095149375,
				"z": -1.7318356103,
				"element": "H" 
			}
		],
		 "valence_orbital": [ 
			{
				"type": "occ",
				"energy": -0.27002,
				"method": "rhf"
			},
			{
				"type": "occ",
				"energy": -0.26584,
				"method": "rhf"
			},
			{
				"type": "occ",
				"energy": -0.26482,
				"method": "rhf"
			},
			{
				"type": "occ",
				"energy": -0.22691,
				"method": "rhf"
			},
			{
				"type": "occ",
				"energy": -0.19637,
				"method": "rhf"
			},
			{
				"type": "unocc",
				"energy": 0.00748,
				"method": "rhf"
			},
			{
				"type": "unocc",
				"energy": 0.01476,
				"method": "rhf"
			},
			{
				"type": "unocc",
				"energy": 0.02271,
				"method": "rhf"
			},
			{
				"type": "unocc",
				"energy": 0.07858,
				"method": "rhf"
			},
			{
				"type": "unocc",
				"energy": 0.09932,
				"method": "rhf"
			}
		],
		"cosmo_sigma_profile": { 
			"-0.025": 0.0,
			"-0.024": 0.0,
			"-0.023": 0.0,
			"-0.022": 0.0,
			"-0.021": 0.0,
			"-0.02": 0.0,
			"-0.019": 0.0,
			"-0.018": 0.0,
			"-0.017": 0.0,
			"-0.016": 0.0,
			"-0.015": 0.0,
			"-0.014": 0.0,
			"-0.013": 0.917677977747,
			"-0.012": 3.04913732609,
			"-0.011": 2.69449653068,
			"-0.01": 3.40199973116,
			"-0.009": 3.53668709423,
			"-0.008": 2.95908996041,
			"-0.007": 3.71827091654,
			"-0.006": 10.3170943145,
			"-0.005": 15.4644475239,
			"-0.004": 18.1055789868,
			"-0.003": 20.2745643361,
			"-0.002": 15.498481943,
			"-0.001": 10.3425971919,
			"0.0": 9.64935805691,
			"0.001": 9.81792148761,
			"0.002": 10.1814748159,
			"0.003": 15.5489052973,
			"0.004": 18.5371750222,
			"0.005": 16.2934259964,
			"0.006": 8.37613753091,
			"0.007": 4.9293910863,
			"0.008": 4.34269547898,
			"0.009": 4.16158345679,
			"0.01": 4.46664866022,
			"0.011": 3.2100047867,
			"0.012": 1.7156183156,
			"0.013": 0.725350255135,
			"0.014": 0.419384667548,
			"0.015": 0.0275623843972,
			"0.016": 0.0,
			"0.017": 0.0,
			"0.018": 0.0,
			"0.019": 0.0,
			"0.02": 0.0,
			"0.021": 0.0,
			"0.022": 0.0,
			"0.023": 0.0,
			"0.024": 0.0,
			"0.025": 0.0
		}
	}
}
