{
	 "smiles": "OC(=O)CSCCSCC(O)=O", 
	 "Tm": 383.15, 
	 "num_atms": 22, 
	 "gaussian": { 
		 "optdone": 1, 
		 "sigma_profile": "yes", 
		 "theory": "DFT", 
		 "functional": "B3LYP", 
		 "basiset": "6-31G**", 
		 "properties": { 
			 "R2extent": 3485.7107, 
			 "electric_dipole_moment_norm": 4.99470533866, 
			 "electric_quadrupole_moment_norm": 11.2425437775, 
			 "total_energy": -1331.94988764, 
			 "HOMO_LUMO_gap": 0.2412, 
			 "cosmo_polarized_energy": -22.18, 
			 "cosmo_cavitation_energy": 28.73, 
			 "cosmo_dispersion_energy": -20.98, 
			 "cosmo_repulsion_energy": 1.61, 
			 "cosmo_total_nonelectrostatic_energy": 9.36, 
			 "SMD_solvation_energy": 6.39 
		},
		"coords": [
			{
				"x": -2.264580477,
				"y": 0.5546224743,
				"z": -3.143360465,
				"element": "O" 
			},
			{
				"x": -1.2507889784,
				"y": -0.2059394168,
				"z": -2.6818876761,
				"element": "C" 
			},
			{
				"x": -1.1898850599,
				"y": -1.388670388,
				"z": -2.9042217768,
				"element": "O" 
			},
			{
				"x": -0.1598163271,
				"y": 0.5245146076,
				"z": -1.888564327,
				"element": "C" 
			},
			{
				"x": -0.6994940074,
				"y": 2.0293187959,
				"z": -0.9917151425,
				"element": "S" 
			},
			{
				"x": -1.8664502564,
				"y": 1.3167926184,
				"z": 0.2412903731,
				"element": "C" 
			},
			{
				"x": -1.2281009113,
				"y": 0.5155716077,
				"z": 1.3784382775,
				"element": "C" 
			},
			{
				"x": -0.2315386326,
				"y": 1.588360647,
				"z": 2.5008244111,
				"element": "S" 
			},
			{
				"x": 1.1327878918,
				"y": 0.4539185293,
				"z": 2.9414442816,
				"element": "C" 
			},
			{
				"x": 2.1183166611,
				"y": 0.0983757009,
				"z": 1.8166465781,
				"element": "C" 
			},
			{
				"x": 2.1505878691,
				"y": 0.9184298528,
				"z": 0.7497347606,
				"element": "O" 
			},
			{
				"x": 2.8405434718,
				"y": -0.8629211414,
				"z": 1.9062044942,
				"element": "O" 
			},
			{
				"x": -2.1383813194,
				"y": 1.4703043297,
				"z": -2.8303754105,
				"element": "H" 
			},
			{
				"x": 0.3329431221,
				"y": -0.189898414,
				"z": -1.2280890346,
				"element": "H" 
			},
			{
				"x": 0.6002285316,
				"y": 0.8789155474,
				"z": -2.5938611173,
				"element": "H" 
			},
			{
				"x": -2.4124552532,
				"y": 2.1801545619,
				"z": 0.6336390874,
				"element": "H" 
			},
			{
				"x": -2.5931356185,
				"y": 0.6904281479,
				"z": -0.2863351961,
				"element": "H" 
			},
			{
				"x": -0.5848623203,
				"y": -0.2760843081,
				"z": 0.9849437896,
				"element": "H" 
			},
			{
				"x": -2.020240621,
				"y": 0.0374524077,
				"z": 1.9629450197,
				"element": "H" 
			},
			{
				"x": 0.7601027131,
				"y": -0.4783918495,
				"z": 3.370043424,
				"element": "H" 
			},
			{
				"x": 1.6937010829,
				"y": 0.9679165144,
				"z": 3.7293901522,
				"element": "H" 
			},
			{
				"x": 1.4801184389,
				"y": 1.6238291746,
				"z": 0.8542654967,
				"element": "H" 
			}
		],
		 "valence_orbital": [ 
			{
				"type": "occ",
				"energy": -0.3227,
				"method": "rhf"
			},
			{
				"type": "occ",
				"energy": -0.29253,
				"method": "rhf"
			},
			{
				"type": "occ",
				"energy": -0.28999,
				"method": "rhf"
			},
			{
				"type": "occ",
				"energy": -0.26543,
				"method": "rhf"
			},
			{
				"type": "occ",
				"energy": -0.25641,
				"method": "rhf"
			},
			{
				"type": "unocc",
				"energy": -0.01521,
				"method": "rhf"
			},
			{
				"type": "unocc",
				"energy": -0.00941,
				"method": "rhf"
			},
			{
				"type": "unocc",
				"energy": 0.00184,
				"method": "rhf"
			},
			{
				"type": "unocc",
				"energy": 0.01529,
				"method": "rhf"
			},
			{
				"type": "unocc",
				"energy": 0.03954,
				"method": "rhf"
			}
		],
		"cosmo_sigma_profile": { 
			"-0.025": 0.0,
			"-0.024": 0.0,
			"-0.023": 0.0,
			"-0.022": 0.0,
			"-0.021": 0.0,
			"-0.02": 0.0,
			"-0.019": 0.0,
			"-0.018": 0.0,
			"-0.017": 0.0,
			"-0.016": 0.0,
			"-0.015": 0.0,
			"-0.014": 0.0666757668331,
			"-0.013": 0.523501752899,
			"-0.012": 1.24402194177,
			"-0.011": 1.55956773471,
			"-0.01": 3.4702713123,
			"-0.009": 11.7727260215,
			"-0.008": 13.1189766647,
			"-0.007": 16.3702145287,
			"-0.006": 19.1831065871,
			"-0.005": 16.5762652808,
			"-0.004": 12.3173827487,
			"-0.003": 9.69932416299,
			"-0.002": 8.2592679356,
			"-0.001": 7.08986058363,
			"0.0": 7.94183688397,
			"0.001": 6.46651925967,
			"0.002": 7.80241894612,
			"0.003": 8.56815395047,
			"0.004": 10.607100572,
			"0.005": 9.22316242693,
			"0.006": 5.99853593876,
			"0.007": 6.356783198,
			"0.008": 6.58787510184,
			"0.009": 6.92438571766,
			"0.01": 9.99915542597,
			"0.011": 10.2412961553,
			"0.012": 9.92837021155,
			"0.013": 2.41113431053,
			"0.014": 0.0,
			"0.015": 0.0,
			"0.016": 0.0,
			"0.017": 0.0,
			"0.018": 0.0,
			"0.019": 0.0,
			"0.02": 0.0,
			"0.021": 0.0,
			"0.022": 0.0,
			"0.023": 0.0,
			"0.024": 0.0,
			"0.025": 0.0
		}
	}
}
