{
	 "smiles": "CCC1=CC=C(CC)C=C1", 
	 "Tm": 230.25, 
	 "num_atms": 24, 
	 "gaussian": { 
		 "optdone": 1, 
		 "sigma_profile": "yes", 
		 "theory": "DFT", 
		 "functional": "B3LYP", 
		 "basiset": "6-31G**", 
		 "properties": { 
			 "R2extent": 2089.563, 
			 "electric_dipole_moment_norm": 0.0, 
			 "electric_quadrupole_moment_norm": 4.59009996079, 
			 "total_energy": -389.523907522, 
			 "HOMO_LUMO_gap": 0.23231, 
			 "cosmo_polarized_energy": -3.03, 
			 "cosmo_cavitation_energy": 26.42, 
			 "cosmo_dispersion_energy": -18.86, 
			 "cosmo_repulsion_energy": 1.56, 
			 "cosmo_total_nonelectrostatic_energy": 9.12, 
			 "SMD_solvation_energy": 4.43 
		},
		"coords": [
			{
				"x": 2.5247028267,
				"y": 0.7952941495,
				"z": 2.4474311082,
				"element": "C" 
			},
			{
				"x": 2.7176678398,
				"y": 0.2914925826,
				"z": 1.0059803128,
				"element": "C" 
			},
			{
				"x": 1.4164660835,
				"y": -0.102623208,
				"z": 0.3388902617,
				"element": "C" 
			},
			{
				"x": 0.6544303458,
				"y": 0.834465811,
				"z": -0.3710304536,
				"element": "C" 
			},
			{
				"x": -0.564384305,
				"y": 0.4820127164,
				"z": -0.949989973,
				"element": "C" 
			},
			{
				"x": -1.0668400412,
				"y": -0.8213647569,
				"z": -0.8424723326,
				"element": "C" 
			},
			{
				"x": -2.3680419817,
				"y": -1.2154796119,
				"z": -1.509561474,
				"element": "C" 
			},
			{
				"x": -2.1750795743,
				"y": -1.7192687626,
				"z": -2.9510177249,
				"element": "C" 
			},
			{
				"x": -0.3048045596,
				"y": -1.7584533452,
				"z": -0.132551644,
				"element": "C" 
			},
			{
				"x": 0.9140101143,
				"y": -1.4060005859,
				"z": 0.4464080027,
				"element": "C" 
			},
			{
				"x": 3.4832935628,
				"y": 1.071318492,
				"z": 2.8997890826,
				"element": "H" 
			},
			{
				"x": 2.0630426035,
				"y": 0.0245267613,
				"z": 3.0732842453,
				"element": "H" 
			},
			{
				"x": 1.8721705558,
				"y": 1.6742400376,
				"z": 2.471130826,
				"element": "H" 
			},
			{
				"x": 3.3994831894,
				"y": -0.5675836442,
				"z": 1.0132729475,
				"element": "H" 
			},
			{
				"x": 3.2095860263,
				"y": 1.0731459268,
				"z": 0.4143951086,
				"element": "H" 
			},
			{
				"x": 1.0203190114,
				"y": 1.8541307598,
				"z": -0.4714022057,
				"element": "H" 
			},
			{
				"x": -1.1351835655,
				"y": 1.2309842298,
				"z": -1.494867504,
				"element": "H" 
			},
			{
				"x": -2.8599545498,
				"y": -1.9971408147,
				"z": -0.9179818176,
				"element": "H" 
			},
			{
				"x": -3.0498610021,
				"y": -0.3564073013,
				"z": -1.5168458985,
				"element": "H" 
			},
			{
				"x": -1.7134234071,
				"y": -0.9484943932,
				"z": -3.5768655669,
				"element": "H" 
			},
			{
				"x": -1.5225433055,
				"y": -2.5982115896,
				"z": -2.9747270611,
				"element": "H" 
			},
			{
				"x": -3.1336707407,
				"y": -1.9952927509,
				"z": -3.4033738873,
				"element": "H" 
			},
			{
				"x": -0.6706936407,
				"y": -2.7781183784,
				"z": -0.032180306,
				"element": "H" 
			},
			{
				"x": 1.4848085141,
				"y": -2.1549723241,
				"z": 0.991285954,
				"element": "H" 
			}
		],
		 "valence_orbital": [ 
			{
				"type": "occ",
				"energy": -0.33255,
				"method": "rhf"
			},
			{
				"type": "occ",
				"energy": -0.32226,
				"method": "rhf"
			},
			{
				"type": "occ",
				"energy": -0.31829,
				"method": "rhf"
			},
			{
				"type": "occ",
				"energy": -0.24177,
				"method": "rhf"
			},
			{
				"type": "occ",
				"energy": -0.22675,
				"method": "rhf"
			},
			{
				"type": "unocc",
				"energy": 0.00556,
				"method": "rhf"
			},
			{
				"type": "unocc",
				"energy": 0.00692,
				"method": "rhf"
			},
			{
				"type": "unocc",
				"energy": 0.09531,
				"method": "rhf"
			},
			{
				"type": "unocc",
				"energy": 0.10735,
				"method": "rhf"
			},
			{
				"type": "unocc",
				"energy": 0.12784,
				"method": "rhf"
			}
		],
		"cosmo_sigma_profile": { 
			"-0.025": 0.0,
			"-0.024": 0.0,
			"-0.023": 0.0,
			"-0.022": 0.0,
			"-0.021": 0.0,
			"-0.02": 0.0,
			"-0.019": 0.0,
			"-0.018": 0.0,
			"-0.017": 0.0,
			"-0.016": 0.0,
			"-0.015": 0.0,
			"-0.014": 0.0,
			"-0.013": 0.0,
			"-0.012": 0.0,
			"-0.011": 0.0,
			"-0.01": 0.0,
			"-0.009": 0.0,
			"-0.008": 0.0,
			"-0.007": 0.0,
			"-0.006": 0.0,
			"-0.005": 3.91400578648,
			"-0.004": 10.7872568609,
			"-0.003": 26.7986849527,
			"-0.002": 29.167476804,
			"-0.001": 29.6978447156,
			"0.0": 29.5664036083,
			"0.001": 27.6838057202,
			"0.002": 13.0780250839,
			"0.003": 7.86180195553,
			"0.004": 7.76767348972,
			"0.005": 6.73456435447,
			"0.006": 7.44394752021,
			"0.007": 5.98953629667,
			"0.008": 0.23193160345,
			"0.009": 0.0,
			"0.01": 0.0,
			"0.011": 0.0,
			"0.012": 0.0,
			"0.013": 0.0,
			"0.014": 0.0,
			"0.015": 0.0,
			"0.016": 0.0,
			"0.017": 0.0,
			"0.018": 0.0,
			"0.019": 0.0,
			"0.02": 0.0,
			"0.021": 0.0,
			"0.022": 0.0,
			"0.023": 0.0,
			"0.024": 0.0,
			"0.025": 0.0
		}
	}
}
