{
	 "smiles": "FC1=C(Cl)C=C(NC(=O)CCl)C=C1", 
	 "Tm": 370.15, 
	 "num_atms": 19, 
	 "gaussian": { 
		 "optdone": 1, 
		 "sigma_profile": "yes", 
		 "theory": "DFT", 
		 "functional": "B3LYP", 
		 "basiset": "6-31G**", 
		 "properties": { 
			 "R2extent": 5122.0728, 
			 "electric_dipole_moment_norm": 3.56333303243, 
			 "electric_quadrupole_moment_norm": 12.013138033, 
			 "total_energy": -1458.67657992, 
			 "HOMO_LUMO_gap": 0.20352, 
			 "cosmo_polarized_energy": -11.11, 
			 "cosmo_cavitation_energy": 27.8, 
			 "cosmo_dispersion_energy": -20.66, 
			 "cosmo_repulsion_energy": 1.63, 
			 "cosmo_total_nonelectrostatic_energy": 8.76, 
			 "SMD_solvation_energy": 5.22 
		},
		"coords": [
			{
				"x": 2.2499073732,
				"y": -2.874828508,
				"z": -4.2498161404,
				"element": "F" 
			},
			{
				"x": 1.8440645125,
				"y": -2.1542301042,
				"z": -3.1929739402,
				"element": "C" 
			},
			{
				"x": 0.6495642631,
				"y": -2.4701970394,
				"z": -2.5450211075,
				"element": "C" 
			},
			{
				"x": -0.3093531816,
				"y": -3.8094321572,
				"z": -3.121838673,
				"element": "Cl" 
			},
			{
				"x": 0.2205327805,
				"y": -1.7271062495,
				"z": -1.446684191,
				"element": "C" 
			},
			{
				"x": 1.0041058827,
				"y": -0.6544421098,
				"z": -0.9971745626,
				"element": "C" 
			},
			{
				"x": 0.6407303604,
				"y": 0.1468992058,
				"z": 0.1070257338,
				"element": "N" 
			},
			{
				"x": -0.4640090585,
				"y": 0.0424633261,
				"z": 0.8963555708,
				"element": "C" 
			},
			{
				"x": -1.3577809079,
				"y": -0.7849478918,
				"z": 0.7834283431,
				"element": "O" 
			},
			{
				"x": -0.6056292638,
				"y": 1.0563907992,
				"z": 2.0373185573,
				"element": "C" 
			},
			{
				"x": 0.7123825538,
				"y": 2.2928937487,
				"z": 2.2165971328,
				"element": "Cl" 
			},
			{
				"x": 2.2040108457,
				"y": -0.3429905378,
				"z": -1.654118523,
				"element": "C" 
			},
			{
				"x": 2.6217925108,
				"y": -1.091729735,
				"z": -2.7490456826,
				"element": "C" 
			},
			{
				"x": -0.7045653391,
				"y": -1.9721723196,
				"z": -0.9452856929,
				"element": "H" 
			},
			{
				"x": 1.2820392533,
				"y": 0.8935118512,
				"z": 0.3429329822,
				"element": "H" 
			},
			{
				"x": -0.6591200763,
				"y": 0.5052748982,
				"z": 2.9764409838,
				"element": "H" 
			},
			{
				"x": -1.5394188751,
				"y": 1.6003965439,
				"z": 1.8938677633,
				"element": "H" 
			},
			{
				"x": 2.8138928791,
				"y": 0.4872936146,
				"z": -1.3089494644,
				"element": "H" 
			},
			{
				"x": 3.5462534872,
				"y": -0.8649473352,
				"z": -3.2684590895,
				"element": "H" 
			}
		],
		 "valence_orbital": [ 
			{
				"type": "occ",
				"energy": -0.31799,
				"method": "rhf"
			},
			{
				"type": "occ",
				"energy": -0.31095,
				"method": "rhf"
			},
			{
				"type": "occ",
				"energy": -0.27692,
				"method": "rhf"
			},
			{
				"type": "occ",
				"energy": -0.26399,
				"method": "rhf"
			},
			{
				"type": "occ",
				"energy": -0.23524,
				"method": "rhf"
			},
			{
				"type": "unocc",
				"energy": -0.03172,
				"method": "rhf"
			},
			{
				"type": "unocc",
				"energy": -0.02807,
				"method": "rhf"
			},
			{
				"type": "unocc",
				"energy": -8e-05,
				"method": "rhf"
			},
			{
				"type": "unocc",
				"energy": 0.02182,
				"method": "rhf"
			},
			{
				"type": "unocc",
				"energy": 0.02664,
				"method": "rhf"
			}
		],
		"cosmo_sigma_profile": { 
			"-0.025": 0.0,
			"-0.024": 0.0,
			"-0.023": 0.0,
			"-0.022": 0.0,
			"-0.021": 0.0,
			"-0.02": 0.0,
			"-0.019": 0.0,
			"-0.018": 0.0,
			"-0.017": 0.0,
			"-0.016": 0.0,
			"-0.015": 0.0127333485552,
			"-0.014": 0.582825231931,
			"-0.013": 1.25394152665,
			"-0.012": 0.928614279619,
			"-0.011": 1.35535611909,
			"-0.01": 1.77813318749,
			"-0.009": 5.92091594402,
			"-0.008": 8.01351946002,
			"-0.007": 7.86178416775,
			"-0.006": 8.91904525049,
			"-0.005": 9.44951173245,
			"-0.004": 7.41671694158,
			"-0.003": 8.0748683579,
			"-0.002": 10.011509234,
			"-0.001": 15.9982477017,
			"0.0": 22.0967194336,
			"0.001": 25.9894048808,
			"0.002": 21.4185037375,
			"0.003": 20.1610669026,
			"0.004": 23.6902764148,
			"0.005": 12.4324257294,
			"0.006": 2.19714259343,
			"0.007": 1.19842492208,
			"0.008": 2.10908510779,
			"0.009": 0.999232743922,
			"0.01": 1.65671231298,
			"0.011": 2.81063702505,
			"0.012": 2.65456111772,
			"0.013": 1.07257754798,
			"0.014": 0.0,
			"0.015": 0.0,
			"0.016": 0.0,
			"0.017": 0.0,
			"0.018": 0.0,
			"0.019": 0.0,
			"0.02": 0.0,
			"0.021": 0.0,
			"0.022": 0.0,
			"0.023": 0.0,
			"0.024": 0.0,
			"0.025": 0.0
		}
	}
}
