{
	 "smiles": "O=C(C1=CC=CC=C1)C1=CC=C2CCC3=C2C1=CC=C3", 
	 "Tm": 374.15, 
	 "num_atms": 34, 
	 "gaussian": { 
		 "optdone": 1, 
		 "sigma_profile": "yes", 
		 "theory": "DFT", 
		 "functional": "B3LYP", 
		 "basiset": "6-31G**", 
		 "properties": { 
			 "R2extent": 6077.1495, 
			 "electric_dipole_moment_norm": 3.60877897079, 
			 "electric_quadrupole_moment_norm": 17.4958398575, 
			 "total_energy": -807.699354061, 
			 "HOMO_LUMO_gap": 0.14909, 
			 "cosmo_polarized_energy": -10.14, 
			 "cosmo_cavitation_energy": 36.75, 
			 "cosmo_dispersion_energy": -26.47, 
			 "cosmo_repulsion_energy": 2.01, 
			 "cosmo_total_nonelectrostatic_energy": 12.29, 
			 "SMD_solvation_energy": 5.77 
		},
		"coords": [
			{
				"x": -0.8495485606,
				"y": 2.7159367876,
				"z": 2.6417495092,
				"element": "O" 
			},
			{
				"x": -0.5443308605,
				"y": 1.6124134902,
				"z": 2.2016383227,
				"element": "C" 
			},
			{
				"x": -1.1899383749,
				"y": 0.3827934236,
				"z": 2.7701928127,
				"element": "C" 
			},
			{
				"x": -2.4087037611,
				"y": 0.5313382776,
				"z": 3.4513801107,
				"element": "C" 
			},
			{
				"x": -3.0202158581,
				"y": -0.5668414537,
				"z": 4.0491546486,
				"element": "C" 
			},
			{
				"x": -2.4083430441,
				"y": -1.8231758518,
				"z": 3.994086558,
				"element": "C" 
			},
			{
				"x": -1.1860615936,
				"y": -1.9764564102,
				"z": 3.3365240976,
				"element": "C" 
			},
			{
				"x": -0.5810238849,
				"y": -0.880467328,
				"z": 2.721388106,
				"element": "C" 
			},
			{
				"x": 0.5252337263,
				"y": 1.4999048601,
				"z": 1.1511456048,
				"element": "C" 
			},
			{
				"x": 1.6545112423,
				"y": 2.292375297,
				"z": 1.3373171386,
				"element": "C" 
			},
			{
				"x": 2.7514560898,
				"y": 2.3055568711,
				"z": 0.4427974091,
				"element": "C" 
			},
			{
				"x": 2.6893930488,
				"y": 1.5199574136,
				"z": -0.6876936327,
				"element": "C" 
			},
			{
				"x": 3.6607024884,
				"y": 1.3138587717,
				"z": -1.8349044342,
				"element": "C" 
			},
			{
				"x": 2.9308363177,
				"y": 0.3250632161,
				"z": -2.8065182751,
				"element": "C" 
			},
			{
				"x": 1.5995875923,
				"y": 0.0335876795,
				"z": -2.1364104821,
				"element": "C" 
			},
			{
				"x": 1.5322951246,
				"y": 0.7427041087,
				"z": -0.9147625328,
				"element": "C" 
			},
			{
				"x": 0.4220281161,
				"y": 0.6953289539,
				"z": -0.0344873004,
				"element": "C" 
			},
			{
				"x": -0.6754674884,
				"y": -0.102412486,
				"z": -0.4686447873,
				"element": "C" 
			},
			{
				"x": -0.6086595765,
				"y": -0.7919471241,
				"z": -1.6663280294,
				"element": "C" 
			},
			{
				"x": 0.528421894,
				"y": -0.7426582365,
				"z": -2.5168326825,
				"element": "C" 
			},
			{
				"x": -2.8527511976,
				"y": 1.519986603,
				"z": 3.5013755605,
				"element": "H" 
			},
			{
				"x": -3.9691474872,
				"y": -0.4461050261,
				"z": 4.563775261,
				"element": "H" 
			},
			{
				"x": -2.8819449798,
				"y": -2.6794195144,
				"z": 4.4662377745,
				"element": "H" 
			},
			{
				"x": -0.7035344972,
				"y": -2.9489485427,
				"z": 3.3032662672,
				"element": "H" 
			},
			{
				"x": 0.3695322729,
				"y": -1.0015230847,
				"z": 2.2128391455,
				"element": "H" 
			},
			{
				"x": 1.6848457163,
				"y": 2.9220708756,
				"z": 2.2211219212,
				"element": "H" 
			},
			{
				"x": 3.6119696008,
				"y": 2.9329929406,
				"z": 0.6580260205,
				"element": "H" 
			},
			{
				"x": 3.9000792528,
				"y": 2.2621693004,
				"z": -2.3291960658,
				"element": "H" 
			},
			{
				"x": 4.6125421145,
				"y": 0.9013576437,
				"z": -1.4808247216,
				"element": "H" 
			},
			{
				"x": 3.5122953382,
				"y": -0.5915890212,
				"z": -2.9577733022,
				"element": "H" 
			},
			{
				"x": 2.7898782982,
				"y": 0.7692215515,
				"z": -3.7984183874,
				"element": "H" 
			},
			{
				"x": -1.5736115244,
				"y": -0.1687371615,
				"z": 0.1341245428,
				"element": "H" 
			},
			{
				"x": -1.4620890182,
				"y": -1.3910887292,
				"z": -1.9723037954,
				"element": "H" 
			},
			{
				"x": 0.530363473,
				"y": -1.3027480954,
				"z": -3.4480423822,
				"element": "H" 
			}
		],
		 "valence_orbital": [ 
			{
				"type": "occ",
				"energy": -0.25576,
				"method": "rhf"
			},
			{
				"type": "occ",
				"energy": -0.25567,
				"method": "rhf"
			},
			{
				"type": "occ",
				"energy": -0.24608,
				"method": "rhf"
			},
			{
				"type": "occ",
				"energy": -0.24066,
				"method": "rhf"
			},
			{
				"type": "occ",
				"energy": -0.2086,
				"method": "rhf"
			},
			{
				"type": "unocc",
				"energy": -0.05951,
				"method": "rhf"
			},
			{
				"type": "unocc",
				"energy": -0.034,
				"method": "rhf"
			},
			{
				"type": "unocc",
				"energy": -0.01298,
				"method": "rhf"
			},
			{
				"type": "unocc",
				"energy": -0.00339,
				"method": "rhf"
			},
			{
				"type": "unocc",
				"energy": 0.01798,
				"method": "rhf"
			}
		],
		"cosmo_sigma_profile": { 
			"-0.025": 0.0,
			"-0.024": 0.0,
			"-0.023": 0.0,
			"-0.022": 0.0,
			"-0.021": 0.0,
			"-0.02": 0.0,
			"-0.019": 0.0,
			"-0.018": 0.0,
			"-0.017": 0.0,
			"-0.016": 0.0,
			"-0.015": 0.0,
			"-0.014": 0.0,
			"-0.013": 0.0,
			"-0.012": 0.0,
			"-0.011": 0.0,
			"-0.01": 0.0,
			"-0.009": 0.0,
			"-0.008": 0.0,
			"-0.007": 1.03383886872,
			"-0.006": 11.0455014423,
			"-0.005": 23.6552104268,
			"-0.004": 31.3260407943,
			"-0.003": 30.9176474229,
			"-0.002": 27.7641172147,
			"-0.001": 25.3581250353,
			"0.0": 20.8289069948,
			"0.001": 17.1864455743,
			"0.002": 21.3907384515,
			"0.003": 25.8874046072,
			"0.004": 26.3849200535,
			"0.005": 12.3926965953,
			"0.006": 2.94014638722,
			"0.007": 1.85532533045,
			"0.008": 1.98388321472,
			"0.009": 2.00752388824,
			"0.01": 1.99508538499,
			"0.011": 2.51294868958,
			"0.012": 4.37308564518,
			"0.013": 1.56267981958,
			"0.014": 0.104859370643,
			"0.015": 0.0,
			"0.016": 0.0,
			"0.017": 0.0,
			"0.018": 0.0,
			"0.019": 0.0,
			"0.02": 0.0,
			"0.021": 0.0,
			"0.022": 0.0,
			"0.023": 0.0,
			"0.024": 0.0,
			"0.025": 0.0
		}
	}
}
