{
	 "smiles": "CN1C(=O)C(=N/NC(N)=S)C2=CC=CC=C12", 
	 "Tm": 518.15, 
	 "num_atms": 26, 
	 "gaussian": { 
		 "optdone": 1, 
		 "sigma_profile": "yes", 
		 "theory": "DFT", 
		 "functional": "B3LYP", 
		 "basiset": "6-31G**", 
		 "properties": { 
			 "R2extent": 5731.6884, 
			 "electric_dipole_moment_norm": 7.01142698386, 
			 "electric_quadrupole_moment_norm": 30.1309589044, 
			 "total_energy": -1079.52312139, 
			 "HOMO_LUMO_gap": 0.12095, 
			 "cosmo_polarized_energy": -18.06, 
			 "cosmo_cavitation_energy": 32.55, 
			 "cosmo_dispersion_energy": -24.24, 
			 "cosmo_repulsion_energy": 1.84, 
			 "cosmo_total_nonelectrostatic_energy": 10.15, 
			 "SMD_solvation_energy": 4.57 
		},
		"coords": [
			{
				"x": 0.1668756509,
				"y": 1.9313412974,
				"z": 1.5050460236,
				"element": "C" 
			},
			{
				"x": 0.2253609834,
				"y": 0.8044724795,
				"z": 0.5962606753,
				"element": "N" 
			},
			{
				"x": -0.8574805899,
				"y": -0.008599737,
				"z": 0.3201731125,
				"element": "C" 
			},
			{
				"x": -1.9900241233,
				"y": 0.1011227587,
				"z": 0.7887922338,
				"element": "O" 
			},
			{
				"x": -0.370367509,
				"y": -1.0367077693,
				"z": -0.6559605517,
				"element": "C" 
			},
			{
				"x": -1.0688849845,
				"y": -1.9983769154,
				"z": -1.1796079799,
				"element": "N" 
			},
			{
				"x": -2.3576757605,
				"y": -2.1141005837,
				"z": -0.8362149191,
				"element": "N" 
			},
			{
				"x": -3.1384177422,
				"y": -3.1243670953,
				"z": -1.3704420421,
				"element": "C" 
			},
			{
				"x": -2.4984025298,
				"y": -3.9387011456,
				"z": -2.2289104245,
				"element": "N" 
			},
			{
				"x": -4.745995848,
				"y": -3.2567582533,
				"z": -0.933213772,
				"element": "S" 
			},
			{
				"x": 1.0351157722,
				"y": -0.7501771077,
				"z": -0.9039920214,
				"element": "C" 
			},
			{
				"x": 2.0060345069,
				"y": -1.3471455546,
				"z": -1.7026845154,
				"element": "C" 
			},
			{
				"x": 3.2965276484,
				"y": -0.806943108,
				"z": -1.7118029314,
				"element": "C" 
			},
			{
				"x": 3.6029962043,
				"y": 0.3125176909,
				"z": -0.9318307152,
				"element": "C" 
			},
			{
				"x": 2.6364239057,
				"y": 0.9255997459,
				"z": -0.1218785474,
				"element": "C" 
			},
			{
				"x": 1.3591818514,
				"y": 0.380923976,
				"z": -0.1206900701,
				"element": "C" 
			},
			{
				"x": 0.4077162518,
				"y": 2.8649321902,
				"z": 0.985284109,
				"element": "H" 
			},
			{
				"x": 0.8647202503,
				"y": 1.797234666,
				"z": 2.3385743753,
				"element": "H" 
			},
			{
				"x": -0.8515128049,
				"y": 1.985935308,
				"z": 1.892000357,
				"element": "H" 
			},
			{
				"x": -2.7781247939,
				"y": -1.4559763372,
				"z": -0.1751654938,
				"element": "H" 
			},
			{
				"x": -3.0170922554,
				"y": -4.6911449399,
				"z": -2.6489509634,
				"element": "H" 
			},
			{
				"x": -1.522077549,
				"y": -3.7853839795,
				"z": -2.4381067243,
				"element": "H" 
			},
			{
				"x": 1.7595087256,
				"y": -2.2158024417,
				"z": -2.3050225445,
				"element": "H" 
			},
			{
				"x": 4.0659582865,
				"y": -1.2599096987,
				"z": -2.3288737939,
				"element": "H" 
			},
			{
				"x": 4.6096532064,
				"y": 0.7192762402,
				"z": -0.9505233551,
				"element": "H" 
			},
			{
				"x": 2.8836832469,
				"y": 1.793838314,
				"z": 0.4798404786,
				"element": "H" 
			}
		],
		 "valence_orbital": [ 
			{
				"type": "occ",
				"energy": -0.27165,
				"method": "rhf"
			},
			{
				"type": "occ",
				"energy": -0.25186,
				"method": "rhf"
			},
			{
				"type": "occ",
				"energy": -0.23137,
				"method": "rhf"
			},
			{
				"type": "occ",
				"energy": -0.2133,
				"method": "rhf"
			},
			{
				"type": "occ",
				"energy": -0.21182,
				"method": "rhf"
			},
			{
				"type": "unocc",
				"energy": -0.09087,
				"method": "rhf"
			},
			{
				"type": "unocc",
				"energy": -0.0178,
				"method": "rhf"
			},
			{
				"type": "unocc",
				"energy": 0.00471,
				"method": "rhf"
			},
			{
				"type": "unocc",
				"energy": 0.01139,
				"method": "rhf"
			},
			{
				"type": "unocc",
				"energy": 0.07847,
				"method": "rhf"
			}
		],
		"cosmo_sigma_profile": { 
			"-0.025": 0.0,
			"-0.024": 0.0,
			"-0.023": 0.0,
			"-0.022": 0.0,
			"-0.021": 0.0,
			"-0.02": 0.0,
			"-0.019": 0.0,
			"-0.018": 0.0,
			"-0.017": 0.0,
			"-0.016": 0.126761817605,
			"-0.015": 1.01276073897,
			"-0.014": 1.67551274676,
			"-0.013": 1.8377991203,
			"-0.012": 1.4851863006,
			"-0.011": 2.22056343152,
			"-0.01": 1.68467471025,
			"-0.009": 1.29800935373,
			"-0.008": 1.56565079376,
			"-0.007": 4.41049216537,
			"-0.006": 15.6709547458,
			"-0.005": 19.7504077866,
			"-0.004": 23.2480848875,
			"-0.003": 21.2396007724,
			"-0.002": 19.2369555316,
			"-0.001": 18.788192312,
			"0.0": 15.6647235236,
			"0.001": 15.5104063636,
			"0.002": 16.4176576077,
			"0.003": 15.1365184464,
			"0.004": 14.9565426642,
			"0.005": 9.01471204422,
			"0.006": 3.47713984282,
			"0.007": 5.38946523398,
			"0.008": 5.07664268036,
			"0.009": 7.73475752449,
			"0.01": 9.72154760873,
			"0.011": 7.72073512199,
			"0.012": 2.68268520918,
			"0.013": 0.0,
			"0.014": 0.0,
			"0.015": 0.0,
			"0.016": 0.0,
			"0.017": 0.0,
			"0.018": 0.0,
			"0.019": 0.0,
			"0.02": 0.0,
			"0.021": 0.0,
			"0.022": 0.0,
			"0.023": 0.0,
			"0.024": 0.0,
			"0.025": 0.0
		}
	}
}
