{
	 "smiles": "COC1=CC=C(C=C1)C(=O)CCCCl", 
	 "Tm": 305.15, 
	 "num_atms": 27, 
	 "gaussian": { 
		 "optdone": 1, 
		 "sigma_profile": "yes", 
		 "theory": "DFT", 
		 "functional": "B3LYP", 
		 "basiset": "6-31G**", 
		 "properties": { 
			 "R2extent": 5259.2682, 
			 "electric_dipole_moment_norm": 4.25500542068, 
			 "electric_quadrupole_moment_norm": 19.566896849, 
			 "total_energy": -1037.65007431, 
			 "HOMO_LUMO_gap": 0.18265, 
			 "cosmo_polarized_energy": -11.12, 
			 "cosmo_cavitation_energy": 32.14, 
			 "cosmo_dispersion_energy": -23.41, 
			 "cosmo_repulsion_energy": 1.85, 
			 "cosmo_total_nonelectrostatic_energy": 10.59, 
			 "SMD_solvation_energy": 6.13 
		},
		"coords": [
			{
				"x": -2.2256877153,
				"y": 5.1253384635,
				"z": 2.0784748719,
				"element": "C" 
			},
			{
				"x": -1.5159462849,
				"y": 4.1062282156,
				"z": 2.7698579739,
				"element": "O" 
			},
			{
				"x": -1.3141708096,
				"y": 2.9165667173,
				"z": 2.1471083646,
				"element": "C" 
			},
			{
				"x": -1.7625080651,
				"y": 2.6081814055,
				"z": 0.8551761091,
				"element": "C" 
			},
			{
				"x": -1.4947808674,
				"y": 1.3495195224,
				"z": 0.3174279898,
				"element": "C" 
			},
			{
				"x": -0.7851790474,
				"y": 0.3832985194,
				"z": 1.0427525666,
				"element": "C" 
			},
			{
				"x": -0.3430292254,
				"y": 0.7126019448,
				"z": 2.3396543197,
				"element": "C" 
			},
			{
				"x": -0.600534211,
				"y": 1.9558172501,
				"z": 2.8870853749,
				"element": "C" 
			},
			{
				"x": -0.4753628427,
				"y": -0.9744416417,
				"z": 0.5129560893,
				"element": "C" 
			},
			{
				"x": 0.1544341126,
				"y": -1.7817846884,
				"z": 1.1878877279,
				"element": "O" 
			},
			{
				"x": -0.9686568167,
				"y": -1.3516333085,
				"z": -0.8838737989,
				"element": "C" 
			},
			{
				"x": -0.5478691655,
				"y": -2.7573994282,
				"z": -1.3205068921,
				"element": "C" 
			},
			{
				"x": 0.9392743267,
				"y": -2.9194175297,
				"z": -1.6105346189,
				"element": "C" 
			},
			{
				"x": 1.4806352569,
				"y": -1.9131043519,
				"z": -3.0382975148,
				"element": "Cl" 
			},
			{
				"x": -2.2647042374,
				"y": 5.9771478548,
				"z": 2.7585313186,
				"element": "H" 
			},
			{
				"x": -1.7093945054,
				"y": 5.421307562,
				"z": 1.1569177253,
				"element": "H" 
			},
			{
				"x": -3.2477564539,
				"y": 4.8099374079,
				"z": 1.8346658957,
				"element": "H" 
			},
			{
				"x": -2.31242998,
				"y": 3.3329778568,
				"z": 0.2672583484,
				"element": "H" 
			},
			{
				"x": -1.8490853105,
				"y": 1.1326187717,
				"z": -0.6850097227,
				"element": "H" 
			},
			{
				"x": 0.2063772117,
				"y": -0.0380928039,
				"z": 2.8976577878,
				"element": "H" 
			},
			{
				"x": -0.2638482252,
				"y": 2.218802344,
				"z": 3.884480219,
				"element": "H" 
			},
			{
				"x": -2.0639013835,
				"y": -1.273990926,
				"z": -0.8889370059,
				"element": "H" 
			},
			{
				"x": -0.6136951357,
				"y": -0.607834991,
				"z": -1.607489025,
				"element": "H" 
			},
			{
				"x": -1.1224836378,
				"y": -3.0514462539,
				"z": -2.2049168055,
				"element": "H" 
			},
			{
				"x": -0.7863387212,
				"y": -3.4676590568,
				"z": -0.520044144,
				"element": "H" 
			},
			{
				"x": 1.1807299528,
				"y": -3.9502813326,
				"z": -1.8720191384,
				"element": "H" 
			},
			{
				"x": 1.5486117809,
				"y": -2.6060575233,
				"z": -0.7645640162,
				"element": "H" 
			}
		],
		 "valence_orbital": [ 
			{
				"type": "occ",
				"energy": -0.28923,
				"method": "rhf"
			},
			{
				"type": "occ",
				"energy": -0.28605,
				"method": "rhf"
			},
			{
				"type": "occ",
				"energy": -0.26305,
				"method": "rhf"
			},
			{
				"type": "occ",
				"energy": -0.24805,
				"method": "rhf"
			},
			{
				"type": "occ",
				"energy": -0.23264,
				"method": "rhf"
			},
			{
				"type": "unocc",
				"energy": -0.04999,
				"method": "rhf"
			},
			{
				"type": "unocc",
				"energy": -0.01118,
				"method": "rhf"
			},
			{
				"type": "unocc",
				"energy": 0.0345,
				"method": "rhf"
			},
			{
				"type": "unocc",
				"energy": 0.04663,
				"method": "rhf"
			},
			{
				"type": "unocc",
				"energy": 0.08333,
				"method": "rhf"
			}
		],
		"cosmo_sigma_profile": { 
			"-0.025": 0.0,
			"-0.024": 0.0,
			"-0.023": 0.0,
			"-0.022": 0.0,
			"-0.021": 0.0,
			"-0.02": 0.0,
			"-0.019": 0.0,
			"-0.018": 0.0,
			"-0.017": 0.0,
			"-0.016": 0.0,
			"-0.015": 0.0,
			"-0.014": 0.0,
			"-0.013": 0.0,
			"-0.012": 0.0,
			"-0.011": 0.0,
			"-0.01": 0.0,
			"-0.009": 0.0,
			"-0.008": 0.0,
			"-0.007": 4.64375778021,
			"-0.006": 19.4087189721,
			"-0.005": 23.3011074818,
			"-0.004": 26.5891015199,
			"-0.003": 27.0425767824,
			"-0.002": 17.8038470067,
			"-0.001": 13.5872578415,
			"0.0": 13.7870380464,
			"0.001": 13.402410059,
			"0.002": 14.8557673868,
			"0.003": 19.6748399331,
			"0.004": 17.9027534745,
			"0.005": 9.62156796434,
			"0.006": 10.4674483882,
			"0.007": 10.6784784091,
			"0.008": 2.68439530235,
			"0.009": 2.74513675985,
			"0.01": 2.46289346672,
			"0.011": 2.23899197626,
			"0.012": 2.96136699584,
			"0.013": 0.80621801075,
			"0.014": 0.0,
			"0.015": 0.0,
			"0.016": 0.0,
			"0.017": 0.0,
			"0.018": 0.0,
			"0.019": 0.0,
			"0.02": 0.0,
			"0.021": 0.0,
			"0.022": 0.0,
			"0.023": 0.0,
			"0.024": 0.0,
			"0.025": 0.0
		}
	}
}
