{
	 "smiles": "NS(=O)(=O)C1=CC=C(NC(=O)CC#N)C=C1", 
	 "Tm": 489.15, 
	 "num_atms": 25, 
	 "gaussian": { 
		 "optdone": 1, 
		 "sigma_profile": "yes", 
		 "theory": "DFT", 
		 "functional": "B3LYP", 
		 "basiset": "6-31G**", 
		 "properties": { 
			 "R2extent": 6702.9873, 
			 "electric_dipole_moment_norm": 5.33165687662, 
			 "electric_quadrupole_moment_norm": 26.8875210975, 
			 "total_energy": -1136.41394624, 
			 "HOMO_LUMO_gap": 0.20006, 
			 "cosmo_polarized_energy": -27.19, 
			 "cosmo_cavitation_energy": 32.53, 
			 "cosmo_dispersion_energy": -23.27, 
			 "cosmo_repulsion_energy": 1.79, 
			 "cosmo_total_nonelectrostatic_energy": 11.04, 
			 "SMD_solvation_energy": 7.2 
		},
		"coords": [
			{
				"x": 0.3570931405,
				"y": 4.2290683906,
				"z": -3.4935956128,
				"element": "N" 
			},
			{
				"x": 0.9367345091,
				"y": 2.7895095789,
				"z": -4.1750758535,
				"element": "S" 
			},
			{
				"x": 0.1627504101,
				"y": 2.549411598,
				"z": -5.3963045297,
				"element": "O" 
			},
			{
				"x": 2.3997094816,
				"y": 2.8681975695,
				"z": -4.1680733331,
				"element": "O" 
			},
			{
				"x": 0.4567673013,
				"y": 1.5423281153,
				"z": -2.9815249851,
				"element": "C" 
			},
			{
				"x": 1.3161073423,
				"y": 1.2296738465,
				"z": -1.9285525044,
				"element": "C" 
			},
			{
				"x": 0.9490804789,
				"y": 0.2519668989,
				"z": -1.006228027,
				"element": "C" 
			},
			{
				"x": -0.2926199424,
				"y": -0.390704124,
				"z": -1.1236231389,
				"element": "C" 
			},
			{
				"x": -0.7067103377,
				"y": -1.3982136181,
				"z": -0.220481487,
				"element": "N" 
			},
			{
				"x": -0.668787191,
				"y": -1.4687833486,
				"z": 1.1559730806,
				"element": "C" 
			},
			{
				"x": -1.0906255995,
				"y": -2.4451586155,
				"z": 1.7467993954,
				"element": "O" 
			},
			{
				"x": -0.1326089483,
				"y": -0.2492185196,
				"z": 1.9337422906,
				"element": "C" 
			},
			{
				"x": 1.2838680484,
				"y": -0.3874676204,
				"z": 2.2717115407,
				"element": "C" 
			},
			{
				"x": 2.4141370546,
				"y": -0.4938740309,
				"z": 2.5134674337,
				"element": "N" 
			},
			{
				"x": -1.1365278987,
				"y": -0.0809048992,
				"z": -2.2022565041,
				"element": "C" 
			},
			{
				"x": -0.7613580159,
				"y": 0.878148187,
				"z": -3.1365029473,
				"element": "C" 
			},
			{
				"x": 1.1384827133,
				"y": 4.8555496551,
				"z": -3.317795222,
				"element": "H" 
			},
			{
				"x": -0.3200786824,
				"y": 4.6499921188,
				"z": -4.1245414393,
				"element": "H" 
			},
			{
				"x": 2.2820377585,
				"y": 1.717053931,
				"z": -1.8548766092,
				"element": "H" 
			},
			{
				"x": 1.6443236961,
				"y": -0.0336694678,
				"z": -0.225052492,
				"element": "H" 
			},
			{
				"x": -1.2038143475,
				"y": -2.1881437558,
				"z": -0.6161940972,
				"element": "H" 
			},
			{
				"x": -0.7148481835,
				"y": -0.2110739742,
				"z": 2.858616227,
				"element": "H" 
			},
			{
				"x": -0.277660927,
				"y": 0.6869878874,
				"z": 1.3862688022,
				"element": "H" 
			},
			{
				"x": -2.0899806052,
				"y": -0.5918320888,
				"z": -2.3000511628,
				"element": "H" 
			},
			{
				"x": -1.3999712559,
				"y": 1.110256286,
				"z": -3.9814488248,
				"element": "H" 
			}
		],
		 "valence_orbital": [ 
			{
				"type": "occ",
				"energy": -0.31586,
				"method": "rhf"
			},
			{
				"type": "occ",
				"energy": -0.30167,
				"method": "rhf"
			},
			{
				"type": "occ",
				"energy": -0.28994,
				"method": "rhf"
			},
			{
				"type": "occ",
				"energy": -0.28575,
				"method": "rhf"
			},
			{
				"type": "occ",
				"energy": -0.26013,
				"method": "rhf"
			},
			{
				"type": "unocc",
				"energy": -0.06007,
				"method": "rhf"
			},
			{
				"type": "unocc",
				"energy": -0.04093,
				"method": "rhf"
			},
			{
				"type": "unocc",
				"energy": -0.01131,
				"method": "rhf"
			},
			{
				"type": "unocc",
				"energy": 0.01989,
				"method": "rhf"
			},
			{
				"type": "unocc",
				"energy": 0.02773,
				"method": "rhf"
			}
		],
		"cosmo_sigma_profile": { 
			"-0.025": 0.0,
			"-0.024": 0.0,
			"-0.023": 0.0,
			"-0.022": 0.0,
			"-0.021": 0.0,
			"-0.02": 0.0,
			"-0.019": 0.0,
			"-0.018": 0.0,
			"-0.017": 0.0,
			"-0.016": 0.38635859482,
			"-0.015": 2.3446403474,
			"-0.014": 3.66284405832,
			"-0.013": 3.94047195709,
			"-0.012": 3.40650560198,
			"-0.011": 3.5361425725,
			"-0.01": 5.82692434318,
			"-0.009": 9.15317780318,
			"-0.008": 10.059753534,
			"-0.007": 13.5109819994,
			"-0.006": 12.5907623577,
			"-0.005": 12.8198943984,
			"-0.004": 11.6016217141,
			"-0.003": 11.1002546457,
			"-0.002": 11.3005173465,
			"-0.001": 12.7076517091,
			"0.0": 13.0282036716,
			"0.001": 15.8126064956,
			"0.002": 13.9707063732,
			"0.003": 7.18646420021,
			"0.004": 6.45673405627,
			"0.005": 6.50334912885,
			"0.006": 6.90096471165,
			"0.007": 7.5106252464,
			"0.008": 7.73045751462,
			"0.009": 7.47231618393,
			"0.01": 14.1199674405,
			"0.011": 14.7679960892,
			"0.012": 10.0012155059,
			"0.013": 1.5512504857,
			"0.014": 0.0,
			"0.015": 0.0,
			"0.016": 0.0,
			"0.017": 0.0,
			"0.018": 0.0,
			"0.019": 0.0,
			"0.02": 0.0,
			"0.021": 0.0,
			"0.022": 0.0,
			"0.023": 0.0,
			"0.024": 0.0,
			"0.0": 0.0
		}
	}
}
