{
	 "smiles": "NS(=O)(=O)C1=C(Cl)C=CC(Cl)=C1", 
	 "Tm": 453.15, 
	 "num_atms": 17, 
	 "gaussian": { 
		 "optdone": 1, 
		 "sigma_profile": "yes", 
		 "theory": "DFT", 
		 "functional": "B3LYP", 
		 "basiset": "6-31G**", 
		 "properties": { 
			 "R2extent": 3520.799, 
			 "electric_dipole_moment_norm": 3.00959055355, 
			 "electric_quadrupole_moment_norm": 22.7953945142, 
			 "total_energy": -1755.3420653, 
			 "HOMO_LUMO_gap": 0.20537, 
			 "cosmo_polarized_energy": -15.88, 
			 "cosmo_cavitation_energy": 26.42, 
			 "cosmo_dispersion_energy": -20.26, 
			 "cosmo_repulsion_energy": 1.58, 
			 "cosmo_total_nonelectrostatic_energy": 7.74, 
			 "SMD_solvation_energy": 3.72 
		},
		"coords": [
			{
				"x": 2.3286146146,
				"y": 1.0661887941,
				"z": 1.1519242165,
				"element": "N" 
			},
			{
				"x": 1.5386977428,
				"y": 2.0073215038,
				"z": -0.0087839689,
				"element": "S" 
			},
			{
				"x": 0.8292178159,
				"y": 3.0698236045,
				"z": 0.7035208163,
				"element": "O" 
			},
			{
				"x": 2.5045776228,
				"y": 2.2875845757,
				"z": -1.0709470957,
				"element": "O" 
			},
			{
				"x": 0.3054436906,
				"y": 0.8566882156,
				"z": -0.6659445085,
				"element": "C" 
			},
			{
				"x": -0.5762961575,
				"y": 1.2666654494,
				"z": -1.6792794216,
				"element": "C" 
			},
			{
				"x": -0.5374796472,
				"y": 2.8758250716,
				"z": -2.3521777964,
				"element": "Cl" 
			},
			{
				"x": -1.5226611992,
				"y": 0.3702768965,
				"z": -2.1776227027,
				"element": "C" 
			},
			{
				"x": -1.601336372,
				"y": -0.9280694349,
				"z": -1.6794693153,
				"element": "C" 
			},
			{
				"x": -0.7223028307,
				"y": -1.3250610185,
				"z": -0.674416515,
				"element": "C" 
			},
			{
				"x": -0.8088703366,
				"y": -2.9551888876,
				"z": -0.037426875,
				"element": "Cl" 
			},
			{
				"x": 0.2291611055,
				"y": -0.4445759407,
				"z": -0.1642149304,
				"element": "C" 
			},
			{
				"x": 3.3093105742,
				"y": 0.9773889627,
				"z": 0.9001540071,
				"element": "H" 
			},
			{
				"x": 2.2077461711,
				"y": 1.4918345256,
				"z": 2.0669414304,
				"element": "H" 
			},
			{
				"x": -2.1986674728,
				"y": 0.6967506613,
				"z": -2.9598547102,
				"element": "H" 
			},
			{
				"x": -2.3378038554,
				"y": -1.6216995591,
				"z": -2.069026898,
				"element": "H" 
			},
			{
				"x": 0.9111485339,
				"y": -0.7544534199,
				"z": 0.6164242675,
				"element": "H" 
			}
		],
		 "valence_orbital": [ 
			{
				"type": "occ",
				"energy": -0.32585,
				"method": "rhf"
			},
			{
				"type": "occ",
				"energy": -0.31621,
				"method": "rhf"
			},
			{
				"type": "occ",
				"energy": -0.29947,
				"method": "rhf"
			},
			{
				"type": "occ",
				"energy": -0.28752,
				"method": "rhf"
			},
			{
				"type": "occ",
				"energy": -0.25906,
				"method": "rhf"
			},
			{
				"type": "unocc",
				"energy": -0.05369,
				"method": "rhf"
			},
			{
				"type": "unocc",
				"energy": -0.04065,
				"method": "rhf"
			},
			{
				"type": "unocc",
				"energy": -0.00301,
				"method": "rhf"
			},
			{
				"type": "unocc",
				"energy": 0.02366,
				"method": "rhf"
			},
			{
				"type": "unocc",
				"energy": 0.04565,
				"method": "rhf"
			}
		],
		"cosmo_sigma_profile": { 
			"-0.025": 0.0,
			"-0.024": 0.0,
			"-0.023": 0.0,
			"-0.022": 0.0,
			"-0.021": 0.0,
			"-0.02": 0.0,
			"-0.019": 0.0,
			"-0.018": 0.0,
			"-0.017": 0.0,
			"-0.016": 0.408085367742,
			"-0.015": 2.19950089554,
			"-0.014": 2.24645759028,
			"-0.013": 2.68446212606,
			"-0.012": 2.54291299063,
			"-0.011": 1.84788103274,
			"-0.01": 1.69713385569,
			"-0.009": 4.73570848243,
			"-0.008": 6.91027760023,
			"-0.007": 4.72701128674,
			"-0.006": 6.40868330275,
			"-0.005": 7.54445921448,
			"-0.004": 7.53545419671,
			"-0.003": 9.73596076702,
			"-0.002": 12.1588728095,
			"-0.001": 20.0923400675,
			"0.0": 26.8455796084,
			"0.001": 14.5589178617,
			"0.002": 13.5880008852,
			"0.003": 15.9952171931,
			"0.004": 12.5207264673,
			"0.005": 3.33182861821,
			"0.006": 4.29544661487,
			"0.007": 3.40039698234,
			"0.008": 4.16033012521,
			"0.009": 5.30213588766,
			"0.01": 11.5620750843,
			"0.011": 7.26095996042,
			"0.012": 0.141620245348,
			"0.013": 0.0,
			"0.014": 0.0,
			"0.015": 0.0,
			"0.016": 0.0,
			"0.017": 0.0,
			"0.018": 0.0,
			"0.019": 0.0,
			"0.02": 0.0,
			"0.021": 0.0,
			"0.022": 0.0,
			"0.023": 0.0,
			"0.024": 0.0,
			"0.0": 0.0
		}
	}
}
