{
	 "smiles": "OC(=O)C1=C(N(N=C1)C1=NC=CC=C1)C(F)(F)F", 
	 "Tm": 430.15, 
	 "num_atms": 24, 
	 "gaussian": { 
		 "optdone": 1, 
		 "sigma_profile": "yes", 
		 "theory": "DFT", 
		 "functional": "B3LYP", 
		 "basiset": "6-31G**", 
		 "properties": { 
			 "R2extent": 5388.3903, 
			 "electric_dipole_moment_norm": 6.7692978432, 
			 "electric_quadrupole_moment_norm": 17.9062442427, 
			 "total_energy": -998.881759493, 
			 "HOMO_LUMO_gap": 0.19244, 
			 "cosmo_polarized_energy": -13.99, 
			 "cosmo_cavitation_energy": 30.5, 
			 "cosmo_dispersion_energy": -21.87, 
			 "cosmo_repulsion_energy": 1.6, 
			 "cosmo_total_nonelectrostatic_energy": 10.23, 
			 "SMD_solvation_energy": 6.33 
		},
		"coords": [
			{
				"x": -1.7539965877,
				"y": 4.7651582701,
				"z": 0.5763241421,
				"element": "O" 
			},
			{
				"x": -2.3932294684,
				"y": 3.813537268,
				"z": 1.2790232586,
				"element": "C" 
			},
			{
				"x": -3.4705060024,
				"y": 4.0469106849,
				"z": 1.7816341098,
				"element": "O" 
			},
			{
				"x": -1.7982725782,
				"y": 2.4454056707,
				"z": 1.408047458,
				"element": "C" 
			},
			{
				"x": -0.6461310357,
				"y": 1.7799740076,
				"z": 0.9779391358,
				"element": "C" 
			},
			{
				"x": -0.7684836015,
				"y": 0.47916258,
				"z": 1.4025501393,
				"element": "N" 
			},
			{
				"x": -1.9182763713,
				"y": 0.278295621,
				"z": 2.0952901813,
				"element": "N" 
			},
			{
				"x": -2.5317469063,
				"y": 1.4459627475,
				"z": 2.0967187771,
				"element": "C" 
			},
			{
				"x": 0.0600839295,
				"y": -0.6601320116,
				"z": 1.1554619988,
				"element": "C" 
			},
			{
				"x": 0.7088437199,
				"y": -0.6748561489,
				"z": -0.0016762817,
				"element": "N" 
			},
			{
				"x": 1.4747454543,
				"y": -1.7410972053,
				"z": -0.2625086985,
				"element": "C" 
			},
			{
				"x": 1.5960732367,
				"y": -2.82564832,
				"z": 0.6045371158,
				"element": "C" 
			},
			{
				"x": 0.8919516211,
				"y": -2.790823791,
				"z": 1.8102103538,
				"element": "C" 
			},
			{
				"x": 0.1047573229,
				"y": -1.6828388026,
				"z": 2.1075518468,
				"element": "C" 
			},
			{
				"x": 0.5829423568,
				"y": 2.2877204419,
				"z": 0.2740769345,
				"element": "C" 
			},
			{
				"x": 0.5593958205,
				"y": 2.0952865317,
				"z": -1.0492330608,
				"element": "F" 
			},
			{
				"x": 1.7111902981,
				"y": 1.7667926413,
				"z": 0.7736394619,
				"element": "F" 
			},
			{
				"x": 0.6923950831,
				"y": 3.6459088486,
				"z": 0.4593725588,
				"element": "F" 
			},
			{
				"x": -0.8686158913,
				"y": 4.4778705369,
				"z": 0.3106443233,
				"element": "H" 
			},
			{
				"x": -3.4907311422,
				"y": 1.5774017428,
				"z": 2.5758126897,
				"element": "H" 
			},
			{
				"x": 2.0021343969,
				"y": -1.7253198019,
				"z": -1.2133959089,
				"element": "H" 
			},
			{
				"x": 2.2214919581,
				"y": -3.6717422495,
				"z": 0.3406946069,
				"element": "H" 
			},
			{
				"x": 0.9592831221,
				"y": -3.6135602948,
				"z": 2.5153411034,
				"element": "H" 
			},
			{
				"x": -0.4635987349,
				"y": -1.6013689675,
				"z": 3.0249437541,
				"element": "H" 
			}
		],
		 "valence_orbital": [ 
			{
				"type": "occ",
				"energy": -0.30406,
				"method": "rhf"
			},
			{
				"type": "occ",
				"energy": -0.29352,
				"method": "rhf"
			},
			{
				"type": "occ",
				"energy": -0.28788,
				"method": "rhf"
			},
			{
				"type": "occ",
				"energy": -0.27631,
				"method": "rhf"
			},
			{
				"type": "occ",
				"energy": -0.26314,
				"method": "rhf"
			},
			{
				"type": "unocc",
				"energy": -0.0707,
				"method": "rhf"
			},
			{
				"type": "unocc",
				"energy": -0.04566,
				"method": "rhf"
			},
			{
				"type": "unocc",
				"energy": -0.02449,
				"method": "rhf"
			},
			{
				"type": "unocc",
				"energy": 0.00161,
				"method": "rhf"
			},
			{
				"type": "unocc",
				"energy": 0.07458,
				"method": "rhf"
			}
		],
		"cosmo_sigma_profile": { 
			"-0.025": 0.0,
			"-0.024": 0.0,
			"-0.023": 0.0,
			"-0.022": 0.0,
			"-0.021": 0.0,
			"-0.02": 0.0,
			"-0.019": 0.0,
			"-0.018": 0.0,
			"-0.017": 0.0719441459889,
			"-0.016": 0.157624970849,
			"-0.015": 0.223789408567,
			"-0.014": 0.274755053099,
			"-0.013": 0.771541431687,
			"-0.012": 0.911394258765,
			"-0.011": 0.963765170287,
			"-0.01": 1.08824935615,
			"-0.009": 1.93905521392,
			"-0.008": 6.16722377255,
			"-0.007": 13.584394092,
			"-0.006": 12.9478902142,
			"-0.005": 11.885378055,
			"-0.004": 12.0559471196,
			"-0.003": 14.0241102115,
			"-0.002": 17.0551912828,
			"-0.001": 18.4563462304,
			"0.0": 24.8385644955,
			"0.001": 30.8989946463,
			"0.002": 20.0597831095,
			"0.003": 8.42574083437,
			"0.004": 6.43502106867,
			"0.005": 5.71891837588,
			"0.006": 5.53249135345,
			"0.007": 4.25238091346,
			"0.008": 5.92140721111,
			"0.009": 5.01563122477,
			"0.01": 6.39334977235,
			"0.011": 5.84148136638,
			"0.012": 3.86799429558,
			"0.013": 1.20582751236,
			"0.014": 0.0,
			"0.015": 0.0,
			"0.016": 0.0,
			"0.017": 0.0,
			"0.018": 0.0,
			"0.019": 0.0,
			"0.02": 0.0,
			"0.021": 0.0,
			"0.022": 0.0,
			"0.023": 0.0,
			"0.024": 0.0,
			"0.025": 0.0
		}
	}
}
