{
	 "smiles": "CCCCCCCCCCCCCCCCCCCl", 
	 "Tm": 301.75, 
	 "num_atms": 56, 
	 "gaussian": { 
		 "optdone": 1, 
		 "sigma_profile": "yes", 
		 "theory": "DFT", 
		 "functional": "B3LYP", 
		 "basiset": "6-31G**", 
		 "properties": { 
			 "R2extent": 9310.9329, 
			 "electric_dipole_moment_norm": 2.06048918464, 
			 "electric_quadrupole_moment_norm": 11.8717683687, 
			 "total_energy": -1168.46526769, 
			 "HOMO_LUMO_gap": 0.31155, 
			 "cosmo_polarized_energy": -4.16, 
			 "cosmo_cavitation_energy": 55.12, 
			 "cosmo_dispersion_energy": -33.64, 
			 "cosmo_repulsion_energy": 2.66, 
			 "cosmo_total_nonelectrostatic_energy": 24.14, 
			 "SMD_solvation_energy": 6.58 
		},
		"coords": [
			{
				"x": -1.4891618109,
				"y": 0.5762678748,
				"z": -2.6469367346,
				"element": "C" 
			},
			{
				"x": -0.5169630244,
				"y": 1.6704234734,
				"z": -3.1034302471,
				"element": "C" 
			},
			{
				"x": 0.680860453,
				"y": 1.1544628685,
				"z": -3.9202253964,
				"element": "C" 
			},
			{
				"x": 1.6441574794,
				"y": 0.2099101355,
				"z": -3.1797577487,
				"element": "C" 
			},
			{
				"x": 2.3811852771,
				"y": 0.8472278807,
				"z": -1.9928765826,
				"element": "C" 
			},
			{
				"x": 3.4127332164,
				"y": -0.0935687404,
				"z": -1.3539501239,
				"element": "C" 
			},
			{
				"x": 4.256072439,
				"y": 0.5436843515,
				"z": -0.2352769049,
				"element": "C" 
			},
			{
				"x": 3.4967129837,
				"y": 0.9536886264,
				"z": 1.0395990169,
				"element": "C" 
			},
			{
				"x": 2.8926440131,
				"y": -0.2231232131,
				"z": 1.8219096014,
				"element": "C" 
			},
			{
				"x": 2.3625357141,
				"y": 0.1511629635,
				"z": 3.2177694028,
				"element": "C" 
			},
			{
				"x": 1.1697098685,
				"y": 1.1255030784,
				"z": 3.2482618215,
				"element": "C" 
			},
			{
				"x": -0.1304695997,
				"y": 0.6169597689,
				"z": 2.5999034915,
				"element": "C" 
			},
			{
				"x": -0.7206578561,
				"y": -0.6330975209,
				"z": 3.2715017759,
				"element": "C" 
			},
			{
				"x": -2.1346177588,
				"y": -1.0075783205,
				"z": 2.7953823068,
				"element": "C" 
			},
			{
				"x": -2.2235151849,
				"y": -1.3797283977,
				"z": 1.3078505685,
				"element": "C" 
			},
			{
				"x": -3.5646024424,
				"y": -2.0112311361,
				"z": 0.8928095089,
				"element": "C" 
			},
			{
				"x": -4.8407063982,
				"y": -1.1676145028,
				"z": 1.0702268576,
				"element": "C" 
			},
			{
				"x": -5.0282035083,
				"y": 0.0053797023,
				"z": 0.1114622923,
				"element": "C" 
			},
			{
				"x": -4.0678469345,
				"y": 1.4956475383,
				"z": 0.5547209819,
				"element": "Cl" 
			},
			{
				"x": -1.0076718666,
				"y": -0.1428712231,
				"z": -1.9755077101,
				"element": "H" 
			},
			{
				"x": -1.881685023,
				"y": 0.0153836764,
				"z": -3.5038858493,
				"element": "H" 
			},
			{
				"x": -2.3379912909,
				"y": 1.0081354227,
				"z": -2.1068575107,
				"element": "H" 
			},
			{
				"x": -0.1602185429,
				"y": 2.2284322085,
				"z": -2.2285887998,
				"element": "H" 
			},
			{
				"x": -1.0638822641,
				"y": 2.3982148981,
				"z": -3.7165565135,
				"element": "H" 
			},
			{
				"x": 1.2520830537,
				"y": 2.0167194828,
				"z": -4.2912464515,
				"element": "H" 
			},
			{
				"x": 0.2997115868,
				"y": 0.6380837933,
				"z": -4.812305716,
				"element": "H" 
			},
			{
				"x": 2.3890555694,
				"y": -0.155799635,
				"z": -3.8998574799,
				"element": "H" 
			},
			{
				"x": 1.1036801399,
				"y": -0.6820818489,
				"z": -2.8350650432,
				"element": "H" 
			},
			{
				"x": 1.6552960703,
				"y": 1.1694983459,
				"z": -1.2360141528,
				"element": "H" 
			},
			{
				"x": 2.8900748155,
				"y": 1.7611643078,
				"z": -2.3336175193,
				"element": "H" 
			},
			{
				"x": 4.0951237158,
				"y": -0.4489526231,
				"z": -2.1383107182,
				"element": "H" 
			},
			{
				"x": 2.9033634368,
				"y": -0.9902650496,
				"z": -0.9757339369,
				"element": "H" 
			},
			{
				"x": 5.0533461506,
				"y": -0.1581474222,
				"z": 0.0462479668,
				"element": "H" 
			},
			{
				"x": 4.763754107,
				"y": 1.428776837,
				"z": -0.6430075831,
				"element": "H" 
			},
			{
				"x": 2.7142206081,
				"y": 1.6805184653,
				"z": 0.7884650758,
				"element": "H" 
			},
			{
				"x": 4.1973089105,
				"y": 1.4864381617,
				"z": 1.6977964491,
				"element": "H" 
			},
			{
				"x": 3.6660569256,
				"y": -0.9943302887,
				"z": 1.9446106247,
				"element": "H" 
			},
			{
				"x": 2.0936571055,
				"y": -0.6944209969,
				"z": 1.2353068862,
				"element": "H" 
			},
			{
				"x": 3.1853088129,
				"y": 0.5966288772,
				"z": 3.7939987087,
				"element": "H" 
			},
			{
				"x": 2.0914899022,
				"y": -0.7688719412,
				"z": 3.7509265832,
				"element": "H" 
			},
			{
				"x": 0.9604107496,
				"y": 1.3768779291,
				"z": 4.2973043678,
				"element": "H" 
			},
			{
				"x": 1.4580991456,
				"y": 2.0694361617,
				"z": 2.7685092132,
				"element": "H" 
			},
			{
				"x": 0.0373113641,
				"y": 0.4229250635,
				"z": 1.5330656878,
				"element": "H" 
			},
			{
				"x": -0.8749485902,
				"y": 1.4235412079,
				"z": 2.6407708497,
				"element": "H" 
			},
			{
				"x": -0.0536424113,
				"y": -1.4918149625,
				"z": 3.1151122737,
				"element": "H" 
			},
			{
				"x": -0.7507138077,
				"y": -0.467774999,
				"z": 4.3577041897,
				"element": "H" 
			},
			{
				"x": -2.8143205709,
				"y": -0.1723359117,
				"z": 3.007598843,
				"element": "H" 
			},
			{
				"x": -2.4916702175,
				"y": -1.8567886789,
				"z": 3.3957439498,
				"element": "H" 
			},
			{
				"x": -1.4321320127,
				"y": -2.1075366765,
				"z": 1.0784397772,
				"element": "H" 
			},
			{
				"x": -2.0187741277,
				"y": -0.4994418079,
				"z": 0.6902232853,
				"element": "H" 
			},
			{
				"x": -3.5014096013,
				"y": -2.3223520702,
				"z": -0.1591899188,
				"element": "H" 
			},
			{
				"x": -3.7025658374,
				"y": -2.9357947075,
				"z": 1.4698727467,
				"element": "H" 
			},
			{
				"x": -4.9424527664,
				"y": -0.8135515838,
				"z": 2.1018094712,
				"element": "H" 
			},
			{
				"x": -5.7018641273,
				"y": -1.8277046705,
				"z": 0.8926627277,
				"element": "H" 
			},
			{
				"x": -4.7277461101,
				"y": -0.2503851322,
				"z": -0.9070338655,
				"element": "H" 
			},
			{
				"x": -6.0665299282,
				"y": 0.3394709601,
				"z": 0.0997652034,
				"element": "H" 
			}
		],
		 "valence_orbital": [ 
			{
				"type": "occ",
				"energy": -0.29855,
				"method": "rhf"
			},
			{
				"type": "occ",
				"energy": -0.29538,
				"method": "rhf"
			},
			{
				"type": "occ",
				"energy": -0.29277,
				"method": "rhf"
			},
			{
				"type": "occ",
				"energy": -0.28994,
				"method": "rhf"
			},
			{
				"type": "occ",
				"energy": -0.28561,
				"method": "rhf"
			},
			{
				"type": "unocc",
				"energy": 0.02594,
				"method": "rhf"
			},
			{
				"type": "unocc",
				"energy": 0.0612,
				"method": "rhf"
			},
			{
				"type": "unocc",
				"energy": 0.07972,
				"method": "rhf"
			},
			{
				"type": "unocc",
				"energy": 0.09041,
				"method": "rhf"
			},
			{
				"type": "unocc",
				"energy": 0.10408,
				"method": "rhf"
			}
		],
		"cosmo_sigma_profile": { 
			"-0.025": 0.0,
			"-0.024": 0.0,
			"-0.023": 0.0,
			"-0.022": 0.0,
			"-0.021": 0.0,
			"-0.02": 0.0,
			"-0.019": 0.0,
			"-0.018": 0.0,
			"-0.017": 0.0,
			"-0.016": 0.0,
			"-0.015": 0.0,
			"-0.014": 0.0,
			"-0.013": 0.0,
			"-0.012": 0.0,
			"-0.011": 0.0,
			"-0.01": 0.0,
			"-0.009": 0.0,
			"-0.008": 0.0,
			"-0.007": 0.577570118332,
			"-0.006": 3.64287885688,
			"-0.005": 5.90011935823,
			"-0.004": 8.96003773752,
			"-0.003": 11.5965334816,
			"-0.002": 43.2404967683,
			"-0.001": 91.9390560756,
			"0.0": 101.870739817,
			"0.001": 87.670134823,
			"0.002": 37.9823619607,
			"0.003": 7.56305656122,
			"0.004": 8.002221949,
			"0.005": 5.88036440028,
			"0.006": 3.42617919665,
			"0.007": 4.95605099716,
			"0.008": 0.189129952427,
			"0.009": 0.0,
			"0.01": 0.0,
			"0.011": 0.0,
			"0.012": 0.0,
			"0.013": 0.0,
			"0.014": 0.0,
			"0.015": 0.0,
			"0.016": 0.0,
			"0.017": 0.0,
			"0.018": 0.0,
			"0.019": 0.0,
			"0.02": 0.0,
			"0.021": 0.0,
			"0.022": 0.0,
			"0.023": 0.0,
			"0.024": 0.0,
			"0.025": 0.0
		}
	}
}
