{
	 "smiles": "S1C=CC2=C1C=CS2", 
	 "Tm": 329.15, 
	 "num_atms": 12, 
	 "gaussian": { 
		 "optdone": 1, 
		 "sigma_profile": "yes", 
		 "theory": "DFT", 
		 "functional": "B3LYP", 
		 "basiset": "6-31G**", 
		 "properties": { 
			 "R2extent": 1416.4811, 
			 "electric_dipole_moment_norm": 0.0, 
			 "electric_quadrupole_moment_norm": 10.1468120309, 
			 "total_energy": -1027.39839816, 
			 "HOMO_LUMO_gap": 0.18818, 
			 "cosmo_polarized_energy": -4.55, 
			 "cosmo_cavitation_energy": 19.0, 
			 "cosmo_dispersion_energy": -15.68, 
			 "cosmo_repulsion_energy": 1.18, 
			 "cosmo_total_nonelectrostatic_energy": 4.49, 
			 "SMD_solvation_energy": 2.99 
		},
		"coords": [
			{
				"x": 0.1830548269,
				"y": -0.1780809577,
				"z": 2.1065320169,
				"element": "S" 
			},
			{
				"x": -0.4387855574,
				"y": -1.4643668781,
				"z": 1.0955265652,
				"element": "C" 
			},
			{
				"x": -0.9857303964,
				"y": -1.0137077328,
				"z": -0.0731408553,
				"element": "C" 
			},
			{
				"x": -0.9056682207,
				"y": 0.4073616501,
				"z": -0.1649399971,
				"element": "C" 
			},
			{
				"x": -0.3013268549,
				"y": 1.0165782651,
				"z": 0.930729213,
				"element": "C" 
			},
			{
				"x": -0.2212234018,
				"y": 2.4376456243,
				"z": 0.8389102739,
				"element": "C" 
			},
			{
				"x": -0.7680204306,
				"y": 2.8882920432,
				"z": -0.3298302102,
				"element": "C" 
			},
			{
				"x": -1.3901522951,
				"y": 1.6020276913,
				"z": -1.3406923647,
				"element": "S" 
			},
			{
				"x": -0.3592681565,
				"y": -2.4880580982,
				"z": 1.4348563798,
				"element": "H" 
			},
			{
				"x": -1.4200297246,
				"y": -1.6635376747,
				"z": -0.822982668,
				"element": "H" 
			},
			{
				"x": 0.213082286,
				"y": 3.0874734608,
				"z": 1.5887495536,
				"element": "H" 
			},
			{
				"x": -0.8474320748,
				"y": 3.9119726066,
				"z": -0.6692179071,
				"element": "H" 
			}
		],
		 "valence_orbital": [ 
			{
				"type": "occ",
				"energy": -0.33451,
				"method": "rhf"
			},
			{
				"type": "occ",
				"energy": -0.33376,
				"method": "rhf"
			},
			{
				"type": "occ",
				"energy": -0.27983,
				"method": "rhf"
			},
			{
				"type": "occ",
				"energy": -0.23048,
				"method": "rhf"
			},
			{
				"type": "occ",
				"energy": -0.21531,
				"method": "rhf"
			},
			{
				"type": "unocc",
				"energy": -0.02713,
				"method": "rhf"
			},
			{
				"type": "unocc",
				"energy": 0.01689,
				"method": "rhf"
			},
			{
				"type": "unocc",
				"energy": 0.03157,
				"method": "rhf"
			},
			{
				"type": "unocc",
				"energy": 0.03484,
				"method": "rhf"
			},
			{
				"type": "unocc",
				"energy": 0.07882,
				"method": "rhf"
			}
		],
		"cosmo_sigma_profile": { 
			"-0.025": 0.0,
			"-0.024": 0.0,
			"-0.023": 0.0,
			"-0.022": 0.0,
			"-0.021": 0.0,
			"-0.02": 0.0,
			"-0.019": 0.0,
			"-0.018": 0.0,
			"-0.017": 0.0,
			"-0.016": 0.0,
			"-0.015": 0.0,
			"-0.014": 0.0,
			"-0.013": 0.0,
			"-0.012": 0.0,
			"-0.011": 0.0,
			"-0.01": 0.0,
			"-0.009": 0.860940171177,
			"-0.008": 5.77051632385,
			"-0.007": 8.39485113588,
			"-0.006": 8.24134390838,
			"-0.005": 8.51036744865,
			"-0.004": 8.56127391608,
			"-0.003": 7.47188030384,
			"-0.002": 8.50071443859,
			"-0.001": 8.15069080669,
			"0.0": 7.86698500064,
			"0.001": 10.9082677509,
			"0.002": 14.4665268086,
			"0.003": 16.4315503674,
			"0.004": 27.0330728323,
			"0.005": 15.2403507312,
			"0.006": 1.82090531087,
			"0.007": 0.0,
			"0.008": 0.0,
			"0.009": 0.0,
			"0.01": 0.0,
			"0.011": 0.0,
			"0.012": 0.0,
			"0.013": 0.0,
			"0.014": 0.0,
			"0.015": 0.0,
			"0.016": 0.0,
			"0.017": 0.0,
			"0.018": 0.0,
			"0.019": 0.0,
			"0.02": 0.0,
			"0.021": 0.0,
			"0.022": 0.0,
			"0.023": 0.0,
			"0.024": 0.0,
			"0.025": 0.0
		}
	}
}
