{
	 "smiles": "OCCBr", 
	 "Tm": 193.15, 
	 "num_atms": 9, 
	 "gaussian": { 
		 "optdone": 1, 
		 "sigma_profile": "yes", 
		 "theory": "DFT", 
		 "functional": "B3LYP", 
		 "basiset": "6-31G**", 
		 "properties": { 
			 "R2extent": 1466.8403, 
			 "electric_dipole_moment_norm": 2.9811969576, 
			 "electric_quadrupole_moment_norm": 5.56806137538, 
			 "total_energy": -2725.84250492, 
			 "HOMO_LUMO_gap": 0.27094, 
			 "cosmo_polarized_energy": -9.24, 
			 "cosmo_cavitation_energy": 14.46, 
			 "cosmo_dispersion_energy": -11.43, 
			 "cosmo_repulsion_energy": 1.06, 
			 "cosmo_total_nonelectrostatic_energy": 4.08, 
			 "SMD_solvation_energy": 1.6 
		},
		"coords": [
			{
				"x": -0.4522114988,
				"y": 1.3714259125,
				"z": 0.4992326573,
				"element": "O" 
			},
			{
				"x": 0.487762272,
				"y": 0.6843545648,
				"z": -0.3028980558,
				"element": "C" 
			},
			{
				"x": 1.8818310969,
				"y": 1.0001746824,
				"z": 0.1957307284,
				"element": "C" 
			},
			{
				"x": 2.2473928062,
				"y": 0.2008477344,
				"z": 1.9669927423,
				"element": "Br" 
			},
			{
				"x": -1.3276481086,
				"y": 1.00635416,
				"z": 0.3253692476,
				"element": "H" 
			},
			{
				"x": 0.4400133126,
				"y": 1.0182571729,
				"z": -1.3556847398,
				"element": "H" 
			},
			{
				"x": 0.3293855639,
				"y": -0.4032522636,
				"z": -0.292681832,
				"element": "H" 
			},
			{
				"x": 2.6411760338,
				"y": 0.5999295029,
				"z": -0.4754894401,
				"element": "H" 
			},
			{
				"x": 2.0177985219,
				"y": 2.0740085337,
				"z": 0.3212286921,
				"element": "H" 
			}
		],
		 "valence_orbital": [ 
			{
				"type": "occ",
				"energy": -0.36307,
				"method": "rhf"
			},
			{
				"type": "occ",
				"energy": -0.34654,
				"method": "rhf"
			},
			{
				"type": "occ",
				"energy": -0.28047,
				"method": "rhf"
			},
			{
				"type": "occ",
				"energy": -0.26793,
				"method": "rhf"
			},
			{
				"type": "occ",
				"energy": -0.2641,
				"method": "rhf"
			},
			{
				"type": "unocc",
				"energy": 0.00684,
				"method": "rhf"
			},
			{
				"type": "unocc",
				"energy": 0.06723,
				"method": "rhf"
			},
			{
				"type": "unocc",
				"energy": 0.11045,
				"method": "rhf"
			},
			{
				"type": "unocc",
				"energy": 0.14398,
				"method": "rhf"
			},
			{
				"type": "unocc",
				"energy": 0.14928,
				"method": "rhf"
			}
		],
		"cosmo_sigma_profile": { 
			"-0.025": 0.0,
			"-0.024": 0.0,
			"-0.023": 0.0,
			"-0.022": 0.0,
			"-0.021": 0.0,
			"-0.02": 0.0,
			"-0.019": 0.0,
			"-0.018": 0.0,
			"-0.017": 0.0751358075327,
			"-0.016": 1.11937259075,
			"-0.015": 1.08980573758,
			"-0.014": 0.672068007747,
			"-0.013": 1.09502759138,
			"-0.012": 1.21381741339,
			"-0.011": 0.620472395951,
			"-0.01": 0.446181898501,
			"-0.009": 0.463879192623,
			"-0.008": 1.92994323838,
			"-0.007": 5.89835512584,
			"-0.006": 6.60667869202,
			"-0.005": 11.7781388958,
			"-0.004": 10.3270769343,
			"-0.003": 6.84164022049,
			"-0.002": 4.16219513072,
			"-0.001": 4.73584342573,
			"0.0": 4.31954953748,
			"0.001": 4.04868550354,
			"0.002": 3.978993066,
			"0.003": 3.90732631166,
			"0.004": 5.1858161485,
			"0.005": 6.90309412905,
			"0.006": 9.85565575759,
			"0.007": 6.41406853816,
			"0.008": 2.37409985043,
			"0.009": 2.17999573182,
			"0.01": 0.877318826382,
			"0.011": 2.27706278312,
			"0.012": 1.8329091214,
			"0.013": 2.26377021439,
			"0.014": 0.873725446709,
			"0.015": 0.0,
			"0.016": 0.0,
			"0.017": 0.0,
			"0.018": 0.0,
			"0.019": 0.0,
			"0.02": 0.0,
			"0.021": 0.0,
			"0.022": 0.0,
			"0.023": 0.0,
			"0.024": 0.0,
			"0.025": 0.0
		}
	}
}
