{
	 "smiles": "O=CC1=CC=CC2=C1OCC2", 
	 "Tm": 327.65, 
	 "num_atms": 19, 
	 "gaussian": { 
		 "optdone": 1, 
		 "sigma_profile": "yes", 
		 "theory": "DFT", 
		 "functional": "B3LYP", 
		 "basiset": "6-31G**", 
		 "properties": { 
			 "R2extent": 2149.0008, 
			 "electric_dipole_moment_norm": 5.23635989978, 
			 "electric_quadrupole_moment_norm": 13.0068274145, 
			 "total_energy": -498.210917743, 
			 "HOMO_LUMO_gap": 0.16969, 
			 "cosmo_polarized_energy": -9.43, 
			 "cosmo_cavitation_energy": 22.79, 
			 "cosmo_dispersion_energy": -17.13, 
			 "cosmo_repulsion_energy": 1.37, 
			 "cosmo_total_nonelectrostatic_energy": 7.03, 
			 "SMD_solvation_energy": 4.99 
		},
		"coords": [
			{
				"x": -0.4697300301,
				"y": 0.1181938287,
				"z": 4.1007051679,
				"element": "O" 
			},
			{
				"x": -0.1777121739,
				"y": -0.0444208335,
				"z": 2.9276887691,
				"element": "C" 
			},
			{
				"x": -1.1003380387,
				"y": 0.2165954493,
				"z": 1.8065656966,
				"element": "C" 
			},
			{
				"x": -2.4067039995,
				"y": 0.6932039821,
				"z": 2.0405882665,
				"element": "C" 
			},
			{
				"x": -3.282023811,
				"y": 0.9522738525,
				"z": 0.9940512841,
				"element": "C" 
			},
			{
				"x": -2.8792630777,
				"y": 0.7350605562,
				"z": -0.3372126195,
				"element": "C" 
			},
			{
				"x": -1.5988904888,
				"y": 0.268735794,
				"z": -0.5924877873,
				"element": "C" 
			},
			{
				"x": -0.7265665179,
				"y": 0.0149607153,
				"z": 0.4723583474,
				"element": "C" 
			},
			{
				"x": 0.4903627809,
				"y": -0.44429212,
				"z": 0.0747592652,
				"element": "O" 
			},
			{
				"x": 0.5572751327,
				"y": -0.3318814743,
				"z": -1.3740132028,
				"element": "C" 
			},
			{
				"x": -0.8898925204,
				"y": -0.1060182169,
				"z": -1.8752671505,
				"element": "C" 
			},
			{
				"x": 0.8281206759,
				"y": -0.4066126409,
				"z": 2.6354426017,
				"element": "H" 
			},
			{
				"x": -2.6989734071,
				"y": 0.853956978,
				"z": 3.0734833746,
				"element": "H" 
			},
			{
				"x": -4.2814421016,
				"y": 1.32224588,
				"z": 1.1997519166,
				"element": "H" 
			},
			{
				"x": -3.5681388836,
				"y": 0.9320946026,
				"z": -1.154468843,
				"element": "H" 
			},
			{
				"x": 1.2071321825,
				"y": 0.5180906463,
				"z": -1.6103946336,
				"element": "H" 
			},
			{
				"x": 1.019150079,
				"y": -1.2462153618,
				"z": -1.7515395065,
				"element": "H" 
			},
			{
				"x": -1.3139132088,
				"y": -1.0189604895,
				"z": -2.311017496,
				"element": "H" 
			},
			{
				"x": -0.9354525917,
				"y": 0.6740888518,
				"z": -2.6411934508,
				"element": "H" 
			}
		],
		 "valence_orbital": [ 
			{
				"type": "occ",
				"energy": -0.34605,
				"method": "rhf"
			},
			{
				"type": "occ",
				"energy": -0.32453,
				"method": "rhf"
			},
			{
				"type": "occ",
				"energy": -0.25725,
				"method": "rhf"
			},
			{
				"type": "occ",
				"energy": -0.24383,
				"method": "rhf"
			},
			{
				"type": "occ",
				"energy": -0.22591,
				"method": "rhf"
			},
			{
				"type": "unocc",
				"energy": -0.05622,
				"method": "rhf"
			},
			{
				"type": "unocc",
				"energy": 0.00168,
				"method": "rhf"
			},
			{
				"type": "unocc",
				"energy": 0.03967,
				"method": "rhf"
			},
			{
				"type": "unocc",
				"energy": 0.08214,
				"method": "rhf"
			},
			{
				"type": "unocc",
				"energy": 0.09972,
				"method": "rhf"
			}
		],
		"cosmo_sigma_profile": { 
			"-0.025": 0.0,
			"-0.024": 0.0,
			"-0.023": 0.0,
			"-0.022": 0.0,
			"-0.021": 0.0,
			"-0.02": 0.0,
			"-0.019": 0.0,
			"-0.018": 0.0,
			"-0.017": 0.0,
			"-0.016": 0.0,
			"-0.015": 0.0,
			"-0.014": 0.0,
			"-0.013": 0.0,
			"-0.012": 0.0,
			"-0.011": 0.0,
			"-0.01": 0.0,
			"-0.009": 0.0,
			"-0.008": 0.0,
			"-0.007": 1.64160277645,
			"-0.006": 11.6609007323,
			"-0.005": 21.2174793967,
			"-0.004": 20.7262685785,
			"-0.003": 17.1265835947,
			"-0.002": 14.4505846174,
			"-0.001": 10.3651749613,
			"0.0": 10.6888138858,
			"0.001": 11.164506365,
			"0.002": 11.8626694915,
			"0.003": 11.78414574,
			"0.004": 10.2897854509,
			"0.005": 5.91610898529,
			"0.006": 3.06884157301,
			"0.007": 2.52495217535,
			"0.008": 2.42384324453,
			"0.009": 3.91834397578,
			"0.01": 2.23106673364,
			"0.011": 3.1255842387,
			"0.012": 4.30031038982,
			"0.013": 1.50405062053,
			"0.014": 0.139573562861,
			"0.015": 0.0,
			"0.016": 0.0,
			"0.017": 0.0,
			"0.018": 0.0,
			"0.019": 0.0,
			"0.02": 0.0,
			"0.021": 0.0,
			"0.022": 0.0,
			"0.023": 0.0,
			"0.024": 0.0,
			"0.025": 0.0
		}
	}
}
