{
	 "smiles": "OC(=O)CN1N=C2CCCCCN2C1=O", 
	 "Tm": 503.15, 
	 "num_atms": 28, 
	 "gaussian": { 
		 "optdone": 1, 
		 "sigma_profile": "yes", 
		 "theory": "DFT", 
		 "functional": "B3LYP", 
		 "basiset": "6-31G**", 
		 "properties": { 
			 "R2extent": 3963.8393, 
			 "electric_dipole_moment_norm": 8.65304730254, 
			 "electric_quadrupole_moment_norm": 22.980948247, 
			 "total_energy": -740.753545695, 
			 "HOMO_LUMO_gap": 0.23727, 
			 "cosmo_polarized_energy": -17.01, 
			 "cosmo_cavitation_energy": 30.07, 
			 "cosmo_dispersion_energy": -22.44, 
			 "cosmo_repulsion_energy": 1.75, 
			 "cosmo_total_nonelectrostatic_energy": 9.38, 
			 "SMD_solvation_energy": 4.78 
		},
		"coords": [
			{
				"x": -1.9764227205,
				"y": 3.8971655899,
				"z": 0.2188448431,
				"element": "O" 
			},
			{
				"x": -0.7438686252,
				"y": 4.1005624111,
				"z": -0.2542914899,
				"element": "C" 
			},
			{
				"x": -0.4424655419,
				"y": 5.0887717019,
				"z": -0.8811789481,
				"element": "O" 
			},
			{
				"x": 0.3198523833,
				"y": 3.0389960742,
				"z": 0.0961295497,
				"element": "C" 
			},
			{
				"x": -0.0787385838,
				"y": 1.6573375628,
				"z": -0.1333649195,
				"element": "N" 
			},
			{
				"x": 0.6569070637,
				"y": 0.8259159738,
				"z": -0.9581455348,
				"element": "N" 
			},
			{
				"x": 0.0931223495,
				"y": -0.3438414203,
				"z": -0.8377468009,
				"element": "C" 
			},
			{
				"x": 0.5431075025,
				"y": -1.5758355726,
				"z": -1.5508262612,
				"element": "C" 
			},
			{
				"x": 0.8825555237,
				"y": -2.7593857255,
				"z": -0.6204554593,
				"element": "C" 
			},
			{
				"x": -0.3289334762,
				"y": -3.441398321,
				"z": 0.0374010421,
				"element": "C" 
			},
			{
				"x": -1.121610738,
				"y": -2.5941159747,
				"z": 1.0469619168,
				"element": "C" 
			},
			{
				"x": -1.8615767955,
				"y": -1.3900283234,
				"z": 0.4535279635,
				"element": "C" 
			},
			{
				"x": -0.9717998309,
				"y": -0.3065719155,
				"z": 0.0444793151,
				"element": "N" 
			},
			{
				"x": -1.0835225227,
				"y": 0.9936138813,
				"z": 0.512102877,
				"element": "C" 
			},
			{
				"x": -1.911665128,
				"y": 1.4529263198,
				"z": 1.3149411355,
				"element": "O" 
			},
			{
				"x": -2.0442217763,
				"y": 3.0591654348,
				"z": 0.7465118738,
				"element": "H" 
			},
			{
				"x": 1.1938122367,
				"y": 3.2240002922,
				"z": -0.5244444989,
				"element": "H" 
			},
			{
				"x": 0.5991637199,
				"y": 3.1661198087,
				"z": 1.1505416359,
				"element": "H" 
			},
			{
				"x": -0.2299922462,
				"y": -1.8879437333,
				"z": -2.2676871613,
				"element": "H" 
			},
			{
				"x": 1.4198886824,
				"y": -1.2881317157,
				"z": -2.1369242412,
				"element": "H" 
			},
			{
				"x": 1.5873315331,
				"y": -2.4219720186,
				"z": 0.1501735802,
				"element": "H" 
			},
			{
				"x": 1.4144787115,
				"y": -3.5079739846,
				"z": -1.218519342,
				"element": "H" 
			},
			{
				"x": 0.0238526778,
				"y": -4.3428857993,
				"z": 0.5520833877,
				"element": "H" 
			},
			{
				"x": -1.0132038016,
				"y": -3.7907732188,
				"z": -0.7493448379,
				"element": "H" 
			},
			{
				"x": -0.4623031249,
				"y": -2.2441563977,
				"z": 1.8513448957,
				"element": "H" 
			},
			{
				"x": -1.8769970407,
				"y": -3.2333762698,
				"z": 1.5194166494,
				"element": "H" 
			},
			{
				"x": -2.5328868346,
				"y": -0.9434341842,
				"z": 1.1911076059,
				"element": "H" 
			},
			{
				"x": -2.4704635971,
				"y": -1.6986504755,
				"z": -0.4057387764,
				"element": "H" 
			}
		],
		 "valence_orbital": [ 
			{
				"type": "occ",
				"energy": -0.31336,
				"method": "rhf"
			},
			{
				"type": "occ",
				"energy": -0.2959,
				"method": "rhf"
			},
			{
				"type": "occ",
				"energy": -0.28956,
				"method": "rhf"
			},
			{
				"type": "occ",
				"energy": -0.2602,
				"method": "rhf"
			},
			{
				"type": "occ",
				"energy": -0.23575,
				"method": "rhf"
			},
			{
				"type": "unocc",
				"energy": 0.00152,
				"method": "rhf"
			},
			{
				"type": "unocc",
				"energy": 0.01735,
				"method": "rhf"
			},
			{
				"type": "unocc",
				"energy": 0.03207,
				"method": "rhf"
			},
			{
				"type": "unocc",
				"energy": 0.06113,
				"method": "rhf"
			},
			{
				"type": "unocc",
				"energy": 0.08893,
				"method": "rhf"
			}
		],
		"cosmo_sigma_profile": { 
			"-0.025": 0.0,
			"-0.024": 0.0,
			"-0.023": 0.0,
			"-0.022": 0.0,
			"-0.021": 0.0,
			"-0.02": 0.0,
			"-0.019": 0.0,
			"-0.018": 0.0,
			"-0.017": 0.0,
			"-0.016": 0.0,
			"-0.015": 0.0,
			"-0.014": 0.0,
			"-0.013": 0.0,
			"-0.012": 0.0,
			"-0.011": 0.0,
			"-0.01": 0.371525161504,
			"-0.009": 3.02363239136,
			"-0.008": 3.59047826613,
			"-0.007": 4.90311544642,
			"-0.006": 10.196703541,
			"-0.005": 16.344686117,
			"-0.004": 28.6726293346,
			"-0.003": 38.9208972725,
			"-0.002": 26.2042935464,
			"-0.001": 19.7067015787,
			"0.0": 12.6306167837,
			"0.001": 5.87766173781,
			"0.002": 4.71204758657,
			"0.003": 5.35789860713,
			"0.004": 4.1448783344,
			"0.005": 4.64277316624,
			"0.006": 4.28226847508,
			"0.007": 3.70382752842,
			"0.008": 4.59420312908,
			"0.009": 6.5315816203,
			"0.01": 6.10080304356,
			"0.011": 9.10332897898,
			"0.012": 8.93149645568,
			"0.013": 3.47572896229,
			"0.014": 0.363748491947,
			"0.015": 0.0,
			"0.016": 0.0,
			"0.017": 0.0,
			"0.018": 0.0,
			"0.019": 0.0,
			"0.02": 0.0,
			"0.021": 0.0,
			"0.022": 0.0,
			"0.023": 0.0,
			"0.024": 0.0,
			"0.025": 0.0
		}
	}
}
