{
	 "smiles": "CC1=CC(CSC2=C(C=CC=N2)C(O)=O)=NO1", 
	 "Tm": 443.15, 
	 "num_atms": 27, 
	 "gaussian": { 
		 "optdone": 1, 
		 "sigma_profile": "yes", 
		 "theory": "DFT", 
		 "functional": "B3LYP", 
		 "basiset": "6-31G**", 
		 "properties": { 
			 "R2extent": 4612.181, 
			 "electric_dipole_moment_norm": 8.29114389756, 
			 "electric_quadrupole_moment_norm": 21.052468456, 
			 "total_energy": -1158.51981252, 
			 "HOMO_LUMO_gap": 0.19147, 
			 "cosmo_polarized_energy": -17.88, 
			 "cosmo_cavitation_energy": 33.15, 
			 "cosmo_dispersion_energy": -24.22, 
			 "cosmo_repulsion_energy": 1.85, 
			 "cosmo_total_nonelectrostatic_energy": 10.78, 
			 "SMD_solvation_energy": 6.1 
		},
		"coords": [
			{
				"x": -4.1488985233,
				"y": 2.7381250738,
				"z": -1.3406404457,
				"element": "C" 
			},
			{
				"x": -2.963751019,
				"y": 2.2343991811,
				"z": -0.5935719328,
				"element": "C" 
			},
			{
				"x": -1.8469363266,
				"y": 2.8264496602,
				"z": -0.0818832456,
				"element": "C" 
			},
			{
				"x": -1.1233888265,
				"y": 1.7567576248,
				"z": 0.5217086588,
				"element": "C" 
			},
			{
				"x": 0.204677586,
				"y": 1.8295942474,
				"z": 1.2214194471,
				"element": "C" 
			},
			{
				"x": 0.7365038341,
				"y": 0.2577894173,
				"z": 1.9923070068,
				"element": "S" 
			},
			{
				"x": 1.2284831054,
				"y": -0.6319988386,
				"z": 0.5023917748,
				"element": "C" 
			},
			{
				"x": 0.7837197837,
				"y": -1.9462665306,
				"z": 0.2646065515,
				"element": "C" 
			},
			{
				"x": 1.380228764,
				"y": -2.6372763412,
				"z": -0.7997950385,
				"element": "C" 
			},
			{
				"x": 2.2908177118,
				"y": -1.9887832372,
				"z": -1.62452062,
				"element": "C" 
			},
			{
				"x": 2.5900575867,
				"y": -0.6535139677,
				"z": -1.3475986834,
				"element": "C" 
			},
			{
				"x": 2.0965044263,
				"y": 0.000352864,
				"z": -0.293205844,
				"element": "N" 
			},
			{
				"x": -0.27622699,
				"y": -2.7024596317,
				"z": 1.0375922785,
				"element": "C" 
			},
			{
				"x": -1.398323996,
				"y": -2.0569356985,
				"z": 1.3619802953,
				"element": "O" 
			},
			{
				"x": -0.1269885441,
				"y": -3.8802467822,
				"z": 1.2870594211,
				"element": "O" 
			},
			{
				"x": -1.763294011,
				"y": 0.617203058,
				"z": 0.3742446077,
				"element": "N" 
			},
			{
				"x": -2.9289243584,
				"y": 0.9098733174,
				"z": -0.3305096314,
				"element": "O" 
			},
			{
				"x": -4.0639137401,
				"y": 3.814706534,
				"z": -1.4988268981,
				"element": "H" 
			},
			{
				"x": -4.2327258899,
				"y": 2.2457741467,
				"z": -2.3148636939,
				"element": "H" 
			},
			{
				"x": -5.0716712654,
				"y": 2.5366766139,
				"z": -0.7869726747,
				"element": "H" 
			},
			{
				"x": -1.5737008708,
				"y": 3.869713495,
				"z": -0.1231135719,
				"element": "H" 
			},
			{
				"x": 0.9875924462,
				"y": 2.1346980844,
				"z": 0.5202387696,
				"element": "H" 
			},
			{
				"x": 0.1670449786,
				"y": 2.5689722425,
				"z": 2.0270423633,
				"element": "H" 
			},
			{
				"x": 1.0962855972,
				"y": -3.6713855099,
				"z": -0.9653215911,
				"element": "H" 
			},
			{
				"x": 2.7526126922,
				"y": -2.4958459566,
				"z": -2.4651954841,
				"element": "H" 
			},
			{
				"x": 3.2699982337,
				"y": -0.0905861823,
				"z": -1.9842282611,
				"element": "H" 
			},
			{
				"x": -1.4313823846,
				"y": -1.1279868839,
				"z": 1.0311564417,
				"element": "H" 
			}
		],
		 "valence_orbital": [ 
			{
				"type": "occ",
				"energy": -0.28162,
				"method": "rhf"
			},
			{
				"type": "occ",
				"energy": -0.27871,
				"method": "rhf"
			},
			{
				"type": "occ",
				"energy": -0.27282,
				"method": "rhf"
			},
			{
				"type": "occ",
				"energy": -0.25,
				"method": "rhf"
			},
			{
				"type": "occ",
				"energy": -0.23575,
				"method": "rhf"
			},
			{
				"type": "unocc",
				"energy": -0.04428,
				"method": "rhf"
			},
			{
				"type": "unocc",
				"energy": -0.04084,
				"method": "rhf"
			},
			{
				"type": "unocc",
				"energy": -0.03104,
				"method": "rhf"
			},
			{
				"type": "unocc",
				"energy": 0.02613,
				"method": "rhf"
			},
			{
				"type": "unocc",
				"energy": 0.03658,
				"method": "rhf"
			}
		],
		"cosmo_sigma_profile": { 
			"-0.025": 0.0,
			"-0.024": 0.0,
			"-0.023": 0.0,
			"-0.022": 0.0,
			"-0.021": 0.0,
			"-0.02": 0.0,
			"-0.019": 0.0,
			"-0.018": 0.0,
			"-0.017": 0.0,
			"-0.016": 0.0,
			"-0.015": 0.0,
			"-0.014": 0.0,
			"-0.013": 0.0,
			"-0.012": 0.0,
			"-0.011": 0.0,
			"-0.01": 0.0,
			"-0.009": 1.49170581546,
			"-0.008": 7.69789068013,
			"-0.007": 15.3401903835,
			"-0.006": 21.3917661443,
			"-0.005": 17.0610000571,
			"-0.004": 18.5126693311,
			"-0.003": 16.4585611004,
			"-0.002": 19.1552236923,
			"-0.001": 18.7331347786,
			"0.0": 22.3204723025,
			"0.001": 20.4635431415,
			"0.002": 13.1620193835,
			"0.003": 12.607299037,
			"0.004": 10.1379670981,
			"0.005": 8.9091930864,
			"0.006": 7.03455239522,
			"0.007": 8.16142826316,
			"0.008": 5.31264837346,
			"0.009": 4.46960519898,
			"0.01": 3.98920627343,
			"0.011": 6.83880164823,
			"0.012": 6.03065630454,
			"0.013": 2.36612704332,
			"0.014": 0.308510623869,
			"0.015": 0.0,
			"0.016": 0.0,
			"0.017": 0.0,
			"0.018": 0.0,
			"0.019": 0.0,
			"0.02": 0.0,
			"0.021": 0.0,
			"0.022": 0.0,
			"0.023": 0.0,
			"0.024": 0.0,
			"0.025": 0.0
		}
	}
}
