{
	 "smiles": "OC1=C(C2CC(CC3=CC=CC=C23)C2=CC=C(OCC3=CC=C(C=C3)C(F)(F)F)C=C2)C(=O)C2=C(O1)C=CC=C2", 
	 "Tm": 365.65, 
	 "num_atms": 65, 
	 "gaussian": { 
		 "optdone": 1, 
		 "sigma_profile": "yes", 
		 "theory": "DFT", 
		 "functional": "B3LYP", 
		 "basiset": "6-31G**", 
		 "properties": { 
			 "R2extent": 35126.5992, 
			 "electric_dipole_moment_norm": 4.68663132431, 
			 "electric_quadrupole_moment_norm": 51.0312034734, 
			 "total_energy": -1873.00581006, 
			 "HOMO_LUMO_gap": 0.16029, 
			 "cosmo_polarized_energy": -23.76, 
			 "cosmo_cavitation_energy": 69.62, 
			 "cosmo_dispersion_energy": -47.36, 
			 "cosmo_repulsion_energy": 3.43, 
			 "cosmo_total_nonelectrostatic_energy": 25.69, 
			 "SMD_solvation_energy": 13.29 
		},
		"coords": [
			{
				"x": -4.7399544336,
				"y": -1.8235349422,
				"z": 0.1075367497,
				"element": "O" 
			},
			{
				"x": -4.6232095009,
				"y": -0.48715263,
				"z": 0.166013038,
				"element": "C" 
			},
			{
				"x": -3.6591367382,
				"y": 0.2109414284,
				"z": -0.4938823599,
				"element": "C" 
			},
			{
				"x": -2.6220938161,
				"y": -0.5013071403,
				"z": -1.3404005923,
				"element": "C" 
			},
			{
				"x": -1.1854709169,
				"y": -0.2671859791,
				"z": -0.7648571025,
				"element": "C" 
			},
			{
				"x": -0.0379256439,
				"y": -0.4629801144,
				"z": -1.792918339,
				"element": "C" 
			},
			{
				"x": -0.4998653684,
				"y": -1.3649122575,
				"z": -2.9646001574,
				"element": "C" 
			},
			{
				"x": -1.6847187193,
				"y": -0.7277629594,
				"z": -3.6474879641,
				"element": "C" 
			},
			{
				"x": -1.7546777109,
				"y": -0.5796669643,
				"z": -5.0353680443,
				"element": "C" 
			},
			{
				"x": -2.8513022334,
				"y": 0.0434159611,
				"z": -5.6326905939,
				"element": "C" 
			},
			{
				"x": -3.8846438023,
				"y": 0.5310848895,
				"z": -4.8331348096,
				"element": "C" 
			},
			{
				"x": -3.8182726168,
				"y": 0.3938580206,
				"z": -3.4453883493,
				"element": "C" 
			},
			{
				"x": -2.724424176,
				"y": -0.2285786846,
				"z": -2.8390326475,
				"element": "C" 
			},
			{
				"x": 1.2473216533,
				"y": -0.9499114827,
				"z": -1.1463107458,
				"element": "C" 
			},
			{
				"x": 2.3990364675,
				"y": -0.159054027,
				"z": -1.1556179322,
				"element": "C" 
			},
			{
				"x": 3.5990435166,
				"y": -0.5856301728,
				"z": -0.5766473315,
				"element": "C" 
			},
			{
				"x": 3.6602172156,
				"y": -1.8451745353,
				"z": 0.0239156853,
				"element": "C" 
			},
			{
				"x": 4.7784686072,
				"y": -2.3849439777,
				"z": 0.6159175792,
				"element": "O" 
			},
			{
				"x": 6.0209114694,
				"y": -1.7092005887,
				"z": 0.4854138514,
				"element": "C" 
			},
			{
				"x": 6.2053547941,
				"y": -0.5508086386,
				"z": 1.4491982937,
				"element": "C" 
			},
			{
				"x": 5.5224443372,
				"y": -0.5162313773,
				"z": 2.669809212,
				"element": "C" 
			},
			{
				"x": 5.7386902038,
				"y": 0.5234628789,
				"z": 3.5712858523,
				"element": "C" 
			},
			{
				"x": 6.6474713269,
				"y": 1.5390775369,
				"z": 3.2624135694,
				"element": "C" 
			},
			{
				"x": 7.3345428053,
				"y": 1.5135053611,
				"z": 2.0461878818,
				"element": "C" 
			},
			{
				"x": 7.1085509685,
				"y": 0.4749126807,
				"z": 1.1455551869,
				"element": "C" 
			},
			{
				"x": 6.9257215936,
				"y": 2.6294750102,
				"z": 4.2601192362,
				"element": "C" 
			},
			{
				"x": 5.8477651258,
				"y": 2.8960477104,
				"z": 5.0305653569,
				"element": "F" 
			},
			{
				"x": 7.2912173646,
				"y": 3.7833964958,
				"z": 3.657776938,
				"element": "F" 
			},
			{
				"x": 7.9328694849,
				"y": 2.2924030408,
				"z": 5.1009856172,
				"element": "F" 
			},
			{
				"x": 2.5171914283,
				"y": -2.6556616611,
				"z": 0.0482321467,
				"element": "C" 
			},
			{
				"x": 1.3337284527,
				"y": -2.2087510981,
				"z": -0.5261678832,
				"element": "C" 
			},
			{
				"x": -3.6351114984,
				"y": 1.6672466428,
				"z": -0.3481384344,
				"element": "C" 
			},
			{
				"x": -2.8019741432,
				"y": 2.3899120235,
				"z": -0.8982919093,
				"element": "O" 
			},
			{
				"x": -4.6963233157,
				"y": 2.2404669826,
				"z": 0.5214825572,
				"element": "C" 
			},
			{
				"x": -5.628658302,
				"y": 1.4097400133,
				"z": 1.1448640407,
				"element": "C" 
			},
			{
				"x": -5.581945961,
				"y": 0.0412896525,
				"z": 0.9635077236,
				"element": "O" 
			},
			{
				"x": -6.6382861961,
				"y": 1.9070671562,
				"z": 1.9694601303,
				"element": "C" 
			},
			{
				"x": -6.7092794657,
				"y": 3.2813328385,
				"z": 2.1705904126,
				"element": "C" 
			},
			{
				"x": -5.7855769068,
				"y": 4.1422296917,
				"z": 1.5567724766,
				"element": "C" 
			},
			{
				"x": -4.7895719542,
				"y": 3.6237260047,
				"z": 0.7405910828,
				"element": "C" 
			},
			{
				"x": -5.4961495793,
				"y": -2.0888536176,
				"z": 0.6517567629,
				"element": "H" 
			},
			{
				"x": -2.8163285901,
				"y": -1.5758743786,
				"z": -1.2360002131,
				"element": "H" 
			},
			{
				"x": -1.0542367468,
				"y": -0.9579452987,
				"z": 0.0750375686,
				"element": "H" 
			},
			{
				"x": -1.1179152711,
				"y": 0.7445559757,
				"z": -0.3628425668,
				"element": "H" 
			},
			{
				"x": 0.1712508883,
				"y": 0.5168337148,
				"z": -2.2374680394,
				"element": "H" 
			},
			{
				"x": 0.3208154835,
				"y": -1.5145625171,
				"z": -3.6737633588,
				"element": "H" 
			},
			{
				"x": -0.7634961424,
				"y": -2.361052384,
				"z": -2.5778844819,
				"element": "H" 
			},
			{
				"x": -0.9411650166,
				"y": -0.9565357135,
				"z": -5.6511822529,
				"element": "H" 
			},
			{
				"x": -2.895176367,
				"y": 0.1510360727,
				"z": -6.7129023781,
				"element": "H" 
			},
			{
				"x": -4.7416797276,
				"y": 1.0218698838,
				"z": -5.2860824534,
				"element": "H" 
			},
			{
				"x": -4.6292379144,
				"y": 0.7728991438,
				"z": -2.8317183536,
				"element": "H" 
			},
			{
				"x": 2.3641861723,
				"y": 0.8238380487,
				"z": -1.6191201323,
				"element": "H" 
			},
			{
				"x": 4.4574369817,
				"y": 0.0754489392,
				"z": -0.5842536863,
				"element": "H" 
			},
			{
				"x": 6.1753897923,
				"y": -1.3760470675,
				"z": -0.5495863297,
				"element": "H" 
			},
			{
				"x": 6.7728441948,
				"y": -2.4788174243,
				"z": 0.694885735,
				"element": "H" 
			},
			{
				"x": 4.8125084799,
				"y": -1.302826838,
				"z": 2.902179642,
				"element": "H" 
			},
			{
				"x": 5.1973211493,
				"y": 0.5528026188,
				"z": 4.5108582975,
				"element": "H" 
			},
			{
				"x": 8.0284321707,
				"y": 2.310349929,
				"z": 1.80099535,
				"element": "H" 
			},
			{
				"x": 7.6371581015,
				"y": 0.4664560101,
				"z": 0.1952911402,
				"element": "H" 
			},
			{
				"x": 2.5828725154,
				"y": -3.6321718428,
				"z": 0.5175620245,
				"element": "H" 
			},
			{
				"x": 0.4610694384,
				"y": -2.8562300798,
				"z": -0.4939187874,
				"element": "H" 
			},
			{
				"x": -7.340229131,
				"y": 1.2219520018,
				"z": 2.4327232534,
				"element": "H" 
			},
			{
				"x": -7.4882960823,
				"y": 3.6867507395,
				"z": 2.8091860811,
				"element": "H" 
			},
			{
				"x": -5.8525324336,
				"y": 5.212931141,
				"z": 1.7224748646,
				"element": "H" 
			},
			{
				"x": -4.0575657615,
				"y": 4.2562501533,
				"z": 0.2492128915,
				"element": "H" 
			}
		],
		 "valence_orbital": [ 
			{
				"type": "occ",
				"energy": -0.24284,
				"method": "rhf"
			},
			{
				"type": "occ",
				"energy": -0.23363,
				"method": "rhf"
			},
			{
				"type": "occ",
				"energy": -0.22981,
				"method": "rhf"
			},
			{
				"type": "occ",
				"energy": -0.22233,
				"method": "rhf"
			},
			{
				"type": "occ",
				"energy": -0.21054,
				"method": "rhf"
			},
			{
				"type": "unocc",
				"energy": -0.05025,
				"method": "rhf"
			},
			{
				"type": "unocc",
				"energy": -0.02846,
				"method": "rhf"
			},
			{
				"type": "unocc",
				"energy": -0.0179,
				"method": "rhf"
			},
			{
				"type": "unocc",
				"energy": -0.01759,
				"method": "rhf"
			},
			{
				"type": "unocc",
				"energy": 0.00132,
				"method": "rhf"
			}
		],
		"cosmo_sigma_profile": { 
			"-0.025": 0.0,
			"-0.024": 0.0,
			"-0.023": 0.0,
			"-0.022": 0.0,
			"-0.021": 0.0,
			"-0.02": 0.11618230325,
			"-0.019": 1.00094742907,
			"-0.018": 0.900203024173,
			"-0.017": 0.984049068935,
			"-0.016": 0.707314913748,
			"-0.015": 0.854111991814,
			"-0.014": 0.583024615461,
			"-0.013": 0.671426783657,
			"-0.012": 1.00689778583,
			"-0.011": 0.765370849628,
			"-0.01": 0.509555826963,
			"-0.009": 0.715863907512,
			"-0.008": 2.02079472671,
			"-0.007": 13.1093193743,
			"-0.006": 21.5910760772,
			"-0.005": 39.3575952318,
			"-0.004": 44.1502735733,
			"-0.003": 42.8011533625,
			"-0.002": 36.4334550603,
			"-0.001": 36.5745931957,
			"0.0": 45.9019354088,
			"0.001": 46.3781181289,
			"0.002": 51.3992115618,
			"0.003": 70.691082834,
			"0.004": 29.3377284699,
			"0.005": 18.6245363578,
			"0.006": 17.3996231697,
			"0.007": 10.944517092,
			"0.008": 3.97511834307,
			"0.009": 3.13033482365,
			"0.01": 2.56739123242,
			"0.011": 2.22586069951,
			"0.012": 2.68651425882,
			"0.013": 2.92795723225,
			"0.014": 2.98555032677,
			"0.015": 0.0116464918548,
			"0.016": 0.0,
			"0.017": 0.0,
			"0.018": 0.0,
			"0.019": 0.0,
			"0.02": 0.0,
			"0.021": 0.0,
			"0.022": 0.0,
			"0.023": 0.0,
			"0.024": 0.0,
			"0.025": 0.0
		}
	}
}
