{
	 "smiles": "OC(=O)C=CC1=CC(F)=C(OC2=CN=CC=C2)C=C1", 
	 "Tm": 476.15, 
	 "num_atms": 29, 
	 "gaussian": { 
		 "optdone": 1, 
		 "sigma_profile": "yes", 
		 "theory": "DFT", 
		 "functional": "B3LYP", 
		 "basiset": "6-31G**", 
		 "properties": { 
			 "R2extent": 8342.9014, 
			 "electric_dipole_moment_norm": 2.36175296972, 
			 "electric_quadrupole_moment_norm": 40.8266811491, 
			 "total_energy": -919.743898846, 
			 "HOMO_LUMO_gap": 0.15617, 
			 "cosmo_polarized_energy": -21.07, 
			 "cosmo_cavitation_energy": 35.88, 
			 "cosmo_dispersion_energy": -25.48, 
			 "cosmo_repulsion_energy": 1.93, 
			 "cosmo_total_nonelectrostatic_energy": 12.33, 
			 "SMD_solvation_energy": 6.75 
		},
		"coords": [
			{
				"x": 5.3662568471,
				"y": -0.6147508546,
				"z": 3.0263090973,
				"element": "O" 
			},
			{
				"x": 4.1314811389,
				"y": -0.0585847023,
				"z": 3.1732002185,
				"element": "C" 
			},
			{
				"x": 3.841353038,
				"y": 0.494484586,
				"z": 4.2099633491,
				"element": "O" 
			},
			{
				"x": 3.2220068763,
				"y": -0.1860384704,
				"z": 2.0046273754,
				"element": "C" 
			},
			{
				"x": 1.9806174817,
				"y": 0.3284136458,
				"z": 2.0720181947,
				"element": "C" 
			},
			{
				"x": 0.9396409414,
				"y": 0.3124664231,
				"z": 1.0474801807,
				"element": "C" 
			},
			{
				"x": 1.1176342904,
				"y": -0.2781280321,
				"z": -0.2195898512,
				"element": "C" 
			},
			{
				"x": 0.0888574129,
				"y": -0.2633270063,
				"z": -1.1414367124,
				"element": "C" 
			},
			{
				"x": 0.2634362972,
				"y": -0.8442615088,
				"z": -2.342906064,
				"element": "F" 
			},
			{
				"x": -1.1440445894,
				"y": 0.3474328883,
				"z": -0.8598586444,
				"element": "C" 
			},
			{
				"x": -2.1999471807,
				"y": 0.2971016056,
				"z": -1.7340473458,
				"element": "O" 
			},
			{
				"x": -2.0708181862,
				"y": 0.7674586703,
				"z": -3.0274112808,
				"element": "C" 
			},
			{
				"x": -3.0142990234,
				"y": 0.3028947514,
				"z": -3.9500438359,
				"element": "C" 
			},
			{
				"x": -3.0478096614,
				"y": 0.7086746969,
				"z": -5.219800292,
				"element": "N" 
			},
			{
				"x": -2.1281903404,
				"y": 1.5991943122,
				"z": -5.6161153553,
				"element": "C" 
			},
			{
				"x": -1.1532991407,
				"y": 2.1186954515,
				"z": -4.7647391382,
				"element": "C" 
			},
			{
				"x": -1.1199504247,
				"y": 1.6998798542,
				"z": -3.4350119611,
				"element": "C" 
			},
			{
				"x": -1.3276471486,
				"y": 0.9308947824,
				"z": 0.3926757786,
				"element": "C" 
			},
			{
				"x": -0.300868308,
				"y": 0.9100973724,
				"z": 1.33342734,
				"element": "C" 
			},
			{
				"x": 5.4532271478,
				"y": -1.0220434917,
				"z": 2.1534949273,
				"element": "H" 
			},
			{
				"x": 3.5819641618,
				"y": -0.6964683564,
				"z": 1.1134729692,
				"element": "H" 
			},
			{
				"x": 1.7223977472,
				"y": 0.8175654437,
				"z": 3.0099292504,
				"element": "H" 
			},
			{
				"x": 2.0446111464,
				"y": -0.7657636135,
				"z": -0.4998722359,
				"element": "H" 
			},
			{
				"x": -3.7607495378,
				"y": -0.419842417,
				"z": -3.6273387779,
				"element": "H" 
			},
			{
				"x": -2.1749622846,
				"y": 1.9093678015,
				"z": -6.6576547997,
				"element": "H" 
			},
			{
				"x": -0.432852066,
				"y": 2.8431838868,
				"z": -5.1314782378,
				"element": "H" 
			},
			{
				"x": -0.3841344723,
				"y": 2.0899343697,
				"z": -2.7397136531,
				"element": "H" 
			},
			{
				"x": -2.2855277852,
				"y": 1.3903537882,
				"z": 0.6115341861,
				"element": "H" 
			},
			{
				"x": -0.4574843777,
				"y": 1.3679141229,
				"z": 2.3052853182,
				"element": "H" 
			}
		],
		 "valence_orbital": [ 
			{
				"type": "occ",
				"energy": -0.27679,
				"method": "rhf"
			},
			{
				"type": "occ",
				"energy": -0.27514,
				"method": "rhf"
			},
			{
				"type": "occ",
				"energy": -0.26143,
				"method": "rhf"
			},
			{
				"type": "occ",
				"energy": -0.25834,
				"method": "rhf"
			},
			{
				"type": "occ",
				"energy": -0.23856,
				"method": "rhf"
			},
			{
				"type": "unocc",
				"energy": -0.08239,
				"method": "rhf"
			},
			{
				"type": "unocc",
				"energy": -0.03351,
				"method": "rhf"
			},
			{
				"type": "unocc",
				"energy": -0.02593,
				"method": "rhf"
			},
			{
				"type": "unocc",
				"energy": -0.01166,
				"method": "rhf"
			},
			{
				"type": "unocc",
				"energy": 0.00876,
				"method": "rhf"
			}
		],
		"cosmo_sigma_profile": { 
			"-0.025": 0.0,
			"-0.024": 0.0,
			"-0.023": 0.0,
			"-0.022": 0.0,
			"-0.021": 0.0,
			"-0.02": 0.0479383657957,
			"-0.019": 0.822248548583,
			"-0.018": 1.42659619928,
			"-0.017": 1.0658010869,
			"-0.016": 1.04941593503,
			"-0.015": 0.946994222254,
			"-0.014": 1.10231570627,
			"-0.013": 0.929272210234,
			"-0.012": 1.43048843678,
			"-0.011": 1.00355923196,
			"-0.01": 2.36403667418,
			"-0.009": 2.68252166975,
			"-0.008": 7.49482560087,
			"-0.007": 12.8859078006,
			"-0.006": 16.3821676245,
			"-0.005": 14.9281314334,
			"-0.004": 12.6886420688,
			"-0.003": 13.9883105404,
			"-0.002": 13.8389732704,
			"-0.001": 17.2088625801,
			"0.0": 24.1519109217,
			"0.001": 29.5806883392,
			"0.002": 31.0950738206,
			"0.003": 21.3538375509,
			"0.004": 10.3167756879,
			"0.005": 5.78828861341,
			"0.006": 4.54145952011,
			"0.007": 4.41829215846,
			"0.008": 4.64038989472,
			"0.009": 4.39125911318,
			"0.01": 4.83004644242,
			"0.011": 5.89517998462,
			"0.012": 6.71721002111,
			"0.013": 3.90524707767,
			"0.014": 1.38465985671,
			"0.015": 0.410565726813,
			"0.016": 1.13580033834,
			"0.017": 0.0850944451137,
			"0.018": 0.0,
			"0.019": 0.0,
			"0.02": 0.0,
			"0.021": 0.0,
			"0.022": 0.0,
			"0.023": 0.0,
			"0.024": 0.0,
			"0.025": 0.0
		}
	}
}
