{
	 "smiles": "CC(=O)OC1=CC=C(C=C1)C1(OC2=C(NC1=O)C=CC=C2)C1=CC=C(OC(C)=O)C=C1", 
	 "Tm": 463.15, 
	 "num_atms": 50, 
	 "gaussian": { 
		 "optdone": 1, 
		 "sigma_profile": "yes", 
		 "theory": "DFT", 
		 "functional": "B3LYP", 
		 "basiset": "6-31G**", 
		 "properties": { 
			 "R2extent": 16235.3411, 
			 "electric_dipole_moment_norm": 3.05722410366, 
			 "electric_quadrupole_moment_norm": 21.3106072558, 
			 "total_energy": -1432.12755767, 
			 "HOMO_LUMO_gap": 0.19647, 
			 "cosmo_polarized_energy": -21.65, 
			 "cosmo_cavitation_energy": 55.42, 
			 "cosmo_dispersion_energy": -37.82, 
			 "cosmo_repulsion_energy": 2.88, 
			 "cosmo_total_nonelectrostatic_energy": 20.49, 
			 "SMD_solvation_energy": 12.32 
		},
		"coords": [
			{
				"x": -5.9114372009,
				"y": -4.9626886223,
				"z": -1.2319326826,
				"element": "C" 
			},
			{
				"x": -4.99006957,
				"y": -3.8104701073,
				"z": -1.5506539313,
				"element": "C" 
			},
			{
				"x": -5.2873021126,
				"y": -2.8188889539,
				"z": -2.1703300722,
				"element": "O" 
			},
			{
				"x": -3.751826561,
				"y": -4.0594690868,
				"z": -1.021601063,
				"element": "O" 
			},
			{
				"x": -2.697030328,
				"y": -3.1542061346,
				"z": -1.1506111333,
				"element": "C" 
			},
			{
				"x": -1.8703702189,
				"y": -3.033145994,
				"z": -0.0341591425,
				"element": "C" 
			},
			{
				"x": -0.7543467715,
				"y": -2.204473746,
				"z": -0.0875393299,
				"element": "C" 
			},
			{
				"x": -0.4522653708,
				"y": -1.4916617979,
				"z": -1.2544302156,
				"element": "C" 
			},
			{
				"x": -1.2866085076,
				"y": -1.6360992606,
				"z": -2.3673287491,
				"element": "C" 
			},
			{
				"x": -2.4119524332,
				"y": -2.4611519946,
				"z": -2.3251644723,
				"element": "C" 
			},
			{
				"x": 0.7920228006,
				"y": -0.6008018003,
				"z": -1.3108072368,
				"element": "C" 
			},
			{
				"x": 0.6337551761,
				"y": 0.2265127047,
				"z": -2.4883907504,
				"element": "O" 
			},
			{
				"x": 1.7399898841,
				"y": 0.8957880057,
				"z": -2.9451949504,
				"element": "C" 
			},
			{
				"x": 3.0061623696,
				"y": 0.3104854803,
				"z": -2.8196515953,
				"element": "C" 
			},
			{
				"x": 3.072475534,
				"y": -0.9384370771,
				"z": -2.1867484396,
				"element": "N" 
			},
			{
				"x": 2.0637468803,
				"y": -1.485851054,
				"z": -1.4385139707,
				"element": "C" 
			},
			{
				"x": 2.1851812467,
				"y": -2.5595578144,
				"z": -0.8713101332,
				"element": "O" 
			},
			{
				"x": 4.1273953924,
				"y": 0.9583040427,
				"z": -3.3401312516,
				"element": "C" 
			},
			{
				"x": 3.977380043,
				"y": 2.1797150125,
				"z": -3.9990485776,
				"element": "C" 
			},
			{
				"x": 2.7122568858,
				"y": 2.7553180535,
				"z": -4.1307045145,
				"element": "C" 
			},
			{
				"x": 1.5907115134,
				"y": 2.1154833329,
				"z": -3.5975535338,
				"element": "C" 
			},
			{
				"x": 0.9091720439,
				"y": 0.300760594,
				"z": -0.0687443438,
				"element": "C" 
			},
			{
				"x": 0.1139074423,
				"y": 1.4532479813,
				"z": -0.0024132035,
				"element": "C" 
			},
			{
				"x": 0.1646762381,
				"y": 2.2861499122,
				"z": 1.1092470017,
				"element": "C" 
			},
			{
				"x": 1.0116753477,
				"y": 1.9715803692,
				"z": 2.1737161691,
				"element": "C" 
			},
			{
				"x": 1.0386241455,
				"y": 2.9093447722,
				"z": 3.2049812485,
				"element": "O" 
			},
			{
				"x": 1.1892990846,
				"y": 2.5517490137,
				"z": 4.5197913772,
				"element": "C" 
			},
			{
				"x": 1.153565523,
				"y": 3.7898798545,
				"z": 5.3813938831,
				"element": "C" 
			},
			{
				"x": 1.3247245977,
				"y": 1.4197505479,
				"z": 4.9134409332,
				"element": "O" 
			},
			{
				"x": 1.8113670385,
				"y": 0.8310217911,
				"z": 2.1319998447,
				"element": "C" 
			},
			{
				"x": 1.7508614349,
				"y": 0.0030385923,
				"z": 1.0079757409,
				"element": "C" 
			},
			{
				"x": -6.8927033603,
				"y": -4.7702208387,
				"z": -1.6641708017,
				"element": "H" 
			},
			{
				"x": -5.5000922444,
				"y": -5.8935941597,
				"z": -1.633109606,
				"element": "H" 
			},
			{
				"x": -5.9972804042,
				"y": -5.0854139601,
				"z": -0.1482439963,
				"element": "H" 
			},
			{
				"x": -2.1099007149,
				"y": -3.5915304669,
				"z": 0.864533021,
				"element": "H" 
			},
			{
				"x": -0.1194473639,
				"y": -2.1132393847,
				"z": 0.7855495787,
				"element": "H" 
			},
			{
				"x": -1.062634523,
				"y": -1.0945656419,
				"z": -3.2777850607,
				"element": "H" 
			},
			{
				"x": -3.0573960507,
				"y": -2.5507727609,
				"z": -3.18821737,
				"element": "H" 
			},
			{
				"x": 3.9305304937,
				"y": -1.4747497058,
				"z": -2.2156492377,
				"element": "H" 
			},
			{
				"x": 5.1078447515,
				"y": 0.5013125749,
				"z": -3.2350727615,
				"element": "H" 
			},
			{
				"x": 4.8506572791,
				"y": 2.6782788431,
				"z": -4.4073545588,
				"element": "H" 
			},
			{
				"x": 2.5950980851,
				"y": 3.7058789756,
				"z": -4.6413048845,
				"element": "H" 
			},
			{
				"x": 0.5967381371,
				"y": 2.5409227185,
				"z": -3.6877799225,
				"element": "H" 
			},
			{
				"x": -0.5450514353,
				"y": 1.6955794735,
				"z": -0.8289131223,
				"element": "H" 
			},
			{
				"x": -0.4428000803,
				"y": 3.1832962093,
				"z": 1.1666802506,
				"element": "H" 
			},
			{
				"x": 0.1971248254,
				"y": 4.3060409229,
				"z": 5.2563648828,
				"element": "H" 
			},
			{
				"x": 1.2905936927,
				"y": 3.5070355521,
				"z": 6.4244046294,
				"element": "H" 
			},
			{
				"x": 1.9409854137,
				"y": 4.4840784991,
				"z": 5.0735690067,
				"element": "H" 
			},
			{
				"x": 2.4599710787,
				"y": 0.5819195646,
				"z": 2.9600192665,
				"element": "H" 
			},
			{
				"x": 2.3652208722,
				"y": -0.8908830319,
				"z": 0.987797781,
				"element": "H" 
			}
		],
		 "valence_orbital": [ 
			{
				"type": "occ",
				"energy": -0.24926,
				"method": "rhf"
			},
			{
				"type": "occ",
				"energy": -0.24694,
				"method": "rhf"
			},
			{
				"type": "occ",
				"energy": -0.2406,
				"method": "rhf"
			},
			{
				"type": "occ",
				"energy": -0.23062,
				"method": "rhf"
			},
			{
				"type": "occ",
				"energy": -0.21935,
				"method": "rhf"
			},
			{
				"type": "unocc",
				"energy": -0.02288,
				"method": "rhf"
			},
			{
				"type": "unocc",
				"energy": -0.02038,
				"method": "rhf"
			},
			{
				"type": "unocc",
				"energy": -0.01488,
				"method": "rhf"
			},
			{
				"type": "unocc",
				"energy": -0.00667,
				"method": "rhf"
			},
			{
				"type": "unocc",
				"energy": -0.00557,
				"method": "rhf"
			}
		],
		"cosmo_sigma_profile": { 
			"-0.025": 0.0,
			"-0.024": 0.0,
			"-0.023": 0.0,
			"-0.022": 0.0,
			"-0.021": 0.0,
			"-0.02": 0.0,
			"-0.019": 0.0,
			"-0.018": 0.0,
			"-0.017": 0.0,
			"-0.016": 0.554709712266,
			"-0.015": 1.26006866527,
			"-0.014": 1.10386042166,
			"-0.013": 1.26623824819,
			"-0.012": 1.23812315047,
			"-0.011": 1.17940326624,
			"-0.01": 1.12159261878,
			"-0.009": 1.08266715474,
			"-0.008": 1.69644874387,
			"-0.007": 10.4667602892,
			"-0.006": 27.7202583965,
			"-0.005": 34.9137316389,
			"-0.004": 37.6771422775,
			"-0.003": 33.9136444085,
			"-0.002": 36.9376814336,
			"-0.001": 29.7780024337,
			"0.0": 25.7555319187,
			"0.001": 28.0256585595,
			"0.002": 32.1970715451,
			"0.003": 37.7293956191,
			"0.004": 28.1329508534,
			"0.005": 16.9235355607,
			"0.006": 8.89514750448,
			"0.007": 6.8635770697,
			"0.008": 4.80995431088,
			"0.009": 5.52478673254,
			"0.01": 6.73490553492,
			"0.011": 10.8318009702,
			"0.012": 7.91111839342,
			"0.013": 1.57645501286,
			"0.014": 0.0,
			"0.015": 0.0,
			"0.016": 0.0,
			"0.017": 0.0,
			"0.018": 0.0,
			"0.019": 0.0,
			"0.02": 0.0,
			"0.021": 0.0,
			"0.022": 0.0,
			"0.023": 0.0,
			"0.024": 0.0,
			"0.025": 0.0
		}
	}
}
