{
	 "smiles": "NNC(=O)C1=CC=CO1", 
	 "Tm": 352.65, 
	 "num_atms": 15, 
	 "gaussian": { 
		 "optdone": 1, 
		 "sigma_profile": "yes", 
		 "theory": "DFT", 
		 "functional": "B3LYP", 
		 "basiset": "6-31G**", 
		 "properties": { 
			 "R2extent": 1456.7245, 
			 "electric_dipole_moment_norm": 3.75729009128, 
			 "electric_quadrupole_moment_norm": 4.90062813117, 
			 "total_energy": -454.043631536, 
			 "HOMO_LUMO_gap": 0.20533, 
			 "cosmo_polarized_energy": -12.92, 
			 "cosmo_cavitation_energy": 19.76, 
			 "cosmo_dispersion_energy": -14.69, 
			 "cosmo_repulsion_energy": 1.22, 
			 "cosmo_total_nonelectrostatic_energy": 6.29, 
			 "SMD_solvation_energy": 5.66 
		},
		"coords": [
			{
				"x": 0.6529138355,
				"y": 2.9898304502,
				"z": 0.8393526089,
				"element": "N" 
			},
			{
				"x": 0.1273792181,
				"y": 1.7605069423,
				"z": 1.2728648059,
				"element": "N" 
			},
			{
				"x": 0.0711683623,
				"y": 0.5500178583,
				"z": 0.629561748,
				"element": "C" 
			},
			{
				"x": -0.4264434964,
				"y": -0.4300367616,
				"z": 1.1796910106,
				"element": "O" 
			},
			{
				"x": 0.6106266257,
				"y": 0.4104017342,
				"z": -0.7411699116,
				"element": "C" 
			},
			{
				"x": 0.6314869296,
				"y": -0.7198239855,
				"z": -1.5120964246,
				"element": "C" 
			},
			{
				"x": 1.2464554224,
				"y": -0.3627781961,
				"z": -2.7485417341,
				"element": "C" 
			},
			{
				"x": 1.558634857,
				"y": 0.9608836975,
				"z": -2.6477817056,
				"element": "C" 
			},
			{
				"x": 1.1817801682,
				"y": 1.4530472391,
				"z": -1.4363219001,
				"element": "O" 
			},
			{
				"x": 1.6361891152,
				"y": 2.8754827862,
				"z": 0.6061882584,
				"element": "H" 
			},
			{
				"x": 0.1782743814,
				"y": 3.2801924531,
				"z": -0.0118513466,
				"element": "H" 
			},
			{
				"x": -0.2643519477,
				"y": 1.7562631819,
				"z": 2.2051269949,
				"element": "H" 
			},
			{
				"x": 0.2458953237,
				"y": -1.6807205613,
				"z": -1.2075447719,
				"element": "H" 
			},
			{
				"x": 1.4321910668,
				"y": -1.0025425378,
				"z": -3.5989960555,
				"element": "H" 
			},
			{
				"x": 2.028200138,
				"y": 1.6669756994,
				"z": -3.3155815767,
				"element": "H" 
			}
		],
		 "valence_orbital": [ 
			{
				"type": "occ",
				"energy": -0.29341,
				"method": "rhf"
			},
			{
				"type": "occ",
				"energy": -0.28628,
				"method": "rhf"
			},
			{
				"type": "occ",
				"energy": -0.25508,
				"method": "rhf"
			},
			{
				"type": "occ",
				"energy": -0.24923,
				"method": "rhf"
			},
			{
				"type": "occ",
				"energy": -0.24109,
				"method": "rhf"
			},
			{
				"type": "unocc",
				"energy": -0.03576,
				"method": "rhf"
			},
			{
				"type": "unocc",
				"energy": 0.03927,
				"method": "rhf"
			},
			{
				"type": "unocc",
				"energy": 0.07983,
				"method": "rhf"
			},
			{
				"type": "unocc",
				"energy": 0.10701,
				"method": "rhf"
			},
			{
				"type": "unocc",
				"energy": 0.10972,
				"method": "rhf"
			}
		],
		"cosmo_sigma_profile": { 
			"-0.025": 0.0,
			"-0.024": 0.0,
			"-0.023": 0.0,
			"-0.022": 0.0,
			"-0.021": 0.0,
			"-0.02": 0.0,
			"-0.019": 0.0,
			"-0.018": 0.0,
			"-0.017": 0.0,
			"-0.016": 0.0,
			"-0.015": 0.0,
			"-0.014": 0.300606844512,
			"-0.013": 0.907875594264,
			"-0.012": 0.975649910989,
			"-0.011": 3.1854061972,
			"-0.01": 3.17726605544,
			"-0.009": 4.932157193,
			"-0.008": 5.96768931962,
			"-0.007": 8.0216648795,
			"-0.006": 7.39806216309,
			"-0.005": 8.35537960222,
			"-0.004": 8.10062225844,
			"-0.003": 7.10892676786,
			"-0.002": 7.877268153,
			"-0.001": 8.89169966781,
			"0.0": 8.62432414239,
			"0.001": 13.6913348385,
			"0.002": 14.0785484582,
			"0.003": 10.0212859195,
			"0.004": 6.93987988136,
			"0.005": 2.31954689038,
			"0.006": 1.97999186144,
			"0.007": 2.55629445426,
			"0.008": 1.30711197959,
			"0.009": 2.16074373631,
			"0.01": 2.58337069407,
			"0.011": 1.98970713579,
			"0.012": 2.24512019663,
			"0.013": 4.73659809291,
			"0.014": 5.93225403612,
			"0.015": 0.633157938268,
			"0.016": 0.4574809833,
			"0.017": 0.0474396030383,
			"0.018": 0.0,
			"0.019": 0.0,
			"0.02": 0.0,
			"0.021": 0.0,
			"0.022": 0.0,
			"0.023": 0.0,
			"0.024": 0.0,
			"0.025": 0.0
		}
	}
}
