{
	 "smiles": "NC1=NC=C(CC2=CC(=CC=C2)C(O)=O)S1", 
	 "Tm": 491.15, 
	 "num_atms": 26, 
	 "gaussian": { 
		 "optdone": 1, 
		 "sigma_profile": "yes", 
		 "theory": "DFT", 
		 "functional": "B3LYP", 
		 "basiset": "6-31G**", 
		 "properties": { 
			 "R2extent": 5185.0861, 
			 "electric_dipole_moment_norm": 4.84503996784, 
			 "electric_quadrupole_moment_norm": 26.9698475498, 
			 "total_energy": -1083.34174756, 
			 "HOMO_LUMO_gap": 0.16062, 
			 "cosmo_polarized_energy": -22.11, 
			 "cosmo_cavitation_energy": 32.96, 
			 "cosmo_dispersion_energy": -23.78, 
			 "cosmo_repulsion_energy": 1.84, 
			 "cosmo_total_nonelectrostatic_energy": 11.02, 
			 "SMD_solvation_energy": 4.52 
		},
		"coords": [
			{
				"x": 4.3551388156,
				"y": 0.2564145054,
				"z": -0.6446140937,
				"element": "N" 
			},
			{
				"x": 3.1406758391,
				"y": 0.4968219559,
				"z": -0.0412676029,
				"element": "C" 
			},
			{
				"x": 2.8769275647,
				"y": 1.5556513982,
				"z": 0.667584672,
				"element": "N" 
			},
			{
				"x": 1.6079987484,
				"y": 1.4719305187,
				"z": 1.200913268,
				"element": "C" 
			},
			{
				"x": 0.8699289297,
				"y": 0.3636126564,
				"z": 0.9131726545,
				"element": "C" 
			},
			{
				"x": -0.5250826356,
				"y": 0.0208354124,
				"z": 1.3489376702,
				"element": "C" 
			},
			{
				"x": -1.5440585553,
				"y": -0.0973702706,
				"z": 0.2228332038,
				"element": "C" 
			},
			{
				"x": -1.7011709645,
				"y": 0.9343208897,
				"z": -0.7071638777,
				"element": "C" 
			},
			{
				"x": -2.6427675785,
				"y": 0.8392426058,
				"z": -1.7372203941,
				"element": "C" 
			},
			{
				"x": -3.4614238292,
				"y": -0.2972618707,
				"z": -1.8255527527,
				"element": "C" 
			},
			{
				"x": -3.3177375365,
				"y": -1.327666966,
				"z": -0.8995352604,
				"element": "C" 
			},
			{
				"x": -2.3602280635,
				"y": -1.2299162842,
				"z": 0.1119840412,
				"element": "C" 
			},
			{
				"x": -2.7493718532,
				"y": 1.9943476065,
				"z": -2.6886309194,
				"element": "C" 
			},
			{
				"x": -3.3131149102,
				"y": 1.7357199548,
				"z": -3.9004559349,
				"element": "O" 
			},
			{
				"x": -2.3651521647,
				"y": 3.1099326394,
				"z": -2.4284116596,
				"element": "O" 
			},
			{
				"x": 1.8380631362,
				"y": -0.7018596346,
				"z": -0.1093294662,
				"element": "S" 
			},
			{
				"x": 4.9345362725,
				"y": 1.0849787832,
				"z": -0.6923401632,
				"element": "H" 
			},
			{
				"x": 4.3399504322,
				"y": -0.2792685073,
				"z": -1.5009130735,
				"element": "H" 
			},
			{
				"x": 1.2472504811,
				"y": 2.2884175218,
				"z": 1.818151945,
				"element": "H" 
			},
			{
				"x": -0.5294106355,
				"y": -0.910317682,
				"z": 1.9293505123,
				"element": "H" 
			},
			{
				"x": -0.8449011048,
				"y": 0.8106606994,
				"z": 2.0411099877,
				"element": "H" 
			},
			{
				"x": -1.0862526898,
				"y": 1.8269481485,
				"z": -0.6506186136,
				"element": "H" 
			},
			{
				"x": -4.237847082,
				"y": -0.3695286718,
				"z": -2.5833958296,
				"element": "H" 
			},
			{
				"x": -3.9546395198,
				"y": -2.2050020085,
				"z": -0.9606156662,
				"element": "H" 
			},
			{
				"x": -2.2508809642,
				"y": -2.0401955857,
				"z": 0.8285061618,
				"element": "H" 
			},
			{
				"x": -3.4156301325,
				"y": 0.7816521853,
				"z": -4.0212788088,
				"element": "H" 
			}
		],
		 "valence_orbital": [ 
			{
				"type": "occ",
				"energy": -0.27618,
				"method": "rhf"
			},
			{
				"type": "occ",
				"energy": -0.27232,
				"method": "rhf"
			},
			{
				"type": "occ",
				"energy": -0.26349,
				"method": "rhf"
			},
			{
				"type": "occ",
				"energy": -0.26038,
				"method": "rhf"
			},
			{
				"type": "occ",
				"energy": -0.20989,
				"method": "rhf"
			},
			{
				"type": "unocc",
				"energy": -0.04927,
				"method": "rhf"
			},
			{
				"type": "unocc",
				"energy": -0.02448,
				"method": "rhf"
			},
			{
				"type": "unocc",
				"energy": -0.00672,
				"method": "rhf"
			},
			{
				"type": "unocc",
				"energy": 0.01094,
				"method": "rhf"
			},
			{
				"type": "unocc",
				"energy": 0.04706,
				"method": "rhf"
			}
		],
		"cosmo_sigma_profile": { 
			"-0.025": 0.0,
			"-0.024": 0.0,
			"-0.023": 0.0,
			"-0.022": 0.0,
			"-0.021": 0.0,
			"-0.02": 0.0,
			"-0.019": 0.0250437721522,
			"-0.018": 0.678918763501,
			"-0.017": 0.968385342761,
			"-0.016": 0.973173311633,
			"-0.015": 1.76119604085,
			"-0.014": 2.01623139793,
			"-0.013": 4.16995490815,
			"-0.012": 2.74666287987,
			"-0.011": 4.06908200123,
			"-0.01": 4.03567430478,
			"-0.009": 3.11275723241,
			"-0.008": 3.7743934141,
			"-0.007": 7.14368840818,
			"-0.006": 15.5924473418,
			"-0.005": 14.0267418559,
			"-0.004": 14.7860791337,
			"-0.003": 14.7540008309,
			"-0.002": 14.5543231226,
			"-0.001": 13.8981287768,
			"0.0": 12.4854504503,
			"0.001": 15.0579301807,
			"0.002": 19.5419246603,
			"0.003": 24.4075209947,
			"0.004": 15.9826321585,
			"0.005": 8.54016723451,
			"0.006": 6.2321024903,
			"0.007": 4.61271959148,
			"0.008": 4.4632402314,
			"0.009": 5.54390010078,
			"0.01": 6.56542865895,
			"0.011": 6.88204796108,
			"0.012": 6.39283690862,
			"0.013": 3.07934424056,
			"0.014": 0.921368398951,
			"0.015": 1.04134210561,
			"0.016": 0.461386302085,
			"0.017": 0.0,
			"0.018": 0.0,
			"0.019": 0.0,
			"0.02": 0.0,
			"0.021": 0.0,
			"0.022": 0.0,
			"0.023": 0.0,
			"0.024": 0.0,
			"0.025": 0.0
		}
	}
}
