{
	 "smiles": "CCN1C(=O)NC(C)C1=O", 
	 "Tm": 325.15, 
	 "num_atms": 20, 
	 "gaussian": { 
		 "optdone": 1, 
		 "sigma_profile": "yes", 
		 "theory": "DFT", 
		 "functional": "B3LYP", 
		 "basiset": "6-31G**", 
		 "properties": { 
			 "R2extent": 1508.2603, 
			 "electric_dipole_moment_norm": 2.04403581671, 
			 "electric_quadrupole_moment_norm": 14.4398912929, 
			 "total_energy": -494.668859449, 
			 "HOMO_LUMO_gap": 0.25272, 
			 "cosmo_polarized_energy": -13.47, 
			 "cosmo_cavitation_energy": 23.58, 
			 "cosmo_dispersion_energy": -16.84, 
			 "cosmo_repulsion_energy": 1.4, 
			 "cosmo_total_nonelectrostatic_energy": 8.14, 
			 "SMD_solvation_energy": 5.0 
		},
		"coords": [
			{
				"x": 2.1620772909,
				"y": -0.7622329947,
				"z": -2.2104472481,
				"element": "C" 
			},
			{
				"x": 1.9537560579,
				"y": 0.1931594483,
				"z": -1.0342753605,
				"element": "C" 
			},
			{
				"x": 0.6366333071,
				"y": 0.0523555217,
				"z": -0.4211247278,
				"element": "N" 
			},
			{
				"x": 0.3596100511,
				"y": -0.8876267526,
				"z": 0.5976606377,
				"element": "C" 
			},
			{
				"x": 1.1774206784,
				"y": -1.6143185912,
				"z": 1.1267834434,
				"element": "O" 
			},
			{
				"x": -0.9901693825,
				"y": -0.8044166558,
				"z": 0.8394527227,
				"element": "N" 
			},
			{
				"x": -1.6319391014,
				"y": 0.281049396,
				"z": 0.1111494175,
				"element": "C" 
			},
			{
				"x": -2.8615448409,
				"y": -0.1319873301,
				"z": -0.6983666131,
				"element": "C" 
			},
			{
				"x": -0.4828862327,
				"y": 0.7682948371,
				"z": -0.7878719289,
				"element": "C" 
			},
			{
				"x": -0.5513109044,
				"y": 1.6196105667,
				"z": -1.653219989,
				"element": "O" 
			},
			{
				"x": 3.1601635889,
				"y": -0.6192254427,
				"z": -2.6365962454,
				"element": "H" 
			},
			{
				"x": 1.424851382,
				"y": -0.5767499962,
				"z": -2.9968766704,
				"element": "H" 
			},
			{
				"x": 2.0764957502,
				"y": -1.8020742364,
				"z": -1.8825466136,
				"element": "H" 
			},
			{
				"x": 2.0377246256,
				"y": 1.2335239084,
				"z": -1.3584154978,
				"element": "H" 
			},
			{
				"x": 2.6897530234,
				"y": 0.0054563789,
				"z": -0.2486140382,
				"element": "H" 
			},
			{
				"x": -1.3700274628,
				"y": -1.2344260809,
				"z": 1.6683920987,
				"element": "H" 
			},
			{
				"x": -1.8955568454,
				"y": 1.1104661142,
				"z": 0.784003699,
				"element": "H" 
			},
			{
				"x": -3.1925411269,
				"y": 0.7122200113,
				"z": -1.3087222088,
				"element": "H" 
			},
			{
				"x": -2.6229336252,
				"y": -0.9710668391,
				"z": -1.357826147,
				"element": "H" 
			},
			{
				"x": -3.6813762335,
				"y": -0.4309112628,
				"z": -0.0384387305,
				"element": "H" 
			}
		],
		 "valence_orbital": [ 
			{
				"type": "occ",
				"energy": -0.35621,
				"method": "rhf"
			},
			{
				"type": "occ",
				"energy": -0.28713,
				"method": "rhf"
			},
			{
				"type": "occ",
				"energy": -0.27456,
				"method": "rhf"
			},
			{
				"type": "occ",
				"energy": -0.26514,
				"method": "rhf"
			},
			{
				"type": "occ",
				"energy": -0.26018,
				"method": "rhf"
			},
			{
				"type": "unocc",
				"energy": -0.00746,
				"method": "rhf"
			},
			{
				"type": "unocc",
				"energy": 0.0567,
				"method": "rhf"
			},
			{
				"type": "unocc",
				"energy": 0.08141,
				"method": "rhf"
			},
			{
				"type": "unocc",
				"energy": 0.10617,
				"method": "rhf"
			},
			{
				"type": "unocc",
				"energy": 0.11808,
				"method": "rhf"
			}
		],
		"cosmo_sigma_profile": { 
			"-0.025": 0.0,
			"-0.024": 0.0,
			"-0.023": 0.0,
			"-0.022": 0.0,
			"-0.021": 0.0,
			"-0.02": 0.0,
			"-0.019": 0.0,
			"-0.018": 0.0,
			"-0.017": 0.0,
			"-0.016": 0.0,
			"-0.015": 1.30477992451,
			"-0.014": 1.14435555338,
			"-0.013": 1.01436336118,
			"-0.012": 1.16418387944,
			"-0.011": 1.52279759624,
			"-0.01": 0.626388909327,
			"-0.009": 0.725968732126,
			"-0.008": 1.90796757903,
			"-0.007": 5.42858423155,
			"-0.006": 5.93241117027,
			"-0.005": 11.367823019,
			"-0.004": 16.6542963615,
			"-0.003": 21.3081261809,
			"-0.002": 21.9261681041,
			"-0.001": 18.9908135452,
			"0.0": 15.3087539505,
			"0.001": 7.27043855555,
			"0.002": 4.57918789899,
			"0.003": 4.46633712637,
			"0.004": 4.42105165116,
			"0.005": 3.01498916008,
			"0.006": 2.49012904425,
			"0.007": 2.67897851608,
			"0.008": 2.80844482114,
			"0.009": 2.97816303212,
			"0.01": 3.09444509826,
			"0.011": 4.13681773962,
			"0.012": 8.28008814847,
			"0.013": 7.73834191659,
			"0.014": 0.715966535115,
			"0.015": 0.0,
			"0.016": 0.0,
			"0.017": 0.0,
			"0.018": 0.0,
			"0.019": 0.0,
			"0.02": 0.0,
			"0.021": 0.0,
			"0.022": 0.0,
			"0.023": 0.0,
			"0.024": 0.0,
			"0.025": 0.0
		}
	}
}
