{
	 "smiles": "CC1=C(CCO)C(=O)N2N=CN=C2N1", 
	 "Tm": 541.15, 
	 "num_atms": 24, 
	 "gaussian": { 
		 "optdone": 1, 
		 "sigma_profile": "yes", 
		 "theory": "DFT", 
		 "functional": "B3LYP", 
		 "basiset": "6-31G**", 
		 "properties": { 
			 "R2extent": 3313.5692, 
			 "electric_dipole_moment_norm": 5.70077326071, 
			 "electric_quadrupole_moment_norm": 16.4111838156, 
			 "total_energy": -680.323492483, 
			 "HOMO_LUMO_gap": 0.19314, 
			 "cosmo_polarized_energy": -22.74, 
			 "cosmo_cavitation_energy": 27.57, 
			 "cosmo_dispersion_energy": -20.47, 
			 "cosmo_repulsion_energy": 1.6, 
			 "cosmo_total_nonelectrostatic_energy": 8.7, 
			 "SMD_solvation_energy": 2.77 
		},
		"coords": [
			{
				"x": 1.1648727219,
				"y": -1.1450775995,
				"z": 0.232605491,
				"element": "C" 
			},
			{
				"x": -0.1989727407,
				"y": -0.5246815185,
				"z": 0.0855173118,
				"element": "C" 
			},
			{
				"x": -0.6160240436,
				"y": 0.1686411385,
				"z": -1.0205055411,
				"element": "C" 
			},
			{
				"x": 0.2615838412,
				"y": 0.3959510374,
				"z": -2.2291691027,
				"element": "C" 
			},
			{
				"x": 1.0130255974,
				"y": 1.7282507586,
				"z": -2.2018870236,
				"element": "C" 
			},
			{
				"x": 1.9658771144,
				"y": 1.687092747,
				"z": -1.1400517121,
				"element": "O" 
			},
			{
				"x": -1.9501449958,
				"y": 0.7705131346,
				"z": -1.0993702627,
				"element": "C" 
			},
			{
				"x": -2.3847202614,
				"y": 1.4235191289,
				"z": -2.0310269275,
				"element": "O" 
			},
			{
				"x": -2.7340789316,
				"y": 0.5158075127,
				"z": 0.0630422085,
				"element": "N" 
			},
			{
				"x": -4.0191837923,
				"y": 0.9385275069,
				"z": 0.2842932884,
				"element": "N" 
			},
			{
				"x": -4.2583025325,
				"y": 0.44981185,
				"z": 1.488170363,
				"element": "C" 
			},
			{
				"x": -3.2442249033,
				"y": -0.2562876987,
				"z": 2.0826070386,
				"element": "N" 
			},
			{
				"x": -2.3114430948,
				"y": -0.1886146974,
				"z": 1.1541707638,
				"element": "C" 
			},
			{
				"x": -1.0493739858,
				"y": -0.70428133,
				"z": 1.1586823818,
				"element": "N" 
			},
			{
				"x": 1.9314222911,
				"y": -0.4238767703,
				"z": -0.0558106425,
				"element": "H" 
			},
			{
				"x": 1.2635750064,
				"y": -2.0287772912,
				"z": -0.4078432336,
				"element": "H" 
			},
			{
				"x": 1.3486544571,
				"y": -1.4585737516,
				"z": 1.2645423435,
				"element": "H" 
			},
			{
				"x": -0.3781754187,
				"y": 0.3968234668,
				"z": -3.1170020196,
				"element": "H" 
			},
			{
				"x": 0.988339928,
				"y": -0.4140286375,
				"z": -2.3453972193,
				"element": "H" 
			},
			{
				"x": 0.2933692366,
				"y": 2.5466216372,
				"z": -2.0633663801,
				"element": "H" 
			},
			{
				"x": 1.5130338029,
				"y": 1.8786606372,
				"z": -3.1713329589,
				"element": "H" 
			},
			{
				"x": 2.3416534911,
				"y": 2.5692250051,
				"z": -1.0344966977,
				"element": "H" 
			},
			{
				"x": -5.2122733328,
				"y": 0.6049562995,
				"z": 1.9736183342,
				"element": "H" 
			},
			{
				"x": -0.7522894549,
				"y": -1.2075025657,
				"z": 1.9817101969,
				"element": "H" 
			}
		],
		 "valence_orbital": [ 
			{
				"type": "occ",
				"energy": -0.28687,
				"method": "rhf"
			},
			{
				"type": "occ",
				"energy": -0.27764,
				"method": "rhf"
			},
			{
				"type": "occ",
				"energy": -0.26894,
				"method": "rhf"
			},
			{
				"type": "occ",
				"energy": -0.26054,
				"method": "rhf"
			},
			{
				"type": "occ",
				"energy": -0.22826,
				"method": "rhf"
			},
			{
				"type": "unocc",
				"energy": -0.03512,
				"method": "rhf"
			},
			{
				"type": "unocc",
				"energy": -0.00595,
				"method": "rhf"
			},
			{
				"type": "unocc",
				"energy": 0.05386,
				"method": "rhf"
			},
			{
				"type": "unocc",
				"energy": 0.05469,
				"method": "rhf"
			},
			{
				"type": "unocc",
				"energy": 0.06901,
				"method": "rhf"
			}
		],
		"cosmo_sigma_profile": { 
			"-0.025": 0.0,
			"-0.024": 0.0,
			"-0.023": 0.0,
			"-0.022": 0.0,
			"-0.021": 0.0,
			"-0.02": 0.0,
			"-0.019": 0.0,
			"-0.018": 0.34356602738,
			"-0.017": 1.44529166455,
			"-0.016": 1.55295038205,
			"-0.015": 1.8487769892,
			"-0.014": 2.05832312921,
			"-0.013": 3.40589312241,
			"-0.012": 1.59784496443,
			"-0.011": 1.48810530713,
			"-0.01": 2.75800279839,
			"-0.009": 3.99562038196,
			"-0.008": 3.01294862702,
			"-0.007": 4.49771156449,
			"-0.006": 7.16912762348,
			"-0.005": 11.2792797475,
			"-0.004": 17.170694133,
			"-0.003": 21.4575841978,
			"-0.002": 22.8582795395,
			"-0.001": 16.2263564761,
			"0.0": 12.2786626992,
			"0.001": 9.37634468702,
			"0.002": 6.22517286493,
			"0.003": 5.77167656013,
			"0.004": 5.99730613448,
			"0.005": 4.6011175218,
			"0.006": 5.93017073995,
			"0.007": 6.05759324143,
			"0.008": 4.26938163957,
			"0.009": 4.76976877675,
			"0.01": 4.90620787445,
			"0.011": 4.92640168778,
			"0.012": 6.62902885136,
			"0.013": 5.25653718204,
			"0.014": 3.86320554885,
			"0.015": 3.24267799131,
			"0.016": 0.54714362933,
			"0.017": 0.0,
			"0.018": 0.0,
			"0.019": 0.0,
			"0.02": 0.0,
			"0.021": 0.0,
			"0.022": 0.0,
			"0.023": 0.0,
			"0.024": 0.0,
			"0.025": 0.0
		}
	}
}
