{
	 "smiles": "COC(=O)C1=CN=C(SC)N=C1", 
	 "Tm": 369.65, 
	 "num_atms": 20, 
	 "gaussian": { 
		 "optdone": 1, 
		 "sigma_profile": "yes", 
		 "theory": "DFT", 
		 "functional": "B3LYP", 
		 "basiset": "6-31G**", 
		 "properties": { 
			 "R2extent": 3512.3244, 
			 "electric_dipole_moment_norm": 1.10948942311, 
			 "electric_quadrupole_moment_norm": 22.05524348, 
			 "total_energy": -929.709092321, 
			 "HOMO_LUMO_gap": 0.17389, 
			 "cosmo_polarized_energy": -9.68, 
			 "cosmo_cavitation_energy": 26.73, 
			 "cosmo_dispersion_energy": -20.22, 
			 "cosmo_repulsion_energy": 1.57, 
			 "cosmo_total_nonelectrostatic_energy": 8.09, 
			 "SMD_solvation_energy": 3.98 
		},
		"coords": [
			{
				"x": -2.0408658206,
				"y": -3.7676135859,
				"z": -0.7044094509,
				"element": "C" 
			},
			{
				"x": -1.470227566,
				"y": -2.71734309,
				"z": 0.0944073993,
				"element": "O" 
			},
			{
				"x": -1.1553306267,
				"y": -1.588085451,
				"z": -0.5772206563,
				"element": "C" 
			},
			{
				"x": -1.3313747867,
				"y": -1.4420679671,
				"z": -1.7710875907,
				"element": "O" 
			},
			{
				"x": -0.5745037742,
				"y": -0.5547734345,
				"z": 0.3126793721,
				"element": "C" 
			},
			{
				"x": -0.3703134684,
				"y": -0.7183785515,
				"z": 1.6911842061,
				"element": "C" 
			},
			{
				"x": 0.1546660478,
				"y": 0.236440478,
				"z": 2.4532674995,
				"element": "N" 
			},
			{
				"x": 0.4835156905,
				"y": 1.3807190219,
				"z": 1.8264916811,
				"element": "C" 
			},
			{
				"x": 1.1743037662,
				"y": 2.602308294,
				"z": 2.8953637507,
				"element": "S" 
			},
			{
				"x": 1.4899590825,
				"y": 3.9731528248,
				"z": 1.7338316213,
				"element": "C" 
			},
			{
				"x": 0.3368686666,
				"y": 1.6535792094,
				"z": 0.5210663563,
				"element": "N" 
			},
			{
				"x": -0.1918025263,
				"y": 0.6797418507,
				"z": -0.2212286046,
				"element": "C" 
			},
			{
				"x": -2.9708169639,
				"y": -3.4327987779,
				"z": -1.1703217075,
				"element": "H" 
			},
			{
				"x": -1.3440398878,
				"y": -4.0750537387,
				"z": -1.4879221767,
				"element": "H" 
			},
			{
				"x": -2.2308298701,
				"y": -4.5896887708,
				"z": -0.0149417055,
				"element": "H" 
			},
			{
				"x": -0.6408377237,
				"y": -1.6483614021,
				"z": 2.184591774,
				"element": "H" 
			},
			{
				"x": 1.9239706327,
				"y": 4.7747106808,
				"z": 2.3354473835,
				"element": "H" 
			},
			{
				"x": 0.5614490729,
				"y": 4.3123810003,
				"z": 1.2742126143,
				"element": "H" 
			},
			{
				"x": 2.1911695467,
				"y": 3.6681696072,
				"z": 0.9568232546,
				"element": "H" 
			},
			{
				"x": -0.3226594913,
				"y": 0.8728618024,
				"z": -1.2835350206,
				"element": "H" 
			}
		],
		 "valence_orbital": [ 
			{
				"type": "occ",
				"energy": -0.31342,
				"method": "rhf"
			},
			{
				"type": "occ",
				"energy": -0.31058,
				"method": "rhf"
			},
			{
				"type": "occ",
				"energy": -0.28375,
				"method": "rhf"
			},
			{
				"type": "occ",
				"energy": -0.2626,
				"method": "rhf"
			},
			{
				"type": "occ",
				"energy": -0.23705,
				"method": "rhf"
			},
			{
				"type": "unocc",
				"energy": -0.06316,
				"method": "rhf"
			},
			{
				"type": "unocc",
				"energy": -0.04944,
				"method": "rhf"
			},
			{
				"type": "unocc",
				"energy": 0.03311,
				"method": "rhf"
			},
			{
				"type": "unocc",
				"energy": 0.03339,
				"method": "rhf"
			},
			{
				"type": "unocc",
				"energy": 0.08583,
				"method": "rhf"
			}
		],
		"cosmo_sigma_profile": { 
			"-0.025": 0.0,
			"-0.024": 0.0,
			"-0.023": 0.0,
			"-0.022": 0.0,
			"-0.021": 0.0,
			"-0.02": 0.0,
			"-0.019": 0.0,
			"-0.018": 0.0,
			"-0.017": 0.0,
			"-0.016": 0.0,
			"-0.015": 0.0,
			"-0.014": 0.0,
			"-0.013": 0.0,
			"-0.012": 0.0,
			"-0.011": 0.0,
			"-0.01": 0.0,
			"-0.009": 0.109457154499,
			"-0.008": 2.37720408879,
			"-0.007": 6.14196333774,
			"-0.006": 11.9007849013,
			"-0.005": 15.0666204303,
			"-0.004": 20.1996712448,
			"-0.003": 25.8073525697,
			"-0.002": 25.3206078004,
			"-0.001": 15.1063067429,
			"0.0": 11.4489158778,
			"0.001": 10.5009749826,
			"0.002": 8.68598229262,
			"0.003": 9.51635490326,
			"0.004": 10.5765610492,
			"0.005": 10.1862146553,
			"0.006": 7.95407181593,
			"0.007": 5.73297213007,
			"0.008": 2.46462192473,
			"0.009": 4.29663072718,
			"0.01": 3.54248311437,
			"0.011": 5.16448792686,
			"0.012": 3.01934805325,
			"0.013": 0.558443174571,
			"0.014": 0.26649774986,
			"0.015": 0.0,
			"0.016": 0.0,
			"0.017": 0.0,
			"0.018": 0.0,
			"0.019": 0.0,
			"0.02": 0.0,
			"0.021": 0.0,
			"0.022": 0.0,
			"0.023": 0.0,
			"0.024": 0.0,
			"0.025": 0.0
		}
	}
}
