{
	 "smiles": "COC(=O)C1CC(C2=CC=CC=C12)C1=CC=CC=C1", 
	 "Tm": 364.15, 
	 "num_atms": 35, 
	 "gaussian": { 
		 "optdone": 1, 
		 "sigma_profile": "yes", 
		 "theory": "DFT", 
		 "functional": "B3LYP", 
		 "basiset": "6-31G**", 
		 "properties": { 
			 "R2extent": 5557.3551, 
			 "electric_dipole_moment_norm": 1.76845472094, 
			 "electric_quadrupole_moment_norm": 10.3326424452, 
			 "total_energy": -807.916730169, 
			 "HOMO_LUMO_gap": 0.22725, 
			 "cosmo_polarized_energy": -9.48, 
			 "cosmo_cavitation_energy": 37.91, 
			 "cosmo_dispersion_energy": -26.39, 
			 "cosmo_repulsion_energy": 2.05, 
			 "cosmo_total_nonelectrostatic_energy": 13.57, 
			 "SMD_solvation_energy": 7.43 
		},
		"coords": [
			{
				"x": -3.7060231333,
				"y": 2.4940658001,
				"z": 2.6537748101,
				"element": "C" 
			},
			{
				"x": -2.6662602768,
				"y": 2.1337442719,
				"z": 1.7284694124,
				"element": "O" 
			},
			{
				"x": -1.8393604892,
				"y": 1.1528287096,
				"z": 2.1455551622,
				"element": "C" 
			},
			{
				"x": -1.9456071114,
				"y": 0.6103688474,
				"z": 3.2267944453,
				"element": "O" 
			},
			{
				"x": -0.7886618221,
				"y": 0.7647844479,
				"z": 1.1170759585,
				"element": "C" 
			},
			{
				"x": -0.5405656341,
				"y": 1.7404856428,
				"z": -0.058358326,
				"element": "C" 
			},
			{
				"x": -0.1092035405,
				"y": 0.8514243732,
				"z": -1.271481452,
				"element": "C" 
			},
			{
				"x": -0.7588275503,
				"y": -0.4803957917,
				"z": -0.9377433033,
				"element": "C" 
			},
			{
				"x": -0.9695452954,
				"y": -1.5760757841,
				"z": -1.7749460539,
				"element": "C" 
			},
			{
				"x": -1.574752201,
				"y": -2.7236970257,
				"z": -1.2554685878,
				"element": "C" 
			},
			{
				"x": -1.9527281454,
				"y": -2.779091018,
				"z": 0.0903604639,
				"element": "C" 
			},
			{
				"x": -1.7342359589,
				"y": -1.6870050542,
				"z": 0.9350100093,
				"element": "C" 
			},
			{
				"x": -1.1426888732,
				"y": -0.5405307503,
				"z": 0.4067551039,
				"element": "C" 
			},
			{
				"x": 1.4048666956,
				"y": 0.7844209072,
				"z": -1.4566389988,
				"element": "C" 
			},
			{
				"x": 2.2074171792,
				"y": -0.1129849113,
				"z": -0.7381817836,
				"element": "C" 
			},
			{
				"x": 3.5948659478,
				"y": -0.1119287929,
				"z": -0.8917789601,
				"element": "C" 
			},
			{
				"x": 4.2063077734,
				"y": 0.7832361671,
				"z": -1.7710360461,
				"element": "C" 
			},
			{
				"x": 3.4180626654,
				"y": 1.677311293,
				"z": -2.497660526,
				"element": "C" 
			},
			{
				"x": 2.0317158152,
				"y": 1.6746362683,
				"z": -2.3400381315,
				"element": "C" 
			},
			{
				"x": -4.3574870128,
				"y": 1.6389215039,
				"z": 2.8498722891,
				"element": "H" 
			},
			{
				"x": -4.2624245579,
				"y": 3.2981002941,
				"z": 2.1723723782,
				"element": "H" 
			},
			{
				"x": -3.2774591476,
				"y": 2.8339351933,
				"z": 3.5996178429,
				"element": "H" 
			},
			{
				"x": 0.1283020656,
				"y": 0.609744267,
				"z": 1.7006357501,
				"element": "H" 
			},
			{
				"x": 0.2016986108,
				"y": 2.5055874433,
				"z": 0.1817693478,
				"element": "H" 
			},
			{
				"x": -1.4775560882,
				"y": 2.2464939557,
				"z": -0.3012567351,
				"element": "H" 
			},
			{
				"x": -0.5301174455,
				"y": 1.2680087968,
				"z": -2.1941626977,
				"element": "H" 
			},
			{
				"x": -0.6681880371,
				"y": -1.5385336706,
				"z": -2.8185554105,
				"element": "H" 
			},
			{
				"x": -1.75210251,
				"y": -3.5791861643,
				"z": -1.9011826691,
				"element": "H" 
			},
			{
				"x": -2.421059262,
				"y": -3.6774342803,
				"z": 0.482558011,
				"element": "H" 
			},
			{
				"x": -2.0228562832,
				"y": -1.7214445589,
				"z": 1.9811897812,
				"element": "H" 
			},
			{
				"x": 1.7433025261,
				"y": -0.8276719616,
				"z": -0.0648420499,
				"element": "H" 
			},
			{
				"x": 4.1981274961,
				"y": -0.8169942137,
				"z": -0.3264029284,
				"element": "H" 
			},
			{
				"x": 5.2856324058,
				"y": 0.7801184136,
				"z": -1.8933763286,
				"element": "H" 
			},
			{
				"x": 3.8810682887,
				"y": 2.373799707,
				"z": -3.1913726225,
				"element": "H" 
			},
			{
				"x": 1.4244429064,
				"y": 2.3728576743,
				"z": -2.9119271548,
				"element": "H" 
			}
		],
		 "valence_orbital": [ 
			{
				"type": "occ",
				"energy": -0.27093,
				"method": "rhf"
			},
			{
				"type": "occ",
				"energy": -0.24965,
				"method": "rhf"
			},
			{
				"type": "occ",
				"energy": -0.24578,
				"method": "rhf"
			},
			{
				"type": "occ",
				"energy": -0.2396,
				"method": "rhf"
			},
			{
				"type": "occ",
				"energy": -0.23391,
				"method": "rhf"
			},
			{
				"type": "unocc",
				"energy": -0.00666,
				"method": "rhf"
			},
			{
				"type": "unocc",
				"energy": -0.00558,
				"method": "rhf"
			},
			{
				"type": "unocc",
				"energy": 0.00109,
				"method": "rhf"
			},
			{
				"type": "unocc",
				"energy": 0.00445,
				"method": "rhf"
			},
			{
				"type": "unocc",
				"energy": 0.01808,
				"method": "rhf"
			}
		],
		"cosmo_sigma_profile": { 
			"-0.025": 0.0,
			"-0.024": 0.0,
			"-0.023": 0.0,
			"-0.022": 0.0,
			"-0.021": 0.0,
			"-0.02": 0.0,
			"-0.019": 0.0,
			"-0.018": 0.0,
			"-0.017": 0.0,
			"-0.016": 0.0,
			"-0.015": 0.0,
			"-0.014": 0.0,
			"-0.013": 0.0,
			"-0.012": 0.0,
			"-0.011": 0.0,
			"-0.01": 0.0,
			"-0.009": 0.0,
			"-0.008": 0.0,
			"-0.007": 0.620702978461,
			"-0.006": 9.75808960626,
			"-0.005": 25.9223872864,
			"-0.004": 35.5489447255,
			"-0.003": 38.666802619,
			"-0.002": 25.2134570646,
			"-0.001": 22.40502024,
			"0.0": 20.2175514388,
			"0.001": 18.2292347056,
			"0.002": 18.0272647994,
			"0.003": 17.9560012628,
			"0.004": 18.8313834709,
			"0.005": 18.7778832567,
			"0.006": 16.0596981765,
			"0.007": 2.96728911155,
			"0.008": 1.76387723677,
			"0.009": 1.40414224822,
			"0.01": 1.38176928079,
			"0.011": 2.5869873019,
			"0.012": 4.05456629916,
			"0.013": 0.918969565602,
			"0.014": 0.0,
			"0.015": 0.0,
			"0.016": 0.0,
			"0.017": 0.0,
			"0.018": 0.0,
			"0.019": 0.0,
			"0.02": 0.0,
			"0.021": 0.0,
			"0.022": 0.0,
			"0.023": 0.0,
			"0.024": 0.0,
			"0.025": 0.0
		}
	}
}
