{
	 "smiles": "CCCCN1C(=O)NC(=O)C(NCC2=CC=CC=C2)=C1N", 
	 "Tm": 481.15, 
	 "num_atms": 41, 
	 "gaussian": { 
		 "optdone": 1, 
		 "sigma_profile": "yes", 
		 "theory": "DFT", 
		 "functional": "B3LYP", 
		 "basiset": "6-31G**", 
		 "properties": { 
			 "R2extent": 8588.1704, 
			 "electric_dipole_moment_norm": 4.74662904491, 
			 "electric_quadrupole_moment_norm": 9.86386220048, 
			 "total_energy": -953.152989521, 
			 "HOMO_LUMO_gap": 0.20212, 
			 "cosmo_polarized_energy": -20.21, 
			 "cosmo_cavitation_energy": 43.18, 
			 "cosmo_dispersion_energy": -29.74, 
			 "cosmo_repulsion_energy": 2.29, 
			 "cosmo_total_nonelectrostatic_energy": 15.74, 
			 "SMD_solvation_energy": 7.95 
		},
		"coords": [
			{
				"x": -2.7727689213,
				"y": 1.2260578206,
				"z": -2.0786050183,
				"element": "C" 
			},
			{
				"x": -3.2422748352,
				"y": -0.1336222475,
				"z": -2.6122905547,
				"element": "C" 
			},
			{
				"x": -3.9260584802,
				"y": -1.0458396689,
				"z": -1.5756319785,
				"element": "C" 
			},
			{
				"x": -3.0183163421,
				"y": -1.8885972438,
				"z": -0.6663989398,
				"element": "C" 
			},
			{
				"x": -2.1711445654,
				"y": -1.1260503187,
				"z": 0.273553274,
				"element": "N" 
			},
			{
				"x": -2.8388286666,
				"y": -0.6383769042,
				"z": 1.4109107637,
				"element": "C" 
			},
			{
				"x": -4.0166710602,
				"y": -0.8857492352,
				"z": 1.625469981,
				"element": "O" 
			},
			{
				"x": -2.0717696642,
				"y": 0.1408927819,
				"z": 2.2457942469,
				"element": "N" 
			},
			{
				"x": -0.7084986694,
				"y": 0.4774841631,
				"z": 2.1078948784,
				"element": "C" 
			},
			{
				"x": -0.1673238923,
				"y": 1.1992988664,
				"z": 2.9415217582,
				"element": "O" 
			},
			{
				"x": -0.0840656683,
				"y": -0.1079770083,
				"z": 0.9485227706,
				"element": "C" 
			},
			{
				"x": 1.3070546902,
				"y": 0.0804467328,
				"z": 0.6729088524,
				"element": "N" 
			},
			{
				"x": 2.2153875367,
				"y": -0.4879860229,
				"z": 1.7024071638,
				"element": "C" 
			},
			{
				"x": 3.6564937499,
				"y": -0.1748692634,
				"z": 1.3692146839,
				"element": "C" 
			},
			{
				"x": 4.3691810678,
				"y": 0.7735954404,
				"z": 2.1120490125,
				"element": "C" 
			},
			{
				"x": 5.694017091,
				"y": 1.0825464329,
				"z": 1.7934311568,
				"element": "C" 
			},
			{
				"x": 6.3217381599,
				"y": 0.4456791176,
				"z": 0.7228498343,
				"element": "C" 
			},
			{
				"x": 5.6190606515,
				"y": -0.50087416,
				"z": -0.0283376318,
				"element": "C" 
			},
			{
				"x": 4.2973346853,
				"y": -0.8051275684,
				"z": 0.2931538635,
				"element": "C" 
			},
			{
				"x": -0.8247547765,
				"y": -0.8639087923,
				"z": 0.0604736906,
				"element": "C" 
			},
			{
				"x": -0.2366357338,
				"y": -1.3105699252,
				"z": -1.0956258941,
				"element": "N" 
			},
			{
				"x": -3.6058321974,
				"y": 1.7751686198,
				"z": -1.6251741802,
				"element": "H" 
			},
			{
				"x": -2.3735018782,
				"y": 1.8425991438,
				"z": -2.8907776286,
				"element": "H" 
			},
			{
				"x": -1.9863417557,
				"y": 1.1315846576,
				"z": -1.3257301675,
				"element": "H" 
			},
			{
				"x": -2.3966750805,
				"y": -0.6620690004,
				"z": -3.071355687,
				"element": "H" 
			},
			{
				"x": -3.9607116259,
				"y": 0.0465202749,
				"z": -3.4217557922,
				"element": "H" 
			},
			{
				"x": -4.5588678753,
				"y": -1.7719587553,
				"z": -2.1029622067,
				"element": "H" 
			},
			{
				"x": -4.6004474211,
				"y": -0.4616787251,
				"z": -0.9402084221,
				"element": "H" 
			},
			{
				"x": -3.644969564,
				"y": -2.534849063,
				"z": -0.0491737122,
				"element": "H" 
			},
			{
				"x": -2.3776149611,
				"y": -2.535889962,
				"z": -1.2681331964,
				"element": "H" 
			},
			{
				"x": -2.5510552843,
				"y": 0.5137985476,
				"z": 3.0559095546,
				"element": "H" 
			},
			{
				"x": 1.5098063855,
				"y": 1.0752384612,
				"z": 0.5922551797,
				"element": "H" 
			},
			{
				"x": 2.0536560599,
				"y": -1.5726548052,
				"z": 1.708848515,
				"element": "H" 
			},
			{
				"x": 1.9699426991,
				"y": -0.1088099875,
				"z": 2.7015501595,
				"element": "H" 
			},
			{
				"x": 3.8817130486,
				"y": 1.2705887454,
				"z": 2.9471620237,
				"element": "H" 
			},
			{
				"x": 6.2337134176,
				"y": 1.8189498771,
				"z": 2.3822483061,
				"element": "H" 
			},
			{
				"x": 7.352550822,
				"y": 0.6822988683,
				"z": 0.4747181699,
				"element": "H" 
			},
			{
				"x": 6.1036784857,
				"y": -1.0023650438,
				"z": -0.8615887215,
				"element": "H" 
			},
			{
				"x": 3.7526919904,
				"y": -1.5416985127,
				"z": -0.2925930789,
				"element": "H" 
			},
			{
				"x": -0.4969611158,
				"y": -2.214351144,
				"z": -1.4585912992,
				"element": "H" 
			},
			{
				"x": 0.7605694935,
				"y": -1.1119751938,
				"z": -1.0716137294,
				"element": "H" 
			}
		],
		 "valence_orbital": [ 
			{
				"type": "occ",
				"energy": -0.26038,
				"method": "rhf"
			},
			{
				"type": "occ",
				"energy": -0.24944,
				"method": "rhf"
			},
			{
				"type": "occ",
				"energy": -0.24589,
				"method": "rhf"
			},
			{
				"type": "occ",
				"energy": -0.23684,
				"method": "rhf"
			},
			{
				"type": "occ",
				"energy": -0.21482,
				"method": "rhf"
			},
			{
				"type": "unocc",
				"energy": -0.0127,
				"method": "rhf"
			},
			{
				"type": "unocc",
				"energy": -0.00447,
				"method": "rhf"
			},
			{
				"type": "unocc",
				"energy": 0.00081,
				"method": "rhf"
			},
			{
				"type": "unocc",
				"energy": 0.01877,
				"method": "rhf"
			},
			{
				"type": "unocc",
				"energy": 0.05277,
				"method": "rhf"
			}
		],
		"cosmo_sigma_profile": { 
			"-0.025": 0.0,
			"-0.024": 0.0,
			"-0.023": 0.0,
			"-0.022": 0.0,
			"-0.021": 0.0,
			"-0.02": 0.0,
			"-0.019": 0.0,
			"-0.018": 0.0,
			"-0.017": 0.0,
			"-0.016": 0.0511188622278,
			"-0.015": 1.73029862389,
			"-0.014": 1.89658724794,
			"-0.013": 2.12666773083,
			"-0.012": 2.94522956172,
			"-0.011": 1.01009574525,
			"-0.01": 3.96144715104,
			"-0.009": 3.66319760147,
			"-0.008": 4.02467175662,
			"-0.007": 3.70974748392,
			"-0.006": 6.93865166966,
			"-0.005": 16.8646170408,
			"-0.004": 22.5039725576,
			"-0.003": 32.248081626,
			"-0.002": 36.0036276616,
			"-0.001": 35.5784191211,
			"0.0": 34.4827170572,
			"0.001": 26.724950563,
			"0.002": 16.990639664,
			"0.003": 11.3281417251,
			"0.004": 13.5300976031,
			"0.005": 12.8950323006,
			"0.006": 13.3923764386,
			"0.007": 5.87991237781,
			"0.008": 3.35121484142,
			"0.009": 1.97549847417,
			"0.01": 3.16960745145,
			"0.011": 2.77795299953,
			"0.012": 4.38491784949,
			"0.013": 7.27952102365,
			"0.014": 5.66251719949,
			"0.015": 0.810271640863,
			"0.016": 0.0,
			"0.017": 0.0,
			"0.018": 0.0,
			"0.019": 0.0,
			"0.02": 0.0,
			"0.021": 0.0,
			"0.022": 0.0,
			"0.023": 0.0,
			"0.024": 0.0,
			"0.025": 0.0
		}
	}
}
