{
	 "smiles": "CC1=CC=C(S1)S(N)(=O)=O", 
	 "Tm": 392.15, 
	 "num_atms": 17, 
	 "gaussian": { 
		 "optdone": 1, 
		 "sigma_profile": "yes", 
		 "theory": "DFT", 
		 "functional": "B3LYP", 
		 "basiset": "6-31G**", 
		 "properties": { 
			 "R2extent": 2772.1462, 
			 "electric_dipole_moment_norm": 6.51195739544, 
			 "electric_quadrupole_moment_norm": 22.1164127272, 
			 "total_energy": -1196.24011819, 
			 "HOMO_LUMO_gap": 0.20018, 
			 "cosmo_polarized_energy": -17.97, 
			 "cosmo_cavitation_energy": 24.18, 
			 "cosmo_dispersion_energy": -18.74, 
			 "cosmo_repulsion_energy": 1.44, 
			 "cosmo_total_nonelectrostatic_energy": 6.88, 
			 "SMD_solvation_energy": 3.65 
		},
		"coords": [
			{
				"x": -0.2637867838,
				"y": -1.5097850983,
				"z": 2.170526581,
				"element": "C" 
			},
			{
				"x": -0.6607929213,
				"y": -0.6338477835,
				"z": 1.0196113088,
				"element": "C" 
			},
			{
				"x": -1.621130028,
				"y": -0.8690833498,
				"z": 0.0670777885,
				"element": "C" 
			},
			{
				"x": -1.7553295737,
				"y": 0.1836981378,
				"z": -0.8826829425,
				"element": "C" 
			},
			{
				"x": -0.8869852464,
				"y": 1.2150553488,
				"z": -0.6398218621,
				"element": "C" 
			},
			{
				"x": 0.0972249521,
				"y": 0.9203775298,
				"z": 0.7701914862,
				"element": "S" 
			},
			{
				"x": -0.727096172,
				"y": 2.6895662377,
				"z": -1.6146957573,
				"element": "S" 
			},
			{
				"x": 0.5592837531,
				"y": 2.4527563086,
				"z": -2.6684231538,
				"element": "N" 
			},
			{
				"x": -0.3021298175,
				"y": 3.7618358023,
				"z": -0.7190203331,
				"element": "O" 
			},
			{
				"x": -1.9199285015,
				"y": 2.7603908074,
				"z": -2.4536905876,
				"element": "O" 
			},
			{
				"x": -0.8566127727,
				"y": -2.4280931494,
				"z": 2.1556406854,
				"element": "H" 
			},
			{
				"x": -0.4316200972,
				"y": -1.0157424185,
				"z": 3.1337295652,
				"element": "H" 
			},
			{
				"x": 0.7942376875,
				"y": -1.7901177068,
				"z": 2.123809395,
				"element": "H" 
			},
			{
				"x": -2.2226063854,
				"y": -1.7715264091,
				"z": 0.0536646613,
				"element": "H" 
			},
			{
				"x": -2.4648542607,
				"y": 0.1974104556,
				"z": -1.7011823886,
				"element": "H" 
			},
			{
				"x": 1.4521589223,
				"y": 2.3896956908,
				"z": -2.1894245672,
				"element": "H" 
			},
			{
				"x": 0.4003672452,
				"y": 1.6891095964,
				"z": -3.3181098791,
				"element": "H" 
			}
		],
		 "valence_orbital": [ 
			{
				"type": "occ",
				"energy": -0.31627,
				"method": "rhf"
			},
			{
				"type": "occ",
				"energy": -0.30908,
				"method": "rhf"
			},
			{
				"type": "occ",
				"energy": -0.30578,
				"method": "rhf"
			},
			{
				"type": "occ",
				"energy": -0.27185,
				"method": "rhf"
			},
			{
				"type": "occ",
				"energy": -0.24814,
				"method": "rhf"
			},
			{
				"type": "unocc",
				"energy": -0.04796,
				"method": "rhf"
			},
			{
				"type": "unocc",
				"energy": 0.00764,
				"method": "rhf"
			},
			{
				"type": "unocc",
				"energy": 0.03883,
				"method": "rhf"
			},
			{
				"type": "unocc",
				"energy": 0.05345,
				"method": "rhf"
			},
			{
				"type": "unocc",
				"energy": 0.05733,
				"method": "rhf"
			}
		],
		"cosmo_sigma_profile": { 
			"-0.025": 0.0,
			"-0.024": 0.0,
			"-0.023": 0.0,
			"-0.022": 0.0,
			"-0.021": 0.0,
			"-0.02": 0.0,
			"-0.019": 0.0,
			"-0.018": 0.0,
			"-0.017": 0.0,
			"-0.016": 0.153983250428,
			"-0.015": 2.15400101314,
			"-0.014": 2.50834771643,
			"-0.013": 2.66449232035,
			"-0.012": 3.33386778595,
			"-0.011": 2.61801770108,
			"-0.01": 1.93928331758,
			"-0.009": 1.61056681824,
			"-0.008": 3.04583817812,
			"-0.007": 5.39310064358,
			"-0.006": 9.32742658771,
			"-0.005": 13.1039619972,
			"-0.004": 12.4425146447,
			"-0.003": 11.3686562722,
			"-0.002": 11.4398532529,
			"-0.001": 12.4918711839,
			"0.0": 8.42660633963,
			"0.001": 11.7889448157,
			"0.002": 14.1014025848,
			"0.003": 13.8924050763,
			"0.004": 7.16813372609,
			"0.005": 2.68456273614,
			"0.006": 3.98808728763,
			"0.007": 4.15119054974,
			"0.008": 5.38122507062,
			"0.009": 3.76525977223,
			"0.01": 9.46661763828,
			"0.011": 10.7277047112,
			"0.012": 3.2367068355,
			"0.013": 0.114051771647,
			"0.014": 0.0,
			"0.015": 0.0,
			"0.016": 0.0,
			"0.017": 0.0,
			"0.018": 0.0,
			"0.019": 0.0,
			"0.02": 0.0,
			"0.021": 0.0,
			"0.022": 0.0,
			"0.023": 0.0,
			"0.024": 0.0,
			"0.025": 0.0
		}
	}
}
