{
	 "smiles": "NC1=C(C=CC(Cl)=C1)C(=O)N1CCCCC1", 
	 "Tm": 377.15, 
	 "num_atms": 31, 
	 "gaussian": { 
		 "optdone": 1, 
		 "sigma_profile": "yes", 
		 "theory": "DFT", 
		 "functional": "B3LYP", 
		 "basiset": "6-31G**", 
		 "properties": { 
			 "R2extent": 7760.0889, 
			 "electric_dipole_moment_norm": 3.00989749161, 
			 "electric_quadrupole_moment_norm": 15.2666601308, 
			 "total_energy": -1111.26469331, 
			 "HOMO_LUMO_gap": 0.1765, 
			 "cosmo_polarized_energy": -11.04, 
			 "cosmo_cavitation_energy": 33.97, 
			 "cosmo_dispersion_energy": -25.19, 
			 "cosmo_repulsion_energy": 1.98, 
			 "cosmo_total_nonelectrostatic_energy": 10.75, 
			 "SMD_solvation_energy": 4.35 
		},
		"coords": [
			{
				"x": 1.9945998675,
				"y": 2.9744435105,
				"z": 1.9656987885,
				"element": "N" 
			},
			{
				"x": 0.7748968851,
				"y": 3.4499132133,
				"z": 1.5398204591,
				"element": "C" 
			},
			{
				"x": -0.0853591171,
				"y": 2.6544269965,
				"z": 0.7290977489,
				"element": "C" 
			},
			{
				"x": -1.302190544,
				"y": 3.2004169624,
				"z": 0.2982498445,
				"element": "C" 
			},
			{
				"x": -1.7281850295,
				"y": 4.4703802379,
				"z": 0.6745202448,
				"element": "C" 
			},
			{
				"x": -0.8954829796,
				"y": 5.208341867,
				"z": 1.517550593,
				"element": "C" 
			},
			{
				"x": -1.4029477546,
				"y": 6.8116754467,
				"z": 2.03469203,
				"element": "Cl" 
			},
			{
				"x": 0.3309231092,
				"y": 4.724328035,
				"z": 1.9475673007,
				"element": "C" 
			},
			{
				"x": 0.3839284311,
				"y": 1.3122553875,
				"z": 0.258326394,
				"element": "C" 
			},
			{
				"x": 1.5778107362,
				"y": 1.1222614341,
				"z": -0.0243457009,
				"element": "O" 
			},
			{
				"x": -0.5238085733,
				"y": 0.2954365985,
				"z": 0.1034756993,
				"element": "N" 
			},
			{
				"x": -1.8225974112,
				"y": 0.2083323187,
				"z": 0.7931719765,
				"element": "C" 
			},
			{
				"x": -1.9860617257,
				"y": -1.1688395517,
				"z": 1.4475894421,
				"element": "C" 
			},
			{
				"x": -1.9563410573,
				"y": -2.3072979025,
				"z": 0.4013807895,
				"element": "C" 
			},
			{
				"x": -1.1480412778,
				"y": -1.8930229555,
				"z": -0.8475721322,
				"element": "C" 
			},
			{
				"x": 0.0001783597,
				"y": -0.9477993389,
				"z": -0.494749752,
				"element": "C" 
			},
			{
				"x": 2.3926376816,
				"y": 2.2651936754,
				"z": 1.358552344,
				"element": "H" 
			},
			{
				"x": 2.6418155791,
				"y": 3.6624807479,
				"z": 2.3202395158,
				"element": "H" 
			},
			{
				"x": -1.9273518102,
				"y": 2.6196827102,
				"z": -0.3722590984,
				"element": "H" 
			},
			{
				"x": -2.6688491665,
				"y": 4.8785676063,
				"z": 0.3259404718,
				"element": "H" 
			},
			{
				"x": 0.961800999,
				"y": 5.334191804,
				"z": 2.5859028686,
				"element": "H" 
			},
			{
				"x": -1.8706666594,
				"y": 0.9940188618,
				"z": 1.547272602,
				"element": "H" 
			},
			{
				"x": -2.6491837849,
				"y": 0.383297786,
				"z": 0.0892856429,
				"element": "H" 
			},
			{
				"x": -1.1756469592,
				"y": -1.299326028,
				"z": 2.1739965466,
				"element": "H" 
			},
			{
				"x": -2.9217521622,
				"y": -1.1847967417,
				"z": 2.016693865,
				"element": "H" 
			},
			{
				"x": -2.975205504,
				"y": -2.5777692363,
				"z": 0.1026212125,
				"element": "H" 
			},
			{
				"x": -1.5185819612,
				"y": -3.20424001,
				"z": 0.8532951911,
				"element": "H" 
			},
			{
				"x": -0.7418468645,
				"y": -2.7737262683,
				"z": -1.3555564319,
				"element": "H" 
			},
			{
				"x": -1.802904336,
				"y": -1.3938520011,
				"z": -1.5721020954,
				"element": "H" 
			},
			{
				"x": 0.7033198146,
				"y": -1.4308277187,
				"z": 0.1984617718,
				"element": "H" 
			},
			{
				"x": 0.581893215,
				"y": -0.6767474473,
				"z": -1.3787181321,
				"element": "H" 
			}
		],
		 "valence_orbital": [ 
			{
				"type": "occ",
				"energy": -0.30169,
				"method": "rhf"
			},
			{
				"type": "occ",
				"energy": -0.25746,
				"method": "rhf"
			},
			{
				"type": "occ",
				"energy": -0.24288,
				"method": "rhf"
			},
			{
				"type": "occ",
				"energy": -0.23664,
				"method": "rhf"
			},
			{
				"type": "occ",
				"energy": -0.20734,
				"method": "rhf"
			},
			{
				"type": "unocc",
				"energy": -0.03084,
				"method": "rhf"
			},
			{
				"type": "unocc",
				"energy": 0.00426,
				"method": "rhf"
			},
			{
				"type": "unocc",
				"energy": 0.0331,
				"method": "rhf"
			},
			{
				"type": "unocc",
				"energy": 0.04895,
				"method": "rhf"
			},
			{
				"type": "unocc",
				"energy": 0.06993,
				"method": "rhf"
			}
		],
		"cosmo_sigma_profile": { 
			"-0.025": 0.0,
			"-0.024": 0.0,
			"-0.023": 0.0,
			"-0.022": 0.0,
			"-0.021": 0.0,
			"-0.02": 0.0,
			"-0.019": 0.0,
			"-0.018": 0.0,
			"-0.017": 0.0,
			"-0.016": 0.0,
			"-0.015": 0.0,
			"-0.014": 0.00962779870321,
			"-0.013": 0.879775803806,
			"-0.012": 1.88926836344,
			"-0.011": 0.94994260744,
			"-0.01": 1.69405401053,
			"-0.009": 1.74900779837,
			"-0.008": 2.86316947159,
			"-0.007": 3.97448995977,
			"-0.006": 6.53391540808,
			"-0.005": 6.90010957571,
			"-0.004": 15.5632356074,
			"-0.003": 32.5992872931,
			"-0.002": 38.9283484973,
			"-0.001": 25.7462767635,
			"0.0": 21.9263884738,
			"0.001": 16.1537515997,
			"0.002": 16.8876907064,
			"0.003": 20.2489761673,
			"0.004": 21.3147589199,
			"0.005": 11.7854538473,
			"0.006": 2.23860497391,
			"0.007": 2.5798303888,
			"0.008": 2.68286119745,
			"0.009": 1.66399767359,
			"0.01": 2.15989077467,
			"0.011": 2.15615523669,
			"0.012": 2.18122532226,
			"0.013": 3.013355132,
			"0.014": 1.96128689689,
			"0.015": 0.162556027666,
			"0.016": 0.0,
			"0.017": 0.0,
			"0.018": 0.0,
			"0.019": 0.0,
			"0.02": 0.0,
			"0.021": 0.0,
			"0.022": 0.0,
			"0.023": 0.0,
			"0.024": 0.0,
			"0.025": 0.0
		}
	}
}
