{
	 "smiles": "BrC1=CC2=C(C=C1)N=CN=C2N1CCNCC1", 
	 "Tm": 373.15, 
	 "num_atms": 30, 
	 "gaussian": { 
		 "optdone": 1, 
		 "sigma_profile": "yes", 
		 "theory": "DFT", 
		 "functional": "B3LYP", 
		 "basiset": "6-31G**", 
		 "properties": { 
			 "R2extent": 11108.6442, 
			 "electric_dipole_moment_norm": 2.74155574993, 
			 "electric_quadrupole_moment_norm": 4.87404513931, 
			 "total_energy": -3255.52048648, 
			 "HOMO_LUMO_gap": 0.15647, 
			 "cosmo_polarized_energy": -10.76, 
			 "cosmo_cavitation_energy": 34.09, 
			 "cosmo_dispersion_energy": -25.53, 
			 "cosmo_repulsion_energy": 1.97, 
			 "cosmo_total_nonelectrostatic_energy": 10.52, 
			 "SMD_solvation_energy": -1.27 
		},
		"coords": [
			{
				"x": -3.2414156422,
				"y": 0.7488922161,
				"z": -5.7910227109,
				"element": "Br" 
			},
			{
				"x": -1.8556720528,
				"y": -0.2920156753,
				"z": -4.9827930747,
				"element": "C" 
			},
			{
				"x": -1.8509330578,
				"y": -0.4764846482,
				"z": -3.6171956389,
				"element": "C" 
			},
			{
				"x": -0.830721705,
				"y": -1.2553041386,
				"z": -3.0169745556,
				"element": "C" 
			},
			{
				"x": 0.1170967941,
				"y": -1.9203706673,
				"z": -3.8504769782,
				"element": "C" 
			},
			{
				"x": 0.0942857165,
				"y": -1.6758631582,
				"z": -5.2477171147,
				"element": "C" 
			},
			{
				"x": -0.8681123262,
				"y": -0.8675973717,
				"z": -5.810201826,
				"element": "C" 
			},
			{
				"x": 1.012706713,
				"y": -2.8308747428,
				"z": -3.3617402772,
				"element": "N" 
			},
			{
				"x": 0.9043053299,
				"y": -3.0869232378,
				"z": -2.0764156499,
				"element": "C" 
			},
			{
				"x": 0.1119828494,
				"y": -2.4759171231,
				"z": -1.1687804079,
				"element": "N" 
			},
			{
				"x": -0.7039113462,
				"y": -1.5149122484,
				"z": -1.5964145292,
				"element": "C" 
			},
			{
				"x": -1.4516556702,
				"y": -0.8398672579,
				"z": -0.6556047205,
				"element": "N" 
			},
			{
				"x": -1.6250063409,
				"y": 0.6219199474,
				"z": -0.684862934,
				"element": "C" 
			},
			{
				"x": -0.6762820607,
				"y": 1.3028111787,
				"z": 0.3125486322,
				"element": "C" 
			},
			{
				"x": -0.8902229393,
				"y": 0.7552221283,
				"z": 1.6492209759,
				"element": "N" 
			},
			{
				"x": -0.6047606494,
				"y": -0.6819008853,
				"z": 1.6778918767,
				"element": "C" 
			},
			{
				"x": -1.5544597811,
				"y": -1.3860432587,
				"z": 0.7065811438,
				"element": "C" 
			},
			{
				"x": -2.6491388393,
				"y": -0.0579436194,
				"z": -3.0186692656,
				"element": "H" 
			},
			{
				"x": 0.8424418107,
				"y": -2.1718324884,
				"z": -5.8569312811,
				"element": "H" 
			},
			{
				"x": -0.8930505697,
				"y": -0.6921273819,
				"z": -6.8797401087,
				"element": "H" 
			},
			{
				"x": 1.5536447555,
				"y": -3.863578719,
				"z": -1.6742248542,
				"element": "H" 
			},
			{
				"x": -2.6624669129,
				"y": 0.8609342622,
				"z": -0.419788044,
				"element": "H" 
			},
			{
				"x": -1.4234227903,
				"y": 1.0033647497,
				"z": -1.6839596463,
				"element": "H" 
			},
			{
				"x": 0.3606324305,
				"y": 1.168748644,
				"z": -0.0513743454,
				"element": "H" 
			},
			{
				"x": -0.8890089275,
				"y": 2.3778470107,
				"z": 0.324449497,
				"element": "H" 
			},
			{
				"x": -0.3055266252,
				"y": 1.2425582893,
				"z": 2.3220222123,
				"element": "H" 
			},
			{
				"x": 0.4336575243,
				"y": -0.9264276963,
				"z": 1.3931329857,
				"element": "H" 
			},
			{
				"x": -0.7768318016,
				"y": -1.0595232116,
				"z": 2.6918521984,
				"element": "H" 
			},
			{
				"x": -2.5867685668,
				"y": -1.2240742497,
				"z": 1.0415068606,
				"element": "H" 
			},
			{
				"x": -1.3464853187,
				"y": -2.4538166468,
				"z": 0.6682815807,
				"element": "H" 
			}
		],
		 "valence_orbital": [ 
			{
				"type": "occ",
				"energy": -0.2662,
				"method": "rhf"
			},
			{
				"type": "occ",
				"energy": -0.25679,
				"method": "rhf"
			},
			{
				"type": "occ",
				"energy": -0.24861,
				"method": "rhf"
			},
			{
				"type": "occ",
				"energy": -0.23475,
				"method": "rhf"
			},
			{
				"type": "occ",
				"energy": -0.21341,
				"method": "rhf"
			},
			{
				"type": "unocc",
				"energy": -0.05694,
				"method": "rhf"
			},
			{
				"type": "unocc",
				"energy": -0.02952,
				"method": "rhf"
			},
			{
				"type": "unocc",
				"energy": 0.00306,
				"method": "rhf"
			},
			{
				"type": "unocc",
				"energy": 0.01561,
				"method": "rhf"
			},
			{
				"type": "unocc",
				"energy": 0.07204,
				"method": "rhf"
			}
		],
		"cosmo_sigma_profile": { 
			"-0.025": 0.0,
			"-0.024": 0.0,
			"-0.023": 0.0,
			"-0.022": 0.0,
			"-0.021": 0.0,
			"-0.02": 0.0,
			"-0.019": 0.0,
			"-0.018": 0.0,
			"-0.017": 0.0,
			"-0.016": 0.0,
			"-0.015": 0.0,
			"-0.014": 0.0,
			"-0.013": 0.0,
			"-0.012": 0.0,
			"-0.011": 0.260206575167,
			"-0.01": 1.1503686357,
			"-0.009": 1.82008493384,
			"-0.008": 1.57524557924,
			"-0.007": 6.04728362103,
			"-0.006": 9.88238882279,
			"-0.005": 14.5557219827,
			"-0.004": 27.2847792519,
			"-0.003": 25.7789691721,
			"-0.002": 25.5503528484,
			"-0.001": 24.2478178587,
			"0.0": 22.160642047,
			"0.001": 24.478411937,
			"0.002": 23.6615385272,
			"0.003": 16.0597255377,
			"0.004": 15.6431432126,
			"0.005": 7.91529895828,
			"0.006": 3.98000939169,
			"0.007": 3.65668047873,
			"0.008": 3.24468977058,
			"0.009": 2.98525155048,
			"0.01": 1.68459468203,
			"0.011": 2.34705497147,
			"0.012": 2.55283983,
			"0.013": 1.44184801039,
			"0.014": 0.862962371703,
			"0.015": 1.48584463908,
			"0.016": 0.96338501342,
			"0.017": 0.654467062113,
			"0.018": 0.0974503798364,
			"0.019": 0.0,
			"0.02": 0.0,
			"0.021": 0.0,
			"0.022": 0.0,
			"0.023": 0.0,
			"0.024": 0.0,
			"0.025": 0.0
		}
	}
}
