{
	 "smiles": "CCCCC(O)=O", 
	 "Tm": 239.35, 
	 "num_atms": 17, 
	 "gaussian": { 
		 "optdone": 1, 
		 "sigma_profile": "yes", 
		 "theory": "DFT", 
		 "functional": "B3LYP", 
		 "basiset": "6-31G**", 
		 "properties": { 
			 "R2extent": 1171.3172, 
			 "electric_dipole_moment_norm": 4.59726963425, 
			 "electric_quadrupole_moment_norm": 9.26523414707, 
			 "total_energy": -347.02370661, 
			 "HOMO_LUMO_gap": 0.2769, 
			 "cosmo_polarized_energy": -12.87, 
			 "cosmo_cavitation_energy": 19.96, 
			 "cosmo_dispersion_energy": -14.55, 
			 "cosmo_repulsion_energy": 1.27, 
			 "cosmo_total_nonelectrostatic_energy": 6.68, 
			 "SMD_solvation_energy": 4.53 
		},
		"coords": [
			{
				"x": -1.6088395339,
				"y": 1.3717622053,
				"z": -2.3804152315,
				"element": "C" 
			},
			{
				"x": -1.4233472388,
				"y": -0.0873555968,
				"z": -1.9486353209,
				"element": "C" 
			},
			{
				"x": -1.2491610481,
				"y": -0.2883047941,
				"z": -0.4344239895,
				"element": "C" 
			},
			{
				"x": 0.0450241757,
				"y": 0.3344103079,
				"z": 0.1276345933,
				"element": "C" 
			},
			{
				"x": 0.2854126062,
				"y": 0.028065822,
				"z": 1.5997676158,
				"element": "C" 
			},
			{
				"x": -0.6981161075,
				"y": 0.4296361111,
				"z": 2.4550889472,
				"element": "O" 
			},
			{
				"x": 1.2627098624,
				"y": -0.5294355453,
				"z": 2.0308600764,
				"element": "O" 
			},
			{
				"x": -1.7809594944,
				"y": 1.4404318453,
				"z": -3.4590413446,
				"element": "H" 
			},
			{
				"x": -2.4713116248,
				"y": 1.8267455036,
				"z": -1.8789401873,
				"element": "H" 
			},
			{
				"x": -0.7300350814,
				"y": 1.9841172077,
				"z": -2.152801657,
				"element": "H" 
			},
			{
				"x": -0.5572904551,
				"y": -0.5185910907,
				"z": -2.4676860483,
				"element": "H" 
			},
			{
				"x": -2.2934654957,
				"y": -0.6707990874,
				"z": -2.2735776693,
				"element": "H" 
			},
			{
				"x": -2.1287105089,
				"y": 0.1282970251,
				"z": 0.0789209932,
				"element": "H" 
			},
			{
				"x": -1.2478573481,
				"y": -1.3619561742,
				"z": -0.2120055153,
				"element": "H" 
			},
			{
				"x": 0.9144924634,
				"y": -0.0436707053,
				"z": -0.4153722176,
				"element": "H" 
			},
			{
				"x": 0.0281310609,
				"y": 1.4250221846,
				"z": 0.0009578986,
				"element": "H" 
			},
			{
				"x": -1.410576232,
				"y": 0.8636247813,
				"z": 1.9651690568,
				"element": "H" 
			}
		],
		 "valence_orbital": [ 
			{
				"type": "occ",
				"energy": -0.35119,
				"method": "rhf"
			},
			{
				"type": "occ",
				"energy": -0.34637,
				"method": "rhf"
			},
			{
				"type": "occ",
				"energy": -0.34202,
				"method": "rhf"
			},
			{
				"type": "occ",
				"energy": -0.31105,
				"method": "rhf"
			},
			{
				"type": "occ",
				"energy": -0.26449,
				"method": "rhf"
			},
			{
				"type": "unocc",
				"energy": 0.01241,
				"method": "rhf"
			},
			{
				"type": "unocc",
				"energy": 0.04686,
				"method": "rhf"
			},
			{
				"type": "unocc",
				"energy": 0.08564,
				"method": "rhf"
			},
			{
				"type": "unocc",
				"energy": 0.10888,
				"method": "rhf"
			},
			{
				"type": "unocc",
				"energy": 0.11557,
				"method": "rhf"
			}
		],
		"cosmo_sigma_profile": { 
			"-0.025": 0.0,
			"-0.024": 0.0,
			"-0.023": 0.0,
			"-0.022": 0.0,
			"-0.021": 0.0,
			"-0.02": 0.0,
			"-0.019": 0.0,
			"-0.018": 0.374600032198,
			"-0.017": 1.00577133012,
			"-0.016": 1.09980960458,
			"-0.015": 1.10491574669,
			"-0.014": 0.831580863902,
			"-0.013": 0.982515702551,
			"-0.012": 1.30564326298,
			"-0.011": 0.960780878721,
			"-0.01": 1.17586087478,
			"-0.009": 1.21712725904,
			"-0.008": 0.84189848746,
			"-0.007": 2.04996846937,
			"-0.006": 3.20246171743,
			"-0.005": 5.25773104473,
			"-0.004": 9.33501417168,
			"-0.003": 16.8987154438,
			"-0.002": 22.0332202255,
			"-0.001": 18.6745555489,
			"0.0": 14.7923841665,
			"0.001": 12.4716920598,
			"0.002": 4.29546038142,
			"0.003": 1.70839321049,
			"0.004": 1.47901030804,
			"0.005": 2.24088000745,
			"0.006": 2.86228310341,
			"0.007": 1.81610611397,
			"0.008": 1.87757387915,
			"0.009": 3.17416228964,
			"0.01": 4.48627037456,
			"0.011": 5.39636249633,
			"0.012": 6.23582470869,
			"0.013": 3.55909861489,
			"0.014": 0.294402048229,
			"0.015": 0.0,
			"0.016": 0.0,
			"0.017": 0.0,
			"0.018": 0.0,
			"0.019": 0.0,
			"0.02": 0.0,
			"0.021": 0.0,
			"0.022": 0.0,
			"0.023": 0.0,
			"0.024": 0.0,
			"0.025": 0.0
		}
	}
}
