{
	 "smiles": "CC(O)(C(O)=O)C1=CC(F)=CC=C1", 
	 "Tm": 373.15, 
	 "num_atms": 22, 
	 "gaussian": { 
		 "optdone": 1, 
		 "sigma_profile": "yes", 
		 "theory": "DFT", 
		 "functional": "B3LYP", 
		 "basiset": "6-31G**", 
		 "properties": { 
			 "R2extent": 2561.0981, 
			 "electric_dipole_moment_norm": 1.00383371631, 
			 "electric_quadrupole_moment_norm": 12.2837446754, 
			 "total_energy": -673.90033605, 
			 "HOMO_LUMO_gap": 0.2196, 
			 "cosmo_polarized_energy": -10.42, 
			 "cosmo_cavitation_energy": 26.29, 
			 "cosmo_dispersion_energy": -18.82, 
			 "cosmo_repulsion_energy": 1.48, 
			 "cosmo_total_nonelectrostatic_energy": 8.94, 
			 "SMD_solvation_energy": 6.38 
		},
		"coords": [
			{
				"x": 1.3246289226,
				"y": -1.107552083,
				"z": 0.8503763135,
				"element": "C" 
			},
			{
				"x": 0.1067423101,
				"y": -0.1697854146,
				"z": 0.8415804702,
				"element": "C" 
			},
			{
				"x": -0.6562707438,
				"y": -0.4544780039,
				"z": 1.9970611642,
				"element": "O" 
			},
			{
				"x": 0.5254027696,
				"y": 1.3079497984,
				"z": 0.9429107419,
				"element": "C" 
			},
			{
				"x": 1.5335600798,
				"y": 1.6575034906,
				"z": 0.1245083455,
				"element": "O" 
			},
			{
				"x": -0.0193889834,
				"y": 2.0904804037,
				"z": 1.6949125906,
				"element": "O" 
			},
			{
				"x": -0.7325617365,
				"y": -0.3572385627,
				"z": -0.4422841919,
				"element": "C" 
			},
			{
				"x": -0.1928286992,
				"y": -0.0911386198,
				"z": -1.7085578403,
				"element": "C" 
			},
			{
				"x": -0.9778663404,
				"y": -0.3020589224,
				"z": -2.8342971868,
				"element": "C" 
			},
			{
				"x": -0.4481787085,
				"y": -0.0396725115,
				"z": -4.0492954417,
				"element": "F" 
			},
			{
				"x": -2.2848531258,
				"y": -0.7697349758,
				"z": -2.7571860906,
				"element": "C" 
			},
			{
				"x": -2.8118062099,
				"y": -1.0315887953,
				"z": -1.4931294565,
				"element": "C" 
			},
			{
				"x": -2.046467812,
				"y": -0.8270324489,
				"z": -0.342860515,
				"element": "C" 
			},
			{
				"x": 0.9650007664,
				"y": -2.1393029443,
				"z": 0.8586710488,
				"element": "H" 
			},
			{
				"x": 1.918845247,
				"y": -0.9395994063,
				"z": 1.7528078527,
				"element": "H" 
			},
			{
				"x": 1.9552348753,
				"y": -0.959179674,
				"z": -0.0276324727,
				"element": "H" 
			},
			{
				"x": -0.9761828065,
				"y": 0.4019911895,
				"z": 2.3281502992,
				"element": "H" 
			},
			{
				"x": 1.6782045796,
				"y": 2.6113065995,
				"z": 0.2493412692,
				"element": "H" 
			},
			{
				"x": 0.815371613,
				"y": 0.2858059665,
				"z": -1.8346880279,
				"element": "H" 
			},
			{
				"x": -2.8585475485,
				"y": -0.9189192938,
				"z": -3.665329616,
				"element": "H" 
			},
			{
				"x": -3.8296521765,
				"y": -1.3996690727,
				"z": -1.4033620205,
				"element": "H" 
			},
			{
				"x": -2.4515862724,
				"y": -1.0390867192,
				"z": 0.6387027643,
				"element": "H" 
			}
		],
		 "valence_orbital": [ 
			{
				"type": "occ",
				"energy": -0.33645,
				"method": "rhf"
			},
			{
				"type": "occ",
				"energy": -0.30336,
				"method": "rhf"
			},
			{
				"type": "occ",
				"energy": -0.28113,
				"method": "rhf"
			},
			{
				"type": "occ",
				"energy": -0.25637,
				"method": "rhf"
			},
			{
				"type": "occ",
				"energy": -0.24407,
				"method": "rhf"
			},
			{
				"type": "unocc",
				"energy": -0.02447,
				"method": "rhf"
			},
			{
				"type": "unocc",
				"energy": -0.00585,
				"method": "rhf"
			},
			{
				"type": "unocc",
				"energy": 0.01114,
				"method": "rhf"
			},
			{
				"type": "unocc",
				"energy": 0.0579,
				"method": "rhf"
			},
			{
				"type": "unocc",
				"energy": 0.09152,
				"method": "rhf"
			}
		],
		"cosmo_sigma_profile": { 
			"-0.025": 0.0,
			"-0.024": 0.0,
			"-0.023": 0.0,
			"-0.022": 0.0,
			"-0.021": 0.0,
			"-0.02": 0.10680927866,
			"-0.019": 0.857214394175,
			"-0.018": 0.839561939007,
			"-0.017": 0.961528178473,
			"-0.016": 1.08725078632,
			"-0.015": 0.529552548924,
			"-0.014": 0.851917432374,
			"-0.013": 0.286978146998,
			"-0.012": 1.16615442243,
			"-0.011": 1.09965273134,
			"-0.01": 0.941117126171,
			"-0.009": 1.30561709453,
			"-0.008": 2.37210852613,
			"-0.007": 3.67651048962,
			"-0.006": 6.07248950337,
			"-0.005": 11.0798138604,
			"-0.004": 15.0750851936,
			"-0.003": 12.2702626657,
			"-0.002": 15.8367413685,
			"-0.001": 15.2894100706,
			"0.0": 16.7728723492,
			"0.001": 17.8465819872,
			"0.002": 15.7887181787,
			"0.003": 14.6347818793,
			"0.004": 21.084125878,
			"0.005": 9.48910880987,
			"0.006": 3.13411738096,
			"0.007": 3.01556757231,
			"0.008": 2.29588070559,
			"0.009": 3.20974099214,
			"0.01": 4.18266357139,
			"0.011": 3.24685704691,
			"0.012": 1.07551035575,
			"0.013": 1.11387731367,
			"0.014": 0.048586341465,
			"0.015": 0.0,
			"0.016": 0.0,
			"0.017": 0.0,
			"0.018": 0.0,
			"0.019": 0.0,
			"0.02": 0.0,
			"0.021": 0.0,
			"0.022": 0.0,
			"0.023": 0.0,
			"0.024": 0.0,
			"0.025": 0.0
		}
	}
}
