{
	 "smiles": "COCC1=CN=C(C2=NC(C)(C(C)C)C(=O)N2)C(=C1)C(O)=O", 
	 "Tm": 439.15, 
	 "num_atms": 41, 
	 "gaussian": { 
		 "optdone": 1, 
		 "sigma_profile": "yes", 
		 "theory": "DFT", 
		 "functional": "B3LYP", 
		 "basiset": "6-31G**", 
		 "properties": { 
			 "R2extent": 8704.2286, 
			 "electric_dipole_moment_norm": 4.37972052761, 
			 "electric_quadrupole_moment_norm": 17.5643577025, 
			 "total_energy": -1048.21665869, 
			 "HOMO_LUMO_gap": 0.16999, 
			 "cosmo_polarized_energy": -19.69, 
			 "cosmo_cavitation_energy": 44.2, 
			 "cosmo_dispersion_energy": -29.76, 
			 "cosmo_repulsion_energy": 2.31, 
			 "cosmo_total_nonelectrostatic_energy": 16.74, 
			 "SMD_solvation_energy": 7.32 
		},
		"coords": [
			{
				"x": -5.4373757132,
				"y": -1.9720993942,
				"z": 0.9853307345,
				"element": "C" 
			},
			{
				"x": -5.3261087014,
				"y": -0.7401032583,
				"z": 0.2904333567,
				"element": "O" 
			},
			{
				"x": -4.483042914,
				"y": -0.8041039578,
				"z": -0.8421469829,
				"element": "C" 
			},
			{
				"x": -3.0042689282,
				"y": -0.835831473,
				"z": -0.5007411336,
				"element": "C" 
			},
			{
				"x": -2.5101564149,
				"y": -0.1441573675,
				"z": 0.6124426027,
				"element": "C" 
			},
			{
				"x": -1.2138197842,
				"y": -0.0685068085,
				"z": 0.9166212221,
				"element": "N" 
			},
			{
				"x": -0.3263588747,
				"y": -0.7104136354,
				"z": 0.1383805503,
				"element": "C" 
			},
			{
				"x": 1.0895208786,
				"y": -0.4606887041,
				"z": 0.4811685459,
				"element": "C" 
			},
			{
				"x": 2.1005272593,
				"y": -0.7257105344,
				"z": -0.2656970975,
				"element": "N" 
			},
			{
				"x": 3.3038528389,
				"y": -0.2784124164,
				"z": 0.4650796849,
				"element": "C" 
			},
			{
				"x": 4.1545072756,
				"y": -1.5148813801,
				"z": 0.8116630208,
				"element": "C" 
			},
			{
				"x": 4.0857945918,
				"y": 0.7538698286,
				"z": -0.4075854127,
				"element": "C" 
			},
			{
				"x": 5.4320434212,
				"y": 1.1641196284,
				"z": 0.2102252774,
				"element": "C" 
			},
			{
				"x": 3.2389117954,
				"y": 1.9952359947,
				"z": -0.728589853,
				"element": "C" 
			},
			{
				"x": 2.7612779367,
				"y": 0.3470565963,
				"z": 1.7740216989,
				"element": "C" 
			},
			{
				"x": 3.3664268194,
				"y": 0.869173258,
				"z": 2.6907174935,
				"element": "O" 
			},
			{
				"x": 1.3904637674,
				"y": 0.1610057151,
				"z": 1.6905003561,
				"element": "N" 
			},
			{
				"x": -0.7200159108,
				"y": -1.4973742177,
				"z": -0.9592675464,
				"element": "C" 
			},
			{
				"x": -2.0777552871,
				"y": -1.5218687332,
				"z": -1.2853722582,
				"element": "C" 
			},
			{
				"x": 0.2076714405,
				"y": -2.3166443992,
				"z": -1.8093788072,
				"element": "C" 
			},
			{
				"x": 0.842290435,
				"y": -3.2711615234,
				"z": -1.1010203532,
				"element": "O" 
			},
			{
				"x": 0.2879731694,
				"y": -2.205703332,
				"z": -3.0124541895,
				"element": "O" 
			},
			{
				"x": -5.8394533573,
				"y": -2.7628661427,
				"z": 0.3341769304,
				"element": "H" 
			},
			{
				"x": -6.1302964226,
				"y": -1.8074375234,
				"z": 1.8130439396,
				"element": "H" 
			},
			{
				"x": -4.4731809428,
				"y": -2.3100062681,
				"z": 1.3901634749,
				"element": "H" 
			},
			{
				"x": -4.7353010912,
				"y": -1.668499028,
				"z": -1.4775777598,
				"element": "H" 
			},
			{
				"x": -4.7016368203,
				"y": 0.0999179162,
				"z": -1.4233251121,
				"element": "H" 
			},
			{
				"x": -3.2001092426,
				"y": 0.3687710749,
				"z": 1.2778002527,
				"element": "H" 
			},
			{
				"x": 4.9504265558,
				"y": -1.2478204199,
				"z": 1.5102738489,
				"element": "H" 
			},
			{
				"x": 3.5319441807,
				"y": -2.2853101809,
				"z": 1.2753821117,
				"element": "H" 
			},
			{
				"x": 4.5957686025,
				"y": -1.933373034,
				"z": -0.0976941258,
				"element": "H" 
			},
			{
				"x": 4.2769662485,
				"y": 0.2251411257,
				"z": -1.3511792593,
				"element": "H" 
			},
			{
				"x": 5.9157242907,
				"y": 1.9135664709,
				"z": -0.4251576845,
				"element": "H" 
			},
			{
				"x": 6.1204871809,
				"y": 0.3192004948,
				"z": 0.3004907098,
				"element": "H" 
			},
			{
				"x": 5.2915837182,
				"y": 1.5961424634,
				"z": 1.2048396346,
				"element": "H" 
			},
			{
				"x": 2.2823410393,
				"y": 1.7222346164,
				"z": -1.1822300957,
				"element": "H" 
			},
			{
				"x": 3.0427414231,
				"y": 2.5871303177,
				"z": 0.1729024505,
				"element": "H" 
			},
			{
				"x": 3.7712739912,
				"y": 2.6415359586,
				"z": -1.4337391467,
				"element": "H" 
			},
			{
				"x": 0.6938555307,
				"y": 0.4928003237,
				"z": 2.3426636483,
				"element": "H" 
			},
			{
				"x": -2.4016368583,
				"y": -2.0956539695,
				"z": -2.1497525422,
				"element": "H" 
			},
			{
				"x": 1.4379428727,
				"y": -3.7204740822,
				"z": -1.7242121849,
				"element": "H" 
			}
		],
		 "valence_orbital": [ 
			{
				"type": "occ",
				"energy": -0.28156,
				"method": "rhf"
			},
			{
				"type": "occ",
				"energy": -0.27603,
				"method": "rhf"
			},
			{
				"type": "occ",
				"energy": -0.27083,
				"method": "rhf"
			},
			{
				"type": "occ",
				"energy": -0.2446,
				"method": "rhf"
			},
			{
				"type": "occ",
				"energy": -0.24049,
				"method": "rhf"
			},
			{
				"type": "unocc",
				"energy": -0.0705,
				"method": "rhf"
			},
			{
				"type": "unocc",
				"energy": -0.05272,
				"method": "rhf"
			},
			{
				"type": "unocc",
				"energy": 0.00546,
				"method": "rhf"
			},
			{
				"type": "unocc",
				"energy": 0.01509,
				"method": "rhf"
			},
			{
				"type": "unocc",
				"energy": 0.05239,
				"method": "rhf"
			}
		],
		"cosmo_sigma_profile": { 
			"-0.025": 0.0,
			"-0.024": 0.0,
			"-0.023": 0.0,
			"-0.022": 0.0,
			"-0.021": 0.0,
			"-0.02": 0.0,
			"-0.019": 0.172908342149,
			"-0.018": 0.935352729017,
			"-0.017": 1.11961835577,
			"-0.016": 0.575012755558,
			"-0.015": 0.845965053937,
			"-0.014": 1.32881692005,
			"-0.013": 1.21395335415,
			"-0.012": 0.980872386303,
			"-0.011": 1.81760054826,
			"-0.01": 1.5084533291,
			"-0.009": 1.87298892799,
			"-0.008": 4.35935078648,
			"-0.007": 5.71898584958,
			"-0.006": 9.90907712778,
			"-0.005": 15.6488835159,
			"-0.004": 22.9226266806,
			"-0.003": 34.8390049069,
			"-0.002": 43.6983581512,
			"-0.001": 40.5425563876,
			"0.0": 33.9273572367,
			"0.001": 26.7194989534,
			"0.002": 13.1560314974,
			"0.003": 8.63872967832,
			"0.004": 8.2133526483,
			"0.005": 8.24708496103,
			"0.006": 7.30462293486,
			"0.007": 9.77942133644,
			"0.008": 8.13167363695,
			"0.009": 5.95479815415,
			"0.01": 6.42494059791,
			"0.011": 8.69499544663,
			"0.012": 8.91804723059,
			"0.013": 3.38014199813,
			"0.014": 0.140177821013,
			"0.015": 0.0,
			"0.016": 0.0,
			"0.017": 0.0,
			"0.018": 0.0,
			"0.019": 0.0,
			"0.02": 0.0,
			"0.021": 0.0,
			"0.022": 0.0,
			"0.023": 0.0,
			"0.024": 0.0,
			"0.025": 0.0
		}
	}
}
