{
	 "smiles": "CC(=O)N(C1=C(C)C(C)=NO1)S(=O)(=O)C1=CC=C(N)C=C1", 
	 "Tm": 467.15, 
	 "num_atms": 36, 
	 "gaussian": { 
		 "optdone": 1, 
		 "sigma_profile": "yes", 
		 "theory": "DFT", 
		 "functional": "B3LYP", 
		 "basiset": "6-31G**", 
		 "properties": { 
			 "R2extent": 7214.4397, 
			 "electric_dipole_moment_norm": 10.6526919495, 
			 "electric_quadrupole_moment_norm": 25.2714609229, 
			 "total_energy": -1367.65462698, 
			 "HOMO_LUMO_gap": 0.19105, 
			 "cosmo_polarized_energy": -27.28, 
			 "cosmo_cavitation_energy": 41.63, 
			 "cosmo_dispersion_energy": -28.14, 
			 "cosmo_repulsion_energy": 2.12, 
			 "cosmo_total_nonelectrostatic_energy": 15.61, 
			 "SMD_solvation_energy": 7.17 
		},
		"coords": [
			{
				"x": 1.4763326437,
				"y": -2.1423765159,
				"z": 3.1125617454,
				"element": "C" 
			},
			{
				"x": 0.5114077562,
				"y": -2.4193428927,
				"z": 1.9857881616,
				"element": "C" 
			},
			{
				"x": -0.2726637924,
				"y": -3.3445529066,
				"z": 2.0052837529,
				"element": "O" 
			},
			{
				"x": 0.5088557455,
				"y": -1.5379867491,
				"z": 0.8607796356,
				"element": "N" 
			},
			{
				"x": -0.3661602259,
				"y": -1.8498681159,
				"z": -0.1943660516,
				"element": "C" 
			},
			{
				"x": -1.6926948492,
				"y": -1.6010224291,
				"z": -0.3846961349,
				"element": "C" 
			},
			{
				"x": -2.6575808826,
				"y": -0.8969256655,
				"z": 0.513776053,
				"element": "C" 
			},
			{
				"x": -1.9540280216,
				"y": -2.2323278406,
				"z": -1.6424599485,
				"element": "C" 
			},
			{
				"x": -3.2497722958,
				"y": -2.3049905622,
				"z": -2.3871735691,
				"element": "C" 
			},
			{
				"x": -0.8735352838,
				"y": -2.7963277194,
				"z": -2.1413673267,
				"element": "N" 
			},
			{
				"x": 0.1417627263,
				"y": -2.5645232273,
				"z": -1.2218797772,
				"element": "O" 
			},
			{
				"x": 1.6326255558,
				"y": -0.2027251053,
				"z": 0.5743256904,
				"element": "S" 
			},
			{
				"x": 1.3742328567,
				"y": 0.1731933598,
				"z": -0.8111007509,
				"element": "O" 
			},
			{
				"x": 2.9527524721,
				"y": -0.6321972612,
				"z": 1.0339748634,
				"element": "O" 
			},
			{
				"x": 1.0714851403,
				"y": 1.1118641793,
				"z": 1.6311752886,
				"element": "C" 
			},
			{
				"x": -0.0729820525,
				"y": 1.8387466076,
				"z": 1.2787907295,
				"element": "C" 
			},
			{
				"x": -0.4989704331,
				"y": 2.8842932624,
				"z": 2.0826877181,
				"element": "C" 
			},
			{
				"x": 0.2172274551,
				"y": 3.2353789052,
				"z": 3.2480929417,
				"element": "C" 
			},
			{
				"x": -0.1820660667,
				"y": 4.3043906357,
				"z": 4.0197849279,
				"element": "N" 
			},
			{
				"x": 1.3801080953,
				"y": 2.5072471067,
				"z": 3.573268955,
				"element": "C" 
			},
			{
				"x": 1.8054351369,
				"y": 1.4573090727,
				"z": 2.7708919595,
				"element": "C" 
			},
			{
				"x": 1.2728458481,
				"y": -2.8727241405,
				"z": 3.895222981,
				"element": "H" 
			},
			{
				"x": 2.5092758522,
				"y": -2.2292244322,
				"z": 2.7700222121,
				"element": "H" 
			},
			{
				"x": 1.3432577568,
				"y": -1.132796775,
				"z": 3.5112349281,
				"element": "H" 
			},
			{
				"x": -3.4090661548,
				"y": -1.5909252637,
				"z": 0.9074992244,
				"element": "H" 
			},
			{
				"x": -3.19423084,
				"y": -0.1013453561,
				"z": -0.0159454975,
				"element": "H" 
			},
			{
				"x": -2.1426167295,
				"y": -0.4480924725,
				"z": 1.3668105103,
				"element": "H" 
			},
			{
				"x": -3.1098203865,
				"y": -2.8500788339,
				"z": -3.322791397,
				"element": "H" 
			},
			{
				"x": -3.6287900511,
				"y": -1.3035980314,
				"z": -2.6196326144,
				"element": "H" 
			},
			{
				"x": -4.015543143,
				"y": -2.8181747556,
				"z": -1.795055036,
				"element": "H" 
			},
			{
				"x": -0.6124990702,
				"y": 1.594378091,
				"z": 0.3702663143,
				"element": "H" 
			},
			{
				"x": -1.3827314871,
				"y": 3.4527451141,
				"z": 1.8063877104,
				"element": "H" 
			},
			{
				"x": 0.1866078408,
				"y": 4.3754377446,
				"z": 4.9556845153,
				"element": "H" 
			},
			{
				"x": -1.1289405026,
				"y": 4.6351844063,
				"z": 3.9157517338,
				"element": "H" 
			},
			{
				"x": 1.9556780742,
				"y": 2.7813431531,
				"z": 4.4530528092,
				"element": "H" 
			},
			{
				"x": 2.7128013124,
				"y": 0.913915413,
				"z": 3.0097527424,
				"element": "H" 
			}
		],
		 "valence_orbital": [ 
			{
				"type": "occ",
				"energy": -0.27871,
				"method": "rhf"
			},
			{
				"type": "occ",
				"energy": -0.2733,
				"method": "rhf"
			},
			{
				"type": "occ",
				"energy": -0.26763,
				"method": "rhf"
			},
			{
				"type": "occ",
				"energy": -0.24764,
				"method": "rhf"
			},
			{
				"type": "occ",
				"energy": -0.23497,
				"method": "rhf"
			},
			{
				"type": "unocc",
				"energy": -0.04392,
				"method": "rhf"
			},
			{
				"type": "unocc",
				"energy": -0.0321,
				"method": "rhf"
			},
			{
				"type": "unocc",
				"energy": -0.01114,
				"method": "rhf"
			},
			{
				"type": "unocc",
				"energy": 0.00129,
				"method": "rhf"
			},
			{
				"type": "unocc",
				"energy": 0.03612,
				"method": "rhf"
			}
		],
		"cosmo_sigma_profile": { 
			"-0.025": 0.0,
			"-0.024": 0.0,
			"-0.023": 0.0,
			"-0.022": 0.0,
			"-0.021": 0.0,
			"-0.02": 0.0,
			"-0.019": 0.0,
			"-0.018": 0.0,
			"-0.017": 0.0,
			"-0.016": 0.0,
			"-0.015": 0.0,
			"-0.014": 1.26466057862,
			"-0.013": 2.99898325558,
			"-0.012": 3.81122377599,
			"-0.011": 2.95250980555,
			"-0.01": 2.22958347846,
			"-0.009": 3.63832768703,
			"-0.008": 4.11007176607,
			"-0.007": 6.92585921735,
			"-0.006": 13.3064154714,
			"-0.005": 29.1506320447,
			"-0.004": 28.3871274672,
			"-0.003": 28.1882467483,
			"-0.002": 29.7884780344,
			"-0.001": 23.9433555289,
			"0.0": 14.9424714447,
			"0.001": 14.3366424065,
			"0.002": 15.9838642549,
			"0.003": 20.7681617044,
			"0.004": 10.0218912721,
			"0.005": 7.8855376159,
			"0.006": 7.97206718037,
			"0.007": 9.77641755385,
			"0.008": 11.8063982521,
			"0.009": 11.9530584998,
			"0.01": 12.0563096471,
			"0.011": 7.34595721206,
			"0.012": 3.19884346697,
			"0.013": 1.14392163724,
			"0.014": 1.09405088967,
			"0.015": 0.107813255528,
			"0.016": 0.0,
			"0.017": 0.0,
			"0.018": 0.0,
			"0.019": 0.0,
			"0.02": 0.0,
			"0.021": 0.0,
			"0.022": 0.0,
			"0.023": 0.0,
			"0.024": 0.0,
			"0.025": 0.0
		}
	}
}
