{
	 "smiles": "COC1=C(Cl)C=C(C=C1)[N+]([O-])=O", 
	 "Tm": 368.15, 
	 "num_atms": 18, 
	 "gaussian": { 
		 "optdone": 1, 
		 "sigma_profile": "yes", 
		 "theory": "DFT", 
		 "functional": "B3LYP", 
		 "basiset": "6-31G**", 
		 "properties": { 
			 "R2extent": 2861.3801, 
			 "electric_dipole_moment_norm": 4.45533447005, 
			 "electric_quadrupole_moment_norm": 16.016892447, 
			 "total_energy": -1010.85505849, 
			 "HOMO_LUMO_gap": 0.17397, 
			 "cosmo_polarized_energy": -8.79, 
			 "cosmo_cavitation_energy": 24.99, 
			 "cosmo_dispersion_energy": -18.34, 
			 "cosmo_repulsion_energy": 1.46, 
			 "cosmo_total_nonelectrostatic_energy": 8.12, 
			 "SMD_solvation_energy": 7.22 
		},
		"coords": [
			{
				"x": -1.6793849301,
				"y": 1.7588740611,
				"z": 1.6766573089,
				"element": "C" 
			},
			{
				"x": -1.2784730144,
				"y": 0.3808327424,
				"z": 1.6590295255,
				"element": "O" 
			},
			{
				"x": -0.1275516564,
				"y": 0.1073251911,
				"z": 0.9832594562,
				"element": "C" 
			},
			{
				"x": -0.1185093277,
				"y": -0.0972905948,
				"z": -0.4107634308,
				"element": "C" 
			},
			{
				"x": -1.6051110136,
				"y": 0.0389851844,
				"z": -1.3202225922,
				"element": "Cl" 
			},
			{
				"x": 1.0570839635,
				"y": -0.4326298034,
				"z": -1.073121,
				"element": "C" 
			},
			{
				"x": 2.22681384,
				"y": -0.5611065922,
				"z": -0.3273484169,
				"element": "C" 
			},
			{
				"x": 2.2533255704,
				"y": -0.3734933223,
				"z": 1.0528756366,
				"element": "C" 
			},
			{
				"x": 1.0686517667,
				"y": -0.0372677069,
				"z": 1.6978353415,
				"element": "C" 
			},
			{
				"x": 3.4710458032,
				"y": -0.9140368122,
				"z": -1.0271027686,
				"element": "N" 
			},
			{
				"x": 4.4910771705,
				"y": -1.027141451,
				"z": -0.3485167825,
				"element": "O" 
			},
			{
				"x": 3.415298716,
				"y": -1.0726867325,
				"z": -2.2458267234,
				"element": "O" 
			},
			{
				"x": -1.8671960424,
				"y": 2.1334532394,
				"z": 0.6652584788,
				"element": "H" 
			},
			{
				"x": -0.9167635194,
				"y": 2.3789348791,
				"z": 2.1631326907,
				"element": "H" 
			},
			{
				"x": -2.6032977218,
				"y": 1.7955646406,
				"z": 2.2550153892,
				"element": "H" 
			},
			{
				"x": 1.0757807501,
				"y": -0.5972158322,
				"z": -2.1424623251,
				"element": "H" 
			},
			{
				"x": 3.1852158283,
				"y": -0.4909685365,
				"z": 1.5908370344,
				"element": "H" 
			},
			{
				"x": 1.0397938171,
				"y": 0.1088674457,
				"z": 2.7723631778,
				"element": "H" 
			}
		],
		 "valence_orbital": [ 
			{
				"type": "occ",
				"energy": -0.31232,
				"method": "rhf"
			},
			{
				"type": "occ",
				"energy": -0.30302,
				"method": "rhf"
			},
			{
				"type": "occ",
				"energy": -0.29464,
				"method": "rhf"
			},
			{
				"type": "occ",
				"energy": -0.28432,
				"method": "rhf"
			},
			{
				"type": "occ",
				"energy": -0.26893,
				"method": "rhf"
			},
			{
				"type": "unocc",
				"energy": -0.09496,
				"method": "rhf"
			},
			{
				"type": "unocc",
				"energy": -0.04044,
				"method": "rhf"
			},
			{
				"type": "unocc",
				"energy": -0.00726,
				"method": "rhf"
			},
			{
				"type": "unocc",
				"energy": 0.0107,
				"method": "rhf"
			},
			{
				"type": "unocc",
				"energy": 0.09232,
				"method": "rhf"
			}
		],
		"cosmo_sigma_profile": { 
			"-0.025": 0.0,
			"-0.024": 0.0,
			"-0.023": 0.0,
			"-0.022": 0.0,
			"-0.021": 0.0,
			"-0.02": 0.0,
			"-0.019": 0.0,
			"-0.018": 0.0,
			"-0.017": 0.0,
			"-0.016": 0.0,
			"-0.015": 0.0,
			"-0.014": 0.0,
			"-0.013": 0.0,
			"-0.012": 0.0,
			"-0.011": 0.0,
			"-0.01": 0.0,
			"-0.009": 0.566873832982,
			"-0.008": 3.79708206306,
			"-0.007": 5.96633629547,
			"-0.006": 9.63149130619,
			"-0.005": 13.6816417601,
			"-0.004": 17.5611185451,
			"-0.003": 17.4798638056,
			"-0.002": 16.1821858996,
			"-0.001": 20.438320487,
			"0.0": 18.3424741104,
			"0.001": 12.4640340308,
			"0.002": 8.83895921029,
			"0.003": 10.4443229739,
			"0.004": 9.44699932718,
			"0.005": 4.3695598931,
			"0.006": 6.33784619361,
			"0.007": 10.6570324668,
			"0.008": 7.24868928719,
			"0.009": 5.80424630606,
			"0.01": 3.39218605502,
			"0.011": 0.042263093592,
			"0.012": 0.0,
			"0.013": 0.0,
			"0.014": 0.0,
			"0.015": 0.0,
			"0.016": 0.0,
			"0.017": 0.0,
			"0.018": 0.0,
			"0.019": 0.0,
			"0.02": 0.0,
			"0.021": 0.0,
			"0.022": 0.0,
			"0.023": 0.0,
			"0.024": 0.0,
			"0.025": 0.0
		}
	}
}
