{
	 "smiles": "FC1=CC(I)=CC=C1", 
	 "Tm": 231.15, 
	 "num_atms": 12, 
	 "gaussian": { 
		 "optdone": 1, 
		 "sigma_profile": "no", 
		 "theory": "DFT", 
		 "functional": "B3LYP", 
		 "basiset": "6-31G**", 
		 "properties": { 
			 "R2extent": 2207.7228, 
			 "electric_dipole_moment_norm": 1.53039715107, 
			 "electric_quadrupole_moment_norm": 8.7050871041, 
			 "total_energy": -342.26620464, 
			 "HOMO_LUMO_gap": 0.20114, 
			 "cosmo_polarized_energy": -97617.21, 
			 "cosmo_cavitation_energy": 19.84, 
			 "cosmo_dispersion_energy": -16.11, 
			 "cosmo_repulsion_energy": 1.27, 
			 "cosmo_total_nonelectrostatic_energy": 5.0, 
			 "SMD_solvation_energy": 3.09 
		},
		"coords": [
			{
				"x": -2.7955956789,
				"y": 1.0215251838,
				"z": 1.9119563139,
				"element": "F" 
			},
			{
				"x": -2.5939038913,
				"y": 1.1736543837,
				"z": 0.5886691194,
				"element": "C" 
			},
			{
				"x": -1.6337116717,
				"y": 0.377907463,
				"z": -0.0294361159,
				"element": "C" 
			},
			{
				"x": -1.4336170407,
				"y": 0.5442882402,
				"z": -1.4002877545,
				"element": "C" 
			},
			{
				"x": 0.019656228,
				"y": -0.6483289939,
				"z": -2.3807075867,
				"element": "I" 
			},
			{
				"x": -2.1689407763,
				"y": 1.476991303,
				"z": -2.1353847183,
				"element": "C" 
			},
			{
				"x": -3.1232112408,
				"y": 2.2557618933,
				"z": -1.4759486571,
				"element": "C" 
			},
			{
				"x": -3.3466006613,
				"y": 2.1130407464,
				"z": -0.1065931498,
				"element": "C" 
			},
			{
				"x": -1.0733107482,
				"y": -0.3397823972,
				"z": 0.55682008,
				"element": "H" 
			},
			{
				"x": -2.0035800016,
				"y": 1.5961800678,
				"z": -3.1995060618,
				"element": "H" 
			},
			{
				"x": -3.6989843164,
				"y": 2.9830738469,
				"z": -2.0404296021,
				"element": "H" 
			},
			{
				"x": -4.0828002007,
				"y": 2.7087882629,
				"z": 0.421048133,
				"element": "H" 
			}
		],
		 "valence_orbital": [ 
			{
				"type": "occ",
				"energy": -0.34583,
				"method": "rhf"
			},
			{
				"type": "occ",
				"energy": -0.30172,
				"method": "rhf"
			},
			{
				"type": "occ",
				"energy": -0.27309,
				"method": "rhf"
			},
			{
				"type": "occ",
				"energy": -0.26294,
				"method": "rhf"
			},
			{
				"type": "occ",
				"energy": -0.24558,
				"method": "rhf"
			},
			{
				"type": "unocc",
				"energy": -0.04444,
				"method": "rhf"
			},
			{
				"type": "unocc",
				"energy": -0.0276,
				"method": "rhf"
			},
			{
				"type": "unocc",
				"energy": -0.01385,
				"method": "rhf"
			},
			{
				"type": "unocc",
				"energy": 0.04141,
				"method": "rhf"
			},
			{
				"type": "unocc",
				"energy": 0.04865,
				"method": "rhf"
			}
		],
		"cosmo_sigma_profile": { 
			"0.0": 0.0,
			"0.0": 0.0,
			"0.0": 0.0,
			"0.0": 0.0,
			"0.0": 0.0,
			"0.0": 0.0,
			"0.0": 0.0,
			"0.0": 0.0,
			"0.0": 0.0,
			"0.0": 0.0,
			"0.0": 0.0,
			"0.0": 0.0,
			"0.0": 0.0,
			"0.0": 0.0,
			"0.0": 0.0,
			"0.0": 0.0,
			"0.0": 0.0,
			"0.0": 0.0,
			"0.0": 0.0,
			"0.0": 0.0,
			"0.0": 0.0,
			"0.0": 0.0,
			"0.0": 0.0,
			"0.0": 0.0,
			"0.0": 0.0,
			"0.0": 0.0,
			"0.0": 0.0,
			"0.0": 0.0,
			"0.0": 0.0,
			"0.0": 0.0,
			"0.0": 0.0,
			"0.0": 0.0,
			"0.0": 0.0,
			"0.0": 0.0,
			"0.0": 0.0,
			"0.0": 0.0,
			"0.0": 0.0,
			"0.0": 0.0,
			"0.0": 0.0,
			"0.0": 0.0,
			"0.0": 0.0,
			"0.0": 0.0,
			"0.0": 0.0,
			"0.0": 0.0,
			"0.0": 0.0,
			"0.0": 0.0,
			"0.0": 0.0,
			"0.0": 0.0,
			"0.0": 0.0,
			"0.0": 0.0,
			"0.0": 0.0
		}
	}
}
