{
	 "smiles": "Cl[Si](Cl)(Cl)C1=CC=CC=C1", 
	 "Tm": 146.15, 
	 "num_atms": 15, 
	 "gaussian": { 
		 "optdone": 1, 
		 "sigma_profile": "yes", 
		 "theory": "DFT", 
		 "functional": "B3LYP", 
		 "basiset": "6-31G**", 
		 "properties": { 
			 "R2extent": 3075.7491, 
			 "electric_dipole_moment_norm": 3.46488194027, 
			 "electric_quadrupole_moment_norm": 7.82254348917, 
			 "total_energy": -1901.88592944, 
			 "HOMO_LUMO_gap": 0.22439, 
			 "cosmo_polarized_energy": -4.17, 
			 "cosmo_cavitation_energy": 26.02, 
			 "cosmo_dispersion_energy": -17.33, 
			 "cosmo_repulsion_energy": 1.51, 
			 "cosmo_total_nonelectrostatic_energy": 10.2, 
			 "SMD_solvation_energy": 3.35 
		},
		"coords": [
			{
				"x": 1.3471767011,
				"y": -1.7771691391,
				"z": -2.3528154486,
				"element": "Cl" 
			},
			{
				"x": 0.442229631,
				"y": -1.3263553108,
				"z": -0.5509542349,
				"element": "Si" 
			},
			{
				"x": 1.8299213982,
				"y": -0.3180185,
				"z": 0.6059160841,
				"element": "Cl" 
			},
			{
				"x": -0.006630257,
				"y": -3.0944131089,
				"z": 0.4192548762,
				"element": "Cl" 
			},
			{
				"x": -1.091103029,
				"y": -0.315313479,
				"z": -0.8195233871,
				"element": "C" 
			},
			{
				"x": -2.1620649381,
				"y": -0.3848004709,
				"z": 0.0902575397,
				"element": "C" 
			},
			{
				"x": -3.2929369262,
				"y": 0.4116905112,
				"z": -0.0862970854,
				"element": "C" 
			},
			{
				"x": -3.369881203,
				"y": 1.2861975411,
				"z": -1.1719247879,
				"element": "C" 
			},
			{
				"x": -2.3152061405,
				"y": 1.3634486665,
				"z": -2.083502604,
				"element": "C" 
			},
			{
				"x": -1.1826946946,
				"y": 0.5685597202,
				"z": -1.9103490678,
				"element": "C" 
			},
			{
				"x": -2.118770203,
				"y": -1.0671738362,
				"z": 0.9339634942,
				"element": "H" 
			},
			{
				"x": -4.1144224881,
				"y": 0.3462017739,
				"z": 0.6208878729,
				"element": "H" 
			},
			{
				"x": -4.2524227934,
				"y": 1.9043057072,
				"z": -1.3094169834,
				"element": "H" 
			},
			{
				"x": -2.3753301464,
				"y": 2.0390827592,
				"z": -2.9315243259,
				"element": "H" 
			},
			{
				"x": -0.3732649108,
				"y": 0.6319571655,
				"z": -2.6315719423,
				"element": "H" 
			}
		],
		 "valence_orbital": [ 
			{
				"type": "occ",
				"energy": -0.33513,
				"method": "rhf"
			},
			{
				"type": "occ",
				"energy": -0.32794,
				"method": "rhf"
			},
			{
				"type": "occ",
				"energy": -0.32258,
				"method": "rhf"
			},
			{
				"type": "occ",
				"energy": -0.27534,
				"method": "rhf"
			},
			{
				"type": "occ",
				"energy": -0.27192,
				"method": "rhf"
			},
			{
				"type": "unocc",
				"energy": -0.04753,
				"method": "rhf"
			},
			{
				"type": "unocc",
				"energy": -0.02343,
				"method": "rhf"
			},
			{
				"type": "unocc",
				"energy": -0.00962,
				"method": "rhf"
			},
			{
				"type": "unocc",
				"energy": 0.02328,
				"method": "rhf"
			},
			{
				"type": "unocc",
				"energy": 0.05357,
				"method": "rhf"
			}
		],
		"cosmo_sigma_profile": { 
			"-0.025": 0.0,
			"-0.024": 0.0,
			"-0.023": 0.0,
			"-0.022": 0.0,
			"-0.021": 0.0,
			"-0.02": 0.0,
			"-0.019": 0.0,
			"-0.018": 0.0,
			"-0.017": 0.0,
			"-0.016": 0.0,
			"-0.015": 0.0,
			"-0.014": 0.0,
			"-0.013": 0.0,
			"-0.012": 0.0,
			"-0.011": 0.0,
			"-0.01": 0.0,
			"-0.009": 0.0,
			"-0.008": 0.0,
			"-0.007": 3.04839503596,
			"-0.006": 13.7491872726,
			"-0.005": 12.3988554831,
			"-0.004": 11.103215177,
			"-0.003": 9.08879565899,
			"-0.002": 10.954584492,
			"-0.001": 15.5165242988,
			"0.0": 23.1363295681,
			"0.001": 26.4619890987,
			"0.002": 30.5509444947,
			"0.003": 41.0353064921,
			"0.004": 15.38174223,
			"0.005": 0.0,
			"0.006": 0.0,
			"0.007": 0.0,
			"0.008": 0.0,
			"0.009": 0.0,
			"0.01": 0.0,
			"0.011": 0.0,
			"0.012": 0.0,
			"0.013": 0.0,
			"0.014": 0.0,
			"0.015": 0.0,
			"0.016": 0.0,
			"0.017": 0.0,
			"0.018": 0.0,
			"0.019": 0.0,
			"0.02": 0.0,
			"0.021": 0.0,
			"0.022": 0.0,
			"0.023": 0.0,
			"0.024": 0.0,
			"0.025": 0.0
		}
	}
}
