{
	 "smiles": "ClCC(=O)NC1=CC(=CC=C1)C#N", 
	 "Tm": 417.15, 
	 "num_atms": 20, 
	 "gaussian": { 
		 "optdone": 1, 
		 "sigma_profile": "yes", 
		 "theory": "DFT", 
		 "functional": "B3LYP", 
		 "basiset": "6-31G**", 
		 "properties": { 
			 "R2extent": 4292.0867, 
			 "electric_dipole_moment_norm": 2.41009741504, 
			 "electric_quadrupole_moment_norm": 22.5800708641, 
			 "total_energy": -992.085995376, 
			 "HOMO_LUMO_gap": 0.1907, 
			 "cosmo_polarized_energy": -17.12, 
			 "cosmo_cavitation_energy": 27.67, 
			 "cosmo_dispersion_energy": -19.52, 
			 "cosmo_repulsion_energy": 1.56, 
			 "cosmo_total_nonelectrostatic_energy": 9.71, 
			 "SMD_solvation_energy": 6.61 
		},
		"coords": [
			{
				"x": 2.6025984939,
				"y": -2.2392146242,
				"z": -3.1406960828,
				"element": "Cl" 
			},
			{
				"x": 3.1852766383,
				"y": -1.8097655398,
				"z": -1.4778671187,
				"element": "C" 
			},
			{
				"x": 3.5900358902,
				"y": -0.3404337467,
				"z": -1.4011186824,
				"element": "C" 
			},
			{
				"x": 4.6978765762,
				"y": 0.0228061908,
				"z": -1.7559306783,
				"element": "O" 
			},
			{
				"x": 2.6928494367,
				"y": 0.568052432,
				"z": -0.8700215332,
				"element": "N" 
			},
			{
				"x": 1.3793905331,
				"y": 0.42164489,
				"z": -0.3674119915,
				"element": "C" 
			},
			{
				"x": 1.0378384103,
				"y": 1.1218453578,
				"z": 0.7961662347,
				"element": "C" 
			},
			{
				"x": -0.2641256808,
				"y": 1.0412349653,
				"z": 1.3085757051,
				"element": "C" 
			},
			{
				"x": -1.2301551774,
				"y": 0.2441356966,
				"z": 0.6723242466,
				"element": "C" 
			},
			{
				"x": -0.8815226511,
				"y": -0.4451464462,
				"z": -0.4853584854,
				"element": "C" 
			},
			{
				"x": 0.4041966759,
				"y": -0.3482796576,
				"z": -1.0193462321,
				"element": "C" 
			},
			{
				"x": -0.6020919956,
				"y": 1.7682270184,
				"z": 2.4988802632,
				"element": "C" 
			},
			{
				"x": -0.8772402373,
				"y": 2.3569088912,
				"z": 3.4633600758,
				"element": "N" 
			},
			{
				"x": 2.3993573189,
				"y": -2.0876604968,
				"z": -0.7766135735,
				"element": "H" 
			},
			{
				"x": 4.0835050123,
				"y": -2.399339059,
				"z": -1.3032401608,
				"element": "H" 
			},
			{
				"x": 3.1249841056,
				"y": 1.4769662138,
				"z": -0.7491845554,
				"element": "H" 
			},
			{
				"x": 1.7824607988,
				"y": 1.7221699305,
				"z": 1.3088891328,
				"element": "H" 
			},
			{
				"x": -2.2325169549,
				"y": 0.1814687539,
				"z": 1.0806002073,
				"element": "H" 
			},
			{
				"x": -1.6243037617,
				"y": -1.0488139751,
				"z": -0.997128427,
				"element": "H" 
			},
			{
				"x": 0.6417865688,
				"y": -0.8478067947,
				"z": -1.9515783445,
				"element": "H" 
			}
		],
		 "valence_orbital": [ 
			{
				"type": "occ",
				"energy": -0.32421,
				"method": "rhf"
			},
			{
				"type": "occ",
				"energy": -0.31632,
				"method": "rhf"
			},
			{
				"type": "occ",
				"energy": -0.28405,
				"method": "rhf"
			},
			{
				"type": "occ",
				"energy": -0.27923,
				"method": "rhf"
			},
			{
				"type": "occ",
				"energy": -0.2579,
				"method": "rhf"
			},
			{
				"type": "unocc",
				"energy": -0.0672,
				"method": "rhf"
			},
			{
				"type": "unocc",
				"energy": -0.05298,
				"method": "rhf"
			},
			{
				"type": "unocc",
				"energy": -0.02694,
				"method": "rhf"
			},
			{
				"type": "unocc",
				"energy": 0.02525,
				"method": "rhf"
			},
			{
				"type": "unocc",
				"energy": 0.04113,
				"method": "rhf"
			}
		],
		"cosmo_sigma_profile": { 
			"-0.025": 0.0,
			"-0.024": 0.0,
			"-0.023": 0.0,
			"-0.022": 0.0,
			"-0.021": 0.0,
			"-0.02": 0.0,
			"-0.019": 0.0,
			"-0.018": 0.0,
			"-0.017": 0.0,
			"-0.016": 0.268243117318,
			"-0.015": 0.997189832481,
			"-0.014": 1.62201417081,
			"-0.013": 0.945728732814,
			"-0.012": 0.953742981012,
			"-0.011": 1.44077716048,
			"-0.01": 1.62526843812,
			"-0.009": 4.32629735726,
			"-0.008": 9.46520639281,
			"-0.007": 12.9309700923,
			"-0.006": 12.5358670794,
			"-0.005": 11.0960907956,
			"-0.004": 10.7928805295,
			"-0.003": 10.237039809,
			"-0.002": 15.3092304569,
			"-0.001": 13.7448466422,
			"0.0": 17.4497801009,
			"0.001": 16.8847318205,
			"0.002": 13.2752773624,
			"0.003": 9.85952043832,
			"0.004": 7.76861335783,
			"0.005": 11.57514381,
			"0.006": 5.9767882373,
			"0.007": 3.55966134043,
			"0.008": 4.50891544007,
			"0.009": 4.56271223583,
			"0.01": 4.80445344789,
			"0.011": 5.22020653663,
			"0.012": 7.81968133853,
			"0.013": 3.65779869073,
			"0.014": 0.119621347686,
			"0.015": 0.0,
			"0.016": 0.0,
			"0.017": 0.0,
			"0.018": 0.0,
			"0.019": 0.0,
			"0.02": 0.0,
			"0.021": 0.0,
			"0.022": 0.0,
			"0.023": 0.0,
			"0.024": 0.0,
			"0.025": 0.0
		}
	}
}
