{
	 "smiles": "CC1=NNC=C1", 
	 "Tm": 309.65, 
	 "num_atms": 12, 
	 "gaussian": { 
		 "optdone": 1, 
		 "sigma_profile": "yes", 
		 "theory": "DFT", 
		 "functional": "B3LYP", 
		 "basiset": "6-31G**", 
		 "properties": { 
			 "R2extent": 936.8965, 
			 "electric_dipole_moment_norm": 1.91276740876, 
			 "electric_quadrupole_moment_norm": 10.1621618443, 
			 "total_energy": -265.523780966, 
			 "HOMO_LUMO_gap": 0.26209, 
			 "cosmo_polarized_energy": -8.63, 
			 "cosmo_cavitation_energy": 15.55, 
			 "cosmo_dispersion_energy": -11.91, 
			 "cosmo_repulsion_energy": 1.04, 
			 "cosmo_total_nonelectrostatic_energy": 4.68, 
			 "SMD_solvation_energy": 2.4 
		},
		"coords": [
			{
				"x": 0.800502352,
				"y": 0.1510860014,
				"z": -0.7834918939,
				"element": "C" 
			},
			{
				"x": 0.7297496634,
				"y": 0.6663432069,
				"z": 0.6246477789,
				"element": "C" 
			},
			{
				"x": 0.0011094491,
				"y": 1.7466706644,
				"z": 0.9203623332,
				"element": "N" 
			},
			{
				"x": 0.1683966861,
				"y": 1.9145035401,
				"z": 2.2502006516,
				"element": "N" 
			},
			{
				"x": 0.9773659914,
				"y": 0.9794516935,
				"z": 2.8109105207,
				"element": "C" 
			},
			{
				"x": 1.3647426581,
				"y": 0.14534462,
				"z": 1.7807114163,
				"element": "C" 
			},
			{
				"x": 1.2081535853,
				"y": 0.9071284677,
				"z": -1.4625163571,
				"element": "H" 
			},
			{
				"x": 1.4387463753,
				"y": -0.7346347172,
				"z": -0.8389344941,
				"element": "H" 
			},
			{
				"x": -0.1922342936,
				"y": -0.1211332029,
				"z": -1.1566217862,
				"element": "H" 
			},
			{
				"x": -0.296261574,
				"y": 2.683229306,
				"z": 2.7067128268,
				"element": "H" 
			},
			{
				"x": 1.2072389422,
				"y": 0.9803544614,
				"z": 3.8664181494,
				"element": "H" 
			},
			{
				"x": 2.0120901647,
				"y": -0.7167440414,
				"z": 1.8468008544,
				"element": "H" 
			}
		],
		 "valence_orbital": [ 
			{
				"type": "occ",
				"energy": -0.38398,
				"method": "rhf"
			},
			{
				"type": "occ",
				"energy": -0.36682,
				"method": "rhf"
			},
			{
				"type": "occ",
				"energy": -0.27765,
				"method": "rhf"
			},
			{
				"type": "occ",
				"energy": -0.24087,
				"method": "rhf"
			},
			{
				"type": "occ",
				"energy": -0.23684,
				"method": "rhf"
			},
			{
				"type": "unocc",
				"energy": 0.02525,
				"method": "rhf"
			},
			{
				"type": "unocc",
				"energy": 0.07926,
				"method": "rhf"
			},
			{
				"type": "unocc",
				"energy": 0.0846,
				"method": "rhf"
			},
			{
				"type": "unocc",
				"energy": 0.12375,
				"method": "rhf"
			},
			{
				"type": "unocc",
				"energy": 0.13761,
				"method": "rhf"
			}
		],
		"cosmo_sigma_profile": { 
			"-0.025": 0.0,
			"-0.024": 0.0,
			"-0.023": 0.0,
			"-0.022": 0.0,
			"-0.021": 0.0,
			"-0.02": 0.0,
			"-0.019": 0.0,
			"-0.018": 0.0,
			"-0.017": 0.00436789929821,
			"-0.016": 1.32908187772,
			"-0.015": 1.67799471247,
			"-0.014": 1.27357932285,
			"-0.013": 0.588500665474,
			"-0.012": 0.95372164277,
			"-0.011": 1.09268452915,
			"-0.01": 1.14987462195,
			"-0.009": 1.8004388704,
			"-0.008": 3.02079446207,
			"-0.007": 2.53982962991,
			"-0.006": 3.31630014308,
			"-0.005": 3.8496811278,
			"-0.004": 9.01129615991,
			"-0.003": 9.74719386123,
			"-0.002": 9.47631764843,
			"-0.001": 8.74880542526,
			"0.0": 11.0974752148,
			"0.001": 8.09404294895,
			"0.002": 5.0925176371,
			"0.003": 5.71070113603,
			"0.004": 5.22658948756,
			"0.005": 6.5671776755,
			"0.006": 7.01971574859,
			"0.007": 3.13389857128,
			"0.008": 1.81946306261,
			"0.009": 1.23178689423,
			"0.01": 1.37192838985,
			"0.011": 1.63891043752,
			"0.012": 0.906841813977,
			"0.013": 1.10833562938,
			"0.014": 1.18186756411,
			"0.015": 1.12070408129,
			"0.016": 0.926741841656,
			"0.017": 0.655161159164,
			"0.018": 0.043536801669,
			"0.019": 0.0,
			"0.02": 0.0,
			"0.021": 0.0,
			"0.022": 0.0,
			"0.023": 0.0,
			"0.024": 0.0,
			"0.025": 0.0
		}
	}
}
