{
	 "smiles": "CC1=NC(=CC=C1)S(N)(=O)=O", 
	 "Tm": 439.15, 
	 "num_atms": 19, 
	 "gaussian": { 
		 "optdone": 1, 
		 "sigma_profile": "yes", 
		 "theory": "DFT", 
		 "functional": "B3LYP", 
		 "basiset": "6-31G**", 
		 "properties": { 
			 "R2extent": 2328.8846, 
			 "electric_dipole_moment_norm": 4.42507977329, 
			 "electric_quadrupole_moment_norm": 14.1912999447, 
			 "total_energy": -891.530106362, 
			 "HOMO_LUMO_gap": 0.21929, 
			 "cosmo_polarized_energy": -16.96, 
			 "cosmo_cavitation_energy": 24.73, 
			 "cosmo_dispersion_energy": -18.75, 
			 "cosmo_repulsion_energy": 1.49, 
			 "cosmo_total_nonelectrostatic_energy": 7.46, 
			 "SMD_solvation_energy": 2.82 
		},
		"coords": [
			{
				"x": -2.7162080202,
				"y": -0.4945536188,
				"z": -0.1853768521,
				"element": "C" 
			},
			{
				"x": -1.5035027937,
				"y": -0.0140500326,
				"z": -0.9391533671,
				"element": "C" 
			},
			{
				"x": -0.3349697091,
				"y": -0.0416071013,
				"z": -0.2776990333,
				"element": "N" 
			},
			{
				"x": 0.7498048262,
				"y": 0.3670577483,
				"z": -0.9209164949,
				"element": "C" 
			},
			{
				"x": 0.7933558059,
				"y": 0.8303104828,
				"z": -2.231934234,
				"element": "C" 
			},
			{
				"x": -0.4229484377,
				"y": 0.8653227998,
				"z": -2.9147770101,
				"element": "C" 
			},
			{
				"x": -1.5794383734,
				"y": 0.4405557851,
				"z": -2.2647342083,
				"element": "C" 
			},
			{
				"x": 2.275586638,
				"y": 0.3427960167,
				"z": 0.0555314223,
				"element": "S" 
			},
			{
				"x": 2.390678452,
				"y": -1.2942372858,
				"z": 0.4612334635,
				"element": "N" 
			},
			{
				"x": 2.0585109539,
				"y": 1.1506851881,
				"z": 1.2574462862,
				"element": "O" 
			},
			{
				"x": 3.3956580534,
				"y": 0.6127055933,
				"z": -0.8525436908,
				"element": "O" 
			},
			{
				"x": -3.6283333929,
				"y": -0.3897630792,
				"z": -0.7776793354,
				"element": "H" 
			},
			{
				"x": -2.832050296,
				"y": 0.070528035,
				"z": 0.7445597781,
				"element": "H" 
			},
			{
				"x": -2.5991319066,
				"y": -1.5476558945,
				"z": 0.0910707996,
				"element": "H" 
			},
			{
				"x": 1.7310391781,
				"y": 1.1385107246,
				"z": -2.6775407148,
				"element": "H" 
			},
			{
				"x": -0.4667350835,
				"y": 1.2185223779,
				"z": -3.9408098403,
				"element": "H" 
			},
			{
				"x": -2.5376252289,
				"y": 0.4577211209,
				"z": -2.7742481781,
				"element": "H" 
			},
			{
				"x": 3.3713201745,
				"y": -1.5612852484,
				"z": 0.4270474277,
				"element": "H" 
			},
			{
				"x": 1.9836891599,
				"y": -1.465563612,
				"z": 1.3769237818,
				"element": "H" 
			}
		],
		 "valence_orbital": [ 
			{
				"type": "occ",
				"energy": -0.31143,
				"method": "rhf"
			},
			{
				"type": "occ",
				"energy": -0.29761,
				"method": "rhf"
			},
			{
				"type": "occ",
				"energy": -0.28808,
				"method": "rhf"
			},
			{
				"type": "occ",
				"energy": -0.27332,
				"method": "rhf"
			},
			{
				"type": "occ",
				"energy": -0.2685,
				"method": "rhf"
			},
			{
				"type": "unocc",
				"energy": -0.04921,
				"method": "rhf"
			},
			{
				"type": "unocc",
				"energy": -0.0313,
				"method": "rhf"
			},
			{
				"type": "unocc",
				"energy": 0.05585,
				"method": "rhf"
			},
			{
				"type": "unocc",
				"energy": 0.08475,
				"method": "rhf"
			},
			{
				"type": "unocc",
				"energy": 0.08747,
				"method": "rhf"
			}
		],
		"cosmo_sigma_profile": { 
			"-0.025": 0.0,
			"-0.024": 0.0,
			"-0.023": 0.0,
			"-0.022": 0.0,
			"-0.021": 0.0,
			"-0.02": 0.0,
			"-0.019": 0.0,
			"-0.018": 0.0,
			"-0.017": 0.0,
			"-0.016": 0.10572196724,
			"-0.015": 1.97249917957,
			"-0.014": 2.27781060814,
			"-0.013": 1.9484303424,
			"-0.012": 3.04067364818,
			"-0.011": 2.11515461405,
			"-0.01": 1.92617250298,
			"-0.009": 0.986718206612,
			"-0.008": 4.35663306572,
			"-0.007": 9.58404686384,
			"-0.006": 9.37774657532,
			"-0.005": 11.1357187779,
			"-0.004": 10.6760429846,
			"-0.003": 10.6785472737,
			"-0.002": 13.8713841943,
			"-0.001": 17.8089001411,
			"0.0": 16.9669679173,
			"0.001": 14.0749157259,
			"0.002": 6.73102258429,
			"0.003": 4.18820776433,
			"0.004": 3.5055679788,
			"0.005": 4.08089999166,
			"0.006": 3.45110593227,
			"0.007": 3.90773479186,
			"0.008": 6.60408117946,
			"0.009": 5.10861695437,
			"0.01": 8.42271825153,
			"0.011": 13.6217159194,
			"0.012": 4.33471747028,
			"0.013": 0.0767208448796,
			"0.014": 0.0,
			"0.015": 0.0,
			"0.016": 0.0,
			"0.017": 0.0,
			"0.018": 0.0,
			"0.019": 0.0,
			"0.02": 0.0,
			"0.021": 0.0,
			"0.022": 0.0,
			"0.023": 0.0,
			"0.024": 0.0,
			"0.025": 0.0
		}
	}
}
