{
	 "smiles": "CCN(CC)C(=O)C1=CC=CC=C1CC(=O)C1=CC=CC=C1C", 
	 "Tm": 320.15, 
	 "num_atms": 46, 
	 "gaussian": { 
		 "optdone": 1, 
		 "sigma_profile": "yes", 
		 "theory": "DFT", 
		 "functional": "B3LYP", 
		 "basiset": "6-31G**", 
		 "properties": { 
			 "R2extent": 8489.8062, 
			 "electric_dipole_moment_norm": 3.8320762649, 
			 "electric_quadrupole_moment_norm": 14.4803301502, 
			 "total_energy": -981.220057114, 
			 "HOMO_LUMO_gap": 0.1838, 
			 "cosmo_polarized_energy": -12.91, 
			 "cosmo_cavitation_energy": 46.99, 
			 "cosmo_dispersion_energy": -31.36, 
			 "cosmo_repulsion_energy": 2.39, 
			 "cosmo_total_nonelectrostatic_energy": 18.02, 
			 "SMD_solvation_energy": 8.23 
		},
		"coords": [
			{
				"x": -0.2725591355,
				"y": 4.2164324348,
				"z": 1.9858156752,
				"element": "C" 
			},
			{
				"x": -0.7533804728,
				"y": 2.9175406981,
				"z": 2.6421238922,
				"element": "C" 
			},
			{
				"x": -1.7604611051,
				"y": 2.1909099963,
				"z": 1.8625811261,
				"element": "N" 
			},
			{
				"x": -3.085138131,
				"y": 2.8129351063,
				"z": 1.6960512962,
				"element": "C" 
			},
			{
				"x": -3.3074046735,
				"y": 3.4935992523,
				"z": 0.3413958194,
				"element": "C" 
			},
			{
				"x": -1.5569699317,
				"y": 0.9904481911,
				"z": 1.2376448738,
				"element": "C" 
			},
			{
				"x": -2.4208975772,
				"y": 0.5047257878,
				"z": 0.4978889668,
				"element": "O" 
			},
			{
				"x": -0.2767244399,
				"y": 0.2326788365,
				"z": 1.5005564701,
				"element": "C" 
			},
			{
				"x": -0.0485994079,
				"y": -0.2778268608,
				"z": 2.7877178242,
				"element": "C" 
			},
			{
				"x": 1.0709825688,
				"y": -1.0598258011,
				"z": 3.0614011787,
				"element": "C" 
			},
			{
				"x": 1.9865583936,
				"y": -1.3230219448,
				"z": 2.0420685392,
				"element": "C" 
			},
			{
				"x": 1.7647209187,
				"y": -0.8233367683,
				"z": 0.7601474195,
				"element": "C" 
			},
			{
				"x": 0.6273924497,
				"y": -0.0596640193,
				"z": 0.459253341,
				"element": "C" 
			},
			{
				"x": 0.4307955039,
				"y": 0.4698276107,
				"z": -0.9573773316,
				"element": "C" 
			},
			{
				"x": 0.8107617323,
				"y": -0.5578788188,
				"z": -2.0378316292,
				"element": "C" 
			},
			{
				"x": 1.9470531847,
				"y": -0.5081633494,
				"z": -2.4973391779,
				"element": "O" 
			},
			{
				"x": -0.1841497215,
				"y": -1.5793409125,
				"z": -2.4793569361,
				"element": "C" 
			},
			{
				"x": -1.4201887038,
				"y": -1.6755815743,
				"z": -1.8110888271,
				"element": "C" 
			},
			{
				"x": -2.3702645673,
				"y": -2.6226894685,
				"z": -2.1828176455,
				"element": "C" 
			},
			{
				"x": -2.0996377308,
				"y": -3.486963592,
				"z": -3.2416667959,
				"element": "C" 
			},
			{
				"x": -0.8809490019,
				"y": -3.3984085177,
				"z": -3.9140842497,
				"element": "C" 
			},
			{
				"x": 0.0991653548,
				"y": -2.4638800558,
				"z": -3.5585942325,
				"element": "C" 
			},
			{
				"x": 1.387989162,
				"y": -2.4510513614,
				"z": -4.3458050246,
				"element": "C" 
			},
			{
				"x": 0.1583328637,
				"y": 4.0192924983,
				"z": 0.9995234086,
				"element": "H" 
			},
			{
				"x": 0.4985588066,
				"y": 4.680083685,
				"z": 2.6099631632,
				"element": "H" 
			},
			{
				"x": -1.0830708299,
				"y": 4.9412182795,
				"z": 1.8672144586,
				"element": "H" 
			},
			{
				"x": -1.1756617776,
				"y": 3.1385083538,
				"z": 3.6318302592,
				"element": "H" 
			},
			{
				"x": 0.0975561512,
				"y": 2.2564270318,
				"z": 2.799895027,
				"element": "H" 
			},
			{
				"x": -3.8355665357,
				"y": 2.0283645445,
				"z": 1.8274768505,
				"element": "H" 
			},
			{
				"x": -3.2044252232,
				"y": 3.532408977,
				"z": 2.5130492375,
				"element": "H" 
			},
			{
				"x": -2.5834331006,
				"y": 4.2932673573,
				"z": 0.1617487903,
				"element": "H" 
			},
			{
				"x": -3.2277446169,
				"y": 2.7585485431,
				"z": -0.4614774978,
				"element": "H" 
			},
			{
				"x": -4.311156608,
				"y": 3.9309525873,
				"z": 0.3083428607,
				"element": "H" 
			},
			{
				"x": -0.7653909048,
				"y": -0.0636609118,
				"z": 3.5760440761,
				"element": "H" 
			},
			{
				"x": 1.2273532302,
				"y": -1.4558147099,
				"z": 4.0604364698,
				"element": "H" 
			},
			{
				"x": 2.8716129436,
				"y": -1.9202059466,
				"z": 2.2417505647,
				"element": "H" 
			},
			{
				"x": 2.4808622089,
				"y": -1.0270913135,
				"z": -0.0299297286,
				"element": "H" 
			},
			{
				"x": -0.5914962044,
				"y": 0.8239276331,
				"z": -1.0907453034,
				"element": "H" 
			},
			{
				"x": 1.1110249622,
				"y": 1.3120235878,
				"z": -1.1236816506,
				"element": "H" 
			},
			{
				"x": -1.655399648,
				"y": -1.0126030051,
				"z": -0.9849515282,
				"element": "H" 
			},
			{
				"x": -3.3137095928,
				"y": -2.6776731598,
				"z": -1.6483092534,
				"element": "H" 
			},
			{
				"x": -2.8325980997,
				"y": -4.2285676054,
				"z": -3.5480257081,
				"element": "H" 
			},
			{
				"x": -0.6778882789,
				"y": -4.0742972192,
				"z": -4.7407800856,
				"element": "H" 
			},
			{
				"x": 1.5944151627,
				"y": -1.4661893111,
				"z": -4.7731893261,
				"element": "H" 
			},
			{
				"x": 1.3371220074,
				"y": -3.1848631915,
				"z": -5.1558785632,
				"element": "H" 
			},
			{
				"x": 2.2488084152,
				"y": -2.6822215741,
				"z": -3.7127910939,
				"element": "H" 
			}
		],
		 "valence_orbital": [ 
			{
				"type": "occ",
				"energy": -0.24689,
				"method": "rhf"
			},
			{
				"type": "occ",
				"energy": -0.24442,
				"method": "rhf"
			},
			{
				"type": "occ",
				"energy": -0.24093,
				"method": "rhf"
			},
			{
				"type": "occ",
				"energy": -0.23633,
				"method": "rhf"
			},
			{
				"type": "occ",
				"energy": -0.23136,
				"method": "rhf"
			},
			{
				"type": "unocc",
				"energy": -0.04756,
				"method": "rhf"
			},
			{
				"type": "unocc",
				"energy": -0.01851,
				"method": "rhf"
			},
			{
				"type": "unocc",
				"energy": -0.00955,
				"method": "rhf"
			},
			{
				"type": "unocc",
				"energy": 0.00864,
				"method": "rhf"
			},
			{
				"type": "unocc",
				"energy": 0.02929,
				"method": "rhf"
			}
		],
		"cosmo_sigma_profile": { 
			"-0.025": 0.0,
			"-0.024": 0.0,
			"-0.023": 0.0,
			"-0.022": 0.0,
			"-0.021": 0.0,
			"-0.02": 0.0,
			"-0.019": 0.0,
			"-0.018": 0.0,
			"-0.017": 0.0,
			"-0.016": 0.0,
			"-0.015": 0.0,
			"-0.014": 0.0,
			"-0.013": 0.0,
			"-0.012": 0.0,
			"-0.011": 0.0,
			"-0.01": 0.0,
			"-0.009": 0.0,
			"-0.008": 0.0,
			"-0.007": 0.876047794251,
			"-0.006": 10.2247266954,
			"-0.005": 21.7735674227,
			"-0.004": 34.509494257,
			"-0.003": 44.3391856619,
			"-0.002": 43.3486713954,
			"-0.001": 35.6599605883,
			"0.0": 36.3609547997,
			"0.001": 35.5281962011,
			"0.002": 23.8625773219,
			"0.003": 20.3108769576,
			"0.004": 22.9104271757,
			"0.005": 14.8136292575,
			"0.006": 3.36075435359,
			"0.007": 3.35724564912,
			"0.008": 3.39867794111,
			"0.009": 3.60396539813,
			"0.01": 2.63674696857,
			"0.011": 3.20460180387,
			"0.012": 3.7661847855,
			"0.013": 3.29870856346,
			"0.014": 0.606889682201,
			"0.015": 0.0,
			"0.016": 0.0,
			"0.017": 0.0,
			"0.018": 0.0,
			"0.019": 0.0,
			"0.02": 0.0,
			"0.021": 0.0,
			"0.022": 0.0,
			"0.023": 0.0,
			"0.024": 0.0,
			"0.025": 0.0
		}
	}
}
