{
	 "smiles": "OC(=O)C1=CSC2=CN=CN12", 
	 "Tm": 503.15, 
	 "num_atms": 15, 
	 "gaussian": { 
		 "optdone": 1, 
		 "sigma_profile": "yes", 
		 "theory": "DFT", 
		 "functional": "B3LYP", 
		 "basiset": "6-31G**", 
		 "properties": { 
			 "R2extent": 2317.1537, 
			 "electric_dipole_moment_norm": 1.88775196729, 
			 "electric_quadrupole_moment_norm": 17.6855884807, 
			 "total_energy": -889.164100986, 
			 "HOMO_LUMO_gap": 0.1469, 
			 "cosmo_polarized_energy": -13.12, 
			 "cosmo_cavitation_energy": 21.73, 
			 "cosmo_dispersion_energy": -16.92, 
			 "cosmo_repulsion_energy": 1.28, 
			 "cosmo_total_nonelectrostatic_energy": 6.1, 
			 "SMD_solvation_energy": 3.92 
		},
		"coords": [
			{
				"x": 1.4904496249,
				"y": 0.5876238989,
				"z": -0.1940384351,
				"element": "O" 
			},
			{
				"x": 0.2816049519,
				"y": 1.0121811042,
				"z": -0.6334458586,
				"element": "C" 
			},
			{
				"x": 0.1358929009,
				"y": 1.7067955466,
				"z": -1.61779062,
				"element": "O" 
			},
			{
				"x": -0.8253343058,
				"y": 0.5381512926,
				"z": 0.2131494807,
				"element": "C" 
			},
			{
				"x": -2.1259557534,
				"y": 0.8406214841,
				"z": -0.0361942666,
				"element": "C" 
			},
			{
				"x": -3.2366763945,
				"y": 0.1538237936,
				"z": 1.1189450658,
				"element": "S" 
			},
			{
				"x": -1.888958032,
				"y": -0.5765662602,
				"z": 1.9807651701,
				"element": "C" 
			},
			{
				"x": -1.5737637902,
				"y": -1.3584797807,
				"z": 3.0669546976,
				"element": "C" 
			},
			{
				"x": -0.2105704509,
				"y": -1.5300099927,
				"z": 3.1176717554,
				"element": "N" 
			},
			{
				"x": 0.3052197281,
				"y": -0.8761110067,
				"z": 2.0965225863,
				"element": "C" 
			},
			{
				"x": -0.6820170763,
				"y": -0.2653151506,
				"z": 1.355367891,
				"element": "N" 
			},
			{
				"x": 2.1471469947,
				"y": 0.9492337728,
				"z": -0.812605351,
				"element": "H" 
			},
			{
				"x": -2.472288124,
				"y": 1.4456024135,
				"z": -0.8617380539,
				"element": "H" 
			},
			{
				"x": -2.2343727046,
				"y": -1.7982017379,
				"z": 3.799217909,
				"element": "H" 
			},
			{
				"x": 1.3481224312,
				"y": -0.8008493775,
				"z": 1.8365180292,
				"element": "H" 
			}
		],
		 "valence_orbital": [ 
			{
				"type": "occ",
				"energy": -0.31898,
				"method": "rhf"
			},
			{
				"type": "occ",
				"energy": -0.30223,
				"method": "rhf"
			},
			{
				"type": "occ",
				"energy": -0.27286,
				"method": "rhf"
			},
			{
				"type": "occ",
				"energy": -0.26367,
				"method": "rhf"
			},
			{
				"type": "occ",
				"energy": -0.21474,
				"method": "rhf"
			},
			{
				"type": "unocc",
				"energy": -0.06784,
				"method": "rhf"
			},
			{
				"type": "unocc",
				"energy": -0.00326,
				"method": "rhf"
			},
			{
				"type": "unocc",
				"energy": 0.01057,
				"method": "rhf"
			},
			{
				"type": "unocc",
				"energy": 0.05787,
				"method": "rhf"
			},
			{
				"type": "unocc",
				"energy": 0.06079,
				"method": "rhf"
			}
		],
		"cosmo_sigma_profile": { 
			"-0.025": 0.0,
			"-0.024": 0.0,
			"-0.023": 0.0,
			"-0.022": 0.0,
			"-0.021": 0.0,
			"-0.02": 0.00236792917451,
			"-0.019": 0.649117233882,
			"-0.018": 1.09893760012,
			"-0.017": 0.912308249657,
			"-0.016": 0.668630476553,
			"-0.015": 0.749407325539,
			"-0.014": 0.635396295845,
			"-0.013": 1.28469337029,
			"-0.012": 0.623492661216,
			"-0.011": 1.86972656743,
			"-0.01": 2.04249806695,
			"-0.009": 2.52976683017,
			"-0.008": 3.89267182632,
			"-0.007": 6.05052135033,
			"-0.006": 5.76216409562,
			"-0.005": 6.14455556912,
			"-0.004": 9.58356269613,
			"-0.003": 11.6887305184,
			"-0.002": 14.6597257231,
			"-0.001": 15.5445418023,
			"0.0": 16.1995251885,
			"0.001": 14.4073971692,
			"0.002": 10.9920396675,
			"0.003": 8.2957037266,
			"0.004": 6.8583092904,
			"0.005": 4.45746599348,
			"0.006": 3.41879990136,
			"0.007": 2.7592240251,
			"0.008": 3.04622450408,
			"0.009": 3.41007422644,
			"0.01": 4.6182116477,
			"0.011": 6.32143658845,
			"0.012": 1.54108576551,
			"0.013": 0.960801958464,
			"0.014": 1.10794166008,
			"0.015": 1.28154950495,
			"0.016": 1.08378924945,
			"0.017": 0.819974285631,
			"0.018": 0.166728873771,
			"0.019": 0.0,
			"0.02": 0.0,
			"0.021": 0.0,
			"0.022": 0.0,
			"0.023": 0.0,
			"0.024": 0.0,
			"0.025": 0.0
		}
	}
}
