{
	 "smiles": "NS(=O)(=O)C1=C(F)C=CC(=C1)[N+]([O-])=O", 
	 "Tm": 413.15, 
	 "num_atms": 19, 
	 "gaussian": { 
		 "optdone": 1, 
		 "sigma_profile": "yes", 
		 "theory": "DFT", 
		 "functional": "B3LYP", 
		 "basiset": "6-31G**", 
		 "properties": { 
			 "R2extent": 3799.4155, 
			 "electric_dipole_moment_norm": 5.13829381604, 
			 "electric_quadrupole_moment_norm": 17.0003671743, 
			 "total_energy": -1139.89360841, 
			 "HOMO_LUMO_gap": 0.18865, 
			 "cosmo_polarized_energy": -17.84, 
			 "cosmo_cavitation_energy": 26.59, 
			 "cosmo_dispersion_energy": -19.9, 
			 "cosmo_repulsion_energy": 1.5, 
			 "cosmo_total_nonelectrostatic_energy": 8.18, 
			 "SMD_solvation_energy": 6.97 
		},
		"coords": [
			{
				"x": 0.4912482301,
				"y": -0.9657814183,
				"z": -3.4058126359,
				"element": "N" 
			},
			{
				"x": -0.4299026806,
				"y": -0.6798693243,
				"z": -2.025046737,
				"element": "S" 
			},
			{
				"x": -1.1570255051,
				"y": -1.9121511474,
				"z": -1.7189913279,
				"element": "O" 
			},
			{
				"x": -1.1020748848,
				"y": 0.6092633017,
				"z": -2.1735885996,
				"element": "O" 
			},
			{
				"x": 0.8275796552,
				"y": -0.5003786741,
				"z": -0.7535017839,
				"element": "C" 
			},
			{
				"x": 1.8065998134,
				"y": 0.4939103018,
				"z": -0.8410003024,
				"element": "C" 
			},
			{
				"x": 1.8412977324,
				"y": 1.2869330462,
				"z": -1.9176576357,
				"element": "F" 
			},
			{
				"x": 2.7570294284,
				"y": 0.6708017339,
				"z": 0.1589472836,
				"element": "C" 
			},
			{
				"x": 2.7253144639,
				"y": -0.1598873101,
				"z": 1.2751155118,
				"element": "C" 
			},
			{
				"x": 1.7458486347,
				"y": -1.1487677254,
				"z": 1.3567476963,
				"element": "C" 
			},
			{
				"x": 0.792637086,
				"y": -1.3348856465,
				"z": 0.3583228646,
				"element": "C" 
			},
			{
				"x": 1.7192225849,
				"y": -2.0291099012,
				"z": 2.535911509,
				"element": "N" 
			},
			{
				"x": 2.5725059196,
				"y": -1.8400099977,
				"z": 3.4014667845,
				"element": "O" 
			},
			{
				"x": 0.848269912,
				"y": -2.8947073911,
				"z": 2.5776912181,
				"element": "O" 
			},
			{
				"x": 0.3971944555,
				"y": -0.1938532762,
				"z": -4.0599038121,
				"element": "H" 
			},
			{
				"x": 0.2226076002,
				"y": -1.8558664295,
				"z": -3.8164406255,
				"element": "H" 
			},
			{
				"x": 3.501886171,
				"y": 1.4507996488,
				"z": 0.049815953,
				"element": "H" 
			},
			{
				"x": 3.4438279912,
				"y": -0.0571599542,
				"z": 2.0784687959,
				"element": "H" 
			},
			{
				"x": 0.0432333918,
				"y": -2.1122798366,
				"z": 0.4414558432,
				"element": "H" 
			}
		],
		 "valence_orbital": [ 
			{
				"type": "occ",
				"energy": -0.31989,
				"method": "rhf"
			},
			{
				"type": "occ",
				"energy": -0.31761,
				"method": "rhf"
			},
			{
				"type": "occ",
				"energy": -0.30453,
				"method": "rhf"
			},
			{
				"type": "occ",
				"energy": -0.30079,
				"method": "rhf"
			},
			{
				"type": "occ",
				"energy": -0.29196,
				"method": "rhf"
			},
			{
				"type": "unocc",
				"energy": -0.10331,
				"method": "rhf"
			},
			{
				"type": "unocc",
				"energy": -0.0644,
				"method": "rhf"
			},
			{
				"type": "unocc",
				"energy": -0.02046,
				"method": "rhf"
			},
			{
				"type": "unocc",
				"energy": 0.03033,
				"method": "rhf"
			},
			{
				"type": "unocc",
				"energy": 0.05148,
				"method": "rhf"
			}
		],
		"cosmo_sigma_profile": { 
			"-0.025": 0.0,
			"-0.024": 0.0,
			"-0.023": 0.0,
			"-0.022": 0.0,
			"-0.021": 0.0,
			"-0.02": 0.0,
			"-0.019": 0.0,
			"-0.018": 0.0,
			"-0.017": 0.0,
			"-0.016": 0.509615456329,
			"-0.015": 2.26253679741,
			"-0.014": 2.43314906445,
			"-0.013": 2.30627826047,
			"-0.012": 2.76530441427,
			"-0.011": 1.81843294663,
			"-0.01": 3.02430254393,
			"-0.009": 5.44435808787,
			"-0.008": 5.38824090697,
			"-0.007": 6.53469168218,
			"-0.006": 7.10947747349,
			"-0.005": 9.13093604101,
			"-0.004": 12.6937918213,
			"-0.003": 19.8863983212,
			"-0.002": 18.2363939106,
			"-0.001": 11.131306521,
			"0.0": 7.96586135421,
			"0.001": 8.36631161789,
			"0.002": 10.2572611007,
			"0.003": 7.18184205355,
			"0.004": 6.35334975887,
			"0.005": 7.29156325642,
			"0.006": 8.09014080664,
			"0.007": 13.2393774379,
			"0.008": 9.44451262351,
			"0.009": 9.52436579205,
			"0.01": 11.4049077782,
			"0.011": 3.95210212087,
			"0.012": 0.0,
			"0.013": 0.0,
			"0.014": 0.0,
			"0.015": 0.0,
			"0.016": 0.0,
			"0.017": 0.0,
			"0.018": 0.0,
			"0.019": 0.0,
			"0.02": 0.0,
			"0.021": 0.0,
			"0.022": 0.0,
			"0.023": 0.0,
			"0.024": 0.0,
			"0.025": 0.0
		}
	}
}
