{
	 "smiles": "COC(=O)CS(=O)C1=CC=C(Br)C=C1", 
	 "Tm": 358.15, 
	 "num_atms": 23, 
	 "gaussian": { 
		 "optdone": 1, 
		 "sigma_profile": "yes", 
		 "theory": "DFT", 
		 "functional": "B3LYP", 
		 "basiset": "6-31G**", 
		 "properties": { 
			 "R2extent": 6390.8567, 
			 "electric_dipole_moment_norm": 3.30346351123, 
			 "electric_quadrupole_moment_norm": 19.5348728419, 
			 "total_energy": -3543.59238978, 
			 "HOMO_LUMO_gap": 0.19328, 
			 "cosmo_polarized_energy": -14.56, 
			 "cosmo_cavitation_energy": 31.75, 
			 "cosmo_dispersion_energy": -22.84, 
			 "cosmo_repulsion_energy": 1.77, 
			 "cosmo_total_nonelectrostatic_energy": 10.69, 
			 "SMD_solvation_energy": 5.09 
		},
		"coords": [
			{
				"x": 1.0972281454,
				"y": -2.4651610804,
				"z": 4.0781734212,
				"element": "C" 
			},
			{
				"x": 0.6330133747,
				"y": -1.2241347739,
				"z": 3.5139305927,
				"element": "O" 
			},
			{
				"x": 1.4427932985,
				"y": -0.6776412962,
				"z": 2.5775448952,
				"element": "C" 
			},
			{
				"x": 2.475808884,
				"y": -1.1804517677,
				"z": 2.2000542225,
				"element": "O" 
			},
			{
				"x": 0.8824155686,
				"y": 0.632420262,
				"z": 2.0798428565,
				"element": "C" 
			},
			{
				"x": -0.8894389061,
				"y": 0.5625689169,
				"z": 1.4737791683,
				"element": "S" 
			},
			{
				"x": -1.1342533786,
				"y": 1.9244737798,
				"z": 0.8683569789,
				"element": "O" 
			},
			{
				"x": -0.6082738935,
				"y": -0.5859113558,
				"z": 0.0846687278,
				"element": "C" 
			},
			{
				"x": -0.6288283477,
				"y": -1.9674210639,
				"z": 0.2843262819,
				"element": "C" 
			},
			{
				"x": -0.4585321845,
				"y": -2.8208594965,
				"z": -0.8058702174,
				"element": "C" 
			},
			{
				"x": -0.2894273718,
				"y": -2.2728315735,
				"z": -2.0780683414,
				"element": "C" 
			},
			{
				"x": -0.0674517107,
				"y": -3.4397479833,
				"z": -3.5720028899,
				"element": "Br" 
			},
			{
				"x": -0.2928825088,
				"y": -0.8926105596,
				"z": -2.2836862034,
				"element": "C" 
			},
			{
				"x": -0.4587955624,
				"y": -0.0433537581,
				"z": -1.1901359838,
				"element": "C" 
			},
			{
				"x": 1.2212351055,
				"y": -3.2198031368,
				"z": 3.297810586,
				"element": "H" 
			},
			{
				"x": 0.3307476137,
				"y": -2.7678274329,
				"z": 4.7908035789,
				"element": "H" 
			},
			{
				"x": 2.0552732219,
				"y": -2.3190455928,
				"z": 4.5824666045,
				"element": "H" 
			},
			{
				"x": 0.840755095,
				"y": 1.3635470858,
				"z": 2.8927090443,
				"element": "H" 
			},
			{
				"x": 1.4909018839,
				"y": 1.0183203389,
				"z": 1.2615661491,
				"element": "H" 
			},
			{
				"x": -0.780383789,
				"y": -2.3813716005,
				"z": 1.2771787254,
				"element": "H" 
			},
			{
				"x": -0.4654878389,
				"y": -3.8964347736,
				"z": -0.6721780494,
				"element": "H" 
			},
			{
				"x": -0.1726737918,
				"y": -0.4906384491,
				"z": -3.2832858232,
				"element": "H" 
			},
			{
				"x": -0.4901429075,
				"y": 1.0359153113,
				"z": -1.3092843245,
				"element": "H" 
			}
		],
		 "valence_orbital": [ 
			{
				"type": "occ",
				"energy": -0.29613,
				"method": "rhf"
			},
			{
				"type": "occ",
				"energy": -0.27914,
				"method": "rhf"
			},
			{
				"type": "occ",
				"energy": -0.27414,
				"method": "rhf"
			},
			{
				"type": "occ",
				"energy": -0.26128,
				"method": "rhf"
			},
			{
				"type": "occ",
				"energy": -0.23719,
				"method": "rhf"
			},
			{
				"type": "unocc",
				"energy": -0.04391,
				"method": "rhf"
			},
			{
				"type": "unocc",
				"energy": -0.031,
				"method": "rhf"
			},
			{
				"type": "unocc",
				"energy": -0.01771,
				"method": "rhf"
			},
			{
				"type": "unocc",
				"energy": -0.00226,
				"method": "rhf"
			},
			{
				"type": "unocc",
				"energy": 0.02758,
				"method": "rhf"
			}
		],
		"cosmo_sigma_profile": { 
			"-0.025": 0.0,
			"-0.024": 0.0,
			"-0.023": 0.0,
			"-0.022": 0.0,
			"-0.021": 0.0,
			"-0.02": 0.0,
			"-0.019": 0.0,
			"-0.018": 0.0,
			"-0.017": 0.0,
			"-0.016": 0.0,
			"-0.015": 0.0,
			"-0.014": 0.0,
			"-0.013": 0.0,
			"-0.012": 0.0,
			"-0.011": 0.00100216102735,
			"-0.01": 1.40736426799,
			"-0.009": 2.68734108692,
			"-0.008": 5.63683435538,
			"-0.007": 10.7284016465,
			"-0.006": 18.8735705391,
			"-0.005": 19.3658938899,
			"-0.004": 22.1946766292,
			"-0.003": 19.2855107326,
			"-0.002": 12.4788525686,
			"-0.001": 13.5238005383,
			"0.0": 16.669566498,
			"0.001": 23.471218174,
			"0.002": 23.5372020531,
			"0.003": 12.9937492685,
			"0.004": 15.5153532359,
			"0.005": 5.13535413214,
			"0.006": 3.35079524063,
			"0.007": 3.60693226673,
			"0.008": 2.87690039429,
			"0.009": 2.39967871807,
			"0.01": 4.01222562611,
			"0.011": 6.34949910174,
			"0.012": 3.47099340905,
			"0.013": 4.14344963477,
			"0.014": 3.57119915517,
			"0.015": 0.640734512325,
			"0.016": 0.0,
			"0.017": 0.0,
			"0.018": 0.0,
			"0.019": 0.0,
			"0.02": 0.0,
			"0.021": 0.0,
			"0.022": 0.0,
			"0.023": 0.0,
			"0.024": 0.0,
			"0.025": 0.0
		}
	}
}
