{
	 "smiles": "OC1=CC=C(Cl)C(Cl)=C1Cl", 
	 "Tm": 356.65, 
	 "num_atms": 13, 
	 "gaussian": { 
		 "optdone": 1, 
		 "sigma_profile": "yes", 
		 "theory": "DFT", 
		 "functional": "B3LYP", 
		 "basiset": "6-31G**", 
		 "properties": { 
			 "R2extent": 2579.5206, 
			 "electric_dipole_moment_norm": 1.88556647456, 
			 "electric_quadrupole_moment_norm": 5.50352471331, 
			 "total_energy": -1686.23525012, 
			 "HOMO_LUMO_gap": 0.2027, 
			 "cosmo_polarized_energy": -5.87, 
			 "cosmo_cavitation_energy": 22.46, 
			 "cosmo_dispersion_energy": -17.46, 
			 "cosmo_repulsion_energy": 1.4, 
			 "cosmo_total_nonelectrostatic_energy": 6.41, 
			 "SMD_solvation_energy": 3.5 
		},
		"coords": [
			{
				"x": -1.7081831621,
				"y": 2.612778052,
				"z": -0.4678002782,
				"element": "O" 
			},
			{
				"x": -1.5677683942,
				"y": 1.2849539922,
				"z": -0.6805528631,
				"element": "C" 
			},
			{
				"x": -2.6928047544,
				"y": 0.5605119393,
				"z": -1.0861812953,
				"element": "C" 
			},
			{
				"x": -2.6017795932,
				"y": -0.8040992455,
				"z": -1.3177032976,
				"element": "C" 
			},
			{
				"x": -1.3899395023,
				"y": -1.4778543399,
				"z": -1.1508493692,
				"element": "C" 
			},
			{
				"x": -1.3327904966,
				"y": -3.19694299,
				"z": -1.4563789116,
				"element": "Cl" 
			},
			{
				"x": -0.2478309701,
				"y": -0.7730547733,
				"z": -0.7447484327,
				"element": "C" 
			},
			{
				"x": 1.2729432125,
				"y": -1.5850061653,
				"z": -0.5291298042,
				"element": "Cl" 
			},
			{
				"x": -0.3477127908,
				"y": 0.6082102039,
				"z": -0.5122598355,
				"element": "C" 
			},
			{
				"x": 1.0389291777,
				"y": 1.5496890187,
				"z": -0.0032629667,
				"element": "Cl" 
			},
			{
				"x": -0.8554979637,
				"y": 2.9842256872,
				"z": -0.1933486299,
				"element": "H" 
			},
			{
				"x": -3.6294043482,
				"y": 1.0914829036,
				"z": -1.2132535539,
				"element": "H" 
			},
			{
				"x": -3.4746604146,
				"y": -1.364594283,
				"z": -1.6321307622,
				"element": "H" 
			}
		],
		 "valence_orbital": [ 
			{
				"type": "occ",
				"energy": -0.33384,
				"method": "rhf"
			},
			{
				"type": "occ",
				"energy": -0.32124,
				"method": "rhf"
			},
			{
				"type": "occ",
				"energy": -0.31274,
				"method": "rhf"
			},
			{
				"type": "occ",
				"energy": -0.26456,
				"method": "rhf"
			},
			{
				"type": "occ",
				"energy": -0.23887,
				"method": "rhf"
			},
			{
				"type": "unocc",
				"energy": -0.03617,
				"method": "rhf"
			},
			{
				"type": "unocc",
				"energy": -0.02572,
				"method": "rhf"
			},
			{
				"type": "unocc",
				"energy": -0.02003,
				"method": "rhf"
			},
			{
				"type": "unocc",
				"energy": 0.03927,
				"method": "rhf"
			},
			{
				"type": "unocc",
				"energy": 0.05852,
				"method": "rhf"
			}
		],
		"cosmo_sigma_profile": { 
			"-0.025": 0.0,
			"-0.024": 0.0,
			"-0.023": 0.0,
			"-0.022": 0.0,
			"-0.021": 0.0,
			"-0.02": 0.0,
			"-0.019": 0.0,
			"-0.018": 0.0,
			"-0.017": 0.0,
			"-0.016": 0.217602862721,
			"-0.015": 0.84370773787,
			"-0.014": 0.823565952384,
			"-0.013": 0.373462777689,
			"-0.012": 0.492958738883,
			"-0.011": 1.29414733399,
			"-0.01": 1.0476271893,
			"-0.009": 1.21094378827,
			"-0.008": 4.118953651,
			"-0.007": 5.1151517249,
			"-0.006": 5.78639138864,
			"-0.005": 3.36736369621,
			"-0.004": 5.83492029034,
			"-0.003": 8.9271563563,
			"-0.002": 11.2713043833,
			"-0.001": 17.5460780462,
			"0.0": 24.2119523447,
			"0.001": 23.8345931424,
			"0.002": 17.9556439997,
			"0.003": 23.2065729836,
			"0.004": 18.3213539701,
			"0.005": 5.04388915972,
			"0.006": 0.925173705746,
			"0.007": 1.06503331716,
			"0.008": 1.57746164047,
			"0.009": 1.90898387487,
			"0.01": 1.16005195648,
			"0.011": 0.0,
			"0.012": 0.0,
			"0.013": 0.0,
			"0.014": 0.0,
			"0.015": 0.0,
			"0.016": 0.0,
			"0.017": 0.0,
			"0.018": 0.0,
			"0.019": 0.0,
			"0.02": 0.0,
			"0.021": 0.0,
			"0.022": 0.0,
			"0.023": 0.0,
			"0.024": 0.0,
			"0.025": 0.0
		}
	}
}
