{
	 "smiles": "CC(C)(OC1=CC(Cl)=CC=C1)C(O)=O", 
	 "Tm": 333.15, 
	 "num_atms": 25, 
	 "gaussian": { 
		 "optdone": 1, 
		 "sigma_profile": "yes", 
		 "theory": "DFT", 
		 "functional": "B3LYP", 
		 "basiset": "6-31G**", 
		 "properties": { 
			 "R2extent": 5764.8204, 
			 "electric_dipole_moment_norm": 2.17052286328, 
			 "electric_quadrupole_moment_norm": 20.0263284081, 
			 "total_energy": -1073.56767761, 
			 "HOMO_LUMO_gap": 0.21382, 
			 "cosmo_polarized_energy": -10.89, 
			 "cosmo_cavitation_energy": 30.33, 
			 "cosmo_dispersion_energy": -21.62, 
			 "cosmo_repulsion_energy": 1.73, 
			 "cosmo_total_nonelectrostatic_energy": 10.44, 
			 "SMD_solvation_energy": 6.28 
		},
		"coords": [
			{
				"x": -2.1133052434,
				"y": -0.8858904765,
				"z": -0.0374541509,
				"element": "C" 
			},
			{
				"x": -0.5995178318,
				"y": -0.7119139714,
				"z": 0.1723896006,
				"element": "C" 
			},
			{
				"x": -0.0936829609,
				"y": 0.5455792184,
				"z": -0.5392215385,
				"element": "C" 
			},
			{
				"x": -0.4632760503,
				"y": -0.6134313444,
				"z": 1.5999505912,
				"element": "O" 
			},
			{
				"x": 0.7490955407,
				"y": -0.547802273,
				"z": 2.2310955989,
				"element": "C" 
			},
			{
				"x": 0.6611416799,
				"y": -0.273513644,
				"z": 3.6045840507,
				"element": "C" 
			},
			{
				"x": 1.8231572118,
				"y": -0.2040125319,
				"z": 4.3611300521,
				"element": "C" 
			},
			{
				"x": 1.6973556818,
				"y": 0.1393238693,
				"z": 6.0824448969,
				"element": "Cl" 
			},
			{
				"x": 3.0845347089,
				"y": -0.3964616402,
				"z": 3.7940390702,
				"element": "C" 
			},
			{
				"x": 3.1523817008,
				"y": -0.6670284279,
				"z": 2.4298779474,
				"element": "C" 
			},
			{
				"x": 2.0029178995,
				"y": -0.7461460284,
				"z": 1.6387375917,
				"element": "C" 
			},
			{
				"x": 0.0834351726,
				"y": -1.9791771434,
				"z": -0.3778948261,
				"element": "C" 
			},
			{
				"x": -0.1071439743,
				"y": -3.0467407578,
				"z": 0.4225185414,
				"element": "O" 
			},
			{
				"x": 0.6784971355,
				"y": -2.0388407995,
				"z": -1.4320622749,
				"element": "O" 
			},
			{
				"x": -2.4691992127,
				"y": -1.7718456618,
				"z": 0.4920042813,
				"element": "H" 
			},
			{
				"x": -2.6315086921,
				"y": -0.0075170235,
				"z": 0.3556415117,
				"element": "H" 
			},
			{
				"x": -2.3424194919,
				"y": -0.9851069156,
				"z": -1.1019905072,
				"element": "H" 
			},
			{
				"x": -0.6608370863,
				"y": 1.4084252233,
				"z": -0.1807135805,
				"element": "H" 
			},
			{
				"x": -0.2348852788,
				"y": 0.4459300899,
				"z": -1.6170107445,
				"element": "H" 
			},
			{
				"x": 0.9658546817,
				"y": 0.7280060179,
				"z": -0.3552500538,
				"element": "H" 
			},
			{
				"x": -0.3141832722,
				"y": -0.1241073206,
				"z": 4.0515117703,
				"element": "H" 
			},
			{
				"x": 3.9778661281,
				"y": -0.3353276209,
				"z": 4.404021376,
				"element": "H" 
			},
			{
				"x": 4.121730228,
				"y": -0.821073074,
				"z": 1.9649977811,
				"element": "H" 
			},
			{
				"x": 2.1052745264,
				"y": -0.9598563208,
				"z": 0.5827271465,
				"element": "H" 
			},
			{
				"x": 0.330216799,
				"y": -3.7971714434,
				"z": -0.0143741314,
				"element": "H" 
			}
		],
		 "valence_orbital": [ 
			{
				"type": "occ",
				"energy": -0.31557,
				"method": "rhf"
			},
			{
				"type": "occ",
				"energy": -0.30976,
				"method": "rhf"
			},
			{
				"type": "occ",
				"energy": -0.28404,
				"method": "rhf"
			},
			{
				"type": "occ",
				"energy": -0.24907,
				"method": "rhf"
			},
			{
				"type": "occ",
				"energy": -0.22995,
				"method": "rhf"
			},
			{
				"type": "unocc",
				"energy": -0.01613,
				"method": "rhf"
			},
			{
				"type": "unocc",
				"energy": -0.00784,
				"method": "rhf"
			},
			{
				"type": "unocc",
				"energy": -0.00012,
				"method": "rhf"
			},
			{
				"type": "unocc",
				"energy": 0.03099,
				"method": "rhf"
			},
			{
				"type": "unocc",
				"energy": 0.0643,
				"method": "rhf"
			}
		],
		"cosmo_sigma_profile": { 
			"-0.025": 0.0,
			"-0.024": 0.0,
			"-0.023": 0.0,
			"-0.022": 0.0,
			"-0.021": 0.0,
			"-0.02": 0.0,
			"-0.019": 0.449994226156,
			"-0.018": 0.805803507635,
			"-0.017": 1.12570361936,
			"-0.016": 0.821245242953,
			"-0.015": 0.551341972505,
			"-0.014": 0.735549586429,
			"-0.013": 0.324689823799,
			"-0.012": 1.21426965567,
			"-0.011": 1.11550544605,
			"-0.01": 0.317577997932,
			"-0.009": 0.281049081069,
			"-0.008": 0.99486054404,
			"-0.007": 4.53479302174,
			"-0.006": 9.69699134131,
			"-0.005": 15.7944289096,
			"-0.004": 18.1839214388,
			"-0.003": 15.877432258,
			"-0.002": 19.7925391884,
			"-0.001": 21.1753481343,
			"0.0": 17.3428679628,
			"0.001": 14.0350997722,
			"0.002": 18.9247958643,
			"0.003": 20.0711063872,
			"0.004": 22.2307827884,
			"0.005": 12.185748297,
			"0.006": 3.59252591509,
			"0.007": 4.47521843034,
			"0.008": 4.1813171761,
			"0.009": 3.14756545846,
			"0.01": 2.61937834531,
			"0.011": 4.82891117067,
			"0.012": 1.03059149139,
			"0.013": 0.0,
			"0.014": 0.0,
			"0.015": 0.0,
			"0.016": 0.0,
			"0.017": 0.0,
			"0.018": 0.0,
			"0.019": 0.0,
			"0.02": 0.0,
			"0.021": 0.0,
			"0.022": 0.0,
			"0.023": 0.0,
			"0.024": 0.0,
			"0.025": 0.0
		}
	}
}
