{
	 "smiles": "ClC(Cl)C=O", 
	 "Tm": 235.65, 
	 "num_atms": 7, 
	 "gaussian": { 
		 "optdone": 1, 
		 "sigma_profile": "yes", 
		 "theory": "DFT", 
		 "functional": "B3LYP", 
		 "basiset": "6-31G**", 
		 "properties": { 
			 "R2extent": 1428.2207, 
			 "electric_dipole_moment_norm": 2.43303602316, 
			 "electric_quadrupole_moment_norm": 3.21502025499, 
			 "total_energy": -1072.99689874, 
			 "HOMO_LUMO_gap": 0.21925, 
			 "cosmo_polarized_energy": -8.01, 
			 "cosmo_cavitation_energy": 15.01, 
			 "cosmo_dispersion_energy": -11.36, 
			 "cosmo_repulsion_energy": 1.02, 
			 "cosmo_total_nonelectrostatic_energy": 4.68, 
			 "SMD_solvation_energy": 3.24 
		},
		"coords": [
			{
				"x": 1.5602825822,
				"y": -2.4185393316,
				"z": -0.1059792575,
				"element": "Cl" 
			},
			{
				"x": -0.0654963611,
				"y": -1.9084585229,
				"z": 0.3881194184,
				"element": "C" 
			},
			{
				"x": -0.6087413719,
				"y": -2.684367874,
				"z": 1.9281322057,
				"element": "Cl" 
			},
			{
				"x": -0.180022182,
				"y": -0.3866020142,
				"z": 0.5756915544,
				"element": "C" 
			},
			{
				"x": 0.6946538477,
				"y": 0.3984953626,
				"z": 0.3295058026,
				"element": "O" 
			},
			{
				"x": -0.7693387657,
				"y": -2.2371076065,
				"z": -0.3796361397,
				"element": "H" 
			},
			{
				"x": -1.1764377491,
				"y": -0.0851200135,
				"z": 0.9581664162,
				"element": "H" 
			}
		],
		 "valence_orbital": [ 
			{
				"type": "occ",
				"energy": -0.34927,
				"method": "rhf"
			},
			{
				"type": "occ",
				"energy": -0.3403,
				"method": "rhf"
			},
			{
				"type": "occ",
				"energy": -0.32725,
				"method": "rhf"
			},
			{
				"type": "occ",
				"energy": -0.32197,
				"method": "rhf"
			},
			{
				"type": "occ",
				"energy": -0.29113,
				"method": "rhf"
			},
			{
				"type": "unocc",
				"energy": -0.07188,
				"method": "rhf"
			},
			{
				"type": "unocc",
				"energy": -0.0086,
				"method": "rhf"
			},
			{
				"type": "unocc",
				"energy": 0.01322,
				"method": "rhf"
			},
			{
				"type": "unocc",
				"energy": 0.08819,
				"method": "rhf"
			},
			{
				"type": "unocc",
				"energy": 0.11283,
				"method": "rhf"
			}
		],
		"cosmo_sigma_profile": { 
			"-0.025": 0.0,
			"-0.024": 0.0,
			"-0.023": 0.0,
			"-0.022": 0.0,
			"-0.021": 0.0,
			"-0.02": 0.0,
			"-0.019": 0.0,
			"-0.018": 0.0,
			"-0.017": 0.0,
			"-0.016": 0.0,
			"-0.015": 0.0,
			"-0.014": 0.0,
			"-0.013": 1.56757314282,
			"-0.012": 3.38362436649,
			"-0.011": 3.11881269252,
			"-0.01": 2.76131104223,
			"-0.009": 4.35626221747,
			"-0.008": 3.63059232936,
			"-0.007": 2.30291700071,
			"-0.006": 2.50049263304,
			"-0.005": 3.43070837935,
			"-0.004": 3.53608078498,
			"-0.003": 5.83786302918,
			"-0.002": 6.35350847519,
			"-0.001": 6.23898206211,
			"0.0": 6.71899204654,
			"0.001": 8.03215347171,
			"0.002": 9.91885102132,
			"0.003": 14.9034273054,
			"0.004": 16.8297401638,
			"0.005": 3.30679771533,
			"0.006": 1.80423093152,
			"0.007": 2.86937164107,
			"0.008": 3.47703760699,
			"0.009": 4.66386031735,
			"0.01": 2.89433688467,
			"0.011": 0.218692772813,
			"0.012": 0.0,
			"0.013": 0.0,
			"0.014": 0.0,
			"0.015": 0.0,
			"0.016": 0.0,
			"0.017": 0.0,
			"0.018": 0.0,
			"0.019": 0.0,
			"0.02": 0.0,
			"0.021": 0.0,
			"0.022": 0.0,
			"0.023": 0.0,
			"0.024": 0.0,
			"0.025": 0.0
		}
	}
}
