{
	 "smiles": "COC(=O)[C@@]12CC[C@@H](C=C1)[C@@H]1[C@H]2C(=O)OC1=O", 
	 "Tm": 390.15, 
	 "num_atms": 29, 
	 "gaussian": { 
		 "optdone": 1, 
		 "sigma_profile": "yes", 
		 "theory": "DFT", 
		 "functional": "B3LYP", 
		 "basiset": "6-31G**", 
		 "properties": { 
			 "R2extent": 4714.4599, 
			 "electric_dipole_moment_norm": 4.5310947132, 
			 "electric_quadrupole_moment_norm": 18.9090350753, 
			 "total_energy": -840.632021856, 
			 "HOMO_LUMO_gap": 0.24058, 
			 "cosmo_polarized_energy": -15.53, 
			 "cosmo_cavitation_energy": 31.17, 
			 "cosmo_dispersion_energy": -22.31, 
			 "cosmo_repulsion_energy": 1.72, 
			 "cosmo_total_nonelectrostatic_energy": 10.58, 
			 "SMD_solvation_energy": 7.94 
		},
		"coords": [
			{
				"x": -1.5261937756,
				"y": -1.4604546663,
				"z": -3.5809572948,
				"element": "C" 
			},
			{
				"x": -1.5604764147,
				"y": -0.8663307216,
				"z": -2.2693188509,
				"element": "O" 
			},
			{
				"x": -0.6021693917,
				"y": -1.2830380987,
				"z": -1.4263437739,
				"element": "C" 
			},
			{
				"x": 0.2830465015,
				"y": -2.0541374742,
				"z": -1.7335184729,
				"element": "O" 
			},
			{
				"x": -0.7080461022,
				"y": -0.6620890028,
				"z": -0.03668215,
				"element": "C" 
			},
			{
				"x": 0.5946321144,
				"y": 0.1605698423,
				"z": 0.2525935717,
				"element": "C" 
			},
			{
				"x": 0.5279971872,
				"y": 0.7745689323,
				"z": 1.6772783573,
				"element": "C" 
			},
			{
				"x": -0.7901330484,
				"y": 0.3348396687,
				"z": 2.3698992488,
				"element": "C" 
			},
			{
				"x": -1.941004779,
				"y": 0.7358005202,
				"z": 1.4735948071,
				"element": "C" 
			},
			{
				"x": -1.897112905,
				"y": 0.2358223188,
				"z": 0.232094446,
				"element": "C" 
			},
			{
				"x": -0.7408554409,
				"y": -1.2209562506,
				"z": 2.4472706252,
				"element": "C" 
			},
			{
				"x": -0.7333693511,
				"y": -1.8115505864,
				"z": 1.0281796102,
				"element": "C" 
			},
			{
				"x": -2.0182434757,
				"y": -2.6263829517,
				"z": 0.9545883796,
				"element": "C" 
			},
			{
				"x": -2.4810506642,
				"y": -3.2086588154,
				"z": 0.015131539,
				"element": "O" 
			},
			{
				"x": -2.6531507752,
				"y": -2.6184258281,
				"z": 2.1885248165,
				"element": "O" 
			},
			{
				"x": -1.9825279366,
				"y": -1.809433587,
				"z": 3.0983114217,
				"element": "C" 
			},
			{
				"x": -2.3917204921,
				"y": -1.6448618198,
				"z": 4.2116406541,
				"element": "O" 
			},
			{
				"x": -1.6584715526,
				"y": -2.541821208,
				"z": -3.5048268185,
				"element": "H" 
			},
			{
				"x": -2.3527253235,
				"y": -1.0083904992,
				"z": -4.1281779494,
				"element": "H" 
			},
			{
				"x": -0.5737056994,
				"y": -1.2489251938,
				"z": -4.0720856116,
				"element": "H" 
			},
			{
				"x": 0.6848502064,
				"y": 0.9437166158,
				"z": -0.5053909971,
				"element": "H" 
			},
			{
				"x": 1.4554932928,
				"y": -0.5031566795,
				"z": 0.1341255203,
				"element": "H" 
			},
			{
				"x": 1.3857213878,
				"y": 0.453687952,
				"z": 2.2792116352,
				"element": "H" 
			},
			{
				"x": 0.5592707682,
				"y": 1.8663508375,
				"z": 1.6296005753,
				"element": "H" 
			},
			{
				"x": -0.8744740033,
				"y": 0.7513071537,
				"z": 3.3759105013,
				"element": "H" 
			},
			{
				"x": -2.7298906308,
				"y": 1.3923312398,
				"z": 1.8272829178,
				"element": "H" 
			},
			{
				"x": -2.6349061003,
				"y": 0.429838186,
				"z": -0.5367458402,
				"element": "H" 
			},
			{
				"x": 0.1266877233,
				"y": -1.5250781208,
				"z": 3.042114969,
				"element": "H" 
			},
			{
				"x": 0.1085286806,
				"y": -2.4826417633,
				"z": 0.8336941631,
				"element": "H" 
			}
		],
		 "valence_orbital": [ 
			{
				"type": "occ",
				"energy": -0.31092,
				"method": "rhf"
			},
			{
				"type": "occ",
				"energy": -0.3052,
				"method": "rhf"
			},
			{
				"type": "occ",
				"energy": -0.2808,
				"method": "rhf"
			},
			{
				"type": "occ",
				"energy": -0.27784,
				"method": "rhf"
			},
			{
				"type": "occ",
				"energy": -0.27075,
				"method": "rhf"
			},
			{
				"type": "unocc",
				"energy": -0.03017,
				"method": "rhf"
			},
			{
				"type": "unocc",
				"energy": -0.01276,
				"method": "rhf"
			},
			{
				"type": "unocc",
				"energy": -0.00647,
				"method": "rhf"
			},
			{
				"type": "unocc",
				"energy": 0.00561,
				"method": "rhf"
			},
			{
				"type": "unocc",
				"energy": 0.06768,
				"method": "rhf"
			}
		],
		"cosmo_sigma_profile": { 
			"-0.025": 0.0,
			"-0.024": 0.0,
			"-0.023": 0.0,
			"-0.022": 0.0,
			"-0.021": 0.0,
			"-0.02": 0.0,
			"-0.019": 0.0,
			"-0.018": 0.0,
			"-0.017": 0.0,
			"-0.016": 0.0,
			"-0.015": 0.0,
			"-0.014": 0.0,
			"-0.013": 0.0,
			"-0.012": 0.0386133852964,
			"-0.011": 0.727267378621,
			"-0.01": 1.34429906274,
			"-0.009": 2.60562878548,
			"-0.008": 7.40265787839,
			"-0.007": 7.65547901525,
			"-0.006": 12.8418337219,
			"-0.005": 19.7457941308,
			"-0.004": 24.7547953925,
			"-0.003": 24.1295839801,
			"-0.002": 20.2805372386,
			"-0.001": 18.3256376523,
			"0.0": 11.4685133958,
			"0.001": 10.4812700101,
			"0.002": 8.51911313697,
			"0.003": 7.77428528498,
			"0.004": 8.76264878857,
			"0.005": 8.26573574355,
			"0.006": 7.44220364782,
			"0.007": 8.80404788074,
			"0.008": 7.06381381346,
			"0.009": 7.88079032782,
			"0.01": 10.4921495724,
			"0.011": 5.81620177784,
			"0.012": 3.03109452631,
			"0.013": 0.0269192987171,
			"0.014": 0.0,
			"0.015": 0.0,
			"0.016": 0.0,
			"0.017": 0.0,
			"0.018": 0.0,
			"0.019": 0.0,
			"0.02": 0.0,
			"0.021": 0.0,
			"0.022": 0.0,
			"0.023": 0.0,
			"0.024": 0.0,
			"0.025": 0.0
		}
	}
}
