{
	 "smiles": "COC1=CC(OC)=C(C=C1)C(=O)NN", 
	 "Tm": 386.15, 
	 "num_atms": 26, 
	 "gaussian": { 
		 "optdone": 1, 
		 "sigma_profile": "yes", 
		 "theory": "DFT", 
		 "functional": "B3LYP", 
		 "basiset": "6-31G**", 
		 "properties": { 
			 "R2extent": 3333.5921, 
			 "electric_dipole_moment_norm": 2.15678495219, 
			 "electric_quadrupole_moment_norm": 24.419389597, 
			 "total_energy": -685.308193957, 
			 "HOMO_LUMO_gap": 0.20411, 
			 "cosmo_polarized_energy": -17.64, 
			 "cosmo_cavitation_energy": 29.92, 
			 "cosmo_dispersion_energy": -21.4, 
			 "cosmo_repulsion_energy": 1.73, 
			 "cosmo_total_nonelectrostatic_energy": 10.26, 
			 "SMD_solvation_energy": 7.91 
		},
		"coords": [
			{
				"x": 4.1755250017,
				"y": -1.4037614541,
				"z": 0.3700891405,
				"element": "C" 
			},
			{
				"x": 3.1433211013,
				"y": -0.9188426979,
				"z": -0.4750613712,
				"element": "O" 
			},
			{
				"x": 1.8677184243,
				"y": -0.9090647898,
				"z": 0.0048496346,
				"element": "C" 
			},
			{
				"x": 0.8969118789,
				"y": -0.4017620651,
				"z": -0.870691121,
				"element": "C" 
			},
			{
				"x": -0.4385618645,
				"y": -0.3614690726,
				"z": -0.4900629594,
				"element": "C" 
			},
			{
				"x": -1.3537983351,
				"y": 0.168593749,
				"z": -1.3811961644,
				"element": "O" 
			},
			{
				"x": -1.6285184982,
				"y": 1.5546575598,
				"z": -1.1707516454,
				"element": "C" 
			},
			{
				"x": -0.8408751274,
				"y": -0.8290192698,
				"z": 0.7771540706,
				"element": "C" 
			},
			{
				"x": 0.1486686501,
				"y": -1.2865116065,
				"z": 1.6506475933,
				"element": "C" 
			},
			{
				"x": 1.4920335602,
				"y": -1.3466297951,
				"z": 1.281230662,
				"element": "C" 
			},
			{
				"x": -2.2504937137,
				"y": -0.7868781245,
				"z": 1.2820464036,
				"element": "C" 
			},
			{
				"x": -2.5343542102,
				"y": -0.3581259776,
				"z": 2.3973848668,
				"element": "O" 
			},
			{
				"x": -3.2406200717,
				"y": -1.2315608808,
				"z": 0.4396426447,
				"element": "N" 
			},
			{
				"x": -2.9853613762,
				"y": -2.0251841253,
				"z": -0.6846633165,
				"element": "N" 
			},
			{
				"x": 5.0985492354,
				"y": -1.3235784133,
				"z": -0.2061205072,
				"element": "H" 
			},
			{
				"x": 4.2669133275,
				"y": -0.8024581607,
				"z": 1.2835912687,
				"element": "H" 
			},
			{
				"x": 4.0127668734,
				"y": -2.4532519003,
				"z": 0.6465783573,
				"element": "H" 
			},
			{
				"x": 1.1933479043,
				"y": -0.0401168776,
				"z": -1.8489418233,
				"element": "H" 
			},
			{
				"x": -0.7179534403,
				"y": 2.1589154143,
				"z": -1.273015005,
				"element": "H" 
			},
			{
				"x": -2.3455462865,
				"y": 1.850506181,
				"z": -1.9398579309,
				"element": "H" 
			},
			{
				"x": -2.0645312367,
				"y": 1.7331642681,
				"z": -0.1799351596,
				"element": "H" 
			},
			{
				"x": -0.1526457552,
				"y": -1.6087302503,
				"z": 2.6423416954,
				"element": "H" 
			},
			{
				"x": 2.2232502644,
				"y": -1.7275445661,
				"z": 1.9834586971,
				"element": "H" 
			},
			{
				"x": -4.1774428574,
				"y": -1.1565855595,
				"z": 0.823909553,
				"element": "H" 
			},
			{
				"x": -3.5016468021,
				"y": -2.8973355724,
				"z": -0.6215279719,
				"element": "H" 
			},
			{
				"x": -3.2333566462,
				"y": -1.5254260128,
				"z": -1.5330996118,
				"element": "H" 
			}
		],
		 "valence_orbital": [ 
			{
				"type": "occ",
				"energy": -0.27198,
				"method": "rhf"
			},
			{
				"type": "occ",
				"energy": -0.2485,
				"method": "rhf"
			},
			{
				"type": "occ",
				"energy": -0.24049,
				"method": "rhf"
			},
			{
				"type": "occ",
				"energy": -0.23623,
				"method": "rhf"
			},
			{
				"type": "occ",
				"energy": -0.21445,
				"method": "rhf"
			},
			{
				"type": "unocc",
				"energy": -0.01034,
				"method": "rhf"
			},
			{
				"type": "unocc",
				"energy": 0.00383,
				"method": "rhf"
			},
			{
				"type": "unocc",
				"energy": 0.06087,
				"method": "rhf"
			},
			{
				"type": "unocc",
				"energy": 0.07836,
				"method": "rhf"
			},
			{
				"type": "unocc",
				"energy": 0.09577,
				"method": "rhf"
			}
		],
		"cosmo_sigma_profile": { 
			"-0.025": 0.0,
			"-0.024": 0.0,
			"-0.023": 0.0,
			"-0.022": 0.0,
			"-0.021": 0.0,
			"-0.02": 0.0,
			"-0.019": 0.0,
			"-0.018": 0.0,
			"-0.017": 0.0,
			"-0.016": 0.0,
			"-0.015": 0.0,
			"-0.014": 0.111212090884,
			"-0.013": 1.1557052279,
			"-0.012": 2.57886365104,
			"-0.011": 4.00580815878,
			"-0.01": 3.61904700922,
			"-0.009": 3.2168137473,
			"-0.008": 3.40964673283,
			"-0.007": 4.89244212465,
			"-0.006": 12.6798988456,
			"-0.005": 18.606258193,
			"-0.004": 21.0174960829,
			"-0.003": 23.4402658784,
			"-0.002": 17.3837110173,
			"-0.001": 11.68188021,
			"0.0": 10.0309012042,
			"0.001": 10.1915135401,
			"0.002": 11.113113616,
			"0.003": 14.0938624674,
			"0.004": 13.468427187,
			"0.005": 8.01158702825,
			"0.006": 5.75580626862,
			"0.007": 4.05719797972,
			"0.008": 5.42923735186,
			"0.009": 3.85847923075,
			"0.01": 3.68626748181,
			"0.011": 3.59186835746,
			"0.012": 2.75284162383,
			"0.013": 3.72965646159,
			"0.014": 6.44912160552,
			"0.015": 1.95037593237,
			"0.016": 0.0193903427495,
			"0.017": 0.0,
			"0.018": 0.0,
			"0.019": 0.0,
			"0.02": 0.0,
			"0.021": 0.0,
			"0.022": 0.0,
			"0.023": 0.0,
			"0.024": 0.0,
			"0.025": 0.0
		}
	}
}
