{
	 "smiles": "CC(Cl)C(=O)NC(C)(C)C", 
	 "Tm": 358.15, 
	 "num_atms": 24, 
	 "gaussian": { 
		 "optdone": 1, 
		 "sigma_profile": "yes", 
		 "theory": "DFT", 
		 "functional": "B3LYP", 
		 "basiset": "6-31G**", 
		 "properties": { 
			 "R2extent": 2100.6728, 
			 "electric_dipole_moment_norm": 4.57817689807, 
			 "electric_quadrupole_moment_norm": 9.02064831318, 
			 "total_energy": -865.377658798, 
			 "HOMO_LUMO_gap": 0.23472, 
			 "cosmo_polarized_energy": -11.9, 
			 "cosmo_cavitation_energy": 26.96, 
			 "cosmo_dispersion_energy": -18.95, 
			 "cosmo_repulsion_energy": 1.54, 
			 "cosmo_total_nonelectrostatic_energy": 9.54, 
			 "SMD_solvation_energy": 4.96 
		},
		"coords": [
			{
				"x": 1.5530107114,
				"y": 2.0050398337,
				"z": 0.4114354877,
				"element": "C" 
			},
			{
				"x": 1.0474798287,
				"y": 0.6786612518,
				"z": -0.131239959,
				"element": "C" 
			},
			{
				"x": 2.408505453,
				"y": -0.1994870016,
				"z": -0.9968185633,
				"element": "Cl" 
			},
			{
				"x": -0.0874595343,
				"y": 0.891212591,
				"z": -1.1467493898,
				"element": "C" 
			},
			{
				"x": -0.0404642745,
				"y": 1.8425049246,
				"z": -1.9175950354,
				"element": "O" 
			},
			{
				"x": -1.1391694031,
				"y": 0.0158783295,
				"z": -1.185393282,
				"element": "N" 
			},
			{
				"x": -1.5751987469,
				"y": -1.1356629622,
				"z": -0.3552273899,
				"element": "C" 
			},
			{
				"x": -2.8684629835,
				"y": -1.6416037225,
				"z": -1.023002744,
				"element": "C" 
			},
			{
				"x": -0.5399719131,
				"y": -2.2763508373,
				"z": -0.3668177161,
				"element": "C" 
			},
			{
				"x": -1.9060115062,
				"y": -0.6927938038,
				"z": 1.0850813006,
				"element": "C" 
			},
			{
				"x": 2.4154954329,
				"y": 1.8519597174,
				"z": 1.0636239592,
				"element": "H" 
			},
			{
				"x": 0.7560525465,
				"y": 2.4866080535,
				"z": 0.9898294974,
				"element": "H" 
			},
			{
				"x": 1.8212865714,
				"y": 2.6650413434,
				"z": -0.4141728512,
				"element": "H" 
			},
			{
				"x": 0.7628580519,
				"y": 0.0056914821,
				"z": 0.6744641103,
				"element": "H" 
			},
			{
				"x": -1.7917300373,
				"y": 0.3014079642,
				"z": -1.9056567359,
				"element": "H" 
			},
			{
				"x": -2.6767221981,
				"y": -1.9605480107,
				"z": -2.0527291205,
				"element": "H" 
			},
			{
				"x": -3.6363162245,
				"y": -0.8601080226,
				"z": -1.0368584043,
				"element": "H" 
			},
			{
				"x": -3.2694287403,
				"y": -2.4965697885,
				"z": -0.4723758687,
				"element": "H" 
			},
			{
				"x": 0.3996445053,
				"y": -2.0023272635,
				"z": 0.116614216,
				"element": "H" 
			},
			{
				"x": -0.3095566054,
				"y": -2.5722953301,
				"z": -1.3939233312,
				"element": "H" 
			},
			{
				"x": -0.9437971367,
				"y": -3.1459066283,
				"z": 0.1619449285,
				"element": "H" 
			},
			{
				"x": -2.6482671587,
				"y": 0.1111034954,
				"z": 1.0783084263,
				"element": "H" 
			},
			{
				"x": -1.0247103082,
				"y": -0.3335788893,
				"z": 1.6236957772,
				"element": "H" 
			},
			{
				"x": -2.3154663306,
				"y": -1.5338767259,
				"z": 1.6540626883,
				"element": "H" 
			}
		],
		 "valence_orbital": [ 
			{
				"type": "occ",
				"energy": -0.34535,
				"method": "rhf"
			},
			{
				"type": "occ",
				"energy": -0.30142,
				"method": "rhf"
			},
			{
				"type": "occ",
				"energy": -0.29568,
				"method": "rhf"
			},
			{
				"type": "occ",
				"energy": -0.2538,
				"method": "rhf"
			},
			{
				"type": "occ",
				"energy": -0.25093,
				"method": "rhf"
			},
			{
				"type": "unocc",
				"energy": -0.01621,
				"method": "rhf"
			},
			{
				"type": "unocc",
				"energy": 0.0547,
				"method": "rhf"
			},
			{
				"type": "unocc",
				"energy": 0.07142,
				"method": "rhf"
			},
			{
				"type": "unocc",
				"energy": 0.08684,
				"method": "rhf"
			},
			{
				"type": "unocc",
				"energy": 0.11124,
				"method": "rhf"
			}
		],
		"cosmo_sigma_profile": { 
			"-0.025": 0.0,
			"-0.024": 0.0,
			"-0.023": 0.0,
			"-0.022": 0.0,
			"-0.021": 0.0,
			"-0.02": 0.0,
			"-0.019": 0.0,
			"-0.018": 0.0,
			"-0.017": 0.0,
			"-0.016": 0.0,
			"-0.015": 0.0,
			"-0.014": 0.0,
			"-0.013": 0.117864068479,
			"-0.012": 0.587403137834,
			"-0.011": 1.05577798052,
			"-0.01": 0.863612927711,
			"-0.009": 1.04186003334,
			"-0.008": 3.45038589872,
			"-0.007": 3.54701782016,
			"-0.006": 5.46212089768,
			"-0.005": 8.56049089069,
			"-0.004": 22.7513986887,
			"-0.003": 23.3494619148,
			"-0.002": 19.2937523107,
			"-0.001": 23.064870912,
			"0.0": 26.1411758882,
			"0.001": 13.5562336362,
			"0.002": 8.00369922242,
			"0.003": 6.97189049038,
			"0.004": 7.5955146247,
			"0.005": 8.42950322457,
			"0.006": 8.27224585196,
			"0.007": 3.29094755392,
			"0.008": 1.51059260102,
			"0.009": 1.59996344268,
			"0.01": 1.13443108697,
			"0.011": 1.81767747467,
			"0.012": 2.20313046781,
			"0.013": 4.5945500401,
			"0.014": 3.38110361211,
			"0.015": 0.0963651380232,
			"0.016": 0.0,
			"0.017": 0.0,
			"0.018": 0.0,
			"0.019": 0.0,
			"0.02": 0.0,
			"0.021": 0.0,
			"0.022": 0.0,
			"0.023": 0.0,
			"0.024": 0.0,
			"0.025": 0.0
		}
	}
}
