{
	 "smiles": "CC(=NO)C1=CC=C(F)C=C1", 
	 "Tm": 346.15, 
	 "num_atms": 19, 
	 "gaussian": { 
		 "optdone": 1, 
		 "sigma_profile": "yes", 
		 "theory": "DFT", 
		 "functional": "B3LYP", 
		 "basiset": "6-31G**", 
		 "properties": { 
			 "R2extent": 2773.8936, 
			 "electric_dipole_moment_norm": 0.961434651965, 
			 "electric_quadrupole_moment_norm": 8.73990534731, 
			 "total_energy": -539.425435863, 
			 "HOMO_LUMO_gap": 0.19283, 
			 "cosmo_polarized_energy": -7.77, 
			 "cosmo_cavitation_energy": 23.45, 
			 "cosmo_dispersion_energy": -17.31, 
			 "cosmo_repulsion_energy": 1.37, 
			 "cosmo_total_nonelectrostatic_energy": 7.51, 
			 "SMD_solvation_energy": 4.72 
		},
		"coords": [
			{
				"x": -0.1536695718,
				"y": -1.8442743554,
				"z": 2.0141711312,
				"element": "C" 
			},
			{
				"x": -1.1946733814,
				"y": -1.9993531781,
				"z": 0.9256230172,
				"element": "C" 
			},
			{
				"x": -1.9119327862,
				"y": -3.061419424,
				"z": 1.075519939,
				"element": "N" 
			},
			{
				"x": -2.866988515,
				"y": -3.27359062,
				"z": 0.0675982121,
				"element": "O" 
			},
			{
				"x": -1.2728648778,
				"y": -0.9660007253,
				"z": -0.1396465466,
				"element": "C" 
			},
			{
				"x": -2.4452384509,
				"y": -0.70637864,
				"z": -0.8795477947,
				"element": "C" 
			},
			{
				"x": -2.4819279984,
				"y": 0.3001411243,
				"z": -1.8408679826,
				"element": "C" 
			},
			{
				"x": -1.3371891419,
				"y": 1.0513637099,
				"z": -2.0790870541,
				"element": "C" 
			},
			{
				"x": -1.3689894871,
				"y": 2.0203500604,
				"z": -3.0158451042,
				"element": "F" 
			},
			{
				"x": -0.1612500322,
				"y": 0.8318287575,
				"z": -1.3724660369,
				"element": "C" 
			},
			{
				"x": -0.1420642572,
				"y": -0.1677296049,
				"z": -0.4034390339,
				"element": "C" 
			},
			{
				"x": -0.2148876484,
				"y": -0.8571265004,
				"z": 2.4844185057,
				"element": "H" 
			},
			{
				"x": 0.8621225153,
				"y": -1.9596608587,
				"z": 1.6188327663,
				"element": "H" 
			},
			{
				"x": -0.3094573806,
				"y": -2.6136991574,
				"z": 2.77138031,
				"element": "H" 
			},
			{
				"x": -3.2606805646,
				"y": -4.1101412869,
				"z": 0.3474761659,
				"element": "H" 
			},
			{
				"x": -3.3326236983,
				"y": -1.2936290508,
				"z": -0.6949458417,
				"element": "H" 
			},
			{
				"x": -3.384605324,
				"y": 0.5064438722,
				"z": -2.4058355081,
				"element": "H" 
			},
			{
				"x": 0.7135668992,
				"y": 1.438044445,
				"z": -1.580866206,
				"element": "H" 
			},
			{
				"x": 0.7764537012,
				"y": -0.3291685674,
				"z": 0.1490270615,
				"element": "H" 
			}
		],
		 "valence_orbital": [ 
			{
				"type": "occ",
				"energy": -0.34295,
				"method": "rhf"
			},
			{
				"type": "occ",
				"energy": -0.2741,
				"method": "rhf"
			},
			{
				"type": "occ",
				"energy": -0.26882,
				"method": "rhf"
			},
			{
				"type": "occ",
				"energy": -0.26136,
				"method": "rhf"
			},
			{
				"type": "occ",
				"energy": -0.22788,
				"method": "rhf"
			},
			{
				"type": "unocc",
				"energy": -0.03505,
				"method": "rhf"
			},
			{
				"type": "unocc",
				"energy": -0.0114,
				"method": "rhf"
			},
			{
				"type": "unocc",
				"energy": 0.04966,
				"method": "rhf"
			},
			{
				"type": "unocc",
				"energy": 0.07515,
				"method": "rhf"
			},
			{
				"type": "unocc",
				"energy": 0.08863,
				"method": "rhf"
			}
		],
		"cosmo_sigma_profile": { 
			"-0.025": 0.0,
			"-0.024": 0.0,
			"-0.023": 0.0,
			"-0.022": 0.0,
			"-0.021": 0.0,
			"-0.02": 0.0,
			"-0.019": 0.0,
			"-0.018": 0.0637496606687,
			"-0.017": 0.82581938837,
			"-0.016": 0.989969559562,
			"-0.015": 0.886068308331,
			"-0.014": 0.699335220701,
			"-0.013": 0.808016984458,
			"-0.012": 0.647604894908,
			"-0.011": 0.150117184177,
			"-0.01": 0.546570366982,
			"-0.009": 0.861471411053,
			"-0.008": 1.41018750712,
			"-0.007": 6.52799163165,
			"-0.006": 6.50725416202,
			"-0.005": 10.465857501,
			"-0.004": 11.6952416664,
			"-0.003": 12.14970847,
			"-0.002": 11.4030189798,
			"-0.001": 12.265117685,
			"0.0": 16.9527818906,
			"0.001": 15.5848755287,
			"0.002": 13.9548778501,
			"0.003": 17.8357025825,
			"0.004": 19.7286014099,
			"0.005": 7.26268700748,
			"0.006": 4.54677331657,
			"0.007": 3.10763338864,
			"0.008": 2.37032441412,
			"0.009": 1.93100732086,
			"0.01": 2.02696564507,
			"0.011": 1.2361163154,
			"0.012": 0.73283483623,
			"0.013": 0.732107343325,
			"0.014": 0.167747836229,
			"0.015": 0.0,
			"0.016": 0.0,
			"0.017": 0.0,
			"0.018": 0.0,
			"0.019": 0.0,
			"0.02": 0.0,
			"0.021": 0.0,
			"0.022": 0.0,
			"0.023": 0.0,
			"0.024": 0.0,
			"0.025": 0.0
		}
	}
}
