{
	 "smiles": "CC1=CC=C(SC2=C(C=CC=N2)C(N)=O)C=C1", 
	 "Tm": 479.15, 
	 "num_atms": 29, 
	 "gaussian": { 
		 "optdone": 1, 
		 "sigma_profile": "yes", 
		 "theory": "DFT", 
		 "functional": "B3LYP", 
		 "basiset": "6-31G**", 
		 "properties": { 
			 "R2extent": 5360.4627, 
			 "electric_dipole_moment_norm": 5.52176094919, 
			 "electric_quadrupole_moment_norm": 16.8141151394, 
			 "total_energy": -1085.53784069, 
			 "HOMO_LUMO_gap": 0.17884, 
			 "cosmo_polarized_energy": -19.06, 
			 "cosmo_cavitation_energy": 34.9, 
			 "cosmo_dispersion_energy": -24.2, 
			 "cosmo_repulsion_energy": 1.85, 
			 "cosmo_total_nonelectrostatic_energy": 12.55, 
			 "SMD_solvation_energy": 4.65 
		},
		"coords": [
			{
				"x": -1.7919649164,
				"y": 3.6491822525,
				"z": 0.8620605465,
				"element": "C" 
			},
			{
				"x": -1.880390878,
				"y": 2.1449243329,
				"z": 0.7582358769,
				"element": "C" 
			},
			{
				"x": -1.8704260136,
				"y": 1.3408337347,
				"z": 1.9056742684,
				"element": "C" 
			},
			{
				"x": -1.9780420821,
				"y": -0.0472787677,
				"z": 1.8191435565,
				"element": "C" 
			},
			{
				"x": -2.1126419515,
				"y": -0.663145101,
				"z": 0.5697310857,
				"element": "C" 
			},
			{
				"x": -2.3744744398,
				"y": -2.4352389696,
				"z": 0.4707195998,
				"element": "S" 
			},
			{
				"x": -0.9612779707,
				"y": -3.0353628521,
				"z": -0.459143952,
				"element": "C" 
			},
			{
				"x": 0.3553956131,
				"y": -2.5321502842,
				"z": -0.3522802848,
				"element": "C" 
			},
			{
				"x": 1.3186519257,
				"y": -3.071841651,
				"z": -1.2115088972,
				"element": "C" 
			},
			{
				"x": 0.9819153155,
				"y": -4.1121618551,
				"z": -2.0751247219,
				"element": "C" 
			},
			{
				"x": -0.327881671,
				"y": -4.5848225959,
				"z": -2.039028362,
				"element": "C" 
			},
			{
				"x": -1.2811398359,
				"y": -4.0454687249,
				"z": -1.2727820177,
				"element": "N" 
			},
			{
				"x": 0.8026397922,
				"y": -1.5653077825,
				"z": 0.7163210469,
				"element": "C" 
			},
			{
				"x": 1.4913832014,
				"y": -0.4729833232,
				"z": 0.2472149549,
				"element": "N" 
			},
			{
				"x": 0.6468331219,
				"y": -1.7880698131,
				"z": 1.9063632072,
				"element": "O" 
			},
			{
				"x": -2.1364935032,
				"y": 0.1300397017,
				"z": -0.5861274395,
				"element": "C" 
			},
			{
				"x": -2.0063217303,
				"y": 1.5143639013,
				"z": -0.4884920885,
				"element": "C" 
			},
			{
				"x": -1.2225813955,
				"y": 3.9577725168,
				"z": 1.7439647845,
				"element": "H" 
			},
			{
				"x": -1.3160948168,
				"y": 4.0864800645,
				"z": -0.0210102016,
				"element": "H" 
			},
			{
				"x": -2.7898522915,
				"y": 4.0973978066,
				"z": 0.9475578473,
				"element": "H" 
			},
			{
				"x": -1.7651531181,
				"y": 1.805310144,
				"z": 2.8831239454,
				"element": "H" 
			},
			{
				"x": -1.9316609243,
				"y": -0.6582647827,
				"z": 2.7136794279,
				"element": "H" 
			},
			{
				"x": 2.3374149328,
				"y": -2.6973019625,
				"z": -1.1655288798,
				"element": "H" 
			},
			{
				"x": 1.7158711067,
				"y": -4.5553353386,
				"z": -2.7398564136,
				"element": "H" 
			},
			{
				"x": -0.6358116272,
				"y": -5.4228627034,
				"z": -2.6615466466,
				"element": "H" 
			},
			{
				"x": 1.7017621979,
				"y": 0.235897153,
				"z": 0.9367475094,
				"element": "H" 
			},
			{
				"x": 1.3217970824,
				"y": -0.1526230191,
				"z": -0.6946436201,
				"element": "H" 
			},
			{
				"x": -2.2634606828,
				"y": -0.3386232135,
				"z": -1.5574568812,
				"element": "H" 
			},
			{
				"x": -2.022994441,
				"y": 2.1170411323,
				"z": -1.3937072507,
				"element": "H" 
			}
		],
		 "valence_orbital": [ 
			{
				"type": "occ",
				"energy": -0.26756,
				"method": "rhf"
			},
			{
				"type": "occ",
				"energy": -0.25696,
				"method": "rhf"
			},
			{
				"type": "occ",
				"energy": -0.25316,
				"method": "rhf"
			},
			{
				"type": "occ",
				"energy": -0.24546,
				"method": "rhf"
			},
			{
				"type": "occ",
				"energy": -0.21658,
				"method": "rhf"
			},
			{
				"type": "unocc",
				"energy": -0.03774,
				"method": "rhf"
			},
			{
				"type": "unocc",
				"energy": -0.03204,
				"method": "rhf"
			},
			{
				"type": "unocc",
				"energy": -0.02012,
				"method": "rhf"
			},
			{
				"type": "unocc",
				"energy": -0.00666,
				"method": "rhf"
			},
			{
				"type": "unocc",
				"energy": 0.03237,
				"method": "rhf"
			}
		],
		"cosmo_sigma_profile": { 
			"-0.025": 0.0,
			"-0.024": 0.0,
			"-0.023": 0.0,
			"-0.022": 0.0,
			"-0.021": 0.0,
			"-0.02": 0.0,
			"-0.019": 0.0,
			"-0.018": 0.0,
			"-0.017": 0.0,
			"-0.016": 0.0,
			"-0.015": 0.0202642894242,
			"-0.014": 1.19971101837,
			"-0.013": 1.95626117585,
			"-0.012": 2.00576577963,
			"-0.011": 1.91383937659,
			"-0.01": 1.97481272211,
			"-0.009": 2.07497651513,
			"-0.008": 3.17265944133,
			"-0.007": 9.16174389522,
			"-0.006": 13.5451628241,
			"-0.005": 17.308499058,
			"-0.004": 21.7403323942,
			"-0.003": 19.9043281008,
			"-0.002": 19.0445290259,
			"-0.001": 22.0614723021,
			"0.0": 22.5610292063,
			"0.001": 22.9293186172,
			"0.002": 19.5362097487,
			"0.003": 15.9964659158,
			"0.004": 13.5563168733,
			"0.005": 9.62017990054,
			"0.006": 5.01309809565,
			"0.007": 6.14619880711,
			"0.008": 4.73326746978,
			"0.009": 3.42750998397,
			"0.01": 2.9194619545,
			"0.011": 3.58323374187,
			"0.012": 3.66997768534,
			"0.013": 5.40024680179,
			"0.014": 3.005497083,
			"0.015": 0.699842262411,
			"0.016": 0.093718358189,
			"0.017": 0.0,
			"0.018": 0.0,
			"0.019": 0.0,
			"0.02": 0.0,
			"0.021": 0.0,
			"0.022": 0.0,
			"0.023": 0.0,
			"0.024": 0.0,
			"0.025": 0.0
		}
	}
}
