{
	 "smiles": "CC(C)(O)C#CC#CC(C)(C)O", 
	 "Tm": 406.15, 
	 "num_atms": 26, 
	 "gaussian": { 
		 "optdone": 1, 
		 "sigma_profile": "yes", 
		 "theory": "DFT", 
		 "functional": "B3LYP", 
		 "basiset": "6-31G**", 
		 "properties": { 
			 "R2extent": 4639.0639, 
			 "electric_dipole_moment_norm": 1.81033769502, 
			 "electric_quadrupole_moment_norm": 7.29488960095, 
			 "total_energy": -539.828374719, 
			 "HOMO_LUMO_gap": 0.21907, 
			 "cosmo_polarized_energy": -11.63, 
			 "cosmo_cavitation_energy": 31.32, 
			 "cosmo_dispersion_energy": -21.54, 
			 "cosmo_repulsion_energy": 1.8, 
			 "cosmo_total_nonelectrostatic_energy": 11.58, 
			 "SMD_solvation_energy": 6.5 
		},
		"coords": [
			{
				"x": -1.4878678159,
				"y": 1.6888237991,
				"z": 3.2946077172,
				"element": "C" 
			},
			{
				"x": -1.7515916771,
				"y": 0.2045713632,
				"z": 2.9729636002,
				"element": "C" 
			},
			{
				"x": -0.9741637174,
				"y": -0.7155421407,
				"z": 3.9255494052,
				"element": "C" 
			},
			{
				"x": -3.1342724717,
				"y": -0.1082407085,
				"z": 3.1938339907,
				"element": "O" 
			},
			{
				"x": -1.3877919875,
				"y": -0.0739432964,
				"z": 1.5691510929,
				"element": "C" 
			},
			{
				"x": -1.1275772302,
				"y": -0.2775128457,
				"z": 0.3976006019,
				"element": "C" 
			},
			{
				"x": -0.8260540699,
				"y": -0.5108344678,
				"z": -0.9147298634,
				"element": "C" 
			},
			{
				"x": -0.5587938529,
				"y": -0.7091927995,
				"z": -2.0855878615,
				"element": "C" 
			},
			{
				"x": -0.2207216797,
				"y": -1.0064826217,
				"z": -3.4919791221,
				"element": "C" 
			},
			{
				"x": 1.3049913528,
				"y": -1.1710792311,
				"z": -3.6371995343,
				"element": "C" 
			},
			{
				"x": -0.7499454221,
				"y": 0.0968630752,
				"z": -4.4198759683,
				"element": "C" 
			},
			{
				"x": -0.8870004073,
				"y": -2.2045992568,
				"z": -3.9150900756,
				"element": "O" 
			},
			{
				"x": -1.7881417161,
				"y": 1.8906809053,
				"z": 4.326878121,
				"element": "H" 
			},
			{
				"x": -0.4299285145,
				"y": 1.9394704626,
				"z": 3.1736271522,
				"element": "H" 
			},
			{
				"x": -2.0669185338,
				"y": 2.3358184574,
				"z": 2.6278639324,
				"element": "H" 
			},
			{
				"x": -1.2858263916,
				"y": -0.511572632,
				"z": 4.9540265895,
				"element": "H" 
			},
			{
				"x": -1.1906791433,
				"y": -1.7608652992,
				"z": 3.6948538105,
				"element": "H" 
			},
			{
				"x": 0.1017356504,
				"y": -0.546111878,
				"z": 3.8364368415,
				"element": "H" 
			},
			{
				"x": -3.6529970262,
				"y": 0.3796720048,
				"z": 2.5395096512,
				"element": "H" 
			},
			{
				"x": 1.6682240833,
				"y": -1.9772472237,
				"z": -2.991745562,
				"element": "H" 
			},
			{
				"x": 1.5413857411,
				"y": -1.4200463621,
				"z": -4.6757693928,
				"element": "H" 
			},
			{
				"x": 1.8316016995,
				"y": -0.2531876907,
				"z": -3.3599766421,
				"element": "H" 
			},
			{
				"x": -0.515437936,
				"y": -0.1637532485,
				"z": -5.4560169321,
				"element": "H" 
			},
			{
				"x": -0.2911364431,
				"y": 1.0590674567,
				"z": -4.1793221236,
				"element": "H" 
			},
			{
				"x": -1.8338325308,
				"y": 0.1832217655,
				"z": -4.3172621833,
				"element": "H" 
			},
			{
				"x": -0.6557599602,
				"y": -2.9047775874,
				"z": -3.2893472455,
				"element": "H" 
			}
		],
		 "valence_orbital": [ 
			{
				"type": "occ",
				"energy": -0.32805,
				"method": "rhf"
			},
			{
				"type": "occ",
				"energy": -0.28397,
				"method": "rhf"
			},
			{
				"type": "occ",
				"energy": -0.28166,
				"method": "rhf"
			},
			{
				"type": "occ",
				"energy": -0.23973,
				"method": "rhf"
			},
			{
				"type": "occ",
				"energy": -0.23676,
				"method": "rhf"
			},
			{
				"type": "unocc",
				"energy": -0.01769,
				"method": "rhf"
			},
			{
				"type": "unocc",
				"energy": -0.01326,
				"method": "rhf"
			},
			{
				"type": "unocc",
				"energy": 0.07424,
				"method": "rhf"
			},
			{
				"type": "unocc",
				"energy": 0.075,
				"method": "rhf"
			},
			{
				"type": "unocc",
				"energy": 0.11235,
				"method": "rhf"
			}
		],
		"cosmo_sigma_profile": { 
			"-0.025": 0.0,
			"-0.024": 0.0,
			"-0.023": 0.0,
			"-0.022": 0.0,
			"-0.021": 0.0,
			"-0.02": 0.0,
			"-0.019": 0.0,
			"-0.018": 0.0,
			"-0.017": 0.0,
			"-0.016": 0.577198043969,
			"-0.015": 1.55314661627,
			"-0.014": 1.85264958923,
			"-0.013": 2.04398770855,
			"-0.012": 1.89974139229,
			"-0.011": 1.30214928762,
			"-0.01": 1.65908554244,
			"-0.009": 1.84292702037,
			"-0.008": 2.59041014362,
			"-0.007": 1.78735409405,
			"-0.006": 2.15535415043,
			"-0.005": 7.33022247209,
			"-0.004": 24.5843408742,
			"-0.003": 20.7916079214,
			"-0.002": 23.4030802126,
			"-0.001": 25.0566618457,
			"0.0": 31.0756275614,
			"0.001": 12.0186180234,
			"0.002": 7.36151291098,
			"0.003": 13.4674150862,
			"0.004": 24.5312912316,
			"0.005": 12.5672294691,
			"0.006": 3.56599327251,
			"0.007": 3.00049642854,
			"0.008": 2.36215505409,
			"0.009": 2.82116466152,
			"0.01": 2.09128738322,
			"0.011": 2.6996706461,
			"0.012": 2.95685346764,
			"0.013": 4.36273761672,
			"0.014": 0.746110504194,
			"0.015": 0.0,
			"0.016": 0.0,
			"0.017": 0.0,
			"0.018": 0.0,
			"0.019": 0.0,
			"0.02": 0.0,
			"0.021": 0.0,
			"0.022": 0.0,
			"0.023": 0.0,
			"0.024": 0.0,
			"0.025": 0.0
		}
	}
}
