{
	 "smiles": "ClC1=NC=C(I)C=N1", 
	 "Tm": 366.15, 
	 "num_atms": 10, 
	 "gaussian": { 
		 "optdone": 1, 
		 "sigma_profile": "yes", 
		 "theory": "DFT", 
		 "functional": "B3LYP", 
		 "basiset": "6-31G**", 
		 "properties": { 
			 "R2extent": 1620.3484, 
			 "electric_dipole_moment_norm": 2.63002036874, 
			 "electric_quadrupole_moment_norm": 5.4919320644, 
			 "total_energy": -734.694640929, 
			 "HOMO_LUMO_gap": 0.19658, 
			 "cosmo_polarized_energy": -6.84, 
			 "cosmo_cavitation_energy": 19.99, 
			 "cosmo_dispersion_energy": -16.7, 
			 "cosmo_repulsion_energy": 1.35, 
			 "cosmo_total_nonelectrostatic_energy": 4.64, 
			 "SMD_solvation_energy": -0.45 
		},
		"coords": [
			{
				"x": -0.6663834654,
				"y": 0.7133708622,
				"z": -1.8452532414,
				"element": "Cl" 
			},
			{
				"x": 0.2858420998,
				"y": -0.3876062868,
				"z": -0.8786755105,
				"element": "C" 
			},
			{
				"x": 0.2641999409,
				"y": -1.6619248876,
				"z": -1.2544109775,
				"element": "N" 
			},
			{
				"x": 0.9925720197,
				"y": -2.5014868937,
				"z": -0.5117876702,
				"element": "C" 
			},
			{
				"x": 1.7279809219,
				"y": -2.0586446576,
				"z": 0.5898939415,
				"element": "C" 
			},
			{
				"x": 2.8720512263,
				"y": -3.3837165862,
				"z": 1.7542869468,
				"element": "I" 
			},
			{
				"x": 1.6676230001,
				"y": -0.6941675195,
				"z": 0.8817918639,
				"element": "C" 
			},
			{
				"x": 0.9414668171,
				"y": 0.151297455,
				"z": 0.143713767,
				"element": "N" 
			},
			{
				"x": 0.9846532168,
				"y": -3.5473414261,
				"z": -0.8076255411,
				"element": "H" 
			},
			{
				"x": 2.2097942229,
				"y": -0.2672800597,
				"z": 1.7215664213,
				"element": "H" 
			}
		],
		 "valence_orbital": [ 
			{
				"type": "occ",
				"energy": -0.32754,
				"method": "rhf"
			},
			{
				"type": "occ",
				"energy": -0.31713,
				"method": "rhf"
			},
			{
				"type": "occ",
				"energy": -0.29888,
				"method": "rhf"
			},
			{
				"type": "occ",
				"energy": -0.27838,
				"method": "rhf"
			},
			{
				"type": "occ",
				"energy": -0.2679,
				"method": "rhf"
			},
			{
				"type": "unocc",
				"energy": -0.07132,
				"method": "rhf"
			},
			{
				"type": "unocc",
				"energy": -0.06193,
				"method": "rhf"
			},
			{
				"type": "unocc",
				"energy": -0.05762,
				"method": "rhf"
			},
			{
				"type": "unocc",
				"energy": 0.02904,
				"method": "rhf"
			},
			{
				"type": "unocc",
				"energy": 0.03156,
				"method": "rhf"
			}
		],
		"cosmo_sigma_profile": { 
			"-0.025": 0.0,
			"-0.024": 0.0,
			"-0.023": 0.0,
			"-0.022": 0.0,
			"-0.021": 0.0,
			"-0.02": 0.0,
			"-0.019": 0.0,
			"-0.018": 0.0,
			"-0.017": 0.0,
			"-0.016": 0.0,
			"-0.015": 0.0,
			"-0.014": 0.0,
			"-0.013": 0.0,
			"-0.012": 0.0,
			"-0.011": 0.0,
			"-0.01": 0.574087676701,
			"-0.009": 4.21377016537,
			"-0.008": 5.08846105634,
			"-0.007": 5.31458517939,
			"-0.006": 5.66982811772,
			"-0.005": 7.52707903184,
			"-0.004": 9.61532270284,
			"-0.003": 14.7325596841,
			"-0.002": 15.2406078345,
			"-0.001": 11.0550070049,
			"0.0": 11.0260894132,
			"0.001": 12.5259273856,
			"0.002": 12.9264327377,
			"0.003": 22.2900236455,
			"0.004": 11.1692321654,
			"0.005": 4.17921072887,
			"0.006": 3.19061890724,
			"0.007": 3.05788361192,
			"0.008": 2.19556234983,
			"0.009": 2.38732850817,
			"0.01": 1.12902358038,
			"0.011": 1.88219273677,
			"0.012": 1.95498056118,
			"0.013": 0.683081936475,
			"0.014": 0.0,
			"0.015": 0.0,
			"0.016": 0.0,
			"0.017": 0.0,
			"0.018": 0.0,
			"0.019": 0.0,
			"0.02": 0.0,
			"0.021": 0.0,
			"0.022": 0.0,
			"0.023": 0.0,
			"0.024": 0.0,
			"0.025": 0.0
		}
	}
}
