{
	 "smiles": "ClC1=CC(NCC2=NC=CC=C2)=C(C=C1)C#N", 
	 "Tm": 374.15, 
	 "num_atms": 27, 
	 "gaussian": { 
		 "optdone": 1, 
		 "sigma_profile": "yes", 
		 "theory": "DFT", 
		 "functional": "B3LYP", 
		 "basiset": "6-31G**", 
		 "properties": { 
			 "R2extent": 6459.5554, 
			 "electric_dipole_moment_norm": 4.5291154876, 
			 "electric_quadrupole_moment_norm": 20.0333469326, 
			 "total_energy": -1125.84245702, 
			 "HOMO_LUMO_gap": 0.16875, 
			 "cosmo_polarized_energy": -11.49, 
			 "cosmo_cavitation_energy": 34.29, 
			 "cosmo_dispersion_energy": -24.57, 
			 "cosmo_repulsion_energy": 1.89, 
			 "cosmo_total_nonelectrostatic_energy": 11.61, 
			 "SMD_solvation_energy": 4.67 
		},
		"coords": [
			{
				"x": 3.0933801315,
				"y": 4.162735031,
				"z": -1.5493575617,
				"element": "Cl" 
			},
			{
				"x": 2.5294496246,
				"y": 3.0985241901,
				"z": -0.2710377499,
				"element": "C" 
			},
			{
				"x": 1.3806125989,
				"y": 2.3590143338,
				"z": -0.4780246193,
				"element": "C" 
			},
			{
				"x": 0.8868352687,
				"y": 1.4826324938,
				"z": 0.5205577035,
				"element": "C" 
			},
			{
				"x": -0.2604112262,
				"y": 0.7950557207,
				"z": 0.2442652471,
				"element": "N" 
			},
			{
				"x": -0.7765412203,
				"y": -0.3741208791,
				"z": 0.9238428384,
				"element": "C" 
			},
			{
				"x": -1.8576412136,
				"y": -1.0285307929,
				"z": 0.0766425921,
				"element": "C" 
			},
			{
				"x": -2.0664084812,
				"y": -0.5300138561,
				"z": -1.1462557165,
				"element": "N" 
			},
			{
				"x": -3.007172409,
				"y": -1.0965050215,
				"z": -1.9159152334,
				"element": "C" 
			},
			{
				"x": -3.7760377404,
				"y": -2.1811389221,
				"z": -1.5053906431,
				"element": "C" 
			},
			{
				"x": -3.5561956525,
				"y": -2.6990613221,
				"z": -0.2263146939,
				"element": "C" 
			},
			{
				"x": -2.5850182485,
				"y": -2.1147362813,
				"z": 0.5795925491,
				"element": "C" 
			},
			{
				"x": 1.6164269296,
				"y": 1.4091734403,
				"z": 1.7435963899,
				"element": "C" 
			},
			{
				"x": 2.7901752752,
				"y": 2.175723084,
				"z": 1.9082581159,
				"element": "C" 
			},
			{
				"x": 3.263669998,
				"y": 3.0201651617,
				"z": 0.9199492901,
				"element": "C" 
			},
			{
				"x": 1.1981124221,
				"y": 0.6216880473,
				"z": 2.8606783506,
				"element": "C" 
			},
			{
				"x": 0.8919953482,
				"y": 0.0091143532,
				"z": 3.8036422213,
				"element": "N" 
			},
			{
				"x": 0.8469870407,
				"y": 2.4407514332,
				"z": -1.4188625961,
				"element": "H" 
			},
			{
				"x": -0.6446898162,
				"y": 0.8858831024,
				"z": -0.6917443719,
				"element": "H" 
			},
			{
				"x": -1.197228309,
				"y": -0.1219664074,
				"z": 1.9044642506,
				"element": "H" 
			},
			{
				"x": 0.0177091307,
				"y": -1.1113134065,
				"z": 1.1132414459,
				"element": "H" 
			},
			{
				"x": -3.1458370576,
				"y": -0.6580790513,
				"z": -2.901883764,
				"element": "H" 
			},
			{
				"x": -4.5249758616,
				"y": -2.6051296812,
				"z": -2.1660387106,
				"element": "H" 
			},
			{
				"x": -4.1353673575,
				"y": -3.5433444714,
				"z": 0.135960457,
				"element": "H" 
			},
			{
				"x": -2.3880643,
				"y": -2.4863952133,
				"z": 1.5809766383,
				"element": "H" 
			},
			{
				"x": 3.323213812,
				"y": 2.0955505853,
				"z": 2.8500253868,
				"element": "H" 
			},
			{
				"x": 4.1636213132,
				"y": 3.6059243293,
				"z": 1.0583321837,
				"element": "H" 
			}
		],
		 "valence_orbital": [ 
			{
				"type": "occ",
				"energy": -0.30456,
				"method": "rhf"
			},
			{
				"type": "occ",
				"energy": -0.28124,
				"method": "rhf"
			},
			{
				"type": "occ",
				"energy": -0.2721,
				"method": "rhf"
			},
			{
				"type": "occ",
				"energy": -0.25277,
				"method": "rhf"
			},
			{
				"type": "occ",
				"energy": -0.21164,
				"method": "rhf"
			},
			{
				"type": "unocc",
				"energy": -0.04289,
				"method": "rhf"
			},
			{
				"type": "unocc",
				"energy": -0.03834,
				"method": "rhf"
			},
			{
				"type": "unocc",
				"energy": -0.02936,
				"method": "rhf"
			},
			{
				"type": "unocc",
				"energy": -0.00579,
				"method": "rhf"
			},
			{
				"type": "unocc",
				"energy": 0.02498,
				"method": "rhf"
			}
		],
		"cosmo_sigma_profile": { 
			"-0.025": 0.0,
			"-0.024": 0.0,
			"-0.023": 0.0,
			"-0.022": 0.0,
			"-0.021": 0.0,
			"-0.02": 0.0,
			"-0.019": 0.0,
			"-0.018": 0.0,
			"-0.017": 0.0,
			"-0.016": 0.0,
			"-0.015": 0.0,
			"-0.014": 0.0,
			"-0.013": 0.0,
			"-0.012": 0.121749766353,
			"-0.011": 0.652060131821,
			"-0.01": 1.10574834666,
			"-0.009": 1.32992278921,
			"-0.008": 3.40068696294,
			"-0.007": 13.4239662104,
			"-0.006": 19.08118732,
			"-0.005": 19.8567602609,
			"-0.004": 14.6095330742,
			"-0.003": 14.7355501177,
			"-0.002": 15.1257638275,
			"-0.001": 15.6613425966,
			"0.0": 22.1226565354,
			"0.001": 29.3447589443,
			"0.002": 34.4723460499,
			"0.003": 25.3920540692,
			"0.004": 15.6238005123,
			"0.005": 6.51082722765,
			"0.006": 4.53327804266,
			"0.007": 3.70140616996,
			"0.008": 3.56826261499,
			"0.009": 3.05519429778,
			"0.01": 2.82987983908,
			"0.011": 2.8802023188,
			"0.012": 2.57876587441,
			"0.013": 2.36327761409,
			"0.014": 0.687677851964,
			"0.015": 0.0,
			"0.016": 0.0,
			"0.017": 0.0,
			"0.018": 0.0,
			"0.019": 0.0,
			"0.02": 0.0,
			"0.021": 0.0,
			"0.022": 0.0,
			"0.023": 0.0,
			"0.024": 0.0,
			"0.025": 0.0
		}
	}
}
