{
	 "smiles": "CC1=CC=C(C=C1)C1=NOC(CS(Cl)(=O)=O)=C1", 
	 "Tm": 393.15, 
	 "num_atms": 27, 
	 "gaussian": { 
		 "optdone": 1, 
		 "sigma_profile": "yes", 
		 "theory": "DFT", 
		 "functional": "B3LYP", 
		 "basiset": "6-31G**", 
		 "properties": { 
			 "R2extent": 8127.4798, 
			 "electric_dipole_moment_norm": 4.32161329829, 
			 "electric_quadrupole_moment_norm": 15.2982997791, 
			 "total_energy": -1563.89187416, 
			 "HOMO_LUMO_gap": 0.14782, 
			 "cosmo_polarized_energy": -15.08, 
			 "cosmo_cavitation_energy": 35.62, 
			 "cosmo_dispersion_energy": -26.01, 
			 "cosmo_repulsion_energy": 1.97, 
			 "cosmo_total_nonelectrostatic_energy": 11.58, 
			 "SMD_solvation_energy": 4.52 
		},
		"coords": [
			{
				"x": -2.204045408,
				"y": -5.4855484223,
				"z": -0.325881023,
				"element": "C" 
			},
			{
				"x": -1.4819444746,
				"y": -4.1625930379,
				"z": -0.4101454479,
				"element": "C" 
			},
			{
				"x": -0.1132449832,
				"y": -4.1096949228,
				"z": -0.7197766257,
				"element": "C" 
			},
			{
				"x": 0.5673569193,
				"y": -2.9000639107,
				"z": -0.7805206291,
				"element": "C" 
			},
			{
				"x": -0.1057160464,
				"y": -1.691078514,
				"z": -0.5334031163,
				"element": "C" 
			},
			{
				"x": -1.4721469998,
				"y": -1.7360398128,
				"z": -0.2279523119,
				"element": "C" 
			},
			{
				"x": -2.1463363652,
				"y": -2.9547691436,
				"z": -0.1686589077,
				"element": "C" 
			},
			{
				"x": 0.6128625966,
				"y": -0.4083211258,
				"z": -0.6008366372,
				"element": "C" 
			},
			{
				"x": 1.8736739826,
				"y": -0.3593390064,
				"z": -1.0000679073,
				"element": "N" 
			},
			{
				"x": 2.2475674569,
				"y": 0.9759746212,
				"z": -0.9486222154,
				"element": "O" 
			},
			{
				"x": 1.2001446618,
				"y": 1.7095484683,
				"z": -0.5082823503,
				"element": "C" 
			},
			{
				"x": 1.4287414483,
				"y": 3.166758547,
				"z": -0.3909819019,
				"element": "C" 
			},
			{
				"x": 0.4549520465,
				"y": 4.1865527717,
				"z": -1.5768631187,
				"element": "S" 
			},
			{
				"x": 1.2180612704,
				"y": 3.4868552658,
				"z": -3.4239723676,
				"element": "Cl" 
			},
			{
				"x": 0.8769686736,
				"y": 5.572359854,
				"z": -1.4196799047,
				"element": "O" 
			},
			{
				"x": -0.9473566933,
				"y": 3.7958152178,
				"z": -1.50422868,
				"element": "O" 
			},
			{
				"x": 0.13413767,
				"y": 0.8991301568,
				"z": -0.2704987608,
				"element": "C" 
			},
			{
				"x": -1.9271161079,
				"y": -6.0295813749,
				"z": 0.5855569135,
				"element": "H" 
			},
			{
				"x": -3.2889261329,
				"y": -5.349995495,
				"z": -0.3122180494,
				"element": "H" 
			},
			{
				"x": -1.9535572715,
				"y": -6.1315951701,
				"z": -1.1738093836,
				"element": "H" 
			},
			{
				"x": 0.4254698712,
				"y": -5.0334278411,
				"z": -0.9162462676,
				"element": "H" 
			},
			{
				"x": 1.624867486,
				"y": -2.8769362495,
				"z": -1.0209662905,
				"element": "H" 
			},
			{
				"x": -2.0221332208,
				"y": -0.8179937353,
				"z": -0.0445862357,
				"element": "H" 
			},
			{
				"x": -3.2074940904,
				"y": -2.9653659499,
				"z": 0.0660287261,
				"element": "H" 
			},
			{
				"x": 2.4748681703,
				"y": 3.428807774,
				"z": -0.5567634445,
				"element": "H" 
			},
			{
				"x": 1.0983164985,
				"y": 3.5696351325,
				"z": 0.5716610093,
				"element": "H" 
			},
			{
				"x": -0.8440709581,
				"y": 1.1938059032,
				"z": 0.0740149278,
				"element": "H" 
			}
		],
		 "valence_orbital": [ 
			{
				"type": "occ",
				"energy": -0.32011,
				"method": "rhf"
			},
			{
				"type": "occ",
				"energy": -0.31538,
				"method": "rhf"
			},
			{
				"type": "occ",
				"energy": -0.28106,
				"method": "rhf"
			},
			{
				"type": "occ",
				"energy": -0.26066,
				"method": "rhf"
			},
			{
				"type": "occ",
				"energy": -0.2404,
				"method": "rhf"
			},
			{
				"type": "unocc",
				"energy": -0.09258,
				"method": "rhf"
			},
			{
				"type": "unocc",
				"energy": -0.05017,
				"method": "rhf"
			},
			{
				"type": "unocc",
				"energy": -0.02391,
				"method": "rhf"
			},
			{
				"type": "unocc",
				"energy": -0.00868,
				"method": "rhf"
			},
			{
				"type": "unocc",
				"energy": 0.04082,
				"method": "rhf"
			}
		],
		"cosmo_sigma_profile": { 
			"-0.025": 0.0,
			"-0.024": 0.0,
			"-0.023": 0.0,
			"-0.022": 0.0,
			"-0.021": 0.0,
			"-0.02": 0.0,
			"-0.019": 0.0,
			"-0.018": 0.0,
			"-0.017": 0.0,
			"-0.016": 0.0,
			"-0.015": 0.0,
			"-0.014": 0.253728695792,
			"-0.013": 1.71236541627,
			"-0.012": 3.71421034363,
			"-0.011": 3.46747455465,
			"-0.01": 4.7315033583,
			"-0.009": 5.22928705233,
			"-0.008": 6.34926452557,
			"-0.007": 5.92698380393,
			"-0.006": 6.09676636986,
			"-0.005": 13.4169264997,
			"-0.004": 17.2081718173,
			"-0.003": 16.14953955,
			"-0.002": 19.7955502617,
			"-0.001": 22.3840854846,
			"0.0": 24.5544188311,
			"0.001": 21.244142457,
			"0.002": 23.6698848486,
			"0.003": 24.6385816864,
			"0.004": 14.6405586853,
			"0.005": 13.5981266317,
			"0.006": 6.61620243773,
			"0.007": 11.2601448344,
			"0.008": 12.6193515648,
			"0.009": 4.45943930365,
			"0.01": 1.55062502513,
			"0.011": 1.21460182474,
			"0.012": 1.00452943446,
			"0.013": 0.314914320428,
			"0.014": 0.0,
			"0.015": 0.0,
			"0.016": 0.0,
			"0.017": 0.0,
			"0.018": 0.0,
			"0.019": 0.0,
			"0.02": 0.0,
			"0.021": 0.0,
			"0.022": 0.0,
			"0.023": 0.0,
			"0.024": 0.0,
			"0.025": 0.0
		}
	}
}
