{
	 "smiles": "CCC1(O)CCCCC1", 
	 "Tm": 307.65, 
	 "num_atms": 25, 
	 "gaussian": { 
		 "optdone": 1, 
		 "sigma_profile": "yes", 
		 "theory": "DFT", 
		 "functional": "B3LYP", 
		 "basiset": "6-31G**", 
		 "properties": { 
			 "R2extent": 1441.2329, 
			 "electric_dipole_moment_norm": 1.36229897233, 
			 "electric_quadrupole_moment_norm": 4.02244293682, 
			 "total_energy": -389.738745095, 
			 "HOMO_LUMO_gap": 0.32658, 
			 "cosmo_polarized_energy": -5.24, 
			 "cosmo_cavitation_energy": 24.25, 
			 "cosmo_dispersion_energy": -18.07, 
			 "cosmo_repulsion_energy": 1.48, 
			 "cosmo_total_nonelectrostatic_energy": 7.66, 
			 "SMD_solvation_energy": 3.45 
		},
		"coords": [
			{
				"x": -1.1835592788,
				"y": 1.892987633,
				"z": -1.0303966196,
				"element": "C" 
			},
			{
				"x": -1.000751183,
				"y": 1.486665823,
				"z": 0.4370790889,
				"element": "C" 
			},
			{
				"x": -0.5159286539,
				"y": 0.0479916783,
				"z": 0.7220415365,
				"element": "C" 
			},
			{
				"x": -0.4739508903,
				"y": -0.1228419522,
				"z": 2.1521422056,
				"element": "O" 
			},
			{
				"x": 0.8832262657,
				"y": -0.2271855043,
				"z": 0.1293444285,
				"element": "C" 
			},
			{
				"x": 1.3683057001,
				"y": -1.6553299058,
				"z": 0.4217959579,
				"element": "C" 
			},
			{
				"x": 0.3581828124,
				"y": -2.6978447566,
				"z": -0.0798518423,
				"element": "C" 
			},
			{
				"x": -1.0371792468,
				"y": -2.4457519513,
				"z": 0.5104767029,
				"element": "C" 
			},
			{
				"x": -1.5163712087,
				"y": -1.012855772,
				"z": 0.2288121939,
				"element": "C" 
			},
			{
				"x": -1.9275678163,
				"y": 1.2702066347,
				"z": -1.5368081385,
				"element": "H" 
			},
			{
				"x": -0.2492019285,
				"y": 1.8246993597,
				"z": -1.5965303026,
				"element": "H" 
			},
			{
				"x": -1.5287434032,
				"y": 2.9299134783,
				"z": -1.0964008399,
				"element": "H" 
			},
			{
				"x": -1.9462729213,
				"y": 1.6184525204,
				"z": 0.9770782968,
				"element": "H" 
			},
			{
				"x": -0.2827426895,
				"y": 2.1758184363,
				"z": 0.9071616377,
				"element": "H" 
			},
			{
				"x": 0.1656208536,
				"y": 0.512500486,
				"z": 2.5019079351,
				"element": "H" 
			},
			{
				"x": 0.8540989943,
				"y": -0.0685068989,
				"z": -0.9562646039,
				"element": "H" 
			},
			{
				"x": 1.5943959721,
				"y": 0.5104847989,
				"z": 0.5293538001,
				"element": "H" 
			},
			{
				"x": 2.3497190045,
				"y": -1.8176502188,
				"z": -0.0397864227,
				"element": "H" 
			},
			{
				"x": 1.4989652164,
				"y": -1.7717304439,
				"z": 1.5041606169,
				"element": "H" 
			},
			{
				"x": 0.3038322171,
				"y": -2.6508399733,
				"z": -1.1777260845,
				"element": "H" 
			},
			{
				"x": 0.7003587527,
				"y": -3.7090343903,
				"z": 0.1714341444,
				"element": "H" 
			},
			{
				"x": -1.0077097671,
				"y": -2.6018101345,
				"z": 1.5945850717,
				"element": "H" 
			},
			{
				"x": -1.7590395608,
				"y": -3.1633864876,
				"z": 0.1021459465,
				"element": "H" 
			},
			{
				"x": -1.6629302536,
				"y": -0.8841093391,
				"z": -0.8506373617,
				"element": "H" 
			},
			{
				"x": -2.484156987,
				"y": -0.83114312,
				"z": 0.7109826522,
				"element": "H" 
			}
		],
		 "valence_orbital": [ 
			{
				"type": "occ",
				"energy": -0.32226,
				"method": "rhf"
			},
			{
				"type": "occ",
				"energy": -0.31075,
				"method": "rhf"
			},
			{
				"type": "occ",
				"energy": -0.30056,
				"method": "rhf"
			},
			{
				"type": "occ",
				"energy": -0.28577,
				"method": "rhf"
			},
			{
				"type": "occ",
				"energy": -0.25568,
				"method": "rhf"
			},
			{
				"type": "unocc",
				"energy": 0.0709,
				"method": "rhf"
			},
			{
				"type": "unocc",
				"energy": 0.10069,
				"method": "rhf"
			},
			{
				"type": "unocc",
				"energy": 0.10826,
				"method": "rhf"
			},
			{
				"type": "unocc",
				"energy": 0.11965,
				"method": "rhf"
			},
			{
				"type": "unocc",
				"energy": 0.13225,
				"method": "rhf"
			}
		],
		"cosmo_sigma_profile": { 
			"-0.025": 0.0,
			"-0.024": 0.0,
			"-0.023": 0.0,
			"-0.022": 0.0,
			"-0.021": 0.0,
			"-0.02": 0.0,
			"-0.019": 0.0,
			"-0.018": 0.0,
			"-0.017": 0.0,
			"-0.016": 0.0,
			"-0.015": 0.0109152920814,
			"-0.014": 0.609180479709,
			"-0.013": 0.670161055042,
			"-0.012": 0.955704926728,
			"-0.011": 1.3117611551,
			"-0.01": 0.559288101901,
			"-0.009": 1.35696088602,
			"-0.008": 1.21362136617,
			"-0.007": 0.670003926177,
			"-0.006": 1.13094255293,
			"-0.005": 1.58535866275,
			"-0.004": 1.80141201083,
			"-0.003": 9.24556352231,
			"-0.002": 25.3784136378,
			"-0.001": 31.9605366755,
			"0.0": 39.8604508014,
			"0.001": 36.371668598,
			"0.002": 12.7331907364,
			"0.003": 2.11845994499,
			"0.004": 1.60880693944,
			"0.005": 1.56415080017,
			"0.006": 0.984270196747,
			"0.007": 1.57801932548,
			"0.008": 1.85625082844,
			"0.009": 1.22988913925,
			"0.01": 1.68677607227,
			"0.011": 0.769004441647,
			"0.012": 1.02714222025,
			"0.013": 1.56106662765,
			"0.014": 0.945766484093,
			"0.015": 0.779870196375,
			"0.016": 0.0399132443177,
			"0.017": 0.0,
			"0.018": 0.0,
			"0.019": 0.0,
			"0.02": 0.0,
			"0.021": 0.0,
			"0.022": 0.0,
			"0.023": 0.0,
			"0.024": 0.0,
			"0.025": 0.0
		}
	}
}
