{
	 "smiles": "OC(=O)CCC1=CC=C(OC(F)F)C=C1", 
	 "Tm": 335.15, 
	 "num_atms": 25, 
	 "gaussian": { 
		 "optdone": 1, 
		 "sigma_profile": "yes", 
		 "theory": "DFT", 
		 "functional": "B3LYP", 
		 "basiset": "6-31G**", 
		 "properties": { 
			 "R2extent": 4864.9374, 
			 "electric_dipole_moment_norm": 4.7974328531, 
			 "electric_quadrupole_moment_norm": 21.0014655193, 
			 "total_energy": -812.449111344, 
			 "HOMO_LUMO_gap": 0.22103, 
			 "cosmo_polarized_energy": -14.7, 
			 "cosmo_cavitation_energy": 29.97, 
			 "cosmo_dispersion_energy": -21.3, 
			 "cosmo_repulsion_energy": 1.65, 
			 "cosmo_total_nonelectrostatic_energy": 10.31, 
			 "SMD_solvation_energy": 7.27 
		},
		"coords": [
			{
				"x": 1.3260289129,
				"y": 2.1389408041,
				"z": -0.0480924408,
				"element": "O" 
			},
			{
				"x": 1.7244823995,
				"y": 2.3834761659,
				"z": -1.3223648961,
				"element": "C" 
			},
			{
				"x": 2.0111526436,
				"y": 3.5046789154,
				"z": -1.6629297528,
				"element": "O" 
			},
			{
				"x": 1.8018737711,
				"y": 1.177505327,
				"z": -2.255361673,
				"element": "C" 
			},
			{
				"x": 0.5132585284,
				"y": 0.3208080325,
				"z": -2.3492440632,
				"element": "C" 
			},
			{
				"x": 0.2066984365,
				"y": -0.5298375285,
				"z": -1.1300803564,
				"element": "C" 
			},
			{
				"x": 1.0005116931,
				"y": -1.6428807131,
				"z": -0.8128496313,
				"element": "C" 
			},
			{
				"x": 0.736736313,
				"y": -2.4482353756,
				"z": 0.2939612952,
				"element": "C" 
			},
			{
				"x": -0.3523939614,
				"y": -2.1345827527,
				"z": 1.1125920026,
				"element": "C" 
			},
			{
				"x": -0.7343503626,
				"y": -2.8487394844,
				"z": 2.2434471022,
				"element": "O" 
			},
			{
				"x": -0.0171431831,
				"y": -3.9275112948,
				"z": 2.6806048105,
				"element": "C" 
			},
			{
				"x": 1.2722662491,
				"y": -3.5960186301,
				"z": 2.9597446037,
				"element": "F" 
			},
			{
				"x": 0.0280664384,
				"y": -4.9158660103,
				"z": 1.7456239639,
				"element": "F" 
			},
			{
				"x": -1.1592280373,
				"y": -1.034563973,
				"z": 0.8245331103,
				"element": "C" 
			},
			{
				"x": -0.8790003367,
				"y": -0.2430232147,
				"z": -0.2879190537,
				"element": "C" 
			},
			{
				"x": 1.0997910675,
				"y": 1.2019294324,
				"z": 0.0677101609,
				"element": "H" 
			},
			{
				"x": 2.0571904447,
				"y": 1.5742227729,
				"z": -3.2398308975,
				"element": "H" 
			},
			{
				"x": 2.638419311,
				"y": 0.544430467,
				"z": -1.9309138426,
				"element": "H" 
			},
			{
				"x": 0.6245131194,
				"y": -0.3365332494,
				"z": -3.2194026114,
				"element": "H" 
			},
			{
				"x": -0.3388012648,
				"y": 0.9740889253,
				"z": -2.5663017462,
				"element": "H" 
			},
			{
				"x": 1.8429506544,
				"y": -1.8990327316,
				"z": -1.4508376883,
				"element": "H" 
			},
			{
				"x": 1.3655151843,
				"y": -3.3022527107,
				"z": 0.5040457536,
				"element": "H" 
			},
			{
				"x": -0.503927939,
				"y": -4.3014286396,
				"z": 3.583918346,
				"element": "H" 
			},
			{
				"x": -1.9984762477,
				"y": -0.8132965171,
				"z": 1.4750622101,
				"element": "H" 
			},
			{
				"x": -1.5167338343,
				"y": 0.6095219833,
				"z": -0.5053147059,
				"element": "H" 
			}
		],
		 "valence_orbital": [ 
			{
				"type": "occ",
				"energy": -0.34848,
				"method": "rhf"
			},
			{
				"type": "occ",
				"energy": -0.30671,
				"method": "rhf"
			},
			{
				"type": "occ",
				"energy": -0.27602,
				"method": "rhf"
			},
			{
				"type": "occ",
				"energy": -0.26275,
				"method": "rhf"
			},
			{
				"type": "occ",
				"energy": -0.24941,
				"method": "rhf"
			},
			{
				"type": "unocc",
				"energy": -0.02838,
				"method": "rhf"
			},
			{
				"type": "unocc",
				"energy": -0.02149,
				"method": "rhf"
			},
			{
				"type": "unocc",
				"energy": 0.0151,
				"method": "rhf"
			},
			{
				"type": "unocc",
				"energy": 0.07315,
				"method": "rhf"
			},
			{
				"type": "unocc",
				"energy": 0.09089,
				"method": "rhf"
			}
		],
		"cosmo_sigma_profile": { 
			"-0.025": 0.0,
			"-0.024": 0.0,
			"-0.023": 0.0,
			"-0.022": 0.0,
			"-0.021": 0.0,
			"-0.02": 0.0,
			"-0.019": 0.0,
			"-0.018": 0.0,
			"-0.017": 0.0,
			"-0.016": 0.0,
			"-0.015": 0.0,
			"-0.014": 0.0,
			"-0.013": 0.0,
			"-0.012": 0.0,
			"-0.011": 2.67187580506,
			"-0.01": 4.0272595964,
			"-0.009": 2.72791938487,
			"-0.008": 3.00566908021,
			"-0.007": 7.69819525001,
			"-0.006": 18.4473142469,
			"-0.005": 19.1145909425,
			"-0.004": 18.3565019454,
			"-0.003": 14.8112233573,
			"-0.002": 13.7660625426,
			"-0.001": 10.6729012242,
			"0.0": 9.99313501086,
			"0.001": 14.7870339193,
			"0.002": 20.1261067313,
			"0.003": 25.5265949519,
			"0.004": 17.8489422897,
			"0.005": 3.62972953095,
			"0.006": 3.78502711697,
			"0.007": 2.75474343896,
			"0.008": 2.24355750634,
			"0.009": 2.85118018387,
			"0.01": 4.02878051395,
			"0.011": 5.94601920717,
			"0.012": 5.75665576976,
			"0.013": 3.44542936222,
			"0.014": 0.352044658332,
			"0.015": 0.0,
			"0.016": 0.0,
			"0.017": 0.0,
			"0.018": 0.0,
			"0.019": 0.0,
			"0.02": 0.0,
			"0.021": 0.0,
			"0.022": 0.0,
			"0.023": 0.0,
			"0.024": 0.0,
			"0.025": 0.0
		}
	}
}
