{
	 "smiles": "N#CC1=CNC=C1", 
	 "Tm": 329.15, 
	 "num_atms": 11, 
	 "gaussian": { 
		 "optdone": 1, 
		 "sigma_profile": "yes", 
		 "theory": "DFT", 
		 "functional": "B3LYP", 
		 "basiset": "6-31G**", 
		 "properties": { 
			 "R2extent": 1400.3394, 
			 "electric_dipole_moment_norm": 6.38400844376, 
			 "electric_quadrupole_moment_norm": 16.4573830487, 
			 "total_energy": -302.416265773, 
			 "HOMO_LUMO_gap": 0.22849, 
			 "cosmo_polarized_energy": -14.43, 
			 "cosmo_cavitation_energy": 16.34, 
			 "cosmo_dispersion_energy": -11.77, 
			 "cosmo_repulsion_energy": 1.01, 
			 "cosmo_total_nonelectrostatic_energy": 5.58, 
			 "SMD_solvation_energy": 5.02 
		},
		"coords": [
			{
				"x": -3.3129097035,
				"y": 0.6375626656,
				"z": 2.7646009038,
				"element": "N" 
			},
			{
				"x": -2.3152318706,
				"y": 0.876983295,
				"z": 2.2140867275,
				"element": "C" 
			},
			{
				"x": -1.0956395809,
				"y": 1.1739123195,
				"z": 1.5486551412,
				"element": "C" 
			},
			{
				"x": -0.6973891186,
				"y": 0.6561921712,
				"z": 0.3236575182,
				"element": "C" 
			},
			{
				"x": 0.5264275425,
				"y": 1.1861632323,
				"z": 0.036184013,
				"element": "N" 
			},
			{
				"x": 0.9293397158,
				"y": 2.0342326019,
				"z": 1.0460688137,
				"element": "C" 
			},
			{
				"x": -0.0552193765,
				"y": 2.0500897627,
				"z": 2.0022624836,
				"element": "C" 
			},
			{
				"x": -1.1961298624,
				"y": -0.0348279886,
				"z": -0.3380417534,
				"element": "H" 
			},
			{
				"x": 1.0572770609,
				"y": 0.9843837787,
				"z": -0.7962841897,
				"element": "H" 
			},
			{
				"x": 1.8759322991,
				"y": 2.5505118018,
				"z": 0.9982181647,
				"element": "H" 
			},
			{
				"x": -0.0531571058,
				"y": 2.6130963601,
				"z": 2.9233921774,
				"element": "H" 
			}
		],
		 "valence_orbital": [ 
			{
				"type": "occ",
				"energy": -0.34794,
				"method": "rhf"
			},
			{
				"type": "occ",
				"energy": -0.34558,
				"method": "rhf"
			},
			{
				"type": "occ",
				"energy": -0.31558,
				"method": "rhf"
			},
			{
				"type": "occ",
				"energy": -0.26019,
				"method": "rhf"
			},
			{
				"type": "occ",
				"energy": -0.23573,
				"method": "rhf"
			},
			{
				"type": "unocc",
				"energy": -0.00724,
				"method": "rhf"
			},
			{
				"type": "unocc",
				"energy": 0.02982,
				"method": "rhf"
			},
			{
				"type": "unocc",
				"energy": 0.04431,
				"method": "rhf"
			},
			{
				"type": "unocc",
				"energy": 0.05605,
				"method": "rhf"
			},
			{
				"type": "unocc",
				"energy": 0.12006,
				"method": "rhf"
			}
		],
		"cosmo_sigma_profile": { 
			"-0.025": 0.0,
			"-0.024": 0.0,
			"-0.023": 0.0,
			"-0.022": 0.0,
			"-0.021": 0.0,
			"-0.02": 0.0,
			"-0.019": 0.0,
			"-0.018": 0.0,
			"-0.017": 1.39527616949,
			"-0.016": 1.50203949761,
			"-0.015": 1.37004736795,
			"-0.014": 1.80437226355,
			"-0.013": 0.962292228474,
			"-0.012": 1.12169333439,
			"-0.011": 0.952796898052,
			"-0.01": 1.79451381368,
			"-0.009": 4.88412845334,
			"-0.008": 5.51928676643,
			"-0.007": 4.985716739,
			"-0.006": 5.4396662719,
			"-0.005": 4.44299236436,
			"-0.004": 5.49589939422,
			"-0.003": 5.66311468382,
			"-0.002": 4.96522342559,
			"-0.001": 4.90420778109,
			"0.0": 6.44316083204,
			"0.001": 9.33578208924,
			"0.002": 8.95128240491,
			"0.003": 8.40208795137,
			"0.004": 8.45674801853,
			"0.005": 7.18385214689,
			"0.006": 3.77405772666,
			"0.007": 2.72941243528,
			"0.008": 2.87087566463,
			"0.009": 3.52347999787,
			"0.01": 3.76100521505,
			"0.011": 3.08635755654,
			"0.012": 3.0442479483,
			"0.013": 2.50794210735,
			"0.014": 1.32417169908,
			"0.015": 0.0282033953094,
			"0.016": 0.0,
			"0.017": 0.0,
			"0.018": 0.0,
			"0.019": 0.0,
			"0.02": 0.0,
			"0.021": 0.0,
			"0.022": 0.0,
			"0.023": 0.0,
			"0.024": 0.0,
			"0.025": 0.0
		}
	}
}
