{
	 "smiles": "O=C(N1CCCCC1)N1CCCCC1", 
	 "Tm": 318.15, 
	 "num_atms": 34, 
	 "gaussian": { 
		 "optdone": 1, 
		 "sigma_profile": "yes", 
		 "theory": "DFT", 
		 "functional": "B3LYP", 
		 "basiset": "6-31G**", 
		 "properties": { 
			 "R2extent": 3809.1427, 
			 "electric_dipole_moment_norm": 3.37927163898, 
			 "electric_quadrupole_moment_norm": 13.0855111417, 
			 "total_energy": -615.973584694, 
			 "HOMO_LUMO_gap": 0.27501, 
			 "cosmo_polarized_energy": -9.63, 
			 "cosmo_cavitation_energy": 32.44, 
			 "cosmo_dispersion_energy": -23.93, 
			 "cosmo_repulsion_energy": 1.9, 
			 "cosmo_total_nonelectrostatic_energy": 10.4, 
			 "SMD_solvation_energy": 3.64 
		},
		"coords": [
			{
				"x": -1.1412934472,
				"y": -1.0179200153,
				"z": -2.6152155387,
				"element": "O" 
			},
			{
				"x": -0.6918379014,
				"y": -0.4960925898,
				"z": -1.5946392534,
				"element": "C" 
			},
			{
				"x": 0.5607992568,
				"y": -0.8319139369,
				"z": -1.0913452342,
				"element": "N" 
			},
			{
				"x": 1.4441085439,
				"y": 0.1749623933,
				"z": -0.4733217426,
				"element": "C" 
			},
			{
				"x": 2.8192932069,
				"y": 0.1880926553,
				"z": -1.1513173767,
				"element": "C" 
			},
			{
				"x": 3.525447913,
				"y": -1.17974696,
				"z": -1.0313721391,
				"element": "C" 
			},
			{
				"x": 2.4990015544,
				"y": -2.3376240914,
				"z": -1.0239699258,
				"element": "C" 
			},
			{
				"x": 1.2184711597,
				"y": -1.9609559845,
				"z": -1.7697332258,
				"element": "C" 
			},
			{
				"x": -1.409999753,
				"y": 0.460245606,
				"z": -0.8841828716,
				"element": "N" 
			},
			{
				"x": -1.3720038919,
				"y": 0.5226266164,
				"z": 0.5890996833,
				"element": "C" 
			},
			{
				"x": -2.7863660675,
				"y": 0.4572963117,
				"z": 1.1775756154,
				"element": "C" 
			},
			{
				"x": -3.6604232519,
				"y": 1.6328268827,
				"z": 0.6894317241,
				"element": "C" 
			},
			{
				"x": -3.2612757883,
				"y": 2.0670918248,
				"z": -0.7409306651,
				"element": "C" 
			},
			{
				"x": -2.653137437,
				"y": 0.9091924434,
				"z": -1.5329526659,
				"element": "C" 
			},
			{
				"x": 0.9693973806,
				"y": 1.1542142126,
				"z": -0.5695981488,
				"element": "H" 
			},
			{
				"x": 1.5690828386,
				"y": -0.0195592994,
				"z": 0.6024888372,
				"element": "H" 
			},
			{
				"x": 3.4317794599,
				"y": 0.9822611972,
				"z": -0.7099267621,
				"element": "H" 
			},
			{
				"x": 2.6813772074,
				"y": 0.4496540494,
				"z": -2.2069456831,
				"element": "H" 
			},
			{
				"x": 4.1257412402,
				"y": -1.2159406582,
				"z": -0.1150317907,
				"element": "H" 
			},
			{
				"x": 4.2270340068,
				"y": -1.2983219783,
				"z": -1.8646857049,
				"element": "H" 
			},
			{
				"x": 2.9284732333,
				"y": -3.2388564785,
				"z": -1.4737261744,
				"element": "H" 
			},
			{
				"x": 2.2344506587,
				"y": -2.5996816801,
				"z": 0.0077190277,
				"element": "H" 
			},
			{
				"x": 0.5146638911,
				"y": -2.7962885944,
				"z": -1.7943764329,
				"element": "H" 
			},
			{
				"x": 1.4383221507,
				"y": -1.7148710499,
				"z": -2.8187478447,
				"element": "H" 
			},
			{
				"x": -0.7756748019,
				"y": -0.3170874196,
				"z": 0.9533927737,
				"element": "H" 
			},
			{
				"x": -0.8762291079,
				"y": 1.4437479101,
				"z": 0.9304655024,
				"element": "H" 
			},
			{
				"x": -3.2390888829,
				"y": -0.4965736956,
				"z": 0.8827107929,
				"element": "H" 
			},
			{
				"x": -2.722173289,
				"y": 0.4480229423,
				"z": 2.2714043915,
				"element": "H" 
			},
			{
				"x": -4.7145074973,
				"y": 1.3347067325,
				"z": 0.7163695695,
				"element": "H" 
			},
			{
				"x": -3.5631897863,
				"y": 2.4849769665,
				"z": 1.3718688143,
				"element": "H" 
			},
			{
				"x": -2.5262215011,
				"y": 2.8799664679,
				"z": -0.6964345434,
				"element": "H" 
			},
			{
				"x": -4.1279525638,
				"y": 2.4604508169,
				"z": -1.2823063672,
				"element": "H" 
			},
			{
				"x": -2.4105691126,
				"y": 1.2127335153,
				"z": -2.5541423249,
				"element": "H" 
			},
			{
				"x": -3.370699621,
				"y": 0.0806648875,
				"z": -1.6222243159,
				"element": "H" 
			}
		],
		 "valence_orbital": [ 
			{
				"type": "occ",
				"energy": -0.31697,
				"method": "rhf"
			},
			{
				"type": "occ",
				"energy": -0.31275,
				"method": "rhf"
			},
			{
				"type": "occ",
				"energy": -0.24688,
				"method": "rhf"
			},
			{
				"type": "occ",
				"energy": -0.21865,
				"method": "rhf"
			},
			{
				"type": "occ",
				"energy": -0.21674,
				"method": "rhf"
			},
			{
				"type": "unocc",
				"energy": 0.05827,
				"method": "rhf"
			},
			{
				"type": "unocc",
				"energy": 0.06939,
				"method": "rhf"
			},
			{
				"type": "unocc",
				"energy": 0.0852,
				"method": "rhf"
			},
			{
				"type": "unocc",
				"energy": 0.10683,
				"method": "rhf"
			},
			{
				"type": "unocc",
				"energy": 0.11054,
				"method": "rhf"
			}
		],
		"cosmo_sigma_profile": { 
			"-0.025": 0.0,
			"-0.024": 0.0,
			"-0.023": 0.0,
			"-0.022": 0.0,
			"-0.021": 0.0,
			"-0.02": 0.0,
			"-0.019": 0.0,
			"-0.018": 0.0,
			"-0.017": 0.0,
			"-0.016": 0.0,
			"-0.015": 0.0,
			"-0.014": 0.0,
			"-0.013": 0.0,
			"-0.012": 0.0,
			"-0.011": 0.0,
			"-0.01": 0.0,
			"-0.009": 0.0,
			"-0.008": 0.0,
			"-0.007": 0.0,
			"-0.006": 0.0,
			"-0.005": 0.0,
			"-0.004": 6.095366925,
			"-0.003": 37.4262166046,
			"-0.002": 65.8423378225,
			"-0.001": 52.3349616447,
			"0.0": 29.9348056629,
			"0.001": 20.8681669553,
			"0.002": 5.00927040346,
			"0.003": 4.06934939701,
			"0.004": 3.4624883998,
			"0.005": 2.9332412151,
			"0.006": 2.00588091389,
			"0.007": 1.58320162552,
			"0.008": 1.05962180925,
			"0.009": 1.44010764151,
			"0.01": 1.54825813026,
			"0.011": 1.7350035712,
			"0.012": 1.57307600415,
			"0.013": 1.30107792535,
			"0.014": 2.39104186775,
			"0.015": 5.53949078082,
			"0.016": 1.28784476096,
			"0.017": 0.0,
			"0.018": 0.0,
			"0.019": 0.0,
			"0.02": 0.0,
			"0.021": 0.0,
			"0.022": 0.0,
			"0.023": 0.0,
			"0.024": 0.0,
			"0.025": 0.0
		}
	}
}
