{
	 "smiles": "NC1=CC(C#N)=C(OCC(F)(F)F)C=C1", 
	 "Tm": 352.15, 
	 "num_atms": 22, 
	 "gaussian": { 
		 "optdone": 1, 
		 "sigma_profile": "yes", 
		 "theory": "DFT", 
		 "functional": "B3LYP", 
		 "basiset": "6-31G**", 
		 "properties": { 
			 "R2extent": 4379.0149, 
			 "electric_dipole_moment_norm": 5.71831820118, 
			 "electric_quadrupole_moment_norm": 20.4528513518, 
			 "total_energy": -831.399573702, 
			 "HOMO_LUMO_gap": 0.16635, 
			 "cosmo_polarized_energy": -16.53, 
			 "cosmo_cavitation_energy": 29.15, 
			 "cosmo_dispersion_energy": -20.11, 
			 "cosmo_repulsion_energy": 1.54, 
			 "cosmo_total_nonelectrostatic_energy": 10.58, 
			 "SMD_solvation_energy": 7.66 
		},
		"coords": [
			{
				"x": 2.4689088169,
				"y": -2.9048711137,
				"z": 2.5345381674,
				"element": "N" 
			},
			{
				"x": 2.0199561341,
				"y": -1.927310046,
				"z": 1.6460275705,
				"element": "C" 
			},
			{
				"x": 1.2761448754,
				"y": -2.2725217401,
				"z": 0.5102201938,
				"element": "C" 
			},
			{
				"x": 0.7665912878,
				"y": -1.2845830452,
				"z": -0.3445807183,
				"element": "C" 
			},
			{
				"x": -0.0118983767,
				"y": -1.670575279,
				"z": -1.4835232944,
				"element": "C" 
			},
			{
				"x": -0.6464478276,
				"y": -2.0169760749,
				"z": -2.3947171705,
				"element": "N" 
			},
			{
				"x": 1.0114836667,
				"y": 0.077711912,
				"z": -0.0831568182,
				"element": "C" 
			},
			{
				"x": 0.5074311428,
				"y": 0.9731209908,
				"z": -0.9954576037,
				"element": "O" 
			},
			{
				"x": 0.0596504682,
				"y": 2.2388114207,
				"z": -0.5558440537,
				"element": "C" 
			},
			{
				"x": 1.0395647081,
				"y": 3.3461509718,
				"z": -0.9205951621,
				"element": "C" 
			},
			{
				"x": 2.2241417472,
				"y": 3.2171801554,
				"z": -0.2810905564,
				"element": "F" 
			},
			{
				"x": 1.2902348055,
				"y": 3.375583578,
				"z": -2.237254279,
				"element": "F" 
			},
			{
				"x": 0.509788493,
				"y": 4.536179382,
				"z": -0.5626203248,
				"element": "F" 
			},
			{
				"x": 1.7629751938,
				"y": 0.4238530726,
				"z": 1.0406333573,
				"element": "C" 
			},
			{
				"x": 2.2503035812,
				"y": -0.5630759375,
				"z": 1.8940891317,
				"element": "C" 
			},
			{
				"x": 3.2683804467,
				"y": -2.6434148583,
				"z": 3.094699318,
				"element": "H" 
			},
			{
				"x": 2.5718992656,
				"y": -3.8305715528,
				"z": 2.142404798,
				"element": "H" 
			},
			{
				"x": 1.0717537207,
				"y": -3.3146121665,
				"z": 0.2853469184,
				"element": "H" 
			},
			{
				"x": -0.8786353947,
				"y": 2.4545906691,
				"z": -1.0754226658,
				"element": "H" 
			},
			{
				"x": -0.117106829,
				"y": 2.2669259863,
				"z": 0.5241391032,
				"element": "H" 
			},
			{
				"x": 1.9994791452,
				"y": 1.4621605236,
				"z": 1.2361590532,
				"element": "H" 
			},
			{
				"x": 2.8308009292,
				"y": -0.2690568483,
				"z": 2.7646050355,
				"element": "H" 
			}
		],
		 "valence_orbital": [ 
			{
				"type": "occ",
				"energy": -0.3366,
				"method": "rhf"
			},
			{
				"type": "occ",
				"energy": -0.32441,
				"method": "rhf"
			},
			{
				"type": "occ",
				"energy": -0.29914,
				"method": "rhf"
			},
			{
				"type": "occ",
				"energy": -0.26674,
				"method": "rhf"
			},
			{
				"type": "occ",
				"energy": -0.21494,
				"method": "rhf"
			},
			{
				"type": "unocc",
				"energy": -0.04859,
				"method": "rhf"
			},
			{
				"type": "unocc",
				"energy": -0.00441,
				"method": "rhf"
			},
			{
				"type": "unocc",
				"energy": 0.04054,
				"method": "rhf"
			},
			{
				"type": "unocc",
				"energy": 0.06356,
				"method": "rhf"
			},
			{
				"type": "unocc",
				"energy": 0.07477,
				"method": "rhf"
			}
		],
		"cosmo_sigma_profile": { 
			"-0.025": 0.0,
			"-0.024": 0.0,
			"-0.023": 0.0,
			"-0.022": 0.0,
			"-0.021": 0.0,
			"-0.02": 0.0,
			"-0.019": 0.0,
			"-0.018": 0.0,
			"-0.017": 0.0,
			"-0.016": 0.0,
			"-0.015": 0.0,
			"-0.014": 0.0,
			"-0.013": 1.66139775918,
			"-0.012": 3.194940883,
			"-0.011": 3.43090542517,
			"-0.01": 4.77227364714,
			"-0.009": 7.51419979321,
			"-0.008": 9.20377614378,
			"-0.007": 9.11250695983,
			"-0.006": 11.8624951977,
			"-0.005": 8.88118948753,
			"-0.004": 7.1363586319,
			"-0.003": 5.513784784,
			"-0.002": 8.65929864265,
			"-0.001": 11.1695790489,
			"0.0": 14.6654734661,
			"0.001": 17.5960283593,
			"0.002": 35.1255456027,
			"0.003": 28.4676557548,
			"0.004": 7.5934701371,
			"0.005": 4.15418238427,
			"0.006": 4.6559764527,
			"0.007": 6.08278420883,
			"0.008": 5.82143178928,
			"0.009": 4.22859266777,
			"0.01": 3.72271573677,
			"0.011": 3.97287068805,
			"0.012": 2.97391008175,
			"0.013": 2.35682672086,
			"0.014": 0.566250288466,
			"0.015": 0.0468624362495,
			"0.016": 0.0,
			"0.017": 0.0,
			"0.018": 0.0,
			"0.019": 0.0,
			"0.02": 0.0,
			"0.021": 0.0,
			"0.022": 0.0,
			"0.023": 0.0,
			"0.024": 0.0,
			"0.025": 0.0
		}
	}
}
