{
	 "smiles": "CC(C)(C)OC(=O)CCC(Cl)(Cl)Cl", 
	 "Tm": 573.15, 
	 "num_atms": 26, 
	 "gaussian": { 
		 "optdone": 1, 
		 "sigma_profile": "yes", 
		 "theory": "DFT", 
		 "functional": "B3LYP", 
		 "basiset": "6-31G**", 
		 "properties": { 
			 "R2extent": 5977.7358, 
			 "electric_dipole_moment_norm": 3.22135377442, 
			 "electric_quadrupole_moment_norm": 5.63348022185, 
			 "total_energy": -1843.7348408, 
			 "HOMO_LUMO_gap": 0.23036, 
			 "cosmo_polarized_energy": -6.92, 
			 "cosmo_cavitation_energy": 33.77, 
			 "cosmo_dispersion_energy": -23.94, 
			 "cosmo_repulsion_energy": 1.93, 
			 "cosmo_total_nonelectrostatic_energy": 11.76, 
			 "SMD_solvation_energy": 5.58 
		},
		"coords": [
			{
				"x": 2.1594638027,
				"y": 2.7221558847,
				"z": -0.2881914727,
				"element": "C" 
			},
			{
				"x": 1.8149527281,
				"y": 1.7139048464,
				"z": -1.3887107415,
				"element": "C" 
			},
			{
				"x": 3.0650500746,
				"y": 1.3150158447,
				"z": -2.1758414444,
				"element": "C" 
			},
			{
				"x": 0.7177075123,
				"y": 2.226318522,
				"z": -2.3268032685,
				"element": "C" 
			},
			{
				"x": 1.3965510052,
				"y": 0.4312453001,
				"z": -0.7810827551,
				"element": "O" 
			},
			{
				"x": 0.3131474345,
				"y": 0.3402941146,
				"z": 0.006356789,
				"element": "C" 
			},
			{
				"x": -0.4290838252,
				"y": 1.2522999272,
				"z": 0.3119131324,
				"element": "O" 
			},
			{
				"x": 0.1356146829,
				"y": -1.0967707071,
				"z": 0.474708622,
				"element": "C" 
			},
			{
				"x": -1.0791291619,
				"y": -1.2266538143,
				"z": 1.3935887427,
				"element": "C" 
			},
			{
				"x": -1.3520710566,
				"y": -2.639613228,
				"z": 1.9103779754,
				"element": "C" 
			},
			{
				"x": -2.8109759141,
				"y": -2.6050936886,
				"z": 2.9737646938,
				"element": "Cl" 
			},
			{
				"x": -1.6671123983,
				"y": -3.7821847935,
				"z": 0.5446956908,
				"element": "Cl" 
			},
			{
				"x": 0.0447863942,
				"y": -3.2605558817,
				"z": 2.8761398072,
				"element": "Cl" 
			},
			{
				"x": 2.9056432653,
				"y": 2.3021167524,
				"z": 0.3935510049,
				"element": "H" 
			},
			{
				"x": 2.5843394412,
				"y": 3.6240132863,
				"z": -0.7405460319,
				"element": "H" 
			},
			{
				"x": 1.273992755,
				"y": 3.001599567,
				"z": 0.2833389415,
				"element": "H" 
			},
			{
				"x": 3.4829505043,
				"y": 2.1891942184,
				"z": -2.6837993393,
				"element": "H" 
			},
			{
				"x": 2.8232972063,
				"y": 0.5592826934,
				"z": -2.928663402,
				"element": "H" 
			},
			{
				"x": 3.8278870193,
				"y": 0.9044289103,
				"z": -1.5081495112,
				"element": "H" 
			},
			{
				"x": -0.1802483618,
				"y": 2.5004381143,
				"z": -1.7723894808,
				"element": "H" 
			},
			{
				"x": 1.0808105617,
				"y": 3.1079171039,
				"z": -2.8647875171,
				"element": "H" 
			},
			{
				"x": 0.4603649978,
				"y": 1.4613109416,
				"z": -3.066080217,
				"element": "H" 
			},
			{
				"x": 1.0554094885,
				"y": -1.4106756277,
				"z": 0.9781615487,
				"element": "H" 
			},
			{
				"x": 0.0388182788,
				"y": -1.7351281466,
				"z": -0.4094144842,
				"element": "H" 
			},
			{
				"x": -0.9609906245,
				"y": -0.5797521359,
				"z": 2.266936952,
				"element": "H" 
			},
			{
				"x": -1.9805758105,
				"y": -0.8914080038,
				"z": 0.8740257652,
				"element": "H" 
			}
		],
		 "valence_orbital": [ 
			{
				"type": "occ",
				"energy": -0.32021,
				"method": "rhf"
			},
			{
				"type": "occ",
				"energy": -0.31942,
				"method": "rhf"
			},
			{
				"type": "occ",
				"energy": -0.307,
				"method": "rhf"
			},
			{
				"type": "occ",
				"energy": -0.30287,
				"method": "rhf"
			},
			{
				"type": "occ",
				"energy": -0.2739,
				"method": "rhf"
			},
			{
				"type": "unocc",
				"energy": -0.04354,
				"method": "rhf"
			},
			{
				"type": "unocc",
				"energy": -0.00016,
				"method": "rhf"
			},
			{
				"type": "unocc",
				"energy": 0.00208,
				"method": "rhf"
			},
			{
				"type": "unocc",
				"energy": 0.00526,
				"method": "rhf"
			},
			{
				"type": "unocc",
				"energy": 0.07903,
				"method": "rhf"
			}
		],
		"cosmo_sigma_profile": { 
			"-0.025": 0.0,
			"-0.024": 0.0,
			"-0.023": 0.0,
			"-0.022": 0.0,
			"-0.021": 0.0,
			"-0.02": 0.0,
			"-0.019": 0.0,
			"-0.018": 0.0,
			"-0.017": 0.0,
			"-0.016": 0.0,
			"-0.015": 0.0,
			"-0.014": 0.0,
			"-0.013": 0.0,
			"-0.012": 0.0,
			"-0.011": 0.0,
			"-0.01": 0.0,
			"-0.009": 0.0,
			"-0.008": 0.0262791710527,
			"-0.007": 2.42641471031,
			"-0.006": 8.500196006,
			"-0.005": 9.51924684917,
			"-0.004": 21.4980785606,
			"-0.003": 27.4822011594,
			"-0.002": 27.7956595301,
			"-0.001": 28.9933524054,
			"0.0": 33.1633256226,
			"0.001": 27.9451609455,
			"0.002": 19.9468036018,
			"0.003": 30.5619852436,
			"0.004": 14.5151929665,
			"0.005": 2.75529149568,
			"0.006": 3.11046171675,
			"0.007": 2.37359542847,
			"0.008": 2.74963055932,
			"0.009": 1.59301853859,
			"0.01": 1.34076002465,
			"0.011": 2.22590424335,
			"0.012": 2.27736115899,
			"0.013": 0.125003316175,
			"0.014": 0.0,
			"0.015": 0.0,
			"0.016": 0.0,
			"0.017": 0.0,
			"0.018": 0.0,
			"0.019": 0.0,
			"0.02": 0.0,
			"0.021": 0.0,
			"0.022": 0.0,
			"0.023": 0.0,
			"0.024": 0.0,
			"0.025": 0.0
		}
	}
}
