{
	 "smiles": "COC1=C(N)C(=NC=N1)N(C)C", 
	 "Tm": 343.15, 
	 "num_atms": 24, 
	 "gaussian": { 
		 "optdone": 1, 
		 "sigma_profile": "yes", 
		 "theory": "DFT", 
		 "functional": "B3LYP", 
		 "basiset": "6-31G**", 
		 "properties": { 
			 "R2extent": 2509.8517, 
			 "electric_dipole_moment_norm": 2.18493645217, 
			 "electric_quadrupole_moment_norm": 7.53076977871, 
			 "total_energy": -568.201476242, 
			 "HOMO_LUMO_gap": 0.19289, 
			 "cosmo_polarized_energy": -9.24, 
			 "cosmo_cavitation_energy": 26.66, 
			 "cosmo_dispersion_energy": -19.9, 
			 "cosmo_repulsion_energy": 1.6, 
			 "cosmo_total_nonelectrostatic_energy": 8.36, 
			 "SMD_solvation_energy": 3.17 
		},
		"coords": [
			{
				"x": -0.7470335041,
				"y": 2.9495343327,
				"z": -1.5953363584,
				"element": "C" 
			},
			{
				"x": -0.1539072489,
				"y": 1.6613329898,
				"z": -1.4037506449,
				"element": "O" 
			},
			{
				"x": 0.0624511796,
				"y": 1.2686531292,
				"z": -0.1235499533,
				"element": "C" 
			},
			{
				"x": 0.7021866366,
				"y": 0.0279989999,
				"z": 0.0372851698,
				"element": "C" 
			},
			{
				"x": 1.0894004155,
				"y": -0.7415366906,
				"z": -1.0656936873,
				"element": "N" 
			},
			{
				"x": 0.9076469356,
				"y": -0.3723875417,
				"z": 1.3729399917,
				"element": "C" 
			},
			{
				"x": 0.579896968,
				"y": 0.4329539729,
				"z": 2.4020302782,
				"element": "N" 
			},
			{
				"x": 0.0106095202,
				"y": 1.5964509937,
				"z": 2.1082115298,
				"element": "C" 
			},
			{
				"x": -0.2922691309,
				"y": 2.0540137617,
				"z": 0.8874640115,
				"element": "N" 
			},
			{
				"x": 1.5356748841,
				"y": -1.5967572729,
				"z": 1.6510571062,
				"element": "N" 
			},
			{
				"x": 2.0446713239,
				"y": -1.7588395072,
				"z": 3.0105313524,
				"element": "C" 
			},
			{
				"x": 0.8550274081,
				"y": -2.8029657035,
				"z": 1.1634351257,
				"element": "C" 
			},
			{
				"x": -1.7399467977,
				"y": 2.994828951,
				"z": -1.139934599,
				"element": "H" 
			},
			{
				"x": -0.1274606053,
				"y": 3.7371615841,
				"z": -1.1573412124,
				"element": "H" 
			},
			{
				"x": -0.8191149087,
				"y": 3.0779620188,
				"z": -2.676276492,
				"element": "H" 
			},
			{
				"x": 1.9645583436,
				"y": -1.228661632,
				"z": -0.9019262276,
				"element": "H" 
			},
			{
				"x": 1.1148532853,
				"y": -0.1953789915,
				"z": -1.9184040631,
				"element": "H" 
			},
			{
				"x": -0.2449686966,
				"y": 2.2432938669,
				"z": 2.9449599722,
				"element": "H" 
			},
			{
				"x": 1.2449871012,
				"y": -1.9083659247,
				"z": 3.7505219826,
				"element": "H" 
			},
			{
				"x": 2.7066502209,
				"y": -2.6306805193,
				"z": 3.0262332005,
				"element": "H" 
			},
			{
				"x": 2.6101201323,
				"y": -0.8741848863,
				"z": 3.3049425713,
				"element": "H" 
			},
			{
				"x": 1.5581917127,
				"y": -3.6421012892,
				"z": 1.1748865786,
				"element": "H" 
			},
			{
				"x": 0.5011516977,
				"y": -2.6574886594,
				"z": 0.1420526679,
				"element": "H" 
			},
			{
				"x": -0.0056768731,
				"y": -3.0679359824,
				"z": 1.7980616996,
				"element": "H" 
			}
		],
		 "valence_orbital": [ 
			{
				"type": "occ",
				"energy": -0.29171,
				"method": "rhf"
			},
			{
				"type": "occ",
				"energy": -0.28159,
				"method": "rhf"
			},
			{
				"type": "occ",
				"energy": -0.2463,
				"method": "rhf"
			},
			{
				"type": "occ",
				"energy": -0.23623,
				"method": "rhf"
			},
			{
				"type": "occ",
				"energy": -0.19418,
				"method": "rhf"
			},
			{
				"type": "unocc",
				"energy": -0.00129,
				"method": "rhf"
			},
			{
				"type": "unocc",
				"energy": 0.00512,
				"method": "rhf"
			},
			{
				"type": "unocc",
				"energy": 0.08434,
				"method": "rhf"
			},
			{
				"type": "unocc",
				"energy": 0.1081,
				"method": "rhf"
			},
			{
				"type": "unocc",
				"energy": 0.12107,
				"method": "rhf"
			}
		],
		"cosmo_sigma_profile": { 
			"-0.025": 0.0,
			"-0.024": 0.0,
			"-0.023": 0.0,
			"-0.022": 0.0,
			"-0.021": 0.0,
			"-0.02": 0.0,
			"-0.019": 0.0,
			"-0.018": 0.0,
			"-0.017": 0.0,
			"-0.016": 0.0,
			"-0.015": 0.0,
			"-0.014": 0.0,
			"-0.013": 0.0,
			"-0.012": 0.369197161254,
			"-0.011": 1.75027290783,
			"-0.01": 1.80443123874,
			"-0.009": 1.88514468973,
			"-0.008": 2.49852359926,
			"-0.007": 2.37577648137,
			"-0.006": 4.93945374685,
			"-0.005": 8.85787811455,
			"-0.004": 17.0195703058,
			"-0.003": 23.1357043076,
			"-0.002": 22.470855062,
			"-0.001": 24.4069347861,
			"0.0": 20.1990757016,
			"0.001": 14.9564688715,
			"0.002": 11.2649603845,
			"0.003": 9.63959587731,
			"0.004": 7.67648923297,
			"0.005": 7.21768122823,
			"0.006": 5.85028393144,
			"0.007": 3.86650454002,
			"0.008": 5.04232241914,
			"0.009": 3.26830235523,
			"0.01": 2.62575862523,
			"0.011": 1.84936901365,
			"0.012": 2.42955853383,
			"0.013": 1.78540931295,
			"0.014": 0.781812920692,
			"0.015": 0.158604045502,
			"0.016": 0.0,
			"0.017": 0.0,
			"0.018": 0.0,
			"0.019": 0.0,
			"0.02": 0.0,
			"0.021": 0.0,
			"0.022": 0.0,
			"0.023": 0.0,
			"0.024": 0.0,
			"0.025": 0.0
		}
	}
}
