{
	 "smiles": "N#CC1=NC=CN1", 
	 "Tm": 447.15, 
	 "num_atms": 10, 
	 "gaussian": { 
		 "optdone": 1, 
		 "sigma_profile": "yes", 
		 "theory": "DFT", 
		 "functional": "B3LYP", 
		 "basiset": "6-31G**", 
		 "properties": { 
			 "R2extent": 1400.5142, 
			 "electric_dipole_moment_norm": 5.543993079, 
			 "electric_quadrupole_moment_norm": 14.7441456599, 
			 "total_energy": -318.454212479, 
			 "HOMO_LUMO_gap": 0.21044, 
			 "cosmo_polarized_energy": -15.38, 
			 "cosmo_cavitation_energy": 15.75, 
			 "cosmo_dispersion_energy": -11.33, 
			 "cosmo_repulsion_energy": 0.97, 
			 "cosmo_total_nonelectrostatic_energy": 5.38, 
			 "SMD_solvation_energy": 2.96 
		},
		"coords": [
			{
				"x": -2.644136634,
				"y": -0.2567615362,
				"z": -3.3168343419,
				"element": "N" 
			},
			{
				"x": -1.7842176024,
				"y": -0.6750518861,
				"z": -2.6542637684,
				"element": "C" 
			},
			{
				"x": -0.7525626652,
				"y": -1.1660411856,
				"z": -1.806438714,
				"element": "C" 
			},
			{
				"x": 0.280317073,
				"y": -1.9106779984,
				"z": -2.1690288222,
				"element": "N" 
			},
			{
				"x": 0.9862959168,
				"y": -2.1274448647,
				"z": -1.0185857044,
				"element": "C" 
			},
			{
				"x": 0.3793505544,
				"y": -1.5102720487,
				"z": 0.0555100687,
				"element": "C" 
			},
			{
				"x": -0.7328962068,
				"y": -0.8974144328,
				"z": -0.4584098197,
				"element": "N" 
			},
			{
				"x": 1.8934427812,
				"y": -2.7148195092,
				"z": -1.0187334546,
				"element": "H" 
			},
			{
				"x": 0.6329306628,
				"y": -1.4557971716,
				"z": 1.102827435,
				"element": "H" 
			},
			{
				"x": -1.4134238798,
				"y": -0.3508193668,
				"z": 0.0489571215,
				"element": "H" 
			}
		],
		 "valence_orbital": [ 
			{
				"type": "occ",
				"energy": -0.36188,
				"method": "rhf"
			},
			{
				"type": "occ",
				"energy": -0.3477,
				"method": "rhf"
			},
			{
				"type": "occ",
				"energy": -0.31253,
				"method": "rhf"
			},
			{
				"type": "occ",
				"energy": -0.2977,
				"method": "rhf"
			},
			{
				"type": "occ",
				"energy": -0.25317,
				"method": "rhf"
			},
			{
				"type": "unocc",
				"energy": -0.04273,
				"method": "rhf"
			},
			{
				"type": "unocc",
				"energy": 0.01071,
				"method": "rhf"
			},
			{
				"type": "unocc",
				"energy": 0.0334,
				"method": "rhf"
			},
			{
				"type": "unocc",
				"energy": 0.05519,
				"method": "rhf"
			},
			{
				"type": "unocc",
				"energy": 0.12161,
				"method": "rhf"
			}
		],
		"cosmo_sigma_profile": { 
			"-0.025": 0.0,
			"-0.024": 0.0,
			"-0.023": 0.0,
			"-0.022": 0.0,
			"-0.021": 0.0,
			"-0.02": 0.0,
			"-0.019": 0.0396960311644,
			"-0.018": 1.6248667428,
			"-0.017": 2.14701925705,
			"-0.016": 1.31994951852,
			"-0.015": 1.01489285834,
			"-0.014": 1.58317532554,
			"-0.013": 0.978991501235,
			"-0.012": 0.996347891452,
			"-0.011": 1.21599078757,
			"-0.01": 3.61831988728,
			"-0.009": 3.41588932755,
			"-0.008": 3.71885841436,
			"-0.007": 3.97294220311,
			"-0.006": 3.71549518691,
			"-0.005": 5.18825438938,
			"-0.004": 4.28708305085,
			"-0.003": 5.20913864122,
			"-0.002": 5.02823652738,
			"-0.001": 7.30447508885,
			"0.0": 7.84256758351,
			"0.001": 8.00850903453,
			"0.002": 8.22911109012,
			"0.003": 7.26035190898,
			"0.004": 4.22042741728,
			"0.005": 4.89502701614,
			"0.006": 4.11868185691,
			"0.007": 4.43259562739,
			"0.008": 4.55774204391,
			"0.009": 4.8267631819,
			"0.01": 3.53956829054,
			"0.011": 3.36919196617,
			"0.012": 3.2059064817,
			"0.013": 1.2849115214,
			"0.014": 0.946849998577,
			"0.015": 0.855035605225,
			"0.016": 0.397181196148,
			"0.017": 0.0,
			"0.018": 0.0,
			"0.019": 0.0,
			"0.02": 0.0,
			"0.021": 0.0,
			"0.022": 0.0,
			"0.023": 0.0,
			"0.024": 0.0,
			"0.025": 0.0
		}
	}
}
