{
	 "smiles": "OC1CC2CCC1C2", 
	 "Tm": 422.15, 
	 "num_atms": 20, 
	 "gaussian": { 
		 "optdone": 1, 
		 "sigma_profile": "yes", 
		 "theory": "DFT", 
		 "functional": "B3LYP", 
		 "basiset": "6-31G**", 
		 "properties": { 
			 "R2extent": 987.2661, 
			 "electric_dipole_moment_norm": 1.39031199376, 
			 "electric_quadrupole_moment_norm": 5.49232960045, 
			 "total_energy": -349.192808718, 
			 "HOMO_LUMO_gap": 0.33743, 
			 "cosmo_polarized_energy": -5.48, 
			 "cosmo_cavitation_energy": 20.13, 
			 "cosmo_dispersion_energy": -15.7, 
			 "cosmo_repulsion_energy": 1.3, 
			 "cosmo_total_nonelectrostatic_energy": 5.73, 
			 "SMD_solvation_energy": 2.56 
		},
		"coords": [
			{
				"x": -0.9344526481,
				"y": -1.1605315182,
				"z": 1.4789549627,
				"element": "O" 
			},
			{
				"x": -0.4933107592,
				"y": -0.2899658082,
				"z": 0.4391350376,
				"element": "C" 
			},
			{
				"x": -0.4316908744,
				"y": 1.2081720269,
				"z": 0.8883333458,
				"element": "C" 
			},
			{
				"x": 1.0804966198,
				"y": 1.5375470454,
				"z": 0.8411033842,
				"element": "C" 
			},
			{
				"x": 1.5044784605,
				"y": 1.6376846501,
				"z": -0.642355066,
				"element": "C" 
			},
			{
				"x": 1.3993681768,
				"y": 0.1563859213,
				"z": -1.1333041305,
				"element": "C" 
			},
			{
				"x": 0.982481154,
				"y": -0.6148419928,
				"z": 0.1422836678,
				"element": "C" 
			},
			{
				"x": 1.7025098108,
				"y": 0.183988802,
				"z": 1.25092722,
				"element": "C" 
			},
			{
				"x": -1.8205046016,
				"y": -0.8805439067,
				"z": 1.7426056954,
				"element": "H" 
			},
			{
				"x": -1.119766061,
				"y": -0.425419435,
				"z": -0.4560911628,
				"element": "H" 
			},
			{
				"x": -0.8182262749,
				"y": 1.2891621973,
				"z": 1.9106687386,
				"element": "H" 
			},
			{
				"x": -1.0250648078,
				"y": 1.8714252661,
				"z": 0.2492999686,
				"element": "H" 
			},
			{
				"x": 1.3623170079,
				"y": 2.4054250786,
				"z": 1.4437320255,
				"element": "H" 
			},
			{
				"x": 2.5313674762,
				"y": 2.0088590698,
				"z": -0.7276787635,
				"element": "H" 
			},
			{
				"x": 0.8645287179,
				"y": 2.3205912406,
				"z": -1.2110608179,
				"element": "H" 
			},
			{
				"x": 2.362938646,
				"y": -0.2076840849,
				"z": -1.5031225651,
				"element": "H" 
			},
			{
				"x": 0.6755265144,
				"y": 0.0309015986,
				"z": -1.946055661,
				"element": "H" 
			},
			{
				"x": 1.1700033586,
				"y": -1.6903236526,
				"z": 0.1048709632,
				"element": "H" 
			},
			{
				"x": 2.7940349744,
				"y": 0.1645338225,
				"z": 1.1601184201,
				"element": "H" 
			},
			{
				"x": 1.4177651096,
				"y": -0.1429663209,
				"z": 2.2547347374,
				"element": "H" 
			}
		],
		 "valence_orbital": [ 
			{
				"type": "occ",
				"energy": -0.32089,
				"method": "rhf"
			},
			{
				"type": "occ",
				"energy": -0.31198,
				"method": "rhf"
			},
			{
				"type": "occ",
				"energy": -0.30379,
				"method": "rhf"
			},
			{
				"type": "occ",
				"energy": -0.29197,
				"method": "rhf"
			},
			{
				"type": "occ",
				"energy": -0.25664,
				"method": "rhf"
			},
			{
				"type": "unocc",
				"energy": 0.08079,
				"method": "rhf"
			},
			{
				"type": "unocc",
				"energy": 0.09027,
				"method": "rhf"
			},
			{
				"type": "unocc",
				"energy": 0.1086,
				"method": "rhf"
			},
			{
				"type": "unocc",
				"energy": 0.13594,
				"method": "rhf"
			},
			{
				"type": "unocc",
				"energy": 0.14846,
				"method": "rhf"
			}
		],
		"cosmo_sigma_profile": { 
			"-0.025": 0.0,
			"-0.024": 0.0,
			"-0.023": 0.0,
			"-0.022": 0.0,
			"-0.021": 0.0,
			"-0.02": 0.0,
			"-0.019": 0.0,
			"-0.018": 0.0,
			"-0.017": 0.0,
			"-0.016": 0.0,
			"-0.015": 0.685286040061,
			"-0.014": 0.753661235652,
			"-0.013": 0.96117010764,
			"-0.012": 0.791906082431,
			"-0.011": 0.869800085817,
			"-0.01": 1.27690716391,
			"-0.009": 0.650217287092,
			"-0.008": 0.431621479418,
			"-0.007": 0.887195354718,
			"-0.006": 1.32460257458,
			"-0.005": 0.942164629944,
			"-0.004": 2.05383084905,
			"-0.003": 9.22422168634,
			"-0.002": 26.7800534954,
			"-0.001": 28.8890971957,
			"0.0": 22.5363579258,
			"0.001": 23.5777002766,
			"0.002": 12.6495680477,
			"0.003": 2.51426668648,
			"0.004": 1.4108508349,
			"0.005": 1.74987290862,
			"0.006": 1.86788595881,
			"0.007": 1.01861643879,
			"0.008": 1.25086047413,
			"0.009": 1.29001948602,
			"0.01": 1.50784637957,
			"0.011": 1.03765654208,
			"0.012": 1.34884872682,
			"0.013": 1.68351487565,
			"0.014": 1.40853994773,
			"0.015": 1.14087084759,
			"0.016": 0.00306163501934,
			"0.017": 0.0,
			"0.018": 0.0,
			"0.019": 0.0,
			"0.02": 0.0,
			"0.021": 0.0,
			"0.022": 0.0,
			"0.023": 0.0,
			"0.024": 0.0,
			"0.025": 0.0
		}
	}
}
