{
	 "smiles": "CC(C)(C)N1C(C(CC1=O)C(O)=O)C1=CC(F)=C(Cl)C=C1", 
	 "Tm": 523.15, 
	 "num_atms": 38, 
	 "gaussian": { 
		 "optdone": 1, 
		 "sigma_profile": "yes", 
		 "theory": "DFT", 
		 "functional": "B3LYP", 
		 "basiset": "6-31G**", 
		 "properties": { 
			 "R2extent": 7854.1641, 
			 "electric_dipole_moment_norm": 2.69044766907, 
			 "electric_quadrupole_moment_norm": 23.2371375533, 
			 "total_energy": -1422.33209713, 
			 "HOMO_LUMO_gap": 0.20815, 
			 "cosmo_polarized_energy": -17.33, 
			 "cosmo_cavitation_energy": 41.72, 
			 "cosmo_dispersion_energy": -27.74, 
			 "cosmo_repulsion_energy": 2.1, 
			 "cosmo_total_nonelectrostatic_energy": 16.08, 
			 "SMD_solvation_energy": 8.88 
		},
		"coords": [
			{
				"x": -0.3216405154,
				"y": 1.9849164345,
				"z": 1.7186786639,
				"element": "C" 
			},
			{
				"x": -0.6524553618,
				"y": 1.6548222214,
				"z": 0.2491726133,
				"element": "C" 
			},
			{
				"x": -0.6928820557,
				"y": 2.9467008127,
				"z": -0.5925729874,
				"element": "C" 
			},
			{
				"x": -2.0308802385,
				"y": 0.9771365871,
				"z": 0.1776355494,
				"element": "C" 
			},
			{
				"x": 0.4009304812,
				"y": 0.7477761126,
				"z": -0.3173415987,
				"element": "N" 
			},
			{
				"x": 0.169617173,
				"y": -0.6349067363,
				"z": -0.7455818441,
				"element": "C" 
			},
			{
				"x": 1.4007191764,
				"y": -0.9220777627,
				"z": -1.6747405322,
				"element": "C" 
			},
			{
				"x": 2.48632901,
				"y": 0.0178598837,
				"z": -1.152019543,
				"element": "C" 
			},
			{
				"x": 1.7181659807,
				"y": 1.1377539333,
				"z": -0.4509509595,
				"element": "C" 
			},
			{
				"x": 2.2020613463,
				"y": 2.1948236068,
				"z": -0.0734896828,
				"element": "O" 
			},
			{
				"x": 1.073238371,
				"y": -0.6547178804,
				"z": -3.1388870059,
				"element": "C" 
			},
			{
				"x": 0.0189668727,
				"y": -1.4030312467,
				"z": -3.5509240625,
				"element": "O" 
			},
			{
				"x": 1.6657290863,
				"y": 0.0961009378,
				"z": -3.8791553674,
				"element": "O" 
			},
			{
				"x": 0.0817577591,
				"y": -1.6555534077,
				"z": 0.3879831453,
				"element": "C" 
			},
			{
				"x": -0.6968615098,
				"y": -2.8034502766,
				"z": 0.1980374578,
				"element": "C" 
			},
			{
				"x": -0.7509791754,
				"y": -3.7819317596,
				"z": 1.1821131603,
				"element": "C" 
			},
			{
				"x": -1.5069622398,
				"y": -4.8713832951,
				"z": 0.980913404,
				"element": "F" 
			},
			{
				"x": -0.0364658531,
				"y": -3.6440627239,
				"z": 2.374003279,
				"element": "C" 
			},
			{
				"x": -0.1314908017,
				"y": -4.8880795735,
				"z": 3.5932350884,
				"element": "Cl" 
			},
			{
				"x": 0.740023854,
				"y": -2.5025388039,
				"z": 2.5687398165,
				"element": "C" 
			},
			{
				"x": 0.7980752913,
				"y": -1.516994255,
				"z": 1.5827941528,
				"element": "C" 
			},
			{
				"x": -1.0566520915,
				"y": 2.6941148455,
				"z": 2.113403027,
				"element": "H" 
			},
			{
				"x": -0.3559310276,
				"y": 1.0840308555,
				"z": 2.3387365106,
				"element": "H" 
			},
			{
				"x": 0.6697214973,
				"y": 2.4343704557,
				"z": 1.7941685833,
				"element": "H" 
			},
			{
				"x": -1.4734768351,
				"y": 3.6117619812,
				"z": -0.2091072077,
				"element": "H" 
			},
			{
				"x": 0.2634459362,
				"y": 3.4684676035,
				"z": -0.5522340178,
				"element": "H" 
			},
			{
				"x": -0.9239394718,
				"y": 2.7166953229,
				"z": -1.6379872656,
				"element": "H" 
			},
			{
				"x": -2.7691951274,
				"y": 1.6488935196,
				"z": 0.624407644,
				"element": "H" 
			},
			{
				"x": -2.0618762991,
				"y": 0.0357081841,
				"z": 0.7329542503,
				"element": "H" 
			},
			{
				"x": -2.3441096975,
				"y": 0.7896095193,
				"z": -0.8544223259,
				"element": "H" 
			},
			{
				"x": -0.7491206808,
				"y": -0.7054279808,
				"z": -1.3294937453,
				"element": "H" 
			},
			{
				"x": 1.6698425573,
				"y": -1.9803481201,
				"z": -1.6066931112,
				"element": "H" 
			},
			{
				"x": 3.0998811235,
				"y": 0.4381647297,
				"z": -1.9501941654,
				"element": "H" 
			},
			{
				"x": 3.1478708204,
				"y": -0.472139817,
				"z": -0.4309060248,
				"element": "H" 
			},
			{
				"x": -0.1146806258,
				"y": -1.1933448993,
				"z": -4.4907081949,
				"element": "H" 
			},
			{
				"x": -1.2679054082,
				"y": -2.9546389663,
				"z": -0.7132969802,
				"element": "H" 
			},
			{
				"x": 1.2938345926,
				"y": -2.3915625344,
				"z": 3.4946394539,
				"element": "H" 
			},
			{
				"x": 1.3977940869,
				"y": -0.6303175075,
				"z": 1.7562908225,
				"element": "H" 
			}
		],
		 "valence_orbital": [ 
			{
				"type": "occ",
				"energy": -0.2933,
				"method": "rhf"
			},
			{
				"type": "occ",
				"energy": -0.27204,
				"method": "rhf"
			},
			{
				"type": "occ",
				"energy": -0.25676,
				"method": "rhf"
			},
			{
				"type": "occ",
				"energy": -0.24679,
				"method": "rhf"
			},
			{
				"type": "occ",
				"energy": -0.24413,
				"method": "rhf"
			},
			{
				"type": "unocc",
				"energy": -0.03598,
				"method": "rhf"
			},
			{
				"type": "unocc",
				"energy": -0.02311,
				"method": "rhf"
			},
			{
				"type": "unocc",
				"energy": -0.00979,
				"method": "rhf"
			},
			{
				"type": "unocc",
				"energy": 0.01599,
				"method": "rhf"
			},
			{
				"type": "unocc",
				"energy": 0.0231,
				"method": "rhf"
			}
		],
		"cosmo_sigma_profile": { 
			"-0.025": 0.0,
			"-0.024": 0.0,
			"-0.023": 0.0,
			"-0.022": 0.0,
			"-0.021": 0.0,
			"-0.02": 0.0,
			"-0.019": 0.278938318984,
			"-0.018": 0.767680901012,
			"-0.017": 1.13615417026,
			"-0.016": 0.62505953321,
			"-0.015": 0.947901618487,
			"-0.014": 0.78570497402,
			"-0.013": 0.320789404967,
			"-0.012": 0.490793989135,
			"-0.011": 0.866445378927,
			"-0.01": 0.649515365232,
			"-0.009": 0.611662189269,
			"-0.008": 3.69444503006,
			"-0.007": 8.02247119964,
			"-0.006": 14.3338861992,
			"-0.005": 14.8786825519,
			"-0.004": 19.4518315106,
			"-0.003": 27.8851526442,
			"-0.002": 28.9516456952,
			"-0.001": 32.0328603174,
			"0.0": 35.2581544278,
			"0.001": 36.4480056424,
			"0.002": 19.9021194126,
			"0.003": 19.5807417854,
			"0.004": 20.4108823984,
			"0.005": 7.68485558606,
			"0.006": 4.41380620229,
			"0.007": 3.9425008298,
			"0.008": 4.28672115149,
			"0.009": 3.6958891564,
			"0.01": 3.05254779138,
			"0.011": 6.28640508121,
			"0.012": 2.35527851501,
			"0.013": 3.12569476766,
			"0.014": 3.09924288099,
			"0.015": 0.903899369469,
			"0.016": 0.0,
			"0.017": 0.0,
			"0.018": 0.0,
			"0.019": 0.0,
			"0.02": 0.0,
			"0.021": 0.0,
			"0.022": 0.0,
			"0.023": 0.0,
			"0.024": 0.0,
			"0.025": 0.0
		}
	}
}
