{
	 "smiles": "CCC1=CC(CC)=CC(C)=C1", 
	 "Tm": 199.15, 
	 "num_atms": 27, 
	 "gaussian": { 
		 "optdone": 1, 
		 "sigma_profile": "yes", 
		 "theory": "DFT", 
		 "functional": "B3LYP", 
		 "basiset": "6-31G**", 
		 "properties": { 
			 "R2extent": 2380.396, 
			 "electric_dipole_moment_norm": 0.134569721706, 
			 "electric_quadrupole_moment_norm": 4.16875252804, 
			 "total_energy": -428.843684193, 
			 "HOMO_LUMO_gap": 0.23578, 
			 "cosmo_polarized_energy": -3.08, 
			 "cosmo_cavitation_energy": 29.18, 
			 "cosmo_dispersion_energy": -20.46, 
			 "cosmo_repulsion_energy": 1.69, 
			 "cosmo_total_nonelectrostatic_energy": 10.41, 
			 "SMD_solvation_energy": 4.93 
		},
		"coords": [
			{
				"x": 1.0537313321,
				"y": 0.3067159833,
				"z": 3.5954232804,
				"element": "C" 
			},
			{
				"x": 1.7468295047,
				"y": 0.8287475886,
				"z": 2.323836322,
				"element": "C" 
			},
			{
				"x": 0.8066636557,
				"y": 0.9279428648,
				"z": 1.1401403696,
				"element": "C" 
			},
			{
				"x": 0.6305107349,
				"y": -0.1565363595,
				"z": 0.2728398063,
				"element": "C" 
			},
			{
				"x": -0.2567324964,
				"y": -0.0916738237,
				"z": -0.8079137873,
				"element": "C" 
			},
			{
				"x": -0.4588440314,
				"y": -1.2863492885,
				"z": -1.7171710952,
				"element": "C" 
			},
			{
				"x": -1.5784452787,
				"y": -2.2245842321,
				"z": -1.2313244568,
				"element": "C" 
			},
			{
				"x": -0.9745625429,
				"y": 1.0926216888,
				"z": -1.0126238238,
				"element": "C" 
			},
			{
				"x": -0.8244161472,
				"y": 2.1957811504,
				"z": -0.1641703198,
				"element": "C" 
			},
			{
				"x": -1.6246378328,
				"y": 3.458442067,
				"z": -0.3882742708,
				"element": "C" 
			},
			{
				"x": 0.0726705477,
				"y": 2.0967665779,
				"z": 0.9057424654,
				"element": "C" 
			},
			{
				"x": 0.6349022943,
				"y": -0.6914745873,
				"z": 3.4311587066,
				"element": "H" 
			},
			{
				"x": 1.7586501136,
				"y": 0.2464211974,
				"z": 4.4315939282,
				"element": "H" 
			},
			{
				"x": 0.2309046484,
				"y": 0.9656611962,
				"z": 3.891281799,
				"element": "H" 
			},
			{
				"x": 2.583571019,
				"y": 0.1659262547,
				"z": 2.0723022389,
				"element": "H" 
			},
			{
				"x": 2.181670695,
				"y": 1.8142346002,
				"z": 2.5300674787,
				"element": "H" 
			},
			{
				"x": 1.2060186448,
				"y": -1.0665403705,
				"z": 0.43502412,
				"element": "H" 
			},
			{
				"x": -0.6945148623,
				"y": -0.9398018275,
				"z": -2.7306493241,
				"element": "H" 
			},
			{
				"x": 0.4775847734,
				"y": -1.8523061279,
				"z": -1.79177863,
				"element": "H" 
			},
			{
				"x": -1.3572762676,
				"y": -2.6130973485,
				"z": -0.2318589598,
				"element": "H" 
			},
			{
				"x": -1.6993880197,
				"y": -3.0769665916,
				"z": -1.9084810523,
				"element": "H" 
			},
			{
				"x": -2.5356261141,
				"y": -1.6958813815,
				"z": -1.1759292875,
				"element": "H" 
			},
			{
				"x": -1.6575313791,
				"y": 1.1605530216,
				"z": -1.8576938298,
				"element": "H" 
			},
			{
				"x": -1.0855994963,
				"y": 4.3429266988,
				"z": -0.0350866266,
				"element": "H" 
			},
			{
				"x": -2.5800014526,
				"y": 3.4240230924,
				"z": 0.1508058916,
				"element": "H" 
			},
			{
				"x": -1.8562003196,
				"y": 3.6037892402,
				"z": -1.447932624,
				"element": "H" 
			},
			{
				"x": 0.2108682772,
				"y": 2.9520587162,
				"z": 1.5649716814,
				"element": "H" 
			}
		],
		 "valence_orbital": [ 
			{
				"type": "occ",
				"energy": -0.32372,
				"method": "rhf"
			},
			{
				"type": "occ",
				"energy": -0.31858,
				"method": "rhf"
			},
			{
				"type": "occ",
				"energy": -0.31361,
				"method": "rhf"
			},
			{
				"type": "occ",
				"energy": -0.22819,
				"method": "rhf"
			},
			{
				"type": "occ",
				"energy": -0.22779,
				"method": "rhf"
			},
			{
				"type": "unocc",
				"energy": 0.00799,
				"method": "rhf"
			},
			{
				"type": "unocc",
				"energy": 0.0087,
				"method": "rhf"
			},
			{
				"type": "unocc",
				"energy": 0.0919,
				"method": "rhf"
			},
			{
				"type": "unocc",
				"energy": 0.11533,
				"method": "rhf"
			},
			{
				"type": "unocc",
				"energy": 0.12025,
				"method": "rhf"
			}
		],
		"cosmo_sigma_profile": { 
			"-0.025": 0.0,
			"-0.024": 0.0,
			"-0.023": 0.0,
			"-0.022": 0.0,
			"-0.021": 0.0,
			"-0.02": 0.0,
			"-0.019": 0.0,
			"-0.018": 0.0,
			"-0.017": 0.0,
			"-0.016": 0.0,
			"-0.015": 0.0,
			"-0.014": 0.0,
			"-0.013": 0.0,
			"-0.012": 0.0,
			"-0.011": 0.0,
			"-0.01": 0.0,
			"-0.009": 0.0,
			"-0.008": 0.0,
			"-0.007": 0.0,
			"-0.006": 0.0,
			"-0.005": 0.530548672805,
			"-0.004": 9.86648866833,
			"-0.003": 31.2744237774,
			"-0.002": 31.2890312708,
			"-0.001": 35.455376685,
			"0.0": 38.1170980228,
			"0.001": 31.7763705678,
			"0.002": 14.5751320662,
			"0.003": 7.9287741821,
			"0.004": 6.85267445957,
			"0.005": 6.51967559531,
			"0.006": 6.28711458114,
			"0.007": 6.03567168941,
			"0.008": 1.1069057623,
			"0.009": 0.0,
			"0.01": 0.0,
			"0.011": 0.0,
			"0.012": 0.0,
			"0.013": 0.0,
			"0.014": 0.0,
			"0.015": 0.0,
			"0.016": 0.0,
			"0.017": 0.0,
			"0.018": 0.0,
			"0.019": 0.0,
			"0.02": 0.0,
			"0.021": 0.0,
			"0.022": 0.0,
			"0.023": 0.0,
			"0.024": 0.0,
			"0.025": 0.0
		}
	}
}
