{
	 "smiles": "NC1=CNC(=O)NC1=O", 
	 "Tm": 573.15, 
	 "num_atms": 14, 
	 "gaussian": { 
		 "optdone": 1, 
		 "sigma_profile": "yes", 
		 "theory": "DFT", 
		 "functional": "B3LYP", 
		 "basiset": "6-31G**", 
		 "properties": { 
			 "R2extent": 1557.0051, 
			 "electric_dipole_moment_norm": 4.19119547862, 
			 "electric_quadrupole_moment_norm": 10.0966693657, 
			 "total_energy": -470.173160523, 
			 "HOMO_LUMO_gap": 0.17213, 
			 "cosmo_polarized_energy": -18.7, 
			 "cosmo_cavitation_energy": 18.65, 
			 "cosmo_dispersion_energy": -14.39, 
			 "cosmo_repulsion_energy": 1.2, 
			 "cosmo_total_nonelectrostatic_energy": 5.46, 
			 "SMD_solvation_energy": 5.12 
		},
		"coords": [
			{
				"x": 1.8220934965,
				"y": -0.6684365695,
				"z": -1.4330634917,
				"element": "N" 
			},
			{
				"x": 0.4662916954,
				"y": -0.7020339229,
				"z": -1.1168821038,
				"element": "C" 
			},
			{
				"x": -0.1776119179,
				"y": -1.6800325129,
				"z": -0.4342906706,
				"element": "C" 
			},
			{
				"x": -1.5529484905,
				"y": -1.6333753173,
				"z": -0.224044036,
				"element": "N" 
			},
			{
				"x": -2.3827817142,
				"y": -0.6350970798,
				"z": -0.688998563,
				"element": "C" 
			},
			{
				"x": -3.5887535588,
				"y": -0.6082666789,
				"z": -0.5074722149,
				"element": "O" 
			},
			{
				"x": -1.6897118123,
				"y": 0.3512959397,
				"z": -1.3903207935,
				"element": "N" 
			},
			{
				"x": -0.3217794938,
				"y": 0.4278793424,
				"z": -1.6395909181,
				"element": "C" 
			},
			{
				"x": 0.174052818,
				"y": 1.3735566461,
				"z": -2.2413888675,
				"element": "O" 
			},
			{
				"x": 2.0904670081,
				"y": 0.2516979534,
				"z": -1.7649535953,
				"element": "H" 
			},
			{
				"x": 2.4481329208,
				"y": -1.0294302,
				"z": -0.7266633476,
				"element": "H" 
			},
			{
				"x": 0.3288960031,
				"y": -2.5437299533,
				"z": -0.0203248852,
				"element": "H" 
			},
			{
				"x": -2.0173030795,
				"y": -2.3674371484,
				"z": 0.2891374524,
				"element": "H" 
			},
			{
				"x": -2.2549438749,
				"y": 1.1162095015,
				"z": -1.7384439652,
				"element": "H" 
			}
		],
		 "valence_orbital": [ 
			{
				"type": "occ",
				"energy": -0.31207,
				"method": "rhf"
			},
			{
				"type": "occ",
				"energy": -0.2902,
				"method": "rhf"
			},
			{
				"type": "occ",
				"energy": -0.28484,
				"method": "rhf"
			},
			{
				"type": "occ",
				"energy": -0.26828,
				"method": "rhf"
			},
			{
				"type": "occ",
				"energy": -0.20602,
				"method": "rhf"
			},
			{
				"type": "unocc",
				"energy": -0.03389,
				"method": "rhf"
			},
			{
				"type": "unocc",
				"energy": 0.02077,
				"method": "rhf"
			},
			{
				"type": "unocc",
				"energy": 0.06158,
				"method": "rhf"
			},
			{
				"type": "unocc",
				"energy": 0.08225,
				"method": "rhf"
			},
			{
				"type": "unocc",
				"energy": 0.10318,
				"method": "rhf"
			}
		],
		"cosmo_sigma_profile": { 
			"-0.025": 0.0,
			"-0.024": 0.0,
			"-0.023": 0.0,
			"-0.022": 0.0,
			"-0.021": 0.0,
			"-0.02": 0.0,
			"-0.019": 0.0,
			"-0.018": 0.0,
			"-0.017": 0.352844858672,
			"-0.016": 2.136894694,
			"-0.015": 1.95581569636,
			"-0.014": 1.96729495334,
			"-0.013": 2.42711677977,
			"-0.012": 3.83100695239,
			"-0.011": 3.26577912188,
			"-0.01": 5.25764206185,
			"-0.009": 6.48292226278,
			"-0.008": 5.04156573402,
			"-0.007": 4.77940528884,
			"-0.006": 3.72398179763,
			"-0.005": 3.65031650063,
			"-0.004": 5.58632053563,
			"-0.003": 6.86540992841,
			"-0.002": 8.08478556654,
			"-0.001": 10.8586644585,
			"0.0": 8.92881544387,
			"0.001": 6.35627272127,
			"0.002": 4.24622161184,
			"0.003": 4.33843251962,
			"0.004": 3.5877481197,
			"0.005": 3.34958966526,
			"0.006": 2.91952221011,
			"0.007": 4.61340724506,
			"0.008": 2.76367155611,
			"0.009": 1.33201147686,
			"0.01": 3.58189171988,
			"0.011": 5.0345938487,
			"0.012": 6.97285079734,
			"0.013": 10.8225423422,
			"0.014": 2.67829528968,
			"0.015": 0.446458255186,
			"0.016": 0.0,
			"0.017": 0.0,
			"0.018": 0.0,
			"0.019": 0.0,
			"0.02": 0.0,
			"0.021": 0.0,
			"0.022": 0.0,
			"0.023": 0.0,
			"0.024": 0.0,
			"0.025": 0.0
		}
	}
}
