{
	 "smiles": "COC(=O)CC(=O)OC(C)(C)C", 
	 "Tm": 263.15, 
	 "num_atms": 26, 
	 "gaussian": { 
		 "optdone": 1, 
		 "sigma_profile": "yes", 
		 "theory": "DFT", 
		 "functional": "B3LYP", 
		 "basiset": "6-31G**", 
		 "properties": { 
			 "R2extent": 2978.3695, 
			 "electric_dipole_moment_norm": 1.93795210983, 
			 "electric_quadrupole_moment_norm": 13.722934285, 
			 "total_energy": -614.21610143, 
			 "HOMO_LUMO_gap": 0.2628, 
			 "cosmo_polarized_energy": -10.28, 
			 "cosmo_cavitation_energy": 29.45, 
			 "cosmo_dispersion_energy": -19.75, 
			 "cosmo_repulsion_energy": 1.62, 
			 "cosmo_total_nonelectrostatic_energy": 11.33, 
			 "SMD_solvation_energy": 7.77 
		},
		"coords": [
			{
				"x": -1.5180663571,
				"y": 2.8683011901,
				"z": 2.3740377438,
				"element": "C" 
			},
			{
				"x": -0.444224125,
				"y": 1.922560409,
				"z": 2.5119503757,
				"element": "O" 
			},
			{
				"x": -0.7815178509,
				"y": 0.7465815481,
				"z": 3.0843584219,
				"element": "C" 
			},
			{
				"x": -1.8928966222,
				"y": 0.4823150434,
				"z": 3.4819924315,
				"element": "O" 
			},
			{
				"x": 0.4286684917,
				"y": -0.1661208264,
				"z": 3.1849655627,
				"element": "C" 
			},
			{
				"x": 1.1404334816,
				"y": -0.3867546091,
				"z": 1.8533099645,
				"element": "C" 
			},
			{
				"x": 2.3404933879,
				"y": -0.3000101764,
				"z": 1.7099691628,
				"element": "O" 
			},
			{
				"x": 0.246303372,
				"y": -0.7179871134,
				"z": 0.9065455419,
				"element": "O" 
			},
			{
				"x": 0.6530519273,
				"y": -0.9874817186,
				"z": -0.489641817,
				"element": "C" 
			},
			{
				"x": -0.6831918111,
				"y": -1.2868629237,
				"z": -1.1722975915,
				"element": "C" 
			},
			{
				"x": 1.3071131665,
				"y": 0.2616973685,
				"z": -1.0880057219,
				"element": "C" 
			},
			{
				"x": 1.5766188944,
				"y": -2.2087506923,
				"z": -0.5330725064,
				"element": "C" 
			},
			{
				"x": -1.9323780635,
				"y": 3.1243030566,
				"z": 3.3522992864,
				"element": "H" 
			},
			{
				"x": -1.0776669276,
				"y": 3.7466288674,
				"z": 1.9026949699,
				"element": "H" 
			},
			{
				"x": -2.3151294008,
				"y": 2.4555565915,
				"z": 1.7506711124,
				"element": "H" 
			},
			{
				"x": 1.1580150598,
				"y": 0.2607276656,
				"z": 3.8773307676,
				"element": "H" 
			},
			{
				"x": 0.083059341,
				"y": -1.1260818242,
				"z": 3.5759102905,
				"element": "H" 
			},
			{
				"x": -0.5211395416,
				"y": -1.5121526402,
				"z": -2.2305710372,
				"element": "H" 
			},
			{
				"x": -1.3558091172,
				"y": -0.42749405,
				"z": -1.0993300284,
				"element": "H" 
			},
			{
				"x": -1.1719839332,
				"y": -2.14642934,
				"z": -0.7049974848,
				"element": "H" 
			},
			{
				"x": 0.6468150833,
				"y": 1.1268766279,
				"z": -0.9738540603,
				"element": "H" 
			},
			{
				"x": 2.2600120107,
				"y": 0.4791261482,
				"z": -0.6048177698,
				"element": "H" 
			},
			{
				"x": 1.4821497488,
				"y": 0.10484872,
				"z": -2.1572607997,
				"element": "H" 
			},
			{
				"x": 1.7812435618,
				"y": -2.4741493676,
				"z": -1.5753285911,
				"element": "H" 
			},
			{
				"x": 1.0962443006,
				"y": -3.0672155363,
				"z": -0.053254821,
				"element": "H" 
			},
			{
				"x": 2.5229819228,
				"y": -2.0051324183,
				"z": -0.0313034024,
				"element": "H" 
			}
		],
		 "valence_orbital": [ 
			{
				"type": "occ",
				"energy": -0.33449,
				"method": "rhf"
			},
			{
				"type": "occ",
				"energy": -0.30671,
				"method": "rhf"
			},
			{
				"type": "occ",
				"energy": -0.29873,
				"method": "rhf"
			},
			{
				"type": "occ",
				"energy": -0.28659,
				"method": "rhf"
			},
			{
				"type": "occ",
				"energy": -0.26101,
				"method": "rhf"
			},
			{
				"type": "unocc",
				"energy": 0.00179,
				"method": "rhf"
			},
			{
				"type": "unocc",
				"energy": 0.01185,
				"method": "rhf"
			},
			{
				"type": "unocc",
				"energy": 0.08101,
				"method": "rhf"
			},
			{
				"type": "unocc",
				"energy": 0.09426,
				"method": "rhf"
			},
			{
				"type": "unocc",
				"energy": 0.10838,
				"method": "rhf"
			}
		],
		"cosmo_sigma_profile": { 
			"-0.025": 0.0,
			"-0.024": 0.0,
			"-0.023": 0.0,
			"-0.022": 0.0,
			"-0.021": 0.0,
			"-0.02": 0.0,
			"-0.019": 0.0,
			"-0.018": 0.0,
			"-0.017": 0.0,
			"-0.016": 0.0,
			"-0.015": 0.0,
			"-0.014": 0.0,
			"-0.013": 0.0,
			"-0.012": 0.0,
			"-0.011": 0.0,
			"-0.01": 0.0,
			"-0.009": 0.218087506506,
			"-0.008": 3.4644006007,
			"-0.007": 4.97998726538,
			"-0.006": 8.65158603616,
			"-0.005": 12.7041902765,
			"-0.004": 25.6770094412,
			"-0.003": 24.6923391296,
			"-0.002": 22.4428219034,
			"-0.001": 20.5806464703,
			"0.0": 27.8460751016,
			"0.001": 16.3395493208,
			"0.002": 8.3393320505,
			"0.003": 7.47769487602,
			"0.004": 8.20428716991,
			"0.005": 5.47211510664,
			"0.006": 4.57423513092,
			"0.007": 4.81561047097,
			"0.008": 3.03495100495,
			"0.009": 3.43856345123,
			"0.01": 3.88444632675,
			"0.011": 7.1838097569,
			"0.012": 5.40494638682,
			"0.013": 0.670749261284,
			"0.014": 0.0,
			"0.015": 0.0,
			"0.016": 0.0,
			"0.017": 0.0,
			"0.018": 0.0,
			"0.019": 0.0,
			"0.02": 0.0,
			"0.021": 0.0,
			"0.022": 0.0,
			"0.023": 0.0,
			"0.024": 0.0,
			"0.025": 0.0
		}
	}
}
