{
	 "smiles": "FC(F)(F)C(F)(F)C(F)(F)C(F)(F)C(F)(F)C(F)(F)C(F)(F)C(F)(F)C(=O)NC1=CNC(=O)NC1=O", 
	 "Tm": 524.15, 
	 "num_atms": 40, 
	 "gaussian": { 
		 "optdone": 1, 
		 "sigma_profile": "yes", 
		 "theory": "DFT", 
		 "functional": "B3LYP", 
		 "basiset": "6-31G**", 
		 "properties": { 
			 "R2extent": 25970.8917, 
			 "electric_dipole_moment_norm": 1.52740946049, 
			 "electric_quadrupole_moment_norm": 11.9087366395, 
			 "total_energy": -2584.98365723, 
			 "HOMO_LUMO_gap": 0.17766, 
			 "cosmo_polarized_energy": -18.51, 
			 "cosmo_cavitation_energy": 51.86, 
			 "cosmo_dispersion_energy": -34.58, 
			 "cosmo_repulsion_energy": 2.26, 
			 "cosmo_total_nonelectrostatic_energy": 19.53, 
			 "SMD_solvation_energy": 16.04 
		},
		"coords": [
			{
				"x": 4.9938090536,
				"y": 4.8806583427,
				"z": 2.2012304654,
				"element": "F" 
			},
			{
				"x": 5.6011104387,
				"y": 3.6957106988,
				"z": 2.0857258359,
				"element": "C" 
			},
			{
				"x": 6.9057981538,
				"y": 3.8525347391,
				"z": 2.3367759389,
				"element": "F" 
			},
			{
				"x": 5.0849841929,
				"y": 2.8459476301,
				"z": 2.983903916,
				"element": "F" 
			},
			{
				"x": 5.4309384758,
				"y": 3.1328668607,
				"z": 0.6490720389,
				"element": "C" 
			},
			{
				"x": 5.7892328519,
				"y": 4.1083276131,
				"z": -0.2175267331,
				"element": "F" 
			},
			{
				"x": 6.2705254105,
				"y": 2.0845473296,
				"z": 0.5146136628,
				"element": "F" 
			},
			{
				"x": 3.9862485169,
				"y": 2.6552650196,
				"z": 0.3238958552,
				"element": "C" 
			},
			{
				"x": 3.108902751,
				"y": 3.5742839514,
				"z": 0.7964604459,
				"element": "F" 
			},
			{
				"x": 3.7834178338,
				"y": 1.4801701347,
				"z": 0.9599735267,
				"element": "F" 
			},
			{
				"x": 3.7188215473,
				"y": 2.4709111881,
				"z": -1.1957414571,
				"element": "C" 
			},
			{
				"x": 4.7768300745,
				"y": 1.8152515998,
				"z": -1.7339054498,
				"element": "F" 
			},
			{
				"x": 3.6183381615,
				"y": 3.6873567824,
				"z": -1.769023215,
				"element": "F" 
			},
			{
				"x": 2.4584774525,
				"y": 1.6321421749,
				"z": -1.591126534,
				"element": "C" 
			},
			{
				"x": 2.3979429212,
				"y": 1.6805734176,
				"z": -2.9427528873,
				"element": "F" 
			},
			{
				"x": 2.6637434597,
				"y": 0.353171277,
				"z": -1.204719844,
				"element": "F" 
			},
			{
				"x": 1.0990560578,
				"y": 2.1088902443,
				"z": -1.0186326149,
				"element": "C" 
			},
			{
				"x": 1.0613403763,
				"y": 1.8108883146,
				"z": 0.3002052532,
				"element": "F" 
			},
			{
				"x": 1.0177665816,
				"y": 3.4533085404,
				"z": -1.1662831836,
				"element": "F" 
			},
			{
				"x": -0.1833430903,
				"y": 1.5249427076,
				"z": -1.6939902766,
				"element": "C" 
			},
			{
				"x": -1.2281643696,
				"y": 1.9919751089,
				"z": -0.9565725196,
				"element": "F" 
			},
			{
				"x": -0.2719617069,
				"y": 2.0235036968,
				"z": -2.9410936945,
				"element": "F" 
			},
			{
				"x": -0.3253430301,
				"y": -0.0162409698,
				"z": -1.7544718746,
				"element": "C" 
			},
			{
				"x": 0.0194055092,
				"y": -0.526724198,
				"z": -0.5329738864,
				"element": "F" 
			},
			{
				"x": 0.533449119,
				"y": -0.4980900055,
				"z": -2.681012349,
				"element": "F" 
			},
			{
				"x": -1.763626566,
				"y": -0.4449803343,
				"z": -2.1409004441,
				"element": "C" 
			},
			{
				"x": -2.186686489,
				"y": -0.2161839894,
				"z": -3.2642260114,
				"element": "O" 
			},
			{
				"x": -2.4412668489,
				"y": -1.0585630379,
				"z": -1.1427001784,
				"element": "N" 
			},
			{
				"x": -3.7509490278,
				"y": -1.5455058357,
				"z": -1.2180449971,
				"element": "C" 
			},
			{
				"x": -4.5819452247,
				"y": -1.4834238222,
				"z": -2.2890810725,
				"element": "C" 
			},
			{
				"x": -5.8544903563,
				"y": -2.007871073,
				"z": -2.2093114268,
				"element": "N" 
			},
			{
				"x": -6.3929714927,
				"y": -2.6223188605,
				"z": -1.0867312873,
				"element": "C" 
			},
			{
				"x": -7.5196989097,
				"y": -3.0766007166,
				"z": -1.0435910558,
				"element": "O" 
			},
			{
				"x": -5.502291039,
				"y": -2.6624551595,
				"z": -0.015366378,
				"element": "N" 
			},
			{
				"x": -4.2007184155,
				"y": -2.1725859312,
				"z": 0.0288135286,
				"element": "C" 
			},
			{
				"x": -3.4981288365,
				"y": -2.2625903714,
				"z": 1.028722201,
				"element": "O" 
			},
			{
				"x": -1.9979179439,
				"y": -1.2200034863,
				"z": -0.2427543274,
				"element": "H" 
			},
			{
				"x": -4.2866618643,
				"y": -1.0315988966,
				"z": -3.2253888882,
				"element": "H" 
			},
			{
				"x": -6.4739354885,
				"y": -1.9625149145,
				"z": -3.0057815289,
				"element": "H" 
			},
			{
				"x": -5.8513382398,
				"y": -3.1033757697,
				"z": 0.8275114472,
				"element": "H" 
			}
		],
		 "valence_orbital": [ 
			{
				"type": "occ",
				"energy": -0.31384,
				"method": "rhf"
			},
			{
				"type": "occ",
				"energy": -0.30717,
				"method": "rhf"
			},
			{
				"type": "occ",
				"energy": -0.29534,
				"method": "rhf"
			},
			{
				"type": "occ",
				"energy": -0.2908,
				"method": "rhf"
			},
			{
				"type": "occ",
				"energy": -0.24371,
				"method": "rhf"
			},
			{
				"type": "unocc",
				"energy": -0.06605,
				"method": "rhf"
			},
			{
				"type": "unocc",
				"energy": -0.03306,
				"method": "rhf"
			},
			{
				"type": "unocc",
				"energy": 0.00458,
				"method": "rhf"
			},
			{
				"type": "unocc",
				"energy": 0.00714,
				"method": "rhf"
			},
			{
				"type": "unocc",
				"energy": 0.01734,
				"method": "rhf"
			}
		],
		"cosmo_sigma_profile": { 
			"-0.025": 0.0,
			"-0.024": 0.0,
			"-0.023": 0.0,
			"-0.022": 0.0,
			"-0.021": 0.0,
			"-0.02": 0.0,
			"-0.019": 0.0,
			"-0.018": 0.401070134879,
			"-0.017": 1.80591422451,
			"-0.016": 2.81033196694,
			"-0.015": 2.123820159,
			"-0.014": 1.77399148469,
			"-0.013": 1.99951045063,
			"-0.012": 1.97804025203,
			"-0.011": 2.01622103192,
			"-0.01": 2.77500939199,
			"-0.009": 2.90396294451,
			"-0.008": 4.25059064089,
			"-0.007": 5.61970835323,
			"-0.006": 7.1383373511,
			"-0.005": 7.09363017962,
			"-0.004": 12.4899761177,
			"-0.003": 21.5126098581,
			"-0.002": 28.2972703226,
			"-0.001": 37.1885355359,
			"0.0": 74.3620768277,
			"0.001": 124.986171925,
			"0.002": 18.130967646,
			"0.003": 4.42875454126,
			"0.004": 4.86818869384,
			"0.005": 5.0448350106,
			"0.006": 4.0072347271,
			"0.007": 2.83728854688,
			"0.008": 4.1374712304,
			"0.009": 4.98754879014,
			"0.01": 6.03731454654,
			"0.011": 8.04658459426,
			"0.012": 9.29251034409,
			"0.013": 1.91236316534,
			"0.014": 0.0,
			"0.015": 0.0,
			"0.016": 0.0,
			"0.017": 0.0,
			"0.018": 0.0,
			"0.019": 0.0,
			"0.02": 0.0,
			"0.021": 0.0,
			"0.022": 0.0,
			"0.023": 0.0,
			"0.024": 0.0,
			"0.025": 0.0
		}
	}
}
