{
	 "smiles": "OC(=O)CN1NC(=O)C2=C(C=CC=C2)C1=O", 
	 "Tm": 546.15, 
	 "num_atms": 24, 
	 "gaussian": { 
		 "optdone": 1, 
		 "sigma_profile": "yes", 
		 "theory": "DFT", 
		 "functional": "B3LYP", 
		 "basiset": "6-31G**", 
		 "properties": { 
			 "R2extent": 3861.316, 
			 "electric_dipole_moment_norm": 5.28762089696, 
			 "electric_quadrupole_moment_norm": 18.5160553377, 
			 "total_energy": -796.291392287, 
			 "HOMO_LUMO_gap": 0.1677, 
			 "cosmo_polarized_energy": -20.62, 
			 "cosmo_cavitation_energy": 28.8, 
			 "cosmo_dispersion_energy": -21.36, 
			 "cosmo_repulsion_energy": 1.62, 
			 "cosmo_total_nonelectrostatic_energy": 9.06, 
			 "SMD_solvation_energy": 6.9 
		},
		"coords": [
			{
				"x": 1.9691609162,
				"y": -2.4201044621,
				"z": -2.8465059363,
				"element": "O" 
			},
			{
				"x": 2.3118094012,
				"y": -2.853594075,
				"z": -1.631566257,
				"element": "C" 
			},
			{
				"x": 3.3789425885,
				"y": -3.3628347189,
				"z": -1.3839665751,
				"element": "O" 
			},
			{
				"x": 1.2260111693,
				"y": -2.6878192923,
				"z": -0.5482778908,
				"element": "C" 
			},
			{
				"x": 0.8325830156,
				"y": -1.2901461153,
				"z": -0.3265966651,
				"element": "N" 
			},
			{
				"x": 1.1747501761,
				"y": -0.7438799499,
				"z": 0.9205446225,
				"element": "N" 
			},
			{
				"x": 0.7583523867,
				"y": 0.5022413024,
				"z": 1.3616169583,
				"element": "C" 
			},
			{
				"x": 1.2462872855,
				"y": 0.9902326554,
				"z": 2.3715002424,
				"element": "O" 
			},
			{
				"x": -0.2851474146,
				"y": 1.1398672483,
				"z": 0.5282982983,
				"element": "C" 
			},
			{
				"x": -0.6598736353,
				"y": 0.5737933352,
				"z": -0.703371797,
				"element": "C" 
			},
			{
				"x": -1.6139506967,
				"y": 1.2120224803,
				"z": -1.5067424899,
				"element": "C" 
			},
			{
				"x": -2.1873493891,
				"y": 2.4036420852,
				"z": -1.0763323398,
				"element": "C" 
			},
			{
				"x": -1.8095923543,
				"y": 2.970162643,
				"z": 0.1496894134,
				"element": "C" 
			},
			{
				"x": -0.857482745,
				"y": 2.3452937193,
				"z": 0.9484470929,
				"element": "C" 
			},
			{
				"x": -0.068948066,
				"y": -0.6969547541,
				"z": -1.1605170524,
				"element": "C" 
			},
			{
				"x": -0.3684362469,
				"y": -1.2479787097,
				"z": -2.2372176518,
				"element": "O" 
			},
			{
				"x": 1.0525545282,
				"y": -2.0438859997,
				"z": -2.8241945219,
				"element": "H" 
			},
			{
				"x": 0.3321860023,
				"y": -3.2493071355,
				"z": -0.8429045713,
				"element": "H" 
			},
			{
				"x": 1.610126111,
				"y": -3.0909006646,
				"z": 0.3876145012,
				"element": "H" 
			},
			{
				"x": 2.0751712309,
				"y": -1.0490796905,
				"z": 1.2713349847,
				"element": "H" 
			},
			{
				"x": -1.8853277953,
				"y": 0.7561883128,
				"z": -2.4524108191,
				"element": "H" 
			},
			{
				"x": -2.9286006352,
				"y": 2.8997468692,
				"z": -1.6953828033,
				"element": "H" 
			},
			{
				"x": -2.2602796855,
				"y": 3.902752648,
				"z": 0.4753611678,
				"element": "H" 
			},
			{
				"x": -0.5375461475,
				"y": 2.7658422683,
				"z": 1.8955800892,
				"element": "H" 
			}
		],
		 "valence_orbital": [ 
			{
				"type": "occ",
				"energy": -0.2909,
				"method": "rhf"
			},
			{
				"type": "occ",
				"energy": -0.28814,
				"method": "rhf"
			},
			{
				"type": "occ",
				"energy": -0.28337,
				"method": "rhf"
			},
			{
				"type": "occ",
				"energy": -0.27656,
				"method": "rhf"
			},
			{
				"type": "occ",
				"energy": -0.2478,
				"method": "rhf"
			},
			{
				"type": "unocc",
				"energy": -0.0801,
				"method": "rhf"
			},
			{
				"type": "unocc",
				"energy": -0.06023,
				"method": "rhf"
			},
			{
				"type": "unocc",
				"energy": -0.00244,
				"method": "rhf"
			},
			{
				"type": "unocc",
				"energy": 0.01883,
				"method": "rhf"
			},
			{
				"type": "unocc",
				"energy": 0.03979,
				"method": "rhf"
			}
		],
		"cosmo_sigma_profile": { 
			"-0.025": 0.0,
			"-0.024": 0.0,
			"-0.023": 0.0,
			"-0.022": 0.0,
			"-0.021": 0.0,
			"-0.02": 0.0,
			"-0.019": 0.0,
			"-0.018": 0.402041398798,
			"-0.017": 1.26224580709,
			"-0.016": 1.58861031818,
			"-0.015": 1.21448018384,
			"-0.014": 1.09628755988,
			"-0.013": 0.89672236371,
			"-0.012": 1.13746237487,
			"-0.011": 1.38106637241,
			"-0.01": 2.04838347437,
			"-0.009": 4.85733930567,
			"-0.008": 5.72089127725,
			"-0.007": 13.3159926106,
			"-0.006": 16.1337010424,
			"-0.005": 16.6548177529,
			"-0.004": 12.7687333021,
			"-0.003": 11.565165574,
			"-0.002": 10.8517803488,
			"-0.001": 12.3977764643,
			"0.0": 14.9248358848,
			"0.001": 17.7318356596,
			"0.002": 15.7847991352,
			"0.003": 5.83537244067,
			"0.004": 4.55924795939,
			"0.005": 4.4128911033,
			"0.006": 4.37562949394,
			"0.007": 4.76162532635,
			"0.008": 5.51722844066,
			"0.009": 5.55393635326,
			"0.01": 8.56036198037,
			"0.011": 9.56853434935,
			"0.012": 9.95665266981,
			"0.013": 4.37731291642,
			"0.014": 0.0226775545727,
			"0.015": 0.0,
			"0.016": 0.0,
			"0.017": 0.0,
			"0.018": 0.0,
			"0.019": 0.0,
			"0.02": 0.0,
			"0.021": 0.0,
			"0.022": 0.0,
			"0.023": 0.0,
			"0.024": 0.0,
			"0.025": 0.0
		}
	}
}
