{
	 "smiles": "CC(C)(CC1=CC=C(F)C=C1)N=CC1=CC=CC=C1", 
	 "Tm": 317.15, 
	 "num_atms": 37, 
	 "gaussian": { 
		 "optdone": 1, 
		 "sigma_profile": "yes", 
		 "theory": "DFT", 
		 "functional": "B3LYP", 
		 "basiset": "6-31G**", 
		 "properties": { 
			 "R2extent": 9074.6999, 
			 "electric_dipole_moment_norm": 1.97913370443, 
			 "electric_quadrupole_moment_norm": 8.55241033978, 
			 "total_energy": -813.246015507, 
			 "HOMO_LUMO_gap": 0.18962, 
			 "cosmo_polarized_energy": -7.95, 
			 "cosmo_cavitation_energy": 40.42, 
			 "cosmo_dispersion_energy": -27.79, 
			 "cosmo_repulsion_energy": 2.1, 
			 "cosmo_total_nonelectrostatic_energy": 14.73, 
			 "SMD_solvation_energy": 6.0 
		},
		"coords": [
			{
				"x": 1.2271607758,
				"y": 0.0394827226,
				"z": 0.373566759,
				"element": "C" 
			},
			{
				"x": -0.298621607,
				"y": -0.1450515186,
				"z": 0.398016182,
				"element": "C" 
			},
			{
				"x": -0.639919141,
				"y": -1.5781864521,
				"z": 0.8500817478,
				"element": "C" 
			},
			{
				"x": -0.9733162964,
				"y": 0.911799063,
				"z": 1.3375852687,
				"element": "C" 
			},
			{
				"x": -0.576546531,
				"y": 0.8814509354,
				"z": 2.7979626519,
				"element": "C" 
			},
			{
				"x": -1.2805700828,
				"y": 0.0945696266,
				"z": 3.7229278464,
				"element": "C" 
			},
			{
				"x": -0.9275136804,
				"y": 0.0612148402,
				"z": 5.0721603524,
				"element": "C" 
			},
			{
				"x": 0.1451621551,
				"y": 0.8343770618,
				"z": 5.4996270875,
				"element": "C" 
			},
			{
				"x": 0.4931674403,
				"y": 0.8123576193,
				"z": 6.8046241102,
				"element": "F" 
			},
			{
				"x": 0.8628463275,
				"y": 1.6374353072,
				"z": 4.6215531815,
				"element": "C" 
			},
			{
				"x": 0.4923003607,
				"y": 1.6549307539,
				"z": 3.2766323127,
				"element": "C" 
			},
			{
				"x": -0.9851849522,
				"y": 0.038969797,
				"z": -0.8897228299,
				"element": "N" 
			},
			{
				"x": -0.3562485505,
				"y": 0.3200884902,
				"z": -1.9612816131,
				"element": "C" 
			},
			{
				"x": -1.0470526332,
				"y": 0.5035709379,
				"z": -3.2534173829,
				"element": "C" 
			},
			{
				"x": -2.44200585,
				"y": 0.3779426877,
				"z": -3.3634093044,
				"element": "C" 
			},
			{
				"x": -3.0668502943,
				"y": 0.5563194932,
				"z": -4.5932263209,
				"element": "C" 
			},
			{
				"x": -2.3107193516,
				"y": 0.8623841328,
				"z": -5.7309172079,
				"element": "C" 
			},
			{
				"x": -0.9245667689,
				"y": 0.9890644509,
				"z": -5.6312771588,
				"element": "C" 
			},
			{
				"x": -0.297343685,
				"y": 0.8102036671,
				"z": -4.3978982892,
				"element": "C" 
			},
			{
				"x": 1.7055283515,
				"y": -0.6848142967,
				"z": -0.2942719274,
				"element": "H" 
			},
			{
				"x": 1.6385995915,
				"y": -0.1132334416,
				"z": 1.3743305334,
				"element": "H" 
			},
			{
				"x": 1.5125416033,
				"y": 1.0456931597,
				"z": 0.0465424787,
				"element": "H" 
			},
			{
				"x": -1.7230925406,
				"y": -1.7307902358,
				"z": 0.8507232507,
				"element": "H" 
			},
			{
				"x": -0.1991641025,
				"y": -2.3049183933,
				"z": 0.1602387733,
				"element": "H" 
			},
			{
				"x": -0.2528744277,
				"y": -1.7769440458,
				"z": 1.8533045377,
				"element": "H" 
			},
			{
				"x": -0.7530967445,
				"y": 1.9014184108,
				"z": 0.9202582465,
				"element": "H" 
			},
			{
				"x": -2.0547316433,
				"y": 0.7704511999,
				"z": 1.2425324626,
				"element": "H" 
			},
			{
				"x": -2.1263695244,
				"y": -0.4973465602,
				"z": 3.3844297114,
				"element": "H" 
			},
			{
				"x": -1.4724507046,
				"y": -0.5435843715,
				"z": 5.7891028929,
				"element": "H" 
			},
			{
				"x": 1.6861738516,
				"y": 2.2375467241,
				"z": 4.9940362117,
				"element": "H" 
			},
			{
				"x": 1.0410760525,
				"y": 2.2911002896,
				"z": 2.5874557022,
				"element": "H" 
			},
			{
				"x": 0.734809496,
				"y": 0.4437170589,
				"z": -2.0051578784,
				"element": "H" 
			},
			{
				"x": -3.0095129043,
				"y": 0.1401254574,
				"z": -2.4698375123,
				"element": "H" 
			},
			{
				"x": -4.1460252984,
				"y": 0.457622812,
				"z": -4.6707978968,
				"element": "H" 
			},
			{
				"x": -2.8022894141,
				"y": 1.0009754843,
				"z": -6.6897313594,
				"element": "H" 
			},
			{
				"x": -0.3335172079,
				"y": 1.2263222411,
				"z": -6.5111899859,
				"element": "H" 
			},
			{
				"x": 0.7830179307,
				"y": 0.9083348909,
				"z": -4.3180556342,
				"element": "H" 
			}
		],
		 "valence_orbital": [ 
			{
				"type": "occ",
				"energy": -0.25772,
				"method": "rhf"
			},
			{
				"type": "occ",
				"energy": -0.25278,
				"method": "rhf"
			},
			{
				"type": "occ",
				"energy": -0.24553,
				"method": "rhf"
			},
			{
				"type": "occ",
				"energy": -0.24144,
				"method": "rhf"
			},
			{
				"type": "occ",
				"energy": -0.23096,
				"method": "rhf"
			},
			{
				"type": "unocc",
				"energy": -0.04134,
				"method": "rhf"
			},
			{
				"type": "unocc",
				"energy": -0.00974,
				"method": "rhf"
			},
			{
				"type": "unocc",
				"energy": -0.00184,
				"method": "rhf"
			},
			{
				"type": "unocc",
				"energy": 0.00237,
				"method": "rhf"
			},
			{
				"type": "unocc",
				"energy": 0.05248,
				"method": "rhf"
			}
		],
		"cosmo_sigma_profile": { 
			"-0.025": 0.0,
			"-0.024": 0.0,
			"-0.023": 0.0,
			"-0.022": 0.0,
			"-0.021": 0.0,
			"-0.02": 0.0,
			"-0.019": 0.0,
			"-0.018": 0.0,
			"-0.017": 0.0,
			"-0.016": 0.0,
			"-0.015": 0.0,
			"-0.014": 0.0,
			"-0.013": 0.0,
			"-0.012": 0.0,
			"-0.011": 0.0,
			"-0.01": 0.0,
			"-0.009": 0.0,
			"-0.008": 0.0,
			"-0.007": 2.55127635979,
			"-0.006": 12.6679256848,
			"-0.005": 18.410993577,
			"-0.004": 27.2737169598,
			"-0.003": 32.3869949752,
			"-0.002": 28.4223890053,
			"-0.001": 26.8596399215,
			"0.0": 28.2553143285,
			"0.001": 31.2619118047,
			"0.002": 24.3519665487,
			"0.003": 21.9237717473,
			"0.004": 30.0798832567,
			"0.005": 24.0389673772,
			"0.006": 4.02918708806,
			"0.007": 2.0642372856,
			"0.008": 1.57209757678,
			"0.009": 1.68583346674,
			"0.01": 1.24608284582,
			"0.011": 0.672979796584,
			"0.012": 0.458801305099,
			"0.013": 0.0,
			"0.014": 0.0,
			"0.015": 0.0,
			"0.016": 0.0,
			"0.017": 0.0,
			"0.018": 0.0,
			"0.019": 0.0,
			"0.02": 0.0,
			"0.021": 0.0,
			"0.022": 0.0,
			"0.023": 0.0,
			"0.024": 0.0,
			"0.025": 0.0
		}
	}
}
