{
	 "smiles": "CN1C=C(C(N)=N1)S(N)(=O)=O", 
	 "Tm": 436.15, 
	 "num_atms": 19, 
	 "gaussian": { 
		 "optdone": 1, 
		 "sigma_profile": "yes", 
		 "theory": "DFT", 
		 "functional": "B3LYP", 
		 "basiset": "6-31G**", 
		 "properties": { 
			 "R2extent": 2655.3372, 
			 "electric_dipole_moment_norm": 4.4617435258, 
			 "electric_quadrupole_moment_norm": 24.5610665915, 
			 "total_energy": -924.799901302, 
			 "HOMO_LUMO_gap": 0.21526, 
			 "cosmo_polarized_energy": -21.7, 
			 "cosmo_cavitation_energy": 24.53, 
			 "cosmo_dispersion_energy": -18.8, 
			 "cosmo_repulsion_energy": 1.49, 
			 "cosmo_total_nonelectrostatic_energy": 7.22, 
			 "SMD_solvation_energy": 3.3 
		},
		"coords": [
			{
				"x": 0.7044469681,
				"y": 3.4112454746,
				"z": 1.6771033639,
				"element": "C" 
			},
			{
				"x": 0.6882221066,
				"y": 1.9803708827,
				"z": 1.4481061995,
				"element": "N" 
			},
			{
				"x": 1.6126518965,
				"y": 1.2248679346,
				"z": 0.8344056686,
				"element": "C" 
			},
			{
				"x": 1.1387758899,
				"y": -0.0808538918,
				"z": 0.8668248438,
				"element": "C" 
			},
			{
				"x": -0.1141611552,
				"y": -0.0052097252,
				"z": 1.5472641078,
				"element": "C" 
			},
			{
				"x": -0.9537865636,
				"y": -1.0493988818,
				"z": 1.8621960242,
				"element": "N" 
			},
			{
				"x": -0.3875932057,
				"y": 1.2546928726,
				"z": 1.8834694691,
				"element": "N" 
			},
			{
				"x": 2.0137370899,
				"y": -1.471964573,
				"z": 0.2871661626,
				"element": "S" 
			},
			{
				"x": 0.7543285352,
				"y": -2.3221107189,
				"z": -0.4995626892,
				"element": "N" 
			},
			{
				"x": 2.418342859,
				"y": -2.3676639405,
				"z": 1.3724634456,
				"element": "O" 
			},
			{
				"x": 3.0078270692,
				"y": -0.9858855009,
				"z": -0.6781095657,
				"element": "O" 
			},
			{
				"x": 1.6261699765,
				"y": 3.8251214008,
				"z": 1.2653356396,
				"element": "H" 
			},
			{
				"x": 0.6592137382,
				"y": 3.6174906777,
				"z": 2.7496844507,
				"element": "H" 
			},
			{
				"x": -0.1554363461,
				"y": 3.8786095571,
				"z": 1.1897192078,
				"element": "H" 
			},
			{
				"x": 2.5231540766,
				"y": 1.624897271,
				"z": 0.4143254837,
				"element": "H" 
			},
			{
				"x": -0.9079771024,
				"y": -1.8201791252,
				"z": 1.2065278254,
				"element": "H" 
			},
			{
				"x": -1.8925348513,
				"y": -0.7595907974,
				"z": 2.0999987112,
				"element": "H" 
			},
			{
				"x": 1.0023299585,
				"y": -3.3102370005,
				"z": -0.4841092081,
				"element": "H" 
			},
			{
				"x": 0.6631890604,
				"y": -1.9994019158,
				"z": -1.4615091407,
				"element": "H" 
			}
		],
		 "valence_orbital": [ 
			{
				"type": "occ",
				"energy": -0.31043,
				"method": "rhf"
			},
			{
				"type": "occ",
				"energy": -0.29253,
				"method": "rhf"
			},
			{
				"type": "occ",
				"energy": -0.28685,
				"method": "rhf"
			},
			{
				"type": "occ",
				"energy": -0.25601,
				"method": "rhf"
			},
			{
				"type": "occ",
				"energy": -0.21646,
				"method": "rhf"
			},
			{
				"type": "unocc",
				"energy": -0.0012,
				"method": "rhf"
			},
			{
				"type": "unocc",
				"energy": 0.03801,
				"method": "rhf"
			},
			{
				"type": "unocc",
				"energy": 0.06208,
				"method": "rhf"
			},
			{
				"type": "unocc",
				"energy": 0.07774,
				"method": "rhf"
			},
			{
				"type": "unocc",
				"energy": 0.09261,
				"method": "rhf"
			}
		],
		"cosmo_sigma_profile": { 
			"-0.025": 0.0,
			"-0.024": 0.0,
			"-0.023": 0.0,
			"-0.022": 0.0,
			"-0.021": 0.0,
			"-0.02": 0.0,
			"-0.019": 0.0,
			"-0.018": 0.0,
			"-0.017": 0.0,
			"-0.016": 0.0149369016892,
			"-0.015": 1.46085875861,
			"-0.014": 2.56512381139,
			"-0.013": 4.03825606586,
			"-0.012": 3.21426345084,
			"-0.011": 3.33576303577,
			"-0.01": 5.75643368239,
			"-0.009": 7.03777377616,
			"-0.008": 6.22338298653,
			"-0.007": 6.54076587657,
			"-0.006": 8.98815154581,
			"-0.005": 10.1882945768,
			"-0.004": 12.0454677352,
			"-0.003": 13.5879733132,
			"-0.002": 6.81685173051,
			"-0.001": 7.30546421345,
			"0.0": 7.43044146655,
			"0.001": 9.31697413433,
			"0.002": 8.99862530466,
			"0.003": 6.14419867257,
			"0.004": 5.49483679139,
			"0.005": 4.73618020945,
			"0.006": 5.58628928142,
			"0.007": 4.94690338789,
			"0.008": 3.97737885031,
			"0.009": 5.5098854693,
			"0.01": 8.41981766202,
			"0.011": 12.8196513526,
			"0.012": 8.32737774036,
			"0.013": 1.71678063812,
			"0.014": 1.13187161058,
			"0.015": 0.667856728212,
			"0.016": 0.0191539414127,
			"0.017": 0.0,
			"0.018": 0.0,
			"0.019": 0.0,
			"0.02": 0.0,
			"0.021": 0.0,
			"0.022": 0.0,
			"0.023": 0.0,
			"0.024": 0.0,
			"0.025": 0.0
		}
	}
}
