{
	 "smiles": "O=C1NN(C(=O)C1=C1SC=C(S1)C1=CC=CC=C1)C1=CC=CC=C1", 
	 "Tm": 562.15, 
	 "num_atms": 36, 
	 "gaussian": { 
		 "optdone": 1, 
		 "sigma_profile": "yes", 
		 "theory": "DFT", 
		 "functional": "B3LYP", 
		 "basiset": "6-31G**", 
		 "properties": { 
			 "R2extent": 12772.1016, 
			 "electric_dipole_moment_norm": 3.62293516641, 
			 "electric_quadrupole_moment_norm": 27.773526515, 
			 "total_energy": -1749.44863518, 
			 "HOMO_LUMO_gap": 0.13402, 
			 "cosmo_polarized_energy": -18.23, 
			 "cosmo_cavitation_energy": 43.99, 
			 "cosmo_dispersion_energy": -33.19, 
			 "cosmo_repulsion_energy": 2.37, 
			 "cosmo_total_nonelectrostatic_energy": 13.18, 
			 "SMD_solvation_energy": 8.09 
		},
		"coords": [
			{
				"x": 0.2845531111,
				"y": 3.682095984,
				"z": -0.9929903347,
				"element": "O" 
			},
			{
				"x": 0.7634658814,
				"y": 2.7669239986,
				"z": -0.3346279745,
				"element": "C" 
			},
			{
				"x": 1.8713662458,
				"y": 2.9026752034,
				"z": 0.5284078635,
				"element": "N" 
			},
			{
				"x": 2.2954690017,
				"y": 1.6050545917,
				"z": 0.9362755522,
				"element": "N" 
			},
			{
				"x": 1.3475805517,
				"y": 0.6496003654,
				"z": 0.5417360099,
				"element": "C" 
			},
			{
				"x": 1.3534074732,
				"y": -0.5431983072,
				"z": 0.8373516713,
				"element": "O" 
			},
			{
				"x": 0.3741113217,
				"y": 1.3711930499,
				"z": -0.2669039055,
				"element": "C" 
			},
			{
				"x": -0.7083647175,
				"y": 0.8112837409,
				"z": -0.8979265325,
				"element": "C" 
			},
			{
				"x": -1.8091875865,
				"y": 1.7543876944,
				"z": -1.8788817582,
				"element": "S" 
			},
			{
				"x": -2.8423564452,
				"y": 0.4046231997,
				"z": -2.2906106425,
				"element": "C" 
			},
			{
				"x": -2.541270053,
				"y": -0.8182211169,
				"z": -1.8052903678,
				"element": "C" 
			},
			{
				"x": -1.0987221073,
				"y": -0.8874130431,
				"z": -0.7705487947,
				"element": "S" 
			},
			{
				"x": -3.2949682281,
				"y": -2.0631167564,
				"z": -2.0486568946,
				"element": "C" 
			},
			{
				"x": -4.693343635,
				"y": -2.0257310388,
				"z": -2.1914107058,
				"element": "C" 
			},
			{
				"x": -5.4106930498,
				"y": -3.1919501075,
				"z": -2.4464716243,
				"element": "C" 
			},
			{
				"x": -4.7486077947,
				"y": -4.4177196265,
				"z": -2.5482439835,
				"element": "C" 
			},
			{
				"x": -3.3622842678,
				"y": -4.4681617392,
				"z": -2.3947631902,
				"element": "C" 
			},
			{
				"x": -2.6391077768,
				"y": -3.3022089465,
				"z": -2.1485838221,
				"element": "C" 
			},
			{
				"x": 3.2092588021,
				"y": 1.5009986462,
				"z": 2.0117420068,
				"element": "C" 
			},
			{
				"x": 3.777363813,
				"y": 0.2556819737,
				"z": 2.3291684469,
				"element": "C" 
			},
			{
				"x": 4.6976656697,
				"y": 0.1704053343,
				"z": 3.3711021673,
				"element": "C" 
			},
			{
				"x": 5.0759639927,
				"y": 1.3045582997,
				"z": 4.0934733111,
				"element": "C" 
			},
			{
				"x": 4.5117452969,
				"y": 2.5376855452,
				"z": 3.7680941027,
				"element": "C" 
			},
			{
				"x": 3.5804994603,
				"y": 2.6440130861,
				"z": 2.7353252845,
				"element": "C" 
			},
			{
				"x": 2.6304558592,
				"y": 3.4671517187,
				"z": 0.1551320312,
				"element": "H" 
			},
			{
				"x": -3.6690919361,
				"y": 0.6093307907,
				"z": -2.9599779826,
				"element": "H" 
			},
			{
				"x": -5.2177408101,
				"y": -1.0819560839,
				"z": -2.0772490619,
				"element": "H" 
			},
			{
				"x": -6.4906151751,
				"y": -3.1452764026,
				"z": -2.5514900317,
				"element": "H" 
			},
			{
				"x": -5.310262136,
				"y": -5.3271337814,
				"z": -2.7394830859,
				"element": "H" 
			},
			{
				"x": -2.8388864683,
				"y": -5.4164047124,
				"z": -2.4724316653,
				"element": "H" 
			},
			{
				"x": -1.558380313,
				"y": -3.3513799023,
				"z": -2.053396664,
				"element": "H" 
			},
			{
				"x": 3.4812342695,
				"y": -0.6230945586,
				"z": 1.7730643493,
				"element": "H" 
			},
			{
				"x": 5.1278367097,
				"y": -0.7971030785,
				"z": 3.6137993782,
				"element": "H" 
			},
			{
				"x": 5.8004350756,
				"y": 1.2271625747,
				"z": 4.8983764411,
				"element": "H" 
			},
			{
				"x": 4.7887414539,
				"y": 3.4292179663,
				"z": 4.3235069917,
				"element": "H" 
			},
			{
				"x": 3.1253285108,
				"y": 3.6007254382,
				"z": 2.5078834147,
				"element": "H" 
			}
		],
		 "valence_orbital": [ 
			{
				"type": "occ",
				"energy": -0.26271,
				"method": "rhf"
			},
			{
				"type": "occ",
				"energy": -0.25256,
				"method": "rhf"
			},
			{
				"type": "occ",
				"energy": -0.24779,
				"method": "rhf"
			},
			{
				"type": "occ",
				"energy": -0.22,
				"method": "rhf"
			},
			{
				"type": "occ",
				"energy": -0.20667,
				"method": "rhf"
			},
			{
				"type": "unocc",
				"energy": -0.07265,
				"method": "rhf"
			},
			{
				"type": "unocc",
				"energy": -0.05034,
				"method": "rhf"
			},
			{
				"type": "unocc",
				"energy": -0.02586,
				"method": "rhf"
			},
			{
				"type": "unocc",
				"energy": -0.011,
				"method": "rhf"
			},
			{
				"type": "unocc",
				"energy": -0.00412,
				"method": "rhf"
			}
		],
		"cosmo_sigma_profile": { 
			"-0.025": 0.0,
			"-0.024": 0.0,
			"-0.023": 0.0,
			"-0.022": 0.0,
			"-0.021": 0.0,
			"-0.02": 0.0,
			"-0.019": 0.0,
			"-0.018": 0.0,
			"-0.017": 0.0,
			"-0.016": 0.674534796128,
			"-0.015": 1.18495498557,
			"-0.014": 1.44019255157,
			"-0.013": 0.759867328618,
			"-0.012": 0.526859371599,
			"-0.011": 2.42688737098,
			"-0.01": 3.83995972097,
			"-0.009": 2.91829716348,
			"-0.008": 3.67183224722,
			"-0.007": 6.4167109942,
			"-0.006": 18.2618631568,
			"-0.005": 22.6487471211,
			"-0.004": 25.0890805242,
			"-0.003": 24.032388051,
			"-0.002": 26.6106166586,
			"-0.001": 32.1570426093,
			"0.0": 27.6525616207,
			"0.001": 25.8460124846,
			"0.002": 25.8955138181,
			"0.003": 21.9909376214,
			"0.004": 26.4455092473,
			"0.005": 19.2473003736,
			"0.006": 7.87989271982,
			"0.007": 4.07161960211,
			"0.008": 3.80194825262,
			"0.009": 3.62614773586,
			"0.01": 3.57373408988,
			"0.011": 5.32587691429,
			"0.012": 7.66873511969,
			"0.013": 2.855201852,
			"0.014": 0.187697180769,
			"0.015": 0.0,
			"0.016": 0.0,
			"0.017": 0.0,
			"0.018": 0.0,
			"0.019": 0.0,
			"0.02": 0.0,
			"0.021": 0.0,
			"0.022": 0.0,
			"0.023": 0.0,
			"0.024": 0.0,
			"0.025": 0.0
		}
	}
}
