{
	 "smiles": "OC(=O)[C@H]1CCCC[C@@H]1C(O)=O", 
	 "Tm": 493.65, 
	 "num_atms": 24, 
	 "gaussian": { 
		 "optdone": 1, 
		 "sigma_profile": "yes", 
		 "theory": "DFT", 
		 "functional": "B3LYP", 
		 "basiset": "6-31G**", 
		 "properties": { 
			 "R2extent": 2249.9546, 
			 "electric_dipole_moment_norm": 1.76722366722, 
			 "electric_quadrupole_moment_norm": 11.1048969604, 
			 "total_energy": -613.016087827, 
			 "HOMO_LUMO_gap": 0.26189, 
			 "cosmo_polarized_energy": -12.76, 
			 "cosmo_cavitation_energy": 25.59, 
			 "cosmo_dispersion_energy": -18.82, 
			 "cosmo_repulsion_energy": 1.51, 
			 "cosmo_total_nonelectrostatic_energy": 8.29, 
			 "SMD_solvation_energy": 5.9 
		},
		"coords": [
			{
				"x": 1.2440725832,
				"y": 2.4887501413,
				"z": -0.307666371,
				"element": "O" 
			},
			{
				"x": 2.0153771636,
				"y": 1.386502796,
				"z": -0.4910488362,
				"element": "C" 
			},
			{
				"x": 3.1842287818,
				"y": 1.3660786306,
				"z": -0.1719260884,
				"element": "O" 
			},
			{
				"x": 1.2378369229,
				"y": 0.2622579145,
				"z": -1.1687228298,
				"element": "C" 
			},
			{
				"x": 2.0847511323,
				"y": -1.0241842248,
				"z": -1.3197734187,
				"element": "C" 
			},
			{
				"x": 1.8233271302,
				"y": -2.0582928563,
				"z": -0.1983269736,
				"element": "C" 
			},
			{
				"x": 1.4622554461,
				"y": -1.3669621004,
				"z": 1.1221514328,
				"element": "C" 
			},
			{
				"x": 0.1364187566,
				"y": -0.5782996982,
				"z": 0.9982103083,
				"element": "C" 
			},
			{
				"x": -0.0993384939,
				"y": -0.0064473121,
				"z": -0.4205217999,
				"element": "C" 
			},
			{
				"x": -1.0112450943,
				"y": -0.8995655802,
				"z": -1.2563098861,
				"element": "C" 
			},
			{
				"x": -1.1615958562,
				"y": -0.4206235236,
				"z": -2.517861021,
				"element": "O" 
			},
			{
				"x": -1.5855692882,
				"y": -1.8984508605,
				"z": -0.8810144571,
				"element": "O" 
			},
			{
				"x": 1.8227391195,
				"y": 3.1562410553,
				"z": 0.0974821178,
				"element": "H" 
			},
			{
				"x": 0.9891553967,
				"y": 0.6602838765,
				"z": -2.1591316035,
				"element": "H" 
			},
			{
				"x": 3.138566354,
				"y": -0.7340290539,
				"z": -1.3211596484,
				"element": "H" 
			},
			{
				"x": 1.8736829664,
				"y": -1.4744446635,
				"z": -2.2954460628,
				"element": "H" 
			},
			{
				"x": 1.0031137575,
				"y": -2.7273357755,
				"z": -0.4832878041,
				"element": "H" 
			},
			{
				"x": 2.7093233673,
				"y": -2.6896483488,
				"z": -0.0723535575,
				"element": "H" 
			},
			{
				"x": 2.2794750569,
				"y": -0.6927883389,
				"z": 1.4036101658,
				"element": "H" 
			},
			{
				"x": 1.3739965147,
				"y": -2.1016633003,
				"z": 1.929558855,
				"element": "H" 
			},
			{
				"x": -0.7080107368,
				"y": -1.2277619662,
				"z": 1.242887253,
				"element": "H" 
			},
			{
				"x": 0.1272671129,
				"y": 0.2465285193,
				"z": 1.7184868405,
				"element": "H" 
			},
			{
				"x": -0.6375599802,
				"y": 0.9457582012,
				"z": -0.3514260323,
				"element": "H" 
			},
			{
				"x": -1.7744681129,
				"y": -1.0288035314,
				"z": -2.9640105826,
				"element": "H" 
			}
		],
		 "valence_orbital": [ 
			{
				"type": "occ",
				"energy": -0.31346,
				"method": "rhf"
			},
			{
				"type": "occ",
				"energy": -0.30721,
				"method": "rhf"
			},
			{
				"type": "occ",
				"energy": -0.30316,
				"method": "rhf"
			},
			{
				"type": "occ",
				"energy": -0.29037,
				"method": "rhf"
			},
			{
				"type": "occ",
				"energy": -0.26985,
				"method": "rhf"
			},
			{
				"type": "unocc",
				"energy": -0.00796,
				"method": "rhf"
			},
			{
				"type": "unocc",
				"energy": 0.01429,
				"method": "rhf"
			},
			{
				"type": "unocc",
				"energy": 0.06778,
				"method": "rhf"
			},
			{
				"type": "unocc",
				"energy": 0.07258,
				"method": "rhf"
			},
			{
				"type": "unocc",
				"energy": 0.09663,
				"method": "rhf"
			}
		],
		"cosmo_sigma_profile": { 
			"-0.025": 0.0,
			"-0.024": 0.0,
			"-0.023": 0.0,
			"-0.022": 0.0,
			"-0.021": 0.0,
			"-0.02": 0.0,
			"-0.019": 0.0,
			"-0.018": 1.50218375305,
			"-0.017": 1.84707646587,
			"-0.016": 1.5243831604,
			"-0.015": 1.79558890319,
			"-0.014": 1.62435454759,
			"-0.013": 1.13871151607,
			"-0.012": 0.910080008481,
			"-0.011": 1.78980743667,
			"-0.01": 1.48799319863,
			"-0.009": 1.09728566924,
			"-0.008": 1.1306792678,
			"-0.007": 3.16717634217,
			"-0.006": 4.61629312229,
			"-0.005": 4.29550787243,
			"-0.004": 6.45404739086,
			"-0.003": 17.8003568697,
			"-0.002": 21.7306292707,
			"-0.001": 24.3468424007,
			"0.0": 24.9589566617,
			"0.001": 12.9536631591,
			"0.002": 7.93284394245,
			"0.003": 6.87010462212,
			"0.004": 4.98818422879,
			"0.005": 5.13067980365,
			"0.006": 6.39707214071,
			"0.007": 5.84496108903,
			"0.008": 4.63707276058,
			"0.009": 3.65071999313,
			"0.01": 4.03545863241,
			"0.011": 7.04146250266,
			"0.012": 6.15623493302,
			"0.013": 0.0346127508325,
			"0.014": 0.0,
			"0.015": 0.0,
			"0.016": 0.0,
			"0.017": 0.0,
			"0.018": 0.0,
			"0.019": 0.0,
			"0.02": 0.0,
			"0.021": 0.0,
			"0.022": 0.0,
			"0.023": 0.0,
			"0.024": 0.0,
			"0.025": 0.0
		}
	}
}
