{
	 "smiles": "CC(=O)C1=CC=CC=C1", 
	 "Tm": 292.95, 
	 "num_atms": 17, 
	 "gaussian": { 
		 "optdone": 1, 
		 "sigma_profile": "yes", 
		 "theory": "DFT", 
		 "functional": "B3LYP", 
		 "basiset": "6-31G**", 
		 "properties": { 
			 "R2extent": 1697.837, 
			 "electric_dipole_moment_norm": 2.9762814887, 
			 "electric_quadrupole_moment_norm": 11.0329424992, 
			 "total_energy": -384.900322237, 
			 "HOMO_LUMO_gap": 0.19257, 
			 "cosmo_polarized_energy": -7.73, 
			 "cosmo_cavitation_energy": 20.82, 
			 "cosmo_dispersion_energy": -15.36, 
			 "cosmo_repulsion_energy": 1.25, 
			 "cosmo_total_nonelectrostatic_energy": 6.7, 
			 "SMD_solvation_energy": 4.36 
		},
		"coords": [
			{
				"x": -2.3194249854,
				"y": 0.6995480661,
				"z": -1.5279815937,
				"element": "C" 
			},
			{
				"x": -0.8879330219,
				"y": 1.1692202429,
				"z": -1.7289459941,
				"element": "C" 
			},
			{
				"x": -0.657842792,
				"y": 2.2975351077,
				"z": -2.1377455184,
				"element": "O" 
			},
			{
				"x": 0.2356415798,
				"y": 0.2252394009,
				"z": -1.4172699762,
				"element": "C" 
			},
			{
				"x": 1.5510425733,
				"y": 0.6771613931,
				"z": -1.6094714795,
				"element": "C" 
			},
			{
				"x": 2.6309303947,
				"y": -0.1565191606,
				"z": -1.3363857797,
				"element": "C" 
			},
			{
				"x": 2.4101902316,
				"y": -1.4551941735,
				"z": -0.8667125425,
				"element": "C" 
			},
			{
				"x": 1.106386692,
				"y": -1.914916711,
				"z": -0.6719262228,
				"element": "C" 
			},
			{
				"x": 0.0235269311,
				"y": -1.079134149,
				"z": -0.9457355198,
				"element": "C" 
			},
			{
				"x": -2.4978545145,
				"y": 0.4158812125,
				"z": -0.484861193,
				"element": "H" 
			},
			{
				"x": -2.9937739081,
				"y": 1.5109767662,
				"z": -1.8027361574,
				"element": "H" 
			},
			{
				"x": -2.5361271142,
				"y": -0.1785372311,
				"z": -2.1463801111,
				"element": "H" 
			},
			{
				"x": 1.6947696881,
				"y": 1.6886172865,
				"z": -1.9745702979,
				"element": "H" 
			},
			{
				"x": 3.6451417562,
				"y": 0.2015343214,
				"z": -1.4880343469,
				"element": "H" 
			},
			{
				"x": 3.2527660976,
				"y": -2.106889144,
				"z": -0.6531834255,
				"element": "H" 
			},
			{
				"x": 0.933066015,
				"y": -2.9231682426,
				"z": -0.307221704,
				"element": "H" 
			},
			{
				"x": -0.9851056232,
				"y": -1.4483549854,
				"z": -0.7902381375,
				"element": "H" 
			}
		],
		 "valence_orbital": [ 
			{
				"type": "occ",
				"energy": -0.35054,
				"method": "rhf"
			},
			{
				"type": "occ",
				"energy": -0.34785,
				"method": "rhf"
			},
			{
				"type": "occ",
				"energy": -0.26129,
				"method": "rhf"
			},
			{
				"type": "occ",
				"energy": -0.25766,
				"method": "rhf"
			},
			{
				"type": "occ",
				"energy": -0.2469,
				"method": "rhf"
			},
			{
				"type": "unocc",
				"energy": -0.05433,
				"method": "rhf"
			},
			{
				"type": "unocc",
				"energy": -0.00936,
				"method": "rhf"
			},
			{
				"type": "unocc",
				"energy": 0.04043,
				"method": "rhf"
			},
			{
				"type": "unocc",
				"energy": 0.08589,
				"method": "rhf"
			},
			{
				"type": "unocc",
				"energy": 0.11254,
				"method": "rhf"
			}
		],
		"cosmo_sigma_profile": { 
			"-0.025": 0.0,
			"-0.024": 0.0,
			"-0.023": 0.0,
			"-0.022": 0.0,
			"-0.021": 0.0,
			"-0.02": 0.0,
			"-0.019": 0.0,
			"-0.018": 0.0,
			"-0.017": 0.0,
			"-0.016": 0.0,
			"-0.015": 0.0,
			"-0.014": 0.0,
			"-0.013": 0.0,
			"-0.012": 0.0,
			"-0.011": 0.0,
			"-0.01": 0.0,
			"-0.009": 0.0,
			"-0.008": 0.0,
			"-0.007": 1.51374411253,
			"-0.006": 14.2542707086,
			"-0.005": 16.7125308096,
			"-0.004": 16.282014187,
			"-0.003": 12.7604283068,
			"-0.002": 13.6020799771,
			"-0.001": 12.0340102052,
			"0.0": 11.3907762052,
			"0.001": 8.94054785369,
			"0.002": 10.5871838381,
			"0.003": 11.584747678,
			"0.004": 13.6897532779,
			"0.005": 5.02598541506,
			"0.006": 2.20498524601,
			"0.007": 1.11306375119,
			"0.008": 1.78850422894,
			"0.009": 1.5527734709,
			"0.01": 2.22278676218,
			"0.011": 2.81236952197,
			"0.012": 4.221108541,
			"0.013": 1.63093808478,
			"0.014": 0.227853293265,
			"0.015": 0.0,
			"0.016": 0.0,
			"0.017": 0.0,
			"0.018": 0.0,
			"0.019": 0.0,
			"0.02": 0.0,
			"0.021": 0.0,
			"0.022": 0.0,
			"0.023": 0.0,
			"0.024": 0.0,
			"0.025": 0.0
		}
	}
}
