{
	 "smiles": "ClC(Cl)(Br)CBr", 
	 "Tm": 247.15, 
	 "num_atms": 8, 
	 "gaussian": { 
		 "optdone": 1, 
		 "sigma_profile": "yes", 
		 "theory": "DFT", 
		 "functional": "B3LYP", 
		 "basiset": "6-31G**", 
		 "properties": { 
			 "R2extent": 2390.0253, 
			 "electric_dipole_moment_norm": 1.33952974584, 
			 "electric_quadrupole_moment_norm": 2.95291705607, 
			 "total_energy": -6140.59226363, 
			 "HOMO_LUMO_gap": 0.2238, 
			 "cosmo_polarized_energy": -4.77, 
			 "cosmo_cavitation_energy": 19.65, 
			 "cosmo_dispersion_energy": -15.45, 
			 "cosmo_repulsion_energy": 1.31, 
			 "cosmo_total_nonelectrostatic_energy": 5.5, 
			 "SMD_solvation_energy": 0.48 
		},
		"coords": [
			{
				"x": 2.0207324989,
				"y": 1.7435088609,
				"z": 0.3877354587,
				"element": "Cl" 
			},
			{
				"x": 0.8749454766,
				"y": 0.9058294272,
				"z": -0.7343560412,
				"element": "C" 
			},
			{
				"x": 1.6128557856,
				"y": 0.8000254421,
				"z": -2.3594359896,
				"element": "Cl" 
			},
			{
				"x": -0.7961536816,
				"y": 1.9469317176,
				"z": -0.8244484409,
				"element": "Br" 
			},
			{
				"x": 0.6290969573,
				"y": -0.4778677496,
				"z": -0.1306053733,
				"element": "C" 
			},
			{
				"x": -0.5880746423,
				"y": -1.6117863863,
				"z": -1.1602376304,
				"element": "Br" 
			},
			{
				"x": 1.5766381964,
				"y": -1.0116387836,
				"z": -0.0696088549,
				"element": "H" 
			},
			{
				"x": 0.191159409,
				"y": -0.3619025282,
				"z": 0.8588568715,
				"element": "H" 
			}
		],
		 "valence_orbital": [ 
			{
				"type": "occ",
				"energy": -0.32786,
				"method": "rhf"
			},
			{
				"type": "occ",
				"energy": -0.30761,
				"method": "rhf"
			},
			{
				"type": "occ",
				"energy": -0.30036,
				"method": "rhf"
			},
			{
				"type": "occ",
				"energy": -0.29394,
				"method": "rhf"
			},
			{
				"type": "occ",
				"energy": -0.28781,
				"method": "rhf"
			},
			{
				"type": "unocc",
				"energy": -0.06401,
				"method": "rhf"
			},
			{
				"type": "unocc",
				"energy": -0.04117,
				"method": "rhf"
			},
			{
				"type": "unocc",
				"energy": -0.01201,
				"method": "rhf"
			},
			{
				"type": "unocc",
				"energy": 0.0162,
				"method": "rhf"
			},
			{
				"type": "unocc",
				"energy": 0.10197,
				"method": "rhf"
			}
		],
		"cosmo_sigma_profile": { 
			"-0.025": 0.0,
			"-0.024": 0.0,
			"-0.023": 0.0,
			"-0.022": 0.0,
			"-0.021": 0.0,
			"-0.02": 0.0,
			"-0.019": 0.0,
			"-0.018": 0.0,
			"-0.017": 0.0,
			"-0.016": 0.0,
			"-0.015": 0.0,
			"-0.014": 0.0,
			"-0.013": 0.0,
			"-0.012": 0.0,
			"-0.011": 0.0906247494395,
			"-0.01": 2.6031250706,
			"-0.009": 4.45030163805,
			"-0.008": 3.44292030514,
			"-0.007": 4.47469895928,
			"-0.006": 4.4446671472,
			"-0.005": 5.40404616547,
			"-0.004": 7.35280305596,
			"-0.003": 8.76084527903,
			"-0.002": 8.8138453559,
			"-0.001": 10.6769852808,
			"0.0": 11.6307538891,
			"0.001": 14.9162217918,
			"0.002": 25.7952906588,
			"0.003": 31.6579942791,
			"0.004": 13.45262163,
			"0.005": 8.94419640536,
			"0.006": 0.443111301946,
			"0.007": 0.0,
			"0.008": 0.0,
			"0.009": 0.0,
			"0.01": 0.0,
			"0.011": 0.0,
			"0.012": 0.0,
			"0.013": 0.0,
			"0.014": 0.0,
			"0.015": 0.0,
			"0.016": 0.0,
			"0.017": 0.0,
			"0.018": 0.0,
			"0.019": 0.0,
			"0.02": 0.0,
			"0.021": 0.0,
			"0.022": 0.0,
			"0.023": 0.0,
			"0.024": 0.0,
			"0.025": 0.0
		}
	}
}
