{
	 "smiles": "NCC1=CC=C(CN2CCOCC2)C=C1", 
	 "Tm": 327.65, 
	 "num_atms": 33, 
	 "gaussian": { 
		 "optdone": 1, 
		 "sigma_profile": "yes", 
		 "theory": "DFT", 
		 "functional": "B3LYP", 
		 "basiset": "6-31G**", 
		 "properties": { 
			 "R2extent": 4958.1235, 
			 "electric_dipole_moment_norm": 1.64923449515, 
			 "electric_quadrupole_moment_norm": 13.6501212603, 
			 "total_energy": -652.816500191, 
			 "HOMO_LUMO_gap": 0.20801, 
			 "cosmo_polarized_energy": -10.52, 
			 "cosmo_cavitation_energy": 34.04, 
			 "cosmo_dispersion_energy": -24.77, 
			 "cosmo_repulsion_energy": 1.98, 
			 "cosmo_total_nonelectrostatic_energy": 11.25, 
			 "SMD_solvation_energy": 3.02 
		},
		"coords": [
			{
				"x": 0.4384477819,
				"y": -3.5687757711,
				"z": 4.1453219375,
				"element": "N" 
			},
			{
				"x": 0.1467662367,
				"y": -3.9915186044,
				"z": 2.7718301521,
				"element": "C" 
			},
			{
				"x": 0.304762559,
				"y": -2.8512134103,
				"z": 1.7830796459,
				"element": "C" 
			},
			{
				"x": 1.2812416641,
				"y": -1.8656462857,
				"z": 1.9666651336,
				"element": "C" 
			},
			{
				"x": 1.4360999387,
				"y": -0.8379919739,
				"z": 1.0351565279,
				"element": "C" 
			},
			{
				"x": 0.6317957155,
				"y": -0.771042132,
				"z": -0.107413404,
				"element": "C" 
			},
			{
				"x": 0.8412018947,
				"y": 0.3150648456,
				"z": -1.1485392859,
				"element": "C" 
			},
			{
				"x": -0.4119237373,
				"y": 0.887005298,
				"z": -1.6339521949,
				"element": "N" 
			},
			{
				"x": -0.2988853491,
				"y": 1.6475145653,
				"z": -2.8936320486,
				"element": "C" 
			},
			{
				"x": -0.3867467633,
				"y": 3.1579118509,
				"z": -2.6771041275,
				"element": "C" 
			},
			{
				"x": -1.6227701706,
				"y": 3.5352066183,
				"z": -2.0739512467,
				"element": "O" 
			},
			{
				"x": -2.1809105052,
				"y": 2.5375165428,
				"z": -1.2178279327,
				"element": "C" 
			},
			{
				"x": -1.1182948184,
				"y": 1.6440484392,
				"z": -0.5917446279,
				"element": "C" 
			},
			{
				"x": -0.3492048133,
				"y": -1.7545926254,
				"z": -0.2881512867,
				"element": "C" 
			},
			{
				"x": -0.5124911624,
				"y": -2.7743488154,
				"z": 0.64752934,
				"element": "C" 
			},
			{
				"x": 0.395390607,
				"y": -4.3683519875,
				"z": 4.771466995,
				"element": "H" 
			},
			{
				"x": -0.269310281,
				"y": -2.9091828516,
				"z": 4.4601238861,
				"element": "H" 
			},
			{
				"x": -0.8550617658,
				"y": -4.4355945478,
				"z": 2.6366303216,
				"element": "H" 
			},
			{
				"x": 0.8643597676,
				"y": -4.7855562787,
				"z": 2.5209423422,
				"element": "H" 
			},
			{
				"x": 1.9034985329,
				"y": -1.9060697612,
				"z": 2.8549453625,
				"element": "H" 
			},
			{
				"x": 2.194266701,
				"y": -0.0752833505,
				"z": 1.1998414735,
				"element": "H" 
			},
			{
				"x": 1.3590372765,
				"y": -0.1217158642,
				"z": -2.0124254111,
				"element": "H" 
			},
			{
				"x": 1.522203369,
				"y": 1.0825591836,
				"z": -0.7290719699,
				"element": "H" 
			},
			{
				"x": 0.6472958594,
				"y": 1.4026412241,
				"z": -3.3877733344,
				"element": "H" 
			},
			{
				"x": -1.1029038346,
				"y": 1.3464792252,
				"z": -3.5797405248,
				"element": "H" 
			},
			{
				"x": 0.4587463911,
				"y": 3.4972794591,
				"z": -2.0568825347,
				"element": "H" 
			},
			{
				"x": -0.3265596732,
				"y": 3.6882647223,
				"z": -3.6342492709,
				"element": "H" 
			},
			{
				"x": -2.7368395831,
				"y": 3.0663016858,
				"z": -0.436548762,
				"element": "H" 
			},
			{
				"x": -2.8975127103,
				"y": 1.9152543047,
				"z": -1.7766145556,
				"element": "H" 
			},
			{
				"x": -0.4262868422,
				"y": 2.2772527164,
				"z": -0.0038476316,
				"element": "H" 
			},
			{
				"x": -1.5856301702,
				"y": 0.9483668026,
				"z": 0.1144739088,
				"element": "H" 
			},
			{
				"x": -0.9951987693,
				"y": -1.6963529331,
				"z": -1.1593967296,
				"element": "H" 
			},
			{
				"x": -1.2876833456,
				"y": -3.5226302916,
				"z": 0.4951598529,
				"element": "H" 
			}
		],
		 "valence_orbital": [ 
			{
				"type": "occ",
				"energy": -0.2425,
				"method": "rhf"
			},
			{
				"type": "occ",
				"energy": -0.242,
				"method": "rhf"
			},
			{
				"type": "occ",
				"energy": -0.24105,
				"method": "rhf"
			},
			{
				"type": "occ",
				"energy": -0.22669,
				"method": "rhf"
			},
			{
				"type": "occ",
				"energy": -0.20625,
				"method": "rhf"
			},
			{
				"type": "unocc",
				"energy": 0.00176,
				"method": "rhf"
			},
			{
				"type": "unocc",
				"energy": 0.00612,
				"method": "rhf"
			},
			{
				"type": "unocc",
				"energy": 0.08522,
				"method": "rhf"
			},
			{
				"type": "unocc",
				"energy": 0.08806,
				"method": "rhf"
			},
			{
				"type": "unocc",
				"energy": 0.11163,
				"method": "rhf"
			}
		],
		"cosmo_sigma_profile": { 
			"-0.025": 0.0,
			"-0.024": 0.0,
			"-0.023": 0.0,
			"-0.022": 0.0,
			"-0.021": 0.0,
			"-0.02": 0.0,
			"-0.019": 0.0,
			"-0.018": 0.0,
			"-0.017": 0.0,
			"-0.016": 0.0,
			"-0.015": 0.0,
			"-0.014": 0.0,
			"-0.013": 0.0,
			"-0.012": 0.0,
			"-0.011": 0.0,
			"-0.01": 1.17793275895,
			"-0.009": 2.78414054348,
			"-0.008": 2.93485373233,
			"-0.007": 2.22019001336,
			"-0.006": 2.86654952569,
			"-0.005": 12.9541393273,
			"-0.004": 23.6978548726,
			"-0.003": 41.2976771036,
			"-0.002": 39.3944161966,
			"-0.001": 26.4273531683,
			"0.0": 16.0668378488,
			"0.001": 12.6171296855,
			"0.002": 12.3401334912,
			"0.003": 11.8704479808,
			"0.004": 10.4324387655,
			"0.005": 10.6604110081,
			"0.006": 10.9980541573,
			"0.007": 5.40971581032,
			"0.008": 2.55706218537,
			"0.009": 3.86489288547,
			"0.01": 2.55539675432,
			"0.011": 1.96367382043,
			"0.012": 1.68100003591,
			"0.013": 2.67658079278,
			"0.014": 2.03333414316,
			"0.015": 0.559074767003,
			"0.016": 0.660574342705,
			"0.017": 0.358189005095,
			"0.018": 0.0,
			"0.019": 0.0,
			"0.02": 0.0,
			"0.021": 0.0,
			"0.022": 0.0,
			"0.023": 0.0,
			"0.024": 0.0,
			"0.025": 0.0
		}
	}
}
