{
	 "smiles": "ClC1=CC(=O)C(Cl)=CC1=O", 
	 "Tm": 434.15, 
	 "num_atms": 12, 
	 "gaussian": { 
		 "optdone": 1, 
		 "sigma_profile": "yes", 
		 "theory": "DFT", 
		 "functional": "B3LYP", 
		 "basiset": "6-31G**", 
		 "properties": { 
			 "R2extent": 2297.0264, 
			 "electric_dipole_moment_norm": 0.00130384048104, 
			 "electric_quadrupole_moment_norm": 11.8557585194, 
			 "total_energy": -1300.62603821, 
			 "HOMO_LUMO_gap": 0.14394, 
			 "cosmo_polarized_energy": -8.95, 
			 "cosmo_cavitation_energy": 21.38, 
			 "cosmo_dispersion_energy": -15.97, 
			 "cosmo_repulsion_energy": 1.3, 
			 "cosmo_total_nonelectrostatic_energy": 6.71, 
			 "SMD_solvation_energy": 4.61 
		},
		"coords": [
			{
				"x": -2.7025038307,
				"y": -0.2112388114,
				"z": 2.0461067869,
				"element": "Cl" 
			},
			{
				"x": -1.5602691655,
				"y": 0.1187730413,
				"z": 0.7891165261,
				"element": "C" 
			},
			{
				"x": -0.6045446239,
				"y": 1.0544548563,
				"z": 0.9180613349,
				"element": "C" 
			},
			{
				"x": 0.3712481948,
				"y": 1.3336530776,
				"z": -0.1609938653,
				"element": "C" 
			},
			{
				"x": 1.2329550563,
				"y": 2.1845459061,
				"z": -0.0292273986,
				"element": "O" 
			},
			{
				"x": 0.2384569273,
				"y": 0.5121960206,
				"z": -1.4147213593,
				"element": "C" 
			},
			{
				"x": 1.3811148437,
				"y": 0.8417385767,
				"z": -2.6714494214,
				"element": "Cl" 
			},
			{
				"x": -0.7172805194,
				"y": -0.4234720346,
				"z": -1.5436742002,
				"element": "C" 
			},
			{
				"x": -1.6935243815,
				"y": -0.7021705253,
				"z": -0.4648988044,
				"element": "C" 
			},
			{
				"x": -2.5545973936,
				"y": -1.5537661427,
				"z": -0.5962724153,
				"element": "O" 
			},
			{
				"x": -0.4948739232,
				"y": 1.6544072967,
				"z": 1.814711227,
				"element": "H" 
			},
			{
				"x": -0.8266811843,
				"y": -1.0237212612,
				"z": -2.4401584104,
				"element": "H" 
			}
		],
		 "valence_orbital": [ 
			{
				"type": "occ",
				"energy": -0.34082,
				"method": "rhf"
			},
			{
				"type": "occ",
				"energy": -0.30713,
				"method": "rhf"
			},
			{
				"type": "occ",
				"energy": -0.30015,
				"method": "rhf"
			},
			{
				"type": "occ",
				"energy": -0.29397,
				"method": "rhf"
			},
			{
				"type": "occ",
				"energy": -0.29119,
				"method": "rhf"
			},
			{
				"type": "unocc",
				"energy": -0.14725,
				"method": "rhf"
			},
			{
				"type": "unocc",
				"energy": -0.04564,
				"method": "rhf"
			},
			{
				"type": "unocc",
				"energy": -0.00793,
				"method": "rhf"
			},
			{
				"type": "unocc",
				"energy": 0.00438,
				"method": "rhf"
			},
			{
				"type": "unocc",
				"energy": 0.01311,
				"method": "rhf"
			}
		],
		"cosmo_sigma_profile": { 
			"-0.025": 0.0,
			"-0.024": 0.0,
			"-0.023": 0.0,
			"-0.022": 0.0,
			"-0.021": 0.0,
			"-0.02": 0.0,
			"-0.019": 0.0,
			"-0.018": 0.0,
			"-0.017": 0.0,
			"-0.016": 0.0,
			"-0.015": 0.0,
			"-0.014": 0.0,
			"-0.013": 0.0,
			"-0.012": 0.0,
			"-0.011": 0.0931182531291,
			"-0.01": 2.70623421359,
			"-0.009": 4.06962085429,
			"-0.008": 5.04083510002,
			"-0.007": 6.57900690694,
			"-0.006": 7.92712370132,
			"-0.005": 8.77914557013,
			"-0.004": 13.3735210119,
			"-0.003": 13.0461898208,
			"-0.002": 16.0080603838,
			"-0.001": 10.7327568948,
			"0.0": 8.58164947797,
			"0.001": 12.1894263043,
			"0.002": 16.5777983089,
			"0.003": 13.5184741702,
			"0.004": 4.13415796177,
			"0.005": 4.43562079438,
			"0.006": 3.83034652649,
			"0.007": 4.51435371322,
			"0.008": 5.35480664982,
			"0.009": 8.39702437291,
			"0.01": 6.91967957938,
			"0.011": 1.04421980786,
			"0.012": 0.0,
			"0.013": 0.0,
			"0.014": 0.0,
			"0.015": 0.0,
			"0.016": 0.0,
			"0.017": 0.0,
			"0.018": 0.0,
			"0.019": 0.0,
			"0.02": 0.0,
			"0.021": 0.0,
			"0.022": 0.0,
			"0.023": 0.0,
			"0.024": 0.0,
			"0.025": 0.0
		}
	}
}
