{
	 "smiles": "CCN1CCN(CC1)C1=CC=C(N)C=C1", 
	 "Tm": 344.15, 
	 "num_atms": 34, 
	 "gaussian": { 
		 "optdone": 1, 
		 "sigma_profile": "yes", 
		 "theory": "DFT", 
		 "functional": "B3LYP", 
		 "basiset": "6-31G**", 
		 "properties": { 
			 "R2extent": 4948.1269, 
			 "electric_dipole_moment_norm": 0.896887361936, 
			 "electric_quadrupole_moment_norm": 13.1543509209, 
			 "total_energy": -632.962071795, 
			 "HOMO_LUMO_gap": 0.17276, 
			 "cosmo_polarized_energy": -10.47, 
			 "cosmo_cavitation_energy": 34.14, 
			 "cosmo_dispersion_energy": -25.12, 
			 "cosmo_repulsion_energy": 1.96, 
			 "cosmo_total_nonelectrostatic_energy": 10.98, 
			 "SMD_solvation_energy": 2.23 
		},
		"coords": [
			{
				"x": -4.1774191446,
				"y": -0.0848296075,
				"z": -2.1442374545,
				"element": "C" 
			},
			{
				"x": -3.6823419666,
				"y": 1.2934553376,
				"z": -1.6669348207,
				"element": "C" 
			},
			{
				"x": -2.3349928133,
				"y": 1.3522210445,
				"z": -1.1135425056,
				"element": "N" 
			},
			{
				"x": -1.2572355968,
				"y": 1.0871138516,
				"z": -2.0529787324,
				"element": "C" 
			},
			{
				"x": 0.094421688,
				"y": 1.3581053809,
				"z": -1.3924575543,
				"element": "C" 
			},
			{
				"x": 0.262835712,
				"y": 0.5383014608,
				"z": -0.1910581942,
				"element": "N" 
			},
			{
				"x": -0.914008565,
				"y": -0.1665731163,
				"z": 0.2870381966,
				"element": "C" 
			},
			{
				"x": -2.1588148929,
				"y": 0.7255680189,
				"z": 0.2045601681,
				"element": "C" 
			},
			{
				"x": 1.5450616144,
				"y": 0.1259603038,
				"z": 0.1877733558,
				"element": "C" 
			},
			{
				"x": 2.6788080465,
				"y": 0.8896152867,
				"z": -0.1603519479,
				"element": "C" 
			},
			{
				"x": 3.9602462404,
				"y": 0.5036274363,
				"z": 0.2213663531,
				"element": "C" 
			},
			{
				"x": 4.1784806511,
				"y": -0.6563928828,
				"z": 0.978041075,
				"element": "C" 
			},
			{
				"x": 5.4818412874,
				"y": -1.0752259434,
				"z": 1.3129241114,
				"element": "N" 
			},
			{
				"x": 3.0565367312,
				"y": -1.4181285277,
				"z": 1.3291074261,
				"element": "C" 
			},
			{
				"x": 1.7718079651,
				"y": -1.0442183123,
				"z": 0.9393840413,
				"element": "C" 
			},
			{
				"x": -5.2047714042,
				"y": -0.0116344776,
				"z": -2.5174918676,
				"element": "H" 
			},
			{
				"x": -3.557210861,
				"y": -0.4779487394,
				"z": -2.9560592565,
				"element": "H" 
			},
			{
				"x": -4.1728948593,
				"y": -0.820405192,
				"z": -1.3324308049,
				"element": "H" 
			},
			{
				"x": -4.3715566679,
				"y": 1.6816360978,
				"z": -0.9063056791,
				"element": "H" 
			},
			{
				"x": -3.7274176151,
				"y": 1.9998169846,
				"z": -2.5066620837,
				"element": "H" 
			},
			{
				"x": -1.3689473146,
				"y": 1.763020382,
				"z": -2.9100463547,
				"element": "H" 
			},
			{
				"x": -1.2561961102,
				"y": 0.0585800985,
				"z": -2.4615192039,
				"element": "H" 
			},
			{
				"x": 0.1633927349,
				"y": 2.4306678115,
				"z": -1.154234894,
				"element": "H" 
			},
			{
				"x": 0.8909364784,
				"y": 1.127500945,
				"z": -2.1118775318,
				"element": "H" 
			},
			{
				"x": -0.7643112169,
				"y": -0.4320689652,
				"z": 1.3382721756,
				"element": "H" 
			},
			{
				"x": -1.0900573843,
				"y": -1.1125679075,
				"z": -0.2566587352,
				"element": "H" 
			},
			{
				"x": -3.0273739522,
				"y": 0.1042728287,
				"z": 0.4634487861,
				"element": "H" 
			},
			{
				"x": -2.0831388156,
				"y": 1.5051199065,
				"z": 0.9771235283,
				"element": "H" 
			},
			{
				"x": 2.5595137227,
				"y": 1.8131758444,
				"z": -0.7162632711,
				"element": "H" 
			},
			{
				"x": 4.8075809141,
				"y": 1.1208193334,
				"z": -0.0696920504,
				"element": "H" 
			},
			{
				"x": 6.1445827811,
				"y": -0.3130664499,
				"z": 1.3828761174,
				"element": "H" 
			},
			{
				"x": 5.519821696,
				"y": -1.6453742618,
				"z": 2.1485837652,
				"element": "H" 
			},
			{
				"x": 3.1886709796,
				"y": -2.3328145,
				"z": 1.9031451364,
				"element": "H" 
			},
			{
				"x": 0.9448499375,
				"y": -1.6885294703,
				"z": 1.2150587063,
				"element": "H" 
			}
		],
		 "valence_orbital": [ 
			{
				"type": "occ",
				"energy": -0.30254,
				"method": "rhf"
			},
			{
				"type": "occ",
				"energy": -0.23468,
				"method": "rhf"
			},
			{
				"type": "occ",
				"energy": -0.23394,
				"method": "rhf"
			},
			{
				"type": "occ",
				"energy": -0.19661,
				"method": "rhf"
			},
			{
				"type": "occ",
				"energy": -0.15988,
				"method": "rhf"
			},
			{
				"type": "unocc",
				"energy": 0.01288,
				"method": "rhf"
			},
			{
				"type": "unocc",
				"energy": 0.04161,
				"method": "rhf"
			},
			{
				"type": "unocc",
				"energy": 0.07642,
				"method": "rhf"
			},
			{
				"type": "unocc",
				"energy": 0.09215,
				"method": "rhf"
			},
			{
				"type": "unocc",
				"energy": 0.10492,
				"method": "rhf"
			}
		],
		"cosmo_sigma_profile": { 
			"-0.025": 0.0,
			"-0.024": 0.0,
			"-0.023": 0.0,
			"-0.022": 0.0,
			"-0.021": 0.0,
			"-0.02": 0.0,
			"-0.019": 0.0,
			"-0.018": 0.0,
			"-0.017": 0.0,
			"-0.016": 0.0,
			"-0.015": 0.0,
			"-0.014": 0.0,
			"-0.013": 0.0,
			"-0.012": 0.343085555392,
			"-0.011": 2.4920178102,
			"-0.01": 2.86974614272,
			"-0.009": 2.4442354946,
			"-0.008": 3.40194375863,
			"-0.007": 3.01458814264,
			"-0.006": 3.13606736599,
			"-0.005": 7.62937967351,
			"-0.004": 16.3734538209,
			"-0.003": 31.9945540019,
			"-0.002": 44.040972719,
			"-0.001": 33.5052329506,
			"0.0": 23.8221506916,
			"0.001": 15.5010055035,
			"0.002": 11.5842054124,
			"0.003": 7.7433354474,
			"0.004": 8.09023487789,
			"0.005": 7.01761395573,
			"0.006": 9.556672575,
			"0.007": 10.9060735646,
			"0.008": 9.64234096703,
			"0.009": 2.42509600063,
			"0.01": 1.63241867872,
			"0.011": 1.6856655786,
			"0.012": 0.486096752852,
			"0.013": 1.58725547931,
			"0.014": 0.897061135704,
			"0.015": 1.08900699661,
			"0.016": 0.685548345312,
			"0.017": 0.181479586042,
			"0.018": 0.0,
			"0.019": 0.0,
			"0.02": 0.0,
			"0.021": 0.0,
			"0.022": 0.0,
			"0.023": 0.0,
			"0.024": 0.0,
			"0.025": 0.0
		}
	}
}
