{
	 "smiles": "NC1=CC(=CC(F)=C1)S(N)(=O)=O", 
	 "Tm": 427.15, 
	 "num_atms": 19, 
	 "gaussian": { 
		 "optdone": 1, 
		 "sigma_profile": "yes", 
		 "theory": "DFT", 
		 "functional": "B3LYP", 
		 "basiset": "6-31G**", 
		 "properties": { 
			 "R2extent": 2762.8381, 
			 "electric_dipole_moment_norm": 7.08109163618, 
			 "electric_quadrupole_moment_norm": 22.0963853143, 
			 "total_energy": -990.760907425, 
			 "HOMO_LUMO_gap": 0.18978, 
			 "cosmo_polarized_energy": -22.59, 
			 "cosmo_cavitation_energy": 25.45, 
			 "cosmo_dispersion_energy": -19.1, 
			 "cosmo_repulsion_energy": 1.47, 
			 "cosmo_total_nonelectrostatic_energy": 7.81, 
			 "SMD_solvation_energy": 4.55 
		},
		"coords": [
			{
				"x": -0.726155751,
				"y": -0.928566394,
				"z": 4.2997642974,
				"element": "N" 
			},
			{
				"x": -0.8212673334,
				"y": -0.7766606896,
				"z": 2.926970012,
				"element": "C" 
			},
			{
				"x": 0.2854472238,
				"y": -0.3302622366,
				"z": 2.1778979773,
				"element": "C" 
			},
			{
				"x": 0.1852776103,
				"y": -0.2495043128,
				"z": 0.7928469299,
				"element": "C" 
			},
			{
				"x": -0.9739611846,
				"y": -0.596813289,
				"z": 0.0962572215,
				"element": "C" 
			},
			{
				"x": -2.0496426139,
				"y": -1.0265007221,
				"z": 0.8644957759,
				"element": "C" 
			},
			{
				"x": -3.1925529588,
				"y": -1.373168939,
				"z": 0.2409908203,
				"element": "F" 
			},
			{
				"x": -2.0050091109,
				"y": -1.1182350506,
				"z": 2.2487119906,
				"element": "C" 
			},
			{
				"x": 1.599574653,
				"y": 0.3702734286,
				"z": -0.1385964587,
				"element": "S" 
			},
			{
				"x": 1.3320957168,
				"y": 2.0156067072,
				"z": -0.3657116126,
				"element": "N" 
			},
			{
				"x": 1.5442314261,
				"y": -0.2249089748,
				"z": -1.471652542,
				"element": "O" 
			},
			{
				"x": 2.7724221641,
				"y": 0.2777895135,
				"z": 0.7291723024,
				"element": "O" 
			},
			{
				"x": 0.0124250813,
				"y": -0.4220245132,
				"z": 4.7644554738,
				"element": "H" 
			},
			{
				"x": -1.5902882581,
				"y": -0.9547347348,
				"z": 4.8199268368,
				"element": "H" 
			},
			{
				"x": 1.2232622443,
				"y": -0.0832909332,
				"z": 2.6641162456,
				"element": "H" 
			},
			{
				"x": -1.02913498,
				"y": -0.5706350194,
				"z": -0.9846838268,
				"element": "H" 
			},
			{
				"x": -2.8799996885,
				"y": -1.4716203903,
				"z": 2.7843524117,
				"element": "H" 
			},
			{
				"x": 1.3255007403,
				"y": 2.5356603444,
				"z": 0.5060606986,
				"element": "H" 
			},
			{
				"x": 0.5207750192,
				"y": 2.2039962056,
				"z": -0.9461745536,
				"element": "H" 
			}
		],
		 "valence_orbital": [ 
			{
				"type": "occ",
				"energy": -0.30602,
				"method": "rhf"
			},
			{
				"type": "occ",
				"energy": -0.30386,
				"method": "rhf"
			},
			{
				"type": "occ",
				"energy": -0.30296,
				"method": "rhf"
			},
			{
				"type": "occ",
				"energy": -0.26434,
				"method": "rhf"
			},
			{
				"type": "occ",
				"energy": -0.22835,
				"method": "rhf"
			},
			{
				"type": "unocc",
				"energy": -0.03857,
				"method": "rhf"
			},
			{
				"type": "unocc",
				"energy": -0.00665,
				"method": "rhf"
			},
			{
				"type": "unocc",
				"energy": 0.04926,
				"method": "rhf"
			},
			{
				"type": "unocc",
				"energy": 0.06206,
				"method": "rhf"
			},
			{
				"type": "unocc",
				"energy": 0.07623,
				"method": "rhf"
			}
		],
		"cosmo_sigma_profile": { 
			"-0.025": 0.0,
			"-0.024": 0.0,
			"-0.023": 0.0,
			"-0.022": 0.0,
			"-0.021": 0.0,
			"-0.02": 0.0,
			"-0.019": 0.0,
			"-0.018": 0.0,
			"-0.017": 0.0,
			"-0.016": 0.152693808701,
			"-0.015": 2.11816612605,
			"-0.014": 3.0038487044,
			"-0.013": 5.40623675451,
			"-0.012": 6.02288044366,
			"-0.011": 6.37062073266,
			"-0.01": 5.70044828459,
			"-0.009": 4.8265762269,
			"-0.008": 5.50981878319,
			"-0.007": 6.52995559125,
			"-0.006": 6.15324088789,
			"-0.005": 6.79723192671,
			"-0.004": 4.85449424783,
			"-0.003": 5.65429164625,
			"-0.002": 7.3420881633,
			"-0.001": 7.02851133278,
			"0.0": 8.72537833012,
			"0.001": 12.4108028229,
			"0.002": 17.1129260287,
			"0.003": 16.701138111,
			"0.004": 13.5420524595,
			"0.005": 5.89509521584,
			"0.006": 4.66295171526,
			"0.007": 4.35214014341,
			"0.008": 4.73854476859,
			"0.009": 5.59196061325,
			"0.01": 8.31853677031,
			"0.011": 11.8422164471,
			"0.012": 4.94944214625,
			"0.013": 0.25434175213,
			"0.014": 0.0,
			"0.015": 0.0,
			"0.016": 0.0,
			"0.017": 0.0,
			"0.018": 0.0,
			"0.019": 0.0,
			"0.02": 0.0,
			"0.021": 0.0,
			"0.022": 0.0,
			"0.023": 0.0,
			"0.024": 0.0,
			"0.025": 0.0
		}
	}
}
