{
	 "smiles": "CC1=CC2=C(C=C1)N=CC(C(O)=O)=C2O", 
	 "Tm": 543.15, 
	 "num_atms": 24, 
	 "gaussian": { 
		 "optdone": 1, 
		 "sigma_profile": "yes", 
		 "theory": "DFT", 
		 "functional": "B3LYP", 
		 "basiset": "6-31G**", 
		 "properties": { 
			 "R2extent": 3756.0312, 
			 "electric_dipole_moment_norm": 5.29470857744, 
			 "electric_quadrupole_moment_norm": 5.93149420888, 
			 "total_energy": -705.041694714, 
			 "HOMO_LUMO_gap": 0.16963, 
			 "cosmo_polarized_energy": -17.89, 
			 "cosmo_cavitation_energy": 28.38, 
			 "cosmo_dispersion_energy": -21.35, 
			 "cosmo_repulsion_energy": 1.64, 
			 "cosmo_total_nonelectrostatic_energy": 8.67, 
			 "SMD_solvation_energy": 4.82 
		},
		"coords": [
			{
				"x": -1.8999790309,
				"y": 3.7634491474,
				"z": 1.9757399159,
				"element": "C" 
			},
			{
				"x": -1.4747317339,
				"y": 2.5039198612,
				"z": 1.2619372961,
				"element": "C" 
			},
			{
				"x": -0.1911754259,
				"y": 2.0055836062,
				"z": 1.3707087838,
				"element": "C" 
			},
			{
				"x": 0.2134084006,
				"y": 0.8204572146,
				"z": 0.7006157714,
				"element": "C" 
			},
			{
				"x": -0.7341988321,
				"y": 0.1245650905,
				"z": -0.1084020053,
				"element": "C" 
			},
			{
				"x": -2.0488635724,
				"y": 0.6480905311,
				"z": -0.210805049,
				"element": "C" 
			},
			{
				"x": -2.405721609,
				"y": 1.7983360639,
				"z": 0.452015235,
				"element": "C" 
			},
			{
				"x": -0.4400817263,
				"y": -1.0223055496,
				"z": -0.790907379,
				"element": "N" 
			},
			{
				"x": 0.7830332545,
				"y": -1.4843195389,
				"z": -0.6785021381,
				"element": "C" 
			},
			{
				"x": 1.82771992,
				"y": -0.895353892,
				"z": 0.0911945801,
				"element": "C" 
			},
			{
				"x": 3.1302706468,
				"y": -1.6073629708,
				"z": 0.0600712322,
				"element": "C" 
			},
			{
				"x": 4.1130152224,
				"y": -1.0392031956,
				"z": 0.793194805,
				"element": "O" 
			},
			{
				"x": 3.3182866588,
				"y": -2.6303858106,
				"z": -0.5743861243,
				"element": "O" 
			},
			{
				"x": 1.5370639765,
				"y": 0.2752370494,
				"z": 0.791149718,
				"element": "C" 
			},
			{
				"x": 2.4867841583,
				"y": 0.8745020682,
				"z": 1.5345040714,
				"element": "O" 
			},
			{
				"x": -1.0807555977,
				"y": 4.1941553931,
				"z": 2.557879578,
				"element": "H" 
			},
			{
				"x": -2.2429964622,
				"y": 4.5245737132,
				"z": 1.265408057,
				"element": "H" 
			},
			{
				"x": -2.7323330865,
				"y": 3.5680756141,
				"z": 2.6617173925,
				"element": "H" 
			},
			{
				"x": 0.5087075137,
				"y": 2.5592537103,
				"z": 1.9956560626,
				"element": "H" 
			},
			{
				"x": -2.7530551004,
				"y": 0.1034232604,
				"z": -0.8308969932,
				"element": "H" 
			},
			{
				"x": -3.4186411934,
				"y": 2.1823674845,
				"z": 0.3598544354,
				"element": "H" 
			},
			{
				"x": 1.0269245961,
				"y": -2.3962657202,
				"z": -1.2176500454,
				"element": "H" 
			},
			{
				"x": 4.8840782493,
				"y": -1.6178489258,
				"z": 0.6671274096,
				"element": "H" 
			},
			{
				"x": 2.1235407739,
				"y": 1.6672557955,
				"z": 1.9497753902,
				"element": "H" 
			}
		],
		 "valence_orbital": [ 
			{
				"type": "occ",
				"energy": -0.28609,
				"method": "rhf"
			},
			{
				"type": "occ",
				"energy": -0.27649,
				"method": "rhf"
			},
			{
				"type": "occ",
				"energy": -0.25655,
				"method": "rhf"
			},
			{
				"type": "occ",
				"energy": -0.25558,
				"method": "rhf"
			},
			{
				"type": "occ",
				"energy": -0.23208,
				"method": "rhf"
			},
			{
				"type": "unocc",
				"energy": -0.06245,
				"method": "rhf"
			},
			{
				"type": "unocc",
				"energy": -0.03582,
				"method": "rhf"
			},
			{
				"type": "unocc",
				"energy": 0.01504,
				"method": "rhf"
			},
			{
				"type": "unocc",
				"energy": 0.03057,
				"method": "rhf"
			},
			{
				"type": "unocc",
				"energy": 0.0439,
				"method": "rhf"
			}
		],
		"cosmo_sigma_profile": { 
			"-0.025": 0.0,
			"-0.024": 0.0,
			"-0.023": 0.0,
			"-0.022": 0.0,
			"-0.021": 0.0,
			"-0.02": 0.0405191041742,
			"-0.019": 0.669010486763,
			"-0.018": 1.51928845551,
			"-0.017": 1.48091514448,
			"-0.016": 1.85151339496,
			"-0.015": 2.25122867341,
			"-0.014": 1.20172514349,
			"-0.013": 1.91164595312,
			"-0.012": 1.62130654367,
			"-0.011": 2.02898106648,
			"-0.01": 1.35446048894,
			"-0.009": 1.40273476062,
			"-0.008": 2.42035399312,
			"-0.007": 3.25466486625,
			"-0.006": 6.73127788584,
			"-0.005": 10.4557311805,
			"-0.004": 14.537521004,
			"-0.003": 13.2717958204,
			"-0.002": 16.2344969337,
			"-0.001": 23.0325336014,
			"0.0": 22.70411495,
			"0.001": 13.7996793855,
			"0.002": 17.2454430824,
			"0.003": 15.5169041981,
			"0.004": 7.63271135482,
			"0.005": 5.19297529144,
			"0.006": 3.24782321764,
			"0.007": 4.536272235,
			"0.008": 4.48087758412,
			"0.009": 4.62048498779,
			"0.01": 4.14651337679,
			"0.011": 5.33051760491,
			"0.012": 6.76400229555,
			"0.013": 2.39773233875,
			"0.014": 0.665663427954,
			"0.015": 0.930323010191,
			"0.016": 0.590529172596,
			"0.017": 0.0647510666384,
			"0.018": 0.0,
			"0.019": 0.0,
			"0.02": 0.0,
			"0.021": 0.0,
			"0.022": 0.0,
			"0.023": 0.0,
			"0.024": 0.0,
			"0.025": 0.0
		}
	}
}
