{
	 "smiles": "CNCC1=CC=C(C=C1)N1CCN(CC1)C(=O)OC(C)(C)C", 
	 "Tm": 334.15, 
	 "num_atms": 49, 
	 "gaussian": { 
		 "optdone": 1, 
		 "sigma_profile": "yes", 
		 "theory": "DFT", 
		 "functional": "B3LYP", 
		 "basiset": "6-31G**", 
		 "properties": { 
			 "R2extent": 13440.4209, 
			 "electric_dipole_moment_norm": 2.2788442992, 
			 "electric_quadrupole_moment_norm": 21.756524059, 
			 "total_energy": -978.805456496, 
			 "HOMO_LUMO_gap": 0.18967, 
			 "cosmo_polarized_energy": -13.3, 
			 "cosmo_cavitation_energy": 48.58, 
			 "cosmo_dispersion_energy": -33.99, 
			 "cosmo_repulsion_energy": 2.6, 
			 "cosmo_total_nonelectrostatic_energy": 17.2, 
			 "SMD_solvation_energy": 4.86 
		},
		"coords": [
			{
				"x": -6.0583956539,
				"y": -0.3953837507,
				"z": -3.1415277199,
				"element": "C" 
			},
			{
				"x": -6.2144235082,
				"y": 1.0068598111,
				"z": -2.7677134748,
				"element": "N" 
			},
			{
				"x": -5.8457191701,
				"y": 1.3076044264,
				"z": -1.3756958597,
				"element": "C" 
			},
			{
				"x": -4.3926559642,
				"y": 1.0784432355,
				"z": -0.9947641423,
				"element": "C" 
			},
			{
				"x": -3.4078320594,
				"y": 2.0238670157,
				"z": -1.3123169484,
				"element": "C" 
			},
			{
				"x": -2.0655657205,
				"y": 1.8225168075,
				"z": -1.008891632,
				"element": "C" 
			},
			{
				"x": -1.6377639827,
				"y": 0.6380346866,
				"z": -0.3667301022,
				"element": "C" 
			},
			{
				"x": -2.6256807581,
				"y": -0.3174112912,
				"z": -0.0457943624,
				"element": "C" 
			},
			{
				"x": -3.9658740525,
				"y": -0.0889942835,
				"z": -0.3517390971,
				"element": "C" 
			},
			{
				"x": -0.2964702772,
				"y": 0.4384097502,
				"z": -0.0577455122,
				"element": "N" 
			},
			{
				"x": 0.1269782699,
				"y": -0.6519820941,
				"z": 0.8085228438,
				"element": "C" 
			},
			{
				"x": 1.4444410248,
				"y": -0.323009586,
				"z": 1.5128400614,
				"element": "C" 
			},
			{
				"x": 2.4812813904,
				"y": 0.0008023793,
				"z": 0.5311091572,
				"element": "N" 
			},
			{
				"x": 2.04991919,
				"y": 0.3973072847,
				"z": -0.8063351344,
				"element": "C" 
			},
			{
				"x": 0.750129014,
				"y": 1.1982168819,
				"z": -0.7385700114,
				"element": "C" 
			},
			{
				"x": 3.8127547798,
				"y": 0.0740503256,
				"z": 0.8449044287,
				"element": "C" 
			},
			{
				"x": 4.6847858585,
				"y": 0.3861227334,
				"z": 0.0448644009,
				"element": "O" 
			},
			{
				"x": 4.0077420395,
				"y": -0.2468548028,
				"z": 2.1481228618,
				"element": "O" 
			},
			{
				"x": 5.3615145207,
				"y": -0.2725088322,
				"z": 2.7241979058,
				"element": "C" 
			},
			{
				"x": 5.982122507,
				"y": 1.1275674458,
				"z": 2.6673859946,
				"element": "C" 
			},
			{
				"x": 5.0973094157,
				"y": -0.6902424682,
				"z": 4.1733103072,
				"element": "C" 
			},
			{
				"x": 6.2202001295,
				"y": -1.3184536275,
				"z": 2.0051328559,
				"element": "C" 
			},
			{
				"x": -5.0458005165,
				"y": -0.8077485387,
				"z": -2.9962481216,
				"element": "H" 
			},
			{
				"x": -6.7516621167,
				"y": -1.0047172359,
				"z": -2.5489960092,
				"element": "H" 
			},
			{
				"x": -6.3304614998,
				"y": -0.5189236493,
				"z": -4.1945856251,
				"element": "H" 
			},
			{
				"x": -5.646465945,
				"y": 1.5814995122,
				"z": -3.3864041802,
				"element": "H" 
			},
			{
				"x": -6.4944962129,
				"y": 0.70321603,
				"z": -0.729032679,
				"element": "H" 
			},
			{
				"x": -6.1093760565,
				"y": 2.3568244318,
				"z": -1.1937971177,
				"element": "H" 
			},
			{
				"x": -3.6980505012,
				"y": 2.9558410699,
				"z": -1.7948411967,
				"element": "H" 
			},
			{
				"x": -1.3513242414,
				"y": 2.6047910322,
				"z": -1.2400568268,
				"element": "H" 
			},
			{
				"x": -2.3505082882,
				"y": -1.254967813,
				"z": 0.423617522,
				"element": "H" 
			},
			{
				"x": -4.6981674558,
				"y": -0.8477399416,
				"z": -0.0838451193,
				"element": "H" 
			},
			{
				"x": 0.225472634,
				"y": -1.6060193754,
				"z": 0.2632313936,
				"element": "H" 
			},
			{
				"x": -0.6287793993,
				"y": -0.8046938053,
				"z": 1.5847319984,
				"element": "H" 
			},
			{
				"x": 1.7589979697,
				"y": -1.1827147216,
				"z": 2.1096018598,
				"element": "H" 
			},
			{
				"x": 1.2889606055,
				"y": 0.5163622103,
				"z": 2.2044212832,
				"element": "H" 
			},
			{
				"x": 2.8447281694,
				"y": 0.9974253593,
				"z": -1.2514102962,
				"element": "H" 
			},
			{
				"x": 1.9056576687,
				"y": -0.4853269669,
				"z": -1.4452222093,
				"element": "H" 
			},
			{
				"x": 0.4313438349,
				"y": 1.4184163581,
				"z": -1.7638683121,
				"element": "H" 
			},
			{
				"x": 0.9402655471,
				"y": 2.1632775804,
				"z": -0.2422227465,
				"element": "H" 
			},
			{
				"x": 6.9396774267,
				"y": 1.1268303807,
				"z": 3.1983511781,
				"element": "H" 
			},
			{
				"x": 5.3244343579,
				"y": 1.8541301162,
				"z": 3.1552597317,
				"element": "H" 
			},
			{
				"x": 6.1495282959,
				"y": 1.4376257702,
				"z": 1.6358679417,
				"element": "H" 
			},
			{
				"x": 4.4446596267,
				"y": 0.0329231793,
				"z": 4.6710699068,
				"element": "H" 
			},
			{
				"x": 6.0396362707,
				"y": -0.7444443602,
				"z": 4.7264444086,
				"element": "H" 
			},
			{
				"x": 4.6169272055,
				"y": -1.672426399,
				"z": 4.2115241002,
				"element": "H" 
			},
			{
				"x": 6.391860751,
				"y": -1.0350940364,
				"z": 0.9666265951,
				"element": "H" 
			},
			{
				"x": 7.186166857,
				"y": -1.411751278,
				"z": 2.5120862202,
				"element": "H" 
			},
			{
				"x": 5.7282780194,
				"y": -2.296156957,
				"z": 2.0306294796,
				"element": "H" 
			}
		],
		 "valence_orbital": [ 
			{
				"type": "occ",
				"energy": -0.26136,
				"method": "rhf"
			},
			{
				"type": "occ",
				"energy": -0.24412,
				"method": "rhf"
			},
			{
				"type": "occ",
				"energy": -0.23843,
				"method": "rhf"
			},
			{
				"type": "occ",
				"energy": -0.21282,
				"method": "rhf"
			},
			{
				"type": "occ",
				"energy": -0.18684,
				"method": "rhf"
			},
			{
				"type": "unocc",
				"energy": 0.00283,
				"method": "rhf"
			},
			{
				"type": "unocc",
				"energy": 0.01694,
				"method": "rhf"
			},
			{
				"type": "unocc",
				"energy": 0.05275,
				"method": "rhf"
			},
			{
				"type": "unocc",
				"energy": 0.07357,
				"method": "rhf"
			},
			{
				"type": "unocc",
				"energy": 0.08688,
				"method": "rhf"
			}
		],
		"cosmo_sigma_profile": { 
			"-0.025": 0.0,
			"-0.024": 0.0,
			"-0.023": 0.0,
			"-0.022": 0.0,
			"-0.021": 0.0,
			"-0.02": 0.0,
			"-0.019": 0.0,
			"-0.018": 0.0,
			"-0.017": 0.0,
			"-0.016": 0.0,
			"-0.015": 0.0,
			"-0.014": 0.0,
			"-0.013": 0.0,
			"-0.012": 0.0,
			"-0.011": 0.0,
			"-0.01": 0.000329847005033,
			"-0.009": 0.820256477769,
			"-0.008": 1.0472079415,
			"-0.007": 1.38367964199,
			"-0.006": 4.0516418077,
			"-0.005": 18.5085183649,
			"-0.004": 45.1988380411,
			"-0.003": 54.4843754806,
			"-0.002": 39.1651765209,
			"-0.001": 37.0963251031,
			"0.0": 44.0942596714,
			"0.001": 35.8391253488,
			"0.002": 16.5941044506,
			"0.003": 13.1787304723,
			"0.004": 12.4242971688,
			"0.005": 11.540824101,
			"0.006": 11.3145608509,
			"0.007": 10.1711647931,
			"0.008": 3.68763671145,
			"0.009": 2.38959759931,
			"0.01": 3.05252658319,
			"0.011": 1.48897399978,
			"0.012": 2.73248566959,
			"0.013": 3.67317497292,
			"0.014": 1.84417378213,
			"0.015": 0.333581565888,
			"0.016": 0.844301026885,
			"0.017": 0.687586976249,
			"0.018": 0.396329690262,
			"0.019": 0.309685091685,
			"0.02": 0.0,
			"0.021": 0.0,
			"0.022": 0.0,
			"0.023": 0.0,
			"0.024": 0.0,
			"0.025": 0.0
		}
	}
}
