{
	 "smiles": "OC1C2COC(O2)C(O)C1O", 
	 "Tm": 456.15, 
	 "num_atms": 21, 
	 "gaussian": { 
		 "optdone": 1, 
		 "sigma_profile": "yes", 
		 "theory": "DFT", 
		 "functional": "B3LYP", 
		 "basiset": "6-31G**", 
		 "properties": { 
			 "R2extent": 1756.0425, 
			 "electric_dipole_moment_norm": 3.59044813638, 
			 "electric_quadrupole_moment_norm": 12.9628409934, 
			 "total_energy": -610.733699489, 
			 "HOMO_LUMO_gap": 0.2986, 
			 "cosmo_polarized_energy": -18.12, 
			 "cosmo_cavitation_energy": 22.36, 
			 "cosmo_dispersion_energy": -17.43, 
			 "cosmo_repulsion_energy": 1.4, 
			 "cosmo_total_nonelectrostatic_energy": 6.32, 
			 "SMD_solvation_energy": 3.36 
		},
		"coords": [
			{
				"x": -0.3507362887,
				"y": -0.2340608614,
				"z": 1.9518377107,
				"element": "O" 
			},
			{
				"x": -0.1764162965,
				"y": 0.3781658698,
				"z": 0.6927488778,
				"element": "C" 
			},
			{
				"x": 0.6665347165,
				"y": -0.550534056,
				"z": -0.1980509604,
				"element": "C" 
			},
			{
				"x": 0.8337331427,
				"y": 0.0035719427,
				"z": -1.6209802795,
				"element": "C" 
			},
			{
				"x": -0.3659481819,
				"y": -0.4245418639,
				"z": -2.2817928912,
				"element": "O" 
			},
			{
				"x": -1.0294508823,
				"y": -1.326082538,
				"z": -1.3928943847,
				"element": "C" 
			},
			{
				"x": -0.0547935374,
				"y": -1.7594365233,
				"z": -0.4678388669,
				"element": "O" 
			},
			{
				"x": -2.1379929666,
				"y": -0.6198939959,
				"z": -0.5972136743,
				"element": "C" 
			},
			{
				"x": -3.2283940621,
				"y": -0.325582809,
				"z": -1.4482853541,
				"element": "O" 
			},
			{
				"x": -1.5477021525,
				"y": 0.6468791799,
				"z": 0.0237049066,
				"element": "C" 
			},
			{
				"x": -2.4942937809,
				"y": 1.1206253031,
				"z": 0.9959898238,
				"element": "O" 
			},
			{
				"x": -1.1993371979,
				"y": 0.097222866,
				"z": 2.2867569056,
				"element": "H" 
			},
			{
				"x": 0.3633039422,
				"y": 1.338490175,
				"z": 0.7995163388,
				"element": "H" 
			},
			{
				"x": 1.6006202749,
				"y": -0.8169651391,
				"z": 0.3001722878,
				"element": "H" 
			},
			{
				"x": 0.9070858215,
				"y": 1.0964092804,
				"z": -1.6628307652,
				"element": "H" 
			},
			{
				"x": 1.7086798357,
				"y": -0.4310046085,
				"z": -2.1184832762,
				"element": "H" 
			},
			{
				"x": -1.4142183334,
				"y": -2.1789803212,
				"z": -1.9582284631,
				"element": "H" 
			},
			{
				"x": -2.4331395115,
				"y": -1.3067453453,
				"z": 0.2099957752,
				"element": "H" 
			},
			{
				"x": -3.875924114,
				"y": 0.1492514301,
				"z": -0.9097037487,
				"element": "H" 
			},
			{
				"x": -1.436109656,
				"y": 1.3788509065,
				"z": -0.7843705419,
				"element": "H" 
			},
			{
				"x": -2.3496007717,
				"y": 2.0668611081,
				"z": 1.12895058,
				"element": "H" 
			}
		],
		 "valence_orbital": [ 
			{
				"type": "occ",
				"energy": -0.30653,
				"method": "rhf"
			},
			{
				"type": "occ",
				"energy": -0.28477,
				"method": "rhf"
			},
			{
				"type": "occ",
				"energy": -0.27602,
				"method": "rhf"
			},
			{
				"type": "occ",
				"energy": -0.25799,
				"method": "rhf"
			},
			{
				"type": "occ",
				"energy": -0.2549,
				"method": "rhf"
			},
			{
				"type": "unocc",
				"energy": 0.0437,
				"method": "rhf"
			},
			{
				"type": "unocc",
				"energy": 0.07565,
				"method": "rhf"
			},
			{
				"type": "unocc",
				"energy": 0.09216,
				"method": "rhf"
			},
			{
				"type": "unocc",
				"energy": 0.11175,
				"method": "rhf"
			},
			{
				"type": "unocc",
				"energy": 0.11781,
				"method": "rhf"
			}
		],
		"cosmo_sigma_profile": { 
			"-0.025": 0.0,
			"-0.024": 0.0,
			"-0.023": 0.0,
			"-0.022": 0.0,
			"-0.021": 0.0,
			"-0.02": 0.0,
			"-0.019": 0.0,
			"-0.018": 0.0137913848179,
			"-0.017": 0.738421686396,
			"-0.016": 1.02949641819,
			"-0.015": 1.52874798903,
			"-0.014": 1.32197495816,
			"-0.013": 1.71980893304,
			"-0.012": 1.99355873562,
			"-0.011": 1.71569370423,
			"-0.01": 1.64358375846,
			"-0.009": 1.91130947441,
			"-0.008": 3.75211549513,
			"-0.007": 8.83097047956,
			"-0.006": 15.1363831807,
			"-0.005": 16.0282181184,
			"-0.004": 13.5388247886,
			"-0.003": 10.5360863556,
			"-0.002": 8.08989112719,
			"-0.001": 6.3122586945,
			"0.0": 6.24342590471,
			"0.001": 4.28108760846,
			"0.002": 4.70852893962,
			"0.003": 6.28009667179,
			"0.004": 4.55553298308,
			"0.005": 4.15051757398,
			"0.006": 5.48033323586,
			"0.007": 4.99261327851,
			"0.008": 4.72881490644,
			"0.009": 3.65449272571,
			"0.01": 5.16248373485,
			"0.011": 7.23051392124,
			"0.012": 7.72108450487,
			"0.013": 5.27970552624,
			"0.014": 2.49054194421,
			"0.015": 0.151464819383,
			"0.016": 0.0,
			"0.017": 0.0,
			"0.018": 0.0,
			"0.019": 0.0,
			"0.02": 0.0,
			"0.021": 0.0,
			"0.022": 0.0,
			"0.023": 0.0,
			"0.024": 0.0,
			"0.025": 0.0
		}
	}
}
