{
	 "smiles": "NC(=O)CC(F)(F)F", 
	 "Tm": 375.15, 
	 "num_atms": 12, 
	 "gaussian": { 
		 "optdone": 1, 
		 "sigma_profile": "yes", 
		 "theory": "DFT", 
		 "functional": "B3LYP", 
		 "basiset": "6-31G**", 
		 "properties": { 
			 "R2extent": 1033.5432, 
			 "electric_dipole_moment_norm": 2.45319271563, 
			 "electric_quadrupole_moment_norm": 10.0091875564, 
			 "total_energy": -546.251358133, 
			 "HOMO_LUMO_gap": 0.27499, 
			 "cosmo_polarized_energy": -10.84, 
			 "cosmo_cavitation_energy": 17.46, 
			 "cosmo_dispersion_energy": -12.59, 
			 "cosmo_repulsion_energy": 1.03, 
			 "cosmo_total_nonelectrostatic_energy": 5.9, 
			 "SMD_solvation_energy": 5.03 
		},
		"coords": [
			{
				"x": 1.1131540251,
				"y": 1.358773322,
				"z": -0.7349497558,
				"element": "N" 
			},
			{
				"x": 0.9973995998,
				"y": 0.2405163772,
				"z": 0.0356993605,
				"element": "C" 
			},
			{
				"x": 1.9043945411,
				"y": -0.1980731942,
				"z": 0.7228732008,
				"element": "O" 
			},
			{
				"x": -0.3417140472,
				"y": -0.5076292024,
				"z": -0.0667796591,
				"element": "C" 
			},
			{
				"x": -1.5882840221,
				"y": 0.3387088456,
				"z": 0.0663470206,
				"element": "C" 
			},
			{
				"x": -1.5852525499,
				"y": 1.0712355858,
				"z": 1.1957969164,
				"element": "F" 
			},
			{
				"x": -2.6959587053,
				"y": -0.4271499992,
				"z": 0.0724929855,
				"element": "F" 
			},
			{
				"x": -1.7227587648,
				"y": 1.2128910449,
				"z": -0.9742909164,
				"element": "F" 
			},
			{
				"x": 1.9631341261,
				"y": 1.8950573181,
				"z": -0.6457855082,
				"element": "H" 
			},
			{
				"x": 0.3179449051,
				"y": 1.768216159,
				"z": -1.1987773979,
				"element": "H" 
			},
			{
				"x": -0.3488671481,
				"y": -1.2531226598,
				"z": 0.7289497893,
				"element": "H" 
			},
			{
				"x": -0.3968919599,
				"y": -1.030423597,
				"z": -1.0271760358,
				"element": "H" 
			}
		],
		 "valence_orbital": [ 
			{
				"type": "occ",
				"energy": -0.40992,
				"method": "rhf"
			},
			{
				"type": "occ",
				"energy": -0.40057,
				"method": "rhf"
			},
			{
				"type": "occ",
				"energy": -0.37958,
				"method": "rhf"
			},
			{
				"type": "occ",
				"energy": -0.27936,
				"method": "rhf"
			},
			{
				"type": "occ",
				"energy": -0.26221,
				"method": "rhf"
			},
			{
				"type": "unocc",
				"energy": 0.01278,
				"method": "rhf"
			},
			{
				"type": "unocc",
				"energy": 0.07911,
				"method": "rhf"
			},
			{
				"type": "unocc",
				"energy": 0.10986,
				"method": "rhf"
			},
			{
				"type": "unocc",
				"energy": 0.11098,
				"method": "rhf"
			},
			{
				"type": "unocc",
				"energy": 0.13325,
				"method": "rhf"
			}
		],
		"cosmo_sigma_profile": { 
			"-0.025": 0.0,
			"-0.024": 0.0,
			"-0.023": 0.0,
			"-0.022": 0.0,
			"-0.021": 0.0,
			"-0.02": 0.0,
			"-0.019": 0.0,
			"-0.018": 0.0,
			"-0.017": 0.0,
			"-0.016": 0.0,
			"-0.015": 0.153955881988,
			"-0.014": 1.16260317834,
			"-0.013": 1.57172494739,
			"-0.012": 1.80893315203,
			"-0.011": 2.64334225461,
			"-0.01": 2.0725993032,
			"-0.009": 4.33811031191,
			"-0.008": 5.79201414254,
			"-0.007": 5.9771415541,
			"-0.006": 5.19382387677,
			"-0.005": 5.96930220681,
			"-0.004": 4.58001343009,
			"-0.003": 4.03333630842,
			"-0.002": 4.98530578682,
			"-0.001": 5.95792771629,
			"0.0": 7.83407862657,
			"0.001": 10.1503345178,
			"0.002": 23.7945581604,
			"0.003": 17.4989581748,
			"0.004": 1.63859330731,
			"0.005": 2.39531221436,
			"0.006": 1.03945323185,
			"0.007": 1.54280373878,
			"0.008": 0.540744747621,
			"0.009": 1.40470654528,
			"0.01": 1.39670022499,
			"0.011": 1.93894873849,
			"0.012": 2.41123981139,
			"0.013": 5.7361505392,
			"0.014": 2.84368661175,
			"0.015": 0.0494041260994,
			"0.016": 0.0,
			"0.017": 0.0,
			"0.018": 0.0,
			"0.019": 0.0,
			"0.02": 0.0,
			"0.021": 0.0,
			"0.022": 0.0,
			"0.023": 0.0,
			"0.024": 0.0,
			"0.025": 0.0
		}
	}
}
