{
	 "smiles": "COC1=CC=C(NS(=O)(=O)C2=C(C=CC(N)=C2)N2CCCC2)C=C1", 
	 "Tm": 453.15, 
	 "num_atms": 45, 
	 "gaussian": { 
		 "optdone": 1, 
		 "sigma_profile": "yes", 
		 "theory": "DFT", 
		 "functional": "B3LYP", 
		 "basiset": "6-31G**", 
		 "properties": { 
			 "R2extent": 9354.0844, 
			 "electric_dipole_moment_norm": 7.14921306579, 
			 "electric_quadrupole_moment_norm": 27.771763547, 
			 "total_energy": -1448.48691744, 
			 "HOMO_LUMO_gap": 0.16338, 
			 "cosmo_polarized_energy": -22.83, 
			 "cosmo_cavitation_energy": 47.08, 
			 "cosmo_dispersion_energy": -32.08, 
			 "cosmo_repulsion_energy": 2.38, 
			 "cosmo_total_nonelectrostatic_energy": 17.38, 
			 "SMD_solvation_energy": 7.43 
		},
		"coords": [
			{
				"x": -3.4890883183,
				"y": -0.2297965201,
				"z": -3.7101642555,
				"element": "C" 
			},
			{
				"x": -2.1293421799,
				"y": 0.1689667946,
				"z": -3.7459826693,
				"element": "O" 
			},
			{
				"x": -1.2527456989,
				"y": -0.453365157,
				"z": -2.9026506546,
				"element": "C" 
			},
			{
				"x": -1.5966123715,
				"y": -1.4596720058,
				"z": -1.9942949527,
				"element": "C" 
			},
			{
				"x": -0.6092520917,
				"y": -2.019700328,
				"z": -1.1771272275,
				"element": "C" 
			},
			{
				"x": 0.7215641074,
				"y": -1.6097876906,
				"z": -1.2730053639,
				"element": "C" 
			},
			{
				"x": 1.7278082286,
				"y": -2.2799477349,
				"z": -0.5258547188,
				"element": "N" 
			},
			{
				"x": 2.850356808,
				"y": -1.5871180456,
				"z": 0.5326505411,
				"element": "S" 
			},
			{
				"x": 3.2646981534,
				"y": -0.3081640352,
				"z": -0.0435195729,
				"element": "O" 
			},
			{
				"x": 3.8241549315,
				"y": -2.6620512628,
				"z": 0.7454403084,
				"element": "O" 
			},
			{
				"x": 2.0147638293,
				"y": -1.3532858569,
				"z": 2.1277767842,
				"element": "C" 
			},
			{
				"x": 0.9999803409,
				"y": -0.3936988906,
				"z": 2.3422247771,
				"element": "C" 
			},
			{
				"x": 0.3604555948,
				"y": -0.4390660047,
				"z": 3.592368751,
				"element": "C" 
			},
			{
				"x": 0.7118156312,
				"y": -1.3544375922,
				"z": 4.578738598,
				"element": "C" 
			},
			{
				"x": 1.7521292709,
				"y": -2.2716374435,
				"z": 4.3676872335,
				"element": "C" 
			},
			{
				"x": 2.1712987329,
				"y": -3.1383565447,
				"z": 5.3766843956,
				"element": "N" 
			},
			{
				"x": 2.3932299423,
				"y": -2.2591508731,
				"z": 3.1203468972,
				"element": "C" 
			},
			{
				"x": 0.6569352323,
				"y": 0.5557214103,
				"z": 1.3448727959,
				"element": "N" 
			},
			{
				"x": 1.4746073604,
				"y": 1.7864538356,
				"z": 1.2961239347,
				"element": "C" 
			},
			{
				"x": 0.7946088323,
				"y": 2.6062336346,
				"z": 0.1885810991,
				"element": "C" 
			},
			{
				"x": -0.68215065,
				"y": 2.1168180041,
				"z": 0.1863789273,
				"element": "C" 
			},
			{
				"x": -0.7313023384,
				"y": 1.0221818739,
				"z": 1.2710026176,
				"element": "C" 
			},
			{
				"x": 1.0638810496,
				"y": -0.6096358297,
				"z": -2.1980088515,
				"element": "C" 
			},
			{
				"x": 0.0838058888,
				"y": -0.0298951985,
				"z": -2.9900198103,
				"element": "C" 
			},
			{
				"x": -3.6083876564,
				"y": -1.2900913184,
				"z": -3.9694144621,
				"element": "H" 
			},
			{
				"x": -4.0032325128,
				"y": 0.3804809385,
				"z": -4.4543404018,
				"element": "H" 
			},
			{
				"x": -3.9394477728,
				"y": -0.050635877,
				"z": -2.7248040525,
				"element": "H" 
			},
			{
				"x": -2.6172514179,
				"y": -1.8125823901,
				"z": -1.9070245193,
				"element": "H" 
			},
			{
				"x": -0.8841873348,
				"y": -2.7934756002,
				"z": -0.4647439976,
				"element": "H" 
			},
			{
				"x": 1.5071056485,
				"y": -3.2235108498,
				"z": -0.2283205645,
				"element": "H" 
			},
			{
				"x": -0.4335757552,
				"y": 0.2689683355,
				"z": 3.8024673346,
				"element": "H" 
			},
			{
				"x": 0.1873326706,
				"y": -1.3450788067,
				"z": 5.5313106114,
				"element": "H" 
			},
			{
				"x": 2.6757374468,
				"y": -3.9562905696,
				"z": 5.0643221631,
				"element": "H" 
			},
			{
				"x": 1.4759905053,
				"y": -3.3619974973,
				"z": 6.0747455774,
				"element": "H" 
			},
			{
				"x": 3.1907672991,
				"y": -2.9617105476,
				"z": 2.9055090575,
				"element": "H" 
			},
			{
				"x": 1.425995806,
				"y": 2.3195490929,
				"z": 2.2634418494,
				"element": "H" 
			},
			{
				"x": 2.5141772923,
				"y": 1.5430462778,
				"z": 1.0806663594,
				"element": "H" 
			},
			{
				"x": 1.2654048052,
				"y": 2.3922010984,
				"z": -0.7740862285,
				"element": "H" 
			},
			{
				"x": 0.8833404193,
				"y": 3.6806517819,
				"z": 0.372777532,
				"element": "H" 
			},
			{
				"x": -0.9444157529,
				"y": 1.7002082018,
				"z": -0.7883406495,
				"element": "H" 
			},
			{
				"x": -1.3914525526,
				"y": 2.9199807929,
				"z": 0.406922501,
				"element": "H" 
			},
			{
				"x": -1.0783542271,
				"y": 1.4683529352,
				"z": 2.2207444565,
				"element": "H" 
			},
			{
				"x": -1.3990723645,
				"y": 0.1914402984,
				"z": 1.0242747787,
				"element": "H" 
			},
			{
				"x": 2.0983341557,
				"y": -0.3002670805,
				"z": -2.2833441575,
				"element": "H" 
			},
			{
				"x": 0.3341910125,
				"y": 0.7419522444,
				"z": -3.7105127712,
				"element": "H" 
			}
		],
		 "valence_orbital": [ 
			{
				"type": "occ",
				"energy": -0.25959,
				"method": "rhf"
			},
			{
				"type": "occ",
				"energy": -0.25283,
				"method": "rhf"
			},
			{
				"type": "occ",
				"energy": -0.23241,
				"method": "rhf"
			},
			{
				"type": "occ",
				"energy": -0.20863,
				"method": "rhf"
			},
			{
				"type": "occ",
				"energy": -0.19302,
				"method": "rhf"
			},
			{
				"type": "unocc",
				"energy": -0.02964,
				"method": "rhf"
			},
			{
				"type": "unocc",
				"energy": -0.00503,
				"method": "rhf"
			},
			{
				"type": "unocc",
				"energy": 0.00243,
				"method": "rhf"
			},
			{
				"type": "unocc",
				"energy": 0.01042,
				"method": "rhf"
			},
			{
				"type": "unocc",
				"energy": 0.06976,
				"method": "rhf"
			}
		],
		"cosmo_sigma_profile": { 
			"-0.025": 0.0,
			"-0.024": 0.0,
			"-0.023": 0.0,
			"-0.022": 0.0,
			"-0.021": 0.0,
			"-0.02": 0.0,
			"-0.019": 0.0,
			"-0.018": 0.0,
			"-0.017": 0.0,
			"-0.016": 0.214683640426,
			"-0.015": 0.891839373868,
			"-0.014": 1.05629199309,
			"-0.013": 1.99733609652,
			"-0.012": 4.16855786875,
			"-0.011": 4.11896990355,
			"-0.01": 3.89682137372,
			"-0.009": 4.89799390868,
			"-0.008": 4.34813228337,
			"-0.007": 6.35655058912,
			"-0.006": 15.573790704,
			"-0.005": 20.7677736518,
			"-0.004": 20.6814783024,
			"-0.003": 25.3044987992,
			"-0.002": 28.3590389846,
			"-0.001": 32.8943377287,
			"0.0": 34.5840316498,
			"0.001": 31.5793296436,
			"0.002": 22.158384002,
			"0.003": 19.2764837678,
			"0.004": 23.6850414441,
			"0.005": 16.1403609928,
			"0.006": 7.03672241469,
			"0.007": 6.30991905951,
			"0.008": 7.95756403901,
			"0.009": 6.42876059295,
			"0.01": 7.07487154018,
			"0.011": 7.87613173482,
			"0.012": 4.90476947187,
			"0.013": 0.957962205643,
			"0.014": 0.472960098195,
			"0.015": 0.0408606862513,
			"0.016": 0.0,
			"0.017": 0.0,
			"0.018": 0.0,
			"0.019": 0.0,
			"0.02": 0.0,
			"0.021": 0.0,
			"0.022": 0.0,
			"0.023": 0.0,
			"0.024": 0.0,
			"0.025": 0.0
		}
	}
}
