{
	 "smiles": "NNC(=O)C1CC1C(=O)NN", 
	 "Tm": 462.15, 
	 "num_atms": 21, 
	 "gaussian": { 
		 "optdone": 1, 
		 "sigma_profile": "yes", 
		 "theory": "DFT", 
		 "functional": "B3LYP", 
		 "basiset": "6-31G**", 
		 "properties": { 
			 "R2extent": 2177.2483, 
			 "electric_dipole_moment_norm": 2.64777105128, 
			 "electric_quadrupole_moment_norm": 11.0114092277, 
			 "total_energy": -565.94298077, 
			 "HOMO_LUMO_gap": 0.23432, 
			 "cosmo_polarized_energy": -18.89, 
			 "cosmo_cavitation_energy": 24.99, 
			 "cosmo_dispersion_energy": -17.92, 
			 "cosmo_repulsion_energy": 1.5, 
			 "cosmo_total_nonelectrostatic_energy": 8.58, 
			 "SMD_solvation_energy": 5.76 
		},
		"coords": [
			{
				"x": 2.6745365287,
				"y": -0.9700563751,
				"z": 1.2374832381,
				"element": "N" 
			},
			{
				"x": 1.8551601038,
				"y": 0.1604079225,
				"z": 1.4795672262,
				"element": "N" 
			},
			{
				"x": 1.7144669181,
				"y": 1.1084581558,
				"z": 0.5071946376,
				"element": "C" 
			},
			{
				"x": 2.3728378674,
				"y": 1.1035968909,
				"z": -0.5288008973,
				"element": "O" 
			},
			{
				"x": 0.7269950871,
				"y": 2.2120828932,
				"z": 0.8379202413,
				"element": "C" 
			},
			{
				"x": -0.3190519765,
				"y": 2.5972372682,
				"z": -0.1706714605,
				"element": "C" 
			},
			{
				"x": -0.7382521247,
				"y": 1.9648297973,
				"z": 1.1384820152,
				"element": "C" 
			},
			{
				"x": -1.2884397695,
				"y": 0.5655875981,
				"z": 1.2534639876,
				"element": "C" 
			},
			{
				"x": -1.0038803394,
				"y": -0.1811379249,
				"z": 2.1916269831,
				"element": "O" 
			},
			{
				"x": -2.151885427,
				"y": 0.188230938,
				"z": 0.2728899037,
				"element": "N" 
			},
			{
				"x": -2.8468450609,
				"y": -1.0361147634,
				"z": 0.3181312147,
				"element": "N" 
			},
			{
				"x": 2.7591449153,
				"y": -1.0394818609,
				"z": 0.2214753435,
				"element": "H" 
			},
			{
				"x": 3.6120336449,
				"y": -0.7372415574,
				"z": 1.5654374228,
				"element": "H" 
			},
			{
				"x": 1.0708495412,
				"y": -0.0116650149,
				"z": 2.1045338403,
				"element": "H" 
			},
			{
				"x": 1.1871704175,
				"y": 3.0197125287,
				"z": 1.4032442154,
				"element": "H" 
			},
			{
				"x": -0.3545509773,
				"y": 1.9891276725,
				"z": -1.0701578217,
				"element": "H" 
			},
			{
				"x": -0.5327451441,
				"y": 3.6492020662,
				"z": -0.3309462959,
				"element": "H" 
			},
			{
				"x": -1.1683135281,
				"y": 2.6207630695,
				"z": 1.8930392084,
				"element": "H" 
			},
			{
				"x": -2.499151769,
				"y": 0.8633228569,
				"z": -0.3921751869,
				"element": "H" 
			},
			{
				"x": -3.0824070609,
				"y": -1.2046652439,
				"z": 1.2965571189,
				"element": "H" 
			},
			{
				"x": -2.1875718465,
				"y": -1.7734969174,
				"z": 0.0688050655,
				"element": "H" 
			}
		],
		 "valence_orbital": [ 
			{
				"type": "occ",
				"energy": -0.28514,
				"method": "rhf"
			},
			{
				"type": "occ",
				"energy": -0.27035,
				"method": "rhf"
			},
			{
				"type": "occ",
				"energy": -0.26836,
				"method": "rhf"
			},
			{
				"type": "occ",
				"energy": -0.25098,
				"method": "rhf"
			},
			{
				"type": "occ",
				"energy": -0.2375,
				"method": "rhf"
			},
			{
				"type": "unocc",
				"energy": -0.00318,
				"method": "rhf"
			},
			{
				"type": "unocc",
				"energy": 0.0232,
				"method": "rhf"
			},
			{
				"type": "unocc",
				"energy": 0.07727,
				"method": "rhf"
			},
			{
				"type": "unocc",
				"energy": 0.08268,
				"method": "rhf"
			},
			{
				"type": "unocc",
				"energy": 0.09373,
				"method": "rhf"
			}
		],
		"cosmo_sigma_profile": { 
			"-0.025": 0.0,
			"-0.024": 0.0,
			"-0.023": 0.0,
			"-0.022": 0.0,
			"-0.021": 0.0,
			"-0.02": 0.0,
			"-0.019": 0.0,
			"-0.018": 0.0,
			"-0.017": 0.0,
			"-0.016": 0.0,
			"-0.015": 0.092629088001,
			"-0.014": 0.765405408003,
			"-0.013": 0.991092432493,
			"-0.012": 1.48018308231,
			"-0.011": 4.69563928461,
			"-0.01": 5.46229672423,
			"-0.009": 5.63731716339,
			"-0.008": 6.26825802102,
			"-0.007": 10.398154021,
			"-0.006": 13.3198778396,
			"-0.005": 13.3096536163,
			"-0.004": 10.7858758178,
			"-0.003": 12.4289504844,
			"-0.002": 13.796741493,
			"-0.001": 11.0387794177,
			"0.0": 8.6665028134,
			"0.001": 8.3475600548,
			"0.002": 5.63363308923,
			"0.003": 6.37522687433,
			"0.004": 5.83071379621,
			"0.005": 3.90512173249,
			"0.006": 4.23797188319,
			"0.007": 4.30324545214,
			"0.008": 3.31668078815,
			"0.009": 3.90514976536,
			"0.01": 3.27080962886,
			"0.011": 5.71775035302,
			"0.012": 5.75435683859,
			"0.013": 8.61638961633,
			"0.014": 3.99994565617,
			"0.015": 1.33682593161,
			"0.016": 1.61052877721,
			"0.017": 0.480476360014,
			"0.018": 0.0,
			"0.019": 0.0,
			"0.02": 0.0,
			"0.021": 0.0,
			"0.022": 0.0,
			"0.023": 0.0,
			"0.024": 0.0,
			"0.025": 0.0
		}
	}
}
