{
	 "smiles": "CCOC(=O)C1=C(N)OC(C)=N1", 
	 "Tm": 397.15, 
	 "num_atms": 22, 
	 "gaussian": { 
		 "optdone": 1, 
		 "sigma_profile": "yes", 
		 "theory": "DFT", 
		 "functional": "B3LYP", 
		 "basiset": "6-31G**", 
		 "properties": { 
			 "R2extent": 2905.5595, 
			 "electric_dipole_moment_norm": 2.21305001751, 
			 "electric_quadrupole_moment_norm": 11.6223975681, 
			 "total_energy": -607.964542883, 
			 "HOMO_LUMO_gap": 0.19866, 
			 "cosmo_polarized_energy": -13.39, 
			 "cosmo_cavitation_energy": 26.54, 
			 "cosmo_dispersion_energy": -19.76, 
			 "cosmo_repulsion_energy": 1.63, 
			 "cosmo_total_nonelectrostatic_energy": 8.41, 
			 "SMD_solvation_energy": 4.53 
		},
		"coords": [
			{
				"x": 3.0561165385,
				"y": 1.4047298804,
				"z": -0.9050120256,
				"element": "C" 
			},
			{
				"x": 3.0655780998,
				"y": 0.0586131013,
				"z": -0.1950163275,
				"element": "C" 
			},
			{
				"x": 1.7369258753,
				"y": -0.326128259,
				"z": 0.222701492,
				"element": "O" 
			},
			{
				"x": 0.9808693421,
				"y": -0.962128542,
				"z": -0.6914642494,
				"element": "C" 
			},
			{
				"x": 1.3625305173,
				"y": -1.2269996416,
				"z": -1.8329054443,
				"element": "O" 
			},
			{
				"x": -0.343327695,
				"y": -1.3155512348,
				"z": -0.2206767742,
				"element": "C" 
			},
			{
				"x": -1.2719334123,
				"y": -1.9611784389,
				"z": -1.0120094913,
				"element": "C" 
			},
			{
				"x": -1.1967873175,
				"y": -2.4821551374,
				"z": -2.260075431,
				"element": "N" 
			},
			{
				"x": -2.4129918891,
				"y": -2.1021330282,
				"z": -0.2981748828,
				"element": "O" 
			},
			{
				"x": -2.1235332806,
				"y": -1.5192491939,
				"z": 0.9428005846,
				"element": "C" 
			},
			{
				"x": -3.2164882165,
				"y": -1.5231377998,
				"z": 1.9484580504,
				"element": "C" 
			},
			{
				"x": -0.92774259,
				"y": -1.0547511151,
				"z": 1.023159414,
				"element": "N" 
			},
			{
				"x": 2.498319074,
				"y": 1.3387055679,
				"z": -1.8423458737,
				"element": "H" 
			},
			{
				"x": 4.081877367,
				"y": 1.7118875539,
				"z": -1.1358353495,
				"element": "H" 
			},
			{
				"x": 2.6000928284,
				"y": 2.1733592055,
				"z": -0.2741357411,
				"element": "H" 
			},
			{
				"x": 3.4772651668,
				"y": -0.7221361028,
				"z": -0.8391678787,
				"element": "H" 
			},
			{
				"x": 3.6383864155,
				"y": 0.1022049638,
				"z": 0.7345518812,
				"element": "H" 
			},
			{
				"x": -2.0520517624,
				"y": -2.5666803158,
				"z": -2.7892250684,
				"element": "H" 
			},
			{
				"x": -0.3562295809,
				"y": -2.1935532376,
				"z": -2.7503493711,
				"element": "H" 
			},
			{
				"x": -3.5322214139,
				"y": -2.5439854703,
				"z": 2.1900432688,
				"element": "H" 
			},
			{
				"x": -4.0960717786,
				"y": -0.981710173,
				"z": 1.5829701381,
				"element": "H" 
			},
			{
				"x": -2.8540822881,
				"y": -1.0395225826,
				"z": 2.8562090795,
				"element": "H" 
			}
		],
		 "valence_orbital": [ 
			{
				"type": "occ",
				"energy": -0.31283,
				"method": "rhf"
			},
			{
				"type": "occ",
				"energy": -0.28669,
				"method": "rhf"
			},
			{
				"type": "occ",
				"energy": -0.28493,
				"method": "rhf"
			},
			{
				"type": "occ",
				"energy": -0.26745,
				"method": "rhf"
			},
			{
				"type": "occ",
				"energy": -0.20586,
				"method": "rhf"
			},
			{
				"type": "unocc",
				"energy": -0.0072,
				"method": "rhf"
			},
			{
				"type": "unocc",
				"energy": 0.01731,
				"method": "rhf"
			},
			{
				"type": "unocc",
				"energy": 0.08435,
				"method": "rhf"
			},
			{
				"type": "unocc",
				"energy": 0.10992,
				"method": "rhf"
			},
			{
				"type": "unocc",
				"energy": 0.11633,
				"method": "rhf"
			}
		],
		"cosmo_sigma_profile": { 
			"-0.025": 0.0,
			"-0.024": 0.0,
			"-0.023": 0.0,
			"-0.022": 0.0,
			"-0.021": 0.0,
			"-0.02": 0.0,
			"-0.019": 0.0,
			"-0.018": 0.0,
			"-0.017": 0.0,
			"-0.016": 0.114239372347,
			"-0.015": 1.17556054175,
			"-0.014": 1.14629489944,
			"-0.013": 1.54021528189,
			"-0.012": 1.19757367095,
			"-0.011": 1.57613086228,
			"-0.01": 2.26556692965,
			"-0.009": 1.75405753057,
			"-0.008": 1.79825224081,
			"-0.007": 1.80594930581,
			"-0.006": 7.48922822473,
			"-0.005": 10.7693894145,
			"-0.004": 17.9436389352,
			"-0.003": 20.2583949475,
			"-0.002": 23.5346423829,
			"-0.001": 19.2289599133,
			"0.0": 17.3067691937,
			"0.001": 14.3006438963,
			"0.002": 10.1785116096,
			"0.003": 6.87899198253,
			"0.004": 7.30969889399,
			"0.005": 5.64873767521,
			"0.006": 5.79354198416,
			"0.007": 4.84796919448,
			"0.008": 3.69507709537,
			"0.009": 3.57383536723,
			"0.01": 3.98760321165,
			"0.011": 3.23469503094,
			"0.012": 3.40560713641,
			"0.013": 2.71934695998,
			"0.014": 1.39458310246,
			"0.015": 1.49457310803,
			"0.016": 0.686724927994,
			"0.017": 0.052491981289,
			"0.018": 0.0,
			"0.019": 0.0,
			"0.02": 0.0,
			"0.021": 0.0,
			"0.022": 0.0,
			"0.023": 0.0,
			"0.024": 0.0,
			"0.025": 0.0
		}
	}
}
