{
	 "smiles": "CC1=CC=C(C=C1)S(=O)(=O)OCCCOS(=O)(=O)C1=CC=C(C)C=C1", 
	 "Tm": 364.65, 
	 "num_atms": 45, 
	 "gaussian": { 
		 "optdone": 1, 
		 "sigma_profile": "yes", 
		 "theory": "DFT", 
		 "functional": "B3LYP", 
		 "basiset": "6-31G**", 
		 "properties": { 
			 "R2extent": 14509.3791, 
			 "electric_dipole_moment_norm": 5.30001789054, 
			 "electric_quadrupole_moment_norm": 46.4801482982, 
			 "total_energy": -1907.45296383, 
			 "HOMO_LUMO_gap": 0.21995, 
			 "cosmo_polarized_energy": -23.18, 
			 "cosmo_cavitation_energy": 52.24, 
			 "cosmo_dispersion_energy": -36.64, 
			 "cosmo_repulsion_energy": 2.78, 
			 "cosmo_total_nonelectrostatic_energy": 18.37, 
			 "SMD_solvation_energy": 6.71 
		},
		"coords": [
			{
				"x": -2.9641448997,
				"y": -3.8021731173,
				"z": 3.035208125,
				"element": "C" 
			},
			{
				"x": -1.885943016,
				"y": -3.707881598,
				"z": 1.983330149,
				"element": "C" 
			},
			{
				"x": -0.7339223105,
				"y": -2.9399465469,
				"z": 2.1985064102,
				"element": "C" 
			},
			{
				"x": 0.2520519832,
				"y": -2.8267892686,
				"z": 1.2185995887,
				"element": "C" 
			},
			{
				"x": 0.079995135,
				"y": -3.4958308504,
				"z": 0.0070209689,
				"element": "C" 
			},
			{
				"x": -1.0502830357,
				"y": -4.2822142672,
				"z": -0.2316476631,
				"element": "C" 
			},
			{
				"x": -2.0238494075,
				"y": -4.3791883376,
				"z": 0.757548765,
				"element": "C" 
			},
			{
				"x": 1.3328561584,
				"y": -3.3642627158,
				"z": -1.2575180735,
				"element": "S" 
			},
			{
				"x": 1.4526885596,
				"y": -4.64983653,
				"z": -1.9296890003,
				"element": "O" 
			},
			{
				"x": 2.4947222734,
				"y": -2.670568789,
				"z": -0.6987234638,
				"element": "O" 
			},
			{
				"x": 0.6218406651,
				"y": -2.3836286634,
				"z": -2.3754430486,
				"element": "O" 
			},
			{
				"x": 0.968669465,
				"y": -0.9780922421,
				"z": -2.4161471577,
				"element": "C" 
			},
			{
				"x": -0.0324324679,
				"y": -0.1345902343,
				"z": -1.6298509597,
				"element": "C" 
			},
			{
				"x": 0.2604005333,
				"y": 1.3516458146,
				"z": -1.7904881371,
				"element": "C" 
			},
			{
				"x": -0.7175916399,
				"y": 2.055985215,
				"z": -0.9883617608,
				"element": "O" 
			},
			{
				"x": -0.751395517,
				"y": 3.6967464262,
				"z": -1.1027316109,
				"element": "S" 
			},
			{
				"x": -1.9966397013,
				"y": 4.0661157769,
				"z": -0.4469457922,
				"element": "O" 
			},
			{
				"x": -0.4567337488,
				"y": 4.0718512536,
				"z": -2.4851238219,
				"element": "O" 
			},
			{
				"x": 0.6222114996,
				"y": 4.189780024,
				"z": -0.0745498019,
				"element": "C" 
			},
			{
				"x": 1.827681813,
				"y": 4.5674979445,
				"z": -0.6663785022,
				"element": "C" 
			},
			{
				"x": 2.8937348371,
				"y": 4.9440088518,
				"z": 0.1509872244,
				"element": "C" 
			},
			{
				"x": 2.771478704,
				"y": 4.9473888634,
				"z": 1.5464211482,
				"element": "C" 
			},
			{
				"x": 3.9341629611,
				"y": 5.3335768304,
				"z": 2.4279517185,
				"element": "C" 
			},
			{
				"x": 1.541766645,
				"y": 4.5716964113,
				"z": 2.1123424739,
				"element": "C" 
			},
			{
				"x": 0.4667161177,
				"y": 4.1933505139,
				"z": 1.3149262452,
				"element": "C" 
			},
			{
				"x": -3.7916826315,
				"y": -3.1190824551,
				"z": 2.8076003709,
				"element": "H" 
			},
			{
				"x": -2.5830122288,
				"y": -3.538234018,
				"z": 4.0253014488,
				"element": "H" 
			},
			{
				"x": -3.3833222978,
				"y": -4.8115700437,
				"z": 3.0881125347,
				"element": "H" 
			},
			{
				"x": -0.6021215682,
				"y": -2.4276336444,
				"z": 3.1475879599,
				"element": "H" 
			},
			{
				"x": 1.1510663175,
				"y": -2.2453576508,
				"z": 1.390956939,
				"element": "H" 
			},
			{
				"x": -1.1529486719,
				"y": -4.817510061,
				"z": -1.1693203522,
				"element": "H" 
			},
			{
				"x": -2.9038643138,
				"y": -4.9913999474,
				"z": 0.5794994063,
				"element": "H" 
			},
			{
				"x": 1.9892800762,
				"y": -0.84730513,
				"z": -2.0468997041,
				"element": "H" 
			},
			{
				"x": 0.947736767,
				"y": -0.7279588733,
				"z": -3.481057153,
				"element": "H" 
			},
			{
				"x": 0.0086472116,
				"y": -0.3976255228,
				"z": -0.5682581171,
				"element": "H" 
			},
			{
				"x": -1.0471857221,
				"y": -0.3453836979,
				"z": -1.9816467539,
				"element": "H" 
			},
			{
				"x": 1.2684423919,
				"y": 1.598367204,
				"z": -1.431767395,
				"element": "H" 
			},
			{
				"x": 0.1700677792,
				"y": 1.6739808981,
				"z": -2.8320656747,
				"element": "H" 
			},
			{
				"x": 1.9158169925,
				"y": 4.5862051938,
				"z": -1.7470597093,
				"element": "H" 
			},
			{
				"x": 3.8324084503,
				"y": 5.2469539052,
				"z": -0.3046849349,
				"element": "H" 
			},
			{
				"x": 4.7014140924,
				"y": 5.8731916157,
				"z": 1.8667106404,
				"element": "H" 
			},
			{
				"x": 4.4067560023,
				"y": 4.4446520956,
				"z": 2.8633689408,
				"element": "H" 
			},
			{
				"x": 3.6106277067,
				"y": 5.9670712969,
				"z": 3.2597294533,
				"element": "H" 
			},
			{
				"x": 1.4248652038,
				"y": 4.5841884212,
				"z": 3.1927682026,
				"element": "H" 
			},
			{
				"x": -0.4872331635,
				"y": 3.9220096489,
				"z": 1.7539798742,
				"element": "H" 
			}
		],
		 "valence_orbital": [ 
			{
				"type": "occ",
				"energy": -0.30476,
				"method": "rhf"
			},
			{
				"type": "occ",
				"energy": -0.27698,
				"method": "rhf"
			},
			{
				"type": "occ",
				"energy": -0.27488,
				"method": "rhf"
			},
			{
				"type": "occ",
				"energy": -0.26941,
				"method": "rhf"
			},
			{
				"type": "occ",
				"energy": -0.26567,
				"method": "rhf"
			},
			{
				"type": "unocc",
				"energy": -0.04572,
				"method": "rhf"
			},
			{
				"type": "unocc",
				"energy": -0.04368,
				"method": "rhf"
			},
			{
				"type": "unocc",
				"energy": -0.02789,
				"method": "rhf"
			},
			{
				"type": "unocc",
				"energy": -0.02615,
				"method": "rhf"
			},
			{
				"type": "unocc",
				"energy": 0.03666,
				"method": "rhf"
			}
		],
		"cosmo_sigma_profile": { 
			"-0.025": 0.0,
			"-0.024": 0.0,
			"-0.023": 0.0,
			"-0.022": 0.0,
			"-0.021": 0.0,
			"-0.02": 0.0,
			"-0.019": 0.0,
			"-0.018": 0.0,
			"-0.017": 0.0,
			"-0.016": 0.0,
			"-0.015": 0.0,
			"-0.014": 0.0,
			"-0.013": 0.0,
			"-0.012": 0.0,
			"-0.011": 0.0,
			"-0.01": 0.0,
			"-0.009": 0.236624284412,
			"-0.008": 4.66050036075,
			"-0.007": 15.7884995253,
			"-0.006": 26.2712334906,
			"-0.005": 38.5652430075,
			"-0.004": 35.1436501268,
			"-0.003": 32.2662743845,
			"-0.002": 31.8595593672,
			"-0.001": 34.486422948,
			"0.0": 31.2274997899,
			"0.001": 25.6966145474,
			"0.002": 28.574016817,
			"0.003": 27.0352454362,
			"0.004": 7.33150213368,
			"0.005": 6.46338338952,
			"0.006": 8.32291032344,
			"0.007": 8.88262805652,
			"0.008": 8.76940254406,
			"0.009": 14.8929575793,
			"0.01": 19.8978516014,
			"0.011": 8.77722841859,
			"0.012": 0.0,
			"0.013": 0.0,
			"0.014": 0.0,
			"0.015": 0.0,
			"0.016": 0.0,
			"0.017": 0.0,
			"0.018": 0.0,
			"0.019": 0.0,
			"0.02": 0.0,
			"0.021": 0.0,
			"0.022": 0.0,
			"0.023": 0.0,
			"0.024": 0.0,
			"0.025": 0.0
		}
	}
}
