{
	 "smiles": "NC(=S)NCCCN1CCOCC1", 
	 "Tm": 403.15, 
	 "num_atms": 30, 
	 "gaussian": { 
		 "optdone": 1, 
		 "sigma_profile": "yes", 
		 "theory": "DFT", 
		 "functional": "B3LYP", 
		 "basiset": "6-31G**", 
		 "properties": { 
			 "R2extent": 5016.8356, 
			 "electric_dipole_moment_norm": 6.75279765505, 
			 "electric_quadrupole_moment_norm": 39.0454296133, 
			 "total_energy": -952.765358988, 
			 "HOMO_LUMO_gap": 0.19795, 
			 "cosmo_polarized_energy": -19.56, 
			 "cosmo_cavitation_energy": 31.62, 
			 "cosmo_dispersion_energy": -22.76, 
			 "cosmo_repulsion_energy": 1.75, 
			 "cosmo_total_nonelectrostatic_energy": 10.62, 
			 "SMD_solvation_energy": 3.64 
		},
		"coords": [
			{
				"x": -0.4007740937,
				"y": -3.6070254769,
				"z": 0.3241328575,
				"element": "N" 
			},
			{
				"x": 0.6488984904,
				"y": -3.9545385753,
				"z": -0.4736593495,
				"element": "C" 
			},
			{
				"x": 0.7482184144,
				"y": -5.4244339667,
				"z": -1.2925442283,
				"element": "S" 
			},
			{
				"x": 1.6432999343,
				"y": -3.020853654,
				"z": -0.5713866918,
				"element": "N" 
			},
			{
				"x": 1.946800618,
				"y": -1.9740283524,
				"z": 0.407431626,
				"element": "C" 
			},
			{
				"x": 1.6656609364,
				"y": -0.5286193867,
				"z": -0.0577444728,
				"element": "C" 
			},
			{
				"x": 0.2818575893,
				"y": 0.0412505335,
				"z": 0.2830172866,
				"element": "C" 
			},
			{
				"x": -0.8710807466,
				"y": -0.6953291955,
				"z": -0.2539160441,
				"element": "N" 
			},
			{
				"x": -0.9093727107,
				"y": -0.6895509792,
				"z": -1.7284592683,
				"element": "C" 
			},
			{
				"x": -2.1561895212,
				"y": -1.4144040161,
				"z": -2.2320745981,
				"element": "C" 
			},
			{
				"x": -3.3434336984,
				"y": -0.8345118481,
				"z": -1.7077308643,
				"element": "O" 
			},
			{
				"x": -3.3320995837,
				"y": -0.8733448679,
				"z": -0.29073434,
				"element": "C" 
			},
			{
				"x": -2.1245651785,
				"y": -0.1284318859,
				"z": 0.2736034393,
				"element": "C" 
			},
			{
				"x": -1.1551258302,
				"y": -4.2781106871,
				"z": 0.3092665631,
				"element": "H" 
			},
			{
				"x": -0.6694753752,
				"y": -2.6145435498,
				"z": 0.3209218084,
				"element": "H" 
			},
			{
				"x": 2.4130615811,
				"y": -3.3466802602,
				"z": -1.1390826032,
				"element": "H" 
			},
			{
				"x": 3.0134562848,
				"y": -2.059870117,
				"z": 0.6432797907,
				"element": "H" 
			},
			{
				"x": 1.401236383,
				"y": -2.194324918,
				"z": 1.3305765252,
				"element": "H" 
			},
			{
				"x": 2.3898475021,
				"y": 0.1338390353,
				"z": 0.4328140029,
				"element": "H" 
			},
			{
				"x": 1.8726215337,
				"y": -0.4519339762,
				"z": -1.1307820802,
				"element": "H" 
			},
			{
				"x": 0.250638698,
				"y": 1.0974953188,
				"z": -0.0448927774,
				"element": "H" 
			},
			{
				"x": 0.1710139181,
				"y": 0.0518718669,
				"z": 1.3749566184,
				"element": "H" 
			},
			{
				"x": -0.0208664867,
				"y": -1.1974406508,
				"z": -2.1135154496,
				"element": "H" 
			},
			{
				"x": -0.9107049883,
				"y": 0.3468130127,
				"z": -2.1129371879,
				"element": "H" 
			},
			{
				"x": -2.2227518908,
				"y": -1.337507198,
				"z": -3.3205789505,
				"element": "H" 
			},
			{
				"x": -2.1000183798,
				"y": -2.4808658936,
				"z": -1.9630861901,
				"element": "H" 
			},
			{
				"x": -3.3261636,
				"y": -1.9178239383,
				"z": 0.0640927288,
				"element": "H" 
			},
			{
				"x": -4.2593751863,
				"y": -0.4019908279,
				"z": 0.0474449134,
				"element": "H" 
			},
			{
				"x": -2.2115726159,
				"y": 0.9422012612,
				"z": 0.0129434521,
				"element": "H" 
			},
			{
				"x": -2.1159419977,
				"y": -0.2063068068,
				"z": 1.3672434835,
				"element": "H" 
			}
		],
		 "valence_orbital": [ 
			{
				"type": "occ",
				"energy": -0.26697,
				"method": "rhf"
			},
			{
				"type": "occ",
				"energy": -0.26213,
				"method": "rhf"
			},
			{
				"type": "occ",
				"energy": -0.25001,
				"method": "rhf"
			},
			{
				"type": "occ",
				"energy": -0.20255,
				"method": "rhf"
			},
			{
				"type": "occ",
				"energy": -0.19067,
				"method": "rhf"
			},
			{
				"type": "unocc",
				"energy": 0.00728,
				"method": "rhf"
			},
			{
				"type": "unocc",
				"energy": 0.05978,
				"method": "rhf"
			},
			{
				"type": "unocc",
				"energy": 0.0737,
				"method": "rhf"
			},
			{
				"type": "unocc",
				"energy": 0.08177,
				"method": "rhf"
			},
			{
				"type": "unocc",
				"energy": 0.09696,
				"method": "rhf"
			}
		],
		"cosmo_sigma_profile": { 
			"-0.025": 0.0,
			"-0.024": 0.0,
			"-0.023": 0.0,
			"-0.022": 0.0,
			"-0.021": 0.0,
			"-0.02": 0.0,
			"-0.019": 0.0,
			"-0.018": 0.0,
			"-0.017": 0.0,
			"-0.016": 0.0,
			"-0.015": 0.0,
			"-0.014": 0.236008366504,
			"-0.013": 0.972073155314,
			"-0.012": 1.87020626873,
			"-0.011": 1.89351305478,
			"-0.01": 1.69341004139,
			"-0.009": 1.39901713677,
			"-0.008": 2.92899998736,
			"-0.007": 2.23095190222,
			"-0.006": 4.02675392344,
			"-0.005": 16.8404115715,
			"-0.004": 33.0559053851,
			"-0.003": 38.9576939395,
			"-0.002": 37.5441420357,
			"-0.001": 20.953737245,
			"0.0": 8.75203388905,
			"0.001": 5.38159626044,
			"0.002": 5.01682550045,
			"0.003": 4.80945172493,
			"0.004": 3.64601702877,
			"0.005": 5.59908330739,
			"0.006": 4.80696113648,
			"0.007": 4.318979623,
			"0.008": 5.66080321706,
			"0.009": 5.6290256968,
			"0.01": 5.37726254156,
			"0.011": 6.11436845757,
			"0.012": 9.18006528474,
			"0.013": 7.85725368147,
			"0.014": 1.25325784597,
			"0.015": 0.0,
			"0.016": 0.0,
			"0.017": 0.0,
			"0.018": 0.0,
			"0.019": 0.0,
			"0.02": 0.0,
			"0.021": 0.0,
			"0.022": 0.0,
			"0.023": 0.0,
			"0.024": 0.0,
			"0.025": 0.0
		}
	}
}
