{
	 "smiles": "CC1=CC=C(C=NC2=NC(=NN2)C(F)(F)F)C=C1", 
	 "Tm": 481.15, 
	 "num_atms": 27, 
	 "gaussian": { 
		 "optdone": 1, 
		 "sigma_profile": "yes", 
		 "theory": "DFT", 
		 "functional": "B3LYP", 
		 "basiset": "6-31G**", 
		 "properties": { 
			 "R2extent": 8149.2353, 
			 "electric_dipole_moment_norm": 6.75678499732, 
			 "electric_quadrupole_moment_norm": 9.40501695054, 
			 "total_energy": -943.113760146, 
			 "HOMO_LUMO_gap": 0.15698, 
			 "cosmo_polarized_energy": -12.45, 
			 "cosmo_cavitation_energy": 34.64, 
			 "cosmo_dispersion_energy": -24.82, 
			 "cosmo_repulsion_energy": 1.87, 
			 "cosmo_total_nonelectrostatic_energy": 11.69, 
			 "SMD_solvation_energy": 3.57 
		},
		"coords": [
			{
				"x": -3.936810451,
				"y": 4.1080609408,
				"z": 2.9402157563,
				"element": "C" 
			},
			{
				"x": -3.0421091835,
				"y": 3.1855579211,
				"z": 2.1499469395,
				"element": "C" 
			},
			{
				"x": -1.6942089906,
				"y": 3.4939285996,
				"z": 1.928210772,
				"element": "C" 
			},
			{
				"x": -0.8743397826,
				"y": 2.6332398078,
				"z": 1.2020807625,
				"element": "C" 
			},
			{
				"x": -1.3839441617,
				"y": 1.4358395071,
				"z": 0.6757524379,
				"element": "C" 
			},
			{
				"x": -0.5012164029,
				"y": 0.5574377084,
				"z": -0.0793877455,
				"element": "C" 
			},
			{
				"x": -0.9042039238,
				"y": -0.5578386324,
				"z": -0.5908285619,
				"element": "N" 
			},
			{
				"x": 0.0164449094,
				"y": -1.3101944783,
				"z": -1.28570001,
				"element": "C" 
			},
			{
				"x": 1.3050114053,
				"y": -1.0964238082,
				"z": -1.5434695097,
				"element": "N" 
			},
			{
				"x": 1.6492454155,
				"y": -2.1921778365,
				"z": -2.262735479,
				"element": "C" 
			},
			{
				"x": 0.6833379867,
				"y": -3.0771894191,
				"z": -2.4784276267,
				"element": "N" 
			},
			{
				"x": -0.3543851634,
				"y": -2.4927116613,
				"z": -1.8440049861,
				"element": "N" 
			},
			{
				"x": 3.0426461623,
				"y": -2.394122839,
				"z": -2.7857758785,
				"element": "C" 
			},
			{
				"x": 3.3993804515,
				"y": -1.3874762776,
				"z": -3.6096635581,
				"element": "F" 
			},
			{
				"x": 3.9375216771,
				"y": -2.4205477843,
				"z": -1.7768535423,
				"element": "F" 
			},
			{
				"x": 3.1471627588,
				"y": -3.5468087819,
				"z": -3.4661821184,
				"element": "F" 
			},
			{
				"x": -2.7395760634,
				"y": 1.1213083738,
				"z": 0.8954080392,
				"element": "C" 
			},
			{
				"x": -3.5483672645,
				"y": 1.9836859058,
				"z": 1.6191927263,
				"element": "C" 
			},
			{
				"x": -4.8220944838,
				"y": 4.393595843,
				"z": 2.3609182493,
				"element": "H" 
			},
			{
				"x": -4.2964132858,
				"y": 3.6212022358,
				"z": 3.8543820735,
				"element": "H" 
			},
			{
				"x": -3.4144885782,
				"y": 5.0229193755,
				"z": 3.2313929697,
				"element": "H" 
			},
			{
				"x": -1.2842332604,
				"y": 4.4172243841,
				"z": 2.3283390059,
				"element": "H" 
			},
			{
				"x": 0.1698904418,
				"y": 2.8876767692,
				"z": 1.0386718574,
				"element": "H" 
			},
			{
				"x": 0.5379021273,
				"y": 0.8850769668,
				"z": -0.1992856897,
				"element": "H" 
			},
			{
				"x": -1.265430331,
				"y": -2.9278062521,
				"z": -1.8218338671,
				"element": "H" 
			},
			{
				"x": -3.1323254217,
				"y": 0.1960385644,
				"z": 0.487302972,
				"element": "H" 
			},
			{
				"x": -4.5931965872,
				"y": 1.7303048673,
				"z": 1.7813340115,
				"element": "H" 
			}
		],
		 "valence_orbital": [ 
			{
				"type": "occ",
				"energy": -0.2937,
				"method": "rhf"
			},
			{
				"type": "occ",
				"energy": -0.29043,
				"method": "rhf"
			},
			{
				"type": "occ",
				"energy": -0.28415,
				"method": "rhf"
			},
			{
				"type": "occ",
				"energy": -0.26898,
				"method": "rhf"
			},
			{
				"type": "occ",
				"energy": -0.23897,
				"method": "rhf"
			},
			{
				"type": "unocc",
				"energy": -0.08199,
				"method": "rhf"
			},
			{
				"type": "unocc",
				"energy": -0.01818,
				"method": "rhf"
			},
			{
				"type": "unocc",
				"energy": 0.00253,
				"method": "rhf"
			},
			{
				"type": "unocc",
				"energy": 0.01606,
				"method": "rhf"
			},
			{
				"type": "unocc",
				"energy": 0.07725,
				"method": "rhf"
			}
		],
		"cosmo_sigma_profile": { 
			"-0.025": 0.0,
			"-0.024": 0.0,
			"-0.023": 0.0,
			"-0.022": 0.0,
			"-0.021": 0.0,
			"-0.02": 0.0,
			"-0.019": 0.0221698946622,
			"-0.018": 0.898791741407,
			"-0.017": 1.74692275686,
			"-0.016": 0.932206432928,
			"-0.015": 0.707430869973,
			"-0.014": 0.988080387533,
			"-0.013": 0.88612335467,
			"-0.012": 0.95758464825,
			"-0.011": 0.465205176203,
			"-0.01": 0.742985127497,
			"-0.009": 0.789966848669,
			"-0.008": 3.32625376343,
			"-0.007": 3.82143616093,
			"-0.006": 8.06049087157,
			"-0.005": 14.2024675462,
			"-0.004": 15.9378890214,
			"-0.003": 18.5921991114,
			"-0.002": 22.8640483389,
			"-0.001": 24.1043591569,
			"0.0": 20.4574566582,
			"0.001": 18.6189554756,
			"0.002": 38.8657699783,
			"0.003": 34.6924702584,
			"0.004": 17.1128005695,
			"0.005": 6.54896068473,
			"0.006": 4.51874228704,
			"0.007": 3.88892904604,
			"0.008": 3.29641217948,
			"0.009": 3.10435982276,
			"0.01": 2.39908311408,
			"0.011": 1.76699406543,
			"0.012": 2.08400917623,
			"0.013": 0.734699208966,
			"0.014": 0.0369900038023,
			"0.015": 0.0,
			"0.016": 0.0,
			"0.017": 0.0,
			"0.018": 0.0,
			"0.019": 0.0,
			"0.02": 0.0,
			"0.021": 0.0,
			"0.022": 0.0,
			"0.023": 0.0,
			"0.024": 0.0,
			"0.025": 0.0
		}
	}
}
