{
	 "smiles": "CC(C)(C)C1=CC=C(C=C1)C1(CN)CCCC1", 
	 "Tm": 336.15, 
	 "num_atms": 42, 
	 "gaussian": { 
		 "optdone": 1, 
		 "sigma_profile": "yes", 
		 "theory": "DFT", 
		 "functional": "B3LYP", 
		 "basiset": "6-31G**", 
		 "properties": { 
			 "R2extent": 5398.5982, 
			 "electric_dipole_moment_norm": 1.25797342579, 
			 "electric_quadrupole_moment_norm": 5.80057268552, 
			 "total_energy": -679.538286878, 
			 "HOMO_LUMO_gap": 0.22388, 
			 "cosmo_polarized_energy": -6.79, 
			 "cosmo_cavitation_energy": 39.64, 
			 "cosmo_dispersion_energy": -27.58, 
			 "cosmo_repulsion_energy": 2.15, 
			 "cosmo_total_nonelectrostatic_energy": 14.21, 
			 "SMD_solvation_energy": 5.19 
		},
		"coords": [
			{
				"x": 2.0883046382,
				"y": 2.7988618295,
				"z": 2.7795408292,
				"element": "C" 
			},
			{
				"x": 0.9780388643,
				"y": 3.1781231942,
				"z": 1.7707833149,
				"element": "C" 
			},
			{
				"x": 1.462598117,
				"y": 4.3607151115,
				"z": 0.8984721581,
				"element": "C" 
			},
			{
				"x": -0.2556297389,
				"y": 3.6432360741,
				"z": 2.5676696911,
				"element": "C" 
			},
			{
				"x": 0.6694592354,
				"y": 1.9691214629,
				"z": 0.8694068707,
				"element": "C" 
			},
			{
				"x": 1.6766899163,
				"y": 1.4054736722,
				"z": 0.0722603778,
				"element": "C" 
			},
			{
				"x": 1.4366885249,
				"y": 0.3092213418,
				"z": -0.75622408,
				"element": "C" 
			},
			{
				"x": 0.1719286249,
				"y": -0.2920204906,
				"z": -0.8310656305,
				"element": "C" 
			},
			{
				"x": -0.836528958,
				"y": 0.2759977488,
				"z": -0.0372891484,
				"element": "C" 
			},
			{
				"x": -0.5972627813,
				"y": 1.3743616654,
				"z": 0.789245238,
				"element": "C" 
			},
			{
				"x": -0.1516121205,
				"y": -1.4848275253,
				"z": -1.7504389429,
				"element": "C" 
			},
			{
				"x": -1.1303568461,
				"y": -1.0250123276,
				"z": -2.8536859272,
				"element": "C" 
			},
			{
				"x": -0.5126798475,
				"y": -0.0273184784,
				"z": -3.732307865,
				"element": "N" 
			},
			{
				"x": -0.7365257625,
				"y": -2.6641352205,
				"z": -0.9238385636,
				"element": "C" 
			},
			{
				"x": 0.4884772002,
				"y": -3.321531384,
				"z": -0.2546440751,
				"element": "C" 
			},
			{
				"x": 1.6769690646,
				"y": -3.0620933937,
				"z": -1.2264873483,
				"element": "C" 
			},
			{
				"x": 1.1025790746,
				"y": -2.1675451768,
				"z": -2.3505090029,
				"element": "C" 
			},
			{
				"x": 1.7700644177,
				"y": 1.9676153358,
				"z": 3.4172944695,
				"element": "H" 
			},
			{
				"x": 3.0107312122,
				"y": 2.4971340555,
				"z": 2.2746495022,
				"element": "H" 
			},
			{
				"x": 2.3255135424,
				"y": 3.6519017585,
				"z": 3.4256043637,
				"element": "H" 
			},
			{
				"x": 0.692094771,
				"y": 4.6581053383,
				"z": 0.1794198629,
				"element": "H" 
			},
			{
				"x": 2.3647605213,
				"y": 4.1066487166,
				"z": 0.3341668937,
				"element": "H" 
			},
			{
				"x": 1.6950558632,
				"y": 5.2288348332,
				"z": 1.5259080969,
				"element": "H" 
			},
			{
				"x": -0.6332284885,
				"y": 2.8570627915,
				"z": 3.2297757039,
				"element": "H" 
			},
			{
				"x": -1.0721718765,
				"y": 3.9569171724,
				"z": 1.9088990917,
				"element": "H" 
			},
			{
				"x": 0.0109979127,
				"y": 4.5013682242,
				"z": 3.1932978447,
				"element": "H" 
			},
			{
				"x": 2.6786585605,
				"y": 1.8254562866,
				"z": 0.0904318654,
				"element": "H" 
			},
			{
				"x": 2.2587003793,
				"y": -0.0778659244,
				"z": -1.3480348,
				"element": "H" 
			},
			{
				"x": -1.8391977962,
				"y": -0.1426535707,
				"z": -0.0598769081,
				"element": "H" 
			},
			{
				"x": -1.4214844649,
				"y": 1.7626150189,
				"z": 1.3772786875,
				"element": "H" 
			},
			{
				"x": -2.0680326866,
				"y": -0.6843094871,
				"z": -2.3791750931,
				"element": "H" 
			},
			{
				"x": -1.3893780129,
				"y": -1.8971991185,
				"z": -3.4672843393,
				"element": "H" 
			},
			{
				"x": -0.3149796911,
				"y": 0.8157817554,
				"z": -3.1973019625,
				"element": "H" 
			},
			{
				"x": -1.1671358134,
				"y": 0.2416812495,
				"z": -4.4626063063,
				"element": "H" 
			},
			{
				"x": -1.2113714191,
				"y": -3.3703280976,
				"z": -1.6176755222,
				"element": "H" 
			},
			{
				"x": -1.5000198811,
				"y": -2.3588595887,
				"z": -0.2028023632,
				"element": "H" 
			},
			{
				"x": 0.3251142679,
				"y": -4.3864129699,
				"z": -0.0621589009,
				"element": "H" 
			},
			{
				"x": 0.6811282371,
				"y": -2.8493413487,
				"z": 0.7140956762,
				"element": "H" 
			},
			{
				"x": 2.4964505354,
				"y": -2.5603301143,
				"z": -0.7021723892,
				"element": "H" 
			},
			{
				"x": 2.0881939752,
				"y": -3.9916720897,
				"z": -1.6327149602,
				"element": "H" 
			},
			{
				"x": 1.8238240047,
				"y": -1.4686718697,
				"z": -2.7773540172,
				"element": "H" 
			},
			{
				"x": 0.7636747242,
				"y": -2.7927064609,
				"z": -3.1849523922,
				"element": "H" 
			}
		],
		 "valence_orbital": [ 
			{
				"type": "occ",
				"energy": -0.30373,
				"method": "rhf"
			},
			{
				"type": "occ",
				"energy": -0.30029,
				"method": "rhf"
			},
			{
				"type": "occ",
				"energy": -0.24264,
				"method": "rhf"
			},
			{
				"type": "occ",
				"energy": -0.23078,
				"method": "rhf"
			},
			{
				"type": "occ",
				"energy": -0.2235,
				"method": "rhf"
			},
			{
				"type": "unocc",
				"energy": 0.00038,
				"method": "rhf"
			},
			{
				"type": "unocc",
				"energy": 0.00742,
				"method": "rhf"
			},
			{
				"type": "unocc",
				"energy": 0.08071,
				"method": "rhf"
			},
			{
				"type": "unocc",
				"energy": 0.08796,
				"method": "rhf"
			},
			{
				"type": "unocc",
				"energy": 0.10368,
				"method": "rhf"
			}
		],
		"cosmo_sigma_profile": { 
			"-0.025": 0.0,
			"-0.024": 0.0,
			"-0.023": 0.0,
			"-0.022": 0.0,
			"-0.021": 0.0,
			"-0.02": 0.0,
			"-0.019": 0.0,
			"-0.018": 0.0,
			"-0.017": 0.0,
			"-0.016": 0.0,
			"-0.015": 0.0,
			"-0.014": 0.0,
			"-0.013": 0.0,
			"-0.012": 0.0,
			"-0.011": 0.0,
			"-0.01": 0.275119840783,
			"-0.009": 1.39811124472,
			"-0.008": 1.75743302733,
			"-0.007": 2.1243868282,
			"-0.006": 2.66861643036,
			"-0.005": 6.01180362005,
			"-0.004": 13.256756736,
			"-0.003": 27.1846734204,
			"-0.002": 49.7374611816,
			"-0.001": 41.6234320594,
			"0.0": 45.3413597715,
			"0.001": 44.7728512962,
			"0.002": 26.8792400162,
			"0.003": 8.87238801312,
			"0.004": 8.44327080993,
			"0.005": 6.89647175342,
			"0.006": 6.37294226883,
			"0.007": 3.97929003669,
			"0.008": 1.03854751647,
			"0.009": 0.771305088576,
			"0.01": 1.18260172242,
			"0.011": 0.706609032108,
			"0.012": 0.550602699084,
			"0.013": 0.772540068466,
			"0.014": 0.696070205449,
			"0.015": 0.497497743652,
			"0.016": 0.550336637549,
			"0.017": 0.796683150729,
			"0.018": 0.426054584364,
			"0.019": 0.322342381816,
			"0.02": 0.0253829715794,
			"0.021": 0.0,
			"0.022": 0.0,
			"0.023": 0.0,
			"0.024": 0.0,
			"0.025": 0.0
		}
	}
}
