{
	 "smiles": "OC(=O)C1=C(OCC2=C(Br)C=CC=C2)C=CC=C1", 
	 "Tm": 403.15, 
	 "num_atms": 29, 
	 "gaussian": { 
		 "optdone": 1, 
		 "sigma_profile": "yes", 
		 "theory": "DFT", 
		 "functional": "B3LYP", 
		 "basiset": "6-31G**", 
		 "properties": { 
			 "R2extent": 6690.6157, 
			 "electric_dipole_moment_norm": 7.03797324377, 
			 "electric_quadrupole_moment_norm": 24.9044351145, 
			 "total_energy": -3337.2006216, 
			 "HOMO_LUMO_gap": 0.19978, 
			 "cosmo_polarized_energy": -16.3, 
			 "cosmo_cavitation_energy": 35.95, 
			 "cosmo_dispersion_energy": -25.38, 
			 "cosmo_repulsion_energy": 1.94, 
			 "cosmo_total_nonelectrostatic_energy": 12.5, 
			 "SMD_solvation_energy": 6.2 
		},
		"coords": [
			{
				"x": 1.7826655739,
				"y": 1.8826494927,
				"z": 0.2536498633,
				"element": "O" 
			},
			{
				"x": 2.2366441059,
				"y": 1.5812719797,
				"z": -0.976067266,
				"element": "C" 
			},
			{
				"x": 3.1052211148,
				"y": 2.2526620882,
				"z": -1.4914277268,
				"element": "O" 
			},
			{
				"x": 1.636456016,
				"y": 0.3901589557,
				"z": -1.6855480922,
				"element": "C" 
			},
			{
				"x": 0.6012386438,
				"y": -0.434303591,
				"z": -1.1882186115,
				"element": "C" 
			},
			{
				"x": 0.0904421847,
				"y": -0.1164672415,
				"z": 0.0485078655,
				"element": "O" 
			},
			{
				"x": -0.9258175555,
				"y": -0.9476782655,
				"z": 0.6380696325,
				"element": "C" 
			},
			{
				"x": -1.2317452947,
				"y": -0.4117555603,
				"z": 2.0096434827,
				"element": "C" 
			},
			{
				"x": -0.4232786789,
				"y": -0.6815038263,
				"z": 3.1243746705,
				"element": "C" 
			},
			{
				"x": 1.1378385479,
				"y": -1.7757314109,
				"z": 2.9542696306,
				"element": "Br" 
			},
			{
				"x": -0.7242587528,
				"y": -0.1675369941,
				"z": 4.3843311317,
				"element": "C" 
			},
			{
				"x": -1.8526920699,
				"y": 0.6363819982,
				"z": 4.5474157456,
				"element": "C" 
			},
			{
				"x": -2.6723611325,
				"y": 0.9228312277,
				"z": 3.4558386155,
				"element": "C" 
			},
			{
				"x": -2.3572502322,
				"y": 0.400775892,
				"z": 2.2028094939,
				"element": "C" 
			},
			{
				"x": 0.1288031483,
				"y": -1.5120661315,
				"z": -1.9440166611,
				"element": "C" 
			},
			{
				"x": 0.6830425874,
				"y": -1.7782687007,
				"z": -3.1969136034,
				"element": "C" 
			},
			{
				"x": 1.7041886913,
				"y": -0.9766992372,
				"z": -3.7048571348,
				"element": "C" 
			},
			{
				"x": 2.1672180699,
				"y": 0.095025206,
				"z": -2.9473233976,
				"element": "C" 
			},
			{
				"x": 1.0927048866,
				"y": 1.2459522588,
				"z": 0.5179374168,
				"element": "H" 
			},
			{
				"x": -1.8241599287,
				"y": -0.9175585344,
				"z": 0.0110852767,
				"element": "H" 
			},
			{
				"x": -0.5611049706,
				"y": -1.9786428205,
				"z": 0.6898994098,
				"element": "H" 
			},
			{
				"x": -0.0801692901,
				"y": -0.3952460034,
				"z": 5.2257321919,
				"element": "H" 
			},
			{
				"x": -2.0856545575,
				"y": 1.036130878,
				"z": 5.5296737406,
				"element": "H" 
			},
			{
				"x": -3.5501103605,
				"y": 1.549368759,
				"z": 3.5780003904,
				"element": "H" 
			},
			{
				"x": -2.9913226264,
				"y": 0.6238545472,
				"z": 1.3489366532,
				"element": "H" 
			},
			{
				"x": -0.6654946035,
				"y": -2.1450291197,
				"z": -1.5683852922,
				"element": "H" 
			},
			{
				"x": 0.3071255482,
				"y": -2.619169519,
				"z": -3.7726342384,
				"element": "H" 
			},
			{
				"x": 2.1343112552,
				"y": -1.1841196409,
				"z": -4.6793106234,
				"element": "H" 
			},
			{
				"x": 2.9591196797,
				"y": 0.7428133135,
				"z": -3.3070725637,
				"element": "H" 
			}
		],
		 "valence_orbital": [ 
			{
				"type": "occ",
				"energy": -0.27958,
				"method": "rhf"
			},
			{
				"type": "occ",
				"energy": -0.26166,
				"method": "rhf"
			},
			{
				"type": "occ",
				"energy": -0.25873,
				"method": "rhf"
			},
			{
				"type": "occ",
				"energy": -0.25643,
				"method": "rhf"
			},
			{
				"type": "occ",
				"energy": -0.2412,
				"method": "rhf"
			},
			{
				"type": "unocc",
				"energy": -0.04142,
				"method": "rhf"
			},
			{
				"type": "unocc",
				"energy": -0.03953,
				"method": "rhf"
			},
			{
				"type": "unocc",
				"energy": -0.03006,
				"method": "rhf"
			},
			{
				"type": "unocc",
				"energy": -0.00623,
				"method": "rhf"
			},
			{
				"type": "unocc",
				"energy": -0.00341,
				"method": "rhf"
			}
		],
		"cosmo_sigma_profile": { 
			"-0.025": 0.0,
			"-0.024": 0.0,
			"-0.023": 0.0,
			"-0.022": 0.0,
			"-0.021": 0.0,
			"-0.02": 0.0,
			"-0.019": 0.0,
			"-0.018": 0.0,
			"-0.017": 0.0,
			"-0.016": 0.0,
			"-0.015": 0.0,
			"-0.014": 0.0,
			"-0.013": 0.0,
			"-0.012": 0.0,
			"-0.011": 0.0,
			"-0.01": 0.0,
			"-0.009": 0.132724378889,
			"-0.008": 5.32616706023,
			"-0.007": 15.3516268317,
			"-0.006": 19.6720718587,
			"-0.005": 21.5907892953,
			"-0.004": 21.2680630733,
			"-0.003": 17.4070959591,
			"-0.002": 17.6521905606,
			"-0.001": 17.5381729708,
			"0.0": 21.2137665153,
			"0.001": 24.2068738871,
			"0.002": 27.4799280849,
			"0.003": 30.4020546563,
			"0.004": 19.9344298294,
			"0.005": 3.85212307232,
			"0.006": 2.8159094614,
			"0.007": 2.02626203945,
			"0.008": 2.52576664603,
			"0.009": 2.71564248587,
			"0.01": 3.69132684259,
			"0.011": 4.8939354812,
			"0.012": 6.16216530085,
			"0.013": 3.10708136394,
			"0.014": 0.941016730765,
			"0.015": 0.0,
			"0.016": 0.0,
			"0.017": 0.0,
			"0.018": 0.0,
			"0.019": 0.0,
			"0.02": 0.0,
			"0.021": 0.0,
			"0.022": 0.0,
			"0.023": 0.0,
			"0.024": 0.0,
			"0.025": 0.0
		}
	}
}
