{
	 "smiles": "NC(=O)CC1CCCC1", 
	 "Tm": 423.15, 
	 "num_atms": 22, 
	 "gaussian": { 
		 "optdone": 1, 
		 "sigma_profile": "yes", 
		 "theory": "DFT", 
		 "functional": "B3LYP", 
		 "basiset": "6-31G**", 
		 "properties": { 
			 "R2extent": 1652.8205, 
			 "electric_dipole_moment_norm": 3.38424138176, 
			 "electric_quadrupole_moment_norm": 11.2579214303, 
			 "total_energy": -404.583803997, 
			 "HOMO_LUMO_gap": 0.27714, 
			 "cosmo_polarized_energy": -11.7, 
			 "cosmo_cavitation_energy": 23.65, 
			 "cosmo_dispersion_energy": -17.47, 
			 "cosmo_repulsion_energy": 1.48, 
			 "cosmo_total_nonelectrostatic_energy": 7.66, 
			 "SMD_solvation_energy": 4.11 
		},
		"coords": [
			{
				"x": 0.1795757836,
				"y": -1.0400999885,
				"z": -3.3559278,
				"element": "N" 
			},
			{
				"x": -0.0057188198,
				"y": -0.1104918432,
				"z": -2.3691149533,
				"element": "C" 
			},
			{
				"x": -1.0437418316,
				"y": 0.5290786973,
				"z": -2.269290658,
				"element": "O" 
			},
			{
				"x": 1.1860562007,
				"y": 0.0820082181,
				"z": -1.4299696717,
				"element": "C" 
			},
			{
				"x": 0.7767582103,
				"y": 0.5988530351,
				"z": -0.0505494338,
				"element": "C" 
			},
			{
				"x": 1.9572038924,
				"y": 0.962890734,
				"z": 0.8674689814,
				"element": "C" 
			},
			{
				"x": 1.3253350775,
				"y": 1.0828656161,
				"z": 2.272075221,
				"element": "C" 
			},
			{
				"x": 0.067164484,
				"y": 0.1600406074,
				"z": 2.2482305251,
				"element": "C" 
			},
			{
				"x": -0.0169575439,
				"y": -0.4034736183,
				"z": 0.8091090035,
				"element": "C" 
			},
			{
				"x": -0.555989496,
				"y": -1.1670745183,
				"z": -4.0342747665,
				"element": "H" 
			},
			{
				"x": 1.0342462597,
				"y": -1.5621625682,
				"z": -3.4564418802,
				"element": "H" 
			},
			{
				"x": 1.8603396386,
				"y": 0.8034262736,
				"z": -1.9131610823,
				"element": "H" 
			},
			{
				"x": 1.7520767486,
				"y": -0.8549868407,
				"z": -1.3362096654,
				"element": "H" 
			},
			{
				"x": 0.1525169825,
				"y": 1.4881953955,
				"z": -0.2045061864,
				"element": "H" 
			},
			{
				"x": 2.4795203513,
				"y": 1.8738928311,
				"z": 0.5548186134,
				"element": "H" 
			},
			{
				"x": 2.6942391401,
				"y": 0.147614325,
				"z": 0.8518257295,
				"element": "H" 
			},
			{
				"x": 1.0289952715,
				"y": 2.1200218598,
				"z": 2.4625441462,
				"element": "H" 
			},
			{
				"x": 2.0302129735,
				"y": 0.8086032832,
				"z": 3.0630319322,
				"element": "H" 
			},
			{
				"x": -0.8320123808,
				"y": 0.73718762,
				"z": 2.4871846768,
				"element": "H" 
			},
			{
				"x": 0.1298419825,
				"y": -0.6409727311,
				"z": 2.9913795574,
				"element": "H" 
			},
			{
				"x": -1.0436993978,
				"y": -0.5327223839,
				"z": 0.4567889876,
				"element": "H" 
			},
			{
				"x": 0.473336473,
				"y": -1.3861940039,
				"z": 0.7594887235,
				"element": "H" 
			}
		],
		 "valence_orbital": [ 
			{
				"type": "occ",
				"energy": -0.31299,
				"method": "rhf"
			},
			{
				"type": "occ",
				"energy": -0.31063,
				"method": "rhf"
			},
			{
				"type": "occ",
				"energy": -0.30722,
				"method": "rhf"
			},
			{
				"type": "occ",
				"energy": -0.26323,
				"method": "rhf"
			},
			{
				"type": "occ",
				"energy": -0.24276,
				"method": "rhf"
			},
			{
				"type": "unocc",
				"energy": 0.03438,
				"method": "rhf"
			},
			{
				"type": "unocc",
				"energy": 0.0744,
				"method": "rhf"
			},
			{
				"type": "unocc",
				"energy": 0.08821,
				"method": "rhf"
			},
			{
				"type": "unocc",
				"energy": 0.10315,
				"method": "rhf"
			},
			{
				"type": "unocc",
				"energy": 0.12104,
				"method": "rhf"
			}
		],
		"cosmo_sigma_profile": { 
			"-0.025": 0.0,
			"-0.024": 0.0,
			"-0.023": 0.0,
			"-0.022": 0.0,
			"-0.021": 0.0,
			"-0.02": 0.0,
			"-0.019": 0.0,
			"-0.018": 0.0,
			"-0.017": 0.0,
			"-0.016": 0.0,
			"-0.015": 0.012423769413,
			"-0.014": 0.968178191784,
			"-0.013": 2.55782069556,
			"-0.012": 2.30358717776,
			"-0.011": 2.1353525955,
			"-0.01": 2.38635390364,
			"-0.009": 2.71128089057,
			"-0.008": 1.96822701511,
			"-0.007": 2.16381217146,
			"-0.006": 2.29293277379,
			"-0.005": 3.99808651757,
			"-0.004": 4.99449742547,
			"-0.003": 8.52339131477,
			"-0.002": 23.6296200284,
			"-0.001": 27.4271152512,
			"0.0": 29.7658240727,
			"0.001": 19.5390059162,
			"0.002": 12.8133876074,
			"0.003": 2.98594406356,
			"0.004": 4.87644113358,
			"0.005": 2.59907782757,
			"0.006": 2.10327286745,
			"0.007": 1.40661174653,
			"0.008": 1.79135640574,
			"0.009": 1.79022133966,
			"0.01": 1.45346579112,
			"0.011": 1.12854162239,
			"0.012": 1.95187542588,
			"0.013": 2.14734649119,
			"0.014": 5.02386654338,
			"0.015": 2.86179202262,
			"0.016": 0.0240083830481,
			"0.017": 0.0,
			"0.018": 0.0,
			"0.019": 0.0,
			"0.02": 0.0,
			"0.021": 0.0,
			"0.022": 0.0,
			"0.023": 0.0,
			"0.024": 0.0,
			"0.025": 0.0
		}
	}
}
