{
	 "smiles": "COC1=CC(F)=C(O)C(F)=C1", 
	 "Tm": 342.15, 
	 "num_atms": 17, 
	 "gaussian": { 
		 "optdone": 1, 
		 "sigma_profile": "yes", 
		 "theory": "DFT", 
		 "functional": "B3LYP", 
		 "basiset": "6-31G**", 
		 "properties": { 
			 "R2extent": 2669.9109, 
			 "electric_dipole_moment_norm": 1.98725534343, 
			 "electric_quadrupole_moment_norm": 11.2264879865, 
			 "total_energy": -620.448704295, 
			 "HOMO_LUMO_gap": 0.20641, 
			 "cosmo_polarized_energy": -8.0, 
			 "cosmo_cavitation_energy": 22.28, 
			 "cosmo_dispersion_energy": -16.47, 
			 "cosmo_repulsion_energy": 1.28, 
			 "cosmo_total_nonelectrostatic_energy": 7.08, 
			 "SMD_solvation_energy": 5.98 
		},
		"coords": [
			{
				"x": 0.8477957311,
				"y": 0.3061660483,
				"z": -1.8566637845,
				"element": "C" 
			},
			{
				"x": 0.2710392059,
				"y": -0.5096726557,
				"z": -0.8490758969,
				"element": "O" 
			},
			{
				"x": -0.2186370638,
				"y": 0.0994253536,
				"z": 0.2688826575,
				"element": "C" 
			},
			{
				"x": -0.1924896782,
				"y": 1.4810958321,
				"z": 0.4934875059,
				"element": "C" 
			},
			{
				"x": -0.7241366769,
				"y": 1.9885688399,
				"z": 1.6768621208,
				"element": "C" 
			},
			{
				"x": -0.6969135479,
				"y": 3.3170513532,
				"z": 1.888728616,
				"element": "F" 
			},
			{
				"x": -1.2865253411,
				"y": 1.1731584925,
				"z": 2.6567223516,
				"element": "C" 
			},
			{
				"x": -1.7980441664,
				"y": 1.7011444436,
				"z": 3.8034399548,
				"element": "O" 
			},
			{
				"x": -1.2896105312,
				"y": -0.1985084211,
				"z": 2.3870040346,
				"element": "C" 
			},
			{
				"x": -1.8391665474,
				"y": -0.9910384401,
				"z": 3.3453059836,
				"element": "F" 
			},
			{
				"x": -0.7764257348,
				"y": -0.7553250156,
				"z": 1.2313078726,
				"element": "C" 
			},
			{
				"x": 1.717758882,
				"y": 0.8597798597,
				"z": -1.4803036559,
				"element": "H" 
			},
			{
				"x": 0.1197741728,
				"y": 1.0178060493,
				"z": -2.2671939212,
				"element": "H" 
			},
			{
				"x": 1.1694557756,
				"y": -0.373930444,
				"z": -2.6465340067,
				"element": "H" 
			},
			{
				"x": 0.2259064536,
				"y": 2.1817247118,
				"z": -0.2166389071,
				"element": "H" 
			},
			{
				"x": -2.1321154823,
				"y": 0.9640368043,
				"z": 4.3346066715,
				"element": "H" 
			},
			{
				"x": -0.8031654509,
				"y": -1.8258828119,
				"z": 1.0704624034,
				"element": "H" 
			}
		],
		 "valence_orbital": [ 
			{
				"type": "occ",
				"energy": -0.36524,
				"method": "rhf"
			},
			{
				"type": "occ",
				"energy": -0.34338,
				"method": "rhf"
			},
			{
				"type": "occ",
				"energy": -0.2997,
				"method": "rhf"
			},
			{
				"type": "occ",
				"energy": -0.25104,
				"method": "rhf"
			},
			{
				"type": "occ",
				"energy": -0.20997,
				"method": "rhf"
			},
			{
				"type": "unocc",
				"energy": -0.00356,
				"method": "rhf"
			},
			{
				"type": "unocc",
				"energy": 0.01401,
				"method": "rhf"
			},
			{
				"type": "unocc",
				"energy": 0.05293,
				"method": "rhf"
			},
			{
				"type": "unocc",
				"energy": 0.09563,
				"method": "rhf"
			},
			{
				"type": "unocc",
				"energy": 0.1019,
				"method": "rhf"
			}
		],
		"cosmo_sigma_profile": { 
			"-0.025": 0.0,
			"-0.024": 0.0,
			"-0.023": 0.0,
			"-0.022": 0.0,
			"-0.021": 0.0,
			"-0.02": 0.0,
			"-0.019": 0.0,
			"-0.018": 0.0,
			"-0.017": 0.0914994075217,
			"-0.016": 0.84932713897,
			"-0.015": 0.725734081526,
			"-0.014": 0.524382994766,
			"-0.013": 0.780452874555,
			"-0.012": 0.928636828482,
			"-0.011": 0.827056080156,
			"-0.01": 0.879731208874,
			"-0.009": 0.92188193909,
			"-0.008": 2.453711261,
			"-0.007": 5.47917107805,
			"-0.006": 8.45596666116,
			"-0.005": 11.8346723909,
			"-0.004": 10.6213545515,
			"-0.003": 12.3188967628,
			"-0.002": 7.65068187233,
			"-0.001": 7.32168041131,
			"0.0": 11.687634762,
			"0.001": 18.7590030008,
			"0.002": 16.7435696251,
			"0.003": 18.4860975892,
			"0.004": 16.7502080273,
			"0.005": 4.7491455691,
			"0.006": 4.05890233942,
			"0.007": 3.63445254607,
			"0.008": 2.82108471561,
			"0.009": 3.2700106332,
			"0.01": 3.51893981307,
			"0.011": 1.07518526812,
			"0.012": 0.0,
			"0.013": 0.0,
			"0.014": 0.0,
			"0.015": 0.0,
			"0.016": 0.0,
			"0.017": 0.0,
			"0.018": 0.0,
			"0.019": 0.0,
			"0.02": 0.0,
			"0.021": 0.0,
			"0.022": 0.0,
			"0.023": 0.0,
			"0.024": 0.0,
			"0.025": 0.0
		}
	}
}
