{
	 "smiles": "CCCCCCS(O)(=O)=O", 
	 "Tm": 289.25, 
	 "num_atms": 24, 
	 "gaussian": { 
		 "optdone": 1, 
		 "sigma_profile": "yes", 
		 "theory": "DFT", 
		 "functional": "B3LYP", 
		 "basiset": "6-31G**", 
		 "properties": { 
			 "R2extent": 3542.055, 
			 "electric_dipole_moment_norm": 3.69336361194, 
			 "electric_quadrupole_moment_norm": 20.8697177485, 
			 "total_energy": -860.887563577, 
			 "HOMO_LUMO_gap": 0.33431, 
			 "cosmo_polarized_energy": -13.47, 
			 "cosmo_cavitation_energy": 27.24, 
			 "cosmo_dispersion_energy": -20.07, 
			 "cosmo_repulsion_energy": 1.61, 
			 "cosmo_total_nonelectrostatic_energy": 8.78, 
			 "SMD_solvation_energy": 3.32 
		},
		"coords": [
			{
				"x": -2.0619558633,
				"y": 1.6875322535,
				"z": 1.9710092086,
				"element": "C" 
			},
			{
				"x": -0.9696778474,
				"y": 0.6631390692,
				"z": 1.6458135151,
				"element": "C" 
			},
			{
				"x": -0.562234046,
				"y": 0.6762521777,
				"z": 0.165612265,
				"element": "C" 
			},
			{
				"x": 0.4572854961,
				"y": -0.4025409399,
				"z": -0.2362850221,
				"element": "C" 
			},
			{
				"x": 1.8214920692,
				"y": -0.3422369441,
				"z": 0.4734021624,
				"element": "C" 
			},
			{
				"x": 2.6200904088,
				"y": 0.9576286046,
				"z": 0.3304361603,
				"element": "C" 
			},
			{
				"x": 3.313410564,
				"y": 1.2652788477,
				"z": -1.3129307066,
				"element": "S" 
			},
			{
				"x": 1.9593396978,
				"y": 1.8124465889,
				"z": -2.0868633603,
				"element": "O" 
			},
			{
				"x": 4.2610598415,
				"y": 2.3679825122,
				"z": -1.2094668866,
				"element": "O" 
			},
			{
				"x": 3.6909788301,
				"y": 0.0108207734,
				"z": -1.9685174704,
				"element": "O" 
			},
			{
				"x": -1.7317033618,
				"y": 2.706355681,
				"z": 1.7383224009,
				"element": "H" 
			},
			{
				"x": -2.9701697419,
				"y": 1.495312954,
				"z": 1.3886570701,
				"element": "H" 
			},
			{
				"x": -2.3341963439,
				"y": 1.6604442865,
				"z": 3.0310392231,
				"element": "H" 
			},
			{
				"x": -1.3184436755,
				"y": -0.3433906404,
				"z": 1.9155132968,
				"element": "H" 
			},
			{
				"x": -0.0952050072,
				"y": 0.8594737648,
				"z": 2.280326098,
				"element": "H" 
			},
			{
				"x": -0.1810940971,
				"y": 1.6703720174,
				"z": -0.1033540049,
				"element": "H" 
			},
			{
				"x": -1.4626944169,
				"y": 0.5351438652,
				"z": -0.447068766,
				"element": "H" 
			},
			{
				"x": 0.0286241032,
				"y": -1.3923255035,
				"z": -0.0316834422,
				"element": "H" 
			},
			{
				"x": 0.6126808386,
				"y": -0.3594222264,
				"z": -1.3193382005,
				"element": "H" 
			},
			{
				"x": 1.6849931657,
				"y": -0.4965655908,
				"z": 1.5504265653,
				"element": "H" 
			},
			{
				"x": 2.4475574628,
				"y": -1.168944962,
				"z": 0.1221993882,
				"element": "H" 
			},
			{
				"x": 3.5101380454,
				"y": 0.9441403867,
				"z": 0.9664771781,
				"element": "H" 
			},
			{
				"x": 2.0479359053,
				"y": 1.8558903706,
				"z": 0.576348682,
				"element": "H" 
			},
			{
				"x": 1.9661879725,
				"y": 1.4014126534,
				"z": -2.9680753542,
				"element": "H" 
			}
		],
		 "valence_orbital": [ 
			{
				"type": "occ",
				"energy": -0.3299,
				"method": "rhf"
			},
			{
				"type": "occ",
				"energy": -0.32603,
				"method": "rhf"
			},
			{
				"type": "occ",
				"energy": -0.31927,
				"method": "rhf"
			},
			{
				"type": "occ",
				"energy": -0.31418,
				"method": "rhf"
			},
			{
				"type": "occ",
				"energy": -0.3013,
				"method": "rhf"
			},
			{
				"type": "unocc",
				"energy": 0.03301,
				"method": "rhf"
			},
			{
				"type": "unocc",
				"energy": 0.05407,
				"method": "rhf"
			},
			{
				"type": "unocc",
				"energy": 0.0703,
				"method": "rhf"
			},
			{
				"type": "unocc",
				"energy": 0.0826,
				"method": "rhf"
			},
			{
				"type": "unocc",
				"energy": 0.0975,
				"method": "rhf"
			}
		],
		"cosmo_sigma_profile": { 
			"-0.025": 0.0,
			"-0.024": 0.0,
			"-0.023": 0.0,
			"-0.022": 0.0,
			"-0.021": 0.0,
			"-0.02": 0.19470491102,
			"-0.019": 1.07741411483,
			"-0.018": 0.797521458495,
			"-0.017": 0.744093464639,
			"-0.016": 0.582481449995,
			"-0.015": 0.802323714754,
			"-0.014": 0.508372407496,
			"-0.013": 1.25769831975,
			"-0.012": 1.10306386428,
			"-0.011": 0.161481647008,
			"-0.01": 0.740711875204,
			"-0.009": 2.50965227682,
			"-0.008": 4.55804613988,
			"-0.007": 4.04000463011,
			"-0.006": 5.25964017421,
			"-0.005": 8.69183398258,
			"-0.004": 10.1167452232,
			"-0.003": 12.6161592816,
			"-0.002": 23.3984775672,
			"-0.001": 27.6591309201,
			"0.0": 24.613738885,
			"0.001": 20.3188377032,
			"0.002": 10.3252992475,
			"0.003": 4.42327113267,
			"0.004": 3.48955047598,
			"0.005": 2.875114906,
			"0.006": 3.57282051021,
			"0.007": 3.69875076701,
			"0.008": 4.98700477672,
			"0.009": 5.4134931173,
			"0.01": 11.6377885775,
			"0.011": 8.66773871007,
			"0.012": 0.325994373716,
			"0.013": 0.0,
			"0.014": 0.0,
			"0.015": 0.0,
			"0.016": 0.0,
			"0.017": 0.0,
			"0.018": 0.0,
			"0.019": 0.0,
			"0.02": 0.0,
			"0.021": 0.0,
			"0.022": 0.0,
			"0.023": 0.0,
			"0.024": 0.0,
			"0.025": 0.0
		}
	}
}
