{
	 "smiles": "ClS(=O)(=O)C1=CC=CC2=NSN=C12", 
	 "Tm": 422.15, 
	 "num_atms": 16, 
	 "gaussian": { 
		 "optdone": 1, 
		 "sigma_profile": "yes", 
		 "theory": "DFT", 
		 "functional": "B3LYP", 
		 "basiset": "6-31G**", 
		 "properties": { 
			 "R2extent": 3977.8532, 
			 "electric_dipole_moment_norm": 5.2489214835, 
			 "electric_quadrupole_moment_norm": 8.03664236917, 
			 "total_energy": -1746.85548531, 
			 "HOMO_LUMO_gap": 0.15867, 
			 "cosmo_polarized_energy": -12.06, 
			 "cosmo_cavitation_energy": 26.01, 
			 "cosmo_dispersion_energy": -20.54, 
			 "cosmo_repulsion_energy": 1.51, 
			 "cosmo_total_nonelectrostatic_energy": 6.98, 
			 "SMD_solvation_energy": 0.06 
		},
		"coords": [
			{
				"x": 2.8068757092,
				"y": -0.5370938571,
				"z": 1.022361416,
				"element": "Cl" 
			},
			{
				"x": 1.4229450906,
				"y": -1.8374515704,
				"z": 0.0301689931,
				"element": "S" 
			},
			{
				"x": 1.8944391467,
				"y": -1.9554167804,
				"z": -1.3408595676,
				"element": "O" 
			},
			{
				"x": 1.2623313073,
				"y": -2.9923494253,
				"z": 0.8998648272,
				"element": "O" 
			},
			{
				"x": -0.0960695839,
				"y": -0.8655663634,
				"z": 0.0514394316,
				"element": "C" 
			},
			{
				"x": -0.2188785478,
				"y": 0.385659247,
				"z": 0.5960146302,
				"element": "C" 
			},
			{
				"x": -1.4677525294,
				"y": 1.0841630804,
				"z": 0.5672870196,
				"element": "C" 
			},
			{
				"x": -2.5905997589,
				"y": 0.5415933707,
				"z": -0.0004284104,
				"element": "C" 
			},
			{
				"x": -2.494410325,
				"y": -0.7577534035,
				"z": -0.574896989,
				"element": "C" 
			},
			{
				"x": -3.4831521556,
				"y": -1.4380768986,
				"z": -1.1681916362,
				"element": "N" 
			},
			{
				"x": -2.8400489163,
				"y": -2.8673040761,
				"z": -1.6498700143,
				"element": "S" 
			},
			{
				"x": -1.2950930052,
				"y": -2.6840080757,
				"z": -1.1282555908,
				"element": "N" 
			},
			{
				"x": -1.2367943329,
				"y": -1.4808471038,
				"z": -0.5550992364,
				"element": "C" 
			},
			{
				"x": 0.6363666597,
				"y": 0.8625620593,
				"z": 1.0579980547,
				"element": "H" 
			},
			{
				"x": -1.5075279805,
				"y": 2.072301938,
				"z": 1.013642111,
				"element": "H" 
			},
			{
				"x": -3.5382307778,
				"y": 1.0676878588,
				"z": -0.0238750385,
				"element": "H" 
			}
		],
		 "valence_orbital": [ 
			{
				"type": "occ",
				"energy": -0.33163,
				"method": "rhf"
			},
			{
				"type": "occ",
				"energy": -0.3231,
				"method": "rhf"
			},
			{
				"type": "occ",
				"energy": -0.31777,
				"method": "rhf"
			},
			{
				"type": "occ",
				"energy": -0.29598,
				"method": "rhf"
			},
			{
				"type": "occ",
				"energy": -0.27721,
				"method": "rhf"
			},
			{
				"type": "unocc",
				"energy": -0.11854,
				"method": "rhf"
			},
			{
				"type": "unocc",
				"energy": -0.08898,
				"method": "rhf"
			},
			{
				"type": "unocc",
				"energy": -0.03666,
				"method": "rhf"
			},
			{
				"type": "unocc",
				"energy": -0.02464,
				"method": "rhf"
			},
			{
				"type": "unocc",
				"energy": -0.01208,
				"method": "rhf"
			}
		],
		"cosmo_sigma_profile": { 
			"-0.025": 0.0,
			"-0.024": 0.0,
			"-0.023": 0.0,
			"-0.022": 0.0,
			"-0.021": 0.0,
			"-0.02": 0.0,
			"-0.019": 0.0,
			"-0.018": 0.0,
			"-0.017": 0.0,
			"-0.016": 0.0,
			"-0.015": 0.0,
			"-0.014": 0.0,
			"-0.013": 0.0,
			"-0.012": 0.0,
			"-0.011": 0.0,
			"-0.01": 0.209424227735,
			"-0.009": 3.99702071505,
			"-0.008": 7.41889303355,
			"-0.007": 5.80168592795,
			"-0.006": 9.35747762312,
			"-0.005": 12.1109124952,
			"-0.004": 16.1747641988,
			"-0.003": 20.4071486871,
			"-0.002": 22.0453056396,
			"-0.001": 16.5493078937,
			"0.0": 14.0272407582,
			"0.001": 11.1761119174,
			"0.002": 10.8700457265,
			"0.003": 14.021647558,
			"0.004": 5.55527460536,
			"0.005": 5.84141870742,
			"0.006": 5.69350695033,
			"0.007": 12.6497173713,
			"0.008": 15.3028974985,
			"0.009": 4.13322421766,
			"0.01": 1.45021504266,
			"0.011": 1.02669812291,
			"0.012": 0.387924453957,
			"0.013": 0.0,
			"0.014": 0.0,
			"0.015": 0.0,
			"0.016": 0.0,
			"0.017": 0.0,
			"0.018": 0.0,
			"0.019": 0.0,
			"0.02": 0.0,
			"0.021": 0.0,
			"0.022": 0.0,
			"0.023": 0.0,
			"0.024": 0.0,
			"0.025": 0.0
		}
	}
}
