{
	 "smiles": "CN1NC(=O)C2=C(C)C(CN)=C(C)N=C12", 
	 "Tm": 585.15, 
	 "num_atms": 29, 
	 "gaussian": { 
		 "optdone": 1, 
		 "sigma_profile": "yes", 
		 "theory": "DFT", 
		 "functional": "B3LYP", 
		 "basiset": "6-31G**", 
		 "properties": { 
			 "R2extent": 3395.2081, 
			 "electric_dipole_moment_norm": 2.78776297952, 
			 "electric_quadrupole_moment_norm": 8.88930562136, 
			 "total_energy": -683.726181058, 
			 "HOMO_LUMO_gap": 0.16577, 
			 "cosmo_polarized_energy": -16.79, 
			 "cosmo_cavitation_energy": 31.29, 
			 "cosmo_dispersion_energy": -22.75, 
			 "cosmo_repulsion_energy": 1.77, 
			 "cosmo_total_nonelectrostatic_energy": 10.31, 
			 "SMD_solvation_energy": 2.64 
		},
		"coords": [
			{
				"x": 2.7053670867,
				"y": 0.9602409494,
				"z": -1.7336123662,
				"element": "C" 
			},
			{
				"x": 1.9995933346,
				"y": -0.1309604962,
				"z": -1.0679325475,
				"element": "N" 
			},
			{
				"x": 2.7498411504,
				"y": -0.8408981261,
				"z": -0.0901686882,
				"element": "N" 
			},
			{
				"x": 1.9149485771,
				"y": -1.3134093506,
				"z": 0.9426226558,
				"element": "C" 
			},
			{
				"x": 2.262969032,
				"y": -2.1353605168,
				"z": 1.7802387263,
				"element": "O" 
			},
			{
				"x": 0.6424334086,
				"y": -0.6147365436,
				"z": 0.7207256378,
				"element": "C" 
			},
			{
				"x": -0.5629590069,
				"y": -0.5583500691,
				"z": 1.4293827912,
				"element": "C" 
			},
			{
				"x": -0.7302319537,
				"y": -1.350391225,
				"z": 2.7038434725,
				"element": "C" 
			},
			{
				"x": -1.5721022671,
				"y": 0.2645462079,
				"z": 0.8907393882,
				"element": "C" 
			},
			{
				"x": -2.9030999838,
				"y": 0.4285837607,
				"z": 1.6116895277,
				"element": "C" 
			},
			{
				"x": -2.9794254509,
				"y": 1.5167171953,
				"z": 2.604307206,
				"element": "N" 
			},
			{
				"x": -1.3114409834,
				"y": 0.9797707827,
				"z": -0.3106051766,
				"element": "C" 
			},
			{
				"x": -2.352321765,
				"y": 1.8866919002,
				"z": -0.9278896199,
				"element": "C" 
			},
			{
				"x": -0.155464674,
				"y": 0.9117062895,
				"z": -0.9933450596,
				"element": "N" 
			},
			{
				"x": 0.7646726145,
				"y": 0.1033839551,
				"z": -0.4751842853,
				"element": "C" 
			},
			{
				"x": 1.9782364068,
				"y": 1.4799600368,
				"z": -2.3582090094,
				"element": "H" 
			},
			{
				"x": 3.4967903253,
				"y": 0.5531811436,
				"z": -2.3682988637,
				"element": "H" 
			},
			{
				"x": 3.1428320084,
				"y": 1.6627762958,
				"z": -1.0125331223,
				"element": "H" 
			},
			{
				"x": 3.4209435946,
				"y": -1.4993193554,
				"z": -0.470328069,
				"element": "H" 
			},
			{
				"x": -1.5346297013,
				"y": -2.0879844556,
				"z": 2.6027822897,
				"element": "H" 
			},
			{
				"x": -0.9952346661,
				"y": -0.704686477,
				"z": 3.5481716743,
				"element": "H" 
			},
			{
				"x": 0.1926017913,
				"y": -1.8798897359,
				"z": 2.9438062006,
				"element": "H" 
			},
			{
				"x": -3.1565709957,
				"y": -0.5002831368,
				"z": 2.1307928967,
				"element": "H" 
			},
			{
				"x": -3.7054798713,
				"y": 0.5924889714,
				"z": 0.8869144108,
				"element": "H" 
			},
			{
				"x": -2.7573292506,
				"y": 2.4036777575,
				"z": 2.1568736104,
				"element": "H" 
			},
			{
				"x": -2.2608657372,
				"y": 1.3817719342,
				"z": 3.3125254064,
				"element": "H" 
			},
			{
				"x": -3.2295777665,
				"y": 1.320846947,
				"z": -1.2625947035,
				"element": "H" 
			},
			{
				"x": -1.9166905707,
				"y": 2.3886495581,
				"z": -1.7924524018,
				"element": "H" 
			},
			{
				"x": -2.7113046861,
				"y": 2.6465758027,
				"z": -0.2254619819,
				"element": "H" 
			}
		],
		 "valence_orbital": [ 
			{
				"type": "occ",
				"energy": -0.27703,
				"method": "rhf"
			},
			{
				"type": "occ",
				"energy": -0.2643,
				"method": "rhf"
			},
			{
				"type": "occ",
				"energy": -0.24646,
				"method": "rhf"
			},
			{
				"type": "occ",
				"energy": -0.24138,
				"method": "rhf"
			},
			{
				"type": "occ",
				"energy": -0.2109,
				"method": "rhf"
			},
			{
				"type": "unocc",
				"energy": -0.04513,
				"method": "rhf"
			},
			{
				"type": "unocc",
				"energy": -0.01252,
				"method": "rhf"
			},
			{
				"type": "unocc",
				"energy": 0.0459,
				"method": "rhf"
			},
			{
				"type": "unocc",
				"energy": 0.07022,
				"method": "rhf"
			},
			{
				"type": "unocc",
				"energy": 0.09021,
				"method": "rhf"
			}
		],
		"cosmo_sigma_profile": { 
			"-0.025": 0.0,
			"-0.024": 0.0,
			"-0.023": 0.0,
			"-0.022": 0.0,
			"-0.021": 0.0,
			"-0.02": 0.0,
			"-0.019": 0.0,
			"-0.018": 0.0,
			"-0.017": 0.0,
			"-0.016": 0.215983084944,
			"-0.015": 1.13047935075,
			"-0.014": 1.39483945894,
			"-0.013": 1.13311210308,
			"-0.012": 0.754021588606,
			"-0.011": 0.614643845744,
			"-0.01": 1.25267866286,
			"-0.009": 4.83339844408,
			"-0.008": 4.99577182257,
			"-0.007": 6.99235613245,
			"-0.006": 8.82660843841,
			"-0.005": 17.634021158,
			"-0.004": 19.2869188855,
			"-0.003": 20.8771503416,
			"-0.002": 21.0948419583,
			"-0.001": 22.1256575563,
			"0.0": 22.538866906,
			"0.001": 16.2254270351,
			"0.002": 11.9275255601,
			"0.003": 7.67265180339,
			"0.004": 6.55960008416,
			"0.005": 7.22894933765,
			"0.006": 5.28434677606,
			"0.007": 4.8676242839,
			"0.008": 4.37586027566,
			"0.009": 3.70764218517,
			"0.01": 3.08007589852,
			"0.011": 2.988869895,
			"0.012": 3.71661789417,
			"0.013": 6.07016618311,
			"0.014": 3.41864862949,
			"0.015": 0.897283697297,
			"0.016": 0.383819091651,
			"0.017": 0.697692347942,
			"0.018": 0.786113236674,
			"0.019": 0.627910041318,
			"0.02": 0.22262474552,
			"0.021": 0.0,
			"0.022": 0.0,
			"0.023": 0.0,
			"0.024": 0.0,
			"0.025": 0.0
		}
	}
}
