{
	 "smiles": "COP(=O)(CN1C(=O)C2=CC=CC=C2C1=O)OC", 
	 "Tm": 390.65, 
	 "num_atms": 30, 
	 "gaussian": { 
		 "optdone": 1, 
		 "sigma_profile": "yes", 
		 "theory": "DFT", 
		 "functional": "B3LYP", 
		 "basiset": "6-31G**", 
		 "properties": { 
			 "R2extent": 5404.8018, 
			 "electric_dipole_moment_norm": 2.01885100243, 
			 "electric_quadrupole_moment_norm": 23.2576606678, 
			 "total_energy": -1198.7067712, 
			 "HOMO_LUMO_gap": 0.18035, 
			 "cosmo_polarized_energy": -17.18, 
			 "cosmo_cavitation_energy": 36.59, 
			 "cosmo_dispersion_energy": -25.34, 
			 "cosmo_repulsion_energy": 1.91, 
			 "cosmo_total_nonelectrostatic_energy": 13.17, 
			 "SMD_solvation_energy": 10.16 
		},
		"coords": [
			{
				"x": -2.9222009775,
				"y": 0.8066323349,
				"z": 3.229485196,
				"element": "C" 
			},
			{
				"x": -2.3776921444,
				"y": -0.0128407283,
				"z": 2.1782222817,
				"element": "O" 
			},
			{
				"x": -1.4256035956,
				"y": 0.6647146375,
				"z": 1.0654527515,
				"element": "P" 
			},
			{
				"x": -0.1754344552,
				"y": 1.3306508784,
				"z": 1.5103507057,
				"element": "O" 
			},
			{
				"x": -1.1739587932,
				"y": -0.8170047067,
				"z": -0.0166840885,
				"element": "C" 
			},
			{
				"x": 0.158792135,
				"y": -0.8737499235,
				"z": -0.5699617146,
				"element": "N" 
			},
			{
				"x": 0.6105017627,
				"y": -0.069763714,
				"z": -1.6236037298,
				"element": "C" 
			},
			{
				"x": -0.0771512415,
				"y": 0.7215659923,
				"z": -2.242576094,
				"element": "O" 
			},
			{
				"x": 2.0522024052,
				"y": -0.4087759615,
				"z": -1.7990815275,
				"element": "C" 
			},
			{
				"x": 2.9804243692,
				"y": 0.0742655225,
				"z": -2.7094267092,
				"element": "C" 
			},
			{
				"x": 4.2846712073,
				"y": -0.4324674857,
				"z": -2.6300125862,
				"element": "C" 
			},
			{
				"x": 4.6315677407,
				"y": -1.3892968949,
				"z": -1.6677389714,
				"element": "C" 
			},
			{
				"x": 3.6857179948,
				"y": -1.8718045561,
				"z": -0.7529610893,
				"element": "C" 
			},
			{
				"x": 2.3983472051,
				"y": -1.3632568433,
				"z": -0.8391194625,
				"element": "C" 
			},
			{
				"x": 1.1868945568,
				"y": -1.6710198463,
				"z": -0.0251412163,
				"element": "C" 
			},
			{
				"x": 1.0512715714,
				"y": -2.4435083121,
				"z": 0.900009717,
				"element": "O" 
			},
			{
				"x": -2.4891419553,
				"y": 1.6317677547,
				"z": 0.3178325649,
				"element": "O" 
			},
			{
				"x": -2.0213461838,
				"y": 2.760930721,
				"z": -0.4517155014,
				"element": "C" 
			},
			{
				"x": -3.6204197301,
				"y": 1.5396851296,
				"z": 2.8158352248,
				"element": "H" 
			},
			{
				"x": -2.1209758204,
				"y": 1.3180554045,
				"z": 3.7704086504,
				"element": "H" 
			},
			{
				"x": -3.4497583046,
				"y": 0.1321414549,
				"z": 3.9048934616,
				"element": "H" 
			},
			{
				"x": -1.3086925306,
				"y": -1.704036264,
				"z": 0.6061614768,
				"element": "H" 
			},
			{
				"x": -1.9159966555,
				"y": -0.8121042706,
				"z": -0.8186631973,
				"element": "H" 
			},
			{
				"x": 2.7012151768,
				"y": 0.816609256,
				"z": -3.4500035719,
				"element": "H" 
			},
			{
				"x": 5.0405945122,
				"y": -0.0777171108,
				"z": -3.3241651875,
				"element": "H" 
			},
			{
				"x": 5.6510825037,
				"y": -1.7612030226,
				"z": -1.6307219972,
				"element": "H" 
			},
			{
				"x": 3.9434847336,
				"y": -2.611780421,
				"z": -0.0023428077,
				"element": "H" 
			},
			{
				"x": -1.2824214351,
				"y": 3.3301710236,
				"z": 0.1172084162,
				"element": "H" 
			},
			{
				"x": -2.8995503417,
				"y": 3.377780466,
				"z": -0.6492063044,
				"element": "H" 
			},
			{
				"x": -1.5803237101,
				"y": 2.4180594855,
				"z": -1.3905346899,
				"element": "H" 
			}
		],
		 "valence_orbital": [ 
			{
				"type": "occ",
				"energy": -0.28436,
				"method": "rhf"
			},
			{
				"type": "occ",
				"energy": -0.28208,
				"method": "rhf"
			},
			{
				"type": "occ",
				"energy": -0.27866,
				"method": "rhf"
			},
			{
				"type": "occ",
				"energy": -0.27206,
				"method": "rhf"
			},
			{
				"type": "occ",
				"energy": -0.2641,
				"method": "rhf"
			},
			{
				"type": "unocc",
				"energy": -0.08375,
				"method": "rhf"
			},
			{
				"type": "unocc",
				"energy": -0.04206,
				"method": "rhf"
			},
			{
				"type": "unocc",
				"energy": 0.02674,
				"method": "rhf"
			},
			{
				"type": "unocc",
				"energy": 0.06258,
				"method": "rhf"
			},
			{
				"type": "unocc",
				"energy": 0.06804,
				"method": "rhf"
			}
		],
		"cosmo_sigma_profile": { 
			"-0.025": 0.0,
			"-0.024": 0.0,
			"-0.023": 0.0,
			"-0.022": 0.0,
			"-0.021": 0.0,
			"-0.02": 0.0,
			"-0.019": 0.0,
			"-0.018": 0.0,
			"-0.017": 0.0,
			"-0.016": 0.0,
			"-0.015": 0.0,
			"-0.014": 0.0,
			"-0.013": 0.0,
			"-0.012": 0.0,
			"-0.011": 0.0,
			"-0.01": 0.0,
			"-0.009": 0.565820830894,
			"-0.008": 4.7990565384,
			"-0.007": 12.1884857649,
			"-0.006": 21.9829421171,
			"-0.005": 22.8612469403,
			"-0.004": 25.1570182039,
			"-0.003": 27.1854062118,
			"-0.002": 19.119640165,
			"-0.001": 21.0106539706,
			"0.0": 19.6447113547,
			"0.001": 21.6411712805,
			"0.002": 20.1077050387,
			"0.003": 10.2117789488,
			"0.004": 8.31895769511,
			"0.005": 7.06446576396,
			"0.006": 6.42479441924,
			"0.007": 5.62536929874,
			"0.008": 6.57064485063,
			"0.009": 5.29755659426,
			"0.01": 7.74880924836,
			"0.011": 6.6038289631,
			"0.012": 1.95931128998,
			"0.013": 1.9092636452,
			"0.014": 4.82312091969,
			"0.015": 0.922095822062,
			"0.016": 0.0,
			"0.017": 0.0,
			"0.018": 0.0,
			"0.019": 0.0,
			"0.02": 0.0,
			"0.021": 0.0,
			"0.022": 0.0,
			"0.023": 0.0,
			"0.024": 0.0,
			"0.025": 0.0
		}
	}
}
