{
	 "smiles": "CCOC(=O)C1=C(C)OC(N)=C(C1C1=CC=C(Cl)C=C1)C1=NC2=C(S1)C=CC=C2", 
	 "Tm": 462.15, 
	 "num_atms": 48, 
	 "gaussian": { 
		 "optdone": 1, 
		 "sigma_profile": "yes", 
		 "theory": "DFT", 
		 "functional": "B3LYP", 
		 "basiset": "6-31G**", 
		 "properties": { 
			 "R2extent": 15301.9855, 
			 "electric_dipole_moment_norm": 5.41466061079, 
			 "electric_quadrupole_moment_norm": 32.0992308651, 
			 "total_energy": -2043.35850119, 
			 "HOMO_LUMO_gap": 0.14678, 
			 "cosmo_polarized_energy": -19.29, 
			 "cosmo_cavitation_energy": 54.83, 
			 "cosmo_dispersion_energy": -37.97, 
			 "cosmo_repulsion_energy": 2.89, 
			 "cosmo_total_nonelectrostatic_energy": 19.75, 
			 "SMD_solvation_energy": 8.74 
		},
		"coords": [
			{
				"x": -0.2052154367,
				"y": -6.0363853535,
				"z": 0.433342214,
				"element": "C" 
			},
			{
				"x": -0.8651576983,
				"y": -4.6712091763,
				"z": 0.3912711329,
				"element": "C" 
			},
			{
				"x": 0.1845166764,
				"y": -3.6769010131,
				"z": 0.4531733894,
				"element": "O" 
			},
			{
				"x": -0.2340388093,
				"y": -2.3887113208,
				"z": 0.4244365479,
				"element": "C" 
			},
			{
				"x": -1.4127819956,
				"y": -2.0927966861,
				"z": 0.3392324618,
				"element": "O" 
			},
			{
				"x": 0.8410314886,
				"y": -1.365963088,
				"z": 0.4776899867,
				"element": "C" 
			},
			{
				"x": 2.1648853262,
				"y": -1.6155828104,
				"z": 0.5662309013,
				"element": "C" 
			},
			{
				"x": 2.9292380745,
				"y": -2.8941013203,
				"z": 0.7178919756,
				"element": "C" 
			},
			{
				"x": 3.0713979054,
				"y": -0.5685929816,
				"z": 0.5233685119,
				"element": "O" 
			},
			{
				"x": 2.6988977277,
				"y": 0.6529700722,
				"z": 0.0223605621,
				"element": "C" 
			},
			{
				"x": 3.8209627679,
				"y": 1.3811463173,
				"z": -0.2956990402,
				"element": "N" 
			},
			{
				"x": 1.3924700753,
				"y": 0.9921847808,
				"z": -0.1405609846,
				"element": "C" 
			},
			{
				"x": 0.3269823206,
				"y": 0.0684817282,
				"z": 0.4340478781,
				"element": "C" 
			},
			{
				"x": -0.1816677695,
				"y": 0.5218668589,
				"z": 1.8086168668,
				"element": "C" 
			},
			{
				"x": 0.6896093807,
				"y": 0.6621219176,
				"z": 2.8961535675,
				"element": "C" 
			},
			{
				"x": 0.2270170299,
				"y": 1.0660488918,
				"z": 4.1479595556,
				"element": "C" 
			},
			{
				"x": -1.1315196657,
				"y": 1.3327566475,
				"z": 4.3118509231,
				"element": "C" 
			},
			{
				"x": -1.7282158893,
				"y": 1.8444609335,
				"z": 5.8887781698,
				"element": "Cl" 
			},
			{
				"x": -2.022710706,
				"y": 1.2000937585,
				"z": 3.2493184998,
				"element": "C" 
			},
			{
				"x": -1.5394566048,
				"y": 0.7942710609,
				"z": 2.0051033108,
				"element": "C" 
			},
			{
				"x": 0.9248897176,
				"y": 2.1954907601,
				"z": -0.7941849934,
				"element": "C" 
			},
			{
				"x": -0.3347233669,
				"y": 2.5342272065,
				"z": -0.8168487323,
				"element": "N" 
			},
			{
				"x": -0.5531037448,
				"y": 3.6992028233,
				"z": -1.5224455704,
				"element": "C" 
			},
			{
				"x": 0.6002317876,
				"y": 4.3069331078,
				"z": -2.0764594101,
				"element": "C" 
			},
			{
				"x": 2.0039893351,
				"y": 3.3294653055,
				"z": -1.6981046854,
				"element": "S" 
			},
			{
				"x": 0.5233626791,
				"y": 5.4932582374,
				"z": -2.8080023923,
				"element": "C" 
			},
			{
				"x": -0.7300586782,
				"y": 6.0770019094,
				"z": -2.9833376151,
				"element": "C" 
			},
			{
				"x": -1.8833907303,
				"y": 5.4853474733,
				"z": -2.440423629,
				"element": "C" 
			},
			{
				"x": -1.8059645831,
				"y": 4.3032780004,
				"z": -1.7135293253,
				"element": "C" 
			},
			{
				"x": 0.3573421614,
				"y": -6.1739718367,
				"z": 1.3616152881,
				"element": "H" 
			},
			{
				"x": -0.9697009314,
				"y": -6.8176289253,
				"z": 0.378902824,
				"element": "H" 
			},
			{
				"x": 0.4795395539,
				"y": -6.1679478464,
				"z": -0.4095509477,
				"element": "H" 
			},
			{
				"x": -1.4387498505,
				"y": -4.5197985868,
				"z": -0.5281631802,
				"element": "H" 
			},
			{
				"x": -1.5480201793,
				"y": -4.5172132277,
				"z": 1.2323324602,
				"element": "H" 
			},
			{
				"x": 3.358763615,
				"y": -3.1960870222,
				"z": -0.2450876702,
				"element": "H" 
			},
			{
				"x": 3.7623002206,
				"y": -2.7251590715,
				"z": 1.4070882295,
				"element": "H" 
			},
			{
				"x": 2.299386313,
				"y": -3.6981037903,
				"z": 1.0843035257,
				"element": "H" 
			},
			{
				"x": 4.6904513716,
				"y": 0.9460515115,
				"z": -0.0212852536,
				"element": "H" 
			},
			{
				"x": 3.7804058865,
				"y": 2.379325332,
				"z": -0.1384228756,
				"element": "H" 
			},
			{
				"x": -0.5308530403,
				"y": 0.092347201,
				"z": -0.2394189446,
				"element": "H" 
			},
			{
				"x": 1.7489900907,
				"y": 0.4543918319,
				"z": 2.7729256271,
				"element": "H" 
			},
			{
				"x": 0.9078737221,
				"y": 1.172894073,
				"z": 4.9854259111,
				"element": "H" 
			},
			{
				"x": -3.0767358218,
				"y": 1.4111535161,
				"z": 3.3930019366,
				"element": "H" 
			},
			{
				"x": -2.2270787938,
				"y": 0.6855251152,
				"z": 1.1732957873,
				"element": "H" 
			},
			{
				"x": 1.4123344452,
				"y": 5.9513879144,
				"z": -3.2299300705,
				"element": "H" 
			},
			{
				"x": -0.8136047233,
				"y": 7.0014501204,
				"z": -3.5468900026,
				"element": "H" 
			},
			{
				"x": -2.8484723652,
				"y": 5.9597279232,
				"z": -2.5918140731,
				"element": "H" 
			},
			{
				"x": -2.6883482887,
				"y": 3.8357917271,
				"z": -1.2892586486,
				"element": "H" 
			}
		],
		 "valence_orbital": [ 
			{
				"type": "occ",
				"energy": -0.24976,
				"method": "rhf"
			},
			{
				"type": "occ",
				"energy": -0.24609,
				"method": "rhf"
			},
			{
				"type": "occ",
				"energy": -0.22916,
				"method": "rhf"
			},
			{
				"type": "occ",
				"energy": -0.22674,
				"method": "rhf"
			},
			{
				"type": "occ",
				"energy": -0.19946,
				"method": "rhf"
			},
			{
				"type": "unocc",
				"energy": -0.05268,
				"method": "rhf"
			},
			{
				"type": "unocc",
				"energy": -0.02691,
				"method": "rhf"
			},
			{
				"type": "unocc",
				"energy": -0.00135,
				"method": "rhf"
			},
			{
				"type": "unocc",
				"energy": -5e-05,
				"method": "rhf"
			},
			{
				"type": "unocc",
				"energy": 0.00381,
				"method": "rhf"
			}
		],
		"cosmo_sigma_profile": { 
			"-0.025": 0.0,
			"-0.024": 0.0,
			"-0.023": 0.0,
			"-0.022": 0.0,
			"-0.021": 0.0,
			"-0.02": 0.0,
			"-0.019": 0.0,
			"-0.018": 0.0,
			"-0.017": 0.0,
			"-0.016": 0.0,
			"-0.015": 0.285243319148,
			"-0.014": 1.15165949717,
			"-0.013": 1.9382543545,
			"-0.012": 2.59506301473,
			"-0.011": 3.05179685528,
			"-0.01": 1.59894894713,
			"-0.009": 1.99730880164,
			"-0.008": 1.91640804404,
			"-0.007": 5.73274587296,
			"-0.006": 15.8847091545,
			"-0.005": 25.5014245994,
			"-0.004": 33.6762813485,
			"-0.003": 34.2153180829,
			"-0.002": 37.1117827032,
			"-0.001": 36.8476074524,
			"0.0": 34.8112133168,
			"0.001": 34.522841956,
			"0.002": 34.8874053722,
			"0.003": 34.9957660566,
			"0.004": 37.1514643346,
			"0.005": 29.6787621244,
			"0.006": 8.1525381059,
			"0.007": 5.86877960053,
			"0.008": 5.23675808898,
			"0.009": 4.80175031635,
			"0.01": 2.54562196137,
			"0.011": 2.65246570252,
			"0.012": 2.33864509375,
			"0.013": 0.745500592306,
			"0.014": 0.0,
			"0.015": 0.0,
			"0.016": 0.0,
			"0.017": 0.0,
			"0.018": 0.0,
			"0.019": 0.0,
			"0.02": 0.0,
			"0.021": 0.0,
			"0.022": 0.0,
			"0.023": 0.0,
			"0.024": 0.0,
			"0.025": 0.0
		}
	}
}
