{
	 "smiles": "FC1=CC=C(C=C1)N1C(S)=NC2=C1C=CC=C2", 
	 "Tm": 511.15, 
	 "num_atms": 26, 
	 "gaussian": { 
		 "optdone": 1, 
		 "sigma_profile": "yes", 
		 "theory": "DFT", 
		 "functional": "B3LYP", 
		 "basiset": "6-31G**", 
		 "properties": { 
			 "R2extent": 4896.5111, 
			 "electric_dipole_moment_norm": 3.69450667072, 
			 "electric_quadrupole_moment_norm": 14.2545803611, 
			 "total_energy": -1108.33337279, 
			 "HOMO_LUMO_gap": 0.17542, 
			 "cosmo_polarized_energy": -11.84, 
			 "cosmo_cavitation_energy": 32.76, 
			 "cosmo_dispersion_energy": -23.52, 
			 "cosmo_repulsion_energy": 1.74, 
			 "cosmo_total_nonelectrostatic_energy": 10.98, 
			 "SMD_solvation_energy": 3.42 
		},
		"coords": [
			{
				"x": -2.5597713731,
				"y": 0.3686509919,
				"z": -4.2019083958,
				"element": "F" 
			},
			{
				"x": -2.0044315602,
				"y": 0.3928665702,
				"z": -2.9764445582,
				"element": "C" 
			},
			{
				"x": -2.2945110578,
				"y": 1.4556222827,
				"z": -2.1267414579,
				"element": "C" 
			},
			{
				"x": -1.7106905268,
				"y": 1.480939513,
				"z": -0.8611676928,
				"element": "C" 
			},
			{
				"x": -0.8656980567,
				"y": 0.4398845243,
				"z": -0.4553975356,
				"element": "C" 
			},
			{
				"x": -0.5909784572,
				"y": -0.621044769,
				"z": -1.3277400885,
				"element": "C" 
			},
			{
				"x": -1.1578071258,
				"y": -0.6456145383,
				"z": -2.60041976,
				"element": "C" 
			},
			{
				"x": -0.2626257867,
				"y": 0.4676908026,
				"z": 0.8359119408,
				"element": "N" 
			},
			{
				"x": -0.8610563717,
				"y": 0.2903261606,
				"z": 2.083338224,
				"element": "C" 
			},
			{
				"x": -2.581284183,
				"y": -0.0297120169,
				"z": 2.3373673088,
				"element": "S" 
			},
			{
				"x": -0.0302432436,
				"y": 0.3711972915,
				"z": 3.0867375741,
				"element": "N" 
			},
			{
				"x": 1.2087836712,
				"y": 0.6151438675,
				"z": 2.5095169232,
				"element": "C" 
			},
			{
				"x": 1.0952299226,
				"y": 0.6740902352,
				"z": 1.1027882173,
				"element": "C" 
			},
			{
				"x": 2.1857029469,
				"y": 0.9124002324,
				"z": 0.2673359367,
				"element": "C" 
			},
			{
				"x": 3.4218533926,
				"y": 1.0877291052,
				"z": 0.8888974777,
				"element": "C" 
			},
			{
				"x": 3.5556898634,
				"y": 1.0289387282,
				"z": 2.2893029558,
				"element": "C" 
			},
			{
				"x": 2.4583087418,
				"y": 0.7946372072,
				"z": 3.1139310586,
				"element": "C" 
			},
			{
				"x": -2.9544638611,
				"y": 2.2473432874,
				"z": -2.463403624,
				"element": "H" 
			},
			{
				"x": -1.9027134272,
				"y": 2.3071115821,
				"z": -0.1844446815,
				"element": "H" 
			},
			{
				"x": 0.0639768432,
				"y": -1.4223196211,
				"z": -1.0018151952,
				"element": "H" 
			},
			{
				"x": -0.9606184692,
				"y": -1.454933637,
				"z": -3.2945740591,
				"element": "H" 
			},
			{
				"x": -2.9043861049,
				"y": -0.1339501805,
				"z": 1.0335133005,
				"element": "H" 
			},
			{
				"x": 2.0804154715,
				"y": 0.9611517257,
				"z": -0.8116644751,
				"element": "H" 
			},
			{
				"x": 4.2996934857,
				"y": 1.2752952774,
				"z": 0.2777764245,
				"element": "H" 
			},
			{
				"x": 4.5369019139,
				"y": 1.1708987797,
				"z": 2.732457245,
				"element": "H" 
			},
			{
				"x": 2.5528233521,
				"y": 0.7509565981,
				"z": 4.1939469364,
				"element": "H" 
			}
		],
		 "valence_orbital": [ 
			{
				"type": "occ",
				"energy": -0.28244,
				"method": "rhf"
			},
			{
				"type": "occ",
				"energy": -0.28042,
				"method": "rhf"
			},
			{
				"type": "occ",
				"energy": -0.26351,
				"method": "rhf"
			},
			{
				"type": "occ",
				"energy": -0.22642,
				"method": "rhf"
			},
			{
				"type": "occ",
				"energy": -0.21344,
				"method": "rhf"
			},
			{
				"type": "unocc",
				"energy": -0.03802,
				"method": "rhf"
			},
			{
				"type": "unocc",
				"energy": -0.03245,
				"method": "rhf"
			},
			{
				"type": "unocc",
				"energy": -0.01376,
				"method": "rhf"
			},
			{
				"type": "unocc",
				"energy": 0.01835,
				"method": "rhf"
			},
			{
				"type": "unocc",
				"energy": 0.02023,
				"method": "rhf"
			}
		],
		"cosmo_sigma_profile": { 
			"-0.025": 0.0,
			"-0.024": 0.0,
			"-0.023": 0.0,
			"-0.022": 0.0,
			"-0.021": 0.0,
			"-0.02": 0.0,
			"-0.019": 0.0,
			"-0.018": 0.0,
			"-0.017": 0.0,
			"-0.016": 0.0,
			"-0.015": 0.0,
			"-0.014": 0.0,
			"-0.013": 0.0,
			"-0.012": 0.0843888088679,
			"-0.011": 1.07824140244,
			"-0.01": 0.806228682159,
			"-0.009": 1.21604764652,
			"-0.008": 5.70885750517,
			"-0.007": 10.3026646395,
			"-0.006": 13.689703367,
			"-0.005": 17.7076472689,
			"-0.004": 17.1818754594,
			"-0.003": 19.4039360717,
			"-0.002": 16.2991585534,
			"-0.001": 17.503897412,
			"0.0": 22.0864859378,
			"0.001": 22.3539868078,
			"0.002": 20.2990048308,
			"0.003": 17.313272842,
			"0.004": 24.8488856338,
			"0.005": 14.875193784,
			"0.006": 10.3874921702,
			"0.007": 3.73296076225,
			"0.008": 2.0639153674,
			"0.009": 1.00428332666,
			"0.01": 0.872821341445,
			"0.011": 0.916477503708,
			"0.012": 1.41450895786,
			"0.013": 0.912664078797,
			"0.014": 1.05928347712,
			"0.015": 0.941451773534,
			"0.016": 0.769752524038,
			"0.017": 0.150266115713,
			"0.018": 0.0,
			"0.019": 0.0,
			"0.02": 0.0,
			"0.021": 0.0,
			"0.022": 0.0,
			"0.023": 0.0,
			"0.024": 0.0,
			"0.025": 0.0
		}
	}
}
