{
	 "smiles": "CC1=CC=C(NC2CCNCC2)C=C1", 
	 "Tm": 363.15, 
	 "num_atms": 32, 
	 "gaussian": { 
		 "optdone": 1, 
		 "sigma_profile": "yes", 
		 "theory": "DFT", 
		 "functional": "B3LYP", 
		 "basiset": "6-31G**", 
		 "properties": { 
			 "R2extent": 4974.8194, 
			 "electric_dipole_moment_norm": 1.36214297708, 
			 "electric_quadrupole_moment_norm": 10.8993455891, 
			 "total_energy": -577.620900061, 
			 "HOMO_LUMO_gap": 0.2064, 
			 "cosmo_polarized_energy": -9.05, 
			 "cosmo_cavitation_energy": 32.57, 
			 "cosmo_dispersion_energy": -23.81, 
			 "cosmo_repulsion_energy": 1.88, 
			 "cosmo_total_nonelectrostatic_energy": 10.63, 
			 "SMD_solvation_energy": 1.22 
		},
		"coords": [
			{
				"x": 2.0732276557,
				"y": -2.9042862084,
				"z": -1.5286665838,
				"element": "C" 
			},
			{
				"x": 0.9262520369,
				"y": -1.9275239666,
				"z": -1.4127045635,
				"element": "C" 
			},
			{
				"x": -0.3600962521,
				"y": -2.3520817992,
				"z": -1.0618988355,
				"element": "C" 
			},
			{
				"x": -1.419456743,
				"y": -1.4492823015,
				"z": -0.9668345137,
				"element": "C" 
			},
			{
				"x": -1.2344299506,
				"y": -0.0865294165,
				"z": -1.2417473157,
				"element": "C" 
			},
			{
				"x": -2.3229136965,
				"y": 0.8313307069,
				"z": -1.1923251717,
				"element": "N" 
			},
			{
				"x": -2.4404255668,
				"y": 1.7092287246,
				"z": -0.0057209049,
				"element": "C" 
			},
			{
				"x": -3.8880667025,
				"y": 2.2457043317,
				"z": 0.0540041173,
				"element": "C" 
			},
			{
				"x": -3.9872169644,
				"y": 3.5509790587,
				"z": 0.8891189805,
				"element": "C" 
			},
			{
				"x": -2.9374512351,
				"y": 3.6909869661,
				"z": 1.8980204629,
				"element": "N" 
			},
			{
				"x": -1.5970445883,
				"y": 3.7174261104,
				"z": 1.2874288819,
				"element": "C" 
			},
			{
				"x": -1.4627720769,
				"y": 2.8887312543,
				"z": -0.01985466,
				"element": "C" 
			},
			{
				"x": 0.0496530546,
				"y": 0.3395173613,
				"z": -1.6183302061,
				"element": "C" 
			},
			{
				"x": 1.1075841938,
				"y": -0.5639093982,
				"z": -1.6849525344,
				"element": "C" 
			},
			{
				"x": 1.8527654608,
				"y": -3.8424617139,
				"z": -1.0108928234,
				"element": "H" 
			},
			{
				"x": 2.2857507486,
				"y": -3.151287258,
				"z": -2.5765861024,
				"element": "H" 
			},
			{
				"x": 2.9949092387,
				"y": -2.4940122993,
				"z": -1.1025622911,
				"element": "H" 
			},
			{
				"x": -0.5363424179,
				"y": -3.4036089394,
				"z": -0.8470423006,
				"element": "H" 
			},
			{
				"x": -2.4046365386,
				"y": -1.8046477858,
				"z": -0.6714573062,
				"element": "H" 
			},
			{
				"x": -3.1909783251,
				"y": 0.3086793497,
				"z": -1.2753331982,
				"element": "H" 
			},
			{
				"x": -2.2444821681,
				"y": 1.1265302711,
				"z": 0.9127040299,
				"element": "H" 
			},
			{
				"x": -4.5453523887,
				"y": 1.4710512053,
				"z": 0.470640866,
				"element": "H" 
			},
			{
				"x": -4.2265123913,
				"y": 2.4342029828,
				"z": -0.9728760638,
				"element": "H" 
			},
			{
				"x": -4.9636279114,
				"y": 3.6182306668,
				"z": 1.3803569709,
				"element": "H" 
			},
			{
				"x": -3.916776117,
				"y": 4.4212506732,
				"z": 0.2250794099,
				"element": "H" 
			},
			{
				"x": -2.9963223354,
				"y": 2.9091519632,
				"z": 2.5451327646,
				"element": "H" 
			},
			{
				"x": -0.8854256694,
				"y": 3.3556761315,
				"z": 2.037484571,
				"element": "H" 
			},
			{
				"x": -1.3245472542,
				"y": 4.7605928532,
				"z": 1.0788795487,
				"element": "H" 
			},
			{
				"x": -1.6804692799,
				"y": 3.506095427,
				"z": -0.9004438684,
				"element": "H" 
			},
			{
				"x": -0.4315163321,
				"y": 2.5413691782,
				"z": -0.1242905707,
				"element": "H" 
			},
			{
				"x": 0.2043226021,
				"y": 1.3780088027,
				"z": -1.8901076653,
				"element": "H" 
			},
			{
				"x": 2.0921979141,
				"y": -0.2048129317,
				"z": -1.976323124,
				"element": "H" 
			}
		],
		 "valence_orbital": [ 
			{
				"type": "occ",
				"energy": -0.31083,
				"method": "rhf"
			},
			{
				"type": "occ",
				"energy": -0.25974,
				"method": "rhf"
			},
			{
				"type": "occ",
				"energy": -0.24368,
				"method": "rhf"
			},
			{
				"type": "occ",
				"energy": -0.21485,
				"method": "rhf"
			},
			{
				"type": "occ",
				"energy": -0.20327,
				"method": "rhf"
			},
			{
				"type": "unocc",
				"energy": 0.00313,
				"method": "rhf"
			},
			{
				"type": "unocc",
				"energy": 0.0099,
				"method": "rhf"
			},
			{
				"type": "unocc",
				"energy": 0.0738,
				"method": "rhf"
			},
			{
				"type": "unocc",
				"energy": 0.09428,
				"method": "rhf"
			},
			{
				"type": "unocc",
				"energy": 0.09964,
				"method": "rhf"
			}
		],
		"cosmo_sigma_profile": { 
			"-0.025": 0.0,
			"-0.024": 0.0,
			"-0.023": 0.0,
			"-0.022": 0.0,
			"-0.021": 0.0,
			"-0.02": 0.0,
			"-0.019": 0.0,
			"-0.018": 0.0,
			"-0.017": 0.0,
			"-0.016": 0.0,
			"-0.015": 0.0,
			"-0.014": 0.0,
			"-0.013": 0.0,
			"-0.012": 0.0,
			"-0.011": 0.00622860550461,
			"-0.01": 0.999561695695,
			"-0.009": 2.46135397731,
			"-0.008": 2.93480491052,
			"-0.007": 3.43028732835,
			"-0.006": 3.85647947712,
			"-0.005": 8.95496605556,
			"-0.004": 16.6291020172,
			"-0.003": 30.8441576567,
			"-0.002": 38.6960906453,
			"-0.001": 30.3537280292,
			"0.0": 30.3742243497,
			"0.001": 17.6526124342,
			"0.002": 10.6838119021,
			"0.003": 8.39410710433,
			"0.004": 7.65778389895,
			"0.005": 8.80020364358,
			"0.006": 9.99100790591,
			"0.007": 8.3830645598,
			"0.008": 1.34073052035,
			"0.009": 1.40490145143,
			"0.01": 1.88796653041,
			"0.011": 1.45010487098,
			"0.012": 0.843235603705,
			"0.013": 0.649211519791,
			"0.014": 1.15347037396,
			"0.015": 1.46430964484,
			"0.016": 0.65817976699,
			"0.017": 0.944252684247,
			"0.018": 0.202038169955,
			"0.019": 0.497501214512,
			"0.02": 0.00665935878404,
			"0.021": 0.0,
			"0.022": 0.0,
			"0.023": 0.0,
			"0.024": 0.0,
			"0.025": 0.0
		}
	}
}
