{
	 "smiles": "CN1N=C(C)C2=C1N1CCCC1CN2", 
	 "Tm": 433.15, 
	 "num_atms": 30, 
	 "gaussian": { 
		 "optdone": 1, 
		 "sigma_profile": "yes", 
		 "theory": "DFT", 
		 "functional": "B3LYP", 
		 "basiset": "6-31G**", 
		 "properties": { 
			 "R2extent": 2998.2102, 
			 "electric_dipole_moment_norm": 3.41640847236, 
			 "electric_quadrupole_moment_norm": 7.55946901773, 
			 "total_energy": -609.685260904, 
			 "HOMO_LUMO_gap": 0.21133, 
			 "cosmo_polarized_energy": -11.42, 
			 "cosmo_cavitation_energy": 30.36, 
			 "cosmo_dispersion_energy": -22.47, 
			 "cosmo_repulsion_energy": 1.77, 
			 "cosmo_total_nonelectrostatic_energy": 9.65, 
			 "SMD_solvation_energy": 0.71 
		},
		"coords": [
			{
				"x": -2.6201822584,
				"y": -1.3036586938,
				"z": 0.1932205129,
				"element": "C" 
			},
			{
				"x": -1.7134618229,
				"y": -0.3618025682,
				"z": 0.8076150937,
				"element": "N" 
			},
			{
				"x": -1.7018465962,
				"y": -0.2057652836,
				"z": 2.1573388431,
				"element": "N" 
			},
			{
				"x": -0.7898306943,
				"y": 0.7416508728,
				"z": 2.4068864274,
				"element": "C" 
			},
			{
				"x": -0.5222245864,
				"y": 1.1995623136,
				"z": 3.8070142579,
				"element": "C" 
			},
			{
				"x": -0.1834451975,
				"y": 1.1804731553,
				"z": 1.2054415579,
				"element": "C" 
			},
			{
				"x": -0.7861918169,
				"y": 0.4411830578,
				"z": 0.2013925353,
				"element": "C" 
			},
			{
				"x": -0.5890243838,
				"y": 0.6091364509,
				"z": -1.1734078549,
				"element": "N" 
			},
			{
				"x": -0.0961859569,
				"y": -0.5097248125,
				"z": -1.9939932423,
				"element": "C" 
			},
			{
				"x": 0.2227414075,
				"y": 0.1875200268,
				"z": -3.3179631121,
				"element": "C" 
			},
			{
				"x": 0.8435795629,
				"y": 1.5275626545,
				"z": -2.8664931986,
				"element": "C" 
			},
			{
				"x": 0.2528990122,
				"y": 1.8028933362,
				"z": -1.4616050104,
				"element": "C" 
			},
			{
				"x": 1.3573105112,
				"y": 2.005480131,
				"z": -0.3968057096,
				"element": "C" 
			},
			{
				"x": 0.7576291566,
				"y": 2.1935014576,
				"z": 0.9231563989,
				"element": "N" 
			},
			{
				"x": -3.0373055368,
				"y": -0.8715958373,
				"z": -0.7213240414,
				"element": "H" 
			},
			{
				"x": -3.4235869721,
				"y": -1.4962891855,
				"z": 0.9046054788,
				"element": "H" 
			},
			{
				"x": -2.1296253216,
				"y": -2.2540855159,
				"z": -0.0530206547,
				"element": "H" 
			},
			{
				"x": -0.7231131432,
				"y": 2.2711734062,
				"z": 3.9268082667,
				"element": "H" 
			},
			{
				"x": -1.1630967328,
				"y": 0.6504237932,
				"z": 4.5006578781,
				"element": "H" 
			},
			{
				"x": 0.5211683663,
				"y": 1.0298411843,
				"z": 4.1033935652,
				"element": "H" 
			},
			{
				"x": 0.8079784674,
				"y": -0.9754218345,
				"z": -1.5640944942,
				"element": "H" 
			},
			{
				"x": -0.8587172853,
				"y": -1.2881075567,
				"z": -2.0908553313,
				"element": "H" 
			},
			{
				"x": 0.8921819201,
				"y": -0.3989671854,
				"z": -3.9531452533,
				"element": "H" 
			},
			{
				"x": -0.7048582756,
				"y": 0.3623771568,
				"z": -3.8720732594,
				"element": "H" 
			},
			{
				"x": 0.6320307279,
				"y": 2.3408837484,
				"z": -3.5653051788,
				"element": "H" 
			},
			{
				"x": 1.9338917641,
				"y": 1.4348252413,
				"z": -2.8002737435,
				"element": "H" 
			},
			{
				"x": -0.3946276646,
				"y": 2.6866248096,
				"z": -1.4495797647,
				"element": "H" 
			},
			{
				"x": 1.9501507422,
				"y": 2.890523515,
				"z": -0.6531758985,
				"element": "H" 
			},
			{
				"x": 2.0287023631,
				"y": 1.1275344683,
				"z": -0.4375645154,
				"element": "H" 
			},
			{
				"x": 1.4555602437,
				"y": 2.3015476935,
				"z": 1.6508494471,
				"element": "H" 
			}
		],
		 "valence_orbital": [ 
			{
				"type": "occ",
				"energy": -0.28609,
				"method": "rhf"
			},
			{
				"type": "occ",
				"energy": -0.26628,
				"method": "rhf"
			},
			{
				"type": "occ",
				"energy": -0.25507,
				"method": "rhf"
			},
			{
				"type": "occ",
				"energy": -0.20005,
				"method": "rhf"
			},
			{
				"type": "occ",
				"energy": -0.16764,
				"method": "rhf"
			},
			{
				"type": "unocc",
				"energy": 0.04369,
				"method": "rhf"
			},
			{
				"type": "unocc",
				"energy": 0.07553,
				"method": "rhf"
			},
			{
				"type": "unocc",
				"energy": 0.08669,
				"method": "rhf"
			},
			{
				"type": "unocc",
				"energy": 0.09812,
				"method": "rhf"
			},
			{
				"type": "unocc",
				"energy": 0.10569,
				"method": "rhf"
			}
		],
		"cosmo_sigma_profile": { 
			"-0.025": 0.0,
			"-0.024": 0.0,
			"-0.023": 0.0,
			"-0.022": 0.0,
			"-0.021": 0.0,
			"-0.02": 0.0,
			"-0.019": 0.0,
			"-0.018": 0.0,
			"-0.017": 0.0,
			"-0.016": 0.0,
			"-0.015": 0.0,
			"-0.014": 0.0,
			"-0.013": 0.0,
			"-0.012": 0.145785136593,
			"-0.011": 0.880805550519,
			"-0.01": 1.33193176851,
			"-0.009": 0.785787036555,
			"-0.008": 1.50172484067,
			"-0.007": 1.2482758581,
			"-0.006": 2.75854725839,
			"-0.005": 8.16707932009,
			"-0.004": 22.9144432115,
			"-0.003": 36.4413875026,
			"-0.002": 40.0511955802,
			"-0.001": 29.9655306949,
			"0.0": 20.8618382184,
			"0.001": 12.3387464794,
			"0.002": 5.9068163598,
			"0.003": 4.93748045399,
			"0.004": 6.20234328385,
			"0.005": 6.34923669938,
			"0.006": 6.97536089455,
			"0.007": 5.81677542313,
			"0.008": 3.3516622242,
			"0.009": 2.64716641588,
			"0.01": 3.33316829589,
			"0.011": 2.8433247238,
			"0.012": 2.19743180303,
			"0.013": 1.24302414936,
			"0.014": 1.41230924604,
			"0.015": 1.59033883873,
			"0.016": 1.57055266266,
			"0.017": 0.766959153977,
			"0.018": 0.0615149193538,
			"0.019": 0.0,
			"0.02": 0.0,
			"0.021": 0.0,
			"0.022": 0.0,
			"0.023": 0.0,
			"0.024": 0.0,
			"0.025": 0.0
		}
	}
}
