{
	 "smiles": "CC1=CC=C(C=C1)S(=O)(=O)C1=C(SCC(N)=O)SC=N1", 
	 "Tm": 478.15, 
	 "num_atms": 32, 
	 "gaussian": { 
		 "optdone": 1, 
		 "sigma_profile": "yes", 
		 "theory": "DFT", 
		 "functional": "B3LYP", 
		 "basiset": "6-31G**", 
		 "properties": { 
			 "R2extent": 8099.6233, 
			 "electric_dipole_moment_norm": 7.11556163981, 
			 "electric_quadrupole_moment_norm": 12.6119358807, 
			 "total_energy": -1994.17622446, 
			 "HOMO_LUMO_gap": 0.16225, 
			 "cosmo_polarized_energy": -21.68, 
			 "cosmo_cavitation_energy": 40.98, 
			 "cosmo_dispersion_energy": -29.35, 
			 "cosmo_repulsion_energy": 2.15, 
			 "cosmo_total_nonelectrostatic_energy": 13.79, 
			 "SMD_solvation_energy": 5.77 
		},
		"coords": [
			{
				"x": -4.1315534356,
				"y": 3.2899686099,
				"z": 2.1899033269,
				"element": "C" 
			},
			{
				"x": -2.997408672,
				"y": 2.6075634701,
				"z": 1.4644982472,
				"element": "C" 
			},
			{
				"x": -3.1804702751,
				"y": 2.0911186765,
				"z": 0.1732740959,
				"element": "C" 
			},
			{
				"x": -2.1319569903,
				"y": 1.485549189,
				"z": -0.5159838436,
				"element": "C" 
			},
			{
				"x": -0.8825123358,
				"y": 1.3982797227,
				"z": 0.1004521818,
				"element": "C" 
			},
			{
				"x": -0.6667396048,
				"y": 1.9039405072,
				"z": 1.3846908073,
				"element": "C" 
			},
			{
				"x": -1.7292421881,
				"y": 2.5027821898,
				"z": 2.0564688339,
				"element": "C" 
			},
			{
				"x": 0.4770222101,
				"y": 0.6323319563,
				"z": -0.7738930848,
				"element": "S" 
			},
			{
				"x": 0.1163545416,
				"y": 0.5782304626,
				"z": -2.2043375227,
				"element": "O" 
			},
			{
				"x": 1.7308427991,
				"y": 1.2583432275,
				"z": -0.3439818771,
				"element": "O" 
			},
			{
				"x": 0.4944980529,
				"y": -1.0618231145,
				"z": -0.1292318229,
				"element": "C" 
			},
			{
				"x": 0.1978225368,
				"y": -2.2365853534,
				"z": -0.789924092,
				"element": "C" 
			},
			{
				"x": -0.4625630073,
				"y": -2.5412078453,
				"z": -2.3987482045,
				"element": "S" 
			},
			{
				"x": 0.9514781063,
				"y": -3.3535032944,
				"z": -3.2576960934,
				"element": "C" 
			},
			{
				"x": 2.1653318583,
				"y": -2.5129705068,
				"z": -3.6867827659,
				"element": "C" 
			},
			{
				"x": 2.0195201002,
				"y": -1.1694356592,
				"z": -3.7304608604,
				"element": "N" 
			},
			{
				"x": 3.1819433472,
				"y": -3.1112094686,
				"z": -4.0137439405,
				"element": "O" 
			},
			{
				"x": 0.4426467004,
				"y": -3.5565170295,
				"z": 0.3444102895,
				"element": "S" 
			},
			{
				"x": 0.9184371952,
				"y": -2.4049219616,
				"z": 1.5556861466,
				"element": "C" 
			},
			{
				"x": 0.8875032607,
				"y": -1.16072535,
				"z": 1.1790248473,
				"element": "N" 
			},
			{
				"x": -4.0462640333,
				"y": 3.1659911766,
				"z": 3.2732864026,
				"element": "H" 
			},
			{
				"x": -4.1326970482,
				"y": 4.3676077497,
				"z": 1.9842949861,
				"element": "H" 
			},
			{
				"x": -5.1025934893,
				"y": 2.8973031582,
				"z": 1.8752935047,
				"element": "H" 
			},
			{
				"x": -4.155735524,
				"y": 2.1669915581,
				"z": -0.2999756282,
				"element": "H" 
			},
			{
				"x": -2.2676831838,
				"y": 1.0977953792,
				"z": -1.519715481,
				"element": "H" 
			},
			{
				"x": 0.3153981501,
				"y": 1.8301134671,
				"z": 1.8377360449,
				"element": "H" 
			},
			{
				"x": -1.5717056469,
				"y": 2.8989854928,
				"z": 3.056009395,
				"element": "H" 
			},
			{
				"x": 0.498727386,
				"y": -3.7732715744,
				"z": -4.1623411081,
				"element": "H" 
			},
			{
				"x": 1.3245087374,
				"y": -4.191681159,
				"z": -2.6666622359,
				"element": "H" 
			},
			{
				"x": 2.8351038016,
				"y": -0.6350146721,
				"z": -3.9912017307,
				"element": "H" 
			},
			{
				"x": 1.2172437468,
				"y": -0.6712874681,
				"z": -3.3583747451,
				"element": "H" 
			},
			{
				"x": 1.2204429039,
				"y": -2.7262415363,
				"z": 2.546025927,
				"element": "H" 
			}
		],
		 "valence_orbital": [ 
			{
				"type": "occ",
				"energy": -0.27336,
				"method": "rhf"
			},
			{
				"type": "occ",
				"energy": -0.26549,
				"method": "rhf"
			},
			{
				"type": "occ",
				"energy": -0.26266,
				"method": "rhf"
			},
			{
				"type": "occ",
				"energy": -0.2583,
				"method": "rhf"
			},
			{
				"type": "occ",
				"energy": -0.2346,
				"method": "rhf"
			},
			{
				"type": "unocc",
				"energy": -0.07235,
				"method": "rhf"
			},
			{
				"type": "unocc",
				"energy": -0.04256,
				"method": "rhf"
			},
			{
				"type": "unocc",
				"energy": -0.02463,
				"method": "rhf"
			},
			{
				"type": "unocc",
				"energy": -0.01645,
				"method": "rhf"
			},
			{
				"type": "unocc",
				"energy": -0.00339,
				"method": "rhf"
			}
		],
		"cosmo_sigma_profile": { 
			"-0.025": 0.0,
			"-0.024": 0.0,
			"-0.023": 0.0,
			"-0.022": 0.0,
			"-0.021": 0.0,
			"-0.02": 0.0,
			"-0.019": 0.0,
			"-0.018": 0.0,
			"-0.017": 0.0,
			"-0.016": 0.0,
			"-0.015": 0.0,
			"-0.014": 0.695655104397,
			"-0.013": 1.34955820136,
			"-0.012": 1.07765572789,
			"-0.011": 3.31397253284,
			"-0.01": 3.76365656451,
			"-0.009": 5.29440483597,
			"-0.008": 5.40036411807,
			"-0.007": 10.691345615,
			"-0.006": 15.3618142299,
			"-0.005": 21.1605427109,
			"-0.004": 21.8864803576,
			"-0.003": 25.098727438,
			"-0.002": 29.1133349671,
			"-0.001": 31.3319538043,
			"0.0": 25.2311809939,
			"0.001": 18.8827160033,
			"0.002": 19.9368739511,
			"0.003": 21.0968442372,
			"0.004": 8.70609627013,
			"0.005": 8.86181883671,
			"0.006": 6.95101242054,
			"0.007": 4.82671685157,
			"0.008": 5.27591653824,
			"0.009": 6.61855743162,
			"0.01": 8.53182741504,
			"0.011": 8.91604323681,
			"0.012": 2.30999614014,
			"0.013": 4.33622400894,
			"0.014": 5.36318093841,
			"0.015": 0.718115796493,
			"0.016": 0.0,
			"0.017": 0.0,
			"0.018": 0.0,
			"0.019": 0.0,
			"0.02": 0.0,
			"0.021": 0.0,
			"0.022": 0.0,
			"0.023": 0.0,
			"0.024": 0.0,
			"0.025": 0.0
		}
	}
}
