{
	 "smiles": "O=C1COC2=C(N1)C=NC=C2", 
	 "Tm": 542.15, 
	 "num_atms": 17, 
	 "gaussian": { 
		 "optdone": 1, 
		 "sigma_profile": "yes", 
		 "theory": "DFT", 
		 "functional": "B3LYP", 
		 "basiset": "6-31G**", 
		 "properties": { 
			 "R2extent": 1694.0362, 
			 "electric_dipole_moment_norm": 1.07067833638, 
			 "electric_quadrupole_moment_norm": 10.6916441579, 
			 "total_energy": -530.30756601, 
			 "HOMO_LUMO_gap": 0.20526, 
			 "cosmo_polarized_energy": -13.51, 
			 "cosmo_cavitation_energy": 21.3, 
			 "cosmo_dispersion_energy": -16.4, 
			 "cosmo_repulsion_energy": 1.3, 
			 "cosmo_total_nonelectrostatic_energy": 6.2, 
			 "SMD_solvation_energy": 3.23 
		},
		"coords": [
			{
				"x": -0.7085315876,
				"y": -1.2849197371,
				"z": 3.442486905,
				"element": "O" 
			},
			{
				"x": -0.5526234795,
				"y": -1.015377466,
				"z": 2.2646533081,
				"element": "C" 
			},
			{
				"x": -1.6718055915,
				"y": -1.1897737701,
				"z": 1.2390502225,
				"element": "C" 
			},
			{
				"x": -1.2356646312,
				"y": -1.3958318497,
				"z": -0.1111215029,
				"element": "O" 
			},
			{
				"x": -0.1811314136,
				"y": -0.6401423113,
				"z": -0.5222770605,
				"element": "C" 
			},
			{
				"x": 0.7648744359,
				"y": -0.1606717948,
				"z": 0.3966353127,
				"element": "C" 
			},
			{
				"x": 0.6001200348,
				"y": -0.4770139192,
				"z": 1.7535204299,
				"element": "N" 
			},
			{
				"x": 1.8451313919,
				"y": 0.5765405034,
				"z": -0.0912697538,
				"element": "C" 
			},
			{
				"x": 2.0366952609,
				"y": 0.8393792609,
				"z": -1.3874314567,
				"element": "N" 
			},
			{
				"x": 1.1311148559,
				"y": 0.364930432,
				"z": -2.251719366,
				"element": "C" 
			},
			{
				"x": 0.0078353657,
				"y": -0.3729638827,
				"z": -1.8744162745,
				"element": "C" 
			},
			{
				"x": -2.2568786319,
				"y": -2.0658393329,
				"z": 1.5181094813,
				"element": "H" 
			},
			{
				"x": -2.3227993486,
				"y": -0.3044008155,
				"z": 1.2896148179,
				"element": "H" 
			},
			{
				"x": 1.3437751588,
				"y": -0.2884576742,
				"z": 2.4140463882,
				"element": "H" 
			},
			{
				"x": 2.5914273861,
				"y": 0.9595578641,
				"z": 0.6049730562,
				"element": "H" 
			},
			{
				"x": 1.3034139654,
				"y": 0.589297253,
				"z": -3.3020001923,
				"element": "H" 
			},
			{
				"x": -0.7065531715,
				"y": -0.74111276,
				"z": -2.602354315,
				"element": "H" 
			}
		],
		 "valence_orbital": [ 
			{
				"type": "occ",
				"energy": -0.32982,
				"method": "rhf"
			},
			{
				"type": "occ",
				"energy": -0.27874,
				"method": "rhf"
			},
			{
				"type": "occ",
				"energy": -0.26467,
				"method": "rhf"
			},
			{
				"type": "occ",
				"energy": -0.2612,
				"method": "rhf"
			},
			{
				"type": "occ",
				"energy": -0.23517,
				"method": "rhf"
			},
			{
				"type": "unocc",
				"energy": -0.02991,
				"method": "rhf"
			},
			{
				"type": "unocc",
				"energy": -0.02321,
				"method": "rhf"
			},
			{
				"type": "unocc",
				"energy": 0.01714,
				"method": "rhf"
			},
			{
				"type": "unocc",
				"energy": 0.06818,
				"method": "rhf"
			},
			{
				"type": "unocc",
				"energy": 0.09531,
				"method": "rhf"
			}
		],
		"cosmo_sigma_profile": { 
			"-0.025": 0.0,
			"-0.024": 0.0,
			"-0.023": 0.0,
			"-0.022": 0.0,
			"-0.021": 0.0,
			"-0.02": 0.0,
			"-0.019": 0.0,
			"-0.018": 0.0,
			"-0.017": 0.0215196600087,
			"-0.016": 1.04849776397,
			"-0.015": 1.30535360803,
			"-0.014": 1.15121170976,
			"-0.013": 1.43665718119,
			"-0.012": 1.3175725619,
			"-0.011": 0.616149064693,
			"-0.01": 1.51267551148,
			"-0.009": 2.18710131884,
			"-0.008": 7.29245770205,
			"-0.007": 9.82118438725,
			"-0.006": 9.9265202049,
			"-0.005": 10.5689063058,
			"-0.004": 9.23336908916,
			"-0.003": 8.37654785836,
			"-0.002": 8.25619725922,
			"-0.001": 9.34642674589,
			"0.0": 12.1757004473,
			"0.001": 13.1413794752,
			"0.002": 10.8963493931,
			"0.003": 7.62329189391,
			"0.004": 4.26720531503,
			"0.005": 4.24040735975,
			"0.006": 4.07078331725,
			"0.007": 3.65205533082,
			"0.008": 3.70470444553,
			"0.009": 3.14417071363,
			"0.01": 3.19588348256,
			"0.011": 3.42570266438,
			"0.012": 6.68129488118,
			"0.013": 4.36143584033,
			"0.014": 0.533847327615,
			"0.015": 1.06507010598,
			"0.016": 0.990379041037,
			"0.017": 0.225842913861,
			"0.018": 0.0,
			"0.019": 0.0,
			"0.02": 0.0,
			"0.021": 0.0,
			"0.022": 0.0,
			"0.023": 0.0,
			"0.024": 0.0,
			"0.025": 0.0
		}
	}
}
