{
	 "smiles": "CCCCCOC1=CC=C(O)C=C1", 
	 "Tm": 320.65, 
	 "num_atms": 29, 
	 "gaussian": { 
		 "optdone": 1, 
		 "sigma_profile": "yes", 
		 "theory": "DFT", 
		 "functional": "B3LYP", 
		 "basiset": "6-31G**", 
		 "properties": { 
			 "R2extent": 5471.4114, 
			 "electric_dipole_moment_norm": 2.49844234874, 
			 "electric_quadrupole_moment_norm": 12.889863265, 
			 "total_energy": -579.260493788, 
			 "HOMO_LUMO_gap": 0.19629, 
			 "cosmo_polarized_energy": -9.83, 
			 "cosmo_cavitation_energy": 31.8, 
			 "cosmo_dispersion_energy": -23.3, 
			 "cosmo_repulsion_energy": 1.89, 
			 "cosmo_total_nonelectrostatic_energy": 10.38, 
			 "SMD_solvation_energy": 5.53 
		},
		"coords": [
			{
				"x": 1.4551556998,
				"y": -1.8484845972,
				"z": -3.5666901574,
				"element": "C" 
			},
			{
				"x": 2.0113699841,
				"y": -0.4531519124,
				"z": -3.2593880006,
				"element": "C" 
			},
			{
				"x": 1.1497540775,
				"y": 0.3775256908,
				"z": -2.2936808743,
				"element": "C" 
			},
			{
				"x": 1.064722862,
				"y": -0.1956845738,
				"z": -0.8725553615,
				"element": "C" 
			},
			{
				"x": 0.2609980029,
				"y": 0.6969273767,
				"z": 0.06385957,
				"element": "C" 
			},
			{
				"x": 0.2352854952,
				"y": 0.0758526876,
				"z": 1.3440546258,
				"element": "O" 
			},
			{
				"x": -0.4368051901,
				"y": 0.7012722504,
				"z": 2.3603738026,
				"element": "C" 
			},
			{
				"x": -1.112040145,
				"y": 1.918937329,
				"z": 2.2435496604,
				"element": "C" 
			},
			{
				"x": -1.766348533,
				"y": 2.4644744537,
				"z": 3.3551536456,
				"element": "C" 
			},
			{
				"x": -1.7523802397,
				"y": 1.804680786,
				"z": 4.5826075854,
				"element": "C" 
			},
			{
				"x": -2.3751199409,
				"y": 2.2912839752,
				"z": 5.703740686,
				"element": "O" 
			},
			{
				"x": -1.074718754,
				"y": 0.5833217983,
				"z": 4.6983605586,
				"element": "C" 
			},
			{
				"x": -0.4254421554,
				"y": 0.0402529147,
				"z": 3.5988429008,
				"element": "C" 
			},
			{
				"x": 0.4425182918,
				"y": -1.7866873092,
				"z": -3.9823684632,
				"element": "H" 
			},
			{
				"x": 1.4077570288,
				"y": -2.4770594628,
				"z": -2.6716806932,
				"element": "H" 
			},
			{
				"x": 2.0823038096,
				"y": -2.3683726306,
				"z": -4.2982393363,
				"element": "H" 
			},
			{
				"x": 3.0256032963,
				"y": -0.5452653702,
				"z": -2.8476873995,
				"element": "H" 
			},
			{
				"x": 2.1153655661,
				"y": 0.1039131611,
				"z": -4.1990447128,
				"element": "H" 
			},
			{
				"x": 1.5594174603,
				"y": 1.3957174632,
				"z": -2.2441800332,
				"element": "H" 
			},
			{
				"x": 0.1368566741,
				"y": 0.476694018,
				"z": -2.7099504571,
				"element": "H" 
			},
			{
				"x": 2.0726994946,
				"y": -0.3208475413,
				"z": -0.4573364722,
				"element": "H" 
			},
			{
				"x": 0.6021595852,
				"y": -1.1888196416,
				"z": -0.8807260406,
				"element": "H" 
			},
			{
				"x": -0.764684318,
				"y": 0.8294400014,
				"z": -0.3135305358,
				"element": "H" 
			},
			{
				"x": 0.7192940335,
				"y": 1.6952483341,
				"z": 0.1361980015,
				"element": "H" 
			},
			{
				"x": -1.1407832659,
				"y": 2.4553615099,
				"z": 1.302744739,
				"element": "H" 
			},
			{
				"x": -2.2890681559,
				"y": 3.4135164645,
				"z": 3.2525806811,
				"element": "H" 
			},
			{
				"x": -2.7997013276,
				"y": 3.1307031656,
				"z": 5.4861291611,
				"element": "H" 
			},
			{
				"x": -1.0682858342,
				"y": 0.0755330615,
				"z": 5.657273122,
				"element": "H" 
			},
			{
				"x": 0.102916498,
				"y": -0.9045834027,
				"z": 3.6748897978,
				"element": "H" 
			}
		],
		 "valence_orbital": [ 
			{
				"type": "occ",
				"energy": -0.32257,
				"method": "rhf"
			},
			{
				"type": "occ",
				"energy": -0.31615,
				"method": "rhf"
			},
			{
				"type": "occ",
				"energy": -0.28884,
				"method": "rhf"
			},
			{
				"type": "occ",
				"energy": -0.24738,
				"method": "rhf"
			},
			{
				"type": "occ",
				"energy": -0.19501,
				"method": "rhf"
			},
			{
				"type": "unocc",
				"energy": 0.00128,
				"method": "rhf"
			},
			{
				"type": "unocc",
				"energy": 0.03171,
				"method": "rhf"
			},
			{
				"type": "unocc",
				"energy": 0.0753,
				"method": "rhf"
			},
			{
				"type": "unocc",
				"energy": 0.08515,
				"method": "rhf"
			},
			{
				"type": "unocc",
				"energy": 0.09743,
				"method": "rhf"
			}
		],
		"cosmo_sigma_profile": { 
			"-0.025": 0.0,
			"-0.024": 0.0,
			"-0.023": 0.0,
			"-0.022": 0.0,
			"-0.021": 0.0,
			"-0.02": 0.0,
			"-0.019": 0.0,
			"-0.018": 0.0680189625001,
			"-0.017": 0.771872940669,
			"-0.016": 1.24661914462,
			"-0.015": 1.03211879787,
			"-0.014": 1.16272776448,
			"-0.013": 1.30309049069,
			"-0.012": 0.508036935789,
			"-0.011": 0.899183303036,
			"-0.01": 0.584458786254,
			"-0.009": 1.41426448801,
			"-0.008": 1.31918250157,
			"-0.007": 1.42467925852,
			"-0.006": 5.25260094461,
			"-0.005": 8.46037431259,
			"-0.004": 13.7684139599,
			"-0.003": 20.1649084254,
			"-0.002": 31.7984590437,
			"-0.001": 29.0825493638,
			"0.0": 28.3402704878,
			"0.001": 23.2627505706,
			"0.002": 12.4822262322,
			"0.003": 8.93167942236,
			"0.004": 13.4864853912,
			"0.005": 14.7941094737,
			"0.006": 11.1815886736,
			"0.007": 2.86903804023,
			"0.008": 2.71073370886,
			"0.009": 2.63485072127,
			"0.01": 3.33103129902,
			"0.011": 2.53980247496,
			"0.012": 1.70593346643,
			"0.013": 0.0248841407175,
			"0.014": 0.0,
			"0.015": 0.0,
			"0.016": 0.0,
			"0.017": 0.0,
			"0.018": 0.0,
			"0.019": 0.0,
			"0.02": 0.0,
			"0.021": 0.0,
			"0.022": 0.0,
			"0.023": 0.0,
			"0.024": 0.0,
			"0.025": 0.0
		}
	}
}
