{
	 "smiles": "CC1=C2N=C(Cl)C=CC2=CC=C1Cl", 
	 "Tm": 366.15, 
	 "num_atms": 20, 
	 "gaussian": { 
		 "optdone": 1, 
		 "sigma_profile": "yes", 
		 "theory": "DFT", 
		 "functional": "B3LYP", 
		 "basiset": "6-31G**", 
		 "properties": { 
			 "R2extent": 3524.2042, 
			 "electric_dipole_moment_norm": 3.23354898525, 
			 "electric_quadrupole_moment_norm": 9.43210535459, 
			 "total_energy": -1360.43771238, 
			 "HOMO_LUMO_gap": 0.17319, 
			 "cosmo_polarized_energy": -6.62, 
			 "cosmo_cavitation_energy": 27.41, 
			 "cosmo_dispersion_energy": -20.64, 
			 "cosmo_repulsion_energy": 1.62, 
			 "cosmo_total_nonelectrostatic_energy": 8.39, 
			 "SMD_solvation_energy": 3.01 
		},
		"coords": [
			{
				"x": 1.406894511,
				"y": -0.8766668013,
				"z": -1.9024050067,
				"element": "C" 
			},
			{
				"x": 0.3847692942,
				"y": -1.0752167127,
				"z": -0.8163235098,
				"element": "C" 
			},
			{
				"x": 0.1536979425,
				"y": -0.0573740964,
				"z": 0.1666571544,
				"element": "C" 
			},
			{
				"x": 0.8855019502,
				"y": 1.0944215526,
				"z": 0.0892947672,
				"element": "N" 
			},
			{
				"x": 0.6821954372,
				"y": 2.0210286295,
				"z": 0.9757508918,
				"element": "C" 
			},
			{
				"x": 1.6478289573,
				"y": 3.4939552928,
				"z": 0.8409444482,
				"element": "Cl" 
			},
			{
				"x": -0.2501913909,
				"y": 1.9482614191,
				"z": 2.0421804127,
				"element": "C" 
			},
			{
				"x": -0.9959229716,
				"y": 0.8001325474,
				"z": 2.1387642496,
				"element": "C" 
			},
			{
				"x": -0.8186796515,
				"y": -0.248551844,
				"z": 1.1986905466,
				"element": "C" 
			},
			{
				"x": -1.5575554721,
				"y": -1.4554548943,
				"z": 1.2461054935,
				"element": "C" 
			},
			{
				"x": -1.3398686033,
				"y": -2.4337250314,
				"z": 0.3063929535,
				"element": "C" 
			},
			{
				"x": -0.374961318,
				"y": -2.228550117,
				"z": -0.7068770731,
				"element": "C" 
			},
			{
				"x": -0.1567713898,
				"y": -3.5302119794,
				"z": -1.8715652413,
				"element": "Cl" 
			},
			{
				"x": 2.1731891668,
				"y": -1.6581002157,
				"z": -1.8613366716,
				"element": "H" 
			},
			{
				"x": 0.9402005906,
				"y": -0.9427603042,
				"z": -2.8910263045,
				"element": "H" 
			},
			{
				"x": 1.8834736838,
				"y": 0.0965944739,
				"z": -1.7969603999,
				"element": "H" 
			},
			{
				"x": -0.3554603373,
				"y": 2.770567724,
				"z": 2.738905426,
				"element": "H" 
			},
			{
				"x": -1.7274714753,
				"y": 0.6833217511,
				"z": 2.9340351973,
				"element": "H" 
			},
			{
				"x": -2.2957283746,
				"y": -1.6001204528,
				"z": 2.0298584505,
				"element": "H" 
			},
			{
				"x": -1.895340549,
				"y": -3.3644509412,
				"z": 0.3257142155,
				"element": "H" 
			}
		],
		 "valence_orbital": [ 
			{
				"type": "occ",
				"energy": -0.3162,
				"method": "rhf"
			},
			{
				"type": "occ",
				"energy": -0.30941,
				"method": "rhf"
			},
			{
				"type": "occ",
				"energy": -0.27884,
				"method": "rhf"
			},
			{
				"type": "occ",
				"energy": -0.2543,
				"method": "rhf"
			},
			{
				"type": "occ",
				"energy": -0.24097,
				"method": "rhf"
			},
			{
				"type": "unocc",
				"energy": -0.06778,
				"method": "rhf"
			},
			{
				"type": "unocc",
				"energy": -0.03479,
				"method": "rhf"
			},
			{
				"type": "unocc",
				"energy": 0.00282,
				"method": "rhf"
			},
			{
				"type": "unocc",
				"energy": 0.02061,
				"method": "rhf"
			},
			{
				"type": "unocc",
				"energy": 0.03548,
				"method": "rhf"
			}
		],
		"cosmo_sigma_profile": { 
			"-0.025": 0.0,
			"-0.024": 0.0,
			"-0.023": 0.0,
			"-0.022": 0.0,
			"-0.021": 0.0,
			"-0.02": 0.0,
			"-0.019": 0.0,
			"-0.018": 0.0,
			"-0.017": 0.0,
			"-0.016": 0.0,
			"-0.015": 0.0,
			"-0.014": 0.0,
			"-0.013": 0.0,
			"-0.012": 0.0,
			"-0.011": 0.0,
			"-0.01": 0.0,
			"-0.009": 0.667082942631,
			"-0.008": 6.69456286329,
			"-0.007": 8.32162220335,
			"-0.006": 7.19807844882,
			"-0.005": 7.96445441098,
			"-0.004": 8.58557051616,
			"-0.003": 9.82633273579,
			"-0.002": 14.57389008,
			"-0.001": 23.4357115216,
			"0.0": 30.3310201107,
			"0.001": 31.4217801279,
			"0.002": 20.7169765413,
			"0.003": 17.5645918384,
			"0.004": 19.5331807465,
			"0.005": 8.72303428267,
			"0.006": 3.10530868159,
			"0.007": 2.31819619914,
			"0.008": 1.69369199455,
			"0.009": 1.73354881378,
			"0.01": 0.58546635879,
			"0.011": 0.0,
			"0.012": 0.0,
			"0.013": 0.0,
			"0.014": 0.0,
			"0.015": 0.0,
			"0.016": 0.0,
			"0.017": 0.0,
			"0.018": 0.0,
			"0.019": 0.0,
			"0.02": 0.0,
			"0.021": 0.0,
			"0.022": 0.0,
			"0.023": 0.0,
			"0.024": 0.0,
			"0.025": 0.0
		}
	}
}
