{
	 "smiles": "O=C1CC2CCCN2C2=C(N1)C=CC=C2", 
	 "Tm": 413.15, 
	 "num_atms": 29, 
	 "gaussian": { 
		 "optdone": 1, 
		 "sigma_profile": "yes", 
		 "theory": "DFT", 
		 "functional": "B3LYP", 
		 "basiset": "6-31G**", 
		 "properties": { 
			 "R2extent": 3302.7943, 
			 "electric_dipole_moment_norm": 3.71621476371, 
			 "electric_quadrupole_moment_norm": 11.9151832898, 
			 "total_energy": -650.456633291, 
			 "HOMO_LUMO_gap": 0.18166, 
			 "cosmo_polarized_energy": -11.88, 
			 "cosmo_cavitation_energy": 29.85, 
			 "cosmo_dispersion_energy": -22.44, 
			 "cosmo_repulsion_energy": 1.72, 
			 "cosmo_total_nonelectrostatic_energy": 9.13, 
			 "SMD_solvation_energy": 4.07 
		},
		"coords": [
			{
				"x": -0.5818453935,
				"y": 0.962093625,
				"z": -3.4001552494,
				"element": "O" 
			},
			{
				"x": -0.2151320289,
				"y": 0.4654116106,
				"z": -2.34033258,
				"element": "C" 
			},
			{
				"x": 0.6460174294,
				"y": 1.2550936797,
				"z": -1.3760419355,
				"element": "C" 
			},
			{
				"x": 1.4821357989,
				"y": 0.4425266414,
				"z": -0.3878250578,
				"element": "C" 
			},
			{
				"x": 2.4116204491,
				"y": 1.3295253299,
				"z": 0.4761174611,
				"element": "C" 
			},
			{
				"x": 1.6756662693,
				"y": 1.4575190434,
				"z": 1.8187685622,
				"element": "C" 
			},
			{
				"x": 1.0370322774,
				"y": 0.0768861686,
				"z": 1.9656620986,
				"element": "C" 
			},
			{
				"x": 0.6227393466,
				"y": -0.2406726362,
				"z": 0.5996742126,
				"element": "N" 
			},
			{
				"x": 0.0437700095,
				"y": -1.4742036212,
				"z": 0.2995593208,
				"element": "C" 
			},
			{
				"x": -0.495972281,
				"y": -1.7502802752,
				"z": -0.9849767772,
				"element": "C" 
			},
			{
				"x": -0.576907479,
				"y": -0.8385413411,
				"z": -2.0643456227,
				"element": "N" 
			},
			{
				"x": -1.0536907186,
				"y": -3.0139478035,
				"z": -1.2324960353,
				"element": "C" 
			},
			{
				"x": -1.1354287277,
				"y": -3.9949045413,
				"z": -0.2499341732,
				"element": "C" 
			},
			{
				"x": -0.6454319934,
				"y": -3.7156141337,
				"z": 1.0234315489,
				"element": "C" 
			},
			{
				"x": -0.0619350151,
				"y": -2.4785099443,
				"z": 1.2822944817,
				"element": "C" 
			},
			{
				"x": -0.006322281,
				"y": 1.9412642028,
				"z": -0.8228807484,
				"element": "H" 
			},
			{
				"x": 1.2893544581,
				"y": 1.8711700821,
				"z": -2.0124961894,
				"element": "H" 
			},
			{
				"x": 2.0768528662,
				"y": -0.2946475667,
				"z": -0.9460328558,
				"element": "H" 
			},
			{
				"x": 2.6202934386,
				"y": 2.2929191056,
				"z": 0.0028959377,
				"element": "H" 
			},
			{
				"x": 3.3706768559,
				"y": 0.8223140999,
				"z": 0.6259746117,
				"element": "H" 
			},
			{
				"x": 0.8991851095,
				"y": 2.2281972306,
				"z": 1.7658021877,
				"element": "H" 
			},
			{
				"x": 2.340503111,
				"y": 1.7039528312,
				"z": 2.6508728929,
				"element": "H" 
			},
			{
				"x": 1.7771934897,
				"y": -0.6435068074,
				"z": 2.3569466178,
				"element": "H" 
			},
			{
				"x": 0.1749067784,
				"y": 0.0648941542,
				"z": 2.6413754364,
				"element": "H" 
			},
			{
				"x": -1.1146910129,
				"y": -1.1925634059,
				"z": -2.8473390599,
				"element": "H" 
			},
			{
				"x": -1.4523284083,
				"y": -3.2142665399,
				"z": -2.2245945029,
				"element": "H" 
			},
			{
				"x": -1.5852311793,
				"y": -4.9554965716,
				"z": -0.479364717,
				"element": "H" 
			},
			{
				"x": -0.703301818,
				"y": -4.4566164356,
				"z": 1.8149230814,
				"element": "H" 
			},
			{
				"x": 0.3288706493,
				"y": -2.2826961813,
				"z": 2.2733170531,
				"element": "H" 
			}
		],
		 "valence_orbital": [ 
			{
				"type": "occ",
				"energy": -0.29722,
				"method": "rhf"
			},
			{
				"type": "occ",
				"energy": -0.28257,
				"method": "rhf"
			},
			{
				"type": "occ",
				"energy": -0.24648,
				"method": "rhf"
			},
			{
				"type": "occ",
				"energy": -0.22482,
				"method": "rhf"
			},
			{
				"type": "occ",
				"energy": -0.18917,
				"method": "rhf"
			},
			{
				"type": "unocc",
				"energy": -0.00751,
				"method": "rhf"
			},
			{
				"type": "unocc",
				"energy": 0.00637,
				"method": "rhf"
			},
			{
				"type": "unocc",
				"energy": 0.0452,
				"method": "rhf"
			},
			{
				"type": "unocc",
				"energy": 0.07816,
				"method": "rhf"
			},
			{
				"type": "unocc",
				"energy": 0.08695,
				"method": "rhf"
			}
		],
		"cosmo_sigma_profile": { 
			"-0.025": 0.0,
			"-0.024": 0.0,
			"-0.023": 0.0,
			"-0.022": 0.0,
			"-0.021": 0.0,
			"-0.02": 0.0,
			"-0.019": 0.0,
			"-0.018": 0.0,
			"-0.017": 0.0,
			"-0.016": 0.0,
			"-0.015": 0.0,
			"-0.014": 0.129278865964,
			"-0.013": 0.998150512057,
			"-0.012": 1.33548905216,
			"-0.011": 1.16503635011,
			"-0.01": 0.753925175091,
			"-0.009": 1.3063878469,
			"-0.008": 1.23903719389,
			"-0.007": 1.06373162153,
			"-0.006": 3.63070606624,
			"-0.005": 13.3078379278,
			"-0.004": 28.7192806901,
			"-0.003": 34.0139440997,
			"-0.002": 27.9451599951,
			"-0.001": 20.8512754552,
			"0.0": 17.1911534872,
			"0.001": 9.85368476226,
			"0.002": 10.1452083493,
			"0.003": 8.61577183658,
			"0.004": 9.73482353896,
			"0.005": 9.83759099057,
			"0.006": 9.67514484014,
			"0.007": 5.80899006895,
			"0.008": 0.941573330624,
			"0.009": 0.966603894411,
			"0.01": 2.28159104222,
			"0.011": 1.38585634846,
			"0.012": 1.29020141113,
			"0.013": 4.13056761094,
			"0.014": 5.23119360015,
			"0.015": 1.34477714429,
			"0.016": 0.0,
			"0.017": 0.0,
			"0.018": 0.0,
			"0.019": 0.0,
			"0.02": 0.0,
			"0.021": 0.0,
			"0.022": 0.0,
			"0.023": 0.0,
			"0.024": 0.0,
			"0.025": 0.0
		}
	}
}
