{
	 "smiles": "CC1=CC(C(C#N)C2=CC=C(Cl)C=C2)=C(Cl)C=C1NC(=O)C1=CC(I)=CC(I)=C1O", 
	 "Tm": 491.15, 
	 "num_atms": 44, 
	 "gaussian": { 
		 "optdone": 1, 
		 "sigma_profile": "yes", 
		 "theory": "DFT", 
		 "functional": "B3LYP", 
		 "basiset": "6-31G**", 
		 "properties": { 
			 "R2extent": 19054.4164, 
			 "electric_dipole_moment_norm": 4.24098076629, 
			 "electric_quadrupole_moment_norm": 22.1773738486, 
			 "total_energy": -2049.88687682, 
			 "HOMO_LUMO_gap": 0.15667, 
			 "cosmo_polarized_energy": -22.37, 
			 "cosmo_cavitation_energy": 59.21, 
			 "cosmo_dispersion_energy": -40.9, 
			 "cosmo_repulsion_energy": 3.05, 
			 "cosmo_total_nonelectrostatic_energy": 21.36, 
			 "SMD_solvation_energy": 9.48 
		},
		"coords": [
			{
				"x": 3.0238814986,
				"y": -1.1711350005,
				"z": -0.9180197941,
				"element": "C" 
			},
			{
				"x": 1.6281405067,
				"y": -0.8653792781,
				"z": -0.4368554856,
				"element": "C" 
			},
			{
				"x": 1.0061355761,
				"y": 0.3381397502,
				"z": -0.7874182186,
				"element": "C" 
			},
			{
				"x": -0.2987711116,
				"y": 0.676611869,
				"z": -0.4119072523,
				"element": "C" 
			},
			{
				"x": -0.871238387,
				"y": 2.0211962278,
				"z": -0.8692291104,
				"element": "C" 
			},
			{
				"x": -1.153508414,
				"y": 2.8952751627,
				"z": 0.2820945002,
				"element": "C" 
			},
			{
				"x": -1.3462788784,
				"y": 3.6068089537,
				"z": 1.1783215075,
				"element": "N" 
			},
			{
				"x": -2.0540068068,
				"y": 1.9104097577,
				"z": -1.8454461165,
				"element": "C" 
			},
			{
				"x": -3.2254198609,
				"y": 2.6550750301,
				"z": -1.6870298412,
				"element": "C" 
			},
			{
				"x": -4.2563445484,
				"y": 2.5702927875,
				"z": -2.6237735545,
				"element": "C" 
			},
			{
				"x": -4.1087885728,
				"y": 1.7333208887,
				"z": -3.7274265153,
				"element": "C" 
			},
			{
				"x": -5.4014938194,
				"y": 1.6194605682,
				"z": -4.9100495881,
				"element": "Cl" 
			},
			{
				"x": -2.9466279179,
				"y": 0.9827318841,
				"z": -3.906602039,
				"element": "C" 
			},
			{
				"x": -1.9257286675,
				"y": 1.0775175151,
				"z": -2.9636036512,
				"element": "C" 
			},
			{
				"x": -1.0098590843,
				"y": -0.2538893388,
				"z": 0.3608410761,
				"element": "C" 
			},
			{
				"x": -2.6505499839,
				"y": 0.0556205668,
				"z": 0.885147073,
				"element": "Cl" 
			},
			{
				"x": -0.4175589969,
				"y": -1.4522992844,
				"z": 0.7491905122,
				"element": "C" 
			},
			{
				"x": 0.8930425422,
				"y": -1.7561926987,
				"z": 0.367894557,
				"element": "C" 
			},
			{
				"x": 1.4160079185,
				"y": -3.0268918854,
				"z": 0.7596797496,
				"element": "N" 
			},
			{
				"x": 2.5559626129,
				"y": -3.3758045094,
				"z": 1.4427921676,
				"element": "C" 
			},
			{
				"x": 2.9548529134,
				"y": -4.5508291805,
				"z": 1.3235316404,
				"element": "O" 
			},
			{
				"x": 3.2767237774,
				"y": -2.4157637575,
				"z": 2.3172975109,
				"element": "C" 
			},
			{
				"x": 2.7050100725,
				"y": -1.2177198859,
				"z": 2.7835774941,
				"element": "C" 
			},
			{
				"x": 3.435858152,
				"y": -0.3554402264,
				"z": 3.5869635157,
				"element": "C" 
			},
			{
				"x": 2.5573296982,
				"y": 1.4461516526,
				"z": 4.2692303096,
				"element": "I" 
			},
			{
				"x": 4.7538313113,
				"y": -0.6653827346,
				"z": 3.9481462641,
				"element": "C" 
			},
			{
				"x": 5.3194057456,
				"y": -1.8612396586,
				"z": 3.5253028839,
				"element": "C" 
			},
			{
				"x": 7.2899044221,
				"y": -2.3425357281,
				"z": 4.1058439054,
				"element": "I" 
			},
			{
				"x": 4.5930906871,
				"y": -2.7766120825,
				"z": 2.732888704,
				"element": "C" 
			},
			{
				"x": 5.1554824718,
				"y": -3.9350588884,
				"z": 2.3988374139,
				"element": "O" 
			},
			{
				"x": 3.7672637983,
				"y": -0.9978467014,
				"z": -0.1321361092,
				"element": "H" 
			},
			{
				"x": 3.1196735529,
				"y": -2.2157883016,
				"z": -1.2287127571,
				"element": "H" 
			},
			{
				"x": 3.286639272,
				"y": -0.5363339433,
				"z": -1.7676088908,
				"element": "H" 
			},
			{
				"x": 1.5654007655,
				"y": 1.0444312133,
				"z": -1.395953833,
				"element": "H" 
			},
			{
				"x": -0.0595413514,
				"y": 2.5252582272,
				"z": -1.4111788269,
				"element": "H" 
			},
			{
				"x": -3.3442343939,
				"y": 3.3048745881,
				"z": -0.8259997771,
				"element": "H" 
			},
			{
				"x": -5.1652999788,
				"y": 3.1470563042,
				"z": -2.4946862001,
				"element": "H" 
			},
			{
				"x": -2.8438574978,
				"y": 0.3354099852,
				"z": -4.7703456919,
				"element": "H" 
			},
			{
				"x": -1.023262102,
				"y": 0.4890765264,
				"z": -3.102056908,
				"element": "H" 
			},
			{
				"x": -0.9706796834,
				"y": -2.151976144,
				"z": 1.3657086749,
				"element": "H" 
			},
			{
				"x": 1.0046457251,
				"y": -3.8413326178,
				"z": 0.3158027558,
				"element": "H" 
			},
			{
				"x": 1.6851057374,
				"y": -0.9714233422,
				"z": 2.5255205124,
				"element": "H" 
			},
			{
				"x": 5.328210978,
				"y": 0.0142180824,
				"z": 4.5657749607,
				"element": "H" 
			},
			{
				"x": 4.4425503213,
				"y": -4.4680623533,
				"z": 1.9466524722,
				"element": "H" 
			}
		],
		 "valence_orbital": [ 
			{
				"type": "occ",
				"energy": -0.26802,
				"method": "rhf"
			},
			{
				"type": "occ",
				"energy": -0.26636,
				"method": "rhf"
			},
			{
				"type": "occ",
				"energy": -0.25749,
				"method": "rhf"
			},
			{
				"type": "occ",
				"energy": -0.25583,
				"method": "rhf"
			},
			{
				"type": "occ",
				"energy": -0.23141,
				"method": "rhf"
			},
			{
				"type": "unocc",
				"energy": -0.07474,
				"method": "rhf"
			},
			{
				"type": "unocc",
				"energy": -0.05794,
				"method": "rhf"
			},
			{
				"type": "unocc",
				"energy": -0.05282,
				"method": "rhf"
			},
			{
				"type": "unocc",
				"energy": -0.04684,
				"method": "rhf"
			},
			{
				"type": "unocc",
				"energy": -0.03449,
				"method": "rhf"
			}
		],
		"cosmo_sigma_profile": { 
			"-0.025": 0.0,
			"-0.024": 0.0,
			"-0.023": 0.0,
			"-0.022": 0.0,
			"-0.021": 0.0,
			"-0.02": 0.0,
			"-0.019": 0.0,
			"-0.018": 0.0,
			"-0.017": 0.0,
			"-0.016": 0.146119646194,
			"-0.015": 1.05135736537,
			"-0.014": 0.923764408439,
			"-0.013": 0.880675774435,
			"-0.012": 0.832978018713,
			"-0.011": 2.13925833864,
			"-0.01": 5.08061949923,
			"-0.009": 3.36268089974,
			"-0.008": 7.59107998867,
			"-0.007": 16.6741837531,
			"-0.006": 19.6065111344,
			"-0.005": 22.7457991471,
			"-0.004": 30.7851284446,
			"-0.003": 30.4017945904,
			"-0.002": 33.2028518463,
			"-0.001": 39.1288747842,
			"0.0": 42.8829821474,
			"0.001": 49.9400171082,
			"0.002": 39.92230883,
			"0.003": 42.0324368236,
			"0.004": 43.4762778549,
			"0.005": 17.7189983683,
			"0.006": 5.55327793761,
			"0.007": 5.13640092969,
			"0.008": 6.13998432293,
			"0.009": 7.26684154686,
			"0.01": 5.82226893218,
			"0.011": 5.45393267611,
			"0.012": 3.64471509535,
			"0.013": 1.13237587743,
			"0.014": 0.0,
			"0.015": 0.0,
			"0.016": 0.0,
			"0.017": 0.0,
			"0.018": 0.0,
			"0.019": 0.0,
			"0.02": 0.0,
			"0.021": 0.0,
			"0.022": 0.0,
			"0.023": 0.0,
			"0.024": 0.0,
			"0.025": 0.0
		}
	}
}
