{
	 "smiles": "NCC(=O)N1CCN(CC1)C1=CC=C(Cl)C=C1", 
	 "Tm": 361.15, 
	 "num_atms": 33, 
	 "gaussian": { 
		 "optdone": 1, 
		 "sigma_profile": "yes", 
		 "theory": "DFT", 
		 "functional": "B3LYP", 
		 "basiset": "6-31G**", 
		 "properties": { 
			 "R2extent": 8899.4873, 
			 "electric_dipole_moment_norm": 1.31073332147, 
			 "electric_quadrupole_moment_norm": 32.9835667427, 
			 "total_energy": -1166.58884914, 
			 "HOMO_LUMO_gap": 0.18712, 
			 "cosmo_polarized_energy": -16.66, 
			 "cosmo_cavitation_energy": 36.49, 
			 "cosmo_dispersion_energy": -26.93, 
			 "cosmo_repulsion_energy": 2.09, 
			 "cosmo_total_nonelectrostatic_energy": 11.65, 
			 "SMD_solvation_energy": 3.06 
		},
		"coords": [
			{
				"x": 1.6603575845,
				"y": -4.1480968161,
				"z": 2.2221818881,
				"element": "N" 
			},
			{
				"x": 1.1829286087,
				"y": -2.7923994627,
				"z": 2.0074251762,
				"element": "C" 
			},
			{
				"x": 0.5133627485,
				"y": -2.5722313635,
				"z": 0.636823022,
				"element": "C" 
			},
			{
				"x": 0.3342996991,
				"y": -3.5151876972,
				"z": -0.1297794069,
				"element": "O" 
			},
			{
				"x": 0.1211612036,
				"y": -1.2945007614,
				"z": 0.3250310037,
				"element": "N" 
			},
			{
				"x": 0.364529128,
				"y": -0.1349453531,
				"z": 1.1853102518,
				"element": "C" 
			},
			{
				"x": -0.4928784253,
				"y": 1.0550496264,
				"z": 0.7467688263,
				"element": "C" 
			},
			{
				"x": -0.2436673355,
				"y": 1.3937354569,
				"z": -0.6456911063,
				"element": "N" 
			},
			{
				"x": 0.0380228615,
				"y": 0.2893933445,
				"z": -1.5622168697,
				"element": "C" 
			},
			{
				"x": -0.4658513832,
				"y": -1.0343557247,
				"z": -0.9907103192,
				"element": "C" 
			},
			{
				"x": -0.4169274567,
				"y": 2.6884646176,
				"z": -1.1193974711,
				"element": "C" 
			},
			{
				"x": 0.0559063442,
				"y": 3.0608396529,
				"z": -2.397684151,
				"element": "C" 
			},
			{
				"x": -0.1090600225,
				"y": 4.3563352288,
				"z": -2.8791330751,
				"element": "C" 
			},
			{
				"x": -0.7435745835,
				"y": 5.3161515697,
				"z": -2.0935606132,
				"element": "C" 
			},
			{
				"x": -0.946700693,
				"y": 6.9563914489,
				"z": -2.7009030269,
				"element": "Cl" 
			},
			{
				"x": -1.219109018,
				"y": 4.9783656928,
				"z": -0.8288412246,
				"element": "C" 
			},
			{
				"x": -1.0638759121,
				"y": 3.6802484726,
				"z": -0.3494623678,
				"element": "C" 
			},
			{
				"x": 0.898360543,
				"y": -4.7867220939,
				"z": 2.0006592014,
				"element": "H" 
			},
			{
				"x": 2.364256489,
				"y": -4.3554315738,
				"z": 1.5162169409,
				"element": "H" 
			},
			{
				"x": 0.4610838873,
				"y": -2.5387069303,
				"z": 2.7961985081,
				"element": "H" 
			},
			{
				"x": 2.0184369267,
				"y": -2.0921970404,
				"z": 2.1310467784,
				"element": "H" 
			},
			{
				"x": 1.4232106343,
				"y": 0.1618356597,
				"z": 1.1583769388,
				"element": "H" 
			},
			{
				"x": 0.1152843183,
				"y": -0.3722637359,
				"z": 2.2243776215,
				"element": "H" 
			},
			{
				"x": -0.2174952776,
				"y": 1.9055662614,
				"z": 1.3772176928,
				"element": "H" 
			},
			{
				"x": -1.5559988254,
				"y": 0.8372008947,
				"z": 0.943365703,
				"element": "H" 
			},
			{
				"x": 1.1146208835,
				"y": 0.2097574015,
				"z": -1.7814324239,
				"element": "H" 
			},
			{
				"x": -0.4744397243,
				"y": 0.4673399683,
				"z": -2.5145971635,
				"element": "H" 
			},
			{
				"x": -0.190391415,
				"y": -1.8645714962,
				"z": -1.6427122554,
				"element": "H" 
			},
			{
				"x": -1.5623951528,
				"y": -1.0170905139,
				"z": -0.926038414,
				"element": "H" 
			},
			{
				"x": 0.5821525419,
				"y": 2.3433828895,
				"z": -3.0162763528,
				"element": "H" 
			},
			{
				"x": 0.2676549494,
				"y": 4.6207624909,
				"z": -3.8613833088,
				"element": "H" 
			},
			{
				"x": -1.7239079931,
				"y": 5.722274697,
				"z": -0.2218416567,
				"element": "H" 
			},
			{
				"x": -1.4777561333,
				"y": 3.439605189,
				"z": 0.6226616539,
				"element": "H" 
			}
		],
		 "valence_orbital": [ 
			{
				"type": "occ",
				"energy": -0.26134,
				"method": "rhf"
			},
			{
				"type": "occ",
				"energy": -0.26034,
				"method": "rhf"
			},
			{
				"type": "occ",
				"energy": -0.24789,
				"method": "rhf"
			},
			{
				"type": "occ",
				"energy": -0.24179,
				"method": "rhf"
			},
			{
				"type": "occ",
				"energy": -0.19907,
				"method": "rhf"
			},
			{
				"type": "unocc",
				"energy": -0.01195,
				"method": "rhf"
			},
			{
				"type": "unocc",
				"energy": 0.00437,
				"method": "rhf"
			},
			{
				"type": "unocc",
				"energy": 0.02145,
				"method": "rhf"
			},
			{
				"type": "unocc",
				"energy": 0.03572,
				"method": "rhf"
			},
			{
				"type": "unocc",
				"energy": 0.06042,
				"method": "rhf"
			}
		],
		"cosmo_sigma_profile": { 
			"-0.025": 0.0,
			"-0.024": 0.0,
			"-0.023": 0.0,
			"-0.022": 0.0,
			"-0.021": 0.0,
			"-0.02": 0.0,
			"-0.019": 0.0,
			"-0.018": 0.0,
			"-0.017": 0.0,
			"-0.016": 0.0,
			"-0.015": 0.0,
			"-0.014": 0.0,
			"-0.013": 0.0,
			"-0.012": 0.0,
			"-0.011": 0.0,
			"-0.01": 0.532331870318,
			"-0.009": 1.34237398376,
			"-0.008": 2.56384433491,
			"-0.007": 6.38910001288,
			"-0.006": 20.7845748591,
			"-0.005": 34.0042562828,
			"-0.004": 36.9919940855,
			"-0.003": 24.1363538092,
			"-0.002": 15.9291529454,
			"-0.001": 12.8508667082,
			"0.0": 12.8854196551,
			"0.001": 13.3836626389,
			"0.002": 14.0721002978,
			"0.003": 16.1930815118,
			"0.004": 19.5027080446,
			"0.005": 23.6690395989,
			"0.006": 9.15036123484,
			"0.007": 2.67042120832,
			"0.008": 2.36610193263,
			"0.009": 1.16433216994,
			"0.01": 2.22346561288,
			"0.011": 1.68927766886,
			"0.012": 3.06849790426,
			"0.013": 2.75901252562,
			"0.014": 5.18001321357,
			"0.015": 0.991280343794,
			"0.016": 0.836783447159,
			"0.017": 0.724053750828,
			"0.018": 0.692023143058,
			"0.019": 0.524077065953,
			"0.02": 0.0957518160462,
			"0.021": 0.0,
			"0.022": 0.0,
			"0.023": 0.0,
			"0.024": 0.0,
			"0.025": 0.0
		}
	}
}
