{
	 "smiles": "OC(=O)CN(CC1=CC=CC=C1)S(=O)(=O)C1=CC=C(Cl)C=C1", 
	 "Tm": 423.15, 
	 "num_atms": 36, 
	 "gaussian": { 
		 "optdone": 1, 
		 "sigma_profile": "yes", 
		 "theory": "DFT", 
		 "functional": "B3LYP", 
		 "basiset": "6-31G**", 
		 "properties": { 
			 "R2extent": 9359.9524, 
			 "electric_dipole_moment_norm": 4.81960064113, 
			 "electric_quadrupole_moment_norm": 16.8891277481, 
			 "total_energy": -1793.9961315, 
			 "HOMO_LUMO_gap": 0.20032, 
			 "cosmo_polarized_energy": -19.66, 
			 "cosmo_cavitation_energy": 43.55, 
			 "cosmo_dispersion_energy": -29.66, 
			 "cosmo_repulsion_energy": 2.25, 
			 "cosmo_total_nonelectrostatic_energy": 16.14, 
			 "SMD_solvation_energy": 7.4 
		},
		"coords": [
			{
				"x": 1.6756108224,
				"y": 0.5729149005,
				"z": 2.5519497514,
				"element": "O" 
			},
			{
				"x": 2.3766021552,
				"y": 1.0153084296,
				"z": 1.4806042429,
				"element": "C" 
			},
			{
				"x": 3.4139978047,
				"y": 1.6259798876,
				"z": 1.5830835159,
				"element": "O" 
			},
			{
				"x": 1.8025601958,
				"y": 0.5853438856,
				"z": 0.1401514146,
				"element": "C" 
			},
			{
				"x": 0.369002562,
				"y": 0.2737253114,
				"z": 0.128708028,
				"element": "N" 
			},
			{
				"x": -0.0516400006,
				"y": -0.8051195109,
				"z": -0.7908182703,
				"element": "C" 
			},
			{
				"x": 0.5244034938,
				"y": -2.150723804,
				"z": -0.3956390018,
				"element": "C" 
			},
			{
				"x": 0.5040368679,
				"y": -2.5837162139,
				"z": 0.9377238654,
				"element": "C" 
			},
			{
				"x": 0.992342921,
				"y": -3.8447968522,
				"z": 1.2769028147,
				"element": "C" 
			},
			{
				"x": 1.5049487918,
				"y": -4.6910146587,
				"z": 0.289839701,
				"element": "C" 
			},
			{
				"x": 1.5324249951,
				"y": -4.2658400153,
				"z": -1.0383578702,
				"element": "C" 
			},
			{
				"x": 1.0487365123,
				"y": -3.0000058804,
				"z": -1.3767816058,
				"element": "C" 
			},
			{
				"x": -0.6377664053,
				"y": 1.6487379934,
				"z": 0.1027186753,
				"element": "S" 
			},
			{
				"x": -1.1667640298,
				"y": 1.8883762143,
				"z": -1.24670619,
				"element": "O" 
			},
			{
				"x": 0.1197811754,
				"y": 2.6912319461,
				"z": 0.8015250418,
				"element": "O" 
			},
			{
				"x": -2.01123505,
				"y": 1.1167652733,
				"z": 1.1266498105,
				"element": "C" 
			},
			{
				"x": -1.778742218,
				"y": 0.7683030722,
				"z": 2.4605081321,
				"element": "C" 
			},
			{
				"x": -2.8548521903,
				"y": 0.4053019832,
				"z": 3.2652570303,
				"element": "C" 
			},
			{
				"x": -4.1439254311,
				"y": 0.4043923908,
				"z": 2.7236493586,
				"element": "C" 
			},
			{
				"x": -5.4963447133,
				"y": -0.0534961413,
				"z": 3.7397704812,
				"element": "Cl" 
			},
			{
				"x": -4.3776831879,
				"y": 0.758594797,
				"z": 1.3951651696,
				"element": "C" 
			},
			{
				"x": -3.2978781431,
				"y": 1.1201606603,
				"z": 0.588767139,
				"element": "C" 
			},
			{
				"x": 2.1669934762,
				"y": 0.8948635861,
				"z": 3.326882801,
				"element": "H" 
			},
			{
				"x": 2.320165119,
				"y": -0.3426249572,
				"z": -0.1252656823,
				"element": "H" 
			},
			{
				"x": 2.1005157048,
				"y": 1.3450116746,
				"z": -0.5898983587,
				"element": "H" 
			},
			{
				"x": -1.1454402969,
				"y": -0.8503975848,
				"z": -0.7495084719,
				"element": "H" 
			},
			{
				"x": 0.2111488002,
				"y": -0.5682501281,
				"z": -1.8305810418,
				"element": "H" 
			},
			{
				"x": 0.1185048498,
				"y": -1.9202638688,
				"z": 1.7054458678,
				"element": "H" 
			},
			{
				"x": 0.9732454129,
				"y": -4.1687788742,
				"z": 2.3136442825,
				"element": "H" 
			},
			{
				"x": 1.8848331951,
				"y": -5.6729539948,
				"z": 0.5565891051,
				"element": "H" 
			},
			{
				"x": 1.9357087118,
				"y": -4.9137509863,
				"z": -1.8112265433,
				"element": "H" 
			},
			{
				"x": 1.0763143823,
				"y": -2.6702814626,
				"z": -2.41258622,
				"element": "H" 
			},
			{
				"x": -0.7677271032,
				"y": 0.7732949528,
				"z": 2.8533678896,
				"element": "H" 
			},
			{
				"x": -2.7024739334,
				"y": 0.1274172778,
				"z": 4.3020418596,
				"element": "H" 
			},
			{
				"x": -5.3867120973,
				"y": 0.7527488012,
				"z": 0.9990133245,
				"element": "H" 
			},
			{
				"x": -3.4458931494,
				"y": 1.4056418959,
				"z": -0.4467900464,
				"element": "H" 
			}
		],
		 "valence_orbital": [ 
			{
				"type": "occ",
				"energy": -0.28576,
				"method": "rhf"
			},
			{
				"type": "occ",
				"energy": -0.27497,
				"method": "rhf"
			},
			{
				"type": "occ",
				"energy": -0.26235,
				"method": "rhf"
			},
			{
				"type": "occ",
				"energy": -0.26089,
				"method": "rhf"
			},
			{
				"type": "occ",
				"energy": -0.25359,
				"method": "rhf"
			},
			{
				"type": "unocc",
				"energy": -0.05327,
				"method": "rhf"
			},
			{
				"type": "unocc",
				"energy": -0.03583,
				"method": "rhf"
			},
			{
				"type": "unocc",
				"energy": -0.01931,
				"method": "rhf"
			},
			{
				"type": "unocc",
				"energy": -0.01298,
				"method": "rhf"
			},
			{
				"type": "unocc",
				"energy": 0.00679,
				"method": "rhf"
			}
		],
		"cosmo_sigma_profile": { 
			"-0.025": 0.0,
			"-0.024": 0.0,
			"-0.023": 0.0,
			"-0.022": 0.0,
			"-0.021": 0.0,
			"-0.02": 0.0,
			"-0.019": 0.169655536615,
			"-0.018": 0.740282260038,
			"-0.017": 0.996446800075,
			"-0.016": 0.751170815649,
			"-0.015": 1.21179935376,
			"-0.014": 0.966977758439,
			"-0.013": 0.1438781865,
			"-0.012": 0.579496742852,
			"-0.011": 0.824198069772,
			"-0.01": 0.663999106217,
			"-0.009": 1.80700830297,
			"-0.008": 6.97477393779,
			"-0.007": 11.4576444921,
			"-0.006": 22.5607247923,
			"-0.005": 23.3021975606,
			"-0.004": 23.1120810673,
			"-0.003": 23.7385385888,
			"-0.002": 22.7302639827,
			"-0.001": 24.1877477759,
			"0.0": 26.0887362139,
			"0.001": 29.8972067551,
			"0.002": 20.29865658,
			"0.003": 20.2135623628,
			"0.004": 24.4203424629,
			"0.005": 14.9678548859,
			"0.006": 8.13127298788,
			"0.007": 3.82000539508,
			"0.008": 4.68393941486,
			"0.009": 6.34062733983,
			"0.01": 9.39737011379,
			"0.011": 11.2281698735,
			"0.012": 3.62424451454,
			"0.013": 0.214853770425,
			"0.014": 0.0,
			"0.015": 0.0,
			"0.016": 0.0,
			"0.017": 0.0,
			"0.018": 0.0,
			"0.019": 0.0,
			"0.02": 0.0,
			"0.021": 0.0,
			"0.022": 0.0,
			"0.023": 0.0,
			"0.024": 0.0,
			"0.0": 0.0
		}
	}
}
