{
	 "smiles": "IC1=CC=C(C=C1)N1CCOCC1", 
	 "Tm": 405.15, 
	 "num_atms": 25, 
	 "gaussian": { 
		 "optdone": 1, 
		 "sigma_profile": "no", 
		 "theory": "DFT", 
		 "functional": "B3LYP", 
		 "basiset": "6-31G**", 
		 "properties": { 
			 "R2extent": 3311.6594, 
			 "electric_dipole_moment_norm": 2.72626550981, 
			 "electric_quadrupole_moment_norm": 15.4144400116, 
			 "total_energy": -529.63004577, 
			 "HOMO_LUMO_gap": 0.16613, 
			 "cosmo_polarized_energy": -107820.75, 
			 "cosmo_cavitation_energy": 29.92, 
			 "cosmo_dispersion_energy": -23.98, 
			 "cosmo_repulsion_energy": 1.86, 
			 "cosmo_total_nonelectrostatic_energy": 7.8, 
			 "SMD_solvation_energy": 3.06 
		},
		"coords": [
			{
				"x": -2.0850214075,
				"y": 4.2900849053,
				"z": -0.5740696729,
				"element": "I" 
			},
			{
				"x": -1.1661477235,
				"y": 2.3865841328,
				"z": -0.395423061,
				"element": "C" 
			},
			{
				"x": -1.0748449797,
				"y": 1.5461983301,
				"z": -1.505156486,
				"element": "C" 
			},
			{
				"x": -0.4755488007,
				"y": 0.2949587101,
				"z": -1.3880306194,
				"element": "C" 
			},
			{
				"x": 0.0586437769,
				"y": -0.1496835015,
				"z": -0.1575457449,
				"element": "C" 
			},
			{
				"x": -0.0433681988,
				"y": 0.7228795833,
				"z": 0.9494539034,
				"element": "C" 
			},
			{
				"x": -0.6506804477,
				"y": 1.9702503727,
				"z": 0.8321975424,
				"element": "C" 
			},
			{
				"x": 0.6589989391,
				"y": -1.3924633767,
				"z": -0.0411729727,
				"element": "N" 
			},
			{
				"x": 1.0389830258,
				"y": -2.1753112725,
				"z": -1.2122732478,
				"element": "C" 
			},
			{
				"x": 2.2067156352,
				"y": -3.0961294652,
				"z": -0.8624119249,
				"element": "C" 
			},
			{
				"x": 1.918603396,
				"y": -3.9954265403,
				"z": 0.2024204693,
				"element": "O" 
			},
			{
				"x": 0.9612324081,
				"y": -3.511624809,
				"z": 1.1378662638,
				"element": "C" 
			},
			{
				"x": 0.9464879523,
				"y": -1.9887772113,
				"z": 1.2589875026,
				"element": "C" 
			},
			{
				"x": -1.4794763095,
				"y": 1.8528760188,
				"z": -2.4635989468,
				"element": "H" 
			},
			{
				"x": -0.4506032014,
				"y": -0.3473461798,
				"z": -2.2605991739,
				"element": "H" 
			},
			{
				"x": 0.3768075673,
				"y": 0.4432722189,
				"z": 1.9085354035,
				"element": "H" 
			},
			{
				"x": -0.7063895286,
				"y": 2.6168564857,
				"z": 1.7012188576,
				"element": "H" 
			},
			{
				"x": 1.3660167879,
				"y": -1.5029166944,
				"z": -2.0133492665,
				"element": "H" 
			},
			{
				"x": 0.1971623104,
				"y": -2.767766504,
				"z": -1.6059008463,
				"element": "H" 
			},
			{
				"x": 3.0822916399,
				"y": -2.4787905441,
				"z": -0.6082016868,
				"element": "H" 
			},
			{
				"x": 2.4696301753,
				"y": -3.7059393879,
				"z": -1.7330986912,
				"element": "H" 
			},
			{
				"x": 1.2088273835,
				"y": -3.9566264674,
				"z": 2.1072761731,
				"element": "H" 
			},
			{
				"x": -0.0466087339,
				"y": -3.8556894437,
				"z": 0.8581407573,
				"element": "H" 
			},
			{
				"x": 1.9037992682,
				"y": -1.6349012994,
				"z": 1.6748521207,
				"element": "H" 
			},
			{
				"x": 0.1607890653,
				"y": -1.7131680604,
				"z": 1.9713833473,
				"element": "H" 
			}
		],
		 "valence_orbital": [ 
			{
				"type": "occ",
				"energy": -0.26081,
				"method": "rhf"
			},
			{
				"type": "occ",
				"energy": -0.25955,
				"method": "rhf"
			},
			{
				"type": "occ",
				"energy": -0.25709,
				"method": "rhf"
			},
			{
				"type": "occ",
				"energy": -0.25387,
				"method": "rhf"
			},
			{
				"type": "occ",
				"energy": -0.19495,
				"method": "rhf"
			},
			{
				"type": "unocc",
				"energy": -0.02882,
				"method": "rhf"
			},
			{
				"type": "unocc",
				"energy": -0.00859,
				"method": "rhf"
			},
			{
				"type": "unocc",
				"energy": 0.00379,
				"method": "rhf"
			},
			{
				"type": "unocc",
				"energy": 0.04749,
				"method": "rhf"
			},
			{
				"type": "unocc",
				"energy": 0.05604,
				"method": "rhf"
			}
		],
		"cosmo_sigma_profile": { 
			"0.0": 0.0,
			"0.0": 0.0,
			"0.0": 0.0,
			"0.0": 0.0,
			"0.0": 0.0,
			"0.0": 0.0,
			"0.0": 0.0,
			"0.0": 0.0,
			"0.0": 0.0,
			"0.0": 0.0,
			"0.0": 0.0,
			"0.0": 0.0,
			"0.0": 0.0,
			"0.0": 0.0,
			"0.0": 0.0,
			"0.0": 0.0,
			"0.0": 0.0,
			"0.0": 0.0,
			"0.0": 0.0,
			"0.0": 0.0,
			"0.0": 0.0,
			"0.0": 0.0,
			"0.0": 0.0,
			"0.0": 0.0,
			"0.0": 0.0,
			"0.0": 0.0,
			"0.0": 0.0,
			"0.0": 0.0,
			"0.0": 0.0,
			"0.0": 0.0,
			"0.0": 0.0,
			"0.0": 0.0,
			"0.0": 0.0,
			"0.0": 0.0,
			"0.0": 0.0,
			"0.0": 0.0,
			"0.0": 0.0,
			"0.0": 0.0,
			"0.0": 0.0,
			"0.0": 0.0,
			"0.0": 0.0,
			"0.0": 0.0,
			"0.0": 0.0,
			"0.0": 0.0,
			"0.0": 0.0,
			"0.0": 0.0,
			"0.0": 0.0,
			"0.0": 0.0,
			"0.0": 0.0,
			"0.0": 0.0,
			"0.0": 0.0
		}
	}
}
