{
	 "smiles": "OC1CS(=O)(=O)CC1Br", 
	 "Tm": 464.15, 
	 "num_atms": 16, 
	 "gaussian": { 
		 "optdone": 1, 
		 "sigma_profile": "yes", 
		 "theory": "DFT", 
		 "functional": "B3LYP", 
		 "basiset": "6-31G**", 
		 "properties": { 
			 "R2extent": 2842.1092, 
			 "electric_dipole_moment_norm": 5.88456578007, 
			 "electric_quadrupole_moment_norm": 10.8922038629, 
			 "total_energy": -3351.83018791, 
			 "HOMO_LUMO_gap": 0.2528, 
			 "cosmo_polarized_energy": -21.47, 
			 "cosmo_cavitation_energy": 22.34, 
			 "cosmo_dispersion_energy": -17.48, 
			 "cosmo_repulsion_energy": 1.37, 
			 "cosmo_total_nonelectrostatic_energy": 6.24, 
			 "SMD_solvation_energy": 1.75 
		},
		"coords": [
			{
				"x": -0.490503777,
				"y": 2.0146539485,
				"z": 1.078378756,
				"element": "O" 
			},
			{
				"x": -1.0878419251,
				"y": 1.8470642235,
				"z": -0.1986227333,
				"element": "C" 
			},
			{
				"x": -1.9198591671,
				"y": 0.568186295,
				"z": -0.143135684,
				"element": "C" 
			},
			{
				"x": -0.7617353249,
				"y": -0.8248672821,
				"z": -0.4823670627,
				"element": "S" 
			},
			{
				"x": -1.2671444535,
				"y": -1.6019143626,
				"z": -1.6220869836,
				"element": "O" 
			},
			{
				"x": -0.3814776562,
				"y": -1.4947625592,
				"z": 0.7680080089,
				"element": "O" 
			},
			{
				"x": 0.6296762985,
				"y": 0.2554961841,
				"z": -1.033348253,
				"element": "C" 
			},
			{
				"x": 0.0310944159,
				"y": 1.638359,
				"z": -1.2538259703,
				"element": "C" 
			},
			{
				"x": -0.7286384645,
				"y": 1.8411286104,
				"z": -3.0773818226,
				"element": "Br" 
			},
			{
				"x": -0.0686766537,
				"y": 2.8835645124,
				"z": 1.112620927,
				"element": "H" 
			},
			{
				"x": -1.7153196496,
				"y": 2.7038747844,
				"z": -0.4726240314,
				"element": "H" 
			},
			{
				"x": -2.3578512765,
				"y": 0.4143714154,
				"z": 0.8431788106,
				"element": "H" 
			},
			{
				"x": -2.6793782526,
				"y": 0.5388708901,
				"z": -0.9245319219,
				"element": "H" 
			},
			{
				"x": 1.0825688951,
				"y": -0.1907204386,
				"z": -1.9177201689,
				"element": "H" 
			},
			{
				"x": 1.3384112173,
				"y": 0.2790581326,
				"z": -0.2026001395,
				"element": "H" 
			},
			{
				"x": 0.7847757739,
				"y": 2.4234366464,
				"z": -1.1863417312,
				"element": "H" 
			}
		],
		 "valence_orbital": [ 
			{
				"type": "occ",
				"energy": -0.31006,
				"method": "rhf"
			},
			{
				"type": "occ",
				"energy": -0.29828,
				"method": "rhf"
			},
			{
				"type": "occ",
				"energy": -0.29449,
				"method": "rhf"
			},
			{
				"type": "occ",
				"energy": -0.2919,
				"method": "rhf"
			},
			{
				"type": "occ",
				"energy": -0.28357,
				"method": "rhf"
			},
			{
				"type": "unocc",
				"energy": -0.03077,
				"method": "rhf"
			},
			{
				"type": "unocc",
				"energy": 0.03676,
				"method": "rhf"
			},
			{
				"type": "unocc",
				"energy": 0.05394,
				"method": "rhf"
			},
			{
				"type": "unocc",
				"energy": 0.0571,
				"method": "rhf"
			},
			{
				"type": "unocc",
				"energy": 0.06622,
				"method": "rhf"
			}
		],
		"cosmo_sigma_profile": { 
			"-0.025": 0.0,
			"-0.024": 0.0,
			"-0.023": 0.0,
			"-0.022": 0.0,
			"-0.021": 0.0,
			"-0.02": 0.0,
			"-0.019": 0.0,
			"-0.018": 0.292293164128,
			"-0.017": 1.43035494302,
			"-0.016": 1.37217464889,
			"-0.015": 1.74445825145,
			"-0.014": 0.786883083536,
			"-0.013": 1.07899959587,
			"-0.012": 1.39416138475,
			"-0.011": 1.44966804824,
			"-0.01": 2.79155077193,
			"-0.009": 6.28961684517,
			"-0.008": 10.9754166919,
			"-0.007": 11.5206469188,
			"-0.006": 10.8841607348,
			"-0.005": 11.3315146282,
			"-0.004": 5.79643173987,
			"-0.003": 6.46185477165,
			"-0.002": 6.04011516477,
			"-0.001": 6.18416786503,
			"0.0": 5.99444302707,
			"0.001": 5.9705163268,
			"0.002": 7.01489525125,
			"0.003": 7.65114793688,
			"0.004": 9.83691864655,
			"0.005": 8.76149217407,
			"0.006": 4.97930634637,
			"0.007": 4.10108494535,
			"0.008": 3.62604306287,
			"0.009": 4.34074581627,
			"0.01": 7.03798135815,
			"0.011": 12.9179874929,
			"0.012": 8.49564066005,
			"0.013": 0.304688546371,
			"0.014": 0.0,
			"0.015": 0.0,
			"0.016": 0.0,
			"0.017": 0.0,
			"0.018": 0.0,
			"0.019": 0.0,
			"0.02": 0.0,
			"0.021": 0.0,
			"0.022": 0.0,
			"0.023": 0.0,
			"0.024": 0.0,
			"0.025": 0.0
		}
	}
}
