{
	 "smiles": "NC(=O)C1=CNN=C1C1=CC=CC=C1", 
	 "Tm": 461.15, 
	 "num_atms": 23, 
	 "gaussian": { 
		 "optdone": 1, 
		 "sigma_profile": "yes", 
		 "theory": "DFT", 
		 "functional": "B3LYP", 
		 "basiset": "6-31G**", 
		 "properties": { 
			 "R2extent": 3304.2234, 
			 "electric_dipole_moment_norm": 5.1040279819, 
			 "electric_quadrupole_moment_norm": 24.9539378554, 
			 "total_energy": -625.965781439, 
			 "HOMO_LUMO_gap": 0.20054, 
			 "cosmo_polarized_energy": -19.79, 
			 "cosmo_cavitation_energy": 27.39, 
			 "cosmo_dispersion_energy": -20.47, 
			 "cosmo_repulsion_energy": 1.62, 
			 "cosmo_total_nonelectrostatic_energy": 8.54, 
			 "SMD_solvation_energy": 4.76 
		},
		"coords": [
			{
				"x": -0.2743980924,
				"y": 1.0342014413,
				"z": 4.0697117881,
				"element": "N" 
			},
			{
				"x": 0.0776730432,
				"y": 0.8992397006,
				"z": 2.7403932366,
				"element": "C" 
			},
			{
				"x": -0.1075434864,
				"y": 1.8120761742,
				"z": 1.9439423788,
				"element": "O" 
			},
			{
				"x": 0.7478829324,
				"y": -0.3881652897,
				"z": 2.4220031545,
				"element": "C" 
			},
			{
				"x": 1.5570787396,
				"y": -1.0689750876,
				"z": 3.3214755468,
				"element": "C" 
			},
			{
				"x": 1.9816388401,
				"y": -2.1833131205,
				"z": 2.6909552879,
				"element": "N" 
			},
			{
				"x": 1.5080933445,
				"y": -2.2943677929,
				"z": 1.4342233553,
				"element": "N" 
			},
			{
				"x": 0.7528372431,
				"y": -1.2067565378,
				"z": 1.2372700353,
				"element": "C" 
			},
			{
				"x": 0.0439059115,
				"y": -1.0772060013,
				"z": -0.0548312866,
				"element": "C" 
			},
			{
				"x": -0.2564382953,
				"y": -2.2463882114,
				"z": -0.778564324,
				"element": "C" 
			},
			{
				"x": -0.898133034,
				"y": -2.173423242,
				"z": -2.011551411,
				"element": "C" 
			},
			{
				"x": -1.254433138,
				"y": -0.932233341,
				"z": -2.5457282681,
				"element": "C" 
			},
			{
				"x": -0.9586156806,
				"y": 0.2313491921,
				"z": -1.8355985763,
				"element": "C" 
			},
			{
				"x": -0.312101398,
				"y": 0.1665018574,
				"z": -0.6002237885,
				"element": "C" 
			},
			{
				"x": -0.4866047518,
				"y": 0.2088171079,
				"z": 4.6093846093,
				"element": "H" 
			},
			{
				"x": -0.8119127273,
				"y": 1.8633819047,
				"z": 4.2825017689,
				"element": "H" 
			},
			{
				"x": 1.8711020626,
				"y": -0.8126381882,
				"z": 4.3227664283,
				"element": "H" 
			},
			{
				"x": 2.6220475495,
				"y": -2.8830326344,
				"z": 3.0331321666,
				"element": "H" 
			},
			{
				"x": 0.0202186139,
				"y": -3.2080049286,
				"z": -0.3601861189,
				"element": "H" 
			},
			{
				"x": -1.1251076758,
				"y": -3.0868153564,
				"z": -2.5545562909,
				"element": "H" 
			},
			{
				"x": -1.7582659831,
				"y": -0.8748667743,
				"z": -3.5067107336,
				"element": "H" 
			},
			{
				"x": -1.226775466,
				"y": 1.2014626565,
				"z": -2.2448537233,
				"element": "H" 
			},
			{
				"x": -0.0828485516,
				"y": 1.0722564714,
				"z": -0.0523552352,
				"element": "H" 
			}
		],
		 "valence_orbital": [ 
			{
				"type": "occ",
				"energy": -0.27584,
				"method": "rhf"
			},
			{
				"type": "occ",
				"energy": -0.2625,
				"method": "rhf"
			},
			{
				"type": "occ",
				"energy": -0.25154,
				"method": "rhf"
			},
			{
				"type": "occ",
				"energy": -0.23553,
				"method": "rhf"
			},
			{
				"type": "occ",
				"energy": -0.21983,
				"method": "rhf"
			},
			{
				"type": "unocc",
				"energy": -0.01929,
				"method": "rhf"
			},
			{
				"type": "unocc",
				"energy": -0.01127,
				"method": "rhf"
			},
			{
				"type": "unocc",
				"energy": 0.01442,
				"method": "rhf"
			},
			{
				"type": "unocc",
				"energy": 0.04283,
				"method": "rhf"
			},
			{
				"type": "unocc",
				"energy": 0.06921,
				"method": "rhf"
			}
		],
		"cosmo_sigma_profile": { 
			"-0.025": 0.0,
			"-0.024": 0.0,
			"-0.023": 0.0,
			"-0.022": 0.0,
			"-0.021": 0.0,
			"-0.02": 0.0,
			"-0.019": 0.0,
			"-0.018": 0.113340731282,
			"-0.017": 1.84539305225,
			"-0.016": 1.4833434409,
			"-0.015": 1.32221924146,
			"-0.014": 1.56357718339,
			"-0.013": 3.11812952793,
			"-0.012": 3.87452883104,
			"-0.011": 3.78842667138,
			"-0.01": 4.77222852687,
			"-0.009": 5.60817560706,
			"-0.008": 3.50995879182,
			"-0.007": 3.94109457562,
			"-0.006": 5.8824644152,
			"-0.005": 10.6465631923,
			"-0.004": 10.3185516636,
			"-0.003": 11.5609089679,
			"-0.002": 9.8064037594,
			"-0.001": 11.63079065,
			"0.0": 9.80793533705,
			"0.001": 12.4769199282,
			"0.002": 17.5556858435,
			"0.003": 15.8576422442,
			"0.004": 14.5928933163,
			"0.005": 15.374850855,
			"0.006": 12.6341839441,
			"0.007": 4.22156897455,
			"0.008": 3.99922760337,
			"0.009": 3.68033650899,
			"0.01": 2.24719297675,
			"0.011": 2.60481016744,
			"0.012": 3.95837251351,
			"0.013": 3.24552681638,
			"0.014": 2.3245616253,
			"0.015": 0.113827016727,
			"0.016": 0.0,
			"0.017": 0.0,
			"0.018": 0.0,
			"0.019": 0.0,
			"0.02": 0.0,
			"0.021": 0.0,
			"0.022": 0.0,
			"0.023": 0.0,
			"0.024": 0.0,
			"0.025": 0.0
		}
	}
}
