{
	 "smiles": "CC1=CC=C(C)N=C1", 
	 "Tm": 257.15, 
	 "num_atms": 17, 
	 "gaussian": { 
		 "optdone": 1, 
		 "sigma_profile": "yes", 
		 "theory": "DFT", 
		 "functional": "B3LYP", 
		 "basiset": "6-31G**", 
		 "properties": { 
			 "R2extent": 1114.7812, 
			 "electric_dipole_moment_norm": 2.06073789939, 
			 "electric_quadrupole_moment_norm": 5.93651591171, 
			 "total_energy": -326.930115184, 
			 "HOMO_LUMO_gap": 0.22436, 
			 "cosmo_polarized_energy": -5.66, 
			 "cosmo_cavitation_energy": 20.22, 
			 "cosmo_dispersion_energy": -15.07, 
			 "cosmo_repulsion_energy": 1.26, 
			 "cosmo_total_nonelectrostatic_energy": 6.41, 
			 "SMD_solvation_energy": 2.4 
		},
		"coords": [
			{
				"x": 0.0093559265,
				"y": 2.5905599856,
				"z": 1.1402889328,
				"element": "C" 
			},
			{
				"x": 0.104121965,
				"y": 1.1190547692,
				"z": 0.8237903673,
				"element": "C" 
			},
			{
				"x": -1.0299996144,
				"y": 0.2989348247,
				"z": 0.7492105972,
				"element": "C" 
			},
			{
				"x": -0.8857969596,
				"y": -1.0508264558,
				"z": 0.4539598958,
				"element": "C" 
			},
			{
				"x": 0.3981166422,
				"y": -1.5747876464,
				"z": 0.2340693318,
				"element": "C" 
			},
			{
				"x": 0.6050103912,
				"y": -3.0349904581,
				"z": -0.0886138492,
				"element": "C" 
			},
			{
				"x": 1.491304325,
				"y": -0.8018793094,
				"z": 0.3021204461,
				"element": "N" 
			},
			{
				"x": 1.3332302978,
				"y": 0.4971535438,
				"z": 0.5879309622,
				"element": "C" 
			},
			{
				"x": -0.5991435646,
				"y": 3.121825117,
				"z": 0.399322781,
				"element": "H" 
			},
			{
				"x": 0.9986412566,
				"y": 3.0566864365,
				"z": 1.1540421246,
				"element": "H" 
			},
			{
				"x": -0.4532062897,
				"y": 2.7612097765,
				"z": 2.1192963589,
				"element": "H" 
			},
			{
				"x": -2.0187817868,
				"y": 0.7184895437,
				"z": 0.9218274148,
				"element": "H" 
			},
			{
				"x": -1.7556143597,
				"y": -1.6992088708,
				"z": 0.3925283733,
				"element": "H" 
			},
			{
				"x": 0.2367321686,
				"y": -3.6779166663,
				"z": 0.7193845073,
				"element": "H" 
			},
			{
				"x": 0.0679619204,
				"y": -3.322390346,
				"z": -0.999992368,
				"element": "H" 
			},
			{
				"x": 1.6688530776,
				"y": -3.2299653223,
				"z": -0.2327408573,
				"element": "H" 
			},
			{
				"x": 2.249914604,
				"y": 1.0858510783,
				"z": 0.6324749812,
				"element": "H" 
			}
		],
		 "valence_orbital": [ 
			{
				"type": "occ",
				"energy": -0.3614,
				"method": "rhf"
			},
			{
				"type": "occ",
				"energy": -0.34971,
				"method": "rhf"
			},
			{
				"type": "occ",
				"energy": -0.27544,
				"method": "rhf"
			},
			{
				"type": "occ",
				"energy": -0.24417,
				"method": "rhf"
			},
			{
				"type": "occ",
				"energy": -0.24007,
				"method": "rhf"
			},
			{
				"type": "unocc",
				"energy": -0.01571,
				"method": "rhf"
			},
			{
				"type": "unocc",
				"energy": -0.00213,
				"method": "rhf"
			},
			{
				"type": "unocc",
				"energy": 0.10412,
				"method": "rhf"
			},
			{
				"type": "unocc",
				"energy": 0.11601,
				"method": "rhf"
			},
			{
				"type": "unocc",
				"energy": 0.1285,
				"method": "rhf"
			}
		],
		"cosmo_sigma_profile": { 
			"-0.025": 0.0,
			"-0.024": 0.0,
			"-0.023": 0.0,
			"-0.022": 0.0,
			"-0.021": 0.0,
			"-0.02": 0.0,
			"-0.019": 0.0,
			"-0.018": 0.0,
			"-0.017": 0.0,
			"-0.016": 0.0,
			"-0.015": 0.0,
			"-0.014": 0.0,
			"-0.013": 0.0,
			"-0.012": 0.0,
			"-0.011": 0.0,
			"-0.01": 0.0,
			"-0.009": 0.0,
			"-0.008": 0.0,
			"-0.007": 0.300929006622,
			"-0.006": 3.77152888276,
			"-0.005": 9.429389748,
			"-0.004": 18.0433305332,
			"-0.003": 18.5798669074,
			"-0.002": 16.8103488904,
			"-0.001": 17.0713913855,
			"0.0": 19.7213721476,
			"0.001": 10.8128752691,
			"0.002": 8.73689444969,
			"0.003": 11.7681543613,
			"0.004": 9.60918664602,
			"0.005": 2.12496395686,
			"0.006": 1.96205078639,
			"0.007": 1.70024111236,
			"0.008": 1.48609414692,
			"0.009": 1.06149200117,
			"0.01": 0.968557520358,
			"0.011": 1.61061930674,
			"0.012": 0.777627013338,
			"0.013": 0.782443594131,
			"0.014": 1.09434856034,
			"0.015": 0.537119391105,
			"0.016": 1.00173004736,
			"0.017": 0.34319695438,
			"0.018": 0.0,
			"0.019": 0.0,
			"0.02": 0.0,
			"0.021": 0.0,
			"0.022": 0.0,
			"0.023": 0.0,
			"0.024": 0.0,
			"0.025": 0.0
		}
	}
}
