{
	 "smiles": "CC1=C(C(C)=NO1)S(=O)(=O)N1CCCC1C(O)=O", 
	 "Tm": 408.15, 
	 "num_atms": 32, 
	 "gaussian": { 
		 "optdone": 1, 
		 "sigma_profile": "yes", 
		 "theory": "DFT", 
		 "functional": "B3LYP", 
		 "basiset": "6-31G**", 
		 "properties": { 
			 "R2extent": 5029.9473, 
			 "electric_dipole_moment_norm": 3.19242721139, 
			 "electric_quadrupole_moment_norm": 21.8924690661, 
			 "total_energy": -1273.20811645, 
			 "HOMO_LUMO_gap": 0.22573, 
			 "cosmo_polarized_energy": -20.91, 
			 "cosmo_cavitation_energy": 36.05, 
			 "cosmo_dispersion_energy": -24.5, 
			 "cosmo_repulsion_energy": 1.83, 
			 "cosmo_total_nonelectrostatic_energy": 13.39, 
			 "SMD_solvation_energy": 6.14 
		},
		"coords": [
			{
				"x": -0.0237104853,
				"y": -3.4770650436,
				"z": 1.7924553991,
				"element": "C" 
			},
			{
				"x": -0.6947870789,
				"y": -3.2234566064,
				"z": 0.4888751928,
				"element": "C" 
			},
			{
				"x": -1.0346394124,
				"y": -2.0995531009,
				"z": -0.2272452603,
				"element": "C" 
			},
			{
				"x": -1.6597702593,
				"y": -2.5936660207,
				"z": -1.4246495633,
				"element": "C" 
			},
			{
				"x": -2.252987553,
				"y": -1.8348304028,
				"z": -2.5686285403,
				"element": "C" 
			},
			{
				"x": -1.6816887268,
				"y": -3.9029199613,
				"z": -1.4212264588,
				"element": "N" 
			},
			{
				"x": -1.0705369208,
				"y": -4.2978150467,
				"z": -0.2148523669,
				"element": "O" 
			},
			{
				"x": -0.8413993351,
				"y": -0.4178265264,
				"z": 0.2429765615,
				"element": "S" 
			},
			{
				"x": -1.9634629398,
				"y": 0.3581225586,
				"z": -0.2857047583,
				"element": "O" 
			},
			{
				"x": -0.511083883,
				"y": -0.376097451,
				"z": 1.6735920224,
				"element": "O" 
			},
			{
				"x": 0.5185604708,
				"y": 0.0723195576,
				"z": -0.6861321048,
				"element": "N" 
			},
			{
				"x": 0.5433716528,
				"y": 1.5404310309,
				"z": -1.0033570848,
				"element": "C" 
			},
			{
				"x": 2.0358320337,
				"y": 1.8212425242,
				"z": -1.1937876963,
				"element": "C" 
			},
			{
				"x": 2.6882419755,
				"y": 0.9464292633,
				"z": -0.1142478936,
				"element": "C" 
			},
			{
				"x": 1.8541134444,
				"y": -0.3528547392,
				"z": -0.1642722524,
				"element": "C" 
			},
			{
				"x": 2.5025257983,
				"y": -1.4031557289,
				"z": -1.085727694,
				"element": "C" 
			},
			{
				"x": 1.8178534209,
				"y": -1.68303481,
				"z": -2.206474,
				"element": "O" 
			},
			{
				"x": 3.5615107236,
				"y": -1.9156745281,
				"z": -0.8140867397,
				"element": "O" 
			},
			{
				"x": 1.0258030895,
				"y": -3.7492033296,
				"z": 1.6308244607,
				"element": "H" 
			},
			{
				"x": -0.509886113,
				"y": -4.3140690719,
				"z": 2.3001564416,
				"element": "H" 
			},
			{
				"x": -0.0683358759,
				"y": -2.5862047961,
				"z": 2.4180625853,
				"element": "H" 
			},
			{
				"x": -1.4943153452,
				"y": -1.2294972453,
				"z": -3.075692176,
				"element": "H" 
			},
			{
				"x": -3.027200389,
				"y": -1.15118524,
				"z": -2.2122801174,
				"element": "H" 
			},
			{
				"x": -2.6786902355,
				"y": -2.5363599938,
				"z": -3.2878110998,
				"element": "H" 
			},
			{
				"x": 0.1423965743,
				"y": 2.1282009521,
				"z": -0.1701352398,
				"element": "H" 
			},
			{
				"x": -0.0682556143,
				"y": 1.7362012023,
				"z": -1.8850065066,
				"element": "H" 
			},
			{
				"x": 2.3606627395,
				"y": 1.5069152723,
				"z": -2.192067765,
				"element": "H" 
			},
			{
				"x": 2.2647030122,
				"y": 2.8843277414,
				"z": -1.0844996665,
				"element": "H" 
			},
			{
				"x": 2.5740268367,
				"y": 1.4112726601,
				"z": 0.8701673039,
				"element": "H" 
			},
			{
				"x": 3.7481595982,
				"y": 0.7437268874,
				"z": -0.2774214247,
				"element": "H" 
			},
			{
				"x": 1.7678281971,
				"y": -0.7980112805,
				"z": 0.8297003316,
				"element": "H" 
			},
			{
				"x": 1.0029605997,
				"y": -1.1415087268,
				"z": -2.1604038892,
				"element": "H" 
			}
		],
		 "valence_orbital": [ 
			{
				"type": "occ",
				"energy": -0.31822,
				"method": "rhf"
			},
			{
				"type": "occ",
				"energy": -0.31354,
				"method": "rhf"
			},
			{
				"type": "occ",
				"energy": -0.3016,
				"method": "rhf"
			},
			{
				"type": "occ",
				"energy": -0.28425,
				"method": "rhf"
			},
			{
				"type": "occ",
				"energy": -0.26627,
				"method": "rhf"
			},
			{
				"type": "unocc",
				"energy": -0.04054,
				"method": "rhf"
			},
			{
				"type": "unocc",
				"energy": -0.00599,
				"method": "rhf"
			},
			{
				"type": "unocc",
				"energy": 0.00074,
				"method": "rhf"
			},
			{
				"type": "unocc",
				"energy": 0.03625,
				"method": "rhf"
			},
			{
				"type": "unocc",
				"energy": 0.04306,
				"method": "rhf"
			}
		],
		"cosmo_sigma_profile": { 
			"-0.025": 0.0,
			"-0.024": 0.0,
			"-0.023": 0.0,
			"-0.022": 0.0,
			"-0.021": 0.0,
			"-0.02": 0.0,
			"-0.019": 0.0,
			"-0.018": 0.0,
			"-0.017": 0.0,
			"-0.016": 0.0,
			"-0.015": 0.0,
			"-0.014": 0.0,
			"-0.013": 0.0496482087213,
			"-0.012": 0.355711542116,
			"-0.011": 1.76058381789,
			"-0.01": 2.34974552937,
			"-0.009": 2.95835700952,
			"-0.008": 3.41812312182,
			"-0.007": 8.78321520434,
			"-0.006": 18.9075548399,
			"-0.005": 30.1814923715,
			"-0.004": 29.4331813015,
			"-0.003": 31.5390592062,
			"-0.002": 29.3727143902,
			"-0.001": 15.9093508685,
			"0.0": 7.53566628573,
			"0.001": 7.76515192643,
			"0.002": 7.51713843597,
			"0.003": 6.59476500361,
			"0.004": 7.46176598334,
			"0.005": 6.38024245895,
			"0.006": 8.92290848597,
			"0.007": 9.40454507856,
			"0.008": 7.98935785402,
			"0.009": 9.82553496186,
			"0.01": 11.9513505799,
			"0.011": 9.45432745795,
			"0.012": 6.43396464344,
			"0.013": 2.60877672761,
			"0.014": 0.132052552034,
			"0.015": 0.0,
			"0.016": 0.0,
			"0.017": 0.0,
			"0.018": 0.0,
			"0.019": 0.0,
			"0.02": 0.0,
			"0.021": 0.0,
			"0.022": 0.0,
			"0.023": 0.0,
			"0.024": 0.0,
			"0.025": 0.0
		}
	}
}
