{
	 "smiles": "NC1=CC(=CC=C1)N1C=CN=C1", 
	 "Tm": 386.15, 
	 "num_atms": 21, 
	 "gaussian": { 
		 "optdone": 1, 
		 "sigma_profile": "yes", 
		 "theory": "DFT", 
		 "functional": "B3LYP", 
		 "basiset": "6-31G**", 
		 "properties": { 
			 "R2extent": 2296.8401, 
			 "electric_dipole_moment_norm": 5.00342570346, 
			 "electric_quadrupole_moment_norm": 12.5684872053, 
			 "total_energy": -512.628618226, 
			 "HOMO_LUMO_gap": 0.19567, 
			 "cosmo_polarized_energy": -14.21, 
			 "cosmo_cavitation_energy": 25.15, 
			 "cosmo_dispersion_energy": -18.58, 
			 "cosmo_repulsion_energy": 1.46, 
			 "cosmo_total_nonelectrostatic_energy": 8.03, 
			 "SMD_solvation_energy": 3.38 
		},
		"coords": [
			{
				"x": -2.5540053486,
				"y": 2.2892704629,
				"z": -1.6871806016,
				"element": "N" 
			},
			{
				"x": -2.0570876562,
				"y": 1.1166006904,
				"z": -1.1239008232,
				"element": "C" 
			},
			{
				"x": -0.7193544361,
				"y": 1.0400959875,
				"z": -0.7043022597,
				"element": "C" 
			},
			{
				"x": -0.2073473838,
				"y": -0.155943657,
				"z": -0.1969790234,
				"element": "C" 
			},
			{
				"x": -1.0155606105,
				"y": -1.2923662227,
				"z": -0.0851830486,
				"element": "C" 
			},
			{
				"x": -2.3493927792,
				"y": -1.2044325042,
				"z": -0.4848250335,
				"element": "C" 
			},
			{
				"x": -2.8724110665,
				"y": -0.0235671326,
				"z": -1.0021258562,
				"element": "C" 
			},
			{
				"x": 1.1507154259,
				"y": -0.2122428312,
				"z": 0.2187416352,
				"element": "N" 
			},
			{
				"x": 2.2399728289,
				"y": 0.3958686073,
				"z": -0.3875605993,
				"element": "C" 
			},
			{
				"x": 3.3244122126,
				"y": 0.065260075,
				"z": 0.3831332995,
				"element": "C" 
			},
			{
				"x": 2.94495266,
				"y": -0.7172379444,
				"z": 1.4525775166,
				"element": "N" 
			},
			{
				"x": 1.6463378197,
				"y": -0.865819755,
				"z": 1.3238629789,
				"element": "C" 
			},
			{
				"x": -3.5563951292,
				"y": 2.4050268111,
				"z": -1.6378597801,
				"element": "H" 
			},
			{
				"x": -2.0587223105,
				"y": 3.1359927795,
				"z": -1.4452751163,
				"element": "H" 
			},
			{
				"x": -0.0833387808,
				"y": 1.9187438667,
				"z": -0.7539657528,
				"element": "H" 
			},
			{
				"x": -0.6003144328,
				"y": -2.2255723727,
				"z": 0.2775073944,
				"element": "H" 
			},
			{
				"x": -2.9888702792,
				"y": -2.0785902159,
				"z": -0.4035906482,
				"element": "H" 
			},
			{
				"x": -3.9103638391,
				"y": 0.0226105517,
				"z": -1.3206058647,
				"element": "H" 
			},
			{
				"x": 2.1384567279,
				"y": 0.9498188998,
				"z": -1.3073023962,
				"element": "H" 
			},
			{
				"x": 4.3578960684,
				"y": 0.3415562414,
				"z": 0.2252002379,
				"element": "H" 
			},
			{
				"x": 0.9964203091,
				"y": -1.3991723375,
				"z": 2.0032337413,
				"element": "H" 
			}
		],
		 "valence_orbital": [ 
			{
				"type": "occ",
				"energy": -0.28731,
				"method": "rhf"
			},
			{
				"type": "occ",
				"energy": -0.26051,
				"method": "rhf"
			},
			{
				"type": "occ",
				"energy": -0.24205,
				"method": "rhf"
			},
			{
				"type": "occ",
				"energy": -0.22284,
				"method": "rhf"
			},
			{
				"type": "occ",
				"energy": -0.21268,
				"method": "rhf"
			},
			{
				"type": "unocc",
				"energy": -0.01701,
				"method": "rhf"
			},
			{
				"type": "unocc",
				"energy": 0.00156,
				"method": "rhf"
			},
			{
				"type": "unocc",
				"energy": 0.04487,
				"method": "rhf"
			},
			{
				"type": "unocc",
				"energy": 0.06957,
				"method": "rhf"
			},
			{
				"type": "unocc",
				"energy": 0.0732,
				"method": "rhf"
			}
		],
		"cosmo_sigma_profile": { 
			"-0.025": 0.0,
			"-0.024": 0.0,
			"-0.023": 0.0,
			"-0.022": 0.0,
			"-0.021": 0.0,
			"-0.02": 0.0,
			"-0.019": 0.0,
			"-0.018": 0.0,
			"-0.017": 0.0,
			"-0.016": 0.0,
			"-0.015": 0.0,
			"-0.014": 0.0,
			"-0.013": 0.887672964486,
			"-0.012": 2.85936460152,
			"-0.011": 2.86304939256,
			"-0.01": 3.02712255635,
			"-0.009": 3.78066574651,
			"-0.008": 6.05954384522,
			"-0.007": 9.37550741142,
			"-0.006": 12.9140628872,
			"-0.005": 11.6485600954,
			"-0.004": 12.778173628,
			"-0.003": 11.4222819323,
			"-0.002": 9.27310683601,
			"-0.001": 10.5901215634,
			"0.0": 9.1488167925,
			"0.001": 11.8374586321,
			"0.002": 11.715831653,
			"0.003": 11.1546872061,
			"0.004": 12.477394804,
			"0.005": 16.4439945776,
			"0.006": 9.25399457802,
			"0.007": 3.2051215326,
			"0.008": 2.18141739215,
			"0.009": 3.01900369968,
			"0.01": 2.48213135153,
			"0.011": 1.44753524561,
			"0.012": 1.35025479516,
			"0.013": 2.4469437691,
			"0.014": 1.38894321201,
			"0.015": 1.26051245855,
			"0.016": 1.24948421494,
			"0.017": 0.907396494443,
			"0.018": 0.82788900483,
			"0.019": 0.0188051126845,
			"0.02": 0.0,
			"0.021": 0.0,
			"0.022": 0.0,
			"0.023": 0.0,
			"0.024": 0.0,
			"0.025": 0.0
		}
	}
}
