{
	 "smiles": "OC(=O)C1=CC=C(NS(=O)(=O)C2=CC(Cl)=C(Cl)C=C2)C=C1", 
	 "Tm": 528.15, 
	 "num_atms": 30, 
	 "gaussian": { 
		 "optdone": 1, 
		 "sigma_profile": "yes", 
		 "theory": "DFT", 
		 "functional": "B3LYP", 
		 "basiset": "6-31G**", 
		 "properties": { 
			 "R2extent": 9044.7149, 
			 "electric_dipole_moment_norm": 3.48569959979, 
			 "electric_quadrupole_moment_norm": 31.5908262921, 
			 "total_energy": -2174.95897304, 
			 "HOMO_LUMO_gap": 0.18036, 
			 "cosmo_polarized_energy": -24.96, 
			 "cosmo_cavitation_energy": 40.74, 
			 "cosmo_dispersion_energy": -28.74, 
			 "cosmo_repulsion_energy": 2.17, 
			 "cosmo_total_nonelectrostatic_energy": 14.18, 
			 "SMD_solvation_energy": 6.68 
		},
		"coords": [
			{
				"x": -3.0790788668,
				"y": 1.971911366,
				"z": -3.5895867099,
				"element": "O" 
			},
			{
				"x": -2.2045381476,
				"y": 2.8186507359,
				"z": -2.9831827566,
				"element": "C" 
			},
			{
				"x": -2.4522788413,
				"y": 4.0004156214,
				"z": -2.9234088012,
				"element": "O" 
			},
			{
				"x": -0.9592111488,
				"y": 2.2139056638,
				"z": -2.4123312952,
				"element": "C" 
			},
			{
				"x": -0.4573804473,
				"y": 0.961557697,
				"z": -2.7941167721,
				"element": "C" 
			},
			{
				"x": 0.7215848421,
				"y": 0.4596813695,
				"z": -2.2504941635,
				"element": "C" 
			},
			{
				"x": 1.4082893019,
				"y": 1.2068586691,
				"z": -1.2815587557,
				"element": "C" 
			},
			{
				"x": 2.6242519283,
				"y": 0.7477861261,
				"z": -0.7217277338,
				"element": "N" 
			},
			{
				"x": 2.8911331025,
				"y": -0.8119350477,
				"z": -0.1072403205,
				"element": "S" 
			},
			{
				"x": 2.4881091892,
				"y": -1.7647692329,
				"z": -1.1380762938,
				"element": "O" 
			},
			{
				"x": 4.2472509343,
				"y": -0.7439213994,
				"z": 0.4313371708,
				"element": "O" 
			},
			{
				"x": 1.7599048936,
				"y": -1.0049892778,
				"z": 1.2751242519,
				"element": "C" 
			},
			{
				"x": 0.4790182755,
				"y": -1.5026756824,
				"z": 1.0424016391,
				"element": "C" 
			},
			{
				"x": -0.4110986839,
				"y": -1.6248290596,
				"z": 2.1103832545,
				"element": "C" 
			},
			{
				"x": -2.0072809955,
				"y": -2.2495850511,
				"z": 1.8001954969,
				"element": "Cl" 
			},
			{
				"x": -0.0064051246,
				"y": -1.253589065,
				"z": 3.402769033,
				"element": "C" 
			},
			{
				"x": -1.0829318148,
				"y": -1.3929122779,
				"z": 4.7624348227,
				"element": "Cl" 
			},
			{
				"x": 1.2880078466,
				"y": -0.7688897196,
				"z": 3.617826484,
				"element": "C" 
			},
			{
				"x": 2.1776961175,
				"y": -0.6401532851,
				"z": 2.5565797879,
				"element": "C" 
			},
			{
				"x": 0.9177120518,
				"y": 2.4665287428,
				"z": -0.9005065916,
				"element": "C" 
			},
			{
				"x": -0.2411614298,
				"y": 2.9695216402,
				"z": -1.4753509806,
				"element": "C" 
			},
			{
				"x": -2.8352803585,
				"y": 1.0526009683,
				"z": -3.4153596431,
				"element": "H" 
			},
			{
				"x": -0.9492361608,
				"y": 0.3780034768,
				"z": -3.5687607033,
				"element": "H" 
			},
			{
				"x": 1.1247007365,
				"y": -0.4891932702,
				"z": -2.58111631,
				"element": "H" 
			},
			{
				"x": 3.1415181718,
				"y": 1.4278849884,
				"z": -0.1743401671,
				"element": "H" 
			},
			{
				"x": 0.179096541,
				"y": -1.8122821333,
				"z": 0.0489718367,
				"element": "H" 
			},
			{
				"x": 1.5885798179,
				"y": -0.5017113005,
				"z": 4.6245974117,
				"element": "H" 
			},
			{
				"x": 3.1890518832,
				"y": -0.2854230802,
				"z": 2.7202213858,
				"element": "H" 
			},
			{
				"x": 1.4513093296,
				"y": 3.0499409281,
				"z": -0.1546339399,
				"element": "H" 
			},
			{
				"x": -0.6199329434,
				"y": 3.948010889,
				"z": -1.201050637,
				"element": "H" 
			}
		],
		 "valence_orbital": [ 
			{
				"type": "occ",
				"energy": -0.29267,
				"method": "rhf"
			},
			{
				"type": "occ",
				"energy": -0.28478,
				"method": "rhf"
			},
			{
				"type": "occ",
				"energy": -0.28137,
				"method": "rhf"
			},
			{
				"type": "occ",
				"energy": -0.27802,
				"method": "rhf"
			},
			{
				"type": "occ",
				"energy": -0.25439,
				"method": "rhf"
			},
			{
				"type": "unocc",
				"energy": -0.07403,
				"method": "rhf"
			},
			{
				"type": "unocc",
				"energy": -0.05752,
				"method": "rhf"
			},
			{
				"type": "unocc",
				"energy": -0.0527,
				"method": "rhf"
			},
			{
				"type": "unocc",
				"energy": -0.0358,
				"method": "rhf"
			},
			{
				"type": "unocc",
				"energy": -0.01983,
				"method": "rhf"
			}
		],
		"cosmo_sigma_profile": { 
			"-0.025": 0.0,
			"-0.024": 0.0,
			"-0.023": 0.0,
			"-0.022": 0.0,
			"-0.021": 0.0,
			"-0.02": 0.0,
			"-0.019": 0.2577105965,
			"-0.018": 1.0553728495,
			"-0.017": 0.837681571996,
			"-0.016": 2.33014554076,
			"-0.015": 2.05794551563,
			"-0.014": 1.97284611258,
			"-0.013": 2.76748279929,
			"-0.012": 2.79762136328,
			"-0.011": 2.55473948642,
			"-0.01": 2.56261591906,
			"-0.009": 5.36708139386,
			"-0.008": 8.17307802749,
			"-0.007": 10.0487923167,
			"-0.006": 10.7049122404,
			"-0.005": 10.8691209776,
			"-0.004": 14.3081603594,
			"-0.003": 17.1110561887,
			"-0.002": 23.4739220748,
			"-0.001": 34.0814714345,
			"0.0": 26.7983364948,
			"0.001": 21.1067930645,
			"0.002": 29.9454487715,
			"0.003": 28.4862071252,
			"0.004": 12.9179102284,
			"0.005": 6.11666338865,
			"0.006": 6.5119466263,
			"0.007": 5.11276667113,
			"0.008": 6.21828160473,
			"0.009": 9.25376761015,
			"0.01": 12.3496098549,
			"0.011": 7.56938434592,
			"0.012": 4.85716754919,
			"0.013": 1.75630643808,
			"0.014": 0.126510301986,
			"0.015": 0.0,
			"0.016": 0.0,
			"0.017": 0.0,
			"0.018": 0.0,
			"0.019": 0.0,
			"0.02": 0.0,
			"0.021": 0.0,
			"0.022": 0.0,
			"0.023": 0.0,
			"0.024": 0.0,
			"0.0": 0.0
		}
	}
}
