{
	 "smiles": "N#CC1=CC=CC(=C1)N1CCCC1", 
	 "Tm": 357.65, 
	 "num_atms": 25, 
	 "gaussian": { 
		 "optdone": 1, 
		 "sigma_profile": "yes", 
		 "theory": "DFT", 
		 "functional": "B3LYP", 
		 "basiset": "6-31G**", 
		 "properties": { 
			 "R2extent": 3264.6705, 
			 "electric_dipole_moment_norm": 6.55285053469, 
			 "electric_quadrupole_moment_norm": 27.1839279285, 
			 "total_energy": -535.893288296, 
			 "HOMO_LUMO_gap": 0.16438, 
			 "cosmo_polarized_energy": -9.77, 
			 "cosmo_cavitation_energy": 28.24, 
			 "cosmo_dispersion_energy": -20.47, 
			 "cosmo_repulsion_energy": 1.62, 
			 "cosmo_total_nonelectrostatic_energy": 9.38, 
			 "SMD_solvation_energy": 4.89 
		},
		"coords": [
			{
				"x": 5.0941452471,
				"y": -0.9582289229,
				"z": 2.0681637899,
				"element": "N" 
			},
			{
				"x": 4.0699075667,
				"y": -0.4554685073,
				"z": 1.8405695379,
				"element": "C" 
			},
			{
				"x": 2.8055512875,
				"y": 0.1648041993,
				"z": 1.5597754567,
				"element": "C" 
			},
			{
				"x": 2.4493380006,
				"y": 1.3508437886,
				"z": 2.2209720182,
				"element": "C" 
			},
			{
				"x": 1.2136227814,
				"y": 1.9227166693,
				"z": 1.9252492429,
				"element": "C" 
			},
			{
				"x": 0.3498044273,
				"y": 1.3440630569,
				"z": 1.0004942207,
				"element": "C" 
			},
			{
				"x": 0.6973896167,
				"y": 0.1469527352,
				"z": 0.3286669439,
				"element": "C" 
			},
			{
				"x": 1.9479060157,
				"y": -0.4351488913,
				"z": 0.6286552233,
				"element": "C" 
			},
			{
				"x": -0.1513622182,
				"y": -0.4311196423,
				"z": -0.5847837278,
				"element": "N" 
			},
			{
				"x": 0.2002156722,
				"y": -1.6003984542,
				"z": -1.3899575772,
				"element": "C" 
			},
			{
				"x": -0.9255693983,
				"y": -1.6737559496,
				"z": -2.4322771398,
				"element": "C" 
			},
			{
				"x": -2.1306602377,
				"y": -1.0695087144,
				"z": -1.6939396686,
				"element": "C" 
			},
			{
				"x": -1.503953989,
				"y": 0.0540626597,
				"z": -0.8546398878,
				"element": "C" 
			},
			{
				"x": 3.1246652144,
				"y": 1.8010138072,
				"z": 2.9389848622,
				"element": "H" 
			},
			{
				"x": 0.915649108,
				"y": 2.8421177119,
				"z": 2.4208682302,
				"element": "H" 
			},
			{
				"x": -0.5972598713,
				"y": 1.8263545788,
				"z": 0.7878647033,
				"element": "H" 
			},
			{
				"x": 2.2567806527,
				"y": -1.3568461032,
				"z": 0.1520210538,
				"element": "H" 
			},
			{
				"x": 0.2389598383,
				"y": -2.5129755336,
				"z": -0.7741116784,
				"element": "H" 
			},
			{
				"x": 1.1859648565,
				"y": -1.4772782561,
				"z": -1.8551647471,
				"element": "H" 
			},
			{
				"x": -0.6683405433,
				"y": -1.0581897395,
				"z": -3.301416741,
				"element": "H" 
			},
			{
				"x": -1.1013055565,
				"y": -2.6934087785,
				"z": -2.7846477302,
				"element": "H" 
			},
			{
				"x": -2.5825506523,
				"y": -1.8183457571,
				"z": -1.0339977719,
				"element": "H" 
			},
			{
				"x": -2.9101714802,
				"y": -0.7020809034,
				"z": -2.3664343561,
				"element": "H" 
			},
			{
				"x": -1.4848947749,
				"y": 1.0066696467,
				"z": -1.4079481323,
				"element": "H" 
			},
			{
				"x": -2.0548315634,
				"y": 0.2282552999,
				"z": 0.0779338754,
				"element": "H" 
			}
		],
		 "valence_orbital": [ 
			{
				"type": "occ",
				"energy": -0.33962,
				"method": "rhf"
			},
			{
				"type": "occ",
				"energy": -0.31898,
				"method": "rhf"
			},
			{
				"type": "occ",
				"energy": -0.29199,
				"method": "rhf"
			},
			{
				"type": "occ",
				"energy": -0.2548,
				"method": "rhf"
			},
			{
				"type": "occ",
				"energy": -0.20075,
				"method": "rhf"
			},
			{
				"type": "unocc",
				"energy": -0.03637,
				"method": "rhf"
			},
			{
				"type": "unocc",
				"energy": 0.00201,
				"method": "rhf"
			},
			{
				"type": "unocc",
				"energy": 0.04917,
				"method": "rhf"
			},
			{
				"type": "unocc",
				"energy": 0.06976,
				"method": "rhf"
			},
			{
				"type": "unocc",
				"energy": 0.08891,
				"method": "rhf"
			}
		],
		"cosmo_sigma_profile": { 
			"-0.025": 0.0,
			"-0.024": 0.0,
			"-0.023": 0.0,
			"-0.022": 0.0,
			"-0.021": 0.0,
			"-0.02": 0.0,
			"-0.019": 0.0,
			"-0.018": 0.0,
			"-0.017": 0.0,
			"-0.016": 0.0,
			"-0.015": 0.0,
			"-0.014": 0.0,
			"-0.013": 0.0,
			"-0.012": 0.0,
			"-0.011": 0.0,
			"-0.01": 0.0,
			"-0.009": 0.0,
			"-0.008": 0.0,
			"-0.007": 2.20029270969,
			"-0.006": 7.70302366906,
			"-0.005": 12.1362142706,
			"-0.004": 22.2576416472,
			"-0.003": 30.7771272675,
			"-0.002": 30.7155775202,
			"-0.001": 20.3346669866,
			"0.0": 19.7387050926,
			"0.001": 11.5600808172,
			"0.002": 9.28020136292,
			"0.003": 13.0047101128,
			"0.004": 14.3531428321,
			"0.005": 6.85388427928,
			"0.006": 3.00074585406,
			"0.007": 2.32106275789,
			"0.008": 3.38531921144,
			"0.009": 3.48497784424,
			"0.01": 3.36636609768,
			"0.011": 3.05696508433,
			"0.012": 2.47092303384,
			"0.013": 2.13552568612,
			"0.014": 0.336812724592,
			"0.015": 0.0,
			"0.016": 0.0,
			"0.017": 0.0,
			"0.018": 0.0,
			"0.019": 0.0,
			"0.02": 0.0,
			"0.021": 0.0,
			"0.022": 0.0,
			"0.023": 0.0,
			"0.024": 0.0,
			"0.025": 0.0
		}
	}
}
