{
	 "smiles": "NC1=CC(NC(=O)C2=CC(=CC=C2)C(F)(F)F)=CC=C1", 
	 "Tm": 408.15, 
	 "num_atms": 31, 
	 "gaussian": { 
		 "optdone": 1, 
		 "sigma_profile": "yes", 
		 "theory": "DFT", 
		 "functional": "B3LYP", 
		 "basiset": "6-31G**", 
		 "properties": { 
			 "R2extent": 7528.0507, 
			 "electric_dipole_moment_norm": 5.7361667732, 
			 "electric_quadrupole_moment_norm": 10.5683534683, 
			 "total_energy": -1024.39205006, 
			 "HOMO_LUMO_gap": 0.16082, 
			 "cosmo_polarized_energy": -15.96, 
			 "cosmo_cavitation_energy": 37.37, 
			 "cosmo_dispersion_energy": -25.42, 
			 "cosmo_repulsion_energy": 1.92, 
			 "cosmo_total_nonelectrostatic_energy": 13.87, 
			 "SMD_solvation_energy": 7.99 
		},
		"coords": [
			{
				"x": -3.3902442162,
				"y": -0.7876072059,
				"z": 0.0969636883,
				"element": "N" 
			},
			{
				"x": -2.5826332967,
				"y": 0.3455101674,
				"z": 0.0462891583,
				"element": "C" 
			},
			{
				"x": -1.3038148479,
				"y": 0.3282375301,
				"z": 0.6273706561,
				"element": "C" 
			},
			{
				"x": -0.5055637409,
				"y": 1.4752569924,
				"z": 0.616839203,
				"element": "C" 
			},
			{
				"x": 0.7851063278,
				"y": 1.482805263,
				"z": 1.2131015492,
				"element": "N" 
			},
			{
				"x": 1.7340480637,
				"y": 0.4848283996,
				"z": 1.3240749781,
				"element": "C" 
			},
			{
				"x": 2.576728579,
				"y": 0.5326574705,
				"z": 2.2134592263,
				"element": "O" 
			},
			{
				"x": 1.7741815136,
				"y": -0.6100257331,
				"z": 0.2941572547,
				"element": "C" 
			},
			{
				"x": 2.2971589062,
				"y": -1.8442663566,
				"z": 0.6972434396,
				"element": "C" 
			},
			{
				"x": 2.4284742174,
				"y": -2.8827852004,
				"z": -0.2229523499,
				"element": "C" 
			},
			{
				"x": 2.0695762801,
				"y": -2.6891027828,
				"z": -1.560995867,
				"element": "C" 
			},
			{
				"x": 1.5775778589,
				"y": -1.4510037037,
				"z": -1.9705504896,
				"element": "C" 
			},
			{
				"x": 1.423429296,
				"y": -0.4153456323,
				"z": -1.0485162279,
				"element": "C" 
			},
			{
				"x": 3.0193711423,
				"y": -4.2001921704,
				"z": 0.2042414524,
				"element": "C" 
			},
			{
				"x": 2.8281159895,
				"y": -4.4377932801,
				"z": 1.519214089,
				"element": "F" 
			},
			{
				"x": 2.475856281,
				"y": -5.2340680068,
				"z": -0.4797007523,
				"element": "F" 
			},
			{
				"x": 4.3527945332,
				"y": -4.2448076761,
				"z": -0.0173109072,
				"element": "F" 
			},
			{
				"x": -0.9859810878,
				"y": 2.667116322,
				"z": 0.0579969561,
				"element": "C" 
			},
			{
				"x": -2.2668496791,
				"y": 2.6873694091,
				"z": -0.4934563203,
				"element": "C" 
			},
			{
				"x": -3.0603316943,
				"y": 1.5441397494,
				"z": -0.5141054345,
				"element": "C" 
			},
			{
				"x": -4.1389678554,
				"y": -0.8216706637,
				"z": -0.5800449806,
				"element": "H" 
			},
			{
				"x": -2.9059059248,
				"y": -1.6700427998,
				"z": 0.1813450239,
				"element": "H" 
			},
			{
				"x": -0.9414398008,
				"y": -0.5784011279,
				"z": 1.1008081764,
				"element": "H" 
			},
			{
				"x": 0.969997328,
				"y": 2.2368750949,
				"z": 1.86443963,
				"element": "H" 
			},
			{
				"x": 2.5981641859,
				"y": -1.9741535708,
				"z": 1.7302470661,
				"element": "H" 
			},
			{
				"x": 2.1750394559,
				"y": -3.5026050982,
				"z": -2.2709774908,
				"element": "H" 
			},
			{
				"x": 1.3115836844,
				"y": -1.2921866057,
				"z": -3.0110606401,
				"element": "H" 
			},
			{
				"x": 1.0407239938,
				"y": 0.5451430264,
				"z": -1.375069468,
				"element": "H" 
			},
			{
				"x": -0.3583069185,
				"y": 3.5524542865,
				"z": 0.049647346,
				"element": "H" 
			},
			{
				"x": -2.6477240679,
				"y": 3.6074308101,
				"z": -0.9275225249,
				"element": "H" 
			},
			{
				"x": -4.0544645065,
				"y": 1.5741330932,
				"z": -0.9519754402,
				"element": "H" 
			}
		],
		 "valence_orbital": [ 
			{
				"type": "occ",
				"energy": -0.27541,
				"method": "rhf"
			},
			{
				"type": "occ",
				"energy": -0.2742,
				"method": "rhf"
			},
			{
				"type": "occ",
				"energy": -0.25461,
				"method": "rhf"
			},
			{
				"type": "occ",
				"energy": -0.23512,
				"method": "rhf"
			},
			{
				"type": "occ",
				"energy": -0.21182,
				"method": "rhf"
			},
			{
				"type": "unocc",
				"energy": -0.051,
				"method": "rhf"
			},
			{
				"type": "unocc",
				"energy": -0.02902,
				"method": "rhf"
			},
			{
				"type": "unocc",
				"energy": -0.00927,
				"method": "rhf"
			},
			{
				"type": "unocc",
				"energy": 0.00637,
				"method": "rhf"
			},
			{
				"type": "unocc",
				"energy": 0.04409,
				"method": "rhf"
			}
		],
		"cosmo_sigma_profile": { 
			"-0.025": 0.0,
			"-0.024": 0.0,
			"-0.023": 0.0,
			"-0.022": 0.0,
			"-0.021": 0.0,
			"-0.02": 0.0,
			"-0.019": 0.0,
			"-0.018": 0.0,
			"-0.017": 0.0,
			"-0.016": 0.0,
			"-0.015": 0.0276397186213,
			"-0.014": 0.732341115528,
			"-0.013": 1.46344395805,
			"-0.012": 3.44490450555,
			"-0.011": 4.14767858866,
			"-0.01": 3.82383238321,
			"-0.009": 3.93670224534,
			"-0.008": 4.05462291355,
			"-0.007": 8.80964128993,
			"-0.006": 14.9188213472,
			"-0.005": 17.2207519463,
			"-0.004": 15.0722755075,
			"-0.003": 15.6102527973,
			"-0.002": 16.2366253244,
			"-0.001": 16.5220965787,
			"0.0": 20.9895229442,
			"0.001": 22.2593880509,
			"0.002": 36.6092927911,
			"0.003": 39.909034259,
			"0.004": 10.9680900553,
			"0.005": 8.6226883955,
			"0.006": 9.60719955023,
			"0.007": 3.39237093799,
			"0.008": 2.46749838256,
			"0.009": 2.23130676778,
			"0.01": 2.03911315939,
			"0.011": 2.59088810483,
			"0.012": 3.67291270882,
			"0.013": 5.89081051686,
			"0.014": 1.3785370607,
			"0.015": 0.0145537979668,
			"0.016": 0.0,
			"0.017": 0.0,
			"0.018": 0.0,
			"0.019": 0.0,
			"0.02": 0.0,
			"0.021": 0.0,
			"0.022": 0.0,
			"0.023": 0.0,
			"0.024": 0.0,
			"0.025": 0.0
		}
	}
}
