{
	 "smiles": "COC1=CC=C(C=C1C(F)(F)F)[N+]([O-])=O", 
	 "Tm": 353.15, 
	 "num_atms": 21, 
	 "gaussian": { 
		 "optdone": 1, 
		 "sigma_profile": "yes", 
		 "theory": "DFT", 
		 "functional": "B3LYP", 
		 "basiset": "6-31G**", 
		 "properties": { 
			 "R2extent": 4338.8028, 
			 "electric_dipole_moment_norm": 5.89796228964, 
			 "electric_quadrupole_moment_norm": 17.3831870588, 
			 "total_energy": -888.303805388, 
			 "HOMO_LUMO_gap": 0.17259, 
			 "cosmo_polarized_energy": -11.08, 
			 "cosmo_cavitation_energy": 27.65, 
			 "cosmo_dispersion_energy": -19.58, 
			 "cosmo_repulsion_energy": 1.47, 
			 "cosmo_total_nonelectrostatic_energy": 9.54, 
			 "SMD_solvation_energy": 9.04 
		},
		"coords": [
			{
				"x": 1.2836393896,
				"y": 0.4380107151,
				"z": 2.0054744387,
				"element": "C" 
			},
			{
				"x": 0.2993935494,
				"y": -0.4586521113,
				"z": 1.4959038336,
				"element": "O" 
			},
			{
				"x": 0.1789158267,
				"y": -0.6174305952,
				"z": 0.163500323,
				"element": "C" 
			},
			{
				"x": 0.9688533338,
				"y": 0.050269063,
				"z": -0.7855617723,
				"element": "C" 
			},
			{
				"x": 0.7722951882,
				"y": -0.1774441602,
				"z": -2.1433877298,
				"element": "C" 
			},
			{
				"x": -0.2129524955,
				"y": -1.0716394341,
				"z": -2.5500092119,
				"element": "C" 
			},
			{
				"x": -1.0097249069,
				"y": -1.7462535094,
				"z": -1.6250435978,
				"element": "C" 
			},
			{
				"x": -0.819354946,
				"y": -1.5241754095,
				"z": -0.2695122329,
				"element": "C" 
			},
			{
				"x": -1.6734781574,
				"y": -2.2464577793,
				"z": 0.7445419522,
				"element": "C" 
			},
			{
				"x": -0.930013221,
				"y": -3.0079338533,
				"z": 1.5732117589,
				"element": "F" 
			},
			{
				"x": -2.5634899387,
				"y": -3.0639735499,
				"z": 0.1400903369,
				"element": "F" 
			},
			{
				"x": -2.3763809989,
				"y": -1.3865093531,
				"z": 1.5098476827,
				"element": "F" 
			},
			{
				"x": -0.4195042669,
				"y": -1.3110570857,
				"z": -3.9795393426,
				"element": "N" 
			},
			{
				"x": -1.2996792195,
				"y": -2.108374461,
				"z": -4.3040468962,
				"element": "O" 
			},
			{
				"x": 0.3007949619,
				"y": -0.6995696581,
				"z": -4.7699560435,
				"element": "O" 
			},
			{
				"x": 2.2935817184,
				"y": 0.1260541973,
				"z": 1.7158824927,
				"element": "H" 
			},
			{
				"x": 1.1865114006,
				"y": 0.3933745538,
				"z": 3.0899468086,
				"element": "H" 
			},
			{
				"x": 1.1019077085,
				"y": 1.4635160182,
				"z": 1.664203918,
				"element": "H" 
			},
			{
				"x": 1.7356598356,
				"y": 0.7462407139,
				"z": -0.4704554884,
				"element": "H" 
			},
			{
				"x": 1.3713509684,
				"y": 0.3278207929,
				"z": -2.8908637917,
				"element": "H" 
			},
			{
				"x": -1.7673257303,
				"y": -2.435115094,
				"z": -1.9735274383,
				"element": "H" 
			}
		],
		 "valence_orbital": [ 
			{
				"type": "occ",
				"energy": -0.31162,
				"method": "rhf"
			},
			{
				"type": "occ",
				"energy": -0.30957,
				"method": "rhf"
			},
			{
				"type": "occ",
				"energy": -0.29447,
				"method": "rhf"
			},
			{
				"type": "occ",
				"energy": -0.29254,
				"method": "rhf"
			},
			{
				"type": "occ",
				"energy": -0.26287,
				"method": "rhf"
			},
			{
				"type": "unocc",
				"energy": -0.09028,
				"method": "rhf"
			},
			{
				"type": "unocc",
				"energy": -0.04726,
				"method": "rhf"
			},
			{
				"type": "unocc",
				"energy": -0.00286,
				"method": "rhf"
			},
			{
				"type": "unocc",
				"energy": 0.06728,
				"method": "rhf"
			},
			{
				"type": "unocc",
				"energy": 0.08194,
				"method": "rhf"
			}
		],
		"cosmo_sigma_profile": { 
			"-0.025": 0.0,
			"-0.024": 0.0,
			"-0.023": 0.0,
			"-0.022": 0.0,
			"-0.021": 0.0,
			"-0.02": 0.0,
			"-0.019": 0.0,
			"-0.018": 0.0,
			"-0.017": 0.0,
			"-0.016": 0.0,
			"-0.015": 0.0,
			"-0.014": 0.0,
			"-0.013": 0.0,
			"-0.012": 0.0,
			"-0.011": 0.0,
			"-0.01": 0.0,
			"-0.009": 1.07282577692,
			"-0.008": 5.00142103017,
			"-0.007": 11.257989622,
			"-0.006": 12.5377976996,
			"-0.005": 13.3772233877,
			"-0.004": 14.9113413254,
			"-0.003": 13.5956779156,
			"-0.002": 14.522379702,
			"-0.001": 19.9520875519,
			"0.0": 15.6527394722,
			"0.001": 12.6818637924,
			"0.002": 20.9090986955,
			"0.003": 23.1721226611,
			"0.004": 5.95820130284,
			"0.005": 5.26404290142,
			"0.006": 7.20949775342,
			"0.007": 8.65794516466,
			"0.008": 8.42907132148,
			"0.009": 4.35698415519,
			"0.01": 3.17526886567,
			"0.011": 0.306967528722,
			"0.012": 0.0,
			"0.013": 0.0,
			"0.014": 0.0,
			"0.015": 0.0,
			"0.016": 0.0,
			"0.017": 0.0,
			"0.018": 0.0,
			"0.019": 0.0,
			"0.02": 0.0,
			"0.021": 0.0,
			"0.022": 0.0,
			"0.023": 0.0,
			"0.024": 0.0,
			"0.025": 0.0
		}
	}
}
