{
	 "smiles": "CC(C)C1=C(C)C=C(C)C=C1", 
	 "Tm": 191.15, 
	 "num_atms": 27, 
	 "gaussian": { 
		 "optdone": 1, 
		 "sigma_profile": "yes", 
		 "theory": "DFT", 
		 "functional": "B3LYP", 
		 "basiset": "6-31G**", 
		 "properties": { 
			 "R2extent": 2445.8684, 
			 "electric_dipole_moment_norm": 0.28314812378, 
			 "electric_quadrupole_moment_norm": 3.58277281306, 
			 "total_energy": -428.840069622, 
			 "HOMO_LUMO_gap": 0.22945, 
			 "cosmo_polarized_energy": -3.25, 
			 "cosmo_cavitation_energy": 28.36, 
			 "cosmo_dispersion_energy": -20.07, 
			 "cosmo_repulsion_energy": 1.62, 
			 "cosmo_total_nonelectrostatic_energy": 9.91, 
			 "SMD_solvation_energy": 5.04 
		},
		"coords": [
			{
				"x": 2.2819289151,
				"y": -0.0076901147,
				"z": -0.0949450289,
				"element": "C" 
			},
			{
				"x": 0.9246015411,
				"y": -0.6858609366,
				"z": -0.3653977361,
				"element": "C" 
			},
			{
				"x": 1.0055364037,
				"y": -1.6117007555,
				"z": -1.5950950083,
				"element": "C" 
			},
			{
				"x": -0.2032640223,
				"y": 0.3344286901,
				"z": -0.4997662093,
				"element": "C" 
			},
			{
				"x": -1.310569751,
				"y": 0.3548202428,
				"z": 0.3747917441,
				"element": "C" 
			},
			{
				"x": -1.4599016821,
				"y": -0.6347885924,
				"z": 1.5118666308,
				"element": "C" 
			},
			{
				"x": -2.3098300925,
				"y": 1.3195707811,
				"z": 0.1853072817,
				"element": "C" 
			},
			{
				"x": -2.258638049,
				"y": 2.2713660353,
				"z": -0.8374649842,
				"element": "C" 
			},
			{
				"x": -3.3408271414,
				"y": 3.3147087244,
				"z": -0.9887971387,
				"element": "C" 
			},
			{
				"x": -1.1580547351,
				"y": 2.2371931138,
				"z": -1.7003677244,
				"element": "C" 
			},
			{
				"x": -0.1553137041,
				"y": 1.2865929674,
				"z": -1.5276487855,
				"element": "C" 
			},
			{
				"x": 3.0665813797,
				"y": -0.7580277097,
				"z": 0.0537922952,
				"element": "H" 
			},
			{
				"x": 2.2391681234,
				"y": 0.6223772121,
				"z": 0.7991628436,
				"element": "H" 
			},
			{
				"x": 2.5859289459,
				"y": 0.6278685625,
				"z": -0.9336943489,
				"element": "H" 
			},
			{
				"x": 0.7079850747,
				"y": -1.3211637539,
				"z": 0.4990887921,
				"element": "H" 
			},
			{
				"x": 0.0547138673,
				"y": -2.1259875426,
				"z": -1.7675937733,
				"element": "H" 
			},
			{
				"x": 1.7839988596,
				"y": -2.3707944228,
				"z": -1.4585035759,
				"element": "H" 
			},
			{
				"x": 1.2464819634,
				"y": -1.0483406999,
				"z": -2.5031214485,
				"element": "H" 
			},
			{
				"x": -1.4912590949,
				"y": -1.67111514,
				"z": 1.1558639561,
				"element": "H" 
			},
			{
				"x": -2.3859090676,
				"y": -0.4503169733,
				"z": 2.0631777777,
				"element": "H" 
			},
			{
				"x": -0.6330721956,
				"y": -0.5674560945,
				"z": 2.228537783,
				"element": "H" 
			},
			{
				"x": -3.1612068126,
				"y": 1.3247728206,
				"z": 0.8634623592,
				"element": "H" 
			},
			{
				"x": -4.287318253,
				"y": 2.9766778613,
				"z": -0.556151031,
				"element": "H" 
			},
			{
				"x": -3.067346411,
				"y": 4.2496835635,
				"z": -0.4831654368,
				"element": "H" 
			},
			{
				"x": -3.5183343115,
				"y": 3.5580664774,
				"z": -2.0412812937,
				"element": "H" 
			},
			{
				"x": -1.08490968,
				"y": 2.9565738174,
				"z": -2.5127917189,
				"element": "H" 
			},
			{
				"x": 0.6865299298,
				"y": 1.283841866,
				"z": -2.2155662211,
				"element": "H" 
			}
		],
		 "valence_orbital": [ 
			{
				"type": "occ",
				"energy": -0.32353,
				"method": "rhf"
			},
			{
				"type": "occ",
				"energy": -0.31284,
				"method": "rhf"
			},
			{
				"type": "occ",
				"energy": -0.31048,
				"method": "rhf"
			},
			{
				"type": "occ",
				"energy": -0.23381,
				"method": "rhf"
			},
			{
				"type": "occ",
				"energy": -0.22131,
				"method": "rhf"
			},
			{
				"type": "unocc",
				"energy": 0.00814,
				"method": "rhf"
			},
			{
				"type": "unocc",
				"energy": 0.01039,
				"method": "rhf"
			},
			{
				"type": "unocc",
				"energy": 0.08988,
				"method": "rhf"
			},
			{
				"type": "unocc",
				"energy": 0.10776,
				"method": "rhf"
			},
			{
				"type": "unocc",
				"energy": 0.11055,
				"method": "rhf"
			}
		],
		"cosmo_sigma_profile": { 
			"-0.025": 0.0,
			"-0.024": 0.0,
			"-0.023": 0.0,
			"-0.022": 0.0,
			"-0.021": 0.0,
			"-0.02": 0.0,
			"-0.019": 0.0,
			"-0.018": 0.0,
			"-0.017": 0.0,
			"-0.016": 0.0,
			"-0.015": 0.0,
			"-0.014": 0.0,
			"-0.013": 0.0,
			"-0.012": 0.0,
			"-0.011": 0.0,
			"-0.01": 0.0,
			"-0.009": 0.0,
			"-0.008": 0.0,
			"-0.007": 0.0,
			"-0.006": 0.0,
			"-0.005": 1.53514646276,
			"-0.004": 15.0557803436,
			"-0.003": 27.6667877899,
			"-0.002": 31.3203454967,
			"-0.001": 30.8597107533,
			"0.0": 33.2480493364,
			"0.001": 29.2708859474,
			"0.002": 16.6032409384,
			"0.003": 7.61232349618,
			"0.004": 6.94398700265,
			"0.005": 6.8535209814,
			"0.006": 6.3151952256,
			"0.007": 6.48680352264,
			"0.008": 1.54960128415,
			"0.009": 0.0,
			"0.01": 0.0,
			"0.011": 0.0,
			"0.012": 0.0,
			"0.013": 0.0,
			"0.014": 0.0,
			"0.015": 0.0,
			"0.016": 0.0,
			"0.017": 0.0,
			"0.018": 0.0,
			"0.019": 0.0,
			"0.02": 0.0,
			"0.021": 0.0,
			"0.022": 0.0,
			"0.023": 0.0,
			"0.024": 0.0,
			"0.025": 0.0
		}
	}
}
