{
	 "smiles": "CCOC(=O)C(O)(C1=CC=C(Cl)C=C1)C1=CC=C(Cl)C=C1", 
	 "Tm": 309.65, 
	 "num_atms": 35, 
	 "gaussian": { 
		 "optdone": 1, 
		 "sigma_profile": "yes", 
		 "theory": "DFT", 
		 "functional": "B3LYP", 
		 "basiset": "6-31G**", 
		 "properties": { 
			 "R2extent": 8893.9687, 
			 "electric_dipole_moment_norm": 3.34507161358, 
			 "electric_quadrupole_moment_norm": 17.9232487602, 
			 "total_energy": -1764.20767166, 
			 "HOMO_LUMO_gap": 0.21231, 
			 "cosmo_polarized_energy": -10.2, 
			 "cosmo_cavitation_energy": 42.44, 
			 "cosmo_dispersion_energy": -29.23, 
			 "cosmo_repulsion_energy": 2.29, 
			 "cosmo_total_nonelectrostatic_energy": 15.5, 
			 "SMD_solvation_energy": 7.61 
		},
		"coords": [
			{
				"x": -1.7930629383,
				"y": 3.3530677534,
				"z": -2.7370794202,
				"element": "C" 
			},
			{
				"x": -0.3670640103,
				"y": 2.8606390467,
				"z": -2.5564026879,
				"element": "C" 
			},
			{
				"x": -0.2755157398,
				"y": 1.9238781004,
				"z": -1.4425379781,
				"element": "O" 
			},
			{
				"x": -0.1246580742,
				"y": 2.4469776901,
				"z": -0.2244896056,
				"element": "C" 
			},
			{
				"x": -0.0537732578,
				"y": 3.6378865938,
				"z": 0.015688203,
				"element": "O" 
			},
			{
				"x": -0.0344234555,
				"y": 1.3950747416,
				"z": 0.9157026848,
				"element": "C" 
			},
			{
				"x": -0.2566912411,
				"y": 2.1146154872,
				"z": 2.1147822192,
				"element": "O" 
			},
			{
				"x": -1.1582992238,
				"y": 0.3534891158,
				"z": 0.7736632454,
				"element": "C" 
			},
			{
				"x": -2.4025684879,
				"y": 0.6208590531,
				"z": 1.3579565777,
				"element": "C" 
			},
			{
				"x": -3.4632280412,
				"y": -0.2748961723,
				"z": 1.2301958322,
				"element": "C" 
			},
			{
				"x": -3.2753962425,
				"y": -1.4522866297,
				"z": 0.5086735101,
				"element": "C" 
			},
			{
				"x": -4.6057957407,
				"y": -2.59049806,
				"z": 0.3425265014,
				"element": "Cl" 
			},
			{
				"x": -2.0455007236,
				"y": -1.7429146649,
				"z": -0.0784774753,
				"element": "C" 
			},
			{
				"x": -0.9937864318,
				"y": -0.837347587,
				"z": 0.0584214029,
				"element": "C" 
			},
			{
				"x": 1.3753105056,
				"y": 0.7623210358,
				"z": 0.9412870017,
				"element": "C" 
			},
			{
				"x": 2.1005995637,
				"y": 0.4376951142,
				"z": -0.2124955705,
				"element": "C" 
			},
			{
				"x": 3.364712055,
				"y": -0.1492030163,
				"z": -0.1253476685,
				"element": "C" 
			},
			{
				"x": 3.9075790277,
				"y": -0.4147718339,
				"z": 1.1290735378,
				"element": "C" 
			},
			{
				"x": 5.4988943991,
				"y": -1.1519181417,
				"z": 1.2472344174,
				"element": "Cl" 
			},
			{
				"x": 3.2062375851,
				"y": -0.099269847,
				"z": 2.2923349232,
				"element": "C" 
			},
			{
				"x": 1.9474740082,
				"y": 0.489199824,
				"z": 2.1905569771,
				"element": "C" 
			},
			{
				"x": -2.1110641317,
				"y": 3.9434402681,
				"z": -1.874519379,
				"element": "H" 
			},
			{
				"x": -2.4814780142,
				"y": 2.513657885,
				"z": -2.867960525,
				"element": "H" 
			},
			{
				"x": -1.850500399,
				"y": 3.9884522632,
				"z": -3.6268939867,
				"element": "H" 
			},
			{
				"x": -0.0272623518,
				"y": 2.2805583005,
				"z": -3.4166023667,
				"element": "H" 
			},
			{
				"x": 0.3243669518,
				"y": 3.6859942982,
				"z": -2.3738264488,
				"element": "H" 
			},
			{
				"x": -0.0356480889,
				"y": 3.0401977044,
				"z": 1.9080501419,
				"element": "H" 
			},
			{
				"x": -2.5300773104,
				"y": 1.5309162945,
				"z": 1.9318959392,
				"element": "H" 
			},
			{
				"x": -4.4228483448,
				"y": -0.0643698242,
				"z": 1.6894489506,
				"element": "H" 
			},
			{
				"x": -1.9097659251,
				"y": -2.6667893674,
				"z": -0.6297429631,
				"element": "H" 
			},
			{
				"x": -0.0371200965,
				"y": -1.0761768535,
				"z": -0.3917279067,
				"element": "H" 
			},
			{
				"x": 1.686877671,
				"y": 0.6410522917,
				"z": -1.193562009,
				"element": "H" 
			},
			{
				"x": 3.9220745246,
				"y": -0.393103053,
				"z": -1.0230345439,
				"element": "H" 
			},
			{
				"x": 3.641191699,
				"y": -0.3082095764,
				"z": 3.2635551213,
				"element": "H" 
			},
			{
				"x": 1.3989102802,
				"y": 0.7532817658,
				"z": 3.0868533484,
				"element": "H" 
			}
		],
		 "valence_orbital": [ 
			{
				"type": "occ",
				"energy": -0.2914,
				"method": "rhf"
			},
			{
				"type": "occ",
				"energy": -0.26694,
				"method": "rhf"
			},
			{
				"type": "occ",
				"energy": -0.26334,
				"method": "rhf"
			},
			{
				"type": "occ",
				"energy": -0.24742,
				"method": "rhf"
			},
			{
				"type": "occ",
				"energy": -0.24229,
				"method": "rhf"
			},
			{
				"type": "unocc",
				"energy": -0.02998,
				"method": "rhf"
			},
			{
				"type": "unocc",
				"energy": -0.02468,
				"method": "rhf"
			},
			{
				"type": "unocc",
				"energy": -0.01549,
				"method": "rhf"
			},
			{
				"type": "unocc",
				"energy": -0.01085,
				"method": "rhf"
			},
			{
				"type": "unocc",
				"energy": 0.00171,
				"method": "rhf"
			}
		],
		"cosmo_sigma_profile": { 
			"-0.025": 0.0,
			"-0.024": 0.0,
			"-0.023": 0.0,
			"-0.022": 0.0,
			"-0.021": 0.0,
			"-0.02": 0.0,
			"-0.019": 0.0,
			"-0.018": 0.0,
			"-0.017": 0.0,
			"-0.016": 0.0,
			"-0.015": 0.0,
			"-0.014": 0.0,
			"-0.013": 0.0,
			"-0.012": 0.153341055483,
			"-0.011": 0.702988915743,
			"-0.01": 0.454789139775,
			"-0.009": 0.298149524452,
			"-0.008": 1.86615697201,
			"-0.007": 7.79526350077,
			"-0.006": 13.8062843761,
			"-0.005": 23.7464811488,
			"-0.004": 28.6563014588,
			"-0.003": 26.1522175003,
			"-0.002": 22.3816942496,
			"-0.001": 26.0918180236,
			"0.0": 28.4157758775,
			"0.001": 27.9868914368,
			"0.002": 33.5204538032,
			"0.003": 36.5239464565,
			"0.004": 30.2046206098,
			"0.005": 17.6614151702,
			"0.006": 4.19453380723,
			"0.007": 2.61655166862,
			"0.008": 2.69707480484,
			"0.009": 2.84714165202,
			"0.01": 3.20837772992,
			"0.011": 1.17285993893,
			"0.012": 0.272555684983,
			"0.013": 0.0,
			"0.014": 0.0,
			"0.015": 0.0,
			"0.016": 0.0,
			"0.017": 0.0,
			"0.018": 0.0,
			"0.019": 0.0,
			"0.02": 0.0,
			"0.021": 0.0,
			"0.022": 0.0,
			"0.023": 0.0,
			"0.024": 0.0,
			"0.025": 0.0
		}
	}
}
