{
	 "smiles": "OOC1CCCCC1", 
	 "Tm": 253.15, 
	 "num_atms": 20, 
	 "gaussian": { 
		 "optdone": 1, 
		 "sigma_profile": "yes", 
		 "theory": "DFT", 
		 "functional": "B3LYP", 
		 "basiset": "6-31G**", 
		 "properties": { 
			 "R2extent": 1163.1797, 
			 "electric_dipole_moment_norm": 1.72704084781, 
			 "electric_quadrupole_moment_norm": 8.10695666758, 
			 "total_energy": -386.234651499, 
			 "HOMO_LUMO_gap": 0.27954, 
			 "cosmo_polarized_energy": -6.71, 
			 "cosmo_cavitation_energy": 21.01, 
			 "cosmo_dispersion_energy": -15.84, 
			 "cosmo_repulsion_energy": 1.33, 
			 "cosmo_total_nonelectrostatic_energy": 6.51, 
			 "SMD_solvation_energy": 2.53 
		},
		"coords": [
			{
				"x": -0.6650231562,
				"y": -2.3673182658,
				"z": 2.0684448545,
				"element": "O" 
			},
			{
				"x": -1.0139470951,
				"y": -1.2427614245,
				"z": 1.2096418323,
				"element": "O" 
			},
			{
				"x": 0.1095035029,
				"y": -0.9955603758,
				"z": 0.3475515367,
				"element": "C" 
			},
			{
				"x": -0.4101666578,
				"y": 0.013920955,
				"z": -0.685726507,
				"element": "C" 
			},
			{
				"x": -0.6616875224,
				"y": 1.4047726666,
				"z": -0.0798932092,
				"element": "C" 
			},
			{
				"x": 0.5781338718,
				"y": 1.9284953425,
				"z": 0.6612624281,
				"element": "C" 
			},
			{
				"x": 1.0519070065,
				"y": 0.9289581488,
				"z": 1.7278339496,
				"element": "C" 
			},
			{
				"x": 1.3205933246,
				"y": -0.4564066995,
				"z": 1.1199128128,
				"element": "C" 
			},
			{
				"x": -0.6671996527,
				"y": -1.9278918981,
				"z": 2.9336081268,
				"element": "H" 
			},
			{
				"x": 0.3680360028,
				"y": -1.9407646334,
				"z": -0.147944217,
				"element": "H" 
			},
			{
				"x": -1.3214226435,
				"y": -0.3822761564,
				"z": -1.1463313433,
				"element": "H" 
			},
			{
				"x": 0.3455920036,
				"y": 0.0867769867,
				"z": -1.47886801,
				"element": "H" 
			},
			{
				"x": -1.5048729591,
				"y": 1.3454868214,
				"z": 0.6190557325,
				"element": "H" 
			},
			{
				"x": -0.9573365284,
				"y": 2.1033584643,
				"z": -0.8714596228,
				"element": "H" 
			},
			{
				"x": 0.3627751611,
				"y": 2.9008639984,
				"z": 1.1200925426,
				"element": "H" 
			},
			{
				"x": 1.3898222081,
				"y": 2.0976096609,
				"z": -0.0614692449,
				"element": "H" 
			},
			{
				"x": 0.2784020527,
				"y": 0.839048302,
				"z": 2.5019987326,
				"element": "H" 
			},
			{
				"x": 1.954499094,
				"y": 1.2994107106,
				"z": 2.2278010251,
				"element": "H" 
			},
			{
				"x": 1.5992950909,
				"y": -1.1803874896,
				"z": 1.8925869403,
				"element": "H" 
			},
			{
				"x": 2.1683968963,
				"y": -0.399035114,
				"z": 0.4237016403,
				"element": "H" 
			}
		],
		 "valence_orbital": [ 
			{
				"type": "occ",
				"energy": -0.32473,
				"method": "rhf"
			},
			{
				"type": "occ",
				"energy": -0.30972,
				"method": "rhf"
			},
			{
				"type": "occ",
				"energy": -0.30154,
				"method": "rhf"
			},
			{
				"type": "occ",
				"energy": -0.28968,
				"method": "rhf"
			},
			{
				"type": "occ",
				"energy": -0.25136,
				"method": "rhf"
			},
			{
				"type": "unocc",
				"energy": 0.02818,
				"method": "rhf"
			},
			{
				"type": "unocc",
				"energy": 0.07124,
				"method": "rhf"
			},
			{
				"type": "unocc",
				"energy": 0.10229,
				"method": "rhf"
			},
			{
				"type": "unocc",
				"energy": 0.11827,
				"method": "rhf"
			},
			{
				"type": "unocc",
				"energy": 0.13513,
				"method": "rhf"
			}
		],
		"cosmo_sigma_profile": { 
			"-0.025": 0.0,
			"-0.024": 0.0,
			"-0.023": 0.0,
			"-0.022": 0.0,
			"-0.021": 0.0,
			"-0.02": 0.0,
			"-0.019": 0.0,
			"-0.018": 0.0,
			"-0.017": 0.312223473871,
			"-0.016": 0.83177050026,
			"-0.015": 0.916902534083,
			"-0.014": 0.986334435937,
			"-0.013": 0.31886504546,
			"-0.012": 0.850248932064,
			"-0.011": 0.974418225182,
			"-0.01": 0.472920480711,
			"-0.009": 0.658362082332,
			"-0.008": 1.15602243151,
			"-0.007": 1.0641732367,
			"-0.006": 0.676639485145,
			"-0.005": 1.38632013449,
			"-0.004": 3.82383432259,
			"-0.003": 15.674216882,
			"-0.002": 24.5840594275,
			"-0.001": 25.7032616236,
			"0.0": 29.2156955496,
			"0.001": 19.0491357145,
			"0.002": 5.09162688267,
			"0.003": 2.46152007365,
			"0.004": 2.57670241012,
			"0.005": 2.38180703843,
			"0.006": 2.4431104468,
			"0.007": 2.55037465138,
			"0.008": 2.21680782658,
			"0.009": 2.29612802429,
			"0.01": 3.19021174827,
			"0.011": 3.37827572405,
			"0.012": 3.13724049029,
			"0.013": 0.820666226998,
			"0.014": 0.0,
			"0.015": 0.0,
			"0.016": 0.0,
			"0.017": 0.0,
			"0.018": 0.0,
			"0.019": 0.0,
			"0.02": 0.0,
			"0.021": 0.0,
			"0.022": 0.0,
			"0.023": 0.0,
			"0.024": 0.0,
			"0.025": 0.0
		}
	}
}
