{
	 "smiles": "OC(=O)CCCC(=O)C1=CC=CC=C1", 
	 "Tm": 400.15, 
	 "num_atms": 26, 
	 "gaussian": { 
		 "optdone": 1, 
		 "sigma_profile": "yes", 
		 "theory": "DFT", 
		 "functional": "B3LYP", 
		 "basiset": "6-31G**", 
		 "properties": { 
			 "R2extent": 3865.1967, 
			 "electric_dipole_moment_norm": 1.57471819066, 
			 "electric_quadrupole_moment_norm": 9.26977268545, 
			 "total_energy": -652.100575593, 
			 "HOMO_LUMO_gap": 0.19256, 
			 "cosmo_polarized_energy": -12.55, 
			 "cosmo_cavitation_energy": 30.16, 
			 "cosmo_dispersion_energy": -21.65, 
			 "cosmo_repulsion_energy": 1.72, 
			 "cosmo_total_nonelectrostatic_energy": 10.23, 
			 "SMD_solvation_energy": 6.44 
		},
		"coords": [
			{
				"x": -0.6828632829,
				"y": -1.9635518941,
				"z": -4.0540196068,
				"element": "O" 
			},
			{
				"x": -1.231772234,
				"y": -1.5993083665,
				"z": -2.8695107754,
				"element": "C" 
			},
			{
				"x": -1.9890762737,
				"y": -0.6549451371,
				"z": -2.7747459596,
				"element": "O" 
			},
			{
				"x": -0.7807568289,
				"y": -2.5063337606,
				"z": -1.747128952,
				"element": "C" 
			},
			{
				"x": -1.4037676834,
				"y": -2.1716508677,
				"z": -0.3873423766,
				"element": "C" 
			},
			{
				"x": -0.960535235,
				"y": -0.8287428313,
				"z": 0.2051032398,
				"element": "C" 
			},
			{
				"x": 0.4960173805,
				"y": -0.799040425,
				"z": 0.6522212583,
				"element": "C" 
			},
			{
				"x": 1.2038249754,
				"y": -1.79441498,
				"z": 0.5607381531,
				"element": "O" 
			},
			{
				"x": 1.0509260808,
				"y": 0.473331222,
				"z": 1.2227930381,
				"element": "C" 
			},
			{
				"x": 0.2964463115,
				"y": 1.6516492626,
				"z": 1.3344345567,
				"element": "C" 
			},
			{
				"x": 0.8662485395,
				"y": 2.804636594,
				"z": 1.8744601013,
				"element": "C" 
			},
			{
				"x": 2.1933185799,
				"y": 2.7919834104,
				"z": 2.308071159,
				"element": "C" 
			},
			{
				"x": 2.9525873402,
				"y": 1.6226413608,
				"z": 2.2004287006,
				"element": "C" 
			},
			{
				"x": 2.3850136401,
				"y": 0.4723911627,
				"z": 1.661319818,
				"element": "C" 
			},
			{
				"x": -1.0216364494,
				"y": -1.3334971454,
				"z": -4.712110395,
				"element": "H" 
			},
			{
				"x": 0.3123220439,
				"y": -2.4739467234,
				"z": -1.6922291481,
				"element": "H" 
			},
			{
				"x": -1.0286460398,
				"y": -3.532937831,
				"z": -2.0434118852,
				"element": "H" 
			},
			{
				"x": -1.1431397759,
				"y": -2.9729383078,
				"z": 0.3105195537,
				"element": "H" 
			},
			{
				"x": -2.4940037067,
				"y": -2.1619587003,
				"z": -0.4862515755,
				"element": "H" 
			},
			{
				"x": -1.1433322886,
				"y": -0.0228398616,
				"z": -0.5146627455,
				"element": "H" 
			},
			{
				"x": -1.5802255944,
				"y": -0.5870517703,
				"z": 1.0796356861,
				"element": "H" 
			},
			{
				"x": -0.7351002613,
				"y": 1.6770818224,
				"z": 0.9993699417,
				"element": "H" 
			},
			{
				"x": 0.2751423475,
				"y": 3.7120878276,
				"z": 1.9558375848,
				"element": "H" 
			},
			{
				"x": 2.6354890582,
				"y": 3.6908991685,
				"z": 2.7283919787,
				"element": "H" 
			},
			{
				"x": 3.9852030947,
				"y": 1.6117951223,
				"z": 2.5371904631,
				"element": "H" 
			},
			{
				"x": 2.9530162619,
				"y": -0.4470383513,
				"z": 1.5667981868,
				"element": "H" 
			}
		],
		 "valence_orbital": [ 
			{
				"type": "occ",
				"energy": -0.31672,
				"method": "rhf"
			},
			{
				"type": "occ",
				"energy": -0.27474,
				"method": "rhf"
			},
			{
				"type": "occ",
				"energy": -0.26082,
				"method": "rhf"
			},
			{
				"type": "occ",
				"energy": -0.25772,
				"method": "rhf"
			},
			{
				"type": "occ",
				"energy": -0.248,
				"method": "rhf"
			},
			{
				"type": "unocc",
				"energy": -0.05544,
				"method": "rhf"
			},
			{
				"type": "unocc",
				"energy": -0.00911,
				"method": "rhf"
			},
			{
				"type": "unocc",
				"energy": 0.01119,
				"method": "rhf"
			},
			{
				"type": "unocc",
				"energy": 0.0402,
				"method": "rhf"
			},
			{
				"type": "unocc",
				"energy": 0.08096,
				"method": "rhf"
			}
		],
		"cosmo_sigma_profile": { 
			"-0.025": 0.0,
			"-0.024": 0.0,
			"-0.023": 0.0,
			"-0.022": 0.0,
			"-0.021": 0.0,
			"-0.02": 0.0,
			"-0.019": 0.0,
			"-0.018": 0.295385707854,
			"-0.017": 1.09286439601,
			"-0.016": 1.0332459515,
			"-0.015": 0.450498308454,
			"-0.014": 0.705414388219,
			"-0.013": 0.757544849477,
			"-0.012": 0.883697563093,
			"-0.011": 0.725933320717,
			"-0.01": 0.659216219094,
			"-0.009": 0.831057140975,
			"-0.008": 0.386809536114,
			"-0.007": 2.46449924833,
			"-0.006": 14.3399680975,
			"-0.005": 21.2542985182,
			"-0.004": 21.3640639476,
			"-0.003": 21.880985335,
			"-0.002": 19.6266902383,
			"-0.001": 15.9763432882,
			"0.0": 13.8804240606,
			"0.001": 11.9305467388,
			"0.002": 14.7367433515,
			"0.003": 13.7061733748,
			"0.004": 16.8389184677,
			"0.005": 8.13804570831,
			"0.006": 3.80041036747,
			"0.007": 3.82665994017,
			"0.008": 5.36373251064,
			"0.009": 5.12778410084,
			"0.01": 3.89914586374,
			"0.011": 5.67648998575,
			"0.012": 6.78141285407,
			"0.013": 0.409272813763,
			"0.014": 0.0,
			"0.015": 0.0,
			"0.016": 0.0,
			"0.017": 0.0,
			"0.018": 0.0,
			"0.019": 0.0,
			"0.02": 0.0,
			"0.021": 0.0,
			"0.022": 0.0,
			"0.023": 0.0,
			"0.024": 0.0,
			"0.025": 0.0
		}
	}
}
