{
	 "smiles": "OC(=O)C1=CC=CC(=N1)C(O)=O", 
	 "Tm": 522.15, 
	 "num_atms": 17, 
	 "gaussian": { 
		 "optdone": 1, 
		 "sigma_profile": "yes", 
		 "theory": "DFT", 
		 "functional": "B3LYP", 
		 "basiset": "6-31G**", 
		 "properties": { 
			 "R2extent": 3230.3964, 
			 "electric_dipole_moment_norm": 6.56378045489, 
			 "electric_quadrupole_moment_norm": 16.5701174416, 
			 "total_energy": -625.416357066, 
			 "HOMO_LUMO_gap": 0.19418, 
			 "cosmo_polarized_energy": -22.74, 
			 "cosmo_cavitation_energy": 23.03, 
			 "cosmo_dispersion_energy": -16.96, 
			 "cosmo_repulsion_energy": 1.36, 
			 "cosmo_total_nonelectrostatic_energy": 7.43, 
			 "SMD_solvation_energy": 5.92 
		},
		"coords": [
			{
				"x": 1.1709314281,
				"y": 4.5424746259,
				"z": -0.9374331306,
				"element": "O" 
			},
			{
				"x": 1.8981970191,
				"y": 3.4563113949,
				"z": -0.5638500681,
				"element": "C" 
			},
			{
				"x": 3.0655756099,
				"y": 3.5534505443,
				"z": -0.2936724005,
				"element": "O" 
			},
			{
				"x": 1.1348312718,
				"y": 2.1517139143,
				"z": -0.4835283574,
				"element": "C" 
			},
			{
				"x": -0.2224609847,
				"y": 2.0962912559,
				"z": -0.1418824771,
				"element": "C" 
			},
			{
				"x": -0.8459432248,
				"y": 0.8498446387,
				"z": -0.0452423392,
				"element": "C" 
			},
			{
				"x": -0.1020431287,
				"y": -0.2974248231,
				"z": -0.300500521,
				"element": "C" 
			},
			{
				"x": 1.2480342567,
				"y": -0.1397465749,
				"z": -0.6268363264,
				"element": "C" 
			},
			{
				"x": 1.8555872138,
				"y": 1.0463905468,
				"z": -0.7096052156,
				"element": "N" 
			},
			{
				"x": 2.1199724093,
				"y": -1.3443154036,
				"z": -0.9031893762,
				"element": "C" 
			},
			{
				"x": 3.3944323936,
				"y": -1.0395514212,
				"z": -1.1730715377,
				"element": "O" 
			},
			{
				"x": 1.6909537126,
				"y": -2.475399962,
				"z": -0.8784518994,
				"element": "O" 
			},
			{
				"x": 0.311784203,
				"y": 4.2726814588,
				"z": -1.2912245811,
				"element": "H" 
			},
			{
				"x": -0.7755055089,
				"y": 3.0033576257,
				"z": 0.0824611781,
				"element": "H" 
			},
			{
				"x": -1.893746222,
				"y": 0.7814961991,
				"z": 0.2302943482,
				"element": "H" 
			},
			{
				"x": -0.5209864179,
				"y": -1.2955172414,
				"z": -0.248525562,
				"element": "H" 
			},
			{
				"x": 3.4734859691,
				"y": -0.0638567782,
				"z": -1.1226417337,
				"element": "H" 
			}
		],
		 "valence_orbital": [ 
			{
				"type": "occ",
				"energy": -0.32335,
				"method": "rhf"
			},
			{
				"type": "occ",
				"energy": -0.32116,
				"method": "rhf"
			},
			{
				"type": "occ",
				"energy": -0.30378,
				"method": "rhf"
			},
			{
				"type": "occ",
				"energy": -0.29009,
				"method": "rhf"
			},
			{
				"type": "occ",
				"energy": -0.27936,
				"method": "rhf"
			},
			{
				"type": "unocc",
				"energy": -0.08518,
				"method": "rhf"
			},
			{
				"type": "unocc",
				"energy": -0.08397,
				"method": "rhf"
			},
			{
				"type": "unocc",
				"energy": 0.00122,
				"method": "rhf"
			},
			{
				"type": "unocc",
				"energy": 0.04382,
				"method": "rhf"
			},
			{
				"type": "unocc",
				"energy": 0.05028,
				"method": "rhf"
			}
		],
		"cosmo_sigma_profile": { 
			"-0.025": 0.0,
			"-0.024": 0.0,
			"-0.023": 0.0,
			"-0.022": 0.0,
			"-0.021": 0.0,
			"-0.02": 0.142151985604,
			"-0.019": 0.871969015414,
			"-0.018": 0.984145989563,
			"-0.017": 1.14154859164,
			"-0.016": 1.55846020139,
			"-0.015": 0.77025173892,
			"-0.014": 0.998850396219,
			"-0.013": 1.93449966808,
			"-0.012": 1.95612539985,
			"-0.011": 1.59300913533,
			"-0.01": 3.59310216139,
			"-0.009": 4.75365625046,
			"-0.008": 8.16937494113,
			"-0.007": 7.79860973165,
			"-0.006": 8.38623609727,
			"-0.005": 8.42696745879,
			"-0.004": 8.80499890825,
			"-0.003": 12.4990023512,
			"-0.002": 14.0106758653,
			"-0.001": 13.4902839106,
			"0.0": 7.37760789248,
			"0.001": 3.85498023432,
			"0.002": 4.64372931133,
			"0.003": 4.49954497662,
			"0.004": 4.76142703423,
			"0.005": 4.1137903428,
			"0.006": 4.63308465764,
			"0.007": 5.79165288065,
			"0.008": 6.67136253825,
			"0.009": 8.90274506837,
			"0.01": 11.0490058036,
			"0.011": 10.6511577651,
			"0.012": 5.88643004985,
			"0.013": 0.80043777073,
			"0.014": 0.0,
			"0.015": 0.0,
			"0.016": 0.0,
			"0.017": 0.0,
			"0.018": 0.0,
			"0.019": 0.0,
			"0.02": 0.0,
			"0.021": 0.0,
			"0.022": 0.0,
			"0.023": 0.0,
			"0.024": 0.0,
			"0.025": 0.0
		}
	}
}
