{
	 "smiles": "NS(=O)(=O)C1=CC(=CC=C1)C(O)=O", 
	 "Tm": 512.15, 
	 "num_atms": 20, 
	 "gaussian": { 
		 "optdone": 1, 
		 "sigma_profile": "yes", 
		 "theory": "DFT", 
		 "functional": "B3LYP", 
		 "basiset": "6-31G**", 
		 "properties": { 
			 "R2extent": 3348.2346, 
			 "electric_dipole_moment_norm": 3.57269109356, 
			 "electric_quadrupole_moment_norm": 29.9734559921, 
			 "total_energy": -1024.73280985, 
			 "HOMO_LUMO_gap": 0.20892, 
			 "cosmo_polarized_energy": -26.43, 
			 "cosmo_cavitation_energy": 26.58, 
			 "cosmo_dispersion_energy": -19.91, 
			 "cosmo_repulsion_energy": 1.53, 
			 "cosmo_total_nonelectrostatic_energy": 8.21, 
			 "SMD_solvation_energy": 5.47 
		},
		"coords": [
			{
				"x": 3.5916887066,
				"y": 0.9949923604,
				"z": -0.8710237999,
				"element": "N" 
			},
			{
				"x": 2.0560270009,
				"y": 1.6620640404,
				"z": -0.9358134831,
				"element": "S" 
			},
			{
				"x": 1.4267350778,
				"y": 1.0926095209,
				"z": -2.1261779478,
				"element": "O" 
			},
			{
				"x": 2.236224691,
				"y": 3.0965111732,
				"z": -0.7289202658,
				"element": "O" 
			},
			{
				"x": 1.1437600442,
				"y": 1.0322259521,
				"z": 0.4859943823,
				"element": "C" 
			},
			{
				"x": 0.3687040203,
				"y": -0.1177701059,
				"z": 0.3356975639,
				"element": "C" 
			},
			{
				"x": -0.3243445954,
				"y": -0.6284384745,
				"z": 1.4391569316,
				"element": "C" 
			},
			{
				"x": -0.2142348116,
				"y": 0.012018672,
				"z": 2.6816474659,
				"element": "C" 
			},
			{
				"x": 0.5430378984,
				"y": 1.1739764041,
				"z": 2.8124491657,
				"element": "C" 
			},
			{
				"x": 1.2249215193,
				"y": 1.6964018794,
				"z": 1.7112708363,
				"element": "C" 
			},
			{
				"x": -1.1672405891,
				"y": -1.8707253497,
				"z": 1.365726037,
				"element": "C" 
			},
			{
				"x": -1.6222320223,
				"y": -2.2334590577,
				"z": 0.140419051,
				"element": "O" 
			},
			{
				"x": -1.4357377066,
				"y": -2.5352532952,
				"z": 2.3379273793,
				"element": "O" 
			},
			{
				"x": 3.6063381875,
				"y": -0.0107538859,
				"z": -1.0035041374,
				"element": "H" 
			},
			{
				"x": 4.1422220044,
				"y": 1.3143040781,
				"z": -0.081018066,
				"element": "H" 
			},
			{
				"x": 0.3340547881,
				"y": -0.5949569233,
				"z": -0.6392683437,
				"element": "H" 
			},
			{
				"x": -0.7407299709,
				"y": -0.4152107365,
				"z": 3.5281885389,
				"element": "H" 
			},
			{
				"x": 0.5998706857,
				"y": 1.6795073511,
				"z": 3.7713273274,
				"element": "H" 
			},
			{
				"x": 1.7986814177,
				"y": 2.6139373928,
				"z": 1.7896589791,
				"element": "H" 
			},
			{
				"x": -1.478346346,
				"y": -1.5268809959,
				"z": -0.5047376147,
				"element": "H" 
			}
		],
		 "valence_orbital": [ 
			{
				"type": "occ",
				"energy": -0.31962,
				"method": "rhf"
			},
			{
				"type": "occ",
				"energy": -0.31932,
				"method": "rhf"
			},
			{
				"type": "occ",
				"energy": -0.29698,
				"method": "rhf"
			},
			{
				"type": "occ",
				"energy": -0.29083,
				"method": "rhf"
			},
			{
				"type": "occ",
				"energy": -0.28271,
				"method": "rhf"
			},
			{
				"type": "unocc",
				"energy": -0.07379,
				"method": "rhf"
			},
			{
				"type": "unocc",
				"energy": -0.05767,
				"method": "rhf"
			},
			{
				"type": "unocc",
				"energy": 0.02173,
				"method": "rhf"
			},
			{
				"type": "unocc",
				"energy": 0.03417,
				"method": "rhf"
			},
			{
				"type": "unocc",
				"energy": 0.05187,
				"method": "rhf"
			}
		],
		"cosmo_sigma_profile": { 
			"-0.025": 0.0,
			"-0.024": 0.0,
			"-0.023": 0.0,
			"-0.022": 0.0,
			"-0.021": 0.0,
			"-0.02": 0.123642964696,
			"-0.019": 0.67374704604,
			"-0.018": 0.766502143795,
			"-0.017": 1.43242987267,
			"-0.016": 1.71488111246,
			"-0.015": 3.91040737757,
			"-0.014": 2.74652081346,
			"-0.013": 4.37475086242,
			"-0.012": 4.84726841642,
			"-0.011": 3.36043419187,
			"-0.01": 2.91298940297,
			"-0.009": 3.5308176889,
			"-0.008": 5.84460019186,
			"-0.007": 10.2428928053,
			"-0.006": 9.3126585563,
			"-0.005": 7.64115204271,
			"-0.004": 7.71472268433,
			"-0.003": 9.35815901573,
			"-0.002": 8.69560689174,
			"-0.001": 9.47293269027,
			"0.0": 14.4071786292,
			"0.001": 14.9318514584,
			"0.002": 6.05619314797,
			"0.003": 4.84237490158,
			"0.004": 5.50310493198,
			"0.005": 5.18032230079,
			"0.006": 5.29488475669,
			"0.007": 6.82077069575,
			"0.008": 7.37732208493,
			"0.009": 8.48434565771,
			"0.01": 13.0819637578,
			"0.011": 15.5737975647,
			"0.012": 5.90638743891,
			"0.013": 0.568073478031,
			"0.014": 0.0,
			"0.015": 0.0,
			"0.016": 0.0,
			"0.017": 0.0,
			"0.018": 0.0,
			"0.019": 0.0,
			"0.02": 0.0,
			"0.021": 0.0,
			"0.022": 0.0,
			"0.023": 0.0,
			"0.024": 0.0,
			"0.025": 0.0
		}
	}
}
