{
	 "smiles": "CCCCCCCCCCCCCCCCCC1CCCCC1", 
	 "Tm": 311.15, 
	 "num_atms": 69, 
	 "gaussian": { 
		 "optdone": 1, 
		 "sigma_profile": "yes", 
		 "theory": "DFT", 
		 "functional": "B3LYP", 
		 "basiset": "6-31G**", 
		 "properties": { 
			 "R2extent": 16696.2755, 
			 "electric_dipole_moment_norm": 0.0507374615053, 
			 "electric_quadrupole_moment_norm": 0.457834489745, 
			 "total_energy": -904.251832195, 
			 "HOMO_LUMO_gap": 0.35948, 
			 "cosmo_polarized_energy": -1.32, 
			 "cosmo_cavitation_energy": 64.31, 
			 "cosmo_dispersion_energy": -42.33, 
			 "cosmo_repulsion_energy": 3.44, 
			 "cosmo_total_nonelectrostatic_energy": 25.41, 
			 "SMD_solvation_energy": 7.52 
		},
		"coords": [
			{
				"x": 7.8073413381,
				"y": -0.1482435149,
				"z": -0.8809529249,
				"element": "C" 
			},
			{
				"x": 6.7434663124,
				"y": -1.1776184183,
				"z": -0.4864507996,
				"element": "C" 
			},
			{
				"x": 5.6583315746,
				"y": -0.605574016,
				"z": 0.4352141776,
				"element": "C" 
			},
			{
				"x": 4.5914441622,
				"y": -1.6366325705,
				"z": 0.8296872784,
				"element": "C" 
			},
			{
				"x": 3.4439255035,
				"y": -1.0805831464,
				"z": 1.6897140475,
				"element": "C" 
			},
			{
				"x": 3.8654733624,
				"y": -0.6234679353,
				"z": 3.0949696911,
				"element": "C" 
			},
			{
				"x": 2.6999652639,
				"y": -0.1982401844,
				"z": 4.0040489902,
				"element": "C" 
			},
			{
				"x": 1.9599969974,
				"y": 1.0694714499,
				"z": 3.5525053185,
				"element": "C" 
			},
			{
				"x": 0.8618187606,
				"y": 1.5024520599,
				"z": 4.5341755339,
				"element": "C" 
			},
			{
				"x": 0.154306195,
				"y": 2.8195106118,
				"z": 4.1680476974,
				"element": "C" 
			},
			{
				"x": -0.6374384855,
				"y": 2.8172572851,
				"z": 2.8478063794,
				"element": "C" 
			},
			{
				"x": -1.8221417747,
				"y": 1.8394537225,
				"z": 2.8224093801,
				"element": "C" 
			},
			{
				"x": -2.7160263401,
				"y": 1.9543251106,
				"z": 1.5760693583,
				"element": "C" 
			},
			{
				"x": -2.0389408381,
				"y": 1.551902733,
				"z": 0.2576833442,
				"element": "C" 
			},
			{
				"x": -2.9911965284,
				"y": 1.6112416292,
				"z": -0.945224574,
				"element": "C" 
			},
			{
				"x": -2.3339140485,
				"y": 1.3076402066,
				"z": -2.3032925982,
				"element": "C" 
			},
			{
				"x": -1.7314428969,
				"y": -0.1011755007,
				"z": -2.4620300342,
				"element": "C" 
			},
			{
				"x": -2.7050063335,
				"y": -1.2864492926,
				"z": -2.3154213822,
				"element": "C" 
			},
			{
				"x": -1.941342612,
				"y": -2.6248770734,
				"z": -2.3698608242,
				"element": "C" 
			},
			{
				"x": -2.8712906125,
				"y": -3.8401484212,
				"z": -2.2358592967,
				"element": "C" 
			},
			{
				"x": -3.9853987652,
				"y": -3.8135742745,
				"z": -3.2922786134,
				"element": "C" 
			},
			{
				"x": -4.7620261385,
				"y": -2.4899099918,
				"z": -3.243639677,
				"element": "C" 
			},
			{
				"x": -3.8270214774,
				"y": -1.2763967789,
				"z": -3.372379639,
				"element": "C" 
			},
			{
				"x": 8.3219072113,
				"y": 0.2482414797,
				"z": 0.0019434026,
				"element": "H" 
			},
			{
				"x": 8.5657447843,
				"y": -0.5862761073,
				"z": -1.5382826098,
				"element": "H" 
			},
			{
				"x": 7.3599184763,
				"y": 0.7012633749,
				"z": -1.4097685073,
				"element": "H" 
			},
			{
				"x": 7.225987315,
				"y": -2.030830344,
				"z": 0.0098367595,
				"element": "H" 
			},
			{
				"x": 6.271660442,
				"y": -1.5826033195,
				"z": -1.3922538746,
				"element": "H" 
			},
			{
				"x": 6.1358390103,
				"y": -0.1955313564,
				"z": 1.3350654789,
				"element": "H" 
			},
			{
				"x": 5.171403234,
				"y": 0.2450853681,
				"z": -0.0640556096,
				"element": "H" 
			},
			{
				"x": 4.1667592986,
				"y": -2.0696127908,
				"z": -0.0864269527,
				"element": "H" 
			},
			{
				"x": 5.072342327,
				"y": -2.4699187509,
				"z": 1.3624135013,
				"element": "H" 
			},
			{
				"x": 2.9678534448,
				"y": -0.249609557,
				"z": 1.1522315255,
				"element": "H" 
			},
			{
				"x": 2.6725705416,
				"y": -1.8567115679,
				"z": 1.7920971902,
				"element": "H" 
			},
			{
				"x": 4.4087136397,
				"y": -1.4460521452,
				"z": 3.5808459349,
				"element": "H" 
			},
			{
				"x": 4.5790310098,
				"y": 0.2079468063,
				"z": 3.0202121759,
				"element": "H" 
			},
			{
				"x": 1.9821320521,
				"y": -1.0275518574,
				"z": 4.0843960452,
				"element": "H" 
			},
			{
				"x": 3.0870210568,
				"y": -0.0356762892,
				"z": 5.0193510447,
				"element": "H" 
			},
			{
				"x": 2.6852994046,
				"y": 1.888663096,
				"z": 3.437267163,
				"element": "H" 
			},
			{
				"x": 1.5244072903,
				"y": 0.9076464565,
				"z": 2.5590703902,
				"element": "H" 
			},
			{
				"x": 0.123307999,
				"y": 0.6952343392,
				"z": 4.6306998382,
				"element": "H" 
			},
			{
				"x": 1.3071728434,
				"y": 1.6170859863,
				"z": 5.5319877384,
				"element": "H" 
			},
			{
				"x": 0.9051548346,
				"y": 3.620574401,
				"z": 4.125778443,
				"element": "H" 
			},
			{
				"x": -0.5288427077,
				"y": 3.0888631363,
				"z": 4.9854467735,
				"element": "H" 
			},
			{
				"x": -1.0186254329,
				"y": 3.8332027819,
				"z": 2.673554934,
				"element": "H" 
			},
			{
				"x": 0.0405486637,
				"y": 2.6064595029,
				"z": 2.011776676,
				"element": "H" 
			},
			{
				"x": -2.4388721937,
				"y": 2.013605336,
				"z": 3.7152251469,
				"element": "H" 
			},
			{
				"x": -1.457716434,
				"y": 0.8064324409,
				"z": 2.9044447479,
				"element": "H" 
			},
			{
				"x": -3.6043252207,
				"y": 1.3240517936,
				"z": 1.7206074822,
				"element": "H" 
			},
			{
				"x": -3.0886500571,
				"y": 2.9855351016,
				"z": 1.4916446922,
				"element": "H" 
			},
			{
				"x": -1.1786415436,
				"y": 2.2062513547,
				"z": 0.0625685876,
				"element": "H" 
			},
			{
				"x": -1.6315514963,
				"y": 0.5372031673,
				"z": 0.3640930167,
				"element": "H" 
			},
			{
				"x": -3.4331628899,
				"y": 2.6159176575,
				"z": -0.9944086933,
				"element": "H" 
			},
			{
				"x": -3.8326790638,
				"y": 0.9260892945,
				"z": -0.7739855747,
				"element": "H" 
			},
			{
				"x": -3.0712023011,
				"y": 1.4815469796,
				"z": -3.0969283892,
				"element": "H" 
			},
			{
				"x": -1.5345428042,
				"y": 2.0411119782,
				"z": -2.4772890684,
				"element": "H" 
			},
			{
				"x": -1.2569291439,
				"y": -0.1630720908,
				"z": -3.4519419708,
				"element": "H" 
			},
			{
				"x": -0.9171848662,
				"y": -0.2296996324,
				"z": -1.7364645929,
				"element": "H" 
			},
			{
				"x": -3.1818345147,
				"y": -1.2251214769,
				"z": -1.3244080758,
				"element": "H" 
			},
			{
				"x": -1.4023085163,
				"y": -2.6864232828,
				"z": -3.3274179659,
				"element": "H" 
			},
			{
				"x": -1.1755869228,
				"y": -2.6467294022,
				"z": -1.5837116066,
				"element": "H" 
			},
			{
				"x": -3.3243450053,
				"y": -3.8399988385,
				"z": -1.2339873916,
				"element": "H" 
			},
			{
				"x": -2.2927887043,
				"y": -4.7687980241,
				"z": -2.3141322421,
				"element": "H" 
			},
			{
				"x": -4.6667539048,
				"y": -4.661400176,
				"z": -3.1508854542,
				"element": "H" 
			},
			{
				"x": -3.5396532418,
				"y": -3.9343113658,
				"z": -4.2901797565,
				"element": "H" 
			},
			{
				"x": -5.5219803725,
				"y": -2.464290876,
				"z": -4.034192917,
				"element": "H" 
			},
			{
				"x": -5.3051411616,
				"y": -2.4262161162,
				"z": -2.2896762793,
				"element": "H" 
			},
			{
				"x": -4.4125871803,
				"y": -0.3524247383,
				"z": -3.3010046634,
				"element": "H" 
			},
			{
				"x": -3.3686518183,
				"y": -1.2760154169,
				"z": -4.3731973258,
				"element": "H" 
			}
		],
		 "valence_orbital": [ 
			{
				"type": "occ",
				"energy": -0.3008,
				"method": "rhf"
			},
			{
				"type": "occ",
				"energy": -0.29601,
				"method": "rhf"
			},
			{
				"type": "occ",
				"energy": -0.29479,
				"method": "rhf"
			},
			{
				"type": "occ",
				"energy": -0.2867,
				"method": "rhf"
			},
			{
				"type": "occ",
				"energy": -0.28287,
				"method": "rhf"
			},
			{
				"type": "unocc",
				"energy": 0.07661,
				"method": "rhf"
			},
			{
				"type": "unocc",
				"energy": 0.08389,
				"method": "rhf"
			},
			{
				"type": "unocc",
				"energy": 0.09447,
				"method": "rhf"
			},
			{
				"type": "unocc",
				"energy": 0.10063,
				"method": "rhf"
			},
			{
				"type": "unocc",
				"energy": 0.10127,
				"method": "rhf"
			}
		],
		"cosmo_sigma_profile": { 
			"-0.025": 0.0,
			"-0.024": 0.0,
			"-0.023": 0.0,
			"-0.022": 0.0,
			"-0.021": 0.0,
			"-0.02": 0.0,
			"-0.019": 0.0,
			"-0.018": 0.0,
			"-0.017": 0.0,
			"-0.016": 0.0,
			"-0.015": 0.0,
			"-0.014": 0.0,
			"-0.013": 0.0,
			"-0.012": 0.0,
			"-0.011": 0.0,
			"-0.01": 0.0,
			"-0.009": 0.0,
			"-0.008": 0.0,
			"-0.007": 0.0,
			"-0.006": 0.0,
			"-0.005": 0.0,
			"-0.004": 0.0,
			"-0.003": 1.72768885449,
			"-0.002": 44.6516911227,
			"-0.001": 131.604759167,
			"0.0": 138.847865093,
			"0.001": 117.864698996,
			"0.002": 52.8372889482,
			"0.003": 1.46299410394,
			"0.004": 0.0,
			"0.005": 0.0,
			"0.006": 0.0,
			"0.007": 0.0,
			"0.008": 0.0,
			"0.009": 0.0,
			"0.01": 0.0,
			"0.011": 0.0,
			"0.012": 0.0,
			"0.013": 0.0,
			"0.014": 0.0,
			"0.015": 0.0,
			"0.016": 0.0,
			"0.017": 0.0,
			"0.018": 0.0,
			"0.019": 0.0,
			"0.02": 0.0,
			"0.021": 0.0,
			"0.022": 0.0,
			"0.023": 0.0,
			"0.024": 0.0,
			"0.025": 0.0
		}
	}
}
