{
	 "smiles": "CCN(CC)S(=O)(=O)C1=CC(=CC=C1)C(=O)NCC(O)=O", 
	 "Tm": 343.15, 
	 "num_atms": 39, 
	 "gaussian": { 
		 "optdone": 1, 
		 "sigma_profile": "yes", 
		 "theory": "DFT", 
		 "functional": "B3LYP", 
		 "basiset": "6-31G**", 
		 "properties": { 
			 "R2extent": 7540.7141, 
			 "electric_dipole_moment_norm": 6.27229270443, 
			 "electric_quadrupole_moment_norm": 28.7792436648, 
			 "total_energy": -1389.98707191, 
			 "HOMO_LUMO_gap": 0.19719, 
			 "cosmo_polarized_energy": -30.91, 
			 "cosmo_cavitation_energy": 44.16, 
			 "cosmo_dispersion_energy": -28.71, 
			 "cosmo_repulsion_energy": 2.15, 
			 "cosmo_total_nonelectrostatic_energy": 17.6, 
			 "SMD_solvation_energy": 7.47 
		},
		"coords": [
			{
				"x": 2.9076883358,
				"y": 1.0597039232,
				"z": 1.474406522,
				"element": "C" 
			},
			{
				"x": 2.4080751635,
				"y": -0.1763205411,
				"z": 2.2194004935,
				"element": "C" 
			},
			{
				"x": 1.115206419,
				"y": -0.6740607114,
				"z": 1.6795995671,
				"element": "N" 
			},
			{
				"x": -0.01478262,
				"y": -0.713371285,
				"z": 2.6310201087,
				"element": "C" 
			},
			{
				"x": -0.5060179947,
				"y": 0.6903653443,
				"z": 2.9816858464,
				"element": "C" 
			},
			{
				"x": 1.2464770486,
				"y": -2.0503603675,
				"z": 0.6855527158,
				"element": "S" 
			},
			{
				"x": 0.8987433115,
				"y": -3.2743747959,
				"z": 1.4198251593,
				"element": "O" 
			},
			{
				"x": 2.5412644983,
				"y": -1.9257274005,
				"z": 0.0065247749,
				"element": "O" 
			},
			{
				"x": -0.0584786507,
				"y": -1.7577579021,
				"z": -0.5149211721,
				"element": "C" 
			},
			{
				"x": 0.1489284144,
				"y": -0.7939599081,
				"z": -1.5038739611,
				"element": "C" 
			},
			{
				"x": -0.8540081413,
				"y": -0.5464635049,
				"z": -2.4445718875,
				"element": "C" 
			},
			{
				"x": -2.036968347,
				"y": -1.3034819855,
				"z": -2.3985566969,
				"element": "C" 
			},
			{
				"x": -2.226962622,
				"y": -2.2685998795,
				"z": -1.4144558326,
				"element": "C" 
			},
			{
				"x": -1.2334758363,
				"y": -2.5049697023,
				"z": -0.4590377984,
				"element": "C" 
			},
			{
				"x": -0.7169138732,
				"y": 0.4354776463,
				"z": -3.57883382,
				"element": "C" 
			},
			{
				"x": -1.2967580877,
				"y": 0.2399662633,
				"z": -4.6399767941,
				"element": "O" 
			},
			{
				"x": 0.0847017031,
				"y": 1.5426065576,
				"z": -3.4101319423,
				"element": "N" 
			},
			{
				"x": 0.4792069704,
				"y": 2.1861023836,
				"z": -2.1781891319,
				"element": "C" 
			},
			{
				"x": 0.4964251028,
				"y": 3.7043217057,
				"z": -2.3753549719,
				"element": "C" 
			},
			{
				"x": 0.850868279,
				"y": 4.420577982,
				"z": -1.2852661555,
				"element": "O" 
			},
			{
				"x": 0.238363881,
				"y": 4.2448382665,
				"z": -3.420041218,
				"element": "O" 
			},
			{
				"x": 2.1684194678,
				"y": 1.8673287505,
				"z": 1.5177828846,
				"element": "H" 
			},
			{
				"x": 3.8393684945,
				"y": 1.4249578984,
				"z": 1.9196295165,
				"element": "H" 
			},
			{
				"x": 3.1055998168,
				"y": 0.8134833563,
				"z": 0.427727717,
				"element": "H" 
			},
			{
				"x": 2.2485231384,
				"y": 0.052275645,
				"z": 3.2780679732,
				"element": "H" 
			},
			{
				"x": 3.1676367075,
				"y": -0.9614139018,
				"z": 2.1768714297,
				"element": "H" 
			},
			{
				"x": 0.2620410594,
				"y": -1.2684109382,
				"z": 3.5382694457,
				"element": "H" 
			},
			{
				"x": -0.8310887424,
				"y": -1.2684755194,
				"z": 2.1617182107,
				"element": "H" 
			},
			{
				"x": 0.2707349474,
				"y": 1.2873344907,
				"z": 3.4695411788,
				"element": "H" 
			},
			{
				"x": -0.8324112973,
				"y": 1.2213000575,
				"z": 2.0823031328,
				"element": "H" 
			},
			{
				"x": -1.3534690055,
				"y": 0.6262128284,
				"z": 3.6714673741,
				"element": "H" 
			},
			{
				"x": 1.1036719802,
				"y": -0.2845650674,
				"z": -1.5479075892,
				"element": "H" 
			},
			{
				"x": -2.7870604663,
				"y": -1.1245928852,
				"z": -3.1612509993,
				"element": "H" 
			},
			{
				"x": -3.1442758963,
				"y": -2.8486558858,
				"z": -1.3926107506,
				"element": "H" 
			},
			{
				"x": -1.3494720951,
				"y": -3.2657357302,
				"z": 0.3052190275,
				"element": "H" 
			},
			{
				"x": 0.0474774466,
				"y": 2.1778371898,
				"z": -4.2030305048,
				"element": "H" 
			},
			{
				"x": -0.2048885617,
				"y": 1.9423475554,
				"z": -1.3559328202,
				"element": "H" 
			},
			{
				"x": 1.4879678234,
				"y": 1.890627366,
				"z": -1.848504268,
				"element": "H" 
			},
			{
				"x": 1.0420422279,
				"y": 3.8393327013,
				"z": -0.5342647639,
				"element": "H" 
			}
		],
		 "valence_orbital": [ 
			{
				"type": "occ",
				"energy": -0.29062,
				"method": "rhf"
			},
			{
				"type": "occ",
				"energy": -0.28466,
				"method": "rhf"
			},
			{
				"type": "occ",
				"energy": -0.27347,
				"method": "rhf"
			},
			{
				"type": "occ",
				"energy": -0.26053,
				"method": "rhf"
			},
			{
				"type": "occ",
				"energy": -0.25731,
				"method": "rhf"
			},
			{
				"type": "unocc",
				"energy": -0.06012,
				"method": "rhf"
			},
			{
				"type": "unocc",
				"energy": -0.04853,
				"method": "rhf"
			},
			{
				"type": "unocc",
				"energy": -0.01685,
				"method": "rhf"
			},
			{
				"type": "unocc",
				"energy": 0.01042,
				"method": "rhf"
			},
			{
				"type": "unocc",
				"energy": 0.02948,
				"method": "rhf"
			}
		],
		"cosmo_sigma_profile": { 
			"-0.025": 0.0,
			"-0.024": 0.0,
			"-0.023": 0.0,
			"-0.022": 0.0,
			"-0.021": 0.0,
			"-0.02": 0.0,
			"-0.019": 0.0,
			"-0.018": 0.101513947599,
			"-0.017": 1.05918244733,
			"-0.016": 1.29461347513,
			"-0.015": 1.2335078553,
			"-0.014": 2.73842083393,
			"-0.013": 1.85877395663,
			"-0.012": 1.61596877747,
			"-0.011": 1.59902595837,
			"-0.01": 2.30075228737,
			"-0.009": 4.54909627814,
			"-0.008": 6.74943425618,
			"-0.007": 10.8742958816,
			"-0.006": 13.5445593903,
			"-0.005": 20.8675509404,
			"-0.004": 28.1651287277,
			"-0.003": 31.851005419,
			"-0.002": 30.9813970377,
			"-0.001": 26.3399317223,
			"0.0": 28.0125131436,
			"0.001": 22.8801505,
			"0.002": 15.2590500313,
			"0.003": 7.98738874982,
			"0.004": 8.59498928205,
			"0.005": 8.09129567506,
			"0.006": 6.23678745802,
			"0.007": 6.74712979703,
			"0.008": 8.47262920413,
			"0.009": 8.66746806126,
			"0.01": 13.6019731697,
			"0.011": 12.6443957045,
			"0.012": 7.33930383214,
			"0.013": 5.39480960657,
			"0.014": 1.15696940653,
			"0.015": 0.0,
			"0.016": 0.0,
			"0.017": 0.0,
			"0.018": 0.0,
			"0.019": 0.0,
			"0.02": 0.0,
			"0.021": 0.0,
			"0.022": 0.0,
			"0.023": 0.0,
			"0.024": 0.0,
			"0.0": 0.0
		}
	}
}
