{
	 "smiles": "O=C1NC(=S)NC(C2CCCCC2)=C1C#N", 
	 "Tm": 573.15, 
	 "num_atms": 29, 
	 "gaussian": { 
		 "optdone": 1, 
		 "sigma_profile": "yes", 
		 "theory": "DFT", 
		 "functional": "B3LYP", 
		 "basiset": "6-31G**", 
		 "properties": { 
			 "R2extent": 5168.1531, 
			 "electric_dipole_moment_norm": 5.52874963984, 
			 "electric_quadrupole_moment_norm": 15.5486875761, 
			 "total_energy": -1064.6918327, 
			 "HOMO_LUMO_gap": 0.16074, 
			 "cosmo_polarized_energy": -22.29, 
			 "cosmo_cavitation_energy": 33.58, 
			 "cosmo_dispersion_energy": -24.15, 
			 "cosmo_repulsion_energy": 1.85, 
			 "cosmo_total_nonelectrostatic_energy": 11.29, 
			 "SMD_solvation_energy": 5.46 
		},
		"coords": [
			{
				"x": 2.9868759508,
				"y": 1.0617441374,
				"z": -3.4108621762,
				"element": "O" 
			},
			{
				"x": 2.0906580978,
				"y": 0.4025184832,
				"z": -2.9219804649,
				"element": "C" 
			},
			{
				"x": 1.2803931185,
				"y": -0.4159580003,
				"z": -3.7391632952,
				"element": "N" 
			},
			{
				"x": 0.2408923335,
				"y": -1.2125258487,
				"z": -3.3551222709,
				"element": "C" 
			},
			{
				"x": -0.6664672727,
				"y": -2.1493369034,
				"z": -4.3838222412,
				"element": "S" 
			},
			{
				"x": -0.002197227,
				"y": -1.1738025643,
				"z": -1.9936605626,
				"element": "N" 
			},
			{
				"x": 0.6874907754,
				"y": -0.4370037036,
				"z": -1.0647518367,
				"element": "C" 
			},
			{
				"x": 0.199750648,
				"y": -0.5672545361,
				"z": 0.3620993065,
				"element": "C" 
			},
			{
				"x": -0.3630361809,
				"y": 0.7634669333,
				"z": 0.9189720153,
				"element": "C" 
			},
			{
				"x": -1.0971013088,
				"y": 0.5179918009,
				"z": 2.257613342,
				"element": "C" 
			},
			{
				"x": -0.4424890345,
				"y": -0.6040396946,
				"z": 3.1014452487,
				"element": "C" 
			},
			{
				"x": 1.0523874772,
				"y": -0.7336701348,
				"z": 2.7835114387,
				"element": "C" 
			},
			{
				"x": 1.2817496162,
				"y": -1.1623031777,
				"z": 1.3183189932,
				"element": "C" 
			},
			{
				"x": 1.7284316218,
				"y": 0.3536613639,
				"z": -1.497428657,
				"element": "C" 
			},
			{
				"x": 2.5001978853,
				"y": 1.1529988174,
				"z": -0.6070981221,
				"element": "C" 
			},
			{
				"x": 3.1265196859,
				"y": 1.8020766113,
				"z": 0.1288491495,
				"element": "N" 
			},
			{
				"x": 1.5056664606,
				"y": -0.4036695889,
				"z": -4.7274716301,
				"element": "H" 
			},
			{
				"x": -0.7695217565,
				"y": -1.7597122689,
				"z": -1.6905620151,
				"element": "H" 
			},
			{
				"x": -0.6415051829,
				"y": -1.2733961788,
				"z": 0.3353235244,
				"element": "H" 
			},
			{
				"x": 0.4628429555,
				"y": 1.465847515,
				"z": 1.0605636127,
				"element": "H" 
			},
			{
				"x": -1.0433133953,
				"y": 1.2211759567,
				"z": 0.1928406417,
				"element": "H" 
			},
			{
				"x": -1.1035053955,
				"y": 1.456559152,
				"z": 2.8223608098,
				"element": "H" 
			},
			{
				"x": -2.1468572577,
				"y": 0.2682028083,
				"z": 2.0640989701,
				"element": "H" 
			},
			{
				"x": -0.9348943816,
				"y": -1.5642601557,
				"z": 2.8969347274,
				"element": "H" 
			},
			{
				"x": -0.5941802353,
				"y": -0.4085628849,
				"z": 4.1678891006,
				"element": "H" 
			},
			{
				"x": 1.5475427673,
				"y": 0.2276950758,
				"z": 2.9656748638,
				"element": "H" 
			},
			{
				"x": 1.5314649592,
				"y": -1.4578770479,
				"z": 3.4507177219,
				"element": "H" 
			},
			{
				"x": 2.2805171087,
				"y": -0.8509791337,
				"z": 1.0032689213,
				"element": "H" 
			},
			{
				"x": 1.2503871671,
				"y": -2.2545868326,
				"z": 1.2331408844,
				"element": "H" 
			}
		],
		 "valence_orbital": [ 
			{
				"type": "occ",
				"energy": -0.32171,
				"method": "rhf"
			},
			{
				"type": "occ",
				"energy": -0.29274,
				"method": "rhf"
			},
			{
				"type": "occ",
				"energy": -0.28114,
				"method": "rhf"
			},
			{
				"type": "occ",
				"energy": -0.24713,
				"method": "rhf"
			},
			{
				"type": "occ",
				"energy": -0.24496,
				"method": "rhf"
			},
			{
				"type": "unocc",
				"energy": -0.08422,
				"method": "rhf"
			},
			{
				"type": "unocc",
				"energy": -0.04965,
				"method": "rhf"
			},
			{
				"type": "unocc",
				"energy": 0.01698,
				"method": "rhf"
			},
			{
				"type": "unocc",
				"energy": 0.02709,
				"method": "rhf"
			},
			{
				"type": "unocc",
				"energy": 0.02796,
				"method": "rhf"
			}
		],
		"cosmo_sigma_profile": { 
			"-0.025": 0.0,
			"-0.024": 0.0,
			"-0.023": 0.0,
			"-0.022": 0.0,
			"-0.021": 0.0,
			"-0.02": 0.0,
			"-0.019": 0.0,
			"-0.018": 0.110111955589,
			"-0.017": 1.58667943714,
			"-0.016": 2.19180895296,
			"-0.015": 1.71344819305,
			"-0.014": 1.99129719697,
			"-0.013": 1.75552788607,
			"-0.012": 2.03286153148,
			"-0.011": 1.95752345138,
			"-0.01": 2.05098463781,
			"-0.009": 2.89408548076,
			"-0.008": 3.58905842071,
			"-0.007": 4.7954420239,
			"-0.006": 7.29748750585,
			"-0.005": 11.0616672203,
			"-0.004": 16.1732142437,
			"-0.003": 26.0160855795,
			"-0.002": 31.7109884565,
			"-0.001": 27.2147530699,
			"0.0": 23.0212279697,
			"0.001": 14.0457451429,
			"0.002": 6.18884676481,
			"0.003": 5.66367739738,
			"0.004": 6.21164624424,
			"0.005": 7.32207018382,
			"0.006": 8.13114557037,
			"0.007": 11.9204204164,
			"0.008": 10.9567194012,
			"0.009": 8.11552196729,
			"0.01": 6.84974612961,
			"0.011": 7.25426815147,
			"0.012": 5.43722701943,
			"0.013": 1.05774084788,
			"0.014": 0.0,
			"0.015": 0.0,
			"0.016": 0.0,
			"0.017": 0.0,
			"0.018": 0.0,
			"0.019": 0.0,
			"0.02": 0.0,
			"0.021": 0.0,
			"0.022": 0.0,
			"0.023": 0.0,
			"0.024": 0.0,
			"0.025": 0.0
		}
	}
}
