{
	 "smiles": "CCC(NC1=CC=CC=C1)C(N)=O", 
	 "Tm": 396.15, 
	 "num_atms": 27, 
	 "gaussian": { 
		 "optdone": 1, 
		 "sigma_profile": "yes", 
		 "theory": "DFT", 
		 "functional": "B3LYP", 
		 "basiset": "6-31G**", 
		 "properties": { 
			 "R2extent": 3052.7836, 
			 "electric_dipole_moment_norm": 3.24309010976, 
			 "electric_quadrupole_moment_norm": 10.459142995, 
			 "total_energy": -574.254557982, 
			 "HOMO_LUMO_gap": 0.20403, 
			 "cosmo_polarized_energy": -14.15, 
			 "cosmo_cavitation_energy": 29.56, 
			 "cosmo_dispersion_energy": -21.03, 
			 "cosmo_repulsion_energy": 1.69, 
			 "cosmo_total_nonelectrostatic_energy": 10.22, 
			 "SMD_solvation_energy": 5.39 
		},
		"coords": [
			{
				"x": -0.7694382793,
				"y": 0.5647488564,
				"z": 3.6140998164,
				"element": "C" 
			},
			{
				"x": -1.4040311069,
				"y": -0.0364616292,
				"z": 2.3537749413,
				"element": "C" 
			},
			{
				"x": -0.4064043805,
				"y": -0.5203550809,
				"z": 1.2801472381,
				"element": "C" 
			},
			{
				"x": 0.4332426489,
				"y": 0.577671247,
				"z": 0.8044603823,
				"element": "N" 
			},
			{
				"x": 0.9239015375,
				"y": 0.6034921142,
				"z": -0.5114288475,
				"element": "C" 
			},
			{
				"x": 1.08289493,
				"y": -0.5667337494,
				"z": -1.2739770738,
				"element": "C" 
			},
			{
				"x": 1.6117939751,
				"y": -0.4956989912,
				"z": -2.5640069535,
				"element": "C" 
			},
			{
				"x": 1.9939928843,
				"y": 0.7247357226,
				"z": -3.1195651008,
				"element": "C" 
			},
			{
				"x": 1.8399700219,
				"y": 1.8892525192,
				"z": -2.3618935731,
				"element": "C" 
			},
			{
				"x": 1.3125134492,
				"y": 1.8331201109,
				"z": -1.0758983446,
				"element": "C" 
			},
			{
				"x": 0.4016545096,
				"y": -1.7112002962,
				"z": 1.8392472505,
				"element": "C" 
			},
			{
				"x": 1.6990874785,
				"y": -1.442767901,
				"z": 2.1408686321,
				"element": "N" 
			},
			{
				"x": -0.1360947288,
				"y": -2.7956965964,
				"z": 2.022067292,
				"element": "O" 
			},
			{
				"x": -0.1198267624,
				"y": -0.1579913612,
				"z": 4.1164310725,
				"element": "H" 
			},
			{
				"x": -1.5470415366,
				"y": 0.8655663273,
				"z": 4.3227633052,
				"element": "H" 
			},
			{
				"x": -0.1667560759,
				"y": 1.4536497695,
				"z": 3.3964394268,
				"element": "H" 
			},
			{
				"x": -2.012268341,
				"y": -0.9037435844,
				"z": 2.6267117033,
				"element": "H" 
			},
			{
				"x": -2.079666897,
				"y": 0.6923579888,
				"z": 1.8874003387,
				"element": "H" 
			},
			{
				"x": -0.9951248009,
				"y": -0.9412073619,
				"z": 0.4534293916,
				"element": "H" 
			},
			{
				"x": 0.1179943711,
				"y": 1.4863897504,
				"z": 1.1181423253,
				"element": "H" 
			},
			{
				"x": 0.8040340739,
				"y": -1.5317357034,
				"z": -0.8654347219,
				"element": "H" 
			},
			{
				"x": 1.7239479099,
				"y": -1.4122619925,
				"z": -3.1367193611,
				"element": "H" 
			},
			{
				"x": 2.4038042903,
				"y": 0.7703354863,
				"z": -4.1235952323,
				"element": "H" 
			},
			{
				"x": 2.1283120853,
				"y": 2.8515499244,
				"z": -2.776097618,
				"element": "H" 
			},
			{
				"x": 1.195402377,
				"y": 2.7463266977,
				"z": -0.4960227502,
				"element": "H" 
			},
			{
				"x": 2.2873620124,
				"y": -2.1965889539,
				"z": 2.4603000272,
				"element": "H" 
			},
			{
				"x": 2.0950443543,
				"y": -0.5521533132,
				"z": 1.8806564334,
				"element": "H" 
			}
		],
		 "valence_orbital": [ 
			{
				"type": "occ",
				"energy": -0.30397,
				"method": "rhf"
			},
			{
				"type": "occ",
				"energy": -0.26305,
				"method": "rhf"
			},
			{
				"type": "occ",
				"energy": -0.24805,
				"method": "rhf"
			},
			{
				"type": "occ",
				"energy": -0.24423,
				"method": "rhf"
			},
			{
				"type": "occ",
				"energy": -0.20394,
				"method": "rhf"
			},
			{
				"type": "unocc",
				"energy": 9e-05,
				"method": "rhf"
			},
			{
				"type": "unocc",
				"energy": 0.01404,
				"method": "rhf"
			},
			{
				"type": "unocc",
				"energy": 0.03084,
				"method": "rhf"
			},
			{
				"type": "unocc",
				"energy": 0.07007,
				"method": "rhf"
			},
			{
				"type": "unocc",
				"energy": 0.09544,
				"method": "rhf"
			}
		],
		"cosmo_sigma_profile": { 
			"-0.025": 0.0,
			"-0.024": 0.0,
			"-0.023": 0.0,
			"-0.022": 0.0,
			"-0.021": 0.0,
			"-0.02": 0.0,
			"-0.019": 0.0,
			"-0.018": 0.0,
			"-0.017": 0.0,
			"-0.016": 0.0,
			"-0.015": 0.0,
			"-0.014": 0.582177733997,
			"-0.013": 1.54811632888,
			"-0.012": 2.19352199848,
			"-0.011": 2.24299857411,
			"-0.01": 3.09224468331,
			"-0.009": 3.65126798713,
			"-0.008": 4.00891078304,
			"-0.007": 3.71664558158,
			"-0.006": 4.53380957945,
			"-0.005": 12.0162961128,
			"-0.004": 18.7054720062,
			"-0.003": 22.0751386506,
			"-0.002": 21.1967645201,
			"-0.001": 20.8691298246,
			"0.0": 18.670732796,
			"0.001": 17.3051027247,
			"0.002": 11.700395066,
			"0.003": 10.1806442845,
			"0.004": 10.2191300202,
			"0.005": 8.83951678773,
			"0.006": 8.99465535256,
			"0.007": 8.57328549723,
			"0.008": 1.32772312155,
			"0.009": 0.984691438205,
			"0.01": 0.947561428004,
			"0.011": 1.61790023343,
			"0.012": 1.5943226408,
			"0.013": 1.97992560572,
			"0.014": 5.99041468918,
			"0.015": 2.90918480712,
			"0.016": 0.0910563447907,
			"0.017": 0.0,
			"0.018": 0.0,
			"0.019": 0.0,
			"0.02": 0.0,
			"0.021": 0.0,
			"0.022": 0.0,
			"0.023": 0.0,
			"0.024": 0.0,
			"0.025": 0.0
		}
	}
}
