{
	 "smiles": "N1C=NC2=C1N=CN=C2", 
	 "Tm": 489.15, 
	 "num_atms": 13, 
	 "gaussian": { 
		 "optdone": 1, 
		 "sigma_profile": "yes", 
		 "theory": "DFT", 
		 "functional": "B3LYP", 
		 "basiset": "6-31G**", 
		 "properties": { 
			 "R2extent": 921.6957, 
			 "electric_dipole_moment_norm": 3.66608579687, 
			 "electric_quadrupole_moment_norm": 7.1819899631, 
			 "total_energy": -411.945015116, 
			 "HOMO_LUMO_gap": 0.20423, 
			 "cosmo_polarized_energy": -13.81, 
			 "cosmo_cavitation_energy": 17.56, 
			 "cosmo_dispersion_energy": -13.71, 
			 "cosmo_repulsion_energy": 1.1, 
			 "cosmo_total_nonelectrostatic_energy": 4.95, 
			 "SMD_solvation_energy": -1.61 
		},
		"coords": [
			{
				"x": 0.684581746,
				"y": -1.6207837559,
				"z": -0.2182217232,
				"element": "N" 
			},
			{
				"x": -0.5100286541,
				"y": -2.2529694317,
				"z": 0.0694171106,
				"element": "C" 
			},
			{
				"x": -1.4692309456,
				"y": -1.4409707678,
				"z": 0.4343269879,
				"element": "N" 
			},
			{
				"x": -0.8824746324,
				"y": -0.1846661683,
				"z": 0.3889285587,
				"element": "C" 
			},
			{
				"x": 0.4677077195,
				"y": -0.2762840125,
				"z": -0.0179733395,
				"element": "C" 
			},
			{
				"x": 1.3153107566,
				"y": 0.7371008375,
				"z": -0.1647803787,
				"element": "N" 
			},
			{
				"x": 0.7461242615,
				"y": 1.915367288,
				"z": 0.1224227983,
				"element": "C" 
			},
			{
				"x": -0.5183248757,
				"y": 2.150810572,
				"z": 0.5186400091,
				"element": "N" 
			},
			{
				"x": -1.3419459896,
				"y": 1.105125344,
				"z": 0.6550806311,
				"element": "C" 
			},
			{
				"x": 1.5503453299,
				"y": -2.0451760655,
				"z": -0.5162109314,
				"element": "H" 
			},
			{
				"x": -0.6070446058,
				"y": -3.328099513,
				"z": -0.011077988,
				"element": "H" 
			},
			{
				"x": 1.3845492129,
				"y": 2.7900652881,
				"z": 0.0230222786,
				"element": "H" 
			},
			{
				"x": -2.3632693233,
				"y": 1.300780385,
				"z": 0.9757259866,
				"element": "H" 
			}
		],
		 "valence_orbital": [ 
			{
				"type": "occ",
				"energy": -0.32603,
				"method": "rhf"
			},
			{
				"type": "occ",
				"energy": -0.28913,
				"method": "rhf"
			},
			{
				"type": "occ",
				"energy": -0.28195,
				"method": "rhf"
			},
			{
				"type": "occ",
				"energy": -0.25645,
				"method": "rhf"
			},
			{
				"type": "occ",
				"energy": -0.25198,
				"method": "rhf"
			},
			{
				"type": "unocc",
				"energy": -0.04775,
				"method": "rhf"
			},
			{
				"type": "unocc",
				"energy": -0.00822,
				"method": "rhf"
			},
			{
				"type": "unocc",
				"energy": 0.02911,
				"method": "rhf"
			},
			{
				"type": "unocc",
				"energy": 0.06789,
				"method": "rhf"
			},
			{
				"type": "unocc",
				"energy": 0.12033,
				"method": "rhf"
			}
		],
		"cosmo_sigma_profile": { 
			"-0.025": 0.0,
			"-0.024": 0.0,
			"-0.023": 0.0,
			"-0.022": 0.0,
			"-0.021": 0.0,
			"-0.02": 0.0,
			"-0.019": 0.0,
			"-0.018": 0.571729893784,
			"-0.017": 1.82479153438,
			"-0.016": 1.26030490493,
			"-0.015": 1.27699020251,
			"-0.014": 0.939989144496,
			"-0.013": 1.36781688062,
			"-0.012": 1.21135817954,
			"-0.011": 2.82052206815,
			"-0.01": 2.87577748491,
			"-0.009": 2.68387782574,
			"-0.008": 3.93048219558,
			"-0.007": 5.25180380617,
			"-0.006": 4.73870319956,
			"-0.005": 4.92641594473,
			"-0.004": 4.7530342489,
			"-0.003": 5.58382254404,
			"-0.002": 11.3559331409,
			"-0.001": 13.7980182204,
			"0.0": 12.4908001664,
			"0.001": 7.83869363043,
			"0.002": 5.47222614293,
			"0.003": 5.49878795848,
			"0.004": 4.77170545128,
			"0.005": 3.1700558371,
			"0.006": 3.70427612297,
			"0.007": 4.55039825571,
			"0.008": 2.92817188732,
			"0.009": 2.65637666743,
			"0.01": 3.20110172682,
			"0.011": 2.66170293236,
			"0.012": 3.15926450175,
			"0.013": 2.87727672309,
			"0.014": 2.62170525066,
			"0.015": 2.2696907642,
			"0.016": 1.29736951921,
			"0.017": 0.0738202926015,
			"0.018": 0.0,
			"0.019": 0.0,
			"0.02": 0.0,
			"0.021": 0.0,
			"0.022": 0.0,
			"0.023": 0.0,
			"0.024": 0.0,
			"0.025": 0.0
		}
	}
}
