{
	 "smiles": "CC1(C)N(Cl)C(=O)N(Cl)C1=O", 
	 "Tm": 407.15, 
	 "num_atms": 17, 
	 "gaussian": { 
		 "optdone": 1, 
		 "sigma_profile": "yes", 
		 "theory": "DFT", 
		 "functional": "B3LYP", 
		 "basiset": "6-31G**", 
		 "properties": { 
			 "R2extent": 3362.4114, 
			 "electric_dipole_moment_norm": 3.28675741423, 
			 "electric_quadrupole_moment_norm": 12.842762417, 
			 "total_energy": -1374.43115895, 
			 "HOMO_LUMO_gap": 0.19563, 
			 "cosmo_polarized_energy": -10.73, 
			 "cosmo_cavitation_energy": 24.97, 
			 "cosmo_dispersion_energy": -17.7, 
			 "cosmo_repulsion_energy": 1.43, 
			 "cosmo_total_nonelectrostatic_energy": 8.7, 
			 "SMD_solvation_energy": 5.23 
		},
		"coords": [
			{
				"x": -0.5563125901,
				"y": 0.8914248975,
				"z": -1.3797297293,
				"element": "C" 
			},
			{
				"x": -1.1748080959,
				"y": 0.0712976511,
				"z": -0.2397222325,
				"element": "C" 
			},
			{
				"x": -1.4443845038,
				"y": -1.3823863276,
				"z": -0.65072861,
				"element": "C" 
			},
			{
				"x": -2.36711288,
				"y": 0.7191606359,
				"z": 0.328537088,
				"element": "N" 
			},
			{
				"x": -3.8011939102,
				"y": 0.9937592753,
				"z": -0.5621336761,
				"element": "Cl" 
			},
			{
				"x": -2.2715501674,
				"y": 1.1036345465,
				"z": 1.6456453699,
				"element": "C" 
			},
			{
				"x": -3.0733973527,
				"y": 1.6455969377,
				"z": 2.3596845127,
				"element": "O" 
			},
			{
				"x": -0.942562422,
				"y": 0.700313294,
				"z": 2.0062346832,
				"element": "N" 
			},
			{
				"x": -0.3320502655,
				"y": 0.9643718646,
				"z": 3.5739049053,
				"element": "Cl" 
			},
			{
				"x": -0.2282587326,
				"y": 0.094989638,
				"z": 0.9874967212,
				"element": "C" 
			},
			{
				"x": 0.8997260294,
				"y": -0.3334927431,
				"z": 1.0238457409,
				"element": "O" 
			},
			{
				"x": -1.2205187949,
				"y": 0.8885619502,
				"z": -2.2482817121,
				"element": "H" 
			},
			{
				"x": -0.3878535597,
				"y": 1.9266489074,
				"z": -1.071531009,
				"element": "H" 
			},
			{
				"x": 0.4010440441,
				"y": 0.4493961297,
				"z": -1.6652492888,
				"element": "H" 
			},
			{
				"x": -2.118323973,
				"y": -1.4110711031,
				"z": -1.5112773018,
				"element": "H" 
			},
			{
				"x": -0.5015278398,
				"y": -1.8618278918,
				"z": -0.9238601264,
				"element": "H" 
			},
			{
				"x": -1.8999149858,
				"y": -1.9437776622,
				"z": 0.1692646648,
				"element": "H" 
			}
		],
		 "valence_orbital": [ 
			{
				"type": "occ",
				"energy": -0.3446,
				"method": "rhf"
			},
			{
				"type": "occ",
				"energy": -0.31551,
				"method": "rhf"
			},
			{
				"type": "occ",
				"energy": -0.29129,
				"method": "rhf"
			},
			{
				"type": "occ",
				"energy": -0.28773,
				"method": "rhf"
			},
			{
				"type": "occ",
				"energy": -0.26544,
				"method": "rhf"
			},
			{
				"type": "unocc",
				"energy": -0.06981,
				"method": "rhf"
			},
			{
				"type": "unocc",
				"energy": -0.03299,
				"method": "rhf"
			},
			{
				"type": "unocc",
				"energy": -0.02869,
				"method": "rhf"
			},
			{
				"type": "unocc",
				"energy": 0.03844,
				"method": "rhf"
			},
			{
				"type": "unocc",
				"energy": 0.07724,
				"method": "rhf"
			}
		],
		"cosmo_sigma_profile": { 
			"-0.025": 0.0,
			"-0.024": 0.0,
			"-0.023": 0.0,
			"-0.022": 0.0,
			"-0.021": 0.0,
			"-0.02": 0.0,
			"-0.019": 0.0,
			"-0.018": 0.0,
			"-0.017": 0.0,
			"-0.016": 0.0,
			"-0.015": 0.0,
			"-0.014": 0.0,
			"-0.013": 0.0,
			"-0.012": 0.0,
			"-0.011": 0.0,
			"-0.01": 0.175659250834,
			"-0.009": 1.36437259949,
			"-0.008": 3.43609094752,
			"-0.007": 4.51035834623,
			"-0.006": 11.4358267905,
			"-0.005": 17.7043783378,
			"-0.004": 17.2681071805,
			"-0.003": 17.1240127133,
			"-0.002": 20.721146109,
			"-0.001": 18.5830798912,
			"0.0": 12.0309131145,
			"0.001": 12.9421978423,
			"0.002": 14.8422360274,
			"0.003": 8.73582693719,
			"0.004": 4.93489955719,
			"0.005": 3.22688025717,
			"0.006": 4.54413059291,
			"0.007": 3.94757738124,
			"0.008": 3.27352290339,
			"0.009": 4.91281117965,
			"0.01": 9.32224799807,
			"0.011": 7.77249451666,
			"0.012": 0.259309966004,
			"0.013": 0.0,
			"0.014": 0.0,
			"0.015": 0.0,
			"0.016": 0.0,
			"0.017": 0.0,
			"0.018": 0.0,
			"0.019": 0.0,
			"0.02": 0.0,
			"0.021": 0.0,
			"0.022": 0.0,
			"0.023": 0.0,
			"0.024": 0.0,
			"0.025": 0.0
		}
	}
}
