{
	 "smiles": "NC(=O)N1CCOCC1", 
	 "Tm": 380.15, 
	 "num_atms": 19, 
	 "gaussian": { 
		 "optdone": 1, 
		 "sigma_profile": "yes", 
		 "theory": "DFT", 
		 "functional": "B3LYP", 
		 "basiset": "6-31G**", 
		 "properties": { 
			 "R2extent": 1382.0365, 
			 "electric_dipole_moment_norm": 3.18154039107, 
			 "electric_quadrupole_moment_norm": 12.2140298641, 
			 "total_energy": -456.515908342, 
			 "HOMO_LUMO_gap": 0.27848, 
			 "cosmo_polarized_energy": -14.45, 
			 "cosmo_cavitation_energy": 21.03, 
			 "cosmo_dispersion_energy": -16.22, 
			 "cosmo_repulsion_energy": 1.35, 
			 "cosmo_total_nonelectrostatic_energy": 6.16, 
			 "SMD_solvation_energy": 3.56 
		},
		"coords": [
			{
				"x": -1.5675008694,
				"y": 0.4765560905,
				"z": -2.4770736661,
				"element": "N" 
			},
			{
				"x": -1.507914188,
				"y": -0.4240918673,
				"z": -1.4164932818,
				"element": "C" 
			},
			{
				"x": -2.4624191542,
				"y": -1.1364803451,
				"z": -1.1274453699,
				"element": "O" 
			},
			{
				"x": -0.3051119589,
				"y": -0.4678270673,
				"z": -0.7249120718,
				"element": "N" 
			},
			{
				"x": 0.9784602682,
				"y": -0.0533541867,
				"z": -1.2934872922,
				"element": "C" 
			},
			{
				"x": 1.9258996405,
				"y": 0.3525955031,
				"z": -0.1622715006,
				"element": "C" 
			},
			{
				"x": 2.0743696025,
				"y": -0.6881153018,
				"z": 0.7888871309,
				"element": "O" 
			},
			{
				"x": 0.8183734389,
				"y": -1.0380570143,
				"z": 1.3633416606,
				"element": "C" 
			},
			{
				"x": -0.1692705439,
				"y": -1.5061073862,
				"z": 0.2992849965,
				"element": "C" 
			},
			{
				"x": -1.0673369031,
				"y": 1.3496996923,
				"z": -2.388353233,
				"element": "H" 
			},
			{
				"x": -2.51831705,
				"y": 0.5865848221,
				"z": -2.8016577928,
				"element": "H" 
			},
			{
				"x": 1.4288401881,
				"y": -0.8805458528,
				"z": -1.8647839878,
				"element": "H" 
			},
			{
				"x": 0.8506882104,
				"y": 0.786175829,
				"z": -1.9794684573,
				"element": "H" 
			},
			{
				"x": 2.9238810108,
				"y": 0.5610458003,
				"z": -0.5593479539,
				"element": "H" 
			},
			{
				"x": 1.541964154,
				"y": 1.2649098489,
				"z": 0.3247297675,
				"element": "H" 
			},
			{
				"x": 0.3986042919,
				"y": -0.1754566888,
				"z": 1.9062785165,
				"element": "H" 
			},
			{
				"x": 1.0181807726,
				"y": -1.8393697045,
				"z": 2.0802054911,
				"element": "H" 
			},
			{
				"x": -1.1548751235,
				"y": -1.6976599285,
				"z": 0.7246589044,
				"element": "H" 
			},
			{
				"x": 0.193484213,
				"y": -2.4431022428,
				"z": -0.1510918604,
				"element": "H" 
			}
		],
		 "valence_orbital": [ 
			{
				"type": "occ",
				"energy": -0.31549,
				"method": "rhf"
			},
			{
				"type": "occ",
				"energy": -0.27374,
				"method": "rhf"
			},
			{
				"type": "occ",
				"energy": -0.26911,
				"method": "rhf"
			},
			{
				"type": "occ",
				"energy": -0.25304,
				"method": "rhf"
			},
			{
				"type": "occ",
				"energy": -0.23367,
				"method": "rhf"
			},
			{
				"type": "unocc",
				"energy": 0.04481,
				"method": "rhf"
			},
			{
				"type": "unocc",
				"energy": 0.06928,
				"method": "rhf"
			},
			{
				"type": "unocc",
				"energy": 0.10749,
				"method": "rhf"
			},
			{
				"type": "unocc",
				"energy": 0.11225,
				"method": "rhf"
			},
			{
				"type": "unocc",
				"energy": 0.11818,
				"method": "rhf"
			}
		],
		"cosmo_sigma_profile": { 
			"-0.025": 0.0,
			"-0.024": 0.0,
			"-0.023": 0.0,
			"-0.022": 0.0,
			"-0.021": 0.0,
			"-0.02": 0.0,
			"-0.019": 0.0,
			"-0.018": 0.0,
			"-0.017": 0.0,
			"-0.016": 0.0,
			"-0.015": 0.0124614896549,
			"-0.014": 0.724693570605,
			"-0.013": 2.34020797186,
			"-0.012": 2.47244152707,
			"-0.011": 2.19131823354,
			"-0.01": 2.72568238261,
			"-0.009": 2.30985381237,
			"-0.008": 2.40162148809,
			"-0.007": 2.357249621,
			"-0.006": 4.71654699189,
			"-0.005": 11.1987065815,
			"-0.004": 22.0381117467,
			"-0.003": 20.2921012059,
			"-0.002": 13.6643197578,
			"-0.001": 8.71500824756,
			"0.0": 6.61344070038,
			"0.001": 4.91310945643,
			"0.002": 5.28256127143,
			"0.003": 4.37721575966,
			"0.004": 4.4653463432,
			"0.005": 5.30790700458,
			"0.006": 2.93358856003,
			"0.007": 3.64805426815,
			"0.008": 3.60375986621,
			"0.009": 2.08358282845,
			"0.01": 2.71212975704,
			"0.011": 3.54661993065,
			"0.012": 4.33873038298,
			"0.013": 3.45949360406,
			"0.014": 5.70038511405,
			"0.015": 2.61990586913,
			"0.016": 0.00735327038965,
			"0.017": 0.0,
			"0.018": 0.0,
			"0.019": 0.0,
			"0.02": 0.0,
			"0.021": 0.0,
			"0.022": 0.0,
			"0.023": 0.0,
			"0.024": 0.0,
			"0.025": 0.0
		}
	}
}
