{
	 "smiles": "CC1=C(C)C=C(NC(=O)OC(C)(C)C)S1", 
	 "Tm": 376.15, 
	 "num_atms": 32, 
	 "gaussian": { 
		 "optdone": 1, 
		 "sigma_profile": "yes", 
		 "theory": "DFT", 
		 "functional": "B3LYP", 
		 "basiset": "6-31G**", 
		 "properties": { 
			 "R2extent": 5502.7517, 
			 "electric_dipole_moment_norm": 2.58429858376, 
			 "electric_quadrupole_moment_norm": 11.6948912316, 
			 "total_energy": -1032.83878835, 
			 "HOMO_LUMO_gap": 0.19219, 
			 "cosmo_polarized_energy": -10.99, 
			 "cosmo_cavitation_energy": 35.66, 
			 "cosmo_dispersion_energy": -26.13, 
			 "cosmo_repulsion_energy": 2.03, 
			 "cosmo_total_nonelectrostatic_energy": 11.56, 
			 "SMD_solvation_energy": 7.09 
		},
		"coords": [
			{
				"x": 3.7759468987,
				"y": -2.9464233064,
				"z": -0.1416915392,
				"element": "C" 
			},
			{
				"x": 2.3820526179,
				"y": -2.4493550352,
				"z": 0.1099508527,
				"element": "C" 
			},
			{
				"x": 1.345740365,
				"y": -3.0368953961,
				"z": 0.7891678423,
				"element": "C" 
			},
			{
				"x": 1.37863701,
				"y": -4.3810245545,
				"z": 1.4685078402,
				"element": "C" 
			},
			{
				"x": 0.1637615271,
				"y": -2.2199794121,
				"z": 0.7983770538,
				"element": "C" 
			},
			{
				"x": 0.316278909,
				"y": -1.0350602363,
				"z": 0.1328334594,
				"element": "C" 
			},
			{
				"x": -0.6687502879,
				"y": -0.0573425271,
				"z": -0.0122365999,
				"element": "N" 
			},
			{
				"x": -0.5300816381,
				"y": 1.1362683984,
				"z": -0.6777274891,
				"element": "C" 
			},
			{
				"x": 0.4944741085,
				"y": 1.4933833567,
				"z": -1.2344951102,
				"element": "O" 
			},
			{
				"x": -1.6978491381,
				"y": 1.8131729567,
				"z": -0.6016229837,
				"element": "O" 
			},
			{
				"x": -1.8444264869,
				"y": 3.1379654527,
				"z": -1.2321303886,
				"element": "C" 
			},
			{
				"x": -3.2915327652,
				"y": 3.5054151981,
				"z": -0.8952575284,
				"element": "C" 
			},
			{
				"x": -1.6495527555,
				"y": 3.0189648397,
				"z": -2.7471219645,
				"element": "C" 
			},
			{
				"x": -0.8663581919,
				"y": 4.1300988604,
				"z": -0.5946051876,
				"element": "C" 
			},
			{
				"x": 1.9248081176,
				"y": -0.8756515267,
				"z": -0.5340198585,
				"element": "S" 
			},
			{
				"x": 3.9243897043,
				"y": -3.9272190488,
				"z": 0.3165126672,
				"element": "H" 
			},
			{
				"x": 3.9871685565,
				"y": -3.0492958748,
				"z": -1.2129352215,
				"element": "H" 
			},
			{
				"x": 4.5330065511,
				"y": -2.2714397347,
				"z": 0.2753418331,
				"element": "H" 
			},
			{
				"x": 2.3495882784,
				"y": -4.8713155006,
				"z": 1.3711307676,
				"element": "H" 
			},
			{
				"x": 1.1619481559,
				"y": -4.2881215373,
				"z": 2.5395556866,
				"element": "H" 
			},
			{
				"x": 0.6245281832,
				"y": -5.0560913859,
				"z": 1.0461528791,
				"element": "H" 
			},
			{
				"x": -0.760934442,
				"y": -2.5135109577,
				"z": 1.2858746616,
				"element": "H" 
			},
			{
				"x": -1.5679740051,
				"y": -0.2411271554,
				"z": 0.409109486,
				"element": "H" 
			},
			{
				"x": -3.4388397283,
				"y": 3.5438201972,
				"z": 0.1879923027,
				"element": "H" 
			},
			{
				"x": -3.5353679724,
				"y": 4.4866409271,
				"z": -1.312853587,
				"element": "H" 
			},
			{
				"x": -3.9848347404,
				"y": 2.7694493758,
				"z": -1.3127418642,
				"element": "H" 
			},
			{
				"x": -0.625364806,
				"y": 2.7346078946,
				"z": -2.9898205521,
				"element": "H" 
			},
			{
				"x": -1.8705058932,
				"y": 3.9808022654,
				"z": -3.2210323959,
				"element": "H" 
			},
			{
				"x": -2.3336316728,
				"y": 2.2715084693,
				"z": -3.1611830409,
				"element": "H" 
			},
			{
				"x": -1.0047836712,
				"y": 4.1566039749,
				"z": 0.4908637925,
				"element": "H" 
			},
			{
				"x": -1.0573661439,
				"y": 5.1346139627,
				"z": -0.9857774616,
				"element": "H" 
			},
			{
				"x": 0.1666253558,
				"y": 3.8583370601,
				"z": -0.813318352,
				"element": "H" 
			}
		],
		 "valence_orbital": [ 
			{
				"type": "occ",
				"energy": -0.29546,
				"method": "rhf"
			},
			{
				"type": "occ",
				"energy": -0.29395,
				"method": "rhf"
			},
			{
				"type": "occ",
				"energy": -0.26934,
				"method": "rhf"
			},
			{
				"type": "occ",
				"energy": -0.23042,
				"method": "rhf"
			},
			{
				"type": "occ",
				"energy": -0.1899,
				"method": "rhf"
			},
			{
				"type": "unocc",
				"energy": 0.00229,
				"method": "rhf"
			},
			{
				"type": "unocc",
				"energy": 0.04541,
				"method": "rhf"
			},
			{
				"type": "unocc",
				"energy": 0.05615,
				"method": "rhf"
			},
			{
				"type": "unocc",
				"energy": 0.07595,
				"method": "rhf"
			},
			{
				"type": "unocc",
				"energy": 0.08708,
				"method": "rhf"
			}
		],
		"cosmo_sigma_profile": { 
			"-0.025": 0.0,
			"-0.024": 0.0,
			"-0.023": 0.0,
			"-0.022": 0.0,
			"-0.021": 0.0,
			"-0.02": 0.0,
			"-0.019": 0.0,
			"-0.018": 0.0,
			"-0.017": 0.0,
			"-0.016": 0.203366359365,
			"-0.015": 1.24798220974,
			"-0.014": 0.802947570536,
			"-0.013": 0.808476478574,
			"-0.012": 1.05697389531,
			"-0.011": 0.942006912676,
			"-0.01": 0.756763992083,
			"-0.009": 1.74246547779,
			"-0.008": 0.738147382947,
			"-0.007": 1.74251922158,
			"-0.006": 3.04975070953,
			"-0.005": 5.66665258498,
			"-0.004": 22.8014445124,
			"-0.003": 27.5208558049,
			"-0.002": 32.2621555322,
			"-0.001": 35.8654451345,
			"0.0": 41.6029336243,
			"0.001": 26.7320180419,
			"0.002": 10.6851994746,
			"0.003": 10.5155859456,
			"0.004": 11.2716953584,
			"0.005": 13.2064994007,
			"0.006": 13.520562456,
			"0.007": 5.1392959483,
			"0.008": 2.06573170456,
			"0.009": 1.87429215073,
			"0.01": 2.38256526638,
			"0.011": 2.31874283934,
			"0.012": 2.62945168791,
			"0.013": 0.419616258182,
			"0.014": 0.0,
			"0.015": 0.0,
			"0.016": 0.0,
			"0.017": 0.0,
			"0.018": 0.0,
			"0.019": 0.0,
			"0.02": 0.0,
			"0.021": 0.0,
			"0.022": 0.0,
			"0.023": 0.0,
			"0.024": 0.0,
			"0.025": 0.0
		}
	}
}
