{
	 "smiles": "OC1OC(C(O)C(O)C1O)C(O)=O", 
	 "Tm": 433.15, 
	 "num_atms": 23, 
	 "gaussian": { 
		 "optdone": 1, 
		 "sigma_profile": "yes", 
		 "theory": "DFT", 
		 "functional": "B3LYP", 
		 "basiset": "6-31G**", 
		 "properties": { 
			 "R2extent": 2644.2746, 
			 "electric_dipole_moment_norm": 2.64777346841, 
			 "electric_quadrupole_moment_norm": 12.5779555704, 
			 "total_energy": -761.206176264, 
			 "HOMO_LUMO_gap": 0.24545, 
			 "cosmo_polarized_energy": -19.92, 
			 "cosmo_cavitation_energy": 24.97, 
			 "cosmo_dispersion_energy": -19.08, 
			 "cosmo_repulsion_energy": 1.52, 
			 "cosmo_total_nonelectrostatic_energy": 7.41, 
			 "SMD_solvation_energy": 4.82 
		},
		"coords": [
			{
				"x": -1.8477952167,
				"y": -0.2953723434,
				"z": 1.8440759488,
				"element": "O" 
			},
			{
				"x": -1.4025430325,
				"y": -0.5204990763,
				"z": 0.5374504006,
				"element": "C" 
			},
			{
				"x": -1.1766569956,
				"y": 0.7044614025,
				"z": -0.1743436836,
				"element": "O" 
			},
			{
				"x": -0.2059272899,
				"y": 1.5655759047,
				"z": 0.4063587542,
				"element": "C" 
			},
			{
				"x": 1.1476644493,
				"y": 0.8231627324,
				"z": 0.5377713015,
				"element": "C" 
			},
			{
				"x": 2.2166468424,
				"y": 1.5942064206,
				"z": 1.0622927324,
				"element": "O" 
			},
			{
				"x": 0.9757850603,
				"y": -0.4984838727,
				"z": 1.2893044767,
				"element": "C" 
			},
			{
				"x": 2.1780720245,
				"y": -1.2540199059,
				"z": 1.2569892549,
				"element": "O" 
			},
			{
				"x": -0.1053586509,
				"y": -1.3319939845,
				"z": 0.603516485,
				"element": "C" 
			},
			{
				"x": -0.342688027,
				"y": -2.5538342982,
				"z": 1.2671640471,
				"element": "O" 
			},
			{
				"x": -0.7809426407,
				"y": 2.2547626239,
				"z": 1.6586287141,
				"element": "C" 
			},
			{
				"x": 0.1732089318,
				"y": 2.5736909088,
				"z": 2.5764210014,
				"element": "O" 
			},
			{
				"x": -1.9364038125,
				"y": 2.5706766836,
				"z": 1.8066068081,
				"element": "O" 
			},
			{
				"x": -2.6123529529,
				"y": 0.2975715215,
				"z": 1.7933832629,
				"element": "H" 
			},
			{
				"x": -2.1556049432,
				"y": -1.0366609132,
				"z": -0.0696915303,
				"element": "H" 
			},
			{
				"x": -0.0730860859,
				"y": 2.3822917304,
				"z": -0.3141607408,
				"element": "H" 
			},
			{
				"x": 1.4495404712,
				"y": 0.5764435241,
				"z": -0.4862658626,
				"element": "H" 
			},
			{
				"x": 1.9138441279,
				"y": 1.9771998202,
				"z": 1.8995202016,
				"element": "H" 
			},
			{
				"x": 0.6678907139,
				"y": -0.3035540415,
				"z": 2.3276662387,
				"element": "H" 
			},
			{
				"x": 2.892351074,
				"y": -0.6364188543,
				"z": 1.4729842377,
				"element": "H" 
			},
			{
				"x": 0.215624601,
				"y": -1.5039502968,
				"z": -0.4370740721,
				"element": "H" 
			},
			{
				"x": 0.5280305614,
				"y": -2.9466855934,
				"z": 1.4227025081,
				"element": "H" 
			},
			{
				"x": -0.2802992098,
				"y": 3.0430299075,
				"z": 3.2981995157,
				"element": "H" 
			}
		],
		 "valence_orbital": [ 
			{
				"type": "occ",
				"energy": -0.30028,
				"method": "rhf"
			},
			{
				"type": "occ",
				"energy": -0.29315,
				"method": "rhf"
			},
			{
				"type": "occ",
				"energy": -0.28547,
				"method": "rhf"
			},
			{
				"type": "occ",
				"energy": -0.26758,
				"method": "rhf"
			},
			{
				"type": "occ",
				"energy": -0.26298,
				"method": "rhf"
			},
			{
				"type": "unocc",
				"energy": -0.01753,
				"method": "rhf"
			},
			{
				"type": "unocc",
				"energy": 0.04587,
				"method": "rhf"
			},
			{
				"type": "unocc",
				"energy": 0.06894,
				"method": "rhf"
			},
			{
				"type": "unocc",
				"energy": 0.08275,
				"method": "rhf"
			},
			{
				"type": "unocc",
				"energy": 0.10434,
				"method": "rhf"
			}
		],
		"cosmo_sigma_profile": { 
			"-0.025": 0.0,
			"-0.024": 0.0,
			"-0.023": 0.0,
			"-0.022": 0.0,
			"-0.021": 0.0,
			"-0.02": 0.0508550721289,
			"-0.019": 0.795873199514,
			"-0.018": 1.27705238325,
			"-0.017": 0.624145632455,
			"-0.016": 0.429910421075,
			"-0.015": 1.25234124637,
			"-0.014": 1.77945377112,
			"-0.013": 2.75175600467,
			"-0.012": 2.75764555644,
			"-0.011": 1.70728608753,
			"-0.01": 3.70531890852,
			"-0.009": 5.76664992545,
			"-0.008": 7.049555211,
			"-0.007": 7.96739428381,
			"-0.006": 10.5251573914,
			"-0.005": 11.461045992,
			"-0.004": 11.6319872039,
			"-0.003": 10.1382279302,
			"-0.002": 9.5706056825,
			"-0.001": 8.51929871103,
			"0.0": 9.41085087361,
			"0.001": 8.05308655933,
			"0.002": 5.85085532022,
			"0.003": 5.37939835547,
			"0.004": 5.44451494299,
			"0.005": 6.71160967063,
			"0.006": 5.12423795017,
			"0.007": 5.82801767062,
			"0.008": 7.16565611272,
			"0.009": 4.69937733384,
			"0.01": 9.44909581059,
			"0.011": 9.04046591672,
			"0.012": 4.80624136548,
			"0.013": 3.91578766321,
			"0.014": 1.71080287153,
			"0.015": 1.36913871875,
			"0.016": 0.0721811867875,
			"0.017": 0.0,
			"0.018": 0.0,
			"0.019": 0.0,
			"0.02": 0.0,
			"0.021": 0.0,
			"0.022": 0.0,
			"0.023": 0.0,
			"0.024": 0.0,
			"0.025": 0.0
		}
	}
}
