{
	 "smiles": "CC(C)(O)C1=CC2=C(NC=C2)C=C1", 
	 "Tm": 384.15, 
	 "num_atms": 26, 
	 "gaussian": { 
		 "optdone": 1, 
		 "sigma_profile": "yes", 
		 "theory": "DFT", 
		 "functional": "B3LYP", 
		 "basiset": "6-31G**", 
		 "properties": { 
			 "R2extent": 2828.7389, 
			 "electric_dipole_moment_norm": 0.990600469412, 
			 "electric_quadrupole_moment_norm": 15.1879570216, 
			 "total_energy": -556.985302756, 
			 "HOMO_LUMO_gap": 0.19367, 
			 "cosmo_polarized_energy": -12.74, 
			 "cosmo_cavitation_energy": 28.29, 
			 "cosmo_dispersion_energy": -20.68, 
			 "cosmo_repulsion_energy": 1.62, 
			 "cosmo_total_nonelectrostatic_energy": 9.23, 
			 "SMD_solvation_energy": 4.96 
		},
		"coords": [
			{
				"x": -2.8419950953,
				"y": -0.4960262895,
				"z": -0.9450184011,
				"element": "C" 
			},
			{
				"x": -1.3510707448,
				"y": -0.8346691504,
				"z": -1.1317920852,
				"element": "C" 
			},
			{
				"x": -0.8789254344,
				"y": -0.4761179795,
				"z": -2.5533867011,
				"element": "C" 
			},
			{
				"x": -1.1711245623,
				"y": -2.244617337,
				"z": -0.9294984271,
				"element": "O" 
			},
			{
				"x": -0.4961860714,
				"y": -0.1196153406,
				"z": -0.0797241366,
				"element": "C" 
			},
			{
				"x": -0.4731403408,
				"y": 1.2740122297,
				"z": -0.0305275165,
				"element": "C" 
			},
			{
				"x": 0.3094420592,
				"y": 1.9312493588,
				"z": 0.9326128766,
				"element": "C" 
			},
			{
				"x": 1.0701196434,
				"y": 1.1519325865,
				"z": 1.8470612659,
				"element": "C" 
			},
			{
				"x": 1.7395935831,
				"y": 2.0308770649,
				"z": 2.6761304706,
				"element": "N" 
			},
			{
				"x": 1.4250220509,
				"y": 3.3283427561,
				"z": 2.3130659874,
				"element": "C" 
			},
			{
				"x": 0.5560514263,
				"y": 3.3111164749,
				"z": 1.2543522488,
				"element": "C" 
			},
			{
				"x": 1.057851246,
				"y": -0.244605407,
				"z": 1.8105670113,
				"element": "C" 
			},
			{
				"x": 0.2725524664,
				"y": -0.8636071246,
				"z": 0.8448325722,
				"element": "C" 
			},
			{
				"x": -3.0336553422,
				"y": 0.5751126936,
				"z": -1.0563419866,
				"element": "H" 
			},
			{
				"x": -3.4498619544,
				"y": -1.0223480783,
				"z": -1.6922562633,
				"element": "H" 
			},
			{
				"x": -3.1713373563,
				"y": -0.8044422809,
				"z": 0.0506369496,
				"element": "H" 
			},
			{
				"x": 0.1657078235,
				"y": -0.7706000632,
				"z": -2.6835395408,
				"element": "H" 
			},
			{
				"x": -0.9633634201,
				"y": 0.5961553841,
				"z": -2.752338813,
				"element": "H" 
			},
			{
				"x": -1.4856192509,
				"y": -1.0023485152,
				"z": -3.3016549067,
				"element": "H" 
			},
			{
				"x": -1.7089741727,
				"y": -2.6967609045,
				"z": -1.591905263,
				"element": "H" 
			},
			{
				"x": -1.0575166369,
				"y": 1.8625373629,
				"z": -0.7332203965,
				"element": "H" 
			},
			{
				"x": 2.3583206644,
				"y": 1.769603317,
				"z": 3.4257279163,
				"element": "H" 
			},
			{
				"x": 1.852855895,
				"y": 4.164867428,
				"z": 2.8471948087,
				"element": "H" 
			},
			{
				"x": 0.140290847,
				"y": 4.1784766487,
				"z": 0.7614410931,
				"element": "H" 
			},
			{
				"x": 1.6413422677,
				"y": -0.8350659386,
				"z": 2.5119941043,
				"element": "H" 
			},
			{
				"x": 0.2409204095,
				"y": -1.9441588961,
				"z": 0.7896871327,
				"element": "H" 
			}
		],
		 "valence_orbital": [ 
			{
				"type": "occ",
				"energy": -0.30486,
				"method": "rhf"
			},
			{
				"type": "occ",
				"energy": -0.26827,
				"method": "rhf"
			},
			{
				"type": "occ",
				"energy": -0.261,
				"method": "rhf"
			},
			{
				"type": "occ",
				"energy": -0.20823,
				"method": "rhf"
			},
			{
				"type": "occ",
				"energy": -0.19498,
				"method": "rhf"
			},
			{
				"type": "unocc",
				"energy": -0.00131,
				"method": "rhf"
			},
			{
				"type": "unocc",
				"energy": 0.03628,
				"method": "rhf"
			},
			{
				"type": "unocc",
				"energy": 0.07353,
				"method": "rhf"
			},
			{
				"type": "unocc",
				"energy": 0.07803,
				"method": "rhf"
			},
			{
				"type": "unocc",
				"energy": 0.08448,
				"method": "rhf"
			}
		],
		"cosmo_sigma_profile": { 
			"-0.025": 0.0,
			"-0.024": 0.0,
			"-0.023": 0.0,
			"-0.022": 0.0,
			"-0.021": 0.0,
			"-0.02": 0.0,
			"-0.019": 0.0,
			"-0.018": 0.0,
			"-0.017": 0.0,
			"-0.016": 0.0898187359953,
			"-0.015": 1.75909293576,
			"-0.014": 2.31787523587,
			"-0.013": 2.07575820039,
			"-0.012": 2.07085759056,
			"-0.011": 2.67751740781,
			"-0.01": 1.91724749479,
			"-0.009": 2.5306043056,
			"-0.008": 3.75862119273,
			"-0.007": 4.38379284965,
			"-0.006": 5.51515881718,
			"-0.005": 10.8453883689,
			"-0.004": 12.3171437257,
			"-0.003": 16.3130916445,
			"-0.002": 16.7245755878,
			"-0.001": 15.9035823706,
			"0.0": 17.404234131,
			"0.001": 19.6002668747,
			"0.002": 10.6300118627,
			"0.003": 8.59098179552,
			"0.004": 10.748158529,
			"0.005": 14.6538384986,
			"0.006": 15.3934133579,
			"0.007": 13.8867883136,
			"0.008": 3.3500688005,
			"0.009": 1.74699556779,
			"0.01": 2.04303555683,
			"0.011": 1.62706869368,
			"0.012": 1.23111715625,
			"0.013": 0.791414479802,
			"0.014": 0.0240142934699,
			"0.015": 0.0,
			"0.016": 0.0,
			"0.017": 0.0,
			"0.018": 0.0,
			"0.019": 0.0,
			"0.02": 0.0,
			"0.021": 0.0,
			"0.022": 0.0,
			"0.023": 0.0,
			"0.024": 0.0,
			"0.025": 0.0
		}
	}
}
