{
	 "smiles": "NC(=S)N1CCSCC1", 
	 "Tm": 431.15, 
	 "num_atms": 19, 
	 "gaussian": { 
		 "optdone": 1, 
		 "sigma_profile": "yes", 
		 "theory": "DFT", 
		 "functional": "B3LYP", 
		 "basiset": "6-31G**", 
		 "properties": { 
			 "R2extent": 1916.2826, 
			 "electric_dipole_moment_norm": 4.42605679245, 
			 "electric_quadrupole_moment_norm": 12.9519267358, 
			 "total_energy": -1102.44902338, 
			 "HOMO_LUMO_gap": 0.19402, 
			 "cosmo_polarized_energy": -17.15, 
			 "cosmo_cavitation_energy": 23.7, 
			 "cosmo_dispersion_energy": -18.72, 
			 "cosmo_repulsion_energy": 1.43, 
			 "cosmo_total_nonelectrostatic_energy": 6.41, 
			 "SMD_solvation_energy": 1.86 
		},
		"coords": [
			{
				"x": 0.3994371651,
				"y": -0.9731513943,
				"z": 2.4237915611,
				"element": "N" 
			},
			{
				"x": 0.5878743346,
				"y": -0.1588197242,
				"z": 1.3286419182,
				"element": "C" 
			},
			{
				"x": 1.8829130199,
				"y": 0.9226832204,
				"z": 1.3162580463,
				"element": "S" 
			},
			{
				"x": -0.2995091433,
				"y": -0.318289874,
				"z": 0.3013206899,
				"element": "N" 
			},
			{
				"x": -0.220225692,
				"y": 0.5248815492,
				"z": -0.8977462241,
				"element": "C" 
			},
			{
				"x": 0.4781208753,
				"y": -0.184560983,
				"z": -2.0587680155,
				"element": "C" 
			},
			{
				"x": -0.4111905989,
				"y": -1.7084307865,
				"z": -2.5745106729,
				"element": "S" 
			},
			{
				"x": -0.5532083027,
				"y": -2.4723691162,
				"z": -0.9144519311,
				"element": "C" 
			},
			{
				"x": -1.1393311855,
				"y": -1.5117819875,
				"z": 0.1303266406,
				"element": "C" 
			},
			{
				"x": -0.5452041586,
				"y": -1.2141288978,
				"z": 2.6938083259,
				"element": "H" 
			},
			{
				"x": 1.0047698778,
				"y": -0.729277237,
				"z": 3.1945621023,
				"element": "H" 
			},
			{
				"x": 0.32853024,
				"y": 1.4287655507,
				"z": -0.6303341533,
				"element": "H" 
			},
			{
				"x": -1.2439866692,
				"y": 0.7920753644,
				"z": -1.1850588916,
				"element": "H" 
			},
			{
				"x": 0.498593486,
				"y": 0.4633225381,
				"z": -2.9394476391,
				"element": "H" 
			},
			{
				"x": 1.5091398017,
				"y": -0.4256725748,
				"z": -1.7843295403,
				"element": "H" 
			},
			{
				"x": -1.2097607904,
				"y": -3.3391110097,
				"z": -1.0338231827,
				"element": "H" 
			},
			{
				"x": 0.4275075222,
				"y": -2.8278637514,
				"z": -0.5821346671,
				"element": "H" 
			},
			{
				"x": -1.2397065832,
				"y": -2.0471801953,
				"z": 1.0743516355,
				"element": "H" 
			},
			{
				"x": -2.1394631988,
				"y": -1.1889906911,
				"z": -0.1810560021,
				"element": "H" 
			}
		],
		 "valence_orbital": [ 
			{
				"type": "occ",
				"energy": -0.31814,
				"method": "rhf"
			},
			{
				"type": "occ",
				"energy": -0.26815,
				"method": "rhf"
			},
			{
				"type": "occ",
				"energy": -0.23128,
				"method": "rhf"
			},
			{
				"type": "occ",
				"energy": -0.21649,
				"method": "rhf"
			},
			{
				"type": "occ",
				"energy": -0.20316,
				"method": "rhf"
			},
			{
				"type": "unocc",
				"energy": -0.00914,
				"method": "rhf"
			},
			{
				"type": "unocc",
				"energy": 0.02755,
				"method": "rhf"
			},
			{
				"type": "unocc",
				"energy": 0.05932,
				"method": "rhf"
			},
			{
				"type": "unocc",
				"energy": 0.06939,
				"method": "rhf"
			},
			{
				"type": "unocc",
				"energy": 0.0864,
				"method": "rhf"
			}
		],
		"cosmo_sigma_profile": { 
			"-0.025": 0.0,
			"-0.024": 0.0,
			"-0.023": 0.0,
			"-0.022": 0.0,
			"-0.021": 0.0,
			"-0.02": 0.0,
			"-0.019": 0.0,
			"-0.018": 0.0,
			"-0.017": 0.0,
			"-0.016": 0.085796723653,
			"-0.015": 1.12994207974,
			"-0.014": 1.48437117128,
			"-0.013": 2.43107347056,
			"-0.012": 2.70032528742,
			"-0.011": 2.36484296551,
			"-0.01": 1.99247717287,
			"-0.009": 2.65028377837,
			"-0.008": 2.1462376345,
			"-0.007": 4.52732812256,
			"-0.006": 11.5953245848,
			"-0.005": 17.5246944961,
			"-0.004": 17.9152230468,
			"-0.003": 13.6556219856,
			"-0.002": 12.5624235471,
			"-0.001": 8.16297047667,
			"0.0": 6.91786905257,
			"0.001": 6.5111203224,
			"0.002": 7.67309531542,
			"0.003": 4.68578121272,
			"0.004": 6.85494615407,
			"0.005": 7.36565696354,
			"0.006": 7.725101246,
			"0.007": 6.76865239829,
			"0.008": 6.9627117415,
			"0.009": 7.17086193917,
			"0.01": 7.72053425532,
			"0.011": 7.39793085476,
			"0.012": 3.52039037551,
			"0.013": 0.443398602203,
			"0.014": 0.0,
			"0.015": 0.0,
			"0.016": 0.0,
			"0.017": 0.0,
			"0.018": 0.0,
			"0.019": 0.0,
			"0.02": 0.0,
			"0.021": 0.0,
			"0.022": 0.0,
			"0.023": 0.0,
			"0.024": 0.0,
			"0.025": 0.0
		}
	}
}
