{
	 "smiles": "FC1=CC2=C(CCC2=O)C=C1", 
	 "Tm": 335.15, 
	 "num_atms": 18, 
	 "gaussian": { 
		 "optdone": 1, 
		 "sigma_profile": "yes", 
		 "theory": "DFT", 
		 "functional": "B3LYP", 
		 "basiset": "6-31G**", 
		 "properties": { 
			 "R2extent": 1839.599, 
			 "electric_dipole_moment_norm": 3.81532023427, 
			 "electric_quadrupole_moment_norm": 5.00158890054, 
			 "total_energy": -522.241590928, 
			 "HOMO_LUMO_gap": 0.18456, 
			 "cosmo_polarized_energy": -8.35, 
			 "cosmo_cavitation_energy": 22.36, 
			 "cosmo_dispersion_energy": -16.57, 
			 "cosmo_repulsion_energy": 1.31, 
			 "cosmo_total_nonelectrostatic_energy": 7.1, 
			 "SMD_solvation_energy": 4.55 
		},
		"coords": [
			{
				"x": 0.1428823955,
				"y": 1.8605555839,
				"z": -3.4512297781,
				"element": "F" 
			},
			{
				"x": 0.1832477478,
				"y": 1.3242011536,
				"z": -2.2141099844,
				"element": "C" 
			},
			{
				"x": -0.0657721156,
				"y": -0.0287993772,
				"z": -2.050269226,
				"element": "C" 
			},
			{
				"x": -0.0094239732,
				"y": -0.5252069493,
				"z": -0.7454137195,
				"element": "C" 
			},
			{
				"x": 0.2822120867,
				"y": 0.2868309133,
				"z": 0.354728919,
				"element": "C" 
			},
			{
				"x": 0.2789327443,
				"y": -0.5040784041,
				"z": 1.6501551405,
				"element": "C" 
			},
			{
				"x": -0.0597123139,
				"y": -1.9532106031,
				"z": 1.2224589343,
				"element": "C" 
			},
			{
				"x": -0.2347646919,
				"y": -1.9247729672,
				"z": -0.3049331236,
				"element": "C" 
			},
			{
				"x": -0.5075844925,
				"y": -2.8752481429,
				"z": -1.0123590736,
				"element": "O" 
			},
			{
				"x": 0.5288256244,
				"y": 1.6476468343,
				"z": 0.1575175603,
				"element": "C" 
			},
			{
				"x": 0.4782836796,
				"y": 2.1666934923,
				"z": -1.1364190506,
				"element": "C" 
			},
			{
				"x": -0.2935018165,
				"y": -0.6724277757,
				"z": -2.8931225886,
				"element": "H" 
			},
			{
				"x": -0.4584513583,
				"y": -0.1026447086,
				"z": 2.3547367154,
				"element": "H" 
			},
			{
				"x": 1.2515489754,
				"y": -0.4423304873,
				"z": 2.151678751,
				"element": "H" 
			},
			{
				"x": -0.9809111072,
				"y": -2.329089371,
				"z": 1.6791336914,
				"element": "H" 
			},
			{
				"x": 0.7286238003,
				"y": -2.6689303983,
				"z": 1.476847318,
				"element": "H" 
			},
			{
				"x": 0.7580487648,
				"y": 2.3033297581,
				"z": 0.9932095327,
				"element": "H" 
			},
			{
				"x": 0.6636160504,
				"y": 3.217781449,
				"z": -1.3317100182,
				"element": "H" 
			}
		],
		 "valence_orbital": [ 
			{
				"type": "occ",
				"energy": -0.35789,
				"method": "rhf"
			},
			{
				"type": "occ",
				"energy": -0.33808,
				"method": "rhf"
			},
			{
				"type": "occ",
				"energy": -0.27092,
				"method": "rhf"
			},
			{
				"type": "occ",
				"energy": -0.25014,
				"method": "rhf"
			},
			{
				"type": "occ",
				"energy": -0.24562,
				"method": "rhf"
			},
			{
				"type": "unocc",
				"energy": -0.06106,
				"method": "rhf"
			},
			{
				"type": "unocc",
				"energy": -0.01236,
				"method": "rhf"
			},
			{
				"type": "unocc",
				"energy": 0.04173,
				"method": "rhf"
			},
			{
				"type": "unocc",
				"energy": 0.08838,
				"method": "rhf"
			},
			{
				"type": "unocc",
				"energy": 0.09667,
				"method": "rhf"
			}
		],
		"cosmo_sigma_profile": { 
			"-0.025": 0.0,
			"-0.024": 0.0,
			"-0.023": 0.0,
			"-0.022": 0.0,
			"-0.021": 0.0,
			"-0.02": 0.0,
			"-0.019": 0.0,
			"-0.018": 0.0,
			"-0.017": 0.0,
			"-0.016": 0.0,
			"-0.015": 0.0,
			"-0.014": 0.0,
			"-0.013": 0.0,
			"-0.012": 0.0,
			"-0.011": 0.0,
			"-0.01": 0.0,
			"-0.009": 0.0,
			"-0.008": 1.45445930512,
			"-0.007": 4.87914609444,
			"-0.006": 8.08911356605,
			"-0.005": 15.9926954516,
			"-0.004": 18.9252136687,
			"-0.003": 15.2951584324,
			"-0.002": 12.8894028425,
			"-0.001": 12.850647104,
			"0.0": 14.1446601588,
			"0.001": 14.8266636322,
			"0.002": 15.8413152514,
			"0.003": 10.0048685323,
			"0.004": 10.9734678436,
			"0.005": 3.90823409821,
			"0.006": 1.54436399231,
			"0.007": 1.33996585399,
			"0.008": 1.5162014592,
			"0.009": 1.56229804102,
			"0.01": 2.16985744293,
			"0.011": 3.25264334109,
			"0.012": 4.58997021241,
			"0.013": 2.60221033582,
			"0.014": 0.210781796827,
			"0.015": 0.0,
			"0.016": 0.0,
			"0.017": 0.0,
			"0.018": 0.0,
			"0.019": 0.0,
			"0.02": 0.0,
			"0.021": 0.0,
			"0.022": 0.0,
			"0.023": 0.0,
			"0.024": 0.0,
			"0.025": 0.0
		}
	}
}
