{
	 "smiles": "CC1=CC(C)=C(C=C1)C(N)CN1C=CN=C1", 
	 "Tm": 353.15, 
	 "num_atms": 33, 
	 "gaussian": { 
		 "optdone": 1, 
		 "sigma_profile": "yes", 
		 "theory": "DFT", 
		 "functional": "B3LYP", 
		 "basiset": "6-31G**", 
		 "properties": { 
			 "R2extent": 3915.636, 
			 "electric_dipole_moment_norm": 3.32217563955, 
			 "electric_quadrupole_moment_norm": 17.8409818883, 
			 "total_energy": -669.877984184, 
			 "HOMO_LUMO_gap": 0.21905, 
			 "cosmo_polarized_energy": -15.57, 
			 "cosmo_cavitation_energy": 34.11, 
			 "cosmo_dispersion_energy": -23.77, 
			 "cosmo_repulsion_energy": 1.83, 
			 "cosmo_total_nonelectrostatic_energy": 12.16, 
			 "SMD_solvation_energy": 3.42 
		},
		"coords": [
			{
				"x": 0.7519331868,
				"y": 4.099140063,
				"z": -2.6000595171,
				"element": "C" 
			},
			{
				"x": 0.6292710695,
				"y": 3.1029013362,
				"z": -1.4713795334,
				"element": "C" 
			},
			{
				"x": -0.6186284981,
				"y": 2.6252149115,
				"z": -1.0617903787,
				"element": "C" 
			},
			{
				"x": -0.7937168269,
				"y": 1.7227299866,
				"z": -0.0011476874,
				"element": "C" 
			},
			{
				"x": -2.2089191307,
				"y": 1.2963991595,
				"z": 0.3297702913,
				"element": "C" 
			},
			{
				"x": 0.353391698,
				"y": 1.2746210068,
				"z": 0.6921947552,
				"element": "C" 
			},
			{
				"x": 1.6057650602,
				"y": 1.7573875323,
				"z": 0.2813964165,
				"element": "C" 
			},
			{
				"x": 1.7542131067,
				"y": 2.6470032074,
				"z": -0.7780335681,
				"element": "C" 
			},
			{
				"x": 0.3808942412,
				"y": 0.2682574659,
				"z": 1.8485812484,
				"element": "C" 
			},
			{
				"x": -0.7879586586,
				"y": 0.3131908332,
				"z": 2.7284297175,
				"element": "N" 
			},
			{
				"x": 0.7492960351,
				"y": -1.1674224565,
				"z": 1.3584588763,
				"element": "C" 
			},
			{
				"x": -0.2868095131,
				"y": -1.8247483523,
				"z": 0.5760823901,
				"element": "N" 
			},
			{
				"x": -0.5076533373,
				"y": -1.7111001862,
				"z": -0.7836699992,
				"element": "C" 
			},
			{
				"x": -1.6322086733,
				"y": -2.4573220503,
				"z": -1.0404703773,
				"element": "C" 
			},
			{
				"x": -2.1127808325,
				"y": -3.029532628,
				"z": 0.1160938598,
				"element": "N" 
			},
			{
				"x": -1.2865631171,
				"y": -2.6303651502,
				"z": 1.0598051217,
				"element": "C" 
			},
			{
				"x": -0.0782445295,
				"y": 4.0084018385,
				"z": -3.3069239786,
				"element": "H" 
			},
			{
				"x": 1.6858490136,
				"y": 3.9632614609,
				"z": -3.1544326727,
				"element": "H" 
			},
			{
				"x": 0.7464591525,
				"y": 5.1294285175,
				"z": -2.2223564715,
				"element": "H" 
			},
			{
				"x": -1.5055715725,
				"y": 2.9669046753,
				"z": -1.5914875916,
				"element": "H" 
			},
			{
				"x": -2.3428975719,
				"y": 0.2126240206,
				"z": 0.24221847,
				"element": "H" 
			},
			{
				"x": -2.4836900434,
				"y": 1.5922088101,
				"z": 1.3453746733,
				"element": "H" 
			},
			{
				"x": -2.9144833288,
				"y": 1.7616269821,
				"z": -0.3636492808,
				"element": "H" 
			},
			{
				"x": 2.4955027352,
				"y": 1.4270651693,
				"z": 0.8146929391,
				"element": "H" 
			},
			{
				"x": 2.7458741394,
				"y": 2.993337116,
				"z": -1.0587629593,
				"element": "H" 
			},
			{
				"x": 1.2334404764,
				"y": 0.5635083242,
				"z": 2.4731007217,
				"element": "H" 
			},
			{
				"x": -0.5626180215,
				"y": -0.1318522341,
				"z": 3.6145232172,
				"element": "H" 
			},
			{
				"x": -1.563807582,
				"y": -0.207541796,
				"z": 2.3289348445,
				"element": "H" 
			},
			{
				"x": 0.9479757449,
				"y": -1.7962383106,
				"z": 2.2335790033,
				"element": "H" 
			},
			{
				"x": 1.6651146368,
				"y": -1.1359499418,
				"z": 0.7609141666,
				"element": "H" 
			},
			{
				"x": 0.1359443811,
				"y": -1.1170606652,
				"z": -1.4134734041,
				"element": "H" 
			},
			{
				"x": -2.1160875799,
				"y": -2.6208239359,
				"z": -1.9936592388,
				"element": "H" 
			},
			{
				"x": -1.3376858604,
				"y": -2.9060547094,
				"z": 2.1051459461,
				"element": "H" 
			}
		],
		 "valence_orbital": [ 
			{
				"type": "occ",
				"energy": -0.26086,
				"method": "rhf"
			},
			{
				"type": "occ",
				"energy": -0.2439,
				"method": "rhf"
			},
			{
				"type": "occ",
				"energy": -0.24102,
				"method": "rhf"
			},
			{
				"type": "occ",
				"energy": -0.23207,
				"method": "rhf"
			},
			{
				"type": "occ",
				"energy": -0.22153,
				"method": "rhf"
			},
			{
				"type": "unocc",
				"energy": -0.00248,
				"method": "rhf"
			},
			{
				"type": "unocc",
				"energy": 0.00207,
				"method": "rhf"
			},
			{
				"type": "unocc",
				"energy": 0.0265,
				"method": "rhf"
			},
			{
				"type": "unocc",
				"energy": 0.06381,
				"method": "rhf"
			},
			{
				"type": "unocc",
				"energy": 0.07318,
				"method": "rhf"
			}
		],
		"cosmo_sigma_profile": { 
			"-0.025": 0.0,
			"-0.024": 0.0,
			"-0.023": 0.0,
			"-0.022": 0.0,
			"-0.021": 0.0,
			"-0.02": 0.0,
			"-0.019": 0.0,
			"-0.018": 0.0,
			"-0.017": 0.0,
			"-0.016": 0.0,
			"-0.015": 0.000501841353423,
			"-0.014": 0.0101674827979,
			"-0.013": 0.0369627691361,
			"-0.012": 0.0241845242385,
			"-0.011": 0.135779811214,
			"-0.01": 1.48324288068,
			"-0.009": 2.28925869583,
			"-0.008": 5.68059068133,
			"-0.007": 10.3494973937,
			"-0.006": 15.785850681,
			"-0.005": 18.3496945172,
			"-0.004": 20.9424109243,
			"-0.003": 24.7581828135,
			"-0.002": 20.9591973578,
			"-0.001": 18.6280198664,
			"0.0": 23.9587634791,
			"0.001": 18.0201782379,
			"0.002": 11.5968551929,
			"0.003": 14.0091021151,
			"0.004": 13.1129180775,
			"0.005": 10.9782906003,
			"0.006": 11.5083344626,
			"0.007": 5.00991821852,
			"0.008": 2.10993465207,
			"0.009": 2.00327190199,
			"0.01": 1.88315346249,
			"0.011": 2.64854659846,
			"0.012": 2.46910116525,
			"0.013": 1.55780132239,
			"0.014": 1.71359228324,
			"0.015": 2.18841789388,
			"0.016": 1.41642003933,
			"0.017": 1.76558955442,
			"0.018": 1.10803102449,
			"0.019": 0.195068884611,
			"0.02": 0.0,
			"0.021": 0.0,
			"0.022": 0.0,
			"0.023": 0.0,
			"0.024": 0.0,
			"0.025": 0.0
		}
	}
}
