{
	 "smiles": "COC1=CC=CC=C1C1CNCCN1", 
	 "Tm": 353.15, 
	 "num_atms": 30, 
	 "gaussian": { 
		 "optdone": 1, 
		 "sigma_profile": "yes", 
		 "theory": "DFT", 
		 "functional": "B3LYP", 
		 "basiset": "6-31G**", 
		 "properties": { 
			 "R2extent": 3157.8349, 
			 "electric_dipole_moment_norm": 1.78160563818, 
			 "electric_quadrupole_moment_norm": 8.31222105096, 
			 "total_energy": -613.505903202, 
			 "HOMO_LUMO_gap": 0.20112, 
			 "cosmo_polarized_energy": -9.88, 
			 "cosmo_cavitation_energy": 30.52, 
			 "cosmo_dispersion_energy": -22.29, 
			 "cosmo_repulsion_energy": 1.74, 
			 "cosmo_total_nonelectrostatic_energy": 9.97, 
			 "SMD_solvation_energy": 1.3 
		},
		"coords": [
			{
				"x": -1.8794238144,
				"y": -0.4918719211,
				"z": -1.1435067361,
				"element": "C" 
			},
			{
				"x": -0.6851620204,
				"y": -0.3236606724,
				"z": -0.3960450933,
				"element": "O" 
			},
			{
				"x": -0.5729787467,
				"y": 0.7623124986,
				"z": 0.4296130501,
				"element": "C" 
			},
			{
				"x": -1.5875934473,
				"y": 1.71485804,
				"z": 0.575447943,
				"element": "C" 
			},
			{
				"x": -1.4052757228,
				"y": 2.8141394524,
				"z": 1.419303903,
				"element": "C" 
			},
			{
				"x": -0.2136188182,
				"y": 2.9709872182,
				"z": 2.1181591202,
				"element": "C" 
			},
			{
				"x": 0.7917486108,
				"y": 2.0118172654,
				"z": 1.9672271723,
				"element": "C" 
			},
			{
				"x": 0.6463712321,
				"y": 0.8995828014,
				"z": 1.134492939,
				"element": "C" 
			},
			{
				"x": 1.7731116976,
				"y": -0.11548771,
				"z": 1.0481288824,
				"element": "C" 
			},
			{
				"x": 2.2641849564,
				"y": -0.4520679553,
				"z": -0.4107911899,
				"element": "C" 
			},
			{
				"x": 1.9495191378,
				"y": -1.8116389605,
				"z": -0.8353893958,
				"element": "N" 
			},
			{
				"x": 2.5387362573,
				"y": -2.7987776173,
				"z": 0.0754113195,
				"element": "C" 
			},
			{
				"x": 2.4369532623,
				"y": -2.3781941741,
				"z": 1.5710947364,
				"element": "C" 
			},
			{
				"x": 1.3740899481,
				"y": -1.3803827899,
				"z": 1.6863305485,
				"element": "N" 
			},
			{
				"x": -2.0554529607,
				"y": 0.3514225167,
				"z": -1.8234012423,
				"element": "H" 
			},
			{
				"x": -1.7411129586,
				"y": -1.4013620263,
				"z": -1.7301773728,
				"element": "H" 
			},
			{
				"x": -2.7517544739,
				"y": -0.6145561608,
				"z": -0.4892885015,
				"element": "H" 
			},
			{
				"x": -2.5212051623,
				"y": 1.6109206266,
				"z": 0.0360384096,
				"element": "H" 
			},
			{
				"x": -2.2034921315,
				"y": 3.5441613671,
				"z": 1.5197865404,
				"element": "H" 
			},
			{
				"x": -0.0633182826,
				"y": 3.8232602566,
				"z": 2.7735355906,
				"element": "H" 
			},
			{
				"x": 1.7259589719,
				"y": 2.1259127449,
				"z": 2.5122832294,
				"element": "H" 
			},
			{
				"x": 2.6327308539,
				"y": 0.3358360423,
				"z": 1.5806429719,
				"element": "H" 
			},
			{
				"x": 1.8322609958,
				"y": 0.2536312004,
				"z": -1.1245951602,
				"element": "H" 
			},
			{
				"x": 3.3530744906,
				"y": -0.3260611105,
				"z": -0.4549346643,
				"element": "H" 
			},
			{
				"x": 0.938443643,
				"y": -1.898944956,
				"z": -0.7781896679,
				"element": "H" 
			},
			{
				"x": 2.0237351732,
				"y": -3.7506561313,
				"z": -0.0896157201,
				"element": "H" 
			},
			{
				"x": 3.5920823993,
				"y": -2.9534744282,
				"z": -0.1935623936,
				"element": "H" 
			},
			{
				"x": 3.4142810031,
				"y": -1.9943471504,
				"z": 1.9241924414,
				"element": "H" 
			},
			{
				"x": 2.1871777634,
				"y": -3.2382553534,
				"z": 2.2014748646,
				"element": "H" 
			},
			{
				"x": 1.1447281428,
				"y": -1.2062029129,
				"z": 2.6604334756,
				"element": "H" 
			}
		],
		 "valence_orbital": [ 
			{
				"type": "occ",
				"energy": -0.30871,
				"method": "rhf"
			},
			{
				"type": "occ",
				"energy": -0.24688,
				"method": "rhf"
			},
			{
				"type": "occ",
				"energy": -0.21951,
				"method": "rhf"
			},
			{
				"type": "occ",
				"energy": -0.21447,
				"method": "rhf"
			},
			{
				"type": "occ",
				"energy": -0.20116,
				"method": "rhf"
			},
			{
				"type": "unocc",
				"energy": -4e-05,
				"method": "rhf"
			},
			{
				"type": "unocc",
				"energy": 0.01305,
				"method": "rhf"
			},
			{
				"type": "unocc",
				"energy": 0.08148,
				"method": "rhf"
			},
			{
				"type": "unocc",
				"energy": 0.09189,
				"method": "rhf"
			},
			{
				"type": "unocc",
				"energy": 0.09585,
				"method": "rhf"
			}
		],
		"cosmo_sigma_profile": { 
			"-0.025": 0.0,
			"-0.024": 0.0,
			"-0.023": 0.0,
			"-0.022": 0.0,
			"-0.021": 0.0,
			"-0.02": 0.0,
			"-0.019": 0.0,
			"-0.018": 0.0,
			"-0.017": 0.0,
			"-0.016": 0.0,
			"-0.015": 0.0,
			"-0.014": 0.0,
			"-0.013": 0.0,
			"-0.012": 0.0,
			"-0.011": 0.0,
			"-0.01": 0.404103922777,
			"-0.009": 1.15405756271,
			"-0.008": 0.748759694259,
			"-0.007": 1.28269462998,
			"-0.006": 6.35823454958,
			"-0.005": 19.552690204,
			"-0.004": 21.0377220974,
			"-0.003": 30.3623824692,
			"-0.002": 30.1560704548,
			"-0.001": 27.3276212819,
			"0.0": 20.1703769084,
			"0.001": 11.5124019546,
			"0.002": 10.0479481344,
			"0.003": 10.3333319558,
			"0.004": 10.6531450384,
			"0.005": 9.4440119195,
			"0.006": 9.29343915081,
			"0.007": 4.3084682367,
			"0.008": 1.52682429003,
			"0.009": 1.19882154557,
			"0.01": 1.60539537528,
			"0.011": 1.64807589307,
			"0.012": 1.38711894591,
			"0.013": 1.62393769322,
			"0.014": 0.875230168746,
			"0.015": 0.824945704482,
			"0.016": 1.53483695981,
			"0.017": 1.38965581303,
			"0.018": 0.537467475693,
			"0.019": 0.479226671277,
			"0.02": 0.0517739206802,
			"0.021": 0.0,
			"0.022": 0.0,
			"0.023": 0.0,
			"0.024": 0.0,
			"0.025": 0.0
		}
	}
}
