{
	 "smiles": "CC1=C(SC2=C1C(=CC(C)=N2)C(F)(F)F)C(O)=O", 
	 "Tm": 533.15, 
	 "num_atms": 26, 
	 "gaussian": { 
		 "optdone": 1, 
		 "sigma_profile": "yes", 
		 "theory": "DFT", 
		 "functional": "B3LYP", 
		 "basiset": "6-31G**", 
		 "properties": { 
			 "R2extent": 5067.0728, 
			 "electric_dipole_moment_norm": 5.09611133807, 
			 "electric_quadrupole_moment_norm": 20.1375991747, 
			 "total_energy": -1326.91933153, 
			 "HOMO_LUMO_gap": 0.1658, 
			 "cosmo_polarized_energy": -14.68, 
			 "cosmo_cavitation_energy": 32.41, 
			 "cosmo_dispersion_energy": -24.03, 
			 "cosmo_repulsion_energy": 1.72, 
			 "cosmo_total_nonelectrostatic_energy": 10.1, 
			 "SMD_solvation_energy": 5.69 
		},
		"coords": [
			{
				"x": -2.320976376,
				"y": -0.4949384912,
				"z": 1.3023199921,
				"element": "C" 
			},
			{
				"x": -1.2369749217,
				"y": 0.1989906162,
				"z": 0.5120497937,
				"element": "C" 
			},
			{
				"x": -1.3310293108,
				"y": 1.498955364,
				"z": 0.0601121624,
				"element": "C" 
			},
			{
				"x": 0.1266381268,
				"y": 2.1194873426,
				"z": -0.6864998075,
				"element": "S" 
			},
			{
				"x": 0.9027913663,
				"y": 0.5736709937,
				"z": -0.4605629957,
				"element": "C" 
			},
			{
				"x": 0.0615082411,
				"y": -0.3692992432,
				"z": 0.1940418412,
				"element": "C" 
			},
			{
				"x": 0.6524186516,
				"y": -1.6487595521,
				"z": 0.386096175,
				"element": "C" 
			},
			{
				"x": 1.951700567,
				"y": -1.8547063086,
				"z": -0.0503202333,
				"element": "C" 
			},
			{
				"x": 2.6838225889,
				"y": -0.8227353713,
				"z": -0.6774191733,
				"element": "C" 
			},
			{
				"x": 4.0970453268,
				"y": -1.0529416702,
				"z": -1.1443237457,
				"element": "C" 
			},
			{
				"x": 2.1528340146,
				"y": 0.3815057383,
				"z": -0.8832012235,
				"element": "N" 
			},
			{
				"x": -0.0611482564,
				"y": -2.8160498562,
				"z": 1.0305441667,
				"element": "C" 
			},
			{
				"x": -0.3111096148,
				"y": -2.5909593755,
				"z": 2.3432863974,
				"element": "F" 
			},
			{
				"x": 0.6611663742,
				"y": -3.9512795276,
				"z": 0.9652135213,
				"element": "F" 
			},
			{
				"x": -1.246654644,
				"y": -3.0705197081,
				"z": 0.4318540722,
				"element": "F" 
			},
			{
				"x": -2.4450729088,
				"y": 2.48476097,
				"z": 0.1472436016,
				"element": "C" 
			},
			{
				"x": -3.7125245347,
				"y": 1.995704411,
				"z": 0.1855805378,
				"element": "O" 
			},
			{
				"x": -2.2543072686,
				"y": 3.6782001724,
				"z": 0.154551314,
				"element": "O" 
			},
			{
				"x": -1.8945909554,
				"y": -1.0247344761,
				"z": 2.1541488788,
				"element": "H" 
			},
			{
				"x": -2.8510957092,
				"y": -1.2435261197,
				"z": 0.7034868389,
				"element": "H" 
			},
			{
				"x": -3.0432493469,
				"y": 0.2201198,
				"z": 1.6981807947,
				"element": "H" 
			},
			{
				"x": 2.4122129268,
				"y": -2.825698909,
				"z": 0.0824095151,
				"element": "H" 
			},
			{
				"x": 4.4844573609,
				"y": -0.1442960452,
				"z": -1.6066831561,
				"element": "H" 
			},
			{
				"x": 4.7480218491,
				"y": -1.3296103578,
				"z": -0.3072396712,
				"element": "H" 
			},
			{
				"x": 4.1433346362,
				"y": -1.8694449662,
				"z": -1.8738321812,
				"element": "H" 
			},
			{
				"x": -3.7136181828,
				"y": 1.04790457,
				"z": -0.0062374153,
				"element": "H" 
			}
		],
		 "valence_orbital": [ 
			{
				"type": "occ",
				"energy": -0.32386,
				"method": "rhf"
			},
			{
				"type": "occ",
				"energy": -0.2882,
				"method": "rhf"
			},
			{
				"type": "occ",
				"energy": -0.28326,
				"method": "rhf"
			},
			{
				"type": "occ",
				"energy": -0.2616,
				"method": "rhf"
			},
			{
				"type": "occ",
				"energy": -0.24915,
				"method": "rhf"
			},
			{
				"type": "unocc",
				"energy": -0.08335,
				"method": "rhf"
			},
			{
				"type": "unocc",
				"energy": -0.04432,
				"method": "rhf"
			},
			{
				"type": "unocc",
				"energy": -0.0135,
				"method": "rhf"
			},
			{
				"type": "unocc",
				"energy": 0.01299,
				"method": "rhf"
			},
			{
				"type": "unocc",
				"energy": 0.05171,
				"method": "rhf"
			}
		],
		"cosmo_sigma_profile": { 
			"-0.025": 0.0,
			"-0.024": 0.0,
			"-0.023": 0.0,
			"-0.022": 0.0,
			"-0.021": 0.0,
			"-0.02": 0.0,
			"-0.019": 0.0,
			"-0.018": 0.220862843443,
			"-0.017": 1.24652311978,
			"-0.016": 0.777120295905,
			"-0.015": 0.70243065517,
			"-0.014": 1.33508112852,
			"-0.013": 1.22274270926,
			"-0.012": 0.519471810007,
			"-0.011": 0.459629227945,
			"-0.01": 1.13289250867,
			"-0.009": 1.46659773259,
			"-0.008": 2.40216044688,
			"-0.007": 2.43232814286,
			"-0.006": 7.48260383854,
			"-0.005": 14.1845645831,
			"-0.004": 16.955302501,
			"-0.003": 18.7669319432,
			"-0.002": 23.6422269935,
			"-0.001": 34.8845546836,
			"0.0": 23.2153452892,
			"0.001": 22.1324177331,
			"0.002": 30.4089927654,
			"0.003": 13.3652157947,
			"0.004": 6.33817382688,
			"0.005": 3.71870798383,
			"0.006": 3.92587349309,
			"0.007": 4.02746129541,
			"0.008": 4.03010270853,
			"0.009": 5.42062351545,
			"0.01": 5.89753295181,
			"0.011": 6.11804748558,
			"0.012": 3.23224352257,
			"0.013": 0.617323071532,
			"0.014": 0.0,
			"0.015": 0.0,
			"0.016": 0.0,
			"0.017": 0.0,
			"0.018": 0.0,
			"0.019": 0.0,
			"0.02": 0.0,
			"0.021": 0.0,
			"0.022": 0.0,
			"0.023": 0.0,
			"0.024": 0.0,
			"0.025": 0.0
		}
	}
}
