{
	 "smiles": "OC(=O)C1CCCN1C(=O)NC1=CC=CC=C1", 
	 "Tm": 435.15, 
	 "num_atms": 31, 
	 "gaussian": { 
		 "optdone": 1, 
		 "sigma_profile": "yes", 
		 "theory": "DFT", 
		 "functional": "B3LYP", 
		 "basiset": "6-31G**", 
		 "properties": { 
			 "R2extent": 5648.4273, 
			 "electric_dipole_moment_norm": 6.51956207118, 
			 "electric_quadrupole_moment_norm": 29.996409818, 
			 "total_energy": -800.934058083, 
			 "HOMO_LUMO_gap": 0.21179, 
			 "cosmo_polarized_energy": -18.79, 
			 "cosmo_cavitation_energy": 33.4, 
			 "cosmo_dispersion_energy": -24.86, 
			 "cosmo_repulsion_energy": 1.91, 
			 "cosmo_total_nonelectrostatic_energy": 10.46, 
			 "SMD_solvation_energy": 6.12 
		},
		"coords": [
			{
				"x": -0.2633953698,
				"y": -3.5837653818,
				"z": -1.3046438291,
				"element": "O" 
			},
			{
				"x": -0.2410075501,
				"y": -3.7871314511,
				"z": 0.0128806475,
				"element": "C" 
			},
			{
				"x": -0.5832223105,
				"y": -4.8361252305,
				"z": 0.5119456482,
				"element": "O" 
			},
			{
				"x": 0.2959775045,
				"y": -2.6020496497,
				"z": 0.8600033789,
				"element": "C" 
			},
			{
				"x": 0.329744849,
				"y": -2.9359760547,
				"z": 2.3590377571,
				"element": "C" 
			},
			{
				"x": -0.0134446234,
				"y": -1.6171798457,
				"z": 3.0635291839,
				"element": "C" 
			},
			{
				"x": -1.0196686589,
				"y": -0.9588520409,
				"z": 2.1096030244,
				"element": "C" 
			},
			{
				"x": -0.5642539552,
				"y": -1.3919115797,
				"z": 0.7780073164,
				"element": "N" 
			},
			{
				"x": -0.5411556144,
				"y": -0.6250936882,
				"z": -0.3579262587,
				"element": "C" 
			},
			{
				"x": 0.1111941846,
				"y": -0.9782156274,
				"z": -1.3581886697,
				"element": "O" 
			},
			{
				"x": -1.2795011673,
				"y": 0.5353998566,
				"z": -0.3209202839,
				"element": "N" 
			},
			{
				"x": -1.4570856736,
				"y": 1.4982377575,
				"z": -1.3430969109,
				"element": "C" 
			},
			{
				"x": -0.7226133797,
				"y": 1.5176930371,
				"z": -2.5377975683,
				"element": "C" 
			},
			{
				"x": -0.9664134223,
				"y": 2.5251711027,
				"z": -3.4720419887,
				"element": "C" 
			},
			{
				"x": -1.9216784966,
				"y": 3.515297064,
				"z": -3.2411347399,
				"element": "C" 
			},
			{
				"x": -2.6473634704,
				"y": 3.4932054611,
				"z": -2.048956953,
				"element": "C" 
			},
			{
				"x": -2.4183880905,
				"y": 2.4940596829,
				"z": -1.1072446655,
				"element": "C" 
			},
			{
				"x": -0.0088982072,
				"y": -2.6441486924,
				"z": -1.5001995004,
				"element": "H" 
			},
			{
				"x": 1.2888653816,
				"y": -2.343390973,
				"z": 0.4693368439,
				"element": "H" 
			},
			{
				"x": -0.4205614014,
				"y": -3.705208655,
				"z": 2.5586313356,
				"element": "H" 
			},
			{
				"x": 1.2995427897,
				"y": -3.3403609295,
				"z": 2.6572121082,
				"element": "H" 
			},
			{
				"x": -0.4264312054,
				"y": -1.7617785626,
				"z": 4.0652110608,
				"element": "H" 
			},
			{
				"x": 0.8737300989,
				"y": -0.9807021289,
				"z": 3.1526203416,
				"element": "H" 
			},
			{
				"x": -2.0437713368,
				"y": -1.3045017652,
				"z": 2.3049045694,
				"element": "H" 
			},
			{
				"x": -0.9992677753,
				"y": 0.1321708182,
				"z": 2.1927966939,
				"element": "H" 
			},
			{
				"x": -1.8782060337,
				"y": 0.6666426457,
				"z": 0.4793599525,
				"element": "H" 
			},
			{
				"x": 0.0147610655,
				"y": 0.751164252,
				"z": -2.7251801803,
				"element": "H" 
			},
			{
				"x": -0.3941257987,
				"y": 2.5294832877,
				"z": -4.3953722301,
				"element": "H" 
			},
			{
				"x": -2.0990759645,
				"y": 4.2923111719,
				"z": -3.9781174584,
				"element": "H" 
			},
			{
				"x": -3.3964588724,
				"y": 4.2534449244,
				"z": -1.847695741,
				"element": "H" 
			},
			{
				"x": -2.9902274959,
				"y": 2.4836111947,
				"z": -0.1813628845,
				"element": "H" 
			}
		],
		 "valence_orbital": [ 
			{
				"type": "occ",
				"energy": -0.28917,
				"method": "rhf"
			},
			{
				"type": "occ",
				"energy": -0.27981,
				"method": "rhf"
			},
			{
				"type": "occ",
				"energy": -0.25641,
				"method": "rhf"
			},
			{
				"type": "occ",
				"energy": -0.25042,
				"method": "rhf"
			},
			{
				"type": "occ",
				"energy": -0.22479,
				"method": "rhf"
			},
			{
				"type": "unocc",
				"energy": -0.013,
				"method": "rhf"
			},
			{
				"type": "unocc",
				"energy": -0.00683,
				"method": "rhf"
			},
			{
				"type": "unocc",
				"energy": 0.01584,
				"method": "rhf"
			},
			{
				"type": "unocc",
				"energy": 0.042,
				"method": "rhf"
			},
			{
				"type": "unocc",
				"energy": 0.055,
				"method": "rhf"
			}
		],
		"cosmo_sigma_profile": { 
			"-0.025": 0.0,
			"-0.024": 0.0,
			"-0.023": 0.0,
			"-0.022": 0.0,
			"-0.021": 0.0,
			"-0.02": 0.0,
			"-0.019": 0.0,
			"-0.018": 0.0,
			"-0.017": 0.0,
			"-0.016": 0.0115287982301,
			"-0.015": 0.889270059673,
			"-0.014": 1.24423481296,
			"-0.013": 1.2835632473,
			"-0.012": 1.34488906097,
			"-0.011": 1.84302255029,
			"-0.01": 1.70741719112,
			"-0.009": 1.01895247027,
			"-0.008": 2.65421181059,
			"-0.007": 5.43496844094,
			"-0.006": 10.0705768345,
			"-0.005": 20.9896752619,
			"-0.004": 30.1425664423,
			"-0.003": 27.0719043483,
			"-0.002": 19.5250139662,
			"-0.001": 18.961371375,
			"0.0": 13.8621091731,
			"0.001": 11.8499400225,
			"0.002": 11.3997440699,
			"0.003": 12.8311032561,
			"0.004": 13.038462673,
			"0.005": 13.509452351,
			"0.006": 11.6053489625,
			"0.007": 4.68501236823,
			"0.008": 4.63104504112,
			"0.009": 3.37549902187,
			"0.01": 4.68203416412,
			"0.011": 6.60500522776,
			"0.012": 6.26230983123,
			"0.013": 2.26250670401,
			"0.014": 0.419086001974,
			"0.015": 0.0,
			"0.016": 0.0,
			"0.017": 0.0,
			"0.018": 0.0,
			"0.019": 0.0,
			"0.02": 0.0,
			"0.021": 0.0,
			"0.022": 0.0,
			"0.023": 0.0,
			"0.024": 0.0,
			"0.025": 0.0
		}
	}
}
