{
	 "smiles": "CC1=CSC(=NC2=CC=CC=C2)N1C1CCCC1", 
	 "Tm": 325.15, 
	 "num_atms": 36, 
	 "gaussian": { 
		 "optdone": 1, 
		 "sigma_profile": "yes", 
		 "theory": "DFT", 
		 "functional": "B3LYP", 
		 "basiset": "6-31G**", 
		 "properties": { 
			 "R2extent": 5163.3138, 
			 "electric_dipole_moment_norm": 4.5667161692, 
			 "electric_quadrupole_moment_norm": 14.2137896942, 
			 "total_energy": -1090.1173388, 
			 "HOMO_LUMO_gap": 0.17994, 
			 "cosmo_polarized_energy": -9.69, 
			 "cosmo_cavitation_energy": 37.81, 
			 "cosmo_dispersion_energy": -26.64, 
			 "cosmo_repulsion_energy": 2.02, 
			 "cosmo_total_nonelectrostatic_energy": 13.19, 
			 "SMD_solvation_energy": 3.99 
		},
		"coords": [
			{
				"x": 1.0152227619,
				"y": 2.5494459651,
				"z": 2.1418473672,
				"element": "C" 
			},
			{
				"x": -0.2587166507,
				"y": 1.7628456649,
				"z": 2.0323286565,
				"element": "C" 
			},
			{
				"x": -1.2956456569,
				"y": 1.9032700913,
				"z": 2.880254417,
				"element": "C" 
			},
			{
				"x": -2.6926541544,
				"y": 0.9595184469,
				"z": 2.4047773504,
				"element": "S" 
			},
			{
				"x": -1.8213347512,
				"y": 0.3509088062,
				"z": 0.9629731402,
				"element": "C" 
			},
			{
				"x": -2.4326733469,
				"y": -0.4462426983,
				"z": 0.174329045,
				"element": "N" 
			},
			{
				"x": -2.1230504193,
				"y": -0.7846796591,
				"z": -1.1425343833,
				"element": "C" 
			},
			{
				"x": -2.1478168724,
				"y": -2.1389097163,
				"z": -1.5283284359,
				"element": "C" 
			},
			{
				"x": -1.9350879864,
				"y": -2.5031392423,
				"z": -2.8563093725,
				"element": "C" 
			},
			{
				"x": -1.7153450042,
				"y": -1.5313259114,
				"z": -3.8360836413,
				"element": "C" 
			},
			{
				"x": -1.7137895488,
				"y": -0.1836636631,
				"z": -3.4678339157,
				"element": "C" 
			},
			{
				"x": -1.9131312116,
				"y": 0.1913707608,
				"z": -2.1400388792,
				"element": "C" 
			},
			{
				"x": -0.5147300234,
				"y": 0.8711660078,
				"z": 0.9634352966,
				"element": "N" 
			},
			{
				"x": 0.5497459031,
				"y": 0.162637725,
				"z": 0.2212898647,
				"element": "C" 
			},
			{
				"x": 1.5881537897,
				"y": -0.5975007595,
				"z": 1.1113390908,
				"element": "C" 
			},
			{
				"x": 2.9649221713,
				"y": -0.3473737325,
				"z": 0.4463561789,
				"element": "C" 
			},
			{
				"x": 2.6361829433,
				"y": 0.1535280295,
				"z": -0.9755019475,
				"element": "C" 
			},
			{
				"x": 1.3742923512,
				"y": 1.0066128356,
				"z": -0.7762737476,
				"element": "C" 
			},
			{
				"x": 1.1030079091,
				"y": 3.2838312653,
				"z": 1.3331491416,
				"element": "H" 
			},
			{
				"x": 1.0117742703,
				"y": 3.0956405864,
				"z": 3.0880441785,
				"element": "H" 
			},
			{
				"x": 1.9136280344,
				"y": 1.927273895,
				"z": 2.1198393325,
				"element": "H" 
			},
			{
				"x": -1.3302196278,
				"y": 2.5578259838,
				"z": 3.7387181422,
				"element": "H" 
			},
			{
				"x": -2.3379426518,
				"y": -2.8897853113,
				"z": -0.76771739,
				"element": "H" 
			},
			{
				"x": -1.950831609,
				"y": -3.5551160371,
				"z": -3.1290850742,
				"element": "H" 
			},
			{
				"x": -1.5593771191,
				"y": -1.8187016086,
				"z": -4.8714812438,
				"element": "H" 
			},
			{
				"x": -1.5626642135,
				"y": 0.5853765303,
				"z": -4.2211851211,
				"element": "H" 
			},
			{
				"x": -1.9307523052,
				"y": 1.2414049917,
				"z": -1.8627465974,
				"element": "H" 
			},
			{
				"x": 0.0244937184,
				"y": -0.5835964036,
				"z": -0.3696197601,
				"element": "H" 
			},
			{
				"x": 1.3412559808,
				"y": -1.6633785935,
				"z": 1.127412559,
				"element": "H" 
			},
			{
				"x": 1.5604270755,
				"y": -0.2606941436,
				"z": 2.1506589998,
				"element": "H" 
			},
			{
				"x": 3.6005731874,
				"y": -1.2376349714,
				"z": 0.4469261743,
				"element": "H" 
			},
			{
				"x": 3.5120085972,
				"y": 0.4331052363,
				"z": 0.9894701748,
				"element": "H" 
			},
			{
				"x": 3.4600193501,
				"y": 0.7083603541,
				"z": -1.4345885958,
				"element": "H" 
			},
			{
				"x": 2.4098920436,
				"y": -0.6960556598,
				"z": -1.6319408156,
				"element": "H" 
			},
			{
				"x": 1.6431117538,
				"y": 1.9786067415,
				"z": -0.3536738492,
				"element": "H" 
			},
			{
				"x": 0.8177513115,
				"y": 1.1873681939,
				"z": -1.6995063399,
				"element": "H" 
			}
		],
		 "valence_orbital": [ 
			{
				"type": "occ",
				"energy": -0.28342,
				"method": "rhf"
			},
			{
				"type": "occ",
				"energy": -0.27232,
				"method": "rhf"
			},
			{
				"type": "occ",
				"energy": -0.24022,
				"method": "rhf"
			},
			{
				"type": "occ",
				"energy": -0.21161,
				"method": "rhf"
			},
			{
				"type": "occ",
				"energy": -0.18328,
				"method": "rhf"
			},
			{
				"type": "unocc",
				"energy": -0.00334,
				"method": "rhf"
			},
			{
				"type": "unocc",
				"energy": 0.00836,
				"method": "rhf"
			},
			{
				"type": "unocc",
				"energy": 0.01756,
				"method": "rhf"
			},
			{
				"type": "unocc",
				"energy": 0.02395,
				"method": "rhf"
			},
			{
				"type": "unocc",
				"energy": 0.04292,
				"method": "rhf"
			}
		],
		"cosmo_sigma_profile": { 
			"-0.025": 0.0,
			"-0.024": 0.0,
			"-0.023": 0.0,
			"-0.022": 0.0,
			"-0.021": 0.0,
			"-0.02": 0.0,
			"-0.019": 0.0,
			"-0.018": 0.0,
			"-0.017": 0.0,
			"-0.016": 0.0,
			"-0.015": 0.0,
			"-0.014": 0.0,
			"-0.013": 0.0,
			"-0.012": 0.0,
			"-0.011": 0.0,
			"-0.01": 0.0,
			"-0.009": 0.240844282777,
			"-0.008": 2.0414484563,
			"-0.007": 2.38968063191,
			"-0.006": 5.01816664777,
			"-0.005": 16.9033347402,
			"-0.004": 22.5075582113,
			"-0.003": 32.5846663469,
			"-0.002": 34.4633414323,
			"-0.001": 38.0784322843,
			"0.0": 30.6924014915,
			"0.001": 27.4438013679,
			"0.002": 17.2492140064,
			"0.003": 14.5458585815,
			"0.004": 15.2914059615,
			"0.005": 15.4229861457,
			"0.006": 13.1040022169,
			"0.007": 5.18836300377,
			"0.008": 1.78721790895,
			"0.009": 1.39778031087,
			"0.01": 1.22429756963,
			"0.011": 1.06654875305,
			"0.012": 1.143845042,
			"0.013": 0.801221721495,
			"0.014": 0.632998484796,
			"0.015": 0.0404173554926,
			"0.016": 0.0,
			"0.017": 0.0,
			"0.018": 0.0,
			"0.019": 0.0,
			"0.02": 0.0,
			"0.021": 0.0,
			"0.022": 0.0,
			"0.023": 0.0,
			"0.024": 0.0,
			"0.025": 0.0
		}
	}
}
