{
	 "smiles": "CN1C=CN=C1I", 
	 "Tm": 361.15, 
	 "num_atms": 12, 
	 "gaussian": { 
		 "optdone": 1, 
		 "sigma_profile": "no", 
		 "theory": "DFT", 
		 "functional": "B3LYP", 
		 "basiset": "6-31G**", 
		 "properties": { 
			 "R2extent": 1869.8417, 
			 "electric_dipole_moment_norm": 4.19829959031, 
			 "electric_quadrupole_moment_norm": 12.7076115624, 
			 "total_energy": -276.310447776, 
			 "HOMO_LUMO_gap": 0.18669, 
			 "cosmo_polarized_energy": -92881.31, 
			 "cosmo_cavitation_energy": 18.98, 
			 "cosmo_dispersion_energy": -15.57, 
			 "cosmo_repulsion_energy": 1.26, 
			 "cosmo_total_nonelectrostatic_energy": 4.66, 
			 "SMD_solvation_energy": 1.24 
		},
		"coords": [
			{
				"x": 0.4785779951,
				"y": 2.1348629788,
				"z": 1.2253016529,
				"element": "C" 
			},
			{
				"x": 0.123179594,
				"y": 1.0927391833,
				"z": 2.1763268987,
				"element": "N" 
			},
			{
				"x": 0.9602707159,
				"y": 0.5265816458,
				"z": 3.1217197701,
				"element": "C" 
			},
			{
				"x": 0.2043456349,
				"y": -0.4034702449,
				"z": 3.7881691832,
				"element": "C" 
			},
			{
				"x": -1.0776761943,
				"y": -0.4343819084,
				"z": 3.287081134,
				"element": "N" 
			},
			{
				"x": -1.0863895256,
				"y": 0.4654193846,
				"z": 2.3345693854,
				"element": "C" 
			},
			{
				"x": -2.7504768524,
				"y": 0.9267056043,
				"z": 1.1557098446,
				"element": "I" 
			},
			{
				"x": -0.1393487075,
				"y": 3.0243384628,
				"z": 1.3747135162,
				"element": "H" 
			},
			{
				"x": 1.5249463886,
				"y": 2.4008568632,
				"z": 1.3799004244,
				"element": "H" 
			},
			{
				"x": 0.3499005413,
				"y": 1.7836033673,
				"z": 0.1979851696,
				"element": "H" 
			},
			{
				"x": 1.9887904481,
				"y": 0.8392058068,
				"z": 3.2200058873,
				"element": "H" 
			},
			{
				"x": 0.5042799619,
				"y": -1.0531611434,
				"z": 4.5982171335,
				"element": "H" 
			}
		],
		 "valence_orbital": [ 
			{
				"type": "occ",
				"energy": -0.29579,
				"method": "rhf"
			},
			{
				"type": "occ",
				"energy": -0.28168,
				"method": "rhf"
			},
			{
				"type": "occ",
				"energy": -0.27562,
				"method": "rhf"
			},
			{
				"type": "occ",
				"energy": -0.27022,
				"method": "rhf"
			},
			{
				"type": "occ",
				"energy": -0.22453,
				"method": "rhf"
			},
			{
				"type": "unocc",
				"energy": -0.03784,
				"method": "rhf"
			},
			{
				"type": "unocc",
				"energy": 0.0146,
				"method": "rhf"
			},
			{
				"type": "unocc",
				"energy": 0.04174,
				"method": "rhf"
			},
			{
				"type": "unocc",
				"energy": 0.04715,
				"method": "rhf"
			},
			{
				"type": "unocc",
				"energy": 0.05794,
				"method": "rhf"
			}
		],
		"cosmo_sigma_profile": { 
			"0.0": 0.0,
			"0.0": 0.0,
			"0.0": 0.0,
			"0.0": 0.0,
			"0.0": 0.0,
			"0.0": 0.0,
			"0.0": 0.0,
			"0.0": 0.0,
			"0.0": 0.0,
			"0.0": 0.0,
			"0.0": 0.0,
			"0.0": 0.0,
			"0.0": 0.0,
			"0.0": 0.0,
			"0.0": 0.0,
			"0.0": 0.0,
			"0.0": 0.0,
			"0.0": 0.0,
			"0.0": 0.0,
			"0.0": 0.0,
			"0.0": 0.0,
			"0.0": 0.0,
			"0.0": 0.0,
			"0.0": 0.0,
			"0.0": 0.0,
			"0.0": 0.0,
			"0.0": 0.0,
			"0.0": 0.0,
			"0.0": 0.0,
			"0.0": 0.0,
			"0.0": 0.0,
			"0.0": 0.0,
			"0.0": 0.0,
			"0.0": 0.0,
			"0.0": 0.0,
			"0.0": 0.0,
			"0.0": 0.0,
			"0.0": 0.0,
			"0.0": 0.0,
			"0.0": 0.0,
			"0.0": 0.0,
			"0.0": 0.0,
			"0.0": 0.0,
			"0.0": 0.0,
			"0.0": 0.0,
			"0.0": 0.0,
			"0.0": 0.0,
			"0.0": 0.0,
			"0.0": 0.0,
			"0.0": 0.0,
			"0.0": 0.0
		}
	}
}
