{
	 "smiles": "N(C1=CC=CC=C1)C1=CC=C(C=C1)C1=CC=C(NC2=CC=CC=C2)C=C1", 
	 "Tm": 521.15, 
	 "num_atms": 46, 
	 "gaussian": { 
		 "optdone": 1, 
		 "sigma_profile": "yes", 
		 "theory": "DFT", 
		 "functional": "B3LYP", 
		 "basiset": "6-31G**", 
		 "properties": { 
			 "R2extent": 19880.8694, 
			 "electric_dipole_moment_norm": 1.50834797378, 
			 "electric_quadrupole_moment_norm": 14.741272516, 
			 "total_energy": -1036.12652892, 
			 "HOMO_LUMO_gap": 0.15233, 
			 "cosmo_polarized_energy": -14.51, 
			 "cosmo_cavitation_energy": 49.83, 
			 "cosmo_dispersion_energy": -36.25, 
			 "cosmo_repulsion_energy": 2.69, 
			 "cosmo_total_nonelectrostatic_energy": 16.26, 
			 "SMD_solvation_energy": 7.53 
		},
		"coords": [
			{
				"x": -4.5293925958,
				"y": -0.1891560165,
				"z": -0.8876677835,
				"element": "N" 
			},
			{
				"x": -5.325603605,
				"y": -0.6193051398,
				"z": 0.179049433,
				"element": "C" 
			},
			{
				"x": -6.5477256214,
				"y": -1.2534654957,
				"z": -0.1124828787,
				"element": "C" 
			},
			{
				"x": -7.4005837628,
				"y": -1.657636215,
				"z": 0.9104260947,
				"element": "C" 
			},
			{
				"x": -7.0520327708,
				"y": -1.4548071432,
				"z": 2.2478124727,
				"element": "C" 
			},
			{
				"x": -5.8426766289,
				"y": -0.8227115988,
				"z": 2.5414837055,
				"element": "C" 
			},
			{
				"x": -4.9870122644,
				"y": -0.3977549652,
				"z": 1.5260563023,
				"element": "C" 
			},
			{
				"x": -3.1554127151,
				"y": 0.065421114,
				"z": -0.9322195781,
				"element": "C" 
			},
			{
				"x": -2.65945788,
				"y": 0.9062082668,
				"z": -1.9452440807,
				"element": "C" 
			},
			{
				"x": -1.2980073956,
				"y": 1.1536485787,
				"z": -2.0667616641,
				"element": "C" 
			},
			{
				"x": -0.3652591278,
				"y": 0.5925585121,
				"z": -1.1762226239,
				"element": "C" 
			},
			{
				"x": -0.8719465111,
				"y": -0.2480256296,
				"z": -0.1705243602,
				"element": "C" 
			},
			{
				"x": -2.2313161559,
				"y": -0.5204831906,
				"z": -0.0494835302,
				"element": "C" 
			},
			{
				"x": 1.0842945481,
				"y": 0.8709362117,
				"z": -1.2968401267,
				"element": "C" 
			},
			{
				"x": 1.5593126757,
				"y": 2.1277134413,
				"z": -1.7120923312,
				"element": "C" 
			},
			{
				"x": 2.918873061,
				"y": 2.3942123233,
				"z": -1.8139609557,
				"element": "C" 
			},
			{
				"x": 3.8746901647,
				"y": 1.4064476831,
				"z": -1.5146280819,
				"element": "C" 
			},
			{
				"x": 5.2286116379,
				"y": 1.7128770286,
				"z": -1.679513815,
				"element": "N" 
			},
			{
				"x": 6.3555621306,
				"y": 1.127436767,
				"z": -1.093105353,
				"element": "C" 
			},
			{
				"x": 7.5977849121,
				"y": 1.2772499809,
				"z": -1.737527371,
				"element": "C" 
			},
			{
				"x": 8.7584439906,
				"y": 0.7555782055,
				"z": -1.1738871792,
				"element": "C" 
			},
			{
				"x": 8.7099196195,
				"y": 0.0597022864,
				"z": 0.0363303859,
				"element": "C" 
			},
			{
				"x": 7.4806147736,
				"y": -0.0878367389,
				"z": 0.6808189233,
				"element": "C" 
			},
			{
				"x": 6.3129355436,
				"y": 0.4439750806,
				"z": 0.1353561188,
				"element": "C" 
			},
			{
				"x": 3.41283265,
				"y": 0.1392486414,
				"z": -1.1173357778,
				"element": "C" 
			},
			{
				"x": 2.0483854015,
				"y": -0.1099818026,
				"z": -1.0073766042,
				"element": "C" 
			},
			{
				"x": -5.0200448636,
				"y": -0.0440099353,
				"z": -1.7571457224,
				"element": "H" 
			},
			{
				"x": -6.8187743856,
				"y": -1.4323917655,
				"z": -1.1504627918,
				"element": "H" 
			},
			{
				"x": -8.3391167238,
				"y": -2.1437462884,
				"z": 0.6586361232,
				"element": "H" 
			},
			{
				"x": -7.7128159118,
				"y": -1.7795762881,
				"z": 3.0453488556,
				"element": "H" 
			},
			{
				"x": -5.5624366149,
				"y": -0.6407280156,
				"z": 3.5754860395,
				"element": "H" 
			},
			{
				"x": -4.0722229434,
				"y": 0.1271215,
				"z": 1.7746335511,
				"element": "H" 
			},
			{
				"x": -3.355179159,
				"y": 1.3628005433,
				"z": -2.6456843612,
				"element": "H" 
			},
			{
				"x": -0.9495947379,
				"y": 1.7837028472,
				"z": -2.8799597662,
				"element": "H" 
			},
			{
				"x": -0.187411388,
				"y": -0.6944271142,
				"z": 0.5449798127,
				"element": "H" 
			},
			{
				"x": -2.5741001047,
				"y": -1.1985919012,
				"z": 0.7230275691,
				"element": "H" 
			},
			{
				"x": 0.8515304959,
				"y": 2.9238715961,
				"z": -1.9241209554,
				"element": "H" 
			},
			{
				"x": 3.2536001081,
				"y": 3.3855507408,
				"z": -2.1108363055,
				"element": "H" 
			},
			{
				"x": 5.4220673155,
				"y": 2.4716242718,
				"z": -2.3156306287,
				"element": "H" 
			},
			{
				"x": 7.6424751017,
				"y": 1.8017354328,
				"z": -2.6892823759,
				"element": "H" 
			},
			{
				"x": 9.7051452963,
				"y": 0.8862168052,
				"z": -1.6908354514,
				"element": "H" 
			},
			{
				"x": 9.6139093765,
				"y": -0.3557688316,
				"z": 0.4703221375,
				"element": "H" 
			},
			{
				"x": 7.4256216272,
				"y": -0.6112858061,
				"z": 1.6315033189,
				"element": "H" 
			},
			{
				"x": 5.3756142765,
				"y": 0.3524731267,
				"z": 0.6712169058,
				"element": "H" 
			},
			{
				"x": 4.1198010729,
				"y": -0.6604539802,
				"z": -0.9300416001,
				"element": "H" 
			},
			{
				"x": 1.7240980878,
				"y": -1.1081671231,
				"z": -0.7273136961,
				"element": "H" 
			}
		],
		 "valence_orbital": [ 
			{
				"type": "occ",
				"energy": -0.24713,
				"method": "rhf"
			},
			{
				"type": "occ",
				"energy": -0.24679,
				"method": "rhf"
			},
			{
				"type": "occ",
				"energy": -0.23697,
				"method": "rhf"
			},
			{
				"type": "occ",
				"energy": -0.1962,
				"method": "rhf"
			},
			{
				"type": "occ",
				"energy": -0.17465,
				"method": "rhf"
			},
			{
				"type": "unocc",
				"energy": -0.02232,
				"method": "rhf"
			},
			{
				"type": "unocc",
				"energy": -0.00307,
				"method": "rhf"
			},
			{
				"type": "unocc",
				"energy": 0.00043,
				"method": "rhf"
			},
			{
				"type": "unocc",
				"energy": 0.00166,
				"method": "rhf"
			},
			{
				"type": "unocc",
				"energy": 0.00312,
				"method": "rhf"
			}
		],
		"cosmo_sigma_profile": { 
			"-0.025": 0.0,
			"-0.024": 0.0,
			"-0.023": 0.0,
			"-0.022": 0.0,
			"-0.021": 0.0,
			"-0.02": 0.0,
			"-0.019": 0.0,
			"-0.018": 0.0,
			"-0.017": 0.0,
			"-0.016": 0.0,
			"-0.015": 0.0,
			"-0.014": 0.864647012259,
			"-0.013": 2.56957390053,
			"-0.012": 2.42279290671,
			"-0.011": 2.83842788611,
			"-0.01": 2.94134047343,
			"-0.009": 2.87131702289,
			"-0.008": 3.7330947359,
			"-0.007": 4.46209907397,
			"-0.006": 9.74708625073,
			"-0.005": 30.7473341338,
			"-0.004": 34.3310320455,
			"-0.003": 37.8311736854,
			"-0.002": 25.2935370569,
			"-0.001": 25.7947050158,
			"0.0": 21.5208315517,
			"0.001": 22.3093732888,
			"0.002": 23.2317597826,
			"0.003": 29.765642254,
			"0.004": 37.1057226939,
			"0.005": 35.2550932727,
			"0.006": 33.8096164109,
			"0.007": 9.84788580361,
			"0.008": 0.0,
			"0.009": 0.0,
			"0.01": 0.0,
			"0.011": 0.0,
			"0.012": 0.0,
			"0.013": 0.0,
			"0.014": 0.0,
			"0.015": 0.0,
			"0.016": 0.0,
			"0.017": 0.0,
			"0.018": 0.0,
			"0.019": 0.0,
			"0.02": 0.0,
			"0.021": 0.0,
			"0.022": 0.0,
			"0.023": 0.0,
			"0.024": 0.0,
			"0.025": 0.0
		}
	}
}
