{
	 "smiles": "ClC1=CC2=C(OC3=C2C=C(Cl)C(Cl)=C3Cl)C(Cl)=C1Cl", 
	 "Tm": 513.15, 
	 "num_atms": 21, 
	 "gaussian": { 
		 "optdone": 1, 
		 "sigma_profile": "yes", 
		 "theory": "DFT", 
		 "functional": "B3LYP", 
		 "basiset": "6-31G**", 
		 "properties": { 
			 "R2extent": 11026.6185, 
			 "electric_dipole_moment_norm": 1.622674761, 
			 "electric_quadrupole_moment_norm": 9.40813539497, 
			 "total_energy": -3294.84108482, 
			 "HOMO_LUMO_gap": 0.17194, 
			 "cosmo_polarized_energy": -6.66, 
			 "cosmo_cavitation_energy": 37.06, 
			 "cosmo_dispersion_energy": -27.86, 
			 "cosmo_repulsion_energy": 2.12, 
			 "cosmo_total_nonelectrostatic_energy": 11.32, 
			 "SMD_solvation_energy": 4.66 
		},
		"coords": [
			{
				"x": 5.6151915831,
				"y": -1.0876743646,
				"z": -0.3478114905,
				"element": "Cl" 
			},
			{
				"x": 3.8871599007,
				"y": -0.841148367,
				"z": -0.3886498688,
				"element": "C" 
			},
			{
				"x": 3.2078261533,
				"y": -0.7753054854,
				"z": 0.8248053397,
				"element": "C" 
			},
			{
				"x": 1.8269772991,
				"y": -0.5786217275,
				"z": 0.8049943919,
				"element": "C" 
			},
			{
				"x": 1.1623218716,
				"y": -0.4530835029,
				"z": -0.4257397806,
				"element": "C" 
			},
			{
				"x": -0.1857280812,
				"y": -0.265671394,
				"z": -0.2663449941,
				"element": "O" 
			},
			{
				"x": -0.4016339104,
				"y": -0.269222249,
				"z": 1.0868595681,
				"element": "C" 
			},
			{
				"x": 0.7872368359,
				"y": -0.4563583369,
				"z": 1.8105896323,
				"element": "C" 
			},
			{
				"x": 0.747220338,
				"y": -0.4858652918,
				"z": 3.2046340916,
				"element": "C" 
			},
			{
				"x": -0.4825801369,
				"y": -0.3271564794,
				"z": 3.837639884,
				"element": "C" 
			},
			{
				"x": -0.5167644953,
				"y": -0.3662847459,
				"z": 5.5828714351,
				"element": "Cl" 
			},
			{
				"x": -1.6776694602,
				"y": -0.1388631715,
				"z": 3.1024630277,
				"element": "C" 
			},
			{
				"x": -3.1938160773,
				"y": 0.0557965394,
				"z": 3.9222367567,
				"element": "Cl" 
			},
			{
				"x": -1.6406359504,
				"y": -0.1086386262,
				"z": 1.6970332845,
				"element": "C" 
			},
			{
				"x": -3.0549009435,
				"y": 0.1168704751,
				"z": 0.7230974664,
				"element": "Cl" 
			},
			{
				"x": 1.8194703897,
				"y": -0.5155076322,
				"z": -1.6494562148,
				"element": "C" 
			},
			{
				"x": 0.9170134965,
				"y": -0.3501750784,
				"z": -3.1184017011,
				"element": "Cl" 
			},
			{
				"x": 3.2114596481,
				"y": -0.7138471694,
				"z": -1.6261419426,
				"element": "C" 
			},
			{
				"x": 4.0879187708,
				"y": -0.8005542469,
				"z": -3.1204368229,
				"element": "Cl" 
			},
			{
				"x": 3.7572054697,
				"y": -0.8768499172,
				"z": 1.7531531151,
				"element": "H" 
			},
			{
				"x": 1.6419272988,
				"y": -0.6279392283,
				"z": 3.7990048223,
				"element": "H" 
			}
		],
		 "valence_orbital": [ 
			{
				"type": "occ",
				"energy": -0.3178,
				"method": "rhf"
			},
			{
				"type": "occ",
				"energy": -0.28847,
				"method": "rhf"
			},
			{
				"type": "occ",
				"energy": -0.27711,
				"method": "rhf"
			},
			{
				"type": "occ",
				"energy": -0.25289,
				"method": "rhf"
			},
			{
				"type": "occ",
				"energy": -0.25067,
				"method": "rhf"
			},
			{
				"type": "unocc",
				"energy": -0.07873,
				"method": "rhf"
			},
			{
				"type": "unocc",
				"energy": -0.04408,
				"method": "rhf"
			},
			{
				"type": "unocc",
				"energy": -0.03103,
				"method": "rhf"
			},
			{
				"type": "unocc",
				"energy": -0.03086,
				"method": "rhf"
			},
			{
				"type": "unocc",
				"energy": -0.03027,
				"method": "rhf"
			}
		],
		"cosmo_sigma_profile": { 
			"-0.025": 0.0,
			"-0.024": 0.0,
			"-0.023": 0.0,
			"-0.022": 0.0,
			"-0.021": 0.0,
			"-0.02": 0.0,
			"-0.019": 0.0,
			"-0.018": 0.0,
			"-0.017": 0.0,
			"-0.016": 0.0,
			"-0.015": 0.0,
			"-0.014": 0.0,
			"-0.013": 0.0,
			"-0.012": 0.0,
			"-0.011": 0.0174554969035,
			"-0.01": 2.1437425305,
			"-0.009": 4.15427096197,
			"-0.008": 3.6690493724,
			"-0.007": 3.11895521984,
			"-0.006": 2.57340347263,
			"-0.005": 4.89849788207,
			"-0.004": 11.238295255,
			"-0.003": 21.719795279,
			"-0.002": 39.8141050479,
			"-0.001": 44.767337251,
			"0.0": 32.9472178653,
			"0.001": 25.1642281299,
			"0.002": 35.227233784,
			"0.003": 49.9868614277,
			"0.004": 26.4493984658,
			"0.005": 4.33498812252,
			"0.006": 1.67362601392,
			"0.007": 0.243225529659,
			"0.008": 0.0,
			"0.009": 0.0,
			"0.01": 0.0,
			"0.011": 0.0,
			"0.012": 0.0,
			"0.013": 0.0,
			"0.014": 0.0,
			"0.015": 0.0,
			"0.016": 0.0,
			"0.017": 0.0,
			"0.018": 0.0,
			"0.019": 0.0,
			"0.02": 0.0,
			"0.021": 0.0,
			"0.022": 0.0,
			"0.023": 0.0,
			"0.024": 0.0,
			"0.025": 0.0
		}
	}
}
