{
	 "smiles": "CC1=NC2=NC(=NN2C=C1)S(=O)(=O)NC1=C(F)C=CC=C1F", 
	 "Tm": 525.15, 
	 "num_atms": 31, 
	 "gaussian": { 
		 "optdone": 1, 
		 "sigma_profile": "yes", 
		 "theory": "DFT", 
		 "functional": "B3LYP", 
		 "basiset": "6-31G**", 
		 "properties": { 
			 "R2extent": 7902.4024, 
			 "electric_dipole_moment_norm": 8.81372540189, 
			 "electric_quadrupole_moment_norm": 30.6295767532, 
			 "total_energy": -1484.65567559, 
			 "HOMO_LUMO_gap": 0.16835, 
			 "cosmo_polarized_energy": -25.12, 
			 "cosmo_cavitation_energy": 39.01, 
			 "cosmo_dispersion_energy": -27.89, 
			 "cosmo_repulsion_energy": 2.04, 
			 "cosmo_total_nonelectrostatic_energy": 13.16, 
			 "SMD_solvation_energy": 2.97 
		},
		"coords": [
			{
				"x": -5.7518416461,
				"y": 1.0314807645,
				"z": 1.0448463985,
				"element": "C" 
			},
			{
				"x": -4.4467201911,
				"y": 0.5741724948,
				"z": 0.4523018579,
				"element": "C" 
			},
			{
				"x": -3.4642890514,
				"y": 1.4578974313,
				"z": 0.3756039727,
				"element": "N" 
			},
			{
				"x": -2.3033125832,
				"y": 1.0439040382,
				"z": -0.1583594293,
				"element": "C" 
			},
			{
				"x": -1.1680706173,
				"y": 1.7150202591,
				"z": -0.3563963689,
				"element": "N" 
			},
			{
				"x": -0.3724157689,
				"y": 0.7809171927,
				"z": -0.9120269683,
				"element": "C" 
			},
			{
				"x": -0.8706213728,
				"y": -0.439343682,
				"z": -1.0989209924,
				"element": "N" 
			},
			{
				"x": -2.1249683601,
				"y": -0.2685494791,
				"z": -0.6138969082,
				"element": "N" 
			},
			{
				"x": -3.1208080099,
				"y": -1.1909785738,
				"z": -0.5422173231,
				"element": "C" 
			},
			{
				"x": -4.3073426153,
				"y": -0.7774835747,
				"z": -0.0038605229,
				"element": "C" 
			},
			{
				"x": 1.2973719001,
				"y": 1.2059460516,
				"z": -1.4441383131,
				"element": "S" 
			},
			{
				"x": 1.1544894321,
				"y": 2.1772038567,
				"z": -2.5200873172,
				"element": "O" 
			},
			{
				"x": 2.060518887,
				"y": -0.0255405198,
				"z": -1.5776138067,
				"element": "O" 
			},
			{
				"x": 1.9078236865,
				"y": 2.064195106,
				"z": -0.1080670967,
				"element": "N" 
			},
			{
				"x": 2.4386070495,
				"y": 1.3594301636,
				"z": 1.0013998784,
				"element": "C" 
			},
			{
				"x": 3.7194343603,
				"y": 0.7913950505,
				"z": 0.9516896828,
				"element": "C" 
			},
			{
				"x": 4.4286101037,
				"y": 0.9014348386,
				"z": -0.1761164223,
				"element": "F" 
			},
			{
				"x": 4.2730692041,
				"y": 0.1301361327,
				"z": 2.0418226061,
				"element": "C" 
			},
			{
				"x": 3.5486109122,
				"y": 0.0541149132,
				"z": 3.2318623374,
				"element": "C" 
			},
			{
				"x": 2.2805837757,
				"y": 0.6286598053,
				"z": 3.3328033668,
				"element": "C" 
			},
			{
				"x": 1.7501151718,
				"y": 1.2596531859,
				"z": 2.2162079853,
				"element": "C" 
			},
			{
				"x": 0.5286170695,
				"y": 1.8277271634,
				"z": 2.2885859379,
				"element": "F" 
			},
			{
				"x": -6.5660109585,
				"y": 0.9270294324,
				"z": 0.3186041384,
				"element": "H" 
			},
			{
				"x": -5.6748920077,
				"y": 2.076510183,
				"z": 1.3455648937,
				"element": "H" 
			},
			{
				"x": -6.0174962171,
				"y": 0.4247518204,
				"z": 1.9179512416,
				"element": "H" 
			},
			{
				"x": -2.898238203,
				"y": -2.1820234779,
				"z": -0.9181178171,
				"element": "H" 
			},
			{
				"x": -5.1351484566,
				"y": -1.4718593179,
				"z": 0.0754953614,
				"element": "H" 
			},
			{
				"x": 1.2613029107,
				"y": 2.8107931887,
				"z": 0.1390129988,
				"element": "H" 
			},
			{
				"x": 5.2638349608,
				"y": -0.2985940888,
				"z": 1.9453676385,
				"element": "H" 
			},
			{
				"x": 3.9778394928,
				"y": -0.4527510455,
				"z": 4.0899419788,
				"element": "H" 
			},
			{
				"x": 1.700847142,
				"y": 0.5914506868,
				"z": 4.2478570112,
				"element": "H" 
			}
		],
		 "valence_orbital": [ 
			{
				"type": "occ",
				"energy": -0.29538,
				"method": "rhf"
			},
			{
				"type": "occ",
				"energy": -0.28568,
				"method": "rhf"
			},
			{
				"type": "occ",
				"energy": -0.27499,
				"method": "rhf"
			},
			{
				"type": "occ",
				"energy": -0.25383,
				"method": "rhf"
			},
			{
				"type": "occ",
				"energy": -0.24723,
				"method": "rhf"
			},
			{
				"type": "unocc",
				"energy": -0.07888,
				"method": "rhf"
			},
			{
				"type": "unocc",
				"energy": -0.04481,
				"method": "rhf"
			},
			{
				"type": "unocc",
				"energy": -0.026,
				"method": "rhf"
			},
			{
				"type": "unocc",
				"energy": -0.00744,
				"method": "rhf"
			},
			{
				"type": "unocc",
				"energy": 0.00627,
				"method": "rhf"
			}
		],
		"cosmo_sigma_profile": { 
			"-0.025": 0.0,
			"-0.024": 0.0,
			"-0.023": 0.0,
			"-0.022": 0.0,
			"-0.021": 0.0,
			"-0.02": 0.0,
			"-0.019": 0.0,
			"-0.018": 0.0,
			"-0.017": 0.0,
			"-0.016": 0.0,
			"-0.015": 0.721920279738,
			"-0.014": 0.591873835665,
			"-0.013": 0.444574512334,
			"-0.012": 1.81969791186,
			"-0.011": 3.56612108952,
			"-0.01": 2.83127398763,
			"-0.009": 4.78819468276,
			"-0.008": 8.12022805441,
			"-0.007": 14.2852023427,
			"-0.006": 19.7521518317,
			"-0.005": 19.6344677539,
			"-0.004": 20.2456660849,
			"-0.003": 19.9217220851,
			"-0.002": 20.16055403,
			"-0.001": 22.715148116,
			"0.0": 18.788110701,
			"0.001": 16.301649963,
			"0.002": 17.0672653439,
			"0.003": 18.5446259828,
			"0.004": 15.165824679,
			"0.005": 9.86980815525,
			"0.006": 8.13242442857,
			"0.007": 7.42299767005,
			"0.008": 9.41757951,
			"0.009": 11.8855585586,
			"0.01": 15.6607996254,
			"0.011": 3.59332352057,
			"0.012": 2.37201279071,
			"0.013": 1.0772975589,
			"0.014": 0.160751994997,
			"0.015": 0.0,
			"0.016": 0.0,
			"0.017": 0.0,
			"0.018": 0.0,
			"0.019": 0.0,
			"0.02": 0.0,
			"0.021": 0.0,
			"0.022": 0.0,
			"0.023": 0.0,
			"0.024": 0.0,
			"0.025": 0.0
		}
	}
}
