{
	 "smiles": "CSC1=CC=C(C=C1)C(=O)CCl", 
	 "Tm": 346.15, 
	 "num_atms": 21, 
	 "gaussian": { 
		 "optdone": 1, 
		 "sigma_profile": "yes", 
		 "theory": "DFT", 
		 "functional": "B3LYP", 
		 "basiset": "6-31G**", 
		 "properties": { 
			 "R2extent": 4699.8272, 
			 "electric_dipole_moment_norm": 3.35337551282, 
			 "electric_quadrupole_moment_norm": 16.0847736804, 
			 "total_energy": -1281.98505517, 
			 "HOMO_LUMO_gap": 0.15477, 
			 "cosmo_polarized_energy": -10.65, 
			 "cosmo_cavitation_energy": 28.33, 
			 "cosmo_dispersion_energy": -21.22, 
			 "cosmo_repulsion_energy": 1.64, 
			 "cosmo_total_nonelectrostatic_energy": 8.76, 
			 "SMD_solvation_energy": 5.09 
		},
		"coords": [
			{
				"x": 2.7795464352,
				"y": 0.110511071,
				"z": -1.4547377654,
				"element": "C" 
			},
			{
				"x": 1.2576488224,
				"y": 0.9082425405,
				"z": -2.0595629173,
				"element": "S" 
			},
			{
				"x": 0.0421543333,
				"y": 0.4850269519,
				"z": -0.8393904356,
				"element": "C" 
			},
			{
				"x": -1.2561770101,
				"y": 0.9863389633,
				"z": -1.047195663,
				"element": "C" 
			},
			{
				"x": -2.2727189842,
				"y": 0.7066517828,
				"z": -0.144947685,
				"element": "C" 
			},
			{
				"x": -2.0266512053,
				"y": -0.0841524241,
				"z": 0.9916478793,
				"element": "C" 
			},
			{
				"x": -0.7291019028,
				"y": -0.5799916996,
				"z": 1.1925796388,
				"element": "C" 
			},
			{
				"x": 0.2950764118,
				"y": -0.3031427004,
				"z": 0.2957117864,
				"element": "C" 
			},
			{
				"x": -3.0718786054,
				"y": -0.4491144838,
				"z": 1.9818003574,
				"element": "C" 
			},
			{
				"x": -2.8388701073,
				"y": -1.1857961354,
				"z": 2.9287265391,
				"element": "O" 
			},
			{
				"x": -4.5044444114,
				"y": 0.067163617,
				"z": 1.8068621485,
				"element": "C" 
			},
			{
				"x": -4.6271603337,
				"y": 1.8534302822,
				"z": 2.1151736668,
				"element": "Cl" 
			},
			{
				"x": 2.6728085702,
				"y": -0.975547834,
				"z": -1.4093559915,
				"element": "H" 
			},
			{
				"x": 3.0787210343,
				"y": 0.5045671164,
				"z": -0.4810094536,
				"element": "H" 
			},
			{
				"x": 3.5488055909,
				"y": 0.3595933397,
				"z": -2.1884217491,
				"element": "H" 
			},
			{
				"x": -1.4633104809,
				"y": 1.6003610865,
				"z": -1.9188234794,
				"element": "H" 
			},
			{
				"x": -3.2581049697,
				"y": 1.122231532,
				"z": -0.3256406569,
				"element": "H" 
			},
			{
				"x": -0.5442453861,
				"y": -1.1913732495,
				"z": 2.0696722945,
				"element": "H" 
			},
			{
				"x": 1.284327688,
				"y": -0.7031355462,
				"z": 0.4843074039,
				"element": "H" 
			},
			{
				"x": -5.1312522163,
				"y": -0.4293666125,
				"z": 2.5449175801,
				"element": "H" 
			},
			{
				"x": -4.8889732728,
				"y": -0.1088975978,
				"z": 0.8003865019,
				"element": "H" 
			}
		],
		 "valence_orbital": [ 
			{
				"type": "occ",
				"energy": -0.30641,
				"method": "rhf"
			},
			{
				"type": "occ",
				"energy": -0.29676,
				"method": "rhf"
			},
			{
				"type": "occ",
				"energy": -0.26885,
				"method": "rhf"
			},
			{
				"type": "occ",
				"energy": -0.25828,
				"method": "rhf"
			},
			{
				"type": "occ",
				"energy": -0.22484,
				"method": "rhf"
			},
			{
				"type": "unocc",
				"energy": -0.07007,
				"method": "rhf"
			},
			{
				"type": "unocc",
				"energy": -0.01702,
				"method": "rhf"
			},
			{
				"type": "unocc",
				"energy": 0.002,
				"method": "rhf"
			},
			{
				"type": "unocc",
				"energy": 0.02428,
				"method": "rhf"
			},
			{
				"type": "unocc",
				"energy": 0.0515,
				"method": "rhf"
			}
		],
		"cosmo_sigma_profile": { 
			"-0.025": 0.0,
			"-0.024": 0.0,
			"-0.023": 0.0,
			"-0.022": 0.0,
			"-0.021": 0.0,
			"-0.02": 0.0,
			"-0.019": 0.0,
			"-0.018": 0.0,
			"-0.017": 0.0,
			"-0.016": 0.0,
			"-0.015": 0.0,
			"-0.014": 0.0,
			"-0.013": 0.0,
			"-0.012": 0.0,
			"-0.011": 0.0,
			"-0.01": 0.456155897919,
			"-0.009": 2.82868387652,
			"-0.008": 4.63027522375,
			"-0.007": 11.3054201725,
			"-0.006": 17.9640297028,
			"-0.005": 17.4860283187,
			"-0.004": 14.1629457623,
			"-0.003": 12.4168452815,
			"-0.002": 13.1352526808,
			"-0.001": 10.0392949643,
			"0.0": 14.1696128535,
			"0.001": 14.549708815,
			"0.002": 16.3476154812,
			"0.003": 25.2611989519,
			"0.004": 17.3246406895,
			"0.005": 12.6212322896,
			"0.006": 7.88284992276,
			"0.007": 3.9137808638,
			"0.008": 3.52157192256,
			"0.009": 1.67894728891,
			"0.01": 2.69578446443,
			"0.011": 3.95913216313,
			"0.012": 1.89021941297,
			"0.013": 0.093859995736,
			"0.014": 0.0,
			"0.015": 0.0,
			"0.016": 0.0,
			"0.017": 0.0,
			"0.018": 0.0,
			"0.019": 0.0,
			"0.02": 0.0,
			"0.021": 0.0,
			"0.022": 0.0,
			"0.023": 0.0,
			"0.024": 0.0,
			"0.025": 0.0
		}
	}
}
