{
	 "smiles": "NC1=CN(N=C1)C1=NC=CC=C1", 
	 "Tm": 353.15, 
	 "num_atms": 20, 
	 "gaussian": { 
		 "optdone": 1, 
		 "sigma_profile": "yes", 
		 "theory": "DFT", 
		 "functional": "B3LYP", 
		 "basiset": "6-31G**", 
		 "properties": { 
			 "R2extent": 2615.0809, 
			 "electric_dipole_moment_norm": 1.39726589095, 
			 "electric_quadrupole_moment_norm": 15.5912593343, 
			 "total_energy": -528.65076333, 
			 "HOMO_LUMO_gap": 0.16615, 
			 "cosmo_polarized_energy": -11.66, 
			 "cosmo_cavitation_energy": 24.56, 
			 "cosmo_dispersion_energy": -18.52, 
			 "cosmo_repulsion_energy": 1.47, 
			 "cosmo_total_nonelectrostatic_energy": 7.5, 
			 "SMD_solvation_energy": 3.05 
		},
		"coords": [
			{
				"x": 0.1657396789,
				"y": -2.5118531542,
				"z": -3.6357287186,
				"element": "N" 
			},
			{
				"x": 0.6159874924,
				"y": -1.4913306166,
				"z": -2.7870665512,
				"element": "C" 
			},
			{
				"x": 0.0394441508,
				"y": -1.0157411503,
				"z": -1.6269413539,
				"element": "C" 
			},
			{
				"x": 0.8173252206,
				"y": 0.0422268094,
				"z": -1.2125256275,
				"element": "N" 
			},
			{
				"x": 1.8643018548,
				"y": 0.2676955706,
				"z": -2.0396541455,
				"element": "N" 
			},
			{
				"x": 1.7466686412,
				"y": -0.6496738479,
				"z": -2.9915990323,
				"element": "C" 
			},
			{
				"x": 0.616641792,
				"y": 0.8397745849,
				"z": -0.0694316119,
				"element": "C" 
			},
			{
				"x": -0.4430134215,
				"y": 0.5222480369,
				"z": 0.6767694219,
				"element": "N" 
			},
			{
				"x": -0.6673539598,
				"y": 1.2590122762,
				"z": 1.7719006272,
				"element": "C" 
			},
			{
				"x": 0.1388773491,
				"y": 2.3240501785,
				"z": 2.165146391,
				"element": "C" 
			},
			{
				"x": 1.2439872386,
				"y": 2.637320372,
				"z": 1.3670015675,
				"element": "C" 
			},
			{
				"x": 1.4996036332,
				"y": 1.8892979621,
				"z": 0.2253203117,
				"element": "C" 
			},
			{
				"x": 0.9209656834,
				"y": -3.0045207412,
				"z": -4.0964690863,
				"element": "H" 
			},
			{
				"x": -0.4426529897,
				"y": -3.176121209,
				"z": -3.1738009108,
				"element": "H" 
			},
			{
				"x": -0.8324278829,
				"y": -1.3121329091,
				"z": -1.0680513289,
				"element": "H" 
			},
			{
				"x": 2.4674513693,
				"y": -0.6864540574,
				"z": -3.7985452975,
				"element": "H" 
			},
			{
				"x": -1.5384816696,
				"y": 0.9775034001,
				"z": 2.3605915616,
				"element": "H" 
			},
			{
				"x": -0.0906026457,
				"y": 2.8872976251,
				"z": 3.0633036427,
				"element": "H" 
			},
			{
				"x": 1.902004904,
				"y": 3.4596752783,
				"z": 1.6326942119,
				"element": "H" 
			},
			{
				"x": 2.3383335609,
				"y": 2.0860255914,
				"z": -0.4293140713,
				"element": "H" 
			}
		],
		 "valence_orbital": [ 
			{
				"type": "occ",
				"energy": -0.28787,
				"method": "rhf"
			},
			{
				"type": "occ",
				"energy": -0.27505,
				"method": "rhf"
			},
			{
				"type": "occ",
				"energy": -0.26583,
				"method": "rhf"
			},
			{
				"type": "occ",
				"energy": -0.23466,
				"method": "rhf"
			},
			{
				"type": "occ",
				"energy": -0.19524,
				"method": "rhf"
			},
			{
				"type": "unocc",
				"energy": -0.02909,
				"method": "rhf"
			},
			{
				"type": "unocc",
				"energy": -0.01842,
				"method": "rhf"
			},
			{
				"type": "unocc",
				"energy": 0.04463,
				"method": "rhf"
			},
			{
				"type": "unocc",
				"energy": 0.0734,
				"method": "rhf"
			},
			{
				"type": "unocc",
				"energy": 0.1004,
				"method": "rhf"
			}
		],
		"cosmo_sigma_profile": { 
			"-0.025": 0.0,
			"-0.024": 0.0,
			"-0.023": 0.0,
			"-0.022": 0.0,
			"-0.021": 0.0,
			"-0.02": 0.0,
			"-0.019": 0.0,
			"-0.018": 0.0,
			"-0.017": 0.0,
			"-0.016": 0.0,
			"-0.015": 0.0,
			"-0.014": 0.0,
			"-0.013": 0.285950450568,
			"-0.012": 2.71418619332,
			"-0.011": 2.62320970039,
			"-0.01": 3.08285731423,
			"-0.009": 3.36022986187,
			"-0.008": 3.79874301922,
			"-0.007": 10.7605429102,
			"-0.006": 11.0811527119,
			"-0.005": 13.2785645644,
			"-0.004": 10.2983630195,
			"-0.003": 7.87559084535,
			"-0.002": 7.916527568,
			"-0.001": 8.15147213144,
			"0.0": 10.1072112759,
			"0.001": 15.296189205,
			"0.002": 20.6526528558,
			"0.003": 18.2649122971,
			"0.004": 11.5857978588,
			"0.005": 7.57987636483,
			"0.006": 5.02358939264,
			"0.007": 4.26117737491,
			"0.008": 4.32108843636,
			"0.009": 3.45982493235,
			"0.01": 3.49256560292,
			"0.011": 3.01588928425,
			"0.012": 2.25550869743,
			"0.013": 0.740242671787,
			"0.014": 0.79318870791,
			"0.015": 0.614242681934,
			"0.016": 0.419703156775,
			"0.017": 0.0,
			"0.018": 0.0,
			"0.019": 0.0,
			"0.02": 0.0,
			"0.021": 0.0,
			"0.022": 0.0,
			"0.023": 0.0,
			"0.024": 0.0,
			"0.025": 0.0
		}
	}
}
