{
	 "smiles": "NS(=O)(=O)C1=CC2=C(O1)SC(CNCCF)=C2", 
	 "Tm": 476.15, 
	 "num_atms": 28, 
	 "gaussian": { 
		 "optdone": 1, 
		 "sigma_profile": "yes", 
		 "theory": "DFT", 
		 "functional": "B3LYP", 
		 "basiset": "6-31G**", 
		 "properties": { 
			 "R2extent": 13373.2905, 
			 "electric_dipole_moment_norm": 5.92251819837, 
			 "electric_quadrupole_moment_norm": 52.5405113271, 
			 "total_energy": -1580.83320531, 
			 "HOMO_LUMO_gap": 0.20226, 
			 "cosmo_polarized_energy": -21.44, 
			 "cosmo_cavitation_energy": 36.48, 
			 "cosmo_dispersion_energy": -27.27, 
			 "cosmo_repulsion_energy": 2.04, 
			 "cosmo_total_nonelectrostatic_energy": 11.25, 
			 "SMD_solvation_energy": 4.91 
		},
		"coords": [
			{
				"x": 4.8450308878,
				"y": -0.3742805356,
				"z": 6.2118315056,
				"element": "N" 
			},
			{
				"x": 5.5324924526,
				"y": -0.6061460186,
				"z": 4.7041290044,
				"element": "S" 
			},
			{
				"x": 6.1104064358,
				"y": -1.9440234931,
				"z": 4.7343238175,
				"element": "O" 
			},
			{
				"x": 6.301422951,
				"y": 0.5960179292,
				"z": 4.3994557349,
				"element": "O" 
			},
			{
				"x": 4.1997705272,
				"y": -0.5952192972,
				"z": 3.5390014773,
				"element": "C" 
			},
			{
				"x": 3.9466497508,
				"y": 0.233345894,
				"z": 2.4827288481,
				"element": "C" 
			},
			{
				"x": 2.7466108052,
				"y": -0.2713209425,
				"z": 1.8777719743,
				"element": "C" 
			},
			{
				"x": 2.3953445037,
				"y": -1.3639142162,
				"z": 2.6436066505,
				"element": "C" 
			},
			{
				"x": 3.2508622995,
				"y": -1.5959302274,
				"z": 3.6624419695,
				"element": "O" 
			},
			{
				"x": 0.9474836099,
				"y": -2.1649979441,
				"z": 2.1421705049,
				"element": "S" 
			},
			{
				"x": 0.8031146611,
				"y": -0.981587284,
				"z": 0.8172049615,
				"element": "C" 
			},
			{
				"x": -0.3410855173,
				"y": -1.1149646797,
				"z": -0.1536538691,
				"element": "C" 
			},
			{
				"x": -0.6506877418,
				"y": 0.177867952,
				"z": -0.7580408667,
				"element": "N" 
			},
			{
				"x": -1.6667964168,
				"y": 0.126633495,
				"z": -1.8097900533,
				"element": "C" 
			},
			{
				"x": -1.0300683673,
				"y": -0.1504900005,
				"z": -3.1684098642,
				"element": "C" 
			},
			{
				"x": -2.0329257039,
				"y": -0.2131735374,
				"z": -4.1297396188,
				"element": "F" 
			},
			{
				"x": 1.8097492124,
				"y": -0.0582287245,
				"z": 0.8105541518,
				"element": "C" 
			},
			{
				"x": 4.3646157671,
				"y": 0.5153096612,
				"z": 6.3010967652,
				"element": "H" 
			},
			{
				"x": 4.2935329733,
				"y": -1.1690771217,
				"z": 6.5193066238,
				"element": "H" 
			},
			{
				"x": 4.5574065123,
				"y": 1.0762736585,
				"z": 2.1960012413,
				"element": "H" 
			},
			{
				"x": -1.2103314349,
				"y": -1.5774935808,
				"z": 0.3513654518,
				"element": "H" 
			},
			{
				"x": -0.0605640285,
				"y": -1.8101080646,
				"z": -0.9565496196,
				"element": "H" 
			},
			{
				"x": -0.9330132492,
				"y": 0.8235010117,
				"z": -0.0274568786,
				"element": "H" 
			},
			{
				"x": -2.4502513705,
				"y": -0.6275286914,
				"z": -1.6233062243,
				"element": "H" 
			},
			{
				"x": -2.1674368752,
				"y": 1.0984927485,
				"z": -1.8622936807,
				"element": "H" 
			},
			{
				"x": -0.3299099116,
				"y": 0.6502152157,
				"z": -3.431010522,
				"element": "H" 
			},
			{
				"x": -0.4865474889,
				"y": -1.1034542453,
				"z": -3.1735600787,
				"element": "H" 
			},
			{
				"x": 1.860724756,
				"y": 0.7262810388,
				"z": 0.0667205936,
				"element": "H" 
			}
		],
		 "valence_orbital": [ 
			{
				"type": "occ",
				"energy": -0.31312,
				"method": "rhf"
			},
			{
				"type": "occ",
				"energy": -0.30798,
				"method": "rhf"
			},
			{
				"type": "occ",
				"energy": -0.2547,
				"method": "rhf"
			},
			{
				"type": "occ",
				"energy": -0.24998,
				"method": "rhf"
			},
			{
				"type": "occ",
				"energy": -0.23343,
				"method": "rhf"
			},
			{
				"type": "unocc",
				"energy": -0.03117,
				"method": "rhf"
			},
			{
				"type": "unocc",
				"energy": -0.02178,
				"method": "rhf"
			},
			{
				"type": "unocc",
				"energy": -0.00433,
				"method": "rhf"
			},
			{
				"type": "unocc",
				"energy": 0.04179,
				"method": "rhf"
			},
			{
				"type": "unocc",
				"energy": 0.05318,
				"method": "rhf"
			}
		],
		"cosmo_sigma_profile": { 
			"-0.025": 0.0,
			"-0.024": 0.0,
			"-0.023": 0.0,
			"-0.022": 0.0,
			"-0.021": 0.0,
			"-0.02": 0.0,
			"-0.019": 0.0,
			"-0.018": 0.0,
			"-0.017": 0.0,
			"-0.016": 1.04302447218,
			"-0.015": 2.79707990945,
			"-0.014": 2.96998947406,
			"-0.013": 1.87274473576,
			"-0.012": 2.42060022819,
			"-0.011": 2.94269020806,
			"-0.01": 3.01957110127,
			"-0.009": 4.70150140026,
			"-0.008": 4.59499056992,
			"-0.007": 5.51114018934,
			"-0.006": 10.2741953982,
			"-0.005": 17.0688479206,
			"-0.004": 22.4494000983,
			"-0.003": 21.354472233,
			"-0.002": 17.5049639765,
			"-0.001": 18.3559825264,
			"0.0": 19.594184729,
			"0.001": 20.1586806656,
			"0.002": 19.0277976082,
			"0.003": 16.9617784437,
			"0.004": 10.2480176855,
			"0.005": 8.40333646715,
			"0.006": 12.4640524188,
			"0.007": 13.0874187612,
			"0.008": 3.78272016469,
			"0.009": 6.58349242371,
			"0.01": 12.4985483388,
			"0.011": 9.59916713209,
			"0.012": 0.587041272087,
			"0.013": 0.0,
			"0.014": 0.0,
			"0.015": 0.0,
			"0.016": 0.0,
			"0.017": 0.0,
			"0.018": 0.0,
			"0.019": 0.0,
			"0.02": 0.0,
			"0.021": 0.0,
			"0.022": 0.0,
			"0.023": 0.0,
			"0.024": 0.0,
			"0.025": 0.0
		}
	}
}
