{
	 "smiles": "CC1CCN(CC(O)=O)CC1", 
	 "Tm": 421.15, 
	 "num_atms": 26, 
	 "gaussian": { 
		 "optdone": 1, 
		 "sigma_profile": "yes", 
		 "theory": "DFT", 
		 "functional": "B3LYP", 
		 "basiset": "6-31G**", 
		 "properties": { 
			 "R2extent": 2639.6249, 
			 "electric_dipole_moment_norm": 5.63908191286, 
			 "electric_quadrupole_moment_norm": 23.6322156509, 
			 "total_energy": -519.10994034, 
			 "HOMO_LUMO_gap": 0.2628, 
			 "cosmo_polarized_energy": -11.42, 
			 "cosmo_cavitation_energy": 26.61, 
			 "cosmo_dispersion_energy": -19.37, 
			 "cosmo_repulsion_energy": 1.56, 
			 "cosmo_total_nonelectrostatic_energy": 8.79, 
			 "SMD_solvation_energy": 4.99 
		},
		"coords": [
			{
				"x": -0.6901128307,
				"y": -0.1863994819,
				"z": 2.5367935444,
				"element": "C" 
			},
			{
				"x": 0.7063125692,
				"y": -0.6311885831,
				"z": 2.0720752057,
				"element": "C" 
			},
			{
				"x": 0.65615887,
				"y": -1.5652467264,
				"z": 0.8449061098,
				"element": "C" 
			},
			{
				"x": 0.3345002217,
				"y": -0.8161828127,
				"z": -0.4516561081,
				"element": "C" 
			},
			{
				"x": 1.2927480244,
				"y": 0.2819344427,
				"z": -0.679393703,
				"element": "N" 
			},
			{
				"x": 1.1101165716,
				"y": 0.8960889423,
				"z": -1.9954181282,
				"element": "C" 
			},
			{
				"x": 1.866114055,
				"y": 0.1122989539,
				"z": -3.0813121472,
				"element": "C" 
			},
			{
				"x": 2.8231604967,
				"y": -0.6876598626,
				"z": -2.580286452,
				"element": "O" 
			},
			{
				"x": 1.6467808389,
				"y": 0.2327669808,
				"z": -4.262006162,
				"element": "O" 
			},
			{
				"x": 1.2783180575,
				"y": 1.2476488175,
				"z": 0.4313861214,
				"element": "C" 
			},
			{
				"x": 1.635451282,
				"y": 0.5588093096,
				"z": 1.7521993419,
				"element": "C" 
			},
			{
				"x": -1.2271688203,
				"y": 0.3848148299,
				"z": 1.7727588389,
				"element": "H" 
			},
			{
				"x": -0.6198754813,
				"y": 0.4459523594,
				"z": 3.4284966799,
				"element": "H" 
			},
			{
				"x": -1.308995794,
				"y": -1.0535636975,
				"z": 2.791385342,
				"element": "H" 
			},
			{
				"x": 1.1582094094,
				"y": -1.1925670802,
				"z": 2.9001843807,
				"element": "H" 
			},
			{
				"x": -0.0855677755,
				"y": -2.3584977015,
				"z": 0.9951844739,
				"element": "H" 
			},
			{
				"x": 1.6298635334,
				"y": -2.0569374901,
				"z": 0.7260945899,
				"element": "H" 
			},
			{
				"x": 0.3956624728,
				"y": -1.504065002,
				"z": -1.30174438,
				"element": "H" 
			},
			{
				"x": -0.6985057512,
				"y": -0.4250760118,
				"z": -0.4309810866,
				"element": "H" 
			},
			{
				"x": 1.5348688849,
				"y": 1.9065197377,
				"z": -1.9844160008,
				"element": "H" 
			},
			{
				"x": 0.0590502159,
				"y": 0.9929290801,
				"z": -2.3027145278,
				"element": "H" 
			},
			{
				"x": 2.7450901325,
				"y": -0.579457617,
				"z": -1.6024237452,
				"element": "H" 
			},
			{
				"x": 2.0120070774,
				"y": 2.0307258786,
				"z": 0.2114869217,
				"element": "H" 
			},
			{
				"x": 0.2937243294,
				"y": 1.74257708,
				"z": 0.5092304357,
				"element": "H" 
			},
			{
				"x": 2.66924746,
				"y": 0.1986520514,
				"z": 1.6802121692,
				"element": "H" 
			},
			{
				"x": 1.6072419502,
				"y": 1.2967236029,
				"z": 2.5627582859,
				"element": "H" 
			}
		],
		 "valence_orbital": [ 
			{
				"type": "occ",
				"energy": -0.32727,
				"method": "rhf"
			},
			{
				"type": "occ",
				"energy": -0.3218,
				"method": "rhf"
			},
			{
				"type": "occ",
				"energy": -0.29933,
				"method": "rhf"
			},
			{
				"type": "occ",
				"energy": -0.26622,
				"method": "rhf"
			},
			{
				"type": "occ",
				"energy": -0.24263,
				"method": "rhf"
			},
			{
				"type": "unocc",
				"energy": 0.02017,
				"method": "rhf"
			},
			{
				"type": "unocc",
				"energy": 0.0598,
				"method": "rhf"
			},
			{
				"type": "unocc",
				"energy": 0.08158,
				"method": "rhf"
			},
			{
				"type": "unocc",
				"energy": 0.0986,
				"method": "rhf"
			},
			{
				"type": "unocc",
				"energy": 0.11301,
				"method": "rhf"
			}
		],
		"cosmo_sigma_profile": { 
			"-0.025": 0.0,
			"-0.024": 0.0,
			"-0.023": 0.0,
			"-0.022": 0.0,
			"-0.021": 0.0,
			"-0.02": 0.0,
			"-0.019": 0.0,
			"-0.018": 0.0,
			"-0.017": 0.0,
			"-0.016": 0.0,
			"-0.015": 0.0,
			"-0.014": 0.0,
			"-0.013": 0.0,
			"-0.012": 0.0,
			"-0.011": 0.0,
			"-0.01": 0.17460210499,
			"-0.009": 0.461141065456,
			"-0.008": 1.65680055709,
			"-0.007": 4.16756433714,
			"-0.006": 5.22429832181,
			"-0.005": 9.48686939579,
			"-0.004": 13.7387957009,
			"-0.003": 28.130924191,
			"-0.002": 34.318100541,
			"-0.001": 31.6177855106,
			"0.0": 20.126979888,
			"0.001": 14.0850273833,
			"0.002": 6.09933580474,
			"0.003": 2.10479381159,
			"0.004": 1.85416638918,
			"0.005": 1.76624069759,
			"0.006": 1.80509163343,
			"0.007": 2.14322834051,
			"0.008": 2.88099897715,
			"0.009": 3.13687336018,
			"0.01": 4.50693175364,
			"0.011": 5.11553115945,
			"0.012": 6.09347716717,
			"0.013": 4.27983602143,
			"0.014": 0.609859310931,
			"0.015": 0.0,
			"0.016": 0.0,
			"0.017": 0.0,
			"0.018": 0.0,
			"0.019": 0.0,
			"0.02": 0.0,
			"0.021": 0.0,
			"0.022": 0.0,
			"0.023": 0.0,
			"0.024": 0.0,
			"0.025": 0.0
		}
	}
}
