{
	 "smiles": "CCCN1C(=O)N(CC(O)=O)C2=C1C=CC=C2", 
	 "Tm": 447.15, 
	 "num_atms": 31, 
	 "gaussian": { 
		 "optdone": 1, 
		 "sigma_profile": "yes", 
		 "theory": "DFT", 
		 "functional": "B3LYP", 
		 "basiset": "6-31G**", 
		 "properties": { 
			 "R2extent": 4102.5202, 
			 "electric_dipole_moment_norm": 1.84617837166, 
			 "electric_quadrupole_moment_norm": 19.2860827822, 
			 "total_energy": -800.94669746, 
			 "HOMO_LUMO_gap": 0.19939, 
			 "cosmo_polarized_energy": -16.86, 
			 "cosmo_cavitation_energy": 34.87, 
			 "cosmo_dispersion_energy": -23.77, 
			 "cosmo_repulsion_energy": 1.86, 
			 "cosmo_total_nonelectrostatic_energy": 12.96, 
			 "SMD_solvation_energy": 7.45 
		},
		"coords": [
			{
				"x": -0.790214273,
				"y": 1.6137164558,
				"z": 3.4009828843,
				"element": "C" 
			},
			{
				"x": -1.3693531307,
				"y": 0.1998072242,
				"z": 3.3056108431,
				"element": "C" 
			},
			{
				"x": -0.4280453892,
				"y": -0.8296497721,
				"z": 2.6640397148,
				"element": "C" 
			},
			{
				"x": -0.1221347305,
				"y": -0.5541875281,
				"z": 1.2641525692,
				"element": "N" 
			},
			{
				"x": -0.9977799334,
				"y": -0.9140906469,
				"z": 0.2454836818,
				"element": "C" 
			},
			{
				"x": -2.082270272,
				"y": -1.4683366156,
				"z": 0.3583542394,
				"element": "O" 
			},
			{
				"x": -0.3731678267,
				"y": -0.5349447269,
				"z": -0.947316544,
				"element": "N" 
			},
			{
				"x": -1.0138469716,
				"y": -0.7014235615,
				"z": -2.2197253784,
				"element": "C" 
			},
			{
				"x": -1.5903303399,
				"y": 0.598855224,
				"z": -2.7712637737,
				"element": "C" 
			},
			{
				"x": -2.0747093612,
				"y": 0.3985749851,
				"z": -4.0187494559,
				"element": "O" 
			},
			{
				"x": -1.6285609196,
				"y": 1.6597222716,
				"z": -2.1976643274,
				"element": "O" 
			},
			{
				"x": 0.8549777603,
				"y": 0.0634535417,
				"z": -0.6761803221,
				"element": "C" 
			},
			{
				"x": 1.0180700079,
				"y": 0.042491711,
				"z": 0.7257188733,
				"element": "C" 
			},
			{
				"x": 2.1677810871,
				"y": 0.5527302898,
				"z": 1.3169797017,
				"element": "C" 
			},
			{
				"x": 3.1543143797,
				"y": 1.0841771625,
				"z": 0.4754481616,
				"element": "C" 
			},
			{
				"x": 2.9883815118,
				"y": 1.1070600214,
				"z": -0.9121311225,
				"element": "C" 
			},
			{
				"x": 1.8289035253,
				"y": 0.5956839131,
				"z": -1.5100508187,
				"element": "C" 
			},
			{
				"x": -1.5095427868,
				"y": 2.2984546469,
				"z": 3.8609680478,
				"element": "H" 
			},
			{
				"x": -0.5400940567,
				"y": 2.0119078948,
				"z": 2.4128512713,
				"element": "H" 
			},
			{
				"x": 0.1209236616,
				"y": 1.632822183,
				"z": 4.0107327495,
				"element": "H" 
			},
			{
				"x": -1.6232680176,
				"y": -0.1686870586,
				"z": 4.3079885537,
				"element": "H" 
			},
			{
				"x": -2.3023332526,
				"y": 0.2080749537,
				"z": 2.7313955774,
				"element": "H" 
			},
			{
				"x": 0.5218468926,
				"y": -0.8852648159,
				"z": 3.2059121201,
				"element": "H" 
			},
			{
				"x": -0.8918876286,
				"y": -1.8198066321,
				"z": 2.6989265345,
				"element": "H" 
			},
			{
				"x": -1.8380295265,
				"y": -1.4085026798,
				"z": -2.0788753158,
				"element": "H" 
			},
			{
				"x": -0.328509497,
				"y": -1.1315956044,
				"z": -2.9585076067,
				"element": "H" 
			},
			{
				"x": -2.4503502834,
				"y": 1.247002555,
				"z": -4.3081508933,
				"element": "H" 
			},
			{
				"x": 2.2992221845,
				"y": 0.5465228824,
				"z": 2.3936808413,
				"element": "H" 
			},
			{
				"x": 4.0606270281,
				"y": 1.4897153039,
				"z": 0.9143289218,
				"element": "H" 
			},
			{
				"x": 3.7657920337,
				"y": 1.5311494655,
				"z": -1.5398360076,
				"element": "H" 
			},
			{
				"x": 1.6976881244,
				"y": 0.6225669564,
				"z": -2.5869037204,
				"element": "H" 
			}
		],
		 "valence_orbital": [ 
			{
				"type": "occ",
				"energy": -0.29829,
				"method": "rhf"
			},
			{
				"type": "occ",
				"energy": -0.28685,
				"method": "rhf"
			},
			{
				"type": "occ",
				"energy": -0.26963,
				"method": "rhf"
			},
			{
				"type": "occ",
				"energy": -0.23231,
				"method": "rhf"
			},
			{
				"type": "occ",
				"energy": -0.2034,
				"method": "rhf"
			},
			{
				"type": "unocc",
				"energy": -0.00401,
				"method": "rhf"
			},
			{
				"type": "unocc",
				"energy": 0.00075,
				"method": "rhf"
			},
			{
				"type": "unocc",
				"energy": 0.01456,
				"method": "rhf"
			},
			{
				"type": "unocc",
				"energy": 0.05966,
				"method": "rhf"
			},
			{
				"type": "unocc",
				"energy": 0.06968,
				"method": "rhf"
			}
		],
		"cosmo_sigma_profile": { 
			"-0.025": 0.0,
			"-0.024": 0.0,
			"-0.023": 0.0,
			"-0.022": 0.0,
			"-0.021": 0.0,
			"-0.02": 0.0,
			"-0.019": 0.352899521725,
			"-0.018": 0.914870129896,
			"-0.017": 1.14786831265,
			"-0.016": 0.514375827895,
			"-0.015": 1.25208543205,
			"-0.014": 0.515346348782,
			"-0.013": 0.0300028199936,
			"-0.012": 0.707800396573,
			"-0.011": 1.45488682435,
			"-0.01": 0.530948803651,
			"-0.009": 1.93857630973,
			"-0.008": 5.46363270048,
			"-0.007": 8.60598917941,
			"-0.006": 10.7906542517,
			"-0.005": 16.0779983471,
			"-0.004": 17.8935241492,
			"-0.003": 25.5273129056,
			"-0.002": 23.2849235936,
			"-0.001": 26.2749370774,
			"0.0": 22.7839944384,
			"0.001": 18.2777414218,
			"0.002": 12.5642494768,
			"0.003": 10.629615445,
			"0.004": 11.9348776973,
			"0.005": 11.0425728914,
			"0.006": 10.9654225923,
			"0.007": 4.89330255139,
			"0.008": 5.3149695305,
			"0.009": 3.07164162669,
			"0.01": 4.76535788274,
			"0.011": 6.2701162577,
			"0.012": 3.23207139395,
			"0.013": 4.58145996271,
			"0.014": 2.08151026346,
			"0.015": 0.0,
			"0.016": 0.0,
			"0.017": 0.0,
			"0.018": 0.0,
			"0.019": 0.0,
			"0.02": 0.0,
			"0.021": 0.0,
			"0.022": 0.0,
			"0.023": 0.0,
			"0.024": 0.0,
			"0.025": 0.0
		}
	}
}
