{
	 "smiles": "CC(=CC(O)=O)C1=C(C=CC=C1)C(F)(F)F", 
	 "Tm": 407.15, 
	 "num_atms": 25, 
	 "gaussian": { 
		 "optdone": 1, 
		 "sigma_profile": "yes", 
		 "theory": "DFT", 
		 "functional": "B3LYP", 
		 "basiset": "6-31G**", 
		 "properties": { 
			 "R2extent": 4036.9719, 
			 "electric_dipole_moment_norm": 6.71683691405, 
			 "electric_quadrupole_moment_norm": 13.593934166, 
			 "total_energy": -874.558755995, 
			 "HOMO_LUMO_gap": 0.21594, 
			 "cosmo_polarized_energy": -15.53, 
			 "cosmo_cavitation_energy": 30.49, 
			 "cosmo_dispersion_energy": -20.92, 
			 "cosmo_repulsion_energy": 1.58, 
			 "cosmo_total_nonelectrostatic_energy": 11.15, 
			 "SMD_solvation_energy": 7.57 
		},
		"coords": [
			{
				"x": -1.2616830568,
				"y": 1.0393390729,
				"z": 1.8178006654,
				"element": "C" 
			},
			{
				"x": -0.5707531833,
				"y": 0.7440052299,
				"z": 0.5059619939,
				"element": "C" 
			},
			{
				"x": -0.8331999132,
				"y": 1.318301446,
				"z": -0.6823730455,
				"element": "C" 
			},
			{
				"x": -1.8452432126,
				"y": 2.3721326398,
				"z": -0.9918337047,
				"element": "C" 
			},
			{
				"x": -3.0700157357,
				"y": 2.2651010967,
				"z": -0.3978682283,
				"element": "O" 
			},
			{
				"x": -1.6226934765,
				"y": 3.2802474323,
				"z": -1.7546275359,
				"element": "O" 
			},
			{
				"x": 0.514030258,
				"y": -0.2916297757,
				"z": 0.5906106465,
				"element": "C" 
			},
			{
				"x": 1.8848686108,
				"y": 0.0228424261,
				"z": 0.6800249283,
				"element": "C" 
			},
			{
				"x": 2.8381175268,
				"y": -0.9960155818,
				"z": 0.7669162305,
				"element": "C" 
			},
			{
				"x": 2.447712895,
				"y": -2.3336716265,
				"z": 0.7736848366,
				"element": "C" 
			},
			{
				"x": 1.0942441414,
				"y": -2.6569660374,
				"z": 0.6941426052,
				"element": "C" 
			},
			{
				"x": 0.1412622877,
				"y": -1.642384943,
				"z": 0.6080227354,
				"element": "C" 
			},
			{
				"x": 2.3543420842,
				"y": 1.4582746415,
				"z": 0.6599307759,
				"element": "C" 
			},
			{
				"x": 2.1963712923,
				"y": 2.0249152737,
				"z": -0.5561264687,
				"element": "F" 
			},
			{
				"x": 1.6733224946,
				"y": 2.2246979905,
				"z": 1.5458499546,
				"element": "F" 
			},
			{
				"x": 3.6631078684,
				"y": 1.5631663446,
				"z": 0.976482138,
				"element": "F" 
			},
			{
				"x": -1.9861941228,
				"y": 1.8518576646,
				"z": 1.7463566703,
				"element": "H" 
			},
			{
				"x": -0.5072073287,
				"y": 1.324606435,
				"z": 2.5574894121,
				"element": "H" 
			},
			{
				"x": -1.761261618,
				"y": 0.1438928633,
				"z": 2.2086900292,
				"element": "H" 
			},
			{
				"x": -0.1950009113,
				"y": 1.0907580537,
				"z": -1.5305262129,
				"element": "H" 
			},
			{
				"x": -3.13669395,
				"y": 1.4099038819,
				"z": 0.0484622962,
				"element": "H" 
			},
			{
				"x": 3.8871945704,
				"y": -0.7330943912,
				"z": 0.8337840322,
				"element": "H" 
			},
			{
				"x": 3.1974270995,
				"y": -3.1156589405,
				"z": 0.8418216076,
				"element": "H" 
			},
			{
				"x": 0.7774589281,
				"y": -3.6956903979,
				"z": 0.6965017243,
				"element": "H" 
			},
			{
				"x": -0.9126135483,
				"y": -1.8973307983,
				"z": 0.5403219139,
				"element": "H" 
			}
		],
		 "valence_orbital": [ 
			{
				"type": "occ",
				"energy": -0.31594,
				"method": "rhf"
			},
			{
				"type": "occ",
				"energy": -0.28611,
				"method": "rhf"
			},
			{
				"type": "occ",
				"energy": -0.27936,
				"method": "rhf"
			},
			{
				"type": "occ",
				"energy": -0.2784,
				"method": "rhf"
			},
			{
				"type": "occ",
				"energy": -0.26102,
				"method": "rhf"
			},
			{
				"type": "unocc",
				"energy": -0.04508,
				"method": "rhf"
			},
			{
				"type": "unocc",
				"energy": -0.03838,
				"method": "rhf"
			},
			{
				"type": "unocc",
				"energy": -0.02756,
				"method": "rhf"
			},
			{
				"type": "unocc",
				"energy": 0.05111,
				"method": "rhf"
			},
			{
				"type": "unocc",
				"energy": 0.06544,
				"method": "rhf"
			}
		],
		"cosmo_sigma_profile": { 
			"-0.025": 0.0,
			"-0.024": 0.0,
			"-0.023": 0.0,
			"-0.022": 0.0,
			"-0.021": 0.0,
			"-0.02": 0.0,
			"-0.019": 0.0,
			"-0.018": 0.266471193628,
			"-0.017": 0.910716253096,
			"-0.016": 0.593670797487,
			"-0.015": 0.787862397635,
			"-0.014": 0.72728027056,
			"-0.013": 1.0339191806,
			"-0.012": 1.09805474963,
			"-0.011": 1.02370594029,
			"-0.01": 0.957656599277,
			"-0.009": 0.773378215085,
			"-0.008": 0.674749150942,
			"-0.007": 7.46104442924,
			"-0.006": 13.575157309,
			"-0.005": 15.9938684953,
			"-0.004": 16.5471341451,
			"-0.003": 16.8511451496,
			"-0.002": 18.7248846717,
			"-0.001": 15.9736459198,
			"0.0": 15.4922915806,
			"0.001": 17.4880668065,
			"0.002": 24.9353559616,
			"0.003": 33.0820732663,
			"0.004": 8.22522126248,
			"0.005": 2.12418253681,
			"0.006": 1.72691398116,
			"0.007": 2.75922642568,
			"0.008": 2.92157085453,
			"0.009": 2.78857139251,
			"0.01": 5.48273331797,
			"0.011": 5.2937085217,
			"0.012": 5.35473365302,
			"0.013": 1.99007370364,
			"0.014": 0.0207821754261,
			"0.015": 0.0,
			"0.016": 0.0,
			"0.017": 0.0,
			"0.018": 0.0,
			"0.019": 0.0,
			"0.02": 0.0,
			"0.021": 0.0,
			"0.022": 0.0,
			"0.023": 0.0,
			"0.024": 0.0,
			"0.025": 0.0
		}
	}
}
