{
	 "smiles": "CNC1=C(C=CC=C1)C#N", 
	 "Tm": 340.15, 
	 "num_atms": 18, 
	 "gaussian": { 
		 "optdone": 1, 
		 "sigma_profile": "yes", 
		 "theory": "DFT", 
		 "functional": "B3LYP", 
		 "basiset": "6-31G**", 
		 "properties": { 
			 "R2extent": 1757.2012, 
			 "electric_dipole_moment_norm": 4.59493335751, 
			 "electric_quadrupole_moment_norm": 19.443841058, 
			 "total_energy": -419.156274698, 
			 "HOMO_LUMO_gap": 0.17412, 
			 "cosmo_polarized_energy": -11.36, 
			 "cosmo_cavitation_energy": 22.33, 
			 "cosmo_dispersion_energy": -16.12, 
			 "cosmo_repulsion_energy": 1.3, 
			 "cosmo_total_nonelectrostatic_energy": 7.51, 
			 "SMD_solvation_energy": 4.33 
		},
		"coords": [
			{
				"x": 0.926965214,
				"y": 2.1638240888,
				"z": -2.3475103936,
				"element": "C" 
			},
			{
				"x": 0.7477026941,
				"y": 0.8495168267,
				"z": -1.742848665,
				"element": "N" 
			},
			{
				"x": 0.5731860476,
				"y": 0.582460699,
				"z": -0.4027160034,
				"element": "C" 
			},
			{
				"x": 0.0847403616,
				"y": 1.5116658977,
				"z": 0.5583019496,
				"element": "C" 
			},
			{
				"x": -0.0667335981,
				"y": 1.117463188,
				"z": 1.906537298,
				"element": "C" 
			},
			{
				"x": 0.2380363276,
				"y": -0.1657307893,
				"z": 2.3274080168,
				"element": "C" 
			},
			{
				"x": 0.7028990281,
				"y": -1.0897903214,
				"z": 1.3811689168,
				"element": "C" 
			},
			{
				"x": 0.8675277814,
				"y": -0.7236413791,
				"z": 0.0563689557,
				"element": "C" 
			},
			{
				"x": -0.319094953,
				"y": 2.8457249559,
				"z": 0.2352912771,
				"element": "C" 
			},
			{
				"x": -0.6798679365,
				"y": 3.9350833077,
				"z": 0.0341851235,
				"element": "N" 
			},
			{
				"x": 1.7011781738,
				"y": 2.757570627,
				"z": -1.8441714594,
				"element": "H" 
			},
			{
				"x": 0.0010502038,
				"y": 2.7413731355,
				"z": -2.3458313053,
				"element": "H" 
			},
			{
				"x": 1.2297313941,
				"y": 2.012768245,
				"z": -3.3859563096,
				"element": "H" 
			},
			{
				"x": 1.1982599964,
				"y": 0.0970413289,
				"z": -2.241031409,
				"element": "H" 
			},
			{
				"x": -0.4396102751,
				"y": 1.8541948965,
				"z": 2.6107946905,
				"element": "H" 
			},
			{
				"x": 0.1138800179,
				"y": -0.4479372897,
				"z": 3.3671544194,
				"element": "H" 
			},
			{
				"x": 0.9464368028,
				"y": -2.1041826537,
				"z": 1.6841609718,
				"element": "H" 
			},
			{
				"x": 1.2378127195,
				"y": -1.4513047635,
				"z": -0.6620060738,
				"element": "H" 
			}
		],
		 "valence_orbital": [ 
			{
				"type": "occ",
				"energy": -0.34141,
				"method": "rhf"
			},
			{
				"type": "occ",
				"energy": -0.31735,
				"method": "rhf"
			},
			{
				"type": "occ",
				"energy": -0.31076,
				"method": "rhf"
			},
			{
				"type": "occ",
				"energy": -0.25774,
				"method": "rhf"
			},
			{
				"type": "occ",
				"energy": -0.21062,
				"method": "rhf"
			},
			{
				"type": "unocc",
				"energy": -0.0365,
				"method": "rhf"
			},
			{
				"type": "unocc",
				"energy": -0.00211,
				"method": "rhf"
			},
			{
				"type": "unocc",
				"energy": 0.03917,
				"method": "rhf"
			},
			{
				"type": "unocc",
				"energy": 0.06697,
				"method": "rhf"
			},
			{
				"type": "unocc",
				"energy": 0.08742,
				"method": "rhf"
			}
		],
		"cosmo_sigma_profile": { 
			"-0.025": 0.0,
			"-0.024": 0.0,
			"-0.023": 0.0,
			"-0.022": 0.0,
			"-0.021": 0.0,
			"-0.02": 0.0,
			"-0.019": 0.0,
			"-0.018": 0.0,
			"-0.017": 0.0,
			"-0.016": 0.0,
			"-0.015": 0.0,
			"-0.014": 0.573954730642,
			"-0.013": 1.74906701386,
			"-0.012": 1.46496208685,
			"-0.011": 1.69171046934,
			"-0.01": 1.34242694762,
			"-0.009": 1.26307278134,
			"-0.008": 2.17383194135,
			"-0.007": 5.07310446105,
			"-0.006": 9.22701775551,
			"-0.005": 10.7496647881,
			"-0.004": 14.6293618381,
			"-0.003": 12.9867948558,
			"-0.002": 14.9388159876,
			"-0.001": 11.5541850458,
			"0.0": 10.9798684816,
			"0.001": 11.797898713,
			"0.002": 9.5144559159,
			"0.003": 13.1114048069,
			"0.004": 12.0204012548,
			"0.005": 8.30558147294,
			"0.006": 3.0239115035,
			"0.007": 2.15978901077,
			"0.008": 3.28881041795,
			"0.009": 3.1626100059,
			"0.01": 3.0101733918,
			"0.011": 2.71675660753,
			"0.012": 2.83769710085,
			"0.013": 2.46201211067,
			"0.014": 1.12893985384,
			"0.015": 0.0,
			"0.016": 0.0,
			"0.017": 0.0,
			"0.018": 0.0,
			"0.019": 0.0,
			"0.02": 0.0,
			"0.021": 0.0,
			"0.022": 0.0,
			"0.023": 0.0,
			"0.024": 0.0,
			"0.025": 0.0
		}
	}
}
