{
	 "smiles": "COC1=C2C(=O)C=C(C)OC2=CC2=C1C=CO2", 
	 "Tm": 417.15, 
	 "num_atms": 27, 
	 "gaussian": { 
		 "optdone": 1, 
		 "sigma_profile": "yes", 
		 "theory": "DFT", 
		 "functional": "B3LYP", 
		 "basiset": "6-31G**", 
		 "properties": { 
			 "R2extent": 4613.5746, 
			 "electric_dipole_moment_norm": 3.0219348719, 
			 "electric_quadrupole_moment_norm": 18.7120207546, 
			 "total_energy": -802.269814235, 
			 "HOMO_LUMO_gap": 0.16397, 
			 "cosmo_polarized_energy": -12.33, 
			 "cosmo_cavitation_energy": 31.22, 
			 "cosmo_dispersion_energy": -23.03, 
			 "cosmo_repulsion_energy": 1.75, 
			 "cosmo_total_nonelectrostatic_energy": 9.94, 
			 "SMD_solvation_energy": 7.79 
		},
		"coords": [
			{
				"x": 2.7676845181,
				"y": 2.4985433299,
				"z": -0.3955941367,
				"element": "C" 
			},
			{
				"x": 2.5094717474,
				"y": 1.9042041205,
				"z": 0.8851975185,
				"element": "O" 
			},
			{
				"x": 1.2286015453,
				"y": 1.5331846157,
				"z": 1.1587813944,
				"element": "C" 
			},
			{
				"x": 0.564068987,
				"y": 0.4218063362,
				"z": 0.5730894625,
				"element": "C" 
			},
			{
				"x": 1.1998002878,
				"y": -0.5002622744,
				"z": -0.4047666178,
				"element": "C" 
			},
			{
				"x": 2.343788427,
				"y": -0.3659136644,
				"z": -0.843738831,
				"element": "O" 
			},
			{
				"x": 0.3572937242,
				"y": -1.6163044332,
				"z": -0.8282263736,
				"element": "C" 
			},
			{
				"x": -0.9057826572,
				"y": -1.7835283836,
				"z": -0.3873037885,
				"element": "C" 
			},
			{
				"x": -1.850180323,
				"y": -2.8742127494,
				"z": -0.7790713125,
				"element": "C" 
			},
			{
				"x": -1.4739123505,
				"y": -0.9310435049,
				"z": 0.5048723568,
				"element": "O" 
			},
			{
				"x": -0.7606396485,
				"y": 0.1318461741,
				"z": 1.0090780504,
				"element": "C" 
			},
			{
				"x": -1.4499885251,
				"y": 0.8688296031,
				"z": 1.9707344389,
				"element": "C" 
			},
			{
				"x": -0.7494850209,
				"y": 1.9286990939,
				"z": 2.5182019257,
				"element": "C" 
			},
			{
				"x": 0.5611214071,
				"y": 2.2762109192,
				"z": 2.1397467849,
				"element": "C" 
			},
			{
				"x": 0.9075148673,
				"y": 3.4250299652,
				"z": 2.9426566788,
				"element": "C" 
			},
			{
				"x": -0.1762142149,
				"y": 3.6770021942,
				"z": 3.7123020392,
				"element": "C" 
			},
			{
				"x": -1.2048941915,
				"y": 2.7847062905,
				"z": 3.4757407016,
				"element": "O" 
			},
			{
				"x": 2.6384041083,
				"y": 1.768145486,
				"z": -1.1950768293,
				"element": "H" 
			},
			{
				"x": 2.1200507383,
				"y": 3.3708082907,
				"z": -0.5493127995,
				"element": "H" 
			},
			{
				"x": 3.8092042564,
				"y": 2.823376647,
				"z": -0.362536162,
				"element": "H" 
			},
			{
				"x": 0.7853180317,
				"y": -2.3159119733,
				"z": -1.5359524503,
				"element": "H" 
			},
			{
				"x": -1.380936976,
				"y": -3.5492152932,
				"z": -1.4962339309,
				"element": "H" 
			},
			{
				"x": -2.1585134747,
				"y": -3.4481708614,
				"z": 0.101571141,
				"element": "H" 
			},
			{
				"x": -2.7565072111,
				"y": -2.4525844272,
				"z": -1.2273132939,
				"element": "H" 
			},
			{
				"x": -2.4578390683,
				"y": 0.6026664814,
				"z": 2.2622638239,
				"element": "H" 
			},
			{
				"x": 1.8414951788,
				"y": 3.9655928435,
				"z": 2.936004038,
				"element": "H" 
			},
			{
				"x": -0.3876241628,
				"y": 4.4243951741,
				"z": 4.4614861712,
				"element": "H" 
			}
		],
		 "valence_orbital": [ 
			{
				"type": "occ",
				"energy": -0.27489,
				"method": "rhf"
			},
			{
				"type": "occ",
				"energy": -0.25619,
				"method": "rhf"
			},
			{
				"type": "occ",
				"energy": -0.24532,
				"method": "rhf"
			},
			{
				"type": "occ",
				"energy": -0.2336,
				"method": "rhf"
			},
			{
				"type": "occ",
				"energy": -0.21351,
				"method": "rhf"
			},
			{
				"type": "unocc",
				"energy": -0.04954,
				"method": "rhf"
			},
			{
				"type": "unocc",
				"energy": -0.01624,
				"method": "rhf"
			},
			{
				"type": "unocc",
				"energy": -0.0003,
				"method": "rhf"
			},
			{
				"type": "unocc",
				"energy": 0.04446,
				"method": "rhf"
			},
			{
				"type": "unocc",
				"energy": 0.0912,
				"method": "rhf"
			}
		],
		"cosmo_sigma_profile": { 
			"-0.025": 0.0,
			"-0.024": 0.0,
			"-0.023": 0.0,
			"-0.022": 0.0,
			"-0.021": 0.0,
			"-0.02": 0.0,
			"-0.019": 0.0,
			"-0.018": 0.0,
			"-0.017": 0.0,
			"-0.016": 0.0,
			"-0.015": 0.0,
			"-0.014": 0.0,
			"-0.013": 0.0,
			"-0.012": 0.0,
			"-0.011": 0.0,
			"-0.01": 1.09279783518,
			"-0.009": 1.88537288248,
			"-0.008": 3.97807007933,
			"-0.007": 6.78955570248,
			"-0.006": 12.3186533796,
			"-0.005": 15.9654467091,
			"-0.004": 15.9635942968,
			"-0.003": 20.2046106867,
			"-0.002": 25.2137090199,
			"-0.001": 22.5386654587,
			"0.0": 21.3150834995,
			"0.001": 29.178791077,
			"0.002": 19.7052467024,
			"0.003": 11.3819949551,
			"0.004": 8.38844979109,
			"0.005": 4.74494977834,
			"0.006": 5.04991088298,
			"0.007": 3.26881293863,
			"0.008": 3.53132878134,
			"0.009": 2.5010394558,
			"0.01": 2.61558550126,
			"0.011": 2.65664418036,
			"0.012": 2.59384323295,
			"0.013": 4.39335263362,
			"0.014": 2.70314721749,
			"0.015": 0.856709848842,
			"0.016": 0.0,
			"0.017": 0.0,
			"0.018": 0.0,
			"0.019": 0.0,
			"0.02": 0.0,
			"0.021": 0.0,
			"0.022": 0.0,
			"0.023": 0.0,
			"0.024": 0.0,
			"0.025": 0.0
		}
	}
}
