{
	 "smiles": "CC(=O)C1=CNC=C1C1=CC=CC=C1", 
	 "Tm": 430.15, 
	 "num_atms": 25, 
	 "gaussian": { 
		 "optdone": 1, 
		 "sigma_profile": "yes", 
		 "theory": "DFT", 
		 "functional": "B3LYP", 
		 "basiset": "6-31G**", 
		 "properties": { 
			 "R2extent": 3159.1188, 
			 "electric_dipole_moment_norm": 4.08668034228, 
			 "electric_quadrupole_moment_norm": 18.7582357563, 
			 "total_energy": -593.878136829, 
			 "HOMO_LUMO_gap": 0.2009, 
			 "cosmo_polarized_energy": -13.78, 
			 "cosmo_cavitation_energy": 29.08, 
			 "cosmo_dispersion_energy": -20.46, 
			 "cosmo_repulsion_energy": 1.63, 
			 "cosmo_total_nonelectrostatic_energy": 10.24, 
			 "SMD_solvation_energy": 6.01 
		},
		"coords": [
			{
				"x": 0.3001321424,
				"y": -0.6577022371,
				"z": 1.845982475,
				"element": "C" 
			},
			{
				"x": 1.0250049102,
				"y": -1.8738197968,
				"z": 1.3001465122,
				"element": "C" 
			},
			{
				"x": 1.5133931692,
				"y": -2.7000314489,
				"z": 2.0640336384,
				"element": "O" 
			},
			{
				"x": 1.1402373352,
				"y": -2.058766052,
				"z": -0.1633667915,
				"element": "C" 
			},
			{
				"x": 1.7976346202,
				"y": -3.1610438175,
				"z": -0.6924560096,
				"element": "C" 
			},
			{
				"x": 1.7513506567,
				"y": -3.0752022114,
				"z": -2.0486430819,
				"element": "N" 
			},
			{
				"x": 1.0735857671,
				"y": -1.9333975052,
				"z": -2.4236221819,
				"element": "C" 
			},
			{
				"x": 0.6750149206,
				"y": -1.2699915471,
				"z": -1.2833473214,
				"element": "C" 
			},
			{
				"x": -0.0857507238,
				"y": 0.0084307737,
				"z": -1.2901309392,
				"element": "C" 
			},
			{
				"x": -1.4891180994,
				"y": 0.0078301827,
				"z": -1.3119878532,
				"element": "C" 
			},
			{
				"x": -2.2034029214,
				"y": 1.2067809827,
				"z": -1.3374748473,
				"element": "C" 
			},
			{
				"x": -1.5252245658,
				"y": 2.4271055365,
				"z": -1.3439646041,
				"element": "C" 
			},
			{
				"x": -0.1292603514,
				"y": 2.4414001984,
				"z": -1.3278210958,
				"element": "C" 
			},
			{
				"x": 0.5839604054,
				"y": 1.2418161268,
				"z": -1.3023833976,
				"element": "C" 
			},
			{
				"x": 0.7711541673,
				"y": 0.2682640355,
				"z": 1.5003381734,
				"element": "H" 
			},
			{
				"x": -0.7364603427,
				"y": -0.6278937102,
				"z": 1.4948000512,
				"element": "H" 
			},
			{
				"x": 0.3213205402,
				"y": -0.7000665103,
				"z": 2.9358093717,
				"element": "H" 
			},
			{
				"x": 2.2796324599,
				"y": -3.9746644579,
				"z": -0.1732152062,
				"element": "H" 
			},
			{
				"x": 2.1521600811,
				"y": -3.7454062863,
				"z": -2.685787278,
				"element": "H" 
			},
			{
				"x": 0.9267652895,
				"y": -1.6804368785,
				"z": -3.463109565,
				"element": "H" 
			},
			{
				"x": -2.0173887332,
				"y": -0.9414288,
				"z": -1.3108384851,
				"element": "H" 
			},
			{
				"x": -3.2895766682,
				"y": 1.1871888272,
				"z": -1.3547885721,
				"element": "H" 
			},
			{
				"x": -2.0806731648,
				"y": 3.3604133905,
				"z": -1.3637162426,
				"element": "H" 
			},
			{
				"x": 0.405891167,
				"y": 3.3869028319,
				"z": -1.3376115648,
				"element": "H" 
			},
			{
				"x": 1.6702179385,
				"y": 1.2536183732,
				"z": -1.2937451847,
				"element": "H" 
			}
		],
		 "valence_orbital": [ 
			{
				"type": "occ",
				"energy": -0.25175,
				"method": "rhf"
			},
			{
				"type": "occ",
				"energy": -0.24824,
				"method": "rhf"
			},
			{
				"type": "occ",
				"energy": -0.24679,
				"method": "rhf"
			},
			{
				"type": "occ",
				"energy": -0.22913,
				"method": "rhf"
			},
			{
				"type": "occ",
				"energy": -0.22008,
				"method": "rhf"
			},
			{
				"type": "unocc",
				"energy": -0.01918,
				"method": "rhf"
			},
			{
				"type": "unocc",
				"energy": -0.00489,
				"method": "rhf"
			},
			{
				"type": "unocc",
				"energy": -0.00418,
				"method": "rhf"
			},
			{
				"type": "unocc",
				"energy": 0.038,
				"method": "rhf"
			},
			{
				"type": "unocc",
				"energy": 0.06905,
				"method": "rhf"
			}
		],
		"cosmo_sigma_profile": { 
			"-0.025": 0.0,
			"-0.024": 0.0,
			"-0.023": 0.0,
			"-0.022": 0.0,
			"-0.021": 0.0,
			"-0.02": 0.0,
			"-0.019": 0.0,
			"-0.018": 0.0,
			"-0.017": 0.201846956591,
			"-0.016": 1.94445714777,
			"-0.015": 1.35672558734,
			"-0.014": 1.09189908783,
			"-0.013": 1.59538827491,
			"-0.012": 1.04106836091,
			"-0.011": 1.24380533566,
			"-0.01": 1.130592963,
			"-0.009": 1.22397730602,
			"-0.008": 4.22695213865,
			"-0.007": 4.2084390032,
			"-0.006": 6.5431073558,
			"-0.005": 11.9659222711,
			"-0.004": 17.9416603344,
			"-0.003": 18.6474647232,
			"-0.002": 18.1077828722,
			"-0.001": 18.7602200517,
			"0.0": 18.5756398463,
			"0.001": 14.3995899311,
			"0.002": 15.4623994429,
			"0.003": 14.1435580764,
			"0.004": 15.8726985984,
			"0.005": 15.5472165925,
			"0.006": 7.9433537999,
			"0.007": 2.03796896571,
			"0.008": 1.28905518185,
			"0.009": 2.18540498287,
			"0.01": 1.94086848591,
			"0.011": 1.57506867629,
			"0.012": 3.18627597959,
			"0.013": 4.44656475226,
			"0.014": 2.03445520353,
			"0.015": 0.268475924345,
			"0.016": 0.0,
			"0.017": 0.0,
			"0.018": 0.0,
			"0.019": 0.0,
			"0.02": 0.0,
			"0.021": 0.0,
			"0.022": 0.0,
			"0.023": 0.0,
			"0.024": 0.0,
			"0.025": 0.0
		}
	}
}
