{
	 "smiles": "CC1=C(C)C2=C(CC2=O)C2=C1CC2=O", 
	 "Tm": 434.15, 
	 "num_atms": 24, 
	 "gaussian": { 
		 "optdone": 1, 
		 "sigma_profile": "yes", 
		 "theory": "DFT", 
		 "functional": "B3LYP", 
		 "basiset": "6-31G**", 
		 "properties": { 
			 "R2extent": 2806.3089, 
			 "electric_dipole_moment_norm": 3.96544985594, 
			 "electric_quadrupole_moment_norm": 14.8022207003, 
			 "total_energy": -613.68448479, 
			 "HOMO_LUMO_gap": 0.18014, 
			 "cosmo_polarized_energy": -8.36, 
			 "cosmo_cavitation_energy": 28.47, 
			 "cosmo_dispersion_energy": -20.26, 
			 "cosmo_repulsion_energy": 1.62, 
			 "cosmo_total_nonelectrostatic_energy": 9.83, 
			 "SMD_solvation_energy": 5.59 
		},
		"coords": [
			{
				"x": 1.0774893366,
				"y": -2.6199219068,
				"z": 0.9892834206,
				"element": "C" 
			},
			{
				"x": 0.500606742,
				"y": -1.2793510896,
				"z": 0.6065558979,
				"element": "C" 
			},
			{
				"x": 1.2679152309,
				"y": -0.0873452954,
				"z": 0.7082453182,
				"element": "C" 
			},
			{
				"x": 2.6911669418,
				"y": -0.0880685953,
				"z": 1.1997586866,
				"element": "C" 
			},
			{
				"x": 0.6417558773,
				"y": 1.109481273,
				"z": 0.3281963594,
				"element": "C" 
			},
			{
				"x": -0.6740592337,
				"y": 1.2410312401,
				"z": -0.1439894679,
				"element": "C" 
			},
			{
				"x": -0.6105312394,
				"y": 2.7516591604,
				"z": -0.3278557844,
				"element": "C" 
			},
			{
				"x": 0.866499949,
				"y": 2.584648039,
				"z": 0.2049769621,
				"element": "C" 
			},
			{
				"x": 1.774751399,
				"y": 3.3495096173,
				"z": 0.414659095,
				"element": "O" 
			},
			{
				"x": -1.4159413963,
				"y": 0.0759664891,
				"z": -0.2406915186,
				"element": "C" 
			},
			{
				"x": -0.8074369924,
				"y": -1.1413086209,
				"z": 0.1360211608,
				"element": "C" 
			},
			{
				"x": -2.0376499395,
				"y": -1.9937541688,
				"z": -0.1716524876,
				"element": "C" 
			},
			{
				"x": -2.6945084858,
				"y": -0.6222302547,
				"z": -0.5861867448,
				"element": "C" 
			},
			{
				"x": -3.7797103285,
				"y": -0.3096699183,
				"z": -1.0034357132,
				"element": "O" 
			},
			{
				"x": 1.9607731714,
				"y": -2.8645829434,
				"z": 0.3873953034,
				"element": "H" 
			},
			{
				"x": 0.3450774603,
				"y": -3.418023178,
				"z": 0.8483646128,
				"element": "H" 
			},
			{
				"x": 1.3949128032,
				"y": -2.6367199457,
				"z": 2.0386732765,
				"element": "H" 
			},
			{
				"x": 3.3285250289,
				"y": -0.7179176868,
				"z": 0.5674646274,
				"element": "H" 
			},
			{
				"x": 3.1001727269,
				"y": 0.9239215163,
				"z": 1.2026254337,
				"element": "H" 
			},
			{
				"x": 2.7590683347,
				"y": -0.4924719427,
				"z": 2.2169081969,
				"element": "H" 
			},
			{
				"x": -0.6883416671,
				"y": 3.1215353684,
				"z": -1.3557053908,
				"element": "H" 
			},
			{
				"x": -1.2654665667,
				"y": 3.3491516124,
				"z": 0.3150976261,
				"element": "H" 
			},
			{
				"x": -1.9435002606,
				"y": -2.714846877,
				"z": -0.991295448,
				"element": "H" 
			},
			{
				"x": -2.520168892,
				"y": -2.4858918927,
				"z": 0.6801865779,
				"element": "H" 
			}
		],
		 "valence_orbital": [ 
			{
				"type": "occ",
				"energy": -0.33828,
				"method": "rhf"
			},
			{
				"type": "occ",
				"energy": -0.26468,
				"method": "rhf"
			},
			{
				"type": "occ",
				"energy": -0.25985,
				"method": "rhf"
			},
			{
				"type": "occ",
				"energy": -0.25694,
				"method": "rhf"
			},
			{
				"type": "occ",
				"energy": -0.25172,
				"method": "rhf"
			},
			{
				"type": "unocc",
				"energy": -0.07158,
				"method": "rhf"
			},
			{
				"type": "unocc",
				"energy": -0.05469,
				"method": "rhf"
			},
			{
				"type": "unocc",
				"energy": 0.01381,
				"method": "rhf"
			},
			{
				"type": "unocc",
				"energy": 0.06291,
				"method": "rhf"
			},
			{
				"type": "unocc",
				"energy": 0.07599,
				"method": "rhf"
			}
		],
		"cosmo_sigma_profile": { 
			"-0.025": 0.0,
			"-0.024": 0.0,
			"-0.023": 0.0,
			"-0.022": 0.0270119034353,
			"-0.021": 0.0823287105647,
			"-0.02": 0.0,
			"-0.019": 0.090763663129,
			"-0.018": 0.334961655871,
			"-0.017": 0.109923004654,
			"-0.016": 0.248093329982,
			"-0.015": 0.0440675493644,
			"-0.014": 0.14539851445,
			"-0.013": 0.0148046475497,
			"-0.012": 0.0,
			"-0.011": 0.174900042121,
			"-0.01": 0.215684766611,
			"-0.009": 0.0396236102679,
			"-0.008": 0.00318273678268,
			"-0.007": 1.20484923469,
			"-0.006": 10.0886157916,
			"-0.005": 21.8685051974,
			"-0.004": 22.7625377151,
			"-0.003": 23.9472599523,
			"-0.002": 25.9399506752,
			"-0.001": 26.1870917337,
			"0.0": 21.724764368,
			"0.001": 14.1125623193,
			"0.002": 11.3157795182,
			"0.003": 2.70204073573,
			"0.004": 3.70375862642,
			"0.005": 3.18346114527,
			"0.006": 2.73109461237,
			"0.007": 2.99127371391,
			"0.008": 3.27153077518,
			"0.009": 4.61698016915,
			"0.01": 4.77728577256,
			"0.011": 8.20532161546,
			"0.012": 7.18243877202,
			"0.013": 2.51514264877,
			"0.014": 0.0346415147456,
			"0.015": 0.127851896329,
			"0.016": 0.226561802671,
			"0.017": 0.0,
			"0.018": 0.267917715817,
			"0.019": 0.000877343182587,
			"0.02": 0.0,
			"0.021": 0.0,
			"0.022": 0.0,
			"0.023": 0.0,
			"0.024": 0.0,
			"0.025": 0.0
		}
	}
}
