{
	 "smiles": "CCOC1=C(C=CC(NC(C)=O)=C1)C(=O)OC", 
	 "Tm": 421.15, 
	 "num_atms": 32, 
	 "gaussian": { 
		 "optdone": 1, 
		 "sigma_profile": "yes", 
		 "theory": "DFT", 
		 "functional": "B3LYP", 
		 "basiset": "6-31G**", 
		 "properties": { 
			 "R2extent": 5443.7752, 
			 "electric_dipole_moment_norm": 2.8241331077, 
			 "electric_quadrupole_moment_norm": 33.451463477, 
			 "total_energy": -821.986896307, 
			 "HOMO_LUMO_gap": 0.18641, 
			 "cosmo_polarized_energy": -18.14, 
			 "cosmo_cavitation_energy": 36.37, 
			 "cosmo_dispersion_energy": -25.45, 
			 "cosmo_repulsion_energy": 1.99, 
			 "cosmo_total_nonelectrostatic_energy": 12.91, 
			 "SMD_solvation_energy": 8.85 
		},
		"coords": [
			{
				"x": -2.1172497048,
				"y": -0.6374518051,
				"z": -3.3888864415,
				"element": "C" 
			},
			{
				"x": -1.1929032613,
				"y": -1.08078871,
				"z": -2.2704103356,
				"element": "C" 
			},
			{
				"x": -0.7158071538,
				"y": 0.1002327652,
				"z": -1.6060863893,
				"element": "O" 
			},
			{
				"x": 0.0983696573,
				"y": -0.1125235798,
				"z": -0.5250666564,
				"element": "C" 
			},
			{
				"x": 1.5012624902,
				"y": 0.0047499104,
				"z": -0.6206465774,
				"element": "C" 
			},
			{
				"x": 2.251180795,
				"y": -0.1227344597,
				"z": 0.5618433491,
				"element": "C" 
			},
			{
				"x": 1.6524217531,
				"y": -0.3900865983,
				"z": 1.7797885772,
				"element": "C" 
			},
			{
				"x": 0.2539372949,
				"y": -0.5249538726,
				"z": 1.8611437238,
				"element": "C" 
			},
			{
				"x": -0.2981557103,
				"y": -0.7895277432,
				"z": 3.1265821162,
				"element": "N" 
			},
			{
				"x": -1.6209680916,
				"y": -0.9961576059,
				"z": 3.4726670208,
				"element": "C" 
			},
			{
				"x": -1.8495937784,
				"y": -1.2119507665,
				"z": 4.9618103495,
				"element": "C" 
			},
			{
				"x": -2.5445011972,
				"y": -0.9871469447,
				"z": 2.6739054671,
				"element": "O" 
			},
			{
				"x": -0.516874726,
				"y": -0.3777731065,
				"z": 0.7025183829,
				"element": "C" 
			},
			{
				"x": 2.2869569061,
				"y": 0.275972361,
				"z": -1.85737793,
				"element": "C" 
			},
			{
				"x": 3.4659462346,
				"y": 0.5839260498,
				"z": -1.8448932395,
				"element": "O" 
			},
			{
				"x": 1.5946767418,
				"y": 0.1179414255,
				"z": -3.006810794,
				"element": "O" 
			},
			{
				"x": 2.3475407126,
				"y": 0.3713069948,
				"z": -4.2026953817,
				"element": "C" 
			},
			{
				"x": -2.9633455045,
				"y": -0.071376289,
				"z": -2.9889151935,
				"element": "H" 
			},
			{
				"x": -1.5794941322,
				"y": 0.0001157132,
				"z": -4.0960832651,
				"element": "H" 
			},
			{
				"x": -2.5040599925,
				"y": -1.5086963961,
				"z": -3.926960819,
				"element": "H" 
			},
			{
				"x": -1.7219324237,
				"y": -1.7202660764,
				"z": -1.5499314574,
				"element": "H" 
			},
			{
				"x": -0.3371834312,
				"y": -1.6421214159,
				"z": -2.6663372874,
				"element": "H" 
			},
			{
				"x": 3.3269300411,
				"y": -0.0075274171,
				"z": 0.4890829971,
				"element": "H" 
			},
			{
				"x": 2.2621980016,
				"y": -0.49162876,
				"z": 2.6742463636,
				"element": "H" 
			},
			{
				"x": 0.3717185185,
				"y": -0.8318386537,
				"z": 3.8808526048,
				"element": "H" 
			},
			{
				"x": -2.6097851361,
				"y": -1.9853721205,
				"z": 5.0851081149,
				"element": "H" 
			},
			{
				"x": -0.949231907,
				"y": -1.4993164839,
				"z": 5.5124023068,
				"element": "H" 
			},
			{
				"x": -2.2438719023,
				"y": -0.288398296,
				"z": 5.3984828701,
				"element": "H" 
			},
			{
				"x": -1.5936796214,
				"y": -0.4474625401,
				"z": 0.7537456798,
				"element": "H" 
			},
			{
				"x": 3.1946865822,
				"y": -0.3151492815,
				"z": -4.2809230644,
				"element": "H" 
			},
			{
				"x": 1.649960534,
				"y": 0.2150096179,
				"z": -5.0256800696,
				"element": "H" 
			},
			{
				"x": 2.7266514114,
				"y": 1.3961940848,
				"z": -4.2108750221,
				"element": "H" 
			}
		],
		 "valence_orbital": [ 
			{
				"type": "occ",
				"energy": -0.26921,
				"method": "rhf"
			},
			{
				"type": "occ",
				"energy": -0.26577,
				"method": "rhf"
			},
			{
				"type": "occ",
				"energy": -0.25899,
				"method": "rhf"
			},
			{
				"type": "occ",
				"energy": -0.24487,
				"method": "rhf"
			},
			{
				"type": "occ",
				"energy": -0.2282,
				"method": "rhf"
			},
			{
				"type": "unocc",
				"energy": -0.04179,
				"method": "rhf"
			},
			{
				"type": "unocc",
				"energy": -0.00385,
				"method": "rhf"
			},
			{
				"type": "unocc",
				"energy": 0.01739,
				"method": "rhf"
			},
			{
				"type": "unocc",
				"energy": 0.05874,
				"method": "rhf"
			},
			{
				"type": "unocc",
				"energy": 0.0724,
				"method": "rhf"
			}
		],
		"cosmo_sigma_profile": { 
			"-0.025": 0.0,
			"-0.024": 0.0,
			"-0.023": 0.0,
			"-0.022": 0.0,
			"-0.021": 0.0,
			"-0.02": 0.0,
			"-0.019": 0.0,
			"-0.018": 0.0,
			"-0.017": 0.0,
			"-0.016": 0.320428351692,
			"-0.015": 1.37378091226,
			"-0.014": 1.57737972536,
			"-0.013": 1.875501607,
			"-0.012": 0.938830415082,
			"-0.011": 1.73120884339,
			"-0.01": 1.54031163416,
			"-0.009": 1.41801389015,
			"-0.008": 2.25570359507,
			"-0.007": 3.81427091241,
			"-0.006": 10.2964808739,
			"-0.005": 16.5240954924,
			"-0.004": 23.2059811262,
			"-0.003": 32.6935801355,
			"-0.002": 28.4189205776,
			"-0.001": 23.9875990821,
			"0.0": 22.8954868407,
			"0.001": 19.1682226348,
			"0.002": 17.4282939214,
			"0.003": 20.4386125745,
			"0.004": 8.67119686059,
			"0.005": 4.60377512028,
			"0.006": 5.89854580049,
			"0.007": 4.90423831398,
			"0.008": 3.82379176933,
			"0.009": 4.28384492274,
			"0.01": 3.67980567252,
			"0.011": 6.77693355982,
			"0.012": 8.2937801326,
			"0.013": 3.92714664716,
			"0.014": 1.14990208261,
			"0.015": 0.0238135323126,
			"0.016": 0.0,
			"0.017": 0.0,
			"0.018": 0.0,
			"0.019": 0.0,
			"0.02": 0.0,
			"0.021": 0.0,
			"0.022": 0.0,
			"0.023": 0.0,
			"0.024": 0.0,
			"0.025": 0.0
		}
	}
}
