{
	 "smiles": "CC(NC1=NC2=C(S1)C=CC=C2)C(O)=O", 
	 "Tm": 533.15, 
	 "num_atms": 25, 
	 "gaussian": { 
		 "optdone": 1, 
		 "sigma_profile": "yes", 
		 "theory": "DFT", 
		 "functional": "B3LYP", 
		 "basiset": "6-31G**", 
		 "properties": { 
			 "R2extent": 4519.0272, 
			 "electric_dipole_moment_norm": 4.62931650247, 
			 "electric_quadrupole_moment_norm": 18.6435638819, 
			 "total_energy": -1045.25422188, 
			 "HOMO_LUMO_gap": 0.19789, 
			 "cosmo_polarized_energy": -17.23, 
			 "cosmo_cavitation_energy": 31.08, 
			 "cosmo_dispersion_energy": -22.94, 
			 "cosmo_repulsion_energy": 1.76, 
			 "cosmo_total_nonelectrostatic_energy": 9.89, 
			 "SMD_solvation_energy": 4.8 
		},
		"coords": [
			{
				"x": 1.2993268129,
				"y": -2.5131902773,
				"z": -2.5032617469,
				"element": "C" 
			},
			{
				"x": 0.1434521931,
				"y": -2.4573333058,
				"z": -1.5044127402,
				"element": "C" 
			},
			{
				"x": 0.5107422395,
				"y": -1.8512656549,
				"z": -0.2100954708,
				"element": "N" 
			},
			{
				"x": 0.3369927233,
				"y": -0.4872102828,
				"z": -0.0336196895,
				"element": "C" 
			},
			{
				"x": -0.416336901,
				"y": 0.2564440492,
				"z": -0.7745581983,
				"element": "N" 
			},
			{
				"x": -0.4407569698,
				"y": 1.562637555,
				"z": -0.3016060024,
				"element": "C" 
			},
			{
				"x": 0.3414925789,
				"y": 1.8114446231,
				"z": 0.85184601,
				"element": "C" 
			},
			{
				"x": 1.1256588273,
				"y": 0.3139803906,
				"z": 1.3550287219,
				"element": "S" 
			},
			{
				"x": 0.4180786098,
				"y": 3.0771525691,
				"z": 1.4295632446,
				"element": "C" 
			},
			{
				"x": -0.3071363062,
				"y": 4.112229641,
				"z": 0.8382874784,
				"element": "C" 
			},
			{
				"x": -1.0876744529,
				"y": 3.8814575977,
				"z": -0.3042331042,
				"element": "C" 
			},
			{
				"x": -1.1603618699,
				"y": 2.6156890668,
				"z": -0.8794519101,
				"element": "C" 
			},
			{
				"x": -0.482703266,
				"y": -3.8472423484,
				"z": -1.2758542606,
				"element": "C" 
			},
			{
				"x": -1.0202115786,
				"y": -4.0361882566,
				"z": -0.0553470338,
				"element": "O" 
			},
			{
				"x": -0.5264280874,
				"y": -4.6922514039,
				"z": -2.1360464442,
				"element": "O" 
			},
			{
				"x": 1.6387748812,
				"y": -1.5030468922,
				"z": -2.7457699694,
				"element": "H" 
			},
			{
				"x": 0.9700396164,
				"y": -3.0121674931,
				"z": -3.416166165,
				"element": "H" 
			},
			{
				"x": 2.1429778611,
				"y": -3.0837070254,
				"z": -2.0990978697,
				"element": "H" 
			},
			{
				"x": -0.6538061783,
				"y": -1.8232141531,
				"z": -1.9069061515,
				"element": "H" 
			},
			{
				"x": 1.3822919212,
				"y": -2.2037496299,
				"z": 0.1715332881,
				"element": "H" 
			},
			{
				"x": 1.0215113226,
				"y": 3.2567069358,
				"z": 2.313527216,
				"element": "H" 
			},
			{
				"x": -0.2643511137,
				"y": 5.1070632043,
				"z": 1.2708602075,
				"element": "H" 
			},
			{
				"x": -1.6436943558,
				"y": 4.7024864078,
				"z": -0.7466357479,
				"element": "H" 
			},
			{
				"x": -1.7605794493,
				"y": 2.4259098679,
				"z": -1.7630924124,
				"element": "H" 
			},
			{
				"x": -0.8305990583,
				"y": -3.2343351848,
				"z": 0.4677087503,
				"element": "H" 
			}
		],
		 "valence_orbital": [ 
			{
				"type": "occ",
				"energy": -0.31072,
				"method": "rhf"
			},
			{
				"type": "occ",
				"energy": -0.29102,
				"method": "rhf"
			},
			{
				"type": "occ",
				"energy": -0.27008,
				"method": "rhf"
			},
			{
				"type": "occ",
				"energy": -0.24331,
				"method": "rhf"
			},
			{
				"type": "occ",
				"energy": -0.22807,
				"method": "rhf"
			},
			{
				"type": "unocc",
				"energy": -0.03018,
				"method": "rhf"
			},
			{
				"type": "unocc",
				"energy": -0.01418,
				"method": "rhf"
			},
			{
				"type": "unocc",
				"energy": -0.01198,
				"method": "rhf"
			},
			{
				"type": "unocc",
				"energy": 0.00605,
				"method": "rhf"
			},
			{
				"type": "unocc",
				"energy": 0.03114,
				"method": "rhf"
			}
		],
		"cosmo_sigma_profile": { 
			"-0.025": 0.0,
			"-0.024": 0.0,
			"-0.023": 0.0,
			"-0.022": 0.0,
			"-0.021": 0.0,
			"-0.02": 0.0,
			"-0.019": 0.0,
			"-0.018": 0.0,
			"-0.017": 0.0,
			"-0.016": 0.310800034465,
			"-0.015": 1.80847309767,
			"-0.014": 2.39085289734,
			"-0.013": 2.23870183575,
			"-0.012": 2.50266216383,
			"-0.011": 2.42276449832,
			"-0.01": 3.14327045457,
			"-0.009": 2.67318802432,
			"-0.008": 4.26472448643,
			"-0.007": 6.85099645875,
			"-0.006": 10.0215478039,
			"-0.005": 13.5992874396,
			"-0.004": 17.0502496284,
			"-0.003": 15.4575564313,
			"-0.002": 16.5281232447,
			"-0.001": 16.5256976844,
			"0.0": 17.656436478,
			"0.001": 14.4089416115,
			"0.002": 14.6251559125,
			"0.003": 17.8922195281,
			"0.004": 16.7336626084,
			"0.005": 13.6231365073,
			"0.006": 6.03199551046,
			"0.007": 3.80238530021,
			"0.008": 4.56970809617,
			"0.009": 4.40410407389,
			"0.01": 6.47797082496,
			"0.011": 5.82598090227,
			"0.012": 4.82052378152,
			"0.013": 1.5558682102,
			"0.014": 0.0252744687662,
			"0.015": 0.0,
			"0.016": 0.0,
			"0.017": 0.0,
			"0.018": 0.0,
			"0.019": 0.0,
			"0.02": 0.0,
			"0.021": 0.0,
			"0.022": 0.0,
			"0.023": 0.0,
			"0.024": 0.0,
			"0.025": 0.0
		}
	}
}
