{
	 "smiles": "CCCCCCCC(=O)CCC", 
	 "Tm": 277.65, 
	 "num_atms": 34, 
	 "gaussian": { 
		 "optdone": 1, 
		 "sigma_profile": "yes", 
		 "theory": "DFT", 
		 "functional": "B3LYP", 
		 "basiset": "6-31G**", 
		 "properties": { 
			 "R2extent": 4509.0289, 
			 "electric_dipole_moment_norm": 2.327481856, 
			 "electric_quadrupole_moment_norm": 7.61003720293, 
			 "total_energy": -507.687142204, 
			 "HOMO_LUMO_gap": 0.23222, 
			 "cosmo_polarized_energy": -6.35, 
			 "cosmo_cavitation_energy": 35.0, 
			 "cosmo_dispersion_energy": -24.43, 
			 "cosmo_repulsion_energy": 2.05, 
			 "cosmo_total_nonelectrostatic_energy": 12.62, 
			 "SMD_solvation_energy": 5.62 
		},
		"coords": [
			{
				"x": 4.1823155652,
				"y": -1.8519262434,
				"z": -1.2475999867,
				"element": "C" 
			},
			{
				"x": 3.1530881821,
				"y": -1.0511142723,
				"z": -0.4430516547,
				"element": "C" 
			},
			{
				"x": 2.786036286,
				"y": -1.7187287928,
				"z": 0.8899523627,
				"element": "C" 
			},
			{
				"x": 1.8061895655,
				"y": -0.9192941335,
				"z": 1.7644580115,
				"element": "C" 
			},
			{
				"x": 0.3966435291,
				"y": -0.7683575313,
				"z": 1.1755087917,
				"element": "C" 
			},
			{
				"x": -0.5649274066,
				"y": -0.0296474294,
				"z": 2.1165311821,
				"element": "C" 
			},
			{
				"x": -1.9836272027,
				"y": 0.1155628043,
				"z": 1.5574043514,
				"element": "C" 
			},
			{
				"x": -2.1127509342,
				"y": 1.1135595209,
				"z": 0.4097995008,
				"element": "C" 
			},
			{
				"x": -1.2284969158,
				"y": 1.9092272942,
				"z": 0.146498941,
				"element": "O" 
			},
			{
				"x": -3.411443269,
				"y": 1.0596828071,
				"z": -0.3905358263,
				"element": "C" 
			},
			{
				"x": -3.6525647178,
				"y": 2.2767954112,
				"z": -1.289560162,
				"element": "C" 
			},
			{
				"x": -3.9942384051,
				"y": 3.5509694901,
				"z": -0.509661899,
				"element": "C" 
			},
			{
				"x": 5.1142220074,
				"y": -1.9789873476,
				"z": -0.6844867318,
				"element": "H" 
			},
			{
				"x": 4.4294165256,
				"y": -1.3543847961,
				"z": -2.1912454355,
				"element": "H" 
			},
			{
				"x": 3.8054133981,
				"y": -2.8527248571,
				"z": -1.4887108433,
				"element": "H" 
			},
			{
				"x": 2.2511977818,
				"y": -0.9091314738,
				"z": -1.0512033791,
				"element": "H" 
			},
			{
				"x": 3.5456096018,
				"y": -0.0443610953,
				"z": -0.2442114238,
				"element": "H" 
			},
			{
				"x": 3.7087677354,
				"y": -1.890277742,
				"z": 1.4612934934,
				"element": "H" 
			},
			{
				"x": 2.365541691,
				"y": -2.7156293626,
				"z": 0.6916737947,
				"element": "H" 
			},
			{
				"x": 1.7285713776,
				"y": -1.4093716887,
				"z": 2.7449743606,
				"element": "H" 
			},
			{
				"x": 2.2245832535,
				"y": 0.0787881734,
				"z": 1.9573134128,
				"element": "H" 
			},
			{
				"x": 0.4444428003,
				"y": -0.2269831148,
				"z": 0.2244270658,
				"element": "H" 
			},
			{
				"x": -0.0086375544,
				"y": -1.7665786207,
				"z": 0.9510854605,
				"element": "H" 
			},
			{
				"x": -0.6159198134,
				"y": -0.5607415869,
				"z": 3.0757024626,
				"element": "H" 
			},
			{
				"x": -0.1692652399,
				"y": 0.9705648805,
				"z": 2.3260568927,
				"element": "H" 
			},
			{
				"x": -2.3885363243,
				"y": -0.8536850701,
				"z": 1.2340033956,
				"element": "H" 
			},
			{
				"x": -2.6719242291,
				"y": 0.4648928835,
				"z": 2.3421103027,
				"element": "H" 
			},
			{
				"x": -3.3589685612,
				"y": 0.1403166011,
				"z": -0.993578247,
				"element": "H" 
			},
			{
				"x": -4.2507146415,
				"y": 0.9006799225,
				"z": 0.3010956797,
				"element": "H" 
			},
			{
				"x": -4.4654480247,
				"y": 2.0419589779,
				"z": -1.9871321357,
				"element": "H" 
			},
			{
				"x": -2.7535823397,
				"y": 2.4473778072,
				"z": -1.8910539099,
				"element": "H" 
			},
			{
				"x": -4.1742894,
				"y": 4.3906103592,
				"z": -1.1886717761,
				"element": "H" 
			},
			{
				"x": -3.174235825,
				"y": 3.8321101985,
				"z": 0.1571750115,
				"element": "H" 
			},
			{
				"x": -4.8977684962,
				"y": 3.4160280268,
				"z": 0.0970389373,
				"element": "H" 
			}
		],
		 "valence_orbital": [ 
			{
				"type": "occ",
				"energy": -0.32369,
				"method": "rhf"
			},
			{
				"type": "occ",
				"energy": -0.31436,
				"method": "rhf"
			},
			{
				"type": "occ",
				"energy": -0.3055,
				"method": "rhf"
			},
			{
				"type": "occ",
				"energy": -0.30435,
				"method": "rhf"
			},
			{
				"type": "occ",
				"energy": -0.24204,
				"method": "rhf"
			},
			{
				"type": "unocc",
				"energy": -0.00982,
				"method": "rhf"
			},
			{
				"type": "unocc",
				"energy": 0.08016,
				"method": "rhf"
			},
			{
				"type": "unocc",
				"energy": 0.09741,
				"method": "rhf"
			},
			{
				"type": "unocc",
				"energy": 0.11119,
				"method": "rhf"
			},
			{
				"type": "unocc",
				"energy": 0.11875,
				"method": "rhf"
			}
		],
		"cosmo_sigma_profile": { 
			"-0.025": 0.0,
			"-0.024": 0.0,
			"-0.023": 0.0,
			"-0.022": 0.0,
			"-0.021": 0.0,
			"-0.02": 0.0,
			"-0.019": 0.0,
			"-0.018": 0.0,
			"-0.017": 0.0,
			"-0.016": 0.0,
			"-0.015": 0.0,
			"-0.014": 0.0,
			"-0.013": 0.0,
			"-0.012": 0.0,
			"-0.011": 0.0,
			"-0.01": 0.0,
			"-0.009": 0.0,
			"-0.008": 0.0,
			"-0.007": 0.0,
			"-0.006": 2.01432765631,
			"-0.005": 9.41413029787,
			"-0.004": 10.4138609935,
			"-0.003": 15.5708782211,
			"-0.002": 38.6483908108,
			"-0.001": 53.735280604,
			"0.0": 50.0649555804,
			"0.001": 44.0276867104,
			"0.002": 20.1967533757,
			"0.003": 3.71115132486,
			"0.004": 2.01978364702,
			"0.005": 1.92140164604,
			"0.006": 1.74551929191,
			"0.007": 1.96051233323,
			"0.008": 2.30673797099,
			"0.009": 1.91599028509,
			"0.01": 1.55809321572,
			"0.011": 2.08824852125,
			"0.012": 3.22473253974,
			"0.013": 2.27668206087,
			"0.014": 0.0201065961148,
			"0.015": 0.0,
			"0.016": 0.0,
			"0.017": 0.0,
			"0.018": 0.0,
			"0.019": 0.0,
			"0.02": 0.0,
			"0.021": 0.0,
			"0.022": 0.0,
			"0.023": 0.0,
			"0.024": 0.0,
			"0.025": 0.0
		}
	}
}
