{
	 "smiles": "NCC(O)CS(=O)(=O)C1=CC=CS1", 
	 "Tm": 385.15, 
	 "num_atms": 24, 
	 "gaussian": { 
		 "optdone": 1, 
		 "sigma_profile": "yes", 
		 "theory": "DFT", 
		 "functional": "B3LYP", 
		 "basiset": "6-31G**", 
		 "properties": { 
			 "R2extent": 3548.0623, 
			 "electric_dipole_moment_norm": 4.55920999845, 
			 "electric_quadrupole_moment_norm": 26.754085109, 
			 "total_energy": -1350.06054242, 
			 "HOMO_LUMO_gap": 0.1882, 
			 "cosmo_polarized_energy": -24.31, 
			 "cosmo_cavitation_energy": 30.0, 
			 "cosmo_dispersion_energy": -22.33, 
			 "cosmo_repulsion_energy": 1.7, 
			 "cosmo_total_nonelectrostatic_energy": 9.37, 
			 "SMD_solvation_energy": 4.0 
		},
		"coords": [
			{
				"x": -1.6840923653,
				"y": -2.7474904303,
				"z": -0.2294590418,
				"element": "N" 
			},
			{
				"x": -0.5029341121,
				"y": -2.9803353188,
				"z": 0.5712293749,
				"element": "C" 
			},
			{
				"x": 0.6248736372,
				"y": -2.0338225386,
				"z": 0.1500126417,
				"element": "C" 
			},
			{
				"x": 1.012447528,
				"y": -2.2533464512,
				"z": -1.2027035843,
				"element": "O" 
			},
			{
				"x": 0.3538856241,
				"y": -0.5338200224,
				"z": 0.3053508022,
				"element": "C" 
			},
			{
				"x": -1.1174975154,
				"y": 0.2446553471,
				"z": -0.499410737,
				"element": "S" 
			},
			{
				"x": -1.2697948289,
				"y": -0.2304430027,
				"z": -1.8803935873,
				"element": "O" 
			},
			{
				"x": -2.2270815428,
				"y": 0.2808373296,
				"z": 0.4631172697,
				"element": "O" 
			},
			{
				"x": -0.5348184083,
				"y": 1.9327939706,
				"z": -0.6342546632,
				"element": "C" 
			},
			{
				"x": 0.0977350455,
				"y": 2.4821975588,
				"z": -1.7198621721,
				"element": "C" 
			},
			{
				"x": 0.4226407723,
				"y": 3.8546192563,
				"z": -1.5182153753,
				"element": "C" 
			},
			{
				"x": 0.027584871,
				"y": 4.3138917748,
				"z": -0.2884986535,
				"element": "C" 
			},
			{
				"x": -0.7618278186,
				"y": 3.0895709232,
				"z": 0.6461016181,
				"element": "S" 
			},
			{
				"x": -1.4881014434,
				"y": -2.8405668214,
				"z": -1.220184936,
				"element": "H" 
			},
			{
				"x": -2.4580826349,
				"y": -3.3486008688,
				"z": 0.0265628748,
				"element": "H" 
			},
			{
				"x": -0.74244334,
				"y": -2.8002668572,
				"z": 1.6268879276,
				"element": "H" 
			},
			{
				"x": -0.0883462407,
				"y": -4.0093437532,
				"z": 0.5196432783,
				"element": "H" 
			},
			{
				"x": 1.4797196859,
				"y": -2.2267697641,
				"z": 0.8229228994,
				"element": "H" 
			},
			{
				"x": 1.3031681415,
				"y": -3.1717363216,
				"z": -1.2803605724,
				"element": "H" 
			},
			{
				"x": 0.2496936513,
				"y": -0.27138553,
				"z": 1.3611826852,
				"element": "H" 
			},
			{
				"x": 1.2088481144,
				"y": 0.0024203679,
				"z": -0.1125659818,
				"element": "H" 
			},
			{
				"x": 0.3006514085,
				"y": 1.9186133833,
				"z": -2.6225950577,
				"element": "H" 
			},
			{
				"x": 0.9184570717,
				"y": 4.4742036693,
				"z": -2.2566230075,
				"element": "H" 
			},
			{
				"x": 0.1380146989,
				"y": 5.3105240993,
				"z": 0.117615998,
				"element": "H" 
			}
		],
		 "valence_orbital": [ 
			{
				"type": "occ",
				"energy": -0.28358,
				"method": "rhf"
			},
			{
				"type": "occ",
				"energy": -0.26994,
				"method": "rhf"
			},
			{
				"type": "occ",
				"energy": -0.26208,
				"method": "rhf"
			},
			{
				"type": "occ",
				"energy": -0.25027,
				"method": "rhf"
			},
			{
				"type": "occ",
				"energy": -0.22481,
				"method": "rhf"
			},
			{
				"type": "unocc",
				"energy": -0.03661,
				"method": "rhf"
			},
			{
				"type": "unocc",
				"energy": 0.02345,
				"method": "rhf"
			},
			{
				"type": "unocc",
				"energy": 0.0406,
				"method": "rhf"
			},
			{
				"type": "unocc",
				"energy": 0.05361,
				"method": "rhf"
			},
			{
				"type": "unocc",
				"energy": 0.06577,
				"method": "rhf"
			}
		],
		"cosmo_sigma_profile": { 
			"-0.025": 0.0,
			"-0.024": 0.0,
			"-0.023": 0.0,
			"-0.022": 0.0,
			"-0.021": 0.0,
			"-0.02": 0.0,
			"-0.019": 0.0,
			"-0.018": 0.0,
			"-0.017": 0.0,
			"-0.016": 0.440282917282,
			"-0.015": 0.888407816263,
			"-0.014": 1.37655226811,
			"-0.013": 0.982527883137,
			"-0.012": 0.881862292123,
			"-0.011": 1.327856295,
			"-0.01": 2.82144200951,
			"-0.009": 4.87530795258,
			"-0.008": 8.19496521655,
			"-0.007": 13.0435734245,
			"-0.006": 17.3376297261,
			"-0.005": 20.5630951855,
			"-0.004": 15.8674370317,
			"-0.003": 13.5952183601,
			"-0.002": 13.6975647946,
			"-0.001": 11.9445026907,
			"0.0": 8.53601305539,
			"0.001": 12.7613061555,
			"0.002": 14.9677067942,
			"0.003": 14.1564570254,
			"0.004": 7.45227546177,
			"0.005": 3.84076696699,
			"0.006": 4.07069745732,
			"0.007": 3.76986645143,
			"0.008": 2.35514565275,
			"0.009": 3.38830001265,
			"0.01": 6.03223049434,
			"0.011": 8.70175067759,
			"0.012": 8.42892354031,
			"0.013": 5.10900690944,
			"0.014": 2.56544242184,
			"0.015": 2.20871005762,
			"0.016": 1.05931057292,
			"0.017": 0.685067042203,
			"0.018": 0.285790191797,
			"0.019": 0.000564428519497,
			"0.02": 0.0,
			"0.021": 0.0,
			"0.022": 0.0,
			"0.023": 0.0,
			"0.024": 0.0,
			"0.025": 0.0
		}
	}
}
