{
	 "smiles": "CCOC1=CC(CNC(=O)CCl)=CC=C1", 
	 "Tm": 371.15, 
	 "num_atms": 29, 
	 "gaussian": { 
		 "optdone": 1, 
		 "sigma_profile": "yes", 
		 "theory": "DFT", 
		 "functional": "B3LYP", 
		 "basiset": "6-31G**", 
		 "properties": { 
			 "R2extent": 4708.1551, 
			 "electric_dipole_moment_norm": 3.42416154117, 
			 "electric_quadrupole_moment_norm": 15.0825540831, 
			 "total_energy": -1093.00617737, 
			 "HOMO_LUMO_gap": 0.20211, 
			 "cosmo_polarized_energy": -14.23, 
			 "cosmo_cavitation_energy": 34.13, 
			 "cosmo_dispersion_energy": -23.56, 
			 "cosmo_repulsion_energy": 1.91, 
			 "cosmo_total_nonelectrostatic_energy": 12.48, 
			 "SMD_solvation_energy": 6.36 
		},
		"coords": [
			{
				"x": 2.7140936778,
				"y": 2.8098090918,
				"z": 0.3010395486,
				"element": "C" 
			},
			{
				"x": 1.2775719908,
				"y": 3.2490133532,
				"z": 0.5651937675,
				"element": "C" 
			},
			{
				"x": 0.4674115273,
				"y": 3.2144665876,
				"z": -0.6137523124,
				"element": "O" 
			},
			{
				"x": -0.0758148678,
				"y": 2.0379950466,
				"z": -1.039484704,
				"element": "C" 
			},
			{
				"x": 0.0640582253,
				"y": 0.8051342925,
				"z": -0.3896100308,
				"element": "C" 
			},
			{
				"x": -0.5624864779,
				"y": -0.3375279561,
				"z": -0.9054298072,
				"element": "C" 
			},
			{
				"x": -0.3802936262,
				"y": -1.6977196209,
				"z": -0.2395816728,
				"element": "C" 
			},
			{
				"x": -0.1305506845,
				"y": -1.6693414199,
				"z": 1.1969107556,
				"element": "N" 
			},
			{
				"x": -1.0243284642,
				"y": -1.4178430467,
				"z": 2.2009654355,
				"element": "C" 
			},
			{
				"x": -0.6803418891,
				"y": -1.3210456162,
				"z": 3.3703683238,
				"element": "O" 
			},
			{
				"x": -2.4911252829,
				"y": -1.2480903035,
				"z": 1.8033269601,
				"element": "C" 
			},
			{
				"x": -3.2672590498,
				"y": -2.8414938052,
				"z": 1.393833091,
				"element": "Cl" 
			},
			{
				"x": -1.3291153798,
				"y": -0.245801881,
				"z": -2.0695380355,
				"element": "C" 
			},
			{
				"x": -1.4572951148,
				"y": 0.985186846,
				"z": -2.7204396384,
				"element": "C" 
			},
			{
				"x": -0.838672437,
				"y": 2.1217891818,
				"z": -2.2151673559,
				"element": "C" 
			},
			{
				"x": 2.7666509769,
				"y": 1.7665096321,
				"z": -0.021864677,
				"element": "H" 
			},
			{
				"x": 3.3118816105,
				"y": 2.9163393666,
				"z": 1.2123865672,
				"element": "H" 
			},
			{
				"x": 3.1619914233,
				"y": 3.4306838529,
				"z": -0.4799873271,
				"element": "H" 
			},
			{
				"x": 1.2542840509,
				"y": 4.2964356828,
				"z": 0.8786585432,
				"element": "H" 
			},
			{
				"x": 0.8133939341,
				"y": 2.6582333652,
				"z": 1.3646801561,
				"element": "H" 
			},
			{
				"x": 0.6460576149,
				"y": 0.7172596528,
				"z": 0.5196740699,
				"element": "H" 
			},
			{
				"x": -1.2519677546,
				"y": -2.3255320802,
				"z": -0.4477606443,
				"element": "H" 
			},
			{
				"x": 0.4755534064,
				"y": -2.2124256494,
				"z": -0.691185711,
				"element": "H" 
			},
			{
				"x": 0.8183436411,
				"y": -1.7773758563,
				"z": 1.5282491368,
				"element": "H" 
			},
			{
				"x": -2.621227252,
				"y": -0.5997881819,
				"z": 0.9356525918,
				"element": "H" 
			},
			{
				"x": -3.0208597057,
				"y": -0.8502842482,
				"z": 2.6656364812,
				"element": "H" 
			},
			{
				"x": -1.8222320078,
				"y": -1.1286554463,
				"z": -2.4674706151,
				"element": "H" 
			},
			{
				"x": -2.0551124384,
				"y": 1.0589751523,
				"z": -3.6244308244,
				"element": "H" 
			},
			{
				"x": -0.9367096468,
				"y": 3.0869940077,
				"z": -2.7006720726,
				"element": "H" 
			}
		],
		 "valence_orbital": [ 
			{
				"type": "occ",
				"energy": -0.30381,
				"method": "rhf"
			},
			{
				"type": "occ",
				"energy": -0.26565,
				"method": "rhf"
			},
			{
				"type": "occ",
				"energy": -0.25664,
				"method": "rhf"
			},
			{
				"type": "occ",
				"energy": -0.25248,
				"method": "rhf"
			},
			{
				"type": "occ",
				"energy": -0.22387,
				"method": "rhf"
			},
			{
				"type": "unocc",
				"energy": -0.02176,
				"method": "rhf"
			},
			{
				"type": "unocc",
				"energy": -0.01186,
				"method": "rhf"
			},
			{
				"type": "unocc",
				"energy": 0.00379,
				"method": "rhf"
			},
			{
				"type": "unocc",
				"energy": 0.05436,
				"method": "rhf"
			},
			{
				"type": "unocc",
				"energy": 0.07157,
				"method": "rhf"
			}
		],
		"cosmo_sigma_profile": { 
			"-0.025": 0.0,
			"-0.024": 0.0,
			"-0.023": 0.0,
			"-0.022": 0.0,
			"-0.021": 0.0,
			"-0.02": 0.0,
			"-0.019": 0.0,
			"-0.018": 0.0,
			"-0.017": 0.0,
			"-0.016": 0.0,
			"-0.015": 0.051257472416,
			"-0.014": 1.15508243476,
			"-0.013": 1.10723878733,
			"-0.012": 1.25490066512,
			"-0.011": 0.900927310089,
			"-0.01": 1.51314047164,
			"-0.009": 1.55338041765,
			"-0.008": 3.14645745215,
			"-0.007": 5.50986819346,
			"-0.006": 12.5277299483,
			"-0.005": 21.4937804613,
			"-0.004": 25.0132975468,
			"-0.003": 26.1533709071,
			"-0.002": 19.6250641273,
			"-0.001": 17.7845828276,
			"0.0": 18.3866388242,
			"0.001": 16.0318909692,
			"0.002": 14.783146028,
			"0.003": 15.4126975401,
			"0.004": 16.3452349838,
			"0.005": 17.9651682031,
			"0.006": 11.4717803526,
			"0.007": 2.44778599975,
			"0.008": 1.87671150556,
			"0.009": 2.55869537078,
			"0.01": 2.6949049738,
			"0.011": 2.40611730616,
			"0.012": 2.5770009775,
			"0.013": 6.1117503782,
			"0.014": 2.09863305082,
			"0.015": 0.0226108615268,
			"0.016": 0.0,
			"0.017": 0.0,
			"0.018": 0.0,
			"0.019": 0.0,
			"0.02": 0.0,
			"0.021": 0.0,
			"0.022": 0.0,
			"0.023": 0.0,
			"0.024": 0.0,
			"0.025": 0.0
		}
	}
}
