{
	 "smiles": "IC1=CC=CC=C1C#N", 
	 "Tm": 328.15, 
	 "num_atms": 13, 
	 "gaussian": { 
		 "optdone": 1, 
		 "sigma_profile": "no", 
		 "theory": "DFT", 
		 "functional": "B3LYP", 
		 "basiset": "6-31G**", 
		 "properties": { 
			 "R2extent": 2084.2859, 
			 "electric_dipole_moment_norm": 4.92193574623, 
			 "electric_quadrupole_moment_norm": 16.4107705648, 
			 "total_energy": -335.269899576, 
			 "HOMO_LUMO_gap": 0.19288, 
			 "cosmo_polarized_energy": -86654.87, 
			 "cosmo_cavitation_energy": 21.52, 
			 "cosmo_dispersion_energy": -16.7, 
			 "cosmo_repulsion_energy": 1.33, 
			 "cosmo_total_nonelectrostatic_energy": 6.15, 
			 "SMD_solvation_energy": 4.16 
		},
		"coords": [
			{
				"x": 0.8600504492,
				"y": -1.2770808461,
				"z": 2.9173003741,
				"element": "I" 
			},
			{
				"x": 0.8733329122,
				"y": -1.7730998625,
				"z": 0.8652647362,
				"element": "C" 
			},
			{
				"x": -0.0517051685,
				"y": -2.7045837887,
				"z": 0.3917368013,
				"element": "C" 
			},
			{
				"x": -0.0652123644,
				"y": -3.0510075275,
				"z": -0.9603436277,
				"element": "C" 
			},
			{
				"x": 0.8425350429,
				"y": -2.4716512528,
				"z": -1.8486597813,
				"element": "C" 
			},
			{
				"x": 1.7664758833,
				"y": -1.5430455815,
				"z": -1.3829314036,
				"element": "C" 
			},
			{
				"x": 1.7949367284,
				"y": -1.1814371555,
				"z": -0.022518925,
				"element": "C" 
			},
			{
				"x": 2.7671132131,
				"y": -0.2197446946,
				"z": 0.4057544401,
				"element": "C" 
			},
			{
				"x": 3.5727781575,
				"y": 0.563624223,
				"z": 0.705785301,
				"element": "N" 
			},
			{
				"x": -0.7592369983,
				"y": -3.1580094989,
				"z": 1.0763635633,
				"element": "H" 
			},
			{
				"x": -0.7902660708,
				"y": -3.7771220816,
				"z": -1.3154140367,
				"element": "H" 
			},
			{
				"x": 0.8310361728,
				"y": -2.7417633302,
				"z": -2.8995690251,
				"element": "H" 
			},
			{
				"x": 2.4796620425,
				"y": -1.0822786032,
				"z": -2.0581684165,
				"element": "H" 
			}
		],
		 "valence_orbital": [ 
			{
				"type": "occ",
				"energy": -0.33796,
				"method": "rhf"
			},
			{
				"type": "occ",
				"energy": -0.3152,
				"method": "rhf"
			},
			{
				"type": "occ",
				"energy": -0.27855,
				"method": "rhf"
			},
			{
				"type": "occ",
				"energy": -0.27767,
				"method": "rhf"
			},
			{
				"type": "occ",
				"energy": -0.25667,
				"method": "rhf"
			},
			{
				"type": "unocc",
				"energy": -0.06379,
				"method": "rhf"
			},
			{
				"type": "unocc",
				"energy": -0.05214,
				"method": "rhf"
			},
			{
				"type": "unocc",
				"energy": -0.03842,
				"method": "rhf"
			},
			{
				"type": "unocc",
				"energy": 0.02792,
				"method": "rhf"
			},
			{
				"type": "unocc",
				"energy": 0.0472,
				"method": "rhf"
			}
		],
		"cosmo_sigma_profile": { 
			"0.0": 0.0,
			"0.0": 0.0,
			"0.0": 0.0,
			"0.0": 0.0,
			"0.0": 0.0,
			"0.0": 0.0,
			"0.0": 0.0,
			"0.0": 0.0,
			"0.0": 0.0,
			"0.0": 0.0,
			"0.0": 0.0,
			"0.0": 0.0,
			"0.0": 0.0,
			"0.0": 0.0,
			"0.0": 0.0,
			"0.0": 0.0,
			"0.0": 0.0,
			"0.0": 0.0,
			"0.0": 0.0,
			"0.0": 0.0,
			"0.0": 0.0,
			"0.0": 0.0,
			"0.0": 0.0,
			"0.0": 0.0,
			"0.0": 0.0,
			"0.0": 0.0,
			"0.0": 0.0,
			"0.0": 0.0,
			"0.0": 0.0,
			"0.0": 0.0,
			"0.0": 0.0,
			"0.0": 0.0,
			"0.0": 0.0,
			"0.0": 0.0,
			"0.0": 0.0,
			"0.0": 0.0,
			"0.0": 0.0,
			"0.0": 0.0,
			"0.0": 0.0,
			"0.0": 0.0,
			"0.0": 0.0,
			"0.0": 0.0,
			"0.0": 0.0,
			"0.0": 0.0,
			"0.0": 0.0,
			"0.0": 0.0,
			"0.0": 0.0,
			"0.0": 0.0,
			"0.0": 0.0,
			"0.0": 0.0,
			"0.0": 0.0
		}
	}
}
