{
	 "smiles": "OC(=O)C1=CN(CC2=CC=CC=C2)N=N1", 
	 "Tm": 450.15, 
	 "num_atms": 24, 
	 "gaussian": { 
		 "optdone": 1, 
		 "sigma_profile": "yes", 
		 "theory": "DFT", 
		 "functional": "B3LYP", 
		 "basiset": "6-31G**", 
		 "properties": { 
			 "R2extent": 4809.8603, 
			 "electric_dipole_moment_norm": 6.40209479311, 
			 "electric_quadrupole_moment_norm": 30.2377097707, 
			 "total_energy": -701.162180243, 
			 "HOMO_LUMO_gap": 0.22893, 
			 "cosmo_polarized_energy": -19.78, 
			 "cosmo_cavitation_energy": 30.01, 
			 "cosmo_dispersion_energy": -21.26, 
			 "cosmo_repulsion_energy": 1.67, 
			 "cosmo_total_nonelectrostatic_energy": 10.42, 
			 "SMD_solvation_energy": 5.08 
		},
		"coords": [
			{
				"x": -3.9281809176,
				"y": -2.1451925105,
				"z": -2.4516939888,
				"element": "O" 
			},
			{
				"x": -2.9530129399,
				"y": -2.1005586781,
				"z": -3.402100684,
				"element": "C" 
			},
			{
				"x": -2.9702092349,
				"y": -2.7901174487,
				"z": -4.3957809342,
				"element": "O" 
			},
			{
				"x": -1.9156781341,
				"y": -1.119649388,
				"z": -3.0416823594,
				"element": "C" 
			},
			{
				"x": -1.8374997968,
				"y": -0.3101369417,
				"z": -1.9224998869,
				"element": "C" 
			},
			{
				"x": -0.700295242,
				"y": 0.3923340337,
				"z": -2.0999392571,
				"element": "N" 
			},
			{
				"x": -0.0627717437,
				"y": 1.3788822566,
				"z": -1.2259720834,
				"element": "C" 
			},
			{
				"x": 0.5437514425,
				"y": 0.7664963468,
				"z": 0.0211395109,
				"element": "C" 
			},
			{
				"x": 0.1639488422,
				"y": 1.2178477028,
				"z": 1.2886096308,
				"element": "C" 
			},
			{
				"x": 0.7390415527,
				"y": 0.6687086797,
				"z": 2.4373540581,
				"element": "C" 
			},
			{
				"x": 1.6941359447,
				"y": -0.3411083386,
				"z": 2.3238810421,
				"element": "C" 
			},
			{
				"x": 2.0754379312,
				"y": -0.7987800786,
				"z": 1.0590662865,
				"element": "C" 
			},
			{
				"x": 1.5058202638,
				"y": -0.2471248193,
				"z": -0.0867723207,
				"element": "C" 
			},
			{
				"x": -0.0936765991,
				"y": 0.0325752351,
				"z": -3.26892402,
				"element": "N" 
			},
			{
				"x": -0.8272937173,
				"y": -0.8747740111,
				"z": -3.8331850579,
				"element": "N" 
			},
			{
				"x": -4.5651361382,
				"y": -2.8104179438,
				"z": -2.7605214414,
				"element": "H" 
			},
			{
				"x": -2.4781790425,
				"y": -0.2011102812,
				"z": -1.0623035934,
				"element": "H" 
			},
			{
				"x": -0.8031717249,
				"y": 2.1398584734,
				"z": -0.9632548338,
				"element": "H" 
			},
			{
				"x": 0.7000182252,
				"y": 1.8516321565,
				"z": -1.8504684605,
				"element": "H" 
			},
			{
				"x": -0.5816591011,
				"y": 2.0042271942,
				"z": 1.3801557195,
				"element": "H" 
			},
			{
				"x": 0.4371087956,
				"y": 1.0277274787,
				"z": 3.4169002358,
				"element": "H" 
			},
			{
				"x": 2.1404718487,
				"y": -0.7714596538,
				"z": 3.2155653533,
				"element": "H" 
			},
			{
				"x": 2.8192520538,
				"y": -1.5846657063,
				"z": 0.9662178607,
				"element": "H" 
			},
			{
				"x": 1.8003774318,
				"y": -0.6033937578,
				"z": -1.0703907763,
				"element": "H" 
			}
		],
		 "valence_orbital": [ 
			{
				"type": "occ",
				"energy": -0.27769,
				"method": "rhf"
			},
			{
				"type": "occ",
				"energy": -0.27678,
				"method": "rhf"
			},
			{
				"type": "occ",
				"energy": -0.27278,
				"method": "rhf"
			},
			{
				"type": "occ",
				"energy": -0.26598,
				"method": "rhf"
			},
			{
				"type": "occ",
				"energy": -0.26171,
				"method": "rhf"
			},
			{
				"type": "unocc",
				"energy": -0.03278,
				"method": "rhf"
			},
			{
				"type": "unocc",
				"energy": -0.02495,
				"method": "rhf"
			},
			{
				"type": "unocc",
				"energy": -0.01778,
				"method": "rhf"
			},
			{
				"type": "unocc",
				"energy": -0.00794,
				"method": "rhf"
			},
			{
				"type": "unocc",
				"energy": 0.07814,
				"method": "rhf"
			}
		],
		"cosmo_sigma_profile": { 
			"-0.025": 0.0,
			"-0.024": 0.0,
			"-0.023": 0.0,
			"-0.022": 0.0,
			"-0.021": 0.0,
			"-0.02": 0.0,
			"-0.019": 0.0476979453732,
			"-0.018": 1.07942294927,
			"-0.017": 0.658003270895,
			"-0.016": 0.925799625001,
			"-0.015": 0.883906218061,
			"-0.014": 0.582418932568,
			"-0.013": 0.810427165854,
			"-0.012": 0.838281550877,
			"-0.011": 2.36636895848,
			"-0.01": 2.87897265474,
			"-0.009": 2.80456109886,
			"-0.008": 6.76096386092,
			"-0.007": 7.47831358279,
			"-0.006": 13.2115498106,
			"-0.005": 15.3954254011,
			"-0.004": 16.8119852384,
			"-0.003": 16.951277546,
			"-0.002": 18.3145529696,
			"-0.001": 17.1887949606,
			"0.0": 13.1993640698,
			"0.001": 10.3617744021,
			"0.002": 11.8406260478,
			"0.003": 10.9154352547,
			"0.004": 11.7317031798,
			"0.005": 12.9252434008,
			"0.006": 5.42983388957,
			"0.007": 5.88915973889,
			"0.008": 3.19661648559,
			"0.009": 5.05190921722,
			"0.01": 5.75388896489,
			"0.011": 7.48784542183,
			"0.012": 5.41276865798,
			"0.013": 3.1854572603,
			"0.014": 1.62735859825,
			"0.015": 0.5745078885,
			"0.016": 0.0,
			"0.017": 0.0,
			"0.018": 0.0,
			"0.019": 0.0,
			"0.02": 0.0,
			"0.021": 0.0,
			"0.022": 0.0,
			"0.023": 0.0,
			"0.024": 0.0,
			"0.025": 0.0
		}
	}
}
