{
	 "smiles": "CC1=CC2=C(NCCN2)N=C1", 
	 "Tm": 401.15, 
	 "num_atms": 22, 
	 "gaussian": { 
		 "optdone": 1, 
		 "sigma_profile": "yes", 
		 "theory": "DFT", 
		 "functional": "B3LYP", 
		 "basiset": "6-31G**", 
		 "properties": { 
			 "R2extent": 2012.7172, 
			 "electric_dipole_moment_norm": 2.97768218586, 
			 "electric_quadrupole_moment_norm": 8.16255856641, 
			 "total_energy": -475.743231914, 
			 "HOMO_LUMO_gap": 0.17714, 
			 "cosmo_polarized_energy": -10.7, 
			 "cosmo_cavitation_energy": 24.21, 
			 "cosmo_dispersion_energy": -18.65, 
			 "cosmo_repulsion_energy": 1.5, 
			 "cosmo_total_nonelectrostatic_energy": 7.05, 
			 "SMD_solvation_energy": 0.52 
		},
		"coords": [
			{
				"x": -1.1303208885,
				"y": 0.1651482935,
				"z": 4.0065183309,
				"element": "C" 
			},
			{
				"x": -0.3039239744,
				"y": 0.0482517912,
				"z": 2.7501108433,
				"element": "C" 
			},
			{
				"x": -0.8960102504,
				"y": 0.0954383268,
				"z": 1.4753819994,
				"element": "C" 
			},
			{
				"x": -0.1181090941,
				"y": -0.015121635,
				"z": 0.3296063505,
				"element": "C" 
			},
			{
				"x": 1.2861443875,
				"y": -0.164382313,
				"z": 0.5085987043,
				"element": "C" 
			},
			{
				"x": 2.1103700889,
				"y": -0.2155004582,
				"z": -0.6106801171,
				"element": "N" 
			},
			{
				"x": 1.5261301781,
				"y": -0.566257494,
				"z": -1.893842396,
				"element": "C" 
			},
			{
				"x": 0.2429724327,
				"y": 0.2484989885,
				"z": -2.076796215,
				"element": "C" 
			},
			{
				"x": -0.6538655335,
				"y": -0.0417486585,
				"z": -0.9645314169,
				"element": "N" 
			},
			{
				"x": 1.8584971926,
				"y": -0.2219037373,
				"z": 1.7059380311,
				"element": "N" 
			},
			{
				"x": 1.0776407285,
				"y": -0.1146678417,
				"z": 2.794696945,
				"element": "C" 
			},
			{
				"x": -0.5004241306,
				"y": 0.0960147145,
				"z": 4.898216936,
				"element": "H" 
			},
			{
				"x": -1.8848586966,
				"y": -0.6282147006,
				"z": 4.0714966454,
				"element": "H" 
			},
			{
				"x": -1.6655207902,
				"y": 1.1214980766,
				"z": 4.0530769107,
				"element": "H" 
			},
			{
				"x": -1.9745276282,
				"y": 0.2115015024,
				"z": 1.378288645,
				"element": "H" 
			},
			{
				"x": 3.0384432206,
				"y": -0.559395773,
				"z": -0.4031068084,
				"element": "H" 
			},
			{
				"x": 1.2842498268,
				"y": -1.6380317445,
				"z": -1.9775059852,
				"element": "H" 
			},
			{
				"x": 2.2361372945,
				"y": -0.3173454371,
				"z": -2.6891193738,
				"element": "H" 
			},
			{
				"x": 0.5078430055,
				"y": 1.3156879149,
				"z": -2.1459484262,
				"element": "H" 
			},
			{
				"x": -0.2504112886,
				"y": -0.0407989231,
				"z": -3.0104424334,
				"element": "H" 
			},
			{
				"x": -1.5727137448,
				"y": 0.3742336178,
				"z": -1.0419079511,
				"element": "H" 
			},
			{
				"x": 1.5917576642,
				"y": -0.1647045101,
				"z": 3.7534507817,
				"element": "H" 
			}
		],
		 "valence_orbital": [ 
			{
				"type": "occ",
				"energy": -0.30398,
				"method": "rhf"
			},
			{
				"type": "occ",
				"energy": -0.28257,
				"method": "rhf"
			},
			{
				"type": "occ",
				"energy": -0.24152,
				"method": "rhf"
			},
			{
				"type": "occ",
				"energy": -0.22591,
				"method": "rhf"
			},
			{
				"type": "occ",
				"energy": -0.17433,
				"method": "rhf"
			},
			{
				"type": "unocc",
				"energy": 0.00281,
				"method": "rhf"
			},
			{
				"type": "unocc",
				"energy": 0.02967,
				"method": "rhf"
			},
			{
				"type": "unocc",
				"energy": 0.0796,
				"method": "rhf"
			},
			{
				"type": "unocc",
				"energy": 0.10705,
				"method": "rhf"
			},
			{
				"type": "unocc",
				"energy": 0.118,
				"method": "rhf"
			}
		],
		"cosmo_sigma_profile": { 
			"-0.025": 0.0,
			"-0.024": 0.0,
			"-0.023": 0.0,
			"-0.022": 0.0,
			"-0.021": 0.0,
			"-0.02": 0.0,
			"-0.019": 0.0,
			"-0.018": 0.0,
			"-0.017": 0.0,
			"-0.016": 0.0,
			"-0.015": 0.0,
			"-0.014": 0.0,
			"-0.013": 0.247239116091,
			"-0.012": 1.99799956457,
			"-0.011": 2.36022212723,
			"-0.01": 2.30608928367,
			"-0.009": 2.6568865935,
			"-0.008": 2.27856749092,
			"-0.007": 2.539295573,
			"-0.006": 3.83218677835,
			"-0.005": 9.77137079392,
			"-0.004": 15.374675482,
			"-0.003": 23.4338936278,
			"-0.002": 20.4922579802,
			"-0.001": 16.3339030956,
			"0.0": 13.4556878013,
			"0.001": 10.4892854547,
			"0.002": 7.73812641819,
			"0.003": 7.59565415399,
			"0.004": 8.60512992929,
			"0.005": 9.65940841117,
			"0.006": 8.16514791238,
			"0.007": 3.55761324636,
			"0.008": 3.93925605498,
			"0.009": 2.83805557714,
			"0.01": 2.66139035108,
			"0.011": 2.35042955521,
			"0.012": 1.55208089957,
			"0.013": 1.27047056532,
			"0.014": 0.91989816027,
			"0.015": 0.546675030992,
			"0.016": 0.975554319572,
			"0.017": 0.424099938532,
			"0.018": 0.0,
			"0.019": 0.0,
			"0.02": 0.0,
			"0.021": 0.0,
			"0.022": 0.0,
			"0.023": 0.0,
			"0.024": 0.0,
			"0.025": 0.0
		}
	}
}
