{
	 "smiles": "CCOC(=O)C1=C(N)N(N=C1)C1=CC=C(C=C1)[N+]([O-])=O", 
	 "Tm": 477.15, 
	 "num_atms": 32, 
	 "gaussian": { 
		 "optdone": 1, 
		 "sigma_profile": "yes", 
		 "theory": "DFT", 
		 "functional": "B3LYP", 
		 "basiset": "6-31G**", 
		 "properties": { 
			 "R2extent": 9733.4373, 
			 "electric_dipole_moment_norm": 5.11057487764, 
			 "electric_quadrupole_moment_norm": 21.3410281702, 
			 "total_energy": -984.318788242, 
			 "HOMO_LUMO_gap": 0.13883, 
			 "cosmo_polarized_energy": -15.9, 
			 "cosmo_cavitation_energy": 37.56, 
			 "cosmo_dispersion_energy": -27.46, 
			 "cosmo_repulsion_energy": 2.1, 
			 "cosmo_total_nonelectrostatic_energy": 12.19, 
			 "SMD_solvation_energy": 9.07 
		},
		"coords": [
			{
				"x": -0.71645323,
				"y": 5.2385164722,
				"z": -3.2233416915,
				"element": "C" 
			},
			{
				"x": -1.775059691,
				"y": 4.1460397821,
				"z": -3.2129355093,
				"element": "C" 
			},
			{
				"x": -1.174366747,
				"y": 2.830505802,
				"z": -3.1374368684,
				"element": "O" 
			},
			{
				"x": -0.8756731606,
				"y": 2.3691704751,
				"z": -1.9047904409,
				"element": "C" 
			},
			{
				"x": -1.0944066537,
				"y": 2.9986862161,
				"z": -0.8715276296,
				"element": "O" 
			},
			{
				"x": -0.2825787815,
				"y": 1.0450590592,
				"z": -1.9299514093,
				"element": "C" 
			},
			{
				"x": 0.0917821943,
				"y": 0.3471353694,
				"z": -0.7767805794,
				"element": "C" 
			},
			{
				"x": 0.045090131,
				"y": 0.7829434889,
				"z": 0.5193022995,
				"element": "N" 
			},
			{
				"x": 0.5559136103,
				"y": -0.872777741,
				"z": -1.1970772186,
				"element": "N" 
			},
			{
				"x": 0.467522923,
				"y": -1.0049055679,
				"z": -2.578377093,
				"element": "N" 
			},
			{
				"x": -0.0184978525,
				"y": 0.1430942223,
				"z": -2.9964792151,
				"element": "C" 
			},
			{
				"x": 1.052708853,
				"y": -1.9562401148,
				"z": -0.4413959425,
				"element": "C" 
			},
			{
				"x": 0.8933069074,
				"y": -3.2576463209,
				"z": -0.9448633527,
				"element": "C" 
			},
			{
				"x": 1.3764914401,
				"y": -4.3413778681,
				"z": -0.2251132073,
				"element": "C" 
			},
			{
				"x": 2.0136652479,
				"y": -4.1179409425,
				"z": 0.9960200895,
				"element": "C" 
			},
			{
				"x": 2.1955590068,
				"y": -2.833006256,
				"z": 1.5013902315,
				"element": "C" 
			},
			{
				"x": 1.7202605221,
				"y": -1.7452233876,
				"z": 0.776333622,
				"element": "C" 
			},
			{
				"x": 2.5137413991,
				"y": -5.2643815894,
				"z": 1.763703727,
				"element": "N" 
			},
			{
				"x": 3.0603595457,
				"y": -5.0341979724,
				"z": 2.8428996685,
				"element": "O" 
			},
			{
				"x": 2.3548810445,
				"y": -6.386319594,
				"z": 1.2827125733,
				"element": "O" 
			},
			{
				"x": -0.0055291613,
				"y": 5.0848156644,
				"z": -4.0404165522,
				"element": "H" 
			},
			{
				"x": -0.1709736272,
				"y": 5.2535144845,
				"z": -2.2766972752,
				"element": "H" 
			},
			{
				"x": -1.1927060672,
				"y": 6.215025113,
				"z": -3.360995495,
				"element": "H" 
			},
			{
				"x": -2.3428941444,
				"y": 4.1290677235,
				"z": -4.1461852875,
				"element": "H" 
			},
			{
				"x": -2.4616493296,
				"y": 4.2694485584,
				"z": -2.372308797,
				"element": "H" 
			},
			{
				"x": -0.4657043744,
				"y": 1.661490114,
				"z": 0.5854363144,
				"element": "H" 
			},
			{
				"x": -0.170612578,
				"y": 0.0972524676,
				"z": 1.2303984577,
				"element": "H" 
			},
			{
				"x": -0.1765566462,
				"y": 0.3109826234,
				"z": -4.0530294471,
				"element": "H" 
			},
			{
				"x": 0.3992212542,
				"y": -3.3931988562,
				"z": -1.8983381022,
				"element": "H" 
			},
			{
				"x": 1.2620879115,
				"y": -5.3553596616,
				"z": -0.5871540804,
				"element": "H" 
			},
			{
				"x": 2.7182681795,
				"y": -2.6994042081,
				"z": 2.4401082893,
				"element": "H" 
			},
			{
				"x": 1.8977018742,
				"y": -0.7386675555,
				"z": 1.1350899216,
				"element": "H" 
			}
		],
		 "valence_orbital": [ 
			{
				"type": "occ",
				"energy": -0.29216,
				"method": "rhf"
			},
			{
				"type": "occ",
				"energy": -0.28755,
				"method": "rhf"
			},
			{
				"type": "occ",
				"energy": -0.2818,
				"method": "rhf"
			},
			{
				"type": "occ",
				"energy": -0.25376,
				"method": "rhf"
			},
			{
				"type": "occ",
				"energy": -0.23221,
				"method": "rhf"
			},
			{
				"type": "unocc",
				"energy": -0.09338,
				"method": "rhf"
			},
			{
				"type": "unocc",
				"energy": -0.03706,
				"method": "rhf"
			},
			{
				"type": "unocc",
				"energy": -0.02719,
				"method": "rhf"
			},
			{
				"type": "unocc",
				"energy": -0.0121,
				"method": "rhf"
			},
			{
				"type": "unocc",
				"energy": 0.02743,
				"method": "rhf"
			}
		],
		"cosmo_sigma_profile": { 
			"-0.025": 0.0,
			"-0.024": 0.0,
			"-0.023": 0.0,
			"-0.022": 0.0,
			"-0.021": 0.0,
			"-0.02": 0.0,
			"-0.019": 0.0,
			"-0.018": 0.0,
			"-0.017": 0.0,
			"-0.016": 0.0,
			"-0.015": 0.115173355741,
			"-0.014": 1.43009221408,
			"-0.013": 0.750460100913,
			"-0.012": 1.21279065506,
			"-0.011": 2.59458583606,
			"-0.01": 2.45070866007,
			"-0.009": 2.40833525244,
			"-0.008": 6.09873547816,
			"-0.007": 8.7746643385,
			"-0.006": 11.7089531259,
			"-0.005": 13.3962988298,
			"-0.004": 19.7866839137,
			"-0.003": 22.5887091436,
			"-0.002": 25.6430589273,
			"-0.001": 28.2829575209,
			"0.0": 32.914203888,
			"0.001": 25.1731491537,
			"0.002": 14.8037570687,
			"0.003": 11.3938104424,
			"0.004": 7.99786709949,
			"0.005": 9.25662524475,
			"0.006": 8.47475226639,
			"0.007": 12.4941630276,
			"0.008": 11.1966876772,
			"0.009": 8.04606308942,
			"0.01": 5.39027802539,
			"0.011": 2.82640195213,
			"0.012": 2.65916022503,
			"0.013": 0.673584635256,
			"0.014": 0.0738922003354,
			"0.015": 0.0,
			"0.016": 0.0,
			"0.017": 0.0,
			"0.018": 0.0,
			"0.019": 0.0,
			"0.02": 0.0,
			"0.021": 0.0,
			"0.022": 0.0,
			"0.023": 0.0,
			"0.024": 0.0,
			"0.025": 0.0
		}
	}
}
