{
	 "smiles": "COC1=CC(=CC(OC)=C1)C(O)CN", 
	 "Tm": 366.15, 
	 "num_atms": 29, 
	 "gaussian": { 
		 "optdone": 1, 
		 "sigma_profile": "yes", 
		 "theory": "DFT", 
		 "functional": "B3LYP", 
		 "basiset": "6-31G**", 
		 "properties": { 
			 "R2extent": 3544.1437, 
			 "electric_dipole_moment_norm": 4.81186988187, 
			 "electric_quadrupole_moment_norm": 9.30564207779, 
			 "total_energy": -670.494061589, 
			 "HOMO_LUMO_gap": 0.21118, 
			 "cosmo_polarized_energy": -13.96, 
			 "cosmo_cavitation_energy": 31.69, 
			 "cosmo_dispersion_energy": -22.67, 
			 "cosmo_repulsion_energy": 1.82, 
			 "cosmo_total_nonelectrostatic_energy": 10.84, 
			 "SMD_solvation_energy": 5.37 
		},
		"coords": [
			{
				"x": 2.8974578359,
				"y": 1.1561385756,
				"z": 2.4522680118,
				"element": "C" 
			},
			{
				"x": 1.6750230964,
				"y": 1.6020251495,
				"z": 1.8901411158,
				"element": "O" 
			},
			{
				"x": 0.8276788944,
				"y": 0.6781010823,
				"z": 1.3477241519,
				"element": "C" 
			},
			{
				"x": -0.3534197,
				"y": 1.1931067507,
				"z": 0.7996866305,
				"element": "C" 
			},
			{
				"x": -1.2880498469,
				"y": 0.32812394,
				"z": 0.2243503504,
				"element": "C" 
			},
			{
				"x": -1.0400953363,
				"y": -1.0472400017,
				"z": 0.1982602499,
				"element": "C" 
			},
			{
				"x": 0.1432070429,
				"y": -1.5546141003,
				"z": 0.7418252792,
				"element": "C" 
			},
			{
				"x": 0.2921854272,
				"y": -2.9104935402,
				"z": 0.6703087057,
				"element": "O" 
			},
			{
				"x": 1.4670595616,
				"y": -3.4953613321,
				"z": 1.2057271384,
				"element": "C" 
			},
			{
				"x": 1.090055177,
				"y": -0.697832787,
				"z": 1.3236718174,
				"element": "C" 
			},
			{
				"x": -2.5544929255,
				"y": 0.87411579,
				"z": -0.4142614583,
				"element": "C" 
			},
			{
				"x": -2.9760428858,
				"y": 2.1056553694,
				"z": 0.1679571315,
				"element": "O" 
			},
			{
				"x": -2.3830158451,
				"y": 1.1641728859,
				"z": -1.9260391233,
				"element": "C" 
			},
			{
				"x": -1.4318808654,
				"y": 2.2101175937,
				"z": -2.2770438915,
				"element": "N" 
			},
			{
				"x": 2.7324943921,
				"y": 0.4738727414,
				"z": 3.2966036722,
				"element": "H" 
			},
			{
				"x": 3.5299519655,
				"y": 0.6568278101,
				"z": 1.7065811491,
				"element": "H" 
			},
			{
				"x": 3.4082717081,
				"y": 2.0509312417,
				"z": 2.8116444443,
				"element": "H" 
			},
			{
				"x": -0.5315320065,
				"y": 2.2611493419,
				"z": 0.8377081037,
				"element": "H" 
			},
			{
				"x": -1.7540349768,
				"y": -1.7423449561,
				"z": -0.2324989833,
				"element": "H" 
			},
			{
				"x": 1.5600894685,
				"y": -3.3088121757,
				"z": 2.2837299149,
				"element": "H" 
			},
			{
				"x": 1.3729530269,
				"y": -4.5693095456,
				"z": 1.0368006238,
				"element": "H" 
			},
			{
				"x": 2.3704510081,
				"y": -3.1306248874,
				"z": 0.699531655,
				"element": "H" 
			},
			{
				"x": 2.0006499005,
				"y": -1.0929347179,
				"z": 1.7502620965,
				"element": "H" 
			},
			{
				"x": -3.3458652428,
				"y": 0.1125701,
				"z": -0.3135452762,
				"element": "H" 
			},
			{
				"x": -2.9940839539,
				"y": 1.9898280179,
				"z": 1.1268507507,
				"element": "H" 
			},
			{
				"x": -2.0970108874,
				"y": 0.2328869984,
				"z": -2.4275561074,
				"element": "H" 
			},
			{
				"x": -3.3675478452,
				"y": 1.4529851007,
				"z": -2.3127336652,
				"element": "H" 
			},
			{
				"x": -1.6900621945,
				"y": 3.0587959953,
				"z": -1.7784778529,
				"element": "H" 
			},
			{
				"x": -0.5042939931,
				"y": 1.9576635592,
				"z": -1.9421766345,
				"element": "H" 
			}
		],
		 "valence_orbital": [ 
			{
				"type": "occ",
				"energy": -0.29698,
				"method": "rhf"
			},
			{
				"type": "occ",
				"energy": -0.27142,
				"method": "rhf"
			},
			{
				"type": "occ",
				"energy": -0.23747,
				"method": "rhf"
			},
			{
				"type": "occ",
				"energy": -0.22255,
				"method": "rhf"
			},
			{
				"type": "occ",
				"energy": -0.208,
				"method": "rhf"
			},
			{
				"type": "unocc",
				"energy": 0.00318,
				"method": "rhf"
			},
			{
				"type": "unocc",
				"energy": 0.01299,
				"method": "rhf"
			},
			{
				"type": "unocc",
				"energy": 0.08075,
				"method": "rhf"
			},
			{
				"type": "unocc",
				"energy": 0.086,
				"method": "rhf"
			},
			{
				"type": "unocc",
				"energy": 0.10657,
				"method": "rhf"
			}
		],
		"cosmo_sigma_profile": { 
			"-0.025": 0.0,
			"-0.024": 0.0,
			"-0.023": 0.0,
			"-0.022": 0.0,
			"-0.021": 0.0,
			"-0.02": 0.0,
			"-0.019": 0.0,
			"-0.018": 0.0,
			"-0.017": 0.0,
			"-0.016": 0.060545405941,
			"-0.015": 0.627684624331,
			"-0.014": 0.824213716345,
			"-0.013": 0.760866768635,
			"-0.012": 0.840310569497,
			"-0.011": 0.812776476044,
			"-0.01": 0.41244298192,
			"-0.009": 0.778554437407,
			"-0.008": 2.1146869783,
			"-0.007": 3.57141277353,
			"-0.006": 11.1334451896,
			"-0.005": 23.9848156757,
			"-0.004": 27.2578897046,
			"-0.003": 31.3624349817,
			"-0.002": 20.8869724046,
			"-0.001": 14.6684081946,
			"0.0": 11.7172202154,
			"0.001": 9.79958741142,
			"0.002": 9.92873446157,
			"0.003": 10.7595780388,
			"0.004": 14.1154819707,
			"0.005": 14.9587975273,
			"0.006": 6.79314394661,
			"0.007": 5.13969611638,
			"0.008": 4.30671301816,
			"0.009": 3.63374050537,
			"0.01": 5.70868018114,
			"0.011": 3.28236060555,
			"0.012": 1.5075586259,
			"0.013": 1.28053969529,
			"0.014": 1.40810245879,
			"0.015": 0.691809425226,
			"0.016": 0.78559335081,
			"0.017": 0.614453155554,
			"0.018": 0.532077815732,
			"0.019": 0.828554383531,
			"0.02": 0.201639373041,
			"0.021": 0.0,
			"0.022": 0.0,
			"0.023": 0.0,
			"0.024": 0.0,
			"0.025": 0.0
		}
	}
}
