{
	 "smiles": "CN(C)S(=O)(=O)C1=CC(CCl)=CC=C1", 
	 "Tm": 319.15, 
	 "num_atms": 26, 
	 "gaussian": { 
		 "optdone": 1, 
		 "sigma_profile": "yes", 
		 "theory": "DFT", 
		 "functional": "B3LYP", 
		 "basiset": "6-31G**", 
		 "properties": { 
			 "R2extent": 4942.5458, 
			 "electric_dipole_moment_norm": 5.5227535107, 
			 "electric_quadrupole_moment_norm": 13.0760596905, 
			 "total_energy": -1413.69796337, 
			 "HOMO_LUMO_gap": 0.20282, 
			 "cosmo_polarized_energy": -15.46, 
			 "cosmo_cavitation_energy": 32.42, 
			 "cosmo_dispersion_energy": -23.25, 
			 "cosmo_repulsion_energy": 1.81, 
			 "cosmo_total_nonelectrostatic_energy": 10.97, 
			 "SMD_solvation_energy": 4.0 
		},
		"coords": [
			{
				"x": 0.4261329579,
				"y": 2.3647458865,
				"z": 1.5151049764,
				"element": "C" 
			},
			{
				"x": 1.581040571,
				"y": 1.5832404215,
				"z": 1.0570305633,
				"element": "N" 
			},
			{
				"x": 2.8460158602,
				"y": 2.3343488082,
				"z": 1.0720267515,
				"element": "C" 
			},
			{
				"x": 1.2969324273,
				"y": 0.7278029402,
				"z": -0.3905849673,
				"element": "S" 
			},
			{
				"x": 2.5958672894,
				"y": 0.1899747556,
				"z": -0.8058717398,
				"element": "O" 
			},
			{
				"x": 0.4800023606,
				"y": 1.5165526849,
				"z": -1.32467013,
				"element": "O" 
			},
			{
				"x": 0.2745245858,
				"y": -0.6260858507,
				"z": 0.2035202037,
				"element": "C" 
			},
			{
				"x": 0.8521022187,
				"y": -1.607944176,
				"z": 1.0111098115,
				"element": "C" 
			},
			{
				"x": 0.0736937479,
				"y": -2.6786468169,
				"z": 1.4566485897,
				"element": "C" 
			},
			{
				"x": 0.6722511557,
				"y": -3.7373724307,
				"z": 2.3367744819,
				"element": "C" 
			},
			{
				"x": 1.1469363764,
				"y": -5.236394573,
				"z": 1.3968702519,
				"element": "Cl" 
			},
			{
				"x": -1.2745710597,
				"y": -2.7490420226,
				"z": 1.07088154,
				"element": "C" 
			},
			{
				"x": -1.8361341141,
				"y": -1.7713345564,
				"z": 0.2538337953,
				"element": "C" 
			},
			{
				"x": -1.060533285,
				"y": -0.6965614953,
				"z": -0.1897294967,
				"element": "C" 
			},
			{
				"x": 0.6350899625,
				"y": 2.7074112366,
				"z": 2.5323600436,
				"element": "H" 
			},
			{
				"x": -0.4639478617,
				"y": 1.7322236814,
				"z": 1.5486471218,
				"element": "H" 
			},
			{
				"x": 0.2202717549,
				"y": 3.2332767843,
				"z": 0.8757731749,
				"element": "H" 
			},
			{
				"x": 2.804444887,
				"y": 3.2488547891,
				"z": 0.4632962895,
				"element": "H" 
			},
			{
				"x": 3.6503667816,
				"y": 1.697096948,
				"z": 0.7068314702,
				"element": "H" 
			},
			{
				"x": 3.0529697373,
				"y": 2.6121974578,
				"z": 2.1095589833,
				"element": "H" 
			},
			{
				"x": 1.900201545,
				"y": -1.5352275862,
				"z": 1.2832123771,
				"element": "H" 
			},
			{
				"x": -0.0322992536,
				"y": -4.0822646649,
				"z": 3.0942936057,
				"element": "H" 
			},
			{
				"x": 1.5839368801,
				"y": -3.3913195608,
				"z": 2.8233990954,
				"element": "H" 
			},
			{
				"x": -1.8815735351,
				"y": -3.5842524621,
				"z": 1.4097355761,
				"element": "H" 
			},
			{
				"x": -2.8784875972,
				"y": -1.8425275316,
				"z": -0.0408986248,
				"element": "H" 
			},
			{
				"x": -1.4697343928,
				"y": 0.0735473333,
				"z": -0.8341537443,
				"element": "H" 
			}
		],
		 "valence_orbital": [ 
			{
				"type": "occ",
				"energy": -0.30183,
				"method": "rhf"
			},
			{
				"type": "occ",
				"energy": -0.29894,
				"method": "rhf"
			},
			{
				"type": "occ",
				"energy": -0.28273,
				"method": "rhf"
			},
			{
				"type": "occ",
				"energy": -0.27358,
				"method": "rhf"
			},
			{
				"type": "occ",
				"energy": -0.25345,
				"method": "rhf"
			},
			{
				"type": "unocc",
				"energy": -0.05063,
				"method": "rhf"
			},
			{
				"type": "unocc",
				"energy": -0.03881,
				"method": "rhf"
			},
			{
				"type": "unocc",
				"energy": 0.02781,
				"method": "rhf"
			},
			{
				"type": "unocc",
				"energy": 0.05664,
				"method": "rhf"
			},
			{
				"type": "unocc",
				"energy": 0.07395,
				"method": "rhf"
			}
		],
		"cosmo_sigma_profile": { 
			"-0.025": 0.0,
			"-0.024": 0.0,
			"-0.023": 0.0,
			"-0.022": 0.0,
			"-0.021": 0.0,
			"-0.02": 0.0,
			"-0.019": 0.0,
			"-0.018": 0.0,
			"-0.017": 0.0,
			"-0.016": 0.0,
			"-0.015": 0.0,
			"-0.014": 0.0,
			"-0.013": 0.0,
			"-0.012": 0.0,
			"-0.011": 0.0,
			"-0.01": 0.000669643649096,
			"-0.009": 1.63641183856,
			"-0.008": 7.62935015918,
			"-0.007": 11.5687936825,
			"-0.006": 15.685287298,
			"-0.005": 18.8074772321,
			"-0.004": 23.5602994795,
			"-0.003": 21.2883819379,
			"-0.002": 22.4826608935,
			"-0.001": 13.1944443217,
			"0.0": 12.7732800322,
			"0.001": 16.4593434412,
			"0.002": 18.3721811349,
			"0.003": 11.6496104008,
			"0.004": 9.38288245749,
			"0.005": 8.61761830549,
			"0.006": 13.4107390875,
			"0.007": 7.27255918674,
			"0.008": 3.57130024203,
			"0.009": 3.75570098755,
			"0.01": 7.28657509852,
			"0.011": 7.49418721545,
			"0.012": 3.5355056284,
			"0.013": 0.0,
			"0.014": 0.0,
			"0.015": 0.0,
			"0.016": 0.0,
			"0.017": 0.0,
			"0.018": 0.0,
			"0.019": 0.0,
			"0.02": 0.0,
			"0.021": 0.0,
			"0.022": 0.0,
			"0.023": 0.0,
			"0.024": 0.0,
			"0.025": 0.0
		}
	}
}
