{
	 "smiles": "COC(=O)C1=C(C)C(C)=CC(=C1)[N+]([O-])=O", 
	 "Tm": 346.15, 
	 "num_atms": 26, 
	 "gaussian": { 
		 "optdone": 1, 
		 "sigma_profile": "yes", 
		 "theory": "DFT", 
		 "functional": "B3LYP", 
		 "basiset": "6-31G**", 
		 "properties": { 
			 "R2extent": 3662.2381, 
			 "electric_dipole_moment_norm": 3.66989865391, 
			 "electric_quadrupole_moment_norm": 23.1182276267, 
			 "total_energy": -743.261222481, 
			 "HOMO_LUMO_gap": 0.17916, 
			 "cosmo_polarized_energy": -10.25, 
			 "cosmo_cavitation_energy": 30.42, 
			 "cosmo_dispersion_energy": -22.03, 
			 "cosmo_repulsion_energy": 1.72, 
			 "cosmo_total_nonelectrostatic_energy": 10.1, 
			 "SMD_solvation_energy": 9.04 
		},
		"coords": [
			{
				"x": -2.6104369697,
				"y": -2.8112991002,
				"z": -0.9358769238,
				"element": "C" 
			},
			{
				"x": -1.9008176772,
				"y": -1.6360421251,
				"z": -0.5138224052,
				"element": "O" 
			},
			{
				"x": -0.5565516359,
				"y": -1.7665723722,
				"z": -0.4413666903,
				"element": "C" 
			},
			{
				"x": 0.0098936126,
				"y": -2.8112681477,
				"z": -0.7004892694,
				"element": "O" 
			},
			{
				"x": 0.106192454,
				"y": -0.490586771,
				"z": -0.0212375509,
				"element": "C" 
			},
			{
				"x": 1.4932171502,
				"y": -0.4439191963,
				"z": 0.2775559707,
				"element": "C" 
			},
			{
				"x": 2.3589614087,
				"y": -1.6795348942,
				"z": 0.2149964663,
				"element": "C" 
			},
			{
				"x": 2.0675740828,
				"y": 0.7996109287,
				"z": 0.6445734002,
				"element": "C" 
			},
			{
				"x": 3.5395669639,
				"y": 0.9362727261,
				"z": 0.9703884684,
				"element": "C" 
			},
			{
				"x": 1.2686613451,
				"y": 1.9417912166,
				"z": 0.7094027986,
				"element": "C" 
			},
			{
				"x": -0.0887035118,
				"y": 1.8613670338,
				"z": 0.4171438473,
				"element": "C" 
			},
			{
				"x": -0.6820744263,
				"y": 0.6643971873,
				"z": 0.0540419068,
				"element": "C" 
			},
			{
				"x": -0.9124577519,
				"y": 3.0767937844,
				"z": 0.4934202157,
				"element": "N" 
			},
			{
				"x": -2.1088925664,
				"y": 2.9749082642,
				"z": 0.2248283445,
				"element": "O" 
			},
			{
				"x": -0.3541314592,
				"y": 4.1238226078,
				"z": 0.8219801506,
				"element": "O" 
			},
			{
				"x": -2.4358603409,
				"y": -3.6357153282,
				"z": -0.2402611454,
				"element": "H" 
			},
			{
				"x": -3.6631012223,
				"y": -2.5299184032,
				"z": -0.9416905948,
				"element": "H" 
			},
			{
				"x": -2.2878821685,
				"y": -3.1180458964,
				"z": -1.9338864381,
				"element": "H" 
			},
			{
				"x": 3.3587240174,
				"y": -1.4880021619,
				"z": 0.6024394093,
				"element": "H" 
			},
			{
				"x": 1.9144289643,
				"y": -2.5033751163,
				"z": 0.7770121729,
				"element": "H" 
			},
			{
				"x": 2.4467692939,
				"y": -2.0425315321,
				"z": -0.8133703891,
				"element": "H" 
			},
			{
				"x": 3.823619506,
				"y": 0.3323650555,
				"z": 1.8392437735,
				"element": "H" 
			},
			{
				"x": 3.7847678629,
				"y": 1.9762233236,
				"z": 1.1978819233,
				"element": "H" 
			},
			{
				"x": 4.1736417769,
				"y": 0.6207487848,
				"z": 0.1350880943,
				"element": "H" 
			},
			{
				"x": 1.6886190221,
				"y": 2.9013104507,
				"z": 0.9862190429,
				"element": "H" 
			},
			{
				"x": -1.7386277309,
				"y": 0.6320996814,
				"z": -0.1690145783,
				"element": "H" 
			}
		],
		 "valence_orbital": [ 
			{
				"type": "occ",
				"energy": -0.30697,
				"method": "rhf"
			},
			{
				"type": "occ",
				"energy": -0.2898,
				"method": "rhf"
			},
			{
				"type": "occ",
				"energy": -0.28179,
				"method": "rhf"
			},
			{
				"type": "occ",
				"energy": -0.2766,
				"method": "rhf"
			},
			{
				"type": "occ",
				"energy": -0.26761,
				"method": "rhf"
			},
			{
				"type": "unocc",
				"energy": -0.08845,
				"method": "rhf"
			},
			{
				"type": "unocc",
				"energy": -0.05802,
				"method": "rhf"
			},
			{
				"type": "unocc",
				"energy": -0.00642,
				"method": "rhf"
			},
			{
				"type": "unocc",
				"energy": 0.04768,
				"method": "rhf"
			},
			{
				"type": "unocc",
				"energy": 0.08732,
				"method": "rhf"
			}
		],
		"cosmo_sigma_profile": { 
			"-0.025": 0.0,
			"-0.024": 0.0,
			"-0.023": 0.0,
			"-0.022": 0.0,
			"-0.021": 0.0,
			"-0.02": 0.0,
			"-0.019": 0.0,
			"-0.018": 0.0,
			"-0.017": 0.0,
			"-0.016": 0.0,
			"-0.015": 0.0,
			"-0.014": 0.0,
			"-0.013": 0.0,
			"-0.012": 0.0,
			"-0.011": 0.0,
			"-0.01": 0.0,
			"-0.009": 0.0,
			"-0.008": 0.514723029033,
			"-0.007": 3.3291684542,
			"-0.006": 8.56149214903,
			"-0.005": 15.6536040139,
			"-0.004": 24.7368452449,
			"-0.003": 28.6593106891,
			"-0.002": 24.6119290641,
			"-0.001": 29.6688027332,
			"0.0": 27.271149266,
			"0.001": 15.4137041876,
			"0.002": 7.22869536543,
			"0.003": 5.61090853192,
			"0.004": 6.33134598385,
			"0.005": 5.02726490542,
			"0.006": 5.15117771044,
			"0.007": 10.1512851111,
			"0.008": 9.25394104369,
			"0.009": 5.65499700836,
			"0.01": 4.43604096706,
			"0.011": 2.73481155836,
			"0.012": 1.86474897352,
			"0.013": 0.0134179657728,
			"0.014": 0.0,
			"0.015": 0.0,
			"0.016": 0.0,
			"0.017": 0.0,
			"0.018": 0.0,
			"0.019": 0.0,
			"0.02": 0.0,
			"0.021": 0.0,
			"0.022": 0.0,
			"0.023": 0.0,
			"0.024": 0.0,
			"0.025": 0.0
		}
	}
}
