{
	 "smiles": "CC(=O)OC1=CC=CC(OC(C)=O)=C1OC(C)=O", 
	 "Tm": 439.15, 
	 "num_atms": 30, 
	 "gaussian": { 
		 "optdone": 1, 
		 "sigma_profile": "yes", 
		 "theory": "DFT", 
		 "functional": "B3LYP", 
		 "basiset": "6-31G**", 
		 "properties": { 
			 "R2extent": 4961.5765, 
			 "electric_dipole_moment_norm": 2.43559659632, 
			 "electric_quadrupole_moment_norm": 21.008421419, 
			 "total_energy": -915.872467186, 
			 "HOMO_LUMO_gap": 0.22549, 
			 "cosmo_polarized_energy": -17.14, 
			 "cosmo_cavitation_energy": 36.74, 
			 "cosmo_dispersion_energy": -23.99, 
			 "cosmo_repulsion_energy": 1.92, 
			 "cosmo_total_nonelectrostatic_energy": 14.67, 
			 "SMD_solvation_energy": 10.2 
		},
		"coords": [
			{
				"x": -0.4218201599,
				"y": -3.1364076169,
				"z": -1.705006366,
				"element": "C" 
			},
			{
				"x": 0.4091617267,
				"y": -2.4813907536,
				"z": -0.6309296191,
				"element": "C" 
			},
			{
				"x": 0.9934571452,
				"y": -3.0441334121,
				"z": 0.2596701804,
				"element": "O" 
			},
			{
				"x": 0.4007113743,
				"y": -1.119497159,
				"z": -0.8196634331,
				"element": "O" 
			},
			{
				"x": 1.0686143272,
				"y": -0.2560302911,
				"z": 0.0361407946,
				"element": "C" 
			},
			{
				"x": 2.3312399189,
				"y": -0.5015634955,
				"z": 0.5765390607,
				"element": "C" 
			},
			{
				"x": 2.933658411,
				"y": 0.4757981964,
				"z": 1.3690052812,
				"element": "C" 
			},
			{
				"x": 2.2935084057,
				"y": 1.6872652485,
				"z": 1.6258588355,
				"element": "C" 
			},
			{
				"x": 1.0392499717,
				"y": 1.9232484921,
				"z": 1.0735227188,
				"element": "C" 
			},
			{
				"x": 0.4304067514,
				"y": 3.160890535,
				"z": 1.2524744603,
				"element": "O" 
			},
			{
				"x": -0.6147660003,
				"y": 3.2417358528,
				"z": 2.1480123429,
				"element": "C" 
			},
			{
				"x": -1.1542261732,
				"y": 4.6492729876,
				"z": 2.1698684346,
				"element": "C" 
			},
			{
				"x": -1.0053906752,
				"y": 2.3114521956,
				"z": 2.8032178648,
				"element": "O" 
			},
			{
				"x": 0.4173862314,
				"y": 0.9572711465,
				"z": 0.2833289548,
				"element": "C" 
			},
			{
				"x": -0.8582676567,
				"y": 1.1898030266,
				"z": -0.2054876387,
				"element": "O" 
			},
			{
				"x": -0.9757138858,
				"y": 1.5625894562,
				"z": -1.5286311244,
				"element": "C" 
			},
			{
				"x": -2.432807507,
				"y": 1.7050260126,
				"z": -1.8856017084,
				"element": "C" 
			},
			{
				"x": -0.0348607206,
				"y": 1.7357906115,
				"z": -2.2576424414,
				"element": "O" 
			},
			{
				"x": -1.4600568882,
				"y": -2.7994682046,
				"z": -1.6296392583,
				"element": "H" 
			},
			{
				"x": -0.0546323586,
				"y": -2.8465174996,
				"z": -2.6935544369,
				"element": "H" 
			},
			{
				"x": -0.3744316283,
				"y": -4.2182869863,
				"z": -1.5871934118,
				"element": "H" 
			},
			{
				"x": 2.8249815601,
				"y": -1.4438043161,
				"z": 0.3856601719,
				"element": "H" 
			},
			{
				"x": 3.9142310552,
				"y": 0.2854933493,
				"z": 1.7930106957,
				"element": "H" 
			},
			{
				"x": 2.7536881372,
				"y": 2.4560458457,
				"z": 2.2366278807,
				"element": "H" 
			},
			{
				"x": -1.5026096771,
				"y": 4.9319074611,
				"z": 1.1721872341,
				"element": "H" 
			},
			{
				"x": -0.3614541749,
				"y": 5.350109584,
				"z": 2.4471473588,
				"element": "H" 
			},
			{
				"x": -1.9742091435,
				"y": 4.7109071402,
				"z": 2.8843157358,
				"element": "H" 
			},
			{
				"x": -2.9302313632,
				"y": 0.7347872776,
				"z": -1.7936598472,
				"element": "H" 
			},
			{
				"x": -2.5208331333,
				"y": 2.0713821395,
				"z": -2.9076939004,
				"element": "H" 
			},
			{
				"x": -2.9286838702,
				"y": 2.3902231763,
				"z": -1.1926848197,
				"element": "H" 
			}
		],
		 "valence_orbital": [ 
			{
				"type": "occ",
				"energy": -0.28484,
				"method": "rhf"
			},
			{
				"type": "occ",
				"energy": -0.28325,
				"method": "rhf"
			},
			{
				"type": "occ",
				"energy": -0.28027,
				"method": "rhf"
			},
			{
				"type": "occ",
				"energy": -0.24988,
				"method": "rhf"
			},
			{
				"type": "occ",
				"energy": -0.24603,
				"method": "rhf"
			},
			{
				"type": "unocc",
				"energy": -0.02054,
				"method": "rhf"
			},
			{
				"type": "unocc",
				"energy": -0.01116,
				"method": "rhf"
			},
			{
				"type": "unocc",
				"energy": 0.00312,
				"method": "rhf"
			},
			{
				"type": "unocc",
				"energy": 0.00494,
				"method": "rhf"
			},
			{
				"type": "unocc",
				"energy": 0.01336,
				"method": "rhf"
			}
		],
		"cosmo_sigma_profile": { 
			"-0.025": 0.0,
			"-0.024": 0.0,
			"-0.023": 0.0,
			"-0.022": 0.0,
			"-0.021": 0.0,
			"-0.02": 0.0,
			"-0.019": 0.0,
			"-0.018": 0.0,
			"-0.017": 0.0,
			"-0.016": 0.0,
			"-0.015": 0.0,
			"-0.014": 0.0,
			"-0.013": 0.0,
			"-0.012": 0.0,
			"-0.011": 0.0,
			"-0.01": 0.0,
			"-0.009": 0.0,
			"-0.008": 0.99960135516,
			"-0.007": 15.2465623822,
			"-0.006": 25.5014297865,
			"-0.005": 25.4879268271,
			"-0.004": 26.9366764074,
			"-0.003": 28.3669229214,
			"-0.002": 28.407823366,
			"-0.001": 14.0802845906,
			"0.0": 11.1519248125,
			"0.001": 14.3356070387,
			"0.002": 16.0370169537,
			"0.003": 13.5887772081,
			"0.004": 10.3120541974,
			"0.005": 6.8075720467,
			"0.006": 7.51463020077,
			"0.007": 8.55050688356,
			"0.008": 6.866985243,
			"0.009": 7.50450687591,
			"0.01": 9.70712909115,
			"0.011": 12.6697194634,
			"0.012": 2.85347936364,
			"0.013": 0.0,
			"0.014": 0.0,
			"0.015": 0.0,
			"0.016": 0.0,
			"0.017": 0.0,
			"0.018": 0.0,
			"0.019": 0.0,
			"0.02": 0.0,
			"0.021": 0.0,
			"0.022": 0.0,
			"0.023": 0.0,
			"0.024": 0.0,
			"0.025": 0.0
		}
	}
}
