{
	 "smiles": "OC(=O)C1CCCN1C(=O)C1=CC=CS1", 
	 "Tm": 419.15, 
	 "num_atms": 26, 
	 "gaussian": { 
		 "optdone": 1, 
		 "sigma_profile": "yes", 
		 "theory": "DFT", 
		 "functional": "B3LYP", 
		 "basiset": "6-31G**", 
		 "properties": { 
			 "R2extent": 4832.4642, 
			 "electric_dipole_moment_norm": 5.49732962264, 
			 "electric_quadrupole_moment_norm": 19.5294743695, 
			 "total_energy": -1066.31414538, 
			 "HOMO_LUMO_gap": 0.19507, 
			 "cosmo_polarized_energy": -18.97, 
			 "cosmo_cavitation_energy": 30.91, 
			 "cosmo_dispersion_energy": -22.73, 
			 "cosmo_repulsion_energy": 1.75, 
			 "cosmo_total_nonelectrostatic_energy": 9.92, 
			 "SMD_solvation_energy": 6.17 
		},
		"coords": [
			{
				"x": -0.0318665918,
				"y": -2.1549070973,
				"z": -1.9424160803,
				"element": "O" 
			},
			{
				"x": 1.034112474,
				"y": -2.4466144984,
				"z": -1.1634284129,
				"element": "C" 
			},
			{
				"x": 1.7755892176,
				"y": -3.3786393178,
				"z": -1.3734337838,
				"element": "O" 
			},
			{
				"x": 1.2668742467,
				"y": -1.4172524133,
				"z": -0.0657049822,
				"element": "C" 
			},
			{
				"x": 2.0987113065,
				"y": -0.2195775306,
				"z": -0.5804444256,
				"element": "C" 
			},
			{
				"x": 1.6351890423,
				"y": 0.9407451887,
				"z": 0.3117339864,
				"element": "C" 
			},
			{
				"x": 0.1313391993,
				"y": 0.6758391109,
				"z": 0.4696085679,
				"element": "C" 
			},
			{
				"x": 0.0454080804,
				"y": -0.7899716097,
				"z": 0.4511063042,
				"element": "N" 
			},
			{
				"x": -0.8744023559,
				"y": -1.6083438587,
				"z": 1.053276361,
				"element": "C" 
			},
			{
				"x": -0.6608851565,
				"y": -2.8214369129,
				"z": 1.1390121262,
				"element": "O" 
			},
			{
				"x": -2.126585504,
				"y": -1.0343490194,
				"z": 1.6029318368,
				"element": "C" 
			},
			{
				"x": -2.8171044957,
				"y": 0.1374272723,
				"z": 1.3753391826,
				"element": "C" 
			},
			{
				"x": -4.0412831009,
				"y": 0.2140199509,
				"z": 2.0964892317,
				"element": "C" 
			},
			{
				"x": -4.2672887202,
				"y": -0.9012563623,
				"z": 2.8614173537,
				"element": "C" 
			},
			{
				"x": -3.0080661765,
				"y": -2.0696422244,
				"z": 2.6997650846,
				"element": "S" 
			},
			{
				"x": -0.0727659479,
				"y": -2.861367633,
				"z": -2.6085214742,
				"element": "H" 
			},
			{
				"x": 1.7870339762,
				"y": -1.9552685302,
				"z": 0.7333317243,
				"element": "H" 
			},
			{
				"x": 1.8452258954,
				"y": -0.0133941619,
				"z": -1.6262146808,
				"element": "H" 
			},
			{
				"x": 3.1704408734,
				"y": -0.4199070484,
				"z": -0.5245194905,
				"element": "H" 
			},
			{
				"x": 1.843199102,
				"y": 1.9237808415,
				"z": -0.119038105,
				"element": "H" 
			},
			{
				"x": 2.1268545218,
				"y": 0.8878725001,
				"z": 1.2893194749,
				"element": "H" 
			},
			{
				"x": -0.4297230282,
				"y": 1.1136168267,
				"z": -0.3682277297,
				"element": "H" 
			},
			{
				"x": -0.2761036076,
				"y": 1.0769301402,
				"z": 1.400546986,
				"element": "H" 
			},
			{
				"x": -2.4862710804,
				"y": 0.9103368195,
				"z": 0.694296891,
				"element": "H" 
			},
			{
				"x": -4.7206396766,
				"y": 1.0571778074,
				"z": 2.0445785023,
				"element": "H" 
			},
			{
				"x": -5.1105924934,
				"y": -1.1004182398,
				"z": 3.5089955514,
				"element": "H" 
			}
		],
		 "valence_orbital": [ 
			{
				"type": "occ",
				"energy": -0.27563,
				"method": "rhf"
			},
			{
				"type": "occ",
				"energy": -0.25964,
				"method": "rhf"
			},
			{
				"type": "occ",
				"energy": -0.25591,
				"method": "rhf"
			},
			{
				"type": "occ",
				"energy": -0.24249,
				"method": "rhf"
			},
			{
				"type": "occ",
				"energy": -0.23965,
				"method": "rhf"
			},
			{
				"type": "unocc",
				"energy": -0.04458,
				"method": "rhf"
			},
			{
				"type": "unocc",
				"energy": 0.01404,
				"method": "rhf"
			},
			{
				"type": "unocc",
				"energy": 0.03181,
				"method": "rhf"
			},
			{
				"type": "unocc",
				"energy": 0.03948,
				"method": "rhf"
			},
			{
				"type": "unocc",
				"energy": 0.06824,
				"method": "rhf"
			}
		],
		"cosmo_sigma_profile": { 
			"-0.025": 0.0,
			"-0.024": 0.0,
			"-0.023": 0.0,
			"-0.022": 0.0,
			"-0.021": 0.0,
			"-0.02": 0.0,
			"-0.019": 0.0573216468734,
			"-0.018": 0.751022315572,
			"-0.017": 1.00984347895,
			"-0.016": 0.932131043164,
			"-0.015": 0.892230447309,
			"-0.014": 0.303320970714,
			"-0.013": 0.526834611403,
			"-0.012": 0.849017181484,
			"-0.011": 1.15836273762,
			"-0.01": 0.566144714893,
			"-0.009": 1.80935209814,
			"-0.008": 3.57590328564,
			"-0.007": 6.79608824073,
			"-0.006": 11.2791816097,
			"-0.005": 22.8270965948,
			"-0.004": 27.089328672,
			"-0.003": 20.5824965812,
			"-0.002": 17.6212165047,
			"-0.001": 14.1340219159,
			"0.0": 10.3840955506,
			"0.001": 9.4801813198,
			"0.002": 12.9967586883,
			"0.003": 19.3257446656,
			"0.004": 13.3054261139,
			"0.005": 5.19110979482,
			"0.006": 4.87364875573,
			"0.007": 5.27116660869,
			"0.008": 5.17929953838,
			"0.009": 5.53481179445,
			"0.01": 3.68975757271,
			"0.011": 6.33935647494,
			"0.012": 6.60251606871,
			"0.013": 4.60087984186,
			"0.014": 1.25671711775,
			"0.015": 0.0,
			"0.016": 0.0,
			"0.017": 0.0,
			"0.018": 0.0,
			"0.019": 0.0,
			"0.02": 0.0,
			"0.021": 0.0,
			"0.022": 0.0,
			"0.023": 0.0,
			"0.024": 0.0,
			"0.0": 0.0
		}
	}
}
