{
	 "smiles": "ClC1=CC=C(C=C1)C(C#N)N1CCOCC1", 
	 "Tm": 349.65, 
	 "num_atms": 29, 
	 "gaussian": { 
		 "optdone": 1, 
		 "sigma_profile": "yes", 
		 "theory": "DFT", 
		 "functional": "B3LYP", 
		 "basiset": "6-31G**", 
		 "properties": { 
			 "R2extent": 5696.3666, 
			 "electric_dipole_moment_norm": 2.86331741167, 
			 "electric_quadrupole_moment_norm": 11.4012817029, 
			 "total_energy": -1109.98839993, 
			 "HOMO_LUMO_gap": 0.21308, 
			 "cosmo_polarized_energy": -12.06, 
			 "cosmo_cavitation_energy": 33.79, 
			 "cosmo_dispersion_energy": -23.77, 
			 "cosmo_repulsion_energy": 1.85, 
			 "cosmo_total_nonelectrostatic_energy": 11.87, 
			 "SMD_solvation_energy": 5.18 
		},
		"coords": [
			{
				"x": -4.2421106701,
				"y": -0.4415989979,
				"z": 4.0538485089,
				"element": "Cl" 
			},
			{
				"x": -2.8825186909,
				"y": -0.2842060781,
				"z": 2.9527662475,
				"element": "C" 
			},
			{
				"x": -2.4158019381,
				"y": 0.9880430664,
				"z": 2.6168012507,
				"element": "C" 
			},
			{
				"x": -1.3377180861,
				"y": 1.1061175146,
				"z": 1.7437293393,
				"element": "C" 
			},
			{
				"x": -0.7238298209,
				"y": -0.0313891886,
				"z": 1.2028324129,
				"element": "C" 
			},
			{
				"x": -1.2085092804,
				"y": -1.2946571423,
				"z": 1.5504513025,
				"element": "C" 
			},
			{
				"x": -2.2883178155,
				"y": -1.4281366386,
				"z": 2.4261956946,
				"element": "C" 
			},
			{
				"x": 0.4856497289,
				"y": 0.1692055423,
				"z": 0.2859340899,
				"element": "C" 
			},
			{
				"x": 0.9831479851,
				"y": -1.1152078316,
				"z": -0.2820756762,
				"element": "C" 
			},
			{
				"x": 1.3873321687,
				"y": -2.0789779878,
				"z": -0.7884328191,
				"element": "N" 
			},
			{
				"x": 0.2353293956,
				"y": 1.1781757285,
				"z": -0.7442458264,
				"element": "N" 
			},
			{
				"x": -0.7743753908,
				"y": 0.7895400287,
				"z": -1.7405195276,
				"element": "C" 
			},
			{
				"x": -1.0539851017,
				"y": 1.9783905115,
				"z": -2.6575821145,
				"element": "C" 
			},
			{
				"x": 0.1326100211,
				"y": 2.4318734012,
				"z": -3.2937720605,
				"element": "O" 
			},
			{
				"x": 1.1056754802,
				"y": 2.8146884944,
				"z": -2.3343016209,
				"element": "C" 
			},
			{
				"x": 1.4576236565,
				"y": 1.6523061979,
				"z": -1.4067425528,
				"element": "C" 
			},
			{
				"x": -2.8905609881,
				"y": 1.8691575679,
				"z": 3.0340598706,
				"element": "H" 
			},
			{
				"x": -0.9735794436,
				"y": 2.088664019,
				"z": 1.4614016759,
				"element": "H" 
			},
			{
				"x": -0.7478156159,
				"y": -2.1872137251,
				"z": 1.138551695,
				"element": "H" 
			},
			{
				"x": -2.664203758,
				"y": -2.4097308563,
				"z": 2.6921031911,
				"element": "H" 
			},
			{
				"x": 1.3097987251,
				"y": 0.5582902382,
				"z": 0.9008351385,
				"element": "H" 
			},
			{
				"x": -0.4345468298,
				"y": -0.0669399464,
				"z": -2.3476864478,
				"element": "H" 
			},
			{
				"x": -1.6929853535,
				"y": 0.4973001417,
				"z": -1.2223763367,
				"element": "H" 
			},
			{
				"x": -1.7460331089,
				"y": 1.6900532891,
				"z": -3.4536451826,
				"element": "H" 
			},
			{
				"x": -1.5084841141,
				"y": 2.7945556011,
				"z": -2.0725156654,
				"element": "H" 
			},
			{
				"x": 0.7373804159,
				"y": 3.6623424381,
				"z": -1.7332802681,
				"element": "H" 
			},
			{
				"x": 1.9889657589,
				"y": 3.1376677118,
				"z": -2.8924979458,
				"element": "H" 
			},
			{
				"x": 2.1678076124,
				"y": 1.9920018653,
				"z": -0.6430846887,
				"element": "H" 
			},
			{
				"x": 1.9436550581,
				"y": 0.8531850351,
				"z": -1.9930516841,
				"element": "H" 
			}
		],
		 "valence_orbital": [ 
			{
				"type": "occ",
				"energy": -0.31536,
				"method": "rhf"
			},
			{
				"type": "occ",
				"energy": -0.27479,
				"method": "rhf"
			},
			{
				"type": "occ",
				"energy": -0.26825,
				"method": "rhf"
			},
			{
				"type": "occ",
				"energy": -0.25578,
				"method": "rhf"
			},
			{
				"type": "occ",
				"energy": -0.24449,
				"method": "rhf"
			},
			{
				"type": "unocc",
				"energy": -0.03141,
				"method": "rhf"
			},
			{
				"type": "unocc",
				"energy": -0.02516,
				"method": "rhf"
			},
			{
				"type": "unocc",
				"energy": 0.01882,
				"method": "rhf"
			},
			{
				"type": "unocc",
				"energy": 0.02338,
				"method": "rhf"
			},
			{
				"type": "unocc",
				"energy": 0.03117,
				"method": "rhf"
			}
		],
		"cosmo_sigma_profile": { 
			"-0.025": 0.0,
			"-0.024": 0.0,
			"-0.023": 0.0,
			"-0.022": 0.0,
			"-0.021": 0.0,
			"-0.02": 0.0,
			"-0.019": 0.0,
			"-0.018": 0.0,
			"-0.017": 0.0,
			"-0.016": 0.0,
			"-0.015": 0.0,
			"-0.014": 0.0,
			"-0.013": 0.0,
			"-0.012": 0.0,
			"-0.011": 0.0,
			"-0.01": 0.381547329306,
			"-0.009": 3.45485005939,
			"-0.008": 3.4859206809,
			"-0.007": 6.28099001367,
			"-0.006": 11.6680483322,
			"-0.005": 18.9894679686,
			"-0.004": 22.5020615288,
			"-0.003": 30.1384894529,
			"-0.002": 27.1476899457,
			"-0.001": 15.789094562,
			"0.0": 16.0576361729,
			"0.001": 19.4096473374,
			"0.002": 18.7275948094,
			"0.003": 20.4594811543,
			"0.004": 15.0565922106,
			"0.005": 9.35680699122,
			"0.006": 3.96123135885,
			"0.007": 4.24388877462,
			"0.008": 4.4190632035,
			"0.009": 3.44788776271,
			"0.01": 4.11799208965,
			"0.011": 3.86568569611,
			"0.012": 4.19148278572,
			"0.013": 2.83021857693,
			"0.014": 0.326610497587,
			"0.015": 0.0,
			"0.016": 0.0,
			"0.017": 0.0,
			"0.018": 0.0,
			"0.019": 0.0,
			"0.02": 0.0,
			"0.021": 0.0,
			"0.022": 0.0,
			"0.023": 0.0,
			"0.024": 0.0,
			"0.025": 0.0
		}
	}
}
