{
	 "smiles": "CCCC1(NC(=O)NC1=O)C1=CC=CC=C1", 
	 "Tm": 446.15, 
	 "num_atms": 30, 
	 "gaussian": { 
		 "optdone": 1, 
		 "sigma_profile": "yes", 
		 "theory": "DFT", 
		 "functional": "B3LYP", 
		 "basiset": "6-31G**", 
		 "properties": { 
			 "R2extent": 3726.1779, 
			 "electric_dipole_moment_norm": 2.5851072705, 
			 "electric_quadrupole_moment_norm": 11.6975183535, 
			 "total_energy": -725.713101527, 
			 "HOMO_LUMO_gap": 0.22741, 
			 "cosmo_polarized_energy": -15.92, 
			 "cosmo_cavitation_energy": 32.57, 
			 "cosmo_dispersion_energy": -22.77, 
			 "cosmo_repulsion_energy": 1.79, 
			 "cosmo_total_nonelectrostatic_energy": 11.58, 
			 "SMD_solvation_energy": 7.14 
		},
		"coords": [
			{
				"x": -2.4020346155,
				"y": -2.4138151034,
				"z": -1.0561702556,
				"element": "C" 
			},
			{
				"x": -2.5093728627,
				"y": -0.9463317664,
				"z": -0.6217822736,
				"element": "C" 
			},
			{
				"x": -1.1985904744,
				"y": -0.1420151098,
				"z": -0.6137034725,
				"element": "C" 
			},
			{
				"x": -0.145003877,
				"y": -0.4804823998,
				"z": 0.4794447722,
				"element": "C" 
			},
			{
				"x": -0.7365752833,
				"y": -0.6305227891,
				"z": 1.8040975243,
				"element": "N" 
			},
			{
				"x": -0.4942387946,
				"y": -1.839271419,
				"z": 2.4028677443,
				"element": "C" 
			},
			{
				"x": -0.8552760706,
				"y": -2.2342590276,
				"z": 3.4913751123,
				"element": "O" 
			},
			{
				"x": 0.275317901,
				"y": -2.5654363454,
				"z": 1.4677670966,
				"element": "N" 
			},
			{
				"x": 0.4709637252,
				"y": -1.8927693973,
				"z": 0.2816838006,
				"element": "C" 
			},
			{
				"x": 1.0220649278,
				"y": -2.3115325221,
				"z": -0.7146624512,
				"element": "O" 
			},
			{
				"x": 0.9897309775,
				"y": 0.5615435329,
				"z": 0.4435690206,
				"element": "C" 
			},
			{
				"x": 1.2343186515,
				"y": 1.4115556056,
				"z": 1.527592425,
				"element": "C" 
			},
			{
				"x": 2.238914091,
				"y": 2.3796715492,
				"z": 1.4601987628,
				"element": "C" 
			},
			{
				"x": 3.0181805545,
				"y": 2.5050620092,
				"z": 0.3109894254,
				"element": "C" 
			},
			{
				"x": 2.7904125175,
				"y": 1.6500093128,
				"z": -0.7693282835,
				"element": "C" 
			},
			{
				"x": 1.7845181003,
				"y": 0.6867054445,
				"z": -0.706320541,
				"element": "C" 
			},
			{
				"x": -1.8696244799,
				"y": -3.0276926085,
				"z": -0.324753749,
				"element": "H" 
			},
			{
				"x": -3.3999193949,
				"y": -2.8480306102,
				"z": -1.1750965774,
				"element": "H" 
			},
			{
				"x": -1.8764552318,
				"y": -2.5095731894,
				"z": -2.0118543849,
				"element": "H" 
			},
			{
				"x": -2.9833667468,
				"y": -0.8882801817,
				"z": 0.3655924574,
				"element": "H" 
			},
			{
				"x": -3.1885248897,
				"y": -0.4274569685,
				"z": -1.3097713989,
				"element": "H" 
			},
			{
				"x": -0.698627359,
				"y": -0.2375654983,
				"z": -1.5831744948,
				"element": "H" 
			},
			{
				"x": -1.4373402383,
				"y": 0.9220600606,
				"z": -0.4953501173,
				"element": "H" 
			},
			{
				"x": -1.3213076293,
				"y": 0.0527833894,
				"z": 2.2579786934,
				"element": "H" 
			},
			{
				"x": 0.5735003729,
				"y": -3.5151000773,
				"z": 1.6382694911,
				"element": "H" 
			},
			{
				"x": 0.6509031366,
				"y": 1.3133635659,
				"z": 2.436684436,
				"element": "H" 
			},
			{
				"x": 2.4124520273,
				"y": 3.0310949947,
				"z": 2.3120007052,
				"element": "H" 
			},
			{
				"x": 3.8007696621,
				"y": 3.2564003212,
				"z": 0.2592216883,
				"element": "H" 
			},
			{
				"x": 3.4008171982,
				"y": 1.7281068609,
				"z": -1.6644601132,
				"element": "H" 
			},
			{
				"x": 1.6362941045,
				"y": 0.0062783668,
				"z": -1.5375050425,
				"element": "H" 
			}
		],
		 "valence_orbital": [ 
			{
				"type": "occ",
				"energy": -0.28938,
				"method": "rhf"
			},
			{
				"type": "occ",
				"energy": -0.27045,
				"method": "rhf"
			},
			{
				"type": "occ",
				"energy": -0.26581,
				"method": "rhf"
			},
			{
				"type": "occ",
				"energy": -0.25511,
				"method": "rhf"
			},
			{
				"type": "occ",
				"energy": -0.24898,
				"method": "rhf"
			},
			{
				"type": "unocc",
				"energy": -0.02157,
				"method": "rhf"
			},
			{
				"type": "unocc",
				"energy": -0.00752,
				"method": "rhf"
			},
			{
				"type": "unocc",
				"energy": 0.00264,
				"method": "rhf"
			},
			{
				"type": "unocc",
				"energy": 0.06291,
				"method": "rhf"
			},
			{
				"type": "unocc",
				"energy": 0.0648,
				"method": "rhf"
			}
		],
		"cosmo_sigma_profile": { 
			"-0.025": 0.0,
			"-0.024": 0.0,
			"-0.023": 0.0,
			"-0.022": 0.0,
			"-0.021": 0.0,
			"-0.02": 0.0,
			"-0.019": 0.0,
			"-0.018": 0.0,
			"-0.017": 0.404201347989,
			"-0.016": 1.33830941946,
			"-0.015": 2.16116966844,
			"-0.014": 1.79828435632,
			"-0.013": 1.99043664155,
			"-0.012": 1.79885984596,
			"-0.011": 2.05129108446,
			"-0.01": 2.45506644313,
			"-0.009": 2.09284108778,
			"-0.008": 2.26205684697,
			"-0.007": 1.79511333151,
			"-0.006": 7.22282498968,
			"-0.005": 12.1584317372,
			"-0.004": 18.0617811171,
			"-0.003": 24.670497715,
			"-0.002": 26.5698333467,
			"-0.001": 26.082506737,
			"0.0": 21.5678920219,
			"0.001": 17.2165730621,
			"0.002": 10.9708443196,
			"0.003": 9.87756846287,
			"0.004": 12.348247567,
			"0.005": 12.4897461745,
			"0.006": 6.518038201,
			"0.007": 2.63896509591,
			"0.008": 2.37189941452,
			"0.009": 2.44105947356,
			"0.01": 3.3822560317,
			"0.011": 5.03094000058,
			"0.012": 7.68211059,
			"0.013": 6.62517754951,
			"0.014": 0.853759283134,
			"0.015": 0.0,
			"0.016": 0.0,
			"0.017": 0.0,
			"0.018": 0.0,
			"0.019": 0.0,
			"0.02": 0.0,
			"0.021": 0.0,
			"0.022": 0.0,
			"0.023": 0.0,
			"0.024": 0.0,
			"0.025": 0.0
		}
	}
}
