{
	 "smiles": "OC(=O)CCC1=C(F)C=CC=C1", 
	 "Tm": 350.15, 
	 "num_atms": 21, 
	 "gaussian": { 
		 "optdone": 1, 
		 "sigma_profile": "yes", 
		 "theory": "DFT", 
		 "functional": "B3LYP", 
		 "basiset": "6-31G**", 
		 "properties": { 
			 "R2extent": 2189.9935, 
			 "electric_dipole_moment_norm": 2.18567770954, 
			 "electric_quadrupole_moment_norm": 8.8597891335, 
			 "total_energy": -598.686447774, 
			 "HOMO_LUMO_gap": 0.23214, 
			 "cosmo_polarized_energy": -10.09, 
			 "cosmo_cavitation_energy": 25.6, 
			 "cosmo_dispersion_energy": -18.0, 
			 "cosmo_repulsion_energy": 1.44, 
			 "cosmo_total_nonelectrostatic_energy": 9.04, 
			 "SMD_solvation_energy": 5.8 
		},
		"coords": [
			{
				"x": -2.2312586224,
				"y": -0.708511844,
				"z": -1.0335118826,
				"element": "O" 
			},
			{
				"x": -1.5995288427,
				"y": -1.4951217196,
				"z": -0.1219030305,
				"element": "C" 
			},
			{
				"x": -2.0609053761,
				"y": -1.7047741439,
				"z": 0.9769590217,
				"element": "O" 
			},
			{
				"x": -0.3129082835,
				"y": -2.0796547383,
				"z": -0.6653437225,
				"element": "C" 
			},
			{
				"x": 0.5781726135,
				"y": -1.0778693176,
				"z": -1.431343457,
				"element": "C" 
			},
			{
				"x": 1.0752268084,
				"y": 0.0644414392,
				"z": -0.5742934587,
				"element": "C" 
			},
			{
				"x": 2.0863702465,
				"y": -0.1418729346,
				"z": 0.3675824274,
				"element": "C" 
			},
			{
				"x": 2.6085355906,
				"y": -1.3891156732,
				"z": 0.4814712229,
				"element": "F" 
			},
			{
				"x": 2.5812481733,
				"y": 0.862858219,
				"z": 1.1871934005,
				"element": "C" 
			},
			{
				"x": 2.0422974708,
				"y": 2.1456336515,
				"z": 1.0708572142,
				"element": "C" 
			},
			{
				"x": 1.0281469077,
				"y": 2.3943694696,
				"z": 0.1448275368,
				"element": "C" 
			},
			{
				"x": 0.5533594946,
				"y": 1.3608267261,
				"z": -0.6657242964,
				"element": "C" 
			},
			{
				"x": -3.04314085,
				"y": -0.3995382598,
				"z": -0.5974473114,
				"element": "H" 
			},
			{
				"x": -0.5914521952,
				"y": -2.8989436921,
				"z": -1.3410902733,
				"element": "H" 
			},
			{
				"x": 0.2254709301,
				"y": -2.516194216,
				"z": 0.1775572333,
				"element": "H" 
			},
			{
				"x": 0.0223701907,
				"y": -0.6775036832,
				"z": -2.2830204286,
				"element": "H" 
			},
			{
				"x": 1.4330891573,
				"y": -1.6333615523,
				"z": -1.8311167075,
				"element": "H" 
			},
			{
				"x": 3.3697699359,
				"y": 0.6314584677,
				"z": 1.8951622303,
				"element": "H" 
			},
			{
				"x": 2.4162971087,
				"y": 2.9446535207,
				"z": 1.7037852736,
				"element": "H" 
			},
			{
				"x": 0.6072912962,
				"y": 3.3908451871,
				"z": 0.0520376951,
				"element": "H" 
			},
			{
				"x": -0.2386517545,
				"y": 1.5525750937,
				"z": -1.3841386873,
				"element": "H" 
			}
		],
		 "valence_orbital": [ 
			{
				"type": "occ",
				"energy": -0.33734,
				"method": "rhf"
			},
			{
				"type": "occ",
				"energy": -0.31775,
				"method": "rhf"
			},
			{
				"type": "occ",
				"energy": -0.27243,
				"method": "rhf"
			},
			{
				"type": "occ",
				"energy": -0.25474,
				"method": "rhf"
			},
			{
				"type": "occ",
				"energy": -0.24218,
				"method": "rhf"
			},
			{
				"type": "unocc",
				"energy": -0.01004,
				"method": "rhf"
			},
			{
				"type": "unocc",
				"energy": -0.00042,
				"method": "rhf"
			},
			{
				"type": "unocc",
				"energy": 0.00945,
				"method": "rhf"
			},
			{
				"type": "unocc",
				"energy": 0.07419,
				"method": "rhf"
			},
			{
				"type": "unocc",
				"energy": 0.08693,
				"method": "rhf"
			}
		],
		"cosmo_sigma_profile": { 
			"-0.025": 0.0,
			"-0.024": 0.0,
			"-0.023": 0.0,
			"-0.022": 0.0,
			"-0.021": 0.0,
			"-0.02": 0.0,
			"-0.019": 0.0187999835844,
			"-0.018": 0.620914446221,
			"-0.017": 0.886902684153,
			"-0.016": 0.956271583957,
			"-0.015": 1.07575252177,
			"-0.014": 0.352977899673,
			"-0.013": 0.105819287804,
			"-0.012": 0.590530674076,
			"-0.011": 1.05455985713,
			"-0.01": 0.747959020062,
			"-0.009": 0.785667138057,
			"-0.008": 0.535147424485,
			"-0.007": 4.39415957159,
			"-0.006": 9.29268791684,
			"-0.005": 12.6468197388,
			"-0.004": 16.5568551258,
			"-0.003": 17.0210972172,
			"-0.002": 15.9562923972,
			"-0.001": 13.2102803032,
			"0.0": 13.4135850807,
			"0.001": 14.8599040868,
			"0.002": 15.1993808248,
			"0.003": 13.6805735624,
			"0.004": 16.0966984123,
			"0.005": 11.9909361207,
			"0.006": 3.56286373631,
			"0.007": 1.23372078103,
			"0.008": 2.26531233229,
			"0.009": 2.44006408259,
			"0.01": 1.76918379667,
			"0.011": 3.93533818925,
			"0.012": 4.79768741285,
			"0.013": 1.10717959685,
			"0.014": 0.0,
			"0.015": 0.0,
			"0.016": 0.0,
			"0.017": 0.0,
			"0.018": 0.0,
			"0.019": 0.0,
			"0.02": 0.0,
			"0.021": 0.0,
			"0.022": 0.0,
			"0.023": 0.0,
			"0.024": 0.0,
			"0.025": 0.0
		}
	}
}
