{
	 "smiles": "FC1=CC=C(NCC2=CN=CC=C2)C=C1", 
	 "Tm": 363.15, 
	 "num_atms": 26, 
	 "gaussian": { 
		 "optdone": 1, 
		 "sigma_profile": "yes", 
		 "theory": "DFT", 
		 "functional": "B3LYP", 
		 "basiset": "6-31G**", 
		 "properties": { 
			 "R2extent": 4223.9471, 
			 "electric_dipole_moment_norm": 3.30423186232, 
			 "electric_quadrupole_moment_norm": 12.0644520593, 
			 "total_energy": -673.234352342, 
			 "HOMO_LUMO_gap": 0.17649, 
			 "cosmo_polarized_energy": -11.31, 
			 "cosmo_cavitation_energy": 30.53, 
			 "cosmo_dispersion_energy": -21.79, 
			 "cosmo_repulsion_energy": 1.68, 
			 "cosmo_total_nonelectrostatic_energy": 10.42, 
			 "SMD_solvation_energy": 3.76 
		},
		"coords": [
			{
				"x": 2.4701474392,
				"y": 3.4114724383,
				"z": 3.3456475999,
				"element": "F" 
			},
			{
				"x": 2.066570308,
				"y": 2.7040089909,
				"z": 2.2643642682,
				"element": "C" 
			},
			{
				"x": 3.0020311001,
				"y": 2.3411113693,
				"z": 1.3011135085,
				"element": "C" 
			},
			{
				"x": 2.583490438,
				"y": 1.615270103,
				"z": 0.1904677183,
				"element": "C" 
			},
			{
				"x": 1.2343674026,
				"y": 1.2464603197,
				"z": 0.0284570103,
				"element": "C" 
			},
			{
				"x": 0.8605608666,
				"y": 0.4900357374,
				"z": -1.0912078512,
				"element": "N" 
			},
			{
				"x": -0.5233903127,
				"y": 0.4302802769,
				"z": -1.5383827795,
				"element": "C" 
			},
			{
				"x": -1.3664930138,
				"y": -0.6138364346,
				"z": -0.822082789,
				"element": "C" 
			},
			{
				"x": -2.7522097551,
				"y": -0.4488099473,
				"z": -0.7078533322,
				"element": "C" 
			},
			{
				"x": -3.5761847788,
				"y": -1.3380095125,
				"z": -0.1422489667,
				"element": "N" 
			},
			{
				"x": -3.0253333323,
				"y": -2.4542581002,
				"z": 0.3504527761,
				"element": "C" 
			},
			{
				"x": -1.6555548437,
				"y": -2.7193907714,
				"z": 0.3029351472,
				"element": "C" 
			},
			{
				"x": -0.8138754194,
				"y": -1.7834312764,
				"z": -0.2941426428,
				"element": "C" 
			},
			{
				"x": 0.3131050549,
				"y": 1.6261789598,
				"z": 1.0199816294,
				"element": "C" 
			},
			{
				"x": 0.7303600104,
				"y": 2.3540909228,
				"z": 2.1360176548,
				"element": "C" 
			},
			{
				"x": 4.0404371428,
				"y": 2.6294278788,
				"z": 1.4251891031,
				"element": "H" 
			},
			{
				"x": 3.310886718,
				"y": 1.3277671246,
				"z": -0.5650958626,
				"element": "H" 
			},
			{
				"x": 1.526986269,
				"y": 0.5501475799,
				"z": -1.8472200242,
				"element": "H" 
			},
			{
				"x": -1.0197132085,
				"y": 1.4106095826,
				"z": -1.4577211309,
				"element": "H" 
			},
			{
				"x": -0.5014011313,
				"y": 0.1847825823,
				"z": -2.6070727661,
				"element": "H" 
			},
			{
				"x": -3.2224333459,
				"y": 0.4567145774,
				"z": -1.0937987273,
				"element": "H" 
			},
			{
				"x": -3.7098778097,
				"y": -3.1659260232,
				"z": 0.8088163575,
				"element": "H" 
			},
			{
				"x": -1.2602905251,
				"y": -3.6372998981,
				"z": 0.7273811118,
				"element": "H" 
			},
			{
				"x": 0.2596527468,
				"y": -1.9375491788,
				"z": -0.3459802562,
				"element": "H" 
			},
			{
				"x": -0.729391256,
				"y": 1.3423956843,
				"z": 0.9367609769,
				"element": "H" 
			},
			{
				"x": 0.0234532359,
				"y": 2.6482570146,
				"z": 2.9045222667,
				"element": "H" 
			}
		],
		 "valence_orbital": [ 
			{
				"type": "occ",
				"energy": -0.28259,
				"method": "rhf"
			},
			{
				"type": "occ",
				"energy": -0.25814,
				"method": "rhf"
			},
			{
				"type": "occ",
				"energy": -0.25422,
				"method": "rhf"
			},
			{
				"type": "occ",
				"energy": -0.2531,
				"method": "rhf"
			},
			{
				"type": "occ",
				"energy": -0.20101,
				"method": "rhf"
			},
			{
				"type": "unocc",
				"energy": -0.02452,
				"method": "rhf"
			},
			{
				"type": "unocc",
				"energy": -0.01534,
				"method": "rhf"
			},
			{
				"type": "unocc",
				"energy": -0.0053,
				"method": "rhf"
			},
			{
				"type": "unocc",
				"energy": 0.01931,
				"method": "rhf"
			},
			{
				"type": "unocc",
				"energy": 0.07015,
				"method": "rhf"
			}
		],
		"cosmo_sigma_profile": { 
			"-0.025": 0.0,
			"-0.024": 0.0,
			"-0.023": 0.0,
			"-0.022": 0.0,
			"-0.021": 0.0,
			"-0.02": 0.0,
			"-0.019": 0.0,
			"-0.018": 0.0,
			"-0.017": 0.0,
			"-0.016": 0.0,
			"-0.015": 0.0,
			"-0.014": 0.0,
			"-0.013": 0.672629902988,
			"-0.012": 1.51174008689,
			"-0.011": 1.99089906274,
			"-0.01": 1.64278516357,
			"-0.009": 1.37482748345,
			"-0.008": 1.87813171457,
			"-0.007": 5.6174148079,
			"-0.006": 15.1200723204,
			"-0.005": 18.4588354481,
			"-0.004": 20.8220431038,
			"-0.003": 16.6143621044,
			"-0.002": 14.1698063704,
			"-0.001": 12.1909734619,
			"0.0": 13.2079727159,
			"0.001": 14.1664809857,
			"0.002": 20.8333953337,
			"0.003": 24.5207116424,
			"0.004": 16.811593193,
			"0.005": 24.7017006193,
			"0.006": 6.55627664187,
			"0.007": 1.25689905047,
			"0.008": 1.44961577189,
			"0.009": 1.23659608835,
			"0.01": 1.04441508388,
			"0.011": 1.22454537635,
			"0.012": 1.19227727052,
			"0.013": 0.652299463249,
			"0.014": 0.742382302911,
			"0.015": 1.15081762693,
			"0.016": 0.908533782651,
			"0.017": 0.446318870803,
			"0.018": 0.0,
			"0.019": 0.0,
			"0.02": 0.0,
			"0.021": 0.0,
			"0.022": 0.0,
			"0.023": 0.0,
			"0.024": 0.0,
			"0.025": 0.0
		}
	}
}
