{
	 "smiles": "NC(CCCC(F)(F)F)C(O)=O", 
	 "Tm": 546.15, 
	 "num_atms": 22, 
	 "gaussian": { 
		 "optdone": 1, 
		 "sigma_profile": "yes", 
		 "theory": "DFT", 
		 "functional": "B3LYP", 
		 "basiset": "6-31G**", 
		 "properties": { 
			 "R2extent": 3927.7858, 
			 "electric_dipole_moment_norm": 2.95233761789, 
			 "electric_quadrupole_moment_norm": 17.1598841068, 
			 "total_energy": -739.405385286, 
			 "HOMO_LUMO_gap": 0.24665, 
			 "cosmo_polarized_energy": -16.6, 
			 "cosmo_cavitation_energy": 26.33, 
			 "cosmo_dispersion_energy": -18.49, 
			 "cosmo_repulsion_energy": 1.46, 
			 "cosmo_total_nonelectrostatic_energy": 9.3, 
			 "SMD_solvation_energy": 5.64 
		},
		"coords": [
			{
				"x": 0.1482175703,
				"y": -1.2551270277,
				"z": -0.1164064925,
				"element": "N" 
			},
			{
				"x": -0.9674014771,
				"y": -0.4849188464,
				"z": 0.4145989794,
				"element": "C" 
			},
			{
				"x": -1.0869232351,
				"y": 0.8726334669,
				"z": -0.3213945892,
				"element": "C" 
			},
			{
				"x": -1.3878801154,
				"y": 0.7230019836,
				"z": -1.8182509907,
				"element": "C" 
			},
			{
				"x": -1.4497818621,
				"y": 2.0402704363,
				"z": -2.6063074351,
				"element": "C" 
			},
			{
				"x": -0.1190473789,
				"y": 2.7362818209,
				"z": -2.7959890229,
				"element": "C" 
			},
			{
				"x": 0.8016781669,
				"y": 1.920940051,
				"z": -3.3539454908,
				"element": "F" 
			},
			{
				"x": 0.4041329243,
				"y": 3.1851972023,
				"z": -1.6262913843,
				"element": "F" 
			},
			{
				"x": -0.2488843109,
				"y": 3.8126743644,
				"z": -3.6033044353,
				"element": "F" 
			},
			{
				"x": -2.2415825097,
				"y": -1.3387525505,
				"z": 0.3176681234,
				"element": "C" 
			},
			{
				"x": -3.4080763076,
				"y": -0.7059053738,
				"z": 0.5947791864,
				"element": "O" 
			},
			{
				"x": -2.2394042944,
				"y": -2.5154708059,
				"z": 0.0504321188,
				"element": "O" 
			},
			{
				"x": 0.9982245979,
				"y": -1.0774637677,
				"z": 0.4068446651,
				"element": "H" 
			},
			{
				"x": -0.0726247033,
				"y": -2.2458036539,
				"z": -0.0630255514,
				"element": "H" 
			},
			{
				"x": -0.8640862282,
				"y": -0.2607960185,
				"z": 1.4937677181,
				"element": "H" 
			},
			{
				"x": -0.1408358297,
				"y": 1.4014293082,
				"z": -0.1789793176,
				"element": "H" 
			},
			{
				"x": -1.8464143843,
				"y": 1.5095631457,
				"z": 0.16024204,
				"element": "H" 
			},
			{
				"x": -2.3557084556,
				"y": 0.2228532661,
				"z": -1.9444819325,
				"element": "H" 
			},
			{
				"x": -0.6344551303,
				"y": 0.0627153712,
				"z": -2.2564614003,
				"element": "H" 
			},
			{
				"x": -1.837978126,
				"y": 1.8499595657,
				"z": -3.6118357193,
				"element": "H" 
			},
			{
				"x": -2.1250273738,
				"y": 2.7620605106,
				"z": -2.1333940018,
				"element": "H" 
			},
			{
				"x": -3.2435415368,
				"y": 0.2270575514,
				"z": 0.7926349328,
				"element": "H" 
			}
		],
		 "valence_orbital": [ 
			{
				"type": "occ",
				"energy": -0.35399,
				"method": "rhf"
			},
			{
				"type": "occ",
				"energy": -0.34797,
				"method": "rhf"
			},
			{
				"type": "occ",
				"energy": -0.32565,
				"method": "rhf"
			},
			{
				"type": "occ",
				"energy": -0.2819,
				"method": "rhf"
			},
			{
				"type": "occ",
				"energy": -0.24705,
				"method": "rhf"
			},
			{
				"type": "unocc",
				"energy": -0.0004,
				"method": "rhf"
			},
			{
				"type": "unocc",
				"energy": 0.03665,
				"method": "rhf"
			},
			{
				"type": "unocc",
				"energy": 0.08427,
				"method": "rhf"
			},
			{
				"type": "unocc",
				"energy": 0.09419,
				"method": "rhf"
			},
			{
				"type": "unocc",
				"energy": 0.11607,
				"method": "rhf"
			}
		],
		"cosmo_sigma_profile": { 
			"-0.025": 0.0,
			"-0.024": 0.0,
			"-0.023": 0.0,
			"-0.022": 0.0,
			"-0.021": 0.0,
			"-0.02": 0.0,
			"-0.019": 0.0495187154401,
			"-0.018": 0.880549763426,
			"-0.017": 0.949249673338,
			"-0.016": 1.10439733515,
			"-0.015": 0.921918298766,
			"-0.014": 0.997430953595,
			"-0.013": 0.589643879298,
			"-0.012": 1.07662423856,
			"-0.011": 2.04602290996,
			"-0.01": 3.00687225008,
			"-0.009": 2.89389124739,
			"-0.008": 3.06980357163,
			"-0.007": 7.18825908549,
			"-0.006": 12.5874138783,
			"-0.005": 11.8047417356,
			"-0.004": 13.3165310297,
			"-0.003": 13.7576931632,
			"-0.002": 10.4802617599,
			"-0.001": 9.63112324317,
			"0.0": 8.62730088578,
			"0.001": 8.97657550782,
			"0.002": 11.4523844836,
			"0.003": 31.6311769867,
			"0.004": 12.4223805199,
			"0.005": 3.11178898814,
			"0.006": 3.82690084789,
			"0.007": 3.6803745608,
			"0.008": 3.23873243704,
			"0.009": 4.6776333646,
			"0.01": 6.67169415099,
			"0.011": 5.42392151588,
			"0.012": 3.60748502348,
			"0.013": 1.32049111762,
			"0.014": 0.489781183971,
			"0.015": 0.484525411334,
			"0.016": 0.0274284394802,
			"0.017": 0.0,
			"0.018": 0.0,
			"0.019": 0.0,
			"0.02": 0.0,
			"0.021": 0.0,
			"0.022": 0.0,
			"0.023": 0.0,
			"0.024": 0.0,
			"0.025": 0.0
		}
	}
}
