{
	 "smiles": "COC1=CC2=C(CCC22NC(=O)NC2=O)C=C1", 
	 "Tm": 463.15, 
	 "num_atms": 29, 
	 "gaussian": { 
		 "optdone": 1, 
		 "sigma_profile": "yes", 
		 "theory": "DFT", 
		 "functional": "B3LYP", 
		 "basiset": "6-31G**", 
		 "properties": { 
			 "R2extent": 4782.7463, 
			 "electric_dipole_moment_norm": 4.25637508333, 
			 "electric_quadrupole_moment_norm": 14.0752386761, 
			 "total_energy": -799.717883824, 
			 "HOMO_LUMO_gap": 0.20292, 
			 "cosmo_polarized_energy": -18.19, 
			 "cosmo_cavitation_energy": 32.73, 
			 "cosmo_dispersion_energy": -23.48, 
			 "cosmo_repulsion_energy": 1.84, 
			 "cosmo_total_nonelectrostatic_energy": 11.09, 
			 "SMD_solvation_energy": 6.93 
		},
		"coords": [
			{
				"x": -1.3970843934,
				"y": -0.2963084349,
				"z": -3.4609661622,
				"element": "C" 
			},
			{
				"x": -1.1925053139,
				"y": -0.5582904756,
				"z": -2.0816919512,
				"element": "O" 
			},
			{
				"x": -0.6919837798,
				"y": 0.4397603498,
				"z": -1.297601747,
				"element": "C" 
			},
			{
				"x": -0.5294446065,
				"y": 0.1175513207,
				"z": 0.0584825948,
				"element": "C" 
			},
			{
				"x": -0.0370196413,
				"y": 1.087318953,
				"z": 0.9214699061,
				"element": "C" 
			},
			{
				"x": 0.3149573123,
				"y": 2.3663191663,
				"z": 0.4699912434,
				"element": "C" 
			},
			{
				"x": 0.8576866494,
				"y": 3.2144464922,
				"z": 1.5988604312,
				"element": "C" 
			},
			{
				"x": 0.4485752398,
				"y": 2.4211642758,
				"z": 2.8626796778,
				"element": "C" 
			},
			{
				"x": 0.2621785006,
				"y": 0.945794215,
				"z": 2.4108337721,
				"element": "C" 
			},
			{
				"x": 1.4053386149,
				"y": 0.0636640359,
				"z": 2.6811260343,
				"element": "N" 
			},
			{
				"x": 1.0520650993,
				"y": -1.1025873364,
				"z": 3.3185769413,
				"element": "C" 
			},
			{
				"x": 1.7399279057,
				"y": -2.0720569473,
				"z": 3.5602089426,
				"element": "O" 
			},
			{
				"x": -0.3079836191,
				"y": -0.9459802902,
				"z": 3.661614962,
				"element": "N" 
			},
			{
				"x": -0.8534639472,
				"y": 0.2377081497,
				"z": 3.2132424086,
				"element": "C" 
			},
			{
				"x": -1.975941534,
				"y": 0.6493716463,
				"z": 3.4133619226,
				"element": "O" 
			},
			{
				"x": 0.1566134145,
				"y": 2.6768196869,
				"z": -0.8774130459,
				"element": "C" 
			},
			{
				"x": -0.3486874286,
				"y": 1.7188297547,
				"z": -1.7628556302,
				"element": "C" 
			},
			{
				"x": -0.457198209,
				"y": -0.0477060816,
				"z": -3.970790464,
				"element": "H" 
			},
			{
				"x": -1.8013756916,
				"y": -1.2166511507,
				"z": -3.8849078543,
				"element": "H" 
			},
			{
				"x": -2.1159821783,
				"y": 0.5183950317,
				"z": -3.6166741284,
				"element": "H" 
			},
			{
				"x": -0.8057287365,
				"y": -0.8770319109,
				"z": 0.3946282139,
				"element": "H" 
			},
			{
				"x": 0.4494273704,
				"y": 4.2305203958,
				"z": 1.6047359699,
				"element": "H" 
			},
			{
				"x": 1.9490727349,
				"y": 3.3156662869,
				"z": 1.5235146685,
				"element": "H" 
			},
			{
				"x": 1.1640577406,
				"y": 2.4946003003,
				"z": 3.6849432518,
				"element": "H" 
			},
			{
				"x": -0.5249226778,
				"y": 2.772733787,
				"z": 3.2179078327,
				"element": "H" 
			},
			{
				"x": 2.2301034569,
				"y": 0.057910519,
				"z": 2.0990358899,
				"element": "H" 
			},
			{
				"x": -0.8012462724,
				"y": -1.6197501485,
				"z": 4.2295698295,
				"element": "H" 
			},
			{
				"x": 0.4194247229,
				"y": 3.6621523892,
				"z": -1.2534998546,
				"element": "H" 
			},
			{
				"x": -0.4742607329,
				"y": 1.9773360201,
				"z": -2.807483655,
				"element": "H" 
			}
		],
		 "valence_orbital": [ 
			{
				"type": "occ",
				"energy": -0.28678,
				"method": "rhf"
			},
			{
				"type": "occ",
				"energy": -0.27069,
				"method": "rhf"
			},
			{
				"type": "occ",
				"energy": -0.26146,
				"method": "rhf"
			},
			{
				"type": "occ",
				"energy": -0.25117,
				"method": "rhf"
			},
			{
				"type": "occ",
				"energy": -0.22285,
				"method": "rhf"
			},
			{
				"type": "unocc",
				"energy": -0.01993,
				"method": "rhf"
			},
			{
				"type": "unocc",
				"energy": -0.01018,
				"method": "rhf"
			},
			{
				"type": "unocc",
				"energy": 0.00348,
				"method": "rhf"
			},
			{
				"type": "unocc",
				"energy": 0.06257,
				"method": "rhf"
			},
			{
				"type": "unocc",
				"energy": 0.07985,
				"method": "rhf"
			}
		],
		"cosmo_sigma_profile": { 
			"-0.025": 0.0,
			"-0.024": 0.0,
			"-0.023": 0.0,
			"-0.022": 0.0,
			"-0.021": 0.0,
			"-0.02": 0.0,
			"-0.019": 0.0,
			"-0.018": 0.0,
			"-0.017": 0.35054853571,
			"-0.016": 1.28598273543,
			"-0.015": 2.0049888463,
			"-0.014": 2.16312525537,
			"-0.013": 1.71441398624,
			"-0.012": 1.34664054702,
			"-0.011": 2.09183579204,
			"-0.01": 1.5187636532,
			"-0.009": 1.99218408626,
			"-0.008": 1.69800468086,
			"-0.007": 3.80084219335,
			"-0.006": 11.8477987522,
			"-0.005": 18.5864784421,
			"-0.004": 25.2450948197,
			"-0.003": 28.1215429741,
			"-0.002": 22.7110837058,
			"-0.001": 18.6502232455,
			"0.0": 12.7230122701,
			"0.001": 8.57200444068,
			"0.002": 9.38671413202,
			"0.003": 12.590177797,
			"0.004": 13.8894360567,
			"0.005": 12.1533372496,
			"0.006": 5.96152555256,
			"0.007": 3.93228236226,
			"0.008": 2.95877835814,
			"0.009": 4.77249618467,
			"0.01": 4.49982656454,
			"0.011": 5.85730306464,
			"0.012": 10.1461160452,
			"0.013": 6.31103241243,
			"0.014": 0.562362648292,
			"0.015": 0.0,
			"0.016": 0.0,
			"0.017": 0.0,
			"0.018": 0.0,
			"0.019": 0.0,
			"0.02": 0.0,
			"0.021": 0.0,
			"0.022": 0.0,
			"0.023": 0.0,
			"0.024": 0.0,
			"0.025": 0.0
		}
	}
}
