{
	 "smiles": "CCCCCCC1=CC=C(C=C1)C#CC1=CC=C(C)C=C1", 
	 "Tm": 315.15, 
	 "num_atms": 45, 
	 "gaussian": { 
		 "optdone": 1, 
		 "sigma_profile": "yes", 
		 "theory": "DFT", 
		 "functional": "B3LYP", 
		 "basiset": "6-31G**", 
		 "properties": { 
			 "R2extent": 13758.172, 
			 "electric_dipole_moment_norm": 0.176429872754, 
			 "electric_quadrupole_moment_norm": 19.225495546, 
			 "total_energy": -814.679713131, 
			 "HOMO_LUMO_gap": 0.15867, 
			 "cosmo_polarized_energy": -6.85, 
			 "cosmo_cavitation_energy": 48.44, 
			 "cosmo_dispersion_energy": -33.32, 
			 "cosmo_repulsion_energy": 2.62, 
			 "cosmo_total_nonelectrostatic_energy": 17.74, 
			 "SMD_solvation_energy": 7.56 
		},
		"coords": [
			{
				"x": 3.8278601761,
				"y": 0.5310498669,
				"z": 4.954025044,
				"element": "C" 
			},
			{
				"x": 2.9272238217,
				"y": -0.1687338324,
				"z": 3.9286103361,
				"element": "C" 
			},
			{
				"x": 3.164837471,
				"y": 0.2523287934,
				"z": 2.4677211616,
				"element": "C" 
			},
			{
				"x": 4.5360078399,
				"y": -0.1609783272,
				"z": 1.9105260066,
				"element": "C" 
			},
			{
				"x": 4.8362304954,
				"y": 0.2834097453,
				"z": 0.4668542199,
				"element": "C" 
			},
			{
				"x": 4.1345610353,
				"y": -0.5104180711,
				"z": -0.6606203488,
				"element": "C" 
			},
			{
				"x": 2.6538042641,
				"y": -0.2535423604,
				"z": -0.854679707,
				"element": "C" 
			},
			{
				"x": 2.1877838537,
				"y": 1.0143193797,
				"z": -1.2383917349,
				"element": "C" 
			},
			{
				"x": 0.8342850108,
				"y": 1.2584476701,
				"z": -1.4376228913,
				"element": "C" 
			},
			{
				"x": -0.1141778568,
				"y": 0.229338806,
				"z": -1.2626978103,
				"element": "C" 
			},
			{
				"x": 0.349088422,
				"y": -1.0462854474,
				"z": -0.8865365306,
				"element": "C" 
			},
			{
				"x": 1.7081336577,
				"y": -1.2754382342,
				"z": -0.6904321534,
				"element": "C" 
			},
			{
				"x": -1.5023597148,
				"y": 0.4736210234,
				"z": -1.4659741037,
				"element": "C" 
			},
			{
				"x": -2.6883781568,
				"y": 0.6835700447,
				"z": -1.6394175614,
				"element": "C" 
			},
			{
				"x": -4.076346601,
				"y": 0.9291752765,
				"z": -1.8433249678,
				"element": "C" 
			},
			{
				"x": -4.5371526536,
				"y": 2.2070648329,
				"z": -2.2176305565,
				"element": "C" 
			},
			{
				"x": -5.8946665589,
				"y": 2.4402999709,
				"z": -2.412006388,
				"element": "C" 
			},
			{
				"x": -6.841325145,
				"y": 1.4194365535,
				"z": -2.2455516282,
				"element": "C" 
			},
			{
				"x": -8.3098455098,
				"y": 1.6714240075,
				"z": -2.489642454,
				"element": "C" 
			},
			{
				"x": -6.3796033228,
				"y": 0.1496864955,
				"z": -1.8690943912,
				"element": "C" 
			},
			{
				"x": -5.0255806507,
				"y": -0.0983413268,
				"z": -1.6712748281,
				"element": "C" 
			},
			{
				"x": 4.8862357637,
				"y": 0.2954445488,
				"z": 4.8018824801,
				"element": "H" 
			},
			{
				"x": 3.7197185964,
				"y": 1.6204863514,
				"z": 4.8937859881,
				"element": "H" 
			},
			{
				"x": 3.5707880816,
				"y": 0.2289124798,
				"z": 5.9747981256,
				"element": "H" 
			},
			{
				"x": 3.0520648269,
				"y": -1.2572290458,
				"z": 4.0156219107,
				"element": "H" 
			},
			{
				"x": 1.879089186,
				"y": 0.0345940902,
				"z": 4.1823722238,
				"element": "H" 
			},
			{
				"x": 3.0582417875,
				"y": 1.3438417143,
				"z": 2.3855055702,
				"element": "H" 
			},
			{
				"x": 2.3711737707,
				"y": -0.1751101881,
				"z": 1.8469470871,
				"element": "H" 
			},
			{
				"x": 4.642033747,
				"y": -1.2539384282,
				"z": 1.9791853819,
				"element": "H" 
			},
			{
				"x": 5.3212749787,
				"y": 0.2548684409,
				"z": 2.5543190378,
				"element": "H" 
			},
			{
				"x": 4.6106912864,
				"y": 1.3528083008,
				"z": 0.3581256875,
				"element": "H" 
			},
			{
				"x": 5.916543294,
				"y": 0.1871792639,
				"z": 0.2993772217,
				"element": "H" 
			},
			{
				"x": 4.6487535035,
				"y": -0.2722993172,
				"z": -1.6018343872,
				"element": "H" 
			},
			{
				"x": 4.2958264609,
				"y": -1.5823593976,
				"z": -0.4918642843,
				"element": "H" 
			},
			{
				"x": 2.8988034833,
				"y": 1.8233246306,
				"z": -1.3876139322,
				"element": "H" 
			},
			{
				"x": 0.4937278618,
				"y": 2.24527938,
				"z": -1.7348577945,
				"element": "H" 
			},
			{
				"x": -0.3666103612,
				"y": -1.8511739003,
				"z": -0.7523954199,
				"element": "H" 
			},
			{
				"x": 2.0434542352,
				"y": -2.2688382715,
				"z": -0.4025239685,
				"element": "H" 
			},
			{
				"x": -3.8194562696,
				"y": 3.010607933,
				"z": -2.3490455721,
				"element": "H" 
			},
			{
				"x": -6.227860595,
				"y": 3.4352338269,
				"z": -2.6972229769,
				"element": "H" 
			},
			{
				"x": -8.5855062152,
				"y": 1.4373392652,
				"z": -3.5259460845,
				"element": "H" 
			},
			{
				"x": -8.9362060251,
				"y": 1.0513250416,
				"z": -1.8409478417,
				"element": "H" 
			},
			{
				"x": -8.5714543548,
				"y": 2.7190587745,
				"z": -2.3133214696,
				"element": "H" 
			},
			{
				"x": -7.0944089867,
				"y": -0.6573281977,
				"z": -1.727146348,
				"element": "H" 
			},
			{
				"x": -4.6872979332,
				"y": -1.0870621622,
				"z": -1.3779393483,
				"element": "H" 
			}
		],
		 "valence_orbital": [ 
			{
				"type": "occ",
				"energy": -0.2597,
				"method": "rhf"
			},
			{
				"type": "occ",
				"energy": -0.25379,
				"method": "rhf"
			},
			{
				"type": "occ",
				"energy": -0.25112,
				"method": "rhf"
			},
			{
				"type": "occ",
				"energy": -0.25102,
				"method": "rhf"
			},
			{
				"type": "occ",
				"energy": -0.20045,
				"method": "rhf"
			},
			{
				"type": "unocc",
				"energy": -0.04178,
				"method": "rhf"
			},
			{
				"type": "unocc",
				"energy": -0.00158,
				"method": "rhf"
			},
			{
				"type": "unocc",
				"energy": -0.00056,
				"method": "rhf"
			},
			{
				"type": "unocc",
				"energy": 0.01287,
				"method": "rhf"
			},
			{
				"type": "unocc",
				"energy": 0.05942,
				"method": "rhf"
			}
		],
		"cosmo_sigma_profile": { 
			"-0.025": 0.0,
			"-0.024": 0.0,
			"-0.023": 0.0,
			"-0.022": 0.0,
			"-0.021": 0.0,
			"-0.02": 0.0,
			"-0.019": 0.0,
			"-0.018": 0.0,
			"-0.017": 0.0,
			"-0.016": 0.0,
			"-0.015": 0.0,
			"-0.014": 0.0,
			"-0.013": 0.0,
			"-0.012": 0.0,
			"-0.011": 0.0,
			"-0.01": 0.0,
			"-0.009": 0.0,
			"-0.008": 0.0,
			"-0.007": 0.0442966706593,
			"-0.006": 7.20340188141,
			"-0.005": 18.6862529368,
			"-0.004": 26.2555103081,
			"-0.003": 29.1602840346,
			"-0.002": 40.6349063199,
			"-0.001": 47.3619647845,
			"0.0": 54.1510149549,
			"0.001": 45.6056712862,
			"0.002": 28.4938426576,
			"0.003": 22.8832014533,
			"0.004": 30.0948738879,
			"0.005": 24.0345400719,
			"0.006": 6.39407771261,
			"0.007": 1.06489658567,
			"0.008": 0.0,
			"0.009": 0.0,
			"0.01": 0.0,
			"0.011": 0.0,
			"0.012": 0.0,
			"0.013": 0.0,
			"0.014": 0.0,
			"0.015": 0.0,
			"0.016": 0.0,
			"0.017": 0.0,
			"0.018": 0.0,
			"0.019": 0.0,
			"0.02": 0.0,
			"0.021": 0.0,
			"0.022": 0.0,
			"0.023": 0.0,
			"0.024": 0.0,
			"0.025": 0.0
		}
	}
}
