{
	 "smiles": "CC1=CC(Cl)=CC(C)=C1O", 
	 "Tm": 355.15, 
	 "num_atms": 19, 
	 "gaussian": { 
		 "optdone": 1, 
		 "sigma_profile": "yes", 
		 "theory": "DFT", 
		 "functional": "B3LYP", 
		 "basiset": "6-31G**", 
		 "properties": { 
			 "R2extent": 2196.4035, 
			 "electric_dipole_moment_norm": 2.95691980784, 
			 "electric_quadrupole_moment_norm": 9.74351878379, 
			 "total_energy": -845.703751202, 
			 "HOMO_LUMO_gap": 0.21035, 
			 "cosmo_polarized_energy": -7.92, 
			 "cosmo_cavitation_energy": 23.97, 
			 "cosmo_dispersion_energy": -17.91, 
			 "cosmo_repulsion_energy": 1.45, 
			 "cosmo_total_nonelectrostatic_energy": 7.52, 
			 "SMD_solvation_energy": 4.09 
		},
		"coords": [
			{
				"x": -0.0674609025,
				"y": 0.5460765224,
				"z": -2.7141529649,
				"element": "C" 
			},
			{
				"x": 0.051651247,
				"y": -0.2155371665,
				"z": -1.4190251542,
				"element": "C" 
			},
			{
				"x": 0.9871208694,
				"y": -1.2384098549,
				"z": -1.2509893155,
				"element": "C" 
			},
			{
				"x": 1.0709809422,
				"y": -1.9228890865,
				"z": -0.0400333638,
				"element": "C" 
			},
			{
				"x": 2.2590858714,
				"y": -3.2100959672,
				"z": 0.1496175145,
				"element": "Cl" 
			},
			{
				"x": 0.2304101658,
				"y": -1.6047438905,
				"z": 1.0212931688,
				"element": "C" 
			},
			{
				"x": -0.7170422358,
				"y": -0.584711269,
				"z": 0.8832359476,
				"element": "C" 
			},
			{
				"x": -1.6419695795,
				"y": -0.2197660381,
				"z": 2.0209042024,
				"element": "C" 
			},
			{
				"x": -0.7937646096,
				"y": 0.0993727096,
				"z": -0.3413140694,
				"element": "C" 
			},
			{
				"x": -1.6951124509,
				"y": 1.1100840345,
				"z": -0.5539256245,
				"element": "O" 
			},
			{
				"x": 0.6554563999,
				"y": 0.1840748265,
				"z": -3.4492982981,
				"element": "H" 
			},
			{
				"x": 0.1017345336,
				"y": 1.6173767153,
				"z": -2.5597619226,
				"element": "H" 
			},
			{
				"x": -1.0725291753,
				"y": 0.4486781903,
				"z": -3.1389926196,
				"element": "H" 
			},
			{
				"x": 1.6513229575,
				"y": -1.5005251368,
				"z": -2.0679479846,
				"element": "H" 
			},
			{
				"x": 0.3083608505,
				"y": -2.147199808,
				"z": 1.9577163011,
				"element": "H" 
			},
			{
				"x": -1.4503792367,
				"y": -0.8453111917,
				"z": 2.8955163784,
				"element": "H" 
			},
			{
				"x": -1.5132428375,
				"y": 0.8242561332,
				"z": 2.3381664566,
				"element": "H" 
			},
			{
				"x": -2.6987411447,
				"y": -0.3567357994,
				"z": 1.7531716227,
				"element": "H" 
			},
			{
				"x": -2.2228816647,
				"y": 1.2453060767,
				"z": 0.2425197253,
				"element": "H" 
			}
		],
		 "valence_orbital": [ 
			{
				"type": "occ",
				"energy": -0.34362,
				"method": "rhf"
			},
			{
				"type": "occ",
				"energy": -0.30392,
				"method": "rhf"
			},
			{
				"type": "occ",
				"energy": -0.30265,
				"method": "rhf"
			},
			{
				"type": "occ",
				"energy": -0.24746,
				"method": "rhf"
			},
			{
				"type": "occ",
				"energy": -0.21491,
				"method": "rhf"
			},
			{
				"type": "unocc",
				"energy": -0.00456,
				"method": "rhf"
			},
			{
				"type": "unocc",
				"energy": 0.00469,
				"method": "rhf"
			},
			{
				"type": "unocc",
				"energy": 0.03709,
				"method": "rhf"
			},
			{
				"type": "unocc",
				"energy": 0.05785,
				"method": "rhf"
			},
			{
				"type": "unocc",
				"energy": 0.12228,
				"method": "rhf"
			}
		],
		"cosmo_sigma_profile": { 
			"-0.025": 0.0,
			"-0.024": 0.0,
			"-0.023": 0.0,
			"-0.022": 0.0,
			"-0.021": 0.0,
			"-0.02": 0.0,
			"-0.019": 0.0,
			"-0.018": 0.0,
			"-0.017": 0.0,
			"-0.016": 0.38425640342,
			"-0.015": 1.04016290076,
			"-0.014": 0.576623603721,
			"-0.013": 1.12583374876,
			"-0.012": 1.40643967586,
			"-0.011": 1.07123779615,
			"-0.01": 0.819250877255,
			"-0.009": 1.5754781759,
			"-0.008": 1.54401737386,
			"-0.007": 1.81171593175,
			"-0.006": 7.61957101504,
			"-0.005": 10.0258106056,
			"-0.004": 11.8487987044,
			"-0.003": 12.2825715007,
			"-0.002": 13.5041054662,
			"-0.001": 16.548814834,
			"0.0": 18.6567488727,
			"0.001": 11.7304364957,
			"0.002": 13.3559684125,
			"0.003": 17.4482551057,
			"0.004": 18.6096002265,
			"0.005": 17.2971697223,
			"0.006": 5.08733125697,
			"0.007": 1.0906267153,
			"0.008": 1.47421137769,
			"0.009": 1.90489137988,
			"0.01": 1.72589422077,
			"0.011": 0.405812881576,
			"0.012": 0.0,
			"0.013": 0.0,
			"0.014": 0.0,
			"0.015": 0.0,
			"0.016": 0.0,
			"0.017": 0.0,
			"0.018": 0.0,
			"0.019": 0.0,
			"0.02": 0.0,
			"0.021": 0.0,
			"0.022": 0.0,
			"0.023": 0.0,
			"0.024": 0.0,
			"0.025": 0.0
		}
	}
}
