{
	 "smiles": "SC1=NC=C(C=C1)S(=O)(=O)N1CCCC1", 
	 "Tm": 453.15, 
	 "num_atms": 27, 
	 "gaussian": { 
		 "optdone": 1, 
		 "sigma_profile": "yes", 
		 "theory": "DFT", 
		 "functional": "B3LYP", 
		 "basiset": "6-31G**", 
		 "properties": { 
			 "R2extent": 5630.1135, 
			 "electric_dipole_moment_norm": 4.37483650094, 
			 "electric_quadrupole_moment_norm": 13.0222063941, 
			 "total_energy": -1406.43544992, 
			 "HOMO_LUMO_gap": 0.18912, 
			 "cosmo_polarized_energy": -13.59, 
			 "cosmo_cavitation_energy": 33.01, 
			 "cosmo_dispersion_energy": -24.79, 
			 "cosmo_repulsion_energy": 1.86, 
			 "cosmo_total_nonelectrostatic_energy": 10.08, 
			 "SMD_solvation_energy": 2.07 
		},
		"coords": [
			{
				"x": -5.4656273996,
				"y": 0.4974927564,
				"z": -2.1494880038,
				"element": "S" 
			},
			{
				"x": -3.6903663941,
				"y": 0.3720913798,
				"z": -2.0765230102,
				"element": "C" 
			},
			{
				"x": -3.0039555002,
				"y": 1.461415837,
				"z": -1.7187298981,
				"element": "N" 
			},
			{
				"x": -1.6701166157,
				"y": 1.3681807338,
				"z": -1.6572404876,
				"element": "C" 
			},
			{
				"x": -0.9801187676,
				"y": 0.1890351342,
				"z": -1.9381753919,
				"element": "C" 
			},
			{
				"x": -1.7025642745,
				"y": -0.9434863972,
				"z": -2.3287894497,
				"element": "C" 
			},
			{
				"x": -3.0843915354,
				"y": -0.854620291,
				"z": -2.4017655274,
				"element": "C" 
			},
			{
				"x": 0.8053649749,
				"y": 0.1227661954,
				"z": -1.7974633347,
				"element": "S" 
			},
			{
				"x": 1.2627528697,
				"y": -0.9347803756,
				"z": -2.7049049681,
				"element": "O" 
			},
			{
				"x": 1.2818206152,
				"y": 1.505391776,
				"z": -1.9032391044,
				"element": "O" 
			},
			{
				"x": 1.0866677727,
				"y": -0.3994305337,
				"z": -0.2456534355,
				"element": "N" 
			},
			{
				"x": 1.342280988,
				"y": 0.5719837744,
				"z": 0.8407054029,
				"element": "C" 
			},
			{
				"x": 1.7958410116,
				"y": -0.3311794318,
				"z": 1.99790051,
				"element": "C" 
			},
			{
				"x": 2.4984573384,
				"y": -1.5007131302,
				"z": 1.2878797999,
				"element": "C" 
			},
			{
				"x": 1.6182751899,
				"y": -1.7484296939,
				"z": 0.0539728498,
				"element": "C" 
			},
			{
				"x": -5.491598119,
				"y": 1.796440781,
				"z": -1.7959547792,
				"element": "H" 
			},
			{
				"x": -1.1276999501,
				"y": 2.2710778828,
				"z": -1.3908555515,
				"element": "H" 
			},
			{
				"x": -1.18216228,
				"y": -1.8597570756,
				"z": -2.5872139962,
				"element": "H" 
			},
			{
				"x": -3.6839014298,
				"y": -1.7050294772,
				"z": -2.708909946,
				"element": "H" 
			},
			{
				"x": 0.4364496693,
				"y": 1.1388214816,
				"z": 1.0812703452,
				"element": "H" 
			},
			{
				"x": 2.1210370382,
				"y": 1.2833622771,
				"z": 0.5462083852,
				"element": "H" 
			},
			{
				"x": 2.4428720435,
				"y": 0.2006547914,
				"z": 2.7005028043,
				"element": "H" 
			},
			{
				"x": 0.9245109838,
				"y": -0.6963105696,
				"z": 2.5530273267,
				"element": "H" 
			},
			{
				"x": 3.5036073642,
				"y": -1.2003792141,
				"z": 0.9719144166,
				"element": "H" 
			},
			{
				"x": 2.5927767293,
				"y": -2.3912992916,
				"z": 1.915138695,
				"element": "H" 
			},
			{
				"x": 0.7948122887,
				"y": -2.4375553846,
				"z": 0.2855042035,
				"element": "H" 
			},
			{
				"x": 2.1674753887,
				"y": -2.1446439349,
				"z": -0.801017855,
				"element": "H" 
			}
		],
		 "valence_orbital": [ 
			{
				"type": "occ",
				"energy": -0.30385,
				"method": "rhf"
			},
			{
				"type": "occ",
				"energy": -0.30159,
				"method": "rhf"
			},
			{
				"type": "occ",
				"energy": -0.27529,
				"method": "rhf"
			},
			{
				"type": "occ",
				"energy": -0.25708,
				"method": "rhf"
			},
			{
				"type": "occ",
				"energy": -0.23676,
				"method": "rhf"
			},
			{
				"type": "unocc",
				"energy": -0.04764,
				"method": "rhf"
			},
			{
				"type": "unocc",
				"energy": -0.03921,
				"method": "rhf"
			},
			{
				"type": "unocc",
				"energy": 0.0078,
				"method": "rhf"
			},
			{
				"type": "unocc",
				"energy": 0.06288,
				"method": "rhf"
			},
			{
				"type": "unocc",
				"energy": 0.07114,
				"method": "rhf"
			}
		],
		"cosmo_sigma_profile": { 
			"-0.025": 0.0,
			"-0.024": 0.0,
			"-0.023": 0.0,
			"-0.022": 0.0,
			"-0.021": 0.0,
			"-0.02": 0.0,
			"-0.019": 0.0,
			"-0.018": 0.0,
			"-0.017": 0.0,
			"-0.016": 0.0,
			"-0.015": 0.0,
			"-0.014": 0.0,
			"-0.013": 0.0,
			"-0.012": 0.0212390728652,
			"-0.011": 1.12815646342,
			"-0.01": 1.25872665846,
			"-0.009": 2.75882574642,
			"-0.008": 5.31103105903,
			"-0.007": 6.10317745277,
			"-0.006": 6.29153462644,
			"-0.005": 10.8989481904,
			"-0.004": 26.1055129198,
			"-0.003": 33.9337159273,
			"-0.002": 27.2872113443,
			"-0.001": 24.1097286942,
			"0.0": 25.5654377225,
			"0.001": 14.7883876236,
			"0.002": 12.0197916105,
			"0.003": 10.2267348998,
			"0.004": 8.03799497496,
			"0.005": 6.44824567832,
			"0.006": 6.92269132275,
			"0.007": 7.10473227454,
			"0.008": 4.54408375481,
			"0.009": 3.65579302715,
			"0.01": 7.38032826465,
			"0.011": 8.29220807199,
			"0.012": 4.04779974548,
			"0.013": 0.283058692501,
			"0.014": 0.0,
			"0.015": 0.0,
			"0.016": 0.0,
			"0.017": 0.0,
			"0.018": 0.0,
			"0.019": 0.0,
			"0.02": 0.0,
			"0.021": 0.0,
			"0.022": 0.0,
			"0.023": 0.0,
			"0.024": 0.0,
			"0.025": 0.0
		}
	}
}
