{
	 "smiles": "FC1=C(C=CC(=C1)C#N)S(Cl)(=O)=O", 
	 "Tm": 335.15, 
	 "num_atms": 16, 
	 "gaussian": { 
		 "optdone": 1, 
		 "sigma_profile": "yes", 
		 "theory": "DFT", 
		 "functional": "B3LYP", 
		 "basiset": "6-31G**", 
		 "properties": { 
			 "R2extent": 3548.4187, 
			 "electric_dipole_moment_norm": 1.50749578772, 
			 "electric_quadrupole_moment_norm": 18.5019982556, 
			 "total_energy": -1431.8652079, 
			 "HOMO_LUMO_gap": 0.18895, 
			 "cosmo_polarized_energy": -12.73, 
			 "cosmo_cavitation_energy": 26.22, 
			 "cosmo_dispersion_energy": -19.0, 
			 "cosmo_repulsion_energy": 1.44, 
			 "cosmo_total_nonelectrostatic_energy": 8.65, 
			 "SMD_solvation_energy": 5.13 
		},
		"coords": [
			{
				"x": 0.6317824294,
				"y": -1.4682276953,
				"z": 2.3589895174,
				"element": "F" 
			},
			{
				"x": 0.0616237797,
				"y": -1.2480485883,
				"z": 1.1740095132,
				"element": "C" 
			},
			{
				"x": -0.1385653482,
				"y": 0.0602188709,
				"z": 0.7222583818,
				"element": "C" 
			},
			{
				"x": -0.7544981173,
				"y": 0.2933278993,
				"z": -0.5095356261,
				"element": "C" 
			},
			{
				"x": -1.1634356902,
				"y": -0.782327597,
				"z": -1.2906426518,
				"element": "C" 
			},
			{
				"x": -0.9566258684,
				"y": -2.0942776727,
				"z": -0.8310489041,
				"element": "C" 
			},
			{
				"x": -0.3428101146,
				"y": -2.331758145,
				"z": 0.4084012587,
				"element": "C" 
			},
			{
				"x": -1.3783658722,
				"y": -3.2066599585,
				"z": -1.6335793066,
				"element": "C" 
			},
			{
				"x": -1.7215156872,
				"y": -4.1051605104,
				"z": -2.286402807,
				"element": "N" 
			},
			{
				"x": 0.4367707622,
				"y": 1.4688414954,
				"z": 1.6692440961,
				"element": "S" 
			},
			{
				"x": -0.8877071903,
				"y": 1.4117774296,
				"z": 3.3179603455,
				"element": "Cl" 
			},
			{
				"x": 0.1154208052,
				"y": 2.6730112195,
				"z": 0.9149474208,
				"element": "O" 
			},
			{
				"x": 1.7711535544,
				"y": 1.2068129039,
				"z": 2.1836761757,
				"element": "O" 
			},
			{
				"x": -0.9019747932,
				"y": 1.3148854947,
				"z": -0.8403079447,
				"element": "H" 
			},
			{
				"x": -1.6393554721,
				"y": -0.6146461914,
				"z": -2.2496722219,
				"element": "H" 
			},
			{
				"x": -0.1798971775,
				"y": -3.3371689546,
				"z": 0.778102753,
				"element": "H" 
			}
		],
		 "valence_orbital": [ 
			{
				"type": "occ",
				"energy": -0.3536,
				"method": "rhf"
			},
			{
				"type": "occ",
				"energy": -0.34956,
				"method": "rhf"
			},
			{
				"type": "occ",
				"energy": -0.32918,
				"method": "rhf"
			},
			{
				"type": "occ",
				"energy": -0.31306,
				"method": "rhf"
			},
			{
				"type": "occ",
				"energy": -0.30261,
				"method": "rhf"
			},
			{
				"type": "unocc",
				"energy": -0.11366,
				"method": "rhf"
			},
			{
				"type": "unocc",
				"energy": -0.0844,
				"method": "rhf"
			},
			{
				"type": "unocc",
				"energy": -0.06011,
				"method": "rhf"
			},
			{
				"type": "unocc",
				"energy": 0.00519,
				"method": "rhf"
			},
			{
				"type": "unocc",
				"energy": 0.01285,
				"method": "rhf"
			}
		],
		"cosmo_sigma_profile": { 
			"-0.025": 0.0,
			"-0.024": 0.0,
			"-0.023": 0.0,
			"-0.022": 0.0,
			"-0.021": 0.0,
			"-0.02": 0.0,
			"-0.019": 0.0,
			"-0.018": 0.0,
			"-0.017": 0.0,
			"-0.016": 0.0,
			"-0.015": 0.0,
			"-0.014": 0.0,
			"-0.013": 0.0,
			"-0.012": 0.0,
			"-0.011": 1.30561256227,
			"-0.01": 4.46682165888,
			"-0.009": 6.67962946494,
			"-0.008": 6.00743047425,
			"-0.007": 5.88976806029,
			"-0.006": 7.06470320931,
			"-0.005": 9.38342428159,
			"-0.004": 19.3502034451,
			"-0.003": 18.958185875,
			"-0.002": 14.3863367264,
			"-0.001": 12.2107728842,
			"0.0": 9.5956514249,
			"0.001": 12.9569014005,
			"0.002": 22.4421542858,
			"0.003": 11.8407341767,
			"0.004": 7.30012443864,
			"0.005": 5.24247121993,
			"0.006": 7.42079337789,
			"0.007": 12.8079786344,
			"0.008": 10.8237559557,
			"0.009": 3.76821734189,
			"0.01": 2.53241947092,
			"0.011": 2.2711295635,
			"0.012": 1.30648531404,
			"0.013": 0.0271322099356,
			"0.014": 0.0,
			"0.015": 0.0,
			"0.016": 0.0,
			"0.017": 0.0,
			"0.018": 0.0,
			"0.019": 0.0,
			"0.02": 0.0,
			"0.021": 0.0,
			"0.022": 0.0,
			"0.023": 0.0,
			"0.024": 0.0,
			"0.025": 0.0
		}
	}
}
