{
	 "smiles": "OCC(=O)C1=CC=C(Br)C=C1", 
	 "Tm": 413.15, 
	 "num_atms": 18, 
	 "gaussian": { 
		 "optdone": 1, 
		 "sigma_profile": "yes", 
		 "theory": "DFT", 
		 "functional": "B3LYP", 
		 "basiset": "6-31G**", 
		 "properties": { 
			 "R2extent": 4445.9115, 
			 "electric_dipole_moment_norm": 1.2714782971, 
			 "electric_quadrupole_moment_norm": 7.02353128775, 
			 "total_energy": -3030.90520502, 
			 "HOMO_LUMO_gap": 0.18033, 
			 "cosmo_polarized_energy": -10.1, 
			 "cosmo_cavitation_energy": 24.81, 
			 "cosmo_dispersion_energy": -18.67, 
			 "cosmo_repulsion_energy": 1.51, 
			 "cosmo_total_nonelectrostatic_energy": 7.65, 
			 "SMD_solvation_energy": 3.86 
		},
		"coords": [
			{
				"x": 1.0080299166,
				"y": 1.1043162489,
				"z": 2.1233950528,
				"element": "O" 
			},
			{
				"x": 0.3525166494,
				"y": 2.156932271,
				"z": 1.430881954,
				"element": "C" 
			},
			{
				"x": -0.9958293036,
				"y": 1.7991085285,
				"z": 0.7850726171,
				"element": "C" 
			},
			{
				"x": -1.9130479137,
				"y": 2.6028900342,
				"z": 0.8789894236,
				"element": "O" 
			},
			{
				"x": -1.1632483696,
				"y": 0.5259954981,
				"z": 0.0177629998,
				"element": "C" 
			},
			{
				"x": -2.4195962296,
				"y": 0.2807423985,
				"z": -0.5622944732,
				"element": "C" 
			},
			{
				"x": -2.6466796471,
				"y": -0.8612100341,
				"z": -1.3207566109,
				"element": "C" 
			},
			{
				"x": -1.6007723309,
				"y": -1.7689845426,
				"z": -1.5042060585,
				"element": "C" 
			},
			{
				"x": -1.8994750052,
				"y": -3.3397408195,
				"z": -2.5454140647,
				"element": "Br" 
			},
			{
				"x": -0.3444700576,
				"y": -1.5511742801,
				"z": -0.9403381544,
				"element": "C" 
			},
			{
				"x": -0.1289058966,
				"y": -0.4042799189,
				"z": -0.1774317615,
				"element": "C" 
			},
			{
				"x": 0.4545846585,
				"y": 0.8452506978,
				"z": 2.8715431544,
				"element": "H" 
			},
			{
				"x": 0.1661906025,
				"y": 3.0293635232,
				"z": 2.0695552618,
				"element": "H" 
			},
			{
				"x": 1.0406754203,
				"y": 2.4674586309,
				"z": 0.6349299262,
				"element": "H" 
			},
			{
				"x": -3.2080989967,
				"y": 1.0097556591,
				"z": -0.4080492327,
				"element": "H" 
			},
			{
				"x": -3.6161893303,
				"y": -1.0488622016,
				"z": -1.7678219771,
				"element": "H" 
			},
			{
				"x": 0.4525813272,
				"y": -2.269863339,
				"z": -1.0923746929,
				"element": "H" 
			},
			{
				"x": 0.8372345065,
				"y": -0.2443983544,
				"z": 0.2856566362,
				"element": "H" 
			}
		],
		 "valence_orbital": [ 
			{
				"type": "occ",
				"energy": -0.30486,
				"method": "rhf"
			},
			{
				"type": "occ",
				"energy": -0.29489,
				"method": "rhf"
			},
			{
				"type": "occ",
				"energy": -0.27258,
				"method": "rhf"
			},
			{
				"type": "occ",
				"energy": -0.25415,
				"method": "rhf"
			},
			{
				"type": "occ",
				"energy": -0.25088,
				"method": "rhf"
			},
			{
				"type": "unocc",
				"energy": -0.07055,
				"method": "rhf"
			},
			{
				"type": "unocc",
				"energy": -0.02158,
				"method": "rhf"
			},
			{
				"type": "unocc",
				"energy": 0.00064,
				"method": "rhf"
			},
			{
				"type": "unocc",
				"energy": 0.01829,
				"method": "rhf"
			},
			{
				"type": "unocc",
				"energy": 0.07309,
				"method": "rhf"
			}
		],
		"cosmo_sigma_profile": { 
			"-0.025": 0.0,
			"-0.024": 0.0,
			"-0.023": 0.0,
			"-0.022": 0.0,
			"-0.021": 0.0,
			"-0.02": 0.0,
			"-0.019": 0.0,
			"-0.018": 0.0,
			"-0.017": 0.478492344091,
			"-0.016": 1.42018947143,
			"-0.015": 0.935569900361,
			"-0.014": 0.958429476703,
			"-0.013": 0.996836078106,
			"-0.012": 1.16735454208,
			"-0.011": 0.901472779185,
			"-0.01": 0.867423999928,
			"-0.009": 1.05218732947,
			"-0.008": 2.02686514335,
			"-0.007": 7.43845088214,
			"-0.006": 9.80905750892,
			"-0.005": 12.3909469649,
			"-0.004": 12.1122982615,
			"-0.003": 12.520136683,
			"-0.002": 9.24599703265,
			"-0.001": 12.5194530291,
			"0.0": 12.6716333492,
			"0.001": 21.2009932217,
			"0.002": 23.9576048474,
			"0.003": 14.9232707873,
			"0.004": 14.2794135093,
			"0.005": 4.65545128292,
			"0.006": 2.57254141993,
			"0.007": 2.18798722801,
			"0.008": 2.03383728377,
			"0.009": 3.18041828041,
			"0.01": 2.71350952751,
			"0.011": 4.89967691577,
			"0.012": 3.65354081852,
			"0.013": 1.67796749491,
			"0.014": 0.1035583636,
			"0.015": 0.0,
			"0.016": 0.0,
			"0.017": 0.0,
			"0.018": 0.0,
			"0.019": 0.0,
			"0.02": 0.0,
			"0.021": 0.0,
			"0.022": 0.0,
			"0.023": 0.0,
			"0.024": 0.0,
			"0.025": 0.0
		}
	}
}
