{
	 "smiles": "NC(=O)C1=CC(Br)=CC(Br)=C1", 
	 "Tm": 455.15, 
	 "num_atms": 16, 
	 "gaussian": { 
		 "optdone": 1, 
		 "sigma_profile": "yes", 
		 "theory": "DFT", 
		 "functional": "B3LYP", 
		 "basiset": "6-31G**", 
		 "properties": { 
			 "R2extent": 5704.8638, 
			 "electric_dipole_moment_norm": 3.2247768667, 
			 "electric_quadrupole_moment_norm": 11.905187555, 
			 "total_energy": -5542.55828574, 
			 "HOMO_LUMO_gap": 0.19608, 
			 "cosmo_polarized_energy": -12.51, 
			 "cosmo_cavitation_energy": 25.69, 
			 "cosmo_dispersion_energy": -19.7, 
			 "cosmo_repulsion_energy": 1.6, 
			 "cosmo_total_nonelectrostatic_energy": 7.6, 
			 "SMD_solvation_energy": 2.9 
		},
		"coords": [
			{
				"x": -2.2633299231,
				"y": -1.4401660027,
				"z": 0.9923403548,
				"element": "N" 
			},
			{
				"x": -1.4491113485,
				"y": -0.4667086308,
				"z": 1.5133741239,
				"element": "C" 
			},
			{
				"x": -1.8547636711,
				"y": 0.3661126274,
				"z": 2.3122440133,
				"element": "O" 
			},
			{
				"x": -0.0092933522,
				"y": -0.4925303057,
				"z": 1.0658562857,
				"element": "C" 
			},
			{
				"x": 0.7356044952,
				"y": 0.6749700094,
				"z": 1.2679771823,
				"element": "C" 
			},
			{
				"x": 2.0678375125,
				"y": 0.7089129083,
				"z": 0.8724342386,
				"element": "C" 
			},
			{
				"x": 3.0864296785,
				"y": 2.3017300683,
				"z": 1.1284229962,
				"element": "Br" 
			},
			{
				"x": 2.6862878907,
				"y": -0.3987639945,
				"z": 0.2905353508,
				"element": "C" 
			},
			{
				"x": 1.931825432,
				"y": -1.5571838759,
				"z": 0.1158739686,
				"element": "C" 
			},
			{
				"x": 2.7605196388,
				"y": -3.0955193512,
				"z": -0.6539028718,
				"element": "Br" 
			},
			{
				"x": 0.5929729785,
				"y": -1.6208220292,
				"z": 0.4956960376,
				"element": "C" 
			},
			{
				"x": -2.0312465621,
				"y": -1.8995132459,
				"z": 0.125727944,
				"element": "H" 
			},
			{
				"x": -3.2443369943,
				"y": -1.3503445557,
				"z": 1.2151829392,
				"element": "H" 
			},
			{
				"x": 0.2565048137,
				"y": 1.5275414847,
				"z": 1.7330767685,
				"element": "H" 
			},
			{
				"x": 3.7252410488,
				"y": -0.3614084292,
				"z": -0.0105812231,
				"element": "H" 
			},
			{
				"x": 0.0484583624,
				"y": -2.5500066774,
				"z": 0.3773418914,
				"element": "H" 
			}
		],
		 "valence_orbital": [ 
			{
				"type": "occ",
				"energy": -0.29641,
				"method": "rhf"
			},
			{
				"type": "occ",
				"energy": -0.28627,
				"method": "rhf"
			},
			{
				"type": "occ",
				"energy": -0.27039,
				"method": "rhf"
			},
			{
				"type": "occ",
				"energy": -0.26401,
				"method": "rhf"
			},
			{
				"type": "occ",
				"energy": -0.25514,
				"method": "rhf"
			},
			{
				"type": "unocc",
				"energy": -0.05906,
				"method": "rhf"
			},
			{
				"type": "unocc",
				"energy": -0.0351,
				"method": "rhf"
			},
			{
				"type": "unocc",
				"energy": -0.02314,
				"method": "rhf"
			},
			{
				"type": "unocc",
				"energy": 0.0163,
				"method": "rhf"
			},
			{
				"type": "unocc",
				"energy": 0.03949,
				"method": "rhf"
			}
		],
		"cosmo_sigma_profile": { 
			"-0.025": 0.0,
			"-0.024": 0.0,
			"-0.023": 0.0,
			"-0.022": 0.0,
			"-0.021": 0.0,
			"-0.02": 0.0,
			"-0.019": 0.0,
			"-0.018": 0.0,
			"-0.017": 0.0,
			"-0.016": 0.016775989663,
			"-0.015": 0.844437519619,
			"-0.014": 2.17206766977,
			"-0.013": 2.67889366925,
			"-0.012": 2.05788298196,
			"-0.011": 3.18851424495,
			"-0.01": 2.98900471348,
			"-0.009": 3.20754286226,
			"-0.008": 3.28318667895,
			"-0.007": 3.78149781634,
			"-0.006": 5.75308045375,
			"-0.005": 6.24239894831,
			"-0.004": 9.62825596962,
			"-0.003": 9.282767075,
			"-0.002": 12.313922002,
			"-0.001": 16.1920629609,
			"0.0": 24.6266460672,
			"0.001": 27.6939458423,
			"0.002": 13.5813107987,
			"0.003": 18.9920327483,
			"0.004": 21.992203459,
			"0.005": 3.13828282676,
			"0.006": 1.54096845963,
			"0.007": 2.46006489625,
			"0.008": 1.17119678018,
			"0.009": 1.84084528482,
			"0.01": 1.11315059756,
			"0.011": 1.51073834961,
			"0.012": 3.30601514447,
			"0.013": 4.9644104903,
			"0.014": 1.25807276203,
			"0.015": 0.0,
			"0.016": 0.0,
			"0.017": 0.0,
			"0.018": 0.0,
			"0.019": 0.0,
			"0.02": 0.0,
			"0.021": 0.0,
			"0.022": 0.0,
			"0.023": 0.0,
			"0.024": 0.0,
			"0.025": 0.0
		}
	}
}
