{
	 "smiles": "CC(C)(C)OC(=O)NCC1CCN(CC2=CC=CC=C2)CC1", 
	 "Tm": 375.15, 
	 "num_atms": 50, 
	 "gaussian": { 
		 "optdone": 1, 
		 "sigma_profile": "yes", 
		 "theory": "DFT", 
		 "functional": "B3LYP", 
		 "basiset": "6-31G**", 
		 "properties": { 
			 "R2extent": 12195.6201, 
			 "electric_dipole_moment_norm": 2.99588693211, 
			 "electric_quadrupole_moment_norm": 15.9335873487, 
			 "total_energy": -962.775835672, 
			 "HOMO_LUMO_gap": 0.20086, 
			 "cosmo_polarized_energy": -11.63, 
			 "cosmo_cavitation_energy": 49.14, 
			 "cosmo_dispersion_energy": -33.07, 
			 "cosmo_repulsion_energy": 2.54, 
			 "cosmo_total_nonelectrostatic_energy": 18.61, 
			 "SMD_solvation_energy": 7.16 
		},
		"coords": [
			{
				"x": -1.653723205,
				"y": -4.4739780139,
				"z": -3.3511658037,
				"element": "C" 
			},
			{
				"x": -0.4674017369,
				"y": -4.6494017308,
				"z": -2.3966206028,
				"element": "C" 
			},
			{
				"x": 0.6015431148,
				"y": -5.5880168152,
				"z": -2.9674785702,
				"element": "C" 
			},
			{
				"x": -0.9421667294,
				"y": -5.1398050198,
				"z": -1.0259754227,
				"element": "C" 
			},
			{
				"x": 0.1247502354,
				"y": -3.341792011,
				"z": -2.0819682052,
				"element": "O" 
			},
			{
				"x": 0.6824871048,
				"y": -2.5800358697,
				"z": -3.0579408587,
				"element": "C" 
			},
			{
				"x": 0.7322611035,
				"y": -2.8572958763,
				"z": -4.247204597,
				"element": "O" 
			},
			{
				"x": 1.208784937,
				"y": -1.4330874215,
				"z": -2.5331194748,
				"element": "N" 
			},
			{
				"x": 1.1570791916,
				"y": -1.0001484057,
				"z": -1.1416620785,
				"element": "C" 
			},
			{
				"x": -0.1934567306,
				"y": -0.3799335602,
				"z": -0.7197255184,
				"element": "C" 
			},
			{
				"x": -0.2287633865,
				"y": -0.1033924826,
				"z": 0.7925312819,
				"element": "C" 
			},
			{
				"x": 0.7843677195,
				"y": 0.9813454787,
				"z": 1.2228224828,
				"element": "C" 
			},
			{
				"x": 1.0712968712,
				"y": 1.9069134998,
				"z": 0.1213258694,
				"element": "N" 
			},
			{
				"x": 1.8721732831,
				"y": 3.0711279949,
				"z": 0.5144529636,
				"element": "C" 
			},
			{
				"x": 1.2259310399,
				"y": 4.0623075472,
				"z": 1.4759406502,
				"element": "C" 
			},
			{
				"x": 1.4196386867,
				"y": 3.9536184761,
				"z": 2.860367199,
				"element": "C" 
			},
			{
				"x": 0.8032566813,
				"y": 4.83993678,
				"z": 3.7458137024,
				"element": "C" 
			},
			{
				"x": -0.0182132263,
				"y": 5.85720543,
				"z": 3.2577602415,
				"element": "C" 
			},
			{
				"x": -0.213073876,
				"y": 5.9849854028,
				"z": 1.8808217162,
				"element": "C" 
			},
			{
				"x": 0.4055239761,
				"y": 5.0959862698,
				"z": 1.0010235915,
				"element": "C" 
			},
			{
				"x": -0.1114670596,
				"y": 2.1914919952,
				"z": -0.6896778467,
				"element": "C" 
			},
			{
				"x": -0.5210130409,
				"y": 0.9299377589,
				"z": -1.4824116188,
				"element": "C" 
			},
			{
				"x": -2.3795277674,
				"y": -3.7712131381,
				"z": -2.9292202728,
				"element": "H" 
			},
			{
				"x": -1.3205670018,
				"y": -4.1000554675,
				"z": -4.3193101898,
				"element": "H" 
			},
			{
				"x": -2.1567742093,
				"y": -5.436009342,
				"z": -3.4943638757,
				"element": "H" 
			},
			{
				"x": 0.1812854032,
				"y": -6.5913077413,
				"z": -3.0931264078,
				"element": "H" 
			},
			{
				"x": 1.4502763775,
				"y": -5.6590925073,
				"z": -2.2796204837,
				"element": "H" 
			},
			{
				"x": 0.9576918211,
				"y": -5.2294127342,
				"z": -3.9332905315,
				"element": "H" 
			},
			{
				"x": -1.6741578537,
				"y": -4.4473661173,
				"z": -0.5997313931,
				"element": "H" 
			},
			{
				"x": -1.410786408,
				"y": -6.1240131218,
				"z": -1.1200656317,
				"element": "H" 
			},
			{
				"x": -0.1003472293,
				"y": -5.2219044432,
				"z": -0.3321068135,
				"element": "H" 
			},
			{
				"x": 1.6088085005,
				"y": -0.8254461274,
				"z": -3.2306206563,
				"element": "H" 
			},
			{
				"x": 1.3715110837,
				"y": -1.8638479407,
				"z": -0.5045875787,
				"element": "H" 
			},
			{
				"x": 1.9550641375,
				"y": -0.266870677,
				"z": -1.0002529429,
				"element": "H" 
			},
			{
				"x": -0.96029553,
				"y": -1.127548241,
				"z": -0.9510613353,
				"element": "H" 
			},
			{
				"x": -1.2423774812,
				"y": 0.2198196655,
				"z": 1.0578452521,
				"element": "H" 
			},
			{
				"x": -0.0430686321,
				"y": -1.0217091169,
				"z": 1.3616212645,
				"element": "H" 
			},
			{
				"x": 0.3873398627,
				"y": 1.5011570359,
				"z": 2.1118542215,
				"element": "H" 
			},
			{
				"x": 1.7352179809,
				"y": 0.5219873897,
				"z": 1.5263785626,
				"element": "H" 
			},
			{
				"x": 2.7974020589,
				"y": 2.6895335401,
				"z": 0.9651400199,
				"element": "H" 
			},
			{
				"x": 2.1573064701,
				"y": 3.5951137106,
				"z": -0.405964988,
				"element": "H" 
			},
			{
				"x": 2.071204871,
				"y": 3.1735656647,
				"z": 3.2474282453,
				"element": "H" 
			},
			{
				"x": 0.9696633674,
				"y": 4.7396166036,
				"z": 4.8148574494,
				"element": "H" 
			},
			{
				"x": -0.496138637,
				"y": 6.550574052,
				"z": 3.9439202537,
				"element": "H" 
			},
			{
				"x": -0.8408619902,
				"y": 6.7818782253,
				"z": 1.4916289999,
				"element": "H" 
			},
			{
				"x": 0.2592955138,
				"y": 5.2129879152,
				"z": -0.0700336702,
				"element": "H" 
			},
			{
				"x": 0.1337324122,
				"y": 3.0017118899,
				"z": -1.3849390837,
				"element": "H" 
			},
			{
				"x": -0.9590866689,
				"y": 2.5558818066,
				"z": -0.0808425985,
				"element": "H" 
			},
			{
				"x": -0.0165879627,
				"y": 0.9193338424,
				"z": -2.4550492264,
				"element": "H" 
			},
			{
				"x": -1.5947374423,
				"y": 0.9808659477,
				"z": -1.6973956901,
				"element": "H" 
			}
		],
		 "valence_orbital": [ 
			{
				"type": "occ",
				"energy": -0.2528,
				"method": "rhf"
			},
			{
				"type": "occ",
				"energy": -0.25022,
				"method": "rhf"
			},
			{
				"type": "occ",
				"energy": -0.24626,
				"method": "rhf"
			},
			{
				"type": "occ",
				"energy": -0.239,
				"method": "rhf"
			},
			{
				"type": "occ",
				"energy": -0.20526,
				"method": "rhf"
			},
			{
				"type": "unocc",
				"energy": -0.0044,
				"method": "rhf"
			},
			{
				"type": "unocc",
				"energy": -0.00273,
				"method": "rhf"
			},
			{
				"type": "unocc",
				"energy": 0.06096,
				"method": "rhf"
			},
			{
				"type": "unocc",
				"energy": 0.07352,
				"method": "rhf"
			},
			{
				"type": "unocc",
				"energy": 0.08506,
				"method": "rhf"
			}
		],
		"cosmo_sigma_profile": { 
			"-0.025": 0.0,
			"-0.024": 0.0,
			"-0.023": 0.0,
			"-0.022": 0.0,
			"-0.021": 0.0,
			"-0.02": 0.0,
			"-0.019": 0.0,
			"-0.018": 0.0,
			"-0.017": 0.0,
			"-0.016": 0.0,
			"-0.015": 0.0,
			"-0.014": 0.0366195090471,
			"-0.013": 0.860507203949,
			"-0.012": 0.862268158976,
			"-0.011": 1.36088997181,
			"-0.01": 0.843131604541,
			"-0.009": 0.658690924284,
			"-0.008": 0.884964317367,
			"-0.007": 1.64128846117,
			"-0.006": 2.83118457397,
			"-0.005": 12.0190083367,
			"-0.004": 27.2434165704,
			"-0.003": 43.5369740769,
			"-0.002": 45.1808989115,
			"-0.001": 55.0950913119,
			"0.0": 52.0099734266,
			"0.001": 40.621341812,
			"0.002": 21.2829437951,
			"0.003": 15.2005025311,
			"0.004": 13.1503760609,
			"0.005": 13.0422876898,
			"0.006": 12.6807449129,
			"0.007": 5.16349668951,
			"0.008": 1.99990554222,
			"0.009": 2.41027795998,
			"0.01": 1.75376369537,
			"0.011": 1.08206739016,
			"0.012": 1.74127732808,
			"0.013": 2.65847296073,
			"0.014": 3.36949916317,
			"0.015": 0.490843458955,
			"0.016": 0.0,
			"0.017": 0.0,
			"0.018": 0.0,
			"0.019": 0.0,
			"0.02": 0.0,
			"0.021": 0.0,
			"0.022": 0.0,
			"0.023": 0.0,
			"0.024": 0.0,
			"0.025": 0.0
		}
	}
}
