{
	 "smiles": "OC(=O)C1CCCC1", 
	 "Tm": 277.15, 
	 "num_atms": 18, 
	 "gaussian": { 
		 "optdone": 1, 
		 "sigma_profile": "yes", 
		 "theory": "DFT", 
		 "functional": "B3LYP", 
		 "basiset": "6-31G**", 
		 "properties": { 
			 "R2extent": 1409.7903, 
			 "electric_dipole_moment_norm": 4.25365620849, 
			 "electric_quadrupole_moment_norm": 17.3074581259, 
			 "total_energy": -385.127439823, 
			 "HOMO_LUMO_gap": 0.27899, 
			 "cosmo_polarized_energy": -12.3, 
			 "cosmo_cavitation_energy": 20.01, 
			 "cosmo_dispersion_energy": -15.1, 
			 "cosmo_repulsion_energy": 1.27, 
			 "cosmo_total_nonelectrostatic_energy": 6.17, 
			 "SMD_solvation_energy": 4.0 
		},
		"coords": [
			{
				"x": 1.0113178958,
				"y": 0.3904704633,
				"z": -3.2838271581,
				"element": "O" 
			},
			{
				"x": 0.3366756832,
				"y": -0.6003177168,
				"z": -2.6338072473,
				"element": "C" 
			},
			{
				"x": -0.2433539398,
				"y": -1.4427155806,
				"z": -3.2722312799,
				"element": "O" 
			},
			{
				"x": 0.3846928639,
				"y": -0.5117636545,
				"z": -1.111415322,
				"element": "C" 
			},
			{
				"x": -0.3761257389,
				"y": -1.6630839906,
				"z": -0.3978954137,
				"element": "C" 
			},
			{
				"x": -1.4787327283,
				"y": -0.983068828,
				"z": 0.4427399172,
				"element": "C" 
			},
			{
				"x": -0.9154071102,
				"y": 0.4150340751,
				"z": 0.7426186948,
				"element": "C" 
			},
			{
				"x": -0.2564969089,
				"y": 0.8154479455,
				"z": -0.5869679055,
				"element": "C" 
			},
			{
				"x": 1.4181831756,
				"y": 0.9888636068,
				"z": -2.6412983131,
				"element": "H" 
			},
			{
				"x": 1.4454902374,
				"y": -0.5310544032,
				"z": -0.8270186042,
				"element": "H" 
			},
			{
				"x": -0.7752421899,
				"y": -2.3667546874,
				"z": -1.1311455927,
				"element": "H" 
			},
			{
				"x": 0.3127888926,
				"y": -2.214206402,
				"z": 0.250081917,
				"element": "H" 
			},
			{
				"x": -2.397043537,
				"y": -0.8874281982,
				"z": -0.149410367,
				"element": "H" 
			},
			{
				"x": -1.732066656,
				"y": -1.5479891579,
				"z": 1.3448932665,
				"element": "H" 
			},
			{
				"x": -1.675048419,
				"y": 1.1323887968,
				"z": 1.0691023559,
				"element": "H" 
			},
			{
				"x": -0.1570564632,
				"y": 0.3547199664,
				"z": 1.5339736071,
				"element": "H" 
			},
			{
				"x": 0.4705073565,
				"y": 1.6280184918,
				"z": -0.4777910453,
				"element": "H" 
			},
			{
				"x": -1.0271824138,
				"y": 1.1602392735,
				"z": -1.2869015096,
				"element": "H" 
			}
		],
		 "valence_orbital": [ 
			{
				"type": "occ",
				"energy": -0.34055,
				"method": "rhf"
			},
			{
				"type": "occ",
				"energy": -0.33941,
				"method": "rhf"
			},
			{
				"type": "occ",
				"energy": -0.32759,
				"method": "rhf"
			},
			{
				"type": "occ",
				"energy": -0.31202,
				"method": "rhf"
			},
			{
				"type": "occ",
				"energy": -0.26629,
				"method": "rhf"
			},
			{
				"type": "unocc",
				"energy": 0.0127,
				"method": "rhf"
			},
			{
				"type": "unocc",
				"energy": 0.05072,
				"method": "rhf"
			},
			{
				"type": "unocc",
				"energy": 0.084,
				"method": "rhf"
			},
			{
				"type": "unocc",
				"energy": 0.09239,
				"method": "rhf"
			},
			{
				"type": "unocc",
				"energy": 0.13803,
				"method": "rhf"
			}
		],
		"cosmo_sigma_profile": { 
			"-0.025": 0.0,
			"-0.024": 0.0,
			"-0.023": 0.0,
			"-0.022": 0.0,
			"-0.021": 0.0,
			"-0.02": 0.0,
			"-0.019": 0.0,
			"-0.018": 0.296409357974,
			"-0.017": 1.06813162068,
			"-0.016": 0.906002280828,
			"-0.015": 1.25861817029,
			"-0.014": 0.922068329582,
			"-0.013": 0.545334310097,
			"-0.012": 1.06701112783,
			"-0.011": 1.73133178906,
			"-0.01": 1.309091971,
			"-0.009": 0.763952380504,
			"-0.008": 0.914821255842,
			"-0.007": 2.3024884358,
			"-0.006": 3.30625527341,
			"-0.005": 4.42775899458,
			"-0.004": 7.18226495008,
			"-0.003": 17.6791118159,
			"-0.002": 20.6232982752,
			"-0.001": 19.8593144117,
			"0.0": 15.8366726643,
			"0.001": 13.8938412929,
			"0.002": 3.81847853793,
			"0.003": 3.27897175379,
			"0.004": 1.08838906879,
			"0.005": 1.91444701493,
			"0.006": 3.23165680413,
			"0.007": 1.88782114714,
			"0.008": 2.68660629493,
			"0.009": 3.83742524285,
			"0.01": 4.13141765135,
			"0.011": 5.62378872429,
			"0.012": 5.75472341323,
			"0.013": 2.00255662647,
			"0.014": 0.246881503625,
			"0.015": 0.0,
			"0.016": 0.0,
			"0.017": 0.0,
			"0.018": 0.0,
			"0.019": 0.0,
			"0.02": 0.0,
			"0.021": 0.0,
			"0.022": 0.0,
			"0.023": 0.0,
			"0.024": 0.0,
			"0.025": 0.0
		}
	}
}
