{
	 "smiles": "CN1C(S)=NN=C1C1=CC=CS1", 
	 "Tm": 427.15, 
	 "num_atms": 19, 
	 "gaussian": { 
		 "optdone": 1, 
		 "sigma_profile": "yes", 
		 "theory": "DFT", 
		 "functional": "B3LYP", 
		 "basiset": "6-31G**", 
		 "properties": { 
			 "R2extent": 3077.3087, 
			 "electric_dipole_moment_norm": 5.05524619183, 
			 "electric_quadrupole_moment_norm": 13.7946250094, 
			 "total_energy": -1231.54733823, 
			 "HOMO_LUMO_gap": 0.17341, 
			 "cosmo_polarized_energy": -16.12, 
			 "cosmo_cavitation_energy": 26.26, 
			 "cosmo_dispersion_energy": -20.65, 
			 "cosmo_repulsion_energy": 1.53, 
			 "cosmo_total_nonelectrostatic_energy": 7.14, 
			 "SMD_solvation_energy": 2.34 
		},
		"coords": [
			{
				"x": 1.4065054595,
				"y": 0.798633207,
				"z": 1.1782310969,
				"element": "C" 
			},
			{
				"x": 1.1367117547,
				"y": -0.376509497,
				"z": 0.3611325809,
				"element": "N" 
			},
			{
				"x": 1.8309484572,
				"y": -1.5742244534,
				"z": 0.364727954,
				"element": "C" 
			},
			{
				"x": 3.2636912301,
				"y": -1.8932254325,
				"z": 1.3514213069,
				"element": "S" 
			},
			{
				"x": 1.3060250642,
				"y": -2.4119125151,
				"z": -0.5030851431,
				"element": "N" 
			},
			{
				"x": 0.2443290686,
				"y": -1.7883922973,
				"z": -1.0889945022,
				"element": "N" 
			},
			{
				"x": 0.147234649,
				"y": -0.5677077339,
				"z": -0.5743624175,
				"element": "C" 
			},
			{
				"x": -0.88455853,
				"y": 0.3674643818,
				"z": -0.9941447223,
				"element": "C" 
			},
			{
				"x": -1.8570837474,
				"y": 0.071703939,
				"z": -1.9248491797,
				"element": "C" 
			},
			{
				"x": -2.7479125552,
				"y": 1.1507704669,
				"z": -2.1720107799,
				"element": "C" 
			},
			{
				"x": -2.4548775106,
				"y": 2.2645395546,
				"z": -1.4325148403,
				"element": "C" 
			},
			{
				"x": -1.0762596299,
				"y": 2.0118189542,
				"z": -0.415326465,
				"element": "S" 
			},
			{
				"x": 2.2548933788,
				"y": 0.5738886104,
				"z": 1.8245275822,
				"element": "H" 
			},
			{
				"x": 1.6557355312,
				"y": 1.6567787951,
				"z": 0.5485492293,
				"element": "H" 
			},
			{
				"x": 0.5386233019,
				"y": 1.0434134024,
				"z": 1.7960346313,
				"element": "H" 
			},
			{
				"x": 2.6397415704,
				"y": -2.5760591722,
				"z": 2.3360218331,
				"element": "H" 
			},
			{
				"x": -1.9065939223,
				"y": -0.8988004196,
				"z": -2.4021914608,
				"element": "H" 
			},
			{
				"x": -3.5742113956,
				"y": 1.1012218519,
				"z": -2.8716078848,
				"element": "H" 
			},
			{
				"x": -2.9607421746,
				"y": 3.2197983576,
				"z": -1.4181588191,
				"element": "H" 
			}
		],
		 "valence_orbital": [ 
			{
				"type": "occ",
				"energy": -0.29139,
				"method": "rhf"
			},
			{
				"type": "occ",
				"energy": -0.2718,
				"method": "rhf"
			},
			{
				"type": "occ",
				"energy": -0.26485,
				"method": "rhf"
			},
			{
				"type": "occ",
				"energy": -0.25345,
				"method": "rhf"
			},
			{
				"type": "occ",
				"energy": -0.2214,
				"method": "rhf"
			},
			{
				"type": "unocc",
				"energy": -0.04799,
				"method": "rhf"
			},
			{
				"type": "unocc",
				"energy": -0.00258,
				"method": "rhf"
			},
			{
				"type": "unocc",
				"energy": 0.01587,
				"method": "rhf"
			},
			{
				"type": "unocc",
				"energy": 0.02911,
				"method": "rhf"
			},
			{
				"type": "unocc",
				"energy": 0.03939,
				"method": "rhf"
			}
		],
		"cosmo_sigma_profile": { 
			"-0.025": 0.0,
			"-0.024": 0.0,
			"-0.023": 0.0,
			"-0.022": 0.0,
			"-0.021": 0.0,
			"-0.02": 0.0,
			"-0.019": 0.0,
			"-0.018": 0.0,
			"-0.017": 0.0,
			"-0.016": 0.0,
			"-0.015": 0.0,
			"-0.014": 0.0,
			"-0.013": 0.0,
			"-0.012": 0.473014011635,
			"-0.011": 2.66085861256,
			"-0.01": 2.26711605362,
			"-0.009": 2.94243012085,
			"-0.008": 4.59269890054,
			"-0.007": 10.7311685885,
			"-0.006": 12.9313459185,
			"-0.005": 15.3210846889,
			"-0.004": 21.8597670301,
			"-0.003": 12.8575184444,
			"-0.002": 11.6147915727,
			"-0.001": 9.92899873717,
			"0.0": 11.3073926626,
			"0.001": 11.9961887185,
			"0.002": 14.7821319194,
			"0.003": 19.2671714439,
			"0.004": 13.9365369409,
			"0.005": 5.436240454,
			"0.006": 3.51388895215,
			"0.007": 3.19158122486,
			"0.008": 3.5798769844,
			"0.009": 2.16596052423,
			"0.01": 2.61948467293,
			"0.011": 2.49149596121,
			"0.012": 2.74424163861,
			"0.013": 3.76735735226,
			"0.014": 2.93101915159,
			"0.015": 2.30345743275,
			"0.016": 1.30863360021,
			"0.017": 0.109573534993,
			"0.018": 0.0,
			"0.019": 0.0,
			"0.02": 0.0,
			"0.021": 0.0,
			"0.022": 0.0,
			"0.023": 0.0,
			"0.024": 0.0,
			"0.025": 0.0
		}
	}
}
