{
	 "smiles": "COC1=C(N)C=C(C=C1)C(=O)NC1=NC(C)=CS1", 
	 "Tm": 438.15, 
	 "num_atms": 31, 
	 "gaussian": { 
		 "optdone": 1, 
		 "sigma_profile": "yes", 
		 "theory": "DFT", 
		 "functional": "B3LYP", 
		 "basiset": "6-31G**", 
		 "properties": { 
			 "R2extent": 8413.8862, 
			 "electric_dipole_moment_norm": 4.91067969837, 
			 "electric_quadrupole_moment_norm": 25.5454851643, 
			 "total_energy": -1178.0142907, 
			 "HOMO_LUMO_gap": 0.16254, 
			 "cosmo_polarized_energy": -18.29, 
			 "cosmo_cavitation_energy": 36.99, 
			 "cosmo_dispersion_energy": -27.95, 
			 "cosmo_repulsion_energy": 2.11, 
			 "cosmo_total_nonelectrostatic_energy": 11.15, 
			 "SMD_solvation_energy": 5.92 
		},
		"coords": [
			{
				"x": -0.2469849708,
				"y": 5.5349795552,
				"z": 1.4547157759,
				"element": "C" 
			},
			{
				"x": -0.0044067387,
				"y": 4.5681753848,
				"z": 0.4428843377,
				"element": "O" 
			},
			{
				"x": -0.0019164574,
				"y": 3.2464508049,
				"z": 0.7945988371,
				"element": "C" 
			},
			{
				"x": 0.2601899477,
				"y": 2.3585970161,
				"z": -0.2808193712,
				"element": "C" 
			},
			{
				"x": 0.5661099361,
				"y": 2.8850682859,
				"z": -1.5313914207,
				"element": "N" 
			},
			{
				"x": 0.2626034186,
				"y": 0.9877519284,
				"z": -0.0220227675,
				"element": "C" 
			},
			{
				"x": 0.0189372031,
				"y": 0.4878665714,
				"z": 1.2700549305,
				"element": "C" 
			},
			{
				"x": -0.2138236517,
				"y": 1.380522887,
				"z": 2.3180442825,
				"element": "C" 
			},
			{
				"x": -0.2304073932,
				"y": 2.7556026487,
				"z": 2.0782460255,
				"element": "C" 
			},
			{
				"x": 0.0077127439,
				"y": -0.9660811158,
				"z": 1.6001794504,
				"element": "C" 
			},
			{
				"x": 0.1207037455,
				"y": -1.3926416403,
				"z": 2.7464852737,
				"element": "O" 
			},
			{
				"x": -0.1575656248,
				"y": -1.8351994506,
				"z": 0.5373078838,
				"element": "N" 
			},
			{
				"x": -0.19186324,
				"y": -3.2179336666,
				"z": 0.6231653754,
				"element": "C" 
			},
			{
				"x": -0.3822890103,
				"y": -3.9443464202,
				"z": -0.4434622646,
				"element": "N" 
			},
			{
				"x": -0.3736913182,
				"y": -5.2910419083,
				"z": -0.1238873269,
				"element": "C" 
			},
			{
				"x": -0.577430576,
				"y": -6.2940683068,
				"z": -1.2207507449,
				"element": "C" 
			},
			{
				"x": -0.1732099917,
				"y": -5.5675041852,
				"z": 1.1972009115,
				"element": "C" 
			},
			{
				"x": 0.0115678063,
				"y": -4.1003611835,
				"z": 2.1248648153,
				"element": "S" 
			},
			{
				"x": 0.5160709542,
				"y": 5.4902333617,
				"z": 2.2413023963,
				"element": "H" 
			},
			{
				"x": -0.2000319095,
				"y": 6.5069428713,
				"z": 0.961660884,
				"element": "H" 
			},
			{
				"x": -1.2385086281,
				"y": 5.4041436029,
				"z": 1.9058788269,
				"element": "H" 
			},
			{
				"x": 0.2647395465,
				"y": 3.8400353937,
				"z": -1.6643663847,
				"element": "H" 
			},
			{
				"x": 0.3624253691,
				"y": 2.2867346663,
				"z": -2.3188836902,
				"element": "H" 
			},
			{
				"x": 0.5122613213,
				"y": 0.3203469044,
				"z": -0.8432029274,
				"element": "H" 
			},
			{
				"x": -0.3845252156,
				"y": 0.9861853893,
				"z": 3.3127874826,
				"element": "H" 
			},
			{
				"x": -0.4265220559,
				"y": 3.43722379,
				"z": 2.8974829147,
				"element": "H" 
			},
			{
				"x": -0.3553070815,
				"y": -1.4825226366,
				"z": -0.3883504585,
				"element": "H" 
			},
			{
				"x": 0.1963342254,
				"y": -6.1915345817,
				"z": -1.989599988,
				"element": "H" 
			},
			{
				"x": -1.5438310151,
				"y": -6.1400148769,
				"z": -1.7134479035,
				"element": "H" 
			},
			{
				"x": -0.5461916644,
				"y": -7.3153243633,
				"z": -0.8331265353,
				"element": "H" 
			},
			{
				"x": -0.1269496749,
				"y": -6.5340867264,
				"z": 1.6787513796,
				"element": "H" 
			}
		],
		 "valence_orbital": [ 
			{
				"type": "occ",
				"energy": -0.26131,
				"method": "rhf"
			},
			{
				"type": "occ",
				"energy": -0.25868,
				"method": "rhf"
			},
			{
				"type": "occ",
				"energy": -0.24576,
				"method": "rhf"
			},
			{
				"type": "occ",
				"energy": -0.20909,
				"method": "rhf"
			},
			{
				"type": "occ",
				"energy": -0.20202,
				"method": "rhf"
			},
			{
				"type": "unocc",
				"energy": -0.03948,
				"method": "rhf"
			},
			{
				"type": "unocc",
				"energy": -0.00116,
				"method": "rhf"
			},
			{
				"type": "unocc",
				"energy": 0.01104,
				"method": "rhf"
			},
			{
				"type": "unocc",
				"energy": 0.04348,
				"method": "rhf"
			},
			{
				"type": "unocc",
				"energy": 0.05975,
				"method": "rhf"
			}
		],
		"cosmo_sigma_profile": { 
			"-0.025": 0.0,
			"-0.024": 0.0,
			"-0.023": 0.0,
			"-0.022": 0.0,
			"-0.021": 0.0,
			"-0.02": 0.0,
			"-0.019": 0.0,
			"-0.018": 0.0,
			"-0.017": 0.0,
			"-0.016": 0.00351994135478,
			"-0.015": 0.716501625872,
			"-0.014": 0.729193938062,
			"-0.013": 2.00388021223,
			"-0.012": 2.87412967206,
			"-0.011": 2.38483251504,
			"-0.01": 4.00568259522,
			"-0.009": 4.74722692454,
			"-0.008": 4.77094368739,
			"-0.007": 6.1175744576,
			"-0.006": 12.6759342059,
			"-0.005": 18.5675581795,
			"-0.004": 22.3186471741,
			"-0.003": 19.7993791669,
			"-0.002": 17.5229918257,
			"-0.001": 21.5032371999,
			"0.0": 21.7858444282,
			"0.001": 17.6033398882,
			"0.002": 18.0360784326,
			"0.003": 21.3239731696,
			"0.004": 22.195902816,
			"0.005": 17.1086707382,
			"0.006": 7.89447830061,
			"0.007": 5.41007324208,
			"0.008": 3.07941671617,
			"0.009": 4.52300635895,
			"0.01": 4.04642369918,
			"0.011": 3.5534939396,
			"0.012": 4.63661214932,
			"0.013": 2.94836573749,
			"0.014": 1.61037518985,
			"0.015": 0.212018417409,
			"0.016": 0.0,
			"0.017": 0.0,
			"0.018": 0.0,
			"0.019": 0.0,
			"0.02": 0.0,
			"0.021": 0.0,
			"0.022": 0.0,
			"0.023": 0.0,
			"0.024": 0.0,
			"0.025": 0.0
		}
	}
}
