{
	 "smiles": "C[N+]([O-])=O", 
	 "Tm": 244.35, 
	 "num_atms": 7, 
	 "gaussian": { 
		 "optdone": 1, 
		 "sigma_profile": "yes", 
		 "theory": "DFT", 
		 "functional": "B3LYP", 
		 "basiset": "6-31G**", 
		 "properties": { 
			 "R2extent": 900.8153, 
			 "electric_dipole_moment_norm": 3.47170126163, 
			 "electric_quadrupole_moment_norm": 9.10267203133, 
			 "total_energy": -245.008712313, 
			 "HOMO_LUMO_gap": 0.22523, 
			 "cosmo_polarized_energy": -8.18, 
			 "cosmo_cavitation_energy": 11.35, 
			 "cosmo_dispersion_energy": -8.36, 
			 "cosmo_repulsion_energy": 0.8, 
			 "cosmo_total_nonelectrostatic_energy": 3.79, 
			 "SMD_solvation_energy": 4.94 
		},
		"coords": [
			{
				"x": -0.1644796606,
				"y": -1.7486049472,
				"z": -0.1107291299,
				"element": "C" 
			},
			{
				"x": 0.6054019966,
				"y": -2.0422761966,
				"z": -1.3626588451,
				"element": "N" 
			},
			{
				"x": 1.2840202494,
				"y": -3.0638304505,
				"z": -1.3720229149,
				"element": "O" 
			},
			{
				"x": 0.4723086962,
				"y": -1.2567403247,
				"z": -2.2950768221,
				"element": "O" 
			},
			{
				"x": 0.3836612545,
				"y": -2.1691027276,
				"z": 0.729763202,
				"element": "H" 
			},
			{
				"x": -1.1355588347,
				"y": -2.2371079983,
				"z": -0.2130814856,
				"element": "H" 
			},
			{
				"x": -0.2895537014,
				"y": -0.6704373551,
				"z": -0.0357940043,
				"element": "H" 
			}
		],
		 "valence_orbital": [ 
			{
				"type": "occ",
				"energy": -0.45359,
				"method": "rhf"
			},
			{
				"type": "occ",
				"energy": -0.43569,
				"method": "rhf"
			},
			{
				"type": "occ",
				"energy": -0.31452,
				"method": "rhf"
			},
			{
				"type": "occ",
				"energy": -0.30674,
				"method": "rhf"
			},
			{
				"type": "occ",
				"energy": -0.29421,
				"method": "rhf"
			},
			{
				"type": "unocc",
				"energy": -0.06898,
				"method": "rhf"
			},
			{
				"type": "unocc",
				"energy": 0.08972,
				"method": "rhf"
			},
			{
				"type": "unocc",
				"energy": 0.11012,
				"method": "rhf"
			},
			{
				"type": "unocc",
				"energy": 0.13036,
				"method": "rhf"
			},
			{
				"type": "unocc",
				"energy": 0.1418,
				"method": "rhf"
			}
		],
		"cosmo_sigma_profile": { 
			"-0.025": 0.0,
			"-0.024": 0.0,
			"-0.023": 0.0,
			"-0.022": 0.0,
			"-0.021": 0.0,
			"-0.02": 0.0,
			"-0.019": 0.0,
			"-0.018": 0.0,
			"-0.017": 0.0,
			"-0.016": 0.0,
			"-0.015": 0.0,
			"-0.014": 0.0,
			"-0.013": 0.0,
			"-0.012": 0.0,
			"-0.011": 0.0821566672501,
			"-0.01": 1.83401211155,
			"-0.009": 4.08219982815,
			"-0.008": 6.46710118476,
			"-0.007": 7.80122752388,
			"-0.006": 7.66067193004,
			"-0.005": 8.52932784483,
			"-0.004": 3.91057274454,
			"-0.003": 1.80219501503,
			"-0.002": 2.34460195416,
			"-0.001": 1.99413349704,
			"0.0": 2.51821755653,
			"0.001": 1.34254908659,
			"0.002": 1.56480681653,
			"0.003": 2.36469475406,
			"0.004": 2.03176061475,
			"0.005": 3.40972448603,
			"0.006": 3.24799397598,
			"0.007": 6.89821120242,
			"0.008": 11.2421746432,
			"0.009": 5.91997340505,
			"0.01": 2.75954112321,
			"0.011": 0.195502297397,
			"0.012": 0.0,
			"0.013": 0.0,
			"0.014": 0.0,
			"0.015": 0.0,
			"0.016": 0.0,
			"0.017": 0.0,
			"0.018": 0.0,
			"0.019": 0.0,
			"0.02": 0.0,
			"0.021": 0.0,
			"0.022": 0.0,
			"0.023": 0.0,
			"0.024": 0.0,
			"0.025": 0.0
		}
	}
}
