{
	 "smiles": "OCC1=CC(=NC=C1)C#N", 
	 "Tm": 383.15, 
	 "num_atms": 16, 
	 "gaussian": { 
		 "optdone": 1, 
		 "sigma_profile": "yes", 
		 "theory": "DFT", 
		 "functional": "B3LYP", 
		 "basiset": "6-31G**", 
		 "properties": { 
			 "R2extent": 1828.6621, 
			 "electric_dipole_moment_norm": 5.06081121264, 
			 "electric_quadrupole_moment_norm": 18.0486380885, 
			 "total_energy": -455.049261171, 
			 "HOMO_LUMO_gap": 0.21405, 
			 "cosmo_polarized_energy": -15.05, 
			 "cosmo_cavitation_energy": 21.73, 
			 "cosmo_dispersion_energy": -15.49, 
			 "cosmo_repulsion_energy": 1.27, 
			 "cosmo_total_nonelectrostatic_energy": 7.51, 
			 "SMD_solvation_energy": 3.89 
		},
		"coords": [
			{
				"x": -2.0608922763,
				"y": -2.5627632138,
				"z": 0.6062605895,
				"element": "O" 
			},
			{
				"x": -1.0408977796,
				"y": -2.0202381103,
				"z": 1.4231919033,
				"element": "C" 
			},
			{
				"x": -0.5591084905,
				"y": -0.6529316812,
				"z": 0.9730109888,
				"element": "C" 
			},
			{
				"x": 0.6847542068,
				"y": -0.157750107,
				"z": 1.3731845381,
				"element": "C" 
			},
			{
				"x": 1.0656497279,
				"y": 1.1219081627,
				"z": 0.9518742246,
				"element": "C" 
			},
			{
				"x": 0.3088703272,
				"y": 1.9149693767,
				"z": 0.1737913386,
				"element": "N" 
			},
			{
				"x": -0.8749621455,
				"y": 1.4259239532,
				"z": -0.2023588748,
				"element": "C" 
			},
			{
				"x": -1.3516319061,
				"y": 0.1648222466,
				"z": 0.164937234,
				"element": "C" 
			},
			{
				"x": 2.3503483969,
				"y": 1.6447578446,
				"z": 1.3561713579,
				"element": "C" 
			},
			{
				"x": 3.3904014029,
				"y": 2.0326575088,
				"z": 1.7000166022,
				"element": "N" 
			},
			{
				"x": -1.6774531685,
				"y": -2.7656881096,
				"z": -0.257447918,
				"element": "H" 
			},
			{
				"x": -1.4800909232,
				"y": -1.9316598964,
				"z": 2.424054525,
				"element": "H" 
			},
			{
				"x": -0.1805062282,
				"y": -2.7004350284,
				"z": 1.5159073119,
				"element": "H" 
			},
			{
				"x": 1.3543855862,
				"y": -0.7449764903,
				"z": 1.99450875,
				"element": "H" 
			},
			{
				"x": -1.4783357698,
				"y": 2.0767351484,
				"z": -0.8318926619,
				"element": "H" 
			},
			{
				"x": -2.32273096,
				"y": -0.183731604,
				"z": -0.1693099091,
				"element": "H" 
			}
		],
		 "valence_orbital": [ 
			{
				"type": "occ",
				"energy": -0.3384,
				"method": "rhf"
			},
			{
				"type": "occ",
				"energy": -0.31117,
				"method": "rhf"
			},
			{
				"type": "occ",
				"energy": -0.29601,
				"method": "rhf"
			},
			{
				"type": "occ",
				"energy": -0.28349,
				"method": "rhf"
			},
			{
				"type": "occ",
				"energy": -0.27991,
				"method": "rhf"
			},
			{
				"type": "unocc",
				"energy": -0.06586,
				"method": "rhf"
			},
			{
				"type": "unocc",
				"energy": -0.04606,
				"method": "rhf"
			},
			{
				"type": "unocc",
				"energy": 0.03208,
				"method": "rhf"
			},
			{
				"type": "unocc",
				"energy": 0.05559,
				"method": "rhf"
			},
			{
				"type": "unocc",
				"energy": 0.06652,
				"method": "rhf"
			}
		],
		"cosmo_sigma_profile": { 
			"-0.025": 0.0,
			"-0.024": 0.0,
			"-0.023": 0.0,
			"-0.022": 0.0,
			"-0.021": 0.0,
			"-0.02": 0.0,
			"-0.019": 0.0,
			"-0.018": 0.0,
			"-0.017": 0.130217136322,
			"-0.016": 0.952252955057,
			"-0.015": 1.16983543397,
			"-0.014": 0.671815801768,
			"-0.013": 1.08865825197,
			"-0.012": 1.21154255431,
			"-0.011": 0.706160286918,
			"-0.01": 0.924637296319,
			"-0.009": 2.06718205102,
			"-0.008": 5.74803235877,
			"-0.007": 9.45405267039,
			"-0.006": 13.3320441582,
			"-0.005": 10.555689254,
			"-0.004": 9.0820230942,
			"-0.003": 10.2055397823,
			"-0.002": 10.4065163551,
			"-0.001": 13.8595987849,
			"0.0": 13.7622629661,
			"0.001": 8.60952755283,
			"0.002": 5.24865169598,
			"0.003": 5.24647369562,
			"0.004": 5.67892299143,
			"0.005": 5.37939737158,
			"0.006": 5.24457194285,
			"0.007": 5.22861549518,
			"0.008": 5.91474860388,
			"0.009": 4.91034107174,
			"0.01": 4.51156130447,
			"0.011": 5.12930568567,
			"0.012": 4.06869840782,
			"0.013": 3.10565557777,
			"0.014": 1.2128254261,
			"0.015": 0.0843506794792,
			"0.016": 0.0,
			"0.017": 0.0,
			"0.018": 0.0,
			"0.019": 0.0,
			"0.02": 0.0,
			"0.021": 0.0,
			"0.022": 0.0,
			"0.023": 0.0,
			"0.024": 0.0,
			"0.025": 0.0
		}
	}
}
