{
	 "smiles": "CC1=CC(=CC=C1Br)S(N)(=O)=O", 
	 "Tm": 424.15, 
	 "num_atms": 20, 
	 "gaussian": { 
		 "optdone": 1, 
		 "sigma_profile": "yes", 
		 "theory": "DFT", 
		 "functional": "B3LYP", 
		 "basiset": "6-31G**", 
		 "properties": { 
			 "R2extent": 4520.6577, 
			 "electric_dipole_moment_norm": 5.02044506194, 
			 "electric_quadrupole_moment_norm": 17.2789634475, 
			 "total_energy": -3446.29345672, 
			 "HOMO_LUMO_gap": 0.20912, 
			 "cosmo_polarized_energy": -17.71, 
			 "cosmo_cavitation_energy": 27.7, 
			 "cosmo_dispersion_energy": -21.12, 
			 "cosmo_repulsion_energy": 1.64, 
			 "cosmo_total_nonelectrostatic_energy": 8.22, 
			 "SMD_solvation_energy": 3.38 
		},
		"coords": [
			{
				"x": 0.9942048517,
				"y": -2.9995016046,
				"z": -0.4280695739,
				"element": "C" 
			},
			{
				"x": 0.8587374635,
				"y": -1.5077803754,
				"z": -0.5865144992,
				"element": "C" 
			},
			{
				"x": 0.6676625702,
				"y": -0.6872168985,
				"z": 0.5327931256,
				"element": "C" 
			},
			{
				"x": 0.5328142233,
				"y": 0.6945015441,
				"z": 0.3981036032,
				"element": "C" 
			},
			{
				"x": 0.566183958,
				"y": 1.3040005541,
				"z": -0.8562084642,
				"element": "C" 
			},
			{
				"x": 0.7574412323,
				"y": 0.507872281,
				"z": -1.9828385545,
				"element": "C" 
			},
			{
				"x": 0.9060142856,
				"y": -0.8717785169,
				"z": -1.8382455741,
				"element": "C" 
			},
			{
				"x": 1.1678945024,
				"y": -1.9093413386,
				"z": -3.422720775,
				"element": "Br" 
			},
			{
				"x": 0.3221984603,
				"y": 1.7077782788,
				"z": 1.8706847795,
				"element": "S" 
			},
			{
				"x": 1.86106096,
				"y": 2.1586663561,
				"z": 2.3742117359,
				"element": "N" 
			},
			{
				"x": -0.3335514283,
				"y": 2.9456061343,
				"z": 1.4545576283,
				"element": "O" 
			},
			{
				"x": -0.1978453433,
				"y": 0.840462751,
				"z": 2.9257511318,
				"element": "O" 
			},
			{
				"x": 1.9536480162,
				"y": -3.3539197603,
				"z": -0.8194007651,
				"element": "H" 
			},
			{
				"x": 0.9226127628,
				"y": -3.284858671,
				"z": 0.6238715115,
				"element": "H" 
			},
			{
				"x": 0.2120345506,
				"y": -3.5278091364,
				"z": -0.9830806667,
				"element": "H" 
			},
			{
				"x": 0.598612373,
				"y": -1.1335845324,
				"z": 1.5197726384,
				"element": "H" 
			},
			{
				"x": 0.4211254979,
				"y": 2.374763026,
				"z": -0.949276087,
				"element": "H" 
			},
			{
				"x": 0.7831528802,
				"y": 0.9513025234,
				"z": -2.9715227579,
				"element": "H" 
			},
			{
				"x": 2.3363592732,
				"y": 2.76178268,
				"z": 1.710629724,
				"element": "H" 
			},
			{
				"x": 2.4259389106,
				"y": 1.3731547052,
				"z": 2.6806018394,
				"element": "H" 
			}
		],
		 "valence_orbital": [ 
			{
				"type": "occ",
				"energy": -0.30898,
				"method": "rhf"
			},
			{
				"type": "occ",
				"energy": -0.30722,
				"method": "rhf"
			},
			{
				"type": "occ",
				"energy": -0.3006,
				"method": "rhf"
			},
			{
				"type": "occ",
				"energy": -0.27743,
				"method": "rhf"
			},
			{
				"type": "occ",
				"energy": -0.2596,
				"method": "rhf"
			},
			{
				"type": "unocc",
				"energy": -0.05048,
				"method": "rhf"
			},
			{
				"type": "unocc",
				"energy": -0.0323,
				"method": "rhf"
			},
			{
				"type": "unocc",
				"energy": -0.0064,
				"method": "rhf"
			},
			{
				"type": "unocc",
				"energy": 0.04869,
				"method": "rhf"
			},
			{
				"type": "unocc",
				"energy": 0.07582,
				"method": "rhf"
			}
		],
		"cosmo_sigma_profile": { 
			"-0.025": 0.0,
			"-0.024": 0.0,
			"-0.023": 0.0,
			"-0.022": 0.0,
			"-0.021": 0.0,
			"-0.02": 0.0,
			"-0.019": 0.0,
			"-0.018": 0.0,
			"-0.017": 0.0,
			"-0.016": 0.113069472222,
			"-0.015": 2.27537289044,
			"-0.014": 2.70835242291,
			"-0.013": 2.90358267454,
			"-0.012": 3.32971389025,
			"-0.011": 2.47224291491,
			"-0.01": 2.31197125846,
			"-0.009": 1.46617657272,
			"-0.008": 4.04511887872,
			"-0.007": 7.00476661623,
			"-0.006": 8.918528541,
			"-0.005": 9.18697966443,
			"-0.004": 11.2974888808,
			"-0.003": 13.11994681,
			"-0.002": 14.2545481109,
			"-0.001": 19.223453161,
			"0.0": 15.789699843,
			"0.001": 21.041310975,
			"0.002": 17.3884532581,
			"0.003": 10.3481690809,
			"0.004": 11.4783211436,
			"0.005": 3.77359635814,
			"0.006": 3.33996405201,
			"0.007": 4.17036050351,
			"0.008": 4.52932197729,
			"0.009": 4.57982927164,
			"0.01": 7.76147797201,
			"0.011": 10.4458110001,
			"0.012": 4.43154939487,
			"0.013": 0.098035807351,
			"0.014": 0.0,
			"0.015": 0.0,
			"0.016": 0.0,
			"0.017": 0.0,
			"0.018": 0.0,
			"0.019": 0.0,
			"0.02": 0.0,
			"0.021": 0.0,
			"0.022": 0.0,
			"0.023": 0.0,
			"0.024": 0.0,
			"0.025": 0.0
		}
	}
}
