{
	 "smiles": "ClCBr", 
	 "Tm": 185.15, 
	 "num_atms": 5, 
	 "gaussian": { 
		 "optdone": 1, 
		 "sigma_profile": "yes", 
		 "theory": "DFT", 
		 "functional": "B3LYP", 
		 "basiset": "6-31G**", 
		 "properties": { 
			 "R2extent": 1222.6805, 
			 "electric_dipole_moment_norm": 1.7045434638, 
			 "electric_quadrupole_moment_norm": 4.66366337121, 
			 "total_energy": -3070.90185567, 
			 "HOMO_LUMO_gap": 0.25851, 
			 "cosmo_polarized_energy": -4.42, 
			 "cosmo_cavitation_energy": 12.58, 
			 "cosmo_dispersion_energy": -10.26, 
			 "cosmo_repulsion_energy": 0.97, 
			 "cosmo_total_nonelectrostatic_energy": 3.28, 
			 "SMD_solvation_energy": 1.09 
		},
		"coords": [
			{
				"x": 2.2832352453,
				"y": 0.427787106,
				"z": -1.0684932738,
				"element": "Cl" 
			},
			{
				"x": 2.0558683531,
				"y": 0.7179116678,
				"z": 0.6761692869,
				"element": "C" 
			},
			{
				"x": 1.1878633885,
				"y": -0.7670342528,
				"z": 1.6131461087,
				"element": "Br" 
			},
			{
				"x": 3.0303420505,
				"y": 0.8556208993,
				"z": 1.1353309336,
				"element": "H" 
			},
			{
				"x": 1.4188909626,
				"y": 1.5882145798,
				"z": 0.8035469446,
				"element": "H" 
			}
		],
		 "valence_orbital": [ 
			{
				"type": "occ",
				"energy": -0.4269,
				"method": "rhf"
			},
			{
				"type": "occ",
				"energy": -0.32177,
				"method": "rhf"
			},
			{
				"type": "occ",
				"energy": -0.3212,
				"method": "rhf"
			},
			{
				"type": "occ",
				"energy": -0.29243,
				"method": "rhf"
			},
			{
				"type": "occ",
				"energy": -0.29018,
				"method": "rhf"
			},
			{
				"type": "unocc",
				"energy": -0.03167,
				"method": "rhf"
			},
			{
				"type": "unocc",
				"energy": 0.02256,
				"method": "rhf"
			},
			{
				"type": "unocc",
				"energy": 0.09551,
				"method": "rhf"
			},
			{
				"type": "unocc",
				"energy": 0.11952,
				"method": "rhf"
			},
			{
				"type": "unocc",
				"energy": 0.35806,
				"method": "rhf"
			}
		],
		"cosmo_sigma_profile": { 
			"-0.025": 0.0,
			"-0.024": 0.0,
			"-0.023": 0.0,
			"-0.022": 0.0,
			"-0.021": 0.0,
			"-0.02": 0.0,
			"-0.019": 0.0,
			"-0.018": 0.0,
			"-0.017": 0.0,
			"-0.016": 0.0,
			"-0.015": 0.0,
			"-0.014": 0.0,
			"-0.013": 0.0,
			"-0.012": 0.0,
			"-0.011": 0.501448667517,
			"-0.01": 4.45786733548,
			"-0.009": 3.83437558815,
			"-0.008": 3.55645149512,
			"-0.007": 3.99753900266,
			"-0.006": 3.58308874376,
			"-0.005": 2.23369654367,
			"-0.004": 3.52350004685,
			"-0.003": 4.48885224617,
			"-0.002": 3.82747369887,
			"-0.001": 5.87653449528,
			"0.0": 6.32584425548,
			"0.001": 6.68902622357,
			"0.002": 6.69622889444,
			"0.003": 11.2848355921,
			"0.004": 17.0655218355,
			"0.005": 17.6336148987,
			"0.006": 0.375207458665,
			"0.007": 0.0,
			"0.008": 0.0,
			"0.009": 0.0,
			"0.01": 0.0,
			"0.011": 0.0,
			"0.012": 0.0,
			"0.013": 0.0,
			"0.014": 0.0,
			"0.015": 0.0,
			"0.016": 0.0,
			"0.017": 0.0,
			"0.018": 0.0,
			"0.019": 0.0,
			"0.02": 0.0,
			"0.021": 0.0,
			"0.022": 0.0,
			"0.023": 0.0,
			"0.024": 0.0,
			"0.025": 0.0
		}
	}
}
