{
	 "smiles": "NNS(=O)(=O)CC1=CC=C(C=C1)C#N", 
	 "Tm": 416.15, 
	 "num_atms": 23, 
	 "gaussian": { 
		 "optdone": 1, 
		 "sigma_profile": "yes", 
		 "theory": "DFT", 
		 "functional": "B3LYP", 
		 "basiset": "6-31G**", 
		 "properties": { 
			 "R2extent": 3971.9605, 
			 "electric_dipole_moment_norm": 2.28949272329, 
			 "electric_quadrupole_moment_norm": 30.6489623578, 
			 "total_energy": -1023.05192512, 
			 "HOMO_LUMO_gap": 0.19523, 
			 "cosmo_polarized_energy": -20.53, 
			 "cosmo_cavitation_energy": 29.73, 
			 "cosmo_dispersion_energy": -20.94, 
			 "cosmo_repulsion_energy": 1.61, 
			 "cosmo_total_nonelectrostatic_energy": 10.39, 
			 "SMD_solvation_energy": 5.96 
		},
		"coords": [
			{
				"x": -0.4341516591,
				"y": 3.1593132127,
				"z": -0.7940255821,
				"element": "N" 
			},
			{
				"x": -1.0656016055,
				"y": 2.2326009264,
				"z": -1.6540003926,
				"element": "N" 
			},
			{
				"x": -0.058201882,
				"y": 1.2754490349,
				"z": -2.6730338507,
				"element": "S" 
			},
			{
				"x": 1.3012881987,
				"y": 1.834477143,
				"z": -2.6618876498,
				"element": "O" 
			},
			{
				"x": -0.8085745268,
				"y": 1.0816695072,
				"z": -3.9176399929,
				"element": "O" 
			},
			{
				"x": -0.0122542839,
				"y": -0.334514811,
				"z": -1.8053130596,
				"element": "C" 
			},
			{
				"x": 0.5475830471,
				"y": -0.2583360932,
				"z": -0.4126265329,
				"element": "C" 
			},
			{
				"x": -0.3121159749,
				"y": -0.2095372189,
				"z": 0.6949594033,
				"element": "C" 
			},
			{
				"x": 0.1970070728,
				"y": -0.1316101095,
				"z": 1.9879651928,
				"element": "C" 
			},
			{
				"x": 1.5870394835,
				"y": -0.0992114099,
				"z": 2.1897380075,
				"element": "C" 
			},
			{
				"x": 2.4544843292,
				"y": -0.1433575522,
				"z": 1.0847907042,
				"element": "C" 
			},
			{
				"x": 1.9342564153,
				"y": -0.2204542076,
				"z": -0.2024000821,
				"element": "C" 
			},
			{
				"x": 2.1184352191,
				"y": -0.0233065628,
				"z": 3.5197111165,
				"element": "C" 
			},
			{
				"x": 2.5486165406,
				"y": 0.0396321038,
				"z": 4.598538476,
				"element": "N" 
			},
			{
				"x": 0.4251009222,
				"y": 3.5128433614,
				"z": -1.2166911106,
				"element": "H" 
			},
			{
				"x": -0.1913051099,
				"y": 2.6717612799,
				"z": 0.0634150888,
				"element": "H" 
			},
			{
				"x": -1.7240568543,
				"y": 2.701510385,
				"z": -2.2748444776,
				"element": "H" 
			},
			{
				"x": -1.0418282,
				"y": -0.6963875823,
				"z": -1.8255922228,
				"element": "H" 
			},
			{
				"x": 0.5959863217,
				"y": -0.9613240656,
				"z": -2.4639810402,
				"element": "H" 
			},
			{
				"x": -1.3868646451,
				"y": -0.2333267095,
				"z": 0.5417062921,
				"element": "H" 
			},
			{
				"x": -0.4711219303,
				"y": -0.0998813218,
				"z": 2.8418811443,
				"element": "H" 
			},
			{
				"x": 3.5271424159,
				"y": -0.1170424886,
				"z": 1.2434048472,
				"element": "H" 
			},
			{
				"x": 2.6063367057,
				"y": -0.2403668214,
				"z": -1.0541742791,
				"element": "H" 
			}
		],
		 "valence_orbital": [ 
			{
				"type": "occ",
				"energy": -0.32263,
				"method": "rhf"
			},
			{
				"type": "occ",
				"energy": -0.29753,
				"method": "rhf"
			},
			{
				"type": "occ",
				"energy": -0.29221,
				"method": "rhf"
			},
			{
				"type": "occ",
				"energy": -0.28626,
				"method": "rhf"
			},
			{
				"type": "occ",
				"energy": -0.26845,
				"method": "rhf"
			},
			{
				"type": "unocc",
				"energy": -0.07322,
				"method": "rhf"
			},
			{
				"type": "unocc",
				"energy": -0.0417,
				"method": "rhf"
			},
			{
				"type": "unocc",
				"energy": 0.02565,
				"method": "rhf"
			},
			{
				"type": "unocc",
				"energy": 0.03761,
				"method": "rhf"
			},
			{
				"type": "unocc",
				"energy": 0.04639,
				"method": "rhf"
			}
		],
		"cosmo_sigma_profile": { 
			"-0.025": 0.0,
			"-0.024": 0.0,
			"-0.023": 0.0,
			"-0.022": 0.0,
			"-0.021": 0.0,
			"-0.02": 0.0,
			"-0.019": 0.0,
			"-0.018": 0.0,
			"-0.017": 0.0,
			"-0.016": 0.0,
			"-0.015": 0.102708665342,
			"-0.014": 0.836394558809,
			"-0.013": 1.02879040128,
			"-0.012": 0.99349115148,
			"-0.011": 1.11478573543,
			"-0.01": 4.13800735809,
			"-0.009": 9.22260081052,
			"-0.008": 13.8541540829,
			"-0.007": 15.50019679,
			"-0.006": 14.9537576862,
			"-0.005": 11.9643126976,
			"-0.004": 12.4830778335,
			"-0.003": 10.1867062369,
			"-0.002": 13.9652700896,
			"-0.001": 15.0874460091,
			"0.0": 12.392294803,
			"0.001": 13.3663507832,
			"0.002": 8.82344981383,
			"0.003": 5.78564194358,
			"0.004": 5.11827993466,
			"0.005": 5.90480268561,
			"0.006": 7.84410670159,
			"0.007": 7.46905470145,
			"0.008": 6.80468311885,
			"0.009": 8.08409207419,
			"0.01": 11.0980655061,
			"0.011": 12.4907114233,
			"0.012": 3.93630093973,
			"0.013": 1.88005961531,
			"0.014": 0.702094981823,
			"0.015": 0.488455548443,
			"0.016": 0.115113463787,
			"0.017": 0.0,
			"0.018": 0.0,
			"0.019": 0.0,
			"0.02": 0.0,
			"0.021": 0.0,
			"0.022": 0.0,
			"0.023": 0.0,
			"0.024": 0.0,
			"0.025": 0.0
		}
	}
}
