{
	 "smiles": "CCCC(=O)OCN1C(=O)NC(C1=O)(C1=CC=CC=C1)C1=CC=CC=C1", 
	 "Tm": 404.15, 
	 "num_atms": 46, 
	 "gaussian": { 
		 "optdone": 1, 
		 "sigma_profile": "yes", 
		 "theory": "DFT", 
		 "functional": "B3LYP", 
		 "basiset": "6-31G**", 
		 "properties": { 
			 "R2extent": 10384.6051, 
			 "electric_dipole_moment_norm": 4.53224530338, 
			 "electric_quadrupole_moment_norm": 20.293855614, 
			 "total_energy": -1184.63815373, 
			 "HOMO_LUMO_gap": 0.21755, 
			 "cosmo_polarized_energy": -18.92, 
			 "cosmo_cavitation_energy": 50.34, 
			 "cosmo_dispersion_energy": -32.04, 
			 "cosmo_repulsion_energy": 2.44, 
			 "cosmo_total_nonelectrostatic_energy": 20.75, 
			 "SMD_solvation_energy": 10.34 
		},
		"coords": [
			{
				"x": -2.5209381507,
				"y": -2.7985834946,
				"z": -2.4064540017,
				"element": "C" 
			},
			{
				"x": -1.8202421905,
				"y": -2.3139097811,
				"z": -3.680447909,
				"element": "C" 
			},
			{
				"x": -2.6832155404,
				"y": -1.369080194,
				"z": -4.5360930094,
				"element": "C" 
			},
			{
				"x": -3.1400758869,
				"y": -0.1137328029,
				"z": -3.821641419,
				"element": "C" 
			},
			{
				"x": -4.2724395555,
				"y": 0.3155274586,
				"z": -3.8039217103,
				"element": "O" 
			},
			{
				"x": -2.1028715117,
				"y": 0.5073548343,
				"z": -3.1969499114,
				"element": "O" 
			},
			{
				"x": -2.4535302491,
				"y": 1.6699439003,
				"z": -2.4243758931,
				"element": "C" 
			},
			{
				"x": -1.4350524033,
				"y": 1.869984142,
				"z": -1.4372766374,
				"element": "N" 
			},
			{
				"x": -0.3404297664,
				"y": 2.7534649475,
				"z": -1.618999583,
				"element": "C" 
			},
			{
				"x": -0.1444729427,
				"y": 3.4352594386,
				"z": -2.6023795148,
				"element": "O" 
			},
			{
				"x": 0.396175601,
				"y": 2.6793290006,
				"z": -0.4653086974,
				"element": "N" 
			},
			{
				"x": -0.049641553,
				"y": 1.6273186307,
				"z": 0.4590324592,
				"element": "C" 
			},
			{
				"x": -1.3229961374,
				"y": 1.1239872311,
				"z": -0.2784562606,
				"element": "C" 
			},
			{
				"x": -2.0823874321,
				"y": 0.2518614142,
				"z": 0.0851389864,
				"element": "O" 
			},
			{
				"x": 1.0259252924,
				"y": 0.5352651004,
				"z": 0.5710118553,
				"element": "C" 
			},
			{
				"x": 2.11615805,
				"y": 0.7439615552,
				"z": 1.4281066919,
				"element": "C" 
			},
			{
				"x": 3.1620532944,
				"y": -0.1765398586,
				"z": 1.4846735782,
				"element": "C" 
			},
			{
				"x": 3.128628237,
				"y": -1.3248684977,
				"z": 0.6913219577,
				"element": "C" 
			},
			{
				"x": 2.0443223352,
				"y": -1.5429923465,
				"z": -0.1586059284,
				"element": "C" 
			},
			{
				"x": 1.0003466058,
				"y": -0.6181731128,
				"z": -0.2226672689,
				"element": "C" 
			},
			{
				"x": -0.473365731,
				"y": 2.1808578224,
				"z": 1.8275075204,
				"element": "C" 
			},
			{
				"x": -0.46119559,
				"y": 3.551814348,
				"z": 2.1003376122,
				"element": "C" 
			},
			{
				"x": -0.8685464911,
				"y": 4.0262073079,
				"z": 3.3502141482,
				"element": "C" 
			},
			{
				"x": -1.3017539801,
				"y": 3.1363746849,
				"z": 4.3319493371,
				"element": "C" 
			},
			{
				"x": -1.3269771945,
				"y": 1.7659926825,
				"z": 4.0589232983,
				"element": "C" 
			},
			{
				"x": -0.9138867773,
				"y": 1.2891810311,
				"z": 2.81682109,
				"element": "C" 
			},
			{
				"x": -3.4723776624,
				"y": -3.2901877106,
				"z": -2.6386301161,
				"element": "H" 
			},
			{
				"x": -2.727494704,
				"y": -1.9690026063,
				"z": -1.7219562704,
				"element": "H" 
			},
			{
				"x": -1.8973413353,
				"y": -3.5201864604,
				"z": -1.868841261,
				"element": "H" 
			},
			{
				"x": -1.5453861653,
				"y": -3.173051829,
				"z": -4.3040604504,
				"element": "H" 
			},
			{
				"x": -0.8855397283,
				"y": -1.8047796667,
				"z": -3.4214505503,
				"element": "H" 
			},
			{
				"x": -2.1164279446,
				"y": -1.0538827139,
				"z": -5.42171382,
				"element": "H" 
			},
			{
				"x": -3.5894659572,
				"y": -1.8695137806,
				"z": -4.8878594098,
				"element": "H" 
			},
			{
				"x": -2.4807411475,
				"y": 2.5492546201,
				"z": -3.0696913817,
				"element": "H" 
			},
			{
				"x": -3.4177401644,
				"y": 1.5068063731,
				"z": -1.9432809258,
				"element": "H" 
			},
			{
				"x": 1.3511080189,
				"y": 3.0062768895,
				"z": -0.4796380046,
				"element": "H" 
			},
			{
				"x": 2.1395595005,
				"y": 1.6252094981,
				"z": 2.0625350343,
				"element": "H" 
			},
			{
				"x": 3.9985964706,
				"y": 0.0007992623,
				"z": 2.1543687395,
				"element": "H" 
			},
			{
				"x": 3.9391039393,
				"y": -2.0461650751,
				"z": 0.7394797696,
				"element": "H" 
			},
			{
				"x": 2.0055558277,
				"y": -2.4365816228,
				"z": -0.7746692455,
				"element": "H" 
			},
			{
				"x": 0.1620034112,
				"y": -0.8107516936,
				"z": -0.8836821855,
				"element": "H" 
			},
			{
				"x": -0.1385815317,
				"y": 4.2486753996,
				"z": 1.334366245,
				"element": "H" 
			},
			{
				"x": -0.8489508244,
				"y": 5.093651536,
				"z": 3.5504439588,
				"element": "H" 
			},
			{
				"x": -1.620253489,
				"y": 3.505661311,
				"z": 5.3024608088,
				"element": "H" 
			},
			{
				"x": -1.6694342865,
				"y": 1.0657078273,
				"z": 4.8152174824,
				"element": "H" 
			},
			{
				"x": -0.9425825597,
				"y": 0.2258549999,
				"z": 2.6051407924,
				"element": "H" 
			}
		],
		 "valence_orbital": [ 
			{
				"type": "occ",
				"energy": -0.26723,
				"method": "rhf"
			},
			{
				"type": "occ",
				"energy": -0.26523,
				"method": "rhf"
			},
			{
				"type": "occ",
				"energy": -0.26068,
				"method": "rhf"
			},
			{
				"type": "occ",
				"energy": -0.2561,
				"method": "rhf"
			},
			{
				"type": "occ",
				"energy": -0.24838,
				"method": "rhf"
			},
			{
				"type": "unocc",
				"energy": -0.03083,
				"method": "rhf"
			},
			{
				"type": "unocc",
				"energy": -0.02176,
				"method": "rhf"
			},
			{
				"type": "unocc",
				"energy": -0.01858,
				"method": "rhf"
			},
			{
				"type": "unocc",
				"energy": -0.00429,
				"method": "rhf"
			},
			{
				"type": "unocc",
				"energy": -0.00092,
				"method": "rhf"
			}
		],
		"cosmo_sigma_profile": { 
			"-0.025": 0.0,
			"-0.024": 0.0,
			"-0.023": 0.0,
			"-0.022": 0.0,
			"-0.021": 0.0,
			"-0.02": 0.0,
			"-0.019": 0.0,
			"-0.018": 0.0,
			"-0.017": 0.0,
			"-0.016": 0.257788205237,
			"-0.015": 0.836770239369,
			"-0.014": 0.83438500653,
			"-0.013": 1.44416143117,
			"-0.012": 0.428183367561,
			"-0.011": 0.748440447315,
			"-0.01": 1.48135721705,
			"-0.009": 1.59434645633,
			"-0.008": 3.40779154502,
			"-0.007": 5.87144344626,
			"-0.006": 19.7661864551,
			"-0.005": 27.9427229344,
			"-0.004": 35.9451882775,
			"-0.003": 37.4254189779,
			"-0.002": 36.485044571,
			"-0.001": 32.2869473254,
			"0.0": 26.9824228656,
			"0.001": 27.7445794427,
			"0.002": 25.5442296746,
			"0.003": 22.7986447471,
			"0.004": 22.3991712655,
			"0.005": 22.9326894599,
			"0.006": 6.175134994,
			"0.007": 4.23980622327,
			"0.008": 4.11297217309,
			"0.009": 4.97659202397,
			"0.01": 6.35438261752,
			"0.011": 9.05960291665,
			"0.012": 8.30576964718,
			"0.013": 1.39509483372,
			"0.014": 0.0,
			"0.015": 0.0,
			"0.016": 0.0,
			"0.017": 0.0,
			"0.018": 0.0,
			"0.019": 0.0,
			"0.02": 0.0,
			"0.021": 0.0,
			"0.022": 0.0,
			"0.023": 0.0,
			"0.024": 0.0,
			"0.025": 0.0
		}
	}
}
