{
	 "smiles": "CCC(C)(C)[C@H]1CC[C@H](O)CC1", 
	 "Tm": 299.15, 
	 "num_atms": 34, 
	 "gaussian": { 
		 "optdone": 1, 
		 "sigma_profile": "yes", 
		 "theory": "DFT", 
		 "functional": "B3LYP", 
		 "basiset": "6-31G**", 
		 "properties": { 
			 "R2extent": 2901.6559, 
			 "electric_dipole_moment_norm": 1.29335401186, 
			 "electric_quadrupole_moment_norm": 7.82051782748, 
			 "total_energy": -507.665615433, 
			 "HOMO_LUMO_gap": 0.31851, 
			 "cosmo_polarized_energy": -5.67, 
			 "cosmo_cavitation_energy": 30.43, 
			 "cosmo_dispersion_energy": -22.32, 
			 "cosmo_repulsion_energy": 1.74, 
			 "cosmo_total_nonelectrostatic_energy": 9.85, 
			 "SMD_solvation_energy": 4.59 
		},
		"coords": [
			{
				"x": -0.1835314104,
				"y": 3.9569179452,
				"z": 0.9775416524,
				"element": "C" 
			},
			{
				"x": 0.15611885,
				"y": 2.5486652621,
				"z": 1.4868536359,
				"element": "C" 
			},
			{
				"x": 0.488854973,
				"y": 1.4689743796,
				"z": 0.4152136316,
				"element": "C" 
			},
			{
				"x": -0.780336313,
				"y": 1.1485294841,
				"z": -0.4018625128,
				"element": "C" 
			},
			{
				"x": 1.5505470269,
				"y": 2.0359200295,
				"z": -0.5561258246,
				"element": "C" 
			},
			{
				"x": 1.1255969188,
				"y": 0.2155873118,
				"z": 1.139227236,
				"element": "C" 
			},
			{
				"x": 0.4675292737,
				"y": -0.2778618999,
				"z": 2.4575616824,
				"element": "C" 
			},
			{
				"x": -0.7242237389,
				"y": -1.2334196281,
				"z": 2.288200501,
				"element": "C" 
			},
			{
				"x": -0.3530444868,
				"y": -2.4498853551,
				"z": 1.4376193288,
				"element": "C" 
			},
			{
				"x": 0.597692176,
				"y": -3.2055268294,
				"z": 2.1961869889,
				"element": "O" 
			},
			{
				"x": 0.2235874884,
				"y": -2.005292134,
				"z": 0.0869445697,
				"element": "C" 
			},
			{
				"x": 1.3993942815,
				"y": -1.0215794103,
				"z": 0.2389044144,
				"element": "C" 
			},
			{
				"x": -0.4644749715,
				"y": 4.5998683388,
				"z": 1.8184519506,
				"element": "H" 
			},
			{
				"x": -1.0263544223,
				"y": 3.9543642897,
				"z": 0.2785197581,
				"element": "H" 
			},
			{
				"x": 0.6642859557,
				"y": 4.4320981221,
				"z": 0.4754069053,
				"element": "H" 
			},
			{
				"x": 1.0091322559,
				"y": 2.6285645362,
				"z": 2.1749553808,
				"element": "H" 
			},
			{
				"x": -0.6878950623,
				"y": 2.195739578,
				"z": 2.0910072202,
				"element": "H" 
			},
			{
				"x": -1.5737024517,
				"y": 0.7169405174,
				"z": 0.2154837466,
				"element": "H" 
			},
			{
				"x": -1.1828281995,
				"y": 2.0578970312,
				"z": -0.8602636823,
				"element": "H" 
			},
			{
				"x": -0.5675775176,
				"y": 0.4531134063,
				"z": -1.2189268661,
				"element": "H" 
			},
			{
				"x": 1.1535364562,
				"y": 2.8756225842,
				"z": -1.1342772056,
				"element": "H" 
			},
			{
				"x": 1.8834944397,
				"y": 1.2831395175,
				"z": -1.2767102928,
				"element": "H" 
			},
			{
				"x": 2.4351833323,
				"y": 2.3910151817,
				"z": -0.0144411957,
				"element": "H" 
			},
			{
				"x": 2.1157151034,
				"y": 0.5855888293,
				"z": 1.4421270103,
				"element": "H" 
			},
			{
				"x": 0.1821611396,
				"y": 0.5614126675,
				"z": 3.0966539357,
				"element": "H" 
			},
			{
				"x": 1.2384846285,
				"y": -0.8276439909,
				"z": 3.0092955753,
				"element": "H" 
			},
			{
				"x": -1.5784590495,
				"y": -0.7297350979,
				"z": 1.8212852326,
				"element": "H" 
			},
			{
				"x": -1.0596772818,
				"y": -1.5815152171,
				"z": 3.2718175198,
				"element": "H" 
			},
			{
				"x": -1.2544456347,
				"y": -3.0604500455,
				"z": 1.2627621351,
				"element": "H" 
			},
			{
				"x": 0.8960174757,
				"y": -3.9410053069,
				"z": 1.6457702848,
				"element": "H" 
			},
			{
				"x": 0.5599862689,
				"y": -2.8889624135,
				"z": -0.4750860833,
				"element": "H" 
			},
			{
				"x": -0.5877384255,
				"y": -1.5666133156,
				"z": -0.5031485871,
				"element": "H" 
			},
			{
				"x": 2.2289087395,
				"y": -1.5748860276,
				"z": 0.6950986236,
				"element": "H" 
			},
			{
				"x": 1.7488621818,
				"y": -0.7185823406,
				"z": -0.7535466698,
				"element": "H" 
			}
		],
		 "valence_orbital": [ 
			{
				"type": "occ",
				"energy": -0.3071,
				"method": "rhf"
			},
			{
				"type": "occ",
				"energy": -0.29385,
				"method": "rhf"
			},
			{
				"type": "occ",
				"energy": -0.2841,
				"method": "rhf"
			},
			{
				"type": "occ",
				"energy": -0.27983,
				"method": "rhf"
			},
			{
				"type": "occ",
				"energy": -0.25602,
				"method": "rhf"
			},
			{
				"type": "unocc",
				"energy": 0.06249,
				"method": "rhf"
			},
			{
				"type": "unocc",
				"energy": 0.09127,
				"method": "rhf"
			},
			{
				"type": "unocc",
				"energy": 0.10393,
				"method": "rhf"
			},
			{
				"type": "unocc",
				"energy": 0.11505,
				"method": "rhf"
			},
			{
				"type": "unocc",
				"energy": 0.12505,
				"method": "rhf"
			}
		],
		"cosmo_sigma_profile": { 
			"-0.025": 0.0,
			"-0.024": 0.0,
			"-0.023": 0.0,
			"-0.022": 0.0,
			"-0.021": 0.0,
			"-0.02": 0.0,
			"-0.019": 0.0,
			"-0.018": 0.0,
			"-0.017": 0.0,
			"-0.016": 0.0,
			"-0.015": 0.184292053983,
			"-0.014": 1.22638114618,
			"-0.013": 0.653003672146,
			"-0.012": 0.766014109828,
			"-0.011": 0.864200838022,
			"-0.01": 0.862224193525,
			"-0.009": 1.63666260621,
			"-0.008": 0.853716571823,
			"-0.007": 0.535575673668,
			"-0.006": 1.17969094725,
			"-0.005": 1.55582575679,
			"-0.004": 1.65173265018,
			"-0.003": 11.1038283136,
			"-0.002": 33.7748173813,
			"-0.001": 46.3759441475,
			"0.0": 44.9112310966,
			"0.001": 39.3902539739,
			"0.002": 24.7097080169,
			"0.003": 3.9052798926,
			"0.004": 1.33326089361,
			"0.005": 1.25892410576,
			"0.006": 1.12826464487,
			"0.007": 1.52037771722,
			"0.008": 1.68099017282,
			"0.009": 1.79988483857,
			"0.01": 1.39665257464,
			"0.011": 0.881010758935,
			"0.012": 1.29864791961,
			"0.013": 1.39259934474,
			"0.014": 1.35251485955,
			"0.015": 0.838760055913,
			"0.016": 0.0346596117494,
			"0.017": 0.0,
			"0.018": 0.0,
			"0.019": 0.0,
			"0.02": 0.0,
			"0.021": 0.0,
			"0.022": 0.0,
			"0.023": 0.0,
			"0.024": 0.0,
			"0.025": 0.0
		}
	}
}
