{
	 "smiles": "OCC1=CSC(=N1)C1=CC=CS1", 
	 "Tm": 361.65, 
	 "num_atms": 19, 
	 "gaussian": { 
		 "optdone": 1, 
		 "sigma_profile": "yes", 
		 "theory": "DFT", 
		 "functional": "B3LYP", 
		 "basiset": "6-31G**", 
		 "properties": { 
			 "R2extent": 3857.7738, 
			 "electric_dipole_moment_norm": 2.27472271717, 
			 "electric_quadrupole_moment_norm": 13.5889223557, 
			 "total_energy": -1235.38841789, 
			 "HOMO_LUMO_gap": 0.15461, 
			 "cosmo_polarized_energy": -8.9, 
			 "cosmo_cavitation_energy": 26.58, 
			 "cosmo_dispersion_energy": -20.79, 
			 "cosmo_repulsion_energy": 1.57, 
			 "cosmo_total_nonelectrostatic_energy": 7.36, 
			 "SMD_solvation_energy": 3.44 
		},
		"coords": [
			{
				"x": 1.8974306079,
				"y": -1.1993578908,
				"z": -1.3534397817,
				"element": "O" 
			},
			{
				"x": 1.0899610838,
				"y": -1.9223613588,
				"z": -0.4421598839,
				"element": "C" 
			},
			{
				"x": 0.2378855618,
				"y": -1.0037128615,
				"z": 0.3976638079,
				"element": "C" 
			},
			{
				"x": 0.0288346883,
				"y": -1.0584670595,
				"z": 1.7467361909,
				"element": "C" 
			},
			{
				"x": -1.0551077666,
				"y": 0.2049781594,
				"z": 2.2359708588,
				"element": "S" 
			},
			{
				"x": -1.1399977219,
				"y": 0.7382651874,
				"z": 0.5556326896,
				"element": "C" 
			},
			{
				"x": -0.4206139489,
				"y": 0.0078793132,
				"z": -0.2609438915,
				"element": "N" 
			},
			{
				"x": -1.9366687276,
				"y": 1.8720423402,
				"z": 0.1222539889,
				"element": "C" 
			},
			{
				"x": -2.0891717665,
				"y": 2.3103913881,
				"z": -1.1761010309,
				"element": "C" 
			},
			{
				"x": -2.9322804985,
				"y": 3.4491673018,
				"z": -1.2861667683,
				"element": "C" 
			},
			{
				"x": -3.4165267685,
				"y": 3.8708672364,
				"z": -0.0761509314,
				"element": "C" 
			},
			{
				"x": -2.8465615068,
				"y": 2.8806452575,
				"z": 1.2255171353,
				"element": "S" 
			},
			{
				"x": 1.3246126847,
				"y": -0.5120717636,
				"z": -1.7249077044,
				"element": "H" 
			},
			{
				"x": 0.4309949313,
				"y": -2.6307121582,
				"z": -0.973070588,
				"element": "H" 
			},
			{
				"x": 1.7563275323,
				"y": -2.5122417542,
				"z": 0.1943945983,
				"element": "H" 
			},
			{
				"x": 0.4444294894,
				"y": -1.7475177115,
				"z": 2.4678240697,
				"element": "H" 
			},
			{
				"x": -1.6046341799,
				"y": 1.8153415764,
				"z": -2.0081806069,
				"element": "H" 
			},
			{
				"x": -3.1707646531,
				"y": 3.9355027788,
				"z": -2.2249495827,
				"element": "H" 
			},
			{
				"x": -4.0733490411,
				"y": 4.703662019,
				"z": 0.1331774303,
				"element": "H" 
			}
		],
		 "valence_orbital": [ 
			{
				"type": "occ",
				"energy": -0.28716,
				"method": "rhf"
			},
			{
				"type": "occ",
				"energy": -0.27467,
				"method": "rhf"
			},
			{
				"type": "occ",
				"energy": -0.26352,
				"method": "rhf"
			},
			{
				"type": "occ",
				"energy": -0.26291,
				"method": "rhf"
			},
			{
				"type": "occ",
				"energy": -0.21859,
				"method": "rhf"
			},
			{
				"type": "unocc",
				"energy": -0.06398,
				"method": "rhf"
			},
			{
				"type": "unocc",
				"energy": -0.00958,
				"method": "rhf"
			},
			{
				"type": "unocc",
				"energy": 0.00983,
				"method": "rhf"
			},
			{
				"type": "unocc",
				"energy": 0.036,
				"method": "rhf"
			},
			{
				"type": "unocc",
				"energy": 0.04918,
				"method": "rhf"
			}
		],
		"cosmo_sigma_profile": { 
			"-0.025": 0.0,
			"-0.024": 0.0,
			"-0.023": 0.0,
			"-0.022": 0.0,
			"-0.021": 0.0,
			"-0.02": 0.0,
			"-0.019": 0.0,
			"-0.018": 0.0,
			"-0.017": 0.0,
			"-0.016": 0.0,
			"-0.015": 0.0,
			"-0.014": 0.0,
			"-0.013": 0.0,
			"-0.012": 0.28298548689,
			"-0.011": 0.703516050413,
			"-0.01": 0.988739644347,
			"-0.009": 4.15818846666,
			"-0.008": 5.09720745691,
			"-0.007": 7.97053263465,
			"-0.006": 9.38765382145,
			"-0.005": 10.852541841,
			"-0.004": 13.1493321022,
			"-0.003": 12.4036218721,
			"-0.002": 14.618653623,
			"-0.001": 14.1987659792,
			"0.0": 17.3979328494,
			"0.001": 21.0620946092,
			"0.002": 22.7052853111,
			"0.003": 25.4753935219,
			"0.004": 14.3943241376,
			"0.005": 5.52454221797,
			"0.006": 2.5915513517,
			"0.007": 2.31424363655,
			"0.008": 1.90351721659,
			"0.009": 1.73115885189,
			"0.01": 0.792846589312,
			"0.011": 1.64962876203,
			"0.012": 1.37073169993,
			"0.013": 2.08222689366,
			"0.014": 2.40700364763,
			"0.015": 0.215878189685,
			"0.016": 0.0,
			"0.017": 0.0,
			"0.018": 0.0,
			"0.019": 0.0,
			"0.02": 0.0,
			"0.021": 0.0,
			"0.022": 0.0,
			"0.023": 0.0,
			"0.024": 0.0,
			"0.025": 0.0
		}
	}
}
