{
	 "smiles": "CN1N=C(C)C(C(O)=O)=C1Cl", 
	 "Tm": 469.15, 
	 "num_atms": 18, 
	 "gaussian": { 
		 "optdone": 1, 
		 "sigma_profile": "yes", 
		 "theory": "DFT", 
		 "functional": "B3LYP", 
		 "basiset": "6-31G**", 
		 "properties": { 
			 "R2extent": 2521.4, 
			 "electric_dipole_moment_norm": 2.66289230913, 
			 "electric_quadrupole_moment_norm": 4.19331740749, 
			 "total_energy": -953.000050622, 
			 "HOMO_LUMO_gap": 0.22307, 
			 "cosmo_polarized_energy": -10.85, 
			 "cosmo_cavitation_energy": 24.28, 
			 "cosmo_dispersion_energy": -17.93, 
			 "cosmo_repulsion_energy": 1.45, 
			 "cosmo_total_nonelectrostatic_energy": 7.81, 
			 "SMD_solvation_energy": 4.46 
		},
		"coords": [
			{
				"x": -2.8480076438,
				"y": -1.55322061,
				"z": -1.2118702304,
				"element": "C" 
			},
			{
				"x": -1.7926150779,
				"y": -0.6827467461,
				"z": -0.7221004999,
				"element": "N" 
			},
			{
				"x": -0.9159027556,
				"y": -1.1407297238,
				"z": 0.2163532606,
				"element": "N" 
			},
			{
				"x": -0.0844157012,
				"y": -0.1332464198,
				"z": 0.4576754908,
				"element": "C" 
			},
			{
				"x": 1.0227983538,
				"y": -0.2854395394,
				"z": 1.4512884646,
				"element": "C" 
			},
			{
				"x": -0.4154794244,
				"y": 1.008979409,
				"z": -0.3327837311,
				"element": "C" 
			},
			{
				"x": 0.2953525854,
				"y": 2.2860087064,
				"z": -0.3132633949,
				"element": "C" 
			},
			{
				"x": -0.2212783313,
				"y": 3.2095079829,
				"z": -1.1615193174,
				"element": "O" 
			},
			{
				"x": 1.2627030988,
				"y": 2.5235666413,
				"z": 0.3880987075,
				"element": "O" 
			},
			{
				"x": -1.5237331613,
				"y": 0.5932056145,
				"z": -1.071573944,
				"element": "C" 
			},
			{
				"x": -2.4885794155,
				"y": 1.4053556354,
				"z": -2.2428480172,
				"element": "Cl" 
			},
			{
				"x": -3.8319876332,
				"y": -1.1275652027,
				"z": -0.9974478357,
				"element": "H" 
			},
			{
				"x": -2.7527341678,
				"y": -1.7089577333,
				"z": -2.2898516305,
				"element": "H" 
			},
			{
				"x": -2.7342950991,
				"y": -2.501974029,
				"z": -0.6901133396,
				"element": "H" 
			},
			{
				"x": 0.9908063715,
				"y": -1.2906122892,
				"z": 1.8771235575,
				"element": "H" 
			},
			{
				"x": 1.9966426931,
				"y": -0.118758747,
				"z": 0.9823217215,
				"element": "H" 
			},
			{
				"x": 0.934910615,
				"y": 0.4533428338,
				"z": 2.252881703,
				"element": "H" 
			},
			{
				"x": 0.3340146934,
				"y": 3.9993842172,
				"z": -1.0530709647,
				"element": "H" 
			}
		],
		 "valence_orbital": [ 
			{
				"type": "occ",
				"energy": -0.31534,
				"method": "rhf"
			},
			{
				"type": "occ",
				"energy": -0.29776,
				"method": "rhf"
			},
			{
				"type": "occ",
				"energy": -0.27468,
				"method": "rhf"
			},
			{
				"type": "occ",
				"energy": -0.25849,
				"method": "rhf"
			},
			{
				"type": "occ",
				"energy": -0.25196,
				"method": "rhf"
			},
			{
				"type": "unocc",
				"energy": -0.02889,
				"method": "rhf"
			},
			{
				"type": "unocc",
				"energy": 0.01636,
				"method": "rhf"
			},
			{
				"type": "unocc",
				"energy": 0.0229,
				"method": "rhf"
			},
			{
				"type": "unocc",
				"energy": 0.08392,
				"method": "rhf"
			},
			{
				"type": "unocc",
				"energy": 0.10188,
				"method": "rhf"
			}
		],
		"cosmo_sigma_profile": { 
			"-0.025": 0.0,
			"-0.024": 0.0,
			"-0.023": 0.0,
			"-0.022": 0.0,
			"-0.021": 0.0,
			"-0.02": 0.0,
			"-0.019": 0.0247682003868,
			"-0.018": 0.641128519404,
			"-0.017": 0.743940839715,
			"-0.016": 1.074304609,
			"-0.015": 0.426485749758,
			"-0.014": 1.15764685278,
			"-0.013": 0.518291188399,
			"-0.012": 0.484323038241,
			"-0.011": 0.815496948837,
			"-0.01": 0.703461316477,
			"-0.009": 0.830609178706,
			"-0.008": 0.472348687115,
			"-0.007": 5.56776317703,
			"-0.006": 8.07731893461,
			"-0.005": 10.4553032093,
			"-0.004": 15.9780388451,
			"-0.003": 14.2081548277,
			"-0.002": 14.2804198546,
			"-0.001": 20.8031226058,
			"0.0": 19.2980714071,
			"0.001": 16.2502803531,
			"0.002": 11.480618909,
			"0.003": 8.88504152628,
			"0.004": 5.47426368316,
			"0.005": 4.59532024826,
			"0.006": 5.40051466252,
			"0.007": 4.64551276194,
			"0.008": 5.14846383156,
			"0.009": 2.90830754855,
			"0.01": 3.24174618245,
			"0.011": 3.87013244466,
			"0.012": 4.89061257802,
			"0.013": 1.02456869146,
			"0.014": 0.838975365988,
			"0.015": 0.0,
			"0.016": 0.0,
			"0.017": 0.0,
			"0.018": 0.0,
			"0.019": 0.0,
			"0.02": 0.0,
			"0.021": 0.0,
			"0.022": 0.0,
			"0.023": 0.0,
			"0.024": 0.0,
			"0.025": 0.0
		}
	}
}
