{
	 "smiles": "OC(=O)CCCC1=CC(Cl)=C(Cl)C=C1", 
	 "Tm": 343.15, 
	 "num_atms": 24, 
	 "gaussian": { 
		 "optdone": 1, 
		 "sigma_profile": "yes", 
		 "theory": "DFT", 
		 "functional": "B3LYP", 
		 "basiset": "6-31G**", 
		 "properties": { 
			 "R2extent": 4840.1988, 
			 "electric_dipole_moment_norm": 3.26024918526, 
			 "electric_quadrupole_moment_norm": 7.71156976951, 
			 "total_energy": -1457.946379, 
			 "HOMO_LUMO_gap": 0.21862, 
			 "cosmo_polarized_energy": -11.73, 
			 "cosmo_cavitation_energy": 31.51, 
			 "cosmo_dispersion_energy": -21.71, 
			 "cosmo_repulsion_energy": 1.74, 
			 "cosmo_total_nonelectrostatic_energy": 11.54, 
			 "SMD_solvation_energy": 5.37 
		},
		"coords": [
			{
				"x": 1.7592557819,
				"y": -2.1239629493,
				"z": 1.2755585269,
				"element": "O" 
			},
			{
				"x": 0.6229041163,
				"y": -2.2135942725,
				"z": 0.5460922324,
				"element": "C" 
			},
			{
				"x": 0.5857878353,
				"y": -2.7363984822,
				"z": -0.5463260637,
				"element": "O" 
			},
			{
				"x": -0.5703748147,
				"y": -1.6412775835,
				"z": 1.2871940321,
				"element": "C" 
			},
			{
				"x": -1.6343212194,
				"y": -1.0394097703,
				"z": 0.3578978603,
				"element": "C" 
			},
			{
				"x": -1.3488735967,
				"y": 0.412948923,
				"z": -0.0859702229,
				"element": "C" 
			},
			{
				"x": -0.0820397283,
				"y": 0.6016041119,
				"z": -0.8951828367,
				"element": "C" 
			},
			{
				"x": 1.0639824041,
				"y": 1.1512524305,
				"z": -0.3142238493,
				"element": "C" 
			},
			{
				"x": 2.2410059391,
				"y": 1.3172399433,
				"z": -1.0499009876,
				"element": "C" 
			},
			{
				"x": 3.6341870865,
				"y": 2.0134294817,
				"z": -0.2542413062,
				"element": "Cl" 
			},
			{
				"x": 2.2830295829,
				"y": 0.9320240039,
				"z": -2.3938862442,
				"element": "C" 
			},
			{
				"x": 3.7272991341,
				"y": 1.1208979847,
				"z": -3.359644907,
				"element": "Cl" 
			},
			{
				"x": 1.140518911,
				"y": 0.3841069587,
				"z": -2.9844981638,
				"element": "C" 
			},
			{
				"x": -0.0243225034,
				"y": 0.22266385,
				"z": -2.2439191201,
				"element": "C" 
			},
			{
				"x": 2.4584055599,
				"y": -2.5389766147,
				"z": 0.7420721731,
				"element": "H" 
			},
			{
				"x": -1.0036531883,
				"y": -2.4835552198,
				"z": 1.8428095847,
				"element": "H" 
			},
			{
				"x": -0.2244025017,
				"y": -0.9242379947,
				"z": 2.0379243691,
				"element": "H" 
			},
			{
				"x": -2.6005280151,
				"y": -1.0468627314,
				"z": 0.8745253196,
				"element": "H" 
			},
			{
				"x": -1.7337043795,
				"y": -1.6889052224,
				"z": -0.5180061229,
				"element": "H" 
			},
			{
				"x": -2.2049410914,
				"y": 0.7612114866,
				"z": -0.6767257989,
				"element": "H" 
			},
			{
				"x": -1.3070517686,
				"y": 1.053206202,
				"z": 0.8034867687,
				"element": "H" 
			},
			{
				"x": 1.0550041654,
				"y": 1.4650537099,
				"z": 0.7245328595,
				"element": "H" 
			},
			{
				"x": 1.1791476795,
				"y": 0.0882142351,
				"z": -4.0269880474,
				"element": "H" 
			},
			{
				"x": -0.8994153889,
				"y": -0.2085724805,
				"z": -2.7214800558,
				"element": "H" 
			}
		],
		 "valence_orbital": [ 
			{
				"type": "occ",
				"energy": -0.31645,
				"method": "rhf"
			},
			{
				"type": "occ",
				"energy": -0.30609,
				"method": "rhf"
			},
			{
				"type": "occ",
				"energy": -0.27701,
				"method": "rhf"
			},
			{
				"type": "occ",
				"energy": -0.25884,
				"method": "rhf"
			},
			{
				"type": "occ",
				"energy": -0.24267,
				"method": "rhf"
			},
			{
				"type": "unocc",
				"energy": -0.02405,
				"method": "rhf"
			},
			{
				"type": "unocc",
				"energy": -0.01989,
				"method": "rhf"
			},
			{
				"type": "unocc",
				"energy": 0.00462,
				"method": "rhf"
			},
			{
				"type": "unocc",
				"energy": 0.01168,
				"method": "rhf"
			},
			{
				"type": "unocc",
				"energy": 0.06398,
				"method": "rhf"
			}
		],
		"cosmo_sigma_profile": { 
			"-0.025": 0.0,
			"-0.024": 0.0,
			"-0.023": 0.0,
			"-0.022": 0.0,
			"-0.021": 0.0,
			"-0.02": 0.0,
			"-0.019": 0.0,
			"-0.018": 0.513242594894,
			"-0.017": 1.10754159865,
			"-0.016": 0.689426318776,
			"-0.015": 0.64776797945,
			"-0.014": 0.669626922157,
			"-0.013": 0.944278965541,
			"-0.012": 0.571419290386,
			"-0.011": 0.510263749218,
			"-0.01": 0.833085167041,
			"-0.009": 0.563049041055,
			"-0.008": 1.02109627608,
			"-0.007": 6.2942167597,
			"-0.006": 11.9243592632,
			"-0.005": 14.7415501891,
			"-0.004": 18.2861267621,
			"-0.003": 19.0193905821,
			"-0.002": 19.6702936877,
			"-0.001": 18.9010030831,
			"0.0": 18.0799564462,
			"0.001": 21.0187961863,
			"0.002": 20.7087782723,
			"0.003": 20.8091043346,
			"0.004": 20.2943191471,
			"0.005": 11.2156810379,
			"0.006": 4.64841944596,
			"0.007": 3.0309840658,
			"0.008": 3.42298592276,
			"0.009": 3.06978235012,
			"0.01": 3.04750877337,
			"0.011": 2.53494815558,
			"0.012": 4.24810338487,
			"0.013": 0.638804136892,
			"0.014": 0.0,
			"0.015": 0.0,
			"0.016": 0.0,
			"0.017": 0.0,
			"0.018": 0.0,
			"0.019": 0.0,
			"0.02": 0.0,
			"0.021": 0.0,
			"0.022": 0.0,
			"0.023": 0.0,
			"0.024": 0.0,
			"0.025": 0.0
		}
	}
}
