{
	 "smiles": "CC1=C(SC(=C1)C(O)=O)C=O", 
	 "Tm": 478.15, 
	 "num_atms": 17, 
	 "gaussian": { 
		 "optdone": 1, 
		 "sigma_profile": "yes", 
		 "theory": "DFT", 
		 "functional": "B3LYP", 
		 "basiset": "6-31G**", 
		 "properties": { 
			 "R2extent": 2292.0446, 
			 "electric_dipole_moment_norm": 2.63195375529, 
			 "electric_quadrupole_moment_norm": 8.35800059763, 
			 "total_energy": -894.218956476, 
			 "HOMO_LUMO_gap": 0.16511, 
			 "cosmo_polarized_energy": -11.74, 
			 "cosmo_cavitation_energy": 23.95, 
			 "cosmo_dispersion_energy": -17.84, 
			 "cosmo_repulsion_energy": 1.39, 
			 "cosmo_total_nonelectrostatic_energy": 7.51, 
			 "SMD_solvation_energy": 6.22 
		},
		"coords": [
			{
				"x": 0.3384273987,
				"y": -0.6001081566,
				"z": -2.7085420383,
				"element": "C" 
			},
			{
				"x": -0.0646933583,
				"y": -0.4653591619,
				"z": -1.2668058674,
				"element": "C" 
			},
			{
				"x": -0.6782594623,
				"y": -1.465067327,
				"z": -0.5142749175,
				"element": "C" 
			},
			{
				"x": -1.0047363063,
				"y": -0.9628892255,
				"z": 1.1238173696,
				"element": "S" 
			},
			{
				"x": -0.3191629706,
				"y": 0.5921684055,
				"z": 0.8072891425,
				"element": "C" 
			},
			{
				"x": 0.1325628212,
				"y": 0.7054453115,
				"z": -0.4921511166,
				"element": "C" 
			},
			{
				"x": -0.2834360319,
				"y": 1.5897866564,
				"z": 1.8877057273,
				"element": "C" 
			},
			{
				"x": 0.2807396773,
				"y": 2.7546149009,
				"z": 1.4882423488,
				"element": "O" 
			},
			{
				"x": -0.706644382,
				"y": 1.4069373717,
				"z": 3.0118780716,
				"element": "O" 
			},
			{
				"x": -1.0499764743,
				"y": -2.8126861538,
				"z": -0.9461507888,
				"element": "C" 
			},
			{
				"x": -0.8584460041,
				"y": -3.2443637966,
				"z": -2.0712590242,
				"element": "O" 
			},
			{
				"x": -0.5246930097,
				"y": -0.8332048896,
				"z": -3.3387447722,
				"element": "H" 
			},
			{
				"x": 1.0439457988,
				"y": -1.4248072021,
				"z": -2.8448055693,
				"element": "H" 
			},
			{
				"x": 0.799641026,
				"y": 0.3238797943,
				"z": -3.0666389748,
				"element": "H" 
			},
			{
				"x": 0.5926963527,
				"y": 1.6109439858,
				"z": -0.8700502791,
				"element": "H" 
			},
			{
				"x": 0.2580905266,
				"y": 3.3418515349,
				"z": 2.2619656666,
				"element": "H" 
			},
			{
				"x": -1.532155602,
				"y": -3.4426420478,
				"z": -0.1679749782,
				"element": "H" 
			}
		],
		 "valence_orbital": [ 
			{
				"type": "occ",
				"energy": -0.33228,
				"method": "rhf"
			},
			{
				"type": "occ",
				"energy": -0.29364,
				"method": "rhf"
			},
			{
				"type": "occ",
				"energy": -0.2737,
				"method": "rhf"
			},
			{
				"type": "occ",
				"energy": -0.26467,
				"method": "rhf"
			},
			{
				"type": "occ",
				"energy": -0.25816,
				"method": "rhf"
			},
			{
				"type": "unocc",
				"energy": -0.09305,
				"method": "rhf"
			},
			{
				"type": "unocc",
				"energy": -0.02215,
				"method": "rhf"
			},
			{
				"type": "unocc",
				"energy": 0.00743,
				"method": "rhf"
			},
			{
				"type": "unocc",
				"energy": 0.04967,
				"method": "rhf"
			},
			{
				"type": "unocc",
				"energy": 0.06633,
				"method": "rhf"
			}
		],
		"cosmo_sigma_profile": { 
			"-0.025": 0.0,
			"-0.024": 0.0,
			"-0.023": 0.0,
			"-0.022": 0.0,
			"-0.021": 0.0,
			"-0.02": 0.0,
			"-0.019": 0.34912540158,
			"-0.018": 1.01033706595,
			"-0.017": 0.846828402409,
			"-0.016": 1.17371133564,
			"-0.015": 0.72142969131,
			"-0.014": 0.280235358573,
			"-0.013": 0.490921888065,
			"-0.012": 0.975060823542,
			"-0.011": 1.26151404268,
			"-0.01": 0.173960974138,
			"-0.009": 0.488628996983,
			"-0.008": 5.13951561103,
			"-0.007": 7.04385665112,
			"-0.006": 5.74183428464,
			"-0.005": 8.29870069737,
			"-0.004": 10.1378924009,
			"-0.003": 14.6701956225,
			"-0.002": 13.5465321119,
			"-0.001": 21.4641289567,
			"0.0": 23.3028629886,
			"0.001": 17.4263456266,
			"0.002": 11.224099156,
			"0.003": 4.73009855693,
			"0.004": 4.04963621834,
			"0.005": 4.53434581464,
			"0.006": 4.77943784093,
			"0.007": 5.11911540014,
			"0.008": 3.80694104741,
			"0.009": 3.5052470476,
			"0.01": 4.74838576313,
			"0.011": 8.94316240961,
			"0.012": 3.14270669949,
			"0.013": 0.430968655568,
			"0.014": 0.0,
			"0.015": 0.0,
			"0.016": 0.0,
			"0.017": 0.0,
			"0.018": 0.0,
			"0.019": 0.0,
			"0.02": 0.0,
			"0.021": 0.0,
			"0.022": 0.0,
			"0.023": 0.0,
			"0.024": 0.0,
			"0.025": 0.0
		}
	}
}
