{
	 "smiles": "COC(=O)C1=C(N)N=C(N)C(Cl)=N1", 
	 "Tm": 485.65, 
	 "num_atms": 20, 
	 "gaussian": { 
		 "optdone": 1, 
		 "sigma_profile": "yes", 
		 "theory": "DFT", 
		 "functional": "B3LYP", 
		 "basiset": "6-31G**", 
		 "properties": { 
			 "R2extent": 3097.4633, 
			 "electric_dipole_moment_norm": 2.69785017746, 
			 "electric_quadrupole_moment_norm": 15.3217620573, 
			 "total_energy": -1062.53324559, 
			 "HOMO_LUMO_gap": 0.16089, 
			 "cosmo_polarized_energy": -14.59, 
			 "cosmo_cavitation_energy": 26.64, 
			 "cosmo_dispersion_energy": -20.45, 
			 "cosmo_repulsion_energy": 1.66, 
			 "cosmo_total_nonelectrostatic_energy": 7.84, 
			 "SMD_solvation_energy": 3.26 
		},
		"coords": [
			{
				"x": -0.3620468135,
				"y": -2.1586648261,
				"z": -3.1774110481,
				"element": "C" 
			},
			{
				"x": -0.1302553694,
				"y": -1.638135419,
				"z": -1.8610143402,
				"element": "O" 
			},
			{
				"x": -0.0544710619,
				"y": -0.2998454355,
				"z": -1.7785132667,
				"element": "C" 
			},
			{
				"x": -0.1752520808,
				"y": 0.4307237842,
				"z": -2.7612612108,
				"element": "O" 
			},
			{
				"x": 0.1848037822,
				"y": 0.1942210848,
				"z": -0.4132218781,
				"element": "C" 
			},
			{
				"x": 0.2934870776,
				"y": 1.593478771,
				"z": -0.1372403765,
				"element": "C" 
			},
			{
				"x": 0.1821488923,
				"y": 2.5306191095,
				"z": -1.0999361645,
				"element": "N" 
			},
			{
				"x": 0.5120563497,
				"y": 2.0335755531,
				"z": 1.1185121638,
				"element": "N" 
			},
			{
				"x": 0.6297584137,
				"y": 1.1386587833,
				"z": 2.0969017411,
				"element": "C" 
			},
			{
				"x": 0.8721667726,
				"y": 1.5886473797,
				"z": 3.3508719783,
				"element": "N" 
			},
			{
				"x": 0.5143864702,
				"y": -0.2559285247,
				"z": 1.7992113676,
				"element": "C" 
			},
			{
				"x": 0.6619682232,
				"y": -1.4336720981,
				"z": 3.1171597632,
				"element": "Cl" 
			},
			{
				"x": 0.3018534713,
				"y": -0.6872226071,
				"z": 0.5967836289,
				"element": "N" 
			},
			{
				"x": -1.3076852066,
				"y": -1.7873628134,
				"z": -3.581087976,
				"element": "H" 
			},
			{
				"x": 0.4454894045,
				"y": -1.8719421263,
				"z": -3.8562089898,
				"element": "H" 
			},
			{
				"x": -0.3956264351,
				"y": -3.2415618807,
				"z": -3.0590604023,
				"element": "H" 
			},
			{
				"x": 0.2744009992,
				"y": 3.498537058,
				"z": -0.8388550745,
				"element": "H" 
			},
			{
				"x": 0.0208375451,
				"y": 2.2234477349,
				"z": -2.05140845,
				"element": "H" 
			},
			{
				"x": 0.8597525034,
				"y": 0.9539310913,
				"z": 4.1316071634,
				"element": "H" 
			},
			{
				"x": 0.8540270624,
				"y": 2.5833953811,
				"z": 3.508071371,
				"element": "H" 
			}
		],
		 "valence_orbital": [ 
			{
				"type": "occ",
				"energy": -0.29683,
				"method": "rhf"
			},
			{
				"type": "occ",
				"energy": -0.28313,
				"method": "rhf"
			},
			{
				"type": "occ",
				"energy": -0.26144,
				"method": "rhf"
			},
			{
				"type": "occ",
				"energy": -0.26051,
				"method": "rhf"
			},
			{
				"type": "occ",
				"energy": -0.21224,
				"method": "rhf"
			},
			{
				"type": "unocc",
				"energy": -0.05135,
				"method": "rhf"
			},
			{
				"type": "unocc",
				"energy": -0.00861,
				"method": "rhf"
			},
			{
				"type": "unocc",
				"energy": 0.03396,
				"method": "rhf"
			},
			{
				"type": "unocc",
				"energy": 0.05607,
				"method": "rhf"
			},
			{
				"type": "unocc",
				"energy": 0.08023,
				"method": "rhf"
			}
		],
		"cosmo_sigma_profile": { 
			"-0.025": 0.0,
			"-0.024": 0.0,
			"-0.023": 0.0,
			"-0.022": 0.0,
			"-0.021": 0.0,
			"-0.02": 0.0,
			"-0.019": 0.0,
			"-0.018": 0.0,
			"-0.017": 0.0,
			"-0.016": 0.0,
			"-0.015": 0.612372554281,
			"-0.014": 2.34005753474,
			"-0.013": 3.90199466086,
			"-0.012": 1.60529631743,
			"-0.011": 2.77519793614,
			"-0.01": 4.03680039766,
			"-0.009": 3.64602474996,
			"-0.008": 3.43983691665,
			"-0.007": 3.33091141983,
			"-0.006": 6.21582829622,
			"-0.005": 9.06276563193,
			"-0.004": 11.0398380022,
			"-0.003": 16.8275220804,
			"-0.002": 15.5206828174,
			"-0.001": 16.1098102525,
			"0.0": 16.4663636191,
			"0.001": 13.9807447406,
			"0.002": 13.9493357265,
			"0.003": 12.0954262638,
			"0.004": 14.6712840173,
			"0.005": 11.0981802201,
			"0.006": 5.27391488786,
			"0.007": 4.48872461998,
			"0.008": 4.53502008772,
			"0.009": 4.19801224454,
			"0.01": 3.00066968844,
			"0.011": 4.68600496951,
			"0.012": 2.92108694385,
			"0.013": 1.11250966223,
			"0.014": 1.10305547042,
			"0.015": 0.824552273921,
			"0.016": 0.053377364007,
			"0.017": 0.0,
			"0.018": 0.0,
			"0.019": 0.0,
			"0.02": 0.0,
			"0.021": 0.0,
			"0.022": 0.0,
			"0.023": 0.0,
			"0.024": 0.0,
			"0.025": 0.0
		}
	}
}
