{
	 "smiles": "C(N1CCN=C1NC1=NN=C(S1)C1=CC=CC=C1)N1CCCCC1", 
	 "Tm": 407.15, 
	 "num_atms": 46, 
	 "gaussian": { 
		 "optdone": 1, 
		 "sigma_profile": "yes", 
		 "theory": "DFT", 
		 "functional": "B3LYP", 
		 "basiset": "6-31G**", 
		 "properties": { 
			 "R2extent": 11575.8506, 
			 "electric_dipole_moment_norm": 2.3585305828, 
			 "electric_quadrupole_moment_norm": 19.3450349772, 
			 "total_energy": -1387.71886989, 
			 "HOMO_LUMO_gap": 0.14214, 
			 "cosmo_polarized_energy": -15.48, 
			 "cosmo_cavitation_energy": 48.29, 
			 "cosmo_dispersion_energy": -34.39, 
			 "cosmo_repulsion_energy": 2.57, 
			 "cosmo_total_nonelectrostatic_energy": 16.47, 
			 "SMD_solvation_energy": 0.07 
		},
		"coords": [
			{
				"x": -0.7076474912,
				"y": -1.9592907242,
				"z": 0.5939573044,
				"element": "C" 
			},
			{
				"x": -0.7359348168,
				"y": -2.2761508367,
				"z": -0.8289764013,
				"element": "N" 
			},
			{
				"x": -1.6843600808,
				"y": -3.3202447108,
				"z": -1.2638720275,
				"element": "C" 
			},
			{
				"x": -1.0280486577,
				"y": -3.8336438148,
				"z": -2.572879766,
				"element": "C" 
			},
			{
				"x": 0.3455906875,
				"y": -3.3103298093,
				"z": -2.5706758596,
				"element": "N" 
			},
			{
				"x": 0.3993206474,
				"y": -2.476054418,
				"z": -1.5961315552,
				"element": "C" 
			},
			{
				"x": 1.6289216317,
				"y": -1.8399830437,
				"z": -1.3169045288,
				"element": "N" 
			},
			{
				"x": 1.8198080835,
				"y": -0.4876650054,
				"z": -1.1245044107,
				"element": "C" 
			},
			{
				"x": 0.882997486,
				"y": 0.397814883,
				"z": -0.9164866698,
				"element": "N" 
			},
			{
				"x": 1.3796204037,
				"y": 1.6514724558,
				"z": -0.7094685217,
				"element": "N" 
			},
			{
				"x": 2.6775962145,
				"y": 1.7392798188,
				"z": -0.7662569009,
				"element": "C" 
			},
			{
				"x": 3.4540199089,
				"y": 0.1724238866,
				"z": -1.0817212672,
				"element": "S" 
			},
			{
				"x": 3.4264804988,
				"y": 2.9890709664,
				"z": -0.5945120502,
				"element": "C" 
			},
			{
				"x": 4.828904009,
				"y": 3.0265948646,
				"z": -0.6392549775,
				"element": "C" 
			},
			{
				"x": 5.5094310316,
				"y": 4.2314183543,
				"z": -0.4721445736,
				"element": "C" 
			},
			{
				"x": 4.8001648637,
				"y": 5.4140123115,
				"z": -0.2572858603,
				"element": "C" 
			},
			{
				"x": 3.4030809068,
				"y": 5.3844551884,
				"z": -0.2109060691,
				"element": "C" 
			},
			{
				"x": 2.718003956,
				"y": 4.1853805822,
				"z": -0.3779531954,
				"element": "C" 
			},
			{
				"x": -1.9904120775,
				"y": -1.4281334475,
				"z": 1.0162812167,
				"element": "N" 
			},
			{
				"x": -2.1585157908,
				"y": -1.5341751526,
				"z": 2.4729044631,
				"element": "C" 
			},
			{
				"x": -3.3271012476,
				"y": -0.6654235349,
				"z": 2.9399365069,
				"element": "C" 
			},
			{
				"x": -3.0251475652,
				"y": 0.8348990494,
				"z": 2.7126714089,
				"element": "C" 
			},
			{
				"x": -2.1005825671,
				"y": 1.0364318218,
				"z": 1.4891990725,
				"element": "C" 
			},
			{
				"x": -2.3021090866,
				"y": -0.0873881515,
				"z": 0.4654150651,
				"element": "C" 
			},
			{
				"x": -0.5302677172,
				"y": -2.8770634574,
				"z": 1.1810552054,
				"element": "H" 
			},
			{
				"x": 0.1329611956,
				"y": -1.2753034608,
				"z": 0.7769400684,
				"element": "H" 
			},
			{
				"x": -2.6866915563,
				"y": -2.9102411349,
				"z": -1.4008258032,
				"element": "H" 
			},
			{
				"x": -1.7444615261,
				"y": -4.1049399346,
				"z": -0.494416573,
				"element": "H" 
			},
			{
				"x": -1.0308540635,
				"y": -4.926447226,
				"z": -2.6457482989,
				"element": "H" 
			},
			{
				"x": -1.5523540887,
				"y": -3.4508533438,
				"z": -3.458170307,
				"element": "H" 
			},
			{
				"x": 2.358504223,
				"y": -2.2996171211,
				"z": -1.8483039872,
				"element": "H" 
			},
			{
				"x": 5.394840447,
				"y": 2.1137283488,
				"z": -0.8043010144,
				"element": "H" 
			},
			{
				"x": 6.594628348,
				"y": 4.24445148,
				"z": -0.5096174131,
				"element": "H" 
			},
			{
				"x": 5.3312298122,
				"y": 6.352303919,
				"z": -0.1270505434,
				"element": "H" 
			},
			{
				"x": 2.8450388622,
				"y": 6.3013094328,
				"z": -0.0447897073,
				"element": "H" 
			},
			{
				"x": 1.6348776524,
				"y": 4.1507277553,
				"z": -0.3453374105,
				"element": "H" 
			},
			{
				"x": -2.3284261369,
				"y": -2.5879578365,
				"z": 2.731031303,
				"element": "H" 
			},
			{
				"x": -1.2482768019,
				"y": -1.2211451148,
				"z": 3.0224488033,
				"element": "H" 
			},
			{
				"x": -4.2219128099,
				"y": -0.9636491288,
				"z": 2.380690275,
				"element": "H" 
			},
			{
				"x": -3.5365040495,
				"y": -0.8647029272,
				"z": 3.9963636174,
				"element": "H" 
			},
			{
				"x": -2.5548166778,
				"y": 1.2619678737,
				"z": 3.6063349445,
				"element": "H" 
			},
			{
				"x": -3.9671675366,
				"y": 1.3773703211,
				"z": 2.5710158741,
				"element": "H" 
			},
			{
				"x": -2.2831398278,
				"y": 2.0076401322,
				"z": 1.0162916764,
				"element": "H" 
			},
			{
				"x": -1.0493615882,
				"y": 1.0449058008,
				"z": 1.8011798782,
				"element": "H" 
			},
			{
				"x": -3.3460954439,
				"y": -0.0803538841,
				"z": 0.1208885984,
				"element": "H" 
			},
			{
				"x": -1.6717316641,
				"y": 0.0730979729,
				"z": -0.4112095893,
				"element": "H" 
			}
		],
		 "valence_orbital": [ 
			{
				"type": "occ",
				"energy": -0.26363,
				"method": "rhf"
			},
			{
				"type": "occ",
				"energy": -0.26056,
				"method": "rhf"
			},
			{
				"type": "occ",
				"energy": -0.22636,
				"method": "rhf"
			},
			{
				"type": "occ",
				"energy": -0.20835,
				"method": "rhf"
			},
			{
				"type": "occ",
				"energy": -0.19872,
				"method": "rhf"
			},
			{
				"type": "unocc",
				"energy": -0.05658,
				"method": "rhf"
			},
			{
				"type": "unocc",
				"energy": -0.01288,
				"method": "rhf"
			},
			{
				"type": "unocc",
				"energy": -0.01069,
				"method": "rhf"
			},
			{
				"type": "unocc",
				"energy": 0.00514,
				"method": "rhf"
			},
			{
				"type": "unocc",
				"energy": 0.04131,
				"method": "rhf"
			}
		],
		"cosmo_sigma_profile": { 
			"-0.025": 0.0,
			"-0.024": 0.0,
			"-0.023": 0.0,
			"-0.022": 0.0,
			"-0.021": 0.0,
			"-0.02": 0.0,
			"-0.019": 0.0,
			"-0.018": 0.0,
			"-0.017": 0.0,
			"-0.016": 0.607427907855,
			"-0.015": 1.01079246664,
			"-0.014": 1.18975574258,
			"-0.013": 1.08833561541,
			"-0.012": 1.47442138008,
			"-0.011": 0.565610014865,
			"-0.01": 0.253379713901,
			"-0.009": 1.11221762347,
			"-0.008": 0.96162121088,
			"-0.007": 4.19450280754,
			"-0.006": 9.685121055,
			"-0.005": 13.9703716431,
			"-0.004": 27.1959528146,
			"-0.003": 32.1332928797,
			"-0.002": 51.0987311925,
			"-0.001": 52.6960165462,
			"0.0": 40.549260728,
			"0.001": 33.645698998,
			"0.002": 22.8086189848,
			"0.003": 19.3970404672,
			"0.004": 19.6969823586,
			"0.005": 11.249664431,
			"0.006": 6.13332261657,
			"0.007": 5.28329052539,
			"0.008": 4.78033996027,
			"0.009": 5.60582829885,
			"0.01": 4.61611471843,
			"0.011": 2.81734290347,
			"0.012": 1.66175433619,
			"0.013": 1.42755129216,
			"0.014": 0.950203905637,
			"0.015": 1.31636887057,
			"0.016": 0.668406684555,
			"0.017": 1.07816796974,
			"0.018": 0.171901779328,
			"0.019": 0.0,
			"0.02": 0.0,
			"0.021": 0.0,
			"0.022": 0.0,
			"0.023": 0.0,
			"0.024": 0.0,
			"0.025": 0.0
		}
	}
}
