{
	 "smiles": "CC1=CC(N=C2N(CC3=CC=CC=C23)C2=NOC(C)=C2)=NO1", 
	 "Tm": 464.15, 
	 "num_atms": 36, 
	 "gaussian": { 
		 "optdone": 1, 
		 "sigma_profile": "yes", 
		 "theory": "DFT", 
		 "functional": "B3LYP", 
		 "basiset": "6-31G**", 
		 "properties": { 
			 "R2extent": 8968.2364, 
			 "electric_dipole_moment_norm": 2.46412879736, 
			 "electric_quadrupole_moment_norm": 18.2585347934, 
			 "total_energy": -987.505262089, 
			 "HOMO_LUMO_gap": 0.16436, 
			 "cosmo_polarized_energy": -14.8, 
			 "cosmo_cavitation_energy": 40.8, 
			 "cosmo_dispersion_energy": -29.46, 
			 "cosmo_repulsion_energy": 2.24, 
			 "cosmo_total_nonelectrostatic_energy": 13.58, 
			 "SMD_solvation_energy": 6.23 
		},
		"coords": [
			{
				"x": 1.1161643264,
				"y": 2.1244377943,
				"z": 4.1892625231,
				"element": "C" 
			},
			{
				"x": 0.9274360471,
				"y": 1.6850727002,
				"z": 2.7780613447,
				"element": "C" 
			},
			{
				"x": 1.2295582256,
				"y": 0.5464157611,
				"z": 2.0999987723,
				"element": "C" 
			},
			{
				"x": 0.774271273,
				"y": 0.7973810362,
				"z": 0.7642005266,
				"element": "C" 
			},
			{
				"x": 0.7945456327,
				"y": -0.1432321654,
				"z": -0.2438309654,
				"element": "N" 
			},
			{
				"x": 1.1096699508,
				"y": 0.0629350816,
				"z": -1.4756068917,
				"element": "C" 
			},
			{
				"x": 0.9866668446,
				"y": -0.9689021284,
				"z": -2.4080463064,
				"element": "N" 
			},
			{
				"x": 1.497984578,
				"y": -0.6174684747,
				"z": -3.7345168865,
				"element": "C" 
			},
			{
				"x": 1.954531419,
				"y": 0.7974672304,
				"z": -3.5389097972,
				"element": "C" 
			},
			{
				"x": 2.5492025863,
				"y": 1.6523289929,
				"z": -4.4606853243,
				"element": "C" 
			},
			{
				"x": 2.8970323433,
				"y": 2.9391948436,
				"z": -4.0449143769,
				"element": "C" 
			},
			{
				"x": 2.6432196281,
				"y": 3.3557596063,
				"z": -2.7325271773,
				"element": "C" 
			},
			{
				"x": 2.0412762664,
				"y": 2.5007460574,
				"z": -1.8095181206,
				"element": "C" 
			},
			{
				"x": 1.7034433281,
				"y": 1.2065154019,
				"z": -2.2221626721,
				"element": "C" 
			},
			{
				"x": 0.4698577174,
				"y": -2.237634376,
				"z": -2.1922905824,
				"element": "C" 
			},
			{
				"x": 0.4754228223,
				"y": -3.0845808642,
				"z": -3.2098137414,
				"element": "N" 
			},
			{
				"x": -0.1060948649,
				"y": -4.2533617263,
				"z": -2.7086244626,
				"element": "O" 
			},
			{
				"x": -0.4405369639,
				"y": -4.0700787678,
				"z": -1.4124463896,
				"element": "C" 
			},
			{
				"x": -1.0781788702,
				"y": -5.2215971429,
				"z": -0.7152055724,
				"element": "C" 
			},
			{
				"x": -0.1029431588,
				"y": -2.8118619381,
				"z": -1.0159492445,
				"element": "C" 
			},
			{
				"x": 0.220511809,
				"y": 1.9966945025,
				"z": 0.6609537394,
				"element": "N" 
			},
			{
				"x": 0.3250341325,
				"y": 2.5630170451,
				"z": 1.9445902329,
				"element": "O" 
			},
			{
				"x": 0.1533010843,
				"y": 2.3486673511,
				"z": 4.660461764,
				"element": "H" 
			},
			{
				"x": 1.611800626,
				"y": 1.3407349866,
				"z": 4.7655827683,
				"element": "H" 
			},
			{
				"x": 1.7262329332,
				"y": 3.0326611573,
				"z": 4.2384879539,
				"element": "H" 
			},
			{
				"x": 1.7080285334,
				"y": -0.3483172843,
				"z": 2.4663266206,
				"element": "H" 
			},
			{
				"x": 2.3060888381,
				"y": -1.2995627682,
				"z": -4.0261561987,
				"element": "H" 
			},
			{
				"x": 0.7071091112,
				"y": -0.7171000874,
				"z": -4.4878667832,
				"element": "H" 
			},
			{
				"x": 2.7396163675,
				"y": 1.3284495992,
				"z": -5.4801028699,
				"element": "H" 
			},
			{
				"x": 3.3613368554,
				"y": 3.624977073,
				"z": -4.747712801,
				"element": "H" 
			},
			{
				"x": 2.907865445,
				"y": 4.3642211523,
				"z": -2.4291445952,
				"element": "H" 
			},
			{
				"x": 1.8075917638,
				"y": 2.8401700857,
				"z": -0.8097498217,
				"element": "H" 
			},
			{
				"x": -1.301968231,
				"y": -4.9560472984,
				"z": 0.3197093432,
				"element": "H" 
			},
			{
				"x": -2.0106653281,
				"y": -5.5109914676,
				"z": -1.2111707529,
				"element": "H" 
			},
			{
				"x": -0.4176813677,
				"y": -6.0951364108,
				"z": -0.7175004863,
				"element": "H" 
			},
			{
				"x": -0.2243317038,
				"y": -2.3426745581,
				"z": -0.0567827688,
				"element": "H" 
			}
		],
		 "valence_orbital": [ 
			{
				"type": "occ",
				"energy": -0.25433,
				"method": "rhf"
			},
			{
				"type": "occ",
				"energy": -0.25142,
				"method": "rhf"
			},
			{
				"type": "occ",
				"energy": -0.24798,
				"method": "rhf"
			},
			{
				"type": "occ",
				"energy": -0.23915,
				"method": "rhf"
			},
			{
				"type": "occ",
				"energy": -0.21629,
				"method": "rhf"
			},
			{
				"type": "unocc",
				"energy": -0.05193,
				"method": "rhf"
			},
			{
				"type": "unocc",
				"energy": -0.01224,
				"method": "rhf"
			},
			{
				"type": "unocc",
				"energy": 0.00337,
				"method": "rhf"
			},
			{
				"type": "unocc",
				"energy": 0.00398,
				"method": "rhf"
			},
			{
				"type": "unocc",
				"energy": 0.04282,
				"method": "rhf"
			}
		],
		"cosmo_sigma_profile": { 
			"-0.025": 0.0,
			"-0.024": 0.0,
			"-0.023": 0.0,
			"-0.022": 0.0,
			"-0.021": 0.0,
			"-0.02": 0.0,
			"-0.019": 0.0,
			"-0.018": 0.0,
			"-0.017": 0.0,
			"-0.016": 0.0,
			"-0.015": 0.0,
			"-0.014": 0.0,
			"-0.013": 0.0,
			"-0.012": 0.0,
			"-0.011": 0.0,
			"-0.01": 0.0,
			"-0.009": 0.0,
			"-0.008": 0.518338541197,
			"-0.007": 7.2798698648,
			"-0.006": 26.9125105686,
			"-0.005": 27.3737041637,
			"-0.004": 28.0928538797,
			"-0.003": 23.5506841683,
			"-0.002": 31.5822529951,
			"-0.001": 25.3359383556,
			"0.0": 19.0580025364,
			"0.001": 22.3465996425,
			"0.002": 21.7811501762,
			"0.003": 24.7326173586,
			"0.004": 19.3116197706,
			"0.005": 8.15298426826,
			"0.006": 6.40394220172,
			"0.007": 6.3577647746,
			"0.008": 8.45718744167,
			"0.009": 7.58009439191,
			"0.01": 3.57880215089,
			"0.011": 2.49102510122,
			"0.012": 2.6757692427,
			"0.013": 2.10102121429,
			"0.014": 1.45541651427,
			"0.015": 0.302322012163,
			"0.016": 0.0,
			"0.017": 0.0,
			"0.018": 0.0,
			"0.019": 0.0,
			"0.02": 0.0,
			"0.021": 0.0,
			"0.022": 0.0,
			"0.023": 0.0,
			"0.024": 0.0,
			"0.025": 0.0
		}
	}
}
