{
	 "smiles": "O=C1NC2=C(CCCC2)C(SCC#N)=N1", 
	 "Tm": 497.15, 
	 "num_atms": 26, 
	 "gaussian": { 
		 "optdone": 1, 
		 "sigma_profile": "yes", 
		 "theory": "DFT", 
		 "functional": "B3LYP", 
		 "basiset": "6-31G**", 
		 "properties": { 
			 "R2extent": 4620.2808, 
			 "electric_dipole_moment_norm": 8.44368141156, 
			 "electric_quadrupole_moment_norm": 28.1014512488, 
			 "total_energy": -1025.3657321, 
			 "HOMO_LUMO_gap": 0.17788, 
			 "cosmo_polarized_energy": -21.64, 
			 "cosmo_cavitation_energy": 31.29, 
			 "cosmo_dispersion_energy": -23.16, 
			 "cosmo_repulsion_energy": 1.79, 
			 "cosmo_total_nonelectrostatic_energy": 9.92, 
			 "SMD_solvation_energy": 5.93 
		},
		"coords": [
			{
				"x": -2.9423360788,
				"y": 1.3033557198,
				"z": -1.7605050035,
				"element": "O" 
			},
			{
				"x": -2.1228920874,
				"y": 0.7699469372,
				"z": -1.0353756571,
				"element": "C" 
			},
			{
				"x": -1.3384717033,
				"y": -0.300772755,
				"z": -1.5237705691,
				"element": "N" 
			},
			{
				"x": -0.3974483288,
				"y": -0.9735524035,
				"z": -0.8036191527,
				"element": "C" 
			},
			{
				"x": -0.1686248745,
				"y": -0.6139114354,
				"z": 0.5024822749,
				"element": "C" 
			},
			{
				"x": 0.8568310021,
				"y": -1.3236354556,
				"z": 1.3610922358,
				"element": "C" 
			},
			{
				"x": 1.2978420459,
				"y": -2.6655525447,
				"z": 0.7560326021,
				"element": "C" 
			},
			{
				"x": 1.5918966064,
				"y": -2.5260080398,
				"z": -0.7416514952,
				"element": "C" 
			},
			{
				"x": 0.3274065705,
				"y": -2.098613462,
				"z": -1.4990741939,
				"element": "C" 
			},
			{
				"x": -0.9645044949,
				"y": 0.4884183215,
				"z": 0.9714378449,
				"element": "C" 
			},
			{
				"x": -0.653040815,
				"y": 1.0132274097,
				"z": 2.6607132049,
				"element": "S" 
			},
			{
				"x": -1.9015194262,
				"y": 2.3548753936,
				"z": 2.8298067088,
				"element": "C" 
			},
			{
				"x": -2.8805263401,
				"y": 2.0684105984,
				"z": 3.8712293745,
				"element": "C" 
			},
			{
				"x": -3.6565129551,
				"y": 1.8506436609,
				"z": 4.7067718038,
				"element": "N" 
			},
			{
				"x": -1.8631282599,
				"y": 1.1280009075,
				"z": 0.2759182205,
				"element": "N" 
			},
			{
				"x": -1.5199890988,
				"y": -0.54966351,
				"z": -2.4883544406,
				"element": "H" 
			},
			{
				"x": 1.7345699749,
				"y": -0.6756154992,
				"z": 1.4983691386,
				"element": "H" 
			},
			{
				"x": 0.4479006586,
				"y": -1.4915520699,
				"z": 2.3644229582,
				"element": "H" 
			},
			{
				"x": 0.5049770882,
				"y": -3.4108776501,
				"z": 0.9011223157,
				"element": "H" 
			},
			{
				"x": 2.1801243053,
				"y": -3.0356055572,
				"z": 1.2880317865,
				"element": "H" 
			},
			{
				"x": 1.9645412112,
				"y": -3.4680683725,
				"z": -1.1563785711,
				"element": "H" 
			},
			{
				"x": 2.3799350244,
				"y": -1.7776362331,
				"z": -0.8935026388,
				"element": "H" 
			},
			{
				"x": -0.3642765954,
				"y": -2.9486899543,
				"z": -1.5872525076,
				"element": "H" 
			},
			{
				"x": 0.56931502,
				"y": -1.7920258514,
				"z": -2.5245078406,
				"element": "H" 
			},
			{
				"x": -1.3799587476,
				"y": 3.289225607,
				"z": 3.0500675496,
				"element": "H" 
			},
			{
				"x": -2.3833097015,
				"y": 2.4271762381,
				"z": 1.8445940514,
				"element": "H" 
			}
		],
		 "valence_orbital": [ 
			{
				"type": "occ",
				"energy": -0.32115,
				"method": "rhf"
			},
			{
				"type": "occ",
				"energy": -0.28588,
				"method": "rhf"
			},
			{
				"type": "occ",
				"energy": -0.26475,
				"method": "rhf"
			},
			{
				"type": "occ",
				"energy": -0.26086,
				"method": "rhf"
			},
			{
				"type": "occ",
				"energy": -0.23884,
				"method": "rhf"
			},
			{
				"type": "unocc",
				"energy": -0.06096,
				"method": "rhf"
			},
			{
				"type": "unocc",
				"energy": -0.00753,
				"method": "rhf"
			},
			{
				"type": "unocc",
				"energy": 9e-05,
				"method": "rhf"
			},
			{
				"type": "unocc",
				"energy": 0.02753,
				"method": "rhf"
			},
			{
				"type": "unocc",
				"energy": 0.04113,
				"method": "rhf"
			}
		],
		"cosmo_sigma_profile": { 
			"-0.025": 0.0,
			"-0.024": 0.0,
			"-0.023": 0.0,
			"-0.022": 0.0,
			"-0.021": 0.0,
			"-0.02": 0.0,
			"-0.019": 0.0,
			"-0.018": 0.0,
			"-0.017": 0.0226874225003,
			"-0.016": 0.75496264403,
			"-0.015": 1.02278555361,
			"-0.014": 1.148778223,
			"-0.013": 1.37778741381,
			"-0.012": 0.933801664193,
			"-0.011": 1.7971776191,
			"-0.01": 3.46530747325,
			"-0.009": 3.7179954327,
			"-0.008": 3.92777443741,
			"-0.007": 5.8175805781,
			"-0.006": 9.19465543869,
			"-0.005": 9.9975313398,
			"-0.004": 19.1838601505,
			"-0.003": 32.1294993829,
			"-0.002": 30.5644387764,
			"-0.001": 24.5630839124,
			"0.0": 17.2058749178,
			"0.001": 8.20533159947,
			"0.002": 7.43583918451,
			"0.003": 8.22480483881,
			"0.004": 6.65391906192,
			"0.005": 6.36637144827,
			"0.006": 4.65413706039,
			"0.007": 5.03503145073,
			"0.008": 4.82878974784,
			"0.009": 4.5799241179,
			"0.01": 4.87661233478,
			"0.011": 4.42301009309,
			"0.012": 4.60452492834,
			"0.013": 6.42492666943,
			"0.014": 5.23316640031,
			"0.015": 2.01880476452,
			"0.016": 0.310832396496,
			"0.017": 0.0,
			"0.018": 0.0,
			"0.019": 0.0,
			"0.02": 0.0,
			"0.021": 0.0,
			"0.022": 0.0,
			"0.023": 0.0,
			"0.024": 0.0,
			"0.025": 0.0
		}
	}
}
