{
	 "smiles": "ClC(Cl)C1=C(Cl)C(Cl)=C(Cl)C=C1", 
	 "Tm": 357.15, 
	 "num_atms": 15, 
	 "gaussian": { 
		 "optdone": 1, 
		 "sigma_profile": "yes", 
		 "theory": "DFT", 
		 "functional": "B3LYP", 
		 "basiset": "6-31G**", 
		 "properties": { 
			 "R2extent": 5142.3595, 
			 "electric_dipole_moment_norm": 3.12339661747, 
			 "electric_quadrupole_moment_norm": 10.7787389216, 
			 "total_energy": -2569.49577135, 
			 "HOMO_LUMO_gap": 0.20678, 
			 "cosmo_polarized_energy": -7.86, 
			 "cosmo_cavitation_energy": 27.76, 
			 "cosmo_dispersion_energy": -20.86, 
			 "cosmo_repulsion_energy": 1.66, 
			 "cosmo_total_nonelectrostatic_energy": 8.57, 
			 "SMD_solvation_energy": 3.29 
		},
		"coords": [
			{
				"x": 2.3195451063,
				"y": -1.561232777,
				"z": 2.8226475146,
				"element": "Cl" 
			},
			{
				"x": 2.0684604612,
				"y": -2.5039980456,
				"z": 1.2990931238,
				"element": "C" 
			},
			{
				"x": 1.6117866775,
				"y": -4.2169820998,
				"z": 1.6597673454,
				"element": "Cl" 
			},
			{
				"x": 1.1320903899,
				"y": -1.8295645973,
				"z": 0.3294314496,
				"element": "C" 
			},
			{
				"x": -0.2313254822,
				"y": -1.5680493689,
				"z": 0.563719815,
				"element": "C" 
			},
			{
				"x": -0.9739962463,
				"y": -2.0273342094,
				"z": 2.0659862493,
				"element": "Cl" 
			},
			{
				"x": -1.0136559963,
				"y": -0.9291852296,
				"z": -0.4175787979,
				"element": "C" 
			},
			{
				"x": -2.6942211202,
				"y": -0.6056113304,
				"z": -0.1310371421,
				"element": "Cl" 
			},
			{
				"x": -0.4223227105,
				"y": -0.5534067241,
				"z": -1.6358936468,
				"element": "C" 
			},
			{
				"x": -1.3478695746,
				"y": 0.2393114372,
				"z": -2.8806852306,
				"element": "Cl" 
			},
			{
				"x": 0.9255366802,
				"y": -0.8099444005,
				"z": -1.872127925,
				"element": "C" 
			},
			{
				"x": 1.68515697,
				"y": -1.4405104516,
				"z": -0.8958527231,
				"element": "C" 
			},
			{
				"x": 3.0559527472,
				"y": -2.5710248094,
				"z": 0.8509980832,
				"element": "H" 
			},
			{
				"x": 1.367836591,
				"y": -0.514514124,
				"z": -2.8160837683,
				"element": "H" 
			},
			{
				"x": 2.7353255067,
				"y": -1.6361532695,
				"z": -1.089384347,
				"element": "H" 
			}
		],
		 "valence_orbital": [ 
			{
				"type": "occ",
				"energy": -0.31871,
				"method": "rhf"
			},
			{
				"type": "occ",
				"energy": -0.31295,
				"method": "rhf"
			},
			{
				"type": "occ",
				"energy": -0.30181,
				"method": "rhf"
			},
			{
				"type": "occ",
				"energy": -0.2703,
				"method": "rhf"
			},
			{
				"type": "occ",
				"energy": -0.27003,
				"method": "rhf"
			},
			{
				"type": "unocc",
				"energy": -0.06325,
				"method": "rhf"
			},
			{
				"type": "unocc",
				"energy": -0.04717,
				"method": "rhf"
			},
			{
				"type": "unocc",
				"energy": -0.02822,
				"method": "rhf"
			},
			{
				"type": "unocc",
				"energy": -0.02156,
				"method": "rhf"
			},
			{
				"type": "unocc",
				"energy": 0.03329,
				"method": "rhf"
			}
		],
		"cosmo_sigma_profile": { 
			"-0.025": 0.0,
			"-0.024": 0.0,
			"-0.023": 0.0,
			"-0.022": 0.0,
			"-0.021": 0.0,
			"-0.02": 0.0,
			"-0.019": 0.0,
			"-0.018": 0.0,
			"-0.017": 0.0,
			"-0.016": 0.0,
			"-0.015": 0.0,
			"-0.014": 0.0,
			"-0.013": 0.269059493151,
			"-0.012": 2.47187214934,
			"-0.011": 2.56391937696,
			"-0.01": 1.93045984937,
			"-0.009": 4.41716946813,
			"-0.008": 5.00821389975,
			"-0.007": 4.25294448895,
			"-0.006": 3.63263459973,
			"-0.005": 3.49592596511,
			"-0.004": 5.97358570613,
			"-0.003": 9.95869070916,
			"-0.002": 19.8538345299,
			"-0.001": 26.3091848859,
			"0.0": 24.3901735316,
			"0.001": 19.7046113632,
			"0.002": 23.7588851401,
			"0.003": 31.8848224128,
			"0.004": 34.0219421971,
			"0.005": 10.0844727412,
			"0.006": 0.0688111924092,
			"0.007": 0.0,
			"0.008": 0.0,
			"0.009": 0.0,
			"0.01": 0.0,
			"0.011": 0.0,
			"0.012": 0.0,
			"0.013": 0.0,
			"0.014": 0.0,
			"0.015": 0.0,
			"0.016": 0.0,
			"0.017": 0.0,
			"0.018": 0.0,
			"0.019": 0.0,
			"0.02": 0.0,
			"0.021": 0.0,
			"0.022": 0.0,
			"0.023": 0.0,
			"0.024": 0.0,
			"0.025": 0.0
		}
	}
}
