{
	 "smiles": "O=C(NC1CCN(CC2=CC=CC=C2)CC1)C1=CC=CO1", 
	 "Tm": 432.15, 
	 "num_atms": 41, 
	 "gaussian": { 
		 "optdone": 1, 
		 "sigma_profile": "yes", 
		 "theory": "DFT", 
		 "functional": "B3LYP", 
		 "basiset": "6-31G**", 
		 "properties": { 
			 "R2extent": 8715.5563, 
			 "electric_dipole_moment_norm": 4.48652002559, 
			 "electric_quadrupole_moment_norm": 28.3755218394, 
			 "total_energy": -919.787224771, 
			 "HOMO_LUMO_gap": 0.1956, 
			 "cosmo_polarized_energy": -16.81, 
			 "cosmo_cavitation_energy": 43.81, 
			 "cosmo_dispersion_energy": -29.23, 
			 "cosmo_repulsion_energy": 2.24, 
			 "cosmo_total_nonelectrostatic_energy": 16.83, 
			 "SMD_solvation_energy": 7.07 
		},
		"coords": [
			{
				"x": 4.6293814208,
				"y": -0.8989457464,
				"z": 3.2546816998,
				"element": "O" 
			},
			{
				"x": 3.5220567244,
				"y": -0.842784946,
				"z": 2.7302036676,
				"element": "C" 
			},
			{
				"x": 3.3258782903,
				"y": -0.1635158779,
				"z": 1.5497701303,
				"element": "N" 
			},
			{
				"x": 2.25446789,
				"y": -0.2826925417,
				"z": 0.5634968641,
				"element": "C" 
			},
			{
				"x": 2.8149195535,
				"y": -0.7498158969,
				"z": -0.7982519189,
				"element": "C" 
			},
			{
				"x": 1.8395433759,
				"y": -0.4175652364,
				"z": -1.9512194416,
				"element": "C" 
			},
			{
				"x": 0.4714675207,
				"y": -0.3438774936,
				"z": -1.4399307932,
				"element": "N" 
			},
			{
				"x": -0.5473665372,
				"y": -0.4311841333,
				"z": -2.4822549351,
				"element": "C" 
			},
			{
				"x": -1.9386289584,
				"y": -0.6995264442,
				"z": -1.9357257698,
				"element": "C" 
			},
			{
				"x": -3.044190163,
				"y": 0.0174079961,
				"z": -2.4051105899,
				"element": "C" 
			},
			{
				"x": -4.3303414986,
				"y": -0.265318105,
				"z": -1.9384390968,
				"element": "C" 
			},
			{
				"x": -4.5237576736,
				"y": -1.2674113465,
				"z": -0.9874999759,
				"element": "C" 
			},
			{
				"x": -3.4243876653,
				"y": -1.9846048292,
				"z": -0.5070025021,
				"element": "C" 
			},
			{
				"x": -2.1429306029,
				"y": -1.7040298083,
				"z": -0.9791575053,
				"element": "C" 
			},
			{
				"x": 0.2899704104,
				"y": 0.840080797,
				"z": -0.5885512628,
				"element": "C" 
			},
			{
				"x": 1.4888362086,
				"y": 1.0354533551,
				"z": 0.3676428149,
				"element": "C" 
			},
			{
				"x": 2.3409806438,
				"y": -1.4603363721,
				"z": 3.3863785653,
				"element": "C" 
			},
			{
				"x": 0.9945649076,
				"y": -1.1979328814,
				"z": 3.4369317709,
				"element": "C" 
			},
			{
				"x": 0.4354697728,
				"y": -2.1013133019,
				"z": 4.3911160479,
				"element": "C" 
			},
			{
				"x": 1.4807953374,
				"y": -2.847297024,
				"z": 4.851323443,
				"element": "C" 
			},
			{
				"x": 2.6386421982,
				"y": -2.4684331815,
				"z": 4.2613956542,
				"element": "O" 
			},
			{
				"x": 4.1936354398,
				"y": 0.2493757505,
				"z": 1.2276671971,
				"element": "H" 
			},
			{
				"x": 1.5600610237,
				"y": -1.0415306076,
				"z": 0.9257864015,
				"element": "H" 
			},
			{
				"x": 3.0139210561,
				"y": -1.8252849915,
				"z": -0.7533131173,
				"element": "H" 
			},
			{
				"x": 3.7777171375,
				"y": -0.2568064025,
				"z": -0.9855185239,
				"element": "H" 
			},
			{
				"x": 1.8855048293,
				"y": -1.1989317689,
				"z": -2.7161742237,
				"element": "H" 
			},
			{
				"x": 2.1393738076,
				"y": 0.5244542681,
				"z": -2.4509016302,
				"element": "H" 
			},
			{
				"x": -0.2628389703,
				"y": -1.2572115355,
				"z": -3.1474041369,
				"element": "H" 
			},
			{
				"x": -0.5751445055,
				"y": 0.480489863,
				"z": -3.1114158234,
				"element": "H" 
			},
			{
				"x": -2.8975044596,
				"y": 0.8038737488,
				"z": -3.1418496015,
				"element": "H" 
			},
			{
				"x": -5.177868492,
				"y": 0.301444695,
				"z": -2.3138235321,
				"element": "H" 
			},
			{
				"x": -5.5223072266,
				"y": -1.4873494305,
				"z": -0.6205810045,
				"element": "H" 
			},
			{
				"x": -3.5674567473,
				"y": -2.765635284,
				"z": 0.2348760376,
				"element": "H" 
			},
			{
				"x": -1.2834932125,
				"y": -2.2516551333,
				"z": -0.6035529829,
				"element": "H" 
			},
			{
				"x": -0.6360810898,
				"y": 0.7048095915,
				"z": -0.0208064617,
				"element": "H" 
			},
			{
				"x": 0.1557285398,
				"y": 1.7527288406,
				"z": -1.2014714454,
				"element": "H" 
			},
			{
				"x": 1.1485518578,
				"y": 1.4251164864,
				"z": 1.3321827808,
				"element": "H" 
			},
			{
				"x": 2.1842088233,
				"y": 1.7826239968,
				"z": -0.0359318931,
				"element": "H" 
			},
			{
				"x": 0.4663496136,
				"y": -0.4349068637,
				"z": 2.8851468786,
				"element": "H" 
			},
			{
				"x": -0.5987566434,
				"y": -2.1798454876,
				"z": 4.6933934117,
				"element": "H" 
			},
			{
				"x": 1.5586280634,
				"y": -3.6538167173,
				"z": 5.5642948029,
				"element": "H" 
			}
		],
		 "valence_orbital": [ 
			{
				"type": "occ",
				"energy": -0.25069,
				"method": "rhf"
			},
			{
				"type": "occ",
				"energy": -0.24481,
				"method": "rhf"
			},
			{
				"type": "occ",
				"energy": -0.24125,
				"method": "rhf"
			},
			{
				"type": "occ",
				"energy": -0.23152,
				"method": "rhf"
			},
			{
				"type": "occ",
				"energy": -0.2197,
				"method": "rhf"
			},
			{
				"type": "unocc",
				"energy": -0.0241,
				"method": "rhf"
			},
			{
				"type": "unocc",
				"energy": -0.00527,
				"method": "rhf"
			},
			{
				"type": "unocc",
				"energy": -0.00142,
				"method": "rhf"
			},
			{
				"type": "unocc",
				"energy": 0.04585,
				"method": "rhf"
			},
			{
				"type": "unocc",
				"energy": 0.06384,
				"method": "rhf"
			}
		],
		"cosmo_sigma_profile": { 
			"-0.025": 0.0,
			"-0.024": 0.0,
			"-0.023": 0.0,
			"-0.022": 0.0,
			"-0.021": 0.0,
			"-0.02": 0.0,
			"-0.019": 0.0,
			"-0.018": 0.0,
			"-0.017": 0.0,
			"-0.016": 0.0,
			"-0.015": 0.0,
			"-0.014": 0.0,
			"-0.013": 0.407202487507,
			"-0.012": 0.923640669815,
			"-0.011": 0.945134910022,
			"-0.01": 1.64235201022,
			"-0.009": 3.35125201597,
			"-0.008": 3.03416762213,
			"-0.007": 4.93231078408,
			"-0.006": 7.07577755943,
			"-0.005": 19.1747153181,
			"-0.004": 29.6410531189,
			"-0.003": 37.8187102541,
			"-0.002": 42.4844530297,
			"-0.001": 38.4257323623,
			"0.0": 28.5052137404,
			"0.001": 18.8760416028,
			"0.002": 20.8657486692,
			"0.003": 18.6864085296,
			"0.004": 16.8446569632,
			"0.005": 12.2168616652,
			"0.006": 11.0120958793,
			"0.007": 4.96091972669,
			"0.008": 3.50758510472,
			"0.009": 1.69891570001,
			"0.01": 1.36936915078,
			"0.011": 2.38862743484,
			"0.012": 2.20444456711,
			"0.013": 4.02926145856,
			"0.014": 6.23277699576,
			"0.015": 1.88087939785,
			"0.016": 0.0578012576784,
			"0.017": 0.0,
			"0.018": 0.0,
			"0.019": 0.0,
			"0.02": 0.0,
			"0.021": 0.0,
			"0.022": 0.0,
			"0.023": 0.0,
			"0.024": 0.0,
			"0.025": 0.0
		}
	}
}
