{
	 "smiles": "OC(=O)C1=C(F)C(=CC(Cl)=C1)S(Cl)(=O)=O", 
	 "Tm": 436.15, 
	 "num_atms": 18, 
	 "gaussian": { 
		 "optdone": 1, 
		 "sigma_profile": "yes", 
		 "theory": "DFT", 
		 "functional": "B3LYP", 
		 "basiset": "6-31G**", 
		 "properties": { 
			 "R2extent": 4722.4037, 
			 "electric_dipole_moment_norm": 1.28537622508, 
			 "electric_quadrupole_moment_norm": 16.0314669591, 
			 "total_energy": -1987.78021407, 
			 "HOMO_LUMO_gap": 0.1821, 
			 "cosmo_polarized_energy": -14.3, 
			 "cosmo_cavitation_energy": 29.12, 
			 "cosmo_dispersion_energy": -21.97, 
			 "cosmo_repulsion_energy": 1.66, 
			 "cosmo_total_nonelectrostatic_energy": 8.82, 
			 "SMD_solvation_energy": 4.98 
		},
		"coords": [
			{
				"x": 2.1099092236,
				"y": -2.7586675304,
				"z": 1.7933742453,
				"element": "O" 
			},
			{
				"x": 2.0185331055,
				"y": -2.3498715545,
				"z": 0.5177896058,
				"element": "C" 
			},
			{
				"x": 2.6311910199,
				"y": -2.9066706877,
				"z": -0.3612397239,
				"element": "O" 
			},
			{
				"x": 1.1224808426,
				"y": -1.16682605,
				"z": 0.2051906536,
				"element": "C" 
			},
			{
				"x": 0.3714792299,
				"y": -0.4443362707,
				"z": 1.1321481335,
				"element": "C" 
			},
			{
				"x": 0.416609464,
				"y": -0.7690206548,
				"z": 2.4445091075,
				"element": "F" 
			},
			{
				"x": -0.4235829998,
				"y": 0.6332231437,
				"z": 0.7401678912,
				"element": "C" 
			},
			{
				"x": -0.4853584932,
				"y": 1.0172625981,
				"z": -0.5981569896,
				"element": "C" 
			},
			{
				"x": 0.260925485,
				"y": 0.2980127472,
				"z": -1.5329448648,
				"element": "C" 
			},
			{
				"x": 0.1959550268,
				"y": 0.7586982919,
				"z": -3.2149927863,
				"element": "Cl" 
			},
			{
				"x": 1.0514441325,
				"y": -0.7772199253,
				"z": -1.1400060664,
				"element": "C" 
			},
			{
				"x": -1.4414266045,
				"y": 1.5237379231,
				"z": 1.9213480676,
				"element": "S" 
			},
			{
				"x": 0.0388936488,
				"y": 2.5308238487,
				"z": 3.0452205284,
				"element": "Cl" 
			},
			{
				"x": -2.1813718964,
				"y": 2.5416595592,
				"z": 1.189366239,
				"element": "O" 
			},
			{
				"x": -2.0900035596,
				"y": 0.5800890311,
				"z": 2.8171958002,
				"element": "O" 
			},
			{
				"x": 1.5643030291,
				"y": -2.2171716415,
				"z": 2.3837909834,
				"element": "H" 
			},
			{
				"x": -1.105789394,
				"y": 1.8559860614,
				"z": -0.8905152686,
				"element": "H" 
			},
			{
				"x": 1.6358087398,
				"y": -1.3426088894,
				"z": -1.8568455558,
				"element": "H" 
			}
		],
		 "valence_orbital": [ 
			{
				"type": "occ",
				"energy": -0.34319,
				"method": "rhf"
			},
			{
				"type": "occ",
				"energy": -0.3359,
				"method": "rhf"
			},
			{
				"type": "occ",
				"energy": -0.32105,
				"method": "rhf"
			},
			{
				"type": "occ",
				"energy": -0.30646,
				"method": "rhf"
			},
			{
				"type": "occ",
				"energy": -0.29521,
				"method": "rhf"
			},
			{
				"type": "unocc",
				"energy": -0.11311,
				"method": "rhf"
			},
			{
				"type": "unocc",
				"energy": -0.0952,
				"method": "rhf"
			},
			{
				"type": "unocc",
				"energy": -0.07363,
				"method": "rhf"
			},
			{
				"type": "unocc",
				"energy": -0.01018,
				"method": "rhf"
			},
			{
				"type": "unocc",
				"energy": 0.003,
				"method": "rhf"
			}
		],
		"cosmo_sigma_profile": { 
			"-0.025": 0.0,
			"-0.024": 0.0,
			"-0.023": 0.0,
			"-0.022": 0.0,
			"-0.021": 0.0,
			"-0.02": 0.0,
			"-0.019": 0.0,
			"-0.018": 0.0,
			"-0.017": 0.0,
			"-0.016": 0.129623393999,
			"-0.015": 0.255191801502,
			"-0.014": 0.743749963215,
			"-0.013": 1.84321859614,
			"-0.012": 2.13841232799,
			"-0.011": 1.84936421907,
			"-0.01": 3.06702984293,
			"-0.009": 2.74210973104,
			"-0.008": 5.51627550999,
			"-0.007": 6.76754035092,
			"-0.006": 9.41621394991,
			"-0.005": 13.9434411401,
			"-0.004": 15.4405902751,
			"-0.003": 20.0246917824,
			"-0.002": 15.4601457415,
			"-0.001": 12.4256900847,
			"0.0": 15.0957233276,
			"0.001": 18.9820119151,
			"0.002": 21.0931585124,
			"0.003": 18.5257880936,
			"0.004": 6.44532109336,
			"0.005": 5.33436157127,
			"0.006": 7.20031390601,
			"0.007": 12.0999653066,
			"0.008": 9.68879958015,
			"0.009": 4.66502887209,
			"0.01": 4.78025265855,
			"0.011": 3.77116636683,
			"0.012": 1.28749521307,
			"0.013": 0.00513864299916,
			"0.014": 0.0,
			"0.015": 0.0,
			"0.016": 0.0,
			"0.017": 0.0,
			"0.018": 0.0,
			"0.019": 0.0,
			"0.02": 0.0,
			"0.021": 0.0,
			"0.022": 0.0,
			"0.023": 0.0,
			"0.024": 0.0,
			"0.025": 0.0
		}
	}
}
