{
	 "smiles": "COC1=C2C=COC2=CC2=C1C=CC(=O)O2", 
	 "Tm": 461.15, 
	 "num_atms": 24, 
	 "gaussian": { 
		 "optdone": 1, 
		 "sigma_profile": "yes", 
		 "theory": "DFT", 
		 "functional": "B3LYP", 
		 "basiset": "6-31G**", 
		 "properties": { 
			 "R2extent": 4052.0737, 
			 "electric_dipole_moment_norm": 6.53753738039, 
			 "electric_quadrupole_moment_norm": 20.7217659081, 
			 "total_energy": -762.962460399, 
			 "HOMO_LUMO_gap": 0.15943, 
			 "cosmo_polarized_energy": -12.86, 
			 "cosmo_cavitation_energy": 28.88, 
			 "cosmo_dispersion_energy": -21.33, 
			 "cosmo_repulsion_energy": 1.62, 
			 "cosmo_total_nonelectrostatic_energy": 9.16, 
			 "SMD_solvation_energy": 7.6 
		},
		"coords": [
			{
				"x": 2.0139711021,
				"y": -1.1793742567,
				"z": 1.6827415305,
				"element": "C" 
			},
			{
				"x": 0.7099653943,
				"y": -0.7367741644,
				"z": 1.2906944543,
				"element": "O" 
			},
			{
				"x": 0.611775265,
				"y": -0.2223663963,
				"z": 0.0227844198,
				"element": "C" 
			},
			{
				"x": 0.7641300464,
				"y": -1.0138174195,
				"z": -1.121429435,
				"element": "C" 
			},
			{
				"x": 1.0309701919,
				"y": -2.4075642175,
				"z": -1.3973681157,
				"element": "C" 
			},
			{
				"x": 1.0305389975,
				"y": -2.5256309163,
				"z": -2.7459857368,
				"element": "C" 
			},
			{
				"x": 0.7829489366,
				"y": -1.3257661284,
				"z": -3.3743654066,
				"element": "O" 
			},
			{
				"x": 0.6122979377,
				"y": -0.4017090699,
				"z": -2.3855969167,
				"element": "C" 
			},
			{
				"x": 0.3094061215,
				"y": 0.9374921161,
				"z": -2.585730229,
				"element": "C" 
			},
			{
				"x": 0.1476126395,
				"y": 1.6940429298,
				"z": -1.4284435119,
				"element": "C" 
			},
			{
				"x": 0.2961549605,
				"y": 1.1434726486,
				"z": -0.1265488104,
				"element": "C" 
			},
			{
				"x": 0.1044455435,
				"y": 2.0281358769,
				"z": 0.9936891196,
				"element": "C" 
			},
			{
				"x": -0.197635255,
				"y": 3.3326022705,
				"z": 0.8048827436,
				"element": "C" 
			},
			{
				"x": -0.3438593486,
				"y": 3.9004379368,
				"z": -0.5298987918,
				"element": "C" 
			},
			{
				"x": -0.6079005393,
				"y": 5.0488075116,
				"z": -0.7965831914,
				"element": "O" 
			},
			{
				"x": -0.1576876841,
				"y": 3.0138725304,
				"z": -1.5953403123,
				"element": "O" 
			},
			{
				"x": 1.9083170749,
				"y": -1.5840536738,
				"z": 2.6906648926,
				"element": "H" 
			},
			{
				"x": 2.3983037096,
				"y": -1.9592860065,
				"z": 1.0168714243,
				"element": "H" 
			},
			{
				"x": 2.7228126113,
				"y": -0.3424449002,
				"z": 1.6964600949,
				"element": "H" 
			},
			{
				"x": 1.1785792692,
				"y": -3.2068744089,
				"z": -0.6870230938,
				"element": "H" 
			},
			{
				"x": 1.1786915638,
				"y": -3.3657042692,
				"z": -3.4070242362,
				"element": "H" 
			},
			{
				"x": 0.1918598929,
				"y": 1.3783925848,
				"z": -3.567272517,
				"element": "H" 
			},
			{
				"x": 0.2022588098,
				"y": 1.6136476102,
				"z": 1.9915704843,
				"element": "H" 
			},
			{
				"x": -0.3490572412,
				"y": 4.0218618118,
				"z": 1.6267511405,
				"element": "H" 
			}
		],
		 "valence_orbital": [ 
			{
				"type": "occ",
				"energy": -0.29893,
				"method": "rhf"
			},
			{
				"type": "occ",
				"energy": -0.29271,
				"method": "rhf"
			},
			{
				"type": "occ",
				"energy": -0.26963,
				"method": "rhf"
			},
			{
				"type": "occ",
				"energy": -0.23375,
				"method": "rhf"
			},
			{
				"type": "occ",
				"energy": -0.22311,
				"method": "rhf"
			},
			{
				"type": "unocc",
				"energy": -0.06368,
				"method": "rhf"
			},
			{
				"type": "unocc",
				"energy": -0.02618,
				"method": "rhf"
			},
			{
				"type": "unocc",
				"energy": 0.01021,
				"method": "rhf"
			},
			{
				"type": "unocc",
				"energy": 0.03532,
				"method": "rhf"
			},
			{
				"type": "unocc",
				"energy": 0.07967,
				"method": "rhf"
			}
		],
		"cosmo_sigma_profile": { 
			"-0.025": 0.0,
			"-0.024": 0.0,
			"-0.023": 0.0,
			"-0.022": 0.0,
			"-0.021": 0.0,
			"-0.02": 0.0,
			"-0.019": 0.0,
			"-0.018": 0.0,
			"-0.017": 0.0,
			"-0.016": 0.0,
			"-0.015": 0.0,
			"-0.014": 0.0,
			"-0.013": 0.0,
			"-0.012": 0.0,
			"-0.011": 0.0,
			"-0.01": 1.15369041646,
			"-0.009": 2.25434982406,
			"-0.008": 5.88768478789,
			"-0.007": 8.93453376466,
			"-0.006": 11.5528777495,
			"-0.005": 14.5608509857,
			"-0.004": 16.339331845,
			"-0.003": 20.7186281226,
			"-0.002": 14.9480345617,
			"-0.001": 15.4965106484,
			"0.0": 23.5415007387,
			"0.001": 27.2773064994,
			"0.002": 16.9801440099,
			"0.003": 9.48844400394,
			"0.004": 5.69648460363,
			"0.005": 4.09795079118,
			"0.006": 6.11574871788,
			"0.007": 3.55564022771,
			"0.008": 3.70875041702,
			"0.009": 3.97295417663,
			"0.01": 3.37107425166,
			"0.011": 4.2388229842,
			"0.012": 6.13074502932,
			"0.013": 2.90599120134,
			"0.014": 0.144495845456,
			"0.015": 0.0,
			"0.016": 0.0,
			"0.017": 0.0,
			"0.018": 0.0,
			"0.019": 0.0,
			"0.02": 0.0,
			"0.021": 0.0,
			"0.022": 0.0,
			"0.023": 0.0,
			"0.024": 0.0,
			"0.025": 0.0
		}
	}
}
