{
	 "smiles": "CC(C)(C)OC(=O)N1CCC(CC1)(OC1=CC=CC=C1)C(O)=O", 
	 "Tm": 377.15, 
	 "num_atms": 46, 
	 "gaussian": { 
		 "optdone": 1, 
		 "sigma_profile": "yes", 
		 "theory": "DFT", 
		 "functional": "B3LYP", 
		 "basiset": "6-31G**", 
		 "properties": { 
			 "R2extent": 10221.0932, 
			 "electric_dipole_moment_norm": 3.45573961259, 
			 "electric_quadrupole_moment_norm": 8.26428585662, 
			 "total_energy": -1092.57907663, 
			 "HOMO_LUMO_gap": 0.21383, 
			 "cosmo_polarized_energy": -18.03, 
			 "cosmo_cavitation_energy": 46.82, 
			 "cosmo_dispersion_energy": -32.13, 
			 "cosmo_repulsion_energy": 2.47, 
			 "cosmo_total_nonelectrostatic_energy": 17.16, 
			 "SMD_solvation_energy": 9.0 
		},
		"coords": [
			{
				"x": 4.6924335641,
				"y": -2.6885710175,
				"z": -0.851818454,
				"element": "C" 
			},
			{
				"x": 4.1119017351,
				"y": -2.5341080836,
				"z": 0.5567126498,
				"element": "C" 
			},
			{
				"x": 3.6210857906,
				"y": -3.8836760798,
				"z": 1.0920304695,
				"element": "C" 
			},
			{
				"x": 5.1299109716,
				"y": -1.8735785873,
				"z": 1.4929183304,
				"element": "C" 
			},
			{
				"x": 2.972539073,
				"y": -1.6314247428,
				"z": 0.3343539601,
				"element": "O" 
			},
			{
				"x": 2.1699475928,
				"y": -1.2594480405,
				"z": 1.3643735477,
				"element": "C" 
			},
			{
				"x": 2.3171847624,
				"y": -1.5821560788,
				"z": 2.5361433669,
				"element": "O" 
			},
			{
				"x": 1.1511783574,
				"y": -0.4573564321,
				"z": 0.9263391548,
				"element": "N" 
			},
			{
				"x": 0.9847751191,
				"y": -0.0412489642,
				"z": -0.4689400201,
				"element": "C" 
			},
			{
				"x": -0.4904497516,
				"y": 0.2381516592,
				"z": -0.7743545661,
				"element": "C" 
			},
			{
				"x": -1.1211863551,
				"y": 1.3185780551,
				"z": 0.1532288722,
				"element": "C" 
			},
			{
				"x": -0.2748456724,
				"y": 1.4619397326,
				"z": 1.4469759242,
				"element": "C" 
			},
			{
				"x": 0.2439195661,
				"y": 0.1101026121,
				"z": 1.9297533225,
				"element": "C" 
			},
			{
				"x": -2.4077915106,
				"y": 0.9257764185,
				"z": 0.6294913781,
				"element": "O" 
			},
			{
				"x": -3.4654832683,
				"y": 0.6776527346,
				"z": -0.212038285,
				"element": "C" 
			},
			{
				"x": -3.4929312984,
				"y": 0.9279811748,
				"z": -1.5879221228,
				"element": "C" 
			},
			{
				"x": -4.6472477185,
				"y": 0.6311784744,
				"z": -2.3188755962,
				"element": "C" 
			},
			{
				"x": -5.7708979178,
				"y": 0.0905076266,
				"z": -1.697809269,
				"element": "C" 
			},
			{
				"x": -5.7361588218,
				"y": -0.1540315221,
				"z": -0.3214768645,
				"element": "C" 
			},
			{
				"x": -4.5937907612,
				"y": 0.134131624,
				"z": 0.4177585974,
				"element": "C" 
			},
			{
				"x": -1.2022825921,
				"y": 2.7251303982,
				"z": -0.4616706715,
				"element": "C" 
			},
			{
				"x": -0.1580529658,
				"y": 2.9658617748,
				"z": -1.2963672084,
				"element": "O" 
			},
			{
				"x": -2.0367299703,
				"y": 3.5557324423,
				"z": -0.1977359377,
				"element": "O" 
			},
			{
				"x": 5.568149665,
				"y": -3.3439410771,
				"z": -0.8278838517,
				"element": "H" 
			},
			{
				"x": 3.95268166,
				"y": -3.1247791726,
				"z": -1.529704832,
				"element": "H" 
			},
			{
				"x": 4.9975103669,
				"y": -1.7173786046,
				"z": -1.2524366398,
				"element": "H" 
			},
			{
				"x": 3.1891269026,
				"y": -3.7748036249,
				"z": 2.0868865532,
				"element": "H" 
			},
			{
				"x": 4.4600292118,
				"y": -4.5853883281,
				"z": 1.1437251036,
				"element": "H" 
			},
			{
				"x": 2.8664842101,
				"y": -4.3064859342,
				"z": 0.4209037608,
				"element": "H" 
			},
			{
				"x": 6.0253751781,
				"y": -2.4997932602,
				"z": 1.5634118044,
				"element": "H" 
			},
			{
				"x": 5.4290994105,
				"y": -0.8968932434,
				"z": 1.0990555971,
				"element": "H" 
			},
			{
				"x": 4.711100688,
				"y": -1.7402378458,
				"z": 2.4903533771,
				"element": "H" 
			},
			{
				"x": 1.3437328257,
				"y": -0.8424385565,
				"z": -1.1152052494,
				"element": "H" 
			},
			{
				"x": 1.5895681019,
				"y": 0.8485752575,
				"z": -0.6925403155,
				"element": "H" 
			},
			{
				"x": -1.063127656,
				"y": -0.6822359922,
				"z": -0.6260480459,
				"element": "H" 
			},
			{
				"x": -0.5775683106,
				"y": 0.5109291546,
				"z": -1.8274970574,
				"element": "H" 
			},
			{
				"x": 0.5718281118,
				"y": 2.1306693541,
				"z": 1.2592499247,
				"element": "H" 
			},
			{
				"x": -0.9091254526,
				"y": 1.927143726,
				"z": 2.2053749925,
				"element": "H" 
			},
			{
				"x": -0.6006350867,
				"y": -0.5647864826,
				"z": 2.121233931,
				"element": "H" 
			},
			{
				"x": 0.7941290441,
				"y": 0.2135867857,
				"z": 2.86676539,
				"element": "H" 
			},
			{
				"x": -2.6408401235,
				"y": 1.3560797238,
				"z": -2.1010370336,
				"element": "H" 
			},
			{
				"x": -4.6584308576,
				"y": 0.831185457,
				"z": -3.3866381524,
				"element": "H" 
			},
			{
				"x": -6.6618964736,
				"y": -0.1362120079,
				"z": -2.2748417531,
				"element": "H" 
			},
			{
				"x": -6.6034288551,
				"y": -0.5734937372,
				"z": 0.1804939868,
				"element": "H" 
			},
			{
				"x": -4.5496206978,
				"y": -0.0486535049,
				"z": 1.4863847875,
				"element": "H" 
			},
			{
				"x": -0.2436697917,
				"y": 3.8932267349,
				"z": -1.5764768566,
				"element": "H" 
			}
		],
		 "valence_orbital": [ 
			{
				"type": "occ",
				"energy": -0.28264,
				"method": "rhf"
			},
			{
				"type": "occ",
				"energy": -0.2574,
				"method": "rhf"
			},
			{
				"type": "occ",
				"energy": -0.24985,
				"method": "rhf"
			},
			{
				"type": "occ",
				"energy": -0.23419,
				"method": "rhf"
			},
			{
				"type": "occ",
				"energy": -0.22092,
				"method": "rhf"
			},
			{
				"type": "unocc",
				"energy": -0.00709,
				"method": "rhf"
			},
			{
				"type": "unocc",
				"energy": -0.00012,
				"method": "rhf"
			},
			{
				"type": "unocc",
				"energy": 0.0113,
				"method": "rhf"
			},
			{
				"type": "unocc",
				"energy": 0.0533,
				"method": "rhf"
			},
			{
				"type": "unocc",
				"energy": 0.05939,
				"method": "rhf"
			}
		],
		"cosmo_sigma_profile": { 
			"-0.025": 0.0,
			"-0.024": 0.0,
			"-0.023": 0.0,
			"-0.022": 0.0,
			"-0.021": 0.0,
			"-0.02": 0.0,
			"-0.019": 0.287625125041,
			"-0.018": 1.12316403188,
			"-0.017": 0.738920597731,
			"-0.016": 0.780741968729,
			"-0.015": 0.804234374489,
			"-0.014": 0.428935803312,
			"-0.013": 1.09801077598,
			"-0.012": 1.00046534323,
			"-0.011": 0.559124877481,
			"-0.01": 0.413472718288,
			"-0.009": 0.614913674447,
			"-0.008": 1.07287735302,
			"-0.007": 3.21802281932,
			"-0.006": 9.37502610353,
			"-0.005": 21.133663759,
			"-0.004": 36.9468112229,
			"-0.003": 42.8023562504,
			"-0.002": 33.2186662615,
			"-0.001": 30.0632674152,
			"0.0": 36.0564480707,
			"0.001": 31.4184496942,
			"0.002": 18.2479154296,
			"0.003": 14.0451913049,
			"0.004": 16.4152575047,
			"0.005": 16.7583193492,
			"0.006": 13.9001168993,
			"0.007": 5.91184515584,
			"0.008": 4.95747447241,
			"0.009": 4.02867896781,
			"0.01": 4.17283481561,
			"0.011": 6.59869862889,
			"0.012": 3.871629703,
			"0.013": 2.62770598026,
			"0.014": 1.93402079602,
			"0.015": 0.0159483681384,
			"0.016": 0.0,
			"0.017": 0.0,
			"0.018": 0.0,
			"0.019": 0.0,
			"0.02": 0.0,
			"0.021": 0.0,
			"0.022": 0.0,
			"0.023": 0.0,
			"0.024": 0.0,
			"0.025": 0.0
		}
	}
}
