{
	 "smiles": "CCOC(=O)C1=C(C)OC(=C1)C1=CC=C(C)C=C1", 
	 "Tm": 355.65, 
	 "num_atms": 34, 
	 "gaussian": { 
		 "optdone": 1, 
		 "sigma_profile": "yes", 
		 "theory": "DFT", 
		 "functional": "B3LYP", 
		 "basiset": "6-31G**", 
		 "properties": { 
			 "R2extent": 7151.5906, 
			 "electric_dipole_moment_norm": 1.89390418712, 
			 "electric_quadrupole_moment_norm": 9.92958302448, 
			 "total_energy": -806.936239959, 
			 "HOMO_LUMO_gap": 0.17028, 
			 "cosmo_polarized_energy": -8.62, 
			 "cosmo_cavitation_energy": 38.4, 
			 "cosmo_dispersion_energy": -27.57, 
			 "cosmo_repulsion_energy": 2.16, 
			 "cosmo_total_nonelectrostatic_energy": 12.99, 
			 "SMD_solvation_energy": 8.06 
		},
		"coords": [
			{
				"x": 3.9843993507,
				"y": -3.9683216753,
				"z": -1.3132135086,
				"element": "C" 
			},
			{
				"x": 2.9807274834,
				"y": -4.09404274,
				"z": -0.1825078265,
				"element": "C" 
			},
			{
				"x": 2.2112457239,
				"y": -2.872555367,
				"z": -0.1483728201,
				"element": "O" 
			},
			{
				"x": 1.2567672522,
				"y": -2.8050716107,
				"z": 0.8104310352,
				"element": "C" 
			},
			{
				"x": 1.046657556,
				"y": -3.7082710389,
				"z": 1.6025751854,
				"element": "O" 
			},
			{
				"x": 0.5361179414,
				"y": -1.5255950016,
				"z": 0.7567906992,
				"element": "C" 
			},
			{
				"x": -0.4893559985,
				"y": -1.147384132,
				"z": 1.5942331655,
				"element": "C" 
			},
			{
				"x": -1.1789664762,
				"y": -1.804023532,
				"z": 2.7343523807,
				"element": "C" 
			},
			{
				"x": -0.9106116859,
				"y": 0.0958194663,
				"z": 1.2493095521,
				"element": "O" 
			},
			{
				"x": -0.1557493242,
				"y": 0.5353291118,
				"z": 0.1781079796,
				"element": "C" 
			},
			{
				"x": 0.745472261,
				"y": -0.4351437737,
				"z": -0.1537150261,
				"element": "C" 
			},
			{
				"x": -0.4579515287,
				"y": 1.8611561876,
				"z": -0.345795823,
				"element": "C" 
			},
			{
				"x": 0.2639839469,
				"y": 2.3825124137,
				"z": -1.4348098399,
				"element": "C" 
			},
			{
				"x": -0.0202280954,
				"y": 3.6478141947,
				"z": -1.9348412171,
				"element": "C" 
			},
			{
				"x": -1.032037848,
				"y": 4.4435076793,
				"z": -1.3760102473,
				"element": "C" 
			},
			{
				"x": -1.3531211913,
				"y": 5.8047940235,
				"z": -1.9448156379,
				"element": "C" 
			},
			{
				"x": -1.7452617877,
				"y": 3.9214578906,
				"z": -0.289939348,
				"element": "C" 
			},
			{
				"x": -1.4695087709,
				"y": 2.6549029012,
				"z": 0.2197571915,
				"element": "C" 
			},
			{
				"x": 4.6536215929,
				"y": -3.1186295232,
				"z": -1.1496554322,
				"element": "H" 
			},
			{
				"x": 3.4776474852,
				"y": -3.8280064188,
				"z": -2.2724330079,
				"element": "H" 
			},
			{
				"x": 4.5910827158,
				"y": -4.8772122988,
				"z": -1.3743973345,
				"element": "H" 
			},
			{
				"x": 3.4690923,
				"y": -4.2331030243,
				"z": 0.7873542703,
				"element": "H" 
			},
			{
				"x": 2.2996924731,
				"y": -4.9385485538,
				"z": -0.3290942674,
				"element": "H" 
			},
			{
				"x": -2.2508712925,
				"y": -1.912189839,
				"z": 2.5318811885,
				"element": "H" 
			},
			{
				"x": -0.7410884673,
				"y": -2.7887502754,
				"z": 2.8956396798,
				"element": "H" 
			},
			{
				"x": -1.076591327,
				"y": -1.2073311733,
				"z": 3.6482366423,
				"element": "H" 
			},
			{
				"x": 1.4791645873,
				"y": -0.4039084547,
				"z": -0.9439484413,
				"element": "H" 
			},
			{
				"x": 1.055253047,
				"y": 1.7940840634,
				"z": -1.8897566397,
				"element": "H" 
			},
			{
				"x": 0.5553038115,
				"y": 4.0282030065,
				"z": -2.7754193225,
				"element": "H" 
			},
			{
				"x": -1.9977546335,
				"y": 5.7246291963,
				"z": -2.8294447311,
				"element": "H" 
			},
			{
				"x": -1.8768698073,
				"y": 6.4296990721,
				"z": -1.2156026108,
				"element": "H" 
			},
			{
				"x": -0.4462397599,
				"y": 6.3340780478,
				"z": -2.2547812586,
				"element": "H" 
			},
			{
				"x": -2.5312389374,
				"y": 4.5172737829,
				"z": 0.1678236546,
				"element": "H" 
			},
			{
				"x": -2.0355825965,
				"y": 2.2749273951,
				"z": 1.0631617156,
				"element": "H" 
			}
		],
		 "valence_orbital": [ 
			{
				"type": "occ",
				"energy": -0.28323,
				"method": "rhf"
			},
			{
				"type": "occ",
				"energy": -0.26773,
				"method": "rhf"
			},
			{
				"type": "occ",
				"energy": -0.2663,
				"method": "rhf"
			},
			{
				"type": "occ",
				"energy": -0.2504,
				"method": "rhf"
			},
			{
				"type": "occ",
				"energy": -0.201,
				"method": "rhf"
			},
			{
				"type": "unocc",
				"energy": -0.03072,
				"method": "rhf"
			},
			{
				"type": "unocc",
				"energy": -0.01897,
				"method": "rhf"
			},
			{
				"type": "unocc",
				"energy": -0.00015,
				"method": "rhf"
			},
			{
				"type": "unocc",
				"energy": 0.06292,
				"method": "rhf"
			},
			{
				"type": "unocc",
				"energy": 0.09568,
				"method": "rhf"
			}
		],
		"cosmo_sigma_profile": { 
			"-0.025": 0.0,
			"-0.024": 0.0,
			"-0.023": 0.0,
			"-0.022": 0.0,
			"-0.021": 0.0,
			"-0.02": 0.0,
			"-0.019": 0.0,
			"-0.018": 0.0,
			"-0.017": 0.0,
			"-0.016": 0.0,
			"-0.015": 0.0,
			"-0.014": 0.0,
			"-0.013": 0.0,
			"-0.012": 0.0,
			"-0.011": 0.0,
			"-0.01": 0.0,
			"-0.009": 0.0,
			"-0.008": 0.850084993923,
			"-0.007": 2.44088692241,
			"-0.006": 5.86174707384,
			"-0.005": 17.9063300914,
			"-0.004": 30.4548787092,
			"-0.003": 31.2591601946,
			"-0.002": 31.1878730917,
			"-0.001": 31.1462514018,
			"0.0": 31.8863339487,
			"0.001": 24.4610388099,
			"0.002": 22.0522774409,
			"0.003": 21.1240073687,
			"0.004": 17.3125683221,
			"0.005": 15.9885087257,
			"0.006": 8.23852273508,
			"0.007": 1.6600586537,
			"0.008": 1.18462540146,
			"0.009": 2.03054329879,
			"0.01": 1.72611804405,
			"0.011": 2.25858610451,
			"0.012": 3.11035225533,
			"0.013": 0.744438596136,
			"0.014": 0.0,
			"0.015": 0.0,
			"0.016": 0.0,
			"0.017": 0.0,
			"0.018": 0.0,
			"0.019": 0.0,
			"0.02": 0.0,
			"0.021": 0.0,
			"0.022": 0.0,
			"0.023": 0.0,
			"0.024": 0.0,
			"0.025": 0.0
		}
	}
}
