{
	 "smiles": "CN(C)C1=CC=CC(=C1)[N+]([O-])=O", 
	 "Tm": 332.95, 
	 "num_atms": 22, 
	 "gaussian": { 
		 "optdone": 1, 
		 "sigma_profile": "yes", 
		 "theory": "DFT", 
		 "functional": "B3LYP", 
		 "basiset": "6-31G**", 
		 "properties": { 
			 "R2extent": 3127.4344, 
			 "electric_dipole_moment_norm": 6.14164869803, 
			 "electric_quadrupole_moment_norm": 17.3020122376, 
			 "total_energy": -570.722737237, 
			 "HOMO_LUMO_gap": 0.12983, 
			 "cosmo_polarized_energy": -9.4, 
			 "cosmo_cavitation_energy": 25.67, 
			 "cosmo_dispersion_energy": -18.89, 
			 "cosmo_repulsion_energy": 1.49, 
			 "cosmo_total_nonelectrostatic_energy": 8.27, 
			 "SMD_solvation_energy": 6.46 
		},
		"coords": [
			{
				"x": 0.8438955766,
				"y": -1.3766815957,
				"z": 2.6126262421,
				"element": "C" 
			},
			{
				"x": 1.3777180442,
				"y": -1.2732744218,
				"z": 1.265004632,
				"element": "N" 
			},
			{
				"x": 2.4272658458,
				"y": -2.19047308,
				"z": 0.850192932,
				"element": "C" 
			},
			{
				"x": 1.1285464316,
				"y": -0.1379458422,
				"z": 0.5147022734,
				"element": "C" 
			},
			{
				"x": 0.2248599721,
				"y": 0.8601984375,
				"z": 0.9563829414,
				"element": "C" 
			},
			{
				"x": -0.0395997882,
				"y": 1.98770962,
				"z": 0.1831784303,
				"element": "C" 
			},
			{
				"x": 0.5777676163,
				"y": 2.1857038766,
				"z": -1.0503464804,
				"element": "C" 
			},
			{
				"x": 1.472751764,
				"y": 1.2054580743,
				"z": -1.4696413059,
				"element": "C" 
			},
			{
				"x": 1.7646604283,
				"y": 0.0665331896,
				"z": -0.7287832167,
				"element": "C" 
			},
			{
				"x": 2.1571433112,
				"y": 1.3796748246,
				"z": -2.7646950842,
				"element": "N" 
			},
			{
				"x": 1.895158202,
				"y": 2.3891881241,
				"z": -3.4179193258,
				"element": "O" 
			},
			{
				"x": 2.950855507,
				"y": 0.5076213034,
				"z": -3.1203712241,
				"element": "O" 
			},
			{
				"x": 1.1298777335,
				"y": -2.3399050541,
				"z": 3.0366698886,
				"element": "H" 
			},
			{
				"x": 1.2169389083,
				"y": -0.5850558408,
				"z": 3.2802012339,
				"element": "H" 
			},
			{
				"x": -0.2517626754,
				"y": -1.3301312741,
				"z": 2.6111614314,
				"element": "H" 
			},
			{
				"x": 2.459300839,
				"y": -3.0327721307,
				"z": 1.5422697701,
				"element": "H" 
			},
			{
				"x": 2.2290421234,
				"y": -2.5920924118,
				"z": -0.1503187057,
				"element": "H" 
			},
			{
				"x": 3.4215443436,
				"y": -1.7193586788,
				"z": 0.8359341119,
				"element": "H" 
			},
			{
				"x": -0.2755947003,
				"y": 0.7564346857,
				"z": 1.910945233,
				"element": "H" 
			},
			{
				"x": -0.7407060619,
				"y": 2.7283849256,
				"z": 0.5560202614,
				"element": "H" 
			},
			{
				"x": 0.3896495154,
				"y": 3.0540051396,
				"z": -1.6667022213,
				"element": "H" 
			},
			{
				"x": 2.4793870636,
				"y": -0.6336218709,
				"z": -1.1347118175,
				"element": "H" 
			}
		],
		 "valence_orbital": [ 
			{
				"type": "occ",
				"energy": -0.29899,
				"method": "rhf"
			},
			{
				"type": "occ",
				"energy": -0.2976,
				"method": "rhf"
			},
			{
				"type": "occ",
				"energy": -0.2807,
				"method": "rhf"
			},
			{
				"type": "occ",
				"energy": -0.26921,
				"method": "rhf"
			},
			{
				"type": "occ",
				"energy": -0.20785,
				"method": "rhf"
			},
			{
				"type": "unocc",
				"energy": -0.07802,
				"method": "rhf"
			},
			{
				"type": "unocc",
				"energy": -0.00529,
				"method": "rhf"
			},
			{
				"type": "unocc",
				"energy": 0.01802,
				"method": "rhf"
			},
			{
				"type": "unocc",
				"energy": 0.07342,
				"method": "rhf"
			},
			{
				"type": "unocc",
				"energy": 0.09509,
				"method": "rhf"
			}
		],
		"cosmo_sigma_profile": { 
			"-0.025": 0.0,
			"-0.024": 0.0,
			"-0.023": 0.0,
			"-0.022": 0.0,
			"-0.021": 0.0,
			"-0.02": 0.0,
			"-0.019": 0.0,
			"-0.018": 0.0,
			"-0.017": 0.0,
			"-0.016": 0.0,
			"-0.015": 0.0,
			"-0.014": 0.0,
			"-0.013": 0.0,
			"-0.012": 0.0,
			"-0.011": 0.0,
			"-0.01": 0.0,
			"-0.009": 0.0,
			"-0.008": 0.0344863041379,
			"-0.007": 3.65101402103,
			"-0.006": 11.8325320171,
			"-0.005": 16.0888717474,
			"-0.004": 20.1440218502,
			"-0.003": 19.8909991725,
			"-0.002": 21.8893924874,
			"-0.001": 14.8729713005,
			"0.0": 12.1685285621,
			"0.001": 12.8038761287,
			"0.002": 11.9516640378,
			"0.003": 15.87398161,
			"0.004": 9.82652996676,
			"0.005": 4.84510278969,
			"0.006": 3.54567965181,
			"0.007": 6.01369961315,
			"0.008": 9.57138194787,
			"0.009": 4.90279824877,
			"0.01": 3.56433898623,
			"0.011": 0.57093332372,
			"0.012": 0.0,
			"0.013": 0.0,
			"0.014": 0.0,
			"0.015": 0.0,
			"0.016": 0.0,
			"0.017": 0.0,
			"0.018": 0.0,
			"0.019": 0.0,
			"0.02": 0.0,
			"0.021": 0.0,
			"0.022": 0.0,
			"0.023": 0.0,
			"0.024": 0.0,
			"0.025": 0.0
		}
	}
}
