{
	 "smiles": "OC(=O)CC1=CC=C(F)C=C1", 
	 "Tm": 357.65, 
	 "num_atms": 18, 
	 "gaussian": { 
		 "optdone": 1, 
		 "sigma_profile": "yes", 
		 "theory": "DFT", 
		 "functional": "B3LYP", 
		 "basiset": "6-31G**", 
		 "properties": { 
			 "R2extent": 2561.8803, 
			 "electric_dipole_moment_norm": 2.41212383803, 
			 "electric_quadrupole_moment_norm": 4.74087198414, 
			 "total_energy": -559.367557954, 
			 "HOMO_LUMO_gap": 0.22725, 
			 "cosmo_polarized_energy": -11.31, 
			 "cosmo_cavitation_energy": 23.52, 
			 "cosmo_dispersion_energy": -16.73, 
			 "cosmo_repulsion_energy": 1.34, 
			 "cosmo_total_nonelectrostatic_energy": 8.13, 
			 "SMD_solvation_energy": 5.77 
		},
		"coords": [
			{
				"x": 1.2608947486,
				"y": -4.1650183239,
				"z": -0.9481113445,
				"element": "O" 
			},
			{
				"x": 0.8992519444,
				"y": -2.9325332677,
				"z": -0.509212242,
				"element": "C" 
			},
			{
				"x": -0.150879698,
				"y": -2.7197417209,
				"z": 0.0494992672,
				"element": "O" 
			},
			{
				"x": 1.987401837,
				"y": -1.9151616071,
				"z": -0.8256009083,
				"element": "C" 
			},
			{
				"x": 1.6667804743,
				"y": -0.5125627746,
				"z": -0.3711078064,
				"element": "C" 
			},
			{
				"x": 0.9914075937,
				"y": 0.3765243358,
				"z": -1.2162562515,
				"element": "C" 
			},
			{
				"x": 0.681895483,
				"y": 1.6717404426,
				"z": -0.8027405342,
				"element": "C" 
			},
			{
				"x": 1.0587170437,
				"y": 2.0700529106,
				"z": 0.4743280321,
				"element": "C" 
			},
			{
				"x": 0.7679331861,
				"y": 3.3235589428,
				"z": 0.8825358931,
				"element": "F" 
			},
			{
				"x": 1.7314443891,
				"y": 1.2170339269,
				"z": 1.3411291095,
				"element": "C" 
			},
			{
				"x": 2.0312656632,
				"y": -0.073997246,
				"z": 0.9078317229,
				"element": "C" 
			},
			{
				"x": 0.527454756,
				"y": -4.7589890983,
				"z": -0.7155935277,
				"element": "H" 
			},
			{
				"x": 2.9134076108,
				"y": -2.2819515945,
				"z": -0.3673473781,
				"element": "H" 
			},
			{
				"x": 2.1599708755,
				"y": -1.9550870212,
				"z": -1.9075683576,
				"element": "H" 
			},
			{
				"x": 0.7007194754,
				"y": 0.0547580899,
				"z": -2.212848387,
				"element": "H" 
			},
			{
				"x": 0.1605621989,
				"y": 2.3682958562,
				"z": -1.4502088354,
				"element": "H" 
			},
			{
				"x": 2.0107433244,
				"y": 1.5667549674,
				"z": 2.3290010052,
				"element": "H" 
			},
			{
				"x": 2.5566290939,
				"y": -0.7492768182,
				"z": 1.5780705428,
				"element": "H" 
			}
		],
		 "valence_orbital": [ 
			{
				"type": "occ",
				"energy": -0.34377,
				"method": "rhf"
			},
			{
				"type": "occ",
				"energy": -0.3224,
				"method": "rhf"
			},
			{
				"type": "occ",
				"energy": -0.27909,
				"method": "rhf"
			},
			{
				"type": "occ",
				"energy": -0.26045,
				"method": "rhf"
			},
			{
				"type": "occ",
				"energy": -0.2409,
				"method": "rhf"
			},
			{
				"type": "unocc",
				"energy": -0.01365,
				"method": "rhf"
			},
			{
				"type": "unocc",
				"energy": -0.00174,
				"method": "rhf"
			},
			{
				"type": "unocc",
				"energy": 0.00989,
				"method": "rhf"
			},
			{
				"type": "unocc",
				"energy": 0.07609,
				"method": "rhf"
			},
			{
				"type": "unocc",
				"energy": 0.08111,
				"method": "rhf"
			}
		],
		"cosmo_sigma_profile": { 
			"-0.025": 0.0,
			"-0.024": 0.0,
			"-0.023": 0.0,
			"-0.022": 0.0,
			"-0.021": 0.0,
			"-0.02": 0.0,
			"-0.019": 0.0,
			"-0.018": 0.443887725878,
			"-0.017": 1.29148502372,
			"-0.016": 0.800048717398,
			"-0.015": 0.426180288924,
			"-0.014": 0.78291721973,
			"-0.013": 1.00435405763,
			"-0.012": 0.623137559663,
			"-0.011": 0.701986676239,
			"-0.01": 1.11528732169,
			"-0.009": 0.42435268347,
			"-0.008": 0.544983826091,
			"-0.007": 11.7880771654,
			"-0.006": 14.1508685454,
			"-0.005": 13.3496034946,
			"-0.004": 10.4503934103,
			"-0.003": 10.3486766962,
			"-0.002": 8.73042633978,
			"-0.001": 8.21290293353,
			"0.0": 9.50933652458,
			"0.001": 13.6029883086,
			"0.002": 12.6798383611,
			"0.003": 12.2584880984,
			"0.004": 18.7848538399,
			"0.005": 10.0245135129,
			"0.006": 2.98322618545,
			"0.007": 2.96700095402,
			"0.008": 3.2537341312,
			"0.009": 4.31020009098,
			"0.01": 2.91676955847,
			"0.011": 4.04780486489,
			"0.012": 4.51142989382,
			"0.013": 0.494209796092,
			"0.014": 0.0,
			"0.015": 0.0,
			"0.016": 0.0,
			"0.017": 0.0,
			"0.018": 0.0,
			"0.019": 0.0,
			"0.02": 0.0,
			"0.021": 0.0,
			"0.022": 0.0,
			"0.023": 0.0,
			"0.024": 0.0,
			"0.025": 0.0
		}
	}
}
