{
	 "smiles": "COC1=C(OCCBr)C=CC=C1", 
	 "Tm": 313.15, 
	 "num_atms": 23, 
	 "gaussian": { 
		 "optdone": 1, 
		 "sigma_profile": "yes", 
		 "theory": "DFT", 
		 "functional": "B3LYP", 
		 "basiset": "6-31G**", 
		 "properties": { 
			 "R2extent": 6277.5644, 
			 "electric_dipole_moment_norm": 2.66747936637, 
			 "electric_quadrupole_moment_norm": 13.6226600648, 
			 "total_energy": -3071.41386514, 
			 "HOMO_LUMO_gap": 0.21693, 
			 "cosmo_polarized_energy": -7.88, 
			 "cosmo_cavitation_energy": 28.93, 
			 "cosmo_dispersion_energy": -21.31, 
			 "cosmo_repulsion_energy": 1.74, 
			 "cosmo_total_nonelectrostatic_energy": 9.36, 
			 "SMD_solvation_energy": 4.63 
		},
		"coords": [
			{
				"x": 0.0971276805,
				"y": 0.7584992572,
				"z": -2.9688587416,
				"element": "C" 
			},
			{
				"x": 0.7733208216,
				"y": 0.2025462523,
				"z": -1.8514879169,
				"element": "O" 
			},
			{
				"x": 0.2252570914,
				"y": 0.3807391248,
				"z": -0.61267013,
				"element": "C" 
			},
			{
				"x": 0.9501762217,
				"y": -0.1680389884,
				"z": 0.4692521474,
				"element": "C" 
			},
			{
				"x": 2.160596139,
				"y": -0.7954199721,
				"z": 0.2669801286,
				"element": "O" 
			},
			{
				"x": 2.1030493021,
				"y": -2.0696752327,
				"z": -0.3875355678,
				"element": "C" 
			},
			{
				"x": 3.5477243273,
				"y": -2.5087195983,
				"z": -0.5494679373,
				"element": "C" 
			},
			{
				"x": 3.6182904416,
				"y": -4.2782045495,
				"z": -1.4174450708,
				"element": "Br" 
			},
			{
				"x": 0.4767318773,
				"y": -0.0173147812,
				"z": 1.7684070115,
				"element": "C" 
			},
			{
				"x": -0.713850428,
				"y": 0.671563229,
				"z": 2.0194363893,
				"element": "C" 
			},
			{
				"x": -1.4344691792,
				"y": 1.2017070759,
				"z": 0.9534862241,
				"element": "C" 
			},
			{
				"x": -0.9705534819,
				"y": 1.0588130161,
				"z": -0.3589597347,
				"element": "C" 
			},
			{
				"x": -0.90393869,
				"y": 0.3261707421,
				"z": -3.0938398193,
				"element": "H" 
			},
			{
				"x": 0.0092326672,
				"y": 1.8489929703,
				"z": -2.8843036,
				"element": "H" 
			},
			{
				"x": 0.7055246486,
				"y": 0.5133757289,
				"z": -3.8406066288,
				"element": "H" 
			},
			{
				"x": 1.5468051354,
				"y": -2.7881754951,
				"z": 0.2282288544,
				"element": "H" 
			},
			{
				"x": 1.6153007255,
				"y": -1.9854436608,
				"z": -1.3627140849,
				"element": "H" 
			},
			{
				"x": 4.1037495097,
				"y": -1.8249099113,
				"z": -1.1889793816,
				"element": "H" 
			},
			{
				"x": 4.0499245878,
				"y": -2.6130714181,
				"z": 0.4112373623,
				"element": "H" 
			},
			{
				"x": 1.0661297894,
				"y": -0.4416792197,
				"z": 2.5751581776,
				"element": "H" 
			},
			{
				"x": -1.0708457829,
				"y": 0.7854074607,
				"z": 3.038124071,
				"element": "H" 
			},
			{
				"x": -2.3632280175,
				"y": 1.7356576918,
				"z": 1.1312348701,
				"element": "H" 
			},
			{
				"x": -1.5413553866,
				"y": 1.4847802781,
				"z": -1.1756766224,
				"element": "H" 
			}
		],
		 "valence_orbital": [ 
			{
				"type": "occ",
				"energy": -0.2801,
				"method": "rhf"
			},
			{
				"type": "occ",
				"energy": -0.27532,
				"method": "rhf"
			},
			{
				"type": "occ",
				"energy": -0.27212,
				"method": "rhf"
			},
			{
				"type": "occ",
				"energy": -0.24432,
				"method": "rhf"
			},
			{
				"type": "occ",
				"energy": -0.21827,
				"method": "rhf"
			},
			{
				"type": "unocc",
				"energy": -0.00134,
				"method": "rhf"
			},
			{
				"type": "unocc",
				"energy": 0.00362,
				"method": "rhf"
			},
			{
				"type": "unocc",
				"energy": 0.00916,
				"method": "rhf"
			},
			{
				"type": "unocc",
				"energy": 0.08383,
				"method": "rhf"
			},
			{
				"type": "unocc",
				"energy": 0.09722,
				"method": "rhf"
			}
		],
		"cosmo_sigma_profile": { 
			"-0.025": 0.0,
			"-0.024": 0.0,
			"-0.023": 0.0,
			"-0.022": 0.0,
			"-0.021": 0.0,
			"-0.02": 0.0,
			"-0.019": 0.0,
			"-0.018": 0.0,
			"-0.017": 0.0,
			"-0.016": 0.0,
			"-0.015": 0.0,
			"-0.014": 0.0,
			"-0.013": 0.0,
			"-0.012": 0.0,
			"-0.011": 0.0,
			"-0.01": 0.0,
			"-0.009": 0.0,
			"-0.008": 0.421768983272,
			"-0.007": 4.26956484351,
			"-0.006": 12.4953918012,
			"-0.005": 22.1822707682,
			"-0.004": 22.5627941554,
			"-0.003": 24.6642045292,
			"-0.002": 16.6707401532,
			"-0.001": 14.4977522173,
			"0.0": 12.8938100703,
			"0.001": 11.6373456651,
			"0.002": 13.9974509713,
			"0.003": 14.8343756175,
			"0.004": 16.8022145916,
			"0.005": 18.2646865622,
			"0.006": 16.372428138,
			"0.007": 2.0452616614,
			"0.008": 2.15811298627,
			"0.009": 2.15055594255,
			"0.01": 2.89570354235,
			"0.011": 0.939067412366,
			"0.012": 0.0,
			"0.013": 0.0,
			"0.014": 0.0,
			"0.015": 0.0,
			"0.016": 0.0,
			"0.017": 0.0,
			"0.018": 0.0,
			"0.019": 0.0,
			"0.02": 0.0,
			"0.021": 0.0,
			"0.022": 0.0,
			"0.023": 0.0,
			"0.024": 0.0,
			"0.025": 0.0
		}
	}
}
