{
	 "smiles": "CC1=NN2C=C(Br)C=NC2=C1", 
	 "Tm": 411.15, 
	 "num_atms": 17, 
	 "gaussian": { 
		 "optdone": 1, 
		 "sigma_profile": "yes", 
		 "theory": "DFT", 
		 "functional": "B3LYP", 
		 "basiset": "6-31G**", 
		 "properties": { 
			 "R2extent": 4797.8407, 
			 "electric_dipole_moment_norm": 0.607588561446, 
			 "electric_quadrupole_moment_norm": 5.66838235743, 
			 "total_energy": -3005.98949514, 
			 "HOMO_LUMO_gap": 0.16615, 
			 "cosmo_polarized_energy": -7.25, 
			 "cosmo_cavitation_energy": 23.88, 
			 "cosmo_dispersion_energy": -18.42, 
			 "cosmo_repulsion_energy": 1.47, 
			 "cosmo_total_nonelectrostatic_energy": 6.93, 
			 "SMD_solvation_energy": 0.83 
		},
		"coords": [
			{
				"x": 1.7986827183,
				"y": 1.4612900291,
				"z": 1.2999821394,
				"element": "C" 
			},
			{
				"x": 0.7893365256,
				"y": 0.685507287,
				"z": 0.5101653677,
				"element": "C" 
			},
			{
				"x": 1.2052885847,
				"y": -0.2963619026,
				"z": -0.3173498526,
				"element": "N" 
			},
			{
				"x": 0.0683774407,
				"y": -0.7752368744,
				"z": -0.8571428276,
				"element": "N" 
			},
			{
				"x": -0.0168978766,
				"y": -1.7858502838,
				"z": -1.7607946145,
				"element": "C" 
			},
			{
				"x": -1.2691899952,
				"y": -2.1327813726,
				"z": -2.1952105952,
				"element": "C" 
			},
			{
				"x": -1.4912819591,
				"y": -3.5340069191,
				"z": -3.4580125793,
				"element": "Br" 
			},
			{
				"x": -2.4059988271,
				"y": -1.4357327366,
				"z": -1.693447598,
				"element": "C" 
			},
			{
				"x": -2.315465583,
				"y": -0.4576655575,
				"z": -0.8179355365,
				"element": "N" 
			},
			{
				"x": -1.0843843288,
				"y": -0.1117815203,
				"z": -0.3864656461,
				"element": "C" 
			},
			{
				"x": -0.6076249319,
				"y": 0.8423540426,
				"z": 0.5073437205,
				"element": "C" 
			},
			{
				"x": 1.3098031728,
				"y": 2.2165058784,
				"z": 1.9192745222,
				"element": "H" 
			},
			{
				"x": 2.5095251813,
				"y": 1.9643697187,
				"z": 0.6365475918,
				"element": "H" 
			},
			{
				"x": 2.3756819219,
				"y": 0.798380297,
				"z": 1.9527885873,
				"element": "H" 
			},
			{
				"x": 0.9112222869,
				"y": -2.2458001085,
				"z": -2.0737775945,
				"element": "H" 
			},
			{
				"x": -3.3984645257,
				"y": -1.7128103157,
				"z": -2.0396403406,
				"element": "H" 
			},
			{
				"x": -1.2008098048,
				"y": 1.5457203383,
				"z": 1.070275256,
				"element": "H" 
			}
		],
		 "valence_orbital": [ 
			{
				"type": "occ",
				"energy": -0.30587,
				"method": "rhf"
			},
			{
				"type": "occ",
				"energy": -0.30286,
				"method": "rhf"
			},
			{
				"type": "occ",
				"energy": -0.27404,
				"method": "rhf"
			},
			{
				"type": "occ",
				"energy": -0.25194,
				"method": "rhf"
			},
			{
				"type": "occ",
				"energy": -0.22836,
				"method": "rhf"
			},
			{
				"type": "unocc",
				"energy": -0.06221,
				"method": "rhf"
			},
			{
				"type": "unocc",
				"energy": -0.02062,
				"method": "rhf"
			},
			{
				"type": "unocc",
				"energy": -0.00977,
				"method": "rhf"
			},
			{
				"type": "unocc",
				"energy": 0.05517,
				"method": "rhf"
			},
			{
				"type": "unocc",
				"energy": 0.11015,
				"method": "rhf"
			}
		],
		"cosmo_sigma_profile": { 
			"-0.025": 0.0,
			"-0.024": 0.0,
			"-0.023": 0.0,
			"-0.022": 0.0,
			"-0.021": 0.0,
			"-0.02": 0.0,
			"-0.019": 0.0,
			"-0.018": 0.0,
			"-0.017": 0.0,
			"-0.016": 0.0,
			"-0.015": 0.0,
			"-0.014": 0.0,
			"-0.013": 0.0,
			"-0.012": 0.0181047536876,
			"-0.011": 1.45687493435,
			"-0.01": 1.32182289932,
			"-0.009": 1.18871115938,
			"-0.008": 2.94399643507,
			"-0.007": 4.92624706492,
			"-0.006": 5.51196046652,
			"-0.005": 11.2343389135,
			"-0.004": 15.0011784294,
			"-0.003": 15.5293222066,
			"-0.002": 19.4534031727,
			"-0.001": 21.6084632231,
			"0.0": 16.5680028109,
			"0.001": 11.8307186835,
			"0.002": 13.5934908242,
			"0.003": 18.2522320826,
			"0.004": 12.1640846888,
			"0.005": 3.3785272086,
			"0.006": 3.48765546591,
			"0.007": 2.73485825588,
			"0.008": 1.57341162166,
			"0.009": 1.579344378,
			"0.01": 1.81615299569,
			"0.011": 2.54448528418,
			"0.012": 1.95928648774,
			"0.013": 1.81770138462,
			"0.014": 1.46734748371,
			"0.015": 0.722177878875,
			"0.016": 0.0153824946128,
			"0.017": 0.0,
			"0.018": 0.0,
			"0.019": 0.0,
			"0.02": 0.0,
			"0.021": 0.0,
			"0.022": 0.0,
			"0.023": 0.0,
			"0.024": 0.0,
			"0.025": 0.0
		}
	}
}
