{
	 "smiles": "FC(F)(F)C1=CC(=NC2=CC(=NN12)C1=CC=CS1)C1=CC=CS1", 
	 "Tm": 431.15, 
	 "num_atms": 31, 
	 "gaussian": { 
		 "optdone": 1, 
		 "sigma_profile": "yes", 
		 "theory": "DFT", 
		 "functional": "B3LYP", 
		 "basiset": "6-31G**", 
		 "properties": { 
			 "R2extent": 10651.0775, 
			 "electric_dipole_moment_norm": 2.56321128665, 
			 "electric_quadrupole_moment_norm": 23.8044504595, 
			 "total_energy": -1836.5242366, 
			 "HOMO_LUMO_gap": 0.13311, 
			 "cosmo_polarized_energy": -12.56, 
			 "cosmo_cavitation_energy": 41.26, 
			 "cosmo_dispersion_energy": -30.31, 
			 "cosmo_repulsion_energy": 2.12, 
			 "cosmo_total_nonelectrostatic_energy": 13.07, 
			 "SMD_solvation_energy": 5.96 
		},
		"coords": [
			{
				"x": 1.4074259532,
				"y": -1.620888544,
				"z": -2.1712851247,
				"element": "F" 
			},
			{
				"x": 0.5124241632,
				"y": -0.646894846,
				"z": -2.3971039992,
				"element": "C" 
			},
			{
				"x": -0.6353037469,
				"y": -1.2125218576,
				"z": -2.8014471909,
				"element": "F" 
			},
			{
				"x": 0.9774135579,
				"y": 0.1131678152,
				"z": -3.4119099576,
				"element": "F" 
			},
			{
				"x": 0.3039448938,
				"y": 0.2089524806,
				"z": -1.1668692414,
				"element": "C" 
			},
			{
				"x": 0.5616694552,
				"y": 1.5508372744,
				"z": -1.1349015744,
				"element": "C" 
			},
			{
				"x": 0.3340821612,
				"y": 2.283365783,
				"z": 0.0769901118,
				"element": "C" 
			},
			{
				"x": -0.1220075847,
				"y": 1.6952329701,
				"z": 1.1759067782,
				"element": "N" 
			},
			{
				"x": -0.373444835,
				"y": 0.3760338805,
				"z": 1.1382786382,
				"element": "C" 
			},
			{
				"x": -0.8443343902,
				"y": -0.5298211949,
				"z": 2.0798687701,
				"element": "C" 
			},
			{
				"x": -0.8864125043,
				"y": -1.7728768039,
				"z": 1.4124702212,
				"element": "C" 
			},
			{
				"x": -0.4730929969,
				"y": -1.6850426011,
				"z": 0.1284311374,
				"element": "N" 
			},
			{
				"x": -0.1643797078,
				"y": -0.387069032,
				"z": -0.0334980436,
				"element": "N" 
			},
			{
				"x": -1.3063635041,
				"y": -3.0566825192,
				"z": 1.9443054013,
				"element": "C" 
			},
			{
				"x": -1.7551231602,
				"y": -3.3493905341,
				"z": 3.2133759645,
				"element": "C" 
			},
			{
				"x": -2.0835800063,
				"y": -4.7224725547,
				"z": 3.3896442101,
				"element": "C" 
			},
			{
				"x": -1.8815720214,
				"y": -5.460571906,
				"z": 2.2534594443,
				"element": "C" 
			},
			{
				"x": -1.2864713,
				"y": -4.4931776685,
				"z": 0.9468554419,
				"element": "S" 
			},
			{
				"x": 0.5994410504,
				"y": 3.7152781621,
				"z": 0.1422173297,
				"element": "C" 
			},
			{
				"x": 1.0708078508,
				"y": 4.5670398656,
				"z": -0.8361726952,
				"element": "C" 
			},
			{
				"x": 1.2022336044,
				"y": 5.9109274396,
				"z": -0.3934483003,
				"element": "C" 
			},
			{
				"x": 0.8297019933,
				"y": 6.0678398641,
				"z": 0.9167358208,
				"element": "C" 
			},
			{
				"x": 0.3124273452,
				"y": 4.5820061207,
				"z": 1.6340726543,
				"element": "S" 
			},
			{
				"x": 0.9328777214,
				"y": 2.0335652347,
				"z": -2.0268864414,
				"element": "H" 
			},
			{
				"x": -1.113347332,
				"y": -0.3032655716,
				"z": 3.0986825938,
				"element": "H" 
			},
			{
				"x": -1.8461889416,
				"y": -2.6030607793,
				"z": 3.9943540987,
				"element": "H" 
			},
			{
				"x": -2.452888809,
				"y": -5.1407500924,
				"z": 4.3188753175,
				"element": "H" 
			},
			{
				"x": -2.047867476,
				"y": -6.5189953148,
				"z": 2.1068430242,
				"element": "H" 
			},
			{
				"x": 1.3169014989,
				"y": 4.2465957797,
				"z": -1.8419112214,
				"element": "H" 
			},
			{
				"x": 1.5567227786,
				"y": 6.7215567539,
				"z": -1.0193519768,
				"element": "H" 
			},
			{
				"x": 0.8303042889,
				"y": 6.9769823959,
				"z": 1.5027188087,
				"element": "H" 
			}
		],
		 "valence_orbital": [ 
			{
				"type": "occ",
				"energy": -0.26276,
				"method": "rhf"
			},
			{
				"type": "occ",
				"energy": -0.25995,
				"method": "rhf"
			},
			{
				"type": "occ",
				"energy": -0.25158,
				"method": "rhf"
			},
			{
				"type": "occ",
				"energy": -0.22263,
				"method": "rhf"
			},
			{
				"type": "occ",
				"energy": -0.21548,
				"method": "rhf"
			},
			{
				"type": "unocc",
				"energy": -0.08237,
				"method": "rhf"
			},
			{
				"type": "unocc",
				"energy": -0.04908,
				"method": "rhf"
			},
			{
				"type": "unocc",
				"energy": -0.01992,
				"method": "rhf"
			},
			{
				"type": "unocc",
				"energy": 0.00997,
				"method": "rhf"
			},
			{
				"type": "unocc",
				"energy": 0.02914,
				"method": "rhf"
			}
		],
		"cosmo_sigma_profile": { 
			"-0.025": 0.0,
			"-0.024": 0.0,
			"-0.023": 0.0,
			"-0.022": 0.0,
			"-0.021": 0.0,
			"-0.02": 0.0,
			"-0.019": 0.0,
			"-0.018": 0.0,
			"-0.017": 0.0,
			"-0.016": 0.0,
			"-0.015": 0.0,
			"-0.014": 0.0,
			"-0.013": 0.0,
			"-0.012": 0.00381132174936,
			"-0.011": 0.873982687996,
			"-0.01": 1.4561476853,
			"-0.009": 4.32422298936,
			"-0.008": 9.87326962864,
			"-0.007": 12.7699027182,
			"-0.006": 12.9802526829,
			"-0.005": 17.3528297482,
			"-0.004": 20.1718939332,
			"-0.003": 17.1480364717,
			"-0.002": 18.477327045,
			"-0.001": 20.10261355,
			"0.0": 20.7052362482,
			"0.001": 27.4653424367,
			"0.002": 51.1681036911,
			"0.003": 41.4835064106,
			"0.004": 32.8737184092,
			"0.005": 10.881608265,
			"0.006": 4.52452437507,
			"0.007": 4.15102500385,
			"0.008": 4.06691020328,
			"0.009": 3.69670444612,
			"0.01": 2.14370468023,
			"0.011": 0.192256876373,
			"0.012": 0.0,
			"0.013": 0.0,
			"0.014": 0.0,
			"0.015": 0.0,
			"0.016": 0.0,
			"0.017": 0.0,
			"0.018": 0.0,
			"0.019": 0.0,
			"0.02": 0.0,
			"0.021": 0.0,
			"0.022": 0.0,
			"0.023": 0.0,
			"0.024": 0.0,
			"0.025": 0.0
		}
	}
}
