{
	 "smiles": "ON=C1CCN(CC1)C(=O)NC1=CC=C(F)C=C1", 
	 "Tm": 457.15, 
	 "num_atms": 32, 
	 "gaussian": { 
		 "optdone": 1, 
		 "sigma_profile": "yes", 
		 "theory": "DFT", 
		 "functional": "B3LYP", 
		 "basiset": "6-31G**", 
		 "properties": { 
			 "R2extent": 6345.1819, 
			 "electric_dipole_moment_norm": 1.83005666852, 
			 "electric_quadrupole_moment_norm": 13.5842034393, 
			 "total_energy": -880.209829575, 
			 "HOMO_LUMO_gap": 0.20157, 
			 "cosmo_polarized_energy": -16.45, 
			 "cosmo_cavitation_energy": 35.44, 
			 "cosmo_dispersion_energy": -25.18, 
			 "cosmo_repulsion_energy": 1.94, 
			 "cosmo_total_nonelectrostatic_energy": 12.2, 
			 "SMD_solvation_energy": 6.56 
		},
		"coords": [
			{
				"x": 1.1929620161,
				"y": 2.5521086954,
				"z": -3.426845186,
				"element": "O" 
			},
			{
				"x": 0.4200468919,
				"y": 1.3985108632,
				"z": -3.1750075607,
				"element": "N" 
			},
			{
				"x": -0.1779055,
				"y": 1.4865543699,
				"z": -2.0463739194,
				"element": "C" 
			},
			{
				"x": -0.0607440659,
				"y": 2.6371224014,
				"z": -1.0748191694,
				"element": "C" 
			},
			{
				"x": -0.7820047596,
				"y": 2.2944037293,
				"z": 0.235710386,
				"element": "C" 
			},
			{
				"x": -0.4066678627,
				"y": 0.9527655364,
				"z": 0.6993372722,
				"element": "N" 
			},
			{
				"x": -0.7183753438,
				"y": -0.1655713939,
				"z": -0.2138663484,
				"element": "C" 
			},
			{
				"x": -1.0647294626,
				"y": 0.342555698,
				"z": -1.6305841086,
				"element": "C" 
			},
			{
				"x": 0.6388004586,
				"y": 0.8922459124,
				"z": 1.6018233574,
				"element": "C" 
			},
			{
				"x": 1.265466462,
				"y": 1.8801820554,
				"z": 1.9747333537,
				"element": "O" 
			},
			{
				"x": 0.999638576,
				"y": -0.3808471226,
				"z": 2.0635345888,
				"element": "N" 
			},
			{
				"x": 0.1555311683,
				"y": -1.4380840225,
				"z": 2.49252129,
				"element": "C" 
			},
			{
				"x": -1.2054870994,
				"y": -1.259353044,
				"z": 2.781439391,
				"element": "C" 
			},
			{
				"x": -1.9805948162,
				"y": -2.3317480235,
				"z": 3.2231874443,
				"element": "C" 
			},
			{
				"x": -1.3846265539,
				"y": -3.5741482362,
				"z": 3.3997680257,
				"element": "C" 
			},
			{
				"x": -2.1333941414,
				"y": -4.6098231078,
				"z": 3.8366538506,
				"element": "F" 
			},
			{
				"x": -0.0341797924,
				"y": -3.7753297163,
				"z": 3.1380299385,
				"element": "C" 
			},
			{
				"x": 0.7285542329,
				"y": -2.7063011954,
				"z": 2.6735584928,
				"element": "C" 
			},
			{
				"x": 1.599631738,
				"y": 2.3401115805,
				"z": -4.2770649642,
				"element": "H" 
			},
			{
				"x": 0.9985584785,
				"y": 2.8346399737,
				"z": -0.8765328033,
				"element": "H" 
			},
			{
				"x": -0.4648048432,
				"y": 3.5540026228,
				"z": -1.5234725321,
				"element": "H" 
			},
			{
				"x": -0.5158095813,
				"y": 3.0025955274,
				"z": 1.0185688609,
				"element": "H" 
			},
			{
				"x": -1.8698351468,
				"y": 2.3226820435,
				"z": 0.1021089923,
				"element": "H" 
			},
			{
				"x": -1.5526421083,
				"y": -0.7650668904,
				"z": 0.1700263913,
				"element": "H" 
			},
			{
				"x": 0.1549434618,
				"y": -0.8209512689,
				"z": -0.2638865175,
				"element": "H" 
			},
			{
				"x": -0.9824823276,
				"y": -0.4776806488,
				"z": -2.347615509,
				"element": "H" 
			},
			{
				"x": -2.1093950497,
				"y": 0.6820263427,
				"z": -1.6489987855,
				"element": "H" 
			},
			{
				"x": 1.8743625439,
				"y": -0.3107553503,
				"z": 2.5684769317,
				"element": "H" 
			},
			{
				"x": -1.6553264825,
				"y": -0.2795961892,
				"z": 2.6659289937,
				"element": "H" 
			},
			{
				"x": -3.0343002499,
				"y": -2.2065532267,
				"z": 3.4481884721,
				"element": "H" 
			},
			{
				"x": 0.401708867,
				"y": -4.7573875468,
				"z": 3.2859374795,
				"element": "H" 
			},
			{
				"x": 1.780300292,
				"y": -2.8520103687,
				"z": 2.4444338916,
				"element": "H" 
			}
		],
		 "valence_orbital": [ 
			{
				"type": "occ",
				"energy": -0.26754,
				"method": "rhf"
			},
			{
				"type": "occ",
				"energy": -0.26465,
				"method": "rhf"
			},
			{
				"type": "occ",
				"energy": -0.24584,
				"method": "rhf"
			},
			{
				"type": "occ",
				"energy": -0.23908,
				"method": "rhf"
			},
			{
				"type": "occ",
				"energy": -0.22108,
				"method": "rhf"
			},
			{
				"type": "unocc",
				"energy": -0.01951,
				"method": "rhf"
			},
			{
				"type": "unocc",
				"energy": -0.0064,
				"method": "rhf"
			},
			{
				"type": "unocc",
				"energy": 0.00632,
				"method": "rhf"
			},
			{
				"type": "unocc",
				"energy": 0.04635,
				"method": "rhf"
			},
			{
				"type": "unocc",
				"energy": 0.07736,
				"method": "rhf"
			}
		],
		"cosmo_sigma_profile": { 
			"-0.025": 0.0,
			"-0.024": 0.0,
			"-0.023": 0.0,
			"-0.022": 0.0,
			"-0.021": 0.0,
			"-0.02": 0.0,
			"-0.019": 0.0,
			"-0.018": 0.0,
			"-0.017": 0.555810331267,
			"-0.016": 0.786877467074,
			"-0.015": 1.20330648898,
			"-0.014": 1.00302357003,
			"-0.013": 1.8582080688,
			"-0.012": 2.03573882501,
			"-0.011": 0.91807103272,
			"-0.01": 0.923371047113,
			"-0.009": 1.9630761827,
			"-0.008": 3.10062700681,
			"-0.007": 6.68640188375,
			"-0.006": 12.5733642861,
			"-0.005": 20.2936942804,
			"-0.004": 26.1958467046,
			"-0.003": 21.8991107466,
			"-0.002": 22.8781505842,
			"-0.001": 16.234662203,
			"0.0": 15.706905032,
			"0.001": 18.9809149922,
			"0.002": 17.6822328243,
			"0.003": 16.8472385669,
			"0.004": 19.4985377366,
			"0.005": 11.6131677555,
			"0.006": 6.07696563478,
			"0.007": 3.88067675817,
			"0.008": 4.40541781002,
			"0.009": 4.66131140978,
			"0.01": 4.44672179182,
			"0.011": 2.97249553932,
			"0.012": 2.32231738452,
			"0.013": 3.79431220458,
			"0.014": 5.42423485124,
			"0.015": 0.511088471148,
			"0.016": 0.0,
			"0.017": 0.0,
			"0.018": 0.0,
			"0.019": 0.0,
			"0.02": 0.0,
			"0.021": 0.0,
			"0.022": 0.0,
			"0.023": 0.0,
			"0.024": 0.0,
			"0.025": 0.0
		}
	}
}
